/*--------------------------------*- C++ -*----------------------------------*\
| =========                 |                                                 |
| \\      /  F ield         | OpenFOAM: The Open Source CFD Toolbox           |
|  \\    /   O peration     | Version:  2406                                  |
|   \\  /    A nd           | Website:  www.openfoam.com                      |
|    \\/     M anipulation  |                                                 |
\*---------------------------------------------------------------------------*/
FoamFile
{
    version     2.0;
    format      ascii;
    arch        "LSB;label=32;scalar=64";
    class       volScalarField;
    location    "2";
    object      nu;
}
// * * * * * * * * * * * * * * * * * * * * * * * * * * * * * * * * * * * * * //

dimensions      [0 2 -1 0 0 0 0];

internalField   nonuniform List<scalar> 
1800
(
0.0145824
0.02131
0.0314012
0.0826522
0.0261349
0.0144356
0.0109276
0.00924079
0.00877618
0.00776281
0.0136345
0.0397011
0.0682519
0.0205072
0.0124109
0.00978278
0.00862241
0.00789271
0.00787074
0.00713555
0.0138934
0.0314819
0.0171582
0.0111266
0.00900606
0.00809755
0.0076645
0.00742368
0.007523
0.00730376
0.0165771
0.0179569
0.010668
0.00854365
0.0076889
0.00732044
0.0072126
0.00727929
0.00754224
0.00783487
0.028642
0.0114984
0.00841623
0.00742615
0.00706543
0.00702017
0.00719767
0.0075916
0.00827044
0.00947919
0.0156405
0.00877593
0.00732002
0.0068869
0.00686706
0.00713645
0.0077136
0.00874098
0.0106278
0.0144684
0.0100311
0.00745632
0.00677999
0.0067185
0.00703537
0.00775136
0.00906428
0.0114395
0.0156115
0.0229933
0.00795292
0.00680384
0.00656689
0.00684129
0.00759182
0.0090257
0.0116248
0.016564
0.0288985
0.0581741
0.00697979
0.006479
0.00657165
0.00721144
0.00855984
0.0111913
0.016878
0.0315759
0.0498664
0.0275795
0.00645461
0.00633627
0.00672402
0.00779946
0.0101692
0.0161726
0.0354203
0.0414405
0.0226458
0.0168943
0.0228902
0.0127059
0.0115203
0.0122567
0.0136766
0.0154704
0.0175143
0.0196085
0.0213891
0.0223464
0.0203177
0.0123597
0.0114136
0.0122701
0.013864
0.0158603
0.0180496
0.0201105
0.0214907
0.0216012
0.0211635
0.0123917
0.011263
0.0120634
0.0137119
0.0158522
0.0181847
0.020275
0.0214148
0.0207802
0.0271344
0.012966
0.0111784
0.0116975
0.0131809
0.0152667
0.0176169
0.0196986
0.0206513
0.0195885
0.0609112
0.0147211
0.0114075
0.0113732
0.0124448
0.0142019
0.0163501
0.0183685
0.0192307
0.0180694
0.0337346
0.0191427
0.012686
0.0115454
0.0119818
0.0131627
0.0147714
0.0163732
0.0170004
0.0158905
0.0234012
0.0369292
0.0167846
0.0130285
0.0123454
0.0128571
0.0138169
0.0146914
0.0147228
0.0133964
0.0236956
0.0649727
0.0378522
0.0217916
0.0160154
0.0145234
0.0142005
0.0139866
0.0131781
0.0116601
0.0259202
0.0246515
0.023673
0.0300961
0.0622699
0.0260174
0.0179731
0.0153398
0.013345
0.0117102
0.0201485
0.0179959
0.0189994
0.0247825
0.0379391
0.0331914
0.0201787
0.0147195
0.0124008
0.0119312
0.0283369
0.0635044
0.0168779
0.015876
0.0174559
0.015976
0.0144884
0.0147757
0.0143976
0.0170249
0.0227438
0.0518416
0.019208
0.0210074
0.0200346
0.0151272
0.0132138
0.0134885
0.0132034
0.0156855
0.0185878
0.0258994
0.0254932
0.0473496
0.0196252
0.0136465
0.0121264
0.0123329
0.0120585
0.0143081
0.0158178
0.018089
0.0236784
0.0403524
0.0161939
0.012422
0.0114153
0.0116227
0.0112677
0.0131061
0.0139873
0.0145388
0.018288
0.0192466
0.0135667
0.0114482
0.0108643
0.0112139
0.0108986
0.0122826
0.0126672
0.0126362
0.0145811
0.0145032
0.0119993
0.0107481
0.0104119
0.0108654
0.0108213
0.011884
0.0116603
0.0115318
0.0125995
0.0126585
0.0111878
0.0104694
0.0102385
0.010565
0.010855
0.0118388
0.0110696
0.01072
0.0112984
0.0116126
0.0108765
0.0104842
0.0103823
0.0104751
0.0109144
0.0120492
0.0102063
0.0100633
0.0109
0.0115505
0.0108731
0.0105264
0.0105899
0.0106221
0.011043
0.0124562
0.00921017
0.00931584
0.0103766
0.0110025
0.0103796
0.0104144
0.0106646
0.010861
0.0112988
0.0130605
0.00854281
0.00921486
0.0103468
0.0107454
0.010477
0.0107768
0.0108682
0.011168
0.0117351
0.0141179
0.00841312
0.00933147
0.0102036
0.00996333
0.0105362
0.0117492
0.0115197
0.0115389
0.0122368
0.0157745
0.0103803
0.00999633
0.0101047
0.0103743
0.0124399
0.0146973
0.0128275
0.0121343
0.0125651
0.0167431
0.0141783
0.0117963
0.0109188
0.012056
0.0162593
0.0201606
0.0138816
0.0127293
0.0126475
0.0160562
0.0176842
0.0133262
0.0127132
0.0138765
0.0210343
0.0195358
0.0124844
0.011854
0.0119997
0.0143326
0.0204717
0.0160365
0.0146235
0.0140096
0.015677
0.0112515
0.0101064
0.0102973
0.0107547
0.0124838
0.0284585
0.0210655
0.0143458
0.0132597
0.00989347
0.00861004
0.00853078
0.00907439
0.00975075
0.0110744
0.0146812
0.0127404
0.0113922
0.00912081
0.00773334
0.00766356
0.00807617
0.008716
0.00928667
0.0100884
0.00870132
0.00841075
0.0077514
0.00730493
0.00738738
0.00799942
0.00879199
0.00936983
0.00950744
0.00966561
0.00679372
0.00689543
0.00702131
0.00733339
0.00836842
0.0106407
0.0153625
0.0204959
0.0148342
0.011955
0.0166023
0.0204287
0.0337065
0.137933
0.0298852
0.016757
0.0104486
0.00888028
0.00791827
0.00828356
0.0193247
0.0211865
0.0259949
0.0344819
0.0754199
0.0456569
0.0196008
0.016251
0.0111325
0.00930324
0.0207941
0.0228118
0.0266779
0.0270577
0.0455477
0.0313706
0.0318856
0.0204265
0.0183448
0.0124555
0.0214899
0.0228102
0.0266208
0.0257539
0.0338349
0.0254926
0.0396552
0.0212595
0.0275575
0.0170613
0.0219886
0.0234021
0.0266679
0.0269578
0.0315054
0.0267447
0.0320376
0.023878
0.0263631
0.0208929
0.0203732
0.0218687
0.0236264
0.0264949
0.0289436
0.0319696
0.0341401
0.0305369
0.0300781
0.024942
0.0164172
0.0171168
0.0175294
0.0188905
0.0197144
0.0222388
0.0238462
0.0283294
0.0318057
0.0332271
0.0116097
0.0118503
0.0117181
0.0121807
0.0121015
0.0128173
0.0127962
0.013826
0.0138531
0.0152726
0.0083972
0.00838675
0.00835149
0.00839478
0.00838973
0.00848196
0.00850264
0.00863398
0.00867319
0.00883227
0.00655116
0.006535
0.00655583
0.00655013
0.00659116
0.00659407
0.00665172
0.00666204
0.00673243
0.00674986
0.010434
0.0106922
0.0104586
0.0102099
0.0100576
0.0101967
0.0109519
0.0101667
0.00704581
0.00578628
0.0108132
0.0107504
0.0104806
0.0101901
0.0100348
0.0102666
0.011257
0.0100521
0.00692739
0.00574906
0.0110408
0.0109434
0.01067
0.0103639
0.0102123
0.0105708
0.0118633
0.00982267
0.00681495
0.00572462
0.0112728
0.011206
0.0109374
0.0106253
0.0105121
0.0110735
0.0128014
0.00949658
0.00670489
0.00570979
0.0114315
0.0114159
0.0112103
0.0109452
0.0109513
0.0120344
0.0145072
0.00907223
0.00660295
0.00571162
0.0116534
0.011659
0.011477
0.0113052
0.0116082
0.0135859
0.0156026
0.00862662
0.00651113
0.00573121
0.0120075
0.0120113
0.0119239
0.0119296
0.0128866
0.0180955
0.0140481
0.00816515
0.0064263
0.005773
0.0125142
0.0126329
0.0125812
0.0129129
0.0165123
0.0378044
0.0119037
0.00770685
0.00635471
0.00584569
0.013323
0.0133307
0.0135886
0.0167193
0.0384029
0.0211399
0.0100213
0.00730831
0.00630576
0.00596273
0.0142249
0.0148425
0.018477
0.035201
0.0348425
0.0134025
0.00868003
0.0069756
0.00629236
0.00614963
0.011955
0.011469
0.0110368
0.0106609
0.0103107
0.00998892
0.00970057
0.00946005
0.00933847
0.00830574
0.011868
0.0114171
0.0110106
0.0106445
0.0103006
0.00998946
0.00972405
0.009457
0.00894663
0.0074344
0.0117489
0.0113418
0.010964
0.0106065
0.0102674
0.00996852
0.00973872
0.0094706
0.00860828
0.00692982
0.0116153
0.0112687
0.0109281
0.0105759
0.0102382
0.00995516
0.00977574
0.00951951
0.00831987
0.00660273
0.0114916
0.0112067
0.0109064
0.0105622
0.0102249
0.00995479
0.00982611
0.00957741
0.00806002
0.00637025
0.0113857
0.0111612
0.0108977
0.0105558
0.0102245
0.00998623
0.0099349
0.00968585
0.00783542
0.00620002
0.0113585
0.0111995
0.0109616
0.0105979
0.010243
0.0100164
0.0100416
0.00977182
0.00763521
0.00607045
0.0113519
0.0112097
0.0109965
0.0106366
0.0102974
0.0101208
0.0102615
0.00992443
0.00746136
0.00596991
0.0115737
0.0113899
0.0110759
0.0106206
0.0102518
0.0101294
0.0104299
0.0100399
0.0073099
0.00589361
0.0115102
0.0112064
0.0109575
0.0105973
0.0102812
0.010234
0.010712
0.0101462
0.00716957
0.005832
0.404639
0.0836095
0.0428103
0.0409809
0.0445527
0.0423341
0.0321371
0.0258073
0.0195801
0.0140997
0.304016
0.0825836
0.0424962
0.0382307
0.0404542
0.0410808
0.0336267
0.0262859
0.0202716
0.0139958
0.219382
0.0806852
0.0420683
0.0359836
0.0375562
0.039411
0.0353401
0.0264548
0.0212167
0.0138508
0.175991
0.0770483
0.0412855
0.0340913
0.0354195
0.0378843
0.0372895
0.026333
0.0223658
0.0136504
0.150815
0.0729272
0.04027
0.0325197
0.0338038
0.0366756
0.0393259
0.0260447
0.0234512
0.0134237
0.134596
0.0690731
0.0392774
0.0312856
0.0325846
0.0357698
0.0408268
0.0258085
0.0236857
0.0132307
0.125299
0.0659741
0.0385619
0.0303887
0.0316605
0.0352173
0.0407249
0.0258632
0.0225831
0.0129958
0.121658
0.0640653
0.0385034
0.0297642
0.0308944
0.0350832
0.0387382
0.0265482
0.0201275
0.0130596
0.121618
0.0640238
0.0391173
0.0293242
0.0301444
0.0347613
0.0362024
0.0274507
0.0188343
0.012815
0.121989
0.0670302
0.037543
0.0287616
0.0289661
0.0336857
0.0330171
0.0264947
0.0164701
0.0143173
0.116511
0.0727723
0.0370471
0.0296804
0.0269895
0.0332895
0.0266946
0.0257344
0.0152213
0.0147232
0.112576
0.0715533
0.0360823
0.0328997
0.0220821
0.0383371
0.0187156
0.0243709
0.013699
0.0143812
0.104267
0.0738123
0.0375364
0.0319389
0.0181534
0.038711
0.0152118
0.0204108
0.0130022
0.0148119
0.0907017
0.0846982
0.0399108
0.0239153
0.0175897
0.02554
0.0154111
0.0175806
0.0145448
0.0139196
0.073655
0.0926562
0.0422808
0.020253
0.0203652
0.0199308
0.0176315
0.0165151
0.0179868
0.0137062
0.0574204
0.07728
0.058157
0.0187457
0.0227411
0.017779
0.0182487
0.0172099
0.0200563
0.0148665
0.0471545
0.0751871
0.124567
0.0217709
0.0201954
0.0178986
0.0168465
0.018979
0.0185434
0.0168502
0.0348598
0.0863618
0.0372192
0.0792864
0.0155172
0.0176085
0.0134371
0.015815
0.0138123
0.0152307
0.0214641
0.0196976
0.0140708
0.0128214
0.0115476
0.0111717
0.0103463
0.0104529
0.0101042
0.0101225
0.00792154
0.00790931
0.0082527
0.00847326
0.00888304
0.00811188
0.00833267
0.0076949
0.00761133
0.00721254
0.0117373
0.0115549
0.0114018
0.011547
0.011749
0.0120451
0.0124906
0.013049
0.0139063
0.01507
0.0126771
0.0123468
0.0122424
0.0124384
0.0127797
0.0132677
0.0138884
0.0147196
0.0158012
0.017274
0.0133493
0.0130686
0.0131326
0.0134291
0.0138983
0.0144744
0.0151983
0.0161123
0.0172695
0.0187268
0.0136615
0.0135867
0.0138374
0.0142428
0.0148102
0.0154049
0.0161822
0.0170203
0.0182275
0.0194108
0.0143687
0.014545
0.0149911
0.0154895
0.0160672
0.016587
0.0172884
0.0179776
0.0190917
0.0201181
0.0157826
0.0159761
0.0163616
0.0167028
0.0170075
0.0172295
0.01757
0.0179644
0.0185842
0.0193379
0.0166813
0.0164485
0.0163222
0.0162479
0.0161012
0.0159855
0.0158537
0.0158918
0.015907
0.0162304
0.0140981
0.0136614
0.0132111
0.0129307
0.0125754
0.0123746
0.0120713
0.0119779
0.0117349
0.0117964
0.0098391
0.00961725
0.00939884
0.00921679
0.00904117
0.00889732
0.00875106
0.0086422
0.0085323
0.00846885
0.00709575
0.00699554
0.00690786
0.00682591
0.00675937
0.00669629
0.00665061
0.00660508
0.00658153
0.0065519
0.00570625
0.00641094
0.00827905
0.0152008
0.0222116
0.0133965
0.0115893
0.010744
0.0095477
0.00809114
0.00578649
0.00633412
0.00776959
0.0124369
0.0444136
0.0174142
0.0125295
0.0108937
0.00949789
0.00801259
0.00591463
0.00629039
0.00734269
0.010145
0.0188499
0.0193803
0.0138765
0.0113151
0.00966077
0.0081534
0.00611054
0.0062921
0.00701757
0.00879093
0.0128521
0.0172946
0.0150941
0.0121411
0.0101158
0.0084368
0.00640863
0.00635661
0.00679688
0.00794814
0.0103195
0.0139777
0.0152307
0.01322
0.0109502
0.00899155
0.00686911
0.00650985
0.00668888
0.00741725
0.00889634
0.0114363
0.0140734
0.0141338
0.0122878
0.00973335
0.00760343
0.00679135
0.00670876
0.00711294
0.00802796
0.00965945
0.0120276
0.0137557
0.0136248
0.0111778
0.00885943
0.00725643
0.00687592
0.00700878
0.00753999
0.00854932
0.0101977
0.0123016
0.0139603
0.0121889
0.0113385
0.00799705
0.00721195
0.00709328
0.00734001
0.00793338
0.00894255
0.010401
0.0124883
0.0119965
0.0174966
0.00922568
0.00776069
0.0073701
0.00738226
0.00769592
0.00832065
0.00928262
0.0109225
0.012001
0.0305879
0.0112609
0.0085946
0.00784862
0.00763719
0.00772767
0.00808062
0.00870495
0.00953825
0.0118716
0.0181648
0.0144995
0.00987132
0.00856704
0.00811368
0.00800523
0.00814492
0.00851623
0.00891654
0.0106285
0.0145862
0.0196157
0.0115364
0.00956294
0.00886306
0.00857344
0.00853484
0.00870749
0.00883141
0.0100412
0.0132015
0.0292417
0.0135795
0.0107979
0.00992152
0.00952177
0.00934059
0.00932909
0.00925036
0.0101171
0.0128223
0.0412061
0.0150663
0.0118405
0.0110784
0.0108118
0.0106138
0.0104402
0.0101905
0.0107357
0.0132085
0.0278664
0.0142777
0.0120202
0.0117474
0.0119462
0.012104
0.0120114
0.0116604
0.0118381
0.0148626
0.0198742
0.013065
0.0117936
0.011986
0.0126678
0.01348
0.013992
0.013799
0.0136341
0.0188949
0.0166532
0.0122867
0.0117218
0.01229
0.0133288
0.0147466
0.0163462
0.0172047
0.0169119
0.0301562
0.0147727
0.0118116
0.0118725
0.0127861
0.01412
0.0158893
0.0181673
0.0205186
0.0214894
0.0332608
0.0134807
0.0116092
0.0121016
0.013301
0.0148953
0.0168519
0.0191441
0.021536
0.0231403
0.0113175
0.0112305
0.0123205
0.0153525
0.0241114
0.100757
0.0312533
0.024401
0.0217952
0.0256984
0.0113423
0.0114587
0.0126206
0.015853
0.0239573
0.0412471
0.0284625
0.0237743
0.0215473
0.0261764
0.0110897
0.0115038
0.0127626
0.0159215
0.0217898
0.0277426
0.0253731
0.0229627
0.0210752
0.0257038
0.0109714
0.0116463
0.0129793
0.0157847
0.0196964
0.022913
0.0225704
0.0218711
0.0204291
0.0248332
0.0112861
0.0120483
0.0133677
0.0156293
0.0182025
0.0200393
0.020313
0.0206302
0.019669
0.0238148
0.0120545
0.0127812
0.0139575
0.0154481
0.0169527
0.0180025
0.0185091
0.019367
0.0188443
0.0227632
0.013413
0.0140019
0.0146761
0.0151289
0.0158428
0.0165543
0.017106
0.0181807
0.0179804
0.0216971
0.0158674
0.0160831
0.0153568
0.0146863
0.0150404
0.0156743
0.016137
0.0171705
0.0171085
0.0205966
0.0211466
0.0197269
0.0158812
0.0143541
0.0148101
0.0154143
0.0156057
0.0163869
0.0162581
0.0194527
0.0303888
0.0279007
0.0162992
0.0145208
0.0154896
0.0157228
0.0152605
0.0157062
0.0153974
0.0182685
0.0110217
0.0229357
0.027421
0.0464741
0.0446133
0.0266111
0.029611
0.0814247
0.0308301
0.018427
0.00841713
0.0112759
0.0149927
0.0207411
0.0295848
0.0345027
0.0259817
0.0192868
0.0159844
0.013979
0.00826106
0.00976311
0.0125566
0.0161999
0.0209131
0.0236762
0.0201336
0.0169603
0.0158962
0.015163
0.0090406
0.00962501
0.0117105
0.0153767
0.0215621
0.0297771
0.0243777
0.020745
0.018926
0.0189198
0.010984
0.0108675
0.0122319
0.0154745
0.0245198
0.0852278
0.0300215
0.0235926
0.0210945
0.0231248
0.00575302
0.00585515
0.00599367
0.00619469
0.00642597
0.00672398
0.00707635
0.00741731
0.00798872
0.00821031
0.00595322
0.00602904
0.00614355
0.00630636
0.00648167
0.00667923
0.00691951
0.00707208
0.00745579
0.00748814
0.00623867
0.00628552
0.00639165
0.00654529
0.00671079
0.00692842
0.00710471
0.00737475
0.00760917
0.00788553
0.00664621
0.00665977
0.00677865
0.00695231
0.00717809
0.00750427
0.00770861
0.00843536
0.00844106
0.0098135
0.00719656
0.00716857
0.00731431
0.00753613
0.00792001
0.00836244
0.00901365
0.0101735
0.0103781
0.0138495
0.0118936
0.0116057
0.0113277
0.0109332
0.010566
0.0103581
0.010427
0.0101737
0.00786971
0.00616945
0.0121706
0.0119154
0.0115064
0.0109965
0.0105755
0.0103281
0.0103226
0.0101006
0.00808536
0.00630717
0.0119109
0.0117145
0.0114262
0.0110356
0.010673
0.0104136
0.0103227
0.0100679
0.00833119
0.00647907
0.0119963
0.0117705
0.011451
0.0110509
0.010665
0.0103564
0.0101796
0.00993288
0.00859909
0.00670516
0.0120086
0.0117162
0.0113662
0.0109795
0.0106134
0.0103072
0.0100965
0.00987316
0.00892884
0.00702435
0.0120639
0.0117058
0.0113215
0.0109365
0.0105724
0.0102505
0.00999599
0.00978802
0.00927572
0.00749485
0.0120891
0.0116685
0.011251
0.0108612
0.010494
0.0101598
0.00987872
0.00970816
0.00966485
0.008303
0.0120798
0.0116083
0.0111645
0.0107679
0.0103934
0.0100443
0.00974207
0.0096116
0.0100404
0.00999494
0.0120491
0.0115482
0.0110918
0.0106929
0.0103144
0.00995756
0.00964232
0.00949768
0.0101262
0.0128247
0.0120104
0.0115081
0.01106
0.0106729
0.0103093
0.00996802
0.00965756
0.00946435
0.00978608
0.0102188
0.00839292
0.00973772
0.0106291
0.0111202
0.0117169
0.0138844
0.0163817
0.00880381
0.00650674
0.00566042
0.00894004
0.00995683
0.0104215
0.0106136
0.0108755
0.0118153
0.0138447
0.00929898
0.00661463
0.00564043
0.00946846
0.0100023
0.0101816
0.0102307
0.0103121
0.0107812
0.0119949
0.00968066
0.00673082
0.00564264
0.00971799
0.00992432
0.00997383
0.00997084
0.00999149
0.0102637
0.0110985
0.00987654
0.00685163
0.00566171
0.00979314
0.00989105
0.0098991
0.00986008
0.00982685
0.00998907
0.010617
0.00994624
0.00697126
0.00569636
0.00992854
0.00999018
0.00996365
0.00988254
0.00980018
0.00988379
0.0103753
0.00997335
0.00709368
0.00574363
0.0101938
0.0102274
0.0101427
0.00998707
0.00983972
0.00986093
0.0102594
0.00998268
0.00722166
0.00580335
0.0105606
0.0105186
0.0103346
0.0100971
0.00990122
0.00988181
0.0102174
0.0100176
0.00736181
0.00587551
0.0108637
0.0106994
0.0104328
0.0101612
0.00995985
0.0099326
0.0102345
0.0100857
0.0075167
0.00595981
0.0107191
0.0107881
0.0105657
0.010321
0.0101343
0.0100915
0.010334
0.0101689
0.00768763
0.00605717
0.0392333
0.0364205
0.0689687
0.0750666
0.0285732
0.0249522
0.0271394
0.0427125
0.0250845
0.0166044
0.044014
0.038033
0.056827
0.415973
0.0373813
0.0263592
0.0264414
0.0295516
0.0264298
0.0147028
0.0506231
0.0408785
0.0522868
0.235478
0.0488225
0.0282381
0.0270908
0.0261716
0.0248174
0.0140783
0.0594655
0.0455048
0.0507567
0.108668
0.0590232
0.0299257
0.0270818
0.0238859
0.0221192
0.0140277
0.0709835
0.0517229
0.0498322
0.0774302
0.0736267
0.031614
0.0270301
0.0228105
0.0203175
0.0140732
0.0862333
0.0593052
0.0484864
0.0670245
0.0836261
0.0334684
0.0272913
0.0225718
0.0193689
0.0141553
0.108363
0.0678047
0.0470972
0.0601975
0.0814139
0.0356934
0.0278608
0.0228546
0.0188996
0.0142093
0.145738
0.0760725
0.0458525
0.054239
0.0704894
0.0382997
0.0286771
0.0234702
0.0187455
0.0142222
0.21738
0.0823733
0.0446148
0.0489375
0.0591307
0.0408265
0.0296802
0.0242653
0.01883
0.0142012
0.34034
0.0846242
0.0434876
0.0444876
0.050521
0.0423667
0.0308324
0.0250919
0.019111
0.014158
0.0072556
0.00743612
0.00807123
0.00868571
0.00934672
0.00960238
0.00976509
0.00917982
0.00916907
0.00767406
0.014836
0.0110506
0.00966984
0.0097007
0.0101607
0.010598
0.0110979
0.0112634
0.0112584
0.011063
0.0260505
0.0247954
0.0138973
0.0119373
0.0118005
0.0123231
0.0131283
0.014867
0.014945
0.0137843
0.0327713
0.0387759
0.0280197
0.016981
0.0149331
0.0153592
0.0166569
0.0228776
0.0243314
0.0147789
0.0361379
0.0360961
0.0713746
0.0301178
0.0199972
0.0195996
0.0217863
0.0418696
0.0308143
0.0163598
0.00717223
0.00685348
0.00655254
0.00628839
0.0060738
0.00590857
0.00578979
0.00571638
0.00568665
0.00569949
0.0102197
0.00942803
0.00863151
0.00793385
0.00731168
0.00678796
0.0063971
0.00613988
0.00599494
0.00593994
0.0117918
0.0109339
0.0101567
0.00951085
0.00884258
0.00808526
0.00735212
0.00679592
0.00645265
0.00628353
0.0120543
0.0111751
0.0105402
0.0101314
0.00975842
0.00926173
0.00850807
0.00768378
0.00708911
0.00676558
0.0118697
0.0111068
0.0104878
0.0100897
0.00979635
0.00955756
0.00922035
0.0085956
0.0078972
0.00741238
)
;

boundaryField
{
    left
    {
        type            calculated;
        value           nonuniform List<scalar> 
35
(
0.306506
0.305678
0.165043
0.110769
0.0815803
0.0608567
0.0469298
0.0326468
0.0190903
0.00788191
0.145549
0.161008
0.188114
0.215548
0.219278
0.200949
0.182022
0.174938
0.185195
0.227894
0.0332154
0.0371339
0.0422522
0.0487785
0.0568201
0.0666218
0.078985
0.095326
0.115457
0.133245
0.00721725
0.0135314
0.0215722
0.0268722
0.0303772
)
;
    }
    right
    {
        type            calculated;
        value           nonuniform List<scalar> 
35
(
0.0184377
0.0140229
0.015324
0.0195747
0.0251684
0.0295633
0.0311171
0.0311072
0.0303961
0.0293986
0.0283078
0.0271437
0.0258516
0.0243933
0.0227389
0.0208065
0.0185678
0.0163131
0.0145088
0.013383
0.0128912
0.0128846
0.013227
0.0138634
0.0148426
0.0167528
0.0197627
0.0207205
0.0179149
0.0146854
0.0125192
0.0110992
0.0101364
0.0096982
0.0119778
)
;
    }
    down
    {
        type            calculated;
        value           nonuniform List<scalar> 
40
(
0.00638869
0.00674797
0.007644
0.00839325
0.00909363
0.0092532
0.00926825
0.00852268
0.00846529
0.00689021
0.00648457
0.00625608
0.00604532
0.00586702
0.00573601
0.00564971
0.0055973
0.00557237
0.0055744
0.00560673
0.00567409
0.00578836
0.00594197
0.00616905
0.00644225
0.00682891
0.00728833
0.0078629
0.00866595
0.0092897
0.0197636
0.0366496
0.181015
0.117088
0.0279816
0.0175301
0.0181885
0.0271885
0.0424423
0.0398702
)
;
    }
    up
    {
        type            calculated;
        value           nonuniform List<scalar> 
40
(
0.00633981
0.00650631
0.00710083
0.00803282
0.00963311
0.0147805
0.0154504
0.0130264
0.0167067
0.0245821
0.00609035
0.00608189
0.00610578
0.00610344
0.00614419
0.00614584
0.00620053
0.00620575
0.00627171
0.00628073
0.00647934
0.00640148
0.0063345
0.00627236
0.00622293
0.00617685
0.00614573
0.00611502
0.0061025
0.00608441
0.0067883
0.00683988
0.00727836
0.00768157
0.00814229
0.00745012
0.00771739
0.00703272
0.00694546
0.00657367
)
;
    }
    cylinder
    {
        type            calculated;
        value           nonuniform List<scalar> 
80
(
0.052836
0.143508
0.10983
0.0499127
0.0315983
0.020685
0.0162398
0.01661
0.0230039
0.0193968
0.0123314
0.0108335
0.0110072
0.0129072
0.0186285
0.0311573
0.0161707
0.00964443
0.00765658
0.00673115
0.00549964
0.00547753
0.00546828
0.00546987
0.00549002
0.0055324
0.0056056
0.00572416
0.00591332
0.00621957
0.00766353
0.00685188
0.00641129
0.00613607
0.00594552
0.00580916
0.00570717
0.00562986
0.0055732
0.00552954
0.00578012
0.0058888
0.00602516
0.00620641
0.00646568
0.00685871
0.00756384
0.00919952
0.0133926
0.00974722
0.00544726
0.00540471
0.00538862
0.00539159
0.00541164
0.00544484
0.00548994
0.00554635
0.00561332
0.00569094
0.00552393
0.00564955
0.00584744
0.00615227
0.00662379
0.00738482
0.00874999
0.0118701
0.0242323
0.0256485
0.0165923
0.0127685
0.0110562
0.010193
0.00990409
0.010194
0.0111889
0.0132168
0.01753
0.0271914
)
;
    }
    defaultFaces
    {
        type            empty;
    }
}


// ************************************************************************* //
