/*--------------------------------*- C++ -*----------------------------------*\
| =========                 |                                                 |
| \\      /  F ield         | OpenFOAM: The Open Source CFD Toolbox           |
|  \\    /   O peration     | Version:  2406                                  |
|   \\  /    A nd           | Website:  www.openfoam.com                      |
|    \\/     M anipulation  |                                                 |
\*---------------------------------------------------------------------------*/
FoamFile
{
    version     2.0;
    format      ascii;
    arch        "LSB;label=32;scalar=64";
    class       volScalarField;
    location    "2";
    object      p;
}
// * * * * * * * * * * * * * * * * * * * * * * * * * * * * * * * * * * * * * //

dimensions      [0 2 -2 0 0 0 0];

internalField   nonuniform List<scalar> 
1800
(
-0.392562
-0.397794
-0.398154
-0.396384
-0.39574
-0.39814
-0.399865
-0.401008
-0.402176
-0.433458
-0.426811
-0.428671
-0.427819
-0.428568
-0.428295
-0.425966
-0.42366
-0.422158
-0.418103
-0.44849
-0.463823
-0.461517
-0.459381
-0.455937
-0.453082
-0.449968
-0.446102
-0.441574
-0.435228
-0.438527
-0.495558
-0.488793
-0.484179
-0.479748
-0.474751
-0.468912
-0.461593
-0.452546
-0.442358
-0.432108
-0.527491
-0.522455
-0.516145
-0.508262
-0.49927
-0.488578
-0.475565
-0.460312
-0.443365
-0.425226
-0.578224
-0.5663
-0.556832
-0.545272
-0.530738
-0.512917
-0.492064
-0.468682
-0.443308
-0.417296
-0.637881
-0.619168
-0.606398
-0.589298
-0.566211
-0.538427
-0.507991
-0.476468
-0.444803
-0.41193
-0.703433
-0.679861
-0.662467
-0.636158
-0.60083
-0.560632
-0.518757
-0.476168
-0.432861
-0.392259
-0.773838
-0.744979
-0.719324
-0.67951
-0.629229
-0.575337
-0.520614
-0.46562
-0.413369
-0.367939
-0.838733
-0.805007
-0.76574
-0.708947
-0.642575
-0.573947
-0.505759
-0.441668
-0.384621
-0.332944
-0.700214
-0.701192
-0.700896
-0.700876
-0.700767
-0.700248
-0.699298
-0.698136
-0.696868
-0.694505
-0.642947
-0.642393
-0.641796
-0.641019
-0.639991
-0.638675
-0.637109
-0.635501
-0.634137
-0.632584
-0.587704
-0.585489
-0.584361
-0.582423
-0.579929
-0.577086
-0.573983
-0.570823
-0.567897
-0.564822
-0.536286
-0.531989
-0.529852
-0.526294
-0.521784
-0.516766
-0.511401
-0.505928
-0.500613
-0.494889
-0.485534
-0.485001
-0.481349
-0.475179
-0.467944
-0.460027
-0.451611
-0.443
-0.434422
-0.424985
-0.447453
-0.444482
-0.438002
-0.430286
-0.4209
-0.410078
-0.398205
-0.385765
-0.373022
-0.358971
-0.416595
-0.413391
-0.407006
-0.397378
-0.385156
-0.37151
-0.356444
-0.340151
-0.322906
-0.304218
-0.384278
-0.387542
-0.385411
-0.37844
-0.365496
-0.349293
-0.332223
-0.313204
-0.292449
-0.270767
-0.365945
-0.369742
-0.370539
-0.367974
-0.356403
-0.341485
-0.328068
-0.311426
-0.291314
-0.269318
-0.369277
-0.374639
-0.373864
-0.367983
-0.357818
-0.346623
-0.33537
-0.32319
-0.307227
-0.285096
-0.666519
-0.78893
-0.934301
-1.1352
-1.14661
-0.964276
-0.616407
-0.337095
-0.132297
-0.0128327
-0.622291
-0.800774
-0.995461
-1.25321
-1.28018
-1.06613
-0.665309
-0.348349
-0.126975
-0.00508739
-0.565491
-0.800036
-1.0549
-1.37927
-1.42305
-1.17625
-0.718836
-0.359992
-0.121015
0.00298914
-0.49664
-0.779802
-1.10415
-1.504
-1.57091
-1.2907
-0.775727
-0.372254
-0.115199
0.0100771
-0.416266
-0.736071
-1.13029
-1.61352
-1.72254
-1.40549
-0.834389
-0.385696
-0.110784
0.0148289
-0.327628
-0.668537
-1.12716
-1.69718
-1.85394
-1.51329
-0.892194
-0.400885
-0.108908
0.0166157
-0.237506
-0.578873
-1.09028
-1.74853
-1.95779
-1.60609
-0.946556
-0.418542
-0.11045
0.0155747
-0.156954
-0.471179
-1.02066
-1.76152
-2.02819
-1.67903
-0.995924
-0.439351
-0.116436
0.0119635
-0.0992665
-0.349721
-0.919675
-1.73459
-2.06243
-1.72991
-1.03866
-0.462898
-0.127604
0.00575456
-0.133223
-0.231853
-0.795924
-1.67149
-2.05669
-1.7595
-1.07377
-0.488122
-0.14363
-0.00308065
-0.0823672
-0.124276
-0.693128
-1.61224
-2.03467
-1.74443
-1.07788
-0.505754
-0.164568
-0.0171656
-0.0932464
-0.0993539
-0.647196
-1.5245
-1.91986
-1.63842
-1.04084
-0.521269
-0.195169
-0.0373175
-0.111659
-0.13044
-0.60611
-1.38957
-1.74429
-1.50798
-1.01199
-0.556155
-0.236823
-0.0580665
-0.135961
-0.158024
-0.553276
-1.20697
-1.51816
-1.36512
-0.999196
-0.616375
-0.29513
-0.0818436
-0.135498
-0.166657
-0.479387
-0.998513
-1.2786
-1.23389
-1.00825
-0.697295
-0.365304
-0.106509
-0.12288
-0.15987
-0.401486
-0.797193
-1.05375
-1.12644
-1.0394
-0.784122
-0.428779
-0.124533
-0.0970688
-0.136858
-0.324843
-0.615171
-0.858207
-1.0391
-1.07486
-0.858956
-0.480366
-0.13566
-0.0613327
-0.103661
-0.237656
-0.462637
-0.707685
-0.969041
-1.07113
-0.878934
-0.495605
-0.138738
-0.0172796
-0.0616547
-0.203283
-0.379805
-0.590959
-0.911752
-1.04263
-0.865177
-0.491671
-0.138172
0.000772919
-0.0373995
-0.18158
-0.416651
-0.639858
-0.893343
-1.0116
-0.822037
-0.474546
-0.132461
-0.244739
-0.290381
-0.320824
-0.345131
-0.369383
-0.392611
-0.411669
-0.426693
-0.401649
-0.376
-0.139764
-0.190525
-0.231132
-0.262091
-0.287796
-0.314318
-0.314213
-0.315984
-0.293371
-0.288151
-0.0507142
-0.103044
-0.146379
-0.179877
-0.204737
-0.230478
-0.232408
-0.241879
-0.22889
-0.228544
0.0271084
-0.0256728
-0.0701016
-0.106763
-0.13443
-0.161288
-0.173638
-0.18992
-0.188395
-0.193694
0.0932898
0.0404348
-0.00497269
-0.044054
-0.0751684
-0.103695
-0.122846
-0.141669
-0.148804
-0.15837
0.148145
0.095434
0.0495133
0.00941623
-0.0236704
-0.0527859
-0.0748898
-0.0950492
-0.107948
-0.121198
0.192679
0.140198
0.094253
0.0539935
0.0204537
-0.00842441
-0.0314513
-0.0516568
-0.067281
-0.0824895
0.227704
0.175279
0.129344
0.0892892
0.0558331
0.0277122
0.00527689
-0.0133992
-0.0282589
-0.0413527
0.24849
0.196963
0.150772
0.110957
0.0774643
0.0503485
0.0291375
0.0133991
0.00235678
-0.00484529
0.258406
0.205934
0.15876
0.118437
0.0838804
0.0564078
0.0346239
0.0195668
0.00953385
0.00562756
0.92041
0.866779
0.804592
0.738547
0.667457
0.58855
0.50164
0.4119
0.32937
0.275375
0.755955
0.698626
0.634419
0.564181
0.486137
0.398107
0.300812
0.200775
0.109715
0.0487559
0.57673
0.517849
0.452456
0.379523
0.297029
0.203094
0.0990795
-0.00782936
-0.104539
-0.17034
0.405942
0.34484
0.27666
0.200117
0.113402
0.0148512
-0.0938582
-0.205739
-0.306458
-0.371699
0.251505
0.187379
0.115633
0.0352091
-0.0556301
-0.158225
-0.269274
-0.385223
-0.484511
-0.549437
0.11306
0.046301
-0.0282303
-0.111355
-0.204589
-0.30981
-0.422005
-0.535099
-0.63316
-0.695696
-0.0107747
-0.0787348
-0.154081
-0.237973
-0.331551
-0.433823
-0.543597
-0.652515
-0.745842
-0.803395
-0.119142
-0.185766
-0.259337
-0.340732
-0.430818
-0.529913
-0.63407
-0.735208
-0.819267
-0.870285
-0.21046
-0.273557
-0.3432
-0.419874
-0.504304
-0.59624
-0.690125
-0.780572
-0.851769
-0.896104
-0.282197
-0.340144
-0.403422
-0.472927
-0.550822
-0.633153
-0.714738
-0.789293
-0.84499
-0.883443
1.90868
1.92292
1.93817
1.95323
1.96731
1.97985
1.99015
1.99724
2.00263
2.02001
1.86647
1.87875
1.89143
1.90351
1.91427
1.92316
1.9295
1.93286
1.93544
1.95074
1.80499
1.8145
1.82363
1.83159
1.83785
1.84179
1.84275
1.84079
1.83878
1.84984
1.72568
1.73187
1.73654
1.73925
1.7397
1.73718
1.73103
1.7218
1.71316
1.71828
1.62952
1.63161
1.63092
1.62743
1.62107
1.61104
1.59659
1.57876
1.56205
1.56029
1.5196
1.51724
1.51035
1.49954
1.48508
1.46609
1.44185
1.41394
1.38768
1.37827
1.3978
1.39039
1.37681
1.35822
1.33513
1.30647
1.27153
1.23245
1.19523
1.17802
1.27045
1.25728
1.2355
1.20739
1.17401
1.1343
1.08771
1.03697
0.988607
0.962366
1.14261
1.12292
1.09212
1.05371
1.0091
0.957062
0.897229
0.833272
0.772899
0.736846
1.02513
0.991522
0.946195
0.894464
0.837357
0.772764
0.700054
0.623491
0.551941
0.506685
1.747
1.73376
1.72859
1.7135
1.70165
1.69942
1.70547
1.72498
1.76248
1.8454
1.74251
1.73158
1.72595
1.71083
1.69965
1.6954
1.70026
1.71584
1.74783
1.81979
1.73902
1.72908
1.72338
1.70789
1.69725
1.69058
1.6938
1.70374
1.72776
1.78311
1.73608
1.72645
1.72091
1.70475
1.69443
1.68499
1.68615
1.6887
1.70274
1.73521
1.73364
1.72381
1.7185
1.70144
1.69118
1.67865
1.67732
1.6707
1.67327
1.67567
1.73182
1.72115
1.71614
1.69798
1.68749
1.67157
1.66722
1.64973
1.63984
1.60419
1.73061
1.71848
1.71381
1.69439
1.68335
1.66375
1.6558
1.62588
1.60296
1.52044
1.72985
1.71584
1.71156
1.69065
1.67874
1.65516
1.64314
1.59932
1.56256
1.42584
1.7294
1.71324
1.70975
1.68701
1.67382
1.64585
1.62942
1.57024
1.51819
1.31998
1.72915
1.71079
1.70842
1.68396
1.6691
1.63635
1.61495
1.53963
1.47199
1.21196
1.72946
1.70867
1.70544
1.67859
1.66126
1.62436
1.59678
1.5044
1.41558
1.10724
1.73086
1.70703
1.70458
1.67543
1.65615
1.61377
1.58061
1.47634
1.36567
1.09753
1.73364
1.70631
1.70447
1.67213
1.65179
1.60416
1.56491
1.45679
1.32652
1.09448
1.73792
1.70616
1.70528
1.66948
1.64639
1.59911
1.54948
1.44551
1.29793
1.09079
1.74423
1.70694
1.70621
1.66698
1.638
1.5991
1.5343
1.43839
1.27772
1.08547
1.75402
1.70934
1.70529
1.66487
1.62619
1.59985
1.51891
1.43224
1.2641
1.07981
1.76818
1.71348
1.70094
1.64643
1.60961
1.59955
1.50386
1.4262
1.25748
1.07728
1.788
1.71862
1.6995
1.63932
1.59711
1.59972
1.48979
1.42369
1.25746
1.08007
1.80254
1.7207
1.69801
1.64
1.59069
1.60115
1.47868
1.42645
1.25952
1.0879
1.84769
1.72025
1.69536
1.62908
1.58576
1.60288
1.47529
1.4374
1.26394
1.10338
0.902941
0.76729
0.607869
0.455148
0.317202
0.192667
0.0792325
-0.0221139
-0.111201
-0.185798
0.859263
0.750366
0.625442
0.501011
0.384803
0.2769
0.175689
0.0816912
-0.00321153
-0.0773279
0.845422
0.747885
0.642933
0.537745
0.436389
0.339676
0.247703
0.161235
0.0822296
0.0113817
0.847603
0.755481
0.661715
0.570173
0.48124
0.394691
0.310967
0.231052
0.156413
0.0881034
0.857347
0.77102
0.685125
0.603002
0.523151
0.444145
0.366309
0.29085
0.21939
0.15311
0.871322
0.7915
0.711856
0.635649
0.561235
0.486885
0.412789
0.340257
0.271284
0.206775
0.888471
0.814782
0.739931
0.667112
0.595432
0.523687
0.451865
0.381112
0.313419
0.250382
0.90814
0.839089
0.767444
0.696246
0.62551
0.554972
0.484521
0.415504
0.348964
0.285891
0.923531
0.855864
0.785558
0.714667
0.643537
0.572637
0.501977
0.433379
0.367184
0.305556
0.940925
0.87375
0.804278
0.732558
0.659661
0.58691
0.515312
0.44598
0.379304
0.316777
-1.67935
-1.61339
-1.51586
-1.40663
-1.30227
-1.20964
-1.12837
-1.05977
-1.00353
-0.959929
-1.77412
-1.71601
-1.6277
-1.5235
-1.42079
-1.32974
-1.24992
-1.18099
-1.12363
-1.07901
-1.81493
-1.76457
-1.68796
-1.59233
-1.49599
-1.40664
-1.32723
-1.25746
-1.19758
-1.14907
-1.80792
-1.76519
-1.70275
-1.61941
-1.52993
-1.44365
-1.365
-1.29506
-1.23329
-1.18082
-1.76403
-1.72879
-1.68208
-1.61378
-1.53385
-1.45253
-1.37566
-1.30597
-1.24329
-1.18782
-1.69775
-1.66963
-1.63722
-1.58451
-1.51664
-1.44274
-1.36906
-1.29979
-1.23651
-1.17937
-1.62317
-1.60124
-1.57942
-1.54113
-1.48698
-1.42319
-1.35554
-1.28874
-1.22627
-1.1705
-1.54931
-1.5319
-1.51732
-1.49089
-1.45009
-1.39737
-1.33712
-1.27378
-1.21187
-1.15548
-1.47879
-1.465
-1.45537
-1.43804
-1.4091
-1.36806
-1.31726
-1.2602
-1.2017
-1.15006
-1.40973
-1.40052
-1.39475
-1.38389
-1.36452
-1.33413
-1.29251
-1.24123
-1.18275
-1.12721
-1.34179
-1.33962
-1.33614
-1.32949
-1.31732
-1.29631
-1.26466
-1.22287
-1.17178
-1.11166
-1.2859
-1.28153
-1.2784
-1.27523
-1.26817
-1.25422
-1.231
-1.198
-1.15535
-1.09893
-1.22869
-1.22399
-1.22243
-1.2218
-1.21784
-1.20836
-1.19096
-1.16449
-1.12825
-1.07603
-1.16734
-1.16464
-1.16472
-1.16593
-1.16414
-1.15756
-1.1441
-1.12252
-1.09129
-1.04449
-1.09786
-1.09879
-1.10084
-1.10266
-1.10223
-1.09757
-1.08691
-1.06935
-1.04338
-1.00496
-1.02413
-1.02863
-1.03129
-1.03225
-1.03236
-1.029
-1.02051
-1.0065
-0.986621
-0.958161
-0.953209
-0.958467
-0.960539
-0.961136
-0.961239
-0.958942
-0.952897
-0.942824
-0.928896
-0.910134
-0.886178
-0.889914
-0.891318
-0.891956
-0.892279
-0.891053
-0.887502
-0.881383
-0.872691
-0.860494
-0.823189
-0.823823
-0.824535
-0.825507
-0.826148
-0.82566
-0.823807
-0.820587
-0.815704
-0.807648
-0.76089
-0.761227
-0.761185
-0.76195
-0.762468
-0.762213
-0.761147
-0.759462
-0.757034
-0.752357
-0.913626
-0.641707
-0.577583
-0.598696
-0.615638
-0.56376
-0.447587
-0.305493
-0.169325
-0.0457831
-0.887272
-0.623451
-0.57902
-0.611792
-0.630045
-0.570416
-0.44783
-0.303115
-0.165936
-0.0443696
-0.861265
-0.615244
-0.588746
-0.631396
-0.648692
-0.58129
-0.450127
-0.301392
-0.16246
-0.0425939
-0.838159
-0.619263
-0.607649
-0.658491
-0.67273
-0.597076
-0.455071
-0.300603
-0.158988
-0.0405851
-0.816932
-0.634856
-0.634906
-0.693592
-0.703484
-0.618705
-0.462942
-0.300881
-0.155493
-0.0383513
-0.795195
-0.658837
-0.669543
-0.737591
-0.742638
-0.647325
-0.474257
-0.302415
-0.151951
-0.0358291
-0.771793
-0.68768
-0.711081
-0.791769
-0.792221
-0.684587
-0.489846
-0.305473
-0.148342
-0.0328926
-0.747931
-0.717821
-0.759109
-0.857549
-0.853801
-0.733949
-0.510868
-0.310395
-0.144657
-0.0293519
-0.724694
-0.745932
-0.813805
-0.93573
-0.932086
-0.796508
-0.538546
-0.31745
-0.140869
-0.024972
-0.698234
-0.77066
-0.873356
-1.02833
-1.02953
-0.87364
-0.573674
-0.326548
-0.136844
-0.0195142
-0.884562
-0.697864
-0.61816
-0.600382
-0.594977
-0.529536
-0.420952
-0.295141
-0.162336
-0.0388528
-0.868206
-0.689955
-0.613606
-0.59954
-0.594781
-0.531047
-0.423194
-0.294841
-0.168205
-0.0434619
-0.867568
-0.680859
-0.60541
-0.597125
-0.597346
-0.536675
-0.427601
-0.295123
-0.1675
-0.0441021
-0.875513
-0.669095
-0.595615
-0.594285
-0.600636
-0.543585
-0.433743
-0.299598
-0.169188
-0.0454225
-0.901778
-0.65154
-0.579208
-0.590574
-0.603611
-0.55115
-0.442299
-0.304391
-0.170644
-0.046349
-0.916641
-1.02992
-1.09417
-1.12176
-1.11484
-1.09525
-1.05904
-1.02631
-0.988237
-0.955205
-0.913686
-1.02674
-1.08834
-1.11179
-1.10109
-1.07649
-1.03919
-1.00136
-0.966558
-0.926728
-0.916735
-1.03029
-1.09136
-1.11356
-1.10381
-1.07817
-1.04723
-1.00883
-0.983005
-0.948358
-0.924204
-1.03948
-1.10179
-1.12478
-1.11867
-1.09591
-1.07316
-1.03976
-1.02228
-0.994583
-0.936656
-1.05443
-1.11949
-1.14531
-1.14495
-1.12921
-1.11493
-1.09219
-1.08089
-1.06
1.33739
1.32278
1.30076
1.27536
1.24762
1.21625
1.18062
1.14319
1.10998
1.09548
1.44883
1.44441
1.43374
1.41927
1.40195
1.38096
1.35589
1.3288
1.30509
1.29729
1.55819
1.55893
1.55515
1.54845
1.53945
1.52752
1.51219
1.49484
1.4798
1.47858
1.65798
1.66285
1.66498
1.66515
1.66356
1.65954
1.65247
1.64311
1.63511
1.63997
1.74616
1.7546
1.76147
1.76701
1.77116
1.77329
1.77279
1.76985
1.76747
1.77742
1.81928
1.83055
1.8413
1.85132
1.86028
1.8676
1.87257
1.8748
1.87662
1.89056
1.87592
1.88942
1.90324
1.91677
1.92944
1.9407
1.94974
1.95559
1.95996
1.97603
1.91426
1.9293
1.94531
1.96138
1.97677
1.99096
2.0031
2.01175
2.01779
2.03299
1.93297
1.94872
1.96582
1.98316
1.99993
2.01566
2.0296
2.04014
2.04703
2.05868
1.93109
1.94655
1.96333
1.98022
1.99638
2.01131
2.02427
2.0339
2.04087
2.05676
-0.789095
-0.833604
-0.889949
-0.958387
-1.03993
-1.13511
-1.2423
-1.35527
-1.45712
-1.52905
-0.570608
-0.617849
-0.675752
-0.745068
-0.827206
-0.923192
-1.03067
-1.14678
-1.2509
-1.32603
-0.31678
-0.36784
-0.428359
-0.499265
-0.581892
-0.677408
-0.784787
-0.898316
-1.00325
-1.07993
-0.0464276
-0.101225
-0.164282
-0.236264
-0.318433
-0.412113
-0.516577
-0.625767
-0.727013
-0.801225
0.21902
0.162359
0.0987606
0.0278502
-0.0515657
-0.140911
-0.239836
-0.342658
-0.43794
-0.50497
0.462944
0.408061
0.347455
0.280869
0.207156
0.12485
0.0341068
-0.0598238
-0.146497
-0.204451
0.680095
0.630615
0.576423
0.517168
0.451716
0.378619
0.29794
0.214554
0.138063
0.0897473
0.876139
0.833747
0.787537
0.736967
0.680802
0.617644
0.547598
0.475262
0.409455
0.37049
1.06091
1.02482
0.984838
0.941452
0.893518
0.839607
0.779819
0.718325
0.663035
0.632836
1.22865
1.19811
1.1619
1.12398
1.08376
1.03944
0.990674
0.940692
0.896231
0.874233
1.8305
1.76754
1.74631
1.72135
1.69731
1.68725
1.67216
1.65891
1.59641
1.48792
1.81701
1.76425
1.74704
1.72496
1.69813
1.69345
1.68213
1.67322
1.63233
1.56702
1.80516
1.76055
1.74692
1.72106
1.69755
1.69764
1.69104
1.68938
1.6681
1.643
1.7948
1.75656
1.74536
1.72108
1.70023
1.70099
1.69863
1.70393
1.69945
1.7077
1.78577
1.75253
1.74325
1.72206
1.70327
1.70367
1.70459
1.71595
1.72557
1.76125
1.77788
1.74858
1.74101
1.72186
1.7054
1.70548
1.70888
1.72518
1.74646
1.80351
1.77087
1.74481
1.73874
1.72086
1.7061
1.70627
1.71148
1.73137
1.76176
1.83456
1.76444
1.7413
1.73638
1.71951
1.70569
1.70603
1.71239
1.73442
1.77109
1.85438
1.7583
1.73824
1.73389
1.71786
1.70467
1.70479
1.71164
1.73432
1.77429
1.86283
1.75241
1.7358
1.73128
1.71585
1.70331
1.70257
1.7093
1.73115
1.77137
1.85981
1.94705
1.78001
1.74073
1.70003
1.67449
1.6582
1.63285
1.60356
1.50003
1.39996
1.90879
1.78251
1.74811
1.70716
1.67857
1.66022
1.633
1.60354
1.49918
1.38198
1.88746
1.7799
1.74856
1.7094
1.68167
1.66383
1.63733
1.60898
1.50955
1.38158
1.86542
1.77452
1.74827
1.71207
1.68664
1.67014
1.64549
1.61959
1.52648
1.39109
1.84626
1.77063
1.74722
1.7154
1.69196
1.67802
1.65706
1.63494
1.55065
1.41134
1.1272
1.00992
0.862639
0.677897
0.457642
0.20887
-0.0544421
-0.313453
-0.551562
-0.755699
1.11258
0.997422
0.85287
0.673012
0.459684
0.217161
-0.0435579
-0.303886
-0.545283
-0.752236
1.12589
1.0089
0.861237
0.680948
0.469506
0.228398
-0.033113
-0.296504
-0.541895
-0.752524
1.15464
1.02722
0.871521
0.689632
0.479109
0.238166
-0.0250794
-0.292172
-0.542129
-0.756956
1.20562
1.05667
0.884815
0.69726
0.485494
0.244062
-0.0208432
-0.291537
-0.546301
-0.765814
)
;

boundaryField
{
    left
    {
        type            zeroGradient;
    }
    right
    {
        type            fixedValue;
        value           uniform 0;
    }
    down
    {
        type            zeroGradient;
    }
    up
    {
        type            zeroGradient;
    }
    cylinder
    {
        type            zeroGradient;
    }
    defaultFaces
    {
        type            empty;
    }
}


// ************************************************************************* //
