/*--------------------------------*- C++ -*----------------------------------*\
| =========                 |                                                 |
| \\      /  F ield         | OpenFOAM: The Open Source CFD Toolbox           |
|  \\    /   O peration     | Version:  2406                                  |
|   \\  /    A nd           | Website:  www.openfoam.com                      |
|    \\/     M anipulation  |                                                 |
\*---------------------------------------------------------------------------*/
FoamFile
{
    version     2.0;
    format      ascii;
    arch        "LSB;label=32;scalar=64";
    class       surfaceScalarField;
    location    "2";
    object      phi;
}
// * * * * * * * * * * * * * * * * * * * * * * * * * * * * * * * * * * * * * //

dimensions      [0 3 -1 0 0 0 0];

oriented        oriented;

internalField   nonuniform List<scalar> 
3485
(
-0.00151722
0.00328864
-0.00177142
-0.00307099
0.00475653
-0.00320276
-0.00406506
0.00484791
-0.00385384
-0.00427735
0.00434918
-0.00413689
-0.00290358
0.00282685
-0.00420062
0.00187476
-0.000500271
-0.00427807
0.0116677
-0.0062817
-0.00351121
0.0273776
-0.0142723
-0.00143767
0.0495662
-0.0241033
0.00191477
-0.0303279
0.00604661
0.0738474
-0.000505153
0.0037938
-0.000601278
0.00485265
-0.000265192
0.00451182
0.00182766
0.00225632
0.00777099
-0.00311648
0.0194185
-0.0121478
0.0375693
-0.0244325
0.0623138
-0.0390168
0.0933555
-0.055145
-0.0661232
0.129151
0.00078481
0.00300899
0.00182057
0.00381689
0.00434668
0.00198571
0.0111385
-0.00453553
0.0243721
-0.01635
0.0447893
-0.0325651
0.0717789
-0.051422
0.103734
-0.0709719
0.138617
-0.0900278
-0.104441
0.176935
0.00131729
0.0016917
0.0037263
0.00140788
0.0103052
-0.00459323
0.0239795
-0.0182098
0.0458368
-0.0382073
0.0748408
-0.0615691
0.10844
-0.0850215
0.143589
-0.10612
0.177224
-0.123663
-0.13659
0.209372
0.000989403
0.000702295
0.00555798
-0.0031607
0.0178795
-0.0169148
0.0397044
-0.0400347
0.0694964
-0.0679992
0.103359
-0.0954314
0.137042
-0.118705
0.16735
-0.136427
0.192487
-0.1488
-0.15658
0.212477
0.00122985
-0.000527558
0.0097029
-0.0116337
0.028992
-0.0362039
0.0577794
-0.0688221
0.0906608
-0.100881
0.121967
-0.126738
0.148139
-0.144877
0.168033
-0.156321
0.18225
-0.163017
-0.166722
0.192392
0.00267922
-0.00320678
0.0163169
-0.0252714
0.0415514
-0.0614384
0.072191
-0.0994617
0.100868
-0.129558
0.123573
-0.149443
0.13984
-0.161144
0.151175
-0.167656
0.159399
-0.171241
-0.173289
0.165966
0.00492117
-0.00812795
0.0232652
-0.0436155
0.0503775
-0.0885507
0.0768208
-0.125905
0.0972916
-0.150028
0.111347
-0.163499
0.120791
-0.170588
0.127494
-0.174359
0.132744
-0.176492
-0.177725
0.13718
0.0071607
-0.0152886
0.0279834
-0.0644382
0.0522983
-0.112866
0.0718851
-0.145492
0.0851293
-0.163272
0.0936658
-0.172035
0.0994189
-0.176341
0.103743
-0.178684
0.107289
-0.180037
-0.180457
0.110021
0.00898641
-0.0242751
0.0291804
-0.0846321
0.0482463
-0.131931
0.0614944
-0.15874
0.0695528
-0.171331
0.0743945
-0.176877
0.0778015
-0.179748
0.0804195
-0.181302
0.0818949
-0.181513
0.0821634
-0.180726
-0.000280345
-0.00015127
0.000431615
-0.00140499
0.00350843
-0.00238378
-0.00299678
0.0103412
-0.00874938
-0.0046968
0.0166188
-0.0149188
-0.00624766
0.0214791
-0.0199283
-0.00748828
0.0251733
-0.0239326
-0.00834869
0.0280655
-0.0272051
-0.00882635
0.0304335
-0.0299559
-0.00896017
0.0324801
-0.0323463
0.0343657
-0.00880113
-0.0345247
-6.78794e-05
-8.33909e-05
-0.00028268
0.00372323
-0.000757972
0.0108165
-0.0014639
0.0173247
-0.00222639
0.0222416
-0.0028702
0.0258171
-0.00327722
0.0284725
-0.00338292
0.0305392
-0.00315885
0.032256
0.0338029
-0.00259612
8.32184e-05
-0.000166609
0.000828733
0.00297771
0.00168753
0.00995766
0.00226308
0.0167492
0.00258948
0.0219152
0.00284249
0.0255641
0.00318644
0.0281286
0.00374072
0.0299849
0.0045892
0.0314076
0.0326058
0.00578634
0.000222097
-0.000388706
0.00169874
0.00150107
0.00391453
0.00774187
0.00603918
0.0146245
0.00780973
0.0201447
0.00932434
0.0240495
0.0107775
0.0266754
0.0123507
0.0284117
0.0141976
0.0295606
0.0303217
0.0164817
0.000317343
-0.00070605
0.00182916
-1.07456e-05
0.005054
0.00451703
0.00878064
0.0108979
0.0122815
0.0166439
0.015415
0.0209159
0.0183159
0.0237745
0.0212002
0.0255275
0.0242996
0.0264612
0.0267051
0.0279161
0.000475429
-0.00118148
0.00149863
-0.00103395
0.00458869
0.00142698
0.00915109
0.00633549
0.0141134
0.0116815
0.0189097
0.0161196
0.0234287
0.0192555
0.0277894
0.0211667
0.0322389
0.0220117
0.0217262
0.0372178
0.000318054
-0.00149953
0.000719881
-0.00143577
0.00244801
-0.000301153
0.00618565
0.00259786
0.0114004
0.00646675
0.0170603
0.0104597
0.0226862
0.0136297
0.0281996
0.0156533
0.0337826
0.0164287
0.0155673
0.0399415
-0.000520063
-0.000979469
-0.000872724
-0.00108311
-0.000874015
-0.000299862
0.000449816
0.00127402
0.00355495
0.00336161
0.00803783
0.00597686
0.0132061
0.00846136
0.0187648
0.0100947
0.0247751
0.0104184
0.0087756
0.0315668
-0.00111463
0.000135162
-0.00273531
0.000537571
-0.00438608
0.0013509
-0.00554332
0.00243126
-0.00557159
0.00338988
-0.00401708
0.00442235
-0.000970728
0.005415
0.00319662
0.00592731
0.00845225
0.00516281
0.00242756
0.0148003
-0.00163626
-0.00430145
-0.00680438
-0.00851001
-0.00932075
-0.00917646
-0.00727267
-0.00278303
0.00429455
0.0127687
0.00342093
0.390467
-0.402689
0.0009952
0.473737
-0.471312
-0.0199609
0.406629
-0.385673
-0.0386806
0.275111
-0.256392
-0.0285919
0.0396033
-0.049692
0.00559582
-0.18252
0.148333
0.0486059
-0.32637
0.28336
0.0850586
-0.340252
0.3038
0.116857
-0.333642
0.301843
-0.199853
0.181877
0.0113687
0.376502
0.0066009
0.478505
-0.017017
0.430247
-0.0336391
0.291734
-0.0203831
0.0263473
0.0176088
-0.220512
0.0632673
-0.372028
0.0991152
-0.3761
0.128714
-0.363241
-0.216845
0.0230872
0.359201
0.018558
0.483034
-0.00393214
0.452737
-0.0176884
0.30549
-0.00241678
0.0110757
0.038613
-0.261542
0.086652
-0.420067
0.121592
-0.41104
0.146835
-0.388483
-0.231008
0.0396287
0.336054
0.03863
0.484033
0.0192143
0.472153
0.00693136
0.317773
0.023092
-0.0050849
0.0664072
-0.304857
0.116088
-0.469748
0.151454
-0.446406
0.171971
-0.409
-0.240956
0.060342
0.303628
0.0647599
0.479615
0.0492437
0.487669
0.0394367
0.32758
0.0571332
-0.0227814
0.100153
-0.347877
0.148751
-0.518347
0.185079
-0.482734
0.202608
-0.426529
-0.246834
0.0829711
0.257875
0.0956329
0.466953
0.0859563
0.497346
0.0798456
0.33369
0.0993288
-0.0422646
0.141305
-0.389853
0.185221
-0.562263
0.219719
-0.517231
0.235626
-0.442436
-0.250109
0.104178
0.193639
0.129834
0.441297
0.127349
0.499831
0.12447
0.336569
0.145591
-0.0633851
0.186835
-0.431097
0.225768
-0.601197
0.255164
-0.546627
0.268487
-0.455759
-0.251988
0.117564
0.107642
0.1617
0.397161
0.169008
0.492524
0.168902
0.336674
0.189551
-0.0840338
0.229346
-0.470892
0.265949
-0.637799
0.29074
-0.571419
0.299983
-0.465001
-0.252574
0.119863
0.00257843
0.192307
0.324718
0.210365
0.474465
0.210395
0.336644
0.229233
-0.102872
0.266529
-0.508189
0.301563
-0.672833
0.323949
-0.593805
0.329056
-0.470108
-0.251623
0.10665
-0.0913024
0.204771
0.226596
0.239126
0.44011
0.245777
0.329993
0.265094
-0.122188
0.300442
-0.543537
0.333193
-0.705583
0.353253
-0.613866
0.354579
-0.471433
-0.249219
0.258628
-0.0719099
-0.27802
0.349446
0.135778
0.413883
0.375673
0.50179
0.242087
0.606516
-0.226914
0.673031
-0.610053
0.681799
-0.714351
0.656331
-0.588399
0.608917
-0.424019
-0.215954
0.461854
-0.0120445
-0.52172
0.469956
0.127676
0.534319
0.311309
0.646853
0.129553
0.75399
-0.334051
0.797105
-0.653168
0.772165
-0.689411
0.715021
-0.531255
0.645553
-0.354551
-0.172216
0.611165
0.0153209
-0.638531
0.607994
0.130848
0.676318
0.242986
0.783315
0.0225556
0.858875
-0.409611
0.873583
-0.667876
0.827244
-0.643072
0.749344
-0.453356
0.662083
-0.26729
-0.120101
0.686464
0.0199005
-0.691044
0.714726
0.102586
0.794836
0.162875
0.88319
-0.0657981
0.932177
-0.458598
0.92349
-0.659189
0.855262
-0.574843
0.761186
-0.35928
0.66167
-0.167773
-0.0618197
0.733021
0.0108917
-0.724012
0.78143
0.0541773
0.863032
0.0812726
0.937416
-0.140183
0.968221
-0.489403
0.92975
-0.620718
0.830694
-0.475788
0.721954
-0.25054
0.625686
-0.0715052
-0.0082947
0.768916
-0.00755459
-0.750469
0.817157
0.005936
0.888471
0.00995819
0.957729
-0.20944
0.962881
-0.494555
0.878644
-0.53648
0.751385
-0.348529
0.636775
-0.135929
0.553435
0.0118347
0.0321587
0.785262
-0.0270933
-0.765723
0.821801
-0.0306028
0.890321
-0.0585618
0.939432
-0.258552
0.877892
-0.433015
0.728772
-0.38736
0.586184
-0.205941
0.491292
-0.0410366
0.442846
0.060281
0.0494804
0.768925
-0.0374082
-0.75861
0.796816
-0.0584941
0.854028
-0.115774
0.825027
-0.229551
0.658815
-0.266803
0.463289
-0.191834
0.340716
-0.0833677
0.295508
0.00417171
0.298139
0.05765
0.0396535
0.671707
-0.0307155
-0.678399
0.684419
-0.0712065
0.661872
-0.0932267
0.507867
-0.0755458
0.296409
-0.0553452
0.153385
-0.0488096
0.0992895
-0.0292727
0.102797
0.000664314
0.138105
0.0223421
0.0151815
0.344547
-0.375263
0.273341
0.180114
0.104568
0.0492231
0.0004135
-0.0288592
-0.0281949
-0.00585276
0.501638
0.0714947
-0.49097
0.51276
0.0988996
0.523769
0.126171
0.534905
0.15483
0.547486
0.179811
0.55442
0.205543
0.539011
0.224781
0.489559
0.226387
0.384995
0.233714
0.180823
0.499801
0.0612575
-0.489564
0.51221
0.0864907
0.526616
0.111764
0.542697
0.13875
0.558298
0.164209
0.57722
0.186622
0.587774
0.214227
0.590535
0.223626
0.572853
0.251397
0.231956
0.507076
0.0521336
-0.497952
0.518591
0.0749761
0.532002
0.0983524
0.548881
0.121871
0.566204
0.146886
0.586092
0.166734
0.606697
0.193622
0.624399
0.205923
0.642444
0.233352
0.235869
0.51746
0.0437331
-0.509059
0.528651
0.0637846
0.541948
0.0850549
0.558523
0.105297
0.577529
0.12788
0.598051
0.146212
0.622547
0.169125
0.644669
0.183801
0.672374
0.205647
0.217199
0.525091
0.0352916
-0.516649
0.536611
0.0522643
0.551046
0.0706193
0.568408
0.0879349
0.589236
0.107053
0.611758
0.12369
0.638499
0.142384
0.664629
0.157672
0.695596
0.17468
0.188783
0.526908
0.0265192
-0.518135
0.538974
0.040198
0.554701
0.0548925
0.573475
0.0691606
0.596198
0.0843301
0.621276
0.0986113
0.650377
0.113284
0.680943
0.127106
0.715385
0.140238
0.153698
0.520167
0.0175802
-0.511228
0.532639
0.0277262
0.549281
0.0382501
0.569328
0.0491139
0.593754
0.0599041
0.621182
0.0711836
0.652944
0.0815217
0.687197
0.0928527
0.72542
0.102015
0.113396
0.496653
0.00895276
-0.488025
0.509178
0.0152014
0.526018
0.0214097
0.546725
0.0284067
0.572042
0.034587
0.60108
0.0421459
0.634756
0.0478453
0.671963
0.0556459
0.713581
0.0603973
0.0683667
0.431062
0.00182424
-0.423933
0.441926
0.0043376
0.456809
0.00652654
0.475822
0.00939353
0.499019
0.0113897
0.526487
0.0146777
0.558087
0.0162459
0.593996
0.0197365
0.633771
0.0206223
0.0237386
0.248595
-0.24677
0.252932
0.259459
0.268852
0.280242
0.29492
0.311166
0.330902
0.351524
0.0697385
0.129909
-0.119622
-0.0800248
0.0600574
0.132029
-0.122348
0.0509862
0.134281
-0.12521
0.0421625
0.1372
-0.128376
0.0333505
0.140442
-0.13163
0.0245667
0.143281
-0.134497
0.0160948
0.143957
-0.135485
0.00833761
0.139461
-0.131704
0.00224625
0.121644
-0.115552
0.0657009
-0.0634547
0.0663533
0.139196
-0.0756405
0.0570475
0.141335
0.0478918
0.143437
0.0389923
0.146099
0.0302778
0.149156
0.0217929
0.151766
0.0138374
0.151913
0.00676541
0.146533
0.00155839
0.126851
0.0672593
0.058829
0.147611
-0.0672436
0.0501826
0.149982
0.0415428
0.152077
0.0330976
0.154545
0.0249266
0.157327
0.0171781
0.159514
0.0101455
0.158945
0.00414918
0.15253
0.000239408
0.13076
0.0674987
0.0488366
0.155033
-0.0562594
0.0412474
0.157571
0.0335976
0.159726
0.0260493
0.162093
0.0187324
0.164644
0.0119065
0.16634
0.00599732
0.164855
0.00115877
0.157368
-0.000981561
0.132901
0.0665172
0.0357481
0.161688
-0.0424029
0.0290977
0.164221
0.0224458
0.166378
0.015917
0.168622
0.00974401
0.170817
0.00428441
0.1718
-8.5904e-05
0.169225
-0.00294679
0.160229
-0.00284515
0.132799
0.063672
0.0216346
0.167471
-0.0274172
0.0159656
0.16989
0.0103597
0.171984
0.00492086
0.174061
-8.87061e-05
0.175827
-0.00397408
0.175685
-0.00650907
0.17176
-0.00741416
0.161134
-0.00474422
0.130129
0.0589278
0.00533889
0.172422
-0.01029
0.000659115
0.17457
-0.00379184
0.176435
-0.0079181
0.178187
-0.0113082
0.179217
-0.0131941
0.177571
-0.0140671
0.172633
-0.0123945
0.159462
-0.00666121
0.124396
0.0522666
-0.0131816
0.176393
0.00921064
-0.0167585
0.178147
-0.0200743
0.179751
-0.0229042
0.181017
-0.0241958
0.180508
-0.0240559
0.177431
-0.0227055
0.171282
-0.0177787
0.154535
-0.00844419
0.115061
0.0438224
-0.0340036
0.179153
0.0312432
-0.0364691
0.180612
-0.0384087
0.181691
-0.0389446
0.181553
-0.0378975
0.179461
-0.0360789
0.175613
-0.0317887
0.166992
-0.0228678
0.145614
-0.00964459
0.101838
0.0341778
-0.0572032
0.0556309
-0.0581034
-0.0577146
-0.0559095
-0.0533249
-0.0490432
-0.040791
-0.0271086
-0.00990278
0.104508
0.0297408
-0.115926
-0.0183221
0.0928497
0.0301855
-0.0185274
0.0809424
0.0307107
-0.0188034
0.0687674
0.0313228
-0.0191478
0.0563119
0.0320124
-0.019557
0.0435873
0.0326799
-0.0199553
0.0306997
0.0329328
-0.0200452
0.0180422
0.0317068
-0.0190493
0.00674207
0.0268939
-0.0155938
0.0145133
-0.00777125
0.104431
0.0411397
-0.11583
0.092827
0.0417893
0.0809833
0.0425543
0.0688854
0.0434208
0.0565196
0.0443782
0.0438905
0.0453091
0.0310823
0.045741
0.0184207
0.0443683
0.0069361
0.0383785
0.0214494
0.103661
0.0524324
-0.114954
0.0921473
0.0533028
0.0803998
0.0543019
0.068404
0.0554165
0.0561461
0.0566361
0.0436259
0.0578292
0.0309215
0.0584454
0.0183416
0.0569482
0.0068892
0.0498309
0.0283386
0.101733
0.0636323
-0.112933
0.0903681
0.064668
0.0787692
0.0659007
0.0669233
0.0672625
0.0548216
0.0687378
0.0424794
0.0701714
0.029997
0.0709278
0.0176927
0.0692525
0.00655521
0.0609685
0.0348938
0.0992025
0.0745639
-0.110134
0.0880917
0.0757788
0.0767762
0.0772162
0.0652275
0.0788112
0.053418
0.0805473
0.0413517
0.0822377
0.0291417
0.0831379
0.0171235
0.0812707
0.00627325
0.0718187
0.0411671
0.0951267
0.0852904
-0.105853
0.0843098
0.0865957
0.0732943
0.0882317
0.0620773
0.0900283
0.050652
0.0919726
0.0390325
0.0938572
0.0273387
0.0948316
0.0159072
0.0927023
0.00568093
0.0820449
0.046848
0.0906874
0.0954512
-0.100848
0.0804613
0.0968218
0.0700407
0.0986523
0.0593525
0.100717
0.0483706
0.102954
0.0371447
0.105083
0.0258637
0.106113
0.0149121
0.103654
0.00524968
0.0917073
0.0520977
0.0837019
0.105166
-0.0934166
0.0740177
0.106506
0.0642428
0.108427
0.0543255
0.110634
0.0441899
0.11309
0.0338219
0.115451
0.0233907
0.116544
0.0132931
0.113752
0.0045027
0.100498
0.0566004
0.0781736
0.11346
-0.0864679
0.0695895
0.11509
0.060468
0.117549
0.0509201
0.120182
0.0410777
0.122932
0.0310725
0.125456
0.0211588
0.126457
0.0117437
0.123167
0.00376988
0.108472
0.0603703
0.0685824
-0.0747447
0.0613241
0.053663
0.0454685
0.036771
0.0277304
0.0187025
0.010165
0.00308444
0.200599
0.00280219
-0.00541137
0.205327
-0.00860154
0.00387342
0.212422
0.0028561
-0.00995083
0.216008
0.0621735
-0.06576
0.214794
0.1163
-0.115086
0.210047
0.158163
-0.153416
0.201029
0.168987
-0.159968
0.187478
0.174981
-0.16143
0.163009
0.187296
-0.162828
0.203693
-0.15661
0.200504
0.000287846
0.205189
-0.0132863
0.211681
-0.00363632
0.214224
0.0596309
0.212061
0.118463
0.206543
0.163681
0.197751
0.177779
0.184415
0.188318
0.161324
0.210387
0.249187
0.200298
-0.00202035
0.204858
-0.0178462
0.210691
-0.0094695
0.212049
0.0582734
0.208802
0.12171
0.202162
0.170321
0.193459
0.186481
0.17995
0.201827
0.158426
0.23191
0.29266
0.199934
-0.00396457
0.204296
-0.0222084
0.209429
-0.0146027
0.209458
0.0582446
0.204967
0.1262
0.196956
0.178333
0.18825
0.195187
0.174162
0.215915
0.154494
0.251579
0.334221
0.199429
-0.00540376
0.203503
-0.0262822
0.207884
-0.0189842
0.206431
0.0596975
0.200517
0.132115
0.190992
0.187857
0.182212
0.203967
0.167166
0.230961
0.149606
0.269139
0.373692
0.198798
-0.0062117
0.202467
-0.0299515
0.206025
-0.0225424
0.202938
0.0627844
0.195435
0.139619
0.184361
0.198931
0.175411
0.212917
0.15924
0.247132
0.143911
0.284468
0.41175
0.198047
-0.00626899
0.201157
-0.0330615
0.203792
-0.0251769
0.198944
0.0676325
0.189738
0.148824
0.177173
0.211496
0.167882
0.222209
0.15057
0.264444
0.137366
0.297672
0.448268
0.197183
-0.00546201
0.19952
-0.0353983
0.201103
-0.0267603
0.194433
0.0743029
0.183479
0.159778
0.169547
0.225428
0.159664
0.232091
0.141471
0.282637
0.130403
0.30874
0.485254
0.196213
-0.00368484
0.197478
-0.0366636
0.197884
-0.0271668
0.189422
0.0827651
0.176741
0.172459
0.161567
0.240602
0.15084
0.242818
0.132479
0.300998
0.122971
0.318248
0.521757
0.19518
-0.000874922
0.195004
-0.0364877
0.194229
-0.0263916
0.183905
0.0930888
0.169627
0.186738
0.153228
0.257001
0.14165
0.254396
0.122788
0.31986
0.115655
0.325381
0.562668
0.303114
-0.00197874
0.305685
-0.0390583
0.316616
-0.0373226
0.321118
0.0885866
0.323971
0.183884
0.316656
0.264316
0.322206
0.248845
0.316979
0.325087
0.357796
0.284564
0.499211
0.421253
0.303135
-0.0031031
0.304163
-0.040087
0.314748
-0.0479072
0.322661
0.0806738
0.331288
0.175257
0.328479
0.267126
0.339613
0.237711
0.343614
0.321086
0.372293
0.255886
0.437084
0.434419
0.303367
-0.00446032
0.303963
-0.040683
0.310749
-0.054693
0.325668
0.065755
0.341009
0.159916
0.349644
0.258491
0.368196
0.219159
0.385813
0.303469
0.407014
0.234685
0.382074
0.462024
0.304042
-0.00649205
0.30526
-0.0419015
0.304841
-0.0542738
0.330796
0.0398001
0.352494
0.138218
0.374804
0.236181
0.404657
0.189306
0.431081
0.277045
0.453762
0.212004
0.333154
0.502681
0.305355
-0.00983698
0.307265
-0.0438118
0.301619
-0.0486271
0.334791
0.00662776
0.361123
0.111886
0.394367
0.202937
0.434217
0.149457
0.467279
0.243982
0.494942
0.184341
0.28218
0.545916
0.307305
-0.0151314
0.30973
-0.0462367
0.304863
-0.0437609
0.33721
-0.0257187
0.366131
0.0829653
0.408435
0.160632
0.451596
0.106296
0.490628
0.20495
0.523539
0.15143
0.228283
0.577436
0.309617
-0.0227387
0.311814
-0.0484329
0.311787
-0.0437347
0.334509
-0.0484402
0.364211
0.0532635
0.412256
0.112587
0.452636
0.0659157
0.498203
0.159383
0.534715
0.114918
0.172732
0.590266
0.310848
-0.0315766
0.311791
-0.0493762
0.314223
-0.0461666
0.31838
-0.0525965
0.346591
0.0250517
0.397335
0.0618431
0.429063
0.0341881
0.481196
0.107249
0.520955
0.0751598
0.113339
0.580348
0.307746
-0.0373128
0.300737
-0.0423667
0.296472
-0.0419014
0.278416
-0.0345404
0.298005
0.00546266
0.338558
0.0212898
0.357606
0.0151402
0.415531
0.0493246
0.457486
0.0332041
0.0494221
0.521404
0.264697
0.222331
0.180429
0.145889
0.151352
0.172641
0.187782
0.237106
0.27031
0.319732
0.432531
-0.0913034
0.437266
-0.080375
0.441715
-0.0716932
0.446643
-0.0611872
0.452732
-0.0484916
0.459182
-0.0338671
0.466008
-0.0171159
0.473708
0.00151061
0.48187
0.0230803
0.0465318
0.437717
-0.0946009
0.44186
-0.0845181
0.44569
-0.0755232
0.449893
-0.0653903
0.454899
-0.0534973
0.460445
-0.0394137
0.466587
-0.0232574
0.473185
-0.00508787
0.480817
0.0154484
0.0377854
0.462265
-0.0948417
0.464523
-0.0867753
0.467201
-0.0782016
0.469949
-0.0681383
0.47289
-0.0564386
0.476219
-0.0427422
0.480105
-0.0271432
0.484634
-0.00961727
0.490506
0.00957631
0.0303396
0.500252
-0.0924123
0.498665
-0.0851888
0.49744
-0.0769762
0.4964
-0.0670981
0.495559
-0.055598
0.495448
-0.0426315
0.49629
-0.0279843
0.498654
-0.0119814
0.502727
0.00550265
0.0240079
0.538206
-0.0847024
0.530843
-0.0778257
0.523988
-0.070121
0.517972
-0.0610824
0.512922
-0.0505477
0.50937
-0.0390798
0.507562
-0.0261759
0.508062
-0.0124815
0.51095
0.00261505
0.0183084
0.563754
-0.0710204
0.550848
-0.06492
0.539115
-0.0583876
0.529029
-0.050997
0.520814
-0.0423326
0.514845
-0.0331109
0.51131
-0.0226406
0.510536
-0.0117076
0.512764
0.00038722
0.012937
0.572159
-0.0529134
0.555618
-0.0483793
0.540849
-0.0436182
0.528269
-0.0384174
0.518096
-0.0321588
0.51062
-0.0256354
0.505985
-0.0180058
0.504453
-0.0101753
0.506035
-0.00119496
0.00774394
0.559331
-0.031897
0.54077
-0.0298185
0.52429
-0.0271377
0.510177
-0.0243045
0.498734
-0.0207163
0.490075
-0.016976
0.484436
-0.0123665
0.48203
-0.00776968
0.483316
-0.00248089
0.00303448
0.50132
-0.011813
0.482736
-0.0112348
0.466241
-0.0106425
0.451869
-0.00993237
0.44
-0.00884776
0.430628
-0.00760384
0.424244
-0.00598201
0.420797
-0.00432311
0.42065
-0.00233369
-0.000249016
0.307919
0.296685
0.286042
0.27611
0.267262
0.259658
0.253676
0.249353
0.247019
0.00829297
0.057661
-0.065954
0.0153532
0.132216
-0.139276
0.017921
0.166513
-0.169081
0.018156
0.178709
-0.178944
0.0176534
0.182951
-0.182449
0.0156073
0.184348
-0.182302
0.0127972
0.182515
-0.179704
0.00989991
0.178561
-0.175664
0.00725712
0.172152
-0.169509
0.160709
0.00535201
-0.158804
0.0101934
0.0474675
0.0215125
0.120897
0.028239
0.159786
0.0313848
0.175563
0.0332118
0.181124
0.0338943
0.183665
0.0333115
0.183097
0.0321507
0.179722
0.0307892
0.173514
0.162333
0.0291651
0.0110035
0.036464
0.0262839
0.105616
0.0373108
0.14876
0.0438359
0.169038
0.0478915
0.177069
0.0510981
0.180459
0.0530615
0.181134
0.053856
0.178927
0.0537378
0.173632
0.163763
0.0523076
0.0105038
0.0259602
0.0289268
0.0871935
0.0443904
0.133296
0.0547631
0.158666
0.06163
0.170202
0.0669105
0.175178
0.0710431
0.177001
0.0737667
0.176204
0.0749702
0.172428
0.164593
0.07414
0.00898147
0.0169788
0.0289116
0.0672633
0.0484762
0.113731
0.0631292
0.144013
0.0733125
0.160019
0.0809194
0.167571
0.0870899
0.170831
0.0918677
0.171426
0.0948814
0.169415
0.164049
0.0954255
0.00699631
0.00998245
0.0262318
0.0480278
0.0486992
0.0912639
0.067662
0.12505
0.0816528
0.146028
0.0919418
0.157282
0.100036
0.162737
0.106566
0.164896
0.111317
0.164663
0.161922
0.113444
0.00503636
0.0049461
0.021658
0.0314062
0.0448359
0.068086
0.0673588
0.102527
0.0856089
0.127778
0.0994164
0.143475
0.110047
0.152106
0.118651
0.156292
0.125594
0.15772
0.156957
0.13056
0.00327739
0.00166871
0.0163022
0.0183814
0.0375772
0.046811
0.0615858
0.0785184
0.0834934
0.10587
0.101272
0.125696
0.115069
0.13831
0.125898
0.145463
0.134582
0.149035
0.150439
0.1411
0.00174659
-7.78833e-05
0.011187
0.00894097
0.0287069
0.029291
0.0514603
0.0557651
0.0750933
0.0822371
0.0964087
0.10438
0.114158
0.120561
0.128526
0.131095
0.140402
0.137159
0.139876
0.150965
0.000998963
-0.00107685
0.00721325
0.00272669
0.0202842
0.0162201
0.0394142
0.0366351
0.0618402
0.0598111
0.0843766
0.0818441
0.104765
0.100172
0.122002
0.113858
0.136054
0.123107
0.128191
0.147738
0.000881316
-0.00195816
0.00452054
-0.000912536
0.0134978
0.00724285
0.0279853
0.0221476
0.0468549
0.0409415
0.0679469
0.0607521
0.0890036
0.0791152
0.10843
0.0944318
0.12537
0.106167
0.114923
0.138639
0.00115182
-0.00310999
0.00334889
-0.00310961
0.0089633
0.00162845
0.0188835
0.0122275
0.0330735
0.0267514
0.050592
0.0432337
0.0698675
0.0598397
0.0893005
0.0749989
0.107588
0.0878798
0.0989439
0.123566
0.00102072
-0.0041307
0.00251436
-0.00460325
0.005873
-0.0017302
0.0120358
0.00606463
0.0215424
0.0172448
0.0343944
0.0303816
0.0499197
0.0443144
0.0669933
0.0579253
0.0843924
0.0704807
0.0818768
0.101459
0.000711127
-0.00484183
0.00147343
-0.00536555
0.00308953
-0.00334629
0.00621431
0.00293985
0.0115088
0.0119503
0.0194851
0.0224054
0.0301747
0.0336248
0.0430776
0.0450224
0.0574791
0.0560792
0.0660697
0.0732861
1.41225e-05
-0.00485595
1.79768e-05
-0.0053694
-1.19275e-06
-0.00332713
0.000465667
0.00247299
0.00220108
0.0102149
0.00583665
0.0187698
0.0117714
0.0276901
0.0200606
0.0367332
0.0305397
0.0456002
0.0533879
0.0432215
-0.000743303
-0.00411265
-0.00159031
-0.0045224
-0.00309343
-0.001824
-0.00463403
0.00401359
-0.00543491
0.0110158
-0.00486516
0.0182
-0.00245654
0.0252815
0.00211158
0.0321651
0.00899423
0.0387175
0.0444951
0.017887
-0.00112489
-0.00298776
-0.00270001
-0.00294728
-0.00515805
0.000634046
-0.00780843
0.00666396
-0.0098698
0.0130772
-0.0108435
0.0191738
-0.0103712
0.0248092
-0.00815439
0.0299482
-0.0040401
0.0346033
0.0386894
0.00176562
-0.00113485
-0.00185292
-0.0029514
-0.00113073
-0.0058131
0.00349575
-0.00880567
0.00965653
-0.0112437
0.0155152
-0.0127963
0.0207264
-0.0132855
0.0252983
-0.012604
0.0292667
-0.0107102
0.0327095
0.0357512
-0.00777195
-0.000860071
-0.000992847
-0.00268345
0.000692653
-0.00552644
0.00633874
-0.0083726
0.0125027
-0.0107174
0.01786
-0.0123626
0.0223716
-0.0132518
0.0261876
-0.0134185
0.0294333
-0.0129387
0.0322296
0.0347277
-0.0119152
-0.000561232
-0.00225236
-0.00466301
-0.00707911
-0.00914739
-0.0107084
-0.0117259
-0.0122485
-0.0123651
-0.0121621
0.122325
0.534745
-0.518432
0.0920213
0.33032
-0.300016
0.0541776
0.200153
-0.162309
0.028538
0.128756
-0.103117
0.0200937
0.064377
-0.0559327
0.0243667
0.0011948
-0.00546777
0.0379366
-0.0535839
0.0400139
0.0551075
-0.0779713
0.0608005
0.0736286
-0.0867615
0.0682404
-0.0574867
0.0450872
0.116832
0.54148
0.0862574
0.360894
0.0493113
0.237099
0.0268046
0.151263
0.0210625
0.0701191
0.0274417
-0.0051844
0.04194
-0.0680822
0.0595511
-0.0955823
0.0783004
-0.105511
-0.0695978
0.10551
0.537429
0.0756455
0.390759
0.0420743
0.27067
0.0234387
0.169899
0.020124
0.0734338
0.0286285
-0.0136889
0.0448461
-0.0842997
0.0632357
-0.113972
0.0823857
-0.124661
-0.0815907
0.087474
0.523241
0.0611318
0.417101
0.0329964
0.298806
0.0183026
0.184592
0.017438
0.0742983
0.0283266
-0.0245775
0.046741
-0.102714
0.0663662
-0.133597
0.0862381
-0.144533
-0.0936623
0.0659843
0.500478
0.0449272
0.438158
0.0230873
0.320646
0.0118387
0.195841
0.013253
0.072884
0.0265972
-0.0379216
0.0476097
-0.123727
0.0689812
-0.154969
0.0899935
-0.165545
-0.106041
0.0451584
0.473207
0.0293773
0.45394
0.013434
0.336589
0.00438443
0.20489
0.00750168
0.0697668
0.0232264
-0.0536464
0.0473084
-0.147808
0.070991
-0.178652
0.0936435
-0.188198
-0.119005
0.0267082
0.448264
0.0162368
0.464411
0.00453079
0.348295
-0.00409209
0.213513
-3.39124e-05
0.0657086
0.0180552
-0.0717355
0.0457738
-0.175527
0.072347
-0.205225
0.0971552
-0.213006
-0.13287
0.0119403
0.428552
0.00665115
0.4697
-0.003352
0.358298
-0.0139865
0.224148
-0.00979885
0.061521
0.011529
-0.0930634
0.0433951
-0.207393
0.073281
-0.235111
0.100622
-0.240347
-0.147927
0.00220404
0.414433
0.00108491
0.470819
-0.0104769
0.36986
-0.0249507
0.238622
-0.0200226
0.0565928
0.00532556
-0.118412
0.0414325
-0.2435
0.07457
-0.268248
0.104425
-0.270202
-0.164324
-0.000418451
-0.000910719
-0.0167235
-0.0344936
-0.0275928
0.00232835
0.0421881
0.0777395
0.109381
0.000959348
0.0280947
-0.0290541
-0.000993663
0.00195301
0.000310145
-0.00130381
-0.00142201
0.00173216
-0.00613793
0.00471592
-0.00834303
0.0022051
-0.00601393
-0.0023291
-0.0029958
-0.00301814
3.0234e-05
-0.00302603
-0.00222546
0.0538233
0.13222
-0.157948
0.0196586
0.0361177
0.0110363
0.00731848
0.00221023
0.0105582
-0.00488249
0.0118086
-0.00655495
0.00387756
-0.00155477
-0.00732928
0.00825819
-0.0128311
0.0209074
-0.0156753
-0.0105495
0.139716
0.278145
-0.285641
0.0662637
0.10957
0.0353075
0.0382747
0.0161259
0.0297397
0.00534174
0.0225928
0.00542574
0.00379356
0.0154042
-0.0173078
0.03005
-0.0274769
0.0458625
-0.0314878
-0.0211225
0.208425
0.419527
-0.349807
0.113935
0.20406
0.0617842
0.0904253
0.0316623
0.0598617
0.0172697
0.0369854
0.0168976
0.00416567
0.027851
-0.0282612
0.0439211
-0.043547
0.0616169
-0.0491835
-0.0328261
0.253796
-0.352702
0.157841
0.0859564
0.0427014
0.0237541
0.022452
0.0342047
0.0514582
0.0705151
0.0131742
0.000326404
-0.0135006
0.0142587
-0.00108446
0.0164559
-0.00219719
0.0191778
-0.00272193
0.0224488
-0.00327104
0.0248156
-0.00236675
0.0278237
-0.00300813
0.0285094
-0.000685715
0.0303092
-0.0017998
0.00125516
0.0350332
0.000396145
-0.0351029
0.0387027
-0.00475401
0.0457552
-0.00924973
0.0555625
-0.0125292
0.0684438
-0.0161524
0.0824069
-0.0163299
0.100191
-0.0207925
0.116971
-0.0174655
0.137987
-0.0228153
-0.0187064
0.0523632
-0.000408441
-0.0515587
0.0585812
-0.010972
0.070015
-0.0206835
0.0864465
-0.0289607
0.108144
-0.03785
0.134122
-0.0423075
0.166107
-0.0527774
0.200749
-0.0521075
0.242194
-0.0642609
-0.0621529
0.0652809
-0.00233203
-0.0633573
0.0735898
-0.0192809
0.0882999
-0.0353936
0.109541
-0.0502017
0.136886
-0.0651949
0.17121
-0.0766317
0.209895
-0.0914622
0.254709
-0.096922
0.303111
-0.112662
-0.108849
0.0744541
-0.0714341
0.0843383
0.101252
0.125191
0.155421
0.192234
0.231331
0.27551
0.313812
0.0772155
-0.0755077
0.082187
-0.0838948
0.0695304
-0.0770465
0.0847316
0.0613934
-0.079104
0.087241
0.0527289
-0.0812879
0.0899524
0.0435009
-0.0835009
0.0927288
0.0337766
-0.0854926
0.0952169
0.0237802
-0.0864426
0.096439
0.0139069
-0.084422
0.0942953
0.00501653
-0.0747435
0.0836338
-0.0430779
0.0480945
0.0836917
-0.06706
-0.0921394
0.0749144
-0.0682692
0.0656132
-0.0698027
0.0558227
-0.0714974
0.0456415
-0.0733197
0.0351927
-0.0750438
0.0246685
-0.0759184
0.0144007
-0.0741541
0.00521224
-0.065555
-0.0378657
0.0856958
-0.0574998
-0.095256
0.0760404
-0.0586139
0.0662098
-0.0599721
0.0561942
-0.0614818
0.0459667
-0.0630921
0.03552
-0.0645972
0.0249562
-0.0653545
0.0145899
-0.0637878
0.00529579
-0.056261
-0.0325699
0.0900216
-0.0475933
-0.0999281
0.0799915
-0.0485838
0.0697712
-0.0497518
0.0593085
-0.0510191
0.0485643
-0.0523479
0.0375534
-0.0535863
0.0264157
-0.0542168
0.0155025
-0.0528746
0.00571115
-0.0464697
-0.0268588
0.0929891
-0.0372402
-0.103342
0.0824952
-0.0380899
0.0717996
-0.0390562
0.0608805
-0.0401
0.0497286
-0.0411961
0.0383754
-0.042233
0.0269551
-0.0427965
0.0158126
-0.041732
0.00585274
-0.0365098
-0.021006
0.0960023
-0.0266047
-0.106638
0.0851896
-0.0272771
0.0741669
-0.0280335
0.0629131
-0.0288462
0.0514154
-0.0296985
0.0396988
-0.0305164
0.0279006
-0.0309983
0.0164003
-0.0302317
0.00613715
-0.0262467
-0.0148689
0.0985137
-0.0156779
-0.109441
0.0873903
-0.0161538
0.0760365
-0.0166797
0.0644292
-0.0172389
0.0525555
-0.0178247
0.0404455
-0.0184064
0.0282648
-0.0188177
0.0164842
-0.0184511
0.00615458
-0.015917
-0.00871428
0.100618
-0.00449317
-0.111803
0.0892152
-0.00475074
0.0775532
-0.00501767
0.0655999
-0.0052856
0.0533297
-0.00555459
0.0407619
-0.0058386
0.0280854
-0.00614119
0.0159305
-0.00629616
0.00567615
-0.00566271
-0.00303813
0.10235
0.00687854
-0.113722
0.0907453
0.00685416
0.0788608
0.00686684
0.0666547
0.00692045
0.0540863
0.00701386
0.041149
0.00709864
0.0280023
0.00700554
0.0153358
0.00637031
0.00493629
0.00473684
0.00189816
0.103686
-0.115129
0.0920124
0.0800758
0.0678484
0.0553053
0.0424487
0.029409
0.01673