/*--------------------------------*- C++ -*----------------------------------*\
| =========                 |                                                 |
| \\      /  F ield         | OpenFOAM: The Open Source CFD Toolbox           |
|  \\    /   O peration     | Version:  2406                                  |
|   \\  /    A nd           | Website:  www.openfoam.com                      |
|    \\/     M anipulation  |                                                 |
\*---------------------------------------------------------------------------*/
FoamFile
{
    version     2.0;
    format      ascii;
    arch        "LSB;label=32;scalar=64";
    class       volVectorField;
    location    "2";
    object      U;
}
// * * * * * * * * * * * * * * * * * * * * * * * * * * * * * * * * * * * * * //

dimensions      [0 1 -1 0 0 0 0];

internalField   nonuniform List<vector> 
1800
(
(-0.0293923 0.0174638 0)
(-0.0505176 0.0283754 1.61452e-20)
(-0.0597682 0.0249795 2.15985e-20)
(-0.0576254 0.0211698 2.97287e-20)
(-0.0526008 0.0173777 2.12493e-20)
(-0.0362628 0.021788 1.12253e-20)
(0.00943795 0.0293515 2.06902e-20)
(0.0890232 0.0392131 1.51207e-20)
(0.208366 0.0626712 0)
(0.308531 0.058484 5.34845e-20)
(-0.0395137 0.0266808 5.09186e-21)
(-0.0504032 0.0353721 5.9547e-21)
(-0.0485592 0.0343676 7.65851e-21)
(-0.0398008 0.0310127 -2.39753e-20)
(-0.0014934 0.026811 1.54e-20)
(0.0830259 0.0159628 -2.68705e-20)
(0.216847 0.00262632 1.38308e-20)
(0.392715 -0.00987393 4.95435e-20)
(0.619997 0.00237757 8.81617e-20)
(0.750881 -0.00839124 9.30526e-20)
(-0.0356368 0.0285687 1.16107e-20)
(-0.0451959 0.0376622 -5.15993e-20)
(-0.0345977 0.0412662 -4.53384e-20)
(0.0157826 0.0319515 8.6727e-21)
(0.128947 0.0180917 -1.16536e-20)
(0.305788 0.00275459 1.89855e-21)
(0.534357 -0.010098 -2.15927e-20)
(0.793621 -0.0189769 -9.41664e-20)
(1.07879 -0.0149251 2.02165e-20)
(1.28801 -0.0191105 -2.09261e-20)
(-0.0234395 0.0202873 1.87776e-20)
(-0.0278655 0.0291006 6.04443e-20)
(0.0160403 0.0272465 -3.46569e-20)
(0.144548 0.0163856 -1.07506e-22)
(0.36057 0.00238323 6.29462e-20)
(0.643949 -0.00722694 -1.61579e-20)
(0.959736 -0.00900741 -6.12603e-20)
(1.27244 -0.00260024 -5.19228e-20)
(1.55718 0.00903503 -1.42642e-21)
(1.78266 0.0230537 4.89374e-20)
(-0.0116432 0.00863155 -1.59202e-22)
(0.00645737 0.00822639 4.88725e-20)
(0.127276 0.00222277 3.17226e-20)
(0.370015 -0.00702657 -6.48761e-20)
(0.706488 -0.00935833 -2.80027e-20)
(1.07808 -0.000872459 4.27538e-20)
(1.42801 0.0158422 4.07579e-20)
(1.72097 0.0357287 9.14336e-20)
(1.94369 0.0544532 -1.98637e-19)
(2.09771 0.0694162 -1.84422e-19)
(-0.00197221 0.00186775 3.5035e-22)
(0.0785052 -0.011463 1.35473e-19)
(0.324594 -0.0175512 9.58609e-20)
(0.706682 -0.0118211 -1.17664e-19)
(1.13522 0.00892282 1.09103e-19)
(1.52161 0.0378454 -8.25173e-21)
(1.8198 0.066234 1.20485e-19)
(2.02287 0.0885388 2.0675e-19)
(2.147 0.102668 -3.01729e-19)
(2.21191 0.109717 -2.30727e-19)
(0.0165332 -0.000971042 -4.15317e-20)
(0.216013 -0.0253229 -2.74021e-19)
(0.617819 -0.0150079 2.94116e-20)
(1.10722 0.0184774 3.38746e-19)
(1.54226 0.0601783 -1.9453e-20)
(1.85652 0.0965679 -2.42774e-19)
(2.05227 0.121919 -1.64548e-19)
(2.16238 0.136358 4.58075e-19)
(2.22182 0.142034 5.36579e-19)
(2.25678 0.14605 4.7568e-20)
(0.0650233 -0.00384892 4.64686e-20)
(0.423817 -0.0241471 3.10116e-20)
(0.966474 0.0197707 -1.56854e-19)
(1.47753 0.0788442 8.17822e-20)
(1.83712 0.12661 -4.44221e-21)
(2.04902 0.156774 -8.19682e-19)
(2.16324 0.172643 -9.33963e-22)
(2.22494 0.180127 5.9833e-19)
(2.25827 0.183522 -3.59951e-19)
(2.27633 0.181937 -3.44753e-19)
(0.142544 -0.00278376 1.85195e-19)
(0.681981 0.00333304 1.67796e-19)
(1.29819 0.0857193 -4.00622e-19)
(1.75275 0.156387 -9.51582e-20)
(2.01654 0.198646 5.14434e-21)
(2.15267 0.220379 3.17057e-19)
(2.22083 0.231239 -5.85904e-19)
(2.25498 0.236222 -2.95581e-19)
(2.2758 0.236512 6.29317e-19)
(2.28853 0.234277 1.34593e-19)
(0.246039 0.00929914 3.95016e-21)
(0.947378 0.064565 4.44388e-19)
(1.56018 0.174453 -3.78517e-19)
(1.93301 0.244341 -1.76543e-19)
(2.11913 0.277991 1.9107e-19)
(2.20368 0.292645 -1.99311e-19)
(2.24334 0.298615 3.72645e-19)
(2.26827 0.299713 2.344e-20)
(2.28191 0.29771 -2.59856e-19)
(2.27889 0.290021 -8.08318e-20)
(-8.45405e-05 -0.00299961 1.96801e-20)
(-0.00513347 0.0390568 -7.18047e-20)
(-0.017237 0.121576 -5.10808e-20)
(-0.0295677 0.198488 9.34496e-20)
(-0.0401886 0.259144 -1.56782e-20)
(-0.0484106 0.306367 -7.56258e-21)
(-0.0540307 0.344257 2.84583e-21)
(-0.057367 0.375919 -6.40819e-21)
(-0.058871 0.403613 4.07429e-23)
(-0.0578708 0.42914 2.46351e-20)
(0.000150992 -0.000862242 -1.45494e-20)
(-0.00649187 0.0477317 6.85214e-23)
(-0.0185648 0.134711 4.58689e-20)
(-0.0313135 0.213249 9.25705e-20)
(-0.0424124 0.272785 -1.9994e-20)
(-0.0511582 0.31689 3.69994e-20)
(-0.0574414 0.350612 1.35331e-20)
(-0.0614886 0.377777 0)
(-0.0637217 0.401134 9.33928e-21)
(-0.0638889 0.422939 -2.96608e-20)
(8.64681e-05 -0.00115906 3.37474e-23)
(-0.0073463 0.0442891 8.70223e-20)
(-0.0186696 0.13324 1.20471e-19)
(-0.0310238 0.215486 -5.89225e-20)
(-0.0414856 0.277003 -4.55547e-20)
(-0.0493509 0.320788 4.53457e-20)
(-0.0547036 0.352467 -1.77503e-20)
(-0.0578453 0.376517 -8.19087e-21)
(-0.0591689 0.396133 -2.60482e-20)
(-0.0582814 0.414035 7.62198e-21)
(0.00138497 -0.0028825 -7.7432e-21)
(-0.00547004 0.0298275 5.30384e-20)
(-0.0157485 0.115239 -3.18673e-20)
(-0.0271754 0.201752 -1.52471e-19)
(-0.0361977 0.26827 2.72995e-20)
(-0.0420424 0.314916 -9.49842e-21)
(-0.0450236 0.347096 1.22628e-20)
(-0.0456064 0.369822 0)
(-0.0441627 0.386765 5.97921e-20)
(-0.0397474 0.401012 1.37928e-19)
(0.00305168 -0.00518563 2.76773e-20)
(-0.000256461 0.00815388 -1.36602e-20)
(-0.0095323 0.0804984 -6.4875e-20)
(-0.0202346 0.167989 5.19364e-20)
(-0.0276134 0.24134 -1.23017e-20)
(-0.0308837 0.294341 -1.09256e-20)
(-0.0305794 0.330231 3.43065e-20)
(-0.0274184 0.353893 -7.1174e-20)
(-0.0217639 0.369387 9.81443e-20)
(-0.0118174 0.380044 9.79213e-20)
(0.00679387 -0.0100644 1.91273e-20)
(0.00670747 -0.00560767 -1.32852e-20)
(-0.00162592 0.038543 4.22422e-20)
(-0.0116421 0.115088 -3.8123e-20)
(-0.0185257 0.191123 -1.33987e-19)
(-0.0203002 0.251592 1.67131e-19)
(-0.017238 0.294451 1.91552e-20)
(-0.0102788 0.322409 -8.06463e-20)
(0.000165481 0.338881 2.089e-19)
(0.0167281 0.346576 7.0375e-20)
(0.0106829 -0.015398 -1.31522e-20)
(0.0111253 -0.0150326 2.54674e-20)
(0.00533077 0.00319342 1.29854e-20)
(-0.00592283 0.0548942 -2.32866e-19)
(-0.0145721 0.121432 -9.7214e-21)
(-0.0172004 0.183124 2.01161e-19)
(-0.013939 0.231521 1.52767e-19)
(-0.00530905 0.265222 1.31667e-19)
(0.00869866 0.285139 -3.11224e-19)
(0.0313438 0.290947 -2.50099e-19)
(0.00699894 -0.0159044 -2.14688e-22)
(0.00570144 -0.0163208 1.2393e-21)
(-0.000789869 -0.00951972 -3.38094e-20)
(-0.0113985 0.00942176 8.17408e-20)
(-0.0189579 0.0459381 1.80649e-19)
(-0.0287097 0.0948352 -9.32231e-20)
(-0.0305367 0.141631 8.22623e-20)
(-0.0242162 0.177358 -1.29654e-20)
(-0.00880822 0.199014 -2.63827e-19)
(0.0190584 0.201237 5.32051e-21)
(0.000998459 -0.00756015 3.04202e-21)
(-0.00323057 -0.0137847 -2.20716e-21)
(-0.0178822 -0.0123077 2.62805e-21)
(-0.0348337 -0.00333346 -1.35848e-20)
(-0.0467078 0.0104436 -4.34346e-21)
(-0.0571944 0.0270169 -1.48124e-19)
(-0.0594147 0.0522908 -3.71275e-20)
(-0.0533853 0.0754616 -9.54107e-20)
(-0.0351731 0.0879523 3.09589e-21)
(-0.00037956 0.0827991 4.13748e-19)
(-0.0105908 0.00366471 9.14749e-21)
(-0.0274686 0.00474444 6.15402e-21)
(-0.0475042 0.00160498 4.35979e-20)
(-0.0620362 0.00276073 1.02706e-19)
(-0.0702764 0.00381435 -7.97215e-20)
(-0.0759045 0.00891804 -2.16986e-19)
(-0.0767749 0.0164638 -8.21973e-20)
(-0.0642369 0.0276377 1.66374e-19)
(-0.0310816 0.0347138 2.19685e-19)
(0.0281305 0.0314526 2.7057e-19)
(-0.0306081 0.550196 1.76474e-19)
(0.0150339 0.655139 -9.83622e-20)
(-0.0438309 0.547915 -3.84231e-19)
(-0.181612 0.368495 1.02245e-18)
(-0.19329 0.0629246 -8.10015e-19)
(-0.0715629 -0.229403 2.11012e-20)
(0.143153 -0.423327 2.77976e-19)
(0.343926 -0.448061 1.06134e-20)
(0.502053 -0.442459 -3.39659e-20)
(0.673054 -0.266075 -5.95788e-20)
(-0.0444831 0.532107 2.07861e-19)
(0.013606 0.657556 -9.68136e-21)
(-0.0693468 0.578527 9.16113e-20)
(-0.186178 0.393157 -4.72273e-19)
(-0.16434 0.0469067 -3.22549e-19)
(-0.0111076 -0.278932 8.12921e-19)
(0.232041 -0.484435 -1.82465e-19)
(0.425781 -0.498458 1.3283e-20)
(0.57624 -0.486344 -4.57988e-20)
(0.726629 -0.292252 9.4915e-20)
(-0.0367129 0.507873 -3.56438e-19)
(0.0288025 0.660475 -2.69779e-20)
(-0.0558838 0.607243 3.87484e-20)
(-0.133772 0.410347 -8.12148e-19)
(-0.0882823 0.0269311 7.39193e-19)
(0.0986377 -0.333063 -2.00984e-22)
(0.369715 -0.54785 -2.69069e-20)
(0.552652 -0.546193 2.45547e-20)
(0.693218 -0.52431 2.30482e-20)
(0.802411 -0.315202 4.71584e-21)
(-0.00309257 0.477332 -3.91358e-19)
(0.0704242 0.661026 4.25827e-21)
(0.00493882 0.630498 6.66435e-20)
(-0.0461929 0.425106 4.72661e-19)
(0.0391638 0.00313247 -1.83404e-19)
(0.253184 -0.39131 -1.28843e-19)
(0.542049 -0.613675 1.58085e-19)
(0.714576 -0.592274 0)
(0.853771 -0.554265 0)
(0.9067 -0.33241 -3.87071e-22)
(0.0534186 0.43703 4.58401e-20)
(0.144934 0.653319 3.10739e-19)
(0.096602 0.648769 1.13163e-20)
(0.0786396 0.435792 -2.84163e-19)
(0.219134 -0.0223703 -1.98896e-19)
(0.454453 -0.450532 -6.94618e-19)
(0.742578 -0.679566 2.4979e-20)
(0.893011 -0.638809 3.2425e-20)
(1.04214 -0.577478 7.09128e-21)
(1.0398 -0.342736 2.61154e-21)
(0.125523 0.382348 1.21621e-19)
(0.251405 0.633633 1.73779e-19)
(0.221427 0.658092 2.57713e-19)
(0.251333 0.438382 -1.06254e-20)
(0.447417 -0.0502188 5.46917e-19)
(0.709119 -0.506187 -2.66365e-19)
(0.982323 -0.738231 -1.57736e-19)
(1.08435 -0.683349 5.82359e-20)
(1.23607 -0.59646 1.62003e-21)
(1.1928 -0.347213 2.22886e-22)
(0.201317 0.307689 -2.39843e-22)
(0.383097 0.603358 -1.15661e-20)
(0.385131 0.657395 -2.3136e-19)
(0.457248 0.437185 1.05337e-19)
(0.711116 -0.0794965 -2.30052e-20)
(0.995994 -0.556964 3.99512e-19)
(1.25527 -0.785131 -6.70956e-20)
(1.29827 -0.719237 -4.4035e-20)
(1.42444 -0.610388 1.64874e-20)
(1.35164 -0.347428 -7.716e-21)
(0.257529 0.206626 -9.47715e-20)
(0.521721 0.54742 -1.46848e-18)
(0.570207 0.642754 -4.48083e-19)
(0.683152 0.432892 -4.56059e-20)
(0.985672 -0.107981 -2.38325e-19)
(1.27935 -0.602909 -4.24119e-19)
(1.52488 -0.823292 3.0072e-19)
(1.52809 -0.744026 -1.59012e-19)
(1.60746 -0.616176 9.7207e-21)
(1.50455 -0.343509 3.32136e-21)
(0.254223 0.084386 -1.05627e-19)
(0.668089 0.482022 -5.804e-19)
(0.785462 0.625019 1.00475e-18)
(0.921974 0.423103 -3.38583e-19)
(1.25508 -0.129781 -7.45457e-20)
(1.55361 -0.638574 -1.03462e-19)
(1.77204 -0.853542 -3.23302e-19)
(1.75048 -0.759926 4.78032e-20)
(1.78322 -0.612762 4.6091e-20)
(1.64434 -0.334706 2.50155e-20)
(0.273943 -0.0802161 -9.66868e-20)
(0.774238 0.343548 1.30183e-18)
(0.954867 0.57948 8.59594e-19)
(1.11897 0.428925 -3.86516e-19)
(1.50866 -0.134941 6.92968e-20)
(1.82745 -0.66163 5.85644e-20)
(2.00967 -0.872567 -4.13928e-19)
(1.95392 -0.767285 -8.04946e-20)
(1.94466 -0.600664 1.80383e-21)
(1.76634 -0.320875 -3.26469e-20)
(0.651842 -0.153997 1.44176e-19)
(1.04184 0.189594 1.64006e-19)
(1.23592 0.511469 -9.62009e-20)
(1.42417 0.379949 3.94405e-19)
(1.87983 -0.193538 -2.18175e-19)
(2.19878 -0.701669 -1.15051e-19)
(2.32199 -0.885268 -1.61973e-19)
(2.19753 -0.762643 1.96657e-20)
(2.12498 -0.571927 -1.41307e-19)
(1.89416 -0.297141 2.3107e-20)
(1.55476 -0.0363865 -1.4193e-19)
(1.49332 0.141683 1.63248e-20)
(1.5629 0.423475 -2.30408e-19)
(1.88846 0.232215 1.00774e-19)
(2.40781 -0.358216 -7.68723e-19)
(2.66093 -0.798991 -6.25773e-19)
(2.67764 -0.884986 -2.26354e-19)
(2.43758 -0.706047 -2.28018e-20)
(2.2762 -0.489801 1.7953e-19)
(1.98354 -0.243513 3.9388e-20)
(2.07554 0.00700918 -2.29259e-20)
(1.97287 0.163526 2.34515e-20)
(1.99478 0.346124 -8.90101e-20)
(2.39343 0.08703 -3.27107e-35)
(2.81376 -0.464467 8.36562e-21)
(2.94618 -0.819634 2.09019e-33)
(2.88983 -0.826499 9.02317e-20)
(2.59005 -0.613675 3.91749e-33)
(2.3572 -0.391738 -1.20297e-20)
(2.01245 -0.185039 1.92265e-20)
(2.29136 0.0281089 -2.34118e-20)
(2.26767 0.155922 -4.79286e-20)
(2.40636 0.260867 1.67728e-19)
(2.77691 -0.0286891 0)
(3.08776 -0.54042 6.15573e-19)
(3.14553 -0.834305 3.62121e-19)
(3.0103 -0.775199 -2.98663e-20)
(2.65893 -0.519174 6.85474e-33)
(2.37742 -0.276547 -1.82904e-19)
(1.99162 -0.115113 -2.52953e-20)
(2.41105 0.0238108 -5.55371e-21)
(2.45959 0.103458 -7.99315e-21)
(2.66209 0.152037 0)
(2.98674 -0.129257 0)
(3.23528 -0.589991 0)
(3.2175 -0.804233 0)
(2.96935 -0.663179 1.29602e-20)
(2.54499 -0.385585 6.52452e-33)
(2.247 -0.148214 -1.4271e-20)
(1.88801 -0.0411073 -3.7911e-33)
(2.50955 0.00392752 1.65108e-20)
(2.5989 0.0331689 0)
(2.76752 0.0530157 0)
(3.06755 -0.214617 0)
(3.2889 -0.624433 0)
(3.10609 -0.747045 0)
(2.73225 -0.532968 -1.59266e-20)
(2.26859 -0.246239 2.14015e-19)
(1.97201 -0.032678 -1.59373e-20)
(1.6906 0.0202549 7.73064e-22)
(2.57399 -0.0221363 0)
(2.63868 -0.0175135 4.88792e-20)
(2.76644 -0.0291049 1.42617e-19)
(3.1002 -0.300315 0)
(3.12785 -0.607226 3.015e-19)
(2.66977 -0.602185 1.37186e-19)
(2.16641 -0.352387 -3.60458e-20)
(1.74727 -0.102398 -8.2632e-20)
(1.53771 0.0596454 9.89839e-20)
(1.39907 0.060121 -5.44357e-20)
(2.55705 -0.0454629 1.23453e-20)
(2.54156 -0.0571947 -8.19685e-21)
(2.71044 -0.107744 1.6698e-20)
(2.92155 -0.332726 -6.05982e-35)
(2.52682 -0.482787 -2.35737e-20)
(1.80044 -0.369251 1.00378e-33)
(1.27228 -0.155338 -4.19439e-21)
(1.01277 0.00350584 -8.03587e-20)
(0.973663 0.0945698 -1.65547e-20)
(1.00943 0.0647434 4.28442e-20)
(2.25286 -0.0428907 0)
(2.1917 -0.0837454 -5.77529e-20)
(2.31092 -0.190444 -4.88829e-20)
(2.07418 -0.223174 0)
(1.2768 -0.157094 -5.91369e-20)
(0.647554 -0.100302 -6.5986e-20)
(0.367708 -0.0475484 -5.40422e-20)
(0.30642 0.00791785 -4.95583e-20)
(0.394176 0.051883 1.91272e-20)
(0.529775 0.033395 -4.83156e-20)
(1.21862 -0.0336027 2.63501e-21)
(1.06785 -0.0885054 0)
(0.726889 -0.0430523 0)
(0.449132 0.01862 0)
(0.24376 0.00317216 0)
(0.0703852 -0.0210087 0)
(-0.0683671 -0.0205776 -3.30897e-21)
(-0.11352 -0.00500073 8.966e-35)
(-0.0646078 0.00759171 -1.66161e-20)
(0.0284132 0.00641451 -4.09166e-20)
(2.25254 0.264323 3.49389e-19)
(2.28499 0.225599 1.40563e-19)
(2.29951 0.180945 2.8059e-19)
(2.29259 0.147041 -3.26604e-19)
(2.27698 0.107197 1.13411e-19)
(2.25386 0.0912908 6.97358e-20)
(2.17095 0.0527611 -6.57105e-20)
(1.93768 0.0346108 1.76015e-21)
(1.67773 -0.0120272 1.1379e-19)
(1.00283 -0.0418473 -2.04518e-20)
(2.24578 0.227127 -1.62704e-19)
(2.27681 0.195833 3.48408e-20)
(2.30214 0.164027 1.13574e-19)
(2.31591 0.144774 1.05231e-19)
(2.3209 0.112815 -2.01699e-19)
(2.2926 0.0923848 1.21963e-19)
(2.3199 0.0623765 -2.67861e-21)
(2.1644 0.0298158 -2.00153e-20)
(2.18316 0.0124411 -1.33756e-20)
(1.79009 -0.0409386 4.27067e-20)
(2.28223 0.194585 2.4074e-20)
(2.30599 0.168685 -1.07585e-19)
(2.33012 0.142193 -1.41392e-19)
(2.33533 0.123567 3.06163e-19)
(2.35758 0.104659 -1.95862e-20)
(2.32075 0.0822422 4.41084e-20)
(2.36473 0.0724296 -8.79517e-20)
(2.2629 0.0395434 -8.27863e-20)
(2.32158 0.0436045 -4.72518e-20)
(2.14155 0.00175241 -2.1861e-20)
(2.3317 0.164368 3.90565e-20)
(2.35085 0.14199 -1.28194e-19)
(2.37651 0.122537 2.88951e-20)
(2.37642 0.103211 -1.00664e-19)
(2.40054 0.0924167 1.36066e-19)
(2.37437 0.0725197 -5.88583e-20)
(2.40336 0.0702845 1.45362e-20)
(2.34867 0.0477027 -1.55308e-20)
(2.37739 0.0524522 1.27676e-21)
(2.29909 0.0333185 2.70723e-20)
(2.36567 0.134996 7.71908e-20)
(2.38641 0.115685 -2.00478e-19)
(2.41331 0.102061 -1.68147e-20)
(2.42013 0.0848009 -1.60906e-20)
(2.44178 0.0771648 -6.29108e-21)
(2.43332 0.0613056 -1.00909e-21)
(2.45142 0.0584552 3.41054e-20)
(2.42707 0.0458985 -2.0297e-20)
(2.44024 0.0440279 -3.10671e-20)
(2.40124 0.0410923 -4.06267e-20)
(2.37226 0.104802 1.37571e-19)
(2.39651 0.0894116 2.17959e-20)
(2.42534 0.0789948 -1.34824e-19)
(2.44131 0.0657955 7.81764e-20)
(2.46433 0.0586305 5.76339e-20)
(2.47129 0.0480014 -3.70846e-20)
(2.48847 0.0420134 5.13263e-20)
(2.48492 0.0358298 5.27143e-21)
(2.49816 0.0281183 -4.80478e-20)
(2.48332 0.0310476 -5.8451e-20)
(2.34046 0.072798 1.92819e-20)
(2.36747 0.0616762 3.8887e-20)
(2.39872 0.053076 -5.26199e-20)
(2.42156 0.0441694 -3.17147e-20)
(2.44981 0.0371241 5.42528e-20)
(2.46778 0.0305582 2.51336e-20)
(2.49176 0.0233386 4.69417e-20)
(2.50409 0.0197863 3.79768e-20)
(2.52347 0.010324 1.08659e-20)
(2.52916 0.0131127 2.85827e-20)
(2.23201 0.0434935 2.35113e-20)
(2.26411 0.0363622 2.78218e-22)
(2.29254 0.0288582 -6.5462e-20)
(2.32519 0.0242285 -5.45496e-20)
(2.35355 0.0167279 3.38068e-20)
(2.3864 0.0147202 -2.33298e-20)
(2.41336 0.00555604 -1.88774e-20)
(2.44596 0.00611132 5.16628e-20)
(2.46989 -0.0061864 -3.74216e-20)
(2.50235 -0.00336462 -3.86767e-20)
(1.93058 0.00813704 5.35084e-20)
(1.97288 0.00538505 -2.85032e-20)
(1.98024 0.00155148 -2.70872e-20)
(2.03283 0.000442299 2.75543e-20)
(2.03818 -0.00358902 -1.70238e-20)
(2.09997 -0.00360315 -6.00151e-21)
(2.10325 -0.00864091 -1.64023e-20)
(2.17202 -0.00863514 1.16526e-20)
(2.17293 -0.0157114 1.05892e-20)
(2.24603 -0.0173353 -1.18194e-20)
(1.11736 -0.00242808 0)
(1.13483 -0.0029172 2.16535e-21)
(1.12697 -0.00437491 -3.51788e-20)
(1.15424 -0.00367323 -5.32986e-20)
(1.14447 -0.00637933 2.83105e-20)
(1.1818 -0.0040594 1.10578e-19)
(1.1706 -0.00885312 -5.96446e-21)
(1.2156 -0.00550528 -4.94762e-20)
(1.20244 -0.0129862 -4.71168e-21)
(1.2523 -0.0104517 1.32494e-21)
(1.38451 0.810702 -4.55587e-20)
(1.37275 0.854014 -9.54604e-20)
(1.37433 0.900464 -6.18716e-19)
(1.37984 0.953005 1.87222e-19)
(1.38443 1.00953 9.9712e-19)
(1.38198 1.06544 1.36948e-19)
(1.35938 1.1055 -7.95072e-20)
(1.29182 1.10234 -3.27752e-19)
(1.10659 0.989569 -3.33811e-19)
(0.592 0.550635 -4.61023e-20)
(1.52616 0.78433 -3.53438e-19)
(1.52074 0.826424 1.03928e-18)
(1.52046 0.870912 4.76479e-19)
(1.5257 0.921804 -7.03572e-19)
(1.53342 0.977656 2.4027e-19)
(1.53507 1.03289 2.33824e-19)
(1.51365 1.07044 7.86373e-19)
(1.44072 1.06457 -1.16733e-18)
(1.2338 0.949753 -5.0917e-20)
(0.652228 0.51924 2.13191e-19)
(1.65695 0.755308 1.04202e-19)
(1.65983 0.796864 8.26852e-19)
(1.66218 0.839641 1.61161e-20)
(1.6684 0.886896 -4.21081e-19)
(1.67768 0.938465 1.26341e-19)
(1.68077 0.988755 -6.59935e-20)
(1.65774 1.01958 -4.67048e-20)
(1.57664 1.00866 -4.05594e-19)
(1.34438 0.889979 1.80853e-20)
(0.698572 0.474135 -2.17479e-19)
(1.77462 0.714159 -4.2133e-19)
(1.78476 0.753317 3.87936e-19)
(1.79273 0.793143 -6.01729e-19)
(1.80313 0.836178 -2.2643e-19)
(1.81544 0.882524 1.34604e-18)
(1.81913 0.926574 -8.62554e-19)
(1.79239 0.949882 -9.90449e-19)
(1.70179 0.933665 4.29818e-19)
(1.43943 0.813182 -1.22898e-19)
(0.729526 0.420066 -6.47556e-20)
(1.8788 0.666323 5.30198e-19)
(1.89415 0.702989 4.28357e-19)
(1.90712 0.739625 -2.04378e-19)
(1.92095 0.778113 8.08379e-19)
(1.93511 0.818815 1.65309e-19)
(1.93796 0.854838 -3.72683e-19)
(1.90528 0.866821 5.59745e-19)
(1.80256 0.844343 -6.69442e-19)
(1.50296 0.722069 -7.61269e-19)
(0.736468 0.356519 -1.84103e-21)
(1.9745 0.607126 7.06596e-19)
(1.99306 0.639788 8.93766e-19)
(2.00949 0.672247 -9.20932e-19)
(2.02636 0.705979 -9.55083e-19)
(2.04098 0.739695 2.3746e-19)
(2.03778 0.766281 -7.08168e-19)
(1.99384 0.769693 -4.72904e-19)
(1.87537 0.741657 4.11561e-19)
(1.53335 0.615877 6.79058e-20)
(0.717394 0.285644 -1.59162e-20)
(2.05834 0.543158 6.589e-19)
(2.07874 0.571481 -8.89168e-19)
(2.09757 0.599383 -7.91244e-19)
(2.11476 0.627334 6.24088e-19)
(2.12634 0.654118 -5.62003e-19)
(2.11439 0.667602 1.69893e-18)
(2.05574 0.662568 -2.60882e-19)
(1.91398 0.629448 -1.3916e-18)
(1.52301 0.500011 6.09174e-19)
(0.668552 0.212595 3.13294e-20)
(2.1323 0.476997 -4.31907e-19)
(2.15176 0.500667 -6.1972e-19)
(2.16877 0.523344 -8.68444e-19)
(2.18486 0.546144 3.03568e-20)
(2.1898 0.56395 2.84856e-19)
(2.15559 0.563824 2.91975e-19)
(2.09057 0.553201 7.03716e-19)
(1.91105 0.512779 -3.77074e-19)
(1.46334 0.380517 1.91718e-20)
(0.589694 0.143137 6.35737e-20)
(2.19285 0.410673 2.19178e-19)
(2.20972 0.430266 -7.41747e-20)
(2.22686 0.449096 4.3172e-19)
(2.23703 0.464012 1.17903e-18)
(2.21623 0.466181 -4.29159e-19)
(2.17346 0.460291 -1.47437e-18)
(2.08758 0.445663 1.06448e-18)
(1.85801 0.394112 9.70468e-19)
(1.34931 0.262973 -4.89529e-19)
(0.485256 0.083003 -7.993e-21)
(2.24079 0.348217 -4.50064e-19)
(2.25728 0.36403 -4.9045e-21)
(2.26544 0.374473 6.17697e-19)
(2.25073 0.377213 6.31218e-19)
(2.21862 0.374337 4.49109e-19)
(2.16591 0.366271 -7.20739e-19)
(2.03948 0.341837 3.38746e-20)
(1.7443 0.279348 -3.68355e-19)
(1.17627 0.154666 -5.53692e-19)
(0.36535 0.0375449 -1.3573e-20)
(0.519843 0.280237 4.40631e-20)
(0.481779 0.285922 -2.32396e-19)
(0.438779 0.292602 -4.23873e-20)
(0.3916 0.300443 1.80795e-19)
(0.340147 0.309369 -2.86086e-20)
(0.283782 0.318313 -1.80721e-20)
(0.221717 0.322952 -7.4003e-20)
(0.152086 0.31166 -2.86009e-20)
(0.0775482 0.262265 1.11418e-19)
(0.0291412 0.137142 5.19988e-21)
(0.55708 0.380371 1.38571e-20)
(0.519585 0.391999 4.1401e-20)
(0.477815 0.40511 1.51032e-20)
(0.432218 0.419869 1.13102e-20)
(0.382505 0.436152 6.80645e-20)
(0.327839 0.452655 3.17205e-20)
(0.266874 0.46407 5.08199e-20)
(0.196891 0.45578 -7.405e-20)
(0.116868 0.396931 7.88509e-20)
(0.050067 0.220269 2.93436e-22)
(0.609762 0.474694 -1.29393e-19)
(0.573395 0.491972 -3.11428e-20)
(0.533606 0.511045 2.87744e-20)
(0.490405 0.532224 -8.13777e-20)
(0.443265 0.555488 -1.62234e-20)
(0.391134 0.579473 1.21071e-19)
(0.332 0.598085 -3.14471e-21)
(0.262084 0.593916 -1.88271e-20)
(0.175622 0.527615 -4.008e-22)
(0.0829776 0.30114 2.04226e-20)
(0.675558 0.563402 -1.06036e-19)
(0.64075 0.586537 -1.78466e-19)
(0.603759 0.611501 -3.4324e-21)
(0.563843 0.638811 3.85376e-20)
(0.520092 0.668553 -1.84928e-19)
(0.471267 0.699242 -7.96357e-20)
(0.414754 0.723953 -1.86595e-19)
(0.345539 0.722726 6.55595e-20)
(0.25202 0.64884 -4.78293e-20)
(0.126789 0.375252 -9.22931e-20)
(0.754526 0.640936 1.04778e-19)
(0.722097 0.669155 -5.9227e-20)
(0.688989 0.699228 -4.09177e-20)
(0.653707 0.732091 -3.78539e-20)
(0.614878 0.767963 -4.79686e-20)
(0.570853 0.805169 4.78984e-20)
(0.51809 0.835902 5.73412e-20)
(0.449818 0.837761 -1.30205e-19)
(0.347495 0.757429 -2.41525e-19)
(0.181481 0.440675 5.61126e-20)
(0.843273 0.711423 3.04013e-20)
(0.813381 0.744551 2.65086e-20)
(0.784401 0.778847 9.56723e-20)
(0.75395 0.816028 3.52896e-20)
(0.720409 0.85671 1.86219e-19)
(0.681949 0.899009 -1.58599e-19)
(0.634032 0.934014 -1.21972e-19)
(0.567549 0.937143 -3.42075e-20)
(0.455863 0.849932 9.18294e-20)
(0.243362 0.4945 1.53322e-19)
(0.940771 0.764611 -3.97139e-20)
(0.915449 0.801839 1.97818e-20)
(0.892885 0.839859 1.84323e-19)
(0.869317 0.880907 -9.10725e-20)
(0.842444 0.925836 -3.30328e-19)
(0.810103 0.972634 1.92836e-19)
(0.766901 1.01134 5.6419e-19)
(0.701319 1.01539 1.59925e-19)
(0.577498 0.922697 -2.88556e-20)
(0.311561 0.535631 2.23124e-19)
(1.04112 0.810444 -1.96718e-19)
(1.01826 0.849883 -5.87622e-20)
(1.00095 0.889514 1.99537e-19)
(0.984642 0.932877 -1.12707e-19)
(0.966261 0.98082 7.4388e-20)
(0.942509 1.03061 3.73059e-19)
(0.906181 1.07097 -4.07388e-19)
(0.84266 1.07413 -3.88534e-19)
(0.706682 0.97545 3.31558e-19)
(0.383226 0.562934 -4.10989e-21)
(1.14997 0.831896 -1.77169e-20)
(1.1359 0.874156 4.24458e-20)
(1.12636 0.914932 -1.92118e-19)
(1.11635 0.959697 -6.34951e-20)
(1.1039 1.01016 4.44702e-19)
(1.08613 1.06299 1.32129e-19)
(1.0544 1.10497 -1.16532e-19)
(0.99056 1.10699 0)
(0.840014 1.00292 -2.20957e-19)
(0.455366 0.573604 -1.14577e-19)
(1.23971 0.839352 0)
(1.23418 0.882903 0)
(1.23867 0.925958 5.73252e-19)
(1.24215 0.972412 1.28915e-19)
(1.2412 1.02375 -2.03553e-19)
(1.23273 1.07689 3.94641e-19)
(1.20692 1.11772 -2.86432e-19)
(1.14265 1.11726 -8.06195e-19)
(0.976294 1.00858 4.17894e-19)
(0.52676 0.569932 2.1779e-19)
(1.00036 0.007191 -2.50889e-20)
(1.0033 -0.00709742 -8.16537e-21)
(1.02822 0.0102684 9.20879e-21)
(1.04812 0.0901063 5.77419e-21)
(1.04617 0.161986 9.80896e-21)
(1.01873 0.217716 1.85774e-20)
(0.982164 0.23 -9.68882e-21)
(0.916025 0.235142 -9.41909e-21)
(0.834593 0.244691 -7.71332e-20)
(0.687124 0.251566 4.67202e-20)
(1.00006 0.00660135 -5.43466e-22)
(1.00402 -0.010734 7.2243e-21)
(1.02849 0.00384108 8.04559e-23)
(1.04686 0.088682 9.39447e-21)
(1.04465 0.166985 7.94485e-21)
(1.01676 0.227179 -2.85448e-20)
(0.982971 0.244646 -1.32743e-20)
(0.922031 0.255822 6.08312e-22)
(0.845911 0.279551 1.94951e-19)
(0.719017 0.31744 5.42366e-21)
(0.999553 0.00583919 4.8833e-22)
(1.00497 -0.0143799 1.57201e-20)
(1.02923 -0.00193861 -1.37407e-20)
(1.0464 0.0883111 -8.03973e-22)
(1.04441 0.172653 -8.62678e-21)
(1.01617 0.237093 6.72656e-22)
(0.984014 0.258159 1.62181e-20)
(0.930171 0.275498 -1.66661e-20)
(0.857912 0.311369 1.12652e-19)
(0.761817 0.379669 -2.48573e-19)
(0.998814 0.0049907 7.51224e-21)
(1.00577 -0.0181912 -7.23933e-22)
(1.03035 -0.00718886 -1.50866e-20)
(1.04671 0.0889835 -2.59931e-20)
(1.04524 0.178964 2.17257e-20)
(1.01674 0.247617 2.16498e-20)
(0.985609 0.270438 -2.2148e-20)
(0.940461 0.294451 8.57775e-20)
(0.870945 0.33946 -1.0295e-19)
(0.814727 0.437252 -2.70158e-19)
(0.997993 0.00413512 2.54545e-22)
(1.0064 -0.0222371 -2.04686e-20)
(1.03183 -0.0120131 7.13441e-21)
(1.04778 0.0906933 3.54625e-20)
(1.04697 0.185927 8.88954e-21)
(1.01829 0.258765 4.6617e-20)
(0.9881 0.281324 2.56054e-20)
(0.952897 0.312954 7.44136e-20)
(0.88537 0.363122 3.76051e-22)
(0.876349 0.489577 1.98141e-19)
(0.997191 0.00324991 -4.32898e-21)
(1.00684 -0.0265137 2.26561e-22)
(1.03354 -0.0164781 -5.38743e-21)
(1.04948 0.0934403 1.0498e-20)
(1.04938 0.193554 -3.03061e-20)
(1.0208 0.270413 8.29955e-21)
(0.991835 0.290703 -2.79609e-21)
(0.967275 0.33111 -2.15202e-19)
(0.901615 0.381872 0)
(0.946197 0.537642 -2.5744e-20)
(0.996543 0.00233143 3.3742e-21)
(1.007 -0.0309784 1.17517e-20)
(1.03514 -0.0206518 1.16025e-21)
(1.05153 0.0971739 -5.44474e-20)
(1.05234 0.201785 -1.15683e-20)
(1.02443 0.282317 -5.77961e-20)
(0.99728 0.298629 4.81696e-21)
(0.982984 0.348809 4.81417e-21)
(0.921311 0.396199 -1.90138e-21)
(1.01928 0.5776 7.57286e-19)
(0.996252 0.00139686 6.79061e-21)
(1.00677 -0.0355118 1.57676e-20)
(1.03607 -0.0246484 1.73747e-20)
(1.05357 0.101675 2.16283e-20)
(1.05585 0.210405 -4.72028e-20)
(1.02926 0.294026 1.28028e-20)
(1.00507 0.305262 -2.75174e-21)
(0.999274 0.365699 2.69809e-20)
(0.94646 0.405025 1.38866e-19)
(1.10169 0.620415 -2.42748e-20)
(0.996508 0.000440419 -1.09294e-21)
(1.00603 -0.0399435 -9.13274e-21)
(1.03558 -0.0281553 -5.79589e-21)
(1.05539 0.106925 4.02847e-20)
(1.0601 0.219293 3.87774e-21)
(1.03535 0.305044 1.90407e-20)
(1.01557 0.310826 -4.71458e-20)
(1.0155 0.380304 6.6172e-20)
(0.980335 0.406311 2.83759e-19)
(1.16922 0.642546 -6.48853e-19)
(0.997373 -0.000586292 -3.83437e-22)
(1.00485 -0.0439956 -2.35313e-20)
(1.03383 -0.0305284 4.95475e-22)
(1.0571 0.114425 -1.84918e-20)
(1.06533 0.229991 4.85802e-20)
(1.04321 0.316071 -2.77154e-20)
(1.02835 0.316371 -1.62806e-20)
(1.03372 0.393219 3.36828e-20)
(1.0211 0.417767 -1.52261e-19)
(1.26698 0.693998 3.53796e-19)
(0.998997 -0.00184012 -9.45333e-22)
(1.00276 -0.0477241 4.58088e-21)
(1.03035 -0.0380962 7.45136e-21)
(1.05836 0.11595 -3.85721e-20)
(1.07669 0.233932 -3.54634e-20)
(1.06055 0.326187 -3.81209e-20)
(1.05162 0.315428 1.48646e-20)
(1.06872 0.404193 -1.47103e-19)
(1.06327 0.371194 -4.93877e-19)
(1.27997 0.685127 -1.49072e-19)
(1.00137 -0.00310921 -4.12789e-21)
(0.999486 -0.0495384 3.07831e-21)
(1.02496 -0.0539879 -2.65317e-21)
(1.04898 0.106541 1.70075e-20)
(1.09822 0.226456 2.49841e-20)
(1.08459 0.33268 5.66087e-20)
(1.10834 0.305241 1.43895e-20)
(1.12451 0.407492 1.15685e-19)
(1.17909 0.332926 2.08822e-19)
(1.29317 0.588559 2.44979e-19)
(1.0038 -0.0045948 -1.21914e-21)
(0.997322 -0.0503218 -1.97708e-21)
(1.02639 -0.0658961 2.39945e-21)
(1.0199 0.0941084 3.70602e-21)
(1.14906 0.212376 7.73108e-35)
(1.09674 0.331018 -6.10512e-21)
(1.23686 0.287879 -4.50962e-34)
(1.18808 0.394415 1.68101e-20)
(1.38717 0.306391 -4.24323e-20)
(1.33847 0.511097 -2.01687e-19)
(1.00574 -0.00664476 1.47921e-20)
(0.998755 -0.0512421 -2.01478e-35)
(1.03385 -0.0699498 -2.5734e-21)
(0.972577 0.0707112 -6.79008e-21)
(1.23026 0.188255 -1.82117e-20)
(1.09367 0.314396 -2.18632e-21)
(1.40335 0.259402 -5.17996e-34)
(1.27419 0.365415 -3.60004e-20)
(1.58655 0.280111 -8.95756e-20)
(1.45737 0.446432 2.24438e-19)
(1.00678 -0.00987628 0)
(1.00493 -0.0532515 -3.94467e-35)
(1.04132 -0.0644297 0)
(0.944236 0.0298844 0)
(1.28124 0.156561 0)
(1.11057 0.278025 0)
(1.50429 0.212606 -3.10075e-34)
(1.38512 0.326813 0)
(1.69596 0.24794 -1.63905e-20)
(1.6234 0.383232 1.35406e-19)
(1.0063 -0.0149417 2.0719e-21)
(1.01581 -0.0563785 -8.51529e-21)
(1.04628 -0.0566199 -3.09836e-21)
(0.963335 -0.0116747 0)
(1.27248 0.122445 0)
(1.16774 0.22936 4.98106e-21)
(1.52149 0.159401 2.64695e-20)
(1.49112 0.280909 -1.18338e-20)
(1.738 0.210557 -2.48592e-20)
(1.76926 0.317391 1.00048e-19)
(1.00357 -0.023159 -6.99456e-20)
(1.03182 -0.0586402 8.25677e-21)
(1.04349 -0.0540423 -4.65183e-21)
(1.01117 -0.0558697 -2.2121e-20)
(1.20794 0.0813635 -2.52803e-20)
(1.2272 0.169933 4.79737e-21)
(1.4774 0.105546 -2.53348e-20)
(1.54745 0.227296 -1.88695e-20)
(1.72908 0.167883 -3.04004e-20)
(1.84833 0.250157 9.47394e-20)
(0.998321 -0.0316287 -4.26136e-21)
(1.04121 -0.060841 -1.00737e-20)
(1.0372 -0.0542443 -5.40372e-21)
(1.0313 -0.0641207 -4.71852e-21)
(1.07765 0.0500821 -5.88355e-35)
(1.24661 0.110486 4.98584e-21)
(1.35213 0.0573638 -8.2209e-34)
(1.52155 0.170076 -1.07964e-20)
(1.63989 0.121648 1.59724e-20)
(1.84218 0.182579 2.24269e-20)
(0.976598 -0.0515583 1.32061e-19)
(1.03582 -0.0624292 -1.46883e-21)
(0.975749 -0.0595042 -5.69332e-21)
(0.972608 -0.0630528 8.87941e-21)
(0.864626 0.0121373 9.87983e-21)
(1.14077 0.0437114 2.45394e-21)
(1.06555 0.0261191 1.26357e-20)
(1.33766 0.0958023 -2.21367e-20)
(1.38603 0.0657722 -2.95789e-20)
(1.67433 0.0975353 8.29376e-20)
(0.871368 -0.0334754 5.98222e-21)
(0.846806 -0.0446675 -4.7666e-35)
(0.64947 -0.0472877 -6.44145e-21)
(0.530969 -0.0270394 0)
(0.431125 0.00121835 0)
(0.59504 0.0100561 5.13812e-21)
(0.520602 0.0126314 -6.08881e-36)
(0.751295 0.0318887 -9.83138e-21)
(0.793577 0.0192347 -2.36089e-20)
(1.02251 0.0310761 -3.74497e-20)
(1.45894 0.707003 1.51694e-19)
(1.55115 0.691749 -4.21431e-20)
(1.65597 0.666924 -3.18328e-21)