/*--------------------------------*- C++ -*----------------------------------*\
| =========                 |                                                 |
| \\      /  F ield         | OpenFOAM: The Open Source CFD Toolbox           |
|  \\    /   O peration     | Version:  2406                                  |
|   \\  /    A nd           | Website:  www.openfoam.com                      |
|    \\/     M anipulation  |                                                 |
\*---------------------------------------------------------------------------*/
FoamFile
{
    version     2.0;
    format      ascii;
    arch        "LSB;label=32;scalar=64";
    class       volScalarField;
    location    "200";
    object      k;
}
// * * * * * * * * * * * * * * * * * * * * * * * * * * * * * * * * * * * * * //

dimensions      [0 2 -2 0 0 0 0];

internalField   nonuniform List<scalar> 
12225
(
0.538655
0.802698
0.972074
1.06039
1.09337
1.0895
1.07677
1.05043
1.02101
0.992261
0.96543
0.940494
0.918931
0.898281
0.882714
0.86535
0.85657
0.841311
0.380517
0.389392
0.402259
0.416922
0.4305
0.445979
0.460647
0.479677
0.497778
0.521683
0.538305
0.560567
0.574795
0.595371
0.607029
0.625872
0.634437
0.651253
0.374553
0.373776
0.372612
0.369419
0.365686
0.360405
0.355534
0.350319
0.346215
0.342726
0.339964
0.337728
0.335958
0.334768
0.333757
0.333409
0.332805
0.333215
0.374194
0.371885
0.370174
0.367354
0.364799
0.361025
0.357648
0.353241
0.349439
0.344888
0.341114
0.33675
0.333194
0.329151
0.325902
0.322311
0.319403
0.316282
0.374062
0.371619
0.369796
0.367386
0.365298
0.362558
0.360134
0.357089
0.354392
0.351159
0.34834
0.345063
0.3423
0.339155
0.336597
0.333648
0.331373
0.328614
0.373968
0.371591
0.36967
0.367493
0.365583
0.363359
0.361354
0.359033
0.356907
0.354497
0.352311
0.349885
0.347742
0.34539
0.343391
0.341164
0.339362
0.337253
0.373904
0.371591
0.369584
0.367512
0.365652
0.363684
0.361876
0.359935
0.358116
0.356167
0.354347
0.352418
0.350652
0.348793
0.347143
0.345385
0.343884
0.342218
0.373868
0.371586
0.36952
0.367486
0.36562
0.363762
0.362034
0.360284
0.35863
0.356937
0.355333
0.353695
0.352163
0.350603
0.349173
0.347707
0.346399
0.345014
0.373849
0.37158
0.369477
0.367451
0.365564
0.363741
0.362032
0.360364
0.358783
0.357222
0.355736
0.354263
0.352868
0.351486
0.350193
0.348904
0.347718
0.346511
0.373839
0.371573
0.369449
0.367422
0.365517
0.363697
0.361983
0.360339
0.358781
0.357274
0.355841
0.35445
0.353127
0.351841
0.350624
0.349436
0.34832
0.34722
0.373833
0.371567
0.36943
0.3674
0.365482
0.363658
0.361934
0.360291
0.358733
0.357242
0.355825
0.354466
0.353172
0.351928
0.350746
0.349607
0.348525
0.347481
0.37383
0.371562
0.369419
0.367385
0.36546
0.363631
0.361899
0.360251
0.358687
0.357197
0.35578
0.354428
0.35314
0.351909
0.350736
0.349614
0.348543
0.347519
0.373828
0.371559
0.36941
0.367374
0.365443
0.36361
0.361872
0.360219
0.35865
0.357156
0.355735
0.354382
0.353093
0.351864
0.350692
0.349573
0.348505
0.347485
0.373827
0.371556
0.369404
0.367363
0.365429
0.363592
0.361848
0.360192
0.358617
0.357119
0.355693
0.354336
0.353043
0.35181
0.350635
0.349514
0.348443
0.347423
0.373826
0.371553
0.369398
0.367355
0.365417
0.363577
0.361829
0.360168
0.358589
0.357087
0.355657
0.354295
0.352997
0.351761
0.350581
0.349457
0.348382
0.347358
0.373826
0.371551
0.369394
0.367349
0.365407
0.363564
0.361813
0.360149
0.358566
0.35706
0.355626
0.354261
0.352959
0.351719
0.350536
0.349408
0.34833
0.347303
0.373825
0.37155
0.369391
0.367344
0.3654
0.363555
0.361801
0.360134
0.358549
0.35704
0.355603
0.354234
0.35293
0.351687
0.350501
0.349369
0.348289
0.347259
0.373825
0.371549
0.36939
0.367341
0.365396
0.363549
0.361793
0.360124
0.358537
0.357025
0.355586
0.354216
0.352909
0.351664
0.350476
0.349342
0.348261
0.347228
0.373825
0.371549
0.36939
0.36734
0.365395
0.363547
0.36179
0.36012
0.358531
0.357019
0.355578
0.354206
0.352899
0.351652
0.350463
0.349328
0.348245
0.347212
0.373825
0.37155
0.369391
0.367342
0.365397
0.36355
0.361794
0.360124
0.358535
0.357023
0.355582
0.35421
0.352903
0.351656
0.350466
0.349332
0.348249
0.347216
0.373826
0.371551
0.369394
0.367346
0.365403
0.363556
0.361801
0.360133
0.358545
0.357034
0.355594
0.354223
0.352916
0.35167
0.350482
0.349348
0.348266
0.347233
0.373826
0.371554
0.369398
0.367353
0.365411
0.363567
0.361814
0.360148
0.358562
0.357052
0.355614
0.354244
0.352938
0.351692
0.350503
0.349369
0.348286
0.347251
0.373827
0.371558
0.369405
0.367364
0.365425
0.363584
0.361833
0.360168
0.358582
0.357073
0.355632
0.354258
0.352945
0.351692
0.350492
0.349347
0.348248
0.3472
0.373827
0.371565
0.369415
0.367382
0.365443
0.363601
0.361842
0.360169
0.358567
0.357039
0.35557
0.354164
0.35281
0.351513
0.350261
0.349062
0.347901
0.346794
0.373827
0.371579
0.369423
0.367401
0.365438
0.363569
0.361758
0.36003
0.358348
0.356734
0.355156
0.353636
0.352146
0.350712
0.349306
0.347959
0.346634
0.345374
0.373831
0.371579
0.36939
0.367374
0.36531
0.36334
0.361356
0.359457
0.357543
0.355692
0.353828
0.352023
0.350215
0.348473
0.346737
0.34508
0.343428
0.341869
0.373835
0.371509
0.369343
0.36735
0.365029
0.362829
0.360403
0.358092
0.355613
0.353231
0.350742
0.348351
0.34592
0.343599
0.341288
0.339099
0.336944
0.334917
0.373937
0.371773
0.370131
0.36838
0.365649
0.363088
0.359781
0.356781
0.353328
0.350254
0.347006
0.344133
0.341345
0.338862
0.336696
0.334653
0.33306
0.331424
0.377221
0.377748
0.381558
0.386826
0.391401
0.397131
0.401829
0.407949
0.413547
0.42065
0.427695
0.436077
0.444579
0.45407
0.463771
0.472441
0.481674
0.489639
0.462691
0.611265
0.727722
0.813528
0.871244
0.909438
0.930093
0.94207
0.942884
0.940882
0.936011
0.927988
0.918921
0.909232
0.899547
0.89004
0.880784
0.871895
2.72628e-05
0.00024613
0.000715538
0.00180679
0.00435769
0.00820711
0.0127099
0.0173888
0.0219521
0.0262965
0.030336
0.0339529
0.0371347
0.0398955
0.0421979
0.0441755
0.0455691
0.0470627
0.0471909
0.0471074
0.0469067
0.0466522
0.0469116
0.045241
0.0445911
0.0446945
0.0425332
0.0422887
0.0397239
0.0389803
0.0364659
0.0352061
0.0335962
0.0319604
0.0303398
0.0287585
0.0272688
0.0259489
0.0247731
0.0238058
0.0230201
0.0225809
0.0221002
0.0218642
0.0218791
0.0216559
0.0215687
0.0213994
0.0210892
0.0207181
0.0199025
0.0188237
0.0175346
0.0160708
0.0145149
0.0129335
0.0114314
0.0100468
0.00894443
0.00812261
0.00765047
0.00797833
0.00816377
0.00899283
0.00971887
0.0105754
0.0111456
0.0107527
0.0103242
0.00967497
0.00983601
0.0105825
0.0138413
0.0324082
0.0716964
0.115832
0.160038
0.206926
0.250845
0.290401
0.325509
0.356045
0.382227
0.404992
0.424419
0.441262
0.45483
0.462702
0.47076
0.477467
0.4865
0.493111
0.498421
0.504453
0.508802
0.517758
0.518349
0.522977
0.525173
0.525129
0.532276
0.52904
0.536332
0.536108
0.537696
0.538204
0.537371
0.534898
0.535399
0.536557
0.539987
0.53769
0.53611
0.532323
0.531699
0.532109
0.525676
0.523715
0.521958
0.519528
0.51668
0.515781
0.516182
0.509667
0.512128
0.506457
0.509748
0.502375
0.502555
0.510286
0.50773
0.509713
0.509053
0.506653
0.5099
0.523063
0.512208
0.516063
0.533358
0.530656
0.534353
0.532563
0.536562
0.544091
0.549727
0.571388
0.567941
0.576204
0.600989
0.598341
0.607732
0.634335
0.631191
0.656584
0.645375
0.65476
0.683912
0.688714
0.691505
0.717305
0.708559
0.734508
0.732587
0.763781
0.768635
0.781497
0.783489
0.800335
0.800484
0.809884
0.810584
0.81227
0.810294
0.791494
0.766987
0.748364
0.726758
0.699994
0.665194
0.601549
6.82739e-05
0.000255998
0.00174192
0.00742381
0.0197813
0.0354377
0.0518369
0.0673237
0.0810698
0.0928848
0.10287
0.111205
0.118099
0.123722
0.12823
0.13175
0.134406
0.136306
0.137496
0.138046
0.138194
0.138154
0.137592
0.135922
0.133912
0.131312
0.128136
0.124632
0.120673
0.116544
0.112171
0.107804
0.103483
0.0994305
0.0957347
0.0924298
0.0897534
0.087615
0.0861231
0.0853102
0.0851097
0.0854947
0.0860427
0.0866424
0.087029
0.0868457
0.0864162
0.085103
0.0825785
0.0793894
0.0755436
0.0711409
0.0663369
0.0612773
0.0562655
0.0514159
0.0472239
0.0438284
0.04152
0.041661
0.0422362
0.0461666
0.0495516
0.0544943
0.0593567
0.0624334
0.0624959
0.0591411
0.0576267
0.0620114
0.0749113
0.0971078
0.132384
0.184158
0.230271
0.281197
0.334414
0.39156
0.453731
0.514928
0.575782
0.635723
0.690716
0.742904
0.78875
0.830056
0.865535
0.896256
0.922698
0.945413
0.964791
0.980804
0.994195
1.0054
1.01876
1.03025
1.0381
1.04517
1.05044
1.05331
1.05754
1.06085
1.06432
1.06447
1.06636
1.06949
1.06948
1.07028
1.07138
1.07037
1.06876
1.06533
1.06221
1.05783
1.05379
1.04923
1.04287
1.03558
1.02843
1.01933
1.01041
1.00032
0.990146
0.980345
0.973727
0.965941
0.957815
0.9486
0.937612
0.9279
0.922284
0.91838
0.915275
0.915563
0.916428
0.926073
0.919707
0.92424
0.9455
0.940067
0.949133
0.984221
0.982268
0.994357
1.001
1.01379
1.02483
1.03865
1.0556
1.07147
1.08935
1.10864
1.12755
1.14742
1.16687
1.19017
1.21677
1.24408
1.27521
1.31074
1.34868
1.3934
1.44066
1.49452
1.54905
1.60719
1.66396
1.72039
1.77586
1.83384
1.88694
1.92775
1.9496
1.93801
1.88978
1.82104
1.74418
1.64705
1.55629
1.44396
7.92827e-05
0.000748449
0.00557781
0.0199828
0.0431208
0.066819
0.0891723
0.108981
0.126097
0.140725
0.15316
0.163683
0.172548
0.179968
0.186126
0.191179
0.195266
0.198497
0.200972
0.202776
0.204011
0.204729
0.205043
0.204967
0.204214
0.202634
0.200674
0.198239
0.195372
0.192138
0.188607
0.184894
0.181125
0.177445
0.173997
0.170894
0.168257
0.166086
0.164409
0.163157
0.162212
0.161359
0.160404
0.159128
0.15735
0.154922
0.151748
0.147765
0.142955
0.137409
0.131248
0.124631
0.117769
0.110915
0.104419
0.0986689
0.0942199
0.0916078
0.0914465
0.0938639
0.098921
0.106939
0.116526
0.12721
0.137974
0.147146
0.155403
0.167676
0.188768
0.218997
0.255988
0.296013
0.338471
0.384354
0.448986
0.531401
0.620045
0.714454
0.81334
0.908912
0.999917
1.08408
1.15903
1.22576
1.28356
1.33383
1.37707
1.41438
1.44656
1.47431
1.49824
1.51879
1.53645
1.55203
1.56605
1.57816
1.58815
1.59655
1.60347
1.60753
1.61389
1.61816
1.6204
1.6243
1.62571
1.62576
1.62633
1.6266
1.62664
1.62341
1.61979
1.61528
1.60975
1.60314
1.59603
1.58766
1.57821
1.56845
1.55796
1.54705
1.53629
1.52459
1.51286
1.50145
1.49008
1.47796
1.46562
1.45352
1.44145
1.43031
1.41893
1.40676
1.3956
1.38887
1.37966
1.37222
1.36628
1.36514
1.36656
1.3761
1.37651
1.38456
1.3823
1.4041
1.40513
1.41303
1.41927
1.42638
1.43757
1.44763
1.45962
1.47349
1.48771
1.5004
1.515
1.53192
1.55196
1.57529
1.60316
1.63649
1.67507
1.72027
1.76996
1.82545
1.88526
1.94822
2.01301
2.07686
2.1401
2.20146
2.24958
2.27196
2.2679
2.25294
2.22224
2.17074
2.10517
2.01653
1.93074
1.8014
0.000124675
0.00276504
0.0165707
0.0479195
0.0812875
0.110696
0.135497
0.156173
0.173468
0.188028
0.200347
0.210801
0.219683
0.227221
0.2336
0.238973
0.243467
0.247195
0.250255
0.252724
0.254668
0.256143
0.257198
0.257832
0.258079
0.257934
0.257163
0.255765
0.254059
0.25199
0.249629
0.247067
0.244406
0.24175
0.239199
0.236828
0.234679
0.232732
0.230931
0.229156
0.227254
0.225037
0.222331
0.218981
0.214872
0.209936
0.204157
0.197567
0.190255
0.18236
0.174072
0.165625
0.157324
0.149548
0.142789
0.137644
0.134803
0.135049
0.139126
0.147467
0.159744
0.175309
0.193525
0.213686
0.235658
0.259916
0.287304
0.316434
0.345306
0.371552
0.400723
0.443982
0.508244
0.594512
0.698206
0.813993
0.929812
1.04622
1.15876
1.26426
1.36241
1.45223
1.53345
1.60641
1.67129
1.72876
1.77941
1.82391
1.86301
1.89717
1.92719
1.95346
1.97638
1.99658
2.01451
2.03008
2.04348
2.05526
2.06539
2.07401
2.08223
2.08899
2.09417
2.09902
2.10119
2.10333
2.10431
2.10378
2.10243
2.09981
2.09612
2.09164
2.08586
2.07895
2.07094
2.06193
2.05163
2.04061
2.02871
2.01622
2.00332
1.98978
1.9761
1.96188
1.94654
1.93088
1.91465
1.89811
1.88219
1.86587
1.85011
1.8342
1.8188
1.80557
1.79214
1.77995
1.76806
1.75708
1.74751
1.74593
1.73657
1.7346
1.73465
1.73075
1.7286
1.72926
1.7341
1.72789
1.73168
1.73479
1.73836
1.74524
1.75984
1.76198
1.76644
1.77162
1.77839
1.7877
1.80072
1.81752
1.83918
1.86778
1.90296
1.94502
1.99289
2.04492
2.10132
2.16014
2.22115
2.27368
2.30748
2.32551
2.33062
2.32741
2.31198
2.28082
2.23728
2.17291
2.10417
1.99891
0.000627457
0.0090318
0.0431012
0.0905039
0.128935
0.159098
0.183161
0.202775
0.219056
0.232735
0.24432
0.254181
0.262601
0.269803
0.275971
0.281257
0.285792
0.289687
0.293037
0.295916
0.298381
0.300475
0.302226
0.303646
0.304739
0.305468
0.30582
0.305819
0.305491
0.304696
0.303645
0.302417
0.301058
0.299616
0.298127
0.296593
0.29498
0.293214
0.291182
0.288729
0.285695
0.281925
0.277294
0.271709
0.26514
0.257606
0.249191
0.240033
0.230328
0.220321
0.210309
0.20065
0.1918
0.184323
0.178922
0.17649
0.177628
0.183633
0.194856
0.211199
0.232219
0.257062
0.284447
0.313387
0.343628
0.373785
0.401268
0.424301
0.447033
0.479579
0.534327
0.615884
0.720801
0.842386
0.968544
1.09525
1.21767
1.33637
1.44957
1.55669
1.65759
1.7519
1.83945
1.91999
1.99338
2.05969
2.11932
2.17258
2.22001
2.26199
2.29916
2.33214
2.3614
2.38736
2.41039
2.43057
2.4484
2.46423
2.47802
2.49029
2.50132
2.51066
2.51869
2.52578
2.53102
2.53534
2.53705
2.53636
2.53556
2.53402
2.53114
2.52718
2.52184
2.5153
2.50725
2.498
2.48748
2.47599
2.46343
2.44993
2.43545
2.42001
2.40366
2.38625
2.36809
2.34951
2.32982
2.30992
2.28926
2.2683
2.24739
2.22643
2.20602
2.18623
2.16674
2.14809
2.13014
2.11351
2.09795
2.08479
2.07054
2.05902
2.04953
2.03959
2.03125
2.02385
2.0172
2.00816
2.00787
2.00305
1.9986
1.99529
1.99147
1.98344
1.97462
1.96375
1.9511
1.93691
1.92226
1.91217
1.90756
1.90829
1.91857
1.93376
1.95862
1.991
2.03075
2.07748
2.12191
2.15771
2.18789
2.21761
2.24367
2.26365
2.27509
2.27396
2.25462
2.2154
2.16626
2.09424
0.00305091
0.0248312
0.085414
0.137494
0.175118
0.203756
0.226461
0.244984
0.260369
0.27329
0.284222
0.293519
0.30146
0.308274
0.314154
0.319266
0.32375
0.327727
0.331294
0.334522
0.33747
0.340174
0.342655
0.344918
0.346959
0.348762
0.350312
0.351603
0.35262
0.353375
0.353899
0.354217
0.354339
0.354244
0.353891
0.353174
0.351968
0.350168
0.34762
0.344163
0.339658
0.333999
0.327131
0.319051
0.309829
0.299598
0.288563
0.276988
0.265201
0.25358
0.242571
0.232708
0.224644
0.219162
0.217313
0.219103
0.226809
0.240402
0.259628
0.283467
0.310688
0.340009
0.370452
0.401021
0.429531
0.454087
0.476186
0.50273
0.545089
0.613172
0.709257
0.8274
0.956223
1.08725
1.21522
1.33962
1.45969
1.57639
1.68975
1.7994
1.90483
2.00529
2.10024
2.18902
2.27126
2.34676
2.41564
2.47809
2.53436
2.58489
2.63006
2.67046
2.70654
2.73874
2.76744
2.79293
2.81563
2.83587
2.8538
2.86979
2.88401
2.89639
2.90719
2.91651
2.92417
2.93049
2.93457
2.93643
2.93626
2.93558
2.93369
2.93054
2.92592
2.9198
2.91206
2.90286
2.89221
2.88024
2.86697
2.85245
2.83663
2.81956
2.80119
2.78159
2.76104
2.73963
2.71714
2.69381
2.66948
2.6442
2.61836
2.5922
2.56605
2.53997
2.51411
2.48877
2.46408
2.44035
2.41749
2.39563
2.37411
2.35412
2.33534
2.31712
2.29994
2.28416
2.26909
2.25486
2.24341
2.23064
2.21677
2.20317
2.18657
2.16554
2.14069
2.10979
2.07236
2.02919
1.98395
1.93775
1.89136
1.84962
1.82725
1.80881
1.80822
1.82271
1.84941
1.87985
1.90865
1.93847
1.97271
2.01097
2.05244
2.09393
2.13157
2.1597
2.17449
2.17136
2.15222
2.11175
0.00837898
0.0533008
0.129291
0.180018
0.216025
0.243418
0.265202
0.282977
0.297703
0.310015
0.320372
0.32913
0.336582
0.342979
0.348535
0.353438
0.357843
0.361878
0.365647
0.369228
0.372677
0.376029
0.379301
0.382494
0.3856
0.388601
0.391481
0.39422
0.396802
0.399211
0.401432
0.403431
0.405153
0.406509
0.407344
0.407379
0.406269
0.404105
0.400635
0.395716
0.389281
0.381301
0.371815
0.360942
0.348884
0.335921
0.322411
0.308777
0.2955
0.283095
0.272168
0.263497
0.257968
0.256611
0.258566
0.266958
0.28121
0.300527
0.32385
0.350054
0.378235
0.407244
0.435857
0.46241
0.486937
0.513008
0.547924
0.602328
0.683026
0.788898
0.912281
1.04278
1.17273
1.29889
1.42138
1.54194
1.66077
1.7781
1.89374
2.00722
2.11772
2.22437
2.32634
2.42285
2.51338
2.59761
2.67536
2.74664
2.81158
2.87044
2.92357
2.97142
3.01444
3.05307
3.08769
3.11869
3.14645
3.17132
3.19354
3.21341
3.23109
3.24668
3.26034
3.27216
3.28215
3.29043
3.29685
3.30119
3.3033
3.30322
3.30221
3.29986
3.29594
3.29033
3.28296
3.27389
3.26311
3.25074
3.23683
3.22141
3.20444
3.18593
3.16567
3.14391
3.12095
3.09681
3.07143
3.04491
3.01728
2.9885
2.95881
2.92836
2.89735
2.86586
2.83411
2.80228
2.77057
2.73923
2.70834
2.67835
2.6487
2.61978
2.59146
2.56362
2.53636
2.50973
2.48364
2.4579
2.43259
2.40621
2.37833
2.34935
2.31683
2.27887
2.23474
2.18333
2.12303
2.05428
1.97592
1.89166
1.80595
1.72583
1.66562
1.62718
1.61228
1.62084
1.64014
1.66249
1.6872
1.7144
1.74649
1.78551
1.83228
1.8846
1.9392
1.98972
2.03111
2.06062
2.07013
2.06519
0.0154995
0.0883066
0.166883
0.216796
0.252133
0.279021
0.300344
0.317639
0.33184
0.343583
0.353346
0.361516
0.368423
0.374344
0.379526
0.384172
0.388455
0.392515
0.396465
0.400384
0.404333
0.408342
0.412427
0.416586
0.420809
0.425074
0.429357
0.433627
0.437848
0.441971
0.445928
0.449623
0.452927
0.455664
0.45761
0.458243
0.45705
0.45418
0.449454
0.442751
0.434045
0.423394
0.410965
0.397034
0.382001
0.366365
0.350716
0.335692
0.321932
0.310029
0.300677
0.294833
0.293232
0.294389
0.301241
0.31394
0.331142
0.351997
0.375706
0.401234
0.42769
0.454572
0.481494
0.509849
0.543512
0.589659
0.655989
0.745782
0.855533
0.978031
1.1054
1.23088
1.35375
1.47468
1.59444
1.71378
1.83295
1.95194
2.07036
2.18751
2.30246
2.4144
2.52244
2.62577
2.72371
2.81576
2.90157
2.98099
3.05403
3.12081
3.18158
3.2367
3.28658
3.33164
3.37227
3.40886
3.44181
3.47146
3.49811
3.52201
3.54337
3.56231
3.579
3.59353
3.60598
3.61642
3.62491
3.63149
3.63565
3.63744
3.63699
3.63535
3.63208
3.62699
3.61997
3.61104
3.60002
3.58713
3.57246
3.55605
3.5379
3.51803
3.4963
3.47286
3.44786
3.42132
3.39324
3.36368
3.33273
3.30061
3.26729
3.23271
3.19696
3.16014
3.12237
3.08384
3.04466
3.00502
2.96502
2.92478
2.88421
2.84345
2.80249
2.76132
2.71998
2.67844
2.63666
2.59442
2.55145
2.50685
2.46006
2.41102
2.35817
2.30005
2.23513
2.1625
2.08059
1.98871
1.88716
1.77904
1.67046
1.57134
1.49513
1.4465
1.43468
1.44407
1.46291
1.484
1.50543
1.52862
1.55556
1.58952
1.63332
1.68669
1.7471
1.80902
1.8668
1.91664
1.94948
1.97413
0.021989
0.119006
0.199241
0.249546
0.284951
0.31174
0.332813
0.349713
0.363397
0.374539
0.383658
0.391181
0.397473
0.402848
0.407579
0.411893
0.415981
0.419996
0.424059
0.428256
0.432646
0.437259
0.44211
0.447192
0.452491
0.457979
0.463621
0.469365
0.475149
0.48088
0.486441
0.491671
0.496368
0.500289
0.50315
0.504261
0.503118
0.498992
0.492988
0.484626
0.473862
0.460826
0.445817
0.429294
0.411869
0.394264
0.377274
0.361705
0.348238
0.337473
0.330248
0.327348
0.326868
0.329912
0.339634
0.353932
0.37173
0.39229
0.415129
0.439962
0.46708
0.49757
0.533006
0.576986
0.634533
0.710067
0.803422
0.911507
1.02855
1.14911
1.27006
1.38945
1.50769
1.62563
1.74388
1.86285
1.98266
2.1031
2.22356
2.34335
2.46171
2.57781
2.69076
2.79968
2.9038
3.00249
3.09531
3.18196
3.26233
3.33642
3.40436
3.46643
3.52297
3.57436
3.62098
3.66322
3.70147
3.73605
3.76729
3.79544
3.8207
3.84323
3.86317
3.88063
3.89572
3.90855
3.91917
3.92771
3.93399
3.9375
3.93853
3.93742
3.9348
3.93022
3.92358
3.91488
3.90398
3.89099
3.87594
3.85887
3.83979
3.81873
3.79581
3.77097
3.74415
3.71537
3.68461
3.65188
3.61721
3.5807
3.54234
3.50215
3.46014
3.41641
3.37101
3.32408
3.27569
3.226
3.17509
3.12308
3.06998
3.01585
2.96075
2.90471
2.84778
2.78997
2.73125
2.67143
2.61031
2.54739
2.48253
2.41478
2.34352
2.26767
2.18616
2.09794
2.00173
1.89656
1.78257
1.66272
1.54313
1.43499
1.35322
1.30522
1.29644
1.30619
1.32149
1.33855
1.35736
1.37852
1.40309
1.43247
1.47
1.51951
1.57932
1.6449
1.71044
1.77235
1.82042
1.86406
0.0273824
0.142435
0.226541
0.278515
0.314739
0.341844
0.362868
0.379463
0.392666
0.403207
0.411656
0.418486
0.424107
0.42887
0.433077
0.436978
0.440782
0.444659
0.448737
0.453107
0.457827
0.462928
0.46842
0.474292
0.480521
0.487068
0.493881
0.500886
0.507984
0.515043
0.521892
0.528318
0.534064
0.53884
0.542332
0.543777
0.542585
0.537752
0.531121
0.521984
0.510354
0.496426
0.480572
0.463329
0.445376
0.427484
0.410469
0.395134
0.382293
0.372695
0.367076
0.365019
0.364847
0.368868
0.379787
0.394516
0.412725
0.434531
0.46025
0.490552
0.526602
0.570134
0.623276
0.688609
0.767491
0.85924
0.960962
1.07031
1.18387
1.29884
1.41379
1.52838
1.64316
1.75872
1.87551
1.9938
2.11353
2.23433
2.35565
2.47692
2.59742
2.71633
2.83278
2.94587
3.0548
3.15886
3.25749
3.35033
3.43713
3.51779
3.59234
3.66094
3.72386
3.78142
3.83396
3.88187
3.92548
3.96515
4.00117
4.03379
4.06321
4.08958
4.11305
4.13368
4.15164
4.16704
4.17996
4.19048
4.1986
4.20406
4.20674
4.20708
4.20549
4.20174
4.19576
4.18752
4.1771
4.16438
4.14927
4.13176
4.11185
4.08953
4.0648
4.03764
4.00805
3.97603
3.94156
3.90463
3.86526
3.8235
3.77938
3.73289
3.68404
3.63286
3.57942
3.52378
3.46601
3.40621
3.34447
3.28088
3.2155
3.14838
3.0796
3.00926
2.93745
2.86423
2.78964
2.71365
2.63612
2.55753
2.4767
2.39368
2.30813
2.21942
2.12666
2.02866
1.92399
1.8111
1.68893
1.56098
1.43409
1.31909
1.23502
1.18882
1.18037
1.18644
1.19814
1.21297
1.23055
1.25099
1.27475
1.30275
1.33705
1.38189
1.4393
1.50514
1.57374
1.64204
1.69925
1.75726
0.0313855
0.161823
0.250869
0.304772
0.341923
0.369413
0.390472
0.406842
0.419624
0.429607
0.437415
0.443571
0.448527
0.45267
0.456328
0.459774
0.463239
0.466905
0.470908
0.475344
0.480273
0.485727
0.491711
0.498205
0.505176
0.512571
0.520319
0.528324
0.536457
0.544552
0.552407
0.559774
0.566373
0.571898
0.576034
0.578276
0.578003
0.573972
0.568172
0.559979
0.549762
0.53775
0.524274
0.509801
0.494936
0.480365
0.466771
0.454598
0.444461
0.436919
0.432385
0.430925
0.431075
0.435752
0.447632
0.46396
0.485129
0.511897
0.545057
0.585338
0.633645
0.690947
0.757647
0.834279
0.920284
1.01436
1.11472
1.21961
1.32716
1.43598
1.54544
1.65558
1.7668
1.87952
1.99406
2.11059
2.22894
2.34874
2.46958
2.59091
2.71205
2.83224
2.95064
3.06639
3.17867
3.28672
3.38992
3.4878
3.58003
3.66643
3.74692
3.82158
3.89056
3.95405
4.01241
4.06597
4.11505
4.15993
4.2009
4.23818
4.27198
4.30245
4.32973
4.3539
4.37511
4.39346
4.40904
4.4219
4.4321
4.43962
4.44435
4.44657
4.44634
4.44372
4.43858
4.43085
4.4205
4.40745
4.39165
4.37307
4.35169
4.3275
4.30051
4.2707
4.23806
4.20258
4.16427
4.12309
4.07907
4.03221
3.98255
3.93006
3.87475
3.8166
3.75567
3.69197
3.62556
3.55649
3.48483
3.41066
3.33403
3.25502
3.17375
3.09036
3.00502
2.91786
2.82901
2.73852
2.64729
2.55446
2.4601
2.36437
2.26713
2.16788
2.06564
1.95866
1.84496
1.72221
1.58672
1.44534
1.31147
1.20018
1.1245
1.08366
1.07578
1.0796
1.08955
1.10343
1.12059
1.14098
1.16463
1.19229
1.22543
1.26732
1.32286
1.38826
1.45803
1.5298
1.59261
1.65873
0.0342983
0.178642
0.271908
0.327744
0.365928
0.393931
0.415148
0.431416
0.443903
0.453458
0.460756
0.466365
0.470773
0.474397
0.477584
0.480634
0.483793
0.487256
0.491168
0.495634
0.500722
0.506466
0.51287
0.519912
0.527541
0.535689
0.544277
0.5532
0.562323
0.571476
0.580459
0.589037
0.596955
0.603943
0.609729
0.614034
0.616596
0.617551
0.61664
0.612077
0.607407
0.602051
0.596028
0.589496
0.582836
0.576502
0.570936
0.566372
0.563191
0.561807
0.56163
0.56251
0.565463
0.572839
0.586421
0.605068
0.629381
0.659927
0.697405
0.742866
0.796427
0.857968
0.927245
1.00389
1.08728
1.17663
1.27086
1.3688
1.46926
1.57141
1.67488
1.77975
1.8863
1.99486
2.10568
2.21883
2.33412
2.45129
2.56995
2.68963
2.80969
2.92944
3.0481
3.16485
3.2789
3.38948
3.49592
3.59763
3.69419
3.78541
3.87112
3.95127
4.02589
4.09511
4.15922
4.21846
4.27308
4.32331
4.36939
4.41153
4.44992
4.48472
4.51608
4.54414
4.56897
4.59063
4.6092
4.62473
4.63727
4.64684
4.65341
4.65701
4.65786
4.65597
4.65125
4.64364
4.63309
4.61953
4.60291
4.5832
4.56039
4.53445
4.50538
4.47316
4.43778
4.39922
4.35748
4.31253
4.26437
4.213
4.15841
4.10059
4.03953
3.9752
3.9076
3.83673
3.76261
3.68526
3.60471
3.52103
3.43427
3.34452
3.25194
3.15673
3.05914
2.95939
2.85774
2.75414
2.65036
2.54467
2.43783
2.33001
2.22109
2.11024
1.99617
1.87563
1.74604
1.60761
1.46234
1.3165
1.18775
1.08648
1.02307
0.987958
0.979968
0.983494
0.992928
1.00659
1.02388
1.04459
1.06854
1.09635
1.12928
1.17028
1.22468
1.28983
1.36032
1.43429
1.5009
1.57215
0.0360029
0.192436
0.289296
0.346894
0.386093
0.414668
0.43616
0.452488
0.464885
0.474247
0.481292
0.48662
0.490743
0.494094
0.497041
0.499902
0.502938
0.506355
0.510315
0.514933
0.520295
0.526449
0.533412
0.541159
0.549629
0.558751
0.568447
0.57863
0.5892
0.600032
0.610979
0.621877
0.632557
0.642852
0.652608
0.661711
0.670115
0.677844
0.684727
0.691076
0.697273
0.703521
0.709819
0.716165
0.722653
0.729352
0.736307
0.743733
0.751672
0.760104
0.768982
0.778967
0.790219
0.804204
0.821439
0.842442
0.867884
0.898455
0.934892
0.977814
1.02714
1.08265
1.14407
1.21099
1.28406
1.36302
1.44718
1.53579
1.62733
1.72098
1.81638
1.91371
2.01328
2.11538
2.22017
2.32763
2.43762
2.54991
2.66421
2.78008
2.897
3.01431
3.13127
3.24711
3.36116
3.47263
3.5808
3.68497
3.78469
3.87979
3.96993
4.05493
4.13476
4.20948
4.2792
4.34404
4.40417
4.45975
4.51099
4.55806
4.60113
4.64034
4.67581
4.70764
4.73592
4.7607
4.78204
4.8
4.81462
4.82594
4.83399
4.83881
4.84054
4.8393
4.83502
4.82763
4.81703
4.80315
4.78595
4.76539
4.74144
4.71411
4.68334
4.64913
4.61146
4.5703
4.52564
4.47746
4.42573
4.37044
4.31156
4.24908
4.18295
4.11314
4.03963
3.96239
3.8814
3.79665
3.70815
3.61593
3.52004
3.42056
3.31767
3.21165
3.10281
2.99142
2.87747
2.76294
2.64616
2.52764
2.40785
2.28661
2.16357
2.03679
1.90465
1.76748
1.62422
1.47559
1.32688
1.18523
1.06861
0.982074
0.930868
0.90059
0.892871
0.897192
0.90676
0.920668
0.938385
0.959577
0.984043
1.01229
1.0457
1.08689
1.14068
1.20593
1.27715
1.35276
1.42242
1.49711
0.0366522
0.202979
0.302591
0.361583
0.401644
0.430783
0.452653
0.469242
0.481825
0.491331
0.4985
0.503948
0.508194
0.511675
0.51478
0.517836
0.521118
0.524848
0.529206
0.534332
0.540334
0.547289
0.555236
0.564171
0.574052
0.584805
0.596373
0.60873
0.621825
0.635624
0.650083
0.665158
0.680818
0.697008
0.71367
0.730816
0.748519
0.766832
0.785731
0.805306
0.825678
0.846821
0.86879
0.891596
0.915091
0.939047
0.963207
0.987321
1.01113
1.0344
1.05702
1.07914
1.101
1.12316
1.14616
1.17066
1.19732
1.22674
1.25945
1.29556
1.33547
1.37963
1.42814
1.48125
1.53991
1.60464
1.67498
1.7498
1.82774
1.90816
1.99094
2.07637
2.16477
2.25664
2.35206
2.45058
2.55204
2.65635
2.76328
2.87252
2.98362
3.09596
3.2088
3.32145
3.43341
3.54386
3.65204
3.75729
3.85914
3.95709
4.05071
4.13972
4.22395
4.30335
4.37791
4.44765
4.51266
4.57305
4.62895
4.68051
4.72785
4.77108
4.81033
4.84567
4.87717
4.90487
4.92883
4.9491
4.96573
4.97875
4.98822
4.99418
4.99674
4.99617
4.99256
4.98561
4.97519
4.96123
4.94368
4.92252
4.89773
4.86927
4.83712
4.80125
4.76164
4.71826
4.67108
4.62008
4.56522
4.50649
4.44383
4.37721
4.30659
4.2319
4.15311
4.07015
3.98299
3.89156
3.79586
3.69592
3.5917
3.48325
3.37078
3.25458
3.13455
3.01213
2.88814
2.76055
2.63045
2.49763
2.3625
2.22372
2.08067
1.93504
1.78629
1.6354
1.48232
1.33016
1.18573
1.05668
0.956478
0.88443
0.844023
0.819193
0.815452
0.819803
0.829551
0.843883
0.862091
0.883809
0.908854
0.937704
0.97163
1.01324
1.06727
1.13304
1.20509
1.28214
1.35442
1.43179
0.0364332
0.209843
0.311161
0.371058
0.411768
0.44144
0.463802
0.480881
0.493974
0.504026
0.51178
0.517843
0.522726
0.526871
0.530671
0.534461
0.538534
0.543132
0.548463
0.554703
0.561997
0.570459
0.58016
0.59112
0.603328
0.616771
0.631454
0.64738
0.664608
0.683155
0.703069
0.724447
0.747343
0.771751
0.7977
0.82529
0.854598
0.885645
0.918515
0.953326
0.990093
1.02873
1.06907
1.11089
1.15384
1.19751
1.24141
1.28506
1.32793
1.36955
1.40951
1.44756
1.48356
1.51753
1.54965
1.58021
1.60965
1.63842
1.66702
1.69607
1.72638
1.7588
1.7942
1.83349
1.87653
1.92395
1.97552
2.03058
2.0893
2.15166
2.2179
2.28802
2.36219
2.44052
2.52244
2.60747
2.69563
2.78762
2.88313
2.9819
3.08361
3.18771
3.2936
3.40067
3.50818
3.6153
3.72126
3.8254
3.92709
4.02578
4.12094
4.21216
4.29916
4.38176
4.45985
4.53335
4.60223
4.66653
4.72632
4.78168
4.83271
4.87949
4.9221
4.96061
4.99505
5.02547
5.0519
5.07436
5.0929
5.10755
5.11833
5.12531
5.12857
5.12852
5.12572
5.11934
5.10921
5.09527
5.07749
5.05584
5.03032
5.00087
4.96748
4.93011
4.88875
4.84335
4.7939
4.74035
4.68266
4.62079
4.55471
4.48434
4.40963
4.33049
4.24688
4.15868
4.06583
3.96823
3.86587
3.75872
3.64657
3.52914
3.40689
3.2811
3.15135
3.01859
2.88133
2.73916
2.59333
2.44185
2.28546
2.12599
1.96416
1.80172
1.63906
1.47944
1.32304
1.17615
1.04412
0.935049
0.853362
0.795173
0.765066
0.745585
0.74495
0.750023
0.760357
0.77521
0.793854
0.815997
0.841521
0.870921
0.905348
0.947491
1.00224
1.06871
1.1416
1.21995
1.29443
1.37416
0.0375939
0.213257
0.315003
0.375135
0.416155
0.446263
0.469206
0.487014
0.500971
0.512018
0.520872
0.528103
0.534204
0.539618
0.54474
0.549919
0.555468
0.561665
0.568763
0.576987
0.586538
0.597571
0.610185
0.624427
0.640338
0.657989
0.677389
0.698652
0.721825
0.746936
0.774217
0.803823
0.835833
0.87035
0.907527
0.947485
0.990314
1.03607
1.08478
1.13643
1.19095
1.24818
1.30784
1.3696
1.43302
1.49757
1.56264
1.62758
1.69169
1.75424
1.81457
1.87202
1.92605
1.97622
2.02223
2.0639
2.10129
2.1346
2.16421
2.19071
2.21497
2.238
2.26092
2.28473
2.31023
2.33752
2.36731
2.40025
2.43709
2.47854
2.52489
2.5762
2.63233
2.69268
2.75673
2.82441
2.89572
2.97126
3.05063
3.13408
3.2218
3.31322
3.40773
3.50469
3.60338
3.703
3.80281
3.9021
4.00021
4.09648
4.19029
4.28111
4.36854
4.45227
4.53203
4.60764
4.67895
4.74591
4.8085
4.86672
4.92061
4.97021
5.01555
5.05669
5.09361
5.12635
5.15488
5.17923
5.1994
5.21539
5.2272
5.23486
5.23843
5.23858
5.23644
5.23061
5.22066
5.20661
5.18848
5.16623
5.13985
5.10932
5.07462
5.03571
4.99257
4.94517
4.89345
4.83738
4.77691
4.71198
4.64255
4.56855
4.48987
4.40641
4.31793
4.22439
4.12569
4.02162
3.91224
3.7979
3.67832
3.55273
3.42171
3.28636
3.14416
2.99654
2.84349
2.68136
2.51344
2.3405
2.16388
1.9854
1.80709
1.63197
1.46191
1.30225
1.15283
1.02185
0.910058
0.823596
0.759726
0.716055
0.694133
0.679422
0.681024
0.686991
0.697965
0.713222
0.732154
0.754502
0.78031
0.810129
0.845064
0.887729
0.943427
1.01056
1.08412
1.16355
1.2398
1.32168
0.0398066
0.21239
0.313366
0.373075
0.414048
0.444458
0.468024
0.486754
0.50191
0.514405
0.524841
0.53372
0.541547
0.548766