/*--------------------------------*- C++ -*----------------------------------*\
| =========                 |                                                 |
| \\      /  F ield         | OpenFOAM: The Open Source CFD Toolbox           |
|  \\    /   O peration     | Version:  2406                                  |
|   \\  /    A nd           | Website:  www.openfoam.com                      |
|    \\/     M anipulation  |                                                 |
\*---------------------------------------------------------------------------*/
FoamFile
{
    version     2.0;
    format      ascii;
    arch        "LSB;label=32;scalar=64";
    class       volScalarField;
    location    "200";
    object      nut;
}
// * * * * * * * * * * * * * * * * * * * * * * * * * * * * * * * * * * * * * //

dimensions      [0 2 -1 0 0 0 0];

internalField   nonuniform List<scalar> 
12225
(
5.35775e-06
8.11147e-06
1.00034e-05
1.11302e-05
1.17023e-05
1.188e-05
1.19503e-05
1.18528e-05
1.16994e-05
1.15327e-05
1.13688e-05
1.12088e-05
1.10725e-05
1.09314e-05
1.08373e-05
1.07068e-05
1.06659e-05
1.0546e-05
0.000178978
6.08174e-05
4.36183e-05
3.72987e-05
3.4321e-05
3.3142e-05
3.27367e-05
3.31049e-05
3.37483e-05
3.37455e-05
3.33145e-05
3.34681e-05
3.33245e-05
3.37091e-05
3.37278e-05
3.42865e-05
3.44686e-05
3.5293e-05
0.000867001
0.000318528
0.000210835
0.000159614
0.000132583
0.000113163
0.000101865
9.20618e-05
8.60952e-05
7.90797e-05
7.46819e-05
6.95698e-05
6.65775e-05
6.29188e-05
6.0985e-05
5.83385e-05
5.71462e-05
5.52856e-05
0.000942121
0.000653835
0.000531527
0.000426444
0.000366429
0.000314764
0.000284341
0.000254029
0.000236224
0.000215067
0.000202493
0.000186975
0.00017813
0.000166533
0.000160322
0.000151543
0.000147208
0.000139927
0.000888996
0.000803244
0.000752275
0.000672888
0.000617187
0.000557175
0.000518236
0.000475503
0.00044877
0.000417454
0.000397955
0.000373791
0.00035931
0.000340291
0.000329653
0.000314469
0.000306835
0.000293516
0.000863284
0.000842828
0.000828921
0.00079722
0.000768859
0.000729276
0.000700276
0.000664444
0.000639456
0.000609254
0.000588717
0.000563415
0.000546946
0.000525764
0.000513021
0.000495193
0.000485751
0.000469532
0.000854027
0.000851208
0.000846231
0.000838037
0.000827588
0.00081133
0.000796874
0.000776443
0.000760723
0.000740192
0.000724911
0.000705571
0.0006919
0.000674383
0.000663006
0.000647379
0.000638521
0.000623714
0.000851937
0.000851006
0.000849707
0.000847481
0.000844138
0.0008392
0.000833166
0.00082553
0.000818178
0.00080783
0.000799346
0.000788098
0.000779473
0.000768283
0.000760377
0.000749755
0.000743105
0.000732552
0.000851623
0.000850712
0.000850025
0.000848968
0.000847986
0.000846188
0.000844369
0.000841551
0.000838616
0.00083477
0.000830782
0.000825951
0.000821499
0.000815866
0.00081136
0.000805647
0.000801431
0.000795481
0.000851584
0.000850651
0.000849967
0.000849094
0.000848461
0.000847519
0.000846742
0.000845575
0.000844478
0.000842904
0.000841408
0.000839336
0.000837464
0.000835015
0.000832893
0.000830315
0.000828144
0.000825278
0.000851568
0.000850659
0.000849918
0.000849096
0.000848437
0.000847676
0.000847059
0.000846306
0.000845674
0.000844846
0.000844127
0.00084316
0.000842321
0.000841208
0.000840294
0.000839062
0.000838164
0.000836825
0.000851556
0.000850669
0.000849893
0.000849093
0.000848398
0.000847673
0.000847049
0.000846379
0.000845806
0.000845162
0.000844606
0.000843956
0.000843395
0.000842721
0.000842158
0.000841462
0.00084091
0.000840203
0.000851547
0.000850674
0.000849877
0.00084909
0.000848373
0.00084766
0.000847015
0.000846368
0.000845784
0.000845191
0.000844654
0.0008441
0.000843599
0.000843075
0.000842602
0.000842103
0.000841655
0.00084118
0.000851542
0.000850676
0.000849865
0.000849084
0.000848353
0.000847647
0.000846986
0.000846346
0.000845747
0.000845166
0.00084462
0.00084409
0.00084359
0.000843104
0.000842645
0.000842197
0.000841773
0.00084136
0.000851539
0.000850675
0.000849858
0.000849078
0.000848339
0.000847634
0.000846965
0.000846325
0.000845718
0.000845136
0.000844583
0.000844053
0.000843549
0.000843065
0.000842604
0.000842161
0.000841738
0.000841332
0.000851538
0.000850674
0.000849853
0.000849072
0.00084833
0.000847622
0.000846949
0.000846307
0.000845695
0.000845111
0.000844554
0.000844021
0.000843512
0.000843025
0.00084256
0.000842115
0.000841688
0.000841281
0.000851537
0.000850673
0.000849851
0.000849068
0.000848324
0.000847614
0.000846939
0.000846294
0.00084568
0.000845093
0.000844533
0.000843998
0.000843486
0.000842996
0.000842529
0.00084208
0.000841652
0.000841241
0.000851539
0.000850677
0.000849857
0.000849076
0.000848331
0.000847623
0.000846947
0.000846302
0.000845686
0.000845099
0.000844537
0.000844
0.000843487
0.000842996
0.000842526
0.000842077
0.000841646
0.000841235
0.000851537
0.000850673
0.00084985
0.000849067
0.000848321
0.00084761
0.000846931
0.000846284
0.000845667
0.000845077
0.000844514
0.000843975
0.00084346
0.000842967
0.000842496
0.000842045
0.000841613
0.0008412
0.000851537
0.000850673
0.00084985
0.000849066
0.00084832
0.000847609
0.00084693
0.000846283
0.000845665
0.000845075
0.000844511
0.000843972
0.000843457
0.000842964
0.000842492
0.000842041
0.000841608
0.000841195
0.000851537
0.000850675
0.000849852
0.000849071
0.000848324
0.000847615
0.000846937
0.000846291
0.000845673
0.000845084
0.000844519
0.000843981
0.000843463
0.00084297
0.000842494
0.000842042
0.000841604
0.000841188
0.000851534
0.00085068
0.000849854
0.00084908
0.00084833
0.000847627
0.000846942
0.000846299
0.000845668
0.000845075
0.000844489
0.000843937
0.000843384
0.000842865
0.00084234
0.00084185
0.000841346
0.000840882
0.000851519
0.000850698
0.000849854
0.000849097
0.000848323
0.000847608
0.000846844
0.000846126
0.000845355
0.000844622
0.00084382
0.000843046
0.000842188
0.000841372
0.000840454
0.000839612
0.000838628
0.000837778
0.000851438
0.000850804
0.000849773
0.000849018
0.000847953
0.000846815
0.000845254
0.000843655
0.000841701
0.000839776
0.000837501
0.000835195
0.000832613
0.000829996
0.000827241
0.000824394
0.00082146
0.000818832
0.000851207
0.000851114
0.000847953
0.00084658
0.000842249
0.000837551
0.000831309
0.000824492
0.000816584
0.000809388
0.000800984
0.000793355
0.000784647
0.00077703
0.000768412
0.000761191
0.000752852
0.00074624
0.000850845
0.000846633
0.000827996
0.000818941
0.000799966
0.000779501
0.000755958
0.00073518
0.000712927
0.000694012
0.000673936
0.000657259
0.000639518
0.000625196
0.000609704
0.000597615
0.000584061
0.000573941
0.00083556
0.000788773
0.000741188
0.000686904
0.000627349
0.000579539
0.000535502
0.000501513
0.000469579
0.00044526
0.000421546
0.000403728
0.000385597
0.00037226
0.000358013
0.000347812
0.000336198
0.000328023
0.000770179
0.000550371
0.000435725
0.000339809
0.000284844
0.000249304
0.000221912
0.000202691
0.000186404
0.000174925
0.000164433
0.000157127
0.000149933
0.000145058
0.000139847
0.000136432
0.000132299
0.000129426
0.000572815
0.000131503
9.36179e-05
7.45161e-05
6.49596e-05
5.94361e-05
5.5781e-05
5.35815e-05
5.20729e-05
5.14072e-05
5.09868e-05
5.11148e-05
5.12851e-05
5.16988e-05
5.10487e-05
5.04688e-05
5.00858e-05
4.96953e-05
6.04855e-06
8.05951e-06
9.69155e-06
1.09535e-05
1.18591e-05
1.25093e-05
1.29231e-05
1.32171e-05
1.33519e-05
1.34415e-05
1.3484e-05
1.34743e-05
1.34424e-05
1.33943e-05
1.334e-05
1.32824e-05
1.32232e-05
1.31639e-05
2.37821e-09
9.77667e-08
2.83281e-07
7.10709e-07
1.6911e-06
3.12413e-06
4.73528e-06
6.34114e-06
7.84608e-06
9.22608e-06
1.04669e-05
1.15441e-05
1.24669e-05
1.32482e-05
1.3886e-05
1.44235e-05
1.47921e-05
1.51877e-05
1.52098e-05
1.51435e-05
1.50793e-05
1.49753e-05
1.51171e-05
1.45965e-05
1.43557e-05
1.44563e-05
1.37547e-05
1.37733e-05
1.29548e-05
1.28237e-05
1.20185e-05
1.17104e-05
1.1213e-05
1.07187e-05
1.02255e-05
9.74041e-06
9.27823e-06
8.86513e-06
8.49564e-06
8.18898e-06
7.93692e-06
7.79418e-06
7.64704e-06
7.56273e-06
7.56105e-06
7.47614e-06
7.4393e-06
7.37077e-06
7.26104e-06
7.13995e-06
6.87298e-06
6.52132e-06
6.10026e-06
5.61967e-06
5.1048e-06
4.57692e-06
4.06987e-06
3.59714e-06
3.21749e-06
2.93196e-06
2.76667e-06
2.88153e-06
2.94076e-06
3.22773e-06
3.46688e-06
3.75017e-06
3.92937e-06
3.77487e-06
3.62435e-06
3.3969e-06
3.4483e-06
3.69601e-06
4.77983e-06
1.06874e-05
2.10046e-05
3.01028e-05
3.43055e-05
3.7673e-05
4.01666e-05
4.20571e-05
4.35849e-05
4.48354e-05
4.58631e-05
4.67681e-05
4.75269e-05
4.81901e-05
4.86477e-05
4.86216e-05
4.8718e-05
4.87599e-05
4.91036e-05
4.92439e-05
4.92891e-05
4.9432e-05
4.94335e-05
4.9895e-05
4.95627e-05
4.96334e-05
4.94892e-05
4.91474e-05
4.94814e-05
4.88622e-05
4.9231e-05
4.89178e-05
4.87801e-05
4.85556e-05
4.82238e-05
4.77579e-05
4.75671e-05
4.74495e-05
4.75441e-05
4.71433e-05
4.68201e-05
4.63162e-05
4.60979e-05
4.59829e-05
4.52914e-05
4.49957e-05
4.47267e-05
4.44084e-05
4.40684e-05
4.3905e-05
4.38584e-05
4.32366e-05
4.33877e-05
4.28559e-05
4.3088e-05
4.24225e-05
4.23995e-05
4.30199e-05
4.27743e-05
4.29135e-05
4.28315e-05
4.26054e-05
4.28472e-05
4.39212e-05
4.29745e-05
4.32527e-05
4.46534e-05
4.43667e-05
4.45958e-05
4.43398e-05
4.4524e-05
4.49609e-05
4.51942e-05
4.66994e-05
4.61116e-05
4.64341e-05
4.80608e-05
4.74903e-05
4.78848e-05
4.96705e-05
4.91975e-05
5.10304e-05
5.01379e-05
5.10026e-05
5.36006e-05
5.45032e-05
5.54567e-05
5.85288e-05
5.90837e-05
6.29362e-05
6.49469e-05
7.07175e-05
7.52726e-05
8.23056e-05
8.70562e-05
8.87108e-05
8.81648e-05
8.89728e-05
8.87753e-05
8.89448e-05
8.97097e-05
8.83664e-05
8.62138e-05
8.51062e-05
8.32818e-05
8.20965e-05
7.88065e-05
7.50558e-05
5.95544e-09
1.18703e-07
1.5284e-06
8.113e-06
2.30135e-05
4.31386e-05
6.59509e-05
8.9142e-05
0.000110607
0.000129191
0.00014446
0.000156295
0.000165393
0.000171808
0.000175916
0.000178099
0.000178812
0.000178269
0.000176807
0.000174502
0.00017181
0.000168906
0.00016566
0.000161354
0.000155837
0.000149053
0.00014141
0.00013389
0.000126324
0.000119371
0.000112714
0.000106869
0.000101435
9.75265e-05
9.40529e-05
9.10075e-05
9e-05
8.85297e-05
8.83912e-05
8.92825e-05
9.10314e-05
9.35036e-05
9.61465e-05
9.86019e-05
0.000100417
0.000101113
0.000101034
9.93e-05
9.60044e-05
9.16893e-05
8.64689e-05
8.06688e-05
7.45769e-05
6.83571e-05
6.29975e-05
5.74918e-05
5.43646e-05
5.20849e-05
5.04336e-05
5.29471e-05
5.53643e-05
6.02031e-05
6.37984e-05
6.47294e-05
6.68156e-05
6.1328e-05
5.32672e-05
4.24787e-05
3.41091e-05
3.05966e-05
3.18375e-05
3.53149e-05
4.18544e-05
5.39079e-05
6.67416e-05
8.04532e-05
9.35136e-05
0.000111852
0.000133056
0.00015916
0.000185504
0.000214877
0.000242351
0.000270646
0.000295723
0.00031918
0.000339279
0.000357271
0.000372882
0.000386382
0.000397766
0.000407229
0.000415134
0.000421774
0.000429149
0.000435824
0.000441033
0.000446237
0.000450586
0.000452846
0.000454394
0.000454375
0.000457469
0.000455826
0.000457451
0.000459
0.000459981
0.000459167
0.000461267
0.000462419
0.000460579
0.000461188
0.000459678
0.000457273
0.00045365
0.000455755
0.000454035
0.000450602
0.000446848
0.000440514
0.000437881
0.000431293
0.000422694
0.00041604
0.000412218
0.000408081
0.000403627
0.000399184
0.000393133
0.000387594
0.000383581
0.000380759
0.000378954
0.000380029
0.000384221
0.000380956
0.000383
0.000382613
0.000388064
0.000382015
0.000381972
0.000386287
0.000385849
0.000385674
0.000379351
0.000384385
0.000384911
0.000385324
0.000392194
0.000396766
0.000403246
0.000409198
0.000415896
0.000422705
0.000429278
0.000436986
0.000444858
0.000452027
0.000460536
0.000470736
0.000481446
0.000494399
0.000507548
0.000523875
0.000539494
0.000555561
0.000571204
0.000586382
0.000599875
0.000617657
0.000630108
0.00064305
0.000659033
0.000669517
0.000669472
0.000657514
0.000640239
0.000611399
0.000582815
0.00053116
6.91565e-09
3.11945e-07
3.934e-06
1.74868e-05
4.6209e-05
8.37279e-05
0.000128652
0.00017623
0.000223006
0.000266468
0.000305016
0.000338003
0.000365096
0.000386328
0.000401918
0.000412442
0.000419634
0.00042314
0.000423662
0.000421751
0.000417921
0.00041251
0.000406051
0.000398692
0.000389463
0.000378194
0.000365976
0.000353073
0.000339869
0.000326869
0.000314351
0.000302762
0.000292275
0.000283529
0.000276354
0.000270736
0.000267391
0.00026483
0.000264545
0.00026562
0.000267764
0.0002704
0.000272946
0.000274734
0.000275155
0.000273761
0.00027023
0.000264358
0.000256279
0.000246168
0.000234619
0.000221805
0.000208388
0.000194958
0.00018252
0.000171272
0.000162923
0.000157226
0.000153502
0.000153084
0.000151874
0.000149956
0.000144796
0.000138295
0.00012858
0.00011534
0.00010047
8.95291e-05
8.61204e-05
8.96675e-05
9.85115e-05
0.000111953
0.000123786
0.000137544
0.000164719
0.000207551
0.000265272
0.000322441
0.000392012
0.000462677
0.000530614
0.000598638
0.00065761
0.000712862
0.000759453
0.000800724
0.000835629
0.000866035
0.000892145
0.000914711
0.000934132
0.000950556
0.000964354
0.000976553
0.000988001
0.00099802
0.0010067
0.00101498
0.00102255
0.00102772
0.00102789
0.00103361
0.00103444
0.00103535
0.00103489
0.00102944
0.00103009
0.00102925
0.00102829
0.00102503
0.0010205
0.00101678
0.00101151
0.00100499
0.000998856
0.000994765
0.000979523
0.000972818
0.000965042
0.000958998
0.000955257
0.000944179
0.00092525
0.000915602
0.000906775
0.000903754
0.000886079
0.000883129
0.000864407
0.000852927
0.000840677
0.000825042
0.000814023
0.000806842
0.000797935
0.000788277
0.000782141
0.000775907
0.000772957
0.00077338
0.000771103
0.000767202
0.000761292
0.000771221
0.000759506
0.000762901
0.000761837
0.000763856
0.000770728
0.000773807
0.000781538
0.00078967
0.000799303
0.000807337
0.000815906
0.000824366
0.000833974
0.000845101
0.000857751
0.000872324
0.000888917
0.000908215
0.000929457
0.00095354
0.000981713
0.00100001
0.00103208
0.00104542
0.00099677
0.000958206
0.000940735
0.000973773
0.00103906
0.0010884
0.00112306
0.00115172
0.00118483
0.00119616
0.00116741
0.00107062
1.08746e-08
9.07827e-07
9.43168e-06
3.90031e-05
8.57684e-05
0.000143858
0.000208208
0.000273901
0.000337235
0.000395753
0.000447874
0.000492635
0.000530126
0.000560624
0.000584549
0.000602499
0.000615057
0.00062319
0.000627851
0.000628918
0.000626974
0.0006225
0.000615948
0.000607471
0.000597308
0.000585649
0.000572237
0.000557426
0.000542263
0.00052699
0.000512064
0.000497962
0.000485082
0.000473834
0.000464409
0.000456883
0.000451322
0.000447382
0.000444847
0.0004438
0.000443492
0.000443091
0.000442002
0.000439605
0.000435365
0.000428872
0.000419861
0.000408209
0.000393983
0.00037737
0.000358949
0.000339061
0.000318162
0.000297188
0.000276997
0.000258316
0.000241948
0.000228333
0.000218201
0.000210731
0.00020392
0.000194711
0.000184139
0.000173299
0.000165182
0.000158952
0.000156049
0.000156857
0.000161931
0.000165654
0.00017164
0.000190321
0.000224329
0.000284058
0.000356097
0.000451883
0.000553354
0.000654595
0.000761705
0.000862194
0.000955725
0.00104276
0.00111877
0.00118725
0.00124629
0.00129815
0.00134307
0.00138223
0.00141658
0.00144672
0.00147389
0.00149827
0.00151547
0.00152707
0.00154379
0.00155529
0.00156081
0.00157227
0.0015788
0.00157888
0.00158581
0.00158909
0.00158484
0.0015896
0.00158812
0.00158481
0.00157669
0.00157906
0.00156871
0.00156636
0.00155063
0.00154472
0.00153621
0.00152691
0.00151148
0.00150004
0.00148518
0.00147179
0.00145767
0.00144421
0.00143233
0.0014202
0.00141246
0.00139751
0.00137321
0.00136431
0.00134595
0.00132742
0.00130708
0.00127681
0.00125758
0.00123576
0.00121465
0.00119672
0.00117984
0.0011638
0.00114887
0.00113263
0.00112088
0.0011139
0.00110748
0.00109829
0.00108953
0.0010724
0.00106775
0.00106615
0.00105615
0.00105103
0.00105022
0.00105257
0.0010509
0.00105635
0.00106656
0.00107045
0.00107621
0.00108229
0.00108974
0.0010977
0.00110701
0.00111771
0.00112986
0.00114517
0.0011637
0.00118563
0.00116966
0.00111081
0.00105813
0.00101476
0.000981697
0.00097106
0.000996066
0.00104276
0.00109406
0.00114737
0.00119932
0.00124947
0.00130127
0.00133548
0.00135808
0.00129092
5.4698e-08
2.50166e-06
2.34541e-05
7.62527e-05
0.000148665
0.000230029
0.000312155
0.000390135
0.000461642
0.000525609
0.00058147
0.000629071
0.000668908
0.000701583
0.000727706
0.000747939
0.000762872
0.000773137
0.000779779
0.00078308
0.000783033
0.000780137
0.000774689
0.000766972
0.000757297
0.000745875
0.00073299
0.000719041
0.000704439
0.000689224
0.000674225
0.000659926
0.000646673
0.000634773
0.000624399
0.000615576
0.000608204
0.00060201
0.000596739
0.000591961
0.000587084
0.000581665
0.000574948
0.000566395
0.000555582
0.000542225
0.00052618
0.000507342
0.000485817
0.00046179
0.000435713
0.000408217
0.000380337
0.000352714
0.000326417
0.000302528
0.000281211
0.000263143
0.000247169
0.000234642
0.000226301
0.000220865
0.000217019
0.000214234
0.000213213
0.000214085
0.000216072
0.000217182
0.000224233
0.000237574
0.00027159
0.000333048
0.000414041
0.000525342
0.000645288
0.000778642
0.000907349
0.00103411
0.0011576
0.00127155
0.00137621
0.00147164
0.0015569
0.00163344
0.00170099
0.00176017
0.00181305
0.00185892
0.00189937
0.00193371
0.00195926
0.001985
0.00200565
0.00202261
0.00203885
0.00205145
0.00206067
0.00206991
0.0020761
0.00207946
0.00208366
0.00208561
0.00208482
0.00208566
0.00208381
0.00208048
0.00207465
0.00206914
0.00205976
0.00205147
0.00203972
0.00202957
0.00201732
0.00200352
0.00198777
0.00197176
0.00195403
0.00193597
0.0019172
0.00189829
0.00187927
0.00185942
0.00183965
0.00181667
0.00179089
0.00176828
0.00174272
0.00171638
0.00168907
0.00165849
0.00163033
0.00160122
0.0015721
0.00154512
0.00151793
0.00149142
0.00146562
0.0014404
0.00141728
0.00139553
0.00137457
0.00135431
0.00133523
0.00131763
0.00130407
0.00129519
0.00127072
0.00126362
0.0012482
0.00123273
0.00120247
0.00117522
0.00115031
0.00112681
0.00110728
0.00109147
0.00107949
0.00107138
0.00106671
0.00106597
0.00106591
0.00106182
0.00105005
0.0010257
0.000990412
0.000950774
0.000913091
0.00088471
0.000874653
0.000890971
0.000926525
0.000973483
0.00102974
0.00109195
0.00115686
0.00122182
0.00128323
0.00133061
0.0013663
0.00134105
2.65232e-07
6.75105e-06
5.06176e-05
0.000132165
0.000229243
0.000328035
0.000421178
0.000505732
0.000580414
0.000644971
0.000699954
0.000746061
0.00078428
0.000815579
0.000840739
0.000860283
0.000874797
0.000884994
0.000891916
0.000895447
0.000895882
0.000893555
0.000888766
0.000881812
0.000872965
0.000862483
0.000850644
0.000837765
0.00082415
0.000810179
0.000796263
0.000782775
0.000770008
0.000758139
0.000747235
0.000737175
0.000727748
0.000718764
0.000709945
0.000700675
0.000690483
0.000678975
0.000665731
0.000649987
0.000631554
0.000610363
0.000586755
0.000560428
0.000531498
0.000500415
0.000467738
0.000434189
0.000400549
0.000367986
0.000338118
0.00031092
0.000289778
0.000274724
0.000265891
0.000261746
0.000259915
0.000259445
0.00026
0.000261737
0.000263898
0.000265047
0.000267875
0.000281866
0.000310163
0.000364541
0.000445093
0.000554352
0.000684178
0.000832037
0.000978244
0.00112629
0.00126709
0.00140228
0.00152999
0.00164833
0.00175697
0.00185511
0.00194545
0.00202657
0.00210147
0.00216524
0.00222263
0.00227303
0.00231734
0.0023552
0.00238731
0.00241602
0.00244034
0.00246116
0.0024793
0.00249411
0.00250616
0.00251631
0.00252381
0.00252925
0.00253341
0.00253544
0.00253587
0.00253563
0.00253369
0.00253024
0.00252466
0.00251739
0.00250736
0.00249713
0.00248523
0.00247273
0.0024586
0.00244279
0.00242534
0.00240661
0.0023864
0.0023652
0.00234306
0.00232012
0.00229621
0.00227113
0.00224467
0.00221593
0.0021859
0.00215584
0.00212429
0.00209147
0.00205715
0.0020208
0.00198423
0.001947
0.00190947
0.00187243
0.00183502
0.00179784
0.00176105
0.00172473
0.00168931
0.00165446
0.00161811
0.00156635
0.00151598
0.00146576
0.00141706
0.00136929
0.0013227
0.00127718
0.0012336
0.00119007
0.00114699
0.00110567
0.00106557
0.00102705
0.000991767
0.000960086
0.000932969
0.000911541
0.000897402
0.000889802
0.000885743
0.000881671
0.000874673
0.00085457
0.000830247
0.000801915
0.000774996
0.000761595
0.000768912
0.000792676
0.000829433
0.000878468
0.000938946
0.00100819
0.00108309
0.00116005
0.00123541
0.00129806
0.00134682
0.00135041
7.24083e-07
1.59692e-05
8.89959e-05
0.000196622
0.000311957
0.00042211
0.00052176
0.000608962
0.000683697
0.000746753
0.000799444
0.000843097
0.000878573
0.000906942
0.000929016
0.000945828
0.000958151
0.000966716
0.000972079
0.000974532
0.000974434
0.00097207
0.000967654
0.000961386
0.000953464
0.000944097
0.000933522
0.000922001
0.000909819
0.000897276
0.000884669
0.000872249
0.000860188
0.00084855
0.000837196
0.0008257
0.000813486
0.000800783
0.000787095
0.000772036
0.000755268
0.000736434
0.000715162
0.000691196
0.000664435
0.000634973
0.000603011
0.000568793
0.000532779
0.000495609
0.000458195
0.000421806
0.000388062
0.000358871
0.000333353
0.000315777
0.000304994
0.000299526
0.000297365
0.000297248
0.000298592
0.000301129
0.000304102
0.00030642
0.00030966
0.000322789
0.00034449
0.000389529
0.000461429
0.000560093
0.000685569
0.000832681
0.000990197
0.00114931
0.00130306
0.0014531
0.00159547
0.00172995
0.00185373
0.00197159
0.00207991
0.00218346
0.00227552
0.00236
0.00243564
0.00250334
0.00256421
0.00261839
0.00266644
0.00270854
0.00274524
0.00277747
0.00280533
0.00282943
0.00285014
0.00286753
0.00288205
0.00289405
0.00290348
0.00291079
0.00291623
0.00291962
0.00292134
0.00292159
0.00292022
0.00291719
0.00291239
0.00290564
0.00289664
0.00288571
0.00287372
0.00286058
0.00284588
0.00282945
0.00281129
0.00279151
0.00277012
0.0027474
0.00272343
0.00269824
0.00267164
0.00264353
0.00261342
0.00258128
0.00254788
0.00251333
0.00247735
0.0024399
0.00240081
0.00235998
0.002318
0.00226528
0.00220523
0.00214453
0.00208353
0.00202204
0.00196032
0.00189861
0.00183696
0.00177569
0.00171492
0.00165472
0.00159545
0.00153706
0.00148013
0.00142532
0.00137189
0.00132058
0.00127101
0.00122211
0.00117376
0.00112644
0.0010797
0.00103363
0.000989207
0.000947461
0.000909169
0.000875752
0.00084738
0.000825234
0.000808349
0.00079519
0.00078404
0.000764035
0.000733263
0.000701989
0.000682339
0.000679455
0.000691098
0.000714967
0.000750798
0.000799101
0.000859936
0.00093173
0.00101238
0.00109798
0.00118405
0.00126198
0.00132757
0.00135967
1.32896e-06
3.0614e-05
0.000128897
0.000256022
0.000384493
0.000503013
0.000607164
0.000695834
0.00077013
0.000831495
0.000881258
0.000920735
0.000951683
0.000975561
0.000993601
0.001007
0.00101653
0.00102265
0.00102596
0.00102685
0.00102565
0.00102259
0.00101786
0.00101163
0.00100406
0.000995305
0.000985557
0.000975011
0.000963877
0.00095236
0.00094064
0.000928841
0.000917004
0.000905068
0.000892841
0.000879519
0.00086427
0.000847496
0.000828854
0.000807947
0.000777034
0.000744775
0.000711603
0.000677647
0.000643286
0.000609121
0.000575857
0.000544136
0.000509756
0.000472532
0.00043786
0.000407404
0.000382298
0.000360597
0.000345767
0.00033708
0.000332554
0.000331041
0.000331784
0.000334271
0.000337319
0.00034081
0.000346132
0.000359392
0.000381265
0.000416243
0.000474597
0.000560824
0.000672383
0.000806153
0.000959729
0.0011213
0.00128305
0.00144129
0.00159244
0.0017361
0.00187239
0.00200227
0.00212557
0.00224506
0.00235487
0.00245645
0.00254978
0.00263552
0.00271356
0.00278433
0.00284837
0.00290596
0.0029575
0.00300331
0.0030438
0.00307949
0.00311071
0.0031379
0.00316141
0.00318149
0.0031985
0.0032127
0.00322426
0.00323347
0.0032405
0.00324539
0.00324834
0.00324947
0.00324882
0.00324637
0.00324214
0.00323615
0.00322796
0.00321767
0.00320535
0.00319196
0.00317707
0.00316043
0.00314198
0.00312175
0.0030996
0.00307584
0.00305062
0.00302394
0.00299571
0.00296588
0.00293416
0.00290058
0.0028527
0.00279634
0.00273887
0.00268073
0.0026218
0.00256204
0.00250137
0.0024399
0.0023779
0.0023153
0.0022522
0.00218858
0.00212475
0.00206115
0.00199771
0.00193518
0.00187303
0.00181135
0.00175021
0.00168982
0.00163061
0.00157277
0.00151637
0.00146153
0.001408
0.00135544
0.0013037
0.00125287
0.00120246
0.00115225
0.00110237
0.00105335
0.00100546
0.000959623
0.000916967
0.000878743
0.000843875
0.000808958
0.000769351
0.000721239
0.000674847
0.000641658
0.000627392
0.00062808
0.000641021
0.000665019
0.000699803
0.00074628
0.000805581
0.000877391
0.000960359
0.00105097
0.00114485
0.00123458
0.001317
0.00137423
1.87201e-06
4.72883e-05
0.000168248
0.000312096
0.000450819
0.000574418
0.000680523
0.000769435
0.000841944
0.000899575
0.000944635
0.000979245
0.00100533
0.00102452
0.00103854
0.00104866
0.001055
0.0010584
0.00105942
0.00105849
0.00105588
0.00105181
0.00104645
0.00103991
0.00103233
0.00102383
0.00101455
0.00100462
0.0009942
0.000983402
0.000972309
0.000960936
0.000949216
0.000936981
0.000923965
0.000909112
0.000891677
0.000870466
0.000844461
0.000807103
0.000770619
0.000734166
0.000697779
0.000661768
0.000626707
0.00059345
0.00056319
0.000531952
0.000496521
0.000464368
0.000436651
0.000414333
0.000394734
0.000379
0.000370383
0.000366142
0.000365054
0.000365978
0.000368466
0.000372073
0.000379081
0.000393886
0.000416092
0.000451137
0.000497223
0.000569134
0.000663093
0.000779619
0.000914979
0.00106512
0.00122466
0.0013847
0.00153932
0.00168911
0.00183301
0.0019704
0.0021024
0.00223088
0.00235569
0.0024716
0.00258003
0.00268117
0.00277506
0.00286192
0.00294182
0.00301497
0.00308168
0.00314218
0.00319679
0.00324581
0.00328957
0.00332844
0.00336275
0.00339287
0.00341917
0.00344193
0.00346146
0.00347801
0.00349179
0.00350303
0.00351188
0.00351845
0.00352286
0.00352521
0.00352559
0.00352405
0.00352063
0.0035154
0.00350823
0.0034987
0.00348706
0.00347361
0.00345888
0.00344244
0.00342423
0.00340425
0.00338241
0.00335886
0.00332248
0.00327637
0.00322867
0.00317958
0.00312916
0.00307764
0.00302504
0.00297149
0.00291721
0.00286266
0.0028077
0.00275249
0.00269655
0.00263974
0.00258204
0.00252341
0.00246378
0.00240317
0.00234183
0.00228003
0.00221773
0.00215504
0.00209202
0.00202891
0.00196582
0.001903
0.00184083
0.00177951
0.00171926
0.00166047
0.00160326
0.00154763
0.00149357
0.00144054
0.00138807
0.00133528
0.00128122
0.00122504
0.00116606
0.00110442
0.00104097
0.000976686
0.000910487
0.000837293
0.000754708
0.000678316
0.000627615
0.000599348
0.000588462
0.000591565
0.000606806
0.000632829
0.000668961
0.000715285
0.000773226
0.000844768
0.000929202
0.00102373
0.00112409
0.00122407
0.00132054
0.00139728
2.31821e-06
5.81844e-05
0.000193591
0.00035148
0.000501154
0.000631767
0.0007408
0.000828819
0.000898224
0.000951738
0.000992095
0.00102181
0.00104298
0.00105773
0.00106829
0.00107503
0.00107823
0.00107889
0.0010776
0.00107475
0.00107062
0.00106542
0.00105926
0.00105227
0.00104454
0.00103616
0.00102722
0.00101781
0.001008
0.000997848
0.000987342
0.000976409
0.000964895
0.000952566
0.000939115
0.000923421
0.000904637
0.000881213
0.000856239
0.000828545
0.000798033
0.000764819
0.000729268
0.000692003
0.000653875
0.000615896
0.000579133
0.000544586
0.000513153
0.000485653
0.000463037
0.000444493
0.000427795
0.000415541
0.000410539
0.000408741
0.000409281
0.000412935
0.000420994
0.000435666
0.00045915
0.000494977
0.000536559
0.000596862
0.000672662
0.00076955
0.000882506
0.00101159
0.0011537
0.00130318
0.00145552
0.00160615
0.00175265
0.00189467
0.00203126
0.0021635
0.00229357
0.00242073
0.00254074
0.00265421
0.00276117
0.00286164
0.00295564
0.00304324
0.00312447
0.00319944
0.00326829
0.0033312
0.00338841
0.00344018
0.00348678
0.0035285
0.00356563
0.0035984
0.00362736
0.00365272
0.00367474
0.00369368
0.00370974
0.00372311
0.00373395
0.00374236
0.00374845
0.00375227
0.00375397
0.00375361
0.00375126
0.00374698
0.00374078
0.00373247
0.00372193
0.00370958
0.00368656
0.00365454
0.00362053
0.00358464
0.00354686
0.00350753
0.00346694
0.00342517
0.0033826
0.00333912
0.00329532
0.00325075
0.00320533
0.00315901
0.00311183
0.00306389
0.00301503
0.00296499
0.00291354
0.00286071
0.00280648
0.00275079
0.00269356
0.00263481
0.00257474
0.00251347
0.00245102
0.00238743
0.00232285
0.00225757
0.0021918
0.00212591
0.00206026
0.00199517
0.00193097
0.00186806
0.00180659
0.00174684
0.00168778
0.00162885
0.00156853
0.00150469
0.00143519
0.00135868
0.00127507
0.00118567
0.00109244
0.000997394
0.000901083
0.000801683
0.000708349
0.00063328
0.000586994
0.000562579
0.000555454
0.000562269
0.000580881
0.00060994
0.000648713
0.000697151
0.000756147
0.00082818
0.000914824
0.00101362
0.00112045
0.00122989
0.0013386
0.00143379
2.64586e-06
6.68017e-05
0.000216763
0.000386915
0.000545072
0.000679523
0.000788959
0.000875213
0.000941342
0.000990704
0.00102651
0.00105152
0.00106832
0.00107963
0.00108699
0.00109012
0.00109033
0.00108841
0.00108491
0.00108022
0.00107461
0.00106826
0.00106131
0.00105388
0.00104603
0.00103783
0.00102932
0.00102053
0.00101147
0.00100213
0.000992429
0.000982228
0.000971321
0.00095944
0.000946263
0.000931134
0.000913188
0.000890603
0.000866577
0.00084014
0.000811808
0.000781814
0.000750567
0.000718602
0.000686572
0.000655232
0.000625369
0.00059762
0.000572357
0.00055019
0.000531397
0.000515689
0.000501026
0.00049089
0.000488265
0.000490099
0.000496866
0.000510009
0.000530661
0.000560045
0.000599159
0.000650945
0.000711546
0.000787465
0.000877369
0.000981563
0.00109845
0.00122703
0.0013643
0.00150605
0.00164874
0.0017897
0.00192745
0.00206115
0.0021911
0.00231933
0.00244545
0.00256681
0.00268313
0.00279401
0.00289929
0.00299885
0.00309265
0.00318064
0.00326281
0.00333916
0.00340975
0.00347467
0.00353407
0.00358823
0.00363736
0.00368168
0.00372144
0.00375683
0.00378841
0.00381634
0.00384085
0.0038622
0.00388058
0.00389616
0.0039091
0.00391951
0.00392751
0.00393313
0.00393477
0.003926
0.00391422
0.00389941
0.00388169
0.00386128
0.00383829
0.0038135
0.00378745
0.00376018
0.00373177
0.00370196
0.00367128
0.00363938
0.00360642
0.00357233
0.0035371
0.00350063
0.00346291
0.00342389
0.00338366
0.0033422
0.00329951
0.00325557
0.00321023
0.00316328
0.00311456
0.00306404
0.0030117
0.00295751
0.00290142
0.00284347
0.00278382
0.00272257
0.00265972
0.00259532
0.00252947
0.00246241
0.00239442
0.00232588
0.00225717
0.0021886
0.0021204
0.00205275
0.00198589
0.00191855
0.00184972
0.00177779
0.00170059
0.00161589
0.00152234
0.00142032
0.00131255
0.00120221
0.00109015
0.000978529
0.000868812
0.00075929
0.000661516
0.000588529
0.000548142
0.000529748
0.000528158
0.000539697
0.000562313
0.000594876
0.000636792
0.000688088
0.000749548
0.000823391
0.000913293
0.00101703
0.0011306
0.00124932
0.00136926
0.00148012