/*--------------------------------*- C++ -*----------------------------------*\
| =========                 |                                                 |
| \\      /  F ield         | OpenFOAM: The Open Source CFD Toolbox           |
|  \\    /   O peration     | Version:  2406                                  |
|   \\  /    A nd           | Website:  www.openfoam.com                      |
|    \\/     M anipulation  |                                                 |
\*---------------------------------------------------------------------------*/
FoamFile
{
    version     2.0;
    format      ascii;
    arch        "LSB;label=32;scalar=64";
    class       volScalarField;
    location    "200";
    object      omega;
}
// * * * * * * * * * * * * * * * * * * * * * * * * * * * * * * * * * * * * * //

dimensions      [0 0 -1 0 0 0 0];

internalField   nonuniform List<scalar> 
12225
(
37532.3
40203.7
41822.2
42640.4
42942
42912.1
42783.8
42552.1
42279.2
42012.4
41762.2
41528.4
41325.1
41129.5
40981.4
40815.5
40731.4
40584.7
2126.06
6402.64
9222.25
11177.9
12543.3
13456.6
14071.3
14489.6
14749.7
14977.3
15169.2
15406.5
15593.9
15823.1
15969.2
16160.9
16226.3
16313.8
432.01
1173.45
1767.31
2314.46
2758.17
3184.85
3490.26
3805.26
4021.31
4333.93
4552.16
4854.52
5046.12
5320.63
5472.77
5715.06
5823.76
6027.15
397.183
568.775
696.435
861.436
995.552
1146.97
1257.81
1390.55
1479.27
1603.63
1684.57
1801.04
1870.51
1976.49
2032.79
2126.86
2169.73
2260.33
420.769
462.648
491.57
545.984
591.875
650.708
694.923
750.972
789.696
841.192
875.325
923.144
952.659
996.663
1021.07
1060.99
1079.97
1119.58
433.192
440.887
445.966
460.968
475.488
498.246
516.017
540.35
558.141
581.854
598.439
621.008
635.789
656.93
669.35
688.951
698.634
718.274
437.813
436.546
436.741
438.54
441.829
448.257
454.12
463.568
470.758
481.182
488.815
499.479
506.796
517.203
523.589
533.513
538.563
548.677
438.845
436.644
434.879
433.621
433.128
433.463
434.528
436.428
438.327
441.847
444.529
448.796
451.796
456.346
459.211
463.761
466.151
470.976
438.984
436.787
434.666
432.821
431.097
429.858
428.761
428.214
427.827
427.929
428.193
428.915
429.542
430.814
431.613
433.074
433.872
435.6
438.992
436.81
434.663
432.722
430.8
429.131
427.502
426.147
424.855
423.861
422.912
422.298
421.663
421.359
420.971
420.848
420.604
420.731
438.994
436.799
434.666
432.696
430.772
429.006
427.283
425.721
424.197
422.849
421.53
420.402
419.284
418.36
417.408
416.664
415.82
415.237
438.997
436.788
434.665
432.679
430.764
428.976
427.246
425.638
424.078
422.637
421.238
419.96
418.713
417.587
416.473
415.484
414.484
413.613
438.999
436.781
434.664
432.668
430.758
428.958
427.232
425.606
424.044
422.575
421.161
419.834
418.555
417.358
416.201
415.119
414.07
413.093
439
436.777
434.661
432.658
430.751
428.943
427.219
425.584
424.024
422.543
421.128
419.785
418.5
417.28
416.112
415.003
413.94
412.93
439.001
436.774
434.659
432.652
430.743
428.931
427.207
425.567
424.005
422.52
421.103
419.754
418.467
417.24
416.069
414.952
413.884
412.867
439.001
436.773
434.656
432.647
430.737
428.922
427.196
425.554
423.99
422.501
421.082
419.73
418.44
417.211
416.037
414.917
413.847
412.826
439.001
436.772
434.655
432.644
430.732
428.915
427.187
425.543
423.977
422.485
421.064
419.71
418.418
417.186
416.01
414.888
413.816
412.794
439
436.769
434.65
432.636
430.723
428.904
427.174
425.527
423.959
422.466
421.043
419.687
418.393
417.159
415.982
414.858
413.785
412.76
439
436.77
434.653
432.64
430.727
428.908
427.178
425.531
423.963
422.469
421.045
419.688
418.394
417.159
415.981
414.857
413.783
412.758
439.001
436.772
434.654
432.643
430.731
428.912
427.182
425.536
423.968
422.474
421.051
419.694
418.4
417.166
415.988
414.863
413.79
412.765
439.001
436.772
434.656
432.645
430.735
428.917
427.188
425.542
423.976
422.483
421.061
419.705
418.413
417.18
416.005
414.882
413.812
412.789
439.003
436.772
434.66
432.649
430.742
428.924
427.201
425.556
423.998
422.51
421.1
419.752
418.478
417.258
416.107
415.002
413.962
412.961
439.012
436.768
434.668
432.653
430.762
428.953
427.272
425.667
424.18
422.76
421.455
420.212
419.081
417.998
417.027
416.081
415.26
414.429
439.054
436.723
434.722
432.714
430.971
429.375
428.087
426.915
426.003
425.159
424.561
424.05
423.739
423.512
423.408
423.417
423.516
423.522
439.173
436.579
435.664
433.982
433.884
434.086
435.167
436.669
438.838
440.745
443.4
445.747
448.795
451.35
454.582
457.125
460.428
462.819
439.365
438.89
446.125
448.596
456.656
466.119
478.011
488.938
501.515
512.516
525.017
535.592
547.623
557.382
568.698
577.429
588
595.652
447.406
470.996
498.312
534.791
581.859
626.065
673.019
714.023
757.302
793.314
832.037
862.838
897.102
923.007
953.286
974.949
1002.22
1021.01
485.52
675.496
849.46
1084.08
1283.68
1456.41
1621.28
1760.22
1895.5
2002.31
2110.31
2190.16
2276.64
2336.05
2407.6
2452.89
2517.47
2560.72
497.862
2872.53
4075.69
5191.18
6025.3
6681.64
7203.69
7613.61
7941.69
8182.71
8388.35
8531.33
8668.77
8760.13
8874.17
8946.25
9059.35
9124.58
23075.3
24526.9
25586.8
26333.6
26823.1
27141.8
27312.4
27410.6
27417.8
27401.1
27360.8
27294.7
27220
27139.9
27059.7
26980.7
26903.5
26829.3
11463.6
2517.52
2525.9
2542.24
2576.83
2627
2684.08
2742.23
2797.84
2850.23
2898.29
2941.15
2978.68
3011.38
3038.89
3062.75
3080.64
3098.74
3102.67
3110.74
3110.68
3115.27
3103.22
3099.44
3106.15
3091.71
3092.26
3070.35
3066.35
3039.7
3034.14
3006.4
2996.2
2981.75
2967.06
2952.49
2939.01
2927.07
2915.97
2907.05
2900.38
2897.15
2890.03
2891.04
2893.67
2896.67
2899.29
2903.28
2904.44
2901.72
2895.76
2886.49
2874.4
2859.73
2843.38
2825.82
2808.78
2792.99
2779.94
2770.37
2765.22
2768.78
2776.08
2786.11
2803.35
2819.97
2836.47
2848.5
2848.56
2848.18
2852.43
2863.22
2895.77
3032.37
3413.37
3847.89
4245.43
4623.57
4959.83
5244.44
5485.48
5687.4
5854.67
5996.15
6115.36
6220.13
6312.34
6377.92
6409.04
6432.66
6503.77
6534.68
6580.73
6602.11
6676.48
6694.55
6710.15
6736.87
6764.22
6819.33
6820.8
6821.42
6837.93
6858.27
6872.14
6887.1
6901.49
6931.37
6911.15
6916.55
6926.66
6936.34
6946.89
6968.83
6948.79
6952.49
6956.83
6963.87
6979.3
6947.72
6947.04
6959.26
6948.42
6931.88
6941.18
6948.23
6961.89
6987.47
6949.59
6970
6986.29
7008.02
7035.35
7123.68
7133.72
7169.61
7193.95
7176.93
7205.43
7242.72
7277.42
7394.01
7385.15
7501.36
7464.32
7521.84
7657.61
7654.81
7713.37
7856.37
7861.09
7928
8096.34
8131.19
8182.62
8164.02
8232.34
8338.22
8487.7
8528.26
8593.86
8620.01
8745.89
8769.25
8837.02
8909.8
8999.81
9021.84
9079.41
9102.61
9130.73
9132.29
9032.4
8956.96
8896.33
8793.3
8726.5
8526.48
8440.84
8009.67
11464.1
2156.63
1139.7
915.051
859.551
821.485
785.992
755.241
732.956
718.971
712.097
711.505
714.053
720.117
728.931
739.758
751.658
764.611
777.66
791.09
804.342
817.932
830.565
842.385
859.303
880.974
906.128
930.854
955.266
976.319
995.181
1008.74
1020.19
1019.52
1017.88
1015.63
997.26
989.668
974.339
955.508
934.948
914.346
894.913
878.709
866.676
858.894
855.32
857.029
860.153
865.852
873.65
881.889
889.509
896.429
893.139
894.316
868.652
841.48
823.26
786.843
762.878
766.848
776.689
841.879
888.366
1018.02
1173.25
1392.25
1689.48
2026.74
2352.92
2674.62
2954.01
3181.77
3382.51
3495.17
3576.1
3500.7
3410.07
3235.29
3103.88
2958.55
2850.07
2744.93
2667.19
2600.58
2551.1
2508.62
2474.5
2446.84
2425.52
2408.48
2394.88
2383.75
2373.91
2363.91
2353.79
2342.18
2331.28
2325.99
2327.35
2334.74
2326.54
2335.26
2331.1
2330.04
2325.05
2330.93
2322.7
2314.72
2320.46
2309.97
2310.77
2313.33
2322.91
2302.19
2296.89
2298.22
2301.53
2313.95
2307.51
2319.36
2342.47
2356.37
2362.16
2367.04
2373.02
2376.35
2384.98
2394
2404.41
2411.97
2415.27
2409.19
2385.15
2430.92
2401.32
2415.6
2436.46
2460.81
2484.83
2547.9
2545.73
2578.23
2638.7
2637.45
2662.52
2695.51
2691.53
2700.51
2701.46
2709.29
2711.12
2714.46
2718.22
2723.58
2735.19
2752.22
2768.97
2784.44
2801.31
2818.37
2838.48
2852.82
2871.31
2892.92
2913.08
2933.9
2960.39
2969.02
2994.63
2997.81
2958.27
2894.64
2822.8
2769.59
2724.27
2693.91
2670.29
2718.5
11464.2
2399.3
1417.85
1142.74
933.167
798.05
693.128
618.403
565.443
528.115
502.137
484.266
472.609
465.841
463.095
463.531
465.325
469.104
474.369
480.796
488.158
496.302
504.968
514.097
524.348
535.793
548.325
561.466
574.846
587.813
599.988
610.69
619.71
625.844
629.615
631.221
629.255
627.142
621.477
614.249
605.801
596.744
587.677
579.21
571.859
565.902
561.551
558.956
557.813
558.19
559.408
561.895
565.144
568.917
572.093
576.094
578.308
582.649
595.734
613.155
651.337
713.137
804.763
919.842
1073.06
1275.76
1526.57
1792.72
2067.03
2307.84
2487.22
2644.07
2734.33
2794.41
2725.76
2560.35
2337.39
2215.77
2074.78
1964.46
1884.45
1810.92
1762.49
1719.49
1690.11
1665.78
1647.94
1633.16
1621.44
1611.77
1603.88
1597.79
1593.24
1589.29
1585.07
1581.29
1577.58
1572.98
1568.11
1564.17
1570.09
1565.55
1566.46
1568.85
1570.9
1579.27
1578.82
1580.37
1581.9
1583.78
1587.25
1588.62
1591.44
1595.18
1597.85
1596.02
1611.2
1612.27
1614.4
1613.2
1608.25
1614.73
1635.09
1639.85
1643.28
1635.35
1654.05
1645.87
1667.55
1676.95
1687.85
1705.07
1714.45
1721.36
1729.03
1740.79
1746.84
1759.41
1767.97
1779.33
1785.11
1804.69
1815.72
1820.62
1850.06
1852.18
1862.96
1867.34
1865.22
1870.79
1867.63
1865.96
1861.26
1858.46
1856.84
1858.3
1860.92
1864.02
1869.03
1876.01
1884.39
1894.12
1904.29
1914.4
1920.38
1948.2
1950.45
1958.84
1966.78
1963.13
1953.85
1920.76
1865.98
1809.56
1761.58
1724.31
1688.88
1668.03
1653.87
1682.57
11464.8
3045.77
1756.92
1228.61
947.756
769.483
650.781
570.178
514.384
475.114
447.33
427.905
414.398
405.301
399.625
396.636
395.844
396.66
398.59
401.84
406.187
411.474
417.565
424.435
432.07
440.423
449.399
458.833
468.516
478.169
487.495
496.155
503.845
510.198
515.061
518.355
519.982
520.209
519.123
516.35
512.418
507.879
503.011
498.13
493.545
489.506
486.248
483.985
482.903
483.238
484.949
488.482
494.479
503.211
515.491
532.852
557.157
591.456
637.602
699.788
783.367
900.353
1050.97
1233.05
1426.66
1635.19
1831.92
2000.98
2132.43
2242.94
2334.67
2332.81
2265.62
2092.92
1960.72
1801.34
1680.32
1598.26
1521.27
1466.32
1425.52
1392.68
1370.67
1353.05
1341.02
1331.71
1324.88
1319.54
1315.14
1311.36
1307.56
1303.81
1304.14
1307.46
1304.91
1305.27
1309.25
1307.19
1308.2
1313.6
1313.04
1314.58
1321.37
1320.47
1323.07
1327.18
1334.64
1332.3
1340.23
1340.56
1351.79
1354.05
1357.8
1361.54
1370.14
1374.59
1381.4
1386.49
1391.75
1396.07
1398.64
1401.05
1399.05
1403.85
1417.51
1415.28
1422.52
1429.92
1439.99
1461.35
1471.16
1484.27
1497.39
1508.77
1518.97
1529.43
1538.95
1551.32
1559.05
1567.41
1568.04
1579.36
1592.11
1613.9
1618.92
1621.96
1641.91
1644
1648.88
1648.15
1654.17
1652.15
1650.01
1646.01
1641.35
1636.92
1631.95
1628.59
1626.65
1626.12
1627.79
1631.01
1635.26
1640.5
1643.47
1660.46
1660.93
1657.26
1647.51
1625.74
1588.75
1541.06
1487.29
1437.41
1393.35
1356.34
1323.1
1287.55
1289.78
1293.63
11471.3
3610.32
1837.68
1186.89
867.287
691.643
586.763
519.757
474.516
442.791
420.177
404.057
392.581
384.563
379.234
376.042
374.626
374.69
375.795
377.887
381.058
385.157
390.126
395.902
402.403
409.543
417.223
425.315
433.666
442.085
450.361
458.259
465.548
472.004
477.463
481.813
485.001
487.057
487.956
487.751
486.634
484.686
482.293
479.718
477.23
475.091
473.586
473.119
474.106
477.101
482.677
491.526
504.29
522.584
548.14
583.382
631.656
697.845
788.35
900.093
1026.15
1163.89
1310.7
1462.82
1611.66
1745.96
1857.1
1953.66
1993.61
2018.65
1967.41
1849.23
1740.89
1603.5
1500.95
1406.61
1342.01
1292.29
1252.22
1224.24
1204.47
1190.44
1181.48
1175.43
1171.89
1170.16
1168.92
1168.73
1168.82
1169.77
1173.48
1174.88
1177.37
1180.34
1182.24
1184.81
1188.16
1190.5
1193.59
1197.56
1200.45
1203.8
1208.11
1211.02
1214.62
1218.63
1222.89
1225.81
1231
1235.22
1240.93
1245.18
1250.1
1255.44
1261.34
1266.89
1273
1278.94
1284.91
1290.6
1295.95
1301.48
1306.59
1313.53
1322.3
1328.7
1336.89
1345.81
1355.34
1367.69
1378.49
1390.46
1403.23
1414.92
1427.43
1440.3
1453.41
1467.31
1480.26
1493.91
1506.32
1520.35
1534.97
1547.91
1557.62
1562.59
1587.44
1589.22
1608.61
1609.94
1619.11
1623.39
1630.96
1628.65
1623.11
1614.9
1604.1
1591.52
1577.87
1564.82
1552.71
1545.77
1540.19
1537.76
1537.9
1541.73
1538.06
1527.94
1500.59
1459.73
1408
1356.15
1305.88
1259.61
1216.5
1178.49
1143.85
1107.07
1105.93
1098.58
11502.8
3678.12
1687.44
1040.32
763.899
621.141
537.683
484.414
448.592
423.724
406.058
393.424
384.378
377.982
373.665
371.117
370.086
370.316
371.441
373.582
376.691
380.697
385.54
391.147
397.449
404.369
411.82
419.692
427.859
436.169
444.449
452.514
460.176
467.254
473.6
479.091
483.641
487.18
489.644
491.188
491.914
491.916
491.386
490.858
490.582
490.852
491.795
494.244
498.968
506.739
518.604
535.96
560.84
595.571
642.714
704.692
782.699
875.069
976.444
1082.98
1195.34
1310.52
1424.82
1532.15
1627.64
1713.24
1777.64
1783.58
1757.43
1682.04
1593.5
1492.56
1397.62
1306.74
1242.25
1189.41
1152
1124.16
1104.42
1091.65
1084.16
1080.96
1079.57
1080.16
1080.8
1083.83
1086.84
1090.21
1093.65
1097.53
1101.69
1105.31
1109.09
1112.78
1116.22
1119.81
1123.48
1126.99
1130.75
1134.64
1138.39
1142.36
1146.43
1150.21
1154.11
1158.19
1162.36
1166.46
1171.06
1175.58
1180.45
1185.14
1190.08
1195.27
1200.68
1206.2
1211.95
1217.76
1223.6
1229.44
1235.35
1241.48
1247.93
1255.27
1263.12
1270.79
1279.08
1288
1297.66
1308.49
1319.58
1331.38
1343.86
1356.51
1370.07
1384.31
1399.21
1414.92
1431.05
1447.98
1465.36
1483.57
1502.51
1521.24
1539.38
1557.84
1578.91
1592.44
1613.19
1620.54
1648.24
1654.06
1664.91
1677.51
1674.88
1666.01
1649.94
1627.31
1599.61
1567.73
1536.34
1508.43
1485.72
1468.26
1454.48
1441.77
1422.37
1391.58
1343.88
1293.24
1246.63
1204.4
1163.75
1126.06
1089.35
1056.05
1024.11
993.23
984.568
972.875
11571.9
3337.72
1452.77
915.55
692.483
576.669
508.283
464.687
435.431
415.15
400.743
390.381
383.101
378.17
375.166
373.681
373.472
374.338
376.15
378.877
382.455
386.834
391.98
397.857
404.42
411.612
419.359
427.569
436.133
444.915
453.766
462.518
471.005
479.063
486.558
493.374
499.418
504.637
509.005
512.561
515.421
517.766
519.904
522.199
525.083
529.032
534.67
542.864
554.638
571.205
594.001
624.687
664.759
715.051
775.651
845.403
922.017
1003.34
1089.07
1177.65
1266.72
1352.39
1433.26
1509.07
1572.49
1589.3
1590.54
1546.3
1480.24
1408.51
1330.69
1252.32
1184.34
1130.15
1090.81
1061.14
1040.93
1027.84
1021.58
1018.07
1018.18
1018.74
1022.33
1026.63
1031.92
1037.66
1043.35
1048.98
1054.43
1059.78
1064.96
1069.83
1074.54
1079.04
1083.35
1087.59
1091.74
1095.81
1099.9
1103.97
1107.97
1112.02
1116.04
1119.99
1123.94
1127.94
1132.01
1136.13
1140.39
1144.68
1149.1
1153.56
1158.14
1162.89
1167.78
1172.8
1177.97
1183.21
1188.51
1193.89
1199.42
1205.18
1211.31
1217.97
1224.92
1232.15
1239.81
1247.97
1256.77
1266.33
1276.45
1287.19
1298.54
1310.45
1323.16
1336.63
1350.89
1365.99
1381.89
1398.59
1416.18
1434.73
1454.2
1474.26
1494.55
1515.61
1537.26
1557.56
1579.47
1598.65
1621.76
1638.13
1649.88
1661.77
1670.18
1665.87
1651.98
1626.68
1589.97
1544
1493.58
1444.07
1400.25
1364.5
1334.46
1305.04
1263.77
1216.44
1171.42
1130.28
1092.99
1059.84
1029.92
1003.29
975.75
950.72
924.051
904.078
879.004
874.29
11662.9
2884.52
1294.7
846.788
655.753
554.699
494.668
456.487
430.889
413.211
400.956
392.639
387.127
383.722
381.97
381.503
382.139
383.821
386.434
389.915
394.221
399.321
405.188
411.796
419.108
427.079
435.649
444.741
454.258
464.079
474.068
484.069
493.921
503.459
512.532
521.016
528.828
535.908
542.26
547.995
553.274
558.351
563.602
569.493
576.586
585.537
597.113
612.164
631.542
656.101
686.697
723.688
767.023
816.393
871.225
931.352
995.755
1063.3
1132.38
1200.33
1267.91
1333.8
1391.07
1418.64
1425.55
1416.62
1382.2
1329.8
1272.39
1213.21
1151.79
1097.73
1055.1
1023.17
1001.26
987.143
978.936
974.864
974.027
974.364
977.745
982.88
989.278
996.301
1003.74
1011.29
1018.68
1025.82
1032.64
1039.12
1045.26
1051.05
1056.54
1061.74
1066.7
1071.47
1076.07
1080.54
1084.93
1089.24
1093.46
1097.65
1101.79
1105.88
1109.94
1113.99
1118.06
1122.16
1126.3
1130.46
1134.66
1138.91
1143.22
1147.62
1152.13
1156.74
1161.45
1166.23
1171.06
1175.97
1180.99
1186.17
1191.58
1197.3
1203.21
1209.31
1215.66
1222.31
1229.38
1236.89
1244.84
1253.23
1262.1
1271.46
1281.4
1291.93
1303.07
1314.88
1327.35
1340.5
1354.43
1369.12
1384.56
1400.6
1416.99
1433.91
1451.04
1467.96
1484.99
1501.01
1517.36
1530.94
1540.03
1547.02
1551.06
1546.8
1534.19
1511.31
1476.74
1431.11
1378.37
1324.93
1275.87
1231.97
1190.86
1149.49
1108.93
1069.94
1032.89
998.671
967.696
940.41
916.123
895.402
875.708
857.997
837.672
823.973
803.005
798.279
11746.2
2516.6
1184.21
799.579
632.073
542.706
489.055
454.506
431.617
416.351
406.144
399.472
395.364
393.207
392.453
392.779
394.296
396.823
400.273
404.593
409.75
415.72
422.487
430.029
438.32
447.32
456.974
467.206
477.921
488.997
500.295
511.658
522.925
533.937
544.555
554.674
564.238
573.247
581.776
589.91
597.807
605.771
614.197
623.536
634.285
646.942
662.002
679.959
701.357
726.736
756.321
790.06
828.071
870.481
916.98
966.651
1018.29
1071.9
1126.64
1182.46
1232.14
1263.23
1280.98
1278.96
1276.15
1247.63
1211.63
1169.17
1124.12
1078.85
1037.08
1003.43
979.453
962.416
951.371
945.414
943.046
942.718
943.911
948.112
954.138
961.45
969.622
978.252
987.077
995.861
1004.42
1012.66
1020.5
1027.91
1034.9
1041.46
1047.65
1053.49
1059.02
1064.29
1069.34
1074.19
1078.9
1083.47
1087.93
1092.31
1096.6
1100.82
1104.98
1109.11
1113.2
1117.29
1121.36
1125.42
1129.47
1133.53
1137.59
1141.69
1145.83
1150
1154.2
1158.42
1162.65
1166.88
1171.14
1175.44
1179.83
1184.32
1188.88
1193.53
1198.26
1203.11
1208.15
1213.41
1218.91
1224.67
1230.7
1237.03
1243.69
1250.71
1258.1
1265.87
1274.06
1282.68
1291.76
1301.29
1311.23
1321.5
1331.93
1342.5
1352.99
1363.22
1373.03
1381.98
1390.23
1396.52
1400.08
1401.55
1400.32
1394.25
1382.41
1363.15
1334.55
1296.21
1250.54
1203.09
1155.55
1104.9
1061.91
1023.92
988.154
954.204
922.594
893.754
867.885
845.234
825.283
808.491
793.058
780.483
765.481
755.704
740.08
736.384
11811.9
2447.99
1170.2
792.405
628.029
541.091
489.832
457.835
437.158
423.653
414.936
409.555
406.63
405.462
405.393
406.479
408.802
412.144
416.423
421.592
427.626
434.505
442.214
450.731
460.031
470.071
480.795
492.123
503.952
516.153
528.583
541.083
553.495
565.672
577.492
588.873
599.782
610.24
620.295
630.001
639.515
649.076
658.979
669.548
681.133
694.085
708.765
725.567
744.989
767.41
792.757
821.203
852.855
887.681
925.095
965.198
1008.41
1052.3
1093.25
1125.98
1146.91
1151.84
1161.62
1153.72
1140.98
1116.55
1088.9
1058.04
1026.15
996.667
971.328
951.577
937.527
928.247
923.325
921.559
921.503
923
927.153
933.206
940.698
949.224
958.431
968.006
977.702
987.316
996.697
1005.74
1014.38
1022.56
1030.27
1037.53
1044.38
1050.86
1056.96
1062.73
1068.23
1073.5
1078.56
1083.45
1088.18
1092.78
1097.27
1101.65
1105.93
1110.14
1114.28
1118.36
1122.39
1126.35
1130.26
1134.11
1137.92
1141.67
1145.38
1149.05
1152.67
1156.24
1159.71
1163.1
1166.4
1169.65
1172.85
1176
1179.12
1182.2
1185.24
1188.27
1191.31
1194.4
1197.56
1200.82
1204.17
1207.64
1211.25
1215
1218.9
1222.96
1227.19
1231.6
1236.19
1240.97
1245.87
1250.84
1255.79
1260.63
1265.23
1269.5
1273.32
1276.5
1279.1
1280.51
1280.66
1279.64
1277.1
1271.91
1262.81
1248.04
1224.28
1190.21
1147.23
1099.19
1046.49
996.589
956.135
921.019
889.203
859.973
833.363
809.402
788.107
769.59
753.411
739.894
727.748
718.251
707.309
700.274
688.907
686.311
11862.1
2422.44
1157.35
787.699
627.3
543.636
494.921
464.849
445.773
433.639
426.119
421.84
419.845
419.281
419.807
421.764
424.861
428.979
434.052
440.041
446.926
454.688
463.304
472.734
482.945
493.886
505.498
517.696
530.372
543.395
556.621
569.902
583.095
596.075
608.746
621.044
632.951
644.476
655.651
666.53
677.207
687.824
698.504
709.435
720.88
733.122
746.393
760.68
776.545
794.125
813.676
835.628
860.384
887.677
916.781
946.667
976.379
1003.7
1027.13
1045.16
1057.56
1061.45
1064.79
1059.45
1048.91
1033.41
1014.81
993.954
972.781
953.472
937.344
925.061
916.653
911.878
910.073
910.001
911.465
915.042
920.411
927.307
935.42
944.441
954.082
964.08
974.212
984.295
994.184
1003.78
1013
1021.79
1030.12
1038
1045.44
1052.5
1059.13
1065.41
1071.39
1077.09
1082.54
1087.79
1092.83
1097.7
1102.41
1106.98
1111.41
1115.72
1119.91
1123.99
1127.96
1131.82
1135.55
1139.16
1142.64
1145.99
1149.21
1152.31
1155.29
1158.15
1160.84
1163.38
1165.76
1168
1170.11
1172.06
1173.87
1175.55
1177.1
1178.54
1179.89
1181.15
1182.37
1183.55
1184.7
1185.83
1186.95
1188.06
1189.16
1190.25
1191.32
1192.38
1193.43
1194.46
1195.43
1196.32
1197.11
1197.68
1197.93
1197.92
1197.63
1197.02
1196.17
1194.92
1193.31
1191.28
1188.4
1183.41
1174.35
1158.71
1133.69
1098.31
1054.17
1005.39
951.32
905.377
867.6
835.374
807.322
782.404
760.34
740.845
723.778
709.101
696.376
685.838
676.531
669.412
661.594
656.7
648.637
646.891
11898.1
2420.69
1156.79
788.857
631.001
549.419
502.456
473.895
456.144
445.192
438.745
435.47
434.261
434.208
435.445
438.151
441.994
446.866
452.713
459.509
467.242
475.895
485.422
495.761
506.837
518.56
530.893
543.767
557.094
570.765
584.667
598.689
612.732
626.719
640.603
654.367
668.019
681.581
695.066
708.505
722.008
735.682
749.172
762.319
775.33
788.413
801.533
814.237
826.899
839.848
853.557
868.764
885.815
904.375
923.793
943.182
960.785
977.542
992.63
1005.42
1014.75
1019.09
1019.6
1014.79
1007.22
996.178
982.847
968.317
953.811
940.583
929.486
920.99
915.252
912.285
911.468
911.905
914.017
917.908
923.416
930.311
938.34
947.247
956.786
966.726
976.869
987.045
997.115
1006.97
1016.53
1025.73
1034.52
1042.9
1050.85
1058.42
1065.6
1072.41
1078.89
1085.06
1090.93
1096.54
1101.9
1107.04
1111.97
1116.7
1121.25
1125.61
1129.8
1133.83
1137.68
1141.37
1144.87
1148.18
1151.3
1154.23
1156.97
1159.52
1161.9
1164.1
1166.09
1167.87
1169.44
1170.79
1171.97
1172.94
1173.7
1174.29
1174.7
1174.93
1174.97
1174.81
1174.5
1174.06
1173.49
1172.79
1171.98
1171.07
1170.03
1168.87
1167.58
1166.16
1164.61
1162.92
1161.08
1159.07
1156.92
1154.53
1151.93
1149.16
1146.26
1143.31
1140.41
1137.58
1134.75
1131.68
1127.57
1120.86
1109.07
1089.59
1060.45
1021.86
975.508
924.816
872.109
828.512
792.598
763.151
738.806
717.952
700.127
684.725
671.58
660.447
650.926
643.172
636.492
631.47
626.171
623.185
617.77
616.653
11918.5
2419.86
1157.98
792.411
636.362
556.465
511.003
483.794
467.277
457.455
452.113
449.709
449.039
449.618
451.878
455.408
460.052
465.729
472.41
480.089
488.771
498.451
509.083
520.537
532.641
545.32
558.514
572.201
586.374
601.002
616.037
631.437
647.165
663.192
679.517
696.182
713.258
730.822
748.707
766.766
785.124
803.659
821.72
839.054
855.696
871.539
886.46
900.647
914.084
926.741
938.618
949.68
960.207
970.129
979.849
989.92
999.964
1009.34
1017.88
1025.52
1030.28
1031.33
1028.47
1023.02
1014.69
1003.82
991.404
978.675
966.192
954.73
944.88
937.048
931.48
928.311
927.184
927.481
929.378
932.894
937.843
944.06
951.36
959.56
968.458
977.844
987.561
997.449
1007.36
1017.19
1026.84
1036.25
1045.33
1054.05
1062.4
1070.36
1077.95
1085.16
1092
1098.49
1104.65
1110.51
1116.08
1121.38
1126.42
1131.21
1135.77
1140.09
1144.19
1148.07
1151.75
1155.21
1158.45
1161.45
1164.22
1166.76
1169.06
1171.15
1173.02
1174.66
1176.07
1177.24
1178.12
1178.72
1179.11
1179.26
1179.11
1178.78
1178.23
1177.44
1176.43
1175.2
1173.76
1172.13
1170.32
1168.33
1166.16
1163.81
1161.22
1158.44
1155.47
1152.3
1148.92
1145.36
1141.61
1137.68
1133.59
1129.34
1124.95
1120.49
1116.01
1111.64
1107.44
1103.5
1099.5
1094.94
1088.56
1078.42
1061.91
1036.93
1002.48
959.761
910.93
855.92
804.277
762.061
728.09
701.802
681.205
664.248
650.385
638.777
629.276
621.38
614.828
609.691
605.478
602.227
599.348
598.324
594.929
594.121
11926
2418.75
1159.89
796.412
642.016
563.668
519.634
493.765
478.518
469.951
465.744
464.197
464.069
465.909
469.198
473.711
479.33
486.006
493.739
502.551
512.476
523.525
535.643
548.679
562.432
576.698
591.41
606.676
622.488
638.955
656.134
674.083
692.856
712.382
732.546
753.405
775.066
797.46
820.121
842.769
865.333
887.539
909.382
930.876
951.838
972.044
991.286
1009.41
1026.24
1041.64
1055.5
1067.76
1078.38
1087.33
1094.59
1099.84
1103.09
1104.72
1105.03
1103.2
1100.04
1095.04
1088.31
1079.7
1068.99
1056.89
1044.06
1031.83
1020.14
1008.99
998.578
989.111
980.98
975.09
971.645
969.74
969.283
970.396
972.975
976.923
982.077
988.329
995.491
1003.37
1011.82
1020.67
1029.74
1038.91
1048.08
1057.15
1066.01
1074.59
1082.85
1090.76
1098.33
1105.55
1112.4
1118.9
1125.07
1130.92
1136.46
1141.7
1146.67
1151.36
1155.78
1159.94
1163.84
1167.5
1170.92
1174.1
1177.04
1179.72
1182.14
1184.29
1186.18
1187.83
1189.23
1190.38
1191.27
1191.9
1192.18
1192.09
1191.72
1191.12
1190.26
1189.15
1187.77
1186.14
1184.24
1182.09
1179.7
1177.08
1174.25
1171.2
1167.94
1164.49
1160.82
1156.95
1152.87
1148.58
1144.08
1139.38
1134.5
1129.46
1124.29
1118.97
1113.58
1108.18
1102.8
1097.49
1092.28
1087
1081.32
1074.27
1064.11
1048.72
1025.69
993.94
953.298
905.002
851.999
793.991
743.379
702.918
671.785
649.201
632.344
619.222
609.109
601.106
594.999
590.049
586.353
583.775
581.863
579.974
580.612
580.785
578.576
577.764
11922.4
2416.74
1161.3
800.003
647.291
570.457
527.886
503.459
489.664
482.629
479.719
479.096
480.239
483.392
487.988
493.814
500.782
508.882
518.155
528.668
540.492
553.648
568.041
583.461
599.679
616.554
634.059
652.166
671.004
690.575
710.996
732.501
755.13
778.627
802.792
827.651
853.125
879.011
905.231
931.777
958.502
985.199
1011.69
1037.79
1063.28
1087.91
1111.46
1133.72
1154.48
1173.54
1190.74
1205.92
1218.97
1229.81
1238.44
1244.16
1246.54
1246.05
1243.86
1239.57
1233.1
1224.49
1214.23
1202.72
1190
1176.48
1162.53
1148.15
1133.93
1120.11
1106.85
1094.2
1082.35
1072.01
1063.3
1055.45
1048.38
1043.82
1041.22
1040.3
1040.97
1043.3
1047
1051.79
1057.47
1063.97
1070.94
1078.23
1085.71
1093.29
1100.89
1108.38
1115.68
1122.76
1129.59
1136.17
1142.46
1148.46
1154.17
1159.58
1164.72
1169.58
1174.18
1178.5
1182.56
1186.36
1189.89
1193.16
1196.19
1198.97
1201.49
1203.75
1205.73
1207.42
1208.84
1209.98
1210.87
1211.49
1211.82
1211.85
1211.36
1210.63
1209.63
1208.35
1206.79
1204.94
1202.81
1200.4
1197.72
1194.77
1191.56
1188.11
1184.43
1180.53
1176.42
1172.1
1167.58
1162.86
1157.94
1152.82
1147.51
1142.01
1136.37
1130.6
1124.72
1118.81
1112.87
1106.97
1100.99
1094.97
1088.48
1081.47
1073
1061.78
1045.72
1022.93
991.599
951.898
904.558
851.477
792.395
735.075
687.126
649.64
622.554
603.966
590.862
581.639
575.134
570.529
567.542
565.171
564.714
564.644
564.67
564.288
564.691
566.515
565.909
566.01
11936.3
2417.64
1163.06
803.402
652.357
577.071
536.135
513.41
501.546
496.258
494.737
495.565
498.88
503.96
510.484
518.3
527.385
537.795
549.644
563.074
578.199
594.983
613.194
632.478
652.613
673.627
695.117
717.311
740.234
763.545
787.698
812.882
838.994
865.985
893.888
922.639
952.12
982.175
1012.66
1043.43
1074.32
1105.11
1135.62
1165.64
1194.96
1223.36
1250.61
1276.51
1300.84
1323.38
1343.95
1362.35
1378.39
1391.94
1402.89
1411.06
1415.76
1417.23
1415.59
1411.65
1405.1
1396.1
1384.97
1372.02
1357.54
1341.6
1324.62
1307.03
1289.41
1272.31
1256.15
1241.19
1227.4
1214.11
1200.99
1188.43
1176.22
1165.1
1155.01
1146.43
1140.4
1136.52
1134.45
1133.84
1134.36
1136.62
1139.46
1142.91
1146.84
1151.23
1156.05
1161.02
1166.04
1171.07
1176.06
1180.99
1185.83
1190.52
1195.05
1199.38
1203.53
1207.47
1211.21
1214.74
1218.04
1221.1
1223.93
1226.52
1228.87
1230.98
1232.85
1234.45
1235.78
1236.83
1237.6
1238.06
1238.28
1238.24
1237.75
1236.91
1235.77
1234.33
1232.59
1230.55
1228.21
1225.59
1222.67
1219.48
1216.01
1212.27
1208.27
1204.04
1199.59
1194.94
1190.08
1185.04
1179.83
1174.44
1168.88
1163.15
1157.26
1151.22
1145.07
1138.82
1132.5
1126.15
1119.66
1113.17
1106.18
1098.41
1090
1079.77
1066.38
1048.4
1023.65
991.396
951.077
903.894
850.174
792.914
732.145
678.236
634.531
601.321
579.285
564.814
555.831
550.643
547.549
545.864
545.826
545.778
546.372
548.296
550.649
553.494
554.853
558.663
558.34
558.668
11961.3
2422.19
1166.07
807.429
657.985
584.401
545.454
525.152
515.733
512.626
513.089
516.909
523.069
531.063
540.65
551.777
564.533
579.108
595.751
614.694
635.937
659.037
683.551
708.755
734.197
759.849
785.339
811.29
837.95
865.74
894.721
924.763
955.755
987.589
1020.16
1053.34
1086.99
1120.95
1155.07
1189.19
1223.16
1256.8
1289.95
1322.45
1354.11
1384.75
1414.19
1442.25
1468.71
1493.4
1516.1
1536.63
1554.8
1570.45
1583.41
1593.56
1600.66
1604.54
1605.33
1603.1
1597.99
1590.15
1579.88
1567.4
1552.89
1536.54
1518.61
1499.43
1479.39
1458.94
1438.49
1418.42
1399.03
1380.51
1363.11
1347.2
1332.79
1318.09
1303.62
1289.55
1276.26
1265.33
1256.43
1249.21
1243.57
1239.32
1236.21
1234.07
1232.54
1231.94
1232.7
1233.66
1234.97
1236.61
1238.46
1240.59
1242.96
1245.43
1247.91
1250.37
1252.79
1255.15
1257.42
1259.58
1261.6
1263.46
1265.14
1266.62
1267.91
1268.99
1269.87
1270.5
1270.88
1271.02
1270.91
1270.4
1269.64
1268.59
1267.21
1265.52
1263.52
1261.21
1258.6
1255.69
1252.49
1249.01
1245.25
1241.22
1236.93
1232.39
1227.6
1222.6
1217.41
1212.03
1206.49
1200.79
1194.94
1188.96
1182.85
1176.61
1170.24
1163.76
1157.17
1150.44
1143.62
1136.64
1129.17
1120.8
1111.97
1101.93
1089.35
1073.27
1051.83
1024.32
989.365
948.074
900.521
848.787
792.576
732.412
673.783
625.194
586.589
558.81
542.181
532.18
528.055
526.41
525.749
526.125
528.24
531.419
536.072
541.164
545.425
549.41
551.927
555.876
555.513
554.767
11973.5
2427.78
1170
812.337
664.771
593.351
557.289
540.221
534.089
533.764
537.982
545.742
556.061
568.533
583.063
599.756
618.946
641.127
666.548
695.071
726.339
757.877
789.08
819.644
849.72
879.916
911.124
943.587
977.247
1011.99
1047.64
1083.97
1120.77
1157.86
1195.07
1232.24
1269.22
1305.88
1342.09
1377.75
1412.74
1446.97
1480.36
1512.8
1544.2
1574.44
1603.41
1630.96
1656.96
1681.26
1703.68
1724.06
1742.24
1758.06
1771.38
1782.05
1789.96
1794.99
1797.2
1796.48
1792.29
1785.24
1775.89
1764.26
1750.46
1734.58
1716.77
1697.25
1676.26
1654.1
1631.09
1607.56
1583.84
1560.26
1537.18
1515.1
1494.58
1475.45
1457.65
1440.35
1422.84
1406.23
1391.24
1377.78
1365.77
1355.15
1345.85
1337.76
1330.73
1324.97
1320.27
1316.44
1313.34
1310.9
1308.74