/*--------------------------------*- C++ -*----------------------------------*\
| =========                 |                                                 |
| \\      /  F ield         | OpenFOAM: The Open Source CFD Toolbox           |
|  \\    /   O peration     | Version:  2406                                  |
|   \\  /    A nd           | Website:  www.openfoam.com                      |
|    \\/     M anipulation  |                                                 |
\*---------------------------------------------------------------------------*/
FoamFile
{
    version     2.0;
    format      ascii;
    arch        "LSB;label=32;scalar=64";
    class       volScalarField;
    location    "200";
    object      p;
}
// * * * * * * * * * * * * * * * * * * * * * * * * * * * * * * * * * * * * * //

dimensions      [0 2 -2 0 0 0 0];

internalField   nonuniform List<scalar> 
12225
(
-5.0244
-5.88234
-6.26066
-6.37244
-6.48879
-6.63144
-6.76088
-6.86831
-6.96135
-7.04694
-7.12986
-7.21157
-7.29292
-7.37585
-7.463
-7.55937
-7.66777
-7.8038
-5.29871
-5.93515
-6.25242
-6.35974
-6.47281
-6.61128
-6.73849
-6.84554
-6.9399
-7.02805
-7.1127
-7.19507
-7.27635
-7.35847
-7.44365
-7.53519
-7.63124
-7.72462
-5.49988
-5.93225
-6.22829
-6.3583
-6.47685
-6.61212
-6.73666
-6.84224
-6.93597
-7.02381
-7.10746
-7.18825
-7.26751
-7.34691
-7.42771
-7.51095
-7.59112
-7.65532
-5.63857
-5.95491
-6.23615
-6.37575
-6.48971
-6.61595
-6.73484
-6.83748
-6.92944
-7.01564
-7.0978
-7.17705
-7.25456
-7.33134
-7.40787
-7.48354
-7.55264
-7.60536
-5.75486
-5.99687
-6.25104
-6.39115
-6.50123
-6.62076
-6.73526
-6.83561
-6.92594
-7.01058
-7.09129
-7.16885
-7.24419
-7.31785
-7.38979
-7.4586
-7.51964
-7.56573
-5.85926
-6.04264
-6.26457
-6.40358
-6.51207
-6.62623
-6.73643
-6.83435
-6.92291
-7.00591
-7.08493
-7.16056
-7.23344
-7.30382
-7.37132
-7.43431
-7.4892
-7.53079
-5.95295
-6.09025
-6.28051
-6.41617
-6.5228
-6.63143
-6.73702
-6.8323
-6.91896
-7.0002
-7.07739
-7.15097
-7.22134
-7.28854
-7.35199
-7.41014
-7.46036
-7.49913
-6.03677
-6.13964
-6.30071
-6.43003
-6.53371
-6.63663
-6.73736
-6.82971
-6.91424
-6.99351
-7.06867
-7.14006
-7.20785
-7.27196
-7.33173
-7.38588
-7.43258
-7.46959
-6.11195
-6.1897
-6.32469
-6.44528
-6.54509
-6.64235
-6.73803
-6.82708
-6.90917
-6.98618
-7.05908
-7.12811
-7.19327
-7.25438
-7.31085
-7.36168
-7.40569
-7.44149
-6.17958
-6.23907
-6.35144
-6.46187
-6.55702
-6.64874
-6.73926
-6.82466
-6.904
-6.9785
-7.04895
-7.11546
-7.17795
-7.2362
-7.28971
-7.33776
-7.37963
-7.41453
-6.24052
-6.28666
-6.37996
-6.47963
-6.5694
-6.65573
-6.74106
-6.82254
-6.89887
-6.97066
-7.03849
-7.1024
-7.16224
-7.21777
-7.26862
-7.3143
-7.35443
-7.38855
-6.29095
-6.32811
-6.4069
-6.49671
-6.58104
-6.66249
-6.74312
-6.82084
-6.8942
-6.96337
-7.02869
-7.09017
-7.14761
-7.20079
-7.24944
-7.29322
-7.33197
-7.36542
-6.33619
-6.36677
-6.43347
-6.51391
-6.59265
-6.66933
-6.74538
-6.8193
-6.88961
-6.95609
-7.01889
-7.07795
-7.13307
-7.18406
-7.23069
-7.27279
-7.31032
-7.34315
-6.38221
-6.40726
-6.46281
-6.53347
-6.60574
-6.6771
-6.74812
-6.8177
-6.88444
-6.9478
-7.00771
-7.06405
-7.11664
-7.16528
-7.20984
-7.25024
-7.28653
-7.31867
-6.4273
-6.44773
-6.49356
-6.55463
-6.6198
-6.68537
-6.75103
-6.81585
-6.87855
-6.93838
-6.99508
-7.04846
-7.09833
-7.14453
-7.187
-7.22569
-7.26071
-7.29211
-6.4689
-6.4856
-6.52345
-6.57573
-6.63369
-6.69328
-6.75346
-6.81332
-6.87168
-6.92772
-6.98099
-7.03126
-7.07833
-7.12208
-7.16245
-7.19947
-7.23321
-7.26381
-6.5034
-6.51728
-6.549
-6.59398
-6.64535
-6.69924
-6.7542
-6.80924
-6.86329
-6.9155
-6.96534
-7.01252
-7.05686
-7.09824
-7.13662
-7.17202
-7.20455
-7.23432
-6.52548
-6.53749
-6.56515
-6.60502
-6.65137
-6.70064
-6.75125
-6.80219
-6.85248
-6.90127
-6.94802
-6.99243
-7.03431
-7.07356
-7.11016
-7.14413
-7.17555
-7.20453
-6.52675
-6.5381
-6.56437
-6.60229
-6.64637
-6.69317
-6.74123
-6.78963
-6.83744
-6.88387
-6.92841
-6.97079
-7.01086
-7.04853
-7.0838
-7.1167
-7.14731
-7.17576
-6.49999
-6.51272
-6.54178
-6.58263
-6.62868
-6.67647
-6.725
-6.77355
-6.82122
-6.86724
-6.91122
-6.95296
-6.99239
-7.02945
-7.06418
-7.09663
-7.12689
-7.15511
-6.46053
-6.47598
-6.51071
-6.55749
-6.60771
-6.65819
-6.70876
-6.75895
-6.80771
-6.85436
-6.89865
-6.94054
-6.97996
-7.01696
-7.05158
-7.08395
-7.11413
-7.14237
-6.40936
-6.42967
-6.47387
-6.5295
-6.58523
-6.63928
-6.6929
-6.7456
-6.79612
-6.8439
-6.88894
-6.93131
-6.97105
-7.0082
-7.0429
-7.07531
-7.10555
-7.13386
-6.34815
-6.37654
-6.43499
-6.50175
-6.56323
-6.62115
-6.67846
-6.73415
-6.78664
-6.83572
-6.88171
-6.92474
-6.96489
-7.00227
-7.0371
-7.06957
-7.09987
-7.12825
-6.27734
-6.31908
-6.3977
-6.47649
-6.54273
-6.60463
-6.66618
-6.72496
-6.77933
-6.82966
-6.87661
-6.92032
-6.96086
-6.99845
-7.03335
-7.06586
-7.09618
-7.12465
-6.19651
-6.25972
-6.3656
-6.45537
-6.52417
-6.58992
-6.65599
-6.71775
-6.77379
-6.82531
-6.87317
-6.91748
-6.95833
-6.99599
-7.03085
-7.06325
-7.09345
-7.12185
-6.10499
-6.20067
-6.34038
-6.43883
-6.50823
-6.57741
-6.64739
-6.71145
-6.7688
-6.82142
-6.87022
-6.9152
-6.95641
-6.99425
-7.02913
-7.06147
-7.09166
-7.12027
-6.00207
-6.14631
-6.31881
-6.42146
-6.49261
-6.56683
-6.64059
-6.70631
-6.76451
-6.81789
-6.86729
-6.9126
-6.95389
-6.99166
-7.02631
-7.05822
-7.08804
-7.11661
-5.87865
-6.11134
-6.30501
-6.39841
-6.47105
-6.55347
-6.63323
-6.70224
-6.76285
-6.81832
-6.86939
-6.91583
-6.95774
-6.99588
-7.03075
-7.0625
-7.09197
-7.12109
-5.69542
-6.10416
-6.32996
-6.4018
-6.46547
-6.54873
-6.62928
-6.69788
-6.75833
-6.81414
-6.86574
-6.91259
-6.95466
-6.99247
-7.02681
-7.05808
-7.08678
-7.1136
-5.43128
-6.03131
-6.32331
-6.40262
-6.47057
-6.55979
-6.64424
-6.71458
-6.77586
-6.83231
-6.88426
-6.9311
-6.97269
-7.00891
-7.04071
-7.06972
-7.09591
-7.11703
-8.06069
-8.06083
-8.06097
-8.06009
-8.05631
-8.04974
-8.04308
-8.03912
-8.03986
-8.04478
-8.05273
-8.06314
-8.07581
-8.0902
-8.10567
-8.12149
-8.13723
-8.15244
-8.16695
-8.18045
-8.19287
-8.20399
-8.21382
-8.22217
-8.22907
-8.23454
-8.23889
-8.24229
-8.24506
-8.24734
-8.24944
-8.25128
-8.25293
-8.25438
-8.25592
-8.25767
-8.25986
-8.26249
-8.26568
-8.26934
-8.27355
-8.27817
-8.28319
-8.28845
-8.29395
-8.29954
-8.3052
-8.31071
-8.31599
-8.32083
-8.32514
-8.32878
-8.33178
-8.33418
-8.3362
-8.33816
-8.34051
-8.34346
-8.34729
-8.35199
-8.35758
-8.36396
-8.37125
-8.37972
-8.38971
-8.40106
-8.41334
-8.42568
-8.43731
-8.44757
-8.45606
-8.46211
-8.46613
-8.46773
-8.47046
-8.48029
-8.50438
-8.55612
-8.64707
-8.78058
-8.95048
-9.14293
-9.34274
-9.53542
-9.71107
-9.86368
-9.9915
-10.0951
-10.1765
-10.2382
-10.283
-10.3133
-10.3317
-10.3401
-10.3401
-10.3327
-10.3189
-10.2992
-10.274
-10.2435
-10.208
-10.1676
-10.1219
-10.0711
-10.0149
-9.95309
-9.88534
-9.8117
-9.73189
-9.64611
-9.55417
-9.4563
-9.35225
-9.24249
-9.12726
-9.0073
-8.88235
-8.75246
-8.61725
-8.47708
-8.33191
-8.1822
-8.02726
-7.86698
-7.70053
-7.52818
-7.34948
-7.1654
-6.97612
-6.78333
-6.58741
-6.39048
-6.19336
-5.99821
-5.80576
-5.61799
-5.43449
-5.25518
-5.0783
-4.90256
-4.72641
-4.54813
-4.36632
-4.18011
-3.98994
-3.79735
-3.60612
-3.42113
-3.24845
-3.09331
-2.96002
-2.84931
-2.75731
-2.67351
-2.57975
-2.44904
-2.24755
-1.93627
-1.47487
-0.826749
0.0344496
1.11986
2.41967
3.90273
5.5183
7.20215
8.88365
10.4957
11.9843
13.3128
14.4608
15.4229
16.205
16.822
17.2949
17.641
17.8848
18.052
18.2119
18.354
-8.06471
-8.06538
-8.06688
-8.06713
-8.06397
-8.0593
-8.05694
-8.05821
-8.06243
-8.069
-8.0777
-8.08824
-8.10032
-8.11341
-8.12707
-8.14084
-8.15445
-8.16755
-8.17999
-8.19155
-8.20216
-8.21165
-8.22008
-8.2274
-8.23375
-8.23903
-8.24325
-8.24641
-8.24874
-8.25024
-8.25109
-8.25145
-8.25168
-8.25195
-8.25251
-8.25348
-8.25505
-8.25728
-8.26029
-8.26402
-8.26853
-8.27369
-8.27946
-8.28564
-8.29209
-8.29861
-8.30507
-8.31123
-8.31699
-8.32209
-8.32647
-8.32999
-8.33274
-8.33477
-8.33631
-8.33763
-8.33916
-8.34118
-8.34406
-8.34801
-8.35319
-8.35956
-8.36723
-8.37621
-8.38668
-8.39825
-8.41021
-8.42152
-8.4314
-8.43874
-8.44132
-8.44102
-8.44555
-8.45798
-8.47035
-8.47893
-8.50165
-8.56655
-8.68591
-8.854
-9.05375
-9.26472
-9.4696
-9.65624
-9.81835
-9.95385
-10.0638
-10.1507
-10.2177
-10.2676
-10.3029
-10.3258
-10.3385
-10.3427
-10.3395
-10.3299
-10.3144
-10.2935
-10.2675
-10.2365
-10.2009
-10.1608
-10.1156
-10.0654
-10.0099
-9.94875
-9.88186
-9.80894
-9.73002
-9.64505
-9.55399
-9.45674
-9.35325
-9.24354
-9.12805
-9.00719
-8.88144
-8.75089
-8.61558
-8.47562
-8.3311
-8.18204
-8.02812
-7.86883
-7.70381
-7.53285
-7.35586
-7.17314
-6.98534
-6.79315
-6.59739
-6.39949
-6.20081
-6.00299
-5.80748
-5.61599
-5.42885
-5.24572
-5.0657
-4.88762
-4.71011
-4.53118
-4.34925
-4.16325
-3.97316
-3.78007
-3.58732
-3.39975
-3.22343
-3.06404
-2.92648
-2.81254
-2.71955
-2.63824
-2.55184
-2.43451
-2.25273
-1.96723
-1.53701
-0.923757
-0.0988265
0.95147
2.21983
3.6766
5.2716
6.94061
8.61261
10.2198
11.7075
13.0391
14.1942
15.1679
15.9645
16.5945
17.0782
17.4364
17.6932
17.8721
18.03
18.1425
-8.06712
-8.06645
-8.0659
-8.06568
-8.06522
-8.06577
-8.06904
-8.07498
-8.08287
-8.09225
-8.10284
-8.11429
-8.12628
-8.13847
-8.15063
-8.16251
-8.17393
-8.18467
-8.19467
-8.20377
-8.21197
-8.21916
-8.2254
-8.23063
-8.23492
-8.23821
-8.24057
-8.24206
-8.24286
-8.24312
-8.24311
-8.24306
-8.24322
-8.2437
-8.24468
-8.24622
-8.24847
-8.25144
-8.25519
-8.25966
-8.26484
-8.27061
-8.27689
-8.28349
-8.29027
-8.29704
-8.30364
-8.30984
-8.31547
-8.32035
-8.32444
-8.32767
-8.33007
-8.33164
-8.33257
-8.3332
-8.33391
-8.33506
-8.33704
-8.34014
-8.3446
-8.35053
-8.35793
-8.36684
-8.37709
-8.38782
-8.39803
-8.40638
-8.41164
-8.41553
-8.42121
-8.43123
-8.45176
-8.49274
-8.55491
-8.63403
-8.73133
-8.85199
-8.99663
-9.15822
-9.32675
-9.49258
-9.64814
-9.7885
-9.91103
-10.015
-10.1009
-10.1701
-10.2244
-10.2655
-10.2946
-10.3133
-10.3234
-10.3262
-10.3223
-10.3125
-10.2973
-10.2772
-10.2524
-10.2228
-10.1885
-10.1494
-10.1054
-10.0563
-10.0019
-9.94207
-9.87658
-9.80492
-9.72735
-9.64364
-9.55384
-9.45768
-9.35524
-9.24644
-9.1317
-9.0111
-8.88529
-8.75434
-8.61855
-8.47813
-8.33351
-8.18427
-8.03054
-7.87151
-7.70707
-7.53705
-7.36168
-7.18074
-6.99495
-6.80415
-6.60959
-6.41178
-6.21237
-6.01269
-5.81455
-5.61938
-5.42835
-5.24126
-5.05787
-4.87763
-4.6992
-4.52102
-4.34131
-4.15893
-3.97317
-3.78477
-3.59617
-3.41173
-3.23659
-3.07649
-2.93626
-2.81859
-2.72187
-2.63866
-2.55387
-2.44392
-2.27689
-2.01441
-1.61485
-1.03799
-0.252032
0.760183
1.99477
3.42424
4.99927
6.65466
8.31828
9.92142
11.4087
12.7436
13.9061
14.8903
15.6991
16.3428
16.8395
17.2105
17.4792
17.6676
17.8163
17.8812
-8.07085
-8.06947
-8.06874
-8.07111
-8.07523
-8.0805
-8.08731
-8.09553
-8.10487
-8.11503
-8.1258
-8.1369
-8.14813
-8.15922
-8.17001
-8.18028
-8.18994
-8.19881
-8.20686
-8.21399
-8.22021
-8.22547
-8.22982
-8.23322
-8.23576
-8.23742
-8.23835
-8.23863
-8.23847
-8.23799
-8.23742
-8.2369
-8.23667
-8.23686
-8.23765
-8.23914
-8.24146
-8.24466
-8.24878
-8.25376
-8.25955
-8.26598
-8.27289
-8.28005
-8.28727
-8.29428
-8.30089
-8.30692
-8.31219
-8.31657
-8.31999
-8.32244
-8.32399
-8.32472
-8.32496
-8.32512
-8.32554
-8.32641
-8.32798
-8.33046
-8.33402
-8.33871
-8.34454
-8.35134
-8.35865
-8.36577
-8.3722
-8.37905
-8.3877
-8.39939
-8.4189
-8.45544
-8.51703
-8.60522
-8.71567
-8.83898
-8.96711
-9.09826
-9.2331
-9.37008
-9.50615
-9.63761
-9.76074
-9.8726
-9.97129
-10.056
-10.1268
-10.1843
-10.2298
-10.2644
-10.2891
-10.3052
-10.3137
-10.3155
-10.3114
-10.3019
-10.2873
-10.2681
-10.2446
-10.2167
-10.1838
-10.1459
-10.1031
-10.0551
-10.0017
-9.94292
-9.87856
-9.8083
-9.73207
-9.64971
-9.56111
-9.46607
-9.36459
-9.2567
-9.14253
-9.02242
-8.89675
-8.76576
-8.62961
-8.48852
-8.34305
-8.19297
-8.03833
-7.87876
-7.71404
-7.54422
-7.36953
-7.18981
-7.00515
-6.81553
-6.62194
-6.42458
-6.22458
-6.02317
-5.82221
-5.62298
-5.42683
-5.23435
-5.04577
-4.86118
-4.67984
-4.50074
-4.32238
-4.14365
-3.96357
-3.78253
-3.60198
-3.42512
-3.256
-3.09956
-2.95991
-2.83992
-2.73865
-2.65011
-2.56115
-2.45085
-2.28969
-2.0412
-1.66371
-1.11574
-0.362196
0.617706
1.8242
3.23231
4.7933
6.44032
8.09977
9.70246
11.1931
12.5345
13.7054
14.6972
15.5117
16.16
16.6598
17.032
17.3
17.4831
17.6114
17.6314
-8.07662
-8.07621
-8.07807
-8.0831
-8.08979
-8.09767
-8.10642
-8.1158
-8.12574
-8.13605
-8.14656
-8.15704
-8.16737
-8.17735
-8.18687
-8.19576
-8.20395
-8.21129
-8.21778
-8.22333
-8.22794
-8.23159
-8.23433
-8.23614
-8.23713
-8.23732
-8.23688
-8.23592
-8.23468
-8.23332
-8.23206
-8.23106
-8.23054
-8.23064
-8.23153
-8.2333
-8.23602
-8.23967
-8.24423
-8.24961
-8.25572
-8.26238
-8.26945
-8.2767
-8.28393
-8.29091
-8.29744
-8.30329
-8.3083
-8.31232
-8.31529
-8.31717
-8.31809
-8.31828
-8.31806
-8.31763
-8.31714
-8.31676
-8.31678
-8.31749
-8.31914
-8.32177
-8.32559
-8.33043
-8.33571
-8.34168
-8.34984
-8.36311
-8.38565
-8.42103
-8.47452
-8.54993
-8.64681
-8.75889
-8.87981
-9.00484
-9.13056
-9.25598
-9.38064
-9.50325
-9.62177
-9.73402
-9.83787
-9.93163
-10.0142
-10.0851
-10.1447
-10.1933
-10.2319
-10.2614
-10.2829
-10.2972
-10.3049
-10.3065
-10.3028
-10.2941
-10.2808
-10.263
-10.2408
-10.2142
-10.1828
-10.1465
-10.1051
-10.0586
-10.0065
-9.94883
-9.88545
-9.81656
-9.74159
-9.66048
-9.57291
-9.479
-9.37853
-9.27167
-9.15828
-9.03897
-8.91379
-8.78311
-8.64683
-8.50541
-8.35893
-8.20794
-8.05203
-7.89175
-7.72667
-7.55701
-7.38234
-7.20317
-7.01889
-6.83034
-6.63738
-6.44092
-6.241
-6.03899
-5.83612
-5.63387
-5.43323
-5.23562
-5.04163
-4.85175
-4.66633
-4.48483
-4.3066
-4.13043
-3.95602
-3.78317
-3.61272
-3.44627
-3.28698
-3.13803
-3.00291
-2.88359
-2.77965
-2.68584
-2.59108
-2.4767
-2.31616
-2.07489
-1.71246
-1.18648
-0.459484
0.493421
1.67625
3.06698
4.61713
6.25903
7.91798
9.52454
11.0233
12.375
13.5558
14.5554
15.3751
16.0265
16.5267
16.8966
17.1582
17.328
17.4297
17.4088
-8.08141
-8.08283
-8.08873
-8.09608
-8.10417
-8.11313
-8.12264
-8.13247
-8.14254
-8.15268
-8.16279
-8.17269
-8.18229
-8.19142
-8.2
-8.20787
-8.21499
-8.22124
-8.22661
-8.23101
-8.23446
-8.23691
-8.23844
-8.23903
-8.23882
-8.23792
-8.23648
-8.23461
-8.23251
-8.23037
-8.22844
-8.22691
-8.226
-8.22586
-8.22667
-8.22846
-8.23129
-8.23508
-8.23977
-8.24524
-8.25139
-8.25804
-8.26506
-8.27222
-8.27932
-8.28614
-8.29253
-8.29831
-8.30326
-8.30708
-8.30971
-8.31111
-8.31135
-8.31062
-8.30917
-8.30716
-8.30481
-8.30244
-8.30055
-8.2997
-8.30022
-8.3018
-8.30425
-8.30772
-8.31262
-8.32075
-8.33656
-8.36496
-8.41129
-8.47812
-8.56451
-8.66568
-8.77656
-8.89326
-9.01262
-9.13294
-9.25269
-9.37074
-9.48591
-9.59684
-9.70202
-9.79998
-9.8896
-9.9701
-10.041
-10.102
-10.1535
-10.196
-10.2299
-10.2563
-10.2756
-10.2886
-10.2959
-10.2978
-10.295
-10.2877
-10.276
-10.26
-10.2396
-10.2147
-10.1851
-10.1505
-10.1109
-10.0659
-10.0154
-9.95906
-9.89694
-9.82902
-9.75507
-9.67486
-9.58831
-9.49533
-9.39595
-9.29006
-9.1778
-9.05941
-8.9351
-8.80497
-8.66912
-8.52772
-8.3811
-8.2296
-8.07329
-7.91258
-7.74744
-7.57767
-7.40314
-7.22401
-7.04038
-6.85261
-6.66065
-6.46505
-6.26599
-6.0643
-5.86106
-5.65728
-5.45415
-5.25301
-5.05487
-4.86055
-4.6709
-4.48625
-4.30667
-4.1315
-3.96078
-3.79438
-3.63255
-3.4761
-3.32679
-3.18653
-3.05768
-2.9414
-2.83713
-2.74033
-2.6414
-2.52376
-2.36339
-2.12789
-1.77826
-1.27188
-0.569323
0.357974
1.51752
2.88995
4.42762
6.06313
7.72159
9.33357
10.8416
12.2037
13.3941
14.4018
15.228
15.8839
16.3863
16.7552
17.0112
17.1683
17.2467
17.1956
-8.08455
-8.08852
-8.09695
-8.10521
-8.11382
-8.12321
-8.13307
-8.14309
-8.15315
-8.16311
-8.17289
-8.18236
-8.19144
-8.19997
-8.20791
-8.21511
-8.22154
-8.22709
-8.23176
-8.23544
-8.23816
-8.23989
-8.24067
-8.24054
-8.23966
-8.23808
-8.23598
-8.23348
-8.23081
-8.22814
-8.22574
-8.22381
-8.2226
-8.22224
-8.22289
-8.22459
-8.22731
-8.23095
-8.23542
-8.24059
-8.24641
-8.25274
-8.25944
-8.26628
-8.27305
-8.27945
-8.2853
-8.29035
-8.29452
-8.2978
-8.30012
-8.30109
-8.30048
-8.29845
-8.29539
-8.29154
-8.28741
-8.2836
-8.28054
-8.27835
-8.27714
-8.27693
-8.2777
-8.27999
-8.28587
-8.29939
-8.32712
-8.3748
-8.44431
-8.53273
-8.63501
-8.74622
-8.86215
-8.98048
-9.09927
-9.21707
-9.33255
-9.44458
-9.55212
-9.65407
-9.74938
-9.83723
-9.91704
-9.98845
-10.0513
-10.1057
-10.1518
-10.1901
-10.2213
-10.2457
-10.2641
-10.277
-10.2848
-10.2879
-10.2866
-10.2811
-10.2715
-10.2576
-10.2393
-10.2166
-10.1891
-10.1565
-10.1189
-10.0757
-10.0269
-9.97217
-9.91151
-9.84468
-9.77177
-9.69247
-9.60697
-9.51501
-9.4168
-9.31205
-9.20107
-9.08381
-8.96062
-8.83141
-8.69653
-8.5558
-8.40982
-8.25857
-8.10261
-7.94192
-7.77691
-7.6071
-7.43296
-7.25425
-7.07154
-6.88459
-6.69383
-6.4991
-6.30108
-6.10004
-5.89718
-5.69305
-5.48888
-5.28587
-5.08513
-4.88784
-4.69481
-4.50713
-4.32523
-4.14947
-3.97996
-3.81703
-3.66055
-3.51114
-3.36942
-3.23665
-3.11387
-3.00174
-2.89904
-2.80192
-2.70155
-2.58331
-2.42498
-2.19621
-1.85906
-1.37139
-0.692226
0.209582
1.34491
2.69694
4.21958
5.84615
7.50231
9.11732
10.6315
12.0009
13.1986
14.213
15.0453
15.7061
16.2117
16.5811
16.8333
16.9811
17.0426
16.9729
-8.08198
-8.08772
-8.09673
-8.10587
-8.11552
-8.12569
-8.13605
-8.14635
-8.15651
-8.1664
-8.176
-8.18519
-8.19393
-8.20212
-8.20971
-8.21659
-8.22272
-8.22797
-8.23235
-8.23575
-8.2382
-8.23964
-8.24015
-8.23976
-8.23861
-8.2367
-8.23422
-8.23135
-8.22833
-8.22533
-8.2226
-8.22032
-8.21875
-8.21803
-8.21833
-8.21968
-8.22208
-8.22539
-8.2295
-8.23433
-8.23986
-8.24594
-8.25239
-8.25894
-8.26536
-8.27131
-8.27655
-8.28085
-8.28424
-8.28672
-8.28803
-8.28768
-8.28555
-8.2819
-8.27697
-8.27112
-8.26497
-8.25892
-8.25322
-8.24802
-8.24358
-8.24013
-8.23809
-8.23953
-8.24906
-8.27237
-8.31438
-8.37715
-8.45923
-8.55696
-8.66554
-8.78082
-8.89955
-9.01949
-9.13875
-9.25571
-9.36909
-9.47771
-9.58054
-9.67672
-9.76575
-9.84732
-9.92113
-9.98701
-10.045
-10.0953
-10.1383
-10.1745
-10.2043
-10.2284
-10.247
-10.2607
-10.2699
-10.2748
-10.2756
-10.2725
-10.2653
-10.254
-10.2383
-10.218
-10.1929
-10.1628
-10.1273
-10.0863
-10.0396
-9.98683
-9.92788
-9.86264
-9.79103
-9.71307
-9.62879
-9.53821
-9.44131
-9.33804
-9.22843
-9.11259
-8.99064
-8.86271
-8.72894
-8.58942
-8.44436
-8.29399
-8.1386
-7.97831
-7.81337
-7.64382
-7.46991
-7.29178
-7.10966
-6.92351
-6.73345
-6.53958
-6.34235
-6.14219
-5.9399
-5.73614
-5.53189
-5.32823
-5.12633
-4.92735
-4.7323
-4.54231
-4.35838
-4.18135
-4.01177
-3.8501
-3.6964
-3.55106
-3.41434
-3.28693
-3.1692
-3.06121
-2.96137
-2.86595
-2.76683
-2.65061
-2.49645
-2.27538
-1.95037
-1.47967
-0.821248
0.0575483
1.16964
2.5001
4.00566
5.62092
7.27106
8.8838
10.3983
11.7697
12.9705
13.9888
14.8253
15.4902
15.9993
16.37
16.6204
16.7622
16.813
16.7335
-8.06832
-8.07445
-8.08477
-8.09634
-8.1081
-8.11975
-8.1311
-8.14202
-8.1525
-8.16251
-8.17208
-8.18118
-8.18981
-8.1979
-8.20542
-8.21227
-8.21838
-8.22367
-8.2281
-8.23159
-8.23414
-8.23572
-8.23639
-8.23615
-8.23511
-8.23332
-8.23098
-8.22818
-8.22513
-8.222
-8.21902
-8.21636
-8.21424
-8.21282
-8.21229
-8.21271
-8.21419
-8.21671
-8.22029
-8.22483
-8.2302
-8.23615
-8.24247
-8.24887
-8.25514
-8.26103
-8.26633
-8.27078
-8.27405
-8.27538
-8.27424
-8.27087
-8.26587
-8.25938
-8.25142
-8.24219
-8.23209
-8.22135
-8.21017
-8.19885
-8.18818
-8.17946
-8.17495
-8.1785
-8.19483
-8.22802
-8.28064
-8.35301
-8.44276
-8.54598
-8.65843
-8.77655
-8.89752
-9.01907
-9.13918
-9.2562
-9.36869
-9.47534
-9.57534
-9.66831
-9.75404
-9.83229
-9.90289
-9.96589
-10.0215
-10.0701
-10.112
-10.1477
-10.1778
-10.2027
-10.2229
-10.2384
-10.2497
-10.257
-10.2606
-10.2604
-10.2563
-10.2481
-10.2355
-10.2183
-10.1961
-10.1688
-10.136
-10.0976
-10.0533
-10.0029
-9.94609
-9.88291
-9.8131
-9.73691
-9.65421
-9.56529
-9.46991
-9.36824
-9.26006
-9.14564
-9.02485
-8.89802
-8.76504
-8.62641
-8.48203
-8.33241
-8.17744
-8.01755
-7.85266
-7.68336
-7.50953
-7.33176
-7.14987
-6.96429
-6.77475
-6.58176
-6.38535
-6.18625
-5.98488
-5.78203
-5.57849
-5.37525
-5.17341
-4.97397
-4.77806
-4.5867
-4.40125
-4.22278
-4.05236
-3.8904
-3.73744
-3.5937
-3.45964
-3.33538
-3.22126
-3.11667
-3.02006
-2.92737
-2.8312
-2.71863
-2.56989
-2.35677
-2.04315
-1.58729
-0.946778
-0.0878403
1.00375
2.31454
3.80224
5.40271
7.04117
8.64494
10.1527
11.5195
12.7179
13.7358
14.5737
15.2413
15.7531
16.1258
16.376
16.5152
16.5602
16.4776
-8.04192
-8.0484
-8.06194
-8.07749
-8.09237
-8.10619
-8.11901
-8.13086
-8.14188
-8.15218
-8.16188
-8.17102
-8.17969
-8.18786
-8.19549
-8.20248
-8.2088
-8.21435
-8.21911
-8.22299
-8.22599
-8.22807
-8.2293
-8.22965
-8.22921
-8.22807
-8.22638
-8.22421
-8.22175
-8.21913
-8.21655
-8.21411
-8.21201
-8.21034
-8.20927
-8.2089
-8.20939
-8.21089
-8.21353
-8.21724
-8.22186
-8.22712
-8.23278
-8.23857
-8.2443
-8.24967
-8.25429
-8.25762
-8.25899
-8.25774
-8.25365
-8.24704
-8.23824
-8.22716
-8.21388
-8.19857
-8.18141
-8.16263
-8.14269
-8.12259
-8.10413
-8.08996
-8.08374
-8.09
-8.11298
-8.15532
-8.21784
-8.29916
-8.39602
-8.50437
-8.62047
-8.74126
-8.86421
-8.98705
-9.10787
-9.22496
-9.33678
-9.44225
-9.54094
-9.63263
-9.71704
-9.79397
-9.86343
-9.92563
-9.9809
-10.0296
-10.0721
-10.109
-10.1406
-10.1677
-10.1903
-10.2086
-10.2229
-10.2335
-10.2407
-10.2443
-10.2441
-10.2397
-10.231
-10.2174
-10.1988
-10.1749
-10.1454
-10.1101
-10.0687
-10.0209
-9.96667
-9.90576
-9.83817
-9.76391
-9.68305
-9.59563
-9.50162
-9.40105
-9.29393
-9.18033
-9.06032
-8.93397
-8.80147
-8.66313
-8.51915
-8.36978
-8.21518
-8.05553
-7.891
-7.72191
-7.54842
-7.37082
-7.18924
-7.00395
-6.81496
-6.62255
-6.42694
-6.22866
-6.0282
-5.82625
-5.62358
-5.42107
-5.21966
-5.02034
-4.82421
-4.63241
-4.44618
-4.26669
-4.09514
-3.93232
-3.77894
-3.63552
-3.5026
-3.38028
-3.26877
-3.16717
-3.0738
-2.98438
-2.89174
-2.78314
-2.63929
-2.43255
-2.1275
-1.68249
-1.05521
-0.211874
0.861834
2.1534
3.62147
5.20302
6.82367
8.41118
9.90459
11.2598
12.4496
13.4625
14.2983
14.9663
15.48
15.8548
16.1062
16.2454
16.2886
16.2076
-8.00576
-8.01364
-8.03184
-8.05226
-8.07074
-8.08703
-8.1015
-8.11441
-8.12606
-8.13669
-8.14656
-8.15582
-8.16461
-8.17293
-8.18076
-8.188
-8.19465
-8.20064
-8.20595
-8.21048
-8.21422
-8.21712
-8.21923
-8.22055
-8.22116
-8.22113
-8.22061
-8.21969
-8.21855
-8.21728
-8.21604
-8.21489
-8.21397
-8.21333
-8.21304
-8.21316
-8.21381
-8.21506
-8.21709
-8.21991
-8.22346
-8.22748
-8.2317
-8.23581
-8.23955
-8.24262
-8.24462
-8.24484
-8.24261
-8.23745
-8.22923
-8.21775
-8.2029
-8.18469
-8.16339
-8.13919
-8.11227
-8.08302
-8.05244
-8.02234
-7.99578
-7.97682
-7.97029
-7.98096
-8.01204
-8.06438
-8.13674
-8.22615
-8.32883
-8.44104
-8.55959
-8.68187
-8.8057
-8.92907
-9.05005
-9.16687
-9.27817
-9.38321
-9.48169
-9.57326
-9.65763
-9.73468
-9.80453
-9.86751
-9.92401
-9.97439
-10.0189
-10.0579
-10.0923
-10.1225
-10.1489
-10.1713
-10.1897
-10.2048
-10.2168
-10.2253
-10.2299
-10.2302
-10.2259
-10.2166
-10.2022
-10.1821
-10.1562
-10.124
-10.0856
-10.0405
-9.98862
-9.9298
-9.86418
-9.79157
-9.71222
-9.62589
-9.5328
-9.43283
-9.32626
-9.21299
-9.09336
-8.96724
-8.83509
-8.69692
-8.55327
-8.40406
-8.24982
-8.0904
-7.92632
-7.75751
-7.58453
-7.40727
-7.22623
-7.04126
-6.85286
-6.66096
-6.46611
-6.26853
-6.06891
-5.86779
-5.66594
-5.46417
-5.26328
-5.06431
-4.86818
-4.67622
-4.4895
-4.30945
-4.13713
-3.97383
-3.82022
-3.67736
-3.54554
-3.42531
-3.31642
-3.21802
-3.12792
-3.04176
-2.95205
-2.84628
-2.70501
-2.50144
-2.20042
-1.76105
-1.14154
-0.309287
0.749643
2.02275
3.46968
5.02806
6.62483
8.18885
9.66072
10.9974
12.1729
13.1759
14.0063
14.6722
15.1865
15.5631
15.8166
15.9577
16.0022
15.9261
-7.96576
-7.97555
-7.9988
-8.02414
-8.04619
-8.06492
-8.08102
-8.09493
-8.10713
-8.11803
-8.12803
-8.1374
-8.14631
-8.15478
-8.1628
-8.17034
-8.17742
-8.18396
-8.18996
-8.19531
-8.20001
-8.20399
-8.20728
-8.20989
-8.21192
-8.21339
-8.21445
-8.21521
-8.21584
-8.21641
-8.21708
-8.21791
-8.21899
-8.22035
-8.22201
-8.22397
-8.22627
-8.22888
-8.23186
-8.23518
-8.23873
-8.24229
-8.24561
-8.24831
-8.25001
-8.25034
-8.2489
-8.24502
-8.23798
-8.22713
-8.21208
-8.19264
-8.16889
-8.14103
-8.10947
-8.07451
-8.03653
-7.99619
-7.95501
-7.9158
-7.88296
-7.8613
-7.85557
-7.87088
-7.9099
-7.97088
-8.05038
-8.14473
-8.25038
-8.36413
-8.48321
-8.60524
-8.72841
-8.8511
-8.97138
-9.08745
-9.19819
-9.30309
-9.40177
-9.49383
-9.57895
-9.65704
-9.72828
-9.79311
-9.85201
-9.90535
-9.95319
-9.99567
-10.0338
-10.0688
-10.1006
-10.129
-10.1539
-10.1752
-10.1927
-10.2064
-10.2158
-10.2207
-10.2207
-10.2156
-10.2049
-10.1885
-10.1659
-10.1369
-10.1011
-10.0583
-10.0085
-9.9515
-9.88736
-9.81613
-9.73784
-9.65253
-9.5602
-9.46095
-9.35486
-9.24207
-9.12275
-8.99704
-8.86517
-8.72738
-8.58398
-8.43516
-8.28119
-8.12221
-7.95851
-7.79021
-7.61764
-7.44092
-7.26033
-7.07594
-6.88809
-6.6969
-6.50274
-6.30596
-6.10715
-5.90685
-5.7058
-5.50474
-5.3045
-5.10599
-4.91022
-4.71835
-4.53163
-4.35145
-4.1791
-4.01597
-3.86296
-3.72128
-3.59126
-3.4734
-3.36727
-3.27174
-3.18422
-3.10001
-3.0114
-2.90576
-2.76384
-2.5593
-2.25739
-1.81805
-1.20095
-0.37521
0.671967
1.92751
3.35161
4.88267
6.44951
7.98308
9.42648
10.7384
11.8941
12.8828
13.7043
14.3658
14.8791
15.2571
15.513
15.6572
15.705
15.6362
-7.92791
-7.9394
-7.96732
-7.99711
-8.02228
-8.04307
-8.06047
-8.0751
-8.08763
-8.09863
-8.10866
-8.11804
-8.12699
-8.13553
-8.14373
-8.15158
-8.15911
-8.16626
-8.173
-8.17927
-8.18506
-8.19031
-8.19504
-8.19926
-8.20303
-8.20638
-8.20944
-8.21229
-8.21507
-8.21789
-8.22087
-8.2241
-8.22766
-8.23157
-8.23588
-8.24052
-8.24549
-8.2507
-8.25607
-8.26144
-8.26661
-8.27131
-8.2752
-8.27782
-8.27865
-8.27706
-8.27245
-8.2641
-8.25132
-8.23347
-8.21021
-8.18151
-8.14776
-8.10952
-8.06748
-8.02216
-7.97408
-7.92396
-7.87336
-7.82559
-7.7865
-7.76244
-7.75858
-7.77789
-7.81986
-7.8815
-7.96009
-8.05288
-8.15712
-8.27004
-8.38901
-8.51147
-8.63502
-8.75747
-8.87692
-8.99195
-9.10189
-9.20641
-9.30523
-9.39795
-9.48416
-9.56374
-9.63695
-9.70435
-9.76667
-9.82443
-9.87782
-9.92696
-9.97218
-10.0137
-10.0518
-10.0864
-10.1176
-10.1448
-10.1674
-10.1856
-10.1993
-10.2083
-10.2122
-10.2107
-10.2035
-10.1903
-10.1708
-10.1446
-10.1114
-10.0711
-10.0233
-9.96823
-9.90565
-9.83586
-9.75873
-9.67454
-9.58315
-9.48478
-9.37934
-9.2672
-9.1483
-9.02312
-8.89161
-8.75434
-8.61126
-8.46294
-8.30931
-8.15091
-7.98762
-7.81999
-7.64789
-7.47185
-7.29172
-7.10805
-6.92073
-6.73027
-6.53673
-6.3407
-6.14256
-5.94297
-5.74258
-5.54211
-5.34246
-5.14444
-4.94921
-4.75778
-4.57165
-4.39206
-4.22064
-4.05863
-3.90734
-3.7677
-3.64027
-3.52501
-3.42143
-3.3278
-3.24131
-3.15677
-3.06655
-2.9576
-2.81143
-2.60144
-2.29379
-1.84912
-1.22963
-0.406377
0.631403
1.86996
3.26916
4.76879
6.29981
7.79655
9.20499
10.4865
11.6175
12.5879
13.3974
14.0523
14.563
14.9415
15.1999
15.3479
15.4002
15.3401
-7.89763
-7.91019
-7.94179
-7.97505
-8.00249
-8.02464
-8.04276
-8.05766
-8.07016
-8.08103
-8.09092
-8.10017
-8.10903
-8.11757
-8.1259
-8.13404
-8.142
-8.14974
-8.15726
-8.16447
-8.17141
-8.17801
-8.18432
-8.19032
-8.19607
-8.20158
-8.20694
-8.21221
-8.21753
-8.22298
-8.22869
-8.23473
-8.24123
-8.24819
-8.25566
-8.26357
-8.27189
-8.28043
-8.28904
-8.29741
-8.30521
-8.312
-8.31727
-8.32043
-8.32083
-8.31772
-8.31039
-8.29805
-8.28001
-8.25566
-8.2248
-8.1876
-8.14475
-8.09716
-8.04581
-7.99131
-7.93418
-7.87544
-7.81742
-7.76433
-7.72235
-7.6973
-7.69278
-7.7086
-7.74326
-7.79612
-7.86619
-7.95164
-8.05018
-8.15922
-8.27611
-8.39799
-8.52169
-8.64408
-8.76309
-8.87765
-8.98734
-9.09195
-9.19136
-9.28534
-9.37379
-9.45673
-9.53439
-9.60704
-9.67506
-9.73886
-9.79889
-9.85546
-9.90816
-9.95622
-9.99978
-10.0395
-10.0754
-10.1071
-10.1344
-10.1571
-10.1752
-10.1883
-10.1962
-10.1985
-10.195
-10.1852
-10.1688
-10.1456
-10.1153
-10.0775
-10.0322
-9.97912
-9.91843
-9.85017
-9.7745
-9.69154
-9.60135
-9.50396
-9.39944
-9.28797
-9.16976
-9.04509
-8.91417
-8.77734
-8.63482
-8.48693
-8.33385
-8.1759
-8.01322
-7.84612
-7.67468
-7.49923
-7.31981
-7.13675
-6.95012
-6.76028
-6.56742
-6.37205
-6.17455
-5.9756
-5.77581
-5.57595
-5.37688
-5.17954
-4.98507
-4.79463
-4.60969
-4.43162
-4.26209
-4.10231
-3.95365
-3.81679
-3.69202
-3.57905
-3.47675
-3.3832
-3.29508
-3.20726
-3.11198
-2.99627
-2.84193
-2.6222
-2.30403
-1.8494
-1.22323
-0.399219
0.631064
1.85247
3.22437
4.68819
6.17786
7.63183
8.99959
10.2455
11.3475
12.2961
13.0906
13.7366
14.2432
14.6212
14.8815
15.0335
15.091
15.04
-7.87926
-7.89212
-7.92585
-7.96121
-7.98983
-8.01244
-8.03056
-8.04519
-8.05729
-8.06775
-8.07726
-8.08621
-8.09485
-8.10332
-8.11172
-8.1201
-8.12848
-8.13681
-8.1451
-8.15328
-8.16137
-8.16934
-8.17721
-8.18497
-8.19265
-8.20026
-8.20789
-8.21557
-8.22342
-8.23152
-8.24001
-8.24895
-8.25847
-8.26859
-8.27933
-8.29062
-8.30236
-8.31434
-8.32628
-8.33779
-8.34841
-8.35754
-8.36455
-8.36869
-8.36921
-8.36527
-8.35607
-8.34079
-8.31874
-8.28939
-8.25259
-8.2086
-8.15823
-8.1025
-8.04261
-7.9797
-7.91516
-7.85111
-7.79069
-7.7377
-7.69552
-7.66708
-7.65494
-7.6605
-7.68415
-7.72599
-7.78529
-7.86078
-7.95047
-8.05168
-8.16139
-8.27688
-8.3954
-8.51422
-8.63097
-8.74446
-8.85418
-8.95997
-9.06153
-9.15865
-9.25132
-9.33963
-9.42357
-9.50299
-9.57772
-9.64785
-9.71371
-9.77574
-9.83363
-9.88701
-9.93595
-9.9808
-10.0217
-10.0583
-10.0906
-10.1181
-10.141
-10.1586
-10.1709
-10.1774
-10.1779
-10.1718
-10.159
-10.139
-10.1118
-10.0768
-10.0341
-9.98336
-9.92477
-9.85826
-9.78425
-9.70268
-9.61384
-9.51755
-9.4141
-9.30343
-9.18607
-9.062
-8.93183
-8.79553
-8.65371
-8.5063
-8.35392
-8.19647
-8.03452
-7.86794
-7.6973
-7.52241
-7.34382
-7.16136
-6.97553
-6.78633
-6.59426
-6.3996
-6.20289
-6.00471
-5.80573
-5.60677
-5.40868
-5.21258
-5.01953
-4.83092
-4.64807
-4.47256
-4.30588
-4.1492
-4.00357
-3.86946
-3.74654
-3.63445
-3.5312
-3.43512
-3.34227
-3.2481
-3.14439
-3.01872
-2.85228
-2.6188
-2.28561
-1.81712
-1.18064
-0.353334
0.670722
1.87389
3.21559
4.63897
6.08223
7.48814
8.81056
10.0165
11.0861
12.0098
12.7869
13.4219
13.9228
14.299
14.5606
14.7162
14.779
14.7371
-7.87433
-7.88776
-7.92172
-7.95731
-7.98579
-8.00783
-8.02511
-8.03879
-8.05
-8.05971
-8.06862
-8.0771
-8.08545
-8.09382
-8.10233
-8.111
-8.11985
-8.12884
-8.13796
-8.14718
-8.15649
-8.16583
-8.1752
-8.18456
-8.19393
-8.20329
-8.21273
-8.2223
-8.23213
-8.24233
-8.25305
-8.26439
-8.27644
-8.28924
-8.3028
-8.31703
-8.3318
-8.34683
-8.36181
-8.37625
-8.38959
-8.40112
-8.4101
-8.41564
-8.41689
-8.41292
-8.40287
-8.38591
-8.36138
-8.32878
-8.288
-8.23926
-8.18337
-8.12142
-8.05505
-7.9862
-7.91723
-7.85048
-7.78863