/*--------------------------------*- C++ -*----------------------------------*\
| =========                 |                                                 |
| \\      /  F ield         | OpenFOAM: The Open Source CFD Toolbox           |
|  \\    /   O peration     | Version:  2406                                  |
|   \\  /    A nd           | Website:  www.openfoam.com                      |
|    \\/     M anipulation  |                                                 |
\*---------------------------------------------------------------------------*/
FoamFile
{
    version     2.0;
    format      ascii;
    arch        "LSB;label=32;scalar=64";
    class       surfaceScalarField;
    location    "200";
    object      phi;
}
// * * * * * * * * * * * * * * * * * * * * * * * * * * * * * * * * * * * * * //

dimensions      [0 3 -1 0 0 0 0];

oriented        oriented;

internalField   nonuniform List<scalar> 
24170
(
3.05748e-06
1.30931e-07
2.91691e-06
1.40572e-07
2.79054e-06
1.26381e-07
2.6768e-06
1.13746e-07
2.57492e-06
1.01879e-07
2.48509e-06
8.98392e-08
2.40688e-06
7.82147e-08
2.33929e-06
6.75956e-08
2.2809e-06
5.83971e-08
2.23014e-06
5.07606e-08
2.18592e-06
4.42251e-08
2.14749e-06
3.84341e-08
2.11433e-06
3.31665e-08
2.08609e-06
2.82441e-08
2.06266e-06
2.34277e-08
2.0445e-06
1.81697e-08
2.0329e-06
1.16053e-08
-1.35129e-09
2.03425e-06
3.47471e-06
7.34755e-08
3.50629e-06
1.08995e-07
3.52233e-06
1.10349e-07
3.52596e-06
1.10118e-07
3.51978e-06
1.08066e-07
3.50652e-06
1.03102e-07
3.48838e-06
9.63645e-08
3.46695e-06
8.90295e-08
3.44366e-06
8.16946e-08
3.41977e-06
7.46549e-08
3.39599e-06
6.801e-08
3.37273e-06
6.16939e-08
3.35029e-06
5.56107e-08
3.32892e-06
4.96257e-08
3.30882e-06
4.35287e-08
3.29024e-06
3.67508e-08
3.27312e-06
2.87319e-08
1.74214e-08
3.25435e-06
3.68235e-06
5.36465e-08
3.69973e-06
9.16185e-08
3.71384e-06
9.62356e-08
3.7261e-06
9.78695e-08
3.73612e-06
9.80409e-08
3.74381e-06
9.54237e-08
3.74928e-06
9.08958e-08
3.75272e-06
8.55895e-08
3.7544e-06
8.00206e-08
3.75464e-06
7.44159e-08
3.75377e-06
6.88829e-08
3.75205e-06
6.34202e-08
3.74969e-06
5.7975e-08
3.74687e-06
5.24399e-08
3.74376e-06
4.6641e-08
3.74037e-06
4.01499e-08
3.7363e-06
3.27983e-08
2.37e-08
3.73003e-06
3.93673e-06
4.23077e-08
3.94875e-06
7.95965e-08
3.95821e-06
8.67818e-08
3.96665e-06
8.9437e-08
3.9743e-06
9.03927e-08
3.98108e-06
8.865e-08
3.98701e-06
8.49665e-08
3.99217e-06
8.0431e-08
3.99663e-06
7.55691e-08
4.00046e-06
7.05918e-08
4.00376e-06
6.558e-08
4.00664e-06
6.05514e-08
4.00915e-06
5.54609e-08
4.01137e-06
5.02231e-08
4.01332e-06
4.46971e-08
4.01485e-06
3.86244e-08
4.01568e-06
3.19668e-08
2.4504e-08
4.01488e-06
4.21529e-06
3.41453e-08
4.22543e-06
6.94631e-08
4.23347e-06
7.87427e-08
4.24059e-06
8.23197e-08
4.24717e-06
8.38127e-08
4.25316e-06
8.2664e-08
4.25855e-06
7.95741e-08
4.26343e-06
7.55533e-08
4.26787e-06
7.1137e-08
4.27193e-06
6.65353e-08
4.27567e-06
6.18371e-08
4.27915e-06
5.70698e-08
4.28241e-06
5.22062e-08
4.28546e-06
4.718e-08
4.28826e-06
4.18954e-08
4.29067e-06
3.62152e-08
4.29246e-06
3.01738e-08
2.38463e-08
4.29312e-06
4.5154e-06
2.78297e-08
4.52436e-06
6.051e-08
4.53181e-06
7.12944e-08
4.5385e-06
7.56385e-08
4.54474e-06
7.75727e-08
4.55048e-06
7.69285e-08
4.5557e-06
7.43561e-08
4.56047e-06
7.07831e-08
4.56487e-06
6.67415e-08
4.56896e-06
6.24466e-08
4.5728e-06
5.80045e-08
4.57642e-06
5.34539e-08
4.57983e-06
4.879e-08
4.58305e-06
4.39691e-08
4.586e-06
3.89408e-08
4.58857e-06
3.36499e-08
4.59057e-06
2.81781e-08
2.26909e-08
4.59173e-06
4.83773e-06
2.28232e-08
4.84573e-06
5.25124e-08
4.8528e-06
6.42235e-08
4.85928e-06
6.91587e-08
4.86542e-06
7.14371e-08
4.87112e-06
7.12309e-08
4.87635e-06
6.9127e-08
4.88117e-06
6.59701e-08
4.88563e-06
6.22783e-08
4.88981e-06
5.82743e-08
4.89373e-06
5.40784e-08
4.89745e-06
4.97434e-08
4.90095e-06
4.5287e-08
4.90423e-06
4.06909e-08
4.90723e-06
3.59433e-08
4.90984e-06
3.10435e-08
4.91192e-06
2.60941e-08
2.12645e-08
4.91335e-06
5.18359e-06
1.88112e-08
5.19074e-06
4.537e-08
5.19749e-06
5.74776e-08
5.20381e-06
6.28371e-08
5.2099e-06
6.53583e-08
5.21562e-06
6.55133e-08
5.22092e-06
6.38268e-08
5.22584e-06
6.10554e-08
5.23042e-06
5.76969e-08
5.23472e-06
5.39804e-08
5.23876e-06
5.00356e-08
5.24258e-06
4.59302e-08
5.24617e-06
4.1701e-08
5.2495e-06
3.73554e-08
5.25254e-06
3.29105e-08
5.25518e-06
2.83998e-08
5.25735e-06
2.39283e-08
1.9641e-08
5.25898e-06
5.55458e-06
1.55692e-08
5.56094e-06
3.90093e-08
5.56738e-06
5.10427e-08
5.57356e-06
5.66619e-08
5.57958e-06
5.93375e-08
5.58532e-06
5.97752e-08
5.5907e-06
5.84522e-08
5.59572e-06
5.6033e-08
5.60043e-06
5.29895e-08
5.60486e-06
4.95569e-08
5.60903e-06
4.58702e-08
5.61295e-06
4.20108e-08
5.61662e-06
3.80306e-08
5.62002e-06
3.39592e-08
5.6231e-06
2.98332e-08
5.62579e-06
2.57055e-08
5.62805e-06
2.16731e-08
1.78507e-08
5.62984e-06
5.95242e-06
1.29258e-08
5.95807e-06
3.33626e-08
5.96419e-06
4.49267e-08
5.97022e-06
5.06349e-08
5.97618e-06
5.33857e-08
5.98192e-06
5.40314e-08
5.98736e-06
5.30189e-08
5.99248e-06
5.09196e-08
5.9973e-06
4.8173e-08
6.00184e-06
4.5019e-08
6.00611e-06
4.15964e-08
6.01013e-06
3.79968e-08
6.01388e-06
3.42841e-08
6.01733e-06
3.05046e-08
6.02046e-06
2.6707e-08
6.02322e-06
2.29524e-08
6.02557e-06
1.93255e-08
1.59137e-08
6.0275e-06
6.37899e-06
1.07474e-08
6.384e-06
2.83537e-08
6.3898e-06
3.91348e-08
6.39568e-06
4.47574e-08
6.40156e-06
4.75095e-08
6.4073e-06
4.82927e-08
6.41278e-06
4.7537e-08
6.41798e-06
4.57265e-08
6.42289e-06
4.32623e-08
6.42753e-06
4.03827e-08
6.4319e-06
3.72301e-08
6.436e-06
3.39021e-08
6.43981e-06
3.04722e-08
6.44332e-06
2.69965e-08
6.4465e-06
2.35313e-08
6.44931e-06
2.01376e-08
6.45175e-06
1.68877e-08
1.38452e-08
6.45382e-06
5.74241e-06
9.17603e-09
5.74619e-06
2.45716e-08
5.75084e-06
3.44937e-08
5.75569e-06
3.99077e-08
5.76059e-06
4.26097e-08
5.76543e-06
4.34593e-08
5.77009e-06
4.2876e-08
5.77454e-06
4.12843e-08
5.77876e-06
3.90478e-08
5.78274e-06
3.63978e-08
5.7865e-06
3.3477e-08
5.79001e-06
3.0387e-08
5.79328e-06
2.72041e-08
5.79629e-06
2.39923e-08
5.79901e-06
2.08072e-08
5.80144e-06
1.77096e-08
5.80357e-06
1.4759e-08
1.20074e-08
5.80541e-06
6.99971e-06
7.62128e-09
7.00363e-06
2.06538e-08
7.00865e-06
2.94803e-08
7.01404e-06
3.45167e-08
7.01958e-06
3.70799e-08
7.02509e-06
3.7947e-08
7.03046e-06
3.75145e-08
7.0356e-06
3.61436e-08
7.0405e-06
3.41533e-08
7.04513e-06
3.17621e-08
7.0495e-06
2.91105e-08
7.05359e-06
2.62996e-08
7.05739e-06
2.3409e-08
7.06088e-06
2.05026e-08
7.06405e-06
1.76382e-08
7.06689e-06
1.48686e-08
7.06941e-06
1.22457e-08
9.80379e-09
7.07161e-06
8.53238e-06
6.09252e-09
8.53637e-06
1.66639e-08
8.5417e-06
2.41506e-08
8.54761e-06
2.8608e-08
8.55378e-06
3.09176e-08
8.56e-06
3.17302e-08
8.56611e-06
3.14078e-08
8.57201e-06
3.02464e-08
8.57765e-06
2.85147e-08
8.583e-06
2.64089e-08
8.58805e-06
2.40641e-08
8.59278e-06
2.1576e-08
8.59717e-06
1.9023e-08
8.6012e-06
1.64668e-08
8.60488e-06
1.39618e-08
8.6082e-06
1.15542e-08
8.61116e-06
9.28452e-09
7.17728e-09
8.61379e-06
1.04007e-05
4.59393e-09
1.04047e-05
1.26478e-08
1.04103e-05
1.85634e-08
1.04167e-05
2.22167e-08
1.04235e-05
2.41301e-08
1.04304e-05
2.47972e-08
1.04373e-05
2.45233e-08
1.0444e-05
2.3545e-08
1.04505e-05
2.20727e-08
1.04566e-05
2.02751e-08
1.04624e-05
1.82694e-08
1.04678e-05
1.61468e-08
1.04729e-05
1.39742e-08
1.04776e-05
1.18118e-08
1.04818e-05
9.70324e-09
1.04857e-05
7.69038e-09
1.04892e-05
5.80123e-09
4.05353e-09
1.04923e-05
1.26783e-05
3.11781e-09
1.26823e-05
8.61059e-09
1.26881e-05
1.27544e-08
1.2695e-05
1.53695e-08
1.27024e-05
1.67214e-08
1.271e-05
1.71317e-08
1.27177e-05
1.6831e-08
1.27253e-05
1.59923e-08
1.27326e-05
1.47701e-08
1.27396e-05
1.32913e-08
1.27462e-05
1.16543e-08
1.27524e-05
9.93048e-09
1.27582e-05
8.17984e-09
1.27636e-05
6.44733e-09
1.27685e-05
4.77257e-09
1.2773e-05
3.18343e-09
1.27771e-05
1.70432e-09
3.41553e-10
1.27808e-05
1.54547e-05
1.63764e-09
1.54588e-05
4.49412e-09
1.54649e-05
6.6836e-09
1.54722e-05
8.03532e-09
1.54803e-05
8.64659e-09
1.54887e-05
8.67852e-09
1.54973e-05
8.26612e-09
1.55058e-05
7.51598e-09
1.5514e-05
6.52293e-09
1.55219e-05
5.36872e-09
1.55295e-05
4.11912e-09
1.55366e-05
2.82532e-09
1.55432e-05
1.52862e-09
1.55494e-05
2.62039e-10
1.55552e-05
-9.47993e-10
1.55604e-05
-2.08134e-09
1.55653e-05
-3.12355e-09
-4.07103e-09
1.55697e-05
1.88392e-05
8.96518e-11
1.88436e-05
1.25298e-10
1.88501e-05
1.44196e-10
1.88581e-05
1.37836e-11
1.88671e-05
-2.87424e-10
1.88765e-05
-7.50493e-10
1.88861e-05
-1.35031e-09
1.88957e-05
-2.05565e-09
1.89051e-05
-2.83445e-09
1.89141e-05
-3.65705e-09
1.89227e-05
-4.49694e-09
1.89309e-05
-5.33098e-09
1.89385e-05
-6.1392e-09
1.89457e-05
-6.90514e-09
1.89524e-05
-7.61549e-09
1.89586e-05
-8.26004e-09
1.89643e-05
-8.83216e-09
-9.33204e-09
1.89695e-05
2.29651e-05
-1.68568e-09
2.29702e-05
-4.92958e-09
2.29778e-05
-7.43073e-09
2.2987e-05
-9.27418e-09
2.29974e-05
-1.06266e-08
2.30083e-05
-1.1663e-08
2.30194e-05
-1.2484e-08
2.30305e-05
-1.3145e-08
2.30414e-05
-1.36842e-08
2.30519e-05
-1.41354e-08
2.30619e-05
-1.45163e-08
2.30714e-05
-1.48388e-08
2.30804e-05
-1.51057e-08
2.30888e-05
-1.53208e-08
2.30967e-05
-1.54834e-08
2.3104e-05
-1.55948e-08
2.31108e-05
-1.56545e-08
-1.56671e-08
2.31172e-05
1.68122e-05
-3.15964e-09
1.68163e-05
-9.02349e-09
1.68223e-05
-1.34179e-08
1.68294e-05
-1.64256e-08
1.68372e-05
-1.84363e-08
1.68454e-05
-1.98028e-08
1.68536e-05
-2.07155e-08
1.68618e-05
-2.12807e-08
1.68697e-05
-2.16e-08
1.68773e-05
-2.17469e-08
1.68846e-05
-2.17773e-08
1.68914e-05
-2.17173e-08
1.68979e-05
-2.15924e-08
1.6904e-05
-2.14117e-08
1.69097e-05
-2.11893e-08
1.69151e-05
-2.0926e-08
1.692e-05
-2.06306e-08
-2.03033e-08
1.69247e-05
1.46361e-05
-4.73594e-09
1.46404e-05
-1.33022e-08
1.46464e-05
-1.94189e-08
1.46533e-05
-2.33051e-08
1.46606e-05
-2.57466e-08
1.46681e-05
-2.72978e-08
1.46756e-05
-2.81917e-08
1.46829e-05
-2.8589e-08
1.469e-05
-2.86444e-08
1.46967e-05
-2.84802e-08
1.47031e-05
-2.81668e-08
1.47091e-05
-2.77528e-08
1.47148e-05
-2.72687e-08
1.47202e-05
-2.67392e-08
1.47252e-05
-2.61773e-08
1.47298e-05
-2.55934e-08
1.47342e-05
-2.49916e-08
-2.43784e-08
1.47383e-05
1.2742e-05
-6.57181e-09
1.27467e-05
-1.80763e-08
1.2753e-05
-2.56855e-08
1.27598e-05
-3.01001e-08
1.27668e-05
-3.27512e-08
1.27739e-05
-3.43472e-08
1.27808e-05
-3.51122e-08
1.27875e-05
-3.52592e-08
1.27939e-05
-3.50111e-08
1.27999e-05
-3.45183e-08
1.28056e-05
-3.38658e-08
1.2811e-05
-3.3111e-08
1.2816e-05
-3.2294e-08
1.28207e-05
-3.14462e-08
1.28251e-05
-3.05824e-08
1.28292e-05
-2.9716e-08
1.28331e-05
-2.88498e-08
-2.79894e-08
1.28367e-05
1.10932e-05
-8.85368e-09
1.10988e-05
-2.36199e-08
1.11054e-05
-3.23248e-08
1.11122e-05
-3.68673e-08
1.1119e-05
-3.95362e-08
1.11257e-05
-4.10504e-08
1.11321e-05
-4.15777e-08
1.11383e-05
-4.14078e-08
1.11441e-05
-4.08252e-08
1.11496e-05
-3.99949e-08
1.11547e-05
-3.90061e-08
1.11595e-05
-3.79219e-08
1.1164e-05
-3.67929e-08
1.11683e-05
-3.56496e-08
1.11722e-05
-3.45147e-08
1.11759e-05
-3.33949e-08
1.11793e-05
-3.2298e-08
-3.12214e-08
1.11826e-05
9.65818e-06
-1.1817e-08
9.66476e-06
-3.01962e-08
9.67175e-06
-3.9314e-08
9.67849e-06
-4.36013e-08
9.68511e-06
-4.61558e-08
9.69154e-06
-4.74731e-08
9.69763e-06
-4.76665e-08
9.70336e-06
-4.71332e-08
9.70873e-06
-4.62001e-08
9.71377e-06
-4.50293e-08
9.71848e-06
-4.37076e-08
9.72286e-06
-4.23051e-08
9.72695e-06
-4.08761e-08
9.73076e-06
-3.94577e-08
9.73432e-06
-3.80689e-08
9.73764e-06
-3.6721e-08
9.74077e-06
-3.54176e-08
-3.4153e-08
9.7437e-06
8.40927e-06
-1.57313e-08
8.41715e-06
-3.80802e-08
8.42442e-06
-4.65796e-08
8.43114e-06
-5.03146e-08
8.43767e-06
-5.26888e-08
8.44392e-06
-5.37121e-08
8.44975e-06
-5.35018e-08
8.4552e-06
-5.25734e-08
8.46027e-06
-5.12746e-08
8.465e-06
-4.97541e-08
8.46939e-06
-4.8095e-08
8.47346e-06
-4.63731e-08
8.47723e-06
-4.46481e-08
8.48074e-06
-4.29593e-08
8.484e-06
-4.13266e-08
8.48704e-06
-3.97611e-08
8.48989e-06
-3.82652e-08
-3.68212e-08
8.49256e-06
7.32254e-06
-2.09895e-08
7.33197e-06
-4.75025e-08
7.33963e-06
-5.42348e-08
7.34654e-06
-5.7228e-08
7.35321e-06
-5.93529e-08
7.35948e-06
-5.99785e-08
7.36528e-06
-5.93019e-08
7.37065e-06
-5.79403e-08
7.37562e-06
-5.62449e-08
7.38021e-06
-5.43454e-08
7.38445e-06
-5.23261e-08
7.38834e-06
-5.02625e-08
7.39192e-06
-4.82243e-08
7.39521e-06
-4.62491e-08
7.39824e-06
-4.43608e-08
7.40106e-06
-4.25729e-08
7.40368e-06
-4.0888e-08
-3.92814e-08
7.40615e-06
6.37791e-06
-2.88357e-08
6.38895e-06
-5.85395e-08
6.39775e-06
-6.30281e-08
6.40572e-06
-6.52016e-08
6.41323e-06
-6.68582e-08
6.42011e-06
-6.68524e-08
6.42636e-06
-6.55528e-08
6.43206e-06
-6.36394e-08
6.43726e-06
-6.14412e-08
6.44198e-06
-5.90647e-08
6.44625e-06
-5.65908e-08
6.45009e-06
-5.41015e-08
6.45353e-06
-5.1671e-08
6.45662e-06
-4.93314e-08
6.45937e-06
-4.71132e-08
6.46185e-06
-4.50537e-08
6.4641e-06
-4.31371e-08
-4.13179e-08
6.46615e-06
5.5605e-06
-4.38725e-08
5.57531e-06
-7.33504e-08
5.58809e-06
-7.58043e-08
5.59968e-06
-7.67843e-08
5.60997e-06
-7.71494e-08
5.61889e-06
-7.57666e-08
5.62655e-06
-7.32088e-08
5.63308e-06
-7.01681e-08
5.63856e-06
-6.69278e-08
5.64308e-06
-6.35819e-08
5.64671e-06
-6.02088e-08
5.6495e-06
-5.68937e-08
5.65156e-06
-5.37265e-08
5.65295e-06
-5.07293e-08
5.65377e-06
-4.79303e-08
5.65414e-06
-4.54181e-08
5.65416e-06
-4.31597e-08
-4.1333e-08
5.65418e-06
4.87748e-06
-9.37417e-08
4.90773e-06
-1.03598e-07
4.92886e-06
-9.6938e-08
4.94265e-06
-9.05613e-08
4.95027e-06
-8.47765e-08
4.95298e-06
-7.84717e-08
4.95177e-06
-7.19961e-08
4.9474e-06
-6.57993e-08
4.9405e-06
-6.00181e-08
4.93158e-06
-5.46631e-08
4.92111e-06
-4.973e-08
4.90945e-06
-4.52322e-08
4.89692e-06
-4.12011e-08
4.88391e-06
-3.77193e-08
4.87078e-06
-3.47951e-08
4.85769e-06
-3.23253e-08
4.84477e-06
-3.02389e-08
-2.89626e-08
4.8324e-06
4.10893e-06
4.00534e-06
3.9084e-06
3.81784e-06
3.73306e-06
3.65459e-06
3.58259e-06
3.5168e-06
3.45678e-06
3.40211e-06
3.35239e-06
3.30715e-06
3.26595e-06
3.22823e-06
3.19344e-06
3.16111e-06
3.13088e-06
3.10191e-06
-1.92199e-08
1.92735e-08
-4.25384e-08
2.34365e-08
-5.69443e-08
1.44787e-08
-4.8275e-08
-8.55987e-09
-1.52262e-08
-3.30016e-08
3.4361e-08
-4.94904e-08
9.1902e-08
-5.75291e-08
1.51865e-07
-5.98908e-08
2.10962e-07
-5.90991e-08
2.67574e-07
-5.65495e-08
3.20479e-07
-5.29089e-08
3.69177e-07
-4.86384e-08
4.13264e-07
-4.40921e-08
4.52807e-07
-3.94875e-08
4.87729e-07
-3.49285e-08
5.18258e-07
-3.04777e-08
5.44416e-07
-2.61692e-08
5.66511e-07
-2.20457e-08
5.84621e-07
-1.81174e-08
5.99076e-07
-1.44006e-08
6.09946e-07
-1.0876e-08
6.17544e-07
-7.53206e-09
6.21861e-07
-4.31066e-09
6.22967e-07
-1.02798e-09
6.20716e-07
2.26678e-09
6.15364e-07
5.43862e-09
6.07074e-07
8.30518e-09
5.964e-07
1.07668e-08
5.83639e-07
1.27786e-08
5.694e-07
1.43338e-08
5.53979e-07
1.54269e-08
5.38022e-07
1.60486e-08
5.21771e-07
1.62495e-08
5.0586e-07
1.59938e-08
4.90496e-07
1.53385e-08
4.76258e-07
1.43121e-08
4.63249e-07
1.29711e-08
4.51911e-07
1.14136e-08
4.42131e-07
9.73829e-09
4.34144e-07
8.06764e-09
4.27567e-07
6.533e-09
4.22429e-07
5.21887e-09
4.18147e-07
4.22916e-09
4.1457e-07
3.64847e-09
4.1104e-07
3.45813e-09
4.07446e-07
3.64843e-09
4.03162e-07
4.2004e-09
3.9812e-07
5.08059e-09
3.91809e-07
6.21593e-09
3.84306e-07
7.53331e-09
3.75282e-07
8.92913e-09
3.65002e-07
1.03049e-08
3.53413e-07
1.14998e-08
3.41091e-07
1.23235e-08
3.28454e-07
1.25187e-08
3.16561e-07
1.18715e-08
3.06225e-07
1.02148e-08
2.98727e-07
7.46655e-09
2.9454e-07
4.0471e-09
2.94034e-07
4.81181e-10
2.96153e-07
-2.24142e-09
2.99872e-07
-3.73496e-09
3.03817e-07
-4.0681e-09
3.06774e-07
-2.97917e-09
3.07274e-07
-5.92117e-10
3.03934e-07
3.3087e-09
2.95924e-07
7.94203e-09
2.8445e-07
1.14461e-08
2.71232e-07
1.30546e-08
2.50834e-07
2.04455e-08
2.07543e-07
4.29707e-08
1.30892e-07
7.68388e-08
7.84839e-09
1.2265e-07
-1.75148e-07
1.83264e-07
-4.20388e-07
2.44969e-07
-7.09403e-07
2.8926e-07
-1.0264e-06
3.16865e-07
-1.35245e-06
3.26189e-07
-1.67163e-06
3.19024e-07
-1.97001e-06
2.98429e-07
-2.23916e-06
2.69009e-07
-2.47475e-06
2.35573e-07
-2.67652e-06
2.01595e-07
-2.84627e-06
1.69708e-07
-2.98772e-06
1.41286e-07
-3.10486e-06
1.17064e-07
-3.20208e-06
9.70425e-08
-3.2831e-06
8.08579e-08
-3.35118e-06
6.78404e-08
-3.40885e-06
5.74281e-08
-3.45834e-06
4.9319e-08
-3.50144e-06
4.30486e-08
-3.53965e-06
3.81903e-08
-3.57407e-06
3.44489e-08
-3.60559e-06
3.15447e-08
-3.6348e-06
2.92426e-08
-3.66204e-06
2.72502e-08
-3.68756e-06
2.55372e-08
-3.71157e-06
2.39949e-08
-3.73433e-06
2.2736e-08
-3.75606e-06
2.16824e-08
-3.77671e-06
2.05821e-08
-3.79624e-06
1.94238e-08
-3.8148e-06
1.84271e-08
-3.83245e-06
1.74649e-08
-3.84909e-06
1.64085e-08
-3.86469e-06
1.53441e-08
-3.87931e-06
1.43294e-08
-3.89283e-06
1.32096e-08
-3.90518e-06
1.20115e-08
-3.91641e-06
1.09011e-08
-3.92656e-06
9.78676e-09
-3.93549e-06
8.58819e-09
-3.94328e-06
7.42806e-09
-3.94977e-06
6.14096e-09
-3.95479e-06
4.63922e-09
-3.95833e-06
3.19696e-09
-3.96057e-06
1.86934e-09
-3.96161e-06
7.07219e-10
-3.96148e-06
-5.12584e-10
-3.96014e-06
-1.72692e-09
-3.9578e-06
-2.82711e-09
-3.95434e-06
-3.95753e-09
-3.94989e-06
-4.99253e-09
-3.94465e-06
-5.74186e-09
-3.93892e-06
-6.26239e-09
-3.93268e-06
-6.69536e-09
-3.926e-06
-7.18787e-09
-3.91866e-06
-7.75891e-09
-3.91094e-06
-8.21661e-09
-3.90299e-06
-8.3518e-09
-3.89502e-06
-8.44728e-09
-3.88696e-06
-8.44055e-09
-3.87909e-06
-8.30921e-09
-3.87122e-06
-8.17382e-09
-3.86346e-06
-8.09063e-09
-3.85568e-06
-7.9271e-09
-3.84804e-06
-7.70654e-09
-3.84068e-06
-7.16336e-09
-3.83434e-06
-6.03381e-09
-3.82991e-06
-3.99155e-09
-3.82901e-06
-4.88795e-10
-3.83288e-06
4.27379e-09
-3.84244e-06
9.94494e-09
-3.85788e-06
1.58494e-08
-3.87869e-06
2.12396e-08
-3.90455e-06
2.63423e-08
-3.93375e-06
2.97375e-08
-3.96352e-06
3.04045e-08
-3.99142e-06
2.86327e-08
-4.01428e-06
2.3711e-08
-4.02825e-06
1.49782e-08
-4.03205e-06
4.9555e-09
-4.02469e-06
-6.00076e-09
-4.00413e-06
-1.90469e-08
-3.9689e-06
-3.3466e-08
-3.91924e-06
-4.77448e-08
-3.85629e-06
-6.07953e-08
-3.78152e-06
-7.24998e-08
-3.69555e-06
-8.3519e-08
-3.59848e-06
-9.45821e-08
-3.48827e-06
-1.07623e-07
-3.36104e-06
-1.24693e-07
-3.21051e-06
-1.47977e-07
-3.03004e-06
-1.78026e-07
-2.81354e-06
-2.14077e-07
-2.55736e-06
-2.53856e-07
-2.26354e-06
-2.91496e-07
-1.93894e-06
-3.22346e-07
-1.5919e-06
-3.44747e-07
-1.23351e-06
-3.5609e-07
-8.61087e-07
-3.70123e-07
-4.46866e-07
-4.12019e-07
1.25162e-08
-4.57394e-07
4.65708e-07
-4.51571e-07
8.74938e-07
-4.07787e-07
1.23545e-06
-3.59289e-07
1.54255e-06
-3.05961e-07
1.78403e-06
-2.40451e-07
-1.10453e-07
1.8955e-06
1.94025e-09
1.74274e-08
8.67916e-09
1.68907e-08
3.86562e-08
-1.53962e-08
8.71248e-08
-5.69539e-08
1.41037e-07
-8.68875e-08
1.93233e-07
-1.01652e-07
2.41449e-07
-1.05735e-07
2.85359e-07
-1.03775e-07
3.24996e-07
-9.87296e-08
3.60662e-07
-9.21913e-08
3.92704e-07
-8.49452e-08
4.21474e-07
-7.73842e-08
4.4712e-07
-6.97337e-08
4.69795e-07
-6.21381e-08
4.89555e-07
-5.4685e-08
5.06531e-07
-4.74307e-08
5.20777e-07
-4.04138e-08
5.32414e-07
-3.36611e-08
5.41492e-07
-2.71934e-08
5.48143e-07
-2.10258e-08
5.52442e-07
-1.51707e-08
5.54578e-07
-9.63738e-09
5.54717e-07
-4.44044e-09
5.53304e-07
4.26553e-10
5.50606e-07
4.97797e-09
5.46853e-07
9.2367e-09
5.41975e-07
1.31987e-08
5.35985e-07
1.681e-08
5.28775e-07
2.00063e-08
5.20437e-07
2.27259e-08
5.10976e-07
2.49026e-08
5.00597e-07
2.64835e-08
4.89424e-07
2.74318e-08
4.77718e-07
2.77496e-08
4.6558e-07
2.74755e-08
4.53277e-07
2.66593e-08
4.40889e-07
2.53519e-08
4.28695e-07
2.36508e-08
4.16763e-07
2.16606e-08
4.0537e-07
1.95057e-08
3.94553e-07
1.7339e-08
3.84509e-07
1.53041e-08
3.7518e-07
1.35407e-08
3.66688e-07
1.2173e-08
3.58839e-07
1.12774e-08
3.51606e-07
1.09008e-08
3.44717e-07
1.10471e-08
3.38115e-07
1.16949e-08
3.31507e-07
1.27711e-08
3.24873e-07
1.4167e-08
3.18025e-07
1.57243e-08
3.11038e-07
1.72918e-08
3.03796e-07
1.86771e-08
2.96418e-07
1.96793e-08
2.88801e-07
2.00522e-08
2.81041e-07
1.95997e-08
2.72984e-07
1.81779e-08
2.64628e-07
1.5778e-08
2.55714e-07
1.28675e-08
2.46008e-07
1.0153e-08
2.34982e-07
8.70531e-09
2.21897e-07
9.3221e-09
2.05352e-07
1.23977e-08
1.83711e-07
1.8642e-08
1.54557e-07
2.84632e-08
1.15414e-07
4.24523e-08
6.17673e-08
6.14188e-08
-1.56838e-08
8.88848e-08
-1.34825e-07
1.31969e-07
-3.07637e-07
1.93187e-07
-5.34459e-07
2.69663e-07
-8.11738e-07
3.54088e-07
-1.12811e-06
4.38963e-07
-1.46205e-06
5.17206e-07
-1.79349e-06
5.76385e-07
-2.10946e-06
6.05268e-07
-2.39493e-06
6.0233e-07
-2.63972e-06
5.70991e-07
-2.84031e-06
5.1958e-07
-2.99902e-06
4.57118e-07
-3.12141e-06
3.91346e-07
-3.21438e-06
3.28494e-07
-3.28504e-06
2.7217e-07
-3.33943e-06
2.24037e-07
-3.3825e-06
1.84263e-07
-3.41771e-06
1.52202e-07
-3.44754e-06
1.26766e-07
-3.4736e-06
1.06774e-07
-3.49704e-06
9.11163e-08
-3.51867e-06
7.88574e-08
-3.53878e-06
6.93248e-08
-3.55766e-06
6.18829e-08
-3.57552e-06
5.60514e-08
-3.59251e-06
5.14494e-08
-3.6087e-06
4.7759e-08
-3.62417e-06
4.47247e-08
-3.639e-06
4.20957e-08
-3.65328e-06
3.98208e-08
-3.66706e-06
3.77686e-08
-3.68019e-06
3.58323e-08
-3.69262e-06
3.40713e-08
-3.70443e-06
3.23273e-08
-3.71552e-06
3.04153e-08
-3.72585e-06
2.864e-08
-3.73547e-06
2.69264e-08
-3.74436e-06
2.51119e-08
-3.75258e-06
2.33365e-08
-3.75997e-06
2.14831e-08
-3.76659e-06
1.95605e-08
-3.77257e-06
1.77242e-08
-3.77788e-06
1.59221e-08
-3.78245e-06
1.40709e-08
-3.78632e-06
1.21646e-08
-3.78949e-06
1.03013e-08
-3.79204e-06
8.39108e-09
-3.79411e-06
6.40546e-09
-3.79571e-06
4.49506e-09
-3.7968e-06
2.66442e-09
-3.79725e-06
8.67717e-10
-3.79707e-06
-1.00484e-09
-3.79624e-06
-2.90495e-09
-3.79466e-06
-4.81434e-09
-3.79232e-06
-6.73438e-09
-3.78917e-06
-8.59164e-09
-3.78512e-06
-1.02433e-08
-3.78041e-06
-1.14013e-08
-3.77524e-06
-1.22906e-08
-3.76973e-06
-1.3103e-08
-3.764e-06
-1.38891e-08
-3.75796e-06
-1.46467e-08
-3.75163e-06
-1.50794e-08
-3.74505e-06
-1.54046e-08
-3.73838e-06
-1.54941e-08
-3.73159e-06
-1.54365e-08
-3.72472e-06
-1.53577e-08
-3.71802e-06
-1.50349e-08
-3.71169e-06
-1.44222e-08
-3.70612e-06
-1.32756e-08
-3.7017e-06
-1.14261e-08
-3.69881e-06
-8.61982e-09
-3.69803e-06
-4.41135e-09
-3.69907e-06
9.14729e-10
-3.70154e-06
7.06079e-09
-3.70518e-06
1.39091e-08
-3.70983e-06
2.08308e-08
-3.71561e-06
2.73911e-08
-3.72194e-06
3.30789e-08
-3.72869e-06
3.69689e-08
-3.73582e-06
3.80747e-08
-3.74264e-06
3.61065e-08
-3.74863e-06
3.04503e-08
-3.75304e-06
2.02919e-08
-3.75288e-06
5.81598e-09
-3.7448e-06
-1.28704e-08
-3.72692e-06
-3.55842e-08
-3.69767e-06
-6.11385e-08
-3.65581e-06
-8.79017e-08
-3.60012e-06
-1.14545e-07
-3.52991e-06
-1.40688e-07
-3.44433e-06
-1.66881e-07
-3.3417e-06
-1.94989e-07
-3.21863e-06
-2.2837e-07
-3.06991e-06
-2.71177e-07
-2.88897e-06
-3.26648e-07
-2.67001e-06
-3.94842e-07
-2.40937e-06
-4.726e-07
-2.10694e-06
-5.543e-07
-1.76508e-06
-6.31356e-07
-1.38813e-06
-6.97407e-07
-9.80186e-07
-7.50787e-07
-5.32933e-07
-8.01632e-07
-5.18337e-08
-8.49715e-07
4.13098e-07
-8.75742e-07
8.28888e-07
-8.72075e-07
1.21034e-06
-8.32056e-07
1.56625e-06
-7.6277e-07
1.88866e-06
-6.80889e-07
2.17097e-06
-5.87476e-07
2.40594e-06
-4.74681e-07
-3.00585e-07
2.59683e-06
6.16567e-09
1.1334e-08
4.28905e-08
-1.97167e-08
1.04082e-07
-7.65406e-08
1.66052e-07
-1.18887e-07
2.16962e-07
-1.37782e-07
2.56688e-07
-1.41357e-07
2.88386e-07
-1.37426e-07
3.14851e-07
-1.30224e-07
3.37756e-07
-1.21629e-07
3.58017e-07
-1.12437e-07
3.76076e-07
-1.02999e-07
3.92197e-07
-9.34906e-08
4.06481e-07
-8.40128e-08
4.18991e-07
-7.46349e-08
4.29716e-07
-6.54059e-08
4.38664e-07
-5.63662e-08
4.45802e-07
-4.75493e-08
4.5114e-07
-3.89872e-08
4.54657e-07
-3.07089e-08
4.56386e-07
-2.27419e-08
4.56336e-07
-1.51184e-08
4.54587e-07
-7.87296e-09
4.51192e-07
-1.04106e-09
4.46284e-07
5.35305e-09
4.39975e-07
1.12932e-08
4.32462e-07
1.67716e-08
4.23897e-07
2.17715e-08
4.14484e-07
2.62483e-08
4.0435e-07
3.01502e-08
3.93684e-07
3.34196e-08
3.82597e-07
3.60003e-08
3.71259e-07
3.78501e-08
3.59758e-07
3.89417e-08
3.48256e-07
3.92793e-08
3.36837e-07
3.89008e-08
3.25662e-07
3.78596e-08
3.148e-07
3.62183e-08
3.04395e-07
3.40796e-08
2.94493e-07
3.15659e-08
2.85195e-07
2.88269e-08
2.76476e-07
2.60605e-08
2.6834e-07
2.34602e-08
2.60668e-07
2.12107e-08
2.53384e-07
1.94712e-08
2.46295e-07
1.83575e-08
2.39262e-07
1.79395e-08
2.32059e-07
1.82331e-08
2.24549e-07
1.92031e-08
2.16545e-07
2.07529e-08
2.0798e-07
2.27233e-08
1.98775e-07
2.49004e-08
1.88987e-07
2.70669e-08
1.78631e-07
2.89998e-08
1.67805e-07
3.04775e-08
1.56502e-07
3.13113e-08
1.44647e-07
3.142e-08
1.31899e-07
3.08771e-08
1.17728e-07
2.99118e-08
1.01257e-07
2.92894e-08
8.1187e-08
3.01968e-08
5.55754e-08
3.427e-08
2.19151e-08
4.29644e-08
-2.31381e-08
5.73974e-08
-8.37283e-08
7.92073e-08
-1.65773e-07
1.10455e-07
-2.77179e-07
1.53819e-07
-4.27086e-07
2.11278e-07
-6.21941e-07
2.83695e-07
-8.61107e-07
3.71088e-07
-1.13706e-06
4.69099e-07
-1.43701e-06
5.69567e-07
-1.74481e-06
6.61853e-07
-2.04053e-06
7.34658e-07
-2.30179e-06
7.78451e-07
-2.51344e-06
7.8803e-07
-2.67333e-06
7.65155e-07
-2.78743e-06
7.16429e-07
-2.86624e-06
6.49783e-07
-2.92079e-06
5.74111e-07
-2.96084e-06
4.97139e-07
-2.99352e-06
4.23992e-07
-3.02302e-06
3.57943e-07
-3.05141e-06
3.00501e-07
-3.07934e-06
2.51919e-07
-3.10679e-06
2.1165e-07
-3.13344e-06
1.78789e-07
-3.15899e-06
1.52244e-07
-3.18327e-06
1.30961e-07
-3.20625e-06
1.13957e-07
-3.22793e-06
1.00418e-07
-3.24835e-06
8.9655e-08
-3.26754e-06
8.10389e-08
-3.28562e-06
7.41319e-08
-3.30271e-06
6.85454e-08
-3.3189e-06
6.39579e-08
-3.33423e-06
6.00636e-08
-3.34875e-06
5.66199e-08
-3.36253e-06
5.35885e-08
-3.37558e-06
5.08069e-08
-3.38789e-06
4.81084e-08
-3.39951e-06
4.56437e-08
-3.41047e-06
4.3227e-08
-3.42074e-06
4.05923e-08
-3.43028e-06
3.80767e-08
-3.43907e-06
3.55865e-08
-3.4471e-06
3.29866e-08
-3.45442e-06
3.04724e-08
-3.46099e-06
2.78665e-08
-3.46687e-06
2.52328e-08
-3.47209e-06
2.2721e-08
-3.47661e-06
2.02153e-08
-3.48043e-06
1.76701e-08
-3.48361e-06
1.51049e-08
-3.48612e-06
1.25806e-08
-3.48798e-06
1.00154e-08
-3.48917e-06
7.3605e-09
-3.48963e-06
4.71621e-09
-3.4893e-06
2.10601e-09
-3.48817e-06
-4.98046e-10
-3.48625e-06
-3.16397e-09
-3.48362e-06
-5.82905e-09
-3.48027e-06
-8.48563e-09
-3.47633e-06
-1.10338e-08
-3.47191e-06
-1.33686e-08
-3.46703e-06
-1.54812e-08
-3.46164e-06
-1.7127e-08
-3.45573e-06
-1.85489e-08
-3.44931e-06
-1.98381e-08
-3.44256e-06
-2.09744e-08
-3.43551e-06
-2.20034e-08
-3.4283e-06
-2.26169e-08
-3.42094e-06
-2.30621e-08
-3.4135e-06
-2.32481e-08
-3.40594e-06
-2.32645e-08
-3.39837e-06
-2.31888e-08
-3.39091e-06
-2.26709e-08
-3.38359e-06
-2.18556e-08
-3.37649e-06
-2.0348e-08
-3.36975e-06
-1.79932e-08
-3.36342e-06
-1.4679e-08
-3.35766e-06
-9.86872e-09
-3.35256e-06
-3.91725e-09
-3.34837e-06
3.11657e-09
-3.34539e-06
1.11515e-08
-3.34372e-06
1.94068e-08
-3.34378e-06
2.76872e-08
-3.34559e-06
3.51807e-08
-3.34912e-06
4.0808e-08
-3.35442e-06
4.37675e-08
-3.36106e-06
4.31766e-08
-3.36827e-06
3.81897e-08
-3.37504e-06
2.76526e-08
-3.3796e-06
1.10827e-08
-3.37993e-06
-1.17689e-08
-3.37375e-06
-4.08526e-08
-3.35859e-06
-7.53221e-08
-3.33153e-06
-1.13848e-07
-3.28959e-06
-1.5532e-07
-3.22984e-06
-1.99171e-07
-3.14943e-06
-2.45983e-07
-3.045e-06
-2.98065e-07
-2.91241e-06
-3.59612e-07
-2.74654e-06
-4.35696e-07
-2.54151e-06
-5.30344e-07
-2.29272e-06
-6.42304e-07
-1.99922e-06
-7.64807e-07
-1.66287e-06
-8.89352e-07
-1.28701e-06
-1.0059e-06
-8.75173e-07
-1.10793e-06
-4.2841e-07
-1.1963e-06
3.62574e-08
-1.26522e-06
4.88505e-07
-1.30102e-06
9.1262e-07
-1.29905e-06
1.30411e-06
-1.26283e-06
1.66581e-06
-1.19311e-06
1.99967e-06
-1.09603e-06
2.30147e-06
-9.82165e-07
2.56863e-06
-8.54124e-07
2.79965e-06
-7.05235e-07
-5.06599e-07
3.00613e-06
1.69721e-08
-5.59448e-09
8.20761e-08
-8.47585e-08
1.49042e-07
-1.43483e-07
1.9674e-07
-1.66561e-07
2.28122e-07
-1.69155e-07
2.50312e-07
-1.63532e-07
2.67793e-07
-1.54901e-07
2.82688e-07
-1.45106e-07
2.95856e-07
-1.34793e-07
3.07665e-07
-1.24233e-07
3.18233e-07
-1.13563e-07
3.27615e-07
-1.02861e-07
3.35788e-07
-9.21822e-08
3.42731e-07
-8.15673e-08
3.4838e-07
-7.10517e-08
3.52695e-07
-6.06717e-08
3.55613e-07
-5.04652e-08
3.57108e-07
-4.0474e-08
3.57138e-07
-3.07374e-08
3.55701e-07
-2.12965e-08
3.52785e-07
-1.22022e-08
3.48432e-07
-3.51013e-09
3.42666e-07
4.72592e-09
3.35573e-07
1.24559e-08
3.27235e-07
1.96337e-08
3.17802e-07
2.62167e-08
3.07419e-07
3.21578e-08
2.96283e-07
3.73981e-08
2.84563e-07
4.18755e-08
2.72471e-07
4.55281e-08
2.60174e-07
4.83029e-08
2.47876e-07
5.01665e-08
2.35717e-07
5.11082e-08
2.23868e-07
5.11472e-08
2.12439e-07
5.03362e-08
2.01565e-07
4.87521e-08
1.91296e-07
4.64935e-08
1.81702e-07
4.36917e-08
1.72766e-07
4.05073e-08
1.64474e-07
3.71363e-08
1.56724e-07
3.3815e-08
1.49419e-07
3.07807e-08
1.4238e-07
2.82515e-08
1.35457e-07
2.64052e-08
1.2844e-07
2.53706e-08
1.21162e-07
2.52217e-08
1.1341e-07
2.59748e-08
1.05031e-07
2.75816e-08
9.58468e-08
2.99207e-08
8.57669e-08
3.27948e-08
7.47013e-08
3.59465e-08
6.26386e-08
3.91161e-08
4.95191e-08
4.20915e-08
3.52577e-08
4.47194e-08
1.95776e-08
4.69565e-08
1.99237e-09
4.89809e-08
-1.84765e-08
5.13065e-08
-4.34377e-08
5.48476e-08
-7.52253e-08
6.10403e-08
-1.16659e-07
7.16102e-08
-1.71159e-07
8.87416e-08
-2.42807e-07
1.14596e-07
-3.36268e-07
1.50835e-07
-4.56439e-07
1.99359e-07
-6.07967e-07
2.61961e-07
-7.93794e-07
3.39624e-07
-1.01397e-06
4.31434e-07
-1.26381e-06
5.33507e-07
-1.53263e-06
6.39884e-07
-1.805e-06
7.41441e-07
-2.06139e-06
8.25934e-07
-2.28219e-06
8.82625e-07
-2.45364e-06
9.06074e-07
-2.57183e-06
8.96625e-07
-2.64318e-06
8.59363e-07
-2.68001e-06
8.01968e-07
-2.69592e-06
7.32325e-07
-2.70269e-06
6.56532e-07
-2.70836e-06
5.79749e-07
-2.71717e-06
5.05921e-07
-2.73075e-06
4.37532e-07
-2.74889e-06
3.76041e-07
-2.77054e-06
3.22103e-07
-2.79439e-06
2.75725e-07
-2.81924e-06
2.36456e-07
-2.84416e-06
2.03656e-07
-2.8685e-06
1.76529e-07
-2.89189e-06
1.54276e-07
-2.91414e-06
1.36115e-07
-2.93516e-06
1.21326e-07
-2.95491e-06
1.09329e-07
-2.97341e-06
9.95167e-08
-2.99079e-06
9.14973e-08
-3.00713e-06
8.48803e-08
-3.02251e-06
7.93384e-08
-3.03699e-06
7.45388e-08
-3.05062e-06
7.0235e-08
-3.06344e-06
6.63865e-08
-3.07545e-06
6.27931e-08
-3.08668e-06
5.92975e-08
-3.09714e-06
5.60521e-08
-3.10685e-06
5.28643e-08
-3.11584e-06
4.95033e-08
-3.12411e-06
4.62451e-08
-3.13162e-06
4.2971e-08
-3.13838e-06
3.96066e-08
-3.14434e-06
3.62867e-08
-3.14949e-06
3.28516e-08
-3.15385e-06
2.94114e-08
-3.15743e-06
2.61264e-08
-3.16026e-06
2.28557e-08
-3.16232e-06
1.95346e-08
-3.16361e-06
1.62031e-08
-3.16414e-06
1.2911e-08
-3.1639e-06
9.58358e-09
-3.16293e-06
6.18745e-09
-3.16121e-06