/*--------------------------------*- C++ -*----------------------------------*\
| =========                 |                                                 |
| \\      /  F ield         | OpenFOAM: The Open Source CFD Toolbox           |
|  \\    /   O peration     | Version:  2406                                  |
|   \\  /    A nd           | Website:  www.openfoam.com                      |
|    \\/     M anipulation  |                                                 |
\*---------------------------------------------------------------------------*/
FoamFile
{
    version     2.0;
    format      ascii;
    arch        "LSB;label=32;scalar=64";
    class       volVectorField;
    location    "200";
    object      U;
}
// * * * * * * * * * * * * * * * * * * * * * * * * * * * * * * * * * * * * * //

dimensions      [0 1 -1 0 0 0 0];

internalField   nonuniform List<vector> 
12225
(
(9.77656 0.0425607 0)
(9.35806 0.07757 0)
(8.95313 0.084057 0)
(8.57071 0.0811687 0)
(8.22821 0.0748171 0)
(7.92776 0.0667762 0)
(7.66531 0.0582298 0)
(7.43735 0.0498363 0)
(7.24071 0.042199 0)
(7.07046 0.0357522 0)
(6.92173 0.0303435 0)
(6.79265 0.0257131 0)
(6.6804 0.0215681 0)
(6.58437 0.0177585 0)
(6.50314 0.0139972 0)
(6.43701 0.00990461 0)
(6.38974 0.00483101 0)
(6.35652 -0.00494061 0)
(10.082 0.0572177 0)
(10.2225 0.0901116 0)
(10.2992 0.0896906 0)
(10.3226 0.0863674 0)
(10.3146 0.0837628 0)
(10.2848 0.0805193 0)
(10.2383 0.0765268 0)
(10.1795 0.0722448 0)
(10.113 0.0679352 0)
(10.0431 0.0637525 0)
(9.97314 0.0598308 0)
(9.90391 0.0560021 0)
(9.83702 0.052137 0)
(9.77255 0.0480427 0)
(9.71188 0.0435272 0)
(9.65465 0.0379105 0)
(9.6028 0.0303747 0)
(9.54972 0.0167451 0)
(10.017 0.0416854 0)
(10.077 0.0639185 0)
(10.1243 0.0668182 0)
(10.1594 0.0707189 0)
(10.1881 0.0746074 0)
(10.2125 0.0762723 0)
(10.2307 0.0759676 0)
(10.243 0.0745689 0)
(10.2496 0.0725753 0)
(10.2521 0.0702682 0)
(10.251 0.0676594 0)
(10.2474 0.0647491 0)
(10.2417 0.0614943 0)
(10.2345 0.0578043 0)
(10.2263 0.0534517 0)
(10.2173 0.0478004 0)
(10.2075 0.0402492 0)
(10.1935 0.0281695 0)
(10.0079 0.0302878 0)
(10.0428 0.0545402 0)
(10.0734 0.0613694 0)
(10.0957 0.0661926 0)
(10.115 0.069678 0)
(10.1333 0.0709524 0)
(10.1498 0.070602 0)
(10.164 0.0694425 0)
(10.1762 0.0678477 0)
(10.1866 0.0659416 0)
(10.1957 0.0637521 0)
(10.2035 0.0612875 0)
(10.2103 0.0584831 0)
(10.2163 0.0552124 0)
(10.2216 0.051242 0)
(10.2261 0.0460983 0)
(10.2293 0.0394778 0)
(10.2299 0.0306908 0)
(10.0049 0.023891 0)
(10.0297 0.0484844 0)
(10.0542 0.0566044 0)
(10.0721 0.0612595 0)
(10.0875 0.0646106 0)
(10.1023 0.0661131 0)
(10.116 0.0661354 0)
(10.1283 0.065323 0)
(10.1393 0.064022 0)
(10.1493 0.062357 0)
(10.1586 0.0603807 0)
(10.1671 0.058088 0)
(10.1751 0.055415 0)
(10.1826 0.0522413 0)
(10.1896 0.0483865 0)
(10.1958 0.0435575 0)
(10.2009 0.0376619 0)
(10.2043 0.0306296 0)
(10.0034 0.0193883 0)
(10.0221 0.0425219 0)
(10.0428 0.0513608 0)
(10.0586 0.0563203 0)
(10.0723 0.05991 0)
(10.0854 0.0617166 0)
(10.0977 0.0620213 0)
(10.1088 0.0614254 0)
(10.119 0.0602903 0)
(10.1283 0.0587508 0)
(10.1371 0.0568643 0)
(10.1453 0.0546278 0)
(10.1531 0.0519964 0)
(10.1605 0.0488741 0)
(10.1674 0.0451376 0)
(10.1736 0.040622 0)
(10.1787 0.0353358 0)
(10.1825 0.0294011 0)
(10.0024 0.0158823 0)
(10.0168 0.0369547 0)
(10.0344 0.0462993 0)
(10.0489 0.0515919 0)
(10.0614 0.0553348 0)
(10.0735 0.0573341 0)
(10.085 0.0578492 0)
(10.0954 0.0574352 0)
(10.105 0.0564444 0)
(10.1139 0.055012 0)
(10.1222 0.0532007 0)
(10.1301 0.0510185 0)
(10.1376 0.0484404 0)
(10.1446 0.0453981 0)
(10.1511 0.0418175 0)
(10.157 0.0376222 0)
(10.1619 0.0328771 0)
(10.1657 0.0277664 0)
(10.0017 0.0130651 0)
(10.0129 0.0319721 0)
(10.0279 0.0415471 0)
(10.0411 0.047021 0)
(10.0528 0.0507897 0)
(10.064 0.0529044 0)
(10.0748 0.0535929 0)
(10.0847 0.0533429 0)
(10.0938 0.0524849 0)
(10.1024 0.051154 0)
(10.1104 0.0494189 0)
(10.118 0.0472999 0)
(10.1251 0.0447909 0)
(10.1318 0.0418526 0)
(10.138 0.0384522 0)
(10.1435 0.0345739 0)
(10.1482 0.0303103 0)
(10.152 0.0258424 0)
(10.0012 0.0107946 0)
(10.01 0.0275506 0)
(10.0227 0.0370334 0)
(10.0347 0.0425587 0)
(10.0456 0.046282 0)
(10.056 0.0484537 0)
(10.0661 0.0492728 0)
(10.0755 0.0491563 0)
(10.0843 0.0484097 0)
(10.0925 0.0471716 0)
(10.1002 0.0455141 0)
(10.1075 0.0434694 0)
(10.1143 0.0410477 0)
(10.1207 0.038237 0)
(10.1266 0.0350362 0)
(10.1318 0.0314682 0)
(10.1363 0.0276328 0)
(10.14 0.0236843 0)
(10.0009 0.00895746 0)
(10.0079 0.0236306 0)
(10.0185 0.0327335 0)
(10.0294 0.0381961 0)
(10.0394 0.0418246 0)
(10.0492 0.0439991 0)
(10.0586 0.0449047 0)
(10.0675 0.0448886 0)
(10.0759 0.0442317 0)
(10.0837 0.0430764 0)
(10.0911 0.041497 0)
(10.0981 0.0395364 0)
(10.1046 0.0372185 0)
(10.1107 0.0345542 0)
(10.1163 0.0315646 0)
(10.1212 0.0282949 0)
(10.1255 0.0248401 0)
(10.1292 0.0213246 0)
(10.0007 0.00745597 0)
(10.0062 0.0201664 0)
(10.0152 0.0286653 0)
(10.0249 0.0339455 0)
(10.0342 0.0374253 0)
(10.0433 0.0395484 0)
(10.0521 0.0404955 0)
(10.0605 0.0405507 0)
(10.0684 0.0399663 0)
(10.0759 0.0388847 0)
(10.083 0.0373843 0)
(10.0896 0.0355155 0)
(10.0958 0.0333144 0)
(10.1016 0.0308085 0)
(10.1069 0.0280339 0)
(10.1116 0.0250454 0)
(10.1157 0.0219291 0)
(10.1193 0.0187813 0)
(10.0005 0.00627746 0)
(10.0051 0.0173203 0)
(10.0128 0.0251329 0)
(10.0215 0.0301471 0)
(10.0301 0.0334452 0)
(10.0386 0.0354781 0)
(10.0469 0.0364247 0)
(10.0549 0.0365203 0)
(10.0624 0.0359891 0)
(10.0696 0.0349701 0)
(10.0763 0.0335442 0)
(10.0826 0.0317675 0)
(10.0886 0.029684 0)
(10.094 0.0273324 0)
(10.099 0.0247559 0)
(10.1035 0.0220124 0)
(10.1075 0.0191767 0)
(10.111 0.0163257 0)
(10.0004 0.00527413 0)
(10.0042 0.0147601 0)
(10.0108 0.0217922 0)
(10.0186 0.0264576 0)
(10.0266 0.0295376 0)
(10.0345 0.0314459 0)
(10.0423 0.0323591 0)
(10.0498 0.0324733 0)
(10.057 0.0319837 0)
(10.0638 0.0310225 0)
(10.0703 0.0296717 0)
(10.0763 0.0279909 0)
(10.082 0.0260294 0)
(10.0872 0.0238325 0)
(10.092 0.0214477 0)
(10.0963 0.0189315 0)
(10.1001 0.016349 0)
(10.1035 0.0137602 0)
(10.0004 0.00430808 0)
(10.0034 0.0121613 0)
(10.009 0.0182297 0)
(10.0159 0.0223968 0)
(10.0232 0.025164 0)
(10.0305 0.0268783 0)
(10.0377 0.0277082 0)
(10.0448 0.0278127 0)
(10.0516 0.0273533 0)
(10.058 0.0264503 0)
(10.0641 0.0251851 0)
(10.0699 0.0236177 0)
(10.0752 0.0218009 0)
(10.0802 0.0197825 0)
(10.0847 0.0176116 0)
(10.0888 0.0153398 0)
(10.0925 0.0130226 0)
(10.0958 0.0107037 0)
(10.0003 0.00336416 0)
(10.0028 0.00953721 0)
(10.0075 0.0144797 0)
(10.0135 0.0179835 0)
(10.02 0.0203231 0)
(10.0266 0.0217589 0)
(10.0333 0.0224403 0)
(10.0398 0.0224924 0)
(10.0462 0.0220412 0)
(10.0523 0.0211908 0)
(10.058 0.0200165 0)
(10.0634 0.0185773 0)
(10.0685 0.016924 0)
(10.0731 0.0151049 0)
(10.0774 0.0131649 0)
(10.0813 0.0111511 0)
(10.0849 0.00910661 0)
(10.0881 0.0070645 0)
(10.0002 0.00243365 0)
(10.0023 0.00689992 0)
(10.0062 0.0105766 0)
(10.0113 0.013245 0)
(10.0171 0.0150238 0)
(10.0231 0.0160815 0)
(10.0292 0.0165343 0)
(10.0352 0.016476 0)
(10.0411 0.0159988 0)
(10.0468 0.0151852 0)
(10.0522 0.0140997 0)
(10.0572 0.0127955 0)
(10.062 0.0113183 0)
(10.0664 0.0097114 0)
(10.0705 0.00801428 0)
(10.0742 0.0062654 0)
(10.0776 0.00449919 0)
(10.0807 0.00273749 0)
(10.0002 0.00150484 0)
(10.0019 0.00423449 0)
(10.0052 0.00652332 0)
(10.0096 0.00818983 0)
(10.0147 0.00926358 0)
(10.0202 0.00983081 0)
(10.0257 0.00996512 0)
(10.0312 0.00972748 0)
(10.0367 0.00917882 0)
(10.0419 0.00837578 0)
(10.047 0.00736785 0)
(10.0517 0.00619585 0)
(10.0562 0.00489777 0)
(10.0603 0.00350699 0)
(10.0642 0.00205598 0)
(10.0677 0.000572827 0)
(10.071 -0.000915851 0)
(10.074 -0.00239691 0)
(10.0002 0.000548686 0)
(10.0016 0.00147156 0)
(10.0045 0.00224638 0)
(10.0085 0.00274928 0)
(10.0131 0.00296708 0)
(10.018 0.00292049 0)
(10.0231 0.00263621 0)
(10.0282 0.00214112 0)
(10.0333 0.00146455 0)
(10.0382 0.000635907 0)
(10.0429 -0.000316876 0)
(10.0473 -0.00136835 0)
(10.0515 -0.00249415 0)
(10.0555 -0.00367184 0)
(10.0592 -0.00488007 0)
(10.0626 -0.00609958 0)
(10.0657 -0.00731341 0)
(10.0686 -0.00851305 0)
(10.0002 -0.000504111 0)
(10.0016 -0.00156428 0)
(10.0043 -0.00247218 0)
(10.008 -0.0032878 0)
(10.0124 -0.0040574 0)
(10.0171 -0.00482455 0)
(10.0219 -0.0056123 0)
(10.0268 -0.00643083 0)
(10.0316 -0.00728365 0)
(10.0363 -0.00817261 0)
(10.0407 -0.00909425 0)
(10.045 -0.0100433 0)
(10.049 -0.0110109 0)
(10.0528 -0.0119886 0)
(10.0564 -0.0129665 0)
(10.0597 -0.0139355 0)
(10.0628 -0.0148868 0)
(10.0656 -0.0158174 0)
(10.0002 -0.00153506 0)
(10.0017 -0.0045149 0)
(10.0047 -0.00701812 0)
(10.0087 -0.00904247 0)
(10.0133 -0.010695 0)
(10.0181 -0.0120969 0)
(10.023 -0.0133215 0)
(10.0279 -0.0144113 0)
(10.0327 -0.0154053 0)
(10.0373 -0.016334 0)
(10.0418 -0.0172201 0)
(10.046 -0.0180744 0)
(10.05 -0.0189047 0)
(10.0537 -0.0197125 0)
(10.0572 -0.0204998 0)
(10.0605 -0.0212634 0)
(10.0636 -0.0220032 0)
(10.0664 -0.0227171 0)
(10.0002 -0.00250115 0)
(10.0021 -0.00722859 0)
(10.0056 -0.0110738 0)
(10.0102 -0.0140142 0)
(10.0152 -0.0162932 0)
(10.0203 -0.0181316 0)
(10.0254 -0.019639 0)
(10.0305 -0.0208844 0)
(10.0354 -0.0219383 0)
(10.0402 -0.0228594 0)
(10.0447 -0.0236883 0)
(10.0489 -0.0244489 0)
(10.0529 -0.0251593 0)
(10.0567 -0.0258299 0)
(10.0602 -0.0264689 0)
(10.0635 -0.0270782 0)
(10.0666 -0.0276605 0)
(10.0695 -0.0282159 0)
(10.0003 -0.00357685 0)
(10.0027 -0.0101487 0)
(10.0072 -0.0152213 0)
(10.0126 -0.0188695 0)
(10.0182 -0.0216011 0)
(10.0237 -0.0237471 0)
(10.0292 -0.0254299 0)
(10.0345 -0.0267443 0)
(10.0397 -0.027796 0)
(10.0446 -0.0286698 0)
(10.0492 -0.0294168 0)
(10.0535 -0.0300725 0)
(10.0576 -0.0306612 0)
(10.0614 -0.0312032 0)
(10.065 -0.0317083 0)
(10.0683 -0.0321851 0)
(10.0715 -0.0326349 0)
(10.0744 -0.0330616 0)
(10.0004 -0.00486753 0)
(10.0038 -0.0134706 0)
(10.0095 -0.0195989 0)
(10.016 -0.0237129 0)
(10.0222 -0.0267422 0)
(10.0283 -0.0290834 0)
(10.0342 -0.0308374 0)
(10.0399 -0.0321354 0)
(10.0454 -0.0331283 0)
(10.0504 -0.0339178 0)
(10.0552 -0.0345613 0)
(10.0597 -0.0350995 0)
(10.0639 -0.0355651 0)
(10.0679 -0.0359819 0)
(10.0715 -0.0363657 0)
(10.0749 -0.0367243 0)
(10.0782 -0.0370623 0)
(10.0812 -0.03738 0)
(10.0006 -0.00650409 0)
(10.0054 -0.0174025 0)
(10.013 -0.0242604 0)
(10.0207 -0.0285411 0)
(10.0276 -0.031732 0)
(10.0343 -0.0341804 0)
(10.0407 -0.0359213 0)
(10.0469 -0.0371385 0)
(10.0527 -0.0380296 0)
(10.0581 -0.0387063 0)
(10.0631 -0.0392267 0)
(10.0678 -0.0396362 0)
(10.0722 -0.0399749 0)
(10.0763 -0.0402707 0)
(10.0801 -0.0405423 0)
(10.0837 -0.0407981 0)
(10.087 -0.0410442 0)
(10.0901 -0.0412767 0)
(10.001 -0.00863597 0)
(10.008 -0.0221453 0)
(10.018 -0.029242 0)
(10.027 -0.0333836 0)
(10.0347 -0.0365902 0)
(10.0421 -0.0390426 0)
(10.0493 -0.0407081 0)
(10.0561 -0.0418223 0)
(10.0624 -0.0426042 0)
(10.0682 -0.043161 0)
(10.0736 -0.0435485 0)
(10.0786 -0.0438191 0)
(10.0833 -0.0440189 0)
(10.0876 -0.0441831 0)
(10.0917 -0.0443323 0)
(10.0954 -0.0444798 0)
(10.0989 -0.044629 0)
(10.1022 -0.0447703 0)
(10.0016 -0.0115153 0)
(10.0118 -0.0275986 0)
(10.0253 -0.0344636 0)
(10.0358 -0.038443 0)
(10.0447 -0.0415821 0)
(10.0533 -0.04385 0)
(10.0616 -0.0452902 0)
(10.0694 -0.046222 0)
(10.0764 -0.0468595 0)
(10.0829 -0.0472857 0)
(10.0889 -0.0475471 0)
(10.0945 -0.0476963 0)
(10.0996 -0.0477834 0)
(10.1043 -0.0478431 0)
(10.1086 -0.0478996 0)
(10.1126 -0.0479731 0)
(10.1163 -0.048068 0)
(10.1197 -0.0481562 0)
(10.0029 -0.015933 0)
(10.0189 -0.0332551 0)
(10.037 -0.0390918 0)
(10.0506 -0.043258 0)
(10.0621 -0.0467354 0)
(10.0731 -0.0489486 0)
(10.0835 -0.050128 0)
(10.093 -0.0507653 0)
(10.1015 -0.051111 0)
(10.1093 -0.0512448 0)
(10.1163 -0.0512188 0)
(10.1227 -0.0510947 0)
(10.1284 -0.0509333 0)
(10.1335 -0.050768 0)
(10.1381 -0.0506175 0)
(10.1422 -0.0505133 0)
(10.1459 -0.0504731 0)
(10.1492 -0.0504439 0)
(10.0069 -0.0244939 0)
(10.0386 -0.0409723 0)
(10.0668 -0.0432023 0)
(10.0888 -0.0463642 0)
(10.1074 -0.0502578 0)
(10.1245 -0.0530568 0)
(10.1397 -0.0547091 0)
(10.1525 -0.0556981 0)
(10.1633 -0.0562737 0)
(10.1723 -0.056507 0)
(10.1796 -0.0564691 0)
(10.1854 -0.0562393 0)
(10.1897 -0.0559128 0)
(10.1928 -0.0555605 0)
(10.1948 -0.0552295 0)
(10.1958 -0.0549459 0)
(10.1962 -0.0547255 0)
(10.1959 -0.0546884 0)
(10.0478 -0.0372672 0)
(10.1365 -0.0642527 0)
(10.1951 -0.0658023 0)
(10.2288 -0.0642294 0)
(10.2485 -0.0634252 0)
(10.2587 -0.0624285 0)
(10.2603 -0.061078 0)
(10.2543 -0.0596427 0)
(10.2423 -0.0582411 0)
(10.2257 -0.0568366 0)
(10.2054 -0.0554203 0)
(10.1824 -0.0540174 0)
(10.1572 -0.0526865 0)
(10.1305 -0.0514344 0)
(10.1033 -0.0503069 0)
(10.0761 -0.049447 0)
(10.0491 -0.0488052 0)
(10.0227 -0.048781 0)
(9.87294 -0.0289207 0)
(9.64848 -0.0557386 0)
(9.41936 -0.0642062 0)
(9.19324 -0.0659573 0)
(8.98125 -0.0653544 0)
(8.7867 -0.0631499 0)
(8.60818 -0.0599254 0)
(8.44447 -0.0561937 0)
(8.29474 -0.0522693 0)
(8.1584 -0.0483849 0)
(8.03431 -0.044601 0)
(7.92154 -0.0409824 0)
(7.81885 -0.0375984 0)
(7.72534 -0.0345767 0)
(7.63924 -0.0320335 0)
(7.55954 -0.0299454 0)
(7.48517 -0.02822 0)
(7.41607 -0.0271909 0)
(-0.00769038 0.0198051 -9.49149e-19)
(-0.0284836 0.0250741 8.83775e-19)
(-0.0507348 0.0153261 0)
(-0.0541456 -0.00661981 0)
(-0.028893 -0.0345904 0)
(0.00982449 -0.0573772 -6.76991e-19)
(0.0561287 -0.0691497 0)
(0.107252 -0.0729418 0)
(0.160713 -0.0720862 0)
(0.213217 -0.0687804 0)
(0.262505 -0.0641326 1.86864e-19)
(0.307862 -0.0586886 0)
(0.349298 -0.0528618 0)
(0.386791 -0.0469827 0)
(0.420253 -0.0412563 0)
(0.449676 -0.0358157 1.25271e-19)
(0.475174 -0.0306827 0)
(0.496909 -0.0259297 0)
(0.515066 -0.0215215 0)
(0.529829 -0.0174811 0)
(0.54138 -0.0137462 0)
(0.549875 -0.0103458 0)
(0.555458 -0.0071655 0)
(0.558286 -0.0038088 1.09406e-19)
(0.558132 -0.000519699 -1.09767e-19)
(0.55491 0.00268831 1.10524e-19)
(0.548927 0.00571458 1.11799e-19)
(0.540572 0.00848579 0)
(0.530207 0.010941 0)
(0.518246 0.0130464 -1.18783e-19)
(0.505105 0.0147032 -1.21966e-19)
(0.491225 0.0157189 0)
(0.476936 0.0161767 0)
(0.462615 0.0158869 -1.33583e-19)
(0.448658 0.0149872 0)
(0.435457 0.0135226 0)
(0.423345 0.0116326 1.46675e-19)
(0.41256 0.0094495 0)
(0.403261 0.00709492 1.54688e-19)
(0.395493 0.00475706 3.16168e-19)
(0.389192 0.00261627 0)
(0.384202 0.000716434 0)
(0.380259 -0.000748894 0)
(0.377012 -0.00157622 0)
(0.374096 -0.00182847 0)
(0.371175 -0.00154548 3.36794e-19)
(0.367917 -0.000745062 3.3904e-19)
(0.364006 0.000490247 3.42031e-19)
(0.359166 0.00202785 0)
(0.353204 0.00377202 -3.5173e-19)
(0.345978 0.00560388 0)
(0.337438 0.00739349 3.68751e-19)
(0.327664 0.00897877 3.80759e-19)
(0.316872 0.0102003 0)
(0.30549 0.0108733 0)
(0.294173 0.0108385 0)
(0.283903 0.00994091 4.56235e-19)
(0.275728 0.00808655 0)
(0.270415 0.00541482 0)
(0.268643 0.00213589 0)
(0.269934 -0.00124453 0)
(0.272855 -0.00457638 0)
(0.276388 -0.00769421 0)
(0.279519 -0.0102044 0)
(0.281474 -0.0117489 0)
(0.280736 -0.0118417 -4.81181e-19)
(0.276384 -0.0107856 0)
(0.268518 -0.00932186 0)
(0.258542 -0.00812816 5.09343e-19)
(0.243889 -0.00693765 5.32088e-19)
(0.21578 -0.00573328 0)
(0.163173 -0.00626056 -6.11869e-19)
(0.0918942 -0.00440418 7.48789e-19)
(-0.0517412 0.0142461 0)
(-0.274449 0.0653367 -4.04845e-19)
(-0.521493 0.116516 0)
(-0.804125 0.159921 0)
(-1.10546 0.18842 1.29047e-19)
(-1.40896 0.200967 0)
(-1.69895 0.198414 -8.99885e-20)
(-1.96533 0.184918 0)
(-2.20222 0.16512 7.1907e-20)
(-2.40738 0.142716 6.63033e-20)
(-2.5819 0.120658 6.19796e-20)
(-2.72833 0.100555 1.17131e-19)
(-2.85043 0.0833737 -1.11568e-19)
(-2.95215 0.0692313 0)
(-3.03734 0.0577466 0)
(-3.10923 0.0482741 0)
(-3.17045 0.0404563 -9.6713e-20)
(-3.22309 0.0345901 -9.40521e-20)
(-3.26918 0.030264 9.16668e-20)
(-3.31009 0.0269951 0)
(-3.34715 0.024445 -8.7557e-20)
(-3.38114 0.0224624 -8.57279e-20)
(-3.41289 0.0210142 -8.40449e-20)
(-3.4427 0.0196508 0)
(-3.47088 0.0183765 0)
(-3.49762 0.0172916 0)
(-3.52308 0.0167294 -7.85675e-20)
(-3.54766 0.0162328 0)
(-3.57129 0.0153641 0)
(-3.59393 0.0145229 7.55049e-20)
(-3.61566 0.0139406 0)
(-3.63659 0.0133092 0)
(-3.65666 0.0125601 7.30222e-20)
(-3.67585 0.0118109 0)
(-3.69409 0.0112308 0)
(-3.7115 0.0104353 -7.0816e-20)
(-3.72781 0.00938138 -7.00872e-20)
(-3.7431 0.00857772 0)
(-3.75744 0.0078292 6.86507e-20)
(-3.77067 0.00705981 0)
(-3.78285 0.00653559 -6.70678e-20)
(-3.79399 0.00587774 0)
(-3.8038 0.00507369 -6.53018e-20)
(-3.81223 0.00460384 -6.43759e-20)
(-3.81938 0.00432789 0)
(-3.82529 0.00414535 0)
(-3.83025 0.00364622 0)
(-3.83403 0.002932 0)
(-3.8368 0.00247311 0)
(-3.8387 0.00181334 0)
(-3.83948 0.000918279 0)
(-3.83942 0.000146607 -5.67826e-20)
(-3.8388 -0.000633859 5.57902e-20)
(-3.8377 -0.00154574 0)
(-3.83619 -0.002548 0)
(-3.8342 -0.00378244 0)
(-3.83159 -0.00490912 0)
(-3.82877 -0.00574137 9.88392e-20)
(-3.82582 -0.00646573 0)
(-3.82292 -0.00699244 -9.17958e-20)
(-3.81987 -0.00685769 8.7817e-20)
(-3.81731 -0.00644481 0)
(-3.81468 -0.00612997 0)
(-3.81218 -0.00545509 0)
(-3.81012 -0.0051009 -7.24354e-20)
(-3.8079 -0.00495544 -6.93478e-20)
(-3.80643 -0.00444795 0)
(-3.80657 -0.00371815 -6.48939e-20)
(-3.80888 -0.00200585 -6.33192e-20)
(-3.81597 -0.000113728 6.2e-20)
(-3.82793 0.00195328 0)
(-3.84612 0.00424466 0)
(-3.86973 0.00647274 5.59705e-20)
(-3.89849 0.0102868 0)
(-3.9321 0.0143703 0)
(-3.96769 0.0179356 0)
(-4.00261 0.0226297 0)
(-4.03484 0.0273813 -3.01326e-20)
(-4.06035 0.0310241 -2.55332e-20)
(-4.07525 0.0354713 0)
(-4.08124 0.0397844 -2.49171e-20)
(-4.07529 0.0421886 0)
(-4.05549 0.0425234 0)
(-4.02105 0.0412775 -6.46005e-20)
(-3.97261 0.0390147 0)
(-3.91139 0.0350915 -1.22403e-19)
(-3.83744 0.0285506 0)
(-3.75116 0.0192946 0)
(-3.65069 0.00732548 -2.18137e-19)
(-3.53359 -0.00678801 0)
(-3.39405 -0.0234068 -2.39742e-19)
(-3.22557 -0.0427029 0)
(-3.02211 -0.0638359 0)
(-2.77902 -0.0876172 0)
(-2.49642 -0.112951 6.9954e-20)
(-2.17701 -0.137681 0)
(-1.83042 -0.160524 1.45369e-19)
(-1.46522 -0.180712 0)
(-1.08621 -0.197163 0)
(-0.701828 -0.2174 0)
(-0.248912 -0.229436 0)
(0.263029 -0.214206 0)
(0.714564 -0.188562 0)
(1.12488 -0.163652 0)
(1.47566 -0.139323 -1.17888e-18)
(1.78733 -0.113814 0)
(1.95294 -0.0702246 0)
(0.00341614 0.0399468 2.98346e-18)
(-0.00250017 0.052095 -3.18319e-18)
(0.0128379 0.0245785 0)
(0.0560903 -0.0391748 8.54329e-19)
(0.103024 -0.0999862 0)
(0.149194 -0.137402 1.62662e-19)
(0.193661 -0.153237 -2.45343e-19)
(0.234962 -0.155359 -1.988e-19)
(0.272311 -0.150101 0)
(0.305827 -0.141091 -1.50714e-19)
(0.335972 -0.130158 -6.88301e-20)
(0.363133 -0.118315 0)
(0.387519 -0.106205 0)
(0.409228 -0.0942317 0)
(0.428332 -0.0826062 0)
(0.44491 -0.0714391 -5.71952e-20)
(0.459044 -0.060799 0)
(0.470805 -0.0507267 1.13558e-19)
(0.48027 -0.0412487 0)
(0.48752 -0.0323711 0)
(0.492638 -0.024082 -1.15988e-19)
(0.49573 -0.0163384 0)
(0.496944 -0.00910576 1.19561e-19)
(0.496483 -0.00227832 -6.09611e-20)
(0.494827 0.00423682 6.2183e-20)
(0.492234 0.0103516 -6.36964e-20)
(0.488661 0.0159128 -6.54978e-20)
(0.484049 0.0207754 0)
(0.478378 0.0248349 0)
(0.471638 0.0280272 7.22125e-20)
(0.463864 0.0303167 -7.46399e-20)
(0.455149 0.0317172 0)
(0.445655 0.0322452 0)
(0.435549 0.0319812 8.27173e-20)
(0.424995 0.031026 0)
(0.414169 0.0294687 0)
(0.403232 0.0273785 -9.02539e-20)
(0.392315 0.0248949 0)
(0.381621 0.0221691 9.41422e-20)
(0.371268 0.0193536 -1.91238e-19)
(0.361415 0.0166317 0)
(0.352172 0.0141828 0)
(0.343614 0.0121653 -3.89188e-19)
(0.33577 0.010692 -3.89875e-19)
(0.328601 0.00983324 -3.90841e-19)
(0.32201 0.00961574 1.96367e-19)
(0.315859 0.0100175 -1.98226e-19)
(0.310001 0.0109948 -6.03096e-19)
(0.304265 0.012442 4.10416e-19)
(0.298502 0.0142056 2.11235e-19)
(0.29261 0.016101 0)
(0.286525 0.0179697 -2.27618e-19)
(0.280235 0.0195833 2.37656e-19)
(0.273745 0.0206941 0)
(0.267065 0.0209603 0)
(0.260167 0.0201021 0)
(0.253143 0.0178864 -2.95771e-19)
(0.245917 0.0141461 0)
(0.238122 0.0093313 6.49856e-19)
(0.229895 0.00390336 0)
(0.220175 -0.000949701 6.79296e-19)
(0.2094 -0.00440102 0)
(0.195895 -0.00591588 -6.73007e-19)
(0.178806 -0.00435102 0)
(0.156241 0.000360365 6.92487e-19)
(0.125609 0.00840888 -3.66009e-19)
(0.0852123 0.0188432 0)
(0.0299961 0.0309272 -1.01115e-18)
(-0.0531885 0.0479843 -5.54032e-19)
(-0.191894 0.0797847 -4.2265e-19)
(-0.377497 0.134955 0)
(-0.610681 0.206292 -1.88708e-19)
(-0.888443 0.287039 -1.34137e-19)
(-1.19542 0.371126 0)
(-1.51071 0.446021 8.06592e-20)
(-1.81458 0.494691 -1.37743e-19)
(-2.09797 0.511622 0)
(-2.34699 0.499104 -5.39892e-20)
(-2.55536 0.464584 0)
(-2.72301 0.416103 1.42554e-19)
(-2.85426 0.361128 0)
(-2.95487 0.306296 -1.30192e-19)
(-3.03195 0.255547 -4.17031e-20)
(-3.09141 0.211079 4.05679e-20)
(-3.13858 0.173582 7.84108e-20)
(-3.17717 0.142861 -7.59081e-20)
(-3.20994 0.118214 0)
(-3.23866 0.0987559 0)
(-3.26457 0.0835339 0)
(-3.28852 0.0716811 2.04038e-19)
(-3.31098 0.0624525 6.64692e-20)
(-3.33227 0.0552607 -6.49518e-20)
(-3.35258 0.0496543 0)
(-3.37213 0.0453036 -6.18968e-20)
(-3.39088 0.0418825 6.10373e-20)
(-3.40896 0.0390652 5.98635e-20)
(-3.42653 0.0366828 0)
(-3.44357 0.0346852 0)
(-3.46014 0.032903 0)
(-3.47627 0.0312438 5.61433e-20)
(-3.4919 0.0297907 0)
(-3.50686 0.0284304 -1.09354e-19)
(-3.5212 0.0269967 -1.62314e-19)
(-3.53503 0.025641 1.07108e-19)
(-3.54808 0.0243609 0)
(-3.56057 0.0230782 5.24713e-20)
(-3.57244 0.0217874 0)
(-3.58361 0.0204468 1.03561e-19)
(-3.59412 0.0190786 -5.1252e-20)
(-3.60398 0.0177543 -5.08539e-20)
(-3.61325 0.0163972 0)
(-3.62193 0.0150529 -1.5068e-19)
(-3.6299 0.0136552 9.95126e-20)
(-3.6373 0.012217 4.93298e-20)
(-3.64406 0.0107784 0)
(-3.65037 0.00926518 4.81905e-20)
(-3.65622 0.00778987 1.42777e-19)
(-3.66176 0.00652027 0)
(-3.66676 0.00538169 9.2719e-20)
(-3.67121 0.00431835 9.14494e-20)
(-3.67505 0.00340428 9.02092e-20)
(-3.67823 0.00253726 0)
(-3.68082 0.00173982 0)
(-3.68272 0.00102279 0)
(-3.68369 0.000353729 -4.24865e-20)
(-3.68397 -9.15516e-05 -4.20231e-20)
(-3.68364 -0.000424364 0)
(-3.683 -0.000739955 -8.07475e-20)
(-3.68217 -0.00107947 -7.90838e-20)
(-3.68106 -0.00143315 0)
(-3.67978 -0.00172052 -7.49251e-20)
(-3.67806 -0.00199443 -1.45195e-19)
(-3.67635 -0.00206274 6.95809e-20)
(-3.67437 -0.00208939 6.74697e-20)
(-3.67251 -0.00198717 0)
(-3.67069 -0.00155733 0)
(-3.66915 -0.00110092 0)
(-3.6684 -0.000115166 5.39438e-20)
(-3.66853 0.00140205 -5.17629e-20)
(-3.67012 0.00317092 -9.86554e-20)
(-3.6736 0.00558614 4.80216e-20)
(-3.67932 0.00843064 -4.57882e-20)
(-3.68663 0.0117826 -4.61355e-20)
(-3.69527 0.0152096 0)
(-3.7047 0.0182253 0)
(-3.71526 0.0208508 4.13264e-20)
(-3.72646 0.0225493 0)
(-3.7382 0.0230006 0)
(-3.75028 0.0220977 -6.31361e-20)
(-3.76238 0.0195666 0)
(-3.77429 0.0154182 -2.18032e-20)
(-3.78518 0.00969808 1.72796e-20)
(-3.79442 0.00273506 0)
(-3.79729 -0.00522746 -1.40744e-20)
(-3.79165 -0.0141909 0)
(-3.77572 -0.0237632 0)
(-3.74806 -0.0333515 5.14766e-20)
(-3.7071 -0.0426711 -1.38087e-19)
(-3.6516 -0.0517128 1.01533e-19)
(-3.58009 -0.0607356 0)
(-3.49115 -0.0705941 0)
(-3.3814 -0.0828524 -1.76795e-19)
(-3.24669 -0.0994117 0)
(-3.08044 -0.121705 -2.03925e-19)
(-2.87654 -0.149445 0)
(-2.62973 -0.180974 0)
(-2.33957 -0.212658 0)
(-2.00825 -0.241136 -9.92571e-20)
(-1.63738 -0.265617 0)
(-1.23209 -0.28682 -2.18923e-20)
(-0.798751 -0.307412 0)
(-0.307332 -0.334147 0)
(0.20345 -0.36052 3.64868e-19)
(0.659731 -0.365311 -4.18538e-19)
(1.07913 -0.345436 0)
(1.46945 -0.312204 0)
(1.8333 -0.275325 0)
(2.15495 -0.234407 1.62888e-18)
(2.44334 -0.185593 0)
(2.64386 -0.107989 -1.20801e-18)
(-0.000386936 0.0331885 7.77171e-22)
(0.015057 0.0181646 3.38289e-18)
(0.0619133 -0.0733549 0)
(0.122303 -0.165404 -8.78259e-19)
(0.173332 -0.216128 0)
(0.212308 -0.231957 0)
(0.24331 -0.228805 -2.01173e-22)
(0.268922 -0.217199 1.23885e-19)
(0.29079 -0.202176 1.05301e-19)
(0.309983 -0.185876 9.24277e-20)
(0.327102 -0.16922 0)
(0.342441 -0.152641 0)
(0.356133 -0.136365 -7.32712e-20)
(0.368239 -0.120523 -1.40547e-19)
(0.378775 -0.105198 1.36586e-19)
(0.387736 -0.0904516 0)
(0.395107 -0.0763268 1.32924e-19)
(0.400872 -0.0628549 -6.6257e-20)
(0.405021 -0.050065 0)
(0.407562 -0.03798 1.34203e-19)
(0.408507 -0.0266212 6.79583e-20)
(0.407894 -0.0160146 -1.38135e-19)
(0.40577 -0.00618737 -7.04422e-20)
(0.402229 0.00285534 0)
(0.397383 0.0111112 1.46841e-19)
(0.391364 0.018611 1.50624e-19)
(0.384325 0.025373 0)
(0.376422 0.0313597 1.60212e-19)
(0.367809 0.0365226 0)
(0.358621 0.0408019 1.71984e-19)
(0.349001 0.0441336 8.93244e-20)
(0.339072 0.0464716 0)
(0.328952 0.0477831 0)
(0.318752 0.0480799 0)
(0.308578 0.047427 0)
(0.298542 0.0459089 0)
(0.28874 0.0436124 0)
(0.279285 0.0406941 2.19587e-19)
(0.270258 0.037322 -3.34342e-19)
(0.261726 0.0336926 0)
(0.253732 0.0300646 0)
(0.246274 0.0266725 0)
(0.239296 0.0237356 7.6132e-23)
(0.232707 0.0214383 2.28404e-19)
(0.226385 0.0198979 4.59191e-19)
(0.220174 0.019179 -4.63494e-19)
(0.213911 0.0192761 -2.35018e-19)
(0.207421 0.0201308 2.40151e-19)
(0.200554 0.0216198 -3.13664e-22)
(0.193184 0.0235602 2.55325e-19)
(0.185248 0.0256984 0)
(0.176725 0.0277881 2.79832e-19)
(0.16765 0.0295506 -5.67161e-22)
(0.158085 0.0306912 0)
(0.148086 0.030917 0)
(0.137656 0.0300222 -3.60782e-19)
(0.126614 0.0279081 0)
(0.114529 0.02462 0)
(0.100759 0.0208999 4.32453e-19)
(0.0841961 0.0180151 9.04803e-19)
(0.0634994 0.0176551 -4.68817e-19)
(0.0367927 0.0212913 0)
(0.00164626 0.0297396 5.14545e-19)
(-0.0455358 0.04413 0)
(-0.109108 0.0659025 5.0218e-19)
(-0.194823 0.0965187 4.58722e-19)
(-0.312818 0.137283 -8.12553e-19)
(-0.471651 0.191344 -3.45877e-19)
(-0.673432 0.263156 0)
(-0.914858 0.352957 4.51333e-19)
(-1.1844 0.457087 0)
(-1.46907 0.564842 4.45712e-19)
(-1.75434 0.662285 2.53015e-19)
(-2.01908 0.735342 2.21311e-19)
(-2.24189 0.772342 -1.99118e-19)
(-2.41511 0.770548 2.71418e-19)
(-2.54144 0.734758 0)
(-2.63011 0.672937 0)
(-2.69129 0.59587 -1.5261e-19)
(-2.73528 0.513853 -2.17891e-19)
(-2.7701 0.434164 0)
(-2.80059 0.361724 6.67815e-20)
(-2.82967 0.298983 0)
(-2.85829 0.246542 -1.85838e-19)
(-2.88666 0.20381 -3.82742e-22)
(-2.91451 0.169652 4.56706e-22)
(-2.94154 0.142654 1.11572e-19)
(-2.96749 0.121467 0)
(-2.99228 0.104865 -1.05029e-19)
(-3.01591 0.0918625 -4.89302e-22)
(-3.03837 0.0816944 0)
(-3.0597 0.0737065 0)
(-3.08005 0.0673955 0)
(-3.09943 0.0623404 9.32592e-20)
(-3.11803 0.0581902 0)
(-3.13579 0.0547279 0)
(-3.15285 0.0517412 0)
(-3.16929 0.0490972 0)
(-3.18499 0.0466775 0)
(-3.2001 0.0443764 8.37572e-20)
(-3.21463 0.0422817 0)
(-3.22852 0.040296 8.22928e-20)
(-3.24183 0.0381529 8.14139e-20)
(-3.25459 0.036141 -8.07983e-20)
(-3.26656 0.0342352 0)
(-3.27803 0.0321821 -7.94222e-20)
(-3.2887 0.0302113 0)
(-3.29874 0.0282603 -7.82307e-20)
(-3.3082 0.0263037 7.77115e-20)
(-3.31711 0.0244173 2.31537e-19)
(-3.32529 0.0225605 0)
(-3.33288 0.0206964 2.28823e-19)
(-3.3399 0.0188261 7.57188e-20)
(-3.34634 0.0169989 0)
(-3.35214 0.0151329 1.49459e-19)
(-3.3574 0.0132913 1.48358e-19)
(-3.362 0.0115095 -2.2022e-19)
(-3.36589 0.00973149 0)
(-3.36912 0.00800525 -7.17068e-20)
(-3.37157 0.00626926 -7.08425e-20)
(-3.37329 0.00453612 -2.1007e-19)
(-3.37445 0.00278309 0)
(-3.37493 0.00108029 0)
(-3.37491 -0.000299636 0)
(-3.37458 -0.0013566 -6.62835e-20)
(-3.37388 -0.00214727 0)
(-3.37241 -0.00278978 0)
(-3.37077 -0.00350814 6.32336e-20)
(-3.36841 -0.00422349 6.19604e-20)
(-3.36599 -0.00482011 0)
(-3.36332 -0.00512521 0)
(-3.36045 -0.00529993 1.15086e-19)
(-3.35759 -0.0054416 0)
(-3.35451 -0.00550925 -1.06962e-19)
(-3.3514 -0.0054812 -1.03317e-19)
(-3.34845 -0.00514775 0)
(-3.34583 -0.00442174 0)
(-3.3431 -0.00321842 8.86895e-20)
(-3.34104 -0.00140399 -5.20482e-22)
(-3.33934 0.00122101 2.77035e-23)
(-3.33826 0.00471389 0)
(-3.33768 0.00881172 1.50165e-19)
(-3.33804 0.0132042 0)
(-3.33929 0.0180264 0)
(-3.34197 0.022802 0)
(-3.34576 0.0269898 -6.84804e-20)
(-3.35144 0.0304618 0)
(-3.35882 0.0325954 1.15697e-19)
(-3.36775 0.0329051 5.18406e-20)
(-3.3786 0.0311056 0)
(-3.39045 0.0269198 3.53329e-20)
(-3.40259 0.0200152 0)
(-3.41418 0.0104564 0)
(-3.42283 -0.00163769 7.54424e-20)
(-3.42667 -0.0160731 -6.33396e-20)
(-3.42318 -0.0322247 0)
(-3.40972 -0.0493698 -1.39838e-19)
(-3.38286 -0.0670495 1.09885e-19)
(-3.33934 -0.0851635 0)
(-3.27566 -0.104218 0)
(-3.18825 -0.12542 0)
(-3.07257 -0.150667 8.24565e-19)
(-2.92386 -0.181933 0)
(-2.73633 -0.220538 3.11755e-19)
(-2.50406 -0.266426 0)
(-2.22459 -0.317424 0)
(-1.89936 -0.369826 0)
(-1.53174 -0.418099 0)
(-1.12512 -0.45915 0)
(-0.682785 -0.493691 0)
(-0.20255 -0.52299 -2.08819e-19)
(0.28287 -0.541196 0)
(0.742897 -0.543416 -2.28279e-19)
(1.17061 -0.530212 7.8975e-19)
(1.56844 -0.500757 0)
(1.93807 -0.458215 0)
(2.27898 -0.409178 -6.6082e-19)
(2.58276 -0.354547 -7.0379e-19)
(2.85867 -0.290065 7.33629e-19)
(3.07088 -0.198704 7.97241e-19)
(-0.00205919 0.011227 -6.10191e-18)
(0.0415939 -0.09418 -3.03788e-18)
(0.104867 -0.21378 -9.59526e-19)
(0.157658 -0.27679 -2.85472e-19)
(0.191432 -0.292073 0)
(0.213749 -0.285058 2.84038e-19)
(0.230766 -0.269695 -1.11442e-19)
(0.245024 -0.251403 0)
(0.257523 -0.232096 -7.83517e-20)
(0.268711 -0.212522 0)
(0.278777 -0.193023 1.26257e-19)
(0.287788 -0.173783 0)
(0.29575 -0.15491 5.53526e-20)
(0.302638 -0.136482 1.06172e-19)
(0.308409 -0.118553 -1.03039e-19)
(0.313013 -0.101174 0)
(0.316403 -0.0843937 -9.98166e-20)
(0.318536 -0.0682616 0)
(0.319378 -0.0528164 0)
(0.318907 -0.0380987 -9.98404e-20)
(0.317117 -0.0241636 0)
(0.314015 -0.011068 3.43877e-23)
(0.309631 0.00113378 0)
(0.304016 0.0123983 0)
(0.297235 0.0226943 -8.9897e-23)
(0.289392 0.0320063 -1.09753e-19)
(0.280618 0.0403069 -1.12384e-19)
(0.271066 0.0475393 -1.15656e-19)
(0.260902 0.0536386 0)
(0.250299 0.0585442 -2.45808e-19)
(0.239428 0.0622051 0)
(0.228456 0.064588 -1.31055e-19)
(0.217539 0.0656876 0)
(0.206818 0.0655432 0)
(0.19642 0.0642422 1.43347e-19)
(0.186456 0.0619032 0)
(0.177007 0.0586722 -1.50233e-19)
(0.168138 0.0547364 -1.05564e-22)
(0.159866 0.0503095 3.1093e-19)
(0.152187 0.0456481 -3.14663e-19)
(0.14505 0.0410664 0)
(0.138363 0.0368627 0)
(0.131997 0.0332988 -1.61713e-19)
(0.125802 0.0305885 0)
(0.119613 0.0288767 -1.65905e-19)
(0.113258 0.0282362 1.68814e-19)
(0.106562 0.0286638 1.7259e-19)
(0.0993563 0.0300787 0)
(0.0914869 0.0323108 -1.83555e-19)
(0.082826 0.0351065 -1.91197e-19)
(0.0732858 0.0381438 4.00467e-19)
(0.0628205 0.0411028 -2.11994e-19)