/*--------------------------------*- C++ -*----------------------------------*\
| =========                 |                                                 |
| \\      /  F ield         | OpenFOAM: The Open Source CFD Toolbox           |
|  \\    /   O peration     | Version:  2406                                  |
|   \\  /    A nd           | Website:  www.openfoam.com                      |
|    \\/     M anipulation  |                                                 |
\*---------------------------------------------------------------------------*/
FoamFile
{
    version     2.0;
    format      ascii;
    arch        "LSB;label=32;scalar=64";
    class       volVectorField;
    location    "2.5";
    object      flux;
}
// * * * * * * * * * * * * * * * * * * * * * * * * * * * * * * * * * * * * * //

dimensions      [0 1 -1 1 0 0 0];

internalField   nonuniform List<vector> 
2500
(
(0.00158863 0.00158863 0)
(0.00475874 0.00159558 0)
(0.00791682 0.00160987 0)
(0.0110581 0.00163124 0)
(0.0141715 0.0016597 0)
(0.0172491 0.00169527 0)
(0.0202826 0.00173796 0)
(0.0232636 0.00178777 0)
(0.0261838 0.00184469 0)
(0.0290344 0.00190872 0)
(0.0318065 0.00197983 0)
(0.0344913 0.002058 0)
(0.0370794 0.00214318 0)
(0.0395616 0.00223532 0)
(0.0419283 0.00233433 0)
(0.0441698 0.00244013 0)
(0.0462766 0.00255257 0)
(0.0482387 0.00267152 0)
(0.0500463 0.00279678 0)
(0.0516897 0.00292812 0)
(0.0531593 0.0030653 0)
(0.0544456 0.003208 0)
(0.0555392 0.00335588 0)
(0.0564315 0.00350853 0)
(0.0571138 0.00366551 0)
(0.0575784 0.00382631 0)
(0.057818 0.00399039 0)
(0.057826 0.00415712 0)
(0.0575968 0.00432584 0)
(0.0571259 0.00449584 0)
(0.0564096 0.00466635 0)
(0.0554456 0.00483655 0)
(0.0542328 0.00500558 0)
(0.0527717 0.00517254 0)
(0.051064 0.0053365 0)
(0.0491132 0.00549651 0)
(0.0469244 0.00565158 0)
(0.0445041 0.00580076 0)
(0.0418609 0.00594305 0)
(0.0390048 0.0060775 0)
(0.0359476 0.00620318 0)
(0.0327026 0.00631919 0)
(0.0292849 0.00642469 0)
(0.0257108 0.00651888 0)
(0.0219982 0.00660107 0)
(0.018166 0.00667064 0)
(0.0142343 0.00672707 0)
(0.0102239 0.00676994 0)
(0.00615665 0.0067987 0)
(0.00205578 0.0068118 0)
(0.00159558 0.00475874 0)
(0.00477998 0.00477998 0)
(0.00795248 0.00482277 0)
(0.0111079 0.00488681 0)
(0.0142356 0.00497217 0)
(0.0173274 0.00507887 0)
(0.0203751 0.00520694 0)
(0.0233704 0.00535636 0)
(0.0263047 0.00552713 0)
(0.0291695 0.00571922 0)
(0.0319558 0.00593258 0)
(0.0346546 0.00616712 0)
(0.0372567 0.00642271 0)
(0.0397527 0.00669919 0)
(0.0421331 0.00699632 0)
(0.0443881 0.00731381 0)
(0.046508 0.00765128 0)
(0.0484829 0.00800828 0)
(0.0503029 0.00838425 0)
(0.0519583 0.00877852 0)
(0.0534392 0.00919032 0)
(0.0547361 0.00961873 0)
(0.0558398 0.0100627 0)
(0.0567411 0.0105211 0)
(0.0574316 0.0109924 0)
(0.0579033 0.0114753 0)
(0.0581488 0.0119681 0)
(0.0581614 0.0124688 0)
(0.0579356 0.0129756 0)
(0.0574664 0.0134863 0)
(0.0567503 0.0139985 0)
(0.0557848 0.0145098 0)
(0.0545688 0.0150177 0)
(0.0531026 0.0155193 0)
(0.051388 0.016012 0)
(0.0494283 0.0164928 0)
(0.0472286 0.0169589 0)
(0.0447956 0.0174072 0)
(0.0421376 0.0178349 0)
(0.0392649 0.018239 0)
(0.0361892 0.0186168 0)
(0.0329241 0.0189655 0)
(0.0294845 0.0192827 0)
(0.0258872 0.0195658 0)
(0.0221499 0.0198129 0)
(0.018292 0.020022 0)
(0.0143336 0.0201916 0)
(0.0102955 0.0203206 0)
(0.00619851 0.0204078 0)
(0.00206889 0.0204499 0)
(0.00160987 0.00791682 0)
(0.00482277 0.00795248 0)
(0.00802364 0.00802364 0)
(0.0112075 0.00813035 0)
(0.0143636 0.00827261 0)
(0.0174839 0.00845047 0)
(0.0205601 0.00866395 0)
(0.0235838 0.00891305 0)
(0.0265467 0.00919776 0)
(0.0294398 0.00951804 0)
(0.0322544 0.0098738 0)
(0.0349814 0.0102649 0)
(0.0376115 0.0106912 0)
(0.0401352 0.0111523 0)
(0.0425429 0.0116479 0)
(0.0448248 0.0121775 0)
(0.046971 0.0127405 0)
(0.0489716 0.0133362 0)
(0.0508165 0.0139636 0)
(0.0524958 0.0146216 0)
(0.0539995 0.0153089 0)
(0.055318 0.0160241 0)
(0.0564416 0.0167653 0)
(0.0573612 0.0175307 0)
(0.0580681 0.0183179 0)
(0.0585541 0.0191244 0)
(0.0588115 0.0199476 0)
(0.0588335 0.0207842 0)
(0.0586143 0.021631 0)
(0.0581488 0.0224844 0)
(0.0574332 0.0233406 0)
(0.0564648 0.0241953 0)
(0.0552424 0.0250444 0)
(0.0537661 0.0258832 0)
(0.0520375 0.0267071 0)
(0.0500601 0.0275113 0)
(0.0478387 0.0282908 0)
(0.0453801 0.0290408 0)
(0.0426927 0.0297563 0)
(0.0397867 0.0304325 0)
(0.0366741 0.0310647 0)
(0.0333684 0.0316483 0)
(0.0298852 0.032179 0)
(0.026241 0.032653 0)
(0.0224543 0.0330665 0)
(0.0185447 0.0334164 0)
(0.0145328 0.0337001 0)
(0.0104401 0.0339154 0)
(0.00628595 0.0340609 0)
(0.00209786 0.0341335 0)
(0.00163124 0.0110581 0)
(0.00488681 0.0111079 0)
(0.00813035 0.0112075 0)
(0.0113569 0.0113569 0)
(0.0145557 0.0115561 0)
(0.0177187 0.0118052 0)
(0.0208376 0.0121042 0)
(0.0239042 0.0124531 0)
(0.0269097 0.0128519 0)
(0.0298455 0.0133006 0)
(0.0327027 0.013799 0)
(0.035472 0.014347 0)
(0.0381441 0.0149444 0)
(0.0407095 0.0155907 0)
(0.0431583 0.0162854 0)
(0.0454807 0.0170279 0)
(0.0476666 0.0178174 0)
(0.0497059 0.0186528 0)
(0.0515883 0.0195328 0)
(0.0533036 0.0204559 0)
(0.0548417 0.0214204 0)
(0.0561926 0.0224241 0)
(0.0573464 0.0234646 0)
(0.0582937 0.0245391 0)
(0.0590254 0.0256446 0)
(0.059533 0.0267775 0)
(0.0598085 0.0279338 0)
(0.0598449 0.0291094 0)
(0.0596358 0.0302996 0)
(0.059176 0.0314993 0)
(0.0584612 0.032703 0)
(0.0574886 0.0339051 0)
(0.0562567 0.0350993 0)
(0.0547654 0.0362794 0)
(0.0530161 0.0374387 0)
(0.0510121 0.0385705 0)
(0.0487582 0.0396678 0)
(0.0462611 0.0407237 0)
(0.0435294 0.0417312 0)
(0.0405733 0.0426834 0)
(0.037405 0.0435738 0)
(0.0340384 0.0443958 0)
(0.0304892 0.0451435 0)
(0.0267746 0.0458112 0)
(0.0229133 0.0463937 0)
(0.0189256 0.0468867 0)
(0.0148326 0.0472861 0)
(0.0106564 0.0475888 0)
(0.00641661 0.0477923 0)
(0.00214151 0.0478944 0)
(0.0016597 0.0141715 0)
(0.00497217 0.0142356 0)
(0.00827261 0.0143636 0)
(0.0115561 0.0145557 0)
(0.0148119 0.0148119 0)
(0.0180319 0.0151323 0)
(0.021208 0.0155169 0)
(0.0243316 0.0159657 0)
(0.0273942 0.0164788 0)
(0.0303869 0.0170562 0)
(0.0333009 0.0176976 0)
(0.0361268 0.018403 0)
(0.0388551 0.019172 0)
(0.0414762 0.0200041 0)
(0.0439801 0.0208988 0)
(0.0463568 0.0218552 0)
(0.0485959 0.0228723 0)
(0.050687 0.0239487 0)
(0.0526197 0.025083 0)
(0.0543834 0.0262731 0)
(0.0559677 0.0275168 0)
(0.0573622 0.0288114 0)
(0.0585566 0.0301539 0)
(0.0595412 0.0315406 0)
(0.0603064 0.0329676 0)
(0.0608433 0.0344304 0)
(0.0611435 0.035924 0)
(0.0611993 0.0374428 0)
(0.0610041 0.0389808 0)
(0.0605522 0.0405316 0)
(0.0598389 0.042088 0)
(0.0588611 0.0436427 0)
(0.0576167 0.0451876 0)
(0.0561055 0.0467147 0)
(0.0543286 0.0482153 0)
(0.0522892 0.0496805 0)
(0.0499919 0.0511014 0)
(0.0474435 0.052469 0)
(0.0446525 0.0537742 0)
(0.0416293 0.0550081 0)
(0.0383865 0.0561619 0)
(0.0349382 0.0572274 0)
(0.0313005 0.0581967 0)
(0.0274913 0.0590623 0)
(0.0235298 0.0598176 0)
(0.019437 0.0604567 0)
(0.0152349 0.0609744 0)
(0.0109463 0.0613666 0)
(0.00659161 0.06163 0)
(0.00220001 0.0617623 0)
(0.00169527 0.0172491 0)
(0.00507887 0.0173274 0)
(0.00845047 0.0174839 0)
(0.0118052 0.0177187 0)
(0.0151323 0.0180319 0)
(0.0184237 0.0184237 0)
(0.0216711 0.018894 0)
(0.0248661 0.0194429 0)
(0.0280002 0.0200705 0)
(0.0310643 0.0207768 0)
(0.0340495 0.0215617 0)
(0.0369463 0.0224249 0)
(0.0397452 0.0233662 0)
(0.0424363 0.024385 0)
(0.0450094 0.0254806 0)
(0.0474542 0.0266521 0)
(0.0497602 0.0278983 0)
(0.0519166 0.0292175 0)
(0.0539127 0.030608 0)
(0.0557375 0.0320674 0)
(0.05738 0.033593 0)
(0.0588296 0.0351816 0)
(0.0600756 0.0368294 0)
(0.0611074 0.0385321 0)
(0.0619152 0.0402848 0)
(0.0624893 0.0420821 0)
(0.0628209 0.0439178 0)
(0.0629018 0.0457852 0)
(0.0627246 0.0476769 0)
(0.0622831 0.0495849 0)
(0.0615723 0.0515005 0)
(0.0605883 0.0534146 0)
(0.0593288 0.0553173 0)
(0.057793 0.0571986 0)
(0.0559819 0.0590478 0)
(0.0538982 0.060854 0)
(0.0515467 0.0626061 0)
(0.0489339 0.0642929 0)
(0.0460684 0.0659031 0)
(0.042961 0.0674257 0)
(0.0396243 0.0688498 0)
(0.0360731 0.0701652 0)
(0.032324 0.0713619 0)
(0.0283955 0.0724309 0)
(0.0243077 0.0733637 0)
(0.0200824 0.074153 0)
(0.0157425 0.0747924 0)
(0.011312 0.0752767 0)
(0.00681227 0.0756019 0)
(0.00227377 0.0757652 0)
(0.00173796 0.0202826 0)
(0.00520694 0.0203751 0)
(0.00866395 0.0205601 0)
(0.0121042 0.0208376 0)
(0.0155169 0.021208 0)
(0.018894 0.0216711 0)
(0.0222272 0.0222272 0)
(0.0255081 0.0228764 0)
(0.0287281 0.0236188 0)
(0.0318781 0.0244543 0)
(0.034949 0.025383 0)
(0.0379313 0.0264047 0)
(0.0408152 0.027519 0)
(0.0435906 0.0287254 0)
(0.0462472 0.0300231 0)
(0.0487744 0.0314111 0)
(0.0511613 0.032888 0)
(0.0533968 0.0344521 0)
(0.0554696 0.0361012 0)
(0.0573684 0.0378327 0)
(0.0590819 0.0396433 0)
(0.0605985 0.0415294 0)
(0.0619071 0.0434866 0)
(0.0629966 0.0455097 0)
(0.0638565 0.0475932 0)
(0.0644763 0.0497305 0)
(0.0648466 0.0519143 0)
(0.0649584 0.0541368 0)
(0.0648038 0.0563891 0)
(0.0643758 0.0586617 0)
(0.0636686 0.0609443 0)
(0.0626779 0.063226 0)
(0.0614008 0.0654951 0)
(0.059836 0.0677394 0)
(0.0579841 0.0699462 0)
(0.0558475 0.0721025 0)
(0.0534308 0.0741949 0)
(0.0507405 0.0762099 0)
(0.0477852 0.078134 0)
(0.0445761 0.0799539 0)
(0.041126 0.0816567 0)
(0.0374502 0.0832297 0)
(0.0335662 0.0846611 0)
(0.029493 0.08594 0)
(0.0252519 0.0870561 0)
(0.0208658 0.0880006 0)
(0.0163587 0.0887659 0)
(0.0117558 0.0893455 0)
(0.00708008 0.0897346 0)
(0.00236329 0.08993 0)
(0.00178777 0.0232636 0)
(0.00535636 0.0233704 0)
(0.00891305 0.0235838 0)
(0.0124531 0.0239042 0)
(0.0159657 0.0243316 0)
(0.0194429 0.0248661 0)
(0.0228764 0.0255081 0)
(0.0262577 0.0262577 0)
(0.0295781 0.027115 0)
(0.0328286 0.0280802 0)
(0.0359999 0.0291532 0)
(0.0390823 0.0303339 0)
(0.0420659 0.031622 0)
(0.0449404 0.033017 0)
(0.0476951 0.0345181 0)
(0.0503191 0.0361241 0)
(0.0528012 0.0378337 0)
(0.0551298 0.0396449 0)
(0.0572932 0.0415553 0)
(0.0592796 0.0435619 0)
(0.0610768 0.0456611 0)
(0.0626728 0.0478488 0)
(0.0640559 0.0501199 0)
(0.065214 0.0524688 0)
(0.0661359 0.0548887 0)
(0.0668105 0.0573723 0)
(0.0672273 0.0599113 0)
(0.0673765 0.0624963 0)
(0.0672495 0.0651173 0)
(0.0668383 0.0677631 0)
(0.0661366 0.0704218 0)
(0.065139 0.0730806 0)
(0.0638421 0.0757259 0)
(0.0622441 0.0783435 0)
(0.060345 0.0809184 0)
(0.0581469 0.0834354 0)
(0.0556541 0.0858788 0)
(0.052873 0.0882326 0)
(0.0498125 0.0904811 0)
(0.0464837 0.0926085 0)
(0.0429001 0.0945995 0)
(0.0390776 0.0964394 0)
(0.0350343 0.098114 0)
(0.0307905 0.0996105 0)
(0.0263684 0.100917 0)
(0.0217921 0.102022 0)
(0.0170873 0.102918 0)
(0.0122807 0.103597 0)
(0.00739681 0.104052 0)
(0.00246917 0.104281 0)
(0.00184469 0.0261838 0)
(0.00552713 0.0263047 0)
(0.00919776 0.0265467 0)
(0.0128519 0.0269097 0)
(0.0164788 0.0273942 0)
(0.0200705 0.0280002 0)
(0.0236188 0.0287281 0)
(0.027115 0.0295781 0)
(0.0305506 0.0305506 0)
(0.0339162 0.0316456 0)
(0.0372027 0.0328633 0)
(0.0404001 0.0342036 0)
(0.0434983 0.0356663 0)
(0.0464867 0.0372509 0)
(0.0493544 0.0389567 0)
(0.0520901 0.0407825 0)
(0.0546821 0.0427268 0)
(0.0571183 0.0447875 0)
(0.0593866 0.046962 0)
(0.0614743 0.0492471 0)
(0.0633688 0.0516389 0)
(0.0650573 0.0541327 0)
(0.066527 0.056723 0)
(0.0677654 0.0594032 0)
(0.06876 0.062166 0)
(0.0694989 0.065003 0)
(0.0699706 0.0679048 0)
(0.0701644 0.0708609 0)
(0.0700706 0.0738596 0)
(0.0696803 0.0768883 0)
(0.0689861 0.0799334 0)
(0.067982 0.0829802 0)
(0.0666637 0.086013 0)
(0.0650285 0.0890155 0)
(0.063076 0.0919705 0)
(0.0608078 0.0948603 0)
(0.058228 0.0976668 0)
(0.0553428 0.100372 0)
(0.0521611 0.102956 0)
(0.0486945 0.105403 0)
(0.0449568 0.107693 0)
(0.0409647 0.10981 0)
(0.0367372 0.111738 0)
(0.0322957 0.113461 0)
(0.0276638 0.114965 0)
(0.0228672 0.116238 0)
(0.0179331 0.11727 0)
(0.01289 0.118052 0)
(0.00776446 0.118577 0)
(0.00259207 0.11884 0)
(0.00190872 0.0290344 0)
(0.00571922 0.0291695 0)
(0.00951804 0.0294398 0)
(0.0133006 0.0298455 0)
(0.0170562 0.0303869 0)
(0.0207768 0.0310643 0)
(0.0244543 0.0318781 0)
(0.0280802 0.0328286 0)
(0.0316456 0.0339162 0)
(0.0351413 0.0351413 0)
(0.0385579 0.036504 0)
(0.0418853 0.0380045 0)
(0.0451132 0.0396425 0)
(0.0482308 0.0414178 0)
(0.0512267 0.0433296 0)
(0.0540892 0.0453768 0)
(0.0568062 0.0475578 0)
(0.0593651 0.0498706 0)
(0.0617529 0.0523123 0)
(0.0639565 0.0548796 0)
(0.0659624 0.0575682 0)
(0.0677569 0.0603729 0)
(0.0693263 0.0632878 0)
(0.0706571 0.0663056 0)
(0.0717358 0.0694183 0)
(0.0725493 0.0726165 0)
(0.0730851 0.0758896 0)
(0.0733313 0.0792259 0)
(0.0732769 0.0826124 0)
(0.0729122 0.0860347 0)
(0.0722284 0.0894776 0)
(0.0712186 0.0929242 0)
(0.0698775 0.0963571 0)
(0.0682016 0.0997574 0)
(0.0661898 0.103106 0)
(0.0638432 0.106382 0)
(0.0611653 0.109565 0)
(0.0581625 0.112634 0)
(0.0548436 0.115568 0)
(0.0512205 0.118347 0)
(0.0473076 0.120949 0)
(0.0431223 0.123355 0)
(0.0386848 0.125546 0)
(0.0340176 0.127505 0)
(0.029146 0.129216 0)
(0.0240974 0.130665 0)
(0.018901 0.131839 0)
(0.0135873 0.132729 0)
(0.0081853 0.133326 0)
(0.00273275 0.133626 0)
(0.00197983 0.0318065 0)
(0.00593258 0.0319558 0)
(0.0098738 0.0322544 0)
(0.013799 0.0327027 0)
(0.0176976 0.0333009 0)
(0.0215617 0.0340495 0)
(0.025383 0.034949 0)
(0.0291532 0.0359999 0)
(0.0328633 0.0372027 0)
(0.036504 0.0385579 0)
(0.0400659 0.0400659 0)
(0.0435386 0.0417269 0)
(0.0469116 0.0435409 0)
(0.0501738 0.0455077 0)
(0.0533134 0.0476267 0)
(0.0563183 0.0498969 0)
(0.0591759 0.0523168 0)
(0.0618728 0.0548841 0)
(0.0643956 0.0575962 0)
(0.0667302 0.0604493 0)
(0.0688621 0.063439 0)
(0.0707769 0.0665598 0)
(0.0724598 0.0698051 0)
(0.073896 0.0731672 0)
(0.0750709 0.0766371 0)
(0.0759702 0.0802047 0)
(0.07658 0.0838582 0)
(0.0768872 0.0875847 0)
(0.0768794 0.0913697 0)
(0.0765455 0.0951972 0)
(0.0758756 0.09905 0)
(0.0748615 0.10291 0)
(0.0734968 0.106756 0)
(0.0717771 0.110568 0)
(0.0697003 0.114324 0)
(0.067267 0.118001 0)
(0.0644803 0.121576 0)
(0.0613462 0.125024 0)
(0.0578737 0.128322 0)
(0.0540749 0.131447 0)
(0.049965 0.134374 0)
(0.0455622 0.137082 0)
(0.0408877 0.139549 0)
(0.0359659 0.141755 0)
(0.0308235 0.143683 0)
(0.02549 0.145315 0)
(0.0199968 0.146638 0)
(0.0143769 0.147641 0)
(0.00866183 0.148314 0)
(0.00289206 0.148652 0)
(0.002058 0.0344913 0)
(0.00616712 0.0346546 0)
(0.0102649 0.0349814 0)
(0.014347 0.035472 0)
(0.018403 0.0361268 0)
(0.0224249 0.0369463 0)
(0.0264047 0.0379313 0)
(0.0303339 0.0390823 0)
(0.0342036 0.0404001 0)
(0.0380045 0.0418853 0)
(0.0417269 0.0435386 0)
(0.0453603 0.0453603 0)
(0.0488941 0.0473508 0)
(0.0523166 0.0495099 0)
(0.0556159 0.0518373 0)
(0.0587793 0.0543319 0)
(0.0617934 0.0569926 0)
(0.0646445 0.059817 0)
(0.0673181 0.0628024 0)
(0.0697993 0.065945 0)
(0.0720728 0.0692402 0)
(0.0741229 0.0726821 0)
(0.0759337 0.0762638 0)
(0.0774892 0.079977 0)
(0.0787733 0.0838119 0)
(0.0797704 0.0877575 0)
(0.0804651 0.091801 0)
(0.0808427 0.0959281 0)
(0.0808894 0.100123 0)
(0.0805926 0.104368 0)
(0.0799408 0.108644 0)
(0.0789245 0.11293 0)
(0.077536 0.117204 0)
(0.0757698 0.121443 0)
(0.0736228 0.125623 0)
(0.0710948 0.129716 0)
(0.0681883 0.133698 0)
(0.0649091 0.137542 0)
(0.0612663 0.14122 0)
(0.0572723 0.144705 0)
(0.0529428 0.147973 0)
(0.0482972 0.150996 0)
(0.0433581 0.153752 0)
(0.0381513 0.156217 0)
(0.0327056 0.158371 0)
(0.0270527 0.160196 0)
(0.0212267 0.161675 0)
(0.0152633 0.162796 0)
(0.00919679 0.163549 0)
(0.00307092 0.163928 0)
(0.00214318 0.0370794 0)
(0.00642271 0.0372567 0)
(0.0106912 0.0376115 0)
(0.0149444 0.0381441 0)
(0.019172 0.0388551 0)
(0.0233662 0.0397452 0)
(0.027519 0.0408152 0)
(0.031622 0.0420659 0)
(0.0356663 0.0434983 0)
(0.0396425 0.0451132 0)
(0.0435409 0.0469116 0)
(0.0473508 0.0488941 0)
(0.0510612 0.0510612 0)
(0.0546602 0.0534131 0)
(0.0581354 0.0559495 0)
(0.0614736 0.05867 0)
(0.0646609 0.061573 0)
(0.0676827 0.0646568 0)
(0.0705236 0.0679184 0)
(0.073168 0.0713541 0)
(0.0755992 0.074959 0)
(0.0778005 0.0787272 0)
(0.0797546 0.0826512 0)
(0.0814441 0.0867223 0)
(0.0828514 0.09093 0)
(0.0839592 0.0952624 0)
(0.0847506 0.0997056 0)
(0.0852091 0.104244 0)
(0.0853191 0.10886 0)
(0.0850664 0.113535 0)
(0.0844378 0.118248 0)
(0.0834222 0.122975 0)
(0.0820103 0.127693 0)
(0.0801954 0.132375 0)
(0.0779733 0.136993 0)
(0.0753427 0.14152 0)
(0.0723056 0.145926 0)
(0.0688675 0.150182 0)
(0.0650374 0.154256 0)
(0.060828 0.158119 0)
(0.0562559 0.161742 0)
(0.0513414 0.165096 0)
(0.0461086 0.168154 0)
(0.0405852 0.17089 0)
(0.0348023 0.173282 0)
(0.028794 0.175309 0)
(0.0225974 0.176952 0)
(0.0162512 0.178198 0)
(0.00979313 0.179035 0)
(0.00327031 0.179455 0)
(0.00223532 0.0395616 0)
(0.00669919 0.0397527 0)
(0.0111523 0.0401352 0)
(0.0155907 0.0407095 0)
(0.0200041 0.0414762 0)
(0.024385 0.0424363 0)
(0.0287254 0.0435906 0)
(0.033017 0.0449404 0)
(0.0372509 0.0464867 0)
(0.0414178 0.0482308 0)
(0.0455077 0.0501738 0)
(0.0495099 0.0523166 0)
(0.0534131 0.0546602 0)
(0.057205 0.057205 0)
(0.0608728 0.0599511 0)
(0.0644027 0.0628981 0)
(0.0677802 0.066045 0)
(0.0709898 0.06939 0)
(0.0740154 0.0729303 0)
(0.07684 0.0766623 0)
(0.079446 0.080581 0)
(0.0818151 0.0846803 0)
(0.0839288 0.0889524 0)
(0.0857679 0.093388 0)
(0.0873134 0.0979762 0)
(0.0885459 0.102704 0)
(0.0894468 0.107557 0)
(0.0899976 0.112518 0)
(0.0901808 0.117567 0)
(0.0899802 0.122686 0)
(0.0893808 0.127849 0)
(0.0883695 0.133032 0)
(0.0869354 0.138208 0)
(0.0850702 0.143349 0)
(0.0827685 0.148424 0)
(0.0800278 0.153401 0)
(0.0768495 0.158249 0)
(0.0732385 0.162933 0)
(0.0692037 0.167421 0)
(0.0647583 0.171679 0)
(0.0599196 0.175673 0)
(0.0547091 0.179373 0)
(0.0491526 0.182748 0)
(0.0432797 0.185769 0)
(0.0371241 0.18841 0)
(0.0307228 0.190648 0)
(0.0241159 0.192464 0)
(0.0173458 0.193841 0)
(0.010454 0.194766 0)
(0.00349127 0.19523 0)
(0.00233433 0.0419283 0)
(0.00699632 0.0421331 0)
(0.0116479 0.0425429 0)
(0.0162854 0.0431583 0)
(0.0208988 0.0439801 0)
(0.0254806 0.0450094 0)
(0.0300231 0.0462472 0)
(0.0345181 0.0476951 0)
(0.0389567 0.0493544 0)
(0.0433296 0.0512267 0)
(0.0476267 0.0533134 0)
(0.0518373 0.0556159 0)
(0.0559495 0.0581354 0)
(0.0599511 0.0608728 0)
(0.0638285 0.0638285 0)
(0.0675675 0.0670026 0)
(0.0711527 0.0703941 0)
(0.0745679 0.0740017 0)
(0.077796 0.0778228 0)
(0.0808187 0.0818539 0)
(0.0836172 0.0860899 0)
(0.0861719 0.0905247 0)
(0.0884624 0.0951502 0)
(0.0904679 0.0999567 0)
(0.0921674 0.104933 0)
(0.0935398 0.110065 0)
(0.094564 0.115336 0)
(0.0952197 0.12073 0)
(0.0954871 0.126225 0)
(0.0953476 0.131799 0)
(0.0947842 0.137427 0)
(0.0937817 0.143081 0)
(0.0923274 0.148731 0)
(0.0904111 0.154348 0)
(0.0880257 0.159896 0)
(0.0851678 0.165341 0)
(0.0818376 0.170648 0)
(0.0780396 0.17578 0)
(0.0737827 0.180699 0)
(0.0690801 0.185368 0)
(0.0639502 0.189751 0)
(0.0584157 0.193812 0)
(0.0525041 0.197518 0)
(0.0462475 0.200837 0)
(0.0396822 0.20374 0)
(0.0328484 0.206201 0)
(0.0257897 0.208197 0)
(0.0185525 0.209711 0)
(0.0111825 0.210728 0)
(0.00373489 0.211239 0)
(0.00244013 0.0441698 0)
(0.00731381 0.0443881 0)
(0.0121775 0.0448248 0)
(0.0170279 0.0454807 0)
(0.0218552 0.0463568 0)
(0.0266521 0.0474542 0)
(0.0314111 0.0487744 0)
(0.0361241 0.0503191 0)
(0.0407825 0.0520901 0)
(0.0453768 0.0540892 0)
(0.0498969 0.0563183 0)
(0.0543319 0.0587793 0)
(0.05867 0.0614736 0)
(0.0628981 0.0644027 0)
(0.0670026 0.0675675 0)
(0.0709683 0.0709683 0)
(0.0747794 0.0746048 0)
(0.0784185 0.0784758 0)
(0.0818675 0.0825791 0)
(0.085107 0.0869112 0)
(0.0881168 0.0914675 0)
(0.0908754 0.0962414 0)
(0.0933609 0.101225 0)
(0.0955505 0.106408 0)
(0.0974212 0.111779 0)
(0.0989495 0.117322 0)
(0.100112 0.123022 0)
(0.100886 0.128859 0)
(0.10125 0.134811 0)
(0.101182 0.140853 0)
(0.100662 0.146959 0)
(0.0996742 0.153098 0)
(0.0982024 0.159238 0)
(0.0962347 0.165346 0)
(0.0937623 0.171385 0)
(0.0907803 0.177316 0)
(0.0872879 0.1831 0)
(0.0832888 0.188696 0)
(0.0787918 0.194064 0)
(0.0738105 0.199162 0)
(0.068364 0.20395 0)
(0.0624765 0.208389 0)
(0.0561775 0.212442 0)
(0.0495014 0.216072 0)
(0.0424877 0.219249 0)
(0.0351801 0.221942 0)
(0.0276263 0.224128 0)
(0.0198768 0.225785 0)
(0.0119821 0.226899 0)
(0.0040023 0.227459 0)
(0.00255257 0.0462766 0)
(0.00765128 0.046508 0)
(0.0127405 0.046971 0)
(0.0178174 0.0476666 0)
(0.0228723 0.0485959 0)
(0.0278983 0.0497602 0)
(0.032888 0.0511613 0)
(0.0378337 0.0528012 0)
(0.0427268 0.0546821 0)
(0.0475578 0.0568062 0)
(0.0523168 0.0591759 0)
(0.0569926 0.0617934 0)
(0.061573 0.0646609 0)
(0.066045 0.0677802 0)
(0.0703941 0.0711527 0)
(0.0746048 0.0747794 0)
(0.0786602 0.0786602 0)
(0.0825422 0.0827945 0)
(0.0862314 0.0871805 0)
(0.0897071 0.091815 0)
(0.0929474 0.0966934 0)
(0.0959294 0.101809 0)
(0.0986291 0.107155 0)
(0.101022 0.112719 0)
(0.103082 0.11849 0)
(0.104783 0.124453 0)
(0.106101 0.130589 0)
(0.107008 0.136878 0)
(0.107481 0.143297 0)
(0.107495 0.149819 0)
(0.107029 0.156415 0)
(0.106062 0.163053 0)
(0.104576 0.169699 0)
(0.102557 0.176314 0)
(0.0999952 0.182859 0)
(0.0968828 0.189293 0)
(0.0932179 0.195571 0)
(0.0890038 0.20165 0)
(0.0842486 0.207484 0)
(0.0789666 0.213028 0)
(0.0731775 0.218238 0)
(0.066907 0.223071 0)
(0.0601869 0.227484 0)
(0.0530543 0.23144 0)
(0.045552 0.234902 0)
(0.0377276 0.237838 0)
(0.0296331 0.240222 0)
(0.0213241 0.24203 0)
(0.0128561 0.243245 0)
(0.0042946 0.243855 0)
(0.00267152 0.0482387 0)
(0.00800828 0.0484829 0)
(0.0133362 0.0489716 0)
(0.0186528 0.0497059 0)
(0.0239487 0.050687 0)
(0.0292175 0.0519166 0)
(0.0344521 0.0533968 0)
(0.0396449 0.0551298 0)
(0.0447875 0.0571183 0)
(0.0498706 0.0593651 0)
(0.0548841 0.0618728 0)
(0.059817 0.0646445 0)
(0.0646568 0.0676827 0)
(0.06939 0.0709898 0)
(0.0740017 0.0745679 0)
(0.0784758 0.0784185 0)
(0.0827945 0.0825422 0)
(0.0869388 0.0869388 0)
(0.090888 0.0916069 0)
(0.0946199 0.0965438 0)
(0.0981112 0.101745 0)
(0.101337 0.107205 0)
(0.104271 0.112915 0)
(0.106886 0.118864 0)
(0.109155 0.12504 0)
(0.111048 0.131427 0)
(0.112537 0.138006 0)
(0.113594 0.144755 0)
(0.114191 0.151651 0)
(0.1143 0.158663 0)
(0.113897 0.165762 0)
(0.112958 0.172912 0)
(0.111463 0.180076 0)
(0.109395 0.187213 0)
(0.106741 0.19428 0)
(0.103492 0.201232 0)
(0.0996449 0.208021 0)
(0.0952016 0.214599 0)
(0.0901702 0.220916 0)
(0.0845649 0.226922 0)
(0.0784065 0.23257 0)
(0.0717224 0.237811 0)
(0.0645464 0.2426 0)
(0.0569189 0.246893 0)
(0.0488862 0.250653 0)
(0.0405002 0.253842 0)
(0.0318178 0.256432 0)
(0.0228998 0.258396 0)
(0.0138078 0.259717 0)
(0.00461291 0.260381 0)
(0.00279678 0.0500463 0)
(0.00838425 0.0503029 0)
(0.0139636 0.0508165 0)
(0.0195328 0.0515883 0)
(0.025083 0.0526197 0)
(0.030608 0.0539127 0)
(0.0361012 0.0554696 0)
(0.0415553 0.0572932 0)
(0.046962 0.0593866 0)
(0.0523123 0.0617529 0)
(0.0575962 0.0643956 0)
(0.0628024 0.0673181 0)
(0.0679184 0.0705236 0)
(0.0729303 0.0740154 0)
(0.0778228 0.077796 0)
(0.0825791 0.0818675 0)
(0.0871805 0.0862314 0)
(0.0916069 0.090888 0)
(0.0958364 0.0958364 0)
(0.0998454 0.101075 0)
(0.103608 0.106598 0)
(0.107099 0.112402 0)
(0.110288 0.118477 0)
(0.113147 0.124813 0)
(0.115644 0.131397 0)
(0.117749 0.138212 0)
(0.119429 0.14524 0)
(0.120653 0.152456 0)
(0.121389 0.159835 0)
(0.121607 0.167346 0)
(0.121278 0.174957 0)
(0.120376 0.18263 0)
(0.118877 0.190324 0)
(0.116762 0.197996 0)
(0.114014 0.205599 0)
(0.110624 0.213084 0)
(0.106585 0.220398 0)
(0.101898 0.22749 0)
(0.0965725 0.234305 0)
(0.0906211 0.24079 0)
(0.0840662 0.24689 0)
(0.0769368 0.252554 0)
(0.0692692 0.257731 0)
(0.0611071 0.262375 0)
(0.0525007 0.266442 0)
(0.0435067 0.269894 0)
(0.0341873 0.272698 0)
(0.0246091 0.274825 0)
(0.0148403 0.276255 0)
(0.00495827 0.276974 0)
(0.00292812 0.0516897 0)
(0.00877852 0.0519583 0)
(0.0146216 0.0524958 0)
(0.0204559 0.0533036 0)
(0.0262731 0.0543834 0)
(0.0320674 0.0557375 0)
(0.0378327 0.0573684 0)
(0.0435619 0.0592796 0)
(0.0492471 0.0614743 0)
(0.0548796 0.0639565 0)
(0.0604493 0.0667302 0)
(0.065945 0.0697993 0)
(0.0713541 0.073168 0)
(0.0766623 0.07684 0)
(0.0818539 0.0808187 0)
(0.0869112 0.085107 0)
(0.091815 0.0897071 0)
(0.0965438 0.0946199 0)
(0.101075 0.0998454 0)
(0.105382 0.105382 0)
(0.109438 0.111226 0)
(0.113216 0.117371 0)
(0.116682 0.123811 0)
(0.119806 0.130534 0)
(0.122554 0.137527 0)
(0.12489 0.144773 0)
(0.126781 0.152251 0)
(0.12819 0.159938 0)
(0.129082 0.167806 0)
(0.129423 0.175823 0)
(0.129181 0.183954 0)
(0.128325 0.192158 0)
(0.126829 0.200393 0)
(0.12467 0.20861 0)
(0.121828 0.21676 0)
(0.118291 0.22479 0)
(0.114051 0.232643 0)
(0.109109 0.240262 0)
(0.10347 0.247589 0)
(0.0971495 0.254564 0)
(0.0901704 0.26113 0)
(0.0825634 0.267229 0)
(0.0743676 0.272806 0)
(0.0656301 0.277811 0)
(0.0564054 0.282197 0)
(0.0467555 0.28592 0)
(0.0367483 0.288944 0)
(0.0264569 0.291239 0)
(0.0159565 0.292782 0)
(0.00533168 0.293557 0)
(0.0030653 0.0531593 0)
(0.00919032 0.0534392 0)
(0.0153089 0.0539995 0)
(0.0214204 0.0548417 0)
(0.0275168 0.0559677 0)
(0.033593 0.05738 0)
(0.0396433 0.0590819 0)
(0.0456611 0.0610768 0)
(0.0516389 0.0633688 0)
(0.0575682 0.0659624 0)
(0.063439 0.0688621 0)
(0.0692402 0.0720728 0)
(0.074959 0.0755992 0)
(0.080581 0.079446 0)
(0.0860899 0.0836172 0)
(0.0914675 0.0881168 0)
(0.0966934 0.0929474 0)
(0.101745 0.0981112 0)
(0.106598 0.103608 0)
(0.111226 0.109438 0)
(0.115598 0.115598 0)
(0.119684 0.122082 0)
(0.123451 0.128883 0)
(0.126863 0.135991 0)
(0.129883 0.143391 0)
(0.132473 0.151067 0)
(0.134595 0.158997 0)
(0.136208 0.167156 0)
(0.137274 0.175516 0)
(0.137754 0.184042 0)
(0.137613 0.192697 0)
(0.136815 0.201438 0)
(0.135329 0.21022 0)
(0.133129 0.218991 0)
(0.130194 0.227697 0)
(0.126506 0.236281 0)
(0.122057 0.244682 0)
(0.116844 0.252839 0)
(0.110874 0.260688 0)
(0.104162 0.268165 0)
(0.0967309 0.275207 0)
(0.0886136 0.281751 0)
(0.0798521 0.287739 0)
(0.0704974 0.293115 0)
(0.0606088 0.297826 0)
(0.0502537 0.301827 0)
(0.0395065 0.305078 0)
(0.0284473 0.307546 0)
(0.017159 0.309205 0)
(0.00573399 0.310039 0)
(0.003208 0.0544456 0)
(0.00961873 0.0547361 0)
(0.0160241 0.055318 0)
(0.0224241 0.0561926 0)
(0.0288114 0.0573622 0)
(0.0351816 0.0588296 0)
(0.0415294 0.0605985 0)
(0.0478488 0.0626728 0)
(0.0541327 0.0650573 0)
(0.0603729 0.0677569 0)
(0.0665598 0.0707769 0)
(0.0726821 0.0741229 0)
(0.0787272 0.0778005 0)
(0.0846803 0.0818151 0)
(0.0905247 0.0861719 0)
(0.0962414 0.0908754 0)
(0.101809 0.0959294 0)
(0.107205 0.101337 0)
(0.112402 0.107099 0)
(0.117371 0.113216 0)
(0.122082 0.119684 0)
(0.126501 0.126501 0)
(0.130591 0.133658 0)
(0.134314 0.141145 0)
(0.137629 0.148948 0)
(0.140496 0.15705 0)
(0.14287 0.165428 0)
(0.144709 0.174058 0)
(0.145967 0.182909 0)
(0.146604 0.191944 0)
(0.146577 0.201125 0)
(0.145848 0.210406 0)
(0.144382 0.219737 0)
(0.142147 0.229066 0)
(0.139118 0.238332 0)
(0.135276 0.247476 0)
(0.13061 0.256433 0)
(0.125114 0.265134 0)
(0.118796 0.273513 0)
(0.111668 0.281499 0)
(0.103757 0.289025 0)
(0.0950962 0.296023 0)
(0.0857312 0.302429 0)
(0.0757169 0.308181 0)
(0.0651178 0.313225 0)
(0.0540073 0.31751 0)
(0.0424666 0.320992 0)
(0.0305837 0.323635 0)
(0.0184499 0.325413 0)
(0.00616591 0.326307 0)
(0.00335588 0.0555392 0)
(0.0100627 0.0558398 0)
(0.0167653 0.0564416 0)
(0.0234646 0.0573464 0)
(0.0301539 0.0585566 0)
(0.0368294 0.0600756 0)
(0.0434866 0.0619071 0)
(0.0501199 0.0640559 0)
(0.056723 0.066527 0)
(0.0632878 0.0693263 0)
(0.0698051 0.0724598 0)
(0.0762638 0.0759337 0)
(0.0826512 0.0797546 0)
(0.0889524 0.0839288 0)
(0.0951502 0.0884624 0)
(0.101225 0.0933609 0)
(0.107155 0.0986291 0)
(0.112915 0.104271 0)
(0.118477 0.110288 0)
(0.123811 0.116682 0)
(0.128883 0.123451 0)
(0.133658 0.130591 0)
(0.138095 0.138095 0)
(0.142153 0.145953 0)
(0.145788 0.154151 0)
(0.148954 0.162672 0)
(0.151603 0.171493 0)
(0.153688 0.180588 0)
(0.15516 0.189924 0)
(0.155971 0.199465 0)
(0.156074 0.209168 0)
(0.155427 0.218986 0)
(0.153989 0.228867 0)
(0.151725 0.238752 0)
(0.148605 0.248581 0)
(0.144606 0.258287 0)
(0.139715 0.2678 0)
(0.133924 0.277049 0)
(0.127239 0.285961 0)
(0.119674 0.29446 0)
(0.111255 0.302474 0)
(0.102017 0.309929 0)
(0.0920105 0.316757 0)
(0.0812938 0.322891 0)
(0.0699371 0.328271 0)
(0.0580203 0.332842 0)
(0.045632 0.336558 0)
(0.0328686 0.33938 0)
(0.0198307 0.341278 0)
(0.00662794 0.342232 0)
(0.00350853 0.0564315 0)
(0.0105211 0.0567411 0)
(0.0175307 0.0573612 0)
(0.0245391 0.0582937 0)
(0.0315406 0.0595412 0)
(0.0385321 0.0611074 0)
(0.0455097 0.0629966 0)
(0.0524688 0.065214 0)
(0.0594032 0.0677654 0)
(0.0663056 0.0706571 0)
(0.0731672 0.073896 0)
(0.079977 0.0774892 0)
(0.0867223 0.0814441 0)
(0.093388 0.0857679 0)
(0.0999567 0.0904679 0)
(0.106408 0.0955505 0)
(0.112719 0.101022 0)
(0.118864 0.106886 0)
(0.124813 0.113147 0)
(0.130534 0.119806 0)
(0.135991 0.126863 0)
(0.141145 0.134314 0)
(0.145953 0.142153 0)
(0.15037 0.15037 0)
(0.154349 0.158952 0)
(0.157838 0.167881 0)
(0.160786 0.177134 0)
(0.163139 0.186684 0)
(0.164845 0.196496 0)
(0.165848 0.206534 0)
(0.166099 0.216752 0)
(0.165547 0.2271 0)
(0.164148 0.237523 0)
(0.161861 0.24796 0)
(0.158652 0.258346 0)
(0.154495 0.268609 0)
(0.149372 0.278677 0)
(0.143275 0.288472 0)
(0.136207 0.297915 0)
(0.128182 0.306926 0)
(0.119226 0.315428 0)
(0.109379 0.323341 0)
(0.0986927 0.33059 0)
(0.0872307 0.337106 0)
(0.0750691 0.342823 0)
(0.0622947 0.347682 0)
(0.0490043 0.351633 0)
(0.0353032 0.354633 0)
(0.0213022 0.356651 0)
(0.00712035 0.357667 0)
(0.00366551 0.0571138 0)
(0.0109924 0.0574316 0)
(0.0183179 0.0580681 0)
(0.0256446 0.0590254 0)
(0.0329676 0.0603064 0)
(0.0402848 0.0619152 0)
(0.0475932 0.0638565 0)
(0.0548887 0.0661359 0)
(0.062166 0.06876 0)
(0.0694183 0.0717358 0)
(0.0766371 0.0750709 0)
(0.0838119 0.0787733 0)
(0.09093 0.0828514 0)
(0.0979762 0.0873134 0)
(0.104933 0.0921674 0)
(0.111779 0.0974212 0)
(0.11849 0.103082 0)
(0.12504 0.109155 0)
(0.131397 0.115644 0)
(0.137527 0.122554 0)
(0.143391 0.129883 0)
(0.148948 0.137629 0)
(0.154151 0.145788 0)
(0.158952 0.154349 0)
(0.163299 0.163299 0)
(0.167136 0.17262 0)
(0.170406 0.182289 0)
(0.17305 0.192278 0)
(0.17501 0.202553 0)
(0.176226 0.213073 0)
(0.17664 0.223792 0)
(0.176199 0.234658 0)
(0.174849 0.245611 0)
(0.172547 0.256589 0)
(0.169254 0.267521 0)
(0.164937 0.278333 0)
(0.159577 0.288945 0)
(0.153162 0.299278 0)
(0.145694 0.309245 0)
(0.137187 0.318763 0)
(0.127669 0.327746 0)
(0.11718 0.336112 0)
(0.105776 0.34378 0)