/*--------------------------------*- C++ -*----------------------------------*\
| =========                 |                                                 |
| \\      /  F ield         | OpenFOAM: The Open Source CFD Toolbox           |
|  \\    /   O peration     | Version:  2406                                  |
|   \\  /    A nd           | Website:  www.openfoam.com                      |
|    \\/     M anipulation  |                                                 |
\*---------------------------------------------------------------------------*/
FoamFile
{
    version     2.0;
    format      ascii;
    arch        "LSB;label=32;scalar=64";
    class       volScalarField;
    location    "2.5";
    object      gradTy;
}
// * * * * * * * * * * * * * * * * * * * * * * * * * * * * * * * * * * * * * //

dimensions      [0 -1 0 1 0 0 0];

internalField   nonuniform List<scalar> 
2500
(
0.0158863
0.0159558
0.0160987
0.0163124
0.016597
0.0169527
0.0173796
0.0178777
0.0184469
0.0190872
0.0197983
0.02058
0.0214318
0.0223532
0.0233433
0.0244013
0.0255257
0.0267152
0.0279678
0.0292812
0.030653
0.03208
0.0335588
0.0350853
0.0366551
0.0382631
0.0399039
0.0415712
0.0432584
0.0449584
0.0466635
0.0483655
0.0500558
0.0517254
0.053365
0.0549651
0.0565158
0.0580076
0.0594305
0.060775
0.0620318
0.0631919
0.0642469
0.0651888
0.0660107
0.0667064
0.0672707
0.0676994
0.067987
0.068118
0.0475874
0.0477998
0.0482277
0.0488681
0.0497217
0.0507887
0.0520694
0.0535636
0.0552713
0.0571922
0.0593258
0.0616712
0.0642271
0.0669919
0.0699632
0.0731381
0.0765128
0.0800828
0.0838425
0.0877852
0.0919032
0.0961873
0.100627
0.105211
0.109924
0.114753
0.119681
0.124688
0.129756
0.134863
0.139985
0.145098
0.150177
0.155193
0.16012
0.164928
0.169589
0.174072
0.178349
0.18239
0.186168
0.189655
0.192827
0.195658
0.198129
0.20022
0.201916
0.203206
0.204078
0.204499
0.0791682
0.0795248
0.0802364
0.0813035
0.0827261
0.0845047
0.0866395
0.0891305
0.0919776
0.0951804
0.098738
0.102649
0.106912
0.111523
0.116479
0.121775
0.127405
0.133362
0.139636
0.146216
0.153089
0.160241
0.167653
0.175307
0.183179
0.191244
0.199476
0.207842
0.21631
0.224844
0.233406
0.241953
0.250444
0.258832
0.267071
0.275113
0.282908
0.290408
0.297563
0.304325
0.310647
0.316483
0.32179
0.32653
0.330665
0.334164
0.337001
0.339154
0.340609
0.341335
0.110581
0.111079
0.112075
0.113569
0.115561
0.118052
0.121042
0.124531
0.128519
0.133006
0.13799
0.14347
0.149444
0.155907
0.162854
0.170279
0.178174
0.186528
0.195328
0.204559
0.214204
0.224241
0.234646
0.245391
0.256446
0.267775
0.279338
0.291094
0.302996
0.314993
0.32703
0.339051
0.350993
0.362794
0.374387
0.385705
0.396678
0.407237
0.417312
0.426834
0.435738
0.443958
0.451435
0.458112
0.463937
0.468867
0.472861
0.475888
0.477923
0.478944
0.141715
0.142356
0.143636
0.145557
0.148119
0.151323
0.155169
0.159657
0.164788
0.170562
0.176976
0.18403
0.19172
0.200041
0.208988
0.218552
0.228723
0.239487
0.25083
0.262731
0.275168
0.288114
0.301539
0.315406
0.329676
0.344304
0.35924
0.374428
0.389808
0.405316
0.42088
0.436427
0.451876
0.467147
0.482153
0.496805
0.511014
0.52469
0.537742
0.550081
0.561619
0.572274
0.581967
0.590623
0.598176
0.604567
0.609744
0.613666
0.6163
0.617623
0.172491
0.173274
0.174839
0.177187
0.180319
0.184237
0.18894
0.194429
0.200705
0.207768
0.215617
0.224249
0.233662
0.24385
0.254806
0.266521
0.278983
0.292175
0.30608
0.320674
0.33593
0.351816
0.368294
0.385321
0.402848
0.420821
0.439178
0.457852
0.476769
0.495849
0.515005
0.534146
0.553173
0.571986
0.590478
0.60854
0.626061
0.642929
0.659031
0.674257
0.688498
0.701652
0.713619
0.724309
0.733637
0.74153
0.747924
0.752767
0.756019
0.757652
0.202826
0.203751
0.205601
0.208376
0.21208
0.216711
0.222272
0.228764
0.236188
0.244543
0.25383
0.264047
0.27519
0.287254
0.300231
0.314111
0.32888
0.344521
0.361012
0.378327
0.396433
0.415294
0.434866
0.455097
0.475932
0.497305
0.519143
0.541368
0.563891
0.586617
0.609443
0.63226
0.654951
0.677394
0.699462
0.721025
0.741949
0.762099
0.78134
0.799539
0.816567
0.832297
0.846611
0.8594
0.870561
0.880006
0.887659
0.893455
0.897346
0.8993
0.232636
0.233704
0.235838
0.239042
0.243316
0.248661
0.255081
0.262577
0.27115
0.280802
0.291532
0.303339
0.31622
0.33017
0.345181
0.361241
0.378337
0.396449
0.415553
0.435619
0.456611
0.478488
0.501199
0.524688
0.548887
0.573723
0.599113
0.624963
0.651173
0.677631
0.704218
0.730806
0.757259
0.783435
0.809184
0.834354
0.858788
0.882326
0.904811
0.926085
0.945995
0.964394
0.98114
0.996105
1.00917
1.02022
1.02918
1.03597
1.04052
1.04281
0.261838
0.263047
0.265467
0.269097
0.273942
0.280002
0.287281
0.295781
0.305506
0.316456
0.328633
0.342036
0.356663
0.372509
0.389567
0.407825
0.427268
0.447875
0.46962
0.492471
0.516389
0.541327
0.56723
0.594032
0.62166
0.65003
0.679048
0.708609
0.738596
0.768883
0.799334
0.829802
0.86013
0.890155
0.919705
0.948603
0.976668
1.00372
1.02956
1.05403
1.07693
1.0981
1.11738
1.13461
1.14965
1.16238
1.1727
1.18052
1.18577
1.1884
0.290344
0.291695
0.294398
0.298455
0.303869
0.310643
0.318781
0.328286
0.339162
0.351413
0.36504
0.380045
0.396425
0.414178
0.433296
0.453768
0.475578
0.498706
0.523123
0.548796
0.575682
0.603729
0.632878
0.663056
0.694183
0.726165
0.758896
0.792259
0.826124
0.860347
0.894776
0.929242
0.963571
0.997574
1.03106
1.06382
1.09565
1.12634
1.15568
1.18347
1.20949
1.23355
1.25546
1.27505
1.29216
1.30665
1.31839
1.32729
1.33326
1.33626
0.318065
0.319558
0.322544
0.327027
0.333009
0.340495
0.34949
0.359999
0.372027
0.385579
0.400659
0.417269
0.435409
0.455077
0.476267
0.498969
0.523168
0.548841
0.575962
0.604493
0.63439
0.665598
0.698051
0.731672
0.766371
0.802047
0.838582
0.875847
0.913697
0.951972
0.9905
1.0291
1.06756
1.10568
1.14324
1.18001
1.21576
1.25024
1.28322
1.31447
1.34374
1.37082
1.39549
1.41755
1.43683
1.45315
1.46638
1.47641
1.48314
1.48652
0.344913
0.346546
0.349814
0.35472
0.361268
0.369463
0.379313
0.390823
0.404001
0.418853
0.435386
0.453603
0.473508
0.495099
0.518373
0.543319
0.569926
0.59817
0.628024
0.65945
0.692402
0.726821
0.762638
0.79977
0.838119
0.877575
0.91801
0.959281
1.00123
1.04368
1.08644
1.1293
1.17204
1.21443
1.25623
1.29716
1.33698
1.37542
1.4122
1.44705
1.47973
1.50996
1.53752
1.56217
1.58371
1.60196
1.61675
1.62796
1.63549
1.63928
0.370794
0.372567
0.376115
0.381441
0.388551
0.397452
0.408152
0.420659
0.434983
0.451132
0.469116
0.488941
0.510612
0.534131
0.559495
0.5867
0.61573
0.646568
0.679184
0.713541
0.74959
0.787272
0.826512
0.867223
0.9093
0.952624
0.997056
1.04244
1.0886
1.13535
1.18248
1.22975
1.27693
1.32375
1.36993
1.4152
1.45926
1.50182
1.54256
1.58119
1.61742
1.65096
1.68154
1.7089
1.73282
1.75309
1.76952
1.78198
1.79035
1.79455
0.395616
0.397527
0.401352
0.407095
0.414762
0.424363
0.435906
0.449404
0.464867
0.482308
0.501738
0.523166
0.546602
0.57205
0.599511
0.628981
0.66045
0.6939
0.729303
0.766623
0.80581
0.846803
0.889524
0.93388
0.979762
1.02704
1.07557
1.12518
1.17567
1.22686
1.27849
1.33032
1.38208
1.43349
1.48424
1.53401
1.58249
1.62933
1.67421
1.71679
1.75673
1.79373
1.82748
1.85769
1.8841
1.90648
1.92464
1.93841
1.94766
1.9523
0.419283
0.421331
0.425429
0.431583
0.439801
0.450094
0.462472
0.476951
0.493544
0.512267
0.533134
0.556159
0.581354
0.608728
0.638285
0.670026
0.703941
0.740017
0.778228
0.818539
0.860899
0.905247
0.951502
0.999567
1.04933
1.10065
1.15336
1.2073
1.26225
1.31799
1.37427
1.43081
1.48731
1.54348
1.59896
1.65341
1.70648
1.7578
1.80699
1.85368
1.89751
1.93812
1.97518
2.00837
2.0374
2.06201
2.08197
2.09711
2.10728
2.11239
0.441698
0.443881
0.448248
0.454807
0.463568
0.474542
0.487744
0.503191
0.520901
0.540892
0.563183
0.587793
0.614736
0.644027
0.675675
0.709683
0.746048
0.784758
0.825791
0.869112
0.914675
0.962414
1.01225
1.06408
1.11779
1.17322
1.23022
1.28859
1.34811
1.40853
1.46959
1.53098
1.59238
1.65346
1.71385
1.77316
1.831
1.88696
1.94064
1.99162
2.0395
2.08389
2.12442
2.16072
2.19249
2.21942
2.24128
2.25785
2.26899
2.27459
0.462766
0.46508
0.46971
0.476666
0.485959
0.497602
0.511613
0.528012
0.546821
0.568062
0.591759
0.617934
0.646609
0.677802
0.711527
0.747794
0.786602
0.827945
0.871805
0.91815
0.966934
1.01809
1.07155
1.12719
1.1849
1.24453
1.30589
1.36878
1.43297
1.49819
1.56415
1.63053
1.69699
1.76314
1.82859
1.89293
1.95571
2.0165
2.07484
2.13028
2.18238
2.23071
2.27484
2.3144
2.34902
2.37838
2.40222
2.4203
2.43245
2.43855
0.482387
0.484829
0.489716
0.497059
0.50687
0.519166
0.533968
0.551298
0.571183
0.593651
0.618728
0.646445
0.676827
0.709898
0.745679
0.784185
0.825422
0.869388
0.916069
0.965438
1.01745
1.07205
1.12915
1.18864
1.2504
1.31427
1.38006
1.44755
1.51651
1.58663
1.65762
1.72912
1.80076
1.87213
1.9428
2.01232
2.08021
2.14599
2.20916
2.26922
2.3257
2.37811
2.426
2.46893
2.50653
2.53842
2.56432
2.58396
2.59717
2.60381
0.500463
0.503029
0.508165
0.515883
0.526197
0.539127
0.554696
0.572932
0.593866
0.617529
0.643956
0.673181
0.705236
0.740154
0.77796
0.818675
0.862314
0.90888
0.958364
1.01075
1.06598
1.12402
1.18477
1.24813
1.31397
1.38212
1.4524
1.52456
1.59835
1.67346
1.74957
1.8263
1.90324
1.97996
2.05599
2.13084
2.20398
2.2749
2.34305
2.4079
2.4689
2.52554
2.57731
2.62375
2.66442
2.69894
2.72698
2.74825
2.76255
2.76974
0.516897
0.519583
0.524958
0.533036
0.543834
0.557375
0.573684
0.592796
0.614743
0.639565
0.667302
0.697993
0.73168
0.7684
0.808187
0.85107
0.897071
0.946199
0.998454
1.05382
1.11226
1.17371
1.23811
1.30534
1.37527
1.44773
1.52251
1.59938
1.67806
1.75823
1.83954
1.92158
2.00393
2.0861
2.1676
2.2479
2.32643
2.40262
2.47589
2.54564
2.6113
2.67229
2.72806
2.77811
2.82197
2.8592
2.88944
2.91239
2.92782
2.93557
0.531593
0.534392
0.539995
0.548417
0.559677
0.5738
0.590819
0.610768
0.633688
0.659624
0.688621
0.720728
0.755992
0.79446
0.836172
0.881168
0.929474
0.981112
1.03608
1.09438
1.15598
1.22082
1.28883
1.35991
1.43391
1.51067
1.58997
1.67156
1.75516
1.84042
1.92697
2.01438
2.1022
2.18991
2.27697
2.36281
2.44682
2.52839
2.60688
2.68165
2.75207
2.81751
2.87739
2.93115
2.97826
3.01827
3.05078
3.07546
3.09205
3.10039
0.544456
0.547361
0.55318
0.561926
0.573622
0.588296
0.605985
0.626728
0.650573
0.677569
0.707769
0.741229
0.778005
0.818151
0.861719
0.908754
0.959294
1.01337
1.07099
1.13216
1.19684
1.26501
1.33658
1.41145
1.48948
1.5705
1.65428
1.74058
1.82909
1.91944
2.01125
2.10406
2.19737
2.29066
2.38332
2.47476
2.56433
2.65134
2.73513
2.81499
2.89025
2.96023
3.02429
3.08181
3.13225
3.1751
3.20992
3.23635
3.25413
3.26307
0.555392
0.558398
0.564416
0.573464
0.585566
0.600756
0.619071
0.640559
0.66527
0.693263
0.724598
0.759337
0.797546
0.839288
0.884624
0.933609
0.986291
1.04271
1.10288
1.16682
1.23451
1.30591
1.38095
1.45953
1.54151
1.62672
1.71493
1.80588
1.89924
1.99465
2.09168
2.18986
2.28867
2.38752
2.48581
2.58287
2.678
2.77049
2.85961
2.9446
3.02474
3.09929
3.16757
3.22891
3.28271
3.32842
3.36558
3.3938
3.41278
3.42232
0.564315
0.567411
0.573612
0.582937
0.595412
0.611074
0.629966
0.65214
0.677654
0.706571
0.73896
0.774892
0.814441
0.857679
0.904679
0.955505
1.01022
1.06886
1.13147
1.19806
1.26863
1.34314
1.42153
1.5037
1.58952
1.67881
1.77134
1.86684
1.96496
2.06534
2.16752
2.271
2.37523
2.4796
2.58346
2.68609
2.78677
2.88472
2.97915
3.06926
3.15428
3.23341
3.3059
3.37106
3.42823
3.47682
3.51633
3.54633
3.56651
3.57667
0.571138
0.574316
0.580681
0.590254
0.603064
0.619152
0.638565
0.661359
0.6876
0.717358
0.750709
0.787733
0.828514
0.873134
0.921674
0.974212
1.03082
1.09155
1.15644
1.22554
1.29883
1.37629
1.45788
1.54349
1.63299
1.7262
1.82289
1.92278
2.02553
2.13073
2.23792
2.34658
2.45611
2.56589
2.67521
2.78333
2.88945
2.99278
3.09245
3.18763
3.27746
3.36112
3.4378
3.50674
3.56725
3.61869
3.66053
3.69231
3.71369
3.72444
0.575784
0.579033
0.585541
0.59533
0.608433
0.624893
0.644763
0.668105
0.694989
0.725493
0.759702
0.797704
0.839592
0.885459
0.935398
0.989495
1.04783
1.11048
1.17749
1.2489
1.32473
1.40496
1.48954
1.57838
1.67136
1.76829
1.86894
1.97302
2.08018
2.19
2.302
2.41564
2.5303
2.6453
2.75991
2.87334
2.98477
3.09332
3.1981
3.29821
3.39275
3.48084
3.5616
3.63425
3.69803
3.75227
3.79639
3.82991
3.85246
3.86381
0.57818
0.581488
0.588115
0.598085
0.611435
0.628209
0.648466
0.672273
0.699706
0.730851
0.7658
0.804651
0.847506
0.894468
0.94564
1.00112
1.06101
1.12537
1.19429
1.26781
1.34595
1.4287
1.51603
1.60786
1.70406
1.80444
1.90879
2.0168
2.1281
2.24228
2.35883
2.47718
2.5967
2.71667
2.83632
2.95483
3.07132
3.18488
3.29457
3.39942
3.49848
3.59082
3.67553
3.75175
3.81869
3.87563
3.92195
3.95716
3.98084
3.99276
0.57826
0.581614
0.588335
0.598449
0.611993
0.629018
0.649584
0.673765
0.701644
0.733313
0.768872
0.808427
0.852091
0.899976
0.952197
1.00886
1.07008
1.13594
1.20653
1.2819
1.36208
1.44709
1.53688
1.63139
1.7305
1.83403
1.94174
2.05334
2.16846
2.28665
2.40741
2.53013
2.65417
2.77877
2.90314
3.0264
3.14765
3.26592
3.38021
3.48954
3.59287
3.68924
3.77768
3.85728
3.9272
3.9867
4.03512
4.07192
4.09668
4.10914
0.575968
0.579356
0.586143
0.596358
0.610041
0.627246
0.648038
0.672495
0.700706
0.732769
0.768794
0.808894
0.853191
0.901808
0.954871
1.0125
1.07481
1.14191
1.21389
1.29082
1.37274
1.45967
1.5516
1.64845
1.7501
1.85639
1.96708
2.08187
2.20039
2.32218
2.44672
2.5734
2.70153
2.83034
2.95901
3.08662
3.21222
3.3348
3.45334
3.56678
3.67406
3.77414
3.86603
3.94876
4.02145
4.08333
4.13369
4.17197
4.19773
4.21069
0.571259
0.574664
0.581488
0.59176
0.605522
0.622831
0.643758
0.668383
0.696803
0.729122
0.765455
0.805926
0.850664
0.899802
0.953476
1.01182
1.07495
1.143
1.21607
1.29423
1.37754
1.46604
1.55971
1.65848
1.76226
1.87087
1.98408
2.1016
2.22303
2.34793
2.47575
2.60587
2.73758
2.87009
3.00254
3.13399
3.26345
3.38988
3.5122
3.62931
3.74011
3.84353
3.9385
4.02405
4.09924
4.16325
4.21536
4.25497
4.28163
4.29506
0.564096
0.567503
0.574332
0.584612
0.598389
0.615723
0.636686
0.661366
0.689861
0.722284
0.758756
0.799408
0.844378
0.893808
0.947842
1.00662
1.07029
1.13897
1.21278
1.29181
1.37613
1.46577
1.56074
1.66099
1.7664
1.87683
1.99204
2.11173
2.23553
2.36295
2.49346
2.62643
2.76111
2.89671
3.03234
3.16703
3.29976
3.42946
3.555
3.67526
3.78908
3.89536
3.993
4.08098
4.15832
4.22418
4.2778
4.31857
4.34602
4.35983
0.554456
0.557848
0.564648
0.574886
0.588611
0.605883
0.626779
0.65139
0.67982
0.712186
0.748615
0.789245
0.834222
0.883695
0.937817
0.996742
1.06062
1.12958
1.20376
1.28325
1.36815
1.45848
1.55427
1.65547
1.76199
1.87366
1.99028
2.11153
2.23704
2.36634
2.49887
2.63398
2.77095
2.90894
3.04704
3.18428
3.31959
3.45188
3.58
3.70277
3.81904
3.92763
4.02743
4.11737
4.19647
4.26384
4.3187
4.36041
4.3885
4.40264
0.542328
0.545688
0.552424
0.562567
0.576167
0.593288
0.614008
0.638421
0.666637
0.698775
0.734968
0.77536
0.820103
0.869354
0.923274
0.982024
1.04576
1.11463
1.18877
1.26829
1.35329
1.44382
1.53989
1.64148
1.74849
1.86079
1.97815
2.10028
2.22679
2.35722
2.49101
2.6275
2.76596
2.90555
3.04533
3.18432
3.32143
3.45554
3.58549
3.71007
3.82809
3.93837
4.03974
4.13113
4.21152
4.28
4.33578
4.3782
4.40675
4.42113
0.527717
0.531026
0.537661
0.547654
0.561055
0.57793
0.59836
0.622441
0.650285
0.682016
0.717771
0.757698
0.801954
0.850702
0.904111
0.962347
1.02557
1.09395
1.16762
1.2467
1.33129
1.42147
1.51725
1.61861
1.72547
1.8377
1.95509
2.07733
2.20406
2.3348
2.46901
2.60603
2.74511
2.8854
3.02598
3.16583
3.30386
3.43894
3.56988
3.69547
3.81448
3.92572
4.02802
4.12026
4.20142
4.27057
4.3269
4.36974
4.39859
4.41311
0.51064
0.51388
0.520375
0.530161
0.543286
0.559819
0.579841
0.60345
0.63076
0.661898
0.697003
0.736228
0.779733
0.827685
0.880257
0.937623
0.999952
1.06741
1.14014
1.21828
1.30194
1.39118
1.48605
1.58652
1.69254
1.80396
1.92058
2.04212
2.16821
2.2984
2.43211
2.56872
2.70745
2.84749
2.98788
3.12761
3.26561
3.4007
3.53172
3.65742
3.77659
3.88801
3.9905
4.08294
4.16429
4.23361
4.29009
4.33305
4.36198
4.37655
0.491132
0.494283
0.500601
0.510121
0.522892
0.538982
0.558475
0.581469
0.608078
0.638432
0.67267
0.710948
0.753427
0.800278
0.851678
0.907803
0.968828
1.03492
1.10624
1.18291
1.26506
1.35276
1.44606
1.54495
1.64937
1.7592
1.87423
1.9942
2.11874
2.24741
2.37966
2.51484
2.65221
2.79093
2.93009
3.06866
3.20557
3.33966
3.46974
3.5946
3.71301
3.82375
3.92564
4.01756
4.09847
4.16743
4.22362
4.26637
4.29515
4.30965
0.469244
0.472286
0.478387
0.487582
0.499919
0.515467
0.534308
0.556541
0.58228
0.611653
0.644803
0.681883
0.723056
0.768495
0.818376
0.872879
0.932179
0.996449
1.06585
1.14051
1.22057
1.3061
1.39715
1.49372
1.59577
1.70317
1.81574
1.93322
2.05526
2.18141
2.31115
2.44384
2.57875
2.71506
2.85187
2.98816
3.12286
3.25485
3.38294
3.50593
3.6226
3.73174
3.83219
3.92283
4.00262
4.07064
4.12607
4.16825
4.19665
4.21096
0.445041
0.447956
0.453801
0.462611
0.474435
0.489339
0.507405
0.52873
0.553428
0.581625
0.613462
0.649091
0.688675
0.732385
0.780396
0.832888
0.890038
0.952016
1.01898
1.09109
1.16844
1.25114
1.33924
1.43275
1.53162
1.63575
1.74495
1.85899
1.97752
2.10012
2.22627
2.35535
2.48667
2.61941
2.75269
2.88552
3.01687
3.14561
3.27059
3.39063
3.50453
3.61111
3.70923
3.79778
3.87574
3.94222
3.99639
4.03762
4.06538
4.07937
0.418609
0.421376
0.426927
0.435294
0.446525
0.460684
0.477852
0.498125
0.521611
0.548436
0.578737
0.612663
0.650374
0.692037
0.737827
0.787918
0.842486
0.901702
0.965725
1.0347
1.10874
1.18796
1.27239
1.36207
1.45694
1.55692
1.66184
1.77146
1.88546
2.00343
2.12489
2.24923
2.37578
2.50376
2.6323
2.76047
2.88725
3.01156
3.13227
3.24825
3.35832
3.46134
3.5562
3.64183
3.71724
3.78153
3.83394
3.87382
3.90068
3.91422
0.390048
0.392649
0.397867
0.405733
0.416293
0.42961
0.445761
0.464837
0.486945
0.512205
0.540749
0.572723
0.60828
0.647583
0.690801
0.738105
0.789666
0.845649
0.906211
0.971495
1.04162
1.11668
1.19674
1.28182
1.37187
1.46683
1.56653
1.67075
1.77918
1.89146
2.0071
2.12554
2.24614
2.36815
2.49074
2.61302
2.73401
2.85268
2.96795
3.07873
3.18389
3.28234
3.373
3.45486
3.52695
3.58843
3.63855
3.67669
3.70238
3.71533
0.359476
0.361892
0.366741
0.37405
0.383865
0.396243
0.41126
0.429001
0.449568
0.473076
0.49965
0.529428
0.562559
0.599196
0.639502
0.68364
0.731775
0.784065
0.840662
0.901704
0.967309
1.03757
1.11255
1.19226
1.27669
1.36575
1.45931
1.55716
1.65901
1.76452
1.87323
1.98463
2.09809
2.21292
2.32834
2.44351
2.55749
2.66932
2.77798
2.88242
2.98159
3.07445
3.15998
3.23721
3.30524
3.36326
3.41056
3.44656
3.47081
3.48303
0.327026
0.329241
0.333684
0.340384
0.349382
0.360731
0.374502
0.390776
0.409647
0.431223
0.455622
0.482972
0.513414
0.547091
0.584157
0.624765
0.66907
0.717224
0.769368
0.825634
0.886136
0.950962
1.02017
1.09379
1.1718
1.25413
1.34065
1.43118
1.52545
1.62314
1.72384
1.82706
1.93223
2.03871
2.14577
2.25262
2.3584
2.46221
2.5631
2.66009
2.75221
2.83848
2.91795
2.98972
3.05295
3.10688
3.15085
3.18432
3.20686
3.21822
0.292849
0.294845
0.298852
0.304892
0.313005
0.32324
0.335662
0.350343
0.367372
0.386848
0.408877
0.433581
0.461086
0.491526
0.525041
0.561775
0.601869
0.645464
0.692692
0.743676
0.798521
0.857312
0.920105
0.986927
1.05776
1.13255
1.21118
1.29348
1.37921
1.46809
1.55973
1.6537
1.74948
1.84647
1.94402
2.0414
2.13783
2.23248
2.32449
2.41296
2.49701
2.57572
2.64825
2.71375
2.77147
2.8207
2.86084
2.89139
2.91197
2.92235
0.257108
0.258872
0.26241
0.267746
0.274913
0.283955
0.29493
0.307905
0.322957
0.340176
0.359659
0.381513
0.405852
0.432797
0.462475
0.495014
0.530543
0.569189
0.611071
0.656301
0.704974
0.757169
0.812938
0.872307
0.935264
1.00176
1.07169
1.14491
1.22122
1.30034
1.38195
1.46566
1.55099
1.63744
1.7244
1.81122
1.89723
1.98166
2.06374
2.14269
2.21769
2.28795
2.35269
2.41117
2.4627
2.50666
2.54251
2.56979
2.58817
2.59743
0.219982
0.221499
0.224543
0.229133
0.235298
0.243077
0.252519
0.263684
0.276638
0.29146
0.308235
0.327056
0.348023
0.371241
0.396822
0.424877
0.45552
0.488862
0.525007
0.564054
0.606088
0.651178
0.699371
0.750691
0.805129
0.862642
0.923148
0.986518
1.05257
1.12109
1.19178
1.26429
1.33824
1.41316
1.48855
1.56383
1.63841
1.71165
1.78286
1.85135
1.91643
1.9774
2.03359
2.08435
2.12908
2.16724
2.19836
2.22204
2.238
2.24605
0.18166
0.18292
0.185447
0.189256
0.19437
0.200824
0.208658
0.217921
0.228672
0.240974
0.2549
0.270527
0.28794
0.307228
0.328484
0.351801
0.377276
0.405002
0.435067
0.467555
0.502537
0.540073
0.580203
0.622947
0.6683
0.716228
0.766661
0.819494
0.87458
0.931727
0.990698
1.05121
1.11292
1.17546
1.2384
1.30127
1.36355
1.42472
1.4842
1.54142
1.5958
1.64675
1.6937
1.73612
1.7735
1.8054
1.83141
1.85121
1.86454
1.87127
0.142343
0.143336
0.145328
0.148326
0.152349
0.157425
0.163587
0.170873
0.179331
0.18901
0.199968
0.212267
0.225974
0.241159
0.257897
0.276263
0.296331
0.318178
0.341873
0.367483
0.395065
0.424666
0.45632
0.490043
0.525832
0.56366
0.603473
0.645188
0.68869
0.733827
0.780412
0.828221
0.876989
0.926415
0.976161
1.02586
1.0751
1.12346
1.1705
1.21575
1.25875
1.29905
1.33619
1.36974
1.39932
1.42455
1.44512
1.46079
1.47134
1.47667
0.102239
0.102955
0.104401
0.106564
0.109463
0.11312
0.117558
0.122807
0.1289
0.135873
0.143769
0.152633
0.162512
0.173458
0.185525
0.198768
0.213241
0.228998
0.246091
0.264569
0.284473
0.305837
0.328686
0.353032
0.378874
0.406192
0.434947
0.46508
0.496507
0.52912
0.562784
0.597335
0.632583
0.66831
0.704271
0.740199
0.775802
0.810772
0.844785
0.87751
0.908611
0.937754
0.964615
0.988884
1.01027
1.02852
1.04341
1.05474
1.06238
1.06624
0.0615665
0.0619851
0.0628595
0.0641661
0.0659161
0.0681227
0.0708008
0.0739681
0.0776446
0.081853
0.0866183
0.0919679
0.0979313
0.10454
0.111825
0.119821
0.128561
0.138078
0.148403
0.159565
0.17159
0.184499
0.198307
0.213022
0.228642
0.245156
0.262541
0.280761
0.299765
0.319489
0.33985
0.36075
0.382073
0.403689
0.425447
0.447187
0.468733
0.489896
0.510482
0.53029
0.549116
0.566758
0.583019
0.597712
0.610662
0.621713
0.630727
0.637593
0.642229
0.644598
0.0205578
0.0206889
0.0209786
0.0214151
0.0220001
0.0227377
0.0236329
0.0246917
0.0259207
0.0273275
0.0289206
0.0307092
0.0327031
0.0349127
0.0373489
0.040023
0.042946
0.0461291
0.0495827
0.0533168
0.0573399
0.0616591
0.0662794
0.0712035
0.0764311
0.0819584
0.0877777
0.0938771
0.10024
0.106844
0.113662
0.120661
0.127802
0.135042
0.14233
0.149613
0.156831
0.163922
0.17082
0.177457
0.183766
0.189679
0.19513
0.200055
0.204397
0.208102
0.211125
0.21343
0.214989
0.215799
)
;

boundaryField
{
    walls
    {
        type            calculated;
        value           nonuniform List<scalar> 
200
(
0
0
0
0
0
0
0
0
0
0
0
0
0
0
0
0
0
0
0
0
0
0
0
0
0
0
0
0
0
0
0
0
0
0
0
0
0
0
0
0
0
0
0
0
0
0
0
0
0
0
0.0158863
0.0475874
0.0791682
0.110581
0.141715
0.172491
0.202826
0.232636
0.261838
0.290344
0.318065
0.344913
0.370794
0.395616
0.419283
0.441698
0.462766
0.482387
0.500463
0.516897
0.531593
0.544456
0.555392
0.564315
0.571138
0.575784
0.57818
0.57826
0.575968
0.571259
0.564096
0.554456
0.542328
0.527717
0.51064
0.491132
0.469244
0.445041
0.418609
0.390048
0.359476
0.327026
0.292849
0.257108
0.219982
0.18166
0.142343
0.102239
0.0615665
0.0205578
0.068118
0.204499
0.341335
0.478944
0.617623
0.757652
0.8993
1.04281
1.1884
1.33626
1.48652
1.63928
1.79455
1.9523
2.11239
2.27459
2.43855
2.60381
2.76974
2.93557
3.10039
3.26307
3.42232
3.57667
3.72444
3.86381
3.99276
4.10914
4.21069
4.29506
4.35983
4.40264
4.42113
4.41311
4.37655
4.30965
4.21096
4.07937
3.91422
3.71533
3.48303
3.21822
2.92235
2.59743
2.24605
1.87127
1.47667
1.06624
0.644598
0.215799
0
0
0
0
0
0
0
0
0
0
0
0
0
0
0
0
0
0
0
0
0
0
0
0
0
0
0
0
0
0
0
0
0
0
0
0
0
0
0
0
0
0
0
0
0
0
0
0
0
0
)
;
    }
    frontAndBack
    {
        type            empty;
    }
}


// ************************************************************************* //
