/*--------------------------------*- C++ -*----------------------------------*\
| =========                 |                                                 |
| \\      /  F ield         | OpenFOAM: The Open Source CFD Toolbox           |
|  \\    /   O peration     | Version:  2406                                  |
|   \\  /    A nd           | Website:  www.openfoam.com                      |
|    \\/     M anipulation  |                                                 |
\*---------------------------------------------------------------------------*/
FoamFile
{
    version     2.0;
    format      ascii;
    arch        "LSB;label=32;scalar=64";
    class       volScalarField;
    location    "2.5";
    object      gradTx;
}
// * * * * * * * * * * * * * * * * * * * * * * * * * * * * * * * * * * * * * //

dimensions      [0 -1 0 1 0 0 0];

internalField   nonuniform List<scalar> 
2500
(
0.0158863
0.0475874
0.0791682
0.110581
0.141715
0.172491
0.202826
0.232636
0.261838
0.290344
0.318065
0.344913
0.370794
0.395616
0.419283
0.441698
0.462766
0.482387
0.500463
0.516897
0.531593
0.544456
0.555392
0.564315
0.571138
0.575784
0.57818
0.57826
0.575968
0.571259
0.564096
0.554456
0.542328
0.527717
0.51064
0.491132
0.469244
0.445041
0.418609
0.390048
0.359476
0.327026
0.292849
0.257108
0.219982
0.18166
0.142343
0.102239
0.0615665
0.0205578
0.0159558
0.0477998
0.0795248
0.111079
0.142356
0.173274
0.203751
0.233704
0.263047
0.291695
0.319558
0.346546
0.372567
0.397527
0.421331
0.443881
0.46508
0.484829
0.503029
0.519583
0.534392
0.547361
0.558398
0.567411
0.574316
0.579033
0.581488
0.581614
0.579356
0.574664
0.567503
0.557848
0.545688
0.531026
0.51388
0.494283
0.472286
0.447956
0.421376
0.392649
0.361892
0.329241
0.294845
0.258872
0.221499
0.18292
0.143336
0.102955
0.0619851
0.0206889
0.0160987
0.0482277
0.0802364
0.112075
0.143636
0.174839
0.205601
0.235838
0.265467
0.294398
0.322544
0.349814
0.376115
0.401352
0.425429
0.448248
0.46971
0.489716
0.508165
0.524958
0.539995
0.55318
0.564416
0.573612
0.580681
0.585541
0.588115
0.588335
0.586143
0.581488
0.574332
0.564648
0.552424
0.537661
0.520375
0.500601
0.478387
0.453801
0.426927
0.397867
0.366741
0.333684
0.298852
0.26241
0.224543
0.185447
0.145328
0.104401
0.0628595
0.0209786
0.0163124
0.0488681
0.0813035
0.113569
0.145557
0.177187
0.208376
0.239042
0.269097
0.298455
0.327027
0.35472
0.381441
0.407095
0.431583
0.454807
0.476666
0.497059
0.515883
0.533036
0.548417
0.561926
0.573464
0.582937
0.590254
0.59533
0.598085
0.598449
0.596358
0.59176
0.584612
0.574886
0.562567
0.547654
0.530161
0.510121
0.487582
0.462611
0.435294
0.405733
0.37405
0.340384
0.304892
0.267746
0.229133
0.189256
0.148326
0.106564
0.0641661
0.0214151
0.016597
0.0497217
0.0827261
0.115561
0.148119
0.180319
0.21208
0.243316
0.273942
0.303869
0.333009
0.361268
0.388551
0.414762
0.439801
0.463568
0.485959
0.50687
0.526197
0.543834
0.559677
0.573622
0.585566
0.595412
0.603064
0.608433
0.611435
0.611993
0.610041
0.605522
0.598389
0.588611
0.576167
0.561055
0.543286
0.522892
0.499919
0.474435
0.446525
0.416293
0.383865
0.349382
0.313005
0.274913
0.235298
0.19437
0.152349
0.109463
0.0659161
0.0220001
0.0169527
0.0507887
0.0845047
0.118052
0.151323
0.184237
0.216711
0.248661
0.280002
0.310643
0.340495
0.369463
0.397452
0.424363
0.450094
0.474542
0.497602
0.519166
0.539127
0.557375
0.5738
0.588296
0.600756
0.611074
0.619152
0.624893
0.628209
0.629018
0.627246
0.622831
0.615723
0.605883
0.593288
0.57793
0.559819
0.538982
0.515467
0.489339
0.460684
0.42961
0.396243
0.360731
0.32324
0.283955
0.243077
0.200824
0.157425
0.11312
0.0681227
0.0227377
0.0173796
0.0520694
0.0866395
0.121042
0.155169
0.18894
0.222272
0.255081
0.287281
0.318781
0.34949
0.379313
0.408152
0.435906
0.462472
0.487744
0.511613
0.533968
0.554696
0.573684
0.590819
0.605985
0.619071
0.629966
0.638565
0.644763
0.648466
0.649584
0.648038
0.643758
0.636686
0.626779
0.614008
0.59836
0.579841
0.558475
0.534308
0.507405
0.477852
0.445761
0.41126
0.374502
0.335662
0.29493
0.252519
0.208658
0.163587
0.117558
0.0708008
0.0236329
0.0178777
0.0535636
0.0891305
0.124531
0.159657
0.194429
0.228764
0.262577
0.295781
0.328286
0.359999
0.390823
0.420659
0.449404
0.476951
0.503191
0.528012
0.551298
0.572932
0.592796
0.610768
0.626728
0.640559
0.65214
0.661359
0.668105
0.672273
0.673765
0.672495
0.668383
0.661366
0.65139
0.638421
0.622441
0.60345
0.581469
0.556541
0.52873
0.498125
0.464837
0.429001
0.390776
0.350343
0.307905
0.263684
0.217921
0.170873
0.122807
0.0739681
0.0246917
0.0184469
0.0552713
0.0919776
0.128519
0.164788
0.200705
0.236188
0.27115
0.305506
0.339162
0.372027
0.404001
0.434983
0.464867
0.493544
0.520901
0.546821
0.571183
0.593866
0.614743
0.633688
0.650573
0.66527
0.677654
0.6876
0.694989
0.699706
0.701644
0.700706
0.696803
0.689861
0.67982
0.666637
0.650285
0.63076
0.608078
0.58228
0.553428
0.521611
0.486945
0.449568
0.409647
0.367372
0.322957
0.276638
0.228672
0.179331
0.1289
0.0776446
0.0259207
0.0190872
0.0571922
0.0951804
0.133006
0.170562
0.207768
0.244543
0.280802
0.316456
0.351413
0.385579
0.418853
0.451132
0.482308
0.512267
0.540892
0.568062
0.593651
0.617529
0.639565
0.659624
0.677569
0.693263
0.706571
0.717358
0.725493
0.730851
0.733313
0.732769
0.729122
0.722284
0.712186
0.698775
0.682016
0.661898
0.638432
0.611653
0.581625
0.548436
0.512205
0.473076
0.431223
0.386848
0.340176
0.29146
0.240974
0.18901
0.135873
0.081853
0.0273275
0.0197983
0.0593258
0.098738
0.13799
0.176976
0.215617
0.25383
0.291532
0.328633
0.36504
0.400659
0.435386
0.469116
0.501738
0.533134
0.563183
0.591759
0.618728
0.643956
0.667302
0.688621
0.707769
0.724598
0.73896
0.750709
0.759702
0.7658
0.768872
0.768794
0.765455
0.758756
0.748615
0.734968
0.717771
0.697003
0.67267
0.644803
0.613462
0.578737
0.540749
0.49965
0.455622
0.408877
0.359659
0.308235
0.2549
0.199968
0.143769
0.0866183
0.0289206
0.02058
0.0616712
0.102649
0.14347
0.18403
0.224249
0.264047
0.303339
0.342036
0.380045
0.417269
0.453603
0.488941
0.523166
0.556159
0.587793
0.617934
0.646445
0.673181
0.697993
0.720728
0.741229
0.759337
0.774892
0.787733
0.797704
0.804651
0.808427
0.808894
0.805926
0.799408
0.789245
0.77536
0.757698
0.736228
0.710948
0.681883
0.649091
0.612663
0.572723
0.529428
0.482972
0.433581
0.381513
0.327056
0.270527
0.212267
0.152633
0.0919679
0.0307092
0.0214318
0.0642271
0.106912
0.149444
0.19172
0.233662
0.27519
0.31622
0.356663
0.396425
0.435409
0.473508
0.510612
0.546602
0.581354
0.614736
0.646609
0.676827
0.705236
0.73168
0.755992
0.778005
0.797546
0.814441
0.828514
0.839592
0.847506
0.852091
0.853191
0.850664
0.844378
0.834222
0.820103
0.801954
0.779733
0.753427
0.723056
0.688675
0.650374
0.60828
0.562559
0.513414
0.461086
0.405852
0.348023
0.28794
0.225974
0.162512
0.0979313
0.0327031
0.0223532
0.0669919
0.111523
0.155907
0.200041
0.24385
0.287254
0.33017
0.372509
0.414178
0.455077
0.495099
0.534131
0.57205
0.608728
0.644027
0.677802
0.709898
0.740154
0.7684
0.79446
0.818151
0.839288
0.857679
0.873134
0.885459
0.894468
0.899976
0.901808
0.899802
0.893808
0.883695
0.869354
0.850702
0.827685
0.800278
0.768495
0.732385
0.692037
0.647583
0.599196
0.547091
0.491526
0.432797
0.371241
0.307228
0.241159
0.173458
0.10454
0.0349127
0.0233433
0.0699632
0.116479
0.162854
0.208988
0.254806
0.300231
0.345181
0.389567
0.433296
0.476267
0.518373
0.559495
0.599511
0.638285
0.675675
0.711527
0.745679
0.77796
0.808187
0.836172
0.861719
0.884624
0.904679
0.921674
0.935398
0.94564
0.952197
0.954871
0.953476
0.947842
0.937817
0.923274
0.904111
0.880257
0.851678
0.818376
0.780396
0.737827
0.690801
0.639502
0.584157
0.525041
0.462475
0.396822
0.328484
0.257897
0.185525
0.111825
0.0373489
0.0244013
0.0731381
0.121775
0.170279
0.218552
0.266521
0.314111
0.361241
0.407825
0.453768
0.498969
0.543319
0.5867
0.628981
0.670026
0.709683
0.747794
0.784185
0.818675
0.85107
0.881168
0.908754
0.933609
0.955505
0.974212
0.989495
1.00112
1.00886
1.0125
1.01182
1.00662
0.996742
0.982024
0.962347
0.937623
0.907803
0.872879
0.832888
0.787918
0.738105
0.68364
0.624765
0.561775
0.495014
0.424877
0.351801
0.276263
0.198768
0.119821
0.040023
0.0255257
0.0765128
0.127405
0.178174
0.228723
0.278983
0.32888
0.378337
0.427268
0.475578
0.523168
0.569926
0.61573
0.66045
0.703941
0.746048
0.786602
0.825422
0.862314
0.897071
0.929474
0.959294
0.986291
1.01022
1.03082
1.04783
1.06101
1.07008
1.07481
1.07495
1.07029
1.06062
1.04576
1.02557
0.999952
0.968828
0.932179
0.890038
0.842486
0.789666
0.731775
0.66907
0.601869
0.530543
0.45552
0.377276
0.296331
0.213241
0.128561
0.042946
0.0267152
0.0800828
0.133362
0.186528
0.239487
0.292175
0.344521
0.396449
0.447875
0.498706
0.548841
0.59817
0.646568
0.6939
0.740017
0.784758
0.827945
0.869388
0.90888
0.946199
0.981112
1.01337
1.04271
1.06886
1.09155
1.11048
1.12537
1.13594
1.14191
1.143
1.13897
1.12958
1.11463
1.09395
1.06741
1.03492
0.996449
0.952016
0.901702
0.845649
0.784065
0.717224
0.645464
0.569189
0.488862
0.405002
0.318178
0.228998
0.138078
0.0461291
0.0279678
0.0838425
0.139636
0.195328
0.25083
0.30608
0.361012
0.415553
0.46962
0.523123
0.575962
0.628024
0.679184
0.729303
0.778228
0.825791
0.871805
0.916069
0.958364
0.998454
1.03608
1.07099
1.10288
1.13147
1.15644
1.17749
1.19429
1.20653
1.21389
1.21607
1.21278
1.20376
1.18877
1.16762
1.14014
1.10624
1.06585
1.01898
0.965725
0.906211
0.840662
0.769368
0.692692
0.611071
0.525007
0.435067
0.341873
0.246091
0.148403
0.0495827
0.0292812
0.0877852
0.146216
0.204559
0.262731
0.320674
0.378327
0.435619
0.492471
0.548796
0.604493
0.65945
0.713541
0.766623
0.818539
0.869112
0.91815
0.965438
1.01075
1.05382
1.09438
1.13216
1.16682
1.19806
1.22554
1.2489
1.26781
1.2819
1.29082
1.29423
1.29181
1.28325
1.26829
1.2467
1.21828
1.18291
1.14051
1.09109
1.0347
0.971495
0.901704
0.825634
0.743676
0.656301
0.564054
0.467555
0.367483
0.264569
0.159565
0.0533168
0.030653
0.0919032
0.153089
0.214204
0.275168
0.33593
0.396433
0.456611
0.516389
0.575682
0.63439
0.692402
0.74959
0.80581
0.860899
0.914675
0.966934
1.01745
1.06598
1.11226
1.15598
1.19684
1.23451
1.26863
1.29883
1.32473
1.34595
1.36208
1.37274
1.37754
1.37613
1.36815
1.35329
1.33129
1.30194
1.26506
1.22057
1.16844
1.10874
1.04162
0.967309
0.886136
0.798521
0.704974
0.606088
0.502537
0.395065
0.284473
0.17159
0.0573399
0.03208
0.0961873
0.160241
0.224241
0.288114
0.351816
0.415294
0.478488
0.541327
0.603729
0.665598
0.726821
0.787272
0.846803
0.905247
0.962414
1.01809
1.07205
1.12402
1.17371
1.22082
1.26501
1.30591
1.34314
1.37629
1.40496
1.4287
1.44709
1.45967
1.46604
1.46577
1.45848
1.44382
1.42147
1.39118
1.35276
1.3061
1.25114
1.18796
1.11668
1.03757
0.950962
0.857312
0.757169
0.651178
0.540073
0.424666
0.305837
0.184499
0.0616591
0.0335588
0.100627
0.167653
0.234646
0.301539
0.368294
0.434866
0.501199
0.56723
0.632878
0.698051
0.762638
0.826512
0.889524
0.951502
1.01225
1.07155
1.12915
1.18477
1.23811
1.28883
1.33658
1.38095
1.42153
1.45788
1.48954
1.51603
1.53688
1.5516
1.55971
1.56074
1.55427
1.53989
1.51725
1.48605
1.44606
1.39715
1.33924
1.27239
1.19674
1.11255
1.02017
0.920105
0.812938
0.699371
0.580203
0.45632
0.328686
0.198307
0.0662794
0.0350853
0.105211
0.175307
0.245391
0.315406
0.385321
0.455097
0.524688
0.594032
0.663056
0.731672
0.79977
0.867223
0.93388
0.999567
1.06408
1.12719
1.18864
1.24813
1.30534
1.35991
1.41145
1.45953
1.5037
1.54349
1.57838
1.60786
1.63139
1.64845
1.65848
1.66099
1.65547
1.64148
1.61861
1.58652
1.54495
1.49372
1.43275
1.36207
1.28182
1.19226
1.09379
0.986927
0.872307
0.750691
0.622947
0.490043
0.353032
0.213022
0.0712035
0.0366551
0.109924
0.183179
0.256446
0.329676
0.402848
0.475932
0.548887
0.62166
0.694183
0.766371
0.838119
0.9093
0.979762
1.04933
1.11779
1.1849
1.2504
1.31397
1.37527
1.43391
1.48948
1.54151
1.58952
1.63299
1.67136
1.70406
1.7305
1.7501
1.76226
1.7664
1.76199
1.74849
1.72547
1.69254
1.64937
1.59577
1.53162
1.45694
1.37187
1.27669
1.1718
1.05776
0.935264
0.805129
0.6683
0.525832
0.378874
0.228642
0.0764311
0.0382631
0.114753
0.191244
0.267775
0.344304
0.420821
0.497305
0.573723
0.65003
0.726165
0.802047
0.877575
0.952624
1.02704
1.10065
1.17322
1.24453
1.31427
1.38212
1.44773
1.51067
1.5705
1.62672
1.67881
1.7262
1.76829
1.80444
1.83403
1.85639
1.87087
1.87683
1.87366
1.86079
1.8377
1.80396
1.7592
1.70317
1.63575
1.55692
1.46683
1.36575
1.25413
1.13255
1.00176
0.862642
0.716228
0.56366
0.406192
0.245156
0.0819584
0.0399039
0.119681
0.199476
0.279338
0.35924
0.439178
0.519143
0.599113
0.679048
0.758896
0.838582
0.91801
0.997056
1.07557
1.15336
1.23022
1.30589
1.38006
1.4524
1.52251
1.58997
1.65428
1.71493
1.77134
1.82289
1.86894
1.90879
1.94174
1.96708
1.98408
1.99204
1.99028
1.97815
1.95509
1.92058
1.87423
1.81574
1.74495
1.66184
1.56653
1.45931
1.34065
1.21118
1.07169
0.923148
0.766661
0.603473
0.434947
0.262541
0.0877777
0.0415712
0.124688
0.207842
0.291094
0.374428
0.457852
0.541368
0.624963
0.708609
0.792259
0.875847
0.959281
1.04244
1.12518
1.2073
1.28859
1.36878
1.44755
1.52456
1.59938
1.67156
1.74058
1.80588
1.86684
1.92278
1.97302
2.0168
2.05334
2.08187
2.1016
2.11173
2.11153
2.10028
2.07733
2.04212
1.9942
1.93322
1.85899
1.77146
1.67075
1.55716
1.43118
1.29348
1.14491
0.986518
0.819494
0.645188
0.46508
0.280761
0.0938771
0.0432584
0.129756
0.21631
0.302996
0.389808
0.476769
0.563891
0.651173
0.738596
0.826124
0.913697
1.00123
1.0886
1.17567
1.26225
1.34811
1.43297
1.51651
1.59835
1.67806
1.75516
1.82909
1.89924
1.96496
2.02553
2.08018
2.1281
2.16846
2.20039
2.22303
2.23553
2.23704
2.22679
2.20406
2.16821
2.11874
2.05526
1.97752
1.88546
1.77918
1.65901
1.52545
1.37921
1.22122
1.05257
0.87458
0.68869
0.496507
0.299765
0.10024
0.0449584
0.134863
0.224844
0.314993
0.405316
0.495849
0.586617
0.677631
0.768883
0.860347
0.951972
1.04368
1.13535
1.22686
1.31799
1.40853
1.49819
1.58663
1.67346
1.75823
1.84042
1.91944
1.99465
2.06534
2.13073
2.19
2.24228
2.28665
2.32218
2.34793
2.36295
2.36634
2.35722
2.3348
2.2984
2.24741
2.18141
2.10012
2.00343
1.89146
1.76452
1.62314
1.46809
1.30034
1.12109
0.931727
0.733827
0.52912
0.319489
0.106844
0.0466635
0.139985
0.233406
0.32703
0.42088
0.515005
0.609443
0.704218
0.799334
0.894776
0.9905
1.08644
1.18248
1.27849
1.37427
1.46959
1.56415
1.65762
1.74957
1.83954
1.92697
2.01125
2.09168
2.16752
2.23792
2.302
2.35883
2.40741
2.44672
2.47575
2.49346
2.49887
2.49101
2.46901
2.43211
2.37966
2.31115
2.22627
2.12489
2.0071
1.87323
1.72384
1.55973
1.38195
1.19178
0.990698
0.780412
0.562784
0.33985
0.113662
0.0483655
0.145098
0.241953
0.339051
0.436427
0.534146
0.63226
0.730806
0.829802
0.929242
1.0291
1.1293
1.22975
1.33032
1.43081
1.53098
1.63053
1.72912
1.8263
1.92158
2.01438
2.10406
2.18986
2.271
2.34658
2.41564
2.47718
2.53013
2.5734
2.60587
2.62643
2.63398
2.6275
2.60603
2.56872
2.51484
2.44384
2.35535
2.24923
2.12554
1.98463
1.82706
1.6537
1.46566
1.26429
1.05121
0.828221
0.597335
0.36075
0.120661
0.0500558
0.150177
0.250444
0.350993
0.451876
0.553173
0.654951
0.757259
0.86013
0.963571
1.06756
1.17204
1.27693
1.38208
1.48731
1.59238
1.69699
1.80076
1.90324
2.00393
2.1022
2.19737
2.28867
2.37523
2.45611
2.5303
2.5967
2.65417
2.70153
2.73758
2.76111
2.77095
2.76596
2.74511
2.70745
2.65221
2.57875
2.48667
2.37578
2.24614
2.09809
1.93223
1.74948
1.55099
1.33824
1.11292
0.876989
0.632583
0.382073
0.127802
0.0517254
0.155193
0.258832
0.362794
0.467147
0.571986
0.677394
0.783435
0.890155
0.997574
1.10568
1.21443
1.32375
1.43349
1.54348
1.65346
1.76314
1.87213
1.97996
2.0861
2.18991
2.29066
2.38752
2.4796
2.56589
2.6453
2.71667
2.77877
2.83034
2.87009
2.89671
2.90894
2.90555
2.8854
2.84749
2.79093
2.71506
2.61941
2.50376
2.36815
2.21292
2.03871
1.84647
1.63744
1.41316
1.17546
0.926415
0.66831
0.403689
0.135042
0.053365
0.16012
0.267071
0.374387
0.482153
0.590478
0.699462
0.809184
0.919705
1.03106
1.14324
1.25623
1.36993
1.48424
1.59896
1.71385
1.82859
1.9428
2.05599
2.1676
2.27697
2.38332
2.48581
2.58346
2.67521
2.75991
2.83632
2.90314
2.95901
3.00254
3.03234
3.04704
3.04533
3.02598
2.98788
2.93009
2.85187
2.75269
2.6323
2.49074
2.32834
2.14577
1.94402
1.7244
1.48855
1.2384
0.976161
0.704271
0.425447
0.14233
0.0549651
0.164928
0.275113
0.385705
0.496805
0.60854
0.721025
0.834354
0.948603
1.06382
1.18001
1.29716
1.4152
1.53401
1.65341
1.77316
1.89293
2.01232
2.13084
2.2479
2.36281
2.47476
2.58287
2.68609
2.78333
2.87334
2.95483
3.0264
3.08662
3.13399
3.16703
3.18428
3.18432
3.16583
3.12761
3.06866
2.98816
2.88552
2.76047
2.61302
2.44351
2.25262
2.0414
1.81122
1.56383
1.30127
1.02586
0.740199
0.447187
0.149613
0.0565158
0.169589
0.282908
0.396678
0.511014
0.626061
0.741949
0.858788
0.976668
1.09565
1.21576
1.33698
1.45926
1.58249
1.70648
1.831
1.95571
2.08021
2.20398
2.32643
2.44682
2.56433
2.678
2.78677
2.88945
2.98477
3.07132
3.14765
3.21222
3.26345
3.29976
3.31959
3.32143
3.30386
3.26561
3.20557
3.12286
3.01687
2.88725
2.73401
2.55749
2.3584
2.13783
1.89723
1.63841
1.36355
1.0751
0.775802
0.468733
0.156831
0.0580076
0.174072
0.290408
0.407237
0.52469
0.642929
0.762099
0.882326
1.00372
1.12634
1.25024
1.37542
1.50182
1.62933
1.7578
1.88696
2.0165
2.14599
2.2749
2.40262
2.52839
2.65134
2.77049
2.88472
2.99278
3.09332
3.18488
3.26592
3.3348
3.38988
3.42946
3.45188
3.45554
3.43894
3.4007
3.33966
3.25485
3.14561
3.01156
2.85268
2.66932
2.46221
2.23248
1.98166
1.71165
1.42472
1.12346
0.810772
0.489896
0.163922
0.0594305
0.178349
0.297563
0.417312
0.537742
0.659031
0.78134
0.904811
1.02956
1.15568
1.28322
1.4122
1.54256
1.67421
1.80699
1.94064
2.07484
2.20916
2.34305
2.47589
2.60688
2.73513
2.85961
2.97915
3.09245
3.1981
3.29457
3.38021
3.45334
3.5122
3.555
3.58
3.58549
3.56988
3.53172
3.46974
3.38294
3.27059
3.13227
2.96795
2.77798
2.5631
2.32449
2.06374
1.78286
1.4842
1.1705
0.844785
0.510482
0.17082
0.060775
0.18239
0.304325
0.426834
0.550081
0.674257
0.799539
0.926085
1.05403
1.18347
1.31447
1.44705
1.58119
1.71679
1.85368
1.99162
2.13028
2.26922
2.4079
2.54564
2.68165
2.81499
2.9446
3.06926
3.18763
3.29821
3.39942
3.48954
3.56678
3.62931
3.67526
3.70277
3.71007
3.69547
3.65742
3.5946
3.50593
3.39063
3.24825
3.07873
2.88242
2.66009
2.41296
2.14269
1.85135
1.54142
1.21575
0.87751
0.53029
0.177457
0.0620318
0.186168
0.310647
0.435738
0.561619
0.688498
0.816567
0.945995
1.07693
1.20949
1.34374
1.47973
1.61742
1.75673
1.89751
2.0395
2.18238
2.3257
2.4689
2.6113
2.75207
2.89025
3.02474
3.15428
3.27746
3.39275
3.49848
3.59287
3.67406
3.74011
3.78908
3.81904
3.82809
3.81448
3.77659
3.71301
3.6226
3.50453
3.35832
3.18389
2.98159
2.75221
2.49701
2.21769
1.91643
1.5958
1.25875
0.908611
0.549116
0.183766
0.0631919
0.189655
0.316483
0.443958
0.572274
0.701652
0.832297
0.964394
1.0981
1.23355
1.37082
1.50996
1.65096
1.79373
1.93812
2.08389
2.23071
2.37811
2.52554
2.67229
2.81751
2.96023
3.09929
3.23341
3.36112
3.48084
3.59082
3.68924
3.77414
3.84353
3.89536
3.92763
3.93837
3.92572
3.88801
3.82375
3.73174
3.61111
3.46134
3.28234
3.07445
2.83848
2.57572
2.28795
1.9774
1.64675
1.29905
0.937754
0.566758
0.189679
0.0642469
0.192827
0.32179
0.451435
0.581967
0.713619
0.846611
0.98114
1.11738
1.25546
1.39549
1.53752
1.68154
1.82748
1.97518
2.12442
2.27484
2.426
2.57731
2.72806
2.87739
3.02429
3.16757
3.3059
3.4378
3.5616
3.67553
3.77768
3.86603
3.9385
3.993
4.02743
4.03974
4.02802
3.9905
3.92564
3.83219
3.70923
3.5562
3.373
3.15998
2.91795
2.64825
2.35269
2.03359
1.6937
1.33619
0.964615
0.583019
0.19513
0.0651888
0.195658
0.32653
0.458112
0.590623
0.724309
0.8594
0.996105
1.13461
1.27505
1.41755
1.56217
1.7089
1.85769
2.00837
2.16072
2.3144
2.46893
2.62375
2.77811
2.93115
3.08181
3.22891
3.37106
3.50674
3.63425
3.75175
3.85728
3.94876
4.02405
4.08098
4.11737
4.13113
4.12026
4.08294
4.01756
3.92283
3.79778
3.64183
3.45486
3.23721
2.98972
2.71375
2.41117
2.08435
1.73612
1.36974
0.988884
0.597712
0.200055
0.0660107
0.198129
0.330665
0.463937
0.598176
0.733637
0.870561
1.00917
1.14965
1.29216
1.43683
1.58371
1.73282
1.8841
2.0374
2.19249
2.34902
2.50653
2.66442
2.82197
2.97826
3.13225
3.28271
3.42823
3.56725
3.69803
3.81869
3.9272
4.02145
4.09924
4.15832
4.19647
4.21152
4.20142
4.16429
4.09847
4.00262
3.87574
3.71724
3.52695
3.30524
3.05295
2.77147
2.4627
2.12908
1.7735
1.39932
1.01027
0.610662
0.204397
0.0667064
0.20022
0.334164
0.468867
0.604567
0.74153
0.880006
1.02022
1.16238
1.30665
1.45315
1.60196
1.75309
1.90648
2.06201
2.21942
2.37838
2.53842
2.69894
2.8592
3.01827
3.1751
3.32842
3.47682
3.61869
3.75227
3.87563
3.9867
4.08333
4.16325
4.22418
4.26384
4.28
4.27057
4.23361
4.16743
4.07064
3.94222
3.78153
3.58843
3.36326
3.10688
2.8207
2.50666
2.16724
1.8054
1.42455
1.02852
0.621713
0.208102
0.0672707
0.201916
0.337001
0.472861
0.609744
0.747924
0.887659
1.02918
1.1727
1.31839
1.46638
1.61675
1.76952
1.92464
2.08197
2.24128
2.40222
2.56432
2.72698
2.88944
3.05078
3.20992
3.36558
3.51633
3.66053
3.79639
3.92195
4.03512
4.13369
4.21536
4.2778
4.3187
4.33578
4.3269
4.29009
4.22362
4.12607
3.99639
3.83394
3.63855
3.41056
3.15085
2.86084
2.54251
2.19836
1.83141
1.44512
1.04341
0.630727
0.211125
0.0676994
0.203206
0.339154
0.475888
0.613666
0.752767
0.893455
1.03597
1.18052
1.32729
1.47641
1.62796
1.78198
1.93841
2.09711
2.25785
2.4203
2.58396
2.74825
2.91239
3.07546
3.23635
3.3938
3.54633
3.69231
3.82991
3.95716
4.07192
4.17197
4.25497
4.31857
4.36041
4.3782
4.36974
4.33305
4.26637
4.16825
4.03762
3.87382
3.67669
3.44656
3.18432
2.89139
2.56979
2.22204
1.85121
1.46079
1.05474
0.637593
0.21343
0.067987
0.204078
0.340609
0.477923
0.6163
0.756019
0.897346
1.04052
1.18577
1.33326
1.48314
1.63549
1.79035
1.94766
2.10728
2.26899
2.43245
2.59717
2.76255
2.92782
3.09205
3.25413
3.41278
3.56651
3.71369
3.85246
3.98084
4.09668
4.19773
4.28163
4.34602
4.3885
4.40675
4.39859
4.36198
4.29515
4.19665
4.06538
3.90068
3.70238
3.47081
3.20686
2.91197
2.58817
2.238
1.86454
1.47134
1.06238
0.642229
0.214989
0.068118
0.204499
0.341335
0.478944
0.617623
0.757652
0.8993
1.04281
1.1884
1.33626
1.48652
1.63928
1.79455
1.9523
2.11239
2.27459
2.43855
2.60381
2.76974
2.93557
3.10039
3.26307
3.42232
3.57667
3.72444
3.86381
3.99276
4.10914
4.21069
4.29506
4.35983
4.40264
4.42113
4.41311
4.37655
4.30965
4.21096
4.07937
3.91422
3.71533
3.48303
3.21822
2.92235
2.59743
2.24605
1.87127
1.47667
1.06624
0.644598
0.215799
)
;

boundaryField
{
    walls
    {
        type            calculated;
        value           nonuniform List<scalar> 
200
(
0.068118
0.204499
0.341335
0.478944
0.617623
0.757652
0.8993
1.04281
1.1884
1.33626
1.48652
1.63928
1.79455
1.9523
2.11239
2.27459
2.43855
2.60381
2.76974
2.93557
3.10039
3.26307
3.42232
3.57667
3.72444
3.86381
3.99276
4.10914
4.21069
4.29506
4.35983
4.40264
4.42113
4.41311
4.37655
4.30965
4.21096
4.07937
3.91422
3.71533
3.48303
3.21822
2.92235
2.59743
2.24605
1.87127
1.47667
1.06624
0.644598
0.215799
0
0
0
0
0
0
0
0
0
0
0
0
0
0
0
0
0
0
0
0
0
0
0
0
0
0
0
0
0
0
0
0
0
0
0
0
0
0
0
0
0
0
0
0
0
0
0
0
0
0
0
0
0
0
0
0
0
0
0
0
0
0
0
0
0
0
0
0
0
0
0
0
0
0
0
0
0
0
0
0
0
0
0
0
0
0
0
0
0
0
0
0
0
0
0
0
0
0
0
0
0.0158863
0.0475874
0.0791682
0.110581
0.141715
0.172491
0.202826
0.232636
0.261838
0.290344
0.318065
0.344913
0.370794
0.395616
0.419283
0.441698
0.462766
0.482387
0.500463
0.516897
0.531593
0.544456
0.555392
0.564315
0.571138
0.575784
0.57818
0.57826
0.575968
0.571259
0.564096
0.554456
0.542328
0.527717
0.51064
0.491132
0.469244
0.445041
0.418609
0.390048
0.359476
0.327026
0.292849
0.257108
0.219982
0.18166
0.142343
0.102239
0.0615665
0.0205578
)
;
    }
    frontAndBack
    {
        type            empty;
    }
}


// ************************************************************************* //
