/*--------------------------------*- C++ -*----------------------------------*\
| =========                 |                                                 |
| \\      /  F ield         | OpenFOAM: The Open Source CFD Toolbox           |
|  \\    /   O peration     | Version:  2406                                  |
|   \\  /    A nd           | Website:  www.openfoam.com                      |
|    \\/     M anipulation  |                                                 |
\*---------------------------------------------------------------------------*/
FoamFile
{
    version     2.0;
    format      ascii;
    arch        "LSB;label=32;scalar=64";
    class       volScalarField;
    location    "2.5";
    object      T;
}
// * * * * * * * * * * * * * * * * * * * * * * * * * * * * * * * * * * * * * //

dimensions      [0 0 0 1 0 0 0];

internalField   nonuniform List<scalar> 
2500
(
0.444618
0.445254
0.446522
0.44842
0.450945
0.454089
0.457845
0.462202
0.46715
0.472676
0.478764
0.485398
0.49256
0.50023
0.508385
0.517001
0.526053
0.535512
0.545348
0.55553
0.566024
0.576794
0.587803
0.59901
0.610375
0.621855
0.633406
0.644983
0.656537
0.668021
0.679387
0.690585
0.701565
0.712278
0.722674
0.732704
0.742319
0.751474
0.760121
0.768218
0.775723
0.782597
0.788804
0.794311
0.799088
0.80311
0.806355
0.808804
0.810444
0.811267
0.445254
0.445892
0.447166
0.449073
0.451609
0.454767
0.45854
0.462917
0.467888
0.473439
0.479556
0.486221
0.493418
0.501124
0.509319
0.517977
0.527074
0.536581
0.546467
0.556702
0.56725
0.578077
0.589145
0.600413
0.611841
0.623386
0.635003
0.646645
0.658267
0.66982
0.681254
0.69252
0.703568
0.714347
0.724809
0.734903
0.74458
0.753794
0.762498
0.770649
0.778204
0.785125
0.791374
0.796919
0.801729
0.805779
0.809046
0.811512
0.813164
0.813991
0.446522
0.447166
0.448451
0.450375
0.452934
0.456121
0.459927
0.464345
0.469361
0.474963
0.481137
0.487865
0.495129
0.50291
0.511184
0.519927
0.529113
0.538715
0.548702
0.559042
0.5697
0.580642
0.591828
0.603218
0.614772
0.626446
0.638194
0.64997
0.661727
0.673416
0.684987
0.696389
0.707573
0.718486
0.729079
0.739301
0.749103
0.758437
0.767255
0.775514
0.78317
0.790183
0.796517
0.802137
0.807014
0.811119
0.814431
0.816932
0.818607
0.819447
0.44842
0.449073
0.450375
0.452325
0.454918
0.458147
0.462005
0.466482
0.471567
0.477246
0.483505
0.490327
0.497694
0.505585
0.513978
0.522848
0.53217
0.541915
0.552053
0.56255
0.573374
0.584487
0.595851
0.607426
0.619168
0.631036
0.642982
0.654959
0.66692
0.678813
0.69059
0.702198
0.713585
0.724701
0.735492
0.745907
0.755896
0.76541
0.774401
0.782822
0.79063
0.797784
0.804246
0.80998
0.814955
0.819145
0.822526
0.825078
0.826788
0.827645
0.450945
0.451609
0.452934
0.454918
0.457556
0.460843
0.464769
0.469326
0.474502
0.480284
0.486656
0.493604
0.501107
0.509146
0.517698
0.526738
0.53624
0.546176
0.556515
0.567224
0.578269
0.589611
0.601213
0.613034
0.62503
0.637157
0.649367
0.661614
0.673847
0.686016
0.698068
0.709951
0.721612
0.732998
0.744054
0.754729
0.76497
0.774726
0.783948
0.792587
0.800599
0.807942
0.814575
0.820462
0.825571
0.829874
0.833346
0.835968
0.837724
0.838604
0.454089
0.454767
0.456121
0.458147
0.460843
0.4642
0.468212
0.472869
0.478159
0.484069
0.490584
0.497689
0.505363
0.513587
0.522337
0.53159
0.541319
0.551494
0.562086
0.57306
0.584381
0.596012
0.607913
0.620042
0.632356
0.644808
0.657351
0.669936
0.682512
0.695026
0.707425
0.719655
0.731661
0.743386
0.754778
0.765779
0.776337
0.786398
0.795911
0.804825
0.813095
0.820675
0.827524
0.833605
0.838882
0.843328
0.846915
0.849625
0.85144
0.85235
0.457845
0.45854
0.459927
0.462005
0.464769
0.468212
0.472327
0.477103
0.48253
0.488594
0.495281
0.502574
0.510454
0.5189
0.52789
0.537399
0.5474
0.557863
0.568758
0.580051
0.591706
0.603684
0.615945
0.628447
0.641144
0.653989
0.666934
0.679928
0.692918
0.70585
0.718668
0.731317
0.743739
0.755877
0.767674
0.779071
0.790013
0.800443
0.810309
0.819557
0.828139
0.836008
0.843119
0.849434
0.854916
0.859535
0.863263
0.866078
0.867965
0.86891
0.462202
0.462917
0.464345
0.466482
0.469326
0.472869
0.477103
0.482019
0.487606
0.493851
0.500738
0.50825
0.51637
0.525077
0.534347
0.544155
0.554474
0.565275
0.576526
0.588193
0.600238
0.612623
0.625307
0.638246
0.651393
0.6647
0.678117
0.691591
0.705068
0.718491
0.731803
0.744945
0.757859
0.770482
0.782756
0.79462
0.806015
0.816882
0.827164
0.836807
0.845758
0.853967
0.861389
0.867981
0.873705
0.878528
0.882422
0.885363
0.887334
0.888322
0.46715
0.467888
0.469361
0.471567
0.474502
0.478159
0.48253
0.487606
0.493376
0.499826
0.506942
0.514707
0.523102
0.532107
0.541697
0.551848
0.562533
0.573721
0.585381
0.597476
0.60997
0.622823
0.635993
0.649434
0.663099
0.676938
0.690899
0.704927
0.718965
0.732955
0.746837
0.760549
0.77403
0.787215
0.800041
0.812445
0.824364
0.835736
0.846501
0.856601
0.865979
0.874583
0.882365
0.889278
0.895283
0.900344
0.90443
0.907517
0.909586
0.910623
0.472676
0.473439
0.474963
0.477246
0.480284
0.484069
0.488594
0.493851
0.499826
0.506509
0.513883
0.521932
0.530637
0.539977
0.549929
0.560468
0.571565
0.58319
0.595311
0.607892
0.620894
0.634276
0.647996
0.662007
0.676259
0.690701
0.705279
0.719935
0.734611
0.749246
0.763776
0.778137
0.792264
0.806088
0.819544
0.832564
0.845082
0.85703
0.868347
0.878968
0.888835
0.897891
0.906084
0.913365
0.919691
0.925023
0.92933
0.932584
0.934765
0.935858
0.478764
0.479556
0.481137
0.483505
0.486656
0.490584
0.495281
0.500738
0.506942
0.513883
0.521544
0.529909
0.538959
0.548674
0.559029
0.569999
0.581556
0.59367
0.606305
0.619428
0.632998
0.646973
0.661308
0.675957
0.690867
0.705985
0.721255
0.736617
0.75201
0.767369
0.782628
0.797719
0.812572
0.827118
0.841283
0.854998
0.86819
0.88079
0.892729
0.903939
0.914358
0.923925
0.932583
0.94028
0.94697
0.95261
0.957166
0.960609
0.962916
0.964073
0.485398
0.486221
0.487865
0.490327
0.493604
0.497689
0.502574
0.50825
0.514707
0.521932
0.529909
0.538623
0.548053
0.55818
0.56898
0.580427
0.592492
0.605144
0.618349
0.632071
0.646269
0.6609
0.675918
0.691274
0.706914
0.722783
0.738822
0.754969
0.771159
0.787325
0.803396
0.819301
0.834966
0.850316
0.865274
0.879765
0.893712
0.90704
0.919676
0.931547
0.942585
0.952724
0.961903
0.970067
0.977164
0.983149
0.987985
0.99164
0.99409
0.995319
0.49256
0.493418
0.495129
0.497694
0.501107
0.505363
0.510454
0.51637
0.523102
0.530637
0.538959
0.548053
0.5579
0.568478
0.579764
0.591732
0.604353
0.617596
0.631426
0.645806
0.660694
0.676045
0.691814
0.707947
0.724391
0.741088
0.757975
0.774988
0.792059
0.809116
0.826085
0.842891
0.859454
0.875695
0.891532
0.906884
0.921669
0.935807
0.949216
0.961822
0.973548
0.984324
0.994084
1.00277
1.01032
1.01669
1.02184
1.02573
1.02834
1.02964
0.50023
0.501124
0.50291
0.505585
0.509146
0.513587
0.5189
0.525077
0.532107
0.539977
0.548674
0.55818
0.568478
0.579545
0.59136
0.603895
0.617121
0.631007
0.645517
0.660613
0.676253
0.692391
0.708979
0.725963
0.743286
0.760888
0.778704
0.796667
0.814703
0.832739
0.850696
0.868491
0.886043
0.903266
0.920071
0.936373
0.952083
0.967113
0.981378
0.994794
1.00728
1.01876
1.02916
1.03842
1.04648
1.05327
1.05877
1.06292
1.0657
1.0671
0.508385
0.509319
0.511184
0.513978
0.517698
0.522337
0.52789
0.534347
0.541697
0.549929
0.559029
0.56898
0.579764
0.59136
0.603744
0.616891
0.630771
0.645352
0.660599
0.676471
0.692926
0.709918
0.727395
0.745303
0.763582
0.78217
0.800998
0.819995
0.839086
0.85819
0.877225
0.896104
0.914737
0.933035
0.950902
0.968245
0.984969
1.00098
1.01618
1.03049
1.04382
1.05607
1.06718
1.07707
1.08568
1.09295
1.09882
1.10326
1.10624
1.10774
0.517001
0.517977
0.519927
0.522848
0.526738
0.53159
0.537399
0.544155
0.551848
0.560468
0.569999
0.580427
0.591732
0.603895
0.616891
0.630696
0.645279
0.660607
0.676646
0.693354
0.710689
0.728601
0.747039
0.765945
0.785259
0.804914
0.824839
0.844959
0.865194
0.885459
0.905666
0.925724
0.945536
0.965005
0.98403
1.00251
1.02034
1.03742
1.05366
1.06894
1.08318
1.09629
1.10817
1.11876
1.12797
1.13575
1.14204
1.1468
1.15
1.1516
0.526053
0.527074
0.529113
0.53217
0.53624
0.541319
0.5474
0.554474
0.562533
0.571565
0.581556
0.592492
0.604353
0.617121
0.630771
0.645279
0.660613
0.676743
0.69363
0.711235
0.729513
0.748414
0.767885
0.787866
0.808293
0.829098
0.850207
0.871539
0.89301
0.914531
0.936008
0.957343
0.978433
0.999173
1.01946
1.03917
1.05821
1.07646
1.09381
1.11016
1.1254
1.13943
1.15216
1.1635
1.17338
1.18172
1.18847
1.19358
1.197
1.19872
0.535512
0.536581
0.538715
0.541915
0.546176
0.551494
0.557863
0.565275
0.573721
0.58319
0.59367
0.605144
0.617596
0.631007
0.645352
0.660607
0.676743
0.693725
0.711518
0.73008
0.749366
0.769325
0.789901
0.811033
0.832655
0.854695
0.877074
0.89971
0.922512
0.945386
0.968232
0.990945
1.01342
1.03553
1.05717
1.07823
1.09857
1.11808
1.13665
1.15415
1.17048
1.18552
1.19917
1.21133
1.22193
1.23089
1.23813
1.24362
1.24729
1.24914
0.545348
0.546467
0.548702
0.552053
0.556515
0.562086
0.568758
0.576526
0.585381
0.595311
0.606305
0.618349
0.631426
0.645517
0.660599
0.676646
0.69363
0.711518
0.730273
0.749853
0.770211
0.791296
0.813051
0.835411
0.858309
0.881669
0.905409
0.929441
0.95367
0.977996
1.00231
1.02651
1.05046
1.07406
1.09717
1.11966
1.14142
1.1623
1.18218
1.20093
1.21843
1.23455
1.2492
1.26226
1.27364
1.28326
1.29105
1.29694
1.30089
1.30287
0.55553
0.556702
0.559042
0.56255
0.567224
0.57306
0.580051
0.588193
0.597476
0.607892
0.619428
0.632071
0.645806
0.660613
0.676471
0.693354
0.711235
0.73008
0.749853
0.77051
0.792005
0.814286
0.837292
0.860958
0.885214
0.90998
0.93517
0.960692
0.986446
1.01232
1.03822
1.064
1.08955
1.11473
1.13941
1.16346
1.18673
1.20908
1.23037
1.25047
1.26923
1.28654
1.30226
1.31628
1.32851
1.33885
1.34721
1.35355
1.3578
1.35993
0.566024
0.56725
0.5697
0.573374
0.578269
0.584381
0.591706
0.600238
0.60997
0.620894
0.632998
0.646269
0.660694
0.676253
0.692926
0.710689
0.729513
0.749366
0.770211
0.792005
0.814701
0.838245
0.862575
0.887625
0.91332
0.939578
0.966309
0.993416
1.02079
1.04833
1.07589
1.10337
1.13062
1.1575
1.18387
1.20958
1.23447
1.2584
1.28121
1.30275
1.32288
1.34144
1.35832
1.37339
1.38652
1.39763
1.40662
1.41343
1.418
1.4203
0.576794
0.578077
0.580642
0.584487
0.589611
0.596012
0.603684
0.612623
0.622823
0.634276
0.646973
0.6609
0.676045
0.692391
0.709918
0.728601
0.748414
0.769325
0.791296
0.814286
0.838245
0.863118
0.888845
0.915355
0.942571
0.970407
0.998769
1.02755
1.05665
1.08594
1.11529
1.14457
1.17363
1.20233
1.23049
1.25797
1.2846
1.31022
1.33465
1.35773
1.37932
1.39924
1.41735
1.43353
1.44764
1.45958
1.46924
1.47656
1.48148
1.48394
0.587803
0.589145
0.591828
0.595851
0.601213
0.607913
0.615945
0.625307
0.635993
0.647996
0.661308
0.675918
0.691814
0.708979
0.727395
0.747039
0.767885
0.789901
0.813051
0.837292
0.862575
0.888845
0.916038
0.944083
0.972899
1.0024
1.03248
1.06304
1.09396
1.1251
1.15634
1.18753
1.21852
1.24913
1.2792
1.30857
1.33705
1.36446
1.39062
1.41535
1.43849
1.45985
1.47929
1.49666
1.51181
1.52463
1.53502
1.54289
1.54817
1.55082
0.59901
0.600413
0.603218
0.607426
0.613034
0.620042
0.628447
0.638246
0.649434
0.662007
0.675957
0.691274
0.707947
0.725963
0.745303
0.765945
0.787866
0.811033
0.835411
0.860958
0.887625
0.915355
0.944083
0.973736
1.00423
1.03548
1.06737
1.09979
1.13262
1.16573
1.19896
1.23217
1.26518
1.29783
1.32992
1.36129
1.39172
1.42104
1.44903
1.47552
1.50031
1.52321
1.54406
1.56269
1.57895
1.59271
1.60387
1.61232
1.61799
1.62084
0.610375
0.611841
0.614772
0.619168
0.62503
0.632356
0.641144
0.651393
0.663099
0.676259
0.690867
0.706914
0.724391
0.743286
0.763582
0.785259
0.808293
0.832655
0.858309
0.885214
0.91332
0.942571
0.972899
1.00423
1.03648
1.06955
1.10333
1.13771
1.17255
1.20772
1.24304
1.27837
1.31352
1.34831
1.38254
1.41601
1.44852
1.47984
1.50978
1.53812
1.56466
1.58919
1.61153
1.6315
1.64894
1.66371
1.67567
1.68474
1.69083
1.69388
0.621855
0.623386
0.626446
0.631036
0.637157
0.644808
0.653989
0.6647
0.676938
0.690701
0.705985
0.722783
0.741088
0.760888
0.78217
0.804914
0.829098
0.854695
0.881669
0.90998
0.939578
0.970407
1.0024
1.03548
1.06955
1.10452
1.14028
1.1767
1.21364
1.25096
1.28848
1.32603
1.36342
1.40046
1.43693
1.47262
1.5073
1.54075
1.57273
1.60302
1.6314
1.65765
1.68157
1.70296
1.72164
1.73746
1.75029
1.76001
1.76654
1.76981
0.633406
0.635003
0.638194
0.642982
0.649367
0.657351
0.666934
0.678117
0.690899
0.705279
0.721255
0.738822
0.757975
0.778704
0.800998
0.824839
0.850207
0.877074
0.905409
0.93517
0.966309
0.998769
1.03248
1.06737
1.10333
1.14028
1.17809
1.21663
1.25576
1.29532
1.33513
1.375
1.41474
1.45412
1.49294
1.53095
1.56791
1.60358
1.63771
1.67005
1.70037
1.72842
1.75399
1.77687
1.79686
1.8138
1.82753
1.83794
1.84493
1.84844
0.644983
0.646645
0.64997
0.654959
0.661614
0.669936
0.679928
0.691591
0.704927
0.719935
0.736617
0.754969
0.774988
0.796667
0.819995
0.844959
0.871539
0.89971
0.929441
0.960692
0.993416
1.02755
1.06304
1.09979
1.13771
1.1767
1.21663
1.25737
1.29877
1.34065
1.38283
1.42512
1.46729
1.50913
1.55039
1.59081
1.63015
1.66814
1.70451
1.739
1.77134
1.80129
1.82859
1.85303
1.87439
1.89249
1.90717
1.91829
1.92577
1.92952
0.656537
0.658267
0.661727
0.66692
0.673847
0.682512
0.692918
0.705068
0.718965
0.734611
0.75201
0.771159
0.792059
0.814703
0.839086
0.865194
0.89301
0.922512
0.95367
0.986446
1.02079
1.05665
1.09396
1.13262
1.17255
1.21364
1.25576
1.29877
1.3425
1.38678
1.43142
1.4762
1.5209
1.56528
1.60907
1.652
1.69381
1.73421
1.77292
1.80963
1.84408
1.87599
1.9051
1.93116
1.95395
1.97326
1.98893
2.00081
2.00879
2.0128
0.668021
0.66982
0.673416
0.678813
0.686016
0.695026
0.70585
0.718491
0.732955
0.749246
0.767369
0.787325
0.809116
0.832739
0.85819
0.885459
0.914531
0.945386
0.977996
1.01232
1.04833
1.08594
1.1251
1.16573
1.20772
1.25096
1.29532
1.34065
1.38678
1.43354
1.4807
1.52805
1.57535
1.62234
1.66875
1.71428
1.75864
1.80153
1.84265
1.88167
1.91831
1.95225
1.98323
2.01098
2.03524
2.05582
2.07251
2.08517
2.09368
2.09795
0.679387
0.681254
0.684987
0.69059
0.698068
0.707425
0.718668
0.731803
0.746837
0.763776
0.782628
0.803396
0.826085
0.850696
0.877225
0.905666
0.936008
0.968232
1.00231
1.03822
1.07589
1.11529
1.15634
1.19896
1.24304
1.28848
1.33513
1.38283
1.43142
1.4807
1.53045
1.58044
1.63041
1.68008
1.72917
1.77736
1.82435
1.86981
1.9134
1.9548
1.99369
2.02973
2.06264
2.09212
2.11792
2.13979
2.15755
2.17101
2.18006
2.18461
0.690585
0.69252
0.696389
0.702198
0.709951
0.719655
0.731317
0.744945
0.760549
0.778137
0.797719
0.819301
0.842891
0.868491
0.896104
0.925724
0.957343
0.990945
1.02651
1.064
1.10337
1.14457
1.18753
1.23217
1.27837
1.32603
1.375
1.42512
1.4762
1.52805
1.58044
1.63311
1.6858
1.73821
1.79004
1.84096
1.89063
1.93871
1.98485
2.02868
2.06987
2.10807
2.14295
2.17422
2.20158
2.22479
2.24363
2.25792
2.26752
2.27235
0.701565
0.703568
0.707573
0.713585
0.721612
0.731661
0.743739
0.757859
0.77403
0.792264
0.812572
0.834966
0.859454
0.886043
0.914737
0.945536
0.978433
1.01342
1.05046
1.08955
1.13062
1.17363
1.21852
1.26518
1.31352
1.36342
1.41474
1.46729
1.5209
1.57535
1.63041
1.6858
1.74124
1.79644
1.85105
1.90473
1.95714
2.00788
2.0566
2.10292
2.14645
2.18684
2.22374
2.25682
2.28578
2.31035
2.3303
2.34543
2.3556
2.36071
0.712278
0.714347
0.718486
0.724701
0.732998
0.743386
0.755877
0.770482
0.787215
0.806088
0.827118
0.850316
0.875695
0.903266
0.933035
0.965005
0.999173
1.03553
1.07406
1.11473
1.1575
1.20233
1.24913
1.29783
1.34831
1.40046
1.45412
1.50913
1.56528
1.62234
1.68008
1.73821
1.79644
1.85443
1.91185
1.96833
2.02349
2.07693
2.12827
2.17708
2.22299
2.2656
2.30454
2.33946
2.37004
2.39599
2.41706
2.43304
2.44379
2.44919
0.722674
0.724809
0.729079
0.735492
0.744054
0.754778
0.767674
0.782756
0.800041
0.819544
0.841283
0.865274
0.891532
0.920071
0.950902
0.98403
1.01946
1.05717
1.09717
1.13941
1.18387
1.23049
1.2792
1.32992
1.38254
1.43693
1.49294
1.55039
1.60907
1.66875
1.72917
1.79004
1.85105
1.91185
1.97209
2.03137
2.08929
2.14544
2.1994
2.25073
2.29903
2.34387
2.38486
2.42163
2.45384
2.48117
2.50337
2.52022
2.53154
2.53724
0.732704
0.734903
0.739301
0.745907
0.754729
0.765779
0.779071
0.79462
0.812445
0.832564
0.854998
0.879765
0.906884
0.936373
0.968245
1.00251
1.03917
1.07823
1.11966
1.16346
1.20958
1.25797
1.30857
1.36129
1.41601
1.47262
1.53095
1.59081
1.652
1.71428
1.77736
1.84096
1.90473
1.96833
2.03137
2.09344
2.15411
2.21296
2.26954
2.32338
2.37406
2.42112
2.46416
2.50278
2.53661
2.56533
2.58866
2.60637
2.61827
2.62425
0.742319
0.74458
0.749103
0.755896
0.76497
0.776337
0.790013
0.806015
0.824364
0.845082
0.86819
0.893712
0.921669
0.952083
0.984969
1.02034
1.05821
1.09857
1.14142
1.18673
1.23447
1.2846
1.33705
1.39172
1.44852
1.5073
1.56791
1.63015
1.69381
1.75864
1.82435
1.89063
1.95714
2.02349
2.08929
2.15411
2.21751
2.27903
2.33819
2.39452
2.44755
2.49682
2.54188
2.58233
2.61777
2.64787
2.67232
2.69087
2.70335
2.70962
0.751474
0.753794
0.758437
0.76541
0.774726
0.786398
0.800443
0.816882
0.835736
0.85703
0.88079
0.90704
0.935807
0.967113
1.00098
1.03742
1.07646
1.11808
1.1623
1.20908
1.2584
1.31022
1.36446
1.42104
1.47984
1.54075
1.60358
1.66814
1.73421
1.80153
1.86981
1.93871
2.00788
2.07693
2.14544
2.21296
2.27903
2.34316
2.40485
2.46362
2.51896
2.57039
2.61745
2.65969
2.69671
2.72816
2.7537
2.7731
2.78613
2.79269
0.760121
0.762498
0.767255
0.774401
0.783948
0.795911
0.810309
0.827164
0.846501
0.868347
0.892729
0.919676
0.949216
0.981378
1.01618
1.05366
1.09381
1.13665
1.18218
1.23037
1.28121
1.33465
1.39062
1.44903
1.50978
1.57273
1.63771
1.70451
1.77292
1.84265
1.9134
1.98485
2.0566
2.12827
2.1994
2.26954
2.33819
2.40485
2.46901
2.53014
2.58773
2.64126
2.69025
2.73424
2.7728
2.80556
2.83217
2.85238
2.86596
2.8728
0.768218
0.770649
0.775514
0.782822
0.792587
0.804825
0.819557
0.836807
0.856601
0.878968
0.903939
0.931547
0.961822
0.994794
1.03049
1.06894
1.11016
1.15415
1.20093
1.25047
1.30275
1.35773
1.41535
1.47552
1.53812
1.60302
1.67005
1.739
1.80963
1.88167
1.9548
2.02868
2.10292
2.17708
2.25073
2.32338
2.39452
2.46362
2.53014
2.59355
2.65329
2.70885
2.7597
2.80536
2.8454
2.87942
2.90706
2.92805
2.94216
2.94926
0.775723
0.778204
0.78317
0.79063
0.800599
0.813095
0.828139
0.845758
0.865979
0.888835
0.914358
0.942585
0.973548
1.00728
1.04382
1.08318
1.1254
1.17048
1.21843
1.26923
1.32288
1.37932
1.43849
1.50031
1.56466
1.6314
1.70037
1.77134
1.84408
1.91831
1.99369
2.06987
2.14645
2.22299
2.29903
2.37406
2.44755
2.51896
2.58773
2.65329
2.71509
2.77256
2.82517
2.87244
2.91388
2.94909
2.97771
2.99944
3.01406
3.02141
0.782597
0.785125
0.790183
0.797784
0.807942
0.820675
0.836008
0.853967
0.874583
0.897891
0.923925
0.952724
0.984324
1.01876
1.05607
1.09629
1.13943
1.18552
1.23455
1.28654
1.34144
1.39924
1.45985
1.52321
1.58919
1.65765
1.72842
1.80129
1.87599
1.95225
2.02973
2.10807
2.18684
2.2656
2.34387
2.42112
2.49682
2.57039
2.64126
2.70885
2.77256
2.83182
2.8861
2.93485
2.97761
3.01395
3.04348
3.06591
3.08099
3.08858
0.788804
0.791374
0.796517
0.804246
0.814575
0.827524
0.843119
0.861389
0.882365
0.906084
0.932583
0.961903
0.994084
1.02916
1.06718
1.10817
1.15216
1.19917
1.2492
1.30226
1.35832
1.41735
1.47929
1.54406
1.61153
1.68157
1.75399
1.82859
1.9051
1.98323
2.06264
2.14295
2.22374
2.30454
2.38486
2.46416
2.54188
2.61745
2.69025
2.7597
2.82517
2.8861
2.94189
2.99203
3.036
3.07337
3.10375
3.12682
3.14233
3.15014
0.794311
0.796919
0.802137
0.80998
0.820462
0.833605
0.849434
0.867981
0.889278
0.913365
0.94028
0.970067
1.00277
1.03842
1.07707
1.11876
1.1635
1.21133
1.26226
1.31628
1.37339
1.43353
1.49666
1.56269
1.6315
1.70296
1.77687
1.85303
1.93116
2.01098
2.09212
2.17422
2.25682
2.33946
2.42163
2.50278
2.58233
2.65969
2.73424
2.80536
2.87244
2.93485
2.99203
3.0434
3.08847
3.12678
3.15792
3.18157
3.19747
3.20547
0.799088
0.801729
0.807014
0.814955
0.825571
0.838882
0.854916
0.873705
0.895283
0.919691
0.94697
0.977164
1.01032
1.04648
1.08568
1.12797
1.17338
1.22193
1.27364
1.32851
1.38652
1.44764
1.51181
1.57895
1.64894
1.72164
1.79686
1.87439
1.95395
2.03524
2.11792
2.20158
2.28578
2.37004
2.45384
2.53661
2.61777
2.69671
2.7728
2.8454
2.91388
2.97761
3.036
3.08847
3.13451
3.17364
3.20545
3.22961
3.24586
3.25403
0.80311
0.805779
0.811119
0.819145
0.829874
0.843328
0.859535
0.878528
0.900344
0.925023
0.95261
0.983149
1.01669
1.05327
1.09295
1.13575
1.18172
1.23089
1.28326
1.33885
1.39763
1.45958
1.52463
1.59271
1.66371
1.73746
1.8138
1.89249
1.97326
2.05582
2.13979
2.22479
2.31035
2.39599
2.48117
2.56533
2.64787
2.72816
2.80556
2.87942
2.94909
3.01395
3.07337
3.12678
3.17364
3.21347
3.24585
3.27045
3.28699
3.29532
0.806355
0.809046
0.814431
0.822526
0.833346
0.846915
0.863263
0.882422
0.90443
0.92933
0.957166
0.987985
1.02184
1.05877
1.09882
1.14204
1.18847
1.23813
1.29105
1.34721
1.40662
1.46924
1.53502
1.60387
1.67567
1.75029
1.82753
1.90717
1.98893
2.07251
2.15755
2.24363
2.3303
2.41706
2.50337
2.58866
2.67232
2.7537
2.83217
2.90706
2.97771
3.04348
3.10375
3.15792
3.20545
3.24585
3.2787
3.30366
3.32044
3.32889
0.808804
0.811512
0.816932
0.825078
0.835968
0.849625
0.866078
0.885363
0.907517
0.932584
0.960609
0.99164
1.02573
1.06292
1.10326
1.1468
1.19358
1.24362
1.29694
1.35355
1.41343
1.47656
1.54289
1.61232
1.68474
1.76001
1.83794
1.91829
2.00081
2.08517
2.17101
2.25792
2.34543
2.43304
2.52022
2.60637
2.69087
2.7731
2.85238
2.92805
2.99944
3.06591
3.12682
3.18157
3.22961
3.27045
3.30366
3.32888
3.34585
3.35438
0.810444
0.813164
0.818607
0.826788
0.837724
0.85144
0.867965
0.887334
0.909586
0.934765
0.962916
0.99409
1.02834
1.0657
1.10624
1.15
1.197
1.24729
1.30089
1.3578
1.418
1.48148
1.54817
1.61799
1.69083
1.76654
1.84493
1.92577
2.00879
2.09368
2.18006
2.26752
2.3556
2.44379
2.53154
2.61827
2.70335
2.78613
2.86596
2.94216
3.01406
3.08099
3.14233
3.19747
3.24586
3.28699
3.32044
3.34585
3.36294
3.37154
0.811267
0.813991
0.819447
0.827645
0.838604
0.85235
0.86891
0.888322
0.910623
0.935858
0.964073
0.995319
1.02964
1.0671
1.10774
1.1516
1.19872
1.24914
1.30287
1.35993
1.4203
1.48394
1.55082
1.62084
1.69388
1.76981
1.84844
1.92952
2.0128
2.09795
2.18461
2.27235
2.36071
2.44919
2.53724
2.62425
2.70962
2.79269
2.8728
2.94926
3.02141
3.08858
3.15014
3.20547
3.25403
3.29532
3.32889
3.35438
3.37154
3.38017
)
;

boundaryField
{
    walls
    {
        type            zeroGradient;
    }
    frontAndBack
    {
        type            empty;
    }
}


// ************************************************************************* //
