/*--------------------------------*- C++ -*----------------------------------*\
| =========                 |                                                 |
| \\      /  F ield         | OpenFOAM: The Open Source CFD Toolbox           |
|  \\    /   O peration     | Version:  2406                                  |
|   \\  /    A nd           | Website:  www.openfoam.com                      |
|    \\/     M anipulation  |                                                 |
\*---------------------------------------------------------------------------*/
FoamFile
{
    version     2.0;
    format      ascii;
    arch        "LSB;label=32;scalar=64";
    class       volScalarField;
    location    "0.25";
    object      nu;
}
// * * * * * * * * * * * * * * * * * * * * * * * * * * * * * * * * * * * * * //

dimensions      [0 2 -1 0 0 0 0];

internalField   nonuniform List<scalar> 
1800
(
0.0128406
0.0126157
0.0102914
0.0102621
0.0104699
0.0104555
0.0103493
0.0101607
0.0100501
0.00936338
0.0178778
0.0107526
0.0094568
0.00986219
0.0103926
0.0106776
0.0107289
0.0104251
0.00991589
0.00817357
0.0198081
0.00959417
0.00901901
0.00970707
0.0104437
0.010866
0.0110258
0.0107403
0.00993788
0.00862041
0.0124651
0.00880156
0.0087302
0.00955453
0.0103732
0.010803
0.0109234
0.0105638
0.00965871
0.00826738
0.00986267
0.00827612
0.00853885
0.00946719
0.0103328
0.0107526
0.0108371
0.0104127
0.00943602
0.00825984
0.00851524
0.00793594
0.0084049
0.00942216
0.0103415
0.0107746
0.0108165
0.0102701
0.0092135
0.00806816
0.00774747
0.00769274
0.00832698
0.0094546
0.0104692
0.0109378
0.0108884
0.0101276
0.00899141
0.00801458
0.00725397
0.00752164
0.00831456
0.00960421
0.010799
0.0113336
0.011075
0.00995966
0.00876196
0.00795606
0.00691662
0.00740861
0.00837744
0.00991831
0.0114137
0.0119811
0.0112676
0.00975341
0.00859273
0.00800532
0.00668055
0.0073459
0.00851901
0.0104257
0.0123555
0.0127616
0.0113005
0.00952972
0.00850406
0.00811799
0.0103926
0.0264288
0.0423522
0.0327811
0.0262668
0.0238213
0.0222373
0.0198396
0.0169874
0.0146411
0.0100767
0.0278628
0.0390101
0.0280809
0.0238439
0.0226721
0.0213019
0.0188154
0.0159775
0.0137927
0.0098254
0.0303832
0.0358073
0.0245929
0.0219537
0.0216667
0.0204514
0.0179005
0.0151214
0.0130861
0.00963195
0.0351753
0.0326317
0.0219888
0.0205397
0.0208602
0.0197684
0.0171798
0.0144251
0.012494
0.00950739
0.043616
0.0293802
0.019972
0.0194838
0.0202678
0.0193203
0.0167364
0.0139418
0.0120529
0.00944268
0.0576269
0.025648
0.0183451
0.0188272
0.0200114
0.0192501
0.0166346
0.0136538
0.0117051
0.00949805
0.0647645
0.0211868
0.0169833
0.0186082
0.0202482
0.0198568
0.0171487
0.0136565
0.01148
0.00967913
0.0323296
0.0167332
0.0155815
0.017405
0.0192897
0.0202365
0.0185036
0.0141203
0.0113923
0.0101649
0.0201904
0.013797
0.0134255
0.0143014
0.0151444
0.0165227
0.0179163
0.014661
0.011342
0.0110503
0.0156841
0.011799
0.0115413
0.0117702
0.0117619
0.011921
0.0124148
0.0120877
0.0108013
0.0142076
0.0138284
0.0173101
0.0218558
0.0276226
0.0354512
0.043093
0.051111
0.0538749
0.0704578
0.0139457
0.0141092
0.0171883
0.0218553
0.0277729
0.0366323
0.0458342
0.0555469
0.0581719
0.076056
0.0136844
0.0146599
0.0171377
0.0219096
0.0277714
0.0374383
0.0478586
0.0589861
0.0621233
0.0801857
0.0134669
0.0155029
0.0170537
0.0216648
0.0271821
0.036574
0.0465834
0.0566483
0.0605446
0.0742617
0.0132603
0.0160404
0.0164439
0.0202446
0.024775
0.0318982
0.0390914
0.0454306
0.048699
0.0550679
0.0128044
0.0148356
0.0146688
0.0171282
0.0201645
0.0242309
0.0281658
0.0313564
0.033223
0.0354328
0.0120634
0.0127308
0.0125512
0.0139214
0.0157252
0.0178646
0.0199406
0.0216594
0.0227747
0.0238193
0.0109056
0.0111053
0.0111098
0.0118833
0.0128853
0.0139841
0.0150517
0.0159607
0.0166442
0.0172522
0.00984194
0.0101149
0.0104162
0.0110526
0.0118018
0.0125413
0.013228
0.0138057
0.0141975
0.0146547
0.00857733
0.00969257
0.00992541
0.010477
0.0111626
0.0117998
0.0123633
0.0128385
0.0131693
0.0136137
0.00980672
0.0110412
0.0107698
0.0110199
0.011577
0.012145
0.0126706
0.0131288
0.0134087
0.0138808
0.0112131
0.0111161
0.0113893
0.0119829
0.0127881
0.013522
0.0141524
0.014694
0.0150141
0.0155125
0.00983517
0.0108111
0.0115953
0.012669
0.0141208
0.0154939
0.0166926
0.0177054
0.0184293
0.0190764
0.0121687
0.0122335
0.0125689
0.013933
0.0164356
0.0193467
0.0222714
0.0252758
0.0275864
0.0306903
0.0125457
0.0124666
0.0130793
0.0147468
0.0181547
0.0230306
0.029364
0.0380853
0.0513289
0.0957641
0.0151069
0.0138938
0.0140794
0.0158229
0.0192771
0.0234355
0.0275367
0.0306063
0.0339927
0.0341853
0.013965
0.0122067
0.0124332
0.0134344
0.0145671
0.015363
0.0159823
0.0163323
0.0166808
0.0165184
0.0097462
0.00942951
0.00977596
0.0102587
0.0106975
0.0110054
0.011256
0.0114221
0.0115574
0.011575
0.00764743
0.00796301
0.008353
0.00871051
0.00900044
0.00919542
0.00934398
0.00944536
0.00951387
0.00956249
0.00710469
0.00756926
0.00794956
0.0082802
0.008446
0.00852084
0.00856757
0.0085947
0.00860974
0.0086493
0.00860893
0.00832277
0.00811256
0.0080508
0.00799034
0.008088
0.00803258
0.0082382
0.00792641
0.00815308
0.0104829
0.0100352
0.00959675
0.00928279
0.00891086
0.00882622
0.00855152
0.00870891
0.00863042
0.00860871
0.0134321
0.0139626
0.0153709
0.0149918
0.0142626
0.0128324
0.0114869
0.0109416
0.0103223
0.00949831
0.0145209
0.0148458
0.0169261
0.0205294
0.0282998
0.0475182
0.0185081
0.0164519
0.0135275
0.011772
0.0165354
0.0166271
0.0170764
0.01763
0.017166
0.0176941
0.0151398
0.0151134
0.0134697
0.0128121
0.0167403
0.0173066
0.017152
0.0172712
0.0159241
0.0158039
0.0146763
0.0143195
0.0138728
0.01313
0.0129423
0.0132739
0.0131266
0.0133942
0.0128599
0.0133979
0.0129128
0.0134653
0.0131889
0.0135865
0.00912214
0.00914703
0.00911672
0.00920807
0.00917726
0.00940206
0.00943968
0.00976242
0.00974939
0.0104255
0.0072495
0.00724182
0.007249
0.00727054
0.00730932
0.00736357
0.0074353
0.00749875
0.00763075
0.0076948
0.0064126
0.00643379
0.00646548
0.00650311
0.0065536
0.00659906
0.00667331
0.00671147
0.00680825
0.00683518
0.00766108
0.0092302
0.0119681
0.0151419
0.015426
0.0159905
0.0193093
0.0166512
0.00925352
0.00674197
0.00792489
0.00815529
0.00893457
0.010433
0.0117982
0.0122721
0.0130444
0.0127856
0.00893604
0.00666751
0.00828957
0.00814056
0.00853447
0.00954876
0.0107977
0.0113898
0.011654
0.0111148
0.00849697
0.0065543
0.00855639
0.00828612
0.00856768
0.00943626
0.010609
0.0112446
0.0113535
0.0104864
0.00815227
0.00644643
0.00873801
0.00845425
0.00870145
0.00955309
0.0107977
0.0115479
0.0115257
0.0101832
0.00789464
0.00636545
0.00881674
0.00856978
0.00884461
0.00979699
0.0112973
0.0122868
0.011987
0.00996485
0.00769554
0.00631915
0.00880314
0.00860729
0.00896624
0.0101223
0.0120537
0.0134072
0.0124502
0.00969694
0.00754097
0.0063097
0.0087106
0.00860793
0.00909824
0.0105022
0.0129107
0.0144835
0.0124727
0.00937066
0.00742969
0.00633769
0.00852086
0.0085695
0.00923298
0.0108649
0.0134646
0.0145633
0.011929
0.00903894
0.00735901
0.00640433
0.00831144
0.00851621
0.00935871
0.0111406
0.0133745
0.0135588
0.0111364
0.00874437
0.00732997
0.00651508
0.0147115
0.0149393
0.0151369
0.0151309
0.0149116
0.01463
0.0144119
0.0141038
0.0125349
0.00892269
0.0145142
0.0146899
0.0149687
0.0150138
0.0147904
0.0144995
0.0142914
0.0138857
0.0118369
0.00836413
0.0143023
0.0144376
0.0148256
0.0149364
0.0147122
0.0144177
0.0142277
0.0137193
0.0112566
0.00795007
0.0139824
0.0140906
0.0146248
0.0148418
0.0146506
0.0143813
0.0142278
0.0136057
0.0107746
0.00763264
0.013716
0.0138429
0.014563
0.0149237
0.0147598
0.0144928
0.0143483
0.0135425
0.0103621
0.00738232
0.0136092
0.0136619
0.0145365
0.0150111
0.0148929
0.0146955
0.0146207
0.0135983
0.0100402
0.00718831
0.0124329
0.0126768
0.0138508
0.0148737
0.015153
0.0151015
0.0149906
0.0135378
0.00971908
0.00702897
0.0133617
0.0136336
0.0154646
0.0168778
0.0168619
0.0163597
0.0162885
0.0140728
0.00955178
0.00692085
0.0108302
0.0106515
0.0117536
0.0136948
0.0155565
0.0167292
0.0166598
0.0136149
0.00929336
0.00682575
0.0133835
0.0182881
0.0191271
0.0228982
0.0369412
0.0564759
0.0281726
0.0150579
0.00918994
0.00676708
0.0163804
0.035313
0.0249774
0.0652562
0.0666223
0.0425143
0.0290327
0.0216498
0.0149076
0.0135226
0.01614
0.0343686
0.0243255
0.0546356
0.0749193
0.0484526
0.0308994
0.0216304
0.0150831
0.0134162
0.0158912
0.0334375
0.0235031
0.0464474
0.079771
0.0558924
0.0336103
0.021762
0.0153959
0.0133275
0.0156061
0.0323978
0.0225575
0.0422141
0.0948142
0.0626643
0.0371912
0.022283
0.0159884
0.0132074
0.015286
0.0310787
0.0219153
0.043456
0.141486
0.0637205
0.0394213
0.0230422
0.0165551
0.0133792
0.0150249
0.0304674
0.0227271
0.0554258
0.147407
0.0516896
0.0345543
0.0218831
0.0167187
0.0126446
0.014755
0.0324573
0.0252244
0.0868238
0.044849
0.0323723
0.0264079
0.0206463
0.0161404
0.0136552
0.0146138
0.0323446
0.0262474
0.0296788
0.0211098
0.0190589
0.0175321
0.0154968
0.0138504
0.0121621
0.0145106
0.0248181
0.0220019
0.0185911
0.0158925
0.0150145
0.0143352
0.0134412
0.0126471
0.0115246
0.0146347
0.018922
0.0178034
0.0156986
0.0139151
0.0131143
0.0125873
0.0118506
0.0113624
0.0121375
0.0146577
0.0165909
0.0170059
0.0149994
0.0134584
0.0126273
0.0118737
0.0112828
0.0102721
0.0107456
0.0146213
0.0153063
0.0185061
0.0156945
0.0141109
0.0131691
0.0121425
0.0117348
0.0100723
0.0111362
0.0148191
0.0141599
0.0222947
0.0179438
0.0159948
0.0145893
0.0136057
0.0120034
0.0115391
0.0114364
0.0153349
0.0133857
0.0240637
0.0218995
0.0198196
0.017589
0.0161532
0.0132718
0.013312
0.012067
0.0161288
0.013014
0.0220968
0.0244336
0.0243428
0.0211671
0.0194483
0.014204
0.0154037
0.0126618
0.0171491
0.0129416
0.0201044
0.0236588
0.0254622
0.0245101
0.0204457
0.01632
0.0151737
0.0127626
0.0188444
0.0132931
0.0168753
0.0172278
0.0169548
0.017257
0.0158626
0.0168171
0.0133156
0.0126572
0.020779
0.0134514
0.0124323
0.0120853
0.0117114
0.0116126
0.0113939
0.0114155
0.0107498
0.0105398
0.0174658
0.0115664
0.00997033
0.00981952
0.00955192
0.00939524
0.0092749
0.00897709
0.00888828
0.0084067
0.00845374
0.00800185
0.00904057
0.00860393
0.00845277
0.00825784
0.0080824
0.00775215
0.00759921
0.00710144
0.00931648
0.0109171
0.0117023
0.0117196
0.0114113
0.0109134
0.0104075
0.00993513
0.00944807
0.0090088
0.0114914
0.0117696
0.0118858
0.0120116
0.012317
0.012497
0.0122443
0.0117547
0.0113261
0.0109117
0.0114951
0.0115806
0.0116951
0.0118166
0.0122707
0.0131408
0.013905
0.0138985
0.0136103
0.0133064
0.0128788
0.0131016
0.0132092
0.0131672
0.0136812
0.0150241
0.016391
0.0163203
0.0154663
0.0147048
0.0129716
0.0130597
0.0130715
0.0132192
0.0141058
0.0159898
0.0177189
0.0177532
0.0171277
0.0165912
0.013312
0.0137534
0.0142662
0.0148689
0.0159888
0.0169077
0.0164667
0.015795
0.015759
0.0162273
0.0124321
0.0124233
0.0128278
0.0131577
0.0130096
0.0125369
0.0121578
0.0120544
0.0122215
0.0126071
0.0100612
0.00986607
0.00984631
0.00978825
0.00954725
0.00927404
0.00910993
0.00906187
0.00907321
0.00910902
0.00823066
0.00807219
0.00794364
0.00784316
0.00771499
0.00756343
0.00743866
0.00735766
0.00730591
0.00727086
0.00695702
0.00684257
0.00675276
0.00668493
0.00661179
0.00653408
0.0064702
0.00642828
0.00640712
0.00640264
0.00640423
0.00711165
0.00859335
0.0135413
0.203788
0.0193954
0.0119091
0.00992817
0.00894559
0.00828388
0.00650591
0.00707956
0.00832908
0.0120315
0.0354909
0.0215198
0.0126195
0.00999776
0.00888783
0.00825311
0.00665903
0.00709778
0.00812102
0.0107202
0.0178428
0.0192138
0.0132175
0.010437
0.00916759
0.00847116
0.00687098
0.00717207
0.00800291
0.00985826
0.013281
0.0152843
0.0132136
0.0110989
0.00982399
0.00902876
0.00714417
0.0073117
0.00799539
0.00938589
0.0113767
0.0126658
0.0123447
0.0114199
0.0106233
0.0099996
0.00747769
0.00752741
0.00810725
0.00920421
0.0104795
0.0112379
0.0113398
0.0111852
0.0110979
0.0111942
0.00785911
0.00782832
0.00834462
0.00924835
0.0101061
0.0105303
0.0106563
0.0107777
0.0111289
0.0119026
0.00827991
0.00823094
0.00872145
0.00948785
0.0100655
0.0102715
0.0103448
0.010543
0.0111058
0.0121183
0.00873127
0.00875236
0.00925485
0.00990613
0.0102668
0.0103265
0.0103538
0.0105678
0.0111979
0.0119086
0.00924131
0.00944752
0.0100207
0.0105552
0.0106738
0.0105474
0.0104558
0.0105288
0.0109497
0.0117813
0.00978956
0.0103482
0.0111632
0.0117115
0.0116617
0.0114021
0.0113358
0.011611
0.0121393
0.0143072
0.0103611
0.0114132
0.0126085
0.0132771
0.0131821
0.012955
0.0131451
0.0139554
0.0146348
0.0153927
0.0109737
0.0127277
0.0145282
0.0153628
0.0152147
0.0150245
0.0153712
0.0162854
0.0164782
0.0159353
0.0115348
0.0143371
0.0172279
0.0182604
0.0178784
0.0174939
0.0176287
0.0181078
0.0176602
0.0164415
0.0119156
0.0162672
0.0214077
0.0225814
0.0214073
0.0202935
0.0197758
0.019599
0.0186993
0.0171353
0.0120401
0.0184613
0.0288488
0.0301945
0.0265036
0.0234953
0.0218568
0.0209363
0.0196098
0.0176976
0.0119267
0.0207603
0.0472199
0.0500164
0.0334036
0.0263076
0.0234224
0.0218373
0.0200616
0.0178262
0.0116133
0.0227432
0.105679
0.0838721
0.036494
0.0269514
0.0239972
0.0220783
0.0198507
0.0173689
0.0111896
0.0241657
0.072287
0.0559321
0.0332236
0.0262884
0.0238877
0.0217408
0.019128
0.0165454
0.0107934
0.0253142
0.0506103
0.0409076
0.0296308
0.0252048
0.0232137
0.0208972
0.0180881
0.0155838
0.0135952
0.0170861
0.0226453
0.0347512
0.036397
0.0382
0.0408479
0.0476622
0.0529389
0.074866
0.0137054
0.0184701
0.0230465
0.0314468
0.0337515
0.0367733
0.0399877
0.0473458
0.0556205
0.0889242
0.013623
0.0192392
0.0235159
0.0317113
0.0323659
0.0351636
0.0384919
0.0452891
0.0536944
0.0866074
0.0139172
0.0189803
0.0228486
0.0293914
0.0297292
0.0323847
0.0357837
0.0420107
0.0499419
0.0781646
0.0141223
0.0176232
0.0216195
0.0266309
0.027779
0.030419
0.0338597
0.0393269
0.0462352
0.0685905
0.0143939
0.0160688
0.0200973
0.0245112
0.0268419
0.0298231
0.0334805
0.0385691
0.0443569
0.0623334
0.0146268
0.0148525
0.0190816
0.0233233
0.0267475
0.0303753
0.0344688
0.0395871
0.0445031
0.0602598
0.0146381
0.0141114
0.0183957
0.0225474
0.0269751
0.0313995
0.0362049
0.0416241
0.0459515
0.0610294
0.0145456
0.0138226
0.0179269
0.0221083
0.0272402
0.0326508
0.0382519
0.044225
0.0480612
0.0632232
0.0144123
0.0137448
0.017562
0.0219239
0.0274571
0.0340625
0.040529
0.0473271
0.0506024
0.0662707
0.00908158
0.0108461
0.0111787
0.0113636
0.0109779
0.0106458
0.0103969
0.0101786
0.0100993
0.0100662
0.00998087
0.0115331
0.0121502
0.0122955
0.0120943
0.0118198
0.0116039
0.0114016
0.0113365
0.0112102
0.0135816
0.0146633
0.017001
0.0165353
0.0157714
0.0151783
0.0147793
0.0144274
0.0142463
0.0139305
0.0215349
0.0197393
0.0392543
0.034984
0.0265818
0.0241768
0.0230442
0.0222973
0.0214993
0.0207409
0.0155947
0.0172778
0.0306676
0.0586533
0.0393575
0.0367363
0.0366185
0.0383872
0.0375533
0.0395795
0.00694857
0.00709923
0.00728324
0.00745331
0.00758811
0.00767104
0.0077528
0.00785301
0.00803439
0.00824859
0.0072047
0.00731808
0.00747704
0.00763729
0.00782193
0.00804687
0.00833962
0.00875818
0.00908212
0.0096622
0.0074425
0.00752155
0.00768039
0.0079036
0.00827229
0.00887732
0.00980521
0.0112707
0.0122501
0.0166095
0.00767315
0.00771935
0.00789592
0.00822888
0.00886468
0.0100476
0.0121506
0.0158079
0.0182392
0.030815
0.00790841
0.00793251
0.00815413
0.00863124
0.00951542
0.0109617
0.0126548
0.0145625
0.0147422
0.0169825
0.0126664
0.0134284
0.0149363
0.0155191
0.0151283
0.0145066
0.0139372
0.0128746
0.0109976
0.00881919
0.0140861
0.0144403
0.0152497
0.0154548
0.0151476
0.0146178
0.0140254
0.0131185
0.0116627
0.00953397
0.0140081
0.014322
0.0149521
0.0151378
0.0150319
0.014775
0.014368
0.0136685
0.0126366
0.0106349
0.0143075
0.0147471
0.0152607
0.0153221
0.015173
0.0149337
0.0145716
0.0140693
0.0137037
0.0124046
0.0145883
0.0150002
0.0153502
0.0153205
0.0151299
0.0148788
0.0145667
0.0143487
0.0150534
0.0164249
0.0148523
0.0152454
0.0154602
0.0153483
0.0150881
0.0147785
0.0144969
0.0145959
0.0166045
0.0250804
0.014948
0.0153321
0.015482
0.0153601
0.0150999
0.0147972
0.0145837
0.0149167
0.016894
0.0184113
0.0149683
0.0153458
0.015479
0.0153841
0.0151553
0.0148934
0.014727
0.0149278
0.0156877
0.0131659
0.014942
0.0152836
0.0154138
0.0153444
0.0151327
0.0148825
0.0147012
0.0146812
0.0144281
0.0109477
0.0148457
0.0151333
0.015284
0.0152431
0.0150324
0.0147694
0.0145608
0.0143714
0.013382
0.00971782
0.00855355
0.00938304
0.010364
0.0115797
0.0139448
0.0197562
0.0126176
0.00886159
0.00719584
0.00635047
0.0091403
0.0102709
0.0112568
0.0119282
0.0125393
0.0132841
0.0123546
0.00919334
0.00731905
0.00633575
0.0103262
0.0119664
0.0125756
0.0122481
0.0119887
0.0120472
0.0115558
0.00938758
0.00747514
0.0063651
0.0126603
0.0145299
0.0137374
0.01239
0.0115729
0.0112717
0.0109863
0.00954806
0.00767212
0.00644347
0.0161722
0.0164102
0.0141639
0.0124192
0.0114257
0.0109762
0.0107242
0.0096913
0.00790681
0.00657065
0.0187281
0.0173653
0.0143426
0.0124832
0.0114522
0.010933
0.0106641
0.00985413
0.00818382
0.00674931
0.021833
0.0174061
0.0138729
0.012351
0.0115112
0.0110143
0.010742
0.0100707
0.00851948
0.00698986
0.0178317
0.0138071
0.0123153
0.0118322
0.0114644
0.0111379
0.0109267
0.0103723
0.00893225
0.00730278
0.0125461
0.0113879
0.0112355
0.0113974
0.0114297
0.0113325
0.0112612
0.0108394
0.00947071
0.00771112
0.0101681
0.0106737
0.0113849
0.0119683
0.0121357
0.0121311
0.012171
0.0117492
0.0102165
0.00823312
0.0215749
0.0357926
0.0234785
0.031182
0.0294949
0.0293622
0.0320335
0.0250054
0.0210097
0.0145459
0.0205645
0.033294
0.0229076
0.0315458
0.02951
0.0286464
0.0296266
0.0241516
0.0222203
0.0138937
0.0196906
0.0340808
0.0235801
0.0354596
0.0309309
0.0291444
0.0296545
0.0251349
0.0224524
0.0138994
0.019043
0.0351025
0.0245265
0.040256
0.0321069
0.0289581
0.0284559
0.0247996
0.021392
0.0141624
0.0184977
0.0359704
0.0252784
0.0443729
0.0328908
0.0286564
0.0269921
0.0239421
0.0194396
0.0142213
0.0180231
0.0367306
0.0258442
0.0490688
0.0341106
0.0289887
0.0259176
0.023047
0.0174013
0.0142223
0.0176019
0.0371137
0.0261772
0.0564093
0.036684
0.0303028
0.0256051
0.0226069
0.0161187
0.0140586
0.0172296
0.037103
0.0261758
0.0673054
0.040934
0.0323729
0.0258439
0.0221461
0.0153906
0.0138549
0.0169085
0.036771
0.0259008
0.0767349
0.0472136
0.0349381
0.0264723
0.0218418
0.0150302
0.0137295
0.0166315
0.0361529
0.0254899
0.0751166
0.0560014
0.0381692
0.0275585
0.02173
0.0148885
0.0136269
0.00765588
0.00772138
0.00978592
0.0093071
0.00973462
0.0100408
0.0103415
0.0102224
0.0101651
0.00881698
0.0132029
0.0110374
0.0102319
0.0108862
0.0109914
0.0113891
0.0118233
0.0119209
0.0122102
0.0108401
0.0180878
0.0168664
0.0129023
0.0137037
0.0137343
0.0143974
0.0153372
0.0167518
0.0167426
0.0151291
0.0205027
0.0323303
0.0198686
0.0208973
0.0203908
0.0219191
0.0256827
0.0414947
0.0271473
0.0161159
0.0221602
0.0434863
0.0256206
0.0306206
0.0286088
0.0297875
0.0373857
0.0381119
0.0234794
0.0141058
0.00834716
0.00791516
0.00751845
0.00719886
0.00696055
0.00680564
0.00672557
0.0067033
0.00673879
0.00682236
0.0100719
0.0093529
0.00872689
0.00822771
0.00781027
0.00749026
0.00726941
0.00713922
0.0070958
0.00712226
0.0132076
0.0118523
0.0107153
0.00992448
0.00914566
0.00846392
0.00795813
0.00763403
0.00746601
0.00741333
0.0173728
0.0158652
0.0146075
0.0133379
0.0117736
0.010148
0.00895236
0.00825017
0.00788048
0.00771407
0.0148167
0.025396
0.0299005
0.0199214
0.0157137
0.0128444
0.0105049
0.00913586
0.00840996
0.00804859
)
;

boundaryField
{
    left
    {
        type            calculated;
        value           nonuniform List<scalar> 
35
(
0.0110315
0.0115301
0.0120932
0.0125111
0.0127211
0.0127844
0.0127497
0.0123456
0.0113506
0.00816231
0.0110491
0.0109703
0.0108924
0.0108134
0.0107383
0.0106923
0.0106459
0.0106467
0.0106713
0.0108069
0.0124883
0.0122725
0.0120749
0.0118989
0.0117349
0.0115841
0.0114474
0.0113278
0.0112232
0.0111321
0.00752443
0.0108045
0.0120172
0.0124456
0.0126376
)
;
    }
    right
    {
        type            calculated;
        value           nonuniform List<scalar> 
35
(
0.0100673
0.0112138
0.013955
0.0209024
0.0415887
0.0939279
0.126221
0.125715
0.110601
0.0920638
0.0809833
0.078098
0.0805537
0.0859995
0.093772
0.105291
0.122882
0.139199
0.121426
0.0734985
0.0403806
0.0253048
0.0177717
0.0149366
0.0138275
0.0140945
0.0158178
0.0196046
0.0327342
0.140886
0.0331446
0.0164621
0.0115729
0.00956402
0.00864983
)
;
    }
    down
    {
        type            calculated;
        value           nonuniform List<scalar> 
40
(
0.00670004
0.00695687
0.0100996
0.00874874
0.00932172
0.00960229
0.00987042
0.00969265
0.00952324
0.00823407
0.00782541
0.00746707
0.0071266
0.00685794
0.00666544
0.00655314
0.00651154
0.00651992
0.00657877
0.00668101
0.0068244
0.00699364
0.00719753
0.00739426
0.00754185
0.00760022
0.00762423
0.00764464
0.00776168
0.00797539
0.00900676
0.0110671
0.0111981
0.0113729
0.01079
0.0103776
0.0100828
0.00983432
0.00973782
0.00974392
)
;
    }
    up
    {
        type            calculated;
        value           nonuniform List<scalar> 
40
(
0.00708271
0.00759176
0.00795541
0.00828456
0.00836779
0.0083657
0.00835683
0.00834591
0.00833923
0.00836968
0.00617472
0.00620769
0.00624919
0.00629718
0.00635152
0.00641002
0.00647372
0.0065363
0.00661413
0.00665264
0.00653568
0.00643528
0.00636918
0.00632349
0.00626868
0.00620923
0.00616459
0.00614184
0.00613882
0.0061509
0.00723913
0.00716577
0.00892081
0.00819201
0.00807311
0.00786331
0.00766564
0.00734246
0.00715633
0.00668289
)
;
    }
    cylinder
    {
        type            calculated;
        value           nonuniform List<scalar> 
80
(
0.00860336
0.00833754
0.00812576
0.00795316
0.00782538
0.00774382
0.00778327
0.00796234
0.00826852
0.00873208
0.00948083
0.010868
0.013273
0.0205725
0.0146594
0.0096767
0.008068
0.00726401
0.00678462
0.00647324
0.0062222
0.00617064
0.00609389
0.00602221
0.00597287
0.00595493
0.00597158
0.0060245
0.00611818
0.00626178
0.00790601
0.00746606
0.00714215
0.00689488
0.006701
0.00655098
0.00643009
0.00634809
0.00627939
0.00624009
0.00810133
0.00873686
0.00974248
0.0114957
0.0161887
0.0281083
0.0164532
0.0114379
0.0095429
0.00853995
0.00610052
0.0060515
0.00604934
0.00609655
0.00619146
0.00633503
0.00653517
0.0068003
0.00714892
0.00759525
0.00619342
0.00634142
0.00655413
0.00684496
0.0072174
0.00766063
0.00813122
0.00858086
0.00897358
0.00934614
0.00969188
0.0100305
0.0103845
0.0106473
0.0107125
0.0105528
0.0102395
0.00984147
0.00936587
0.00896043
)
;
    }
    defaultFaces
    {
        type            empty;
    }
}


// ************************************************************************* //
