/*--------------------------------*- C++ -*----------------------------------*\
| =========                 |                                                 |
| \\      /  F ield         | OpenFOAM: The Open Source CFD Toolbox           |
|  \\    /   O peration     | Version:  2406                                  |
|   \\  /    A nd           | Website:  www.openfoam.com                      |
|    \\/     M anipulation  |                                                 |
\*---------------------------------------------------------------------------*/
FoamFile
{
    version     2.0;
    format      ascii;
    arch        "LSB;label=32;scalar=64";
    class       volScalarField;
    location    "0.25";
    object      p;
}
// * * * * * * * * * * * * * * * * * * * * * * * * * * * * * * * * * * * * * //

dimensions      [0 2 -2 0 0 0 0];

internalField   nonuniform List<scalar> 
1800
(
-1.95412
-1.9487
-1.94606
-1.94574
-1.9474
-1.95287
-1.96271
-1.97656
-1.99407
-2.01536
-2.06296
-2.06034
-2.05865
-2.05788
-2.05914
-2.06409
-2.073
-2.08548
-2.10139
-2.1207
-2.17546
-2.17088
-2.17111
-2.17112
-2.17371
-2.1809
-2.19314
-2.21007
-2.23075
-2.25469
-2.2824
-2.27266
-2.27154
-2.27141
-2.27408
-2.28198
-2.29576
-2.31503
-2.33834
-2.36416
-2.36913
-2.35866
-2.35574
-2.35433
-2.35605
-2.36358
-2.37773
-2.39808
-2.42277
-2.44944
-2.43287
-2.42224
-2.41775
-2.41411
-2.41333
-2.41835
-2.43005
-2.44786
-2.46944
-2.49184
-2.47579
-2.46407
-2.45687
-2.44966
-2.44488
-2.4456
-2.45268
-2.46524
-2.48059
-2.49503
-2.49623
-2.4829
-2.4721
-2.46023
-2.45025
-2.44526
-2.4459
-2.45078
-2.45678
-2.45966
-2.49263
-2.47755
-2.46274
-2.44578
-2.43034
-2.41937
-2.41311
-2.40957
-2.40548
-2.39663
-2.46336
-2.44658
-2.42783
-2.40602
-2.38551
-2.36887
-2.35576
-2.34379
-2.32983
-2.30987
-0.766862
-0.770369
-0.767991
-0.760039
-0.749554
-0.738518
-0.726479
-0.713188
-0.698775
-0.682447
-0.859863
-0.862754
-0.859853
-0.852146
-0.842326
-0.83182
-0.820175
-0.807264
-0.79317
-0.777163
-0.964165
-0.966098
-0.962672
-0.955342
-0.946384
-0.936663
-0.925736
-0.913581
-0.900355
-0.88401
-1.07861
-1.07922
-1.0755
-1.06893
-1.06117
-1.05259
-1.04292
-1.0323
-1.02074
-1.00544
-1.20171
-1.20064
-1.19716
-1.19176
-1.18557
-1.17856
-1.17083
-1.16252
-1.15325
-1.14002
-1.3313
-1.32706
-1.32597
-1.32221
-1.31784
-1.3128
-1.30763
-1.3025
-1.29669
-1.2866
-1.46418
-1.45919
-1.45878
-1.45757
-1.45504
-1.45214
-1.44993
-1.44877
-1.44762
-1.44172
-1.59632
-1.59215
-1.59122
-1.59162
-1.59139
-1.59147
-1.59282
-1.5963
-1.6009
-1.59984
-1.72363
-1.71796
-1.71697
-1.71876
-1.72113
-1.72514
-1.73123
-1.73943
-1.74902
-1.75072
-1.84169
-1.83522
-1.83348
-1.8344
-1.83675
-1.84248
-1.85175
-1.86402
-1.87755
-1.88286
-0.524528
-0.318809
-0.197684
-0.105781
-0.0552313
-0.0217623
-0.00450936
0.00485065
0.00857557
0.00206914
-0.598898
-0.349455
-0.206063
-0.103837
-0.0493575
-0.0157846
0.000537387
0.00848154
0.0108616
0.00280895
-0.690558
-0.385945
-0.216303
-0.101895
-0.0430348
-0.00925249
0.00609234
0.0125149
0.0133778
0.00358776
-0.799477
-0.427887
-0.227832
-0.099436
-0.0358681
-0.00185319
0.0124209
0.0172054
0.0162711
0.00448726
-0.925347
-0.474884
-0.239807
-0.095679
-0.0272704
0.00679413
0.0197838
0.0227619
0.0197372
0.00572489
-1.06762
-0.530322
-0.252688
-0.0906053
-0.0171374
0.0166251
0.0280307
0.0290361
0.0237798
0.00741484
-1.22396
-0.601653
-0.270193
-0.0866459
-0.00702523
0.026498
0.0363345
0.0354221
0.02806
0.00942264
-1.38729
-0.691029
-0.296616
-0.0870819
0.000769672
0.0348797
0.0436179
0.0411228
0.0320336
0.0114436
-1.54356
-0.79951
-0.33765
-0.0965289
0.00284223
0.0393938
0.0482521
0.045019
0.0349555
0.0131196
-1.68048
-0.908994
-0.387589
-0.113416
-0.000937114
0.0391732
0.0491928
0.0461787
0.0360826
0.014059
-1.79664
-0.954109
-0.401946
-0.118067
-0.00236518
0.0375237
0.0477182
0.0448762
0.0352707
0.0141081
-1.71207
-0.960859
-0.429885
-0.145897
-0.0261869
0.018789
0.0340145
0.035265
0.0289556
0.0118262
-1.62033
-0.931448
-0.440246
-0.172824
-0.0532846
-0.00414702
0.0169963
0.0236483
0.021402
0.00889285
-1.43466
-0.8748
-0.459304
-0.209736
-0.0860616
-0.029903
-0.00129273
0.0117384
0.014004
0.00621982
-1.31175
-0.839037
-0.483113
-0.252932
-0.123051
-0.0573509
-0.0203299
-0.000448476
0.00764016
0.00440597
-1.18721
-0.795619
-0.504786
-0.296867
-0.161464
-0.0856375
-0.0404198
-0.0141903
-0.000968032
0.000578769
-1.08329
-0.773347
-0.536216
-0.344707
-0.202661
-0.115197
-0.0612204
-0.0284883
-0.00987192
-0.00258928
-0.9979
-0.763892
-0.566961
-0.384989
-0.23673
-0.138169
-0.0761799
-0.0379788
-0.0151646
-0.00416608
-0.937313
-0.762017
-0.58543
-0.406885
-0.255326
-0.150123
-0.083567
-0.0424914
-0.0175365
-0.00482819
-0.932606
-0.788337
-0.604712
-0.419979
-0.266994
-0.157358
-0.0882787
-0.045493
-0.0198238
-0.00575103
-2.24834
-2.35061
-2.4305
-2.48595
-2.50314
-2.4861
-2.41616
-2.33031
-2.19805
-2.11823
-2.08057
-2.18884
-2.28071
-2.35365
-2.39925
-2.41487
-2.38157
-2.32203
-2.20958
-2.10393
-1.88466
-1.98111
-2.06033
-2.1269
-2.17233
-2.19854
-2.18396
-2.14796
-2.0784
-2.00412
-1.69784
-1.77974
-1.84735
-1.90117
-1.93383
-1.95595
-1.94335
-1.91476
-1.86288
-1.80077
-1.52966
-1.6023
-1.66166
-1.70866
-1.73349
-1.74134
-1.72305
-1.69148
-1.64622
-1.59349
-1.38326
-1.44976
-1.5035
-1.54401
-1.56182
-1.56334
-1.54334
-1.51301
-1.47182
-1.42584
-1.2549
-1.31972
-1.37144
-1.40815
-1.42464
-1.42287
-1.40538
-1.37629
-1.33466
-1.28904
-1.14953
-1.21686
-1.26949
-1.30484
-1.32167
-1.31887
-1.30486
-1.27077
-1.22858
-1.18054
-1.09036
-1.15611
-1.20708
-1.24133
-1.25779
-1.25429
-1.24087
-1.20194
-1.15844
-1.10294
-1.07682
-1.14192
-1.19165
-1.22608
-1.24131
-1.24173
-1.22284
-1.18909
-1.14699
-1.07922
-0.797021
-0.850041
-0.890605
-0.917143
-0.938424
-0.961337
-0.983534
-0.999807
-1.01251
-1.02
-1.03667
-1.08133
-1.10808
-1.12395
-1.13864
-1.15544
-1.17399
-1.18993
-1.20115
-1.20607
-1.23317
-1.27096
-1.29443
-1.30937
-1.32312
-1.33849
-1.35578
-1.37247
-1.38519
-1.38966
-1.38594
-1.42365
-1.45036
-1.47035
-1.48881
-1.50793
-1.52809
-1.54778
-1.56399
-1.57067
-1.52836
-1.56841
-1.5989
-1.62377
-1.64725
-1.67093
-1.69488
-1.71798
-1.73801
-1.7481
-1.67282
-1.71379
-1.74634
-1.77425
-1.80128
-1.82848
-1.85555
-1.88151
-1.90419
-1.91884
-1.81616
-1.85702
-1.88965
-1.9187
-1.94744
-1.97649
-2.00532
-2.03337
-2.05804
-2.07491
-1.95368
-1.99347
-2.02502
-2.05344
-2.08151
-2.11004
-2.13898
-2.16764
-2.19278
-2.21121
-2.08383
-2.11994
-2.1486
-2.17387
-2.19854
-2.22434
-2.25179
-2.27977
-2.30411
-2.32284
-2.20494
-2.23403
-2.2563
-2.27565
-2.29501
-2.31662
-2.34119
-2.36684
-2.38893
-2.40701
0.472197
0.45898
0.446997
0.43638
0.42713
0.419154
0.412416
0.40747
0.406497
0.414519
0.403635
0.388665
0.375026
0.362828
0.352095
0.342687
0.334584
0.328558
0.326803
0.333761
0.321188
0.304432
0.288995
0.275042
0.262662
0.251653
0.242001
0.234669
0.231847
0.237481
0.224641
0.205868
0.188422
0.172556
0.15841
0.145689
0.13436
0.125558
0.121445
0.125536
0.115668
0.0950555
0.0752544
0.0569842
0.0405996
0.0257575
0.0124226
0.00184761
-0.00389365
-0.00166986
-0.0131317
-0.0362307
-0.057515
-0.0769916
-0.0945944
-0.11076
-0.125495
-0.137414
-0.144572
-0.144205
-0.141347
-0.164926
-0.189872
-0.213898
-0.23571
-0.255475
-0.273215
-0.287684
-0.297221
-0.299341
-0.316512
-0.34303
-0.366159
-0.387109
-0.406701
-0.425069
-0.441677
-0.455537
-0.465561
-0.469432
-0.448914
-0.47287
-0.501236
-0.530121
-0.558073
-0.584616
-0.607828
-0.62596
-0.638744
-0.6446
-0.651145
-0.685308
-0.714409
-0.737687
-0.75662
-0.774463
-0.791618
-0.80736
-0.822054
-0.831029
1.0398
0.724548
0.936516
0.794722
0.767357
0.752258
0.720133
0.693698
0.657279
0.546368
1.03663
0.721588
0.932792
0.790429
0.765506
0.748427
0.714554
0.682052
0.637818
0.499133
1.03464
0.718353
0.929218
0.785245
0.763229
0.744564
0.70828
0.667946
0.614243
0.441248
1.034
0.714603
0.925488
0.779162
0.761017
0.740925
0.701674
0.652034
0.587353
0.373084
1.0349
0.710041
0.921235
0.772537
0.759117
0.73727
0.69485
0.634945
0.556322
0.294062
1.03755
0.704475
0.916313
0.76715
0.756813
0.732639
0.68773
0.617306
0.524052
0.204881
1.04224
0.697289
0.911013
0.76462
0.752289
0.727316
0.680691
0.598937
0.484147
0.100982
1.04945
0.687621
0.90579
0.761721
0.74632
0.722861
0.674758
0.580542
0.448547
-0.0132395
1.05945
0.676511
0.900605
0.757461
0.740621
0.718918
0.667903
0.559558
0.402774
-0.153226
1.07211
0.666495
0.896701
0.754149
0.736225
0.715282
0.660624
0.537013
0.349036
-0.296859
1.09167
0.660943
0.897204
0.757058
0.730373
0.70845
0.65053
0.511459
0.323085
-0.44146
1.12049
0.667012
0.906191
0.765433
0.72247
0.695287
0.635596
0.480305
0.303766
-0.413
1.14448
0.680821
0.920931
0.772814
0.712034
0.676364
0.610086
0.444833
0.281638
-0.364269
1.16105
0.696838
0.935504
0.777144
0.699856
0.653482
0.580594
0.405528
0.258609
-0.306005
1.17092
0.709492
0.943747
0.776514
0.687146
0.630901
0.549155
0.371304
0.234668
-0.255103
1.1751
0.716121
0.942475
0.770013
0.675954
0.611498
0.520692
0.345211
0.206192
-0.195342
1.17478
0.716199
0.930802
0.757319
0.666677
0.597046
0.497675
0.32898
0.176469
-0.139656
1.17804
0.716852
0.912039
0.740701
0.659633
0.58676
0.479246
0.321568
0.148958
-0.0953574
1.18076
0.719229
0.893308
0.724779
0.655319
0.579279
0.465962
0.316573
0.1292
-0.0657914
1.22214
0.741808
0.890276
0.718831
0.658363
0.578305
0.464367
0.318472
0.127716
-0.0470901
-0.825109
-1.02709
-1.2037
-1.34051
-1.47189
-1.61001
-1.74516
-1.87532
-2.00545
-2.13222
-0.821077
-0.952592
-1.07734
-1.20002
-1.33186
-1.47087
-1.60395
-1.72745
-1.84536
-1.96475
-0.779143
-0.887128
-0.98813
-1.10162
-1.22738
-1.35532
-1.47499
-1.58333
-1.68228
-1.78271
-0.724561
-0.832875
-0.920647
-1.01864
-1.12897
-1.24021
-1.34429
-1.43955
-1.528
-1.61325
-0.650969
-0.754102
-0.83185
-0.917033
-1.01501
-1.11353
-1.20597
-1.29292
-1.37505
-1.45419
-0.555919
-0.663063
-0.748086
-0.830834
-0.919168
-1.00565
-1.08563
-1.16233
-1.23832
-1.31307
-0.452829
-0.565451
-0.666956
-0.750928
-0.827196
-0.899982
-0.96927
-1.03836
-1.1105
-1.18445
-0.370685
-0.484587
-0.596777
-0.678292
-0.735759
-0.790485
-0.8526
-0.921322
-0.995276
-1.07298
-0.329648
-0.444917
-0.556782
-0.634898
-0.687244
-0.735872
-0.793484
-0.860852
-0.935568
-1.01442
-0.307494
-0.410767
-0.50842
-0.592656
-0.660811
-0.716923
-0.774586
-0.842533
-0.920118
-1.0008
-0.528595
-0.511444
-0.483841
-0.450714
-0.417687
-0.386021
-0.359018
-0.339502
-0.325583
-0.316498
-0.582067
-0.565024
-0.537956
-0.502663
-0.471627
-0.442605
-0.415674
-0.394731
-0.380121
-0.371258
-0.60974
-0.593497
-0.568387
-0.534128
-0.500887
-0.47103
-0.445546
-0.426304
-0.413037
-0.405248
-0.613049
-0.597898
-0.575094
-0.543124
-0.509793
-0.479853
-0.455234
-0.437247
-0.425347
-0.418532
-0.595906
-0.581971
-0.561268
-0.531793
-0.500027
-0.471209
-0.447498
-0.429887
-0.418259
-0.411681
-0.564406
-0.551606
-0.532648
-0.505598
-0.476115
-0.449271
-0.427109
-0.410219
-0.398585
-0.391775
-0.526
-0.51409
-0.496599
-0.472066
-0.445481
-0.421409
-0.401695
-0.386643
-0.375963
-0.36942
-0.488821
-0.477591
-0.461631
-0.440079
-0.417283
-0.39706
-0.380945
-0.369084
-0.361022
-0.356391
-0.458614
-0.447954
-0.433608
-0.415226
-0.39649
-0.380341
-0.367912
-0.359239
-0.354121
-0.352712
-0.439021
-0.429058
-0.416487
-0.401299
-0.386552
-0.374381
-0.365623
-0.36037
-0.358436
-0.360495
-0.429825
-0.420903
-0.410234
-0.397985
-0.386557
-0.377221
-0.370319
-0.365876
-0.362197
-0.354485
-0.429857
-0.421953
-0.413078
-0.4035
-0.394975
-0.388023
-0.382494
-0.378447
-0.374695
-0.365786
-0.436523
-0.429497
-0.421695
-0.413604
-0.406523
-0.400376
-0.394663
-0.389441
-0.384252
-0.375257
-0.448693
-0.442617
-0.435247
-0.427621
-0.420913
-0.414545
-0.407835
-0.400943
-0.393855
-0.383852
-0.466474
-0.461946
-0.454342
-0.446569
-0.439814
-0.432866
-0.424902
-0.416216
-0.407001
-0.395293
-0.491472
-0.488635
-0.480037
-0.472113
-0.465448
-0.457816
-0.44845
-0.437901
-0.426505
-0.412866
-0.523932
-0.522843
-0.515178
-0.506556
-0.500166
-0.491519
-0.480554
-0.468217
-0.454843
-0.439354
-0.564133
-0.564993
-0.56113
-0.552879
-0.544142
-0.534251
-0.5223
-0.508857
-0.494158
-0.477216
-0.617542
-0.619791
-0.618366
-0.610187
-0.599318
-0.588419
-0.576301
-0.56257
-0.547389
-0.529851
-0.685854
-0.689016
-0.687217
-0.679175
-0.668212
-0.656933
-0.644699
-0.631068
-0.616142
-0.599143
-0.336678
-0.260411
-0.220235
-0.160373
-0.114946
-0.0752261
-0.0461452
-0.0248643
-0.0113617
-0.00405449
-0.33587
-0.255882
-0.211456
-0.151742
-0.107922
-0.0699021
-0.0425068
-0.0227923
-0.0103139
-0.00416583
-0.332342
-0.254044
-0.206077
-0.144625
-0.101283
-0.0643324
-0.0383748
-0.0199473
-0.00835569
-0.00361877
-0.332426
-0.25409
-0.200257
-0.137554
-0.094748
-0.0586259
-0.0340357
-0.0167716
-0.00599633
-0.00269621
-0.337667
-0.254202
-0.194642
-0.130301
-0.0883
-0.0529486
-0.0296955
-0.0135436
-0.00358206
-0.00172722
-0.348489
-0.25486
-0.189775
-0.123728
-0.0822641
-0.0475771
-0.0255612
-0.010473
-0.00135821
-0.000925638
-0.365393
-0.256702
-0.186678
-0.118249
-0.0766546
-0.0424837
-0.0215895
-0.00755056
0.000643994
-0.000308614
-0.388932
-0.263255
-0.185931
-0.113945
-0.0713268
-0.0375338
-0.0176165
-0.00465226
0.00254422
0.000227022
-0.421914
-0.275755
-0.187619
-0.110639
-0.0660981
-0.0325399
-0.0135043
-0.00166248
0.00446173
0.000777996
-0.466281
-0.294277
-0.191508
-0.108003
-0.0607798
-0.0273237
-0.00916365
0.00148798
0.00645754
0.00138841
-0.327915
-0.266818
-0.23025
-0.165662
-0.117339
-0.076247
-0.0461172
-0.0231207
-0.0097138
-0.0032124
-0.319086
-0.26118
-0.228953
-0.165946
-0.117835
-0.0767803
-0.0466114
-0.0234896
-0.00964173
-0.00296587
-0.318602
-0.257522
-0.225772
-0.165338
-0.117648
-0.0767655
-0.0465276
-0.0234137
-0.00947652
-0.00279924
-0.319132
-0.253302
-0.219892
-0.165909
-0.119159
-0.077895
-0.0474506
-0.0243269
-0.0100997
-0.00281254
-0.328527
-0.254959
-0.217394
-0.16402
-0.119057
-0.0782236
-0.0480099
-0.0254243
-0.0111894
-0.00340344
-0.309973
-0.36147
-0.396318
-0.41354
-0.414213
-0.402367
-0.383855
-0.364585
-0.348356
-0.336235
-0.308491
-0.360939
-0.395977
-0.413216
-0.413621
-0.401281
-0.381756
-0.361121
-0.345164
-0.327898
-0.308963
-0.362044
-0.397137
-0.413854
-0.41309
-0.399252
-0.378423
-0.358856
-0.344138
-0.333127
-0.31038
-0.364309
-0.399279
-0.414912
-0.41192
-0.395339
-0.372814
-0.354558
-0.343189
-0.345444
-0.31277
-0.367544
-0.402111
-0.416186
-0.410322
-0.39066
-0.366974
-0.351186
-0.345677
-0.360382
0.494114
0.491295
0.488068
0.486151
0.485161
0.484059
0.482814
0.482332
0.48421
0.493063
0.545308
0.543304
0.538183
0.533354
0.529941
0.527436
0.525546
0.524627
0.526151
0.534788
0.575341
0.572082
0.567086
0.562721
0.559654
0.557514
0.556096
0.555564
0.557249
0.566083
0.59976
0.596432
0.59152
0.587102
0.583812
0.581458
0.579897
0.579078
0.580212
0.588873
0.614468
0.610375
0.605294
0.600848
0.59753
0.595244
0.593869
0.593142
0.593923
0.601489
0.619463
0.614378
0.60889
0.604212
0.600725
0.598428
0.597256
0.596706
0.596763
0.60079
0.61385
0.607444
0.601103
0.595686
0.591446
0.588366
0.586238
0.584595
0.584386
0.590865
0.596942
0.58897
0.581446
0.574944
0.569596
0.565357
0.562004
0.559263
0.558825
0.567587
0.56825
0.558573
0.549664
0.541895
0.53532
0.529885
0.525442
0.522032
0.521671
0.530838
0.526951
0.515502
0.505085
0.49593
0.488051
0.481384
0.475849
0.471763
0.471266
0.480067
-0.24413
-0.255197
-0.270494
-0.289855
-0.312878
-0.339907
-0.37483
-0.407338
-0.434321
-0.450286
-0.154774
-0.167829
-0.183835
-0.202482
-0.224691
-0.251401
-0.280903
-0.310463
-0.336342
-0.349636
-0.0552306
-0.0703939
-0.086503
-0.103233
-0.122364
-0.145541
-0.171997
-0.19888
-0.221948
-0.232153
0.0442606
0.0279153
0.0129601
-0.00117846
-0.0171799
-0.0368862
-0.0598634
-0.0831756
-0.102427
-0.108802
0.137647
0.121642
0.108744
0.0972186
0.0842301
0.0681972
0.0493842
0.030329
0.0152672
0.012921
0.219564
0.205478
0.195125
0.186318
0.176561
0.164477
0.150105
0.135574
0.124855
0.126399
0.290547
0.279637
0.27173
0.265194
0.258292
0.249816
0.239547
0.229216
0.222466
0.227303
0.353463
0.345458
0.338887
0.333658
0.328927
0.32338
0.316516
0.309767
0.306423
0.313825
0.412549
0.404763
0.3982
0.393847
0.390476
0.386633
0.381967
0.377828
0.37707
0.386065
0.469089
0.460863
0.453911
0.449111
0.445401
0.441659
0.43784
0.435216
0.435963
0.445225
1.12369
0.753716
0.966126
0.785869
0.772711
0.754753
0.717383
0.690202
0.640139
0.567029
1.11053
0.749763
0.965694
0.791143
0.773442
0.757425
0.722061
0.696516
0.652588
0.587421
1.09852
0.746715
0.964025
0.795566
0.774126
0.759577
0.72631
0.703431
0.667796
0.607298
1.08778
0.743956
0.961534
0.798978
0.774505
0.761078
0.729569
0.708389
0.679167
0.623309
1.0782
0.741104
0.958495
0.800996
0.774172
0.761702
0.731422
0.711408
0.686706
0.634253
1.06962
0.738222
0.955198
0.801886
0.773322
0.761735
0.732214
0.713205
0.6907
0.639155
1.06193
0.735398
0.951796
0.80208
0.77223
0.761289
0.731985
0.713717
0.691618
0.637117
1.0551
0.732671
0.948262
0.801682
0.771057
0.760275
0.730709
0.712455
0.689181
0.627663
1.04911
0.730015
0.944466
0.800421
0.769881
0.758444
0.728308
0.708821
0.682981
0.609959
1.04399
0.727339
0.940465
0.798084
0.768715
0.755708
0.724755
0.702591
0.672352
0.58312
1.22975
0.773876
0.943359
0.765554
0.767543
0.739595
0.698259
0.66806
0.605618
0.534319
1.19576
0.772457
0.94725
0.767179
0.767701
0.741629
0.699512
0.668562
0.603729
0.526748
1.17563
0.768459
0.952286
0.770622
0.767795
0.743894
0.701529
0.671508
0.605761
0.525955
1.15611
0.764277
0.958352
0.776453
0.769745
0.748296
0.707808
0.677575
0.610519
0.52767
1.13851
0.7589
0.963402
0.780934
0.771574
0.75174
0.712407
0.680376
0.620501
0.530876
0.439681
0.404356
0.35947
0.299253
0.221752
0.130985
0.0337329
-0.0642184
-0.158666
-0.241541
0.42936
0.394719
0.353458
0.297491
0.224066
0.136041
0.0396499
-0.0588924
-0.154713
-0.239245
0.432031
0.395536
0.353286
0.299198
0.227751
0.141336
0.0452917
-0.0541691
-0.151691
-0.238147
0.441901
0.396817
0.350287
0.297427
0.228902
0.1451
0.0498504
-0.0504279
-0.149719
-0.238174
0.464655
0.40806
0.351425
0.293882
0.226547
0.145982
0.0525107
-0.0479873
-0.14886
-0.239292
)
;

boundaryField
{
    left
    {
        type            zeroGradient;
    }
    right
    {
        type            fixedValue;
        value           uniform 0;
    }
    down
    {
        type            zeroGradient;
    }
    up
    {
        type            zeroGradient;
    }
    cylinder
    {
        type            zeroGradient;
    }
    defaultFaces
    {
        type            empty;
    }
}


// ************************************************************************* //
