/*--------------------------------*- C++ -*----------------------------------*\
| =========                 |                                                 |
| \\      /  F ield         | OpenFOAM: The Open Source CFD Toolbox           |
|  \\    /   O peration     | Version:  2406                                  |
|   \\  /    A nd           | Website:  www.openfoam.com                      |
|    \\/     M anipulation  |                                                 |
\*---------------------------------------------------------------------------*/
FoamFile
{
    version     2.0;
    format      ascii;
    arch        "LSB;label=32;scalar=64";
    class       surfaceScalarField;
    location    "0.25";
    object      phi;
}
// * * * * * * * * * * * * * * * * * * * * * * * * * * * * * * * * * * * * * //

dimensions      [0 3 -1 0 0 0 0];

oriented        oriented;

internalField   nonuniform List<scalar> 
3485
(
0.00175163
0.00477456
-0.0065262
0.00530421
0.00279279
-0.00634537
0.0119183
-0.00572071
-0.000893396
0.0205766
-0.0138352
0.00517692
0.0306278
-0.0194894
0.00943816
0.0418059
-0.023314
0.0121359
0.0540535
-0.0263259
0.0140784
0.0673619
-0.0296405
0.0163321
0.0818605
-0.0345394
0.0200408
-0.0406986
0.0253006
0.0972585
0.00155637
0.00321819
0.00586677
-0.0015176
0.0132296
-0.0130835
0.0221642
-0.0227698
0.031889
-0.0292142
0.0420775
-0.0335026
0.052701
-0.0369493
0.0639543
-0.0408938
0.0762628
-0.046848
-0.055657
0.0912213
0.00166552
0.00155267
0.00722855
-0.00708064
0.0154363
-0.0212913
0.0248351
-0.0321686
0.0347697
-0.0391488
0.0450094
-0.0437423
0.0555653
-0.0475052
0.0666403
-0.0519688
0.0787314
-0.0589391
-0.070004
0.0930784
0.0019722
-0.000419526
0.00872305
-0.0138315
0.0176038
-0.030172
0.0273675
-0.0419323
0.0375184
-0.0492997
0.0479318
-0.0541557
0.0586604
-0.0582338
0.0698916
-0.0632
0.0820365
-0.0710841
-0.0836902
0.0957228
0.00290226
-0.00332179
0.0104875
-0.0214167
0.0198841
-0.0395686
0.0299604
-0.0520086
0.040354
-0.0596933
0.0510299
-0.0648316
0.0620797
-0.0692836
0.0737019
-0.0748222
0.0862776
-0.0836598
-0.0976336
0.100221
0.00388727
-0.00720907
0.0120314
-0.0295608
0.0216759
-0.0492132
0.031794
-0.0621266
0.0421218
-0.0700212
0.0526841
-0.0753939
0.0635967
-0.0801962
0.0750784
-0.0863039
0.0875019
-0.0960833
-0.111292
0.101161
0.00450603
-0.0117151
0.0129747
-0.0380294
0.0225851
-0.0588235
0.0324028
-0.0719444
0.0422755
-0.0798939
0.052314
-0.0854323
0.0627156
-0.0905978
0.0738232
-0.0974114
0.0861229
-0.108383
-0.124911
0.099742
0.00484389
-0.016559
0.0132758
-0.0464613
0.0224145
-0.0679622
0.0314207
-0.0809506
0.0402502
-0.0887234
0.0491117
-0.0942939
0.0583208
-0.0998068
0.0683875
-0.107478
0.0798512
-0.119847
-0.13762
0.0925594
0.00490854
-0.0214675
0.0128634
-0.0544162
0.0210314
-0.0761302
0.0287102
-0.0886294
0.0359924
-0.0960056
0.0432114
-0.101513
0.0508295
-0.107425
0.0595129
-0.116162
0.0696743
-0.130008
-0.148639
0.0806938
0.0047173
-0.0261848
0.0117486
-0.0614475
0.0184504
-0.082832
0.0243554
-0.0945344
0.0297383
-0.101388
0.0350435
-0.106818
0.0408113
-0.113193
0.0476807
-0.123031
0.0557041
-0.138032
0.0638662
-0.156801
-0.000911585
0.00821944
-0.00730786
-0.00171106
0.0107876
-0.00998811
-0.00240758
0.0111431
-0.0104466
-0.00284149
0.0108487
-0.0104147
-0.0029241
0.00992052
-0.00983792
-0.00276308
0.00867523
-0.00883626
-0.0023998
0.00727749
-0.00764077
-0.00177821
0.00557485
-0.00619644
-0.000766975
0.0032517
-0.00426293
-9.21023e-05
0.000847495
-0.00152237
-0.000837937
0.00905738
-0.00160346
0.0115531
-0.00226458
0.0118043
-0.00263183
0.0112159
-0.00264209
0.00993078
-0.00242414
0.00845729
-0.00201479
0.00686814
-0.00135228
0.00491234
-0.000301672
0.0022011
-0.00176047
0.0013667
-0.000778394
0.00983577
-0.00140459
0.0121793
-0.00195048
0.0123501
-0.00216053
0.011426
-0.00202161
0.00979186
-0.00167634
0.00811201
-0.00115622
0.00634803
-0.000401465
0.00415758
0.000742585
0.00105705
-0.00350852
0.00249063
-0.000677629
0.0105134
-0.00107554
0.0125772
-0.00143196
0.0127066
-0.00140395
0.0113979
-0.00104288
0.0094308
-0.00049627
0.0075654
0.000208729
0.00564303
0.00112411
0.00324219
0.00237701
-0.000195851
-0.00535657
0.00422507
-0.00049504
0.0110084
-0.000600683
0.0126829
-0.000696769
0.0128027
-0.000347173
0.0110483
0.000306064
0.00877756
0.00111883
0.00675263
0.0020622
0.00469966
0.00316625
0.00213814
0.00454096
-0.00157056
-0.00727603
0.00646041
-0.000126801
0.0111352
-4.73808e-05
0.0126034
0.000249871
0.0125054
0.0010953
0.0102029
0.00216474
0.00770812
0.00334698
0.00557038
0.00462784
0.00341881
0.00601594
0.000750037
0.00759069
-0.00314531
-0.00936825
0.00968291
0.000524876
0.0106104
0.000823588
0.0123047
0.0018191
0.0115099
0.00336283
0.00865919
0.00501675
0.0060542
0.00669727
0.00388986
0.00842735
0.00168874
0.0101928
-0.00101541
0.0120484
-0.00500088
-0.011677
0.0143571
0.00106907
0.0095413
0.00212053
0.0112533
0.00426074
0.00936969
0.00693471
0.00598521
0.00970725
0.00328165
0.012388
0.00120917
0.0149163
-0.000839642
0.0174163
-0.00351541
0.0199377
-0.00752221
-0.0145669
0.0228276
0.00144899
0.00809231
0.0035651
0.00913715
0.00709355
0.00584124
0.0115752
0.00150353
0.0165301
-0.00167326
0.0214349
-0.00369563
0.0259762
-0.00538089
0.0301504
-0.00768966
0.034227
-0.0115988
-0.0188387
0.0384988
0.00156612
0.0043579
0.00930574
0.0159862
0.0237511
0.0321913
0.0408888
0.0495313
0.0579732
0.0644351
0.0442987
-0.194683
0.151232
0.0968296
-0.27603
0.223499
0.126591
-0.225896
0.196135
0.145179
-0.180701
0.162114
0.154969
-0.138227
0.128437
0.15993
-0.103948
0.098986
0.161633
-0.0753928
0.0736905
0.161368
-0.0511992
0.0514635
0.160008
-0.0315035
0.0328639
-0.0116687
0.0135037
0.0422847
-0.235601
0.0927635
-0.326508
0.12372
-0.256853
0.143247
-0.200228
0.154046
-0.149027
0.159656
-0.109558
0.161853
-0.0775889
0.161958
-0.0513047
0.160866
-0.0304118
-0.00999575
0.0392457
-0.272356
0.0863479
-0.373611
0.11878
-0.289285
0.139453
-0.220901
0.151654
-0.161227
0.158212
-0.116116
0.161192
-0.0805692
0.161924
-0.0520363
0.161351
-0.029839
-0.00866106
0.035732
-0.303863
0.0781147
-0.415993
0.112107
-0.323278
0.134231
-0.243026
0.14802
-0.175016
0.155801
-0.123897
0.159827
-0.0845947
0.161416
-0.0536258
0.161605
-0.0300275
-0.00782531
0.0324748
-0.329878
0.0702004
-0.453719
0.10502
-0.358097
0.128604
-0.26661
0.143929
-0.190341
0.153052
-0.13302
0.158273
-0.0898149
0.160894
-0.0562473
0.162047
-0.0311808
-0.00762931
0.0319448
-0.352139
0.0662312
-0.488005
0.100883
-0.392748
0.12514
-0.290868
0.141335
-0.206536
0.151443
-0.143128
0.157711
-0.0960826
0.161393
-0.0599303
0.163636
-0.0334235
-0.008208
0.0352744
-0.373057
0.0692851
-0.522016
0.103627
-0.42709
0.127467
-0.314708
0.143436
-0.222505
0.153719
-0.153411
0.160512
-0.102875
0.165029
-0.064447
0.168286
-0.0366805
-0.00970115
0.0445556
-0.394785
0.0805205
-0.557981
0.115216
-0.461785
0.138136
-0.337628
0.153041
-0.237409
0.162735
-0.163106
0.169439
-0.109579
0.174337
-0.0693447
0.178255
-0.0405988
-0.0122261
0.0609784
-0.417264
0.0978257
-0.594828
0.133667
-0.497627
0.157321
-0.361282
0.172079
-0.252167
0.181447
-0.172473
0.187999
-0.116132
0.19293
-0.0742755
0.19729
-0.0449585
-0.0159041
0.0802447
-0.433074
0.115462
-0.630046
0.15029
-0.532455
0.174415
-0.385407
0.190035
-0.267787
0.200425
-0.182863
0.208006
-0.123712
0.214108
-0.0803772
0.219775
-0.0506259
-0.0211565
0.45275
-0.595066
-0.290758
0.469473
-0.646769
0.461523
-0.524505
0.446518
-0.370402
0.429943
-0.251212
0.416815
-0.169736
0.406996
-0.113893
0.401063
-0.0744438
0.398016
-0.0475796
-0.0206613
0.50939
-0.606267
-0.498189
0.524589
-0.661968
0.522241
-0.522157
0.506508
-0.354669
0.488453
-0.233156
0.473249
-0.154533
0.461761
-0.102405
0.454679
-0.0673616
0.450438
-0.0433387
-0.0190776
0.686498
-0.573947
-0.718818
0.63367
-0.60914
0.596221
-0.484708
0.565998
-0.324447
0.54056
-0.207718
0.520885
-0.134857
0.506695
-0.0882152
0.497139
-0.0578061
0.491268
-0.0374681
-0.0171406
0.761177
-0.487915
-0.847209
0.691104
-0.539066
0.640121
-0.433725
0.598899
-0.283225
0.567003
-0.175822
0.544
-0.111855
0.528095
-0.0723097
0.517489
-0.0472002
0.511225
-0.0312036
-0.0151701
0.82339
-0.409735
-0.90157
0.742484
-0.458161
0.67209
-0.363331
0.619046
-0.230181
0.580803
-0.137579
0.554494
-0.0855455
0.536737
-0.0545531
0.524695
-0.0351582
0.517186
-0.023694
-0.0126345
0.845497
-0.342918
-0.912314
0.762734
-0.375398
0.682051
-0.282648
0.621457
-0.169587
0.579424
-0.0955455
0.551563
-0.0576837
0.533423
-0.0364138
0.521422
-0.0231573
0.514366
-0.0166372
-0.0102141
0.843326
-0.279143
-0.907101
0.747017
-0.27909
0.656847
-0.192477
0.594064
-0.106805
0.553278
-0.0547598
0.52718
-0.0315854
0.510483
-0.0197163
0.499677
-0.0123514
0.4928
-0.00976064
-0.00713176
0.783046
-0.191706
-0.870483
0.664158
-0.160202
0.570574
-0.0988927
0.513229
-0.0494598
0.479323
-0.0208541
0.45842
-0.0106819
0.445094
-0.00639036
0.436559
-0.00381691
0.430594
-0.00379574
-0.0038281
0.583153
-0.0755392
-0.69932
0.466031
-0.0430803
0.391419
-0.024281
0.352012
-0.0100524
0.332466
-0.00130786
0.321474
0.00030936
0.314692
0.000392302
0.310553
0.000321557
0.30708
-0.000323087
-0.00108896
0.196653
-0.272192
0.153573
0.129292
0.11924
0.117932
0.118241
0.118633
0.118955
0.118632
0.526378
0.0699744
-0.532486
0.514655
0.0924166
0.49655
0.110664
0.471611
0.124681
0.440737
0.132035
0.406004
0.134953
0.369903
0.131824
0.336822
0.126159
0.307049
0.120994
0.11355
0.641619
0.0591977
-0.630842
0.650107
0.0839283
0.654139
0.106633
0.653045
0.125775
0.643474
0.141606
0.627266
0.151161
0.600937
0.158153
0.570222
0.156874
0.530333
0.160884
0.145693
0.693242
0.0424288
-0.676473
0.71092
0.0662505
0.72675
0.0908024
0.741233
0.111292
0.750804
0.132035
0.757599
0.144367
0.754513
0.161239
0.749228
0.162158
0.735222
0.17489
0.162097
0.703798
0.0269625
-0.688332
0.723063
0.0469852
0.744298
0.0695678
0.766146
0.0894439
0.787187
0.110994
0.806768
0.124786
0.824352
0.143655
0.836461
0.150049
0.84707
0.164281
0.161958
0.705992
0.0156296
-0.694659
0.721563
0.0314142
0.740962
0.050169
0.763494
0.0669115
0.787852
0.0866366
0.812164
0.100474
0.837756
0.118064
0.860034
0.12777
0.883964
0.140352
0.144353
0.704466
0.00725152
-0.696088
0.716888
0.0189928
0.733273
0.0337841
0.753179
0.0470051
0.776068
0.0637479
0.801088
0.0754539
0.829164
0.089987
0.855988
0.100947
0.88684
0.109499
0.118879
0.694091
0.000837577
-0.687677
0.70449
0.00859357
0.718701
0.0195739
0.736819
0.0288863
0.758311
0.0422558
0.783854
0.0499117
0.812042
0.0617992
0.841948
0.0710407
0.8755
0.0759473
0.0872783
0.651918
-0.00416445
-0.646916
0.659862
0.000649344
0.67222
0.0072152
0.688376
0.0127311
0.709659
0.0209722
0.734958
0.0246129
0.763305
0.0334519
0.797246
0.0371001
0.832144
0.0410495
0.048939
0.518398
-0.00422081
-0.518342
0.521401
-0.0023531
0.528975
-0.000358796
0.54009
0.0016157
0.557049
0.00401316
0.576453
0.00520919
0.601506
0.00839847
0.630348
0.00825871
0.660549
0.0108483
0.0101681
0.226393
-0.230614
0.22404
0.223681
0.225297
0.22931
0.234519
0.242917
0.251176
0.262024
0.0433071
0.111252
-0.0856159
-0.0689429
0.0271407
0.0914766
-0.0753101
0.0181083
0.0780055
-0.0689731
0.0131305
0.070259
-0.0652812
0.00990637
0.0664734
-0.0632492
0.00730647
0.0645588
-0.0619588
0.00491354
0.062937
-0.0605441
0.00274076
0.0599332
-0.0577604
0.000885417
0.0524052
-0.0505498
0.0303179
-0.0294325
0.0740863
0.130904
-0.093739
0.0555616
0.110001
0.0411615
0.0924056
0.0307546
0.0806659
0.0229023
0.0743256
0.0163211
0.07114
0.0105216
0.0687365
0.00555409
0.0649007
0.00181331
0.0561459
0.0321312
0.0787722
0.143755
-0.0916232
0.0646594
0.124114
0.0513641
0.105701
0.0398757
0.0921543
0.0300986
0.0841027
0.0215537
0.0796849
0.0139168
0.0763734
0.00727195
0.0715456
0.00226429
0.0611536
0.0343955
0.0696637
0.152127
-0.0780357
0.0600624
0.133715
0.0498312
0.115932
0.0398219
0.102164
0.030451
0.0934736
0.0218126
0.0883233
0.0139549
0.0842311
0.00711926
0.0783813
0.00205297
0.0662199
0.0364485
0.0554363
0.157815
-0.0611235
0.0487568
0.140395
0.0412622
0.123427
0.0334169
0.110009
0.0255812
0.101309
0.0180688
0.0958357
0.0111774
0.0911225
0.00529051
0.0842681
0.00125432
0.0702561
0.0377028
0.0378136
0.161849
-0.0418479
0.0333457
0.144863
0.0284088
0.128364
0.0229969
0.115421
0.0172818
0.107024
0.0116506
0.101467
0.00651224
0.0962608
0.00232977
0.0884506
-2.38145e-05
0.0726097
0.037679
0.0182069
0.164185
-0.0205428
0.0160652
0.147004
0.0137046
0.130724
0.0107734
0.118352
0.00739649
0.110401
0.0040022
0.104861
0.00100367
0.0992594
-0.00104498
0.0904993
-0.00127923
0.0728439
0.0363998
-0.00214483
0.164137
0.00219249
-0.00164807
0.146508
-0.00143247
0.130509
-0.00191622
0.118836
-0.00290743
0.111392
-0.00395873
0.105913
-0.00465581
0.0999565
-0.00437352
0.090217
-0.00249425
0.0709647
0.0339055
-0.0212982
0.161927
0.0235081
-0.0183899
0.143599
-0.0157822
0.127901
-0.0140028
0.117056
-0.0127598
0.110149
-0.0115699
0.104723
-0.00997575
0.0983623
-0.00737835
0.0876196
-0.00349216
0.0670785
0.0304134
-0.0394419
0.0445677
-0.033874
-0.0290042
-0.0251404
-0.0218091
-0.018475
-0.0146471
-0.00985951
-0.00422853
0.0430141
0.0288991
-0.0494296
-0.0224836
0.0370573
0.0271131
-0.0211564
0.0314724
0.0256597
-0.0200748
0.0261538
0.0246654
-0.0193468
0.0210155
0.0240884
-0.0189501
0.0160112
0.0237481
-0.0187438
0.0111559
0.0232974
-0.0184421
0.00654743
0.0221667
-0.0175582
0.00247829
0.0193021
-0.0152329
0.0115278
-0.00904948
0.0438679
0.0354557
-0.0504244
0.0377911
0.03319
0.0321034
0.0313475
0.0266898
0.0300789
0.0214587
0.0293195
0.0163607
0.0288461
0.0114085
0.0282496
0.00669775
0.0268774
0.00252883
0.023471
0.0140566
0.0443984
0.0421164
-0.0510592
0.038236
0.0393524
0.032476
0.0371074
0.0269939
0.035561
0.0216958
0.0346176
0.0165348
0.0340071
0.0115259
0.0332586
0.00676233
0.0316409
0.00254572
0.0276876
0.0166023
0.0445057
0.0488671
-0.0512564
0.0382625
0.0455956
0.0324517
0.0429182
0.0269356
0.0410771
0.0216168
0.0399364
0.0164499
0.039174
0.0114505
0.038258
0.00670618
0.0363853
0.00251379
0.03188
0.0191161
0.0441248
0.0557019
-0.0509596
0.0378902
0.0518303
0.0320885
0.0487199
0.0265811
0.0465845
0.0212762
0.0452413
0.016143
0.0443071
0.0112059
0.0431951
0.00654546
0.0410457
0.00244278
0.0359827
0.0215589
0.0415272
0.0621173
-0.0479426
0.0356022
0.0577553
0.0301505
0.0541717
0.0249627
0.0517722
0.0199474
0.0502567
0.0150971
0.0491574
0.0104441
0.047848
0.00606384
0.045426
0.00223261
0.0398139
0.0237915
0.0421878
0.0695822
-0.0496527
0.0357343
0.0642087
0.0298388
0.0600673
0.0243636
0.0572474
0.0192179
0.0554023
0.0143812
0.0539942
0.00986518
0.052364
0.00569528
0.0495959
0.00208841
0.0434208
0.0258799
0.030119
0.0746064
-0.0351433
0.0255897
0.068738
0.0218105
0.0638466
0.0182927
0.0607652
0.0147494
0.0589456
0.0110569
0.0576868
0.0075286
0.0558923
0.00423294
0.0528916
0.0014445
0.0462092
0.0273244
0.0388402
0.0825908
-0.0468246
0.0316598
0.0759184
0.0250554
0.0704509
0.01942
0.0664005
0.0147708
0.0635948
0.0109125
0.0615451
0.00750514
0.0592997
0.00430603
0.0560907
0.00153388
0.0489814
0.0288583
0.00191954
-0.00494459
0.00252784
0.00400567
0.005125
0.00547057
0.00505682
0.0038124
0.00214266
0.000574201
0.191129
0.218786
-0.211924
0.182627
0.241426
-0.232925
0.177859
0.164827
-0.160059
0.176108
0.132831
-0.13108
0.173997
0.131905
-0.129794
0.169993
0.139234
-0.13523
0.160033
0.164144
-0.154185
0.143529
0.198152
-0.181648
0.103678
0.265643
-0.225792
0.317265
-0.263016
0.190188
0.226587
0.180684
0.25093
0.175738
0.169774
0.17363
0.134939
0.171804
0.133731
0.167881
0.143157
0.1584
0.173625
0.141704
0.214848
0.103399
0.303948
0.370239
0.188958
0.23562
0.178086
0.261802
0.172615
0.175244
0.170045
0.137509
0.168271
0.135505
0.164185
0.147244
0.155086
0.182724
0.137951
0.231983
0.101978
0.339921
0.421158
0.187544
0.246065
0.174851
0.274495
0.168427
0.181668
0.165594
0.140342
0.163767
0.137332
0.159138
0.151874
0.150135
0.191726
0.132596
0.249522
0.0996559
0.37286
0.469558
0.186094
0.257962
0.171042
0.289547
0.163374
0.189335
0.160858
0.142859
0.158756
0.139434
0.152992
0.157637
0.143531
0.201188
0.125666
0.267387
0.0968669
0.40166
0.515465
0.184744
0.271208
0.167159
0.307132
0.158448
0.198047
0.156394
0.144912
0.153397
0.142431
0.146182
0.164852
0.13568
0.21169
0.116813
0.286254
0.0890013
0.429471
0.556524
0.183835
0.285362
0.164967
0.326
0.155816
0.207198
0.15293
0.147798
0.148372
0.14699
0.140262
0.172962
0.129157
0.222795
0.110151
0.30526
0.0925829
0.447039
0.599454
0.184586
0.298766
0.165599
0.344987
0.15655
0.216248
0.152327
0.15202
0.146597
0.15272
0.136785
0.182773
0.122764
0.236816
0.101714
0.32631
0.0720219
0.47673
0.636333
0.187423
0.309332
0.170861
0.361548
0.164639
0.22247
0.160807
0.155852
0.154569
0.158959
0.143411
0.193931
0.128738
0.251489
0.104876
0.350173
0.0907
0.490906
0.680208
0.19352
0.313802
0.181475
0.373593
0.177967
0.225979
0.173445
0.160373
0.164996
0.167408
0.15089
0.208036
0.130998
0.271382
0.104329
0.376842
0.068921
0.526314
0.744185
0.331307
0.284506
0.343727
0.361173
0.351699
0.218007
0.356743
0.155329
0.361026
0.163125
0.364043
0.205019
0.370239
0.265186
0.36938
0.377701
0.382638
0.513057
0.647228
0.479594
0.352497
0.234019
0.388331
0.325339
0.404534
0.201804
0.413275
0.146588
0.421741
0.154659
0.432601
0.194159
0.442102
0.255684
0.47029
0.349513
0.493006
0.490341
0.602262
0.537972
0.363954
0.172075
0.420861
0.268432
0.447723
0.174942
0.461736
0.132575
0.475416
0.140979
0.49269
0.176885
0.51105
0.237324
0.551175
0.309388
0.581455
0.460062
0.556203
0.627514
0.366719
0.107367
0.436362
0.198789
0.47174
0.139564
0.490108
0.114208
0.507815
0.123271
0.53063
0.154071
0.555803
0.21215
0.604436
0.260755
0.651524
0.412973
0.512865
0.694862
0.364292
0.0450847
0.440531
0.12255
0.482839
0.0972559
0.504309
0.0927375
0.525024
0.102557
0.551199
0.127895
0.582692
0.180657
0.632696
0.210752
0.694318
0.351351
0.456037
0.751147
0.359779
-0.0126845
0.436863
0.0454662
0.482927
0.051192
0.505996
0.0696685
0.528753
0.0797995
0.556818
0.0998301
0.594748
0.142727
0.642004
0.163496
0.715274
0.278081
0.377517
0.793793
0.352038
-0.0627126
0.421526
-0.024021
0.465809
0.00690848
0.488898
0.0465791
0.513074
0.0556245
0.542438
0.070466
0.584567
0.100598
0.629867
0.118195
0.711584
0.196364
0.276615
0.812487
0.334223
-0.0949254
0.380825
-0.0706235
0.412514
-0.0247797
0.432584
0.0265089
0.456519
0.0316889
0.485915
0.0410705
0.529469
0.0570438
0.575042
0.0726228
0.658836
0.11257
0.166785
0.768666
0.295268
-0.0881836
0.293485
-0.0688405
0.296971
-0.0282654
0.312173
0.0113075
0.332655
0.0112068
0.358568
0.0151569
0.395687
0.0199246
0.440171
0.0281394
0.511968
0.0407723
0.0654078
0.613346
0.213827
0.144986
0.116721
0.128028
0.139235
0.154392
0.174317
0.202456
0.243228
0.308636
0.520746
-0.110095
0.531936
-0.104929
0.533945
-0.0936321
0.533595
-0.0776856
0.532514
-0.0600421
0.532271
-0.0416051
0.533028
-0.0213003
0.534012
0.00120909
0.534415
0.0231046
0.0464967
0.55099
-0.123113
0.558754
-0.112693
0.565646
-0.100524
0.572839
-0.0848791
0.579496
-0.0666986
0.586179
-0.0482889
0.59484
-0.0299613
0.606362
-0.0103126
0.618431
0.0110355
0.0340857
0.629962
-0.125561
0.633639
-0.11637
0.635768
-0.102653
0.637374
-0.086485
0.638969
-0.0682939
0.640916
-0.0502359
0.644517
-0.0335625
0.651657
-0.0174522
0.662486
0.000206285
0.0200986
0.687058
-0.117758
0.681446
-0.110758
0.677259
-0.0984651
0.674075
-0.0833006
0.671373
-0.0655928
0.66899
-0.0478526
0.667966
-0.0325383
0.670155
-0.0196409
0.676913
-0.00655181
0.00867952
0.739622
-0.106233
0.729034
-0.10017
0.719577
-0.0890079
0.71052
-0.0742429
0.701753
-0.0568266
0.693851
-0.0399499
0.688072
-0.0267591
0.685687
-0.0172561
0.687721
-0.00858601
0.00174106
0.777565
-0.0900045
0.760389
-0.0829947
0.744535
-0.0731537
0.729419
-0.0591268
0.715553
-0.0429605
0.704127
-0.0285243
0.6961
-0.0187321
0.691944
-0.0131004
0.691956
-0.00859786
-0.00239137
0.786593
-0.0641108
0.762727
-0.0591281
0.741871
-0.0522978
0.723717
-0.0409737
0.708259
-0.0275025
0.696472
-0.0167369
0.688778
-0.0110381
0.684944
-0.00926648
0.684601
-0.0082544
-0.0054678
0.738559
-0.0340042
0.711586
-0.0321554
0.68867
-0.029382
0.670775
-0.0230781
0.657805
-0.0145325
0.649616
-0.00854836
0.645562
-0.00698341
0.644276
-0.00798097
0.644756
-0.00873403
-0.00762757
0.589878
-0.0105365
0.56888
-0.0111575
0.551549
-0.0120509
0.538693
-0.0102219
0.530646
-0.0064858
0.526544
-0.00444559
0.524518
-0.00495832
0.522608
-0.00607099
0.520278
-0.00640375
-0.00569122
0.298099
0.286942
0.274891
0.264669
0.258183
0.253738
0.248779
0.242708
0.236305
0.00316286
0.0284264
-0.0315893
0.00642957
0.0690863
-0.072353
0.00790549
0.0940007
-0.0954766
0.0081422
0.10566
-0.105897
0.00847927
0.108817
-0.109154
0.00764559
0.110544
-0.109711
0.0054985
0.108874
-0.106727
0.00329051
0.1024
-0.100192
0.00190248
0.0916044
-0.0902164
0.0767121
0.00162309
-0.0764327
0.00389916
0.0245273
0.00921078
0.0637747
0.0133553
0.0898562
0.0159317
0.103084
0.0170505
0.107698
0.0180789
0.109516
0.0184666
0.108486
0.0179496
0.102917
0.0167754
0.0927786
0.0785137
0.0149738
0.0041577
0.0203696
0.0108592
0.0570732
0.017252
0.0834634
0.022207
0.0981291
0.0254832
0.104422
0.0282895
0.10671
0.0306726
0.106103
0.0319475
0.101643
0.0316719
0.0930542
0.0807436
0.029442
0.0039749
0.0163947
0.0113736
0.0496745
0.0194285
0.0754085
0.026628
0.0909295
0.0324798
0.0985703
0.0375741
0.101615
0.0421994
0.101477
0.0457485
0.0980936
0.0473983
0.0914043
0.0818518
0.0462902
0.00340789
0.0129868
0.0107821
0.0423003
0.0198079
0.0663827
0.0288491
0.0818883
0.0371326
0.0902867
0.0447246
0.0940235
0.0517432
0.0944589
0.0577804
0.0920564
0.0620698
0.087115
0.0802487
0.0636729
0.00264532
0.0103415
0.00943318
0.0355125
0.018718
0.0570978
0.0289355
0.0716709
0.0391305
0.0800917
0.0489926
0.0841614
0.0583627
0.0850888
0.0668504
0.0835686
0.0738273
0.0801381
0.0754809
0.0785951
0.00186218
0.00847928
0.00773273
0.0296419
0.0166514
0.0481791
0.0272454
0.0610769
0.0385083
0.0688289
0.0499164
0.0727532
0.0611015
0.0739037
0.0715865
0.0730836
0.0807405
0.070984
0.0681635
0.088058
0.00126859
0.00721069
0.00624172
0.0246688
0.0144844
0.0399364
0.0248533
0.050708
0.0363858
0.0572964
0.0484734
0.0606657
0.0606387
0.0617383
0.0723422
0.0613801
0.0828985
0.0604278
0.0593217
0.0917402
0.000862523
0.00634817
0.00502103
0.0205103
0.0123731
0.0325844
0.0219899
0.0410912
0.0329909
0.0462954
0.0447561
0.0489005
0.0567911
0.0497033
0.0686068
0.0495644
0.079702
0.0493326
0.049395
0.0896288
0.000687535
0.00566064
0.00421453
0.0169833
0.0106259
0.0261731
0.0192237
0.0324934
0.029287
0.036232
0.0402907
0.0378968
0.0518379
0.0381561
0.0635424
0.0378598
0.0750457
0.0378294
0.0385845
0.0858561
0.000529811
0.00513083
0.00334154
0.0141716
0.00847875
0.0210358
0.0153904
0.0255817
0.0234723
0.0281502
0.0322199
0.0291492
0.0412037
0.0291723
0.0500236
0.02904
0.0583004
0.0295525
0.0315162
0.0653688
0.000477752
0.00465307
0.00274814
0.0119012
0.00677547
0.0170085
0.0120987
0.0202585
0.0182113
0.0220375
0.0246502
0.0227103
0.0310121
0.0228104
0.0370476
0.0230045
0.0427941
0.0238061
0.0256065
0.0487037
0.000364329
0.00428874
0.00210387
0.0101616
0.00514664
0.0139658
0.00909592
0.0163092
0.0135369
0.0175966
0.0181197
0.0181275
0.0226144
0.0183158
0.027005
0.0186139
0.0315019
0.0193092
0.020618
0.0364903
0.000171398
0.00411735
0.00136269
0.00897033
0.00353829
0.0117902
0.00637167
0.0134758
0.00954745
0.0144208
0.0128516
0.0148233
0.0162056
0.0149618
0.01969
0.0151295
0.0234977
0.0155015
0.016213
0.0279028
-5.33045e-05
0.00417065
0.000611615
0.00830541
0.0020539
0.0103479
0.00399546
0.0115342
0.00620576
0.0122105
0.0085788
0.0124503
0.0111124
0.0124282
0.013892
0.0123499
0.0170604
0.0123331
0.0124477
0.0208257
-0.000273962
0.00444461
-3.73359e-05
0.00806879
0.00077156
0.00953897
0.00196235
0.0103435
0.0033713
0.0108016
0.00497955
0.010842
0.0068096
0.0105981
0.00892375
0.0102357
0.0114337
0.00982313
0.00935945
0.0145219
-0.000440514
0.00488513
-0.00058863
0.0082169
-0.000298979
0.00924932
0.000228792
0.00981568
0.000968408
0.0100619
0.00196596
0.00984446
0.00321742
0.00934667
0.00475273
0.0087004
0.00667198
0.00790388
0.0068778
0.00915363
-0.000650275
0.0055354
-0.00108489
0.00865152
-0.00123264
0.00939708
-0.00119513
0.00977817
-0.000917784
0.00978459
-0.00035186
0.00927854
0.000462885
0.00853193
0.00154882
0.00761447
0.00300632
0.00644638
0.00486215
0.00502197
-0.000894282
0.00642968
-0.00149902
0.00925625
-0.00192494
0.009823
-0.00216346
0.0100167
-0.0021292
0.00975033
-0.00184285
0.00899219
-0.00132429
0.00801336
-0.000542734
0.00683291
0.000620663
0.00528298
0.00313104
0.00235177
-0.000878171
-0.00161003
-0.00223364
-0.0026317
-0.00271928
-0.00256335
-0.00219076
-0.00155429
-0.000534242
0.00107443
0.0673028
0.146318
-0.148252
0.0746085
0.0997497
-0.107055
0.0876981
0.0165333
-0.0296229
0.0992499
-0.0249184
0.0133666
0.109865
-0.0400214
0.0294059
0.119461
-0.0406231
0.0310271
0.128217
-0.0353464
0.0265905
0.135618
-0.0284438
0.0210427
0.142015
-0.018931
0.0125347
-0.00933701
0.00467111
0.0630737
0.131949
0.0752368
0.0875866
0.091108
0.0006621
0.103571
-0.0373816
0.114327
-0.0507774
0.12342
-0.0497157
0.131446
-0.0433721
0.138031
-0.0350296
0.143549
-0.0244491
-0.0130648
0.0582587
0.11018
0.0760401
0.0698052
0.0946983
-0.0179961
0.108139
-0.0508226
0.11893
-0.0615686
0.127487
-0.0582719
0.134683
-0.0505687
0.140349
-0.0406957
0.144931
-0.0290313
-0.0158886
0.0549609
0.0831221
0.0787988
0.0459673
0.100012
-0.0392096
0.114002
-0.0648121
0.124593
-0.0721595
0.132386
-0.0660651
0.138532
-0.0567152
0.143045
-0.0452085
0.146532
-0.0325179
-0.0177874
0.0518094
0.0521384
0.082764
0.0150127
0.106175
-0.0626208
0.12079
-0.0794272
0.131037
-0.0824058
0.137996
-0.0730245
0.142983
-0.0617017
0.146243
-0.0484685
0.148513
-0.0347879
-0.0187438
0.0492002
0.0174601
0.0876812
-0.0234683
0.112718
-0.0876579
0.127894
-0.0946024
0.137654
-0.0921663
0.143795
-0.0791652
0.147635
-0.065542
0.149707
-0.0505408
0.150803
-0.0358833
-0.0188198
0.0475331
-0.0209193
0.0926586
-0.0685939
0.118492
-0.113491
0.134323
-0.110434
0.143631
-0.101473
0.149087
-0.084622
0.151955
-0.0684097
0.153034
-0.0516198
0.15315
-0.0359991
-0.018156
0.046971
-0.0628683
0.0964728
-0.118096
0.122987
-0.140005
0.13955
-0.126997
0.148512
-0.110435
0.153492
-0.0896018
0.155614
-0.0705314
0.155953
-0.0519593
0.15532
-0.0353663
-0.0169294
0.0462977
-0.106814
0.0985093
-0.170307
0.125996
-0.167492
0.143272
-0.144273
0.152122
-0.119286
0.156834
-0.0943141
0.158482
-0.0721793
0.158339
-0.0518156
0.157208
-0.0342362
-0.0153181
0.0454921
0.0986836
0.127326
0.145167
0.154319
0.158991
0.160502
0.16015
0.158778
0.0321329
0.0236912
-0.0558241
0.0239333
0.00819957
0.022016
0.00191737
0.0238531
-0.00183713
0.0265814
-0.00272828
0.0292678
-0.00268639
0.0313328
-0.00206499
0.0331746
-0.00184181
0.0336618
-0.000487202
0.000349665
0.097594
0.0700901
-0.143993
0.0738238
0.0319698
0.0670914
0.00864976
0.0691889
-0.00393465
0.0739466
-0.00748591
0.0790717
-0.00781154
0.0833122
-0.00630543
0.086793
-0.00532262
0.0882638
-0.00195805
0.000256715
0.13311
0.108972
-0.171992
0.104603
0.0604775
0.0964748
0.0167775
0.0985724
-0.00603228
0.104537
-0.0134505
0.111228
-0.0145026
0.116999
-0.0120766
0.121477
-0.00980069
0.123956
-0.00443669
-0.000619511
0.140857
0.133312
-0.165196
0.114715
0.0866198
0.106684
0.0248083
0.109882
-0.00923044
0.117439
-0.0210078
0.125363
-0.0224267
0.132299
-0.0190119
0.137668
-0.0151698
0.141331
-0.00809964
-0.00242439
0.133493
-0.148434
0.113057
0.108243
0.112379
0.120777
0.129377
0.136956
0.142829
0.147264
0.00482335
0.000108311
-0.00493166
0.00540914
-0.00058579
0.00668465
-0.00127551
0.00890503
-0.00222037
0.0126043
-0.00369926
0.0184076
-0.00580334
0.0266909
-0.00828327
0.036881
-0.0101901
0.0476827
-0.0108017
-0.00814142
0.0130373
0.000156572
-0.0130855
0.0148727
-0.00242122
0.0188018
-0.00520465
0.0255954
-0.00901398
0.0363151
-0.0144189
0.0517313
-0.0212196
0.0715748
-0.0281267
0.094567
-0.0331823
0.120075
-0.0363094
-0.0320596
0.0202375
-3.01888e-05
-0.0200507
0.023306
-0.00548967
0.0296125
-0.0115112
0.0400248
-0.0194263
0.0551902
-0.0295843
0.0749973
-0.0410266
0.0980923
-0.0512218
0.122806
-0.0578961
0.147618
-0.0611209
-0.0564344
0.0266573
-0.000587546
-0.0261
0.0308788
-0.00971114
0.0391214
-0.0197538
0.0519221
-0.032227
0.0689356
-0.0465977
0.0887005
-0.0607916
0.109114
-0.0716355
0.129048
-0.0778299
0.147059
-0.0791322
-0.0745714
0.0324272
-0.0313916
0.0376898
0.047378
0.0614412
0.0785164
0.0963199
0.112742
0.126653
0.137149
0.0437498
-0.0339071
0.0424164
-0.0522591
0.0368321
-0.0310345
0.0379523
0.0312745
-0.0287742
0.0343317
0.0264077
-0.0270692
0.0319361
0.021664
-0.0259086
0.0306523
0.016724
-0.0250449
0.0299849
0.0115847
-0.0238885
0.0290278
0.00653413
-0.0216
0.0266505
0.0022215
-0.0170773
0.02139
-0.0084075
0.010629
0.0434563
-0.0270722
-0.0502912
0.037385
-0.0249632
0.0317872
-0.0231764
0.0265245
-0.0218066
0.0214056
-0.0207898
0.016286
-0.0199253
0.0111816
-0.0187841
0.00630948
-0.0167279
0.00218813
-0.012956
-0.00621937
0.0416396
-0.0205984
-0.0481135
0.0355912
-0.0189148
0.0300086
-0.0175938
0.0247856
-0.0165836
0.0197969
-0.015801
0.0149371
-0.0150655
0.0101977
-0.0140446
0.00573441
-0.0122646
0.00198447
-0.00920604
-0.00423491
0.0406916
-0.0142158
-0.0470741
0.0348015
-0.0130246
0.0293194
-0.0121118
0.0241483
-0.0114125
0.0191938
-0.0108465
0.0143961
-0.0102678
0.00977411
-0.00942265
0.00547866
-0.00796913
0.00190323
-0.00563061
-0.00233167
0.0398718
-0.00804781
-0.0460399
0.0341334
-0.00728614
0.028746
-0.00672446
0.0236206
-0.00628705
0.0186774
-0.00590336
0.0138766
-0.005467
0.0092631
-0.00480911
0.00503466
-0.00374069
0.00165296
-0.00224891
-0.000678718
0.0393302
-0.00202381
-0.0453542
0.0337043
-0.00166021
0.0283858
-0.00140592
0.0232811
-0.00118239
0.0183098
-0.000932037
0.0134366
-0.000593764
0.00872945
-0.00010201
0.00447369
0.000515069
0.0012918
0.000932975
0.000613085
0.0394263
0.00398593
-0.0454361
0.0338158
0.00395029
0.0285129
0.003897
0.0234222
0.0039083
0.0184665
0.00402369
0.0136245
0.00424824
0.00899315
0.00452933
0.00485724
0.00465097
0.0016599
0.00413032
0.00227298
0.0399967
0.010047
-0.0460578
0.034353
0.00959398
0.0290371
0.00921283
0.0239534
0.00899203
0.0190286
0.00894847
0.0142464
0.0090305
0.0096877
0.009088
0.00554479
0.00879389
0.00208962
0.00758548
0.0043626