/*--------------------------------*- C++ -*----------------------------------*\
| =========                 |                                                 |
| \\      /  F ield         | OpenFOAM: The Open Source CFD Toolbox           |
|  \\    /   O peration     | Version:  2406                                  |
|   \\  /    A nd           | Website:  www.openfoam.com                      |
|    \\/     M anipulation  |                                                 |
\*---------------------------------------------------------------------------*/
FoamFile
{
    version     2.0;
    format      ascii;
    arch        "LSB;label=32;scalar=64";
    class       volVectorField;
    location    "0.25";
    object      U;
}
// * * * * * * * * * * * * * * * * * * * * * * * * * * * * * * * * * * * * * //

dimensions      [0 1 -1 0 0 0 0];

internalField   nonuniform List<vector> 
1800
(
(-0.0476304 0.0539189 0)
(-0.0328967 0.0522159 7.14918e-20)
(0.0503728 0.0169964 1.13162e-19)
(0.1452 -0.011607 8.52007e-20)
(0.223642 -0.0197018 6.532e-20)
(0.288731 -0.0105632 2.81427e-20)
(0.347085 0.00768028 7.34797e-20)
(0.407395 0.0263041 1.78635e-19)
(0.482589 0.0369569 0)
(0.558285 0.0431025 1.72481e-19)
(-0.0351998 0.0347098 -7.49019e-21)
(0.000677008 0.0182788 -2.93942e-20)
(0.125003 -0.030522 4.16444e-20)
(0.24248 -0.0651989 -8.93753e-20)
(0.332512 -0.0765201 8.54426e-20)
(0.403173 -0.0721542 1.18801e-19)
(0.465337 -0.0624144 7.22468e-21)
(0.531593 -0.0566086 -2.49858e-19)
(0.616936 -0.0627755 1.75985e-19)
(0.720792 -0.0874417 -5.21571e-20)
(-0.0219608 0.0200067 3.7152e-20)
(0.0524346 -0.013045 -1.76344e-19)
(0.213858 -0.0653936 -1.81856e-19)
(0.348598 -0.0968125 -3.81621e-21)
(0.445369 -0.103658 -4.97636e-20)
(0.517687 -0.0952584 -1.47753e-19)
(0.580225 -0.0823265 -1.27796e-19)
(0.648126 -0.0746685 3.24534e-19)
(0.741032 -0.0806479 -2.18291e-19)
(0.873096 -0.11337 -5.63623e-19)
(-0.00590605 0.00627575 2.62758e-20)
(0.125222 -0.0414614 1.20023e-19)
(0.317603 -0.0914659 -2.83839e-20)
(0.466899 -0.116227 1.85965e-21)
(0.569457 -0.117442 1.91085e-20)
(0.644338 -0.104965 5.29401e-20)
(0.709635 -0.0891237 2.18117e-19)
(0.783229 -0.0794987 1.14217e-19)
(0.887961 -0.0849749 -6.30472e-20)
(1.04289 -0.12208 -1.75576e-20)
(0.0201096 -0.00289848 -2.33694e-21)
(0.21334 -0.0609252 9.61044e-20)
(0.432859 -0.103109 -4.31599e-20)
(0.593046 -0.118447 2.09931e-20)
(0.69957 -0.112631 1.47438e-20)
(0.776491 -0.095089 -2.00006e-20)
(0.844434 -0.075108 -6.48946e-20)
(0.923148 -0.0613696 -1.80615e-19)
(1.03816 -0.0621338 2.29547e-19)
(1.21227 -0.0923685 2.27534e-19)
(0.0635731 -0.0127146 3.26992e-22)
(0.313291 -0.0705396 7.60173e-20)
(0.555323 -0.100583 8.36299e-20)
(0.723167 -0.10563 -1.87122e-20)
(0.831935 -0.0932351 -6.05153e-20)
(0.910082 -0.0717472 -7.55365e-21)
(0.9802 -0.0491035 -8.02235e-20)
(1.06392 -0.0326229 -1.52982e-19)
(1.18911 -0.0295419 2.47102e-19)
(1.38038 -0.0528998 1.34851e-19)
(0.116419 -0.0198405 -2.15591e-20)
(0.420141 -0.0688853 -1.59191e-19)
(0.679939 -0.0838078 1.50704e-20)
(0.851443 -0.0782755 9.53123e-20)
(0.959935 -0.060145 -8.92852e-21)
(1.0378 -0.0359798 4.01663e-20)
(1.10927 -0.0117828 6.39473e-20)
(1.19797 0.00712872 -2.03301e-19)
(1.33408 0.0152142 -2.60215e-19)
(1.54094 0.00463892 -2.63291e-20)
(0.175905 -0.0207824 1.60471e-20)
(0.529454 -0.0536396 5.72034e-20)
(0.800814 -0.0521628 -3.5867e-20)
(0.971194 -0.0372839 2.83851e-20)
(1.07632 -0.0155523 -3.79341e-21)
(1.1522 0.00872613 -4.08783e-20)
(1.22471 0.0319098 1.51557e-20)
(1.32016 0.051043 -8.87476e-20)
(1.47066 0.0627237 2.31399e-20)
(1.69367 0.0648164 -3.72168e-20)
(0.238346 -0.0135388 6.01605e-20)
(0.635029 -0.0238924 7.40559e-20)
(0.910726 -0.00639359 -1.91697e-19)
(1.07464 0.0155259 -6.51789e-20)
(1.17307 0.0383329 -1.5804e-20)
(1.24544 0.0606081 3.23628e-20)
(1.31943 0.0815082 -1.95806e-20)
(1.42421 0.10058 -2.22695e-20)
(1.59115 0.11707 8.26679e-20)
(1.82533 0.132232 5.77047e-20)
(0.299403 0.00282593 7.80946e-20)
(0.729469 0.0198686 1.6904e-19)
(1.00198 0.0514299 -2.11037e-19)
(1.15502 0.0770866 -5.98786e-20)
(1.24489 0.0982775 2.56265e-20)
(1.31378 0.117124 -8.37238e-20)
(1.39093 0.1354 5.0394e-20)
(1.50774 0.154844 5.34936e-20)
(1.69029 0.176586 -4.62753e-20)
(1.9279 0.201473 -4.71263e-20)
(-0.00841767 0.0970578 -2.88276e-20)
(-0.0131768 0.129554 1.07889e-19)
(-0.0172673 0.134524 6.76975e-20)
(-0.0200471 0.132443 -7.50979e-20)
(-0.020939 0.12299 -7.25789e-21)
(-0.0194601 0.108915 4.40391e-20)
(-0.0169243 0.0927406 3.37303e-20)
(-0.0134593 0.0731724 -7.34217e-20)
(-0.00872202 0.0467337 3.51126e-22)
(-0.000935991 0.00908995 2.82569e-20)
(-0.0168639 0.106875 4.04791e-20)
(-0.0238505 0.138079 1.02429e-23)
(-0.0280253 0.141384 5.05738e-20)
(-0.0301515 0.135695 -1.16877e-19)
(-0.0292592 0.121835 -1.67225e-19)
(-0.0260189 0.105025 -5.75193e-20)
(-0.0217727 0.0866795 1.04197e-19)
(-0.016234 0.0642678 0)
(-0.0088007 0.0334233 -1.45857e-20)
(0.00301876 -0.0108317 5.75296e-20)
(-0.0271269 0.115169 -3.56203e-23)
(-0.0354865 0.144766 -1.62277e-19)
(-0.0390752 0.146673 -8.58532e-20)
(-0.0394703 0.137094 1.03888e-19)
(-0.0356636 0.119162 -8.31635e-20)
(-0.0299647 0.100098 -3.99097e-20)
(-0.0234069 0.0799598 -6.51764e-20)
(-0.0150782 0.0551065 -3.45542e-20)
(-0.00413067 0.0201699 -1.31408e-19)
(0.0129749 -0.0301618 -2.21558e-19)
(-0.038376 0.121694 3.82335e-20)
(-0.0472025 0.148328 2.52889e-20)
(-0.0497639 0.149401 2.96489e-21)
(-0.0471464 0.135742 5.21259e-20)
(-0.0394723 0.114389 -3.50781e-21)
(-0.0307561 0.0937164 7.63352e-20)
(-0.0213515 0.072327 -2.55332e-20)
(-0.00987499 0.0455931 0)
(0.00535885 0.00723991 1.48691e-19)
(0.0291377 -0.0483652 5.35181e-20)
(-0.0494886 0.125709 -8.47874e-20)
(-0.0578293 0.147852 3.66405e-20)
(-0.0593589 0.148965 1.6431e-19)
(-0.0522161 0.131355 1.16796e-21)
(-0.0399535 0.107451 2.60862e-20)
(-0.0278071 0.0858803 1.01315e-19)
(-0.0151888 0.0639197 -7.62826e-20)
(-0.000148575 0.0361969 -4.67046e-21)
(0.0197723 -0.00441284 1.24822e-19)
(0.0508361 -0.0641336 1.77063e-19)
(-0.0591196 0.126942 -9.06769e-20)
(-0.0668226 0.143875 -6.92577e-21)
(-0.0671403 0.144727 -1.41457e-19)
(-0.0530535 0.123385 -5.31598e-20)
(-0.0355248 0.098221 1.13125e-19)
(-0.0195352 0.0767292 7.10938e-20)
(-0.00334607 0.0551029 6.85748e-20)
(0.0155027 0.0276026 -1.45957e-19)
(0.0404086 -0.0137781 6.72696e-20)
(0.0797397 -0.076201 2.27812e-19)
(-0.0640748 0.121832 3.97395e-20)
(-0.0728369 0.138009 1.35114e-20)
(-0.0698339 0.135893 3.7996e-20)
(-0.0458062 0.111667 3.16766e-20)
(-0.0227492 0.0875851 -1.28197e-19)
(-0.00263366 0.0676209 -1.15448e-19)
(0.017283 0.047361 1.01139e-19)
(0.039851 0.0212085 -1.43099e-19)
(0.0695904 -0.019367 -6.15037e-20)
(0.118148 -0.0831321 -1.34513e-20)
(-0.0661834 0.1084 1.39126e-21)
(-0.0761993 0.130554 -6.73954e-21)
(-0.0609892 0.120418 7.11459e-20)
(-0.0269191 0.0967164 -3.27287e-21)
(0.00304398 0.0771514 -1.19958e-19)
(0.0286614 0.0617433 -2.20647e-20)
(0.0533478 0.0450753 9.00727e-20)
(0.0801712 0.021801 9.76554e-20)
(0.114585 -0.0158401 2.10147e-19)
(0.174476 -0.0779546 -4.7553e-20)
(-0.0637874 0.0911022 -5.0464e-21)
(-0.0699256 0.110576 3.98504e-20)
(-0.0392094 0.0952915 -1.02734e-22)
(0.00839552 0.0733345 -1.53724e-19)
(0.0488585 0.0607961 -2.92824e-20)
(0.0829818 0.0556477 8.47238e-20)
(0.115164 0.0492611 1.15578e-19)
(0.14874 0.0331817 1.37474e-19)
(0.189735 0.00100159 -8.26712e-22)
(0.263839 -0.0536701 -1.13131e-19)
(-0.057897 0.0723869 3.20786e-20)
(-0.0566217 0.0830989 -1.17148e-20)
(-0.00577086 0.0598203 3.74812e-20)
(0.0615317 0.036588 9.46221e-20)
(0.118001 0.0294655 -4.84425e-20)
(0.164172 0.0368802 1.53196e-19)
(0.205488 0.0500808 -1.4213e-19)
(0.249191 0.0556349 -1.52134e-19)
(0.304266 0.0420382 -2.49162e-19)
(0.394624 0.00840301 -8.85266e-20)
(0.0710682 -0.240012 -3.22378e-19)
(0.356244 -0.347056 -2.13877e-19)
(0.551699 -0.29308 -4.14325e-20)
(0.655421 -0.238536 -2.06462e-20)
(0.72609 -0.185938 3.75718e-20)
(0.765478 -0.141919 1.85054e-21)
(0.784644 -0.104641 -3.51997e-20)
(0.798611 -0.0724726 1.14312e-20)
(0.798026 -0.0458943 -6.82114e-21)
(0.799221 -0.0186722 -3.03641e-21)
(0.104978 -0.298343 -2.278e-19)
(0.36619 -0.418408 1.16625e-20)
(0.560326 -0.335662 -4.9669e-20)
(0.661939 -0.266044 1.87904e-21)
(0.732216 -0.201932 3.00104e-20)
(0.770998 -0.151129 -5.41676e-20)
(0.789878 -0.109402 2.15698e-20)
(0.803439 -0.0745112 1.75335e-22)
(0.803294 -0.0463951 -1.3351e-20)
(0.804334 -0.0185265 8.85216e-21)
(0.151018 -0.351425 7.14229e-19)
(0.375654 -0.484857 2.40296e-19)
(0.566213 -0.378748 2.52294e-20)
(0.66442 -0.294334 2.46522e-20)
(0.734603 -0.218822 -4.65578e-20)
(0.773126 -0.160937 7.08677e-22)
(0.792268 -0.11453 8.91968e-21)
(0.806004 -0.076839 -1.3035e-20)
(0.80689 -0.0471219 -5.5166e-22)
(0.808459 -0.0184985 -1.06416e-21)
(0.207144 -0.39815 5.07481e-19)
(0.386309 -0.543471 -5.74428e-21)
(0.570811 -0.423284 5.55252e-21)
(0.664594 -0.323314 -1.9293e-20)
(0.734315 -0.236917 1.35871e-20)
(0.772805 -0.171279 1.0858e-20)
(0.79266 -0.120173 -1.84135e-20)
(0.80723 -0.0795723 0)
(0.809427 -0.0482485 0)
(0.812281 -0.0186524 2.88081e-23)
(0.268932 -0.435313 -2.10037e-19)
(0.406759 -0.591747 -2.86279e-19)
(0.580587 -0.466765 -5.22134e-21)
(0.668049 -0.352726 1.77583e-20)
(0.735709 -0.255703 8.92682e-21)
(0.773542 -0.182288 5.16959e-20)
(0.793885 -0.126465 6.23995e-22)
(0.809632 -0.0828375 -8.34252e-21)
(0.813031 -0.0498921 -2.35358e-20)
(0.817828 -0.0190067 -1.61429e-21)
(0.341906 -0.464452 -2.68659e-19)
(0.455569 -0.632172 -1.32621e-19)
(0.613702 -0.508353 -1.64152e-19)
(0.689321 -0.38164 3.38892e-21)
(0.749889 -0.274883 -3.68101e-20)
(0.783872 -0.194012 2.94163e-20)
(0.802667 -0.133546 1.0748e-20)
(0.81876 -0.0868275 -3.81028e-20)
(0.822714 -0.0522309 3.63293e-22)
(0.82989 -0.0196659 -1.3049e-20)
(0.427193 -0.489877 1.20043e-19)
(0.551391 -0.673037 2.20373e-20)
(0.692062 -0.548611 9.68722e-20)
(0.74896 -0.408636 -3.15712e-20)
(0.794421 -0.292511 -2.59486e-21)
(0.818784 -0.204988 -3.99651e-20)
(0.831814 -0.140487 -5.146e-22)
(0.8456 -0.0911754 9.94833e-21)
(0.84872 -0.0552421 1.04814e-20)
(0.858016 -0.0207965 6.51751e-21)
(0.545151 -0.50897 2.95938e-19)
(0.703195 -0.713277 1.29147e-18)
(0.829022 -0.588842 1.65157e-19)
(0.86313 -0.435478 1.33974e-20)
(0.886265 -0.310106 2.72808e-20)
(0.894687 -0.216159 4.06861e-20)
(0.896632 -0.147805 -3.88807e-20)
(0.904078 -0.0961223 3.06295e-20)
(0.903623 -0.0588885 -4.11928e-22)
(0.913347 -0.0224477 -2.63313e-21)
(0.722762 -0.527819 8.05039e-19)
(0.91378 -0.750199 4.69799e-19)
(1.01505 -0.623683 -3.95617e-19)
(1.03 -0.454634 9.89619e-20)
(1.03374 -0.319967 -1.08556e-21)
(1.02641 -0.221067 2.27827e-21)
(1.01541 -0.150694 1.44823e-20)
(1.01408 -0.0982783 -6.72816e-22)
(1.00706 -0.0611427 -6.53848e-21)
(1.01506 -0.0244182 -4.29612e-21)
(0.9425 -0.529372 5.32776e-20)
(1.16048 -0.791677 -9.48593e-19)
(1.21719 -0.665799 -3.39507e-19)
(1.20392 -0.482709 1.00229e-19)
(1.18757 -0.337294 -1.85325e-20)
(1.16765 -0.231644 3.04562e-21)
(1.14732 -0.157247 -5.01511e-22)
(1.13989 -0.102152 1.26088e-21)
(1.13072 -0.0639168 -1.22155e-21)
(1.13622 -0.0261337 -6.76316e-22)
(1.51706 -0.583655 -6.90124e-20)
(1.55153 -0.732028 -1.26675e-19)
(1.55972 -0.630631 -3.83458e-20)
(1.50061 -0.461515 -8.18744e-20)
(1.44494 -0.319847 4.50197e-20)
(1.39892 -0.218224 6.68066e-21)
(1.35946 -0.148096 1.38828e-20)
(1.33826 -0.09729 9.27974e-21)
(1.31856 -0.0623535 -1.92008e-20)
(1.31591 -0.0271343 2.28948e-21)
(1.68081 -0.855404 -3.59134e-19)
(1.74073 -0.904486 -5.99893e-20)
(1.75458 -0.696879 1.01383e-19)
(1.69834 -0.473591 -2.47707e-20)
(1.6387 -0.314151 1.34737e-19)
(1.58762 -0.21001 1.10241e-19)
(1.54231 -0.139609 8.0495e-20)
(1.5154 -0.0909352 -9.59564e-21)
(1.49564 -0.0579573 3.72395e-20)
(1.48581 -0.0249464 9.8838e-21)
(2.41514 -0.692147 -1.34704e-19)
(2.17194 -0.746419 -5.59577e-20)
(2.03554 -0.606826 5.3609e-20)
(1.91263 -0.413283 1.11153e-35)
(1.81984 -0.269459 -1.19121e-20)
(1.75145 -0.177233 -3.78109e-34)
(1.69479 -0.117009 2.63197e-21)
(1.66024 -0.0774404 -8.04842e-35)
(1.63183 -0.0504808 3.55743e-22)
(1.61994 -0.0229104 -2.24937e-21)
(2.64356 -0.699476 -2.58174e-19)
(2.37923 -0.752005 1.22288e-19)
(2.20851 -0.596687 -5.67187e-20)
(2.03841 -0.392724 0)
(1.91489 -0.246926 -9.22233e-20)
(1.83191 -0.15834 -7.02769e-20)
(1.76806 -0.102707 -5.11953e-20)
(1.72855 -0.066835 2.25151e-34)
(1.69811 -0.043439 -1.79935e-20)
(1.68599 -0.0200859 1.51998e-21)
(2.86665 -0.541286 -2.34764e-19)
(2.573 -0.603553 1.9265e-20)
(2.34051 -0.490796 0)
(2.12241 -0.318162 0)
(1.9684 -0.194071 0)
(1.87046 -0.121848 0)
(1.7993 -0.0780505 1.36922e-21)
(1.75444 -0.0505751 2.78511e-34)
(1.71997 -0.0335735 -1.16353e-22)
(1.70382 -0.0172191 1.46115e-34)
(2.92935 -0.467422 9.87843e-20)
(2.64869 -0.526753 0)
(2.39003 -0.409657 0)
(2.14264 -0.253619 0)
(1.96857 -0.147748 0)
(1.86198 -0.0908383 0)
(1.78842 -0.0578221 -3.3117e-21)
(1.74316 -0.0373363 3.69473e-20)
(1.70949 -0.0260206 -3.54816e-22)
(1.69503 -0.0147707 9.17675e-21)
(2.94087 -0.387708 0)
(2.61685 -0.412157 2.76316e-20)
(2.31507 -0.299679 -5.41481e-20)
(2.0537 -0.173872 0)
(1.88008 -0.0940494 -6.55069e-20)
(1.77823 -0.0556101 -4.57041e-20)
(1.71049 -0.0349226 -3.51294e-20)
(1.66877 -0.021832 -2.06854e-20)
(1.63983 -0.0164493 2.40591e-20)
(1.62144 -0.0109529 -5.09017e-21)
(2.7911 -0.30457 -8.48916e-20)
(2.3619 -0.286745 2.00528e-20)
(2.02403 -0.184632 -1.763e-20)
(1.77515 -0.0961153 2.11986e-37)
(1.62636 -0.0449403 1.14811e-20)
(1.54346 -0.0244279 -2.7592e-34)
(1.48963 -0.014762 -4.65964e-21)
(1.45626 -0.00885785 -8.51269e-21)
(1.43439 -0.00762846 -7.55704e-22)
(1.41467 -0.00669126 1.2976e-21)
(2.14456 -0.161888 0)
(1.68289 -0.104498 2.13103e-20)
(1.39756 -0.0570441 3.29067e-20)
(1.21351 -0.0242473 0)
(1.12174 -0.00520617 2.63762e-20)
(1.07682 -0.000889964 1.67233e-20)
(1.04925 -0.000293585 5.53514e-21)
(1.03275 -9.46684e-05 6.54817e-21)
(1.02353 -0.00136391 -9.03069e-21)
(1.00748 -0.00256913 -7.43092e-23)
(0.728518 -0.0355482 -2.71533e-20)
(0.552879 -0.0102698 0)
(0.463695 -0.00706382 0)
(0.402818 -0.00219149 0)
(0.38924 0.00142017 0)
(0.389417 0.00152476 0)
(0.390958 0.00112933 -5.20206e-21)
(0.392813 0.000788102 1.6043e-35)
(0.393929 0.000407652 -9.59906e-22)
(0.389183 -0.000327761 -1.74457e-21)
(2.40815 0.250872 3.56339e-19)
(2.3482 0.170723 2.01975e-19)
(2.25495 0.0816515 2.20583e-19)
(2.10815 -0.00619913 -2.53396e-19)
(1.95127 -0.107691 3.13437e-20)
(1.73213 -0.182268 -5.24106e-20)
(1.56605 -0.26512 2.52356e-19)
(1.29573 -0.270239 6.96084e-20)
(1.23876 -0.340831 -4.60296e-19)
(0.879837 -0.146138 -2.33645e-19)
(2.89105 0.222487 -3.06991e-19)
(2.91259 0.13968 6.3385e-20)
(2.90997 0.0428303 2.64385e-19)
(2.84726 -0.0522607 2.33104e-19)
(2.77075 -0.166581 -4.03877e-19)
(2.60094 -0.250042 2.45779e-19)
(2.46554 -0.381111 1.27937e-19)
(2.18315 -0.411453 3.39271e-20)
(2.06468 -0.561599 1.56922e-19)
(1.64464 -0.486482 2.02866e-19)
(3.10954 0.149381 3.59359e-20)
(3.16539 0.0774741 -2.50954e-19)
(3.20581 -0.000904454 -3.46567e-19)
(3.18824 -0.0934216 8.45088e-19)
(3.18548 -0.186596 -1.09774e-19)
(3.07056 -0.290565 2.05921e-19)
(3.038 -0.389638 -2.72861e-19)
(2.78867 -0.484527 -2.73903e-19)
(2.75791 -0.579474 -2.42439e-19)
(2.37985 -0.648186 -7.49813e-20)
(3.15919 0.0768072 9.69538e-20)
(3.21364 0.00965885 -3.75356e-19)
(3.26916 -0.0523903 1.85673e-19)
(3.28153 -0.123365 -3.50432e-19)
(3.30435 -0.195468 3.33846e-19)
(3.24561 -0.281944 -2.62701e-19)
(3.24764 -0.364936 -4.81596e-20)
(3.10059 -0.452014 4.63393e-20)
(3.0688 -0.536373 2.92902e-19)
(2.85162 -0.618158 3.44234e-19)
(3.17937 0.0222095 1.04189e-19)
(3.21461 -0.0381462 -4.14199e-19)
(3.25517 -0.0873295 4.21044e-20)
(3.26684 -0.143797 -1.96904e-19)
(3.29629 -0.191472 -7.70149e-20)
(3.26071 -0.262356 -1.05455e-21)
(3.27035 -0.31629 3.64242e-19)
(3.17484 -0.389054 -1.95267e-20)
(3.15582 -0.443235 -7.18969e-20)
(3.02036 -0.523239 -1.06395e-19)
(3.17927 -0.00593821 2.15517e-19)
(3.2011 -0.0605703 6.40053e-20)
(3.22489 -0.101432 -2.40835e-19)
(3.22753 -0.147088 6.64292e-20)
(3.2444 -0.179881 1.95128e-19)
(3.21353 -0.229295 1.61734e-19)
(3.21947 -0.26757 -4.8787e-20)
(3.15192 -0.307066 -2.73819e-19)
(3.13925 -0.356566 6.14623e-20)
(3.05217 -0.393664 1.0403e-20)
(3.1368 -0.0287612 -1.27768e-20)
(3.15077 -0.0733234 1.14534e-19)
(3.16282 -0.103116 -9.44408e-20)
(3.16149 -0.138183 2.16966e-20)
(3.16665 -0.15688 2.22381e-19)
(3.14225 -0.192764 -1.24113e-19)
(3.14241 -0.215622 7.31339e-21)
(3.09476 -0.234355 1.17562e-19)
(3.08409 -0.278182 1.06274e-19)
(3.02645 -0.288805 8.85972e-20)
(2.94806 -0.039088 4.1881e-21)
(2.95631 -0.0713871 -1.59804e-21)
(2.95655 -0.0890631 -6.78227e-20)
(2.95876 -0.115518 -3.75088e-20)
(2.94913 -0.117384 -9.44607e-20)
(2.95358 -0.152204 2.79817e-21)
(2.93033 -0.150124 7.07795e-20)
(2.93693 -0.168444 -6.98844e-20)
(2.90359 -0.203274 1.11957e-19)
(2.90683 -0.196761 1.50223e-19)
(2.35284 -0.0482126 7.92089e-20)
(2.34231 -0.0571388 -2.38275e-20)
(2.32869 -0.0621794 -1.28148e-20)
(2.32298 -0.0693653 1.81291e-20)
(2.30741 -0.0704924 1.22931e-20)
(2.32171 -0.0849943 3.85128e-20)
(2.28648 -0.0738691 -1.11049e-19)
(2.34107 -0.104318 -3.63871e-20)
(2.26879 -0.0922536 2.30454e-20)
(2.35109 -0.106769 -2.14723e-20)
(1.03591 -0.0119898 0)
(1.01339 -0.0123373 3.28135e-21)
(0.991724 -0.013651 -3.52162e-20)
(0.972928 -0.0154478 -3.36353e-20)
(0.956917 -0.0173429 1.15749e-20)
(0.944373 -0.0183223 -4.36714e-20)
(0.934086 -0.0202405 -6.85948e-21)
(0.929266 -0.0202635 1.49849e-19)
(0.911384 -0.0239855 4.42436e-20)
(0.930425 -0.0440888 -7.22724e-21)
(1.05426 0.651726 -6.13034e-20)
(0.837288 0.560423 -1.27424e-19)
(0.715125 0.515493 -2.45159e-19)
(0.651733 0.49612 -8.97478e-20)
(0.619253 0.490161 2.54627e-19)
(0.597835 0.493727 -6.24127e-20)
(0.581894 0.490994 -9.20239e-20)
(0.549411 0.476945 3.47939e-20)
(0.475502 0.426944 -1.45343e-19)
(0.27352 0.251668 -4.50239e-21)
(1.43295 0.650556 -2.80627e-19)
(1.18778 0.546437 6.15263e-19)
(0.981372 0.472346 2.52067e-19)
(0.84453 0.437297 -2.7041e-20)
(0.768694 0.429779 4.76886e-20)
(0.723587 0.437847 9.80001e-21)
(0.685315 0.447467 6.35181e-20)
(0.635474 0.443197 -2.07892e-19)
(0.54063 0.4018 -5.66732e-20)
(0.307503 0.23737 -4.36205e-20)
(1.65994 0.642841 9.88433e-20)
(1.42691 0.540959 4.64305e-19)
(1.20155 0.458361 4.49912e-21)
(1.03173 0.413174 -7.75936e-20)
(0.925759 0.400479 1.11357e-19)
(0.860212 0.408551 1.25688e-19)
(0.806871 0.422405 -4.53739e-20)
(0.740661 0.423635 -1.45081e-19)
(0.621897 0.386201 2.06063e-19)
(0.34816 0.226783 -1.36939e-19)
(1.78703 0.614468 -3.12676e-19)
(1.56946 0.522148 1.95607e-19)
(1.3509 0.444324 -2.98553e-19)
(1.17695 0.398939 -7.46442e-20)
(1.06166 0.384789 2.48084e-19)
(0.987081 0.391868 -1.63542e-19)
(0.92546 0.405598 -2.14855e-19)
(0.847648 0.407428 1.51491e-19)
(0.706932 0.369941 -1.11572e-19)
(0.389071 0.213914 -6.59265e-21)
(1.87223 0.570518 3.78418e-19)
(1.6665 0.492639 2.6766e-19)
(1.4587 0.426156 -7.51377e-20)
(1.28971 0.385574 2.71892e-19)
(1.175 0.371977 -3.32669e-20)
(1.0985 0.37709 -1.41912e-19)
(1.03259 0.387471 4.90415e-20)
(0.945587 0.38593 -1.72918e-19)
(0.783893 0.345506 -1.84875e-19)
(0.42306 0.194801 -5.45286e-20)
(1.93732 0.522534 5.28974e-19)
(1.73688 0.458512 5.08854e-19)
(1.53606 0.402506 -3.87752e-19)
(1.37361 0.366931 -2.80402e-19)
(1.26397 0.353953 1.6966e-20)
(1.18937 0.355873 -2.31484e-19)
(1.1212 0.360682 4.34905e-20)
(1.02586 0.353643 -8.489e-20)
(0.843344 0.308305 9.75782e-20)
(0.443641 0.167132 4.50284e-20)
(1.98673 0.471281 4.76002e-19)
(1.78458 0.416988 -5.12617e-19)
(1.58572 0.369114 -3.74919e-19)
(1.42992 0.337685 1.27801e-19)
(1.32727 0.324791 -1.66943e-19)
(1.25579 0.322529 3.67787e-19)
(1.18586 0.320784 1.87807e-20)
(1.08186 0.307683 -3.27113e-19)
(0.877559 0.258864 1.30398e-19)
(0.446616 0.133394 5.3092e-20)
(2.01341 0.412955 -3.24081e-19)
(1.80434 0.367383 -3.61558e-19)
(1.60655 0.326 -3.09709e-19)
(1.45874 0.29746 4.82306e-20)
(1.3636 0.283706 1.70965e-19)
(1.29497 0.276743 1.31681e-19)
(1.22294 0.268899 -7.7556e-21)
(1.10876 0.250443 1.0034e-19)
(0.882675 0.200051 4.31117e-20)
(0.43175 0.096315 6.1881e-20)
(2.01654 0.345519 1.19432e-19)
(1.79643 0.306289 -8.09126e-20)
(1.60044 0.271683 1.61899e-19)
(1.46153 0.247134 4.46097e-19)
(1.37328 0.232317 -7.02011e-20)
(1.30628 0.221077 -3.33979e-19)
(1.23069 0.208005 2.97827e-19)
(1.10448 0.185027 3.63436e-19)
(0.858435 0.136679 -2.126e-19)
(0.400222 0.0598949 -7.48472e-20)
(1.98997 0.2745 -2.27742e-19)
(1.75911 0.241504 -2.13008e-21)
(1.56719 0.21324 2.31235e-19)
(1.43843 0.191679 1.45762e-19)
(1.35635 0.175276 1.07474e-19)
(1.28946 0.160121 -2.22713e-19)
(1.20787 0.142461 1.24002e-19)
(1.0683 0.116684 -2.64984e-19)
(0.806156 0.0746657 -2.62693e-19)
(0.354879 0.0277893 2.21372e-20)
(0.224979 0.312449 -2.88952e-20)
(0.201585 0.293928 2.46196e-19)
(0.17876 0.279007 3.14281e-20)
(0.156328 0.269129 -1.58334e-19)
(0.133728 0.263922 -4.39937e-20)
(0.110402 0.261398 -1.00267e-19)
(0.0858898 0.257622 4.99426e-20)
(0.0600558 0.245996 -3.86005e-20)
(0.0335928 0.214547 8.71111e-20)
(0.0139966 0.128113 2.10117e-20)
(0.262609 0.373902 -7.89334e-20)
(0.236614 0.351486 -2.66242e-20)
(0.211657 0.333735 -1.54677e-19)
(0.187783 0.322337 1.39468e-20)
(0.164213 0.316725 2.04244e-20)
(0.140102 0.314463 3.73901e-20)
(0.114653 0.310886 1.66624e-19)
(0.0872838 0.298365 -5.89615e-20)
(0.057066 0.262452 6.20583e-20)
(0.0275152 0.157812 -1.66844e-20)
(0.310089 0.432893 7.34264e-20)
(0.280679 0.406665 1.89169e-19)
(0.253089 0.386121 1.04416e-19)
(0.227501 0.373251 1.50308e-19)
(0.202842 0.367284 3.72743e-20)
(0.177937 0.365328 1.68452e-19)
(0.151591 0.362009 -4.58434e-20)
(0.122605 0.348726 -4.24912e-20)
(0.0880468 0.308668 -1.18121e-22)
(0.0457182 0.186423 1.03394e-20)
(0.366657 0.487422 4.76988e-19)
(0.332845 0.45744 3.40139e-19)
(0.302032 0.434305 -3.55123e-19)
(0.27447 0.420227 -1.4258e-19)
(0.248688 0.414097 -8.87201e-21)
(0.223103 0.412517 -7.606e-20)
(0.196026 0.409442 -1.94944e-19)
(0.165458 0.395449 5.30061e-20)
(0.12611 0.351599 -3.59234e-20)
(0.0683596 0.212925 -7.5947e-20)
(0.432917 0.539939 -1.47581e-19)
(0.39388 0.50643 -3.08261e-19)
(0.3593 0.480139 2.40608e-19)
(0.329321 0.464197 -7.83615e-20)
(0.302113 0.457306 -1.12595e-19)
(0.275662 0.455546 8.6473e-20)
(0.247764 0.452241 3.61108e-20)
(0.21547 0.437302 -1.1021e-19)
(0.170811 0.389881 -1.45311e-19)
(0.0950595 0.236372 5.48275e-20)
(0.493699 0.578752 -2.20898e-20)
(0.450941 0.541791 -1.87698e-20)
(0.413944 0.514298 1.70272e-21)
(0.383217 0.498463 5.09643e-20)
(0.356216 0.492144 1.78721e-19)
(0.330296 0.490817 -1.18443e-19)
(0.30268 0.48737 -7.68504e-20)
(0.269422 0.471509 1.20639e-20)
(0.219749 0.421047 -1.8305e-20)
(0.124591 0.255204 1.03956e-19)
(0.594423 0.626383 -2.14288e-19)
(0.538851 0.585767 9.4048e-20)
(0.492616 0.552732 2.79333e-19)
(0.455465 0.533267 -1.05358e-19)
(0.42437 0.524742 -2.68149e-19)
(0.395796 0.52162 1.79708e-19)
(0.366196 0.516386 3.03479e-19)
(0.330351 0.498689 1.33725e-19)
(0.27419 0.444958 6.97567e-20)
(0.156888 0.269115 1.7325e-19)
(0.610986 0.645776 -3.88233e-19)
(0.559986 0.600936 -9.30001e-20)
(0.519973 0.569794 1.52515e-19)
(0.490703 0.551878 -1.15322e-19)
(0.466987 0.543179 2.15734e-20)
(0.443982 0.539184 2.1135e-19)
(0.418087 0.53293 -1.25009e-19)
(0.383796 0.513724 -1.61872e-19)
(0.324285 0.457578 6.14718e-20)
(0.187467 0.275237 -5.13519e-20)
(0.795953 0.684622 -2.52781e-20)
(0.71167 0.634811 5.48853e-20)
(0.640004 0.589832 -1.59639e-19)
(0.587233 0.564606 -1.83131e-20)
(0.550319 0.554626 2.66433e-19)
(0.521177 0.551712 3.9043e-20)
(0.490667 0.539441 -8.10281e-21)
(0.451281 0.51714 0)
(0.382464 0.459284 -8.8141e-20)
(0.220503 0.275089 -6.91674e-20)
(0.674302 0.716849 0)
(0.632456 0.671781 0)
(0.604437 0.63048 2.9997e-19)
(0.583105 0.595325 9.29749e-23)
(0.566411 0.569764 2.14574e-20)
(0.549694 0.551682 8.89186e-20)
(0.530489 0.535443 4.1455e-20)
(0.498709 0.513735 -1.2267e-19)
(0.428775 0.454248 1.28606e-19)
(0.247456 0.268328 9.46062e-20)
(0.803694 0.30014 -1.50559e-20)
(1.03766 0.33088 -6.24803e-21)
(0.838636 0.227032 6.81265e-21)
(0.86599 0.184511 6.30757e-22)
(0.851101 0.183255 8.66791e-21)
(0.828809 0.191773 2.35091e-20)
(0.788502 0.222097 -1.51119e-20)
(0.733451 0.26421 -3.822e-20)
(0.624364 0.341588 -9.23842e-20)
(0.344225 0.403678 1.87726e-19)
(0.803148 0.312218 -4.2036e-21)
(1.0359 0.345733 1.24425e-20)
(0.833638 0.235839 -4.86109e-22)
(0.863124 0.189255 2.13945e-20)
(0.848114 0.187814 6.26831e-21)
(0.831357 0.199096 -3.0601e-20)
(0.796263 0.236984 -1.21866e-20)
(0.748926 0.288232 -5.54196e-22)
(0.649651 0.396277 2.76665e-19)
(0.3893 0.479077 -1.18554e-20)
(0.802213 0.324639 1.37664e-20)
(1.03326 0.360943 2.72341e-20)
(0.826119 0.244169 -2.6143e-20)
(0.857056 0.193856 -4.20742e-21)
(0.842344 0.191534 -1.02318e-20)
(0.830044 0.20582 4.4187e-21)
(0.800282 0.250767 1.90477e-20)
(0.762711 0.311728 -2.03242e-20)
(0.674937 0.447074 1.06619e-19)
(0.446728 0.551199 -4.86307e-19)
(0.801433 0.33753 9.25129e-21)
(1.03016 0.376673 -4.48359e-21)
(0.815676 0.252268 -2.03382e-20)
(0.847717 0.198004 -4.31256e-20)
(0.835268 0.194575 1.43131e-20)
(0.826074 0.212159 9.69924e-21)
(0.800851 0.263085 -2.14201e-20)
(0.774475 0.33519 9.34889e-20)
(0.702055 0.493829 -9.90035e-20)
(0.516287 0.618533 -4.42288e-19)
(0.801758 0.350919 6.79443e-21)
(1.02707 0.393396 -4.23742e-20)
(0.802161 0.260422 1.58182e-20)
(0.837444 0.200855 8.11754e-20)
(0.829635 0.196562 4.80287e-21)
(0.821277 0.218336 2.64159e-20)
(0.798485 0.274053 2.87979e-20)
(0.782977 0.356799 5.75322e-20)
(0.728766 0.529594 -4.36553e-20)
(0.601037 0.678586 3.4502e-19)
(0.804127 0.36436 3.17224e-21)
(1.02457 0.411695 9.86106e-22)
(0.789632 0.268996 -2.29989e-20)
(0.832 0.202787 1.34957e-20)
(0.826237 0.198145 -2.56805e-20)
(0.817154 0.224591 4.82861e-22)
(0.796352 0.284834 -1.13903e-20)
(0.789486 0.379452 -1.76637e-19)
(0.75606 0.570023 0)
(0.66112 0.734897 -3.60545e-20)
(0.806923 0.377389 -5.34035e-21)
(1.02751 0.430889 3.55677e-20)
(0.791425 0.27778 -4.24942e-22)
(0.836825 0.203123 -2.74726e-20)
(0.827233 0.199517 -1.36329e-20)
(0.819874 0.231528 -3.26294e-20)
(0.80361 0.294322 1.65936e-21)
(0.808112 0.396242 9.92033e-21)
(0.791215 0.578443 -8.78892e-21)
(0.826614 0.770939 1.0806e-18)
(0.813821 0.389031 -1.07534e-19)
(1.04312 0.447207 6.21628e-20)
(0.813454 0.284593 5.5949e-20)
(0.854171 0.203173 2.88297e-20)
(0.850175 0.204196 -5.79612e-20)
(0.842996 0.241745 5.84577e-21)
(0.82748 0.310043 -4.30143e-21)
(0.829425 0.424891 8.0386e-21)
(0.847447 0.625629 1.74829e-19)
(0.785683 0.835593 -1.37099e-19)
(0.820891 0.395815 3.69466e-20)
(1.07885 0.460742 -4.35048e-20)
(0.868119 0.28845 -1.48018e-20)
(0.918396 0.204415 3.39378e-20)
(0.925601 0.206161 3.95602e-21)
(0.921574 0.246509 1.25063e-20)
(0.90909 0.315358 -2.60854e-20)
(0.926057 0.429089 6.15169e-20)
(0.927199 0.610761 3.06537e-19)
(1.07129 0.822841 -7.96101e-19)
(0.834087 0.398236 8.2055e-20)
(1.142 0.467477 -9.00104e-20)
(0.954787 0.285361 -1.37835e-21)
(1.01298 0.202851 1.81247e-20)
(1.02484 0.210524 4.10142e-20)
(1.01996 0.260422 -9.81178e-21)
(1.00834 0.339595 -5.40054e-21)
(1.01664 0.478184 7.64378e-20)
(1.06142 0.656758 2.36375e-20)
(1.03434 0.939838 5.16402e-19)
(0.843815 0.384588 -2.02055e-20)
(1.25863 0.469135 -8.21317e-22)
(1.10508 0.280566 -1.48185e-20)
(1.1646 0.199368 -1.18563e-21)
(1.19583 0.206941 -3.41615e-20)
(1.20868 0.256561 -3.29424e-20)
(1.20301 0.332048 1.67177e-21)
(1.25983 0.454985 -1.61003e-19)
(1.23721 0.650959 -3.94165e-19)
(1.2264 0.839361 -7.97285e-20)
(0.84631 0.330685 -4.65478e-20)
(1.38968 0.436466 -2.62826e-20)
(1.27734 0.265526 1.76581e-20)
(1.33912 0.190532 -4.16597e-20)
(1.38888 0.200412 4.85066e-20)
(1.42042 0.252849 8.89298e-20)
(1.45562 0.326127 1.82936e-20)
(1.48086 0.474335 1.60913e-19)
(1.70012 0.612029 4.65876e-20)
(1.48319 0.807911 5.26282e-19)
(0.833576 0.255118 -2.11999e-20)
(1.47546 0.378512 -1.53831e-20)
(1.41144 0.239678 -6.48509e-21)
(1.49011 0.175258 1.47376e-20)
(1.55549 0.184086 1.81056e-34)
(1.60958 0.229671 -7.19856e-21)
(1.66335 0.307044 -7.10269e-34)
(1.72513 0.403273 2.32073e-20)
(1.99394 0.60465 -9.48105e-20)
(1.77548 0.713655 -3.9485e-19)
(0.817717 0.174639 5.57433e-20)
(1.5091 0.294827 -1.36662e-34)
(1.48235 0.199298 5.65927e-21)
(1.57823 0.155178 4.88382e-21)
(1.65457 0.16586 -3.28684e-20)
(1.72403 0.208231 -5.45369e-20)
(1.80039 0.281777 -8.64286e-34)
(1.87637 0.360731 -1.12241e-19)
(2.1958 0.547948 -1.12397e-19)
(2.04566 0.666817 4.34535e-19)
(0.80337 0.0938397 0)
(1.50814 0.201895 -2.43156e-34)
(1.51142 0.15029 0)
(1.6225 0.129759 0)
(1.70507 0.140671 0)
(1.78645 0.175034 0)
(1.87168 0.24567 -5.54124e-34)
(1.98228 0.291835 0)
(2.27274 0.480487 -2.91119e-20)
(2.25917 0.613768 2.57915e-19)
(0.79491 0.018237 2.15243e-20)
(1.48809 0.103757 -8.87283e-21)
(1.50655 0.0929421 3.80078e-21)
(1.62743 0.101661 0)
(1.71284 0.1144 0)
(1.80232 0.142569 7.20254e-21)
(1.88992 0.203181 4.47554e-20)
(2.04702 0.232272 -1.46115e-20)
(2.25922 0.394282 -3.81701e-20)
(2.42542 0.528083 2.40821e-19)
(0.791048 -0.0512092 1.5175e-20)
(1.44273 0.00742658 6.60512e-22)
(1.44797 0.0335204 2.90235e-21)
(1.57226 0.0715931 -2.54947e-20)
(1.65731 0.0847563 -1.4194e-20)
(1.75323 0.106943 -1.36661e-20)
(1.83987 0.152849 -3.6061e-20)
(2.03641 0.175779 -3.55002e-20)
(2.17293 0.295402 -8.29362e-20)
(2.50553 0.415793 2.54432e-20)
(0.780942 -0.103028 -2.84552e-20)
(1.33833 -0.0675657 -3.06783e-20)
(1.27668 -0.0172407 1.64181e-21)
(1.39291 0.0429164 -1.17364e-20)
(1.4691 0.0534186 8.73691e-35)
(1.56533 0.0688276 8.38842e-21)
(1.64937 0.097147 -1.20808e-33)
(1.86977 0.120428 -1.53604e-20)
(1.95309 0.189185 1.9395e-20)
(2.40788 0.278569 3.47424e-20)
(0.749176 -0.142344 1.1652e-19)
(1.11864 -0.113636 -2.25825e-20)
(0.904751 -0.0472901 3.92319e-22)
(1.00835 0.0209887 1.90565e-20)
(1.06534 0.0240462 1.10675e-21)
(1.14579 0.0318327 1.61802e-20)
(1.22369 0.0424339 1.29675e-20)
(1.41205 0.0575744 -1.29741e-20)
(1.49783 0.0865663 -8.52452e-21)
(1.92923 0.130879 1.40361e-19)
(0.646188 -0.0648662 2.25488e-20)
(0.695488 -0.0496023 -1.28353e-34)
(0.318773 -0.0204933 -1.62318e-21)
(0.421494 0.00690485 0)
(0.441103 0.00539584 0)
(0.485055 0.00718839 9.02261e-21)
(0.533252 0.00920999 -1.15812e-35)
(0.630509 0.015045 -1.56601e-20)
(0.700134 0.0187765 -2.5839e-20)
(0.945366 0.0364932 -5.47096e-20)