/*--------------------------------*- C++ -*----------------------------------*\
| =========                 |                                                 |
| \\      /  F ield         | OpenFOAM: The Open Source CFD Toolbox           |
|  \\    /   O peration     | Version:  2406                                  |
|   \\  /    A nd           | Website:  www.openfoam.com                      |
|    \\/     M anipulation  |                                                 |
\*---------------------------------------------------------------------------*/
FoamFile
{
    version     2.0;
    format      ascii;
    arch        "LSB;label=32;scalar=64";
    class       volVectorField;
    location    "1.95";
    object      flux;
}
// * * * * * * * * * * * * * * * * * * * * * * * * * * * * * * * * * * * * * //

dimensions      [0 1 -1 1 0 0 0];

internalField   nonuniform List<vector> 
2500
(
(0.00106906 0.00106906 0)
(0.00320293 0.00107528 0)
(0.00533057 0.00108799 0)
(0.00745006 0.00110702 0)
(0.00955516 0.00113239 0)
(0.0116416 0.00116413 0)
(0.0137048 0.00120225 0)
(0.0157402 0.00124678 0)
(0.0177427 0.00129774 0)
(0.0197074 0.00135513 0)
(0.0216286 0.00141896 0)
(0.0235008 0.00148925 0)
(0.0253178 0.00156597 0)
(0.0270734 0.00164911 0)
(0.0287609 0.00173862 0)
(0.0303735 0.00183446 0)
(0.0319039 0.00193653 0)
(0.0333449 0.00204473 0)
(0.0346887 0.00215893 0)
(0.0359277 0.00227896 0)
(0.0370539 0.00240459 0)
(0.0380595 0.0025356 0)
(0.0389365 0.00267168 0)
(0.0396772 0.00281249 0)
(0.040274 0.00295764 0)
(0.0407196 0.00310669 0)
(0.0410069 0.00325914 0)
(0.0411297 0.00341443 0)
(0.0410819 0.00357196 0)
(0.0408584 0.00373106 0)
(0.040455 0.00389102 0)
(0.0398681 0.00405106 0)
(0.0390953 0.00421036 0)
(0.0381354 0.00436806 0)
(0.0369884 0.00452328 0)
(0.0356555 0.00467507 0)
(0.0341392 0.00482248 0)
(0.0324437 0.00496456 0)
(0.0305745 0.00510034 0)
(0.0285385 0.00522887 0)
(0.0263441 0.00534921 0)
(0.0240013 0.00546045 0)
(0.0215213 0.00556176 0)
(0.0189168 0.00565232 0)
(0.0162016 0.00573143 0)
(0.0133905 0.00579845 0)
(0.0104995 0.00585286 0)
(0.00754522 0.0058942 0)
(0.00454503 0.00592194 0)
(0.00151785 0.0059346 0)
(0.00107528 0.00320293 0)
(0.00322186 0.00322186 0)
(0.00536231 0.00325993 0)
(0.00749446 0.00331699 0)
(0.00961227 0.00339309 0)
(0.0117114 0.0034883 0)
(0.0137874 0.00360268 0)
(0.0158356 0.00373629 0)
(0.0178511 0.00388917 0)
(0.0198286 0.00406137 0)
(0.0217628 0.00425292 0)
(0.0236478 0.00446382 0)
(0.0254777 0.00469406 0)
(0.027246 0.00494356 0)
(0.0289462 0.00521222 0)
(0.0305714 0.00549986 0)
(0.0321142 0.00580625 0)
(0.0335673 0.00613106 0)
(0.0349229 0.0064739 0)
(0.0361733 0.00683425 0)
(0.0373105 0.00721149 0)
(0.0383266 0.00760487 0)
(0.0392134 0.00801352 0)
(0.0399632 0.00843642 0)
(0.0405682 0.0088724 0)
(0.0410211 0.00932012 0)
(0.0413147 0.0097781 0)
(0.0414425 0.0102447 0)
(0.0413985 0.010718 0)
(0.0411775 0.0111961 0)
(0.040775 0.0116768 0)
(0.0401874 0.0121578 0)
(0.0394123 0.0126367 0)
(0.0384484 0.0131108 0)
(0.0372954 0.0135774 0)
(0.0359547 0.0140338 0)
(0.0344287 0.0144771 0)
(0.0327216 0.0149044 0)
(0.0308388 0.0153127 0)
(0.0287873 0.0156993 0)
(0.0265757 0.0160613 0)
(0.0242138 0.0163959 0)
(0.0217132 0.0167007 0)
(0.0190865 0.0169731 0)
(0.0163477 0.0172111 0)
(0.0135119 0.0174127 0)
(0.0105953 0.0175764 0)
(0.0076143 0.0177008 0)
(0.00458543 0.017785 0)
(0.00153051 0.0178257 0)
(0.00108799 0.00533057 0)
(0.00325993 0.00536231 0)
(0.00542569 0.00542569 0)
(0.00758322 0.00552079 0)
(0.00972648 0.00564768 0)
(0.0118512 0.00580644 0)
(0.0139528 0.00599717 0)
(0.0160266 0.00621997 0)
(0.0180678 0.00647494 0)
(0.0200711 0.00676215 0)
(0.0220311 0.00708166 0)
(0.0239419 0.00743348 0)
(0.0257975 0.00781759 0)
(0.0275915 0.00823388 0)
(0.0293172 0.00868218 0)
(0.0309675 0.00916222 0)
(0.0325351 0.00967361 0)
(0.0340125 0.0102158 0)
(0.0353919 0.0107882 0)
(0.0366653 0.0113899 0)
(0.0378245 0.0120199 0)
(0.0388615 0.012677 0)
(0.0397681 0.0133596 0)
(0.0405361 0.0140662 0)
(0.0411577 0.0147948 0)
(0.0416253 0.0155431 0)
(0.0419315 0.0163087 0)
(0.0420696 0.0170889 0)
(0.0420333 0.0178804 0)
(0.0418172 0.0186801 0)
(0.0414167 0.0194843 0)
(0.0408279 0.0202892 0)
(0.0400482 0.0210906 0)
(0.0390762 0.0218841 0)
(0.0379114 0.0226654 0)
(0.0365551 0.0234296 0)
(0.0350098 0.024172 0)
(0.0332794 0.0248876 0)
(0.0313694 0.0255718 0)
(0.029287 0.0262195 0)
(0.0270407 0.0268261 0)
(0.0246407 0.0273869 0)
(0.0220985 0.0278977 0)
(0.0194273 0.0283545 0)
(0.0166412 0.0287534 0)
(0.0137558 0.0290913 0)
(0.0107876 0.0293655 0)
(0.00775387 0.0295738 0)
(0.00466989 0.0297145 0)
(0.00155851 0.0297847 0)
(0.00110702 0.00745006 0)
(0.00331699 0.00749446 0)
(0.00552079 0.00758322 0)
(0.00771644 0.00771644 0)
(0.00989792 0.00789422 0)
(0.0120609 0.00811668 0)
(0.014201 0.00838397 0)
(0.0163134 0.00869622 0)
(0.0183933 0.00905358 0)
(0.0204353 0.00945617 0)
(0.0224341 0.00990409 0)
(0.0243837 0.0103974 0)
(0.0262781 0.010936 0)
(0.0281106 0.0115198 0)
(0.0298746 0.0121487 0)
(0.0315628 0.0128221 0)
(0.0331678 0.0135397 0)
(0.0346819 0.0143007 0)
(0.036097 0.0151042 0)
(0.037405 0.015949 0)
(0.0385976 0.0168337 0)
(0.0396663 0.0177567 0)
(0.0406027 0.0187159 0)
(0.0413984 0.0197089 0)
(0.0420451 0.0207331 0)
(0.042535 0.0217853 0)
(0.0428604 0.0228621 0)
(0.0430142 0.0239596 0)
(0.0429898 0.0250735 0)
(0.0427814 0.0261992 0)
(0.042384 0.0273315 0)
(0.0417936 0.0284651 0)
(0.0410073 0.0295941 0)
(0.0400232 0.0307124 0)
(0.0388409 0.0318136 0)
(0.0374613 0.032891 0)
(0.0358868 0.033938 0)
(0.0341214 0.0349476 0)
(0.0321706 0.0359129 0)
(0.0300416 0.036827 0)
(0.0277431 0.0376832 0)
(0.0252855 0.038475 0)
(0.0226807 0.0391963 0)
(0.0199422 0.0398413 0)
(0.0170846 0.0404048 0)
(0.0141241 0.040882 0)
(0.0110777 0.0412691 0)
(0.00796326 0.0415626 0)
(0.00479641 0.04176 0)
(0.00160078 0.0418592 0)
(0.00113239 0.00955516 0)
(0.00339309 0.00961227 0)
(0.00564768 0.00972648 0)
(0.00789422 0.00989792 0)
(0.0101267 0.0101267 0)
(0.0123409 0.0104131 0)
(0.0145323 0.0107571 0)
(0.0166962 0.0111591 0)
(0.0188278 0.0116192 0)
(0.0209216 0.0121376 0)
(0.0229723 0.0127145 0)
(0.0249738 0.01335 0)
(0.02692 0.0140439 0)
(0.0288042 0.0147963 0)
(0.0306195 0.0156068 0)
(0.0323585 0.016475 0)
(0.0340137 0.0174003 0)
(0.035577 0.0183819 0)
(0.0370402 0.0194185 0)
(0.0383948 0.0205088 0)
(0.0396322 0.021651 0)
(0.0407437 0.0228429 0)
(0.0417203 0.0240819 0)
(0.0425533 0.0253651 0)
(0.0432341 0.026689 0)
(0.0437543 0.0280497 0)
(0.0441058 0.0294426 0)
(0.044281 0.0308628 0)
(0.0442729 0.0323048 0)
(0.0440753 0.0337625 0)
(0.0436826 0.0352294 0)
(0.0430905 0.0366984 0)
(0.0422955 0.0381621 0)
(0.0412956 0.0396124 0)
(0.0400901 0.041041 0)
(0.0386796 0.0424394 0)
(0.0370663 0.0437987 0)
(0.0352542 0.0451098 0)
(0.0332488 0.0463638 0)
(0.0310573 0.0475517 0)
(0.0286888 0.0486647 0)
(0.0261538 0.0496942 0)
(0.0234648 0.0506323 0)
(0.0206357 0.0514713 0)
(0.0176819 0.0522043 0)
(0.0146201 0.0528252 0)
(0.0114682 0.0533286 0)
(0.00824483 0.0537103 0)
(0.00496643 0.0539668 0)
(0.00165762 0.0540956 0)
(0.00116413 0.0116416 0)
(0.0034883 0.0117114 0)
(0.00580644 0.0118512 0)
(0.00811668 0.0120609 0)
(0.0104131 0.0123409 0)
(0.0126913 0.0126913 0)
(0.014947 0.0131124 0)
(0.0171755 0.0136045 0)
(0.0193718 0.0141678 0)
(0.0215306 0.0148026 0)
(0.0236464 0.0155092 0)
(0.0257131 0.0162876 0)
(0.0277244 0.0171378 0)
(0.0296735 0.0180599 0)
(0.0315533 0.0190535 0)
(0.0333564 0.0201182 0)
(0.0350747 0.0212533 0)
(0.0367001 0.0224577 0)
(0.0382239 0.0237302 0)
(0.0396375 0.0250689 0)
(0.0409317 0.0264719 0)
(0.0420972 0.0279366 0)
(0.0431249 0.0294598 0)
(0.0440055 0.0310379 0)
(0.0447297 0.0326668 0)
(0.0452886 0.0343416 0)
(0.0456735 0.0360569 0)
(0.0458764 0.0378067 0)
(0.0458895 0.039584 0)
(0.045706 0.0413817 0)
(0.04532 0.0431915 0)
(0.0447263 0.0450047 0)
(0.0439212 0.0468122 0)
(0.0429021 0.048604 0)
(0.0416679 0.0503699 0)
(0.0402189 0.0520991 0)
(0.0385572 0.0537807 0)
(0.0366866 0.0554034 0)
(0.0346125 0.056956 0)
(0.0323425 0.0584273 0)
(0.0298856 0.0598063 0)
(0.0272531 0.0610824 0)
(0.0244578 0.0622454 0)
(0.0215142 0.0632859 0)
(0.0184385 0.0641951 0)
(0.0152484 0.0649653 0)
(0.0119628 0.0655899 0)
(0.0086014 0.0660634 0)
(0.00518168 0.0663815 0)
(0.00172958 0.0665413 0)
(0.00120225 0.0137048 0)
(0.00360268 0.0137874 0)
(0.00599717 0.0139528 0)
(0.00838397 0.014201 0)
(0.0107571 0.0145323 0)
(0.0131124 0.014947 0)
(0.0154455 0.0154455 0)
(0.0177516 0.016028 0)
(0.0200259 0.0166951 0)
(0.022263 0.0174469 0)
(0.0244572 0.0182839 0)
(0.0266025 0.0192062 0)
(0.0286924 0.020214 0)
(0.0307199 0.0213072 0)
(0.0326778 0.0224856 0)
(0.0345583 0.0237488 0)
(0.0363532 0.0250959 0)
(0.0380538 0.0265259 0)
(0.0396514 0.0280373 0)
(0.0411366 0.0296282 0)
(0.0424999 0.0312961 0)
(0.0437315 0.0330381 0)
(0.0448216 0.0348506 0)
(0.0457603 0.0367295 0)
(0.0465378 0.0386698 0)
(0.0471444 0.0406658 0)
(0.0475708 0.0427112 0)
(0.0478081 0.0447988 0)
(0.0478479 0.0469206 0)
(0.0476827 0.0490678 0)
(0.0473057 0.0512307 0)
(0.0467112 0.053399 0)
(0.0458948 0.0555616 0)
(0.0448533 0.0577066 0)
(0.0435852 0.0598218 0)
(0.0420904 0.0618941 0)
(0.0403706 0.0639105 0)
(0.0384296 0.0658572 0)
(0.0362727 0.0677208 0)
(0.0339077 0.0694876 0)
(0.0313439 0.0711442 0)
(0.0285929 0.0726778 0)
(0.0256683 0.0740761 0)
(0.0225854 0.0753273 0)
(0.0193614 0.0764211 0)
(0.0160149 0.0773479 0)
(0.0125663 0.0780996 0)
(0.00903641 0.0786694 0)
(0.00544427 0.0790522 0)
(0.00181737 0.0792445 0)
(0.00124678 0.0157402 0)
(0.00373629 0.0158356 0)
(0.00621997 0.0160266 0)
(0.00869622 0.0163134 0)
(0.0111591 0.0166962 0)
(0.0136045 0.0171755 0)
(0.016028 0.0177516 0)
(0.0184251 0.0184251 0)
(0.0207907 0.0191964 0)
(0.0231195 0.0200659 0)
(0.0254057 0.0210342 0)
(0.0276432 0.0221015 0)
(0.0298254 0.0232681 0)
(0.0319451 0.024534 0)
(0.0339949 0.0258992 0)
(0.0359666 0.027363 0)
(0.0378518 0.0289249 0)
(0.0396415 0.0305836 0)
(0.0413262 0.0323375 0)
(0.0428963 0.0341846 0)
(0.0443416 0.0361222 0)
(0.0456518 0.038147 0)
(0.0468163 0.0402549 0)
(0.0478246 0.0424413 0)
(0.048666 0.0447004 0)
(0.04933 0.047026 0)
(0.0498065 0.0494106 0)
(0.0500857 0.051846 0)
(0.0501584 0.0543228 0)
(0.0500161 0.0568309 0)
(0.0496512 0.0593592 0)
(0.0490572 0.0618954 0)
(0.0482288 0.0644266 0)
(0.0471623 0.0669389 0)
(0.0458554 0.0694178 0)
(0.0443076 0.0718482 0)
(0.0425203 0.0742142 0)
(0.0404969 0.0765001 0)
(0.0382429 0.0786894 0)
(0.0357659 0.0807663 0)
(0.0330759 0.0827146 0)
(0.0301849 0.0845191 0)
(0.0271073 0.0861651 0)
(0.0238592 0.0876386 0)
(0.020459 0.088927 0)
(0.0169269 0.0900191 0)
(0.0132843 0.090905 0)
(0.00955407 0.0915767 0)
(0.00575678 0.092028 0)
(0.00192185 0.0922547 0)
(0.00129774 0.0177427 0)
(0.00388917 0.0178511 0)
(0.00647494 0.0180678 0)
(0.00905358 0.0183933 0)
(0.0116192 0.0188278 0)
(0.0141678 0.0193718 0)
(0.0166951 0.0200259 0)
(0.0191964 0.0207907 0)
(0.0216667 0.0216667 0)
(0.0241008 0.0226547 0)
(0.0264928 0.0237551 0)
(0.0288364 0.0249686 0)
(0.0311249 0.0262954 0)
(0.033351 0.0277358 0)
(0.0355068 0.0292897 0)
(0.037584 0.0309567 0)
(0.0395737 0.0327362 0)
(0.0414665 0.0346271 0)
(0.0432525 0.0366276 0)
(0.0449213 0.0387356 0)
(0.0464622 0.0409482 0)
(0.0478642 0.0432618 0)
(0.0491159 0.045672 0)
(0.0502059 0.0481736 0)
(0.0511226 0.0507603 0)
(0.0518546 0.0534249 0)
(0.0523908 0.0561591 0)
(0.0527203 0.0589536 0)
(0.0528329 0.0617978 0)
(0.052719 0.0646802 0)
(0.0523701 0.0675879 0)
(0.0517786 0.0705071 0)
(0.0509383 0.0734226 0)
(0.0498446 0.0763187 0)
(0.0484945 0.0791785 0)
(0.0468868 0.0819842 0)
(0.0450225 0.0847177 0)
(0.0429048 0.0873604 0)
(0.0405389 0.0898932 0)
(0.0379329 0.0922973 0)
(0.0350968 0.0945541 0)
(0.0320433 0.0966454 0)
(0.0287877 0.0985539 0)
(0.0253474 0.100263 0)
(0.0217419 0.101759 0)
(0.0179929 0.103026 0)
(0.0141239 0.104055 0)
(0.0101594 0.104835 0)
(0.00612228 0.10536 0)
(0.00204405 0.105623 0)
(0.00135513 0.0197074 0)
(0.00406137 0.0198286 0)
(0.00676215 0.0200711 0)
(0.00945617 0.0204353 0)
(0.0121376 0.0209216 0)
(0.0148026 0.0215306 0)
(0.0174469 0.022263 0)
(0.0200659 0.0231195 0)
(0.0226547 0.0241008 0)
(0.0252079 0.0252079 0)
(0.0277196 0.0264414 0)
(0.0301835 0.0278021 0)
(0.0325926 0.0292906 0)
(0.0349394 0.0309072 0)
(0.0372158 0.032652 0)
(0.0394132 0.0345249 0)
(0.0415222 0.0365252 0)
(0.0435328 0.038652 0)
(0.0454347 0.0409035 0)
(0.0472169 0.0432775 0)
(0.0488678 0.0457709 0)
(0.0503756 0.0483801 0)
(0.0517281 0.0511002 0)
(0.0529128 0.0539256 0)
(0.0539173 0.0568494 0)
(0.0547289 0.0598637 0)
(0.0553353 0.0629593 0)
(0.0557245 0.0661259 0)
(0.0558851 0.0693516 0)
(0.0558062 0.0726234 0)
(0.055478 0.0759268 0)
(0.0548919 0.0792461 0)
(0.0540405 0.0825642 0)
(0.0529182 0.0858631 0)
(0.0515209 0.0891233 0)
(0.0498469 0.0923247 0)
(0.0478965 0.0954462 0)
(0.0456723 0.0984663 0)
(0.0431798 0.101363 0)
(0.0404268 0.104115 0)
(0.037424 0.1067 0)
(0.0341847 0.109096 0)
(0.0307251 0.111285 0)
(0.0270638 0.113246 0)
(0.0232221 0.114963 0)
(0.0192234 0.116418 0)
(0.0150933 0.1176 0)
(0.0108585 0.118497 0)
(0.00654441 0.119099 0)
(0.00218519 0.119402 0)
(0.00141896 0.0216286 0)
(0.00425292 0.0217628 0)
(0.00708166 0.0220311 0)
(0.00990409 0.0224341 0)
(0.0127145 0.0229723 0)
(0.0155092 0.0236464 0)
(0.0182839 0.0244572 0)
(0.0210342 0.0254057 0)
(0.0237551 0.0264928 0)
(0.0264414 0.0277196 0)
(0.0290871 0.0290871 0)
(0.0316856 0.0305962 0)
(0.03423 0.0322477 0)
(0.0367124 0.0340423 0)
(0.0391245 0.0359803 0)
(0.0414572 0.0380617 0)
(0.0437008 0.0402862 0)
(0.0458447 0.0426528 0)
(0.0478779 0.0451599 0)
(0.0497888 0.0478053 0)
(0.0515649 0.050586 0)
(0.0531935 0.053498 0)
(0.0546614 0.0565364 0)
(0.055955 0.059695 0)
(0.0570607 0.0629665 0)
(0.0579646 0.0663424 0)
(0.058653 0.0698126 0)
(0.0591126 0.0733656 0)
(0.0593304 0.0769884 0)
(0.0592942 0.0806666 0)
(0.0589928 0.084384 0)
(0.058416 0.088123 0)
(0.0575553 0.0918644 0)
(0.0564037 0.0955877 0)
(0.0549561 0.0992709 0)
(0.0532097 0.102891 0)
(0.0511642 0.106424 0)
(0.0488218 0.109846 0)
(0.0461875 0.11313 0)
(0.0432693 0.116253 0)
(0.0400783 0.119189 0)
(0.0366286 0.121912 0)
(0.0329375 0.124401 0)
(0.0290249 0.126633 0)
(0.0249141 0.128587 0)
(0.0206305 0.130246 0)
(0.0162021 0.131592 0)
(0.0116584 0.132614 0)
(0.00702746 0.133301 0)
(0.00234672 0.133646 0)
(0.00148925 0.0235008 0)
(0.00446382 0.0236478 0)
(0.00743348 0.0239419 0)
(0.0103974 0.0243837 0)
(0.01335 0.0249738 0)
(0.0162876 0.0257131 0)
(0.0192062 0.0266025 0)
(0.0221015 0.0276432 0)
(0.0249686 0.0288364 0)
(0.0278021 0.0301835 0)
(0.0305962 0.0316856 0)
(0.0333441 0.0333441 0)
(0.0360387 0.03516 0)
(0.038672 0.0371344 0)
(0.0412353 0.0392678 0)
(0.0437191 0.0415605 0)
(0.0461132 0.0440125 0)
(0.0484065 0.0466229 0)
(0.0505873 0.0493905 0)
(0.052643 0.0523131 0)
(0.0545605 0.0553878 0)
(0.056326 0.0586104 0)
(0.057925 0.061976 0)
(0.059343 0.065478 0)
(0.0605646 0.0691088 0)
(0.0615749 0.0728591 0)
(0.0623585 0.0767182 0)
(0.0629004 0.0806736 0)
(0.0631861 0.084711 0)
(0.0632018 0.0888146 0)
(0.0629344 0.0929664 0)
(0.0623723 0.0971469 0)
(0.0615052 0.101335 0)
(0.0603246 0.105507 0)
(0.0588243 0.109639 0)
(0.0570002 0.113704 0)
(0.0548511 0.117676 0)
(0.0523785 0.121526 0)
(0.0495871 0.125226 0)
(0.046485 0.128746 0)
(0.0430835 0.132059 0)
(0.0393977 0.135135 0)
(0.0354458 0.137948 0)
(0.0312497 0.140472 0)
(0.0268346 0.142683 0)
(0.0222283 0.144561 0)
(0.0174616 0.146086 0)
(0.0125672 0.147244 0)
(0.00757644 0.148022 0)
(0.00253031 0.148413 0)
(0.00156597 0.0253178 0)
(0.00469406 0.0254777 0)
(0.00781759 0.0257975 0)
(0.010936 0.0262781 0)
(0.0140439 0.02692 0)
(0.0171378 0.0277244 0)
(0.020214 0.0286924 0)
(0.0232681 0.0298254 0)
(0.0262954 0.0311249 0)
(0.0292906 0.0325926 0)
(0.0322477 0.03423 0)
(0.03516 0.0360387 0)
(0.0380203 0.0380203 0)
(0.0408201 0.0401759 0)
(0.0435506 0.0425068 0)
(0.0462019 0.0450135 0)
(0.0487631 0.0476962 0)
(0.0512227 0.0505547 0)
(0.0535682 0.0535877 0)
(0.055786 0.0567934 0)
(0.0578622 0.060169 0)
(0.0597817 0.0637104 0)
(0.061529 0.0674126 0)
(0.0630879 0.0712689 0)
(0.0644418 0.0752713 0)
(0.065574 0.0794101 0)
(0.0664674 0.0836737 0)
(0.0671054 0.0880487 0)
(0.0674714 0.0925198 0)
(0.0675496 0.0970696 0)
(0.0673252 0.101679 0)
(0.0667844 0.106325 0)
(0.0659153 0.110985 0)
(0.0647075 0.115634 0)
(0.0631532 0.120243 0)
(0.0612468 0.124783 0)
(0.0589861 0.129224 0)
(0.0563716 0.133534 0)
(0.0534077 0.137679 0)
(0.0501022 0.141629 0)
(0.046467 0.145348 0)
(0.0425178 0.148805 0)
(0.0382744 0.151969 0)
(0.0337603 0.154811 0)
(0.029003 0.157302 0)
(0.0240332 0.159418 0)
(0.018885 0.161138 0)
(0.0135946 0.162444 0)
(0.00819715 0.163322 0)
(0.00273791 0.163764 0)
(0.00164911 0.0270734 0)
(0.00494356 0.027246 0)
(0.00823388 0.0275915 0)
(0.0115198 0.0281106 0)
(0.0147963 0.0288042 0)
(0.0180599 0.0296735 0)
(0.0213072 0.0307199 0)
(0.024534 0.0319451 0)
(0.0277358 0.033351 0)
(0.0309072 0.0349394 0)
(0.0340423 0.0367124 0)
(0.0371344 0.038672 0)
(0.0401759 0.0408201 0)
(0.0431585 0.0431585 0)
(0.0460728 0.0456887 0)
(0.0489085 0.0484119 0)
(0.0516543 0.0513286 0)
(0.0542979 0.054439 0)
(0.056826 0.0577424 0)
(0.0592243 0.0612371 0)
(0.0614776 0.0649208 0)
(0.0635696 0.0687895 0)
(0.0654836 0.0728382 0)
(0.0672017 0.0770602 0)
(0.0687058 0.0814473 0)
(0.0699772 0.0859893 0)
(0.0709971 0.0906742 0)
(0.0717465 0.0954876 0)
(0.072207 0.100413 0)
(0.0723604 0.105432 0)
(0.0721897 0.110523 0)
(0.071679 0.115662 0)
(0.0708138 0.120823 0)
(0.069582 0.125979 0)
(0.0679736 0.131097 0)
(0.0659815 0.136146 0)
(0.0636018 0.14109 0)
(0.0608342 0.145895 0)
(0.0576822 0.150522 0)
(0.0541535 0.154935 0)
(0.0502603 0.159096 0)
(0.0460191 0.162967 0)
(0.0414511 0.166514 0)
(0.0365819 0.169701 0)
(0.0314417 0.172497 0)
(0.0260644 0.174875 0)
(0.0204876 0.176808 0)
(0.0147517 0.178276 0)
(0.00889637 0.179265 0)
(0.00297179 0.179761 0)
(0.00173862 0.0287609 0)
(0.00521222 0.0289462 0)
(0.00868218 0.0293172 0)
(0.0121487 0.0298746 0)
(0.0156068 0.0306195 0)
(0.0190535 0.0315533 0)
(0.0224856 0.0326778 0)
(0.0258992 0.0339949 0)
(0.0292897 0.0355068 0)
(0.032652 0.0372158 0)
(0.0359803 0.0391245 0)
(0.0392678 0.0412353 0)
(0.0425068 0.0435506 0)
(0.0456887 0.0460728 0)
(0.048804 0.048804 0)
(0.0518418 0.0517458 0)
(0.0547903 0.0548994 0)
(0.0576365 0.0582655 0)
(0.0603663 0.061844 0)
(0.0629644 0.0656337 0)
(0.0654145 0.0696325 0)
(0.0676991 0.073837 0)
(0.0697997 0.0782423 0)
(0.071697 0.0828419 0)
(0.0733709 0.0876274 0)
(0.0748009 0.0925884 0)
(0.0759657 0.0977123 0)
(0.0768443 0.102984 0)
(0.0774157 0.108387 0)
(0.0776592 0.113899 0)
(0.0775552 0.119499 0)
(0.077085 0.12516 0)
(0.0762319 0.130855 0)
(0.074981 0.13655 0)
(0.0733201 0.142214 0)
(0.0712401 0.147808 0)
(0.0687351 0.153295 0)
(0.0658036 0.158634 0)
(0.0624481 0.163783 0)
(0.0586759 0.1687 0)
(0.0544993 0.173341 0)
(0.0499358 0.177665 0)
(0.0450081 0.181629 0)
(0.0397441 0.185196 0)
(0.0341767 0.188328 0)
(0.0283437 0.190992 0)
(0.0222868 0.19316 0)
(0.0160513 0.194807 0)
(0.00968192 0.195916 0)
(0.00323459 0.196474 0)
(0.00183446 0.0303735 0)
(0.00549986 0.0305714 0)
(0.00916222 0.0309675 0)
(0.0128221 0.0315628 0)
(0.016475 0.0323585 0)
(0.0201182 0.0333564 0)
(0.0237488 0.0345583 0)
(0.027363 0.0359666 0)
(0.0309567 0.037584 0)
(0.0345249 0.0394132 0)
(0.0380617 0.0414572 0)
(0.0415605 0.0437191 0)
(0.0450135 0.0462019 0)
(0.0484119 0.0489085 0)
(0.0517458 0.0518418 0)
(0.055004 0.055004 0)
(0.0581741 0.058397 0)
(0.0612425 0.0620223 0)
(0.0641942 0.0658804 0)
(0.0670129 0.0699707 0)
(0.0696809 0.0742917 0)
(0.0721794 0.0788405 0)
(0.0744884 0.0836126 0)
(0.0765867 0.0886018 0)
(0.0784523 0.0937999 0)
(0.0800621 0.0991962 0)
(0.0813929 0.104778 0)
(0.0824207 0.11053 0)
(0.0831219 0.116433 0)
(0.0834729 0.122465 0)
(0.083451 0.128604 0)
(0.0830346 0.134819 0)
(0.082204 0.141081 0)
(0.0809412 0.147355 0)
(0.0792314 0.153604 0)
(0.0770629 0.159786 0)
(0.0744276 0.165858 0)
(0.0713221 0.171776 0)
(0.0677478 0.177492 0)
(0.0637114 0.182958 0)
(0.0592251 0.188124 0)
(0.0543072 0.192943 0)
(0.0489822 0.197367 0)
(0.0432803 0.201351 0)
(0.0372378 0.204852 0)
(0.0308965 0.207833 0)
(0.0243031 0.210261 0)
(0.0175083 0.212107 0)
(0.0105629 0.21335 0)
(0.00352935 0.213975 0)
(0.00193653 0.0319039 0)
(0.00580625 0.0321142 0)
(0.00967361 0.0325351 0)
(0.0135397 0.0331678 0)
(0.0174003 0.0340137 0)
(0.0212533 0.0350747 0)
(0.0250959 0.0363532 0)
(0.0289249 0.0378518 0)
(0.0327362 0.0395737 0)
(0.0365252 0.0415222 0)
(0.0402862 0.0437008 0)
(0.0440125 0.0461132 0)
(0.0476962 0.0487631 0)
(0.0513286 0.0516543 0)
(0.0548994 0.0547903 0)
(0.058397 0.0581741 0)
(0.0618086 0.0618086 0)
(0.0651198 0.065696 0)
(0.0683146 0.0698375 0)
(0.0713758 0.0742337 0)
(0.0742844 0.0788835 0)
(0.07702 0.0837849 0)
(0.079561 0.088934 0)
(0.0818842 0.094325 0)
(0.0839653 0.09995 0)
(0.085779 0.105799 0)
(0.0872991 0.111858 0)
(0.0884989 0.118111 0)
(0.0893516 0.12454 0)
(0.0898304 0.131122 0)
(0.0899091 0.137831 0)
(0.0895627 0.144635 0)
(0.0887678 0.151503 0)
(0.0875031 0.158396 0)
(0.0857504 0.165273 0)
(0.0834948 0.172089 0)
(0.0807257 0.178796 0)
(0.0774374 0.185343 0)
(0.0736296 0.191677 0)
(0.0693079 0.197743 0)
(0.0644845 0.203485 0)
(0.0591785 0.208849 0)
(0.0534158 0.213779 0)
(0.0472295 0.218224 0)
(0.0406595 0.222135 0)
(0.0337523 0.225468 0)
(0.0265601 0.228183 0)
(0.01914 0.23025 0)
(0.0115498 0.231642 0)
(0.00385962 0.232342 0)
(0.00204473 0.0333449 0)
(0.00613106 0.0335673 0)
(0.0102158 0.0340125 0)
(0.0143007 0.0346819 0)
(0.0183819 0.035577 0)
(0.0224577 0.0367001 0)
(0.0265259 0.0380538 0)
(0.0305836 0.0396415 0)
(0.0346271 0.0414665 0)
(0.038652 0.0435328 0)
(0.0426528 0.0458447 0)
(0.0466229 0.0484065 0)
(0.0505547 0.0512227 0)
(0.054439 0.0542979 0)
(0.0582655 0.0576365 0)
(0.0620223 0.0612425 0)
(0.065696 0.0651198 0)
(0.0692714 0.0692714 0)
(0.0727319 0.0736998 0)
(0.0760589 0.0784063 0)
(0.0792322 0.0833912 0)
(0.0822299 0.088653 0)
(0.0850285 0.0941889 0)
(0.0876027 0.0999937 0)
(0.0899258 0.10606 0)
(0.0919698 0.112378 0)
(0.0937057 0.118935 0)
(0.0951034 0.125714 0)
(0.0961327 0.132695 0)
(0.0967629 0.139856 0)
(0.0969642 0.147169 0)
(0.0967072 0.1546 0)
(0.0959646 0.162115 0)
(0.0947111 0.169672 0)
(0.0929243 0.177226 0)
(0.0905858 0.184727 0)
(0.0876815 0.192123 0)
(0.084203 0.199355 0)
(0.0801476 0.206365 0)
(0.0755197 0.213089 0)
(0.070331 0.219465 0)
(0.064601 0.22543 0)
(0.0583575 0.230921 0)
(0.0516364 0.235878 0)
(0.0444817 0.240244 0)
(0.036945 0.243968 0)
(0.0290851 0.247006 0)
(0.0209665 0.249318 0)
(0.0126549 0.250877 0)
(0.00422951 0.251661 0)
(0.00215893 0.0346887 0)
(0.0064739 0.0349229 0)
(0.0107882 0.0353919 0)
(0.0151042 0.036097 0)
(0.0194185 0.0370402 0)
(0.0237302 0.0382239 0)
(0.0280373 0.0396514 0)
(0.0323375 0.0413262 0)
(0.0366276 0.0432525 0)
(0.0409035 0.0454347 0)
(0.0451599 0.0478779 0)
(0.0493905 0.0505873 0)
(0.0535877 0.0535682 0)
(0.0577424 0.056826 0)
(0.061844 0.0603663 0)
(0.0658804 0.0641942 0)
(0.0698375 0.0683146 0)
(0.0736998 0.0727319 0)
(0.0774495 0.0774495 0)
(0.0810671 0.0824702 0)
(0.0845311 0.0877953 0)
(0.0878177 0.0934248 0)
(0.0909017 0.0993566 0)
(0.0937554 0.105587 0)
(0.0963496 0.112109 0)
(0.0986536 0.118913 0)
(0.100635 0.125988 0)
(0.10226 0.133316 0)
(0.103494 0.140879 0)
(0.104304 0.14865 0)
(0.104653 0.156603 0)
(0.104509 0.164702 0)
(0.10384 0.172908 0)
(0.102614 0.181178 0)
(0.100806 0.189463 0)
(0.0983915 0.197706 0)
(0.0953534 0.20585 0)
(0.0916792 0.213831 0)
(0.0873635 0.221581 0)
(0.0824087 0.22903 0)
(0.0768255 0.236106 0)
(0.070634 0.242737 0)
(0.0638633 0.24885 0)
(0.0565526 0.254377 0)
(0.0487503 0.259252 0)
(0.0405141 0.263415 0)
(0.0319101 0.266812 0)
(0.0230111 0.269401 0)
(0.0138925 0.271147 0)
(0.00464383 0.272026 0)
(0.00227896 0.0359277 0)
(0.00683425 0.0361733 0)
(0.0113899 0.0366653 0)
(0.015949 0.037405 0)
(0.0205088 0.0383948 0)
(0.0250689 0.0396375 0)
(0.0296282 0.0411366 0)
(0.0341846 0.0428963 0)
(0.0387356 0.0449213 0)
(0.0432775 0.0472169 0)
(0.0478053 0.0497888 0)
(0.0523131 0.052643 0)
(0.0567934 0.055786 0)
(0.0612371 0.0592243 0)
(0.0656337 0.0629644 0)
(0.0699707 0.0670129 0)
(0.0742337 0.0713758 0)
(0.0784063 0.0760589 0)
(0.0824702 0.0810671 0)
(0.0864047 0.0864047 0)
(0.0901867 0.0920743 0)
(0.0937912 0.0980775 0)
(0.0971905 0.104414 0)
(0.100355 0.11108 0)
(0.103252 0.118072 0)
(0.105849 0.12538 0)
(0.108109 0.132993 0)
(0.109994 0.140895 0)
(0.111467 0.149066 0)
(0.112487 0.157482 0)
(0.113015 0.166113 0)
(0.113013 0.174922 0)
(0.112441 0.183869 0)
(0.111265 0.192905 0)
(0.109452 0.201978 0)
(0.106974 0.211027 0)
(0.103806 0.219987 0)
(0.0999337 0.228786 0)
(0.0953467 0.23735 0)
(0.0900449 0.245599 0)
(0.0840378 0.25345 0)
(0.0773451 0.260821 0)
(0.0699977 0.267628 0)
(0.0620378 0.273793 0)
(0.053519 0.279237 0)
(0.0445056 0.283892 0)
(0.035072 0.287696 0)
(0.0253011 0.290596 0)
(0.0152792 0.292553 0)
(0.00510819 0.293538 0)
(0.00240459 0.0370539 0)
(0.00721149 0.0373105 0)
(0.0120199 0.0378245 0)
(0.0168337 0.0385976 0)
(0.021651 0.0396322 0)
(0.0264719 0.0409317 0)
(0.0312961 0.0424999 0)
(0.0361222 0.0443416 0)
(0.0409482 0.0464622 0)
(0.0457709 0.0488678 0)
(0.050586 0.0515649 0)
(0.0553878 0.0545605 0)
(0.060169 0.0578622 0)
(0.0649208 0.0614776 0)
(0.0696325 0.0654145 0)
(0.0742917 0.0696809 0)
(0.0788835 0.0742844 0)
(0.0833912 0.0792322 0)
(0.0877953 0.0845311 0)
(0.0920743 0.0901867 0)
(0.0962039 0.0962039 0)
(0.100157 0.102586 0)
(0.103904 0.109333 0)
(0.107413 0.116446 0)
(0.110649 0.123919 0)
(0.113575 0.131747 0)
(0.11615 0.139919 0)
(0.118333 0.14842 0)
(0.120082 0.157229 0)
(0.12135 0.166324 0)
(0.122093 0.175672 0)
(0.122265 0.185237 0)
(0.121823 0.194976 0)
(0.120723 0.204836 0)
(0.118928 0.214761 0)
(0.116401 0.224685 0)
(0.113113 0.234535 0)
(0.109043 0.244233 0)
(0.104176 0.253693 0)
(0.0985084 0.262826 0)
(0.0920475 0.271538 0)
(0.0848123 0.279734 0)
(0.0768351 0.287319 0)
(0.0681612 0.294198 0)
(0.0588498 0.300284 0)
(0.0489728 0.305495 0)
(0.0386143 0.309757 0)
(0.0278684 0.313011 0)
(0.0168347 0.315207 0)
(0.00562917 0.316313 0)
(0.0025356 0.0380595 0)
(0.00760487 0.0383266 0)
(0.012677 0.0388615 0)
(0.0177567 0.0396663 0)
(0.0228429 0.0407437 0)
(0.0279366 0.0420972 0)
(0.0330381 0.0437315 0)
(0.038147 0.0456518 0)
(0.0432618 0.0478642 0)
(0.0483801 0.0503756 0)
(0.053498 0.0531935 0)
(0.0586104 0.056326 0)
(0.0637104 0.0597817 0)
(0.0687895 0.0635696 0)
(0.073837 0.0676991 0)
(0.0788405 0.0721794 0)
(0.0837849 0.07702 0)
(0.088653 0.0822299 0)
(0.0934248 0.0878177 0)
(0.0980775 0.0937912 0)
(0.102586 0.100157 0)
(0.106921 0.106921 0)
(0.111051 0.114085 0)
(0.114941 0.121652 0)
(0.118554 0.129619 0)
(0.121849 0.137982 0)
(0.124781 0.146732 0)
(0.127305 0.155855 0)
(0.129371 0.165333 0)
(0.13093 0.175141 0)
(0.131929 0.185249 0)
(0.132316 0.195618 0)
(0.13204 0.206203 0)
(0.131051 0.21695 0)
(0.129301 0.227796 0)
(0.126748 0.238671 0)
(0.123354 0.249494 0)
(0.119092 0.260178 0)
(0.11394 0.270628 0)
(0.10789 0.280742 0)
(0.100946 0.290413 0)
(0.0931254 0.299532 0)
(0.0844616 0.307988 0)
(0.0750034 0.315674 0)
(0.0648155 0.322485 0)
(0.0539787 0.328325 0)
(0.0425878 0.333109 0)
(0.0307507 0.336764 0)
(0.0185819 0.339233 0)
(0.00621456 0.340477 0)
(0.00267168 0.0389365 0)
(0.00801352 0.0392134 0)
(0.0133596 0.0397681 0)
(0.0187159 0.0406027 0)
(0.0240819 0.0417203 0)
(0.0294598 0.0431249 0)
(0.0348506 0.0448216 0)
(0.0402549 0.0468163 0)
(0.045672 0.0491159 0)
(0.0511002 0.0517281 0)
(0.0565364 0.0546614 0)
(0.061976 0.057925 0)
(0.0674126 0.061529 0)
(0.0728382 0.0654836 0)
(0.0782423 0.0697997 0)
(0.0836126 0.0744884 0)
(0.088934 0.079561 0)
(0.0941889 0.0850285 0)
(0.0993566 0.0909017 0)
(0.104414 0.0971905 0)
(0.109333 0.103904 0)
(0.114085 0.111051 0)
(0.118636 0.118636 0)
(0.122947 0.126663 0)
(0.126979 0.135134 0)
(0.130687 0.144045 0)
(0.134023 0.153391 0)
(0.136934 0.16316 0)
(0.139368 0.173334 0)
(0.141266 0.183892 0)
(0.14257 0.194802 0)
(0.143219 0.206025 0)
(0.143154 0.217515 0)
(0.142316 0.229215 0)
(0.140648 0.241057 0)
(0.138098 0.252966 0)
(0.134621 0.264854 0)
(0.130177 0.276623 0)
(0.124739 0.288168 0)
(0.118293 0.299372 0)
(0.110838 0.310114 0)
(0.102388 0.320269 0)
(0.0929774 0.329709 0)
(0.0826581 0.338307 0)
(0.0715011 0.345941 0)
(0.0595967 0.352498 0)
(0.0470527 0.357876 0)
(0.0339923 0.36199 0)
(0.0205482 0.364772 0)
(0.00687353 0.366174 0)
(0.00281249 0.0396772 0)
(0.00843642 0.0399632 0)
(0.0140662 0.0405361 0)
(0.0197089 0.0413984 0)
(0.0253651 0.0425533 0)
(0.0310379 0.0440055 0)
(0.0367295 0.0457603 0)
(0.0424413 0.0478246 0)
(0.0481736 0.0502059 0)
(0.0539256 0.0529128 0)
(0.059695 0.055955 0)
(0.065478 0.059343 0)
(0.0712689 0.0630879 0)
(0.0770602 0.0672017 0)
(0.0828419 0.071697 0)
(0.0886018 0.0765867 0)
(0.094325 0.0818842 0)
(0.0999937 0.0876027 0)
(0.105587 0.0937554 0)
(0.11108 0.100355 0)
(0.116446 0.107413 0)
(0.121652 0.114941 0)
(0.126663 0.122947 0)
(0.131439 0.131439 0)
(0.135936 0.14042 0)
(0.140106 0.149892 0)
(0.143895 0.15985 0)
(0.147248 0.170286 0)
(0.150103 0.181186 0)
(0.152397 0.192527 0)
(0.154062 0.204282 0)
(0.155029 0.216411 0)
(0.15523 0.228867 0)
(0.154593 0.241591 0)
(0.153053 0.254511 0)
(0.150544 0.267545 0)
(0.147012 0.280598 0)
(0.142405 0.293563 0)
(0.136688 0.30632 0)
(0.129837 0.318739 0)
(0.121843 0.330682 0)
(0.11272 0.342004 0)
(0.102499 0.352555 0)
(0.0912353 0.362189 0)
(0.0790067 0.370761 0)
(0.0659141 0.378138 0)
(0.05208 0.384198 0)
(0.0376459 0.38884 0)
(0.0227659 0.391981 0)
(0.00761704 0.393565 0)
(0.00295764 0.040274 0)
(0.0088724 0.0405682 0)
(0.0147948 0.0411577 0)
(0.0207331 0.0420451 0)
(0.026689 0.0432341 0)
(0.0326668 0.0447297 0)
(0.0386698 0.0465378 0)
(0.0447004 0.048666 0)
(0.0507603 0.0511226 0)
(0.0568494 0.0539173 0)
(0.0629665 0.0570607 0)
(0.0691088 0.0605646 0)
(0.0752713 0.0644418 0)
(0.0814473 0.0687058 0)
(0.0876274 0.0733709 0)
(0.0937999 0.0784523 0)
(0.09995 0.0839653 0)
(0.10606 0.0899258 0)
(0.112109 0.0963496 0)
(0.118072 0.103252 0)
(0.123919 0.110649 0)
(0.129619 0.118554 0)
(0.135134 0.126979 0)
(0.14042 0.135936 0)
(0.145432 0.145432 0)
(0.150117 0.155472 0)
(0.154417 0.166055 0)
(0.15827 0.177178 0)
(0.161609 0.188829 0)
(0.164362 0.200989 0)
(0.166454 0.213632 0)
(0.167804 0.22672 0)
(0.168334 0.240205 0)
(0.16796 0.254026 0)