/*--------------------------------*- C++ -*----------------------------------*\
| =========                 |                                                 |
| \\      /  F ield         | OpenFOAM: The Open Source CFD Toolbox           |
|  \\    /   O peration     | Version:  2406                                  |
|   \\  /    A nd           | Website:  www.openfoam.com                      |
|    \\/     M anipulation  |                                                 |
\*---------------------------------------------------------------------------*/
FoamFile
{
    version     2.0;
    format      ascii;
    arch        "LSB;label=32;scalar=64";
    class       volScalarField;
    location    "1.95";
    object      gradTy;
}
// * * * * * * * * * * * * * * * * * * * * * * * * * * * * * * * * * * * * * //

dimensions      [0 -1 0 1 0 0 0];

internalField   nonuniform List<scalar> 
2500
(
0.0106906
0.0107528
0.0108799
0.0110702
0.0113239
0.0116413
0.0120225
0.0124678
0.0129774
0.0135513
0.0141896
0.0148925
0.0156597
0.0164911
0.0173862
0.0183446
0.0193653
0.0204473
0.0215893
0.0227896
0.0240459
0.025356
0.0267168
0.0281249
0.0295764
0.0310669
0.0325914
0.0341443
0.0357196
0.0373106
0.0389102
0.0405106
0.0421036
0.0436806
0.0452328
0.0467507
0.0482248
0.0496456
0.0510034
0.0522887
0.0534921
0.0546045
0.0556176
0.0565232
0.0573143
0.0579845
0.0585286
0.058942
0.0592194
0.059346
0.0320293
0.0322186
0.0325993
0.0331699
0.0339309
0.034883
0.0360268
0.0373629
0.0388917
0.0406137
0.0425292
0.0446382
0.0469406
0.0494356
0.0521222
0.0549986
0.0580625
0.0613106
0.064739
0.0683425
0.0721149
0.0760487
0.0801352
0.0843642
0.088724
0.0932012
0.097781
0.102447
0.10718
0.111961
0.116768
0.121578
0.126367
0.131108
0.135774
0.140338
0.144771
0.149044
0.153127
0.156993
0.160613
0.163959
0.167007
0.169731
0.172111
0.174127
0.175764
0.177008
0.17785
0.178257
0.0533057
0.0536231
0.0542569
0.0552079
0.0564768
0.0580644
0.0599717
0.0621997
0.0647494
0.0676215
0.0708166
0.0743348
0.0781759
0.0823388
0.0868218
0.0916222
0.0967361
0.102158
0.107882
0.113899
0.120199
0.12677
0.133596
0.140662
0.147948
0.155431
0.163087
0.170889
0.178804
0.186801
0.194843
0.202892
0.210906
0.218841
0.226654
0.234296
0.24172
0.248876
0.255718
0.262195
0.268261
0.273869
0.278977
0.283545
0.287534
0.290913
0.293655
0.295738
0.297145
0.297847
0.0745006
0.0749446
0.0758322
0.0771644
0.0789422
0.0811668
0.0838397
0.0869622
0.0905358
0.0945617
0.0990409
0.103974
0.10936
0.115198
0.121487
0.128221
0.135397
0.143007
0.151042
0.15949
0.168337
0.177567
0.187159
0.197089
0.207331
0.217853
0.228621
0.239596
0.250735
0.261992
0.273315
0.284651
0.295941
0.307124
0.318136
0.32891
0.33938
0.349476
0.359129
0.36827
0.376832
0.38475
0.391963
0.398413
0.404048
0.40882
0.412691
0.415626
0.4176
0.418592
0.0955516
0.0961227
0.0972648
0.0989792
0.101267
0.104131
0.107571
0.111591
0.116192
0.121376
0.127145
0.1335
0.140439
0.147963
0.156068
0.16475
0.174003
0.183819
0.194185
0.205088
0.21651
0.228429
0.240819
0.253651
0.26689
0.280497
0.294426
0.308628
0.323048
0.337625
0.352294
0.366984
0.381621
0.396124
0.41041
0.424394
0.437987
0.451098
0.463638
0.475517
0.486647
0.496942
0.506323
0.514713
0.522043
0.528252
0.533286
0.537103
0.539668
0.540956
0.116416
0.117114
0.118512
0.120609
0.123409
0.126913
0.131124
0.136045
0.141678
0.148026
0.155092
0.162876
0.171378
0.180599
0.190535
0.201182
0.212533
0.224577
0.237302
0.250689
0.264719
0.279366
0.294598
0.310379
0.326668
0.343416
0.360569
0.378067
0.39584
0.413817
0.431915
0.450047
0.468122
0.48604
0.503699
0.520991
0.537807
0.554034
0.56956
0.584273
0.598063
0.610824
0.622454
0.632859
0.641951
0.649653
0.655899
0.660634
0.663815
0.665413
0.137048
0.137874
0.139528
0.14201
0.145323
0.14947
0.154455
0.16028
0.166951
0.174469
0.182839
0.192062
0.20214
0.213072
0.224856
0.237488
0.250959
0.265259
0.280373
0.296282
0.312961
0.330381
0.348506
0.367295
0.386698
0.406658
0.427112
0.447988
0.469206
0.490678
0.512307
0.53399
0.555616
0.577066
0.598218
0.618941
0.639105
0.658572
0.677208
0.694876
0.711442
0.726778
0.740761
0.753273
0.764211
0.773479
0.780996
0.786694
0.790522
0.792445
0.157402
0.158356
0.160266
0.163134
0.166962
0.171755
0.177516
0.184251
0.191964
0.200659
0.210342
0.221015
0.232681
0.24534
0.258992
0.27363
0.289249
0.305836
0.323375
0.341846
0.361222
0.38147
0.402549
0.424413
0.447004
0.47026
0.494106
0.51846
0.543228
0.568309
0.593592
0.618954
0.644266
0.669389
0.694178
0.718482
0.742142
0.765001
0.786894
0.807663
0.827146
0.845191
0.861651
0.876386
0.88927
0.900191
0.90905
0.915767
0.92028
0.922547
0.177427
0.178511
0.180678
0.183933
0.188278
0.193718
0.200259
0.207907
0.216667
0.226547
0.237551
0.249686
0.262954
0.277358
0.292897
0.309567
0.327362
0.346271
0.366276
0.387356
0.409482
0.432618
0.45672
0.481736
0.507603
0.534249
0.561591
0.589536
0.617978
0.646802
0.675879
0.705071
0.734226
0.763187
0.791785
0.819842
0.847177
0.873604
0.898932
0.922973
0.945541
0.966454
0.985539
1.00263
1.01759
1.03026
1.04055
1.04835
1.0536
1.05623
0.197074
0.198286
0.200711
0.204353
0.209216
0.215306
0.22263
0.231195
0.241008
0.252079
0.264414
0.278021
0.292906
0.309072
0.32652
0.345249
0.365252
0.38652
0.409035
0.432775
0.457709
0.483801
0.511002
0.539256
0.568494
0.598637
0.629593
0.661259
0.693516
0.726234
0.759268
0.792461
0.825642
0.858631
0.891233
0.923247
0.954462
0.984663
1.01363
1.04115
1.067
1.09096
1.11285
1.13246
1.14963
1.16418
1.176
1.18497
1.19099
1.19402
0.216286
0.217628
0.220311
0.224341
0.229723
0.236464
0.244572
0.254057
0.264928
0.277196
0.290871
0.305962
0.322477
0.340423
0.359803
0.380617
0.402862
0.426528
0.451599
0.478053
0.50586
0.53498
0.565364
0.59695
0.629665
0.663424
0.698126
0.733656
0.769884
0.806666
0.84384
0.88123
0.918644
0.955877
0.992709
1.02891
1.06424
1.09846
1.1313
1.16253
1.19189
1.21912
1.24401
1.26633
1.28587
1.30246
1.31592
1.32614
1.33301
1.33646
0.235008
0.236478
0.239419
0.243837
0.249738
0.257131
0.266025
0.276432
0.288364
0.301835
0.316856
0.333441
0.3516
0.371344
0.392678
0.415605
0.440125
0.466229
0.493905
0.523131
0.553878
0.586104
0.61976
0.65478
0.691088
0.728591
0.767182
0.806736
0.84711
0.888146
0.929664
0.971469
1.01335
1.05507
1.09639
1.13704
1.17676
1.21526
1.25226
1.28746
1.32059
1.35135
1.37948
1.40472
1.42683
1.44561
1.46086
1.47244
1.48022
1.48413
0.253178
0.254777
0.257975
0.262781
0.2692
0.277244
0.286924
0.298254
0.311249
0.325926
0.3423
0.360387
0.380203
0.401759
0.425068
0.450135
0.476962
0.505547
0.535877
0.567934
0.60169
0.637104
0.674126
0.712689
0.752713
0.794101
0.836737
0.880487
0.925198
0.970696
1.01679
1.06325
1.10985
1.15634
1.20243
1.24783
1.29224
1.33534
1.37679
1.41629
1.45348
1.48805
1.51969
1.54811
1.57302
1.59418
1.61138
1.62444
1.63322
1.63764
0.270734
0.27246
0.275915
0.281106
0.288042
0.296735
0.307199
0.319451
0.33351
0.349394
0.367124
0.38672
0.408201
0.431585
0.456887
0.484119
0.513286
0.54439
0.577424
0.612371
0.649208
0.687895
0.728382
0.770602
0.814473
0.859893
0.906742
0.954876
1.00413
1.05432
1.10523
1.15662
1.20823
1.25979
1.31097
1.36146
1.4109
1.45895
1.50522
1.54935
1.59096
1.62967
1.66514
1.69701
1.72497
1.74875
1.76808
1.78276
1.79265
1.79761
0.287609
0.289462
0.293172
0.298746
0.306195
0.315533
0.326778
0.339949
0.355068
0.372158
0.391245
0.412353
0.435506
0.460728
0.48804
0.517458
0.548994
0.582655
0.61844
0.656337
0.696325
0.73837
0.782423
0.828419
0.876274
0.925884
0.977123
1.02984
1.08387
1.13899
1.19499
1.2516
1.30855
1.3655
1.42214
1.47808
1.53295
1.58634
1.63783
1.687
1.73341
1.77665
1.81629
1.85196
1.88328
1.90992
1.9316
1.94807
1.95916
1.96474
0.303735
0.305714
0.309675
0.315628
0.323585
0.333564
0.345583
0.359666
0.37584
0.394132
0.414572
0.437191
0.462019
0.489085
0.518418
0.55004
0.58397
0.620223
0.658804
0.699707
0.742917
0.788405
0.836126
0.886018
0.937999
0.991962
1.04778
1.1053
1.16433
1.22465
1.28604
1.34819
1.41081
1.47355
1.53604
1.59786
1.65858
1.71776
1.77492
1.82958
1.88124
1.92943
1.97367
2.01351
2.04852
2.07833
2.10261
2.12107
2.1335
2.13975
0.319039
0.321142
0.325351
0.331678
0.340137
0.350747
0.363532
0.378518
0.395737
0.415222
0.437008
0.461132
0.487631
0.516543
0.547903
0.581741
0.618086
0.65696
0.698375
0.742337
0.788835
0.837849
0.88934
0.94325
0.9995
1.05799
1.11858
1.18111
1.2454
1.31122
1.37831
1.44635
1.51503
1.58396
1.65273
1.72089
1.78796
1.85343
1.91677
1.97743
2.03485
2.08849
2.13779
2.18224
2.22135
2.25468
2.28183
2.3025
2.31642
2.32342
0.333449
0.335673
0.340125
0.346819
0.35577
0.367001
0.380538
0.396415
0.414665
0.435328
0.458447
0.484065
0.512227
0.542979
0.576365
0.612425
0.651198
0.692714
0.736998
0.784063
0.833912
0.88653
0.941889
0.999937
1.0606
1.12378
1.18935
1.25714
1.32695
1.39856
1.47169
1.546
1.62115
1.69672
1.77226
1.84727
1.92123
1.99355
2.06365
2.13089
2.19465
2.2543
2.30921
2.35878
2.40244
2.43968
2.47006
2.49318
2.50877
2.51661
0.346887
0.349229
0.353919
0.36097
0.370402
0.382239
0.396514
0.413262
0.432525
0.454347
0.478779
0.505873
0.535682
0.56826
0.603663
0.641942
0.683146
0.727319
0.774495
0.824702
0.877953
0.934248
0.993566
1.05587
1.12109
1.18913
1.25988
1.33316
1.40879
1.4865
1.56603
1.64702
1.72908
1.81178
1.89463
1.97706
2.0585
2.13831
2.21581
2.2903
2.36106
2.42737
2.4885
2.54377
2.59252
2.63415
2.66812
2.69401
2.71147
2.72026
0.359277
0.361733
0.366653
0.37405
0.383948
0.396375
0.411366
0.428963
0.449213
0.472169
0.497888
0.52643
0.55786
0.592243
0.629644
0.670129
0.713758
0.760589
0.810671
0.864047
0.920743
0.980775
1.04414
1.1108
1.18072
1.2538
1.32993
1.40895
1.49066
1.57482
1.66113
1.74922
1.83869
1.92905
2.01978
2.11027
2.19987
2.28786
2.3735
2.45599
2.5345
2.60821
2.67628
2.73793
2.79237
2.83892
2.87696
2.90596
2.92553
2.93538
0.370539
0.373105
0.378245
0.385976
0.396322
0.409317
0.424999
0.443416
0.464622
0.488678
0.515649
0.545605
0.578622
0.614776
0.654145
0.696809
0.742844
0.792322
0.845311
0.901867
0.962039
1.02586
1.09333
1.16446
1.23919
1.31747
1.39919
1.4842
1.57229
1.66324
1.75672
1.85237
1.94976
2.04836
2.14761
2.24685
2.34535
2.44233
2.53693
2.62826
2.71538
2.79734
2.87319
2.94198
3.00284
3.05495
3.09757
3.13011
3.15207
3.16313
0.380595
0.383266
0.388615
0.396663
0.407437
0.420972
0.437315
0.456518
0.478642
0.503756
0.531935
0.56326
0.597817
0.635696
0.676991
0.721794
0.7702
0.822299
0.878177
0.937912
1.00157
1.06921
1.14085
1.21652
1.29619
1.37982
1.46732
1.55855
1.65333
1.75141
1.85249
1.95618
2.06203
2.1695
2.27796
2.38671
2.49494
2.60178
2.70628
2.80742
2.90413
2.99532
3.07988
3.15674
3.22485
3.28325
3.33109
3.36764
3.39233
3.40477
0.389365
0.392134
0.397681
0.406027
0.417203
0.431249
0.448216
0.468163
0.491159
0.517281
0.546614
0.57925
0.61529
0.654836
0.697997
0.744884
0.79561
0.850285
0.909017
0.971905
1.03904
1.11051
1.18636
1.26663
1.35134
1.44045
1.53391
1.6316
1.73334
1.83892
1.94802
2.06025
2.17515
2.29215
2.41057
2.52966
2.64854
2.76623
2.88168
2.99372
3.10114
3.20269
3.29709
3.38307
3.45941
3.52498
3.57876
3.6199
3.64772
3.66174
0.396772
0.399632
0.405361
0.413984
0.425533
0.440055
0.457603
0.478246
0.502059
0.529128
0.55955
0.59343
0.630879
0.672017
0.71697
0.765867
0.818842
0.876027
0.937554
1.00355
1.07413
1.14941
1.22947
1.31439
1.4042
1.49892
1.5985
1.70286
1.81186
1.92527
2.04282
2.16411
2.28867
2.41591
2.54511
2.67545
2.80598
2.93563
3.0632
3.18739
3.30682
3.42004
3.52555
3.62189
3.70761
3.78138
3.84198
3.8884
3.91981
3.93565
0.40274
0.405682
0.411577
0.420451
0.432341
0.447297
0.465378
0.48666
0.511226
0.539173
0.570607
0.605646
0.644418
0.687058
0.733709
0.784523
0.839653
0.899258
0.963496
1.03252
1.10649
1.18554
1.26979
1.35936
1.45432
1.55472
1.66055
1.77178
1.88829
2.00989
2.13632
2.2672
2.40205
2.54026
2.68111
2.8237
2.967
3.10983
3.25086
3.38862
3.52153
3.64792
3.76605
3.8742
3.97067
4.05386
4.12233
4.17483
4.2104
4.22836
0.407196
0.410211
0.416253
0.42535
0.437543
0.452886
0.471444
0.4933
0.518546
0.547289
0.579646
0.615749
0.65574
0.699772
0.748009
0.800621
0.85779
0.919698
0.986536
1.05849
1.13575
1.21849
1.30687
1.40106
1.50117
1.60729
1.71948
1.83774
1.96199
2.09209
2.22781
2.3688
2.51459
2.66458
2.81799
2.9739
3.13119
3.28857
3.44456
3.5975
3.7456
3.88691
4.01943
4.14111
4.24994
4.34401
4.42158
4.48117
4.52158
4.54199
0.410069
0.413147
0.419315
0.428604
0.441058
0.456735
0.475708
0.498065
0.523908
0.553353
0.58653
0.623585
0.664674
0.709971
0.759657
0.813929
0.872991
0.937057
1.00635
1.08109
1.1615
1.24781
1.34023
1.43895
1.54417
1.65602
1.77461
1.90001
2.0322
2.17109
2.31649
2.46811
2.6255
2.78806
2.95501
3.12539
3.29801
3.47145
3.64408
3.81404
3.97928
4.13756
4.28653
4.42377
4.54689
4.65359
4.74178
4.80964
4.85572
4.87901
0.411297
0.414425
0.420696
0.430142
0.44281
0.458764
0.478081
0.500857
0.527203
0.557245
0.591126
0.629004
0.671054
0.717465
0.768443
0.824207
0.884989
0.951034
1.0226
1.09994
1.18333
1.27305
1.36934
1.47248
1.5827
1.70022
1.82521
1.9578
2.09806
2.24597
2.40141
2.56414
2.73377
2.90972
3.09123
3.27731
3.4667
3.65787
3.84904
4.03812
4.22276
4.40038
4.56823
4.72345
4.86318
4.98463
5.08526
5.16284
5.2156
5.2423
0.410819
0.413985
0.420333
0.429898
0.442729
0.458895
0.478479
0.501584
0.528329
0.558851
0.593304
0.631861
0.674714
0.72207
0.774157
0.831219
0.893516
0.961327
1.03494
1.11467
1.20082
1.29371
1.39368
1.50103
1.61609
1.73914
1.87045
2.01022
2.15862
2.31571
2.48148
2.65576
2.83824
3.0284
3.2255
3.42856
3.63628
3.84703
4.05885
4.26941
4.47606
4.67581
4.86543
5.04152
5.20064
5.33941
5.45471
5.5438
5.60449
5.63523
0.408584
0.411775
0.418172
0.427814
0.440753
0.45706
0.476827
0.500161
0.52719
0.558062
0.592942
0.632018
0.675496
0.723604
0.776592
0.834729
0.898304
0.967629
1.04304
1.12487
1.2135
1.3093
1.41266
1.52397
1.64362
1.772
1.90945
2.05629
2.2128
2.37916
2.55545
2.74164
2.93752
3.14266
3.35641
3.57779
3.80549
4.03781
4.27263
4.50739
4.73905
4.96418
5.17899
5.37943
5.56132
5.72055
5.85327
5.95608
6.02624
6.06182
0.40455
0.40775
0.414167
0.42384
0.436826
0.4532
0.473057
0.496512
0.523701
0.55478
0.589928
0.629344
0.673252
0.721897
0.775552
0.83451
0.899091
0.969642
1.04653
1.13015
1.22093
1.31929
1.4257
1.54062
1.66454
1.79792
1.94125
2.09495
2.25942
2.43499
2.6219
2.82026
3.03
3.25084
3.48222
3.72327
3.97269
4.22875
4.48918
4.75117
5.01131
5.26565
5.50973
5.73869
5.94749
6.13105
6.2846
6.40388
6.48545
6.52686
0.398681
0.401874
0.408279
0.417936
0.430905
0.447263
0.467112
0.490572
0.517786
0.548919
0.58416
0.623723
0.667844
0.71679
0.77085
0.830346
0.895627
0.967072
1.04509
1.13013
1.22265
1.32316
1.43219
1.55029
1.67804
1.81602
1.96483
2.12503
2.29718
2.48178
2.67925
2.88988
3.1138
3.35093
3.60088
3.86291
4.13584
4.41792
4.70681
4.99946
5.29207
5.58011
5.85832
6.1209
6.36166
6.57436
6.753
6.89222
6.98763
7.03614
0.390953
0.394123
0.400482
0.410073
0.422955
0.439212
0.458948
0.482288
0.509383
0.540405
0.575553
0.615052
0.659153
0.708138
0.762319
0.82204
0.887678
0.959646
1.0384
1.12441
1.21823
1.3204
1.43154
1.5523
1.68334
1.82537
1.97911
2.14531
2.32469
2.51795
2.72571
2.94852
3.18676
3.4406
3.7099
3.99415
4.29234
4.60283
4.92326
5.2504
5.58005
5.90705
6.22523
6.52761
6.80662
7.05446
7.26357
7.42711
7.53948
7.5967
0.381354
0.384484
0.390762
0.400232
0.412956
0.429021
0.448533
0.471623
0.498446
0.529182
0.564037
0.603246
0.647075
0.69582
0.74981
0.809412
0.875031
0.947111
1.02614
1.11265
1.20723
1.31051
1.42316
1.54593
1.6796
1.825
1.983
2.15451
2.34046
2.54178
2.75935
2.994
3.24643
3.51714
3.80634
4.11386
4.43898
4.78029
5.13552
5.50135
5.87326
6.24538
6.61054
6.96033
7.2854
7.57596
7.82236
8.01584
8.14915
8.21715
0.369884
0.372954
0.379114
0.388409
0.400901
0.416679
0.435852
0.458554
0.484945
0.515209
0.549561
0.588243
0.631532
0.679736
0.733201
0.792314
0.857504
0.929243
1.00806
1.09452
1.18928
1.29301
1.40648
1.53053
1.66603
1.81396
1.97535
2.1513
2.34294
2.55146
2.77806
3.0239
3.29005
3.57745
3.88677
4.2183
4.57179
4.94622
5.3396
5.74869
6.16871
6.59318
7.01375
7.4203
7.80125
8.14417
8.43666
8.66733
8.82674
8.90819
0.356555
0.359547
0.365551
0.374613
0.386796
0.402189
0.420904
0.443076
0.468868
0.498469
0.532097
0.570002
0.612468
0.659815
0.712401
0.770629
0.834948
0.905858
0.983915
1.06974
1.16401
1.26748
1.38098
1.50544
1.64186
1.79134
1.95506
2.13433
2.33052
2.5451
2.7796
3.03557
3.31456
3.61801
3.94719
4.30303
4.68593
5.09551
5.53032
5.98745
6.46212
6.94729
7.43341
7.90832
8.35759
8.76529
9.11527
9.39256
9.5848
9.68318
0.341392
0.344287
0.350098
0.358868
0.370663
0.385572
0.403706
0.425203
0.450225
0.478965
0.511642
0.548511
0.589861
0.636018
0.687351
0.744276
0.807257
0.876815
0.953534
1.03806
1.13113
1.23354
1.34621
1.47012
1.60639
1.75625
1.92106
2.10231
2.30162
2.52077
2.76165
3.02625
3.31665
3.63493
3.98308
4.36286
4.77556
5.22178
5.70096
6.21093
6.74729
7.30276
7.86661
8.42433
8.95784
9.4465
9.86893
10.2052
10.4391
10.559
0.324437
0.327216
0.332794
0.341214
0.352542
0.366866
0.384296
0.404969
0.429048
0.456723
0.488218
0.523785
0.563716
0.608342
0.658036
0.713221
0.774374
0.84203
0.916792
0.999337
1.09043
1.19092
1.30177
1.42405
1.55898
1.70791
1.87235
2.05399
2.2547
2.47656
2.72184
2.99304
3.29282
3.62397
3.98936
4.39179
4.83376
5.31719
5.84294
6.41017
7.01552
7.65204
8.30815
8.96678
9.60518
10.1962
10.711
11.1227
11.4096
11.5569
0.305745
0.308388
0.313694
0.321706
0.332488
0.346125
0.362727
0.382429
0.405389
0.431798
0.461875
0.495871
0.534077
0.576822
0.624481
0.677478
0.736296
0.801476
0.873635
0.953467
1.04176
1.1394
1.24739
1.36688
1.49916
1.64567
1.80809
1.98827
2.18833
2.41065
2.65791
2.93307
3.23945
3.58064
3.96051
4.38311
4.85245
5.37226
5.94543
6.57333
7.25462
7.98379
8.74927
9.53153
10.302
11.0243
11.6582
12.167
12.522
12.7042
0.285385
0.287873
0.29287
0.300416
0.310573
0.323425
0.339077
0.357659
0.379329
0.404268
0.432693
0.46485
0.501022
0.541535
0.586759
0.637114
0.693079
0.755197
0.824087
0.900449
0.985084
1.0789
1.18293
1.29837
1.42655
1.56904
1.72759
1.90424
2.10131
2.32145
2.56772
2.84358
3.15298
3.50037
3.89072
4.32948
4.82251
5.37581
5.99509
6.685
7.44777
8.28118
9.17555
10.11
11.0491
11.9426
12.7325
13.3672
13.8092
14.0356
0.263441
0.265757
0.270407
0.277431
0.286888
0.298856
0.313439
0.330759
0.350968
0.37424
0.400783
0.430835
0.46467
0.502603
0.544993
0.592251
0.644845
0.70331
0.768255
0.840378
0.920475
1.00946
1.10838
1.21843
1.34102
1.47773
1.63042
1.80124
1.99269
2.20764
2.44948
2.72213
3.03013
3.37877
3.77416
4.22327
4.734
5.3151
5.97587
6.72556
7.57205
8.51939
9.56355
10.6857
11.8437
12.9665
13.9637
14.7618
15.314
15.5953
0.240013
0.242138
0.246407
0.252855
0.261538
0.272531
0.285929
0.301849
0.320433
0.341847
0.366286
0.393977
0.425178
0.460191
0.499358
0.543072
0.591785
0.64601
0.70634
0.773451
0.848123
0.931254
1.02388
1.1272
1.24261
1.37172
1.51644
1.67897
1.86191
2.06834
2.30186
2.56676
2.8681
3.21193
3.60539
4.05697
4.57669
5.17629
5.86933
6.67094
7.59711
8.66245
9.87523
11.2272
12.6752
14.1176
15.3958
16.4041
17.0914
17.438
0.215213
0.217132
0.220985
0.226807
0.234648
0.244578
0.256683
0.271073
0.287877
0.307251
0.329375
0.354458
0.382744
0.414511
0.450081
0.489822
0.534158
0.583575
0.638633
0.699977
0.768351
0.844616
0.929774
1.02499
1.13163
1.25128
1.38582
1.53749
1.7089
1.9032
2.12414
2.37624
2.66493
2.99681
3.37988
3.82393
4.34091
4.9455
5.65565
6.49324
7.4845
8.65954
10.0492
11.6741
13.5137
15.4346
17.0993
18.3689
19.2111
19.6289
0.189168
0.190865
0.194273
0.199422
0.206357
0.215142
0.225854
0.238592
0.253474
0.270638
0.290249
0.312497
0.337603
0.365819
0.397441
0.432803
0.472295
0.516364
0.565526
0.620378
0.681612
0.750034
0.826581
0.912353
1.00864
1.11697
1.23915
1.37733
1.5341
1.71254
1.91642
2.1503
2.41976
2.73169
3.09462
3.51919
4.01879
4.61042
5.31582
6.16318
7.18941
8.44334
9.98936
11.9078
14.2723
17.0092
19.1994
20.7623
21.7566
22.239
0.162016
0.163477
0.166412
0.170846
0.176819
0.184385
0.193614
0.20459
0.217419
0.232221
0.249141
0.268346
0.29003
0.314417
0.341767
0.372378
0.406595
0.444817
0.487503
0.53519
0.588498
0.648155
0.715011
0.790067
0.874504
0.969726
1.07741
1.19955
1.33858
1.49744
1.6797
1.88979
2.13317
2.41664
2.74879
3.14051
3.60576
4.16268
4.83518
5.6554
6.66778
7.93621
9.55824
11.6967
14.6596
19.1315
21.928
23.7255
24.8153
25.3326
0.133905
0.135119
0.137558
0.141241
0.146201
0.152484
0.160149
0.169269
0.179929
0.192234
0.206305
0.222283
0.240332
0.260644
0.283437
0.308965
0.337523
0.36945
0.405141
0.445056
0.489728
0.539787
0.595967
0.659141
0.73034
0.810796
0.901985
1.00569
1.12407
1.25976
1.41602
1.59687
1.80736
2.05381
2.34432
2.68923
3.102
3.60031
4.20777
4.95645
5.89109
7.07646
8.61172
10.6621
13.5388
17.9305
20.6565
22.3974
23.4476
23.9445
0.104995
0.105953
0.107876
0.110777
0.114682
0.119628
0.125663
0.132843
0.141239
0.150933
0.162021
0.174616
0.18885
0.204876
0.222868
0.243031
0.265601
0.290851
0.319101
0.35072
0.386143
0.425878
0.470527
0.5208
0.577544
0.641771
0.714702
0.797815
0.892913
1.00221
1.12845
1.27504
1.4463
1.64769
1.88619
2.17085
2.51346
2.92959
3.43994
4.07234
4.86448
5.86766
7.15093
8.80191
10.9041
13.3959
15.371
16.7609
17.6341
18.0542
0.0754522
0.076143
0.0775387
0.0796326
0.0824483
0.086014
0.0903641
0.0955407
0.101594
0.108585
0.116584
0.125672
0.135946
0.147517
0.160513
0.175083
0.1914
0.209665
0.230111
0.253011
0.278684
0.307507
0.339923
0.376459
0.417745
0.464535
0.517741
0.578472
0.648085
0.728253
0.821057
0.929105
1.05569
1.20502
1.38249
1.5951
1.85202
2.16526
2.55068
3.0291
3.62746
4.3794
5.32308
6.49119
7.88033
9.37855
10.6715
11.6417
12.2745
12.5846
0.0454503
0.0458543
0.0466989
0.0479641
0.0496643
0.0518168
0.0544427
0.0575678
0.0612228
0.0654441
0.0702746
0.0757644
0.0819715
0.0889637
0.0968192
0.105629
0.115498
0.126549
0.138925
0.152792
0.168347
0.185819
0.205482
0.227659
0.252738
0.281185
0.313564
0.350562
0.393023
0.441989
0.498759
0.564968
0.642685
0.734557
0.843993
0.97542
1.13461
1.32913
1.5688
1.86628
2.23725
2.69978
3.2712
3.95983
4.74789
5.56694
6.29499
6.86024
7.2379
7.42547
0.0151785
0.0153051
0.0155851
0.0160078
0.0165762
0.0172958
0.0181737
0.0192185
0.0204405
0.0218519
0.0234672
0.0253031
0.0273791
0.0297179
0.0323459
0.0352935
0.0385962
0.0422951
0.0464383
0.0510819
0.0562917
0.0621456
0.0687353
0.0761704
0.0845816
0.0941267
0.104996
0.117424
0.131694
0.148162
0.16727
0.189574
0.21578
0.246792
0.283774
0.328239
0.38216
0.448105
0.529401
0.63026
0.755781
0.911556
1.10239
1.32936
1.58474
1.84663
2.08162
2.26668
2.39173
2.45425
)
;

boundaryField
{
    walls
    {
        type            calculated;
        value           nonuniform List<scalar> 
200
(
0
0
0
0
0
0
0
0
0
0
0
0
0
0
0
0
0
0
0
0
0
0
0
0
0
0
0
0
0
0
0
0
0
0
0
0
0
0
0
0
0
0
0
0
0
0
0
0
0
0
0.0106906
0.0320293
0.0533057
0.0745006
0.0955516
0.116416
0.137048
0.157402
0.177427
0.197074
0.216286
0.235008
0.253178
0.270734
0.287609
0.303735
0.319039
0.333449
0.346887
0.359277
0.370539
0.380595
0.389365
0.396772
0.40274
0.407196
0.410069
0.411297
0.410819
0.408584
0.40455
0.398681
0.390953
0.381354
0.369884
0.356555
0.341392
0.324437
0.305745
0.285385
0.263441
0.240013
0.215213
0.189168
0.162016
0.133905
0.104995
0.0754522
0.0454503
0.0151785
0.059346
0.178257
0.297847
0.418592
0.540956
0.665413
0.792445
0.922547
1.05623
1.19402
1.33646
1.48413
1.63764
1.79761
1.96474
2.13975
2.32342
2.51661
2.72026
2.93538
3.16313
3.40477
3.66174
3.93565
4.22836
4.54199
4.87901
5.2423
5.63523
6.06182
6.52686
7.03614
7.5967
8.21715
8.90819
9.68318
10.559
11.5569
12.7042
14.0356
15.5953
17.438
19.6289
22.239
25.3326
23.9445
18.0542
12.5846
7.42547
2.45425
0
0
0
0
0
0
0
0
0
0
0
0
0
0
0
0
0
0
0
0
0
0
0
0
0
0
0
0
0
0
0
0
0
0
0
0
0
0
0
0
0
0
0
0
0
0
0
0
0
0
)
;
    }
    frontAndBack
    {
        type            empty;
    }
}


// ************************************************************************* //
