/*--------------------------------*- C++ -*----------------------------------*\
| =========                 |                                                 |
| \\      /  F ield         | OpenFOAM: The Open Source CFD Toolbox           |
|  \\    /   O peration     | Version:  2406                                  |
|   \\  /    A nd           | Website:  www.openfoam.com                      |
|    \\/     M anipulation  |                                                 |
\*---------------------------------------------------------------------------*/
FoamFile
{
    version     2.0;
    format      ascii;
    arch        "LSB;label=32;scalar=64";
    class       volScalarField;
    location    "1.95";
    object      T;
}
// * * * * * * * * * * * * * * * * * * * * * * * * * * * * * * * * * * * * * //

dimensions      [0 0 0 1 0 0 0];

internalField   nonuniform List<scalar> 
2500
(
0.296977
0.297405
0.298258
0.299537
0.301238
0.303359
0.305895
0.308841
0.312191
0.315938
0.320074
0.324589
0.329474
0.334716
0.340303
0.346221
0.352453
0.358982
0.365791
0.372858
0.380162
0.387679
0.395386
0.403254
0.411257
0.419364
0.427544
0.435766
0.443996
0.452199
0.46034
0.468381
0.476287
0.484019
0.491541
0.498815
0.505803
0.51247
0.518781
0.5247
0.530196
0.535238
0.539797
0.543846
0.547363
0.550327
0.55272
0.554527
0.555738
0.556345
0.297405
0.297835
0.298693
0.29998
0.301691
0.303825
0.306376
0.30934
0.31271
0.31648
0.320641
0.325185
0.3301
0.335376
0.340999
0.346955
0.353227
0.3598
0.366654
0.373769
0.381124
0.388694
0.396454
0.404379
0.41244
0.420606
0.428848
0.437132
0.445425
0.453692
0.461896
0.470002
0.477971
0.485767
0.49335
0.500685
0.507732
0.514456
0.520821
0.526792
0.532336
0.537422
0.542021
0.546107
0.549656
0.552646
0.555061
0.556884
0.558106
0.558719
0.298258
0.298693
0.299562
0.300864
0.302595
0.304754
0.307336
0.310335
0.313747
0.317562
0.321775
0.326375
0.331352
0.336694
0.342388
0.348421
0.354775
0.361435
0.36838
0.375592
0.383046
0.390721
0.398591
0.406629
0.414806
0.423092
0.431456
0.439864
0.448283
0.456678
0.46501
0.473244
0.481342
0.489264
0.496972
0.504428
0.511594
0.518432
0.524906
0.53098
0.536621
0.541796
0.546477
0.550636
0.554248
0.557292
0.55975
0.561607
0.562852
0.563475
0.299537
0.29998
0.300864
0.302188
0.30395
0.306147
0.308775
0.311827
0.3153
0.319185
0.323474
0.328158
0.333228
0.33867
0.344472
0.350619
0.357097
0.363887
0.37097
0.378325
0.385932
0.393764
0.401798
0.410006
0.418358
0.426824
0.435372
0.443968
0.452577
0.461164
0.46969
0.478117
0.486407
0.49452
0.502416
0.510056
0.517401
0.524411
0.53105
0.537279
0.543066
0.548377
0.55318
0.557449
0.561157
0.564283
0.566807
0.568714
0.569992
0.570632
0.301238
0.301691
0.302595
0.30395
0.305753
0.308001
0.310689
0.313814
0.317368
0.321345
0.325737
0.330534
0.335726
0.341302
0.347248
0.35355
0.360191
0.367155
0.374422
0.381971
0.38978
0.397824
0.406077
0.414512
0.423099
0.431806
0.4406
0.449448
0.458313
0.467157
0.475943
0.48463
0.493179
0.501549
0.509697
0.517585
0.525169
0.532411
0.539271
0.545711
0.551694
0.557186
0.562155
0.566572
0.57041
0.573645
0.576258
0.578232
0.579556
0.580219
0.303359
0.303825
0.304754
0.306147
0.308001
0.310312
0.313077
0.316291
0.319948
0.32404
0.32856
0.333498
0.338845
0.344588
0.350714
0.357209
0.364057
0.371239
0.378737
0.386529
0.394592
0.402902
0.411431
0.420152
0.429033
0.438043
0.447149
0.456313
0.465499
0.474669
0.483781
0.492797
0.501672
0.510365
0.518833
0.527032
0.53492
0.542455
0.549595
0.5563
0.562532
0.568254
0.573433
0.578038
0.582039
0.585413
0.588138
0.590198
0.591579
0.592271
0.305895
0.306376
0.307336
0.308775
0.310689
0.313077
0.315934
0.319256
0.323035
0.327266
0.33194
0.337049
0.342581
0.348526
0.354869
0.361597
0.368693
0.376138
0.383914
0.391999
0.400369
0.408999
0.417861
0.426927
0.436165
0.445542
0.455023
0.464571
0.474146
0.48371
0.49322
0.502632
0.511904
0.52099
0.529845
0.538424
0.546681
0.554572
0.562053
0.569082
0.575616
0.581619
0.587054
0.591886
0.596088
0.599631
0.602494
0.604657
0.606108
0.606835
0.308841
0.30934
0.310335
0.311827
0.313814
0.316291
0.319256
0.322702
0.326626
0.331019
0.335873
0.341181
0.346931
0.353111
0.359709
0.366709
0.374095
0.38185
0.389952
0.39838
0.40711
0.416117
0.425371
0.434843
0.444501
0.45431
0.464233
0.474232
0.484267
0.494296
0.504274
0.514156
0.523897
0.533448
0.542762
0.55179
0.560485
0.568798
0.576683
0.584095
0.59099
0.597326
0.603064
0.608168
0.612607
0.616352
0.619378
0.621666
0.6232
0.623969
0.312191
0.31271
0.313747
0.3153
0.317368
0.319948
0.323035
0.326626
0.330714
0.335292
0.340354
0.345889
0.351889
0.358339
0.365229
0.372542
0.380262
0.388372
0.396849
0.405673
0.414818
0.424257
0.433963
0.443904
0.454046
0.464353
0.474787
0.485309
0.495876
0.506442
0.516963
0.52739
0.537675
0.547766
0.557612
0.567163
0.576367
0.585172
0.593529
0.601388
0.608702
0.615427
0.62152
0.626942
0.631659
0.635639
0.638856
0.641288
0.642919
0.643737
0.315938
0.31648
0.317562
0.319185
0.321345
0.32404
0.327266
0.331019
0.335292
0.34008
0.345375
0.351168
0.357449
0.364205
0.371425
0.379092
0.38719
0.395701
0.404603
0.413874
0.42349
0.433422
0.44364
0.454113
0.464805
0.47568
0.486697
0.497814
0.508986
0.520168
0.531309
0.542359
0.553266
0.563975
0.574433
0.584584
0.594372
0.603742
0.612641
0.621014
0.628811
0.635984
0.642485
0.648274
0.653311
0.657563
0.661
0.6636
0.665344
0.666218
0.320074
0.320641
0.321775
0.323474
0.325737
0.32856
0.33194
0.335873
0.340354
0.345375
0.35093
0.35701
0.363605
0.370702
0.37829
0.386352
0.394873
0.403832
0.41321
0.422984
0.433126
0.44361
0.454403
0.465474
0.476785
0.488298
0.499971
0.51176
0.523616
0.535492
0.547334
0.559089
0.5707
0.582111
0.593262
0.604093
0.614546
0.624559
0.634074
0.643034
0.651382
0.659065
0.666034
0.67224
0.677644
0.682206
0.685896
0.688687
0.690559
0.691498
0.324589
0.325185
0.326375
0.328158
0.330534
0.333498
0.337049
0.341181
0.345889
0.351168
0.35701
0.363407
0.370348
0.377822
0.385817
0.394316
0.403304
0.412762
0.422667
0.432997
0.443724
0.454821
0.466255
0.477991
0.489992
0.502217
0.514622
0.52716
0.539782
0.552434
0.565063
0.577608
0.590011
0.60221
0.614141
0.62574
0.636941
0.64768
0.657893
0.667515
0.676487
0.684749
0.692246
0.698927
0.704746
0.709661
0.713637
0.716646
0.718664
0.719676
0.329474
0.3301
0.331352
0.333228
0.335726
0.338845
0.342581
0.346931
0.351889
0.357449
0.363605
0.370348
0.377669
0.385556
0.393997
0.402976
0.412478
0.422482
0.432967
0.443909
0.455281
0.467054
0.479194
0.491665
0.504429
0.517442
0.530658
0.544029
0.557501
0.571018
0.58452
0.597948
0.611234
0.624314
0.637117
0.649575
0.661616
0.673169
0.684165
0.694532
0.704206
0.713119
0.721213
0.728429
0.734717
0.74003
0.74433
0.747584
0.749768
0.750863
0.334716
0.335376
0.336694
0.33867
0.341302
0.344588
0.348526
0.353111
0.358339
0.364205
0.370702
0.377822
0.385556
0.393893
0.402819
0.412322
0.422383
0.432984
0.444102
0.455714
0.467792
0.480305
0.49322
0.506498
0.5201
0.533981
0.548091
0.56238
0.57679
0.591262
0.605734
0.620138
0.634406
0.648464
0.662238
0.675653
0.688631
0.701094
0.712965
0.724167
0.734626
0.744271
0.753034
0.760851
0.767666
0.773428
0.778092
0.781623
0.783993
0.785182
0.340303
0.340999
0.342388
0.344472
0.347248
0.350714
0.354869
0.359709
0.365229
0.371425
0.37829
0.385817
0.393997
0.402819
0.412272
0.422341
0.433009
0.444257
0.456064
0.468404
0.481249
0.494569
0.508329
0.522489
0.537008
0.551838
0.566928
0.582224
0.597666
0.61319
0.62873
0.644212
0.659564
0.674705
0.689556
0.704033
0.718052
0.731527
0.744373
0.756506
0.767844
0.778306
0.787818
0.796309
0.803716
0.80998
0.815053
0.818895
0.821474
0.822768
0.346221
0.346955
0.348421
0.350619
0.35355
0.357209
0.361597
0.366709
0.372542
0.379092
0.386352
0.394316
0.402976
0.412322
0.422341
0.43302
0.444343
0.45629
0.46884
0.481967
0.495645
0.50984
0.524517
0.539635
0.555151
0.571016
0.587176
0.603573
0.620144
0.636822
0.653534
0.670202
0.686747
0.703084
0.719124
0.734776
0.749949
0.764548
0.778478
0.791647
0.803962
0.815337
0.825685
0.83493
0.842997
0.849825
0.855356
0.859546
0.862359
0.863771
0.352453
0.353227
0.354775
0.357097
0.360191
0.364057
0.368693
0.374095
0.380262
0.38719
0.394873
0.403304
0.412478
0.422383
0.433009
0.444343
0.456368
0.469066
0.482416
0.496392
0.510966
0.526106
0.541774
0.55793
0.574528
0.591516
0.608839
0.626436
0.644239
0.662176
0.680171
0.69814
0.715996
0.733647
0.750997
0.767947
0.784395
0.800238
0.81537
0.829689
0.843093
0.855483
0.866765
0.87685
0.885657
0.893113
0.899158
0.903737
0.906814
0.908357
0.358982
0.3598
0.361435
0.363887
0.367155
0.371239
0.376138
0.38185
0.388372
0.395701
0.403832
0.412762
0.422482
0.432984
0.444257
0.45629
0.469066
0.482568
0.496775
0.511661
0.527198
0.543354
0.56009
0.577365
0.595131
0.613335
0.631919
0.650818
0.669961
0.689271
0.708666
0.728057
0.747349
0.766442
0.785233
0.803612
0.821467
0.838685
0.855149
0.870744
0.885356
0.898876
0.911197
0.922219
0.931851
0.940012
0.946629
0.951646
0.955016
0.956708
0.365791
0.366654
0.36838
0.37097
0.374422
0.378737
0.383914
0.389952
0.396849
0.404603
0.41321
0.422667
0.432967
0.444102
0.456064
0.46884
0.482416
0.496775
0.511896
0.527754
0.544323
0.561567
0.57945
0.597928
0.616952
0.636467
0.656413
0.676721
0.697317
0.718119
0.739038
0.75998
0.780842
0.801516
0.821888
0.841838
0.861244
0.87998
0.897916
0.914925
0.93088
0.945655
0.959133
0.971201
0.981754
0.990701
0.99796
1.00346
1.00716
1.00902
0.372858
0.373769
0.375592
0.378325
0.381971
0.386529
0.391999
0.39838
0.405673
0.413874
0.422984
0.432997
0.443909
0.455714
0.468404
0.481967
0.496392
0.511661
0.527754
0.544649
0.562316
0.580724
0.599833
0.6196
0.639975
0.660901
0.682314
0.704144
0.726312
0.748731
0.771307
0.793937
0.816512
0.838914
0.861018
0.882695
0.903808
0.924217
0.943781
0.962356
0.979799
0.995971
1.01074
1.02397
1.03555
1.04538
1.05335
1.05941
1.06347
1.06552
0.380162
0.381124
0.383046
0.385932
0.38978
0.394592
0.400369
0.40711
0.414818
0.42349
0.433126
0.443724
0.455281
0.467792
0.481249
0.495645
0.510966
0.527198
0.544323
0.562316
0.581152
0.600798
0.621215
0.64236
0.66418
0.686619
0.70961
0.733079
0.756944
0.781112
0.805484
0.829949
0.85439
0.878678
0.902679
0.926249
0.949239
0.971494
0.992856
1.01316
1.03226
1.04998
1.06618
1.08072
1.09345
1.10426
1.11304
1.1197
1.12419
1.12644
0.387679
0.388694
0.390721
0.393764
0.397824
0.402902
0.408999
0.416117
0.424257
0.433422
0.44361
0.454821
0.467054
0.480305
0.494569
0.50984
0.526106
0.543354
0.561567
0.580724
0.600798
0.621758
0.643566
0.666178
0.689543
0.7136
0.738282
0.763512
0.789204
0.815261
0.841576
0.868032
0.894502
0.920848
0.946923
0.972569
0.997622
1.02191
1.04526
1.06749
1.08841
1.10786
1.12566
1.14165
1.15567
1.16758
1.17726
1.18461
1.18956
1.19204
0.395386
0.396454
0.398591
0.401798
0.406077
0.411431
0.417861
0.425371
0.433963
0.44364
0.454403
0.466255
0.479194
0.49322
0.508329
0.524517
0.541774
0.56009
0.57945
0.599833
0.621215
0.643566
0.666849
0.69102
0.716028
0.741812
0.768303
0.795421
0.823077
0.851168
0.879583
0.908196
0.936871
0.965458
0.993797
1.02172
1.04904
1.07557
1.10111
1.12546
1.14842
1.1698
1.18938
1.20699
1.22244
1.23559
1.24628
1.25441
1.25988
1.26263
0.403254
0.404379
0.406629
0.410006
0.414512
0.420152
0.426927
0.434843
0.443904
0.454113
0.465474
0.477991
0.491665
0.506498
0.522489
0.539635
0.55793
0.577365
0.597928
0.6196
0.64236
0.666178
0.69102
0.716843
0.743596
0.771218
0.799638
0.828776
0.858538
0.888817
0.919496
0.950442
0.981508
1.01253
1.04335
1.07376
1.10356
1.13256
1.16053
1.18724
1.21246
1.23597
1.25755
1.27697
1.29404
1.30857
1.32041
1.32941
1.33547
1.33851
0.411257
0.41244
0.414806
0.418358
0.423099
0.429033
0.436165
0.444501
0.454046
0.464805
0.476785
0.489992
0.504429
0.5201
0.537008
0.555151
0.574528
0.595131
0.616952
0.639975
0.66418
0.689543
0.716028
0.743596
0.772196
0.801769
0.832243
0.863536
0.895551
0.928179
0.961296
0.994761
1.02842
1.06209
1.0956
1.12874
1.16128
1.19299
1.22364
1.25296
1.2807
1.3066
1.3304
1.35186
1.37075
1.38684
1.39996
1.40994
1.41667
1.42005
0.419364
0.420606
0.423092
0.426824
0.431806
0.438043
0.445542
0.45431
0.464353
0.47568
0.488298
0.502217
0.517442
0.533981
0.551838
0.571016
0.591516
0.613335
0.636467
0.660901
0.686619
0.7136
0.741812
0.771218
0.801769
0.833407
0.86606
0.899647
0.934069
0.969213
1.00495
1.04113
1.07759
1.11414
1.15059
1.1867
1.22224
1.25695
1.29056
1.32278
1.35332
1.38189
1.40819
1.43194
1.45287
1.47073
1.4853
1.4964
1.50388
1.50765
0.427544
0.428848
0.431456
0.435372
0.4406
0.447149
0.455023
0.464233
0.474787
0.486697
0.499971
0.514622
0.530658
0.548091
0.566928
0.587176
0.608839
0.631919
0.656413
0.682314
0.70961
0.738282
0.768303
0.799638
0.832243
0.86606
0.901022
0.937045
0.97403
1.01186
1.05041
1.08951
1.129
1.16868
1.20832
1.24769
1.28652
1.32453
1.36142
1.39686
1.43052
1.46207
1.49118
1.51751
1.54075
1.5606
1.57682
1.58919
1.59753
1.60173
0.435766
0.437132
0.439864
0.443968
0.449448
0.456313
0.464571
0.474232
0.485309
0.497814
0.51176
0.52716
0.544029
0.56238
0.582224
0.603573
0.626436
0.650818
0.676721
0.704144
0.733079
0.763512
0.795421
0.828776
0.863536
0.899647
0.937045
0.975648
1.01536
1.05606
1.09761
1.13985
1.18261
1.22567
1.26879
1.31172
1.35416
1.39581
1.43632
1.47534
1.51249
1.54739
1.57965
1.60889
1.63474
1.65687
1.67497
1.68879
1.69811
1.70281
0.443996
0.445425
0.448283
0.452577
0.458313
0.465499
0.474146
0.484267
0.495876
0.508986
0.523616
0.539782
0.557501
0.57679
0.597666
0.620144
0.644239
0.669961
0.697317
0.726312
0.756944
0.789204
0.823077
0.858538
0.895551
0.934069
0.97403
1.01536
1.05795
1.1017
1.14646
1.19208
1.23835
1.28507
1.33197
1.37878
1.42519
1.47085
1.51538
1.55838
1.59943
1.63809
1.67391
1.70645
1.73527
1.75999
1.78023
1.7957
1.80616
1.81143
0.452199
0.453692
0.456678
0.461164
0.467157
0.474669
0.48371
0.494296
0.506442
0.520168
0.535492
0.552434
0.571018
0.591262
0.61319
0.636822
0.662176
0.689271
0.718119
0.748731
0.781112
0.815261
0.851168
0.888817
0.928179
0.969213
1.01186
1.05606
1.1017
1.14869
1.19687
1.24608
1.29614
1.3468
1.39781
1.44886
1.49961
1.54969
1.59868
1.64612
1.69153
1.73442
1.77427
1.81055
1.84277
1.87045
1.89316
1.91054
1.92229
1.92822
0.46034
0.461896
0.46501
0.46969
0.475943
0.483781
0.49322
0.504274
0.516963
0.531309
0.547334
0.565063
0.58452
0.605734
0.62873
0.653534
0.680171
0.708666
0.739038
0.771307
0.805484
0.841576
0.879583
0.919496
0.961296
1.00495
1.05041
1.09761
1.14646
1.19687
1.24868
1.30174
1.35585
1.41077
1.46623
1.5219
1.57741
1.63236
1.68628
1.73868
1.78899
1.83666
1.88107
1.92162
1.95772
1.98881
2.01437
2.03395
2.04721
2.0539
0.468381
0.470002
0.473244
0.478117
0.48463
0.492797
0.502632
0.514156
0.52739
0.542359
0.559089
0.577608
0.597948
0.620138
0.644212
0.670202
0.69814
0.728057
0.75998
0.793937
0.829949
0.868032
0.908196
0.950442
0.994761
1.04113
1.08951
1.13985
1.19208
1.24608
1.30174
1.3589
1.41734
1.47684
1.5371
1.59779
1.65852
1.71884
1.77824
1.83616
1.89199
1.94505
1.99466
2.0401
2.08067
2.11569
2.14454
2.16669
2.18171
2.18929
0.476287
0.477971
0.481342
0.486407
0.493179
0.501672
0.511904
0.523897
0.537675
0.553266
0.5707
0.590011
0.611234
0.634406
0.659564
0.686747
0.715996
0.747349
0.780842
0.816512
0.85439
0.894502
0.936871
0.981508
1.02842
1.07759
1.129
1.18261
1.23835
1.29614
1.35585
1.41734
1.4804
1.54481
1.61026
1.67641
1.74284
1.80908
1.87456
1.93866
2.00068
2.05986
2.1154
2.16646
2.21219
2.25178
2.28449
2.30964
2.32671
2.33534
0.484019
0.485767
0.489264
0.49452
0.501549
0.510365
0.52099
0.533448
0.547766
0.563975
0.582111
0.60221
0.624314
0.648464
0.674705
0.703084
0.733647
0.766442
0.801516
0.838914
0.878678
0.920848
0.965458
1.01253
1.06209
1.11414
1.16868
1.22567
1.28507
1.3468
1.41077
1.47684
1.54481
1.61446
1.6855
1.75756
1.83022
1.90296
1.97517
2.04618
2.11519
2.18133
2.24367
2.3012
2.35293
2.39787
2.43509
2.46378
2.48329
2.49316
0.491541
0.49335
0.496972
0.502416
0.509697
0.518833
0.529845
0.542762
0.557612
0.574433
0.593262
0.614141
0.637117
0.662238
0.689556
0.719124
0.750997
0.785233
0.821888
0.861018
0.902679
0.946923
0.993797
1.04335
1.0956
1.15059
1.20832
1.26879
1.33197
1.39781
1.46623
1.5371
1.61026
1.6855
1.76252
1.84097
1.9204
2.00029
2.07998
2.15871
2.23561
2.30968
2.37982
2.44487
2.50361
2.55482
2.59738
2.63027
2.65268
2.66403
0.498815
0.500685
0.504428
0.510056
0.517585
0.527032
0.538424
0.55179
0.567163
0.584584
0.604093
0.62574
0.649575
0.675653
0.704033
0.734776
0.767947
0.803612
0.841838
0.882695
0.926249
0.972569
1.02172
1.07376
1.12874
1.1867
1.24769
1.31172
1.37878
1.44886
1.5219
1.59779
1.67641
1.75756
1.84097
1.92629
2.01309
2.1008
2.18876
2.27613
2.36194
2.44506
2.52422
2.59802
2.66498
2.72364
2.77255
2.81047
2.83636
2.84949
0.505803
0.507732
0.511594
0.517401
0.525169
0.53492
0.546681
0.560485
0.576367
0.594372
0.614546
0.636941
0.661616
0.688631
0.718052
0.749949
0.784395
0.821467
0.861244
0.903808
0.949239
0.997622
1.04904
1.10356
1.16128
1.22224
1.28652
1.35416
1.42519
1.49961
1.57741
1.65852
1.74284
1.83022
1.9204
2.01309
2.10784
2.20411
2.30119
2.39821
2.49409
2.58757
2.67716
2.7612
2.83791
2.90543
2.96199
3.00597
3.03607
3.05136
0.51247
0.514456
0.518432
0.524411
0.532411
0.542455
0.554572
0.568798
0.585172
0.603742
0.624559
0.64768
0.673169
0.701094
0.731527
0.764548
0.800238
0.838685
0.87998
0.924217
0.971494
1.02191
1.07557
1.13256
1.19299
1.25695
1.32453
1.39581
1.47085
1.54969
1.63236
1.71884
1.80908
1.90296
2.00029
2.1008
2.20411
2.30968
2.4168
2.52457
2.63183
2.73717
2.83888
2.93499
3.0233
3.1015
3.16731
3.21868
3.25392
3.27185
0.518781
0.520821
0.524906
0.53105
0.539271
0.549595
0.562053
0.576683
0.593529
0.612641
0.634074
0.657893
0.684165
0.712965
0.744373
0.778478
0.81537
0.855149
0.897916
0.943781
0.992856
1.04526
1.10111
1.16053
1.22364
1.29056
1.36142
1.43632
1.51538
1.59868
1.68628
1.77824
1.87456
1.97517
2.07998
2.18876
2.30119
2.4168
2.53491
2.65461
2.77471
2.89365
3.00949
3.11988
3.22212
3.31328
3.39043
3.45088
3.49246
3.51363
0.5247
0.526792
0.53098
0.537279
0.545711
0.5563
0.569082
0.584095
0.601388
0.621014
0.643034
0.667515
0.694532
0.724167
0.756506
0.791647
0.829689
0.870744
0.914925
0.962356
1.01316
1.06749
1.12546
1.18724
1.25296
1.32278
1.39686
1.47534
1.55838
1.64612
1.73868
1.83616
1.93866
2.04618
2.15871
2.27613
2.39821
2.52457
2.65461
2.7875
2.92201
3.05652
3.18885
3.31625
3.43538
3.54247
3.63364
3.70536
3.7548
3.78001
0.530196
0.532336
0.536621
0.543066
0.551694
0.562532
0.575616
0.59099
0.608702
0.628811
0.651382
0.676487
0.704206
0.734626
0.767844
0.803962
0.843093
0.885356
0.93088
0.979799
1.03226
1.08841
1.14842
1.21246
1.2807
1.35332
1.43052
1.51249
1.59943
1.69153
1.78899
1.89199
2.00068
2.11519
2.23561
2.36194
2.49409
2.63183
2.77471
2.92201
3.07262
3.2249
3.37651
3.52428
3.66408
3.79099
3.89973
3.98557
4.04483
4.07506
0.535238
0.537422
0.541796
0.548377
0.557186
0.568254
0.581619
0.597326
0.615427
0.635984
0.659065
0.684749
0.713119
0.744271
0.778306
0.815337
0.855483
0.898876
0.945655
0.995971
1.04998
1.10786
1.1698
1.23597
1.3066
1.38189
1.46207
1.54739
1.63809
1.73442
1.83666
1.94505
2.05986
2.18133
2.30968
2.44506
2.58757
2.73717
2.89365
3.05652
3.2249
3.3973
3.57139
3.74368
3.90913
4.06113
4.19219
4.29583
4.36736
4.40382
0.539797
0.542021
0.546477
0.55318
0.562155
0.573433
0.587054
0.603064
0.62152
0.642485
0.666034
0.692246
0.721213
0.753034
0.787818
0.825685
0.866765
0.911197
0.959133
1.01074
1.06618
1.12566
1.18938
1.25755
1.3304
1.40819
1.49118
1.57965
1.67391
1.77427
1.88107
1.99466
2.1154
2.24367
2.37982
2.52422
2.67716
2.83888
3.00949
3.18885
3.37651
3.57139
3.77152
3.97336
4.17109
4.35569
4.51556
4.64173
4.72848
4.77258
0.543846
0.546107
0.550636
0.557449
0.566572
0.578038
0.591886
0.608168
0.626942
0.648274
0.67224
0.698927
0.728429
0.760851
0.796309
0.83493
0.87685
0.922219
0.971201
1.02397
1.08072
1.14165
1.20699
1.27697
1.35186
1.43194
1.51751
1.60889
1.70645
1.81055
1.92162
2.0401
2.16646
2.3012
2.44487
2.59802
2.7612
2.93499
3.11988
3.31625
3.52428
3.74368
3.97336
4.21064
4.44968
4.67851
4.87616
5.03059
5.13581
5.18898
0.547363
0.549656
0.554248
0.561157
0.57041
0.582039
0.596088
0.612607
0.631659
0.653311
0.677644
0.704746
0.734717
0.767666
0.803716
0.842997
0.885657
0.931851
0.981754
1.03555
1.09345
1.15567
1.22244
1.29404
1.37075
1.45287
1.54075
1.63474
1.73527
1.84277
1.95772
2.08067
2.21219
2.35293
2.50361
2.66498
2.83791
3.0233
3.22212
3.43538
3.66408
3.90913
4.17109
4.44968
4.74198
5.03606
5.28354
5.47222
5.59875
5.66214
0.550327
0.552646
0.557292
0.564283
0.573645
0.585413
0.599631
0.616352
0.635639
0.657563
0.682206
0.709661
0.74003
0.773428
0.80998
0.849825
0.893113
0.940012
0.990701
1.04538
1.10426
1.16758
1.23559
1.30857
1.38684
1.47073
1.5606
1.65687
1.75999
1.87045
1.98881
2.11569
2.25178
2.39787
2.55482
2.72364
2.90543
3.1015
3.31328
3.54247
3.79099
4.06113
4.35569
4.67851
5.03606
5.44377
5.75328
5.97961
6.12842
6.20229
0.55272
0.555061
0.55975
0.566807
0.576258
0.588138
0.602494
0.619378
0.638856
0.661
0.685896
0.713637
0.74433
0.778092
0.815053
0.855356
0.899158
0.946629
0.99796
1.05335
1.11304
1.17726
1.24628
1.32041
1.39996
1.4853
1.57682
1.67497
1.78023
1.89316
2.01437
2.14454
2.28449
2.43509
2.59738
2.77255
2.96199
3.16731
3.39043
3.63364
3.89973
4.19219
4.51556
4.87616
5.28354
5.75328
6.1098
6.36812
6.53665
6.61992
0.554527
0.556884
0.561607
0.568714
0.578232
0.590198
0.604657
0.621666
0.641288
0.6636
0.688687
0.716646
0.747584
0.781623
0.818895
0.859546
0.903737
0.951646
1.00346
1.05941
1.1197
1.18461
1.25441
1.32941
1.40994
1.4964
1.58919
1.68879
1.7957
1.91054
2.03395
2.16669
2.30964
2.46378
2.63027
2.81047
3.00597
3.21868
3.45088
3.70536
3.98557
4.29583
4.64173
5.03059
5.47222
5.97961
6.36812
6.65004
6.83379
6.92445
0.555738
0.558106
0.562852
0.569992
0.579556
0.591579
0.606108
0.6232
0.642919
0.665344
0.690559
0.718664
0.749768
0.783993
0.821474
0.862359
0.906814
0.955016
1.00716
1.06347
1.12419
1.18956
1.25988
1.33547
1.41667
1.50388
1.59753
1.69811
1.80616
1.92229
2.04721
2.18171
2.32671
2.48329
2.65268
2.83636
3.03607
3.25392
3.49246
3.7548
4.04483
4.36736
4.72848
5.13581
5.59875
6.12842
6.53665
6.83379
7.02763
7.1233
0.556345
0.558719
0.563475
0.570632
0.580219
0.592271
0.606835
0.623969
0.643737
0.666218
0.691498
0.719676
0.750863
0.785182
0.822768
0.863771
0.908357
0.956708
1.00902
1.06552
1.12644
1.19204
1.26263
1.33851
1.42005
1.50765
1.60173
1.70281
1.81143
1.92822
2.0539
2.18929
2.33534
2.49316
2.66403
2.84949
3.05136
3.27185
3.51363
3.78001
4.07506
4.40382
4.77258
5.18898
5.66214
6.20229
6.61992
6.92445
7.1233
7.22147
)
;

boundaryField
{
    walls
    {
        type            zeroGradient;
    }
    frontAndBack
    {
        type            empty;
    }
}


// ************************************************************************* //
