/*--------------------------------*- C++ -*----------------------------------*\
| =========                 |                                                 |
| \\      /  F ield         | OpenFOAM: The Open Source CFD Toolbox           |
|  \\    /   O peration     | Version:  2406                                  |
|   \\  /    A nd           | Website:  www.openfoam.com                      |
|    \\/     M anipulation  |                                                 |
\*---------------------------------------------------------------------------*/
FoamFile
{
    version     2.0;
    format      ascii;
    arch        "LSB;label=32;scalar=64";
    class       volScalarField;
    location    "100";
    object      k;
}
// * * * * * * * * * * * * * * * * * * * * * * * * * * * * * * * * * * * * * //

dimensions      [0 2 -2 0 0 0 0];

internalField   nonuniform List<scalar> 
12225
(
0.533134
0.81449
1.00524
1.11011
1.16213
1.17023
1.16395
1.14828
1.12431
1.09879
1.07429
1.05048
1.02994
1.00939
0.994209
0.976284
0.967478
0.95065
0.431084
0.48532
0.500598
0.507013
0.514624
0.524133
0.53335
0.54516
0.55564
0.568883
0.579781
0.59409
0.604809
0.61977
0.62958
0.644709
0.652453
0.667278
0.383062
0.416462
0.429036
0.427397
0.422951
0.415304
0.407732
0.400178
0.393444
0.387335
0.382127
0.377845
0.374278
0.3718
0.369698
0.368746
0.367729
0.368317
0.374621
0.379509
0.384624
0.385877
0.385322
0.38366
0.380897
0.37694
0.373131
0.368625
0.364507
0.360013
0.355986
0.35182
0.348097
0.344429
0.341078
0.337942
0.373644
0.372883
0.373076
0.372942
0.372376
0.371315
0.369963
0.367805
0.365752
0.363108
0.360685
0.35783
0.355269
0.352384
0.349832
0.347024
0.344585
0.341928
0.373782
0.371642
0.370201
0.368862
0.367751
0.366362
0.365124
0.363495
0.361992
0.36016
0.358478
0.356528
0.354759
0.35277
0.350989
0.349023
0.347283
0.345382
0.373845
0.371537
0.369574
0.367693
0.36611
0.364474
0.363047
0.361497
0.360085
0.358542
0.357117
0.355575
0.354148
0.352623
0.351217
0.349729
0.348364
0.346931
0.373847
0.371552
0.369464
0.367436
0.36562
0.363847
0.362246
0.360657
0.359195
0.357722
0.35635
0.354961
0.353658
0.352339
0.351099
0.349847
0.348667
0.347482
0.37384
0.371558
0.369437
0.367393
0.365496
0.363673
0.361982
0.360353
0.35883
0.357356
0.355969
0.354621
0.353345
0.352102
0.350919
0.349769
0.348668
0.347598
0.373834
0.371559
0.369422
0.367381
0.36546
0.363626
0.361899
0.360251
0.358695
0.357208
0.3558
0.354453
0.353173
0.351947
0.350778
0.349658
0.348585
0.347557
0.37383
0.371558
0.369412
0.367372
0.365441
0.363604
0.361865
0.360209
0.358639
0.357144
0.355724
0.354371
0.353083
0.351855
0.350684
0.349568
0.348499
0.347481
0.373828
0.371556
0.369405
0.367364
0.365428
0.36359
0.361845
0.360186
0.35861
0.357111
0.355684
0.354326
0.353032
0.351801
0.350625
0.349506
0.348435
0.347416
0.373827
0.371554
0.3694
0.367357
0.365418
0.363577
0.361829
0.360168
0.358588
0.357085
0.355655
0.354293
0.352995
0.35176
0.350581
0.349458
0.348384
0.347361
0.373826
0.371552
0.369396
0.36735
0.365409
0.363566
0.361814
0.36015
0.358567
0.357062
0.355628
0.354263
0.352962
0.351723
0.35054
0.349414
0.348336
0.34731
0.373826
0.371551
0.369392
0.367345
0.365401
0.363555
0.361802
0.360135
0.358549
0.35704
0.355604
0.354236
0.352932
0.35169
0.350504
0.349374
0.348294
0.347265
0.373825
0.371549
0.369389
0.36734
0.365395
0.363547
0.361791
0.360121
0.358533
0.357022
0.355582
0.354212
0.352905
0.35166
0.350472
0.349339
0.348256
0.347224
0.373825
0.371548
0.369388
0.367337
0.36539
0.36354
0.361782
0.36011
0.35852
0.357006
0.355565
0.354192
0.352883
0.351635
0.350445
0.34931
0.348225
0.347191
0.373825
0.371548
0.369386
0.367335
0.365387
0.363535
0.361776
0.360103
0.358511
0.356995
0.355552
0.354177
0.352866
0.351617
0.350425
0.349288
0.348202
0.347166
0.373825
0.371547
0.369386
0.367334
0.365386
0.363534
0.361774
0.360099
0.358507
0.35699
0.355546
0.354169
0.352858
0.351607
0.350414
0.349276
0.348189
0.347152
0.373825
0.371548
0.369387
0.367335
0.365387
0.363536
0.361776
0.360102
0.358509
0.356992
0.355548
0.354172
0.35286
0.351609
0.350416
0.349277
0.348191
0.347154
0.373825
0.371549
0.369388
0.367338
0.36539
0.36354
0.361781
0.360108
0.358515
0.356999
0.355555
0.35418
0.352868
0.351618
0.350425
0.349287
0.348201
0.347164
0.373825
0.37155
0.369391
0.367342
0.365396
0.363546
0.361789
0.360117
0.358526
0.357011
0.355569
0.354194
0.352884
0.351635
0.350443
0.349307
0.348222
0.347186
0.373825
0.371552
0.369394
0.367347
0.365403
0.363557
0.361802
0.360134
0.358547
0.357037
0.3556
0.35423
0.352925
0.35168
0.350493
0.349359
0.348277
0.347243
0.373824
0.371555
0.3694
0.367362
0.365426
0.363596
0.361859
0.360215
0.358652
0.357167
0.355751
0.354401
0.353111
0.351877
0.350697
0.349563
0.348479
0.347435
0.373818
0.371561
0.369427
0.367466
0.365622
0.363913
0.362285
0.360755
0.359276
0.357864
0.356487
0.355162
0.353866
0.352613
0.351388
0.3502
0.349042
0.347916
0.373774
0.371657
0.369897
0.368475
0.367132
0.365906
0.364605
0.363304
0.3619
0.360486
0.359003
0.357524
0.356008
0.354509
0.352998
0.351514
0.350037
0.348591
0.373833
0.37355
0.374642
0.375218
0.374967
0.374368
0.372992
0.371342
0.369303
0.36719
0.364886
0.362581
0.3602
0.35785
0.355498
0.35319
0.350929
0.348716
0.380316
0.391511
0.4046
0.405164
0.403749
0.400465
0.395825
0.391385
0.386617
0.382251
0.377845
0.373791
0.369899
0.366244
0.362924
0.359697
0.356954
0.354154
0.40624
0.439102
0.445775
0.445515
0.445724
0.446728
0.448591
0.452228
0.45556
0.460323
0.464535
0.469784
0.474632
0.479976
0.485278
0.490486
0.496193
0.501155
0.458613
0.616689
0.744206
0.838716
0.905348
0.949011
0.976749
0.991406
0.998869
0.998392
0.996368
0.991229
0.984419
0.976666
0.968561
0.960317
0.952197
0.944273
4.27069e-05
0.000312079
0.000655851
0.00106438
0.001904
0.00374624
0.00617231
0.00895051
0.0115598
0.0140692
0.0160699
0.0176286
0.0184669
0.0180847
0.0176636
0.0177039
0.0165293
0.0163207
0.0153169
0.0136573
0.0113408
0.00837292
0.00514746
0.00232269
0.000683096
0.000209641
0.000183725
0.000324223
0.000620135
0.001252
0.00258747
0.00350755
0.00358543
0.00343779
0.00313055
0.0029127
0.00300518
0.00342759
0.00464832
0.0109206
0.0307895
0.0555521
0.0808039
0.105289
0.128649
0.151096
0.172262
0.191991
0.210433
0.227644
0.243763
0.258827
0.272909
0.285949
0.29778
0.308064
0.316
0.320009
0.31823
0.327258
0.349863
0.364662
0.37682
0.394903
0.404761
0.419274
0.431743
0.442233
0.455987
0.467232
0.47988
0.491671
0.504021
0.515549
0.527569
0.537976
0.546956
0.550522
0.545325
0.55326
0.564868
0.593655
0.603237
0.619819
0.637943
0.650733
0.662825
0.682168
0.698801
0.714992
0.730524
0.742057
0.755671
0.764888
0.775921
0.781279
0.782274
0.782202
0.791165
0.813016
0.814373
0.83305
0.83336
0.840862
0.841286
0.846113
0.851333
0.855044
0.865567
0.863671
0.868935
0.864856
0.864767
0.864518
0.859391
0.853802
0.847838
0.839554
0.830368
0.820091
0.808929
0.796825
0.78389
0.770173
0.755761
0.740729
0.725156
0.709099
0.692622
0.675731
0.658589
0.641102
0.62323
0.605377
0.587573
0.569876
0.552346
0.534999
0.51799
0.501352
0.485212
0.469949
0.458464
0.449318
0.440321
0.431444
0.422468
0.413511
0.404575
0.395721
0.387007
0.378413
0.369966
0.361659
0.353518
0.345505
0.337552
0.329736
0.322089
0.314613
0.307315
0.300189
0.293239
0.286461
0.279865
0.273438
0.267212
0.261121
0.255293
0.249475
0.244087
0.238387
0.233482
0.227627
0.223117
0.216771
0.211639
0.204446
0.195258
0.178147
0.00014395
0.000131435
0.000454315
0.00174963
0.00532759
0.0127399
0.02187
0.0313927
0.0390874
0.0458554
0.0485173
0.0490964
0.0495152
0.0492915
0.0459661
0.0445407
0.0406375
0.0386389
0.0347797
0.0297954
0.0243516
0.0182597
0.0127256
0.00811098
0.00475917
0.00287015
0.00186607
0.00194418
0.0029382
0.00615466
0.0133619
0.0172279
0.0173179
0.0172662
0.0171875
0.0196123
0.0290665
0.0455012
0.0669529
0.0951559
0.129875
0.166498
0.204926
0.244748
0.285331
0.326256
0.367758
0.408969
0.450002
0.489722
0.528355
0.565317
0.600716
0.634369
0.666217
0.696458
0.725534
0.753264
0.780537
0.807663
0.834666
0.860766
0.88632
0.911991
0.937439
0.96357
0.989804
1.01637
1.04372
1.07123
1.09952
1.12825
1.15761
1.18762
1.21834
1.24965
1.28113
1.3119
1.34263
1.37567
1.4087
1.44298
1.47478
1.50698
1.53788
1.56567
1.58503
1.63212
1.68968
1.73508
1.77515
1.81427
1.8532
1.89169
1.92911
1.96522
2.00039
2.03411
2.06852
2.10174
2.13298
2.16421
2.19302
2.22046
2.24545
2.26866
2.28986
2.30865
2.32108
2.36066
2.36986
2.38994
2.4043
2.4122
2.4134
2.4185
2.42222
2.42547
2.41735
2.40748
2.39425
2.37802
2.35884
2.33687
2.31229
2.2853
2.25608
2.22484
2.19172
2.15673
2.12011
2.08232
2.04354
2.00401
1.96395
1.92355
1.88297
1.84232
1.80169
1.76118
1.72098
1.68112
1.6412
1.60114
1.56109
1.52143
1.48176
1.44238
1.40336
1.36495
1.3273
1.29036
1.2542
1.21884
1.18429
1.15055
1.11764
1.08556
1.0543
1.02386
0.994228
0.96539
0.937341
0.910081
0.883611
0.857934
0.833056
0.808945
0.785672
0.763029
0.741382
0.719933
0.699989
0.679157
0.661052
0.639809
0.623527
0.599062
0.580413
0.526649
0.00015832
0.000218565
0.0014327
0.00569007
0.0158454
0.0293595
0.0420224
0.0521239
0.059026
0.0635131
0.0645895
0.0653088
0.0632958
0.0627492
0.0611788
0.0592411
0.0568929
0.0542639
0.051194
0.0473946
0.0427049
0.0370742
0.0303682
0.0232348
0.0164471
0.0122392
0.00851054
0.0090917
0.0147709
0.0315014
0.0512003
0.0562846
0.0559507
0.0662735
0.0867092
0.118994
0.155967
0.198981
0.244982
0.294612
0.345964
0.400326
0.457775
0.516859
0.577758
0.639263
0.700023
0.759395
0.816902
0.872114
0.92496
0.975353
1.0235
1.06965
1.11384
1.15655
1.19797
1.23834
1.27786
1.31667
1.35494
1.39275
1.43035
1.46795
1.50561
1.54347
1.5815
1.61982
1.65849
1.69748
1.73689
1.77671
1.81699
1.85773
1.8989
1.94039
1.98204
2.02361
2.0659
2.10888
2.15186
2.195
2.23796
2.28134
2.32488
2.36867
2.41394
2.46353
2.51411
2.5626
2.61032
2.65802
2.70567
2.7533
2.80056
2.84763
2.8943
2.94059
2.98663
3.03179
3.07602
3.11935
3.16122
3.20143
3.23988
3.27654
3.31113
3.34364
3.37392
3.40381
3.42687
3.44732
3.46504
3.47429
3.48257
3.48715
3.48886
3.48516
3.47576
3.46209
3.44366
3.42063
3.39317
3.36148
3.32582
3.28649
3.2438
3.19809
3.14966
3.09886
3.04601
2.99151
2.93565
2.87875
2.82106
2.76282
2.70426
2.64553
2.58677
2.5282
2.47004
2.41252
2.35566
2.29939
2.24368
2.18864
2.1343
2.08078
2.02751
1.97489
1.92323
1.87231
1.82232
1.7733
1.72525
1.67821
1.6322
1.58721
1.54326
1.50034
1.45843
1.41754
1.37768
1.33884
1.30106
1.26433
1.22868
1.1941
1.16061
1.12811
1.09678
1.06617
1.03698
1.00782
0.98084
0.952117
0.92808
0.896201
0.878634
0.822597
0.000100476
0.000912685
0.00538324
0.0184871
0.0391653
0.0570073
0.069308
0.0760692
0.0785797
0.078792
0.0769746
0.0743072
0.0713369
0.0684657
0.0658036
0.0633423
0.0610094
0.0586868
0.056295
0.0536264
0.0503898
0.0463072
0.0412459
0.0355846
0.029797
0.022051
0.0236501
0.0419151
0.0881458
0.122309
0.137726
0.150433
0.170067
0.200038
0.235601
0.274206
0.320131
0.369823
0.42478
0.483939
0.546804
0.612918
0.681441
0.751464
0.82152
0.891078
0.959538
1.02648
1.09165
1.15488
1.21613
1.27544
1.3329
1.38862
1.44277
1.4956
1.54725
1.59781
1.64747
1.6964
1.74475
1.79266
1.84027
1.88768
1.93499
1.98226
2.02957
2.07698
2.12453
2.17227
2.22021
2.26839
2.31682
2.36548
2.41435
2.4634
2.51261
2.56202
2.61193
2.66201
2.71223
2.76265
2.81335
2.86452
2.91596
2.96795
3.02081
3.07461
3.12851
3.18213
3.23573
3.28946
3.34323
3.39703
3.45072
3.50434
3.55776
3.61092
3.66376
3.7161
3.76804
3.81901
3.86865
3.91672
3.96301
4.00727
4.04918
4.08851
4.12496
4.15829
4.18716
4.21214
4.23277
4.24684
4.25426
4.25831
4.25801
4.25188
4.23986
4.22224
4.19896
4.17018
4.13607
4.09689
4.05295
4.00458
3.95216
3.8961
3.8368
3.77468
3.71014
3.6436
3.57543
3.50596
3.43553
3.36442
3.29296
3.22142
3.15003
3.07903
3.0086
2.93898
2.87026
2.80244
2.73553
2.66958
2.60465
2.5408
2.47794
2.41616
2.35555
2.29547
2.23644
2.17845
2.12147
2.06559
2.01081
1.95715
1.90461
1.85319
1.80287
1.75368
1.70563
1.65876
1.61309
1.56864
1.52545
1.48351
1.44285
1.40341
1.36528
1.32822
1.29257
1.25759
1.22447
1.19075
1.16107
1.1257
1.10387
1.0521
0.000408379
0.00350416
0.0168461
0.0465285
0.0702906
0.0833574
0.0889635
0.0898318
0.0882568
0.0847509
0.0806888
0.0765829
0.0728025
0.0694651
0.0666091
0.0642005
0.0621281
0.0602363
0.0583893
0.0564515
0.0541634
0.0511658
0.0468627
0.0410516
0.0380483
0.0443126
0.0825568
0.150339
0.199037
0.222422
0.235979
0.253936
0.281094
0.316557
0.358817
0.406402
0.460188
0.518743
0.581951
0.648764
0.718871
0.791855
0.866122
0.941332
1.01709
1.09329
1.16959
1.24473
1.31849
1.39076
1.46138
1.53026
1.5975
1.66317
1.72735
1.79018
1.85177
1.91222
1.97168
2.0303
2.0882
2.14551
2.20234
2.25878
2.31491
2.37083
2.42661
2.48229
2.53793
2.59356
2.64922
2.70492
2.76066
2.81645
2.87228
2.92815
2.98407
3.04007
3.0962
3.15237
3.20857
3.26486
3.32132
3.37796
3.43476
3.49184
3.54921
3.6068
3.66441
3.72198
3.77961
3.83728
3.89498
3.95263
4.01021
4.06768
4.125
4.18205
4.23872
4.29484
4.35026
4.40468
4.45782
4.50942
4.55918
4.60681
4.65191
4.69417
4.73318
4.76851
4.79959
4.82622
4.84787
4.86317
4.87067
4.8741
4.87221
4.86409
4.84958
4.82871
4.80152
4.76813
4.72875
4.68364
4.63313
4.57761
4.5175
4.45323
4.38529
4.31414
4.24023
4.16401
4.08593
4.00637
3.92576
3.84447
3.76286
3.68124
3.59989
3.51906
3.43897
3.35982
3.28174
3.20478
3.12897
3.05435
2.98097
2.9089
2.83812
2.76868
2.70063
2.63379
2.56825
2.50378
2.44025
2.37785
2.31655
2.25639
2.19737
2.13948
2.08272
2.02714
1.97277
1.91967
1.86787
1.81743
1.76836
1.72069
1.67443
1.62957
1.58614
1.54402
1.50338
1.46383
1.42602
1.38847
1.35431
1.31659
1.29069
1.24043
0.00355176
0.0114165
0.0438072
0.0773568
0.0942181
0.100678
0.101103
0.0987624
0.0935945
0.0876108
0.0817981
0.0766429
0.0723015
0.0688265
0.0661555
0.0641474
0.0625273
0.0611263
0.0598308
0.0582195
0.0559466
0.053294
0.0512998
0.0534536
0.07242
0.126971
0.199196
0.248388
0.275652
0.291139
0.309635
0.337322
0.373728
0.41709
0.467025
0.522576
0.583423
0.648773
0.718469
0.79236
0.869513
0.94974
1.03096
1.11289
1.19522
1.27763
1.35978
1.44118
1.52163
1.60096
1.67905
1.75584
1.83129
1.9054
1.97822
2.0498
2.12021
2.18953
2.25788
2.32535
2.39205
2.45808
2.52353
2.58847
2.65298
2.71713
2.78098
2.84459
2.90798
2.9712
3.03425
3.09715
3.15991
3.22252
3.28498
3.34727
3.40941
3.47139
3.53323
3.59488
3.65634
3.71765
3.77883
3.83989
3.90083
3.96169
4.02246
4.0831
4.14354
4.20384
4.26398
4.32398
4.38381
4.44345
4.5029
4.56214
4.62113
4.67979
4.73798
4.79558
4.85242
4.90826
4.96287
5.01596
5.06723
5.11635
5.16291
5.20652
5.24674
5.28312
5.31516
5.34244
5.36443
5.38009
5.38784
5.39067
5.38754
5.37775
5.3611
5.33753
5.30708
5.26987
5.2261
5.17606
5.12009
5.05859
4.99203
4.92088
4.84566
4.76687
4.68502
4.60063
4.5142
4.42621
4.33711
4.24734
4.15728
4.06727
3.97764
3.88864
3.80051
3.71346
3.62762
3.54306
3.45983
3.37799
3.29758
3.21863
3.14119
3.06529
2.99094
2.91809
2.84677
2.77688
2.70835
2.64102
2.5747
2.50947
2.44534
2.38229
2.32035
2.25961
2.20012
2.14196
2.08519
2.02986
1.976
1.92366
1.87284
1.82355
1.77581
1.72956
1.68488
1.64157
1.6
1.55931
1.52154
1.48186
1.45232
1.40266
0.00984266
0.0270545
0.0744099
0.100971
0.111279
0.112937
0.110088
0.103759
0.0961191
0.0884011
0.0815782
0.0759124
0.0714825
0.0682298
0.0660175
0.0645253
0.063451
0.0626028
0.0618345
0.0610781
0.0607689
0.062771
0.0731228
0.103258
0.164554
0.227729
0.275016
0.303908
0.323622
0.34487
0.373812
0.411067
0.455845
0.507141
0.564427
0.627222
0.695501
0.769414
0.847521
0.928159
1.01073
1.09479
1.17977
1.26545
1.35163
1.43802
1.52435
1.61038
1.69594
1.78084
1.86496
1.94819
2.03043
2.11166
2.19185
2.27102
2.34919
2.42642
2.50276
2.5783
2.6531
2.72724
2.80078
2.87378
2.94629
3.01837
3.09005
3.16138
3.23238
3.30306
3.37343
3.44349
3.51323
3.58263
3.65167
3.72035
3.78863
3.85651
3.92396
3.99097
4.05751
4.1236
4.18924
4.25443
4.31916
4.38345
4.44729
4.51066
4.57356
4.63601
4.69804
4.75965
4.82083
4.88162
4.942
5.00199
5.06157
5.12068
5.17925
5.23715
5.29425
5.35035
5.40524
5.45865
5.51029
5.55979
5.60678
5.6508
5.69142
5.72812
5.76044
5.78784
5.80984
5.82533
5.83315
5.83532
5.83106
5.81975
5.80117
5.77521
5.74191
5.70137
5.6538
5.59948
5.53876
5.47208
5.3999
5.32276
5.2412
5.15578
5.06708
4.97567
4.88211
4.78691
4.69057
4.59357
4.49631
4.39917
4.30249
4.20655
4.1116
4.01784
3.92541
3.83441
3.74489
3.65692
3.57052
3.48576
3.40265
3.32122
3.24149
3.16345
3.08709
3.01237
2.93924
2.86762
2.7974
2.7282
2.65999
2.59274
2.52655
2.46154
2.39782
2.33548
2.27459
2.21521
2.1574
2.10118
2.04659
1.99362
1.94231
1.89262
1.8446
1.79815
1.75351
1.71016
1.66947
1.62807
1.59521
1.5463
0.0157226
0.0489072
0.0982756
0.119535
0.126119
0.124709
0.118469
0.109547
0.0997359
0.0904171
0.0825528
0.0764549
0.0720979
0.069229
0.0674151
0.0663805
0.0657872
0.0657244
0.0667457
0.0698304
0.0778066
0.0975262
0.139818
0.194163
0.245008
0.286815
0.316852
0.340243
0.364868
0.395466
0.433998
0.479945
0.532679
0.591823
0.657353
0.729157
0.80518
0.884364
0.965893
1.04917
1.13391
1.21987
1.30687
1.39473
1.48325
1.57222
1.6615
1.75091
1.84028
1.92944
2.01824
2.10656
2.19428
2.28134
2.36768
2.45328
2.53813
2.62226
2.70569
2.78846
2.87063
2.95223
3.0333
3.11389
3.19402
3.27372
3.35301
3.43191
3.51043
3.58855
3.66626
3.74355
3.82038
3.89672
3.97253
4.04777
4.1224
4.19638
4.26968
4.34226
4.41409
4.48516
4.55545
4.62494
4.69362
4.76149
4.82854
4.89476
4.96016
5.02478
5.08862
5.15171
5.21407
5.27572
5.3367
5.39703
5.45673
5.51576
5.5741
5.63166
5.68833
5.74396
5.79834
5.85125
5.9024
5.95147
5.99806
6.04173
6.082
6.11836
6.15031
6.17731
6.19884
6.21371
6.22124
6.22257
6.21706
6.20419
6.18371
6.1555
6.11955
6.07596
6.02492
5.96673
5.90175
5.83041
5.75325
5.67081
5.58368
5.4925
5.39787
5.30039
5.20068
5.09927
4.99671
4.89349
4.79007
4.68684
4.58415
4.4823
4.38155
4.28208
4.18406
4.08759
3.99274
3.89956
3.8081
3.71839
3.63047
3.54435
3.46004
3.37755
3.29687
3.21796
3.14079
3.06531
2.99143
2.91898
2.84754
2.77683
2.70712
2.63858
2.57135
2.50554
2.44124
2.37852
2.31742
2.258
2.20027
2.14426
2.08999
2.03744
1.98665
1.93759
1.89041
1.84481
1.80172
1.75876
1.723
1.6746
0.019453
0.0692273
0.117709
0.136622
0.141123
0.137545
0.128962
0.117816
0.106136
0.0955402
0.086901
0.0805244
0.0763429
0.0740954
0.0733759
0.0735941
0.0754163
0.0792694
0.0871465
0.103163
0.13233
0.171968
0.213953
0.255659
0.291336
0.321094
0.347323
0.374748
0.407518
0.447325
0.494556
0.548884
0.610362
0.677351
0.749624
0.82555
0.904143
0.984854
1.06731
1.15128
1.23663
1.32326
1.41104
1.49982
1.58948
1.67991
1.77099
1.86257
1.95451
2.04664
2.13882
2.23091
2.3228
2.4144
2.50564
2.59647
2.68686
2.77681
2.86632
2.95541
3.04411
3.13242
3.22038
3.308
3.39527
3.48222
3.56883
3.6551
3.741
3.82651
3.9116
3.99621
4.0803
4.1638
4.24664
4.32877
4.41011
4.4906
4.57018
4.64878
4.72636
4.80288
4.8783
4.95259
5.02571
5.09766
5.16842
5.23797
5.30633
5.3735
5.43952
5.5044
5.56818
5.63087
5.69256
5.75326
5.81302
5.87184
5.92973
5.98664
6.04248
6.09715
6.15047
6.20227
6.25227
6.30017
6.34561
6.38816
6.42732
6.46261
6.49347
6.51937
6.53979
6.55349
6.56018
6.56023
6.55315
6.53847
6.51593
6.48537
6.44677
6.40021
6.34587
6.28406
6.21515
6.13962
6.058
5.9709
5.87893
5.78275
5.683
5.58033
5.47534
5.36864
5.26077
5.15228
5.04363
4.93525
4.8275
4.72068
4.61504
4.5108
4.40811
4.30707
4.20777
4.11025
4.01456
3.92075
3.82881
3.73879
3.65066
3.56445
3.48012
3.39767
3.31705
3.23823
3.16114
3.08567
3.01152
2.93796
2.86533
2.79388
2.72377
2.65513
2.58805
2.52261
2.45884
2.3968
2.33652
2.27802
2.22132
2.16643
2.11338
2.06216
2.01289
1.9654
1.92034
1.87602
1.83775
1.78962
0.0217259
0.0864226
0.135968
0.154214
0.157858
0.152938
0.142759
0.130141
0.117412
0.106165
0.0972333
0.0908995
0.087517
0.0862375
0.0868583
0.0910642
0.100053
0.114525
0.13572
0.163387
0.19466
0.228643
0.261847
0.293145
0.321816
0.349749
0.379666
0.41448
0.455963
0.504744
0.560199
0.621362
0.687838
0.758738
0.832866
0.909462
0.988058
1.06839
1.15029
1.23368
1.3185
1.40465
1.49206
1.58066
1.67039
1.76118
1.85291
1.94549
2.03878
2.13263
2.2269
2.32147
2.41623
2.51106
2.60592
2.70072
2.79544
2.89005
2.98453
3.0789
3.17316
3.26732
3.36137
3.45532
3.54914
3.64282
3.73633
3.82963
3.92269
4.01546
4.10786
4.19983
4.29129
4.38216
4.47232
4.56169
4.65016
4.73763
4.824
4.90921
4.99316
5.07578
5.15703
5.23683
5.31514
5.39192
5.46714
5.54079
5.61283
5.6833
5.75218
5.81951
5.8853
5.94959
6.01243
6.07388
6.13398
6.19278
6.25028
6.30648
6.36134
6.41477
6.46668
6.51688
6.56518
6.61127
6.65484
6.69549
6.73275
6.76611
6.79505
6.81901
6.83743
6.84925
6.8543
6.8524
6.84314
6.82614
6.80112
6.7679
6.72643
6.6768
6.61919
6.55391
6.48135
6.40202
6.31645
6.22527
6.12912
6.02867
5.92459
5.81753
5.70814
5.59702
5.48475
5.3719
5.25895
5.14636
5.03448
4.92363
4.81405
4.70596
4.59951
4.49481
4.39194
4.29095
4.19189
4.09478
3.99964
3.90647
3.81528
3.72607
3.6388
3.55345
3.47
3.38841
3.30863
3.23054
3.1539
3.07796
3.00296
2.92918
2.8568
2.78593
2.71667
2.64908
2.58321
2.51912
2.45682
2.39635
2.33773
2.28098
2.22612
2.17317
2.12221
2.07318
2.02651
1.98101
1.94068
1.89265
0.0230083
0.0995407
0.153124
0.172496
0.176337
0.171094
0.160388
0.147553
0.135027
0.124551
0.117034
0.113221
0.111989
0.113727
0.120312
0.131141
0.145718
0.164338
0.186816
0.212218
0.23924
0.267048
0.294792
0.32262
0.351521
0.383455
0.420247
0.463407
0.512388
0.56693
0.626546
0.690929
0.759072
0.830112
0.903475
0.978788
1.05583
1.13449
1.21472
1.29646
1.37967
1.46431
1.55035
1.63777
1.72653
1.81658
1.90786
2.00029
2.09377
2.18816
2.2833
2.37907
2.47539
2.57216
2.66932
2.76681
2.86458
2.96261
3.06085
3.15931
3.25804
3.35702
3.45623
3.55565
3.65524
3.75497
3.85478
3.95463
4.05445
4.15416
4.25367
4.35289
4.45172
4.55005
4.64772
4.74462
4.84058
4.93549
5.02921
5.12162
5.21262
5.3021
5.38996
5.47611
5.56049
5.64302
5.72366
5.80235
5.87906
5.95378
6.02649
6.09719
6.16588
6.23259
6.29735
6.36021
6.42123
6.48045
6.53791
6.59361
6.64757
6.69972
6.75001
6.7983
6.84442
6.88813
6.92915
6.9671
7.00157
7.03208
7.05811
7.0791
7.09447
7.10352
7.10582
7.10101
7.0887
7.06863
7.04049
7.00409
6.95937
6.90642
6.84544
6.77672
6.7007
6.61786
6.52874
6.43399
6.33425
6.23023
6.12256
6.01191
5.89894
5.78428
5.66852
5.55224
5.43597
5.32014
5.20513
5.09123
4.9787
4.86773
4.75849
4.65107
4.54557
4.44202
4.34046
4.24092
4.1434
4.04791
3.95444
3.86297
3.77348
3.68593
3.6003
3.51656
3.43464
3.35442
3.27566
3.19771
3.12087
3.04534
2.97127
2.89877
2.8279
2.75874
2.69133
2.62572
2.56194
2.5
2.43995
2.38179
2.32556
2.27129
2.21904
2.1688
2.12087
2.07439
2.03242
1.98444
0.0234184
0.112573
0.169761
0.190933
0.195665
0.191165
0.180936
0.168656
0.157267
0.148611
0.143913
0.142237
0.143222
0.149164
0.158941
0.171697
0.18732
0.205656
0.226348
0.248923
0.273049
0.298675
0.325969
0.355815
0.38949
0.427663
0.470623
0.518512
0.571016
0.627991
0.689094
0.753399
0.820319
0.889428
0.960443
1.03319
1.10758
1.18359
1.26117
1.34031
1.421
1.50323
1.58701
1.67232
1.75912
1.8474
1.93716
2.02836
2.12096
2.21493
2.3098
2.40553
2.50213
2.59954
2.69771
2.79659
2.89613
2.99628
3.09699
3.19819
3.30013
3.40278
3.50606
3.60993
3.71433
3.81922
3.92455
4.03024
4.13619
4.24232
4.34851
4.45465
4.56064
4.66634
4.77155
4.8761
4.97981
5.08249
5.184
5.28418
5.38286
5.47991
5.57518
5.66856
5.75994
5.84921
5.9363
6.02113
6.10362
6.18374
6.26141
6.33661
6.40931
6.47948
6.54714
6.61232
6.67506
6.73538
6.79334
6.84897
6.90227
6.95325
7.00187
7.04803
7.09161
7.13242
7.1702
7.20464
7.23538
7.26198
7.28398
7.30084
7.31203
7.31698
7.31519
7.30616
7.28977
7.26568
7.23358
7.1933
7.1448
7.08814
7.02353
6.9513
6.87189
6.78574
6.69342
6.59555
6.4928
6.38588
6.27539
6.16194
6.04626
5.92896
5.81067
5.69197
5.57339
5.45537
5.33828
5.22238
5.10793
4.99513
4.88412
4.775
4.66784
4.56269
4.45958
4.35853
4.25953
4.16258
4.06767
3.97477
3.88382
3.79479
3.70768
3.62245
3.539
3.45719
3.3767
3.29733
3.21924
3.14258
3.06744
2.9939
2.92203
2.85188
2.7835
2.71692
2.65217
2.58928
2.52827
2.46916
2.41199
2.3568
2.30365
2.25253
2.20368
2.15645
2.11321
2.06534
0.0230436
0.122917
0.184376
0.208119
0.214365
0.21103
0.20169
0.190549
0.180731
0.174293
0.171489
0.170982
0.174325
0.182083
0.19298
0.206204
0.221719
0.23948
0.259469
0.281754
0.306471
0.334002
0.364695
0.398793
0.436692
0.478521
0.524312
0.574072
0.627791
0.684698
0.744373
0.806396
0.870466
0.936375
1.004
1.07329
1.14421
1.21676
1.29094
1.36674
1.44419
1.52328
1.60407
1.68655
1.77052
1.85605
1.94326
2.03215
2.12275
2.2151
2.30853
2.40314
2.4989
2.59579
2.69377
2.79279
2.89281
2.9938
3.0957
3.19841
3.30243
3.40754
3.51368
3.62081
3.72889
3.83787
3.94769
4.05826
4.16949
4.28127
4.39344
4.50582
4.61845
4.73116
4.84367
4.95577
5.06722
5.1778
5.28735
5.39566
5.50253
5.60777
5.71119
5.81261
5.9119
6.00892
6.10353
6.19561
6.28505
6.37175
6.45563
6.53656
6.61447
6.68929
6.76098
6.82953
6.89492
6.95718
7.01633
7.07242
7.12547
7.17549
7.22247
7.26637
7.30707
7.34445
7.37829
7.40836
7.43432
7.45584
7.4725
7.48386
7.48948
7.48875
7.48116
7.46671
7.44499
7.41571
7.37863
7.33361
7.2806
7.21969
7.15106
7.075
6.99191
6.90239
6.80706
6.70647
6.60126
6.49219
6.37972
6.26435
6.14693
6.02807
5.90842
5.78854
5.66892
5.54991
5.43187
5.31512
5.19989
5.08637
4.97469
4.86496
4.75721
4.65152
4.54788
4.4463
4.34678
4.2493
4.15385
4.06038
3.96878
3.87906
3.79121
3.70519
3.62085
3.53798
3.45651
3.37643
3.29779
3.22068
3.14513
3.0712
2.99895
2.92842
2.85965
2.79266
2.72749
2.66415
2.60267
2.54308
2.48542
2.42971
2.37603
2.32438
2.27495
2.22723
2.18307
2.13545
0.0219913
0.131294
0.196539
0.222825
0.230379
0.228485
0.22049
0.210855
0.202698
0.198045
0.196351
0.196971
0.20232
0.211041
0.222703
0.236937
0.253658
0.272951
0.294902
0.319555
0.347025
0.377465
0.411004
0.447738
0.487775
0.531195
0.577923
0.62755
0.679822
0.734409
0.791066
0.849597
0.909869
0.971809
1.03539
1.10062
1.16752
1.23612
1.30643
1.37843
1.45215
1.52744
1.60453
1.68379
1.76449
1.84691
1.93109
2.01706
2.10476
2.19409
2.28488
2.37717
2.47096
2.56621
2.66289
2.76096
2.8604
2.96117
3.06325
3.16665
3.2714
3.37753
3.48506
3.59396
3.70422
3.81582
3.92869
4.04277
4.15796
4.27414
4.39118
4.5089
4.62747
4.74652
4.86579
4.98501
5.1039
5.22215
5.33968
5.45626
5.5716
5.68545
5.79754
5.90766
6.01562
6.12125
6.22435
6.32473
6.42223
6.51671
6.60798
6.69588
6.78025
6.86093
6.93781
7.01079
7.07982
7.14488
7.20595
7.26307
7.31626
7.36555
7.41094
7.45239
7.48985
7.52322
7.55236
7.57709
7.59714
7.61225
7.62211
7.62635
7.6247
7.61634
7.60135
7.57915
7.54969
7.51304
7.46904
7.4176
7.35873
7.29253
7.2192
7.13902
7.05242
6.9599
6.86208
6.75941
6.65253
6.5424
6.42901
6.31266
6.19468
6.07549
5.95576
5.83601
5.71665
5.59807
5.48057
5.36444
5.2499
5.13712
5.02622
4.91726
4.8103
4.70538
4.60251
4.50165
4.4028
4.30595
4.21107
4.11806
4.02676
3.93724
3.84945
3.76337
3.67879
3.59577
3.51431
3.43437
3.35598
3.27916
3.20392
3.13027
3.05829
2.98801
2.91945
2.85264
2.78761
2.72436
2.66292
2.60332
2.5456
2.48981
2.43599
2.38418
2.3345
2.28659
2.24184
2.19466
0.0203727
0.13709
0.205155
0.233524
0.242664
0.242621
0.236342
0.228889
0.2232
0.220569
0.220062
0.22297
0.230279
0.240843
0.254387
0.270792
0.289948
0.311761
0.336242
0.363417
0.393316
0.425976
0.461475
0.499615
0.540307
0.583439
0.628856
0.67636
0.725785
0.77698
0.829838
0.884288
0.940308
0.997914
1.05715
1.11806
1.18073
1.24524
1.3117
1.37963
1.44948
1.52079
1.59372
1.66811
1.74432
1.82242
1.90248
1.98448
2.06843
2.15431
2.24201
2.33148
2.42267
2.51555
2.61008
2.70625
2.80403
2.90342
3.00442
3.10705
3.21134
3.31736
3.42513
3.53464
3.6459
3.75891
3.87364
3.99004
4.10805
4.22758
4.34848
4.47052
4.59368
4.71779
4.84262
4.96791
5.09335
5.21853
5.3437
5.46832
5.59206
5.71459
5.83558
5.95471
6.07183
6.1867
6.29903
6.40855
6.51505
6.61828
6.71801
6.81397
6.90589
6.99352
7.07662
7.155
7.22852
7.29709
7.36068
7.41926
7.47287
7.52151
7.56522
7.60394
7.63765
7.66629
7.68983
7.70816
7.721
7.72823
7.72858
7.72262
7.71021
7.69155
7.6665
7.63505
7.59795
7.5543
7.50386
7.44657
7.38246
7.31163
7.23428
7.15069
7.06125
6.96642
6.86677
6.76272
6.65488
6.54441
6.43073
6.31418
6.19656
6.07795
5.959
5.84018
5.72191
5.60453
5.48834
5.37361
5.26054
5.14929
5.03993
4.93254
4.82715
4.72379
4.62247
4.52311
4.42572
4.33027
4.23673
4.14493
4.05461
3.9662
3.87943
3.79435
3.71088
3.62901
3.54872
3.47
3.39282
3.3172
3.24312
3.17052
3.09951
3.03014
2.96245
2.89642
2.8321
2.76949
2.7086
2.64948
2.59218
2.53674
2.4832
2.4316
2.38204
2.33425
2.28925
2.24275
0.0186662
0.139844
0.209499
0.239562
0.250656
0.252351
0.248928
0.244569
0.242239
0.241625
0.244109
0.250991
0.261494
0.275181
0.291809
0.311211
0.333256
0.357843
0.384886
0.414299
0.44599
0.479862
0.515809
0.553687
0.593381
0.634797
0.677832
0.722391
0.768401
0.815819
0.864631
0.914854
0.966541
1.01977
1.07462
1.13122
1.18971
1.25031
1.31299
1.37654
1.44096
1.50724
1.57556
1.64575
1.71786
1.79193
1.86798
1.94605
2.02617
2.10833
2.19248
2.27856
2.36654
2.45638
2.54803
2.64149
2.73674
2.83377
2.93261
3.03328
3.13582
3.24028
3.34671
3.45516
3.56565
3.67822
3.79288
3.90962
4.02843
4.14925
4.272
4.39659
4.52294
4.65088
4.7802
4.91063
5.0419
5.17368
5.30562
5.43749
5.56899
5.69976
5.82944
5.95765
6.08427
6.20884
6.33096
6.45026
6.56649
6.67932
6.78839
6.89332
6.99372
7.08918
7.17931
7.26379
7.34239
7.41491
7.48127
7.54141
7.59534
7.64308
7.68463
7.71997
7.749
7.77125
7.78681
7.79604
7.7981
7.79393
7.78316
7.76697
7.74472
7.71634
7.68186
7.64152
7.59463
7.54158
7.48243
7.41727
7.3462
7.26936
7.18694
7.09921
7.00651
6.90924
6.80789
6.70288
6.5947
6.48398
6.37105
6.25634
6.14055
6.02413
5.9076
5.79141
5.67592
5.56143
5.44824
5.33658
5.22664
5.11854
5.01233
4.90803
4.80569
4.70534
4.60696
4.51042
4.41572
4.32288
4.23182
4.14225
4.05397
3.96752
3.88274
3.79963
3.71812
3.63821
3.55985
3.48302
3.40772
3.33394
3.26162
3.19077
3.12155
3.05391
2.98783
2.92332
2.86038
2.79906
2.73932
2.6812
2.6248
2.57015
2.51731
2.46632
2.41723
2.36989
2.32497
2.27941
0.0194007
0.139744
0.209868
0.241268
0.254548
0.2585
0.258558
0.257746
0.258314
0.262169
0.269658
0.28082
0.29534
0.312883
0.333177
0.355991
0.381126
0.408405
0.437668
0.468765
0.501558
0.53592
0.57174
0.608918
0.647381
0.687061
0.727894
0.769847
0.812911
0.857106
0.902475
0.94909
0.997048
1.04647
1.09753
1.15043
1.2053
1.26208
1.32071
1.38081
1.44199
1.50473
1.56923
1.6356
1.70391
1.77419
1.84643
1.92054
1.99693
2.0755
2.15616
2.23885
2.32351