/*--------------------------------*- C++ -*----------------------------------*\
| =========                 |                                                 |
| \\      /  F ield         | OpenFOAM: The Open Source CFD Toolbox           |
|  \\    /   O peration     | Version:  2406                                  |
|   \\  /    A nd           | Website:  www.openfoam.com                      |
|    \\/     M anipulation  |                                                 |
\*---------------------------------------------------------------------------*/
FoamFile
{
    version     2.0;
    format      ascii;
    arch        "LSB;label=32;scalar=64";
    class       volScalarField;
    location    "100";
    object      omega;
}
// * * * * * * * * * * * * * * * * * * * * * * * * * * * * * * * * * * * * * //

dimensions      [0 0 -1 0 0 0 0];

internalField   nonuniform List<scalar> 
12225
(
37507.5
40327.9
42132.7
43092.8
43561.1
43633.6
43577.4
43437
43221.1
42990.2
42767.2
42549.5
42360.8
42171.1
42030.4
41863.5
41782.1
41623.7
2347.07
5050.3
6908.79
8342.02
9514.66
10497.4
11277.7
11942
12469.4
12935.8
13302.1
13642.7
13897.2
14151.3
14315.4
14502.9
14563.6
14701
590.579
1105.61
1571.79
1993.34
2350.59
2696.96
2975.97
3256.7
3470.27
3700.49
3863.4
4056.83
4180.89
4347.59
4440.52
4584.95
4651.96
4776.09
444.023
549.783
678.819
819.355
941.309
1071.27
1175.5
1290.14
1375.46
1475.45
1543.82
1631.06
1684.97
1761.32
1803.14
1869.62
1901.2
1964.61
433.486
458.182
486.153
535.61
580.479
633.718
677.077
727.765
766.02
812.387
844.817
886.653
913.364
950.975
972.298
1005.97
1022.79
1055.75
437.473
440.228
444.455
457.929
472.341
493.254
510.874
533.476
550.975
573.098
589.074
609.943
623.814
643.241
654.743
672.738
681.97
699.841
438.766
436.73
436.503
438.269
440.787
446.956
452.578
461.405
468.368
478.142
485.345
495.295
502.071
511.829
517.782
527.201
532.165
541.773
439.028
436.785
434.933
433.707
433.028
433.416
434.049
436.097
437.777
441.022
443.428
447.304
449.947
454.136
456.723
461.028
463.389
468.026
439.041
436.915
434.836
433.042
431.338
430.113
428.984
428.447
427.988
428.025
428.285
428.739
429.252
430.208
430.882
432.128
432.914
434.525
439.035
436.935
434.862
432.985
431.124
429.5
427.909
426.585
425.313
424.308
423.354
422.682
421.98
421.591
421.109
420.938
420.634
420.729
439.038
436.926
434.873
432.973
431.116
429.409
427.741
426.227
424.747
423.43
422.134
421.015
419.894
418.961
417.997
417.238
416.4
415.807
439.041
436.918
434.875
432.962
431.116
429.39
427.72
426.165
424.656
423.259
421.9
420.654
419.434
418.328
417.236
416.261
415.285
414.428
439.044
436.913
434.876
432.954
431.114
429.378
427.713
426.144
424.635
423.215
421.847
420.561
419.322
418.159
417.036
415.984
414.967
414.015
439.046
436.909
434.875
432.947
431.11
429.368
427.706
426.129
424.624
423.194
421.827
420.529
419.288
418.108
416.978
415.905
414.876
413.899
439.047
436.907
434.874
432.943
431.106
429.36
427.699
426.118
424.612
423.178
421.811
420.509
419.266
418.082
416.95
415.871
414.839
413.856
439.047
436.906
434.872
432.94
431.102
429.354
427.691
426.109
424.601
423.166
421.797
420.493
419.248
418.061
416.928
415.846
414.813
413.827
439.047
436.906
434.871
432.937
431.099
429.35
427.686
426.101
424.593
423.155
421.785
420.479
419.233
418.044
416.909
415.826
414.791
413.804
439.047
436.905
434.871
432.936
431.097
429.347
427.682
426.096
424.586
423.148
421.776
420.469
419.221
418.031
416.895
415.811
414.775
413.786
439.047
436.905
434.87
432.936
431.096
429.346
427.68
426.094
424.583
423.144
421.772
420.463
419.215
418.025
416.888
415.803
414.767
413.777
439.047
436.905
434.871
432.936
431.097
429.347
427.682
426.095
424.585
423.145
421.773
420.465
419.217
418.026
416.889
415.804
414.768
413.778
439.047
436.906
434.872
432.938
431.099
429.35
427.685
426.099
424.59
423.15
421.779
420.471
419.225
418.034
416.899
415.815
414.781
413.793
439.048
436.905
434.874
432.939
431.104
429.352
427.692
426.106
424.602
423.165
421.803
420.5
419.267
418.086
416.971
415.9
414.891
413.921
439.053
436.902
434.878
432.936
431.113
429.363
427.73
426.166
424.714
423.329
422.052
420.834
419.722
418.656
417.697
416.764
415.946
415.128
439.066
436.883
434.876
432.957
431.229
429.627
428.28
427.022
426.045
425.158
424.519
423.957
423.596
423.304
423.155
423.083
423.127
423.112
439.054
436.825
435.106
433.767
433.158
433.285
433.842
434.79
436.6
438.331
440.775
442.956
445.767
448.145
451.145
453.536
456.625
458.895
438.703
438.46
439.781
444.138
451.394
459.804
470.493
480.553
492.211
502.578
514.233
524.198
535.394
544.61
555.175
563.481
573.402
580.719
444.002
454.899
485.794
522.099
563.706
602.591
643.922
680.114
718.378
750.583
785.23
813.322
844.453
868.69
896.666
917.428
942.707
960.384
490.064
640.255
825.452
987.347
1142.6
1278.69
1411.97
1524.67
1638.35
1731.04
1828.55
1904.53
1988.89
2051.24
2125.07
2176.46
2241.97
2284.73
1284.38
2437.52
3297.96
3976.72
4582.92
5099.44
5559.38
5938.27
6284.74
6566.57
6835.88
7049.49
7266.87
7430.57
7612.22
7738.48
7896.39
7994.99
23112.4
24600.4
25738.1
26549.8
27107.4
27466.7
27692.6
27811.1
27871.3
27869.2
27848.3
27811.2
27755
27692
27626.1
27559.1
27492.8
27428
11463.8
2518.44
2525.15
2532.81
2546.46
2573.42
2606.85
2644.23
2679.01
2711.46
2737.88
2759.74
2765.29
2771.33
2772.13
2764.22
2764.73
2758.79
2747.33
2728.99
2703.14
2669.03
2631.03
2597.38
2578.66
2575.17
2577.57
2582.31
2589.16
2600.39
2621.3
2635.22
2638.85
2640.05
2638.25
2638.71
2643.04
2651.69
2671.6
2762.57
3001.03
3265.46
3515.32
3741.45
3946.39
4134.87
4304.19
4457.63
4596.9
4724.12
4841
4948.84
5048.81
5141.62
5227.3
5305.74
5374.71
5429.15
5457.31
5442.97
5500.41
5635.24
5702.72
5834.98
5907.07
5994.4
6086.39
6146.52
6231.41
6302.77
6378.54
6449.71
6524.09
6591.88
6664.8
6731.31
6799.02
6855.79
6902
6914.09
6908.8
6974.87
7055.19
7126.19
7241.53
7327.03
7378.23
7473.94
7562.12
7647.31
7740.53
7802.15
7878.44
7928.1
7993.78
8039.18
8085.94
8105.93
8098.15
8142.92
8238.57
8258.69
8278.54
8313.08
8380.62
8382.16
8440.83
8434.47
8460.68
8501.13
8502.54
8503.28
8515.93
8501.84
8494.67
8474.61
8454.68
8422.78
8390.24
8351.45
8308.96
8262
8211.09
8156.38
8098.13
8036.65
7972.14
7904.81
7834.74
7762.16
7687.53
7609.44
7529.82
7449.11
7367.73
7285.88
7203.76
7121.72
7040.48
6960.41
6882.88
6815.75
6771.47
6730.33
6689.25
6648.01
6605.88
6563.58
6521.11
6478.99
6437.25
6395.92
6355.14
6314.82
6275.42
6235.76
6196.51
6157.95
6120.16
6083.22
6047.12
6011.91
5977.59
5944.22
5911.83
5880.41
5850.19
5820.7
5792.98
5764.99
5740.23
5712.6
5691.27
5661.87
5643.55
5608.81
5590.95
5529.37
5538.42
5343.87
11465.1
2128.83
1237.95
1177.27
1192.33
1158.57
1090.24
1004.22
925.206
859.813
809.575
771.738
745.119
730.13
725.992
747.612
811.063
925.649
1066.27
1223.86
1373.95
1508.19
1578.58
1574.16
1505.79
1388.68
1138.62
917.861
783.681
718.537
703.103
709.11
759.723
825.949
1120.97
1651.64
2106.38
2348.84
2474.1
2577.65
2649.45
2716.36
2708.65
2695.77
2646.44
2601.26
2547.84
2499.44
2452.37
2410.76
2373.5
2341.91
2315.2
2293.89
2284.6
2289.09
2283.59
2301.08
2298.95
2306.14
2324.61
2343.09
2365.58
2393.46
2414.02
2437.58
2458.84
2478.2
2498.71
2517.59
2535.71
2552.38
2567.96
2580.4
2589.57
2590.78
2582.67
2595.93
2626.26
2619.62
2647.84
2642.48
2673.78
2680.92
2686.13
2697.76
2721.14
2725.42
2740.65
2752.4
2759.65
2763.04
2765.81
2764.59
2763.86
2760.65
2756.95
2766.21
2761.77
2767.67
2781.13
2777.22
2775.54
2777.79
2780.25
2779.88
2781.64
2782.28
2782.11
2779.89
2776.3
2770.32
2764.94
2757.35
2751.01
2741.4
2732.48
2720.67
2709.13
2696.41
2683.12
2669.09
2654.41
2639.1
2623.21
2606.79
2589.84
2572.38
2554.39
2535.82
2516.56
2496.64
2476.37
2455.87
2435.17
2414.34
2393.38
2372.31
2351.17
2330.04
2309.19
2289.02
2272.1
2256.63
2241.65
2226.87
2211.62
2196.18
2180.54
2164.86
2149.19
2133.55
2117.99
2102.49
2087.16
2071.85
2056.62
2041.5
2026.53
2011.75
1997.15
1982.76
1968.6
1954.67
1941.01
1927.6
1914.58
1901.73
1889.54
1877.22
1866.15
1854.37
1844.77
1833.75
1826.08
1816.21
1817.56
1826.46
1836.91
2042.32
11465.3
2489.77
1814.89
1656.99
1414.8
1198.6
1012.72
855.703
732.185
639.955
572.745
525.17
492.987
472.446
460.229
457.788
464.554
485.461
528.408
597.173
686.532
797.651
902.214
995.811
1003.9
984.841
915.339
817.47
757.257
774.536
850.184
1022.35
1310.11
1547.52
1742.08
1921.08
1998.87
2046.34
2042.93
1995.01
1922.58
1866.2
1806.82
1750.73
1697.2
1652.67
1613
1580.87
1554.04
1532.75
1515.87
1505.91
1503.65
1502.28
1508.59
1513.98
1521.76
1529.03
1536.31
1546.06
1556.84
1568.44
1580.91
1593.56
1605.29
1616.93
1627.99
1638.61
1648.91
1658.61
1667.71
1676.08
1683.64
1690.07
1695.25
1698.8
1700.45
1711.09
1717.74
1723.62
1728.47
1733.14
1740.23
1744.02
1749
1752.68
1757.21
1759.87
1764.53
1767.5
1768.64
1768.32
1769.57
1768.14
1768.22
1766.69
1766.25
1767.17
1766.59
1765.8
1767.18
1764.76
1762.98
1761.25
1759.3
1756.9
1754.56
1752.05
1749.38
1745.6
1741.77
1736.95
1731.94
1726.73
1721.33
1714.94
1708.48
1701.04
1693.45
1685.33
1676.86
1668
1658.78
1649.24
1639.38
1629.23
1618.8
1608.1
1597.14
1585.9
1574.41
1562.69
1550.8
1538.8
1526.67
1514.45
1502.12
1489.69
1477.19
1464.69
1452.28
1440.12
1428.85
1418.23
1407.97
1397.88
1387.75
1377.52
1367.06
1356.53
1345.95
1335.33
1324.7
1314.07
1303.49
1292.92
1282.37
1271.87
1261.42
1251.05
1240.75
1230.54
1220.44
1210.46
1200.61
1190.89
1181.37
1171.97
1162.88
1153.83
1145.33
1136.73
1129.05
1121.08
1114.9
1107.31
1106.75
1108.58
1105.93
1181.97
11464.5
3510.99
2376.96
1765.65
1319.77
975.94
749.478
611.045
525.711
469.882
431.075
403.255
383.582
370.224
362.111
359.559
361.668
369.719
386.965
419.527
469.055
540.239
626.037
722.147
784.682
801.521
820.951
872.501
997.559
1170.94
1335.85
1470.38
1562.41
1635.33
1697.33
1714.64
1655.31
1595.86
1545.85
1487.19
1433.91
1387.39
1344.36
1307.96
1277
1252.27
1232.51
1217.66
1206.78
1199.77
1197.09
1196.47
1198.19
1201.4
1206.64
1212.42
1219.06
1226.05
1233.55
1241.81
1250.44
1259.31
1268.25
1277.05
1285.59
1293.92
1301.98
1309.77
1317.26
1324.38
1331.11
1337.41
1343.26
1348.6
1353.46
1357.9
1362.3
1367.66
1371.88
1375.84
1379.47
1383.02
1386.62
1389.3
1391.96
1394.36
1396.77
1398.85
1400.94
1402.36
1403.19
1403.43
1403.5
1402.71
1402.51
1401.81
1401.23
1400.73
1399.92
1399.08
1398.35
1396.74
1395.16
1393.47
1391.55
1389.44
1387.18
1384.75
1382.04
1378.86
1375.43
1371.54
1367.34
1362.94
1358.14
1352.9
1347.33
1341.28
1334.93
1328.22
1321.17
1313.79
1306.12
1298.16
1289.94
1281.48
1272.78
1263.87
1254.76
1245.47
1236.01
1226.42
1216.71
1206.91
1197.02
1187.07
1177.05
1167
1156.95
1146.93
1137
1127.25
1117.88
1108.85
1100.06
1091.43
1082.86
1074.3
1065.7
1057.09
1048.44
1039.71
1030.98
1022.22
1013.48
1004.74
996.023
987.324
978.657
970.029
961.451
952.933
944.484
936.116
927.844
919.669
911.626
903.692
895.948
888.309
880.964
873.709
866.926
860.218
854.459
848.476
844.9
845.157
842.984
875.424
11469.5
4397.65
2456.91
1488.61
962.182
713.099
579.188
498.07
444.295
405.574
376.63
354.479
337.756
325.864
318.6
316.443
318.194
324.365
336.76
358.751
391.539
441.792
511.306
602.608
709.183
817.221
934.802
1110.23
1263.39
1361.57
1422.77
1465.04
1487.72
1489.18
1431.98
1371.6
1320.97
1273.31
1228.94
1187.51
1151.88
1121.68
1096.15
1075.72
1059.9
1048.53
1041.08
1036.79
1035.34
1034.12
1034.14
1036.96
1041.27
1046.42
1052.36
1058.7
1065.44
1072.46
1079.73
1087.27
1094.94
1102.64
1110.27
1117.76
1125.06
1132.17
1139.06
1145.71
1152.11
1158.24
1164.07
1169.58
1174.76
1179.61
1184.14
1188.38
1192.51
1196.52
1200.05
1203.33
1206.41
1209.34
1212.04
1214.35
1216.51
1218.53
1220.45
1222.2
1223.79
1225.04
1226.02
1226.65
1226.91
1226.81
1226.76
1226.63
1226.39
1226.01
1225.51
1224.99
1224.37
1223.44
1222.38
1221.18
1219.77
1218.19
1216.41
1214.41
1212.14
1209.55
1206.65
1203.39
1199.77
1195.84
1191.51
1186.79
1181.69
1176.18
1170.31
1164.08
1157.5
1150.6
1143.41
1135.94
1128.2
1120.23
1112.02
1103.6
1095.01
1086.26
1077.37
1068.36
1059.27
1050.09
1040.86
1031.59
1022.3
1013.01
1003.76
994.562
985.466
976.517
967.788
959.284
950.964
942.784
934.699
926.677
918.693
910.747
902.83
894.921
887.037
879.125
871.209
863.299
855.4
847.519
839.662
831.835
824.048
816.309
808.631
801.023
793.498
786.061
778.733
771.51
764.433
757.475
750.72
744.107
737.797
731.665
726.107
720.745
716.435
714.741
713.001
727.705
11513.3
4509.44
1990.04
1078.89
735.659
575.426
487.024
431.792
393.686
365.535
343.945
326.961
313.894
304.593
299.246
298.801
302.283
311.137
327.199
352.751
391.21
446.111
525.306
637.292
782.141
959.764
1124.42
1233.87
1303.22
1340.9
1353.2
1336.63
1279.99
1231.53
1181.27
1137.34
1098.13
1062.95
1031.93
1005.68
984.286
967.487
954.362
944.691
938.077
934.558
932.43
932.421
932.924
935.325
938.996
943.683
949.134
955.125
961.533
968.21
975.103
982.15
989.311
996.555
1003.82
1011.05
1018.19
1025.18
1032.01
1038.66
1045.11
1051.35
1057.37
1063.16
1068.69
1073.96
1078.96
1083.68
1088.13
1092.32
1096.31
1100.05
1103.49
1106.67
1109.66
1112.47
1115.07
1117.44
1119.64
1121.71
1123.67
1125.49
1127.16
1128.62
1129.88
1130.89
1131.67
1132.34
1132.97
1133.55
1133.94
1134.05
1134.05
1134.11
1134.08
1133.87
1133.51
1132.97
1132.23
1131.29
1130.12
1128.7
1126.98
1124.93
1122.52
1119.73
1116.53
1112.93
1108.89
1104.42
1099.51
1094.16
1088.39
1082.22
1075.66
1068.73
1061.48
1053.92
1046.09
1038.01
1029.71
1021.22
1012.55
1003.74
994.793
985.748
976.625
967.449
958.238
949.012
939.787
930.599
921.471
912.424
903.484
894.679
886.043
877.582
869.281
861.114
853.058
845.094
837.211
829.404
821.665
813.986
806.366
798.786
791.245
783.711
776.185
768.672
761.181
753.717
746.29
738.911
731.592
724.343
717.176
710.098
703.122
696.253
689.512
682.898
676.45
670.157
664.098
658.244
652.791
647.637
643.152
640.134
638.782
644.202
11595.3
3848.86
1500.01
881.082
645.137
527.605
459.538
415.416
383.299
357.635
336.926
320.404
308.034
300.228
297.583
299.839
306.638
319.279
340.074
372.675
422.552
498.464
613.771
784.741
956.398
1084.91
1168.55
1220.9
1242.27
1226.95
1180.03
1133.01
1086.86
1046.87
1009.89
978.161
950.748
927.907
909.202
894.07
882.259
873.436
867.238
863.589
861.507
861.289
861.733
863.979
867.39
871.746
876.876
882.615
888.821
895.374
902.183
909.168
916.274
923.458
930.683
937.919
945.128
952.272
959.315
966.228
972.987
979.576
985.984
992.201
998.215
1004.02
1009.6
1014.96
1020.07
1024.95
1029.57
1033.96
1038.12
1042.05
1045.73
1049.18
1052.43
1055.5
1058.38
1061.09
1063.65
1066.09
1068.41
1070.61
1072.69
1074.62
1076.41
1078.04
1079.53
1080.93
1082.24
1083.47
1084.55
1085.52
1086.44
1087.29
1088.05
1088.7
1089.17
1089.4
1089.36
1089.13
1088.61
1087.79
1086.64
1085.09
1083.13
1080.71
1077.82
1074.44
1070.55
1066.15
1061.24
1055.82
1049.92
1043.55
1036.74
1029.5
1021.89
1013.95
1005.71
997.202
988.456
979.506
970.383
961.116
951.735
942.271
932.75
923.198
913.636
904.091
894.603
885.186
875.854
866.622
857.508
848.529
839.703
831.036
822.521
814.14
805.881
797.737
789.702
781.772
773.941
766.202
758.552
750.982
743.485
736.044
728.653
721.268
713.9
706.557
699.253
692.001
684.814
677.703
670.678
663.748
656.921
650.206
643.616
637.156
630.849
624.701
618.757
613.021
607.602
602.492
597.912
593.993
591.885
593.454
11668.4
3010.52
1203.57
755.997
583.87
498.527
446.903
410.23
382.285
359.893
341.555
326.88
316.474
311.412
310.957
316.571
329.509
351.41
385.878
440.03
528.102
656.696
802.059
927.009
1022.68
1091.68
1127.72
1133.93
1100.58
1061.02
1019.42
981.589
947.45
918.071
892.731
871.958
854.783
840.814
829.72
821.227
815.108
811.123
809.194
808.343
808.3
810.021
812.957
816.917
821.714
827.191
833.215
839.668
846.449
853.474
860.677
868
875.398
882.834
890.276
897.699
905.075
912.377
919.579
926.66
933.6
940.384
947.002
953.443
959.699
965.764
971.628
977.287
982.732
987.96
992.966
997.751
1002.32
1006.68
1010.82
1014.75
1018.5
1022.07
1025.48
1028.74
1031.87
1034.88
1037.78
1040.58
1043.29
1045.88
1048.38
1050.76
1053.05
1055.26
1057.41
1059.48
1061.48
1063.39
1065.24
1067.01
1068.66
1070.17
1071.47
1072.54
1073.36
1073.83
1073.89
1073.63
1072.97
1071.85
1070.24
1068.09
1065.39
1062.11
1058.25
1053.8
1048.76
1043.15
1036.99
1030.29
1023.1
1015.43
1007.31
998.779
989.921
980.773
971.377
961.774
952.001
942.096
932.093
922.026
911.924
901.814
891.717
881.652
871.662
861.774
851.998
842.344
832.823
823.449
814.231
805.173
796.273
787.531
778.936
770.475
762.148
753.95
745.876
737.919
730.076
722.339
714.704
707.154
699.687
692.28
684.889
677.517
670.188
662.919
655.725
648.615
641.601
634.688
627.886
621.201
614.644
608.223
601.952
595.842
589.922
584.209
578.767
573.623
568.908
564.718
561.231
561.206
11713.2
2529.88
1102.47
724.527
574.789
498.44
454.582
424.834
401.842
382.67
366.501
353.746
346.294
343.981
348.161
362.612
390.277
436.403
504.858
595.593
698.706
801.148
891.467
958.745
1012.16
1035.47
1025.79
999.26
965.255
931.868
900.642
873.233
849.774
829.99
813.641
800.334
789.6
781.2
774.928
770.601
768.133
767.045
766.884
767.528
769.71
773.015
777.259
782.293
787.985
794.215
800.88
807.888
815.162
822.634
830.249
837.959
845.725
853.515
861.3
869.057
876.762
884.395
891.935
899.365
906.667
913.828
920.835
927.681
934.358
940.858
947.176
953.306
959.243
964.981
970.517
975.853
980.991
985.935
990.688
995.259
999.659
1003.9
1007.99
1011.95
1015.79
1019.52
1023.17
1026.72
1030.2
1033.6
1036.93
1040.18
1043.36
1046.48
1049.54
1052.56
1055.5
1058.37
1061.14
1063.8
1066.31
1068.64
1070.75
1072.59
1074.15
1075.35
1076.08
1076.34
1076.13
1075.38
1074.04
1072.07
1069.45
1066.15
1062.17
1057.5
1052.15
1046.14
1039.5
1032.26
1024.46
1016.14
1007.32
998.141
988.612
978.784
968.704
958.419
947.973
937.407
926.761
916.068
905.362
894.668
884.006
873.388
862.802
852.336
842.009
831.825
821.793
811.922
802.216
792.681
783.314
774.115
765.076
756.181
747.447
738.867
730.433
722.139
713.981
705.954
698.053
690.275
682.607
675.034
667.516
660.012
652.561
645.182
637.889
630.693
623.603
616.624
609.764
603.029
596.428
589.969
583.663
577.521
571.564
565.81
560.303
555.078
550.211
545.818
541.732
540.22
11742.9
2201.48
1017.25
704.42
575.768
512.356
476.313
452.937
435.783
422.279
412.065
406.965
406.027
413.177
432.723
466.599
514.652
573.907
642.731
715.72
785.373
845.275
897.37
933.843
945.743
934.616
914.537
888.896
862.438
838.115
816.42
797.65
781.827
768.827
758.206
749.728
743.174
738.388
735.234
733.631
733.033
733.14
734.542
737.013
740.486
744.847
749.976
755.763
762.106
768.915
776.106
783.604
791.344
799.27
807.331
815.486
823.696
831.932
840.167
848.377
856.542
864.643
872.663
880.584
888.392
896.07
903.609
910.999
918.233
925.304
932.208
938.94
945.495
951.866
958.049
964.048
969.866
975.507
980.978
986.289
991.453
996.466
1001.34
1006.1
1010.76
1015.32
1019.81
1024.23
1028.59
1032.9
1037.15
1041.33
1045.48
1049.58
1053.64
1057.65
1061.59
1065.44
1069.19
1072.81
1076.26
1079.51
1082.5
1085.18
1087.52
1089.43
1090.83
1091.65
1091.86
1091.44
1090.32
1088.45
1085.8
1082.37
1078.13
1073.09
1067.27
1060.7
1053.4
1045.44
1036.86
1027.72
1018.09
1008.03
997.612
986.891
975.925
964.768
953.469
942.074
930.626
919.161
907.713
896.308
884.967
873.697
862.497
851.482
840.625
829.929
819.4
809.045
798.866
788.867
779.047
769.404
759.931
750.587
741.405
732.395
723.551
714.866
706.336
697.956
689.722
681.628
673.667
665.823
658.062
650.336
642.683
635.119
627.658
620.308
613.077
605.971
598.997
592.16
585.464
578.916
572.527
566.305
560.267
554.431
548.828
543.491
538.466
533.867
529.46
526.824
11756.6
2204.17
1017.1
710.003
589.999
533.691
504.649
488.352
478.359
472.812
470.879
472.728
483.197
502.674
532.16
570.044
614.386
662.668
711.866
758.04
800.888
840.053
862.379
866.386
859.87
845.062
826.819
807.478
788.786
771.793
756.82
744.103
733.526
724.875
717.97
712.679
708.888
706.538
705.418
705.127
705.565
707.209
709.839
713.379
717.756
722.885
728.683
735.065
741.952
749.27
756.952
764.933
773.157
781.573
790.136
798.804
807.541
816.314
825.099
833.871
842.61
851.298
859.919
868.457
876.892
885.209
893.395
901.443
909.344
917.094
924.687
932.122
939.401
946.498
953.412
960.153
966.726
973.136
979.393
985.505
991.486
997.301
1003
1008.59
1014.1
1019.55
1024.93
1030.28
1035.58
1040.86
1046.12
1051.34
1056.54
1061.69
1066.8
1071.86
1076.84
1081.74
1086.51
1091.13
1095.56
1099.75
1103.64
1107.17
1110.28
1112.89
1114.92
1116.27
1116.9
1116.73
1115.73
1113.85
1111.07
1107.36
1102.71
1097.14
1090.68
1083.35
1075.23
1066.36
1056.82
1046.69
1036.04
1024.95
1013.51
1001.77
989.802
977.671
965.43
953.128
940.809
928.513
916.27
904.11
892.051
880.109
868.305
856.668
845.208
833.931
822.841
811.942
801.236
790.725
780.407
770.28
760.336
750.528
740.934
731.526
722.295
713.237
704.348
695.622
687.054
678.639
670.37
662.233
654.168
646.169
638.269
630.48
622.812
615.27
607.86
600.588
593.459
586.475
579.643
572.967
566.455
560.116
553.961
548.009
542.281
536.807
531.614
526.8
522.17
518.711
11761.5
2169
1012.2
716.964
605.474
556.161
533.346
522.994
519.051
518.265
521.602
531.47
547.534
569.94
597.891
629.269
662.538
695.851
727.449
758.816
787.178
799.659
801.232
798.003
789.172
776.916
763.255
749.408
736.268
724.427
714.191
705.491
698.283
692.499
688.066
684.918
683.027
682.209
682.111
682.796
684.54
687.208
690.743
695.085
700.171
705.937
712.317
719.245
726.657
734.491
742.689
751.197
759.963
768.943
778.093
787.367
796.727
806.14
815.58
825.022
834.447
843.836
853.174
862.454
871.633
880.694
889.627
898.427
907.086
915.599
923.96
932.163
940.202
948.042
955.708
963.209
970.553
977.744
984.792
991.707
998.501
1005.19
1011.78
1018.29
1024.74
1031.13
1037.48
1043.8
1050.09
1056.37
1062.63
1068.88
1075.11
1081.31
1087.47
1093.58
1099.61
1105.54
1111.33
1116.95
1122.35
1127.46
1132.23
1136.58
1140.42
1143.68
1146.26
1148.06
1149.01
1149.02
1148.01
1145.96
1142.87
1138.7
1133.46
1127.17
1119.86
1111.58
1102.42
1092.46
1081.77
1070.47
1058.65
1046.39
1033.79
1020.92
1007.86
994.675
981.427
968.166
954.937
941.778
928.721
915.791
903.007
890.384
877.937
865.682
853.628
841.779
830.137
818.706
807.485
796.474
785.67
775.072
764.672
754.455
744.434
734.607
724.968
715.514
706.24
697.142
688.215
679.45
670.843
662.375
653.987
645.722
637.579
629.566
621.689
613.953
606.36
598.916
591.623
584.485
577.505
570.688
564.04
557.57
551.28
545.19
539.32
533.693
528.328
523.297
518.471
514.386
11755.8
2154.34
1012.64
724.959
619.043
574.248
555.283
548.205
546.518
548.616
556.211
568.099
584.06
603.7
625.921
649.021
672.899
697.084
721.522
739.475
747.433
749.588
748.565
744.104
736.705
727.552
717.682
707.871
698.742
690.515
683.343
677.281
672.348
668.534
665.82
664.2
663.516
663.507
664.443
666.256
668.931
672.439
676.743
681.799
687.549
693.938
700.914
708.425
716.419
724.841
733.641
742.77
752.184
761.842
771.718
781.731
791.837
802.01
812.226
822.461
832.691
842.897
853.059
863.162
873.136
882.994
892.728
902.33
911.793
921.109
930.27
939.271
948.111
956.78
965.282
973.624
981.807
989.839
997.728
1005.49
1013.13
1020.67
1028.11
1035.48
1042.8
1050.08
1057.33
1064.57
1071.8
1079.03
1086.26
1093.48
1100.7
1107.9
1115.06
1122.16
1129.18
1136.08
1142.83
1149.37
1155.65
1161.6
1167.15
1172.21
1176.68
1180.47
1183.47
1185.57
1186.67
1186.67
1185.43
1183.01
1179.38
1174.53
1168.46
1161.2
1152.8
1143.35
1132.92
1121.65
1109.62
1096.97
1083.81
1070.25
1056.37
1042.29
1028.06
1013.77
999.478
985.237
971.089
957.071
943.211
929.532
916.048
902.77
889.707
876.868
864.257
851.875
839.721
827.796
816.099
804.625
793.373
782.338
771.515
760.894
750.474
740.255
730.233
720.404
710.764
701.308
692.03
682.922
673.976
665.168
656.491
647.953
639.559
631.313
623.218
615.276
607.49
599.862
592.395
585.09
577.95
570.98
564.185
557.571
551.141
544.914
538.904
533.128
527.6
522.371
517.368
512.816
11741.7
2142.57
1012.01
729.13
625.878
583.277
566.375
561.09
560.528
564.255
572.485
583.749
597.545
613.316
630.727
649.303
668.496
686.019
697.89
705.096
708.661
709.464
707.761
704.024
698.565
692.093
685.272
678.49
672.1
666.329
661.327
657.186
653.959
651.662
650.312
649.792
649.975
651.042
652.943
655.664
659.191
663.506
668.594
674.45
680.956
688.057
695.73
703.937
712.637
721.784
731.332
741.236
751.45
761.931
772.635
783.456
794.398
805.433
816.534
827.671
838.819
849.951
861.044
872.077
883.024
893.857
904.558
915.114
925.514
935.751
945.812
955.691
965.385
974.892
984.21
993.341
1002.3
1011.09
1019.73
1028.23
1036.61
1044.89
1053.09
1061.21
1069.3
1077.35
1085.39
1093.43
1101.47
1109.54
1117.61
1125.7
1133.78
1141.84
1149.86
1157.81
1165.66
1173.38
1180.91
1188.2
1195.19
1201.79
1207.92
1213.48
1218.36
1222.45
1225.63
1227.77
1228.74
1228.43
1226.67
1223.56
1219.1
1213.25
1206.04
1197.5
1187.73
1176.81
1164.87
1152.04
1138.47
1124.28
1109.64
1094.64
1079.41
1064.04
1048.6
1033.19
1017.85
1002.64
987.601
972.765
958.153
943.781
929.659
915.79
902.178
888.823
875.725
862.878
850.28
837.929
825.82
813.949
802.31
790.899
779.708
768.73
757.959
747.395
737.031
726.865
716.895
707.11
697.508
688.075
678.805
669.7
660.755
651.97
643.347
634.885
626.587
618.452
610.483
602.679
595.043
587.576
580.28
573.158
566.215
559.457
552.89
546.522
540.367
534.44
528.75
523.33
518.156
513.239
11720.4
2135.13
1011.14
729.958
627.296
584.841
567.913
562.591
562.083
566.006
573.973
584.507
597.179
611.176
625.919
640.199
652.114
661.887
669.779
675.153
677.789
678.472
677.402
675.129
671.726
667.598
663.143
658.677
654.464
650.704
647.548
645.121
643.545
642.742
642.587
643.138
644.464
646.567
649.451
653.113
657.548
662.743
668.684
675.334
682.558
690.402
698.847
707.862
717.409
727.444
737.922
748.795
760.015
771.537
783.318
795.305
807.444
819.693
832.016
844.374
856.733
869.061
881.334
893.521
905.592
917.518
929.276
940.847
952.212
963.357
974.279
984.973
995.439
1005.68
1015.69
1025.49
1035.08
1044.47
1053.7
1062.76
1071.7
1080.52
1089.26
1097.93
1106.55
1115.16
1123.76
1132.37
1141
1149.66
1158.34
1167.04
1175.73
1184.4
1193.02
1201.55
1209.96
1218.2
1226.22
1233.94
1241.31
1248.22
1254.58
1260.29
1265.2
1269.21
1272.19
1273.97
1274.37
1273.26
1270.55
1266.35
1260.62
1253.36
1244.59
1234.39
1222.87
1210.16
1196.41
1181.77
1166.42
1150.53
1134.26
1117.74
1101.09
1084.4
1067.76
1051.24
1034.9
1018.78
1002.93
987.361
972.091
957.127
942.47
928.117
914.06
900.295
886.814
873.603
860.658
847.978
835.552
823.374
811.436
799.733
788.256
776.993
765.939
755.095
744.451
734.003
723.755
713.687
703.799
694.095
684.573
675.232
666.068
657.078
648.261
639.615
631.142
622.839
614.708
606.748
598.96
591.345
583.904
576.642
569.56
562.665
555.963
549.46
543.166
537.093
531.251
525.655
520.317
515.111
11699.3
2129.06
1007.22
725.953
622.83
579.788
562.425
556.933
556.447
560.428
568.043
577.578
588.151
599.218
610.186
620.543
630.267
638.673
645.559
650.754
654.267
656.172
656.788
656.324
655.415
653.915
652.025
650.01
648.086
646.428
645.177
644.441
644.253
644.463
645.267
646.789
649.082
652.165
656.045
660.726
666.205
672.477
679.531
687.357
695.896
705.11
714.963
725.419
736.439
747.977
759.987
772.413
785.203
798.302
811.658
825.218
838.928
852.74
866.613
880.491
894.328
908.083
921.713
935.184
948.47
961.54
974.37
986.936
999.218
1011.2
1022.88
1034.24
1045.3
1056.07
1066.54
1076.73
1086.66
1096.35
1105.82
1115.1
1124.22
1133.21
1142.1
1150.91
1159.68
1168.43
1177.18
1185.94
1194.74
1203.58
1212.44
1221.31
1230.18
1239.02
1247.78
1256.42
1264.9
1273.17
1281.16
1288.81
1296.01
1302.69
1308.72
1313.99
1318.34
1321.67
1323.83
1324.52
1323.7
1321.06
1316.81
1310.88
1303.26
1293.96
1283.06
1270.67
1256.91
1241.98
1226.05
1209.3
1191.92
1174.12
1156.09
1137.97
1119.87
1101.87
1084.06
1066.5
1049.24
1032.33
1015.78
999.603
983.81
968.393
953.343
938.646
924.284
910.245
896.515
883.068
869.899
857.012
844.388
832.017
819.89
807.999
796.334
784.877
773.625
762.582
751.733
741.07
730.608
720.341
710.265
700.381
690.686
681.18
671.858
662.718
653.755
644.97
636.36
627.925
619.663
611.575
603.66
595.919
588.354
580.968
573.764
566.746
559.92
553.291
546.869
540.662
534.677
528.922
523.431
517.993
11708.5
2128.67
1002.17
718.434
613.409
568.815
550.339
544.27
543.666
547.593
554.927
564.232
574.768
585.973
597.164
607.946
618.036
627.125
635.028
641.641
646.956
651.016
653.941
655.938
656.928
657.035
656.72
656.334
656.041
655.998
656.326
657.137
658.568
660.621
663.328
666.756
670.948
675.932
681.722
688.325
695.743
703.973
713.006
722.822
733.389
744.659
756.588
769.13
782.242
795.889
810.011
824.537
839.403
854.547
869.909
885.426
901.038
916.681
932.292
947.827
963.236
978.471
993.487
1008.24
1022.69
1036.8
1050.54
1063.88
1076.81
1089.29
1101.33
1112.92
1124.09
1134.85
1145.22
1155.2
1164.84
1174.16
1183.19
1191.97
1200.55
1208.98
1217.29
1225.51
1233.68
1241.82
1249.96
1258.13
1266.34
1274.6
1282.9
1291.2
1299.49
1307.72
1315.85
1323.82
1331.59
1339.09
1346.25
1352.99
1359.21
1364.8
1369.64
1373.61
1376.49
1378.26
1378.53
1377.28
1374.15
1369.28
1362.6
1354.1
1343.78
1331.72
1318.03
1302.85
1286.36
1268.81
1250.39
1231.3
1211.74
1191.93
1172.06
1152.33
1132.81
1113.6
1094.75
1076.33
1058.36
1040.87
1023.86
1007.33
991.267
975.647
960.449
945.648
931.213
917.123
903.359
889.866
876.661
863.741
851.082
838.672
826.503
814.568
802.85
791.32
779.983
768.852
757.923
747.193
736.662
726.326
716.18
706.225
696.459
686.88
677.485
668.271
659.233
650.371
641.684
633.169
624.826
616.654
608.654
600.825
593.171
585.692
578.394
571.279
564.352
557.62
551.089
544.767
538.66
532.768
527.14
521.521
11729.2
2131.87
997.94
710.968
604.14
558.623
539.996
534.408
535.037
541.234
550.659
562.009
574.396
587.093
599.472
611.432
622.711
633.072
642.362
650.503
657.494
663.392
668.317
672.441
675.933
678.869
681.473
683.97
686.531
689.302
692.401
695.955
700.073
704.829
710.251
716.378
723.256
730.907
739.345
748.581
758.618
769.46
781.127
793.561
806.718
820.553
835.02
850.066
865.632
881.644
898.047
914.791
931.813
949.049
966.428
983.885
1001.35
1018.75
1036.02
1053.09
1069.91
1086.41
1102.55
1118.27
1133.51
1148.23
1162.39
1175.97
1188.95
1201.28
1212.96
1224
1234.48
1244.41
1253.81
1262.69
1271.11
1279.1
1286.72
1294.01
1301.03
1307.91
1314.66
1321.29
1327.87
1334.41
1340.95
1347.53