/*--------------------------------*- C++ -*----------------------------------*\
| =========                 |                                                 |
| \\      /  F ield         | OpenFOAM: The Open Source CFD Toolbox           |
|  \\    /   O peration     | Version:  2406                                  |
|   \\  /    A nd           | Website:  www.openfoam.com                      |
|    \\/     M anipulation  |                                                 |
\*---------------------------------------------------------------------------*/
FoamFile
{
    version     2.0;
    format      ascii;
    arch        "LSB;label=32;scalar=64";
    class       surfaceScalarField;
    location    "100";
    object      phi;
}
// * * * * * * * * * * * * * * * * * * * * * * * * * * * * * * * * * * * * * //

dimensions      [0 3 -1 0 0 0 0];

oriented        oriented;

internalField   nonuniform List<scalar> 
24170
(
3.11204e-06
7.63651e-08
3.00846e-06
1.03584e-07
2.91243e-06
9.60275e-08
2.8205e-06
9.19309e-08
2.7328e-06
8.76904e-08
2.65265e-06
8.01537e-08
2.5814e-06
7.12523e-08
2.51869e-06
6.27069e-08
2.46366e-06
5.50263e-08
2.41543e-06
4.82284e-08
2.37323e-06
4.22079e-08
2.33636e-06
3.6869e-08
2.30429e-06
3.20676e-08
2.27663e-06
2.76597e-08
2.25324e-06
2.33873e-08
2.23434e-06
1.89011e-08
2.22046e-06
1.38774e-08
3.29383e-09
2.21717e-06
3.46995e-06
2.36617e-08
3.48704e-06
8.65e-08
3.49181e-06
9.12571e-08
3.48952e-06
9.42112e-08
3.48172e-06
9.54945e-08
3.46945e-06
9.24221e-08
3.45366e-06
8.70384e-08
3.43533e-06
8.10397e-08
3.41533e-06
7.50257e-08
3.39443e-06
6.91284e-08
3.37322e-06
6.34199e-08
3.35215e-06
5.79369e-08
3.33156e-06
5.26568e-08
3.31173e-06
4.74917e-08
3.29285e-06
4.22682e-08
3.27516e-06
3.65897e-08
3.25897e-06
3.00666e-08
1.96198e-08
3.24264e-06
3.66901e-06
1.71666e-08
3.68279e-06
7.2723e-08
3.69306e-06
8.09802e-08
3.70272e-06
8.45563e-08
3.71099e-06
8.7227e-08
3.71702e-06
8.63821e-08
3.72093e-06
8.31292e-08
3.723e-06
7.89749e-08
3.72353e-06
7.44965e-08
3.72279e-06
6.9866e-08
3.72104e-06
6.51635e-08
3.71852e-06
6.04619e-08
3.71542e-06
5.5757e-08
3.71193e-06
5.09806e-08
3.70821e-06
4.59887e-08
3.70439e-06
4.04102e-08
3.70044e-06
3.40139e-08
2.54897e-08
3.69457e-06
3.92539e-06
1.71639e-08
3.93667e-06
6.14461e-08
3.94493e-06
7.27124e-08
3.95248e-06
7.70093e-08
3.95946e-06
8.02492e-08
3.9654e-06
8.0442e-08
3.97037e-06
7.81588e-08
3.97455e-06
7.47885e-08
3.97808e-06
7.0971e-08
3.98103e-06
6.69106e-08
3.9835e-06
6.26916e-08
3.98558e-06
5.83883e-08
3.98733e-06
5.40009e-08
3.98884e-06
4.94719e-08
3.99015e-06
4.46764e-08
3.99121e-06
3.93545e-08
3.99182e-06
3.3398e-08
2.63206e-08
3.99099e-06
4.20787e-06
1.64184e-08
4.21641e-06
5.29107e-08
4.22303e-06
6.6091e-08
4.22909e-06
7.09496e-08
4.23503e-06
7.43016e-08
4.24049e-06
7.49814e-08
4.24537e-06
7.32813e-08
4.24975e-06
7.04063e-08
4.25371e-06
6.70109e-08
4.25731e-06
6.33093e-08
4.26061e-06
5.93971e-08
4.26365e-06
5.53447e-08
4.26649e-06
5.1164e-08
4.26915e-06
4.68101e-08
4.27164e-06
4.2192e-08
4.27384e-06
3.71535e-08
4.27557e-06
3.16644e-08
2.56381e-08
4.27626e-06
4.51049e-06
1.50106e-08
4.51719e-06
4.62133e-08
4.52312e-06
6.0163e-08
4.52862e-06
6.5452e-08
4.53414e-06
6.87725e-08
4.53939e-06
6.97356e-08
4.5442e-06
6.84758e-08
4.5486e-06
6.6e-08
4.55267e-06
6.29423e-08
4.55645e-06
5.9525e-08
4.55999e-06
5.58563e-08
4.56333e-06
5.2007e-08
4.56649e-06
4.8003e-08
4.56949e-06
4.38164e-08
4.57228e-06
3.93949e-08
4.57478e-06
3.46596e-08
4.5768e-06
2.9637e-08
2.44049e-08
4.57804e-06
4.83418e-06
1.35467e-08
4.83989e-06
4.05027e-08
4.84561e-06
5.44468e-08
4.85091e-06
6.01559e-08
4.85622e-06
6.34571e-08
4.86134e-06
6.46123e-08
4.86611e-06
6.37061e-08
4.87054e-06
6.15682e-08
4.87469e-06
5.87988e-08
4.87858e-06
5.56293e-08
4.88226e-06
5.21778e-08
4.88575e-06
4.85184e-08
4.88906e-06
4.46905e-08
4.89219e-06
4.06862e-08
4.8951e-06
3.64874e-08
4.89769e-06
3.20713e-08
4.89983e-06
2.74985e-08
2.29032e-08
4.90133e-06
5.18097e-06
1.216e-08
5.18603e-06
3.54438e-08
5.19157e-06
4.88994e-08
5.19678e-06
5.49511e-08
5.20198e-06
5.82537e-08
5.20705e-06
5.95385e-08
5.21184e-06
5.89221e-08
5.21632e-06
5.70802e-08
5.22055e-06
5.45687e-08
5.22455e-06
5.16286e-08
5.22835e-06
4.83849e-08
5.23195e-06
4.49173e-08
5.23536e-06
4.12767e-08
5.23857e-06
3.74757e-08
5.24154e-06
3.35237e-08
5.24417e-06
2.94357e-08
5.24638e-06
2.52882e-08
2.12178e-08
5.24807e-06
5.55267e-06
1.0824e-08
5.55718e-06
3.09333e-08
5.5625e-06
4.35828e-08
5.56764e-06
4.9806e-08
5.5728e-06
5.31022e-08
5.57787e-06
5.44668e-08
5.5827e-06
5.40902e-08
5.58726e-06
5.25154e-08
5.59159e-06
5.02438e-08
5.59569e-06
4.75248e-08
5.59959e-06
4.44884e-08
5.60328e-06
4.12211e-08
5.60678e-06
3.77834e-08
5.61005e-06
3.42065e-08
5.61305e-06
3.052e-08
5.61572e-06
2.67624e-08
5.618e-06
2.30117e-08
1.93929e-08
5.61983e-06
5.95106e-06
9.53592e-09
5.9551e-06
2.68979e-08
5.96015e-06
3.85305e-08
5.96523e-06
4.47219e-08
5.97036e-06
4.79805e-08
5.97544e-06
4.93821e-08
5.98033e-06
4.9198e-08
5.98498e-06
4.78641e-08
5.98941e-06
4.58207e-08
5.99361e-06
4.33191e-08
5.9976e-06
4.04948e-08
6.00139e-06
3.74396e-08
6.00495e-06
3.42217e-08
6.00827e-06
3.08875e-08
6.01131e-06
2.74799e-08
6.01402e-06
2.40501e-08
6.01636e-06
2.06712e-08
1.7448e-08
6.0183e-06
6.37804e-06
8.31149e-09
6.38167e-06
2.32641e-08
6.38645e-06
3.375e-08
6.39146e-06
3.97153e-08
6.39655e-06
4.28894e-08
6.40164e-06
4.4289e-08
6.40659e-06
4.42483e-08
6.41133e-06
4.3126e-08
6.41585e-06
4.12999e-08
6.42015e-06
3.90145e-08
6.42424e-06
3.6409e-08
6.4281e-06
3.35783e-08
6.43172e-06
3.05968e-08
6.43509e-06
2.75205e-08
6.43817e-06
2.44012e-08
6.44092e-06
2.12938e-08
6.44333e-06
1.82634e-08
1.53977e-08
6.44538e-06
5.74182e-06
7.32717e-09
5.74462e-06
2.04624e-08
5.74845e-06
2.99193e-08
5.75261e-06
3.55567e-08
5.75688e-06
3.86158e-08
5.76118e-06
3.99867e-08
5.7654e-06
4.00289e-08
5.76947e-06
3.90595e-08
5.77336e-06
3.74076e-08
5.77707e-06
3.53036e-08
5.78059e-06
3.28872e-08
5.78391e-06
3.02558e-08
5.78703e-06
2.74845e-08
5.78991e-06
2.46359e-08
5.79255e-06
2.17639e-08
5.79492e-06
1.89245e-08
5.79701e-06
1.61746e-08
1.35886e-08
5.79882e-06
6.99921e-06
6.27039e-09
7.00219e-06
1.74864e-08
7.00634e-06
2.57624e-08
7.01099e-06
3.09133e-08
7.01583e-06
3.37699e-08
7.02075e-06
3.50675e-08
7.02561e-06
3.5166e-08
7.03033e-06
3.4343e-08
7.03486e-06
3.2876e-08
7.03919e-06
3.0976e-08
7.04329e-06
2.87802e-08
7.04717e-06
2.63837e-08
7.05079e-06
2.38636e-08
7.05414e-06
2.12826e-08
7.05721e-06
1.86968e-08
7.05998e-06
1.61582e-08
7.06244e-06
1.37151e-08
1.14302e-08
7.0646e-06
8.53197e-06
5.15049e-09
8.53509e-06
1.43662e-08
8.53954e-06
2.13131e-08
8.54465e-06
2.57998e-08
8.55008e-06
2.83422e-08
8.55564e-06
2.95035e-08
8.56119e-06
2.96176e-08
8.56661e-06
2.89226e-08
8.57184e-06
2.76451e-08
8.57684e-06
2.59692e-08
8.5816e-06
2.40237e-08
8.58608e-06
2.19003e-08
8.59028e-06
1.96721e-08
8.59416e-06
1.74006e-08
8.59772e-06
1.51387e-08
8.60094e-06
1.29332e-08
8.60384e-06
1.08238e-08
8.86051e-09
8.60641e-06
1.04004e-05
3.98015e-09
1.04036e-05
1.11273e-08
1.04083e-05
1.66018e-08
1.04139e-05
2.0239e-08
1.04199e-05
2.2332e-08
1.04261e-05
2.32767e-08
1.04324e-05
2.33508e-08
1.04386e-05
2.27534e-08
1.04446e-05
2.16603e-08
1.04503e-05
2.02232e-08
1.04558e-05
1.85551e-08
1.04609e-05
1.674e-08
1.04658e-05
1.48429e-08
1.04702e-05
1.29199e-08
1.04744e-05
1.10174e-08
1.04781e-05
9.17567e-09
1.04815e-05
7.42488e-09
5.80501e-09
1.04846e-05
1.2678e-05
2.76949e-09
1.26814e-05
7.77334e-09
1.26863e-05
1.16405e-08
1.26923e-05
1.42439e-08
1.26989e-05
1.57359e-08
1.27058e-05
1.6364e-08
1.27128e-05
1.63315e-08
1.27198e-05
1.57888e-08
1.27266e-05
1.48656e-08
1.27331e-05
1.3674e-08
1.27394e-05
1.23053e-08
1.27453e-05
1.08278e-08
1.27509e-05
9.29683e-09
1.2756e-05
7.75669e-09
1.27608e-05
6.24584e-09
1.27652e-05
4.79506e-09
1.27692e-05
3.42715e-09
2.17204e-09
1.27728e-05
1.54544e-05
1.51343e-09
1.54579e-05
4.27042e-09
1.54632e-05
6.38752e-09
1.54697e-05
7.77795e-09
1.54769e-05
8.50818e-09
1.54845e-05
8.70709e-09
1.54924e-05
8.49187e-09
1.55002e-05
7.95585e-09
1.55079e-05
7.17932e-09
1.55153e-05
6.23386e-09
1.55225e-05
5.17957e-09
1.55292e-05
4.06513e-09
1.55356e-05
2.92862e-09
1.55415e-05
1.80183e-09
1.55471e-05
7.10608e-10
1.55522e-05
-3.2322e-10
1.55569e-05
-1.28544e-09
-2.15397e-09
1.55612e-05
1.8839e-05
1.77635e-10
1.88427e-05
5.06109e-10
1.88484e-05
6.85559e-10
1.88555e-05
6.7086e-10
1.88636e-05
4.76602e-10
1.88722e-05
1.3187e-10
1.8881e-05
-3.39339e-10
1.88899e-05
-9.12294e-10
1.88986e-05
-1.56041e-09
1.89071e-05
-2.25738e-09
1.89152e-05
-2.98009e-09
1.8923e-05
-3.70712e-09
1.89304e-05
-4.42045e-09
1.89373e-05
-5.10426e-09
1.89437e-05
-5.74611e-09
1.89497e-05
-6.33513e-09
1.89553e-05
-6.86499e-09
-7.32156e-09
1.89605e-05
2.29648e-05
-1.33356e-09
2.29692e-05
-3.79888e-09
2.29757e-05
-5.87656e-09
2.29839e-05
-7.54799e-09
2.29932e-05
-8.83031e-09
2.30032e-05
-9.81297e-09
2.30134e-05
-1.05884e-08
2.30237e-05
-1.12132e-08
2.30339e-05
-1.172e-08
2.30438e-05
-1.21377e-08
2.30533e-05
-1.24876e-08
2.30624e-05
-1.27831e-08
2.3071e-05
-1.30285e-08
2.30791e-05
-1.32267e-08
2.30867e-05
-1.33783e-08
2.30939e-05
-1.34848e-08
2.31005e-05
-1.35467e-08
-1.35586e-08
2.31068e-05
1.68119e-05
-2.50044e-09
1.68152e-05
-7.10154e-09
1.68202e-05
-1.0925e-08
1.68265e-05
-1.38256e-08
1.68335e-05
-1.58444e-08
1.68409e-05
-1.72222e-08
1.68485e-05
-1.81656e-08
1.68561e-05
-1.87812e-08
1.68635e-05
-1.9146e-08
1.68707e-05
-1.93303e-08
1.68776e-05
-1.93899e-08
1.68842e-05
-1.93596e-08
1.68904e-05
-1.92614e-08
1.68963e-05
-1.91092e-08
1.69018e-05
-1.89134e-08
1.6907e-05
-1.86808e-08
1.69119e-05
-1.84166e-08
-1.81182e-08
1.69164e-05
1.46357e-05
-3.60242e-09
1.46388e-05
-1.02767e-08
1.46437e-05
-1.58197e-08
1.46497e-05
-1.98108e-08
1.46563e-05
-2.23837e-08
1.46631e-05
-2.40307e-08
1.467e-05
-2.50519e-08
1.46768e-05
-2.55848e-08
1.46834e-05
-2.57568e-08
1.46897e-05
-2.5689e-08
1.46958e-05
-2.54624e-08
1.47016e-05
-2.51262e-08
1.4707e-05
-2.47133e-08
1.47122e-05
-2.42477e-08
1.4717e-05
-2.37464e-08
1.47215e-05
-2.32202e-08
1.47258e-05
-2.26767e-08
-2.21156e-08
1.47298e-05
1.27411e-05
-4.59883e-09
1.27443e-05
-1.34521e-08
1.27493e-05
-2.08285e-08
1.27552e-05
-2.56861e-08
1.27614e-05
-2.85824e-08
1.27678e-05
-3.03986e-08
1.27741e-05
-3.1428e-08
1.27803e-05
-3.18015e-08
1.27863e-05
-3.17254e-08
1.2792e-05
-3.13771e-08
1.27974e-05
-3.08566e-08
1.28025e-05
-3.02208e-08
1.28073e-05
-2.95111e-08
1.28118e-05
-2.87583e-08
1.2816e-05
-2.79826e-08
1.282e-05
-2.71969e-08
1.28237e-05
-2.64079e-08
-2.56158e-08
1.28272e-05
1.10917e-05
-5.35371e-09
1.10949e-05
-1.66708e-08
1.11002e-05
-2.61668e-08
1.11061e-05
-3.15515e-08
1.1112e-05
-3.45114e-08
1.1118e-05
-3.63951e-08
1.11239e-05
-3.73405e-08
1.11296e-05
-3.74846e-08
1.1135e-05
-3.71307e-08
1.11401e-05
-3.64958e-08
1.1145e-05
-3.56839e-08
1.11495e-05
-3.47582e-08
1.11538e-05
-3.37688e-08
1.11578e-05
-3.27514e-08
1.11615e-05
-3.17285e-08
1.1165e-05
-3.07129e-08
1.11683e-05
-2.97124e-08
-2.87279e-08
1.11714e-05
9.65562e-06
-5.75609e-09
9.65898e-06
-2.00365e-08
9.66457e-06
-3.17565e-08
9.6703e-06
-3.72857e-08
9.67605e-06
-4.02605e-08
9.68181e-06
-4.21494e-08
9.68734e-06
-4.28694e-08
9.69255e-06
-4.26953e-08
9.69746e-06
-4.20423e-08
9.70209e-06
-4.11278e-08
9.70644e-06
-4.00399e-08
9.71053e-06
-3.88451e-08
9.71436e-06
-3.75989e-08
9.71795e-06
-3.63412e-08
9.72131e-06
-3.50943e-08
9.72447e-06
-3.38715e-08
9.72744e-06
-3.26769e-08
-3.15021e-08
9.73021e-06
8.40493e-06
-5.33097e-09
8.40925e-06
-2.43609e-08
8.41474e-06
-3.72444e-08
8.41991e-06
-4.24608e-08
8.42544e-06
-4.57896e-08
8.4311e-06
-4.78052e-08
8.43648e-06
-4.825e-08
8.4415e-06
-4.77136e-08
8.44619e-06
-4.67339e-08
8.45057e-06
-4.55146e-08
8.45467e-06
-4.41329e-08
8.45848e-06
-4.26594e-08
8.46203e-06
-4.11529e-08
8.46534e-06
-3.96536e-08
8.46843e-06
-3.81849e-08
8.47132e-06
-3.6761e-08
8.47404e-06
-3.5392e-08
-3.40758e-08
8.47661e-06
7.31362e-06
-1.66394e-09
7.32061e-06
-3.13503e-08
7.32658e-06
-4.32189e-08
7.3317e-06
-4.75797e-08
7.33731e-06
-5.14021e-08
7.34301e-06
-5.35053e-08
7.34841e-06
-5.36487e-08
7.35346e-06
-5.27625e-08
7.35817e-06
-5.1447e-08
7.36254e-06
-4.98829e-08
7.36656e-06
-4.81595e-08
7.37026e-06
-4.63598e-08
7.37366e-06
-4.45514e-08
7.37678e-06
-4.27736e-08
7.37965e-06
-4.1053e-08
7.38229e-06
-3.94031e-08
7.38473e-06
-3.78272e-08
-3.62831e-08
7.38693e-06
6.36052e-06
7.87846e-09
6.37061e-06
-4.144e-08
6.37892e-06
-5.15245e-08
6.38644e-06
-5.51035e-08
6.39383e-06
-5.87866e-08
6.40047e-06
-6.01477e-08
6.40629e-06
-5.94675e-08
6.41149e-06
-5.7966e-08
6.4162e-06
-5.61553e-08
6.42044e-06
-5.41261e-08
6.42424e-06
-5.1961e-08
6.42763e-06
-4.97477e-08
6.43064e-06
-4.75591e-08
6.4333e-06
-4.54335e-08
6.43564e-06
-4.34017e-08
6.43772e-06
-4.14831e-08
6.43959e-06
-3.96937e-08
-3.80401e-08
6.44135e-06
5.53963e-06
1.37094e-08
5.54925e-06
-5.10564e-08
5.55857e-06
-6.08466e-08
5.56918e-06
-6.57101e-08
5.57992e-06
-6.95303e-08
5.58929e-06
-6.95139e-08
5.59692e-06
-6.70999e-08
5.60302e-06
-6.40688e-08
5.60782e-06
-6.09515e-08
5.61149e-06
-5.78041e-08
5.61421e-06
-5.46791e-08
5.61611e-06
-5.16453e-08
5.6173e-06
-4.87512e-08
5.61789e-06
-4.60252e-08
5.61797e-06
-4.3482e-08
5.61765e-06
-4.11575e-08
5.617e-06
-3.90441e-08
-3.71944e-08
5.61615e-06
4.87136e-06
-3.00384e-08
4.88543e-06
-6.51305e-08
4.89436e-06
-6.97796e-08
4.90073e-06
-7.20748e-08
4.905e-06
-7.38009e-08
4.90661e-06
-7.11274e-08
4.90532e-06
-6.58128e-08
4.90127e-06
-6.00228e-08
4.89489e-06
-5.45638e-08
4.88664e-06
-4.95584e-08
4.877e-06
-4.50366e-08
4.86634e-06
-4.09855e-08
4.85497e-06
-3.73855e-08
4.84314e-06
-3.41977e-08
4.83105e-06
-3.13873e-08
4.81885e-06
-2.8961e-08
4.80675e-06
-2.69468e-08
-2.58508e-08
4.79541e-06
4.17264e-06
4.10751e-06
4.03773e-06
3.96565e-06
3.89185e-06
3.82072e-06
3.75491e-06
3.69489e-06
3.64032e-06
3.59077e-06
3.54573e-06
3.50474e-06
3.46736e-06
3.43316e-06
3.40177e-06
3.37281e-06
3.34587e-06
3.32001e-06
-3.06216e-08
3.04958e-08
-6.59168e-08
3.50622e-08
-9.01296e-08
2.402e-08
-8.09928e-08
-9.33553e-09
-3.23739e-08
-4.87805e-08
4.58086e-08
-7.83398e-08
1.39365e-07
-9.36545e-08
2.35465e-07
-9.61865e-08
3.25803e-07
-9.04055e-08
4.0561e-07
-7.98656e-08
4.72324e-07
-6.67717e-08
5.2456e-07
-5.22859e-08
5.61485e-07
-3.6981e-08
5.82473e-07
-2.10351e-08
5.86625e-07
-4.21051e-09
5.72909e-07
1.36661e-08
5.41088e-07
3.17555e-08
4.92174e-07
4.88575e-08
4.28216e-07
6.38812e-08
3.52662e-07
7.54825e-08
2.70477e-07
8.20766e-08
1.88265e-07
8.21075e-08
1.13385e-07
7.4712e-08
5.27449e-08
6.04621e-08
1.05418e-08
4.19199e-08
-1.17992e-08
2.20829e-08
-1.41599e-08
2.00277e-09
4.58878e-09
-1.89908e-08
4.43405e-08
-4.00415e-08
9.72028e-08
-5.30218e-08
1.47466e-07
-5.0475e-08
1.84043e-07
-3.67198e-08
2.04308e-07
-2.0463e-08
2.10828e-07
-6.6818e-09
2.11076e-07
-5.00699e-10
2.04654e-07
6.25521e-09
1.80369e-07
2.40076e-08
1.27872e-07
5.23501e-08
4.08886e-08
8.66605e-08
-8.13642e-08
1.22145e-07
-2.34354e-07
1.52777e-07
-4.0728e-07
1.72892e-07
-5.91205e-07
1.83789e-07
-7.78391e-07
1.87161e-07
-9.62908e-07
1.84409e-07
-1.13996e-06
1.77022e-07
-1.30651e-06
1.6646e-07
-1.46053e-06
1.53984e-07
-1.60121e-06
1.40608e-07
-1.72841e-06
1.27161e-07
-1.84272e-06
1.14228e-07
-1.94498e-06
1.0222e-07
-2.03641e-06
9.13591e-08
-2.11822e-06
8.17527e-08
-2.19169e-06
7.3382e-08
-2.25799e-06
6.62218e-08
-2.31826e-06
6.01828e-08
-2.37347e-06
5.51173e-08
-2.42432e-06
5.07558e-08
-2.47118e-06
4.67611e-08
-2.51458e-06
4.33064e-08
-2.5556e-06
4.09101e-08
-2.59484e-06
3.91583e-08
-2.63276e-06
3.78044e-08
-2.66955e-06
3.67056e-08
-2.70547e-06
3.58091e-08
-2.74079e-06
3.52473e-08
-2.77568e-06
3.47881e-08
-2.81028e-06
3.45406e-08
-2.84482e-06
3.44423e-08
-2.87926e-06
3.43968e-08
-2.91379e-06
3.44404e-08
-2.94836e-06
3.45412e-08
-2.98312e-06
3.46658e-08
-3.01796e-06
3.48179e-08
-3.05303e-06
3.49514e-08
-3.08812e-06
3.50422e-08
-3.12327e-06
3.50304e-08
-3.15823e-06
3.49382e-08
-3.19301e-06
3.46694e-08
-3.22698e-06
3.39522e-08
-3.26033e-06
3.32507e-08
-3.29289e-06
3.25812e-08
-3.32472e-06
3.17502e-08
-3.35565e-06
3.09565e-08
-3.3855e-06
2.9805e-08
-3.41357e-06
2.8157e-08
-3.43991e-06
2.64518e-08
-3.46437e-06
2.47129e-08
-3.48655e-06
2.25976e-08
-3.50635e-06
2.01716e-08
-3.52332e-06
1.73189e-08
-3.53708e-06
1.40588e-08
-3.54712e-06
1.03548e-08
-3.5531e-06
6.26348e-09
-3.5548e-06
2.00982e-09
-3.55244e-06
-2.09984e-09
-3.54612e-06
-6.06893e-09
-3.53555e-06
-1.03715e-08
-3.52059e-06
-1.4801e-08
-3.50157e-06
-1.89256e-08
-3.47837e-06
-2.32172e-08
-3.45039e-06
-2.80824e-08
-3.41746e-06
-3.31627e-08
-3.37977e-06
-3.7946e-08
-3.33716e-06
-4.29193e-08
-3.28941e-06
-4.80037e-08
-3.23661e-06
-5.30549e-08
-3.17857e-06
-5.81885e-08
-3.11574e-06
-6.2979e-08
-3.04808e-06
-6.7711e-08
-2.97559e-06
-7.25184e-08
-2.89858e-06
-7.69479e-08
-2.81726e-06
-8.12364e-08
-2.73176e-06
-8.53267e-08
-2.64246e-06
-8.91056e-08
-2.54958e-06
-9.26181e-08
-2.45343e-06
-9.58529e-08
-2.35431e-06
-9.87698e-08
-2.25257e-06
-1.0137e-07
-2.14857e-06
-1.03626e-07
-2.04269e-06
-1.05529e-07
-1.93524e-06
-1.07072e-07
-1.82659e-06
-1.08252e-07
-1.71708e-06
-1.09077e-07
-1.60707e-06
-1.09551e-07
-1.49692e-06
-1.09703e-07
-1.38692e-06
-1.09533e-07
-1.2774e-06
-1.09086e-07
-1.16862e-06
-1.08356e-07
-1.06085e-06
-1.074e-07
-9.5428e-07
-1.06217e-07
-8.49146e-07
-1.04865e-07
-7.45573e-07
-1.0333e-07
-6.43751e-07
-1.01677e-07
-5.43724e-07
-9.99189e-08
-4.45676e-07
-9.80407e-08
-3.49689e-07
-9.6046e-08
-2.55684e-07
-9.41924e-08
-1.63404e-07
-9.25427e-08
-7.26766e-08
-9.10411e-08
1.71607e-08
-9.01407e-08
1.06158e-07
-8.92671e-08
1.93197e-07
-8.72783e-08
2.77696e-07
-8.47148e-08
3.59502e-07
-8.2001e-08
4.38586e-07
-7.92634e-08
5.14983e-07
-7.65592e-08
5.88745e-07
-7.39128e-08
6.59933e-07
-7.13269e-08
7.28617e-07
-6.8818e-08
7.94866e-07
-6.6374e-08
8.58745e-07
-6.40034e-08
9.20325e-07
-6.16967e-08
9.79669e-07
-5.94623e-08
1.03685e-06
-5.72951e-08
1.09195e-06
-5.5203e-08
1.14502e-06
-5.31794e-08
1.19615e-06
-5.12336e-08
1.24541e-06
-4.93545e-08
1.29286e-06
-4.75455e-08
1.33857e-06
-4.57927e-08
1.38258e-06
-4.40997e-08
1.42496e-06
-4.24546e-08
1.46574e-06
-4.08612e-08
1.50497e-06
-3.93055e-08
1.54269e-06
-3.77866e-08
1.57891e-06
-3.62822e-08
1.61362e-06
-3.47816e-08
1.6468e-06
-3.32433e-08
1.67837e-06
-3.16335e-08
1.70818e-06
-2.98615e-08
1.73595e-06
-2.78331e-08
1.76121e-06
-2.53185e-08
1.78311e-06
-2.19639e-08
1.80013e-06
-1.7081e-08
1.80828e-06
-8.22376e-09
1.79873e-06
9.48788e-09
1.75278e-06
4.58859e-08
1.04212e-07
1.64853e-06
-1.89013e-09
3.21605e-08
8.12757e-10
3.19075e-08
3.79139e-08
-1.33809e-08
1.08939e-07
-8.05322e-08
1.99242e-07
-1.39172e-07
2.92211e-07
-1.71379e-07
3.77317e-07
-1.78812e-07
4.50872e-07
-1.69789e-07
5.12294e-07
-1.51869e-07
5.62175e-07
-1.29785e-07
6.01491e-07
-1.06127e-07
6.31157e-07
-8.19881e-08
6.5185e-07
-5.77139e-08
6.64226e-07
-3.34479e-08
6.69282e-07
-9.30907e-09
6.67835e-07
1.50729e-08
6.59526e-07
4.00167e-08
6.4306e-07
6.5279e-08
6.16741e-07
9.01448e-08
5.79099e-07
1.1307e-07
5.29536e-07
1.31573e-07
4.69124e-07
1.42448e-07
4.01299e-07
1.42445e-07
3.32277e-07
1.29386e-07
2.70534e-07
1.03518e-07
2.24936e-07
6.75235e-08
2.01155e-07
2.5571e-08
2.00211e-07
-1.82142e-08
2.12776e-07
-5.27918e-08
2.23208e-07
-6.35819e-08
2.19572e-07
-4.70143e-08
1.98862e-07
-1.615e-08
1.60102e-07
1.80575e-08
9.50657e-08
5.81343e-08
-1.11806e-08
1.05431e-07
-1.64374e-07
1.5926e-07
-3.51914e-07
2.11402e-07
-5.56046e-07
2.56401e-07
-7.63616e-07
2.94155e-07
-9.65482e-07
3.23969e-07
-1.15579e-06
3.43032e-07
-1.33231e-06
3.49387e-07
-1.49307e-06
3.44502e-07
-1.63661e-06
3.30684e-07
-1.76284e-06
3.10592e-07
-1.87256e-06
2.86711e-07
-1.96731e-06
2.61176e-07
-2.04902e-06
2.35656e-07
-2.11975e-06
2.113e-07
-2.18147e-06
1.88846e-07
-2.23596e-06
1.68668e-07
-2.28468e-06
1.50903e-07
-2.32888e-06
1.35515e-07
-2.36953e-06
1.22354e-07
-2.40737e-06
1.11167e-07
-2.44292e-06
1.01712e-07
-2.47657e-06
9.37742e-08
-2.50865e-06
8.71312e-08
-2.53949e-06
8.15264e-08
-2.5696e-06
7.67923e-08
-2.59925e-06
7.28887e-08
-2.62827e-06
6.98521e-08
-2.65671e-06
6.7531e-08
-2.68472e-06
6.57374e-08
-2.71238e-06
6.43063e-08
-2.73982e-06
6.31659e-08
-2.76694e-06
6.23082e-08
-2.79389e-06
6.16684e-08
-2.82063e-06
6.1225e-08
-2.84718e-06
6.09296e-08
-2.87355e-06
6.07217e-08
-2.89974e-06
6.05806e-08
-2.92571e-06
6.04759e-08
-2.95147e-06
6.03731e-08
-2.97693e-06
6.02394e-08
-3.00208e-06
6.00303e-08
-3.02679e-06
5.97073e-08
-3.051e-06
5.91892e-08
-3.0746e-06
5.84931e-08
-3.09757e-06
5.75899e-08
-3.11999e-06
5.63387e-08
-3.14162e-06
5.48388e-08
-3.16219e-06
5.31411e-08
-3.18169e-06
5.12133e-08
-3.19975e-06
4.90117e-08
-3.21627e-06
4.63186e-08
-3.23124e-06
4.31632e-08
-3.24449e-06
3.97752e-08
-3.2556e-06
3.60412e-08
-3.26453e-06
3.179e-08
-3.27127e-06
2.71853e-08
-3.27589e-06
2.21746e-08
-3.27834e-06
1.67156e-08
-3.2786e-06
1.08179e-08
-3.27668e-06
4.52718e-09
-3.27239e-06
-2.09455e-09
-3.26516e-06
-9.16579e-09
-3.25437e-06
-1.67093e-08
-3.23993e-06
-2.46973e-08
-3.22162e-06
-3.30355e-08
-3.1989e-06
-4.16301e-08
-3.1716e-06
-5.05568e-08
-3.13992e-06
-5.99061e-08
-3.10373e-06
-6.95303e-08
-3.06263e-06
-7.92816e-08
-3.01661e-06
-8.91491e-08
-2.96573e-06
-9.91016e-08
-2.90991e-06
-1.09029e-07
-2.84931e-06
-1.18921e-07
-2.78374e-06
-1.28628e-07
-2.71339e-06
-1.38116e-07
-2.63843e-06
-1.47478e-07
-2.55897e-06
-1.56383e-07
-2.47525e-06
-1.64874e-07
-2.38756e-06
-1.72928e-07
-2.29606e-06
-1.80462e-07
-2.20108e-06
-1.87442e-07
-2.10287e-06
-1.9386e-07
-2.00181e-06
-1.99614e-07
-1.89825e-06
-2.04707e-07
-1.79255e-06
-2.09101e-07
-1.68508e-06
-2.12786e-07
-1.57618e-06
-2.15749e-07
-1.4662e-06
-2.17994e-07
-1.35549e-06
-2.19529e-07
-1.24441e-06
-2.20381e-07
-1.13327e-06
-2.20579e-07
-1.02238e-06
-2.20163e-07
-9.12041e-07
-2.1918e-07
-8.02504e-07
-2.17672e-07
-6.94002e-07
-2.15694e-07
-5.86748e-07
-2.13298e-07
-4.80917e-07
-2.10545e-07
-3.7666e-07
-2.07477e-07
-2.74099e-07
-2.04157e-07
-1.73295e-07
-2.00681e-07
-7.41515e-08
-1.97175e-07
2.3454e-08
-1.93695e-07
1.19314e-07
-1.90135e-07
2.13084e-07
-1.86431e-07
3.04584e-07
-1.82663e-07
3.93208e-07
-1.78885e-07
4.78675e-07
-1.74837e-07
5.61569e-07
-1.70274e-07
6.42149e-07
-1.65385e-07
7.20428e-07
-1.60372e-07
7.96413e-07
-1.55329e-07
8.70098e-07
-1.50327e-07
9.415e-07
-1.45388e-07
1.01064e-06
-1.40542e-07
1.07755e-06
-1.35795e-07
1.14226e-06
-1.31157e-07
1.20481e-06
-1.26626e-07
1.26526e-06
-1.22213e-07
1.32364e-06
-1.17912e-07
1.38001e-06
-1.13737e-07
1.43443e-06
-1.09687e-07
1.48696e-06
-1.05772e-07
1.53765e-06
-1.01989e-07
1.58658e-06
-9.83395e-08
1.63378e-06
-9.48118e-08
1.67933e-06
-9.14018e-08
1.72328e-06
-8.80995e-08
1.76567e-06
-8.4902e-08
1.80656e-06
-8.1799e-08
1.84599e-06
-7.87819e-08
1.88398e-06
-7.58308e-08
1.92058e-06
-7.2922e-08
1.95577e-06
-7.00153e-08
1.98953e-06
-6.70533e-08
2.0218e-06
-6.39497e-08
2.05246e-06
-6.05628e-08
2.08128e-06
-5.66907e-08
2.10787e-06
-5.19521e-08
2.1316e-06
-4.57439e-08
2.15138e-06
-3.69018e-08
2.16613e-06
-2.30195e-08
2.17555e-06
1.9328e-11
2.17916e-06
4.22348e-08
1.20703e-07
2.16264e-06
7.15834e-09
2.4817e-08
5.51557e-08
-1.63662e-08
1.50903e-07
-1.09248e-07
2.59588e-07
-1.89297e-07
3.51128e-07
-2.3076e-07
4.18372e-07
-2.38669e-07
4.66031e-07
-2.26506e-07
5.00788e-07
-2.04581e-07
5.27312e-07
-1.78425e-07
5.48023e-07
-1.50526e-07
5.63859e-07
-1.21993e-07
5.75115e-07
-9.32718e-08
5.81893e-07
-6.45234e-08
5.84323e-07
-3.59055e-08
5.82559e-07
-7.57854e-09
5.77121e-07
2.04808e-08
5.68755e-07
4.83454e-08
5.57928e-07
7.60709e-08
5.44585e-07
1.03444e-07
5.27956e-07
1.29655e-07
5.06497e-07
1.52978e-07
4.78403e-07
1.70485e-07
4.42665e-07
1.78111e-07
4.00467e-07
1.71508e-07
3.55943e-07
1.47939e-07
3.15932e-07
1.07425e-07
2.86315e-07
5.50371e-08
2.58365e-07
9.60636e-09
2.08598e-07
-3.17814e-09
1.31098e-07
1.38035e-08
3.12304e-08
5.26969e-08
-9.47354e-08
1.09692e-07
-2.51512e-07
1.7472e-07
-4.3276e-07
2.39304e-07
-6.2818e-07
3.00782e-07
-8.25056e-07
3.56085e-07
-1.01372e-06
4.00016e-07
-1.18779e-06
4.30441e-07
-1.34216e-06
4.48493e-07
-1.47326e-06
4.55043e-07
-1.58119e-06
4.50937e-07
-1.6692e-06
4.37385e-07
-1.74107e-06
4.16343e-07
-1.80054e-06
3.90141e-07
-1.851e-06
3.61022e-07
-1.89519e-06
3.3088e-07
-1.9352e-06
3.0116e-07
-1.97246e-06
2.72895e-07
-2.00791e-06
2.4672e-07
-2.04207e-06
2.22983e-07
-2.07524e-06
2.01808e-07
-2.10754e-06
1.83171e-07
-2.13901e-06
1.66951e-07
-2.16963e-06
1.52935e-07
-2.19939e-06
1.40889e-07
-2.22832e-06
1.30601e-07
-2.25648e-06
1.21883e-07
-2.28389e-06
1.14503e-07
-2.31067e-06
1.08253e-07
-2.33694e-06
1.03012e-07
-2.36277e-06
9.86695e-08
-2.38811e-06
9.51467e-08
-2.41298e-06
9.23507e-08
-2.43745e-06
9.01557e-08
-2.46161e-06
8.84187e-08
-2.48554e-06
8.7046e-08
-2.50927e-06
8.5988e-08
-2.53284e-06
8.51911e-08
-2.55626e-06
8.46058e-08
-2.57955e-06
8.418e-08
-2.60272e-06
8.38597e-08
-2.62578e-06
8.36046e-08
-2.64871e-06
8.33749e-08
-2.67149e-06
8.31237e-08
-2.69408e-06
8.28039e-08
-2.71645e-06
8.23599e-08
-2.73851e-06
8.17359e-08
-2.76021e-06
8.08579e-08
-2.78151e-06
7.97695e-08
-2.80239e-06
7.84339e-08
-2.82278e-06
7.67126e-08
-2.84255e-06
7.45908e-08
-2.86152e-06
7.20975e-08
-2.8796e-06
6.92688e-08
-2.89661e-06
6.60179e-08
-2.9125e-06
6.22039e-08
-2.9272e-06
5.78757e-08
-2.94049e-06
5.31256e-08
-2.95214e-06
4.78008e-08
-2.962e-06
4.18323e-08
-2.96993e-06
3.52852e-08
-2.97581e-06
2.81701e-08
-2.97943e-06
2.04609e-08
-2.98061e-06
1.20938e-08
-2.97907e-06
3.09772e-09
-2.97453e-06
-6.55405e-09
-2.9667e-06
-1.69121e-08
-2.95538e-06
-2.79839e-08
-2.94034e-06
-3.96887e-08
-2.92139e-06
-5.19878e-08
-2.89823e-06
-6.48237e-08
-2.87071e-06
-7.81645e-08
-2.83877e-06
-9.19863e-08
-2.80228e-06
-1.06187e-07
-2.76107e-06
-1.20679e-07
-2.71505e-06
-1.35329e-07
-2.66424e-06
-1.50073e-07
-2.60858e-06
-1.64799e-07
-2.54815e-06
-1.7945e-07
-2.48291e-06
-1.93914e-07
-2.41299e-06
-2.08074e-07
-2.33855e-06
-2.21917e-07
-2.25972e-06
-2.35198e-07
-2.17672e-06
-2.47814e-07
-2.08982e-06
-2.59772e-07
-1.99923e-06
-2.70962e-07
-1.90524e-06
-2.81326e-07
-1.80816e-06
-2.90803e-07
-1.70835e-06
-2.9929e-07
-1.60615e-06
-3.06759e-07
-1.50194e-06
-3.13177e-07
-1.39606e-06
-3.18525e-07
-1.28888e-06
-3.22795e-07
-1.18074e-06
-3.25991e-07
-1.07197e-06
-3.28134e-07
-9.62935e-07
-3.29263e-07
-8.53929e-07
-3.29423e-07
-7.45262e-07
-3.28677e-07
-6.372e-07
-3.2709e-07
-5.30002e-07
-3.24736e-07
-4.23878e-07
-3.21691e-07
-3.19033e-07
-3.18038e-07
-2.15621e-07
-3.13865e-07
-1.13752e-07
-3.0928e-07
-1.34813e-08
-3.04377e-07
8.50611e-08
-2.99198e-07
1.8168e-07
-2.93789e-07
2.76165e-07
-2.88201e-07
3.68402e-07
-2.82418e-07
4.58359e-07
-2.76444e-07
5.45943e-07
-2.70307e-07
6.30986e-07
-2.63974e-07
7.13455e-07
-2.57348e-07
7.93542e-07
-2.50393e-07
8.71349e-07
-2.43222e-07
9.4691e-07
-2.35954e-07
1.02023e-06
-2.28677e-07
1.09134e-06
-2.21449e-07
1.16025e-06
-2.1431e-07
1.22697e-06
-2.07281e-07
1.29155e-06
-2.00383e-07
1.354e-06
-1.93625e-07
1.41438e-06
-1.87018e-07
1.47272e-06
-1.80566e-07
1.52907e-06
-1.74278e-07
1.58348e-06
-1.6816e-07
1.636e-06
-1.62224e-07
1.68669e-06
-1.56477e-07
1.73561e-06
-1.50925e-07
1.78282e-06
-1.45561e-07
1.82837e-06
-1.40379e-07
1.87232e-06
-1.35367e-07
1.91473e-06
-1.30521e-07
1.95564e-06
-1.2583e-07
1.99511e-06
-1.21286e-07
2.03319e-06
-1.16871e-07
2.0699e-06
-1.12562e-07
2.10529e-06
-1.08319e-07
2.13935e-06
-1.0409e-07
2.17207e-06
-9.97895e-08
2.20341e-06
-9.52992e-08
2.23326e-06
-9.0425e-08
2.26144e-06
-8.48882e-08
2.28767e-06
-7.81992e-08
2.3115e-06
-6.95915e-08
2.33227e-06
-5.76889e-08
2.34924e-06
-4.0015e-08
2.36205e-06
-1.28037e-08
2.37245e-06
3.18109e-08
1.10405e-07
2.38274e-06
2.05717e-08
4.12699e-09
1.23339e-07
-1.19281e-07
2.41434e-07
-2.27407e-07
3.28055e-07
-2.75973e-07
3.78495e-07
-2.81233e-07
4.05705e-07
-2.65914e-07
4.21841e-07
-2.42668e-07
4.33532e-07
-2.16299e-07
4.43269e-07
-1.88187e-07
4.51456e-07
-1.58738e-07
4.57658e-07
-1.28221e-07
4.6129e-07
-9.69273e-08
4.6189e-07
-6.51504e-08
4.59187e-07
-3.32256e-08
4.5308e-07
-1.50048e-09
4.43716e-07
2.98198e-08
4.31525e-07
6.05033e-08
4.17146e-07
9.04184e-08
4.01179e-07
1.19371e-07
3.83945e-07
1.4685e-07
3.65163e-07
1.71711e-07
3.43881e-07
1.91715e-07
3.1885e-07
2.03076e-07
2.89673e-07
2.0061e-07
2.57479e-07
1.80033e-07
2.207e-07
1.44097e-07
1.63483e-07
1.12121e-07
7.06555e-08
1.02326e-07
-5.45545e-08
1.2193e-07
-2.06114e-07
1.65293e-07
-3.78652e-07
2.2517e-07
-5.62773e-07
2.93764e-07
-7.48836e-07
3.60737e-07
-9.28672e-07
4.19104e-07
-1.09411e-06
4.66184e-07
-1.23795e-06
4.99896e-07
-1.35781e-06
5.19855e-07
-1.45485e-06
5.27455e-07
-1.53087e-06
5.24489e-07
-1.58861e-06
5.12776e-07
-1.63183e-06
4.94132e-07
-1.6647e-06
4.70247e-07
-1.69111e-06
4.42741e-07
-1.71416e-06
4.13171e-07
-1.73601e-06
3.82859e-07
-1.75801e-06
3.52863e-07
-1.78084e-06
3.23972e-07
-1.80471e-06
2.96747e-07
-1.82956e-06
2.71539e-07
-1.85514e-06
2.48547e-07
-1.8812e-06
2.27839e-07
-1.90743e-06
2.09384e-07
-1.9336e-06
1.93092e-07
-1.95951e-06
1.78811e-07
-1.98502e-06
1.66372e-07
-2.01007e-06
1.55615e-07
-2.0346e-06
1.46382e-07
-2.05862e-06
1.38486e-07
-2.08216e-06
1.31761e-07
-2.10527e-06
1.26086e-07
-2.12798e-06
1.21345e-07
-2.15032e-06
1.17442e-07
-2.17229e-06
1.14288e-07
-2.19395e-06
1.11777e-07
-2.21536e-06
1.09794e-07
-2.23659e-06
1.08243e-07
-2.25769e-06
1.07053e-07
-2.2787e-06
1.0616e-07
-2.29963e-06
1.05506e-07
-2.32051e-06
1.05029e-07
-2.34135e-06
1.04675e-07
-2.36216e-06
1.0439e-07
-2.38293e-06
1.04122e-07
-2.40364e-06
1.03816e-07
-2.42427e-06
1.03413e-07
-2.44479e-06
1.02849e-07
-2.46514e-06
1.02064e-07
-2.4853e-06
1.00999e-07
-2.50521e-06
9.96615e-08
-2.52479e-06
9.79938e-08
-2.54398e-06
9.5888e-08
-2.56269e-06
9.32924e-08
-2.58082e-06
9.02087e-08
-2.59821e-06
8.66512e-08
-2.61474e-06
8.25374e-08
-2.63031e-06
7.77743e-08
-2.64479e-06
7.23612e-08
-2.65793e-06
6.62946e-08
-2.66954e-06
5.95014e-08
-2.67949e-06
5.18933e-08
-2.68762e-06
4.35104e-08
-2.6937e-06
3.43291e-08
-2.69751e-06
2.43204e-08
-2.69879e-06
1.34231e-08
-2.69729e-06
1.63865e-09
-2.69276e-06
-1.10496e-08
-2.685e-06
-2.46607e-08
-2.67379e-06
-3.91866e-08
-2.65892e-06
-5.45666e-08
-2.6402e-06
-7.07532e-08
-2.61741e-06
-8.7688e-08
-2.5904e-06
-1.05299e-07
-2.55902e-06
-1.23515e-07
-2.52315e-06
-1.42227e-07
-2.48266e-06
-1.6133e-07
-2.43747e-06
-1.80666e-07
-2.38753e-06
-2.00134e-07
-2.33282e-06
-2.196e-07
-2.27338e-06
-2.38963e-07
-2.20926e-06
-2.58075e-07
-2.14055e-06
-2.76805e-07
-2.06743e-06
-2.95038e-07