/*--------------------------------*- C++ -*----------------------------------*\
| =========                 |                                                 |
| \\      /  F ield         | OpenFOAM: The Open Source CFD Toolbox           |
|  \\    /   O peration     | Version:  2406                                  |
|   \\  /    A nd           | Website:  www.openfoam.com                      |
|    \\/     M anipulation  |                                                 |
\*---------------------------------------------------------------------------*/
FoamFile
{
    version     2.0;
    format      ascii;
    arch        "LSB;label=32;scalar=64";
    class       volVectorField;
    location    "100";
    object      U;
}
// * * * * * * * * * * * * * * * * * * * * * * * * * * * * * * * * * * * * * //

dimensions      [0 1 -1 0 0 0 0];

internalField   nonuniform List<vector> 
12225
(
(9.83267 -0.996498 0)
(9.58031 -0.929501 0)
(9.30194 -0.618453 0)
(8.99847 -0.379307 0)
(8.70579 -0.226016 0)
(8.44024 -0.132823 0)
(8.20348 -0.0767084 0)
(7.99389 -0.0428696 0)
(7.80944 -0.0224332 0)
(7.64787 -0.0100737 0)
(7.50642 -0.0027202 0)
(7.3828 0.00152279 0)
(7.27489 0.00372275 0)
(7.1814 0.00459463 0)
(7.10119 0.00446282 0)
(7.03466 0.00293876 0)
(6.98159 0.00279163 0)
(6.94499 -0.0153256 0)
(10.0784 0.268985 0)
(10.1891 0.430188 0)
(10.2264 0.384412 0)
(10.2221 0.303062 0)
(10.2026 0.2353 0)
(10.173 0.185106 0)
(10.1323 0.148647 0)
(10.0819 0.122389 0)
(10.0252 0.103253 0)
(9.96478 0.0889553 0)
(9.90289 0.0779171 0)
(9.8407 0.0691024 0)
(9.77961 0.0617936 0)
(9.72019 0.0554284 0)
(9.66355 0.0494548 0)
(9.60946 0.0434395 0)
(9.56061 0.0356161 0)
(9.5098 0.0262394 0)
(10.0052 0.06018 0)
(10.0353 0.0500945 0)
(10.0697 0.0172378 0)
(10.098 0.0117048 0)
(10.1216 0.0215627 0)
(10.1414 0.032344 0)
(10.1554 0.0405128 0)
(10.1636 0.0461836 0)
(10.1668 0.0499415 0)
(10.1664 0.0520985 0)
(10.1628 0.0530128 0)
(10.1569 0.0529479 0)
(10.1491 0.0520893 0)
(10.14 0.0504746 0)
(10.1301 0.0480421 0)
(10.1196 0.0443035 0)
(10.1092 0.0390417 0)
(10.0957 0.0290457 0)
(9.99743 0.0101135 0)
(10.0108 0.0265899 0)
(10.0382 0.0391762 0)
(10.0608 0.0530153 0)
(10.0785 0.0632189 0)
(10.0945 0.067937 0)
(10.1087 0.0690615 0)
(10.1204 0.0686017 0)
(10.1301 0.0673659 0)
(10.1383 0.0656875 0)
(10.1451 0.0636656 0)
(10.1509 0.0614035 0)
(10.1557 0.0588691 0)
(10.1599 0.0559865 0)
(10.1634 0.0525488 0)
(10.1664 0.0481357 0)
(10.1687 0.0423806 0)
(10.1687 0.0338965 0)
(9.99905 0.00670563 0)
(10.0087 0.034199 0)
(10.0292 0.0485706 0)
(10.0461 0.0553878 0)
(10.0596 0.0594406 0)
(10.0727 0.0612693 0)
(10.0853 0.0615444 0)
(10.0964 0.0610843 0)
(10.1062 0.0602476 0)
(10.1151 0.0591014 0)
(10.1233 0.0576607 0)
(10.1308 0.0559294 0)
(10.1378 0.0538714 0)
(10.1443 0.0513843 0)
(10.1504 0.0482998 0)
(10.156 0.0443088 0)
(10.1608 0.0392106 0)
(10.164 0.0326298 0)
(10.0001 0.00925083 0)
(10.0081 0.0334814 0)
(10.0239 0.0445273 0)
(10.0379 0.0492452 0)
(10.0496 0.0531078 0)
(10.0613 0.0557411 0)
(10.0726 0.0568858 0)
(10.0829 0.0570699 0)
(10.0923 0.056688 0)
(10.1009 0.0558621 0)
(10.109 0.0546397 0)
(10.1166 0.0530464 0)
(10.1238 0.0510682 0)
(10.1306 0.0486303 0)
(10.1371 0.0456106 0)
(10.143 0.0418183 0)
(10.1481 0.03718 0)
(10.1519 0.0316612 0)
(10.0003 0.0091733 0)
(10.007 0.0288722 0)
(10.0201 0.0392076 0)
(10.0325 0.0445526 0)
(10.0433 0.0488877 0)
(10.0538 0.051858 0)
(10.0642 0.0532342 0)
(10.0738 0.0535581 0)
(10.0826 0.0532614 0)
(10.0909 0.0524892 0)
(10.0987 0.0512996 0)
(10.1061 0.0497219 0)
(10.1132 0.0477539 0)
(10.1198 0.0453397 0)
(10.1261 0.0423991 0)
(10.1319 0.0388261 0)
(10.1368 0.034621 0)
(10.1407 0.029883 0)
(10.0004 0.00819111 0)
(10.006 0.0248565 0)
(10.017 0.0351446 0)
(10.0283 0.0409251 0)
(10.0384 0.0451778 0)
(10.0481 0.0480432 0)
(10.0576 0.0494433 0)
(10.0667 0.0498337 0)
(10.0751 0.0495993 0)
(10.083 0.0488803 0)
(10.0905 0.047736 0)
(10.0976 0.0461964 0)
(10.1044 0.0442689 0)
(10.1108 0.0419183 0)
(10.1168 0.0391017 0)
(10.1223 0.0357751 0)
(10.127 0.0319815 0)
(10.1308 0.0278641 0)
(10.0004 0.00725619 0)
(10.0052 0.0216925 0)
(10.0145 0.0315358 0)
(10.0248 0.0373285 0)
(10.0341 0.0413613 0)
(10.0432 0.0441011 0)
(10.0521 0.0455392 0)
(10.0606 0.0460085 0)
(10.0687 0.0458372 0)
(10.0762 0.0451703 0)
(10.0834 0.0440714 0)
(10.0903 0.0425759 0)
(10.0967 0.0407006 0)
(10.1028 0.0384332 0)
(10.1085 0.0357608 0)
(10.1137 0.0326825 0)
(10.1182 0.0292618 0)
(10.1219 0.0256448 0)
(10.0004 0.00642159 0)
(10.0045 0.0189344 0)
(10.0124 0.0280249 0)
(10.0216 0.033666 0)
(10.0303 0.0375179 0)
(10.0388 0.0401506 0)
(10.0472 0.0416074 0)
(10.0553 0.0421309 0)
(10.0629 0.042004 0)
(10.0702 0.041377 0)
(10.077 0.0403189 0)
(10.0836 0.0388712 0)
(10.0898 0.0370597 0)
(10.0956 0.0348922 0)
(10.1009 0.0323785 0)
(10.1058 0.0295446 0)
(10.11 0.0264605 0)
(10.1137 0.0232588 0)
(10.0004 0.0056366 0)
(10.0039 0.0164415 0)
(10.0107 0.0246671 0)
(10.0188 0.0300531 0)
(10.0269 0.0337152 0)
(10.0349 0.0362105 0)
(10.0428 0.0376373 0)
(10.0504 0.0381832 0)
(10.0577 0.0380862 0)
(10.0646 0.0374932 0)
(10.0712 0.0364777 0)
(10.0774 0.0350858 0)
(10.0833 0.0333521 0)
(10.0888 0.0312999 0)
(10.0939 0.0289551 0)
(10.0985 0.0263584 0)
(10.1025 0.0235779 0)
(10.1061 0.0207286 0)
(10.0003 0.00493517 0)
(10.0034 0.0143385 0)
(10.0093 0.021743 0)
(10.0166 0.0268032 0)
(10.0242 0.0302532 0)
(10.0316 0.0325914 0)
(10.0391 0.0339544 0)
(10.0463 0.0344962 0)
(10.0533 0.0344154 0)
(10.0599 0.03385 0)
(10.0662 0.0328759 0)
(10.0722 0.0315431 0)
(10.0778 0.0298925 0)
(10.083 0.0279578 0)
(10.0878 0.0257743 0)
(10.0922 0.0233884 0)
(10.0961 0.0208629 0)
(10.0995 0.0182972 0)
(10.0003 0.00427778 0)
(10.003 0.0124148 0)
(10.0081 0.0189832 0)
(10.0147 0.0236358 0)
(10.0217 0.0268376 0)
(10.0287 0.0289986 0)
(10.0357 0.0302716 0)
(10.0426 0.0307885 0)
(10.0492 0.030713 0)
(10.0556 0.0301716 0)
(10.0616 0.0292408 0)
(10.0673 0.0279728 0)
(10.0727 0.0264125 0)
(10.0776 0.0246003 0)
(10.0822 0.0225776 0)
(10.0864 0.0203921 0)
(10.0902 0.0181 0)
(10.0935 0.0157871 0)
(10.0003 0.00359209 0)
(10.0026 0.0104089 0)
(10.007 0.0160239 0)
(10.0129 0.0201324 0)
(10.0192 0.0229946 0)
(10.0257 0.0249168 0)
(10.0322 0.0260503 0)
(10.0387 0.0265084 0)
(10.045 0.0264206 0)
(10.051 0.0258977 0)
(10.0567 0.0250148 0)
(10.0621 0.0238249 0)
(10.0672 0.0223735 0)
(10.072 0.0207049 0)
(10.0763 0.0188628 0)
(10.0803 0.0168945 0)
(10.0839 0.0148474 0)
(10.0872 0.0127942 0)
(10.0002 0.00287537 0)
(10.0022 0.00831991 0)
(10.006 0.0128786 0)
(10.0111 0.0163051 0)
(10.0169 0.0187194 0)
(10.0228 0.0203269 0)
(10.0288 0.0212601 0)
(10.0348 0.0216145 0)
(10.0407 0.0214885 0)
(10.0464 0.0209733 0)
(10.0518 0.0201385 0)
(10.0569 0.0190359 0)
(10.0617 0.0177099 0)
(10.0662 0.0162028 0)
(10.0703 0.0145581 0)
(10.0741 0.0128185 0)
(10.0776 0.0110244 0)
(10.0807 0.00923427 0)
(10.0002 0.00212923 0)
(10.0019 0.00615454 0)
(10.0051 0.00956335 0)
(10.0096 0.0121704 0)
(10.0147 0.0140146 0)
(10.0201 0.0152174 0)
(10.0256 0.0158782 0)
(10.0311 0.0160722 0)
(10.0366 0.0158714 0)
(10.0419 0.0153448 0)
(10.0469 0.0145514 0)
(10.0517 0.0135385 0)
(10.0563 0.0123462 0)
(10.0605 0.0110123 0)
(10.0644 0.00957446 0)
(10.068 0.00806943 0)
(10.0713 0.00652945 0)
(10.0744 0.00500177 0)
(10.0002 0.00135397 0)
(10.0016 0.00390599 0)
(10.0044 0.00607217 0)
(10.0083 0.00772677 0)
(10.0128 0.00887169 0)
(10.0177 0.00956735 0)
(10.0228 0.00987404 0)
(10.0278 0.00984249 0)
(10.0329 0.00952065 0)
(10.0378 0.00895509 0)
(10.0425 0.0081885 0)
(10.047 0.00725893 0)
(10.0513 0.00619917 0)
(10.0553 0.00503971 0)
(10.059 0.00380928 0)
(10.0625 0.00253665 0)
(10.0656 0.00124537 0)
(10.0686 -2.71796e-05 0)
(10.0002 0.000536698 0)
(10.0014 0.00153064 0)
(10.0039 0.00234438 0)
(10.0074 0.00290994 0)
(10.0115 0.00321984 0)
(10.0159 0.00329381 0)
(10.0206 0.00315429 0)
(10.0253 0.0028234 0)
(10.03 0.00232469 0)
(10.0346 0.0016821 0)
(10.039 0.000918857 0)
(10.0433 5.78374e-05 0)
(10.0473 -0.000879396 0)
(10.0511 -0.00187249 0)
(10.0546 -0.00290242 0)
(10.0579 -0.00395041 0)
(10.061 -0.00500109 0)
(10.0639 -0.00602709 0)
(10.0001 -0.000362762 0)
(10.0013 -0.00108527 0)
(10.0036 -0.00178128 0)
(10.0069 -0.00245683 0)
(10.0108 -0.00311373 0)
(10.0151 -0.00376715 0)
(10.0195 -0.00443636 0)
(10.024 -0.00513251 0)
(10.0285 -0.00585936 0)
(10.0329 -0.00661693 0)
(10.0371 -0.00740412 0)
(10.0411 -0.0082167 0)
(10.045 -0.00904864 0)
(10.0486 -0.00989191 0)
(10.0521 -0.0107388 0)
(10.0553 -0.0115806 0)
(10.0583 -0.0124107 0)
(10.0611 -0.0132114 0)
(10.0001 -0.00121077 0)
(10.0014 -0.00355886 0)
(10.0038 -0.00569281 0)
(10.0073 -0.00753793 0)
(10.0113 -0.00908553 0)
(10.0157 -0.0103975 0)
(10.0202 -0.0115388 0)
(10.0247 -0.0125523 0)
(10.0292 -0.0134691 0)
(10.0335 -0.0143179 0)
(10.0377 -0.01512 0)
(10.0417 -0.0158893 0)
(10.0456 -0.0166323 0)
(10.0492 -0.0173525 0)
(10.0526 -0.0180508 0)
(10.0558 -0.0187278 0)
(10.0588 -0.0193824 0)
(10.0616 -0.0200054 0)
(10.0002 -0.00192946 0)
(10.0015 -0.00569086 0)
(10.0042 -0.00907996 0)
(10.008 -0.0118768 0)
(10.0124 -0.0140884 0)
(10.0171 -0.0158769 0)
(10.0218 -0.0173575 0)
(10.0265 -0.0185847 0)
(10.0311 -0.01961 0)
(10.0355 -0.0204908 0)
(10.0398 -0.0212723 0)
(10.0438 -0.0219838 0)
(10.0477 -0.0226421 0)
(10.0513 -0.0232587 0)
(10.0547 -0.0238406 0)
(10.0579 -0.0243936 0)
(10.0609 -0.0249205 0)
(10.0637 -0.0254165 0)
(10.0002 -0.00259486 0)
(10.0017 -0.00777209 0)
(10.0048 -0.0124543 0)
(10.0092 -0.0161154 0)
(10.0141 -0.0188305 0)
(10.0191 -0.0209498 0)
(10.0241 -0.022656 0)
(10.0291 -0.0240135 0)
(10.0339 -0.0250943 0)
(10.0385 -0.0259764 0)
(10.0428 -0.0267186 0)
(10.047 -0.0273588 0)
(10.0508 -0.0279246 0)
(10.0545 -0.0284346 0)
(10.0579 -0.0289036 0)
(10.0612 -0.0293394 0)
(10.0642 -0.0297487 0)
(10.067 -0.0301268 0)
(10.0001 -0.00318757 0)
(10.0017 -0.0098429 0)
(10.0054 -0.0158373 0)
(10.0107 -0.0202751 0)
(10.0163 -0.0234553 0)
(10.0217 -0.0258663 0)
(10.0271 -0.0276827 0)
(10.0323 -0.029024 0)
(10.0373 -0.030046 0)
(10.0421 -0.0308642 0)
(10.0466 -0.0315368 0)
(10.0508 -0.0320988 0)
(10.0548 -0.0325799 0)
(10.0585 -0.033004 0)
(10.062 -0.0333874 0)
(10.0652 -0.0337402 0)
(10.0683 -0.0340681 0)
(10.0712 -0.0343701 0)
(10.0001 -0.00366087 0)
(10.0016 -0.0123119 0)
(10.006 -0.0193608 0)
(10.0123 -0.0239714 0)
(10.0186 -0.0274805 0)
(10.0246 -0.0303561 0)
(10.0304 -0.0324258 0)
(10.036 -0.0337833 0)
(10.0412 -0.0347092 0)
(10.0462 -0.0353936 0)
(10.0508 -0.0359164 0)
(10.0552 -0.0363232 0)
(10.0593 -0.0366524 0)
(10.0631 -0.0369352 0)
(10.0667 -0.0371899 0)
(10.0701 -0.0374279 0)
(10.0733 -0.0376525 0)
(10.0762 -0.0378572 0)
(9.9998 -0.00330014 0)
(10.0011 -0.0159243 0)
(10.0069 -0.0246071 0)
(10.0141 -0.0283836 0)
(10.0208 -0.0311397 0)
(10.0272 -0.0338888 0)
(10.0337 -0.0361064 0)
(10.04 -0.0376738 0)
(10.0459 -0.0387947 0)
(10.0512 -0.0396207 0)
(10.0563 -0.0402217 0)
(10.061 -0.0406534 0)
(10.0654 -0.0409683 0)
(10.0694 -0.0412084 0)
(10.0732 -0.0414018 0)
(10.0768 -0.0415666 0)
(10.0801 -0.0417141 0)
(10.0833 -0.0418433 0)
(9.99825 0.000382187 0)
(9.99791 -0.0167248 0)
(10.0067 -0.0303599 0)
(10.0165 -0.0360739 0)
(10.024 -0.0383992 0)
(10.0312 -0.0395792 0)
(10.0387 -0.0402019 0)
(10.046 -0.0406333 0)
(10.0527 -0.0410412 0)
(10.0589 -0.0414281 0)
(10.0646 -0.041761 0)
(10.0699 -0.0420447 0)
(10.0748 -0.0422903 0)
(10.0792 -0.0425144 0)
(10.0833 -0.0427252 0)
(10.0871 -0.042932 0)
(10.0905 -0.0431353 0)
(10.0937 -0.0433069 0)
(9.99406 0.00308849 0)
(9.99015 -0.00684837 0)
(10.004 -0.0217283 0)
(10.0201 -0.0369651 0)
(10.0323 -0.0482339 0)
(10.0427 -0.0540455 0)
(10.0524 -0.0561534 0)
(10.0611 -0.056532 0)
(10.0689 -0.0562068 0)
(10.0759 -0.055513 0)
(10.0822 -0.0546463 0)
(10.0878 -0.0537192 0)
(10.0928 -0.0528224 0)
(10.0973 -0.0519887 0)
(10.1012 -0.05125 0)
(10.1046 -0.0506143 0)
(10.1077 -0.0500925 0)
(10.1105 -0.049631 0)
(9.99474 -0.0304097 0)
(9.99683 -0.0139073 0)
(10.0127 0.0178931 0)
(10.0326 0.0251983 0)
(10.0524 0.0160473 0)
(10.0708 0.00383523 0)
(10.0865 -0.00668843 0)
(10.0989 -0.0153742 0)
(10.1086 -0.0224019 0)
(10.1161 -0.0279561 0)
(10.1219 -0.0322211 0)
(10.126 -0.0354856 0)
(10.1288 -0.0379683 0)
(10.1303 -0.0398637 0)
(10.1309 -0.041313 0)
(10.1306 -0.0424595 0)
(10.1298 -0.0434102 0)
(10.1282 -0.0442656 0)
(10.0376 -0.21461 0)
(10.1071 -0.370473 0)
(10.1387 -0.349997 0)
(10.1484 -0.288468 0)
(10.156 -0.233281 0)
(10.1625 -0.189658 0)
(10.1638 -0.156115 0)
(10.1583 -0.130742 0)
(10.1472 -0.111707 0)
(10.1318 -0.097232 0)
(10.1131 -0.0860643 0)
(10.0919 -0.077312 0)
(10.069 -0.070398 0)
(10.0449 -0.0648617 0)
(10.02 -0.0603996 0)
(9.99477 -0.056819 0)
(9.96953 -0.0539811 0)
(9.94476 -0.052181 0)
(9.92762 0.783761 0)
(9.83967 0.760181 0)
(9.70765 0.533545 0)
(9.53326 0.350247 0)
(9.34929 0.225542 0)
(9.17391 0.144074 0)
(9.01114 0.091216 0)
(8.86159 0.0564861 0)
(8.72513 0.0333709 0)
(8.60134 0.0178396 0)
(8.48893 0.00730414 0)
(8.38683 0.000164025 0)
(8.29372 -0.00463781 0)
(8.20874 -0.00786819 0)
(8.13081 -0.0100132 0)
(8.05924 -0.0114502 0)
(7.99279 -0.0124391 0)
(7.93124 -0.0135356 0)
(-0.00495279 0.0272379 -9.17605e-19)
(-0.0480757 0.0273097 8.20128e-19)
(-0.0859516 0.0142146 0)
(-0.0889841 -0.00844574 0)
(-0.04865 -0.041743 0)
(0.0100311 -0.0764666 -6.96864e-19)
(0.0817108 -0.0957428 0)
(0.165129 -0.100608 0)
(0.249737 -0.0965335 0)
(0.326902 -0.0868615 0)
(0.392996 -0.0736032 1.7747e-19)
(0.446473 -0.058094 0)
(0.486715 -0.04126 0)
(0.512889 -0.0234859 0)
(0.52555 -0.00454866 0)
(0.521656 0.0160144 1.49208e-19)
(0.501275 0.0370654 0)
(0.465154 0.0563922 0)
(0.414518 0.0717671 0)
(0.351524 0.0808738 0)
(0.279849 0.0816391 0)
(0.204577 0.0726317 0)
(0.132148 0.0541303 0)
(0.0694343 0.0291326 5.92482e-19)
(0.0226001 0.00380372 -9.44634e-19)
(-0.0077262 -0.0158396 1.34851e-18)
(-0.0212298 -0.0305472 1.54682e-18)
(-0.00477602 -0.0425025 0)
(0.0246431 -0.0561166 0)
(0.0649476 -0.0656423 -6.39796e-19)
(0.110535 -0.0638488 -4.77007e-19)
(0.150241 -0.0523238 0)
(0.177043 -0.0372984 0)
(0.189291 -0.0246324 -3.70298e-19)
(0.192188 -0.022494 0)
(0.189374 -0.0331269 0)
(0.1763 -0.0471641 3.8572e-19)
(0.143911 -0.0472479 0)
(0.0847425 -0.0275446 5.3533e-19)
(-0.00239338 0.0122019 9.93175e-19)
(-0.135008 0.0636825 0)
(-0.287208 0.102676 0)
(-0.451428 0.128069 0)
(-0.621737 0.142324 0)
(-0.791915 0.147414 0)
(-0.957034 0.145587 1.5396e-19)
(-1.11386 0.138967 1.36884e-19)
(-1.26017 0.129308 1.24496e-19)
(-1.39475 0.118029 0)
(-1.51715 0.106216 -1.08133e-19)
(-1.62766 0.0946469 0)
(-1.72692 0.0838314 9.80881e-20)
(-1.81591 0.0740473 9.44292e-20)
(-1.89573 0.0654161 0)
(-1.96748 0.0579307 0)
(-2.0323 0.0515513 0)
(-2.09123 0.0461361 8.46524e-20)
(-2.14524 0.0414577 0)
(-2.19506 0.0370763 0)
(-2.24123 0.0323541 0)
(-2.28402 0.0283263 0)
(-2.32412 0.026703 0)
(-2.36247 0.0261322 0)
(-2.39941 0.0255949 0)
(-2.43547 0.0247646 0)
(-2.47062 0.0238732 -7.24582e-20)
(-2.50515 0.023463 0)
(-2.53933 0.0230496 0)
(-2.57317 0.0229827 6.91514e-20)
(-2.60698 0.0230892 6.80693e-20)
(-2.64077 0.0231709 0)
(-2.67464 0.0234008 -6.59241e-20)
(-2.70862 0.0237019 6.48622e-20)
(-2.7428 0.0240563 0)
(-2.77717 0.0244828 -6.27548e-20)
(-2.81178 0.024932 0)
(-2.84656 0.0253528 0)
(-2.88147 0.0256628 5.96461e-20)
(-2.91641 0.0257076 0)
(-2.95132 0.0251248 -5.77826e-20)
(-2.98583 0.0236436 0)
(-3.01961 0.0228654 5.58758e-20)
(-3.05288 0.0225701 5.49499e-20)
(-3.08554 0.0220943 5.40305e-20)
(-3.11745 0.0217817 1.06298e-19)
(-3.14863 0.0209498 -1.04536e-19)
(-3.17861 0.0193524 0)
(-3.20694 0.0178034 0)
(-3.2335 0.0168252 0)
(-3.25831 0.0158033 -9.79742e-20)
(-3.2811 0.0145094 -9.64596e-20)
(-3.3015 0.012769 9.50195e-20)
(-3.31908 0.0109737 0)
(-3.33351 0.0091592 -9.22889e-20)
(-3.34424 0.00728579 -9.09752e-20)
(-3.35106 0.00538701 -8.96597e-20)
(-3.35369 0.00353465 0)
(-3.35291 0.00160623 0)
(-3.34828 -0.000991218 0)
(-3.33941 -0.00345534 -8.38491e-20)
(-3.3266 -0.00475467 0)
(-3.30999 -0.0061224 0)
(-3.28913 -0.00863525 7.86636e-20)
(-3.26352 -0.0113831 0)
(-3.23321 -0.0132585 0)
(-3.19844 -0.0154652 7.2169e-20)
(-3.15863 -0.0179746 0)
(-3.11407 -0.020456 0)
(-3.06425 -0.0232041 -6.36519e-20)
(-3.00978 -0.0253252 -6.02625e-20)
(-2.95048 -0.0276044 0)
(-2.88654 -0.0301621 5.2401e-20)
(-2.81796 -0.0325061 0)
(-2.74497 -0.0348632 -4.30227e-20)
(-2.66771 -0.037232 0)
(-2.58659 -0.0394351 -3.18225e-20)
(-2.5016 -0.0415944 -2.54624e-20)
(-2.41326 -0.0436214 0)
(-2.32165 -0.045584 0)
(-2.22717 -0.0474121 0)
(-2.13012 -0.0491132 0)
(-2.03086 -0.0506709 0)
(-1.9297 -0.0520801 0)
(-1.82698 -0.0533367 0)
(-1.72304 -0.0544409 4.84204e-20)
(-1.6182 -0.0553933 -6.13088e-20)
(-1.5128 -0.0562033 0)
(-1.40717 -0.0568718 0)
(-1.30161 -0.0574179 0)
(-1.1964 -0.0578446 0)
(-1.09178 -0.0581855 -2.88216e-19)
(-0.987999 -0.0584434 0)
(-0.885255 -0.0586526 3.78064e-19)
(-0.783728 -0.0588105 -4.30221e-19)
(-0.683574 -0.0589542 0)
(-0.58491 -0.0590986 0)
(-0.487854 -0.0592352 0)
(-0.392514 -0.0593644 7.11202e-19)
(-0.298913 -0.0595875 8.08101e-19)
(-0.20697 -0.0599132 0)
(-0.117096 -0.0602979 1.05626e-18)
(-0.0279214 -0.0596183 1.12766e-18)
(0.0617061 -0.0571496 -1.0852e-18)
(0.149809 -0.0539696 0)
(0.23571 -0.0508239 0)
(0.319301 -0.0478728 -9.2997e-19)
(0.400398 -0.0451243 0)
(0.479038 -0.0425751 0)
(0.555233 -0.0402088 0)
(0.629045 -0.0380065 0)
(0.700532 -0.0359578 7.90034e-19)
(0.769752 -0.0340438 7.7105e-19)
(0.836768 -0.0322553 0)
(0.901638 -0.0305748 7.38553e-19)
(0.964425 -0.0290004 0)
(1.02519 -0.0275262 0)
(1.08401 -0.0261416 7.00017e-19)
(1.14093 -0.0248371 0)
(1.19604 -0.0236109 6.79289e-19)
(1.24939 -0.0224553 0)
(1.30106 -0.0213672 0)
(1.35109 -0.0203382 6.53567e-19)
(1.39955 -0.019365 0)
(1.44648 -0.0184403 6.39204e-19)
(1.49193 -0.0175626 0)
(1.53595 -0.0167243 0)
(1.57855 -0.0159242 0)
(1.61977 -0.0151497 -6.15538e-19)
(1.6596 -0.0144014 0)
(1.69804 -0.0136564 6.05866e-19)
(1.73501 -0.0129173 0)
(1.77039 -0.0121367 0)
(1.804 -0.0113094 0)
(1.83533 -0.0103383 0)
(1.86403 -0.00914888 0)
(1.88803 -0.0075041 0)
(1.90734 -0.00484013 0)
(1.91025 0.000761013 -1.19633e-18)
(1.90205 0.0125686 0)
(1.79319 0.0283828 0)
(0.00678272 0.0647853 2.83264e-18)
(-0.0119351 0.0774159 -3.53566e-18)
(0.000107719 0.0475682 0)
(0.061971 -0.0435064 1.10254e-18)
(0.138654 -0.151578 0)
(0.221111 -0.2268 2.09128e-19)
(0.300286 -0.258717 -3.22787e-19)
(0.370547 -0.257437 -2.68501e-19)
(0.430417 -0.236341 0)
(0.479981 -0.204987 -2.13635e-19)
(0.519683 -0.169302 -1.0015e-19)
(0.550524 -0.132028 0)
(0.573227 -0.0942327 0)
(0.588242 -0.0563703 0)
(0.595628 -0.0185421 0)
(0.59774 0.0198944 -1.00653e-19)
(0.594108 0.0585586 0)
(0.58384 0.0961028 2.12249e-19)
(0.56552 0.131078 0)
(0.537555 0.161071 0)
(0.49874 0.182569 -2.55958e-19)
(0.449081 0.191489 0)
(0.390426 0.184409 3.23132e-19)
(0.327322 0.160109 -1.9103e-19)
(0.266923 0.121404 2.34055e-19)
(0.2168 0.0739117 -2.92681e-19)
(0.185846 0.0227983 -3.63379e-19)
(0.175214 -0.0327844 0)
(0.186117 -0.0859094 0)
(0.199485 -0.115442 2.72669e-19)
(0.201352 -0.109871 -2.53117e-19)
(0.18993 -0.0838416 0)
(0.162948 -0.0538483 0)
(0.119277 -0.0210444 3.52483e-19)
(0.0575844 0.015999 0)
(-0.0631707 0.0714179 0)
(-0.233012 0.143387 -1.97995e-19)
(-0.412451 0.214432 0)
(-0.597483 0.277059 9.78464e-20)
(-0.781344 0.328578 -1.54258e-19)
(-0.960467 0.364502 0)
(-1.12838 0.382032 0)
(-1.2829 0.383861 -1.98025e-19)
(-1.42206 0.373311 -1.80344e-19)
(-1.5452 0.35394 -1.67112e-19)
(-1.65282 0.328866 7.92985e-20)
(-1.74608 0.300822 -7.38126e-20)
(-1.82668 0.271956 -2.13384e-19)
(-1.89648 0.243779 1.37396e-19)
(-1.95736 0.217342 6.59957e-20)
(-2.01102 0.193235 0)
(-2.05894 0.171758 -6.25245e-20)
(-2.10233 0.152961 6.15523e-20)
(-2.14216 0.136763 0)
(-2.17922 0.122921 0)
(-2.21408 0.111194 0)
(-2.24713 0.101332 -5.67055e-20)
(-2.27862 0.0931113 0)
(-2.3089 0.0862541 1.09956e-19)
(-2.33836 0.0805458 0)
(-2.36729 0.0757552 1.06729e-19)
(-2.39579 0.0717438 0)
(-2.42384 0.0684495 -1.03672e-19)
(-2.45152 0.0658465 0)
(-2.47888 0.0638115 1.00912e-19)
(-2.50599 0.0621809 -4.9705e-20)
(-2.53293 0.0608723 0)
(-2.55968 0.0598116 -9.66707e-20)
(-2.58633 0.0589455 -4.76719e-20)
(-2.61286 0.0582562 -4.69469e-20)
(-2.63926 0.0576874 0)
(-2.66556 0.0571998 -4.53328e-20)
(-2.69174 0.056771 -4.47391e-20)
(-2.71777 0.0563682 0)
(-2.74363 0.0559649 4.3244e-20)
(-2.76926 0.0555236 -8.47854e-20)
(-2.79461 0.0550129 0)
(-2.81956 0.0543722 -4.09177e-20)
(-2.84414 0.0536333 0)
(-2.86816 0.0528924 1.18658e-19)
(-2.89166 0.0519755 0)
(-2.91455 0.0507103 -1.14375e-19)
(-2.93673 0.0492208 -3.75511e-20)
(-2.95798 0.0475398 3.67501e-20)
(-2.97809 0.045689 7.2371e-20)
(-2.99685 0.0435077 -7.11973e-20)
(-3.01421 0.0410037 0)
(-3.03015 0.0384835 0)
(-3.04425 0.0355638 0)
(-3.05642 0.0319909 2.00016e-19)
(-3.06656 0.0281892 6.55968e-20)
(-3.07472 0.0241756 -6.44791e-20)
(-3.08087 0.0198124 0)
(-3.08499 0.0150854 -6.20137e-20)
(-3.08708 0.0100906 6.11767e-20)
(-3.0871 0.00499144 6.00025e-20)
(-3.0849 -0.000173576 0)
(-3.07943 -0.00539897 0)
(-3.07051 -0.010712 0)
(-3.05807 -0.016214 5.50217e-20)
(-3.04172 -0.0219334 0)
(-3.02107 -0.0278104 -1.04592e-19)
(-2.99612 -0.0337926 -1.52726e-19)
(-2.96695 -0.0398681 9.88217e-20)
(-2.93328 -0.0460323 0)
(-2.89481 -0.0521521 4.63202e-20)
(-2.85166 -0.058203 0)
(-2.8037 -0.0641333 8.49797e-20)
(-2.75109 -0.0699982 -4.06175e-20)
(-2.69368 -0.0757196 -3.84538e-20)
(-2.63148 -0.0812151 0)
(-2.5647 -0.0866026 -9.87787e-20)
(-2.49342 -0.0915529 6.07387e-20)
(-2.4177 -0.0962117 2.68156e-20)
(-2.338 -0.100589 0)
(-2.25432 -0.10462 2.02137e-20)
(-2.16696 -0.108268 5.14588e-20)
(-2.07619 -0.111572 0)
(-1.98227 -0.114424 1.95406e-20)
(-1.88558 -0.116876 1.12539e-20)
(-1.78643 -0.118898 2.54259e-21)
(-1.68517 -0.120496 0)
(-1.58213 -0.121666 0)
(-1.47765 -0.122421 0)
(-1.37205 -0.122772 1.70143e-20)
(-1.26567 -0.12274 2.50614e-20)
(-1.15884 -0.122352 0)
(-1.05185 -0.121636 7.0515e-20)
(-0.945008 -0.120628 8.27039e-20)
(-0.838565 -0.119351 0)
(-0.732764 -0.117849 1.11388e-19)
(-0.627825 -0.116155 2.44088e-19)
(-0.523936 -0.114314 -1.39116e-19)
(-0.421261 -0.112349 -1.47725e-19)
(-0.319933 -0.110302 0)
(-0.22004 -0.108215 0)
(-0.12171 -0.106146 0)
(-0.0245903 -0.104165 -2.1375e-19)
(0.0713458 -0.102284 2.15041e-19)
(0.165539 -0.100468 4.46892e-19)
(0.257836 -0.0987689 -2.31142e-19)
(0.347847 -0.0967009 2.3118e-19)
(0.435044 -0.0937692 2.40666e-19)
(0.519603 -0.0903029 0)
(0.601996 -0.086703 0)
(0.68235 -0.0831362 -2.49973e-19)
(0.760651 -0.0796646 0)
(0.836897 -0.0763142 0)
(0.911072 -0.0730899 5.27018e-19)
(0.983199 -0.0699971 0)
(1.05329 -0.0670346 2.68692e-19)
(1.12138 -0.0641965 -2.74791e-19)
(1.1875 -0.0614776 0)
(1.25168 -0.0588747 2.77765e-19)
(1.31396 -0.0563812 0)
(1.37439 -0.0539963 0)
(1.43301 -0.0517184 -2.87828e-19)
(1.48989 -0.049546 5.78044e-19)
(1.54507 -0.0474765 -2.92243e-19)
(1.59861 -0.0455045 0)
(1.65057 -0.0436234 0)
(1.701 -0.0418261 2.96504e-19)
(1.74995 -0.0401071 0)
(1.79746 -0.0384611 3.00298e-19)
(1.8436 -0.0368831 0)
(1.88839 -0.0353664 0)
(1.93187 -0.0339022 0)
(1.97407 -0.0324787 3.08336e-19)
(2.01499 -0.0310789 0)
(2.05464 -0.0296789 -3.11316e-19)
(2.09295 -0.0282436 0)
(2.12983 -0.0267157 0)
(2.16508 -0.0250193 6.30816e-19)
(2.19841 -0.0229955 -6.34583e-19)
(2.22932 -0.0204236 0)
(2.2568 -0.0168255 0)
(2.27992 -0.0110054 0)
(2.2957 -0.00100688 1.99016e-18)
(2.31278 0.0179641 0)
(2.30297 0.0518048 -1.4066e-18)
(-0.000747669 0.0653103 1.03841e-21)
(0.0160017 0.0570508 3.71668e-18)
(0.0846477 -0.0774636 0)
(0.184392 -0.241389 -9.65145e-19)
(0.276819 -0.352939 0)
(0.346849 -0.395845 0)
(0.396304 -0.388827 -5.92721e-22)
(0.431676 -0.354541 1.96459e-19)
(0.45831 -0.308404 1.79514e-19)
(0.479211 -0.258355 1.6669e-19)
(0.495606 -0.207992 0)
(0.507936 -0.15858 0)
(0.516251 -0.110362 -1.55789e-19)
(0.520602 -0.0634045 -3.14836e-19)
(0.521045 -0.0177549 3.22971e-19)
(0.517985 0.0269572 0)
(0.51196 0.0713002 3.31684e-19)
(0.503561 0.115493 -1.70319e-19)
(0.493101 0.158903 0)
(0.480262 0.199612 3.8168e-19)
(0.463966 0.234141 2.05063e-19)
(0.442545 0.257469 -4.48225e-19)
(0.414343 0.263685 -2.47732e-19)
(0.37913 0.247706 0)
(0.338936 0.207514 6.50895e-19)
(0.299343 0.145845 7.76595e-19)
(0.268053 0.0704401 0)
(0.247079 -0.00827329 1.02642e-18)
(0.216637 -0.0632029 0)
(0.155397 -0.0711825 9.07643e-19)
(0.0743731 -0.0319347 4.78705e-19)
(-0.0182288 0.0378425 0)
(-0.149462 0.11956 0)
(-0.306031 0.207339 0)
(-0.474326 0.297847 0)
(-0.653965 0.385458 0)
(-0.832908 0.460712 0)
(-0.998863 0.51766 2.10934e-19)
(-1.14829 0.55689 -2.7588e-19)
(-1.27753 0.578435 0)
(-1.38552 0.58255 0)
(-1.47434 0.570521 0)
(-1.54693 0.545462 -1.63965e-21)
(-1.60662 0.511134 1.19747e-19)
(-1.65674 0.471218 2.28363e-19)
(-1.70011 0.428923 -2.17494e-19)
(-1.73894 0.386748 -1.04649e-19)
(-1.77481 0.34651 9.94805e-20)
(-1.80876 0.309336 7.94726e-22)
(-1.84144 0.275836 9.35408e-20)
(-1.87319 0.24621 0)
(-1.90416 0.220405 8.81591e-20)
(-1.93444 0.198222 2.52846e-22)
(-1.96402 0.1793 0)
(-1.99285 0.16322 0)
(-2.02096 0.149621 -8.07911e-20)
(-2.04839 0.138215 0)
(-2.07518 0.128638 0)
(-2.10137 0.120525 7.6827e-20)
(-2.12708 0.113682 1.51311e-19)
(-2.15242 0.107972 -7.45573e-20)
(-2.17738 0.103328 0)
(-2.20196 0.0996144 7.23913e-20)
(-2.22617 0.0966378 0)
(-2.25011 0.0941798 7.01254e-20)
(-2.27385 0.0921211 6.93031e-20)
(-2.29743 0.0904157 -1.36288e-19)
(-2.32091 0.0889975 -6.69658e-20)
(-2.34429 0.0878198 0)
(-2.36759 0.0868172 1.29935e-19)
(-2.39083 0.0859252 0)
(-2.41402 0.0851081 1.88602e-19)
(-2.43714 0.084329 1.23481e-19)
(-2.46019 0.0835393 1.21304e-19)
(-2.48314 0.0826945 -1.19114e-19)
(-2.50595 0.0817362 1.755e-19)
(-2.52857 0.0806158 0)
(-2.55094 0.0792441 0)
(-2.573 0.0777342 -1.10569e-19)
(-2.59472 0.0760412 -1.63032e-19)
(-2.6161 0.0739665 0)
(-2.63702 0.0715788 5.23841e-20)
(-2.65732 0.0689298 0)
(-2.67689 0.0660924 -1.51309e-19)
(-2.69558 0.0629777 -3.54487e-22)
(-2.71332 0.0593793 3.61087e-22)
(-2.73001 0.0553771 9.52835e-20)
(-2.74551 0.0510671 0)
(-2.75976 0.0463641 -9.16268e-20)
(-2.77237 0.0412602 -3.37808e-22)
(-2.78324 0.0358127 0)
(-2.7923 0.0299933 0)
(-2.79937 0.023781 0)
(-2.80428 0.017148 8.33281e-20)
(-2.80678 0.0101328 0)
(-2.80665 0.00274013 0)
(-2.80358 -0.00507766 0)
(-2.79728 -0.0133139 0)
(-2.78756 -0.0219188 0)
(-2.77427 -0.0308271 7.2e-20)
(-2.7571 -0.0399714 0)
(-2.73586 -0.0493416 6.79502e-20)
(-2.7104 -0.0589516 6.57919e-20)
(-2.68068 -0.0687054 -6.35165e-20)
(-2.6465 -0.0785103 0)
(-2.6077 -0.0882908 -5.86671e-20)
(-2.56428 -0.098003 0)
(-2.51614 -0.107573 -5.32901e-20)
(-2.46341 -0.116934 5.03331e-20)
(-2.40589 -0.126035 1.42911e-19)
(-2.3438 -0.13478 0)
(-2.27714 -0.143222 1.23136e-19)
(-2.20605 -0.151139 3.86227e-20)
(-2.13074 -0.158511 0)
(-2.05143 -0.165345 6.03741e-20)
(-1.96822 -0.171582 5.22345e-20)
(-1.88148 -0.177198 -6.43742e-20)
(-1.79139 -0.182181 0)
(-1.69831 -0.186467 -1.14237e-20)
(-1.60254 -0.190054 -6.52968e-21)
(-1.50444 -0.19293 -7.37913e-21)
(-1.40434 -0.195099 0)
(-1.30258 -0.196565 0)
(-1.19949 -0.197348 0)
(-1.09539 -0.197471 1.69539e-20)
(-0.990612 -0.19697 0)
(-0.885473 -0.195887 0)
(-0.780269 -0.194269 -3.82932e-20)
(-0.675277 -0.192168 -4.45007e-20)
(-0.570747 -0.189638 0)
(-0.466913 -0.186734 0)
(-0.363978 -0.183514 -1.27538e-19)
(-0.262114 -0.180032 0)
(-0.161472 -0.176348 1.54226e-19)
(-0.0621216 -0.172533 1.6321e-19)
(0.035903 -0.16865 0)
(0.132393 -0.164747 0)
(0.227117 -0.160778 -1.92011e-19)
(0.319936 -0.15668 -3.45654e-21)
(0.41076 -0.152499 -3.35723e-21)
(0.499535 -0.148269 0)
(0.586124 -0.143995 -4.51648e-19)
(0.670391 -0.13961 0)
(0.752422 -0.135056 0)
(0.832382 -0.130411 0)
(0.910328 -0.125761 2.55808e-19)
(0.986275 -0.121165 0)
(1.06023 -0.11666 -5.32744e-19)
(1.13219 -0.112264 -2.74939e-19)
(1.20219 -0.107988 0)
(1.27023 -0.103839 -2.86698e-19)
(1.33634 -0.0998184 0)
(1.40055 -0.0959286 0)
(1.4629 -0.0921708 -9.0559e-19)
(1.52342 -0.0885439 6.12992e-19)
(1.58216 -0.0850506 0)
(1.63916 -0.0816921 6.33089e-19)
(1.69447 -0.0784707 -3.22869e-19)
(1.74815 -0.0753852 0)
(1.80025 -0.0724308 0)
(1.85082 -0.0696005 0)
(1.89992 -0.0668872 -1.0199e-18)
(1.9476 -0.0642851 0)
(1.99391 -0.0617882 -3.49177e-19)
(2.03889 -0.0593899 0)
(2.0826 -0.0570808 0)
(2.12507 -0.0548483 0)
(2.16633 -0.0526743 0)
(2.20639 -0.0505338 0)
(2.24526 -0.0483895 0)
(2.28289 -0.0461885 -7.50298e-19)
(2.3192 -0.0438475 0)
(2.35406 -0.0412458 -3.83332e-19)
(2.38722 -0.0381726 1.16044e-18)
(2.41829 -0.0342869 0)
(2.44667 -0.0289848 0)
(2.47181 -0.0210834 -8.03305e-19)
(2.49164 -0.00879894 -8.21774e-19)
(2.51125 0.0120106 8.38996e-19)
(2.5186 0.0497266 8.7335e-19)
(-0.00706301 0.0340308 -6.13378e-18)
(0.0593947 -0.11558 -3.0607e-18)
(0.165905 -0.326382 -9.55013e-19)
(0.260405 -0.458533 -3.18808e-19)
(0.319681 -0.496443 0)
(0.351233 -0.477188 4.07263e-19)
(0.368821 -0.434172 -1.76153e-19)
(0.380612 -0.383624 0)
(0.39009 -0.330816 -1.46643e-19)
(0.398272 -0.277114 0)
(0.404979 -0.223068 2.78037e-19)
(0.409667 -0.169087 0)
(0.411838 -0.115499 1.40588e-19)
(0.411137 -0.0627131 2.88703e-19)
(0.407405 -0.0111642 -2.99766e-19)
(0.400683 0.0390079 0)
(0.391153 0.0876276 -3.08135e-19)
(0.37932 0.134718 0)
(0.365807 0.180117 0)
(0.351084 0.222934 -3.51e-19)
(0.335259 0.260976 0)
(0.317863 0.290117 -6.09068e-22)
(0.29783 0.304099 0)
(0.27412 0.295683 0)
(0.246797 0.260369 -5.73552e-22)
(0.218147 0.198172 -7.45536e-19)
(0.182085 0.117233 -8.47169e-19)
(0.110902 0.0578932 -8.56592e-19)
(0.00845971 0.0656457 0)
(-0.11202 0.119698 -1.08302e-18)
(-0.258632 0.200645 0)
(-0.421208 0.301591 -3.35157e-19)
(-0.591199 0.406377 0)
(-0.758313 0.502362 0)
(-0.915387 0.584142 1.96551e-19)
(-1.05636 0.646637 0)
(-1.17629 0.687597 -1.53653e-19)
(-1.27471 0.708227 9.0023e-22)
(-1.35312 0.711295 2.54541e-19)
(-1.41336 0.699482 -2.36492e-19)
(-1.45871 0.675418 0)
(-1.49305 0.641727 0)
(-1.52 0.601236 -9.83442e-20)
(-1.54275 0.556842 0)
(-1.56367 0.511059 -8.63871e-20)
(-1.58431 0.465867 8.23776e-20)
(-1.60555 0.422683 7.88757e-20)
(-1.62775 0.382433 0)
(-1.65093 0.345637 -7.31446e-20)
(-1.67496 0.312524 -7.08192e-20)
(-1.69959 0.283115 1.38161e-19)
(-1.72455 0.257263 -6.69658e-20)
(-1.74959 0.234718 -6.535e-20)
(-1.77451 0.215166 0)
(-1.79916 0.198297 0)
(-1.82345 0.18382 6.13854e-20)
(-1.84733 0.17146 0)
(-1.87078 0.160909 0)
(-1.89381 0.151914 -1.16491e-19)