/*--------------------------------*- C++ -*----------------------------------*\
| =========                 |                                                 |
| \\      /  F ield         | OpenFOAM: The Open Source CFD Toolbox           |
|  \\    /   O peration     | Version:  2406                                  |
|   \\  /    A nd           | Website:  www.openfoam.com                      |
|    \\/     M anipulation  |                                                 |
\*---------------------------------------------------------------------------*/
FoamFile
{
    version     2.0;
    format      ascii;
    arch        "LSB;label=32;scalar=64";
    class       volScalarField;
    location    "385";
    object      k;
}
// * * * * * * * * * * * * * * * * * * * * * * * * * * * * * * * * * * * * * //

dimensions      [0 2 -2 0 0 0 0];

internalField   nonuniform List<scalar> 
12225
(
0.537228
0.80264
0.97206
1.06009
1.09308
1.08969
1.0758
1.05038
1.02073
0.991913
0.965071
0.940108
0.918564
0.897874
0.882336
0.864843
0.856096
0.840407
0.378708
0.38921
0.401805
0.416489
0.43
0.445462
0.459908
0.478843
0.496955
0.520829
0.537651
0.560051
0.574613
0.595402
0.607334
0.626363
0.635123
0.651835
0.374316
0.373462
0.372033
0.36844
0.364161
0.358932
0.354199
0.349193
0.345338
0.342074
0.339628
0.33756
0.336103
0.334952
0.334167
0.333706
0.333212
0.333559
0.374014
0.371949
0.369957
0.366585
0.363585
0.359698
0.3564
0.352203
0.348673
0.344398
0.340925
0.336787
0.333469
0.32953
0.326367
0.322746
0.319748
0.316516
0.373951
0.371702
0.369715
0.366912
0.364468
0.361584
0.359174
0.356269
0.353778
0.350777
0.34821
0.345134
0.342563
0.339522
0.337031
0.33406
0.331715
0.328837
0.373905
0.371642
0.369657
0.367255
0.365096
0.362734
0.360698
0.358447
0.356453
0.354206
0.352205
0.349939
0.347945
0.345684
0.343744
0.341507
0.339662
0.337464
0.373875
0.371613
0.369595
0.367421
0.365415
0.363339
0.361483
0.35956
0.357811
0.355962
0.354264
0.352449
0.350793
0.349006
0.347405
0.345648
0.344123
0.342396
0.373856
0.371594
0.369532
0.367463
0.365528
0.363606
0.361834
0.360077
0.358448
0.356807
0.355274
0.353709
0.35225
0.350742
0.349352
0.347892
0.346574
0.345152
0.373845
0.371581
0.369483
0.36745
0.365537
0.363683
0.361948
0.360268
0.358691
0.357151
0.355699
0.354266
0.352915
0.351567
0.350301
0.349021
0.347833
0.346607
0.373837
0.371573
0.369451
0.367424
0.365511
0.36368
0.361954
0.360302
0.358742
0.357242
0.355823
0.35445
0.353149
0.351881
0.350681
0.349501
0.348386
0.347278
0.373833
0.371567
0.369431
0.367401
0.365482
0.363654
0.361926
0.360279
0.358719
0.357229
0.355817
0.354464
0.35318
0.351945
0.350771
0.349637
0.348557
0.347511
0.37383
0.371562
0.369419
0.367385
0.36546
0.36363
0.361896
0.360247
0.358682
0.357192
0.355776
0.354426
0.353142
0.351915
0.350746
0.349627
0.348558
0.347534
0.373828
0.371559
0.369411
0.367374
0.365443
0.36361
0.361871
0.360218
0.358648
0.357154
0.355733
0.35438
0.353092
0.351865
0.350694
0.349578
0.34851
0.347492
0.373827
0.371556
0.369404
0.367363
0.365428
0.363592
0.361848
0.360191
0.358616
0.357117
0.355692
0.354334
0.353041
0.35181
0.350635
0.349515
0.348445
0.347426
0.373826
0.371553
0.369398
0.367355
0.365416
0.363576
0.361828
0.360168
0.358588
0.357086
0.355656
0.354294
0.352996
0.35176
0.350581
0.349457
0.348383
0.347359
0.373826
0.371551
0.369394
0.367348
0.365407
0.363564
0.361813
0.360149
0.358566
0.35706
0.355626
0.35426
0.352959
0.351719
0.350536
0.349408
0.34833
0.347303
0.373825
0.37155
0.369391
0.367344
0.3654
0.363555
0.361801
0.360134
0.358548
0.357039
0.355602
0.354234
0.35293
0.351686
0.3505
0.349369
0.348289
0.347259
0.373825
0.371549
0.36939
0.367341
0.365396
0.363549
0.361793
0.360124
0.358537
0.357025
0.355586
0.354216
0.352909
0.351664
0.350475
0.349342
0.34826
0.347228
0.373825
0.371549
0.36939
0.36734
0.365395
0.363547
0.36179
0.36012
0.358531
0.357019
0.355579
0.354206
0.352899
0.351652
0.350463
0.349328
0.348245
0.347212
0.373825
0.37155
0.369391
0.367342
0.365397
0.36355
0.361794
0.360124
0.358535
0.357023
0.355583
0.35421
0.352903
0.351656
0.350467
0.349332
0.348249
0.347216
0.373826
0.371551
0.369394
0.367346
0.365403
0.363557
0.361802
0.360133
0.358545
0.357034
0.355595
0.354223
0.352916
0.35167
0.350482
0.349348
0.348265
0.347232
0.373826
0.371554
0.369398
0.367353
0.365411
0.363567
0.361815
0.360148
0.358562
0.357053
0.355614
0.354244
0.352937
0.351691
0.350502
0.349367
0.348284
0.347249
0.373827
0.371558
0.369405
0.367364
0.365424
0.363584
0.361833
0.360169
0.358583
0.357071
0.355628
0.354252
0.352937
0.351682
0.350482
0.349336
0.348235
0.347185
0.373825
0.371566
0.369416
0.36738
0.365438
0.363599
0.361843
0.360171
0.358564
0.357026
0.355547
0.354132
0.352772
0.351471
0.350217
0.349016
0.347851
0.346737
0.373812
0.37158
0.369426
0.367388
0.365421
0.363562
0.36176
0.36003
0.358328
0.356684
0.355075
0.353532
0.352031
0.350592
0.349186
0.347834
0.346501
0.345226
0.373734
0.371569
0.369391
0.367335
0.365268
0.36333
0.361362
0.359444
0.357475
0.355556
0.353634
0.35179
0.349969
0.348224
0.346492
0.344825
0.343158
0.341568
0.373335
0.371494
0.369301
0.367231
0.364922
0.362787
0.360383
0.358029
0.355448
0.352951
0.350372
0.347928
0.345486
0.343163
0.340862
0.338654
0.336469
0.33439
0.372428
0.371638
0.369898
0.368115
0.365413
0.36295
0.359667
0.356623
0.353036
0.349825
0.346466
0.343535
0.340743
0.338257
0.336105
0.334028
0.332392
0.330684
0.373957
0.377662
0.381543
0.387038
0.391554
0.397228
0.401789
0.407866
0.41333
0.420397
0.427345
0.435749
0.44423
0.453773
0.463482
0.472191
0.481402
0.489383
0.454635
0.60857
0.726906
0.813294
0.871238
0.909542
0.930247
0.942201
0.943115
0.941065
0.936131
0.928078
0.918993
0.909297
0.899605
0.890098
0.880839
0.871949
4.25949e-06
3.36889e-05
8.68613e-05
0.000168737
0.000269461
0.000389143
0.000590172
0.00092411
0.00142331
0.00207214
0.00277264
0.00348456
0.0041478
0.00473203
0.00523
0.00563232
0.00593461
0.00614382
0.00625748
0.00625201
0.00618938
0.00608201
0.00583118
0.00542995
0.00486063
0.00410986
0.00319494
0.00218136
0.0012149
0.00050018
0.000139586
4.21802e-05
3.56244e-05
3.98278e-05
4.6512e-05
5.50013e-05
6.32109e-05
6.84569e-05
7.95178e-05
0.000166675
0.000361942
0.000851384
0.00146852
0.00197264
0.00221991
0.00218542
0.00204573
0.00182148
0.00159831
0.00145391
0.00153372
0.00198042
0.00228542
0.00258701
0.00315874
0.00450102
0.0116708
0.0285611
0.047503
0.0658596
0.0831112
0.0992826
0.114462
0.128853
0.142607
0.155962
0.168659
0.180618
0.192026
0.202891
0.213328
0.22337
0.23309
0.24252
0.251708
0.260678
0.269449
0.278053
0.286495
0.294798
0.302959
0.310995
0.3189
0.326685
0.334344
0.34188
0.349287
0.356565
0.363706
0.370705
0.377553
0.384242
0.390762
0.397102
0.40325
0.409198
0.414938
0.420469
0.4258
0.430961
0.436008
0.440892
0.445591
0.450119
0.45447
0.45864
0.462625
0.466421
0.470024
0.47343
0.476636
0.47964
0.482437
0.485027
0.487406
0.489573
0.491526
0.493265
0.494789
0.496098
0.497192
0.498072
0.498738
0.499191
0.499432
0.499461
0.499354
0.499103
0.498523
0.497783
0.496701
0.495429
0.493915
0.492237
0.490381
0.488345
0.486156
0.483735
0.481111
0.478341
0.475389
0.472282
0.469014
0.465596
0.462031
0.458331
0.454515
0.450538
0.446492
0.442258
0.437991
0.433529
0.429067
0.424408
0.419787
0.41497
0.410233
0.4053
0.40048
0.395463
0.390569
0.385495
0.380517
0.375419
0.370348
0.365248
0.360145
0.355042
0.349942
0.344848
0.339753
0.33465
0.329526
0.324355
0.319104
0.313718
0.308239
0.303951
0.300217
0.283356
2.07974e-05
1.40231e-05
4.75821e-05
0.000122543
0.000312234
0.000903603
0.00213067
0.00400213
0.00626812
0.00861091
0.0108016
0.0127317
0.0142212
0.0152504
0.0158826
0.0161093
0.0160401
0.0158354
0.0154012
0.0148177
0.0140271
0.0130338
0.0118576
0.010501
0.00903597
0.0074402
0.00590956
0.00447174
0.00314076
0.00201728
0.00118674
0.000659016
0.000363262
0.000208013
0.000131382
9.70921e-05
9.3013e-05
0.000139635
0.00015807
0.00113098
0.00226731
0.00521319
0.00836915
0.0106244
0.0115348
0.0113299
0.0106828
0.00924696
0.00839359
0.00884973
0.0110187
0.0151957
0.0193979
0.0269221
0.0379692
0.053438
0.0755035
0.100978
0.12603
0.152389
0.178534
0.205271
0.231886
0.258557
0.284843
0.31068
0.335795
0.360169
0.383738
0.406526
0.428571
0.449941
0.470709
0.490964
0.510748
0.530146
0.549179
0.567927
0.586407
0.604661
0.622704
0.64056
0.658237
0.675745
0.693088
0.710269
0.727286
0.744135
0.760811
0.777305
0.793607
0.809702
0.825574
0.841205
0.856569
0.871642
0.886393
0.900789
0.914795
0.928374
0.941506
0.954341
0.966917
0.979203
0.991208
1.00291
1.01431
1.02538
1.03612
1.04653
1.05658
1.06627
1.0756
1.08454
1.09311
1.10128
1.10905
1.11642
1.12338
1.12993
1.13606
1.14177
1.14706
1.15194
1.15639
1.16044
1.1641
1.16737
1.17027
1.17285
1.17516
1.17703
1.17834
1.17939
1.17979
1.1801
1.18012
1.1797
1.17871
1.1774
1.1757
1.17364
1.17122
1.16845
1.16533
1.16189
1.15813
1.15409
1.14969
1.14505
1.14007
1.13487
1.12934
1.12362
1.11761
1.11145
1.10503
1.09852
1.09178
1.08497
1.07797
1.07091
1.06367
1.05635
1.04892
1.0414
1.03381
1.02617
1.01848
1.01076
1.003
0.995185
0.987293
0.979275
0.971057
0.962517
0.953444
0.943682
0.931166
0.902132
2.49287e-05
1.17798e-05
5.4011e-05
0.000236343
0.000748439
0.00223061
0.00483719
0.00790868
0.0110279
0.0139218
0.0164214
0.0184404
0.0199561
0.0210002
0.021613
0.021871
0.0218266
0.0216548
0.0212525
0.0207026
0.0200151
0.0191944
0.0182265
0.0170953
0.0157693
0.0142732
0.0124959
0.0105345
0.00851458
0.00652037
0.00473212
0.00311987
0.00199147
0.00127804
0.000847857
0.000625551
0.000478024
0.000629549
0.000798753
0.00327985
0.00737787
0.0144538
0.0203203
0.0241195
0.0258284
0.0265605
0.0269642
0.0277807
0.031173
0.0395701
0.0537492
0.0709523
0.0879197
0.110488
0.135341
0.163823
0.194337
0.227012
0.262229
0.299
0.336661
0.374751
0.412532
0.449619
0.485571
0.520209
0.553422
0.585247
0.615767
0.645116
0.673441
0.700888
0.727577
0.753634
0.779134
0.804177
0.828823
0.853128
0.877128
0.900857
0.924335
0.94758
0.970602
0.993408
1.016
1.03838
1.06054
1.08248
1.10419
1.12566
1.14688
1.16785
1.18854
1.20894
1.22905
1.24885
1.26833
1.28748
1.3063
1.32479
1.34295
1.36078
1.37825
1.39533
1.41202
1.4283
1.44415
1.45956
1.47452
1.489
1.50301
1.51652
1.52952
1.54201
1.55397
1.56539
1.57627
1.5866
1.59636
1.60556
1.6142
1.62226
1.62974
1.63665
1.64299
1.64875
1.65394
1.65857
1.66263
1.66613
1.66908
1.67143
1.67318
1.67436
1.67484
1.67501
1.67461
1.67362
1.67206
1.66998
1.66739
1.66429
1.6607
1.65662
1.65206
1.64705
1.64159
1.63571
1.62937
1.62266
1.6155
1.60801
1.6001
1.59188
1.58328
1.57444
1.56525
1.55588
1.54621
1.53641
1.52634
1.51616
1.50576
1.49522
1.48452
1.47369
1.46275
1.45173
1.44064
1.4295
1.4183
1.40706
1.39574
1.38433
1.37276
1.36096
1.34876
1.33598
1.32058
1.29372
2.509e-05
2.76034e-05
0.000186262
0.000861482
0.00246377
0.00608364
0.0105365
0.0149568
0.01892
0.0221954
0.0247016
0.0264598
0.0275229
0.028059
0.0281006
0.0279433
0.0275499
0.0269598
0.0262589
0.025477
0.0246296
0.0237158
0.022726
0.021647
0.0204477
0.0191074
0.0175841
0.0158504
0.0139147
0.0118533
0.00975063
0.00777632
0.00589139
0.00430177
0.00310378
0.00228548
0.00198659
0.00238813
0.00414238
0.0116471
0.0248024
0.0360234
0.0436971
0.0482
0.0504308
0.0544029
0.0643041
0.0793916
0.0954401
0.112131
0.129827
0.148571
0.171436
0.200061
0.231673
0.268329
0.307127
0.348458
0.390881
0.433888
0.476805
0.519261
0.560881
0.601457
0.640826
0.678929
0.715768
0.751405
0.785926
0.81945
0.852093
0.883962
0.915157
0.945774
0.975892
1.00558
1.03488
1.06385
1.0925
1.12088
1.14899
1.17685
1.20446
1.23183
1.25896
1.28584
1.31247
1.33884
1.36495
1.39079
1.41634
1.44159
1.46654
1.49117
1.51548
1.53945
1.56308
1.58634
1.60924
1.63176
1.65388
1.67557
1.69682
1.7176
1.73789
1.75768
1.77694
1.79566
1.81381
1.83139
1.84838
1.86475
1.8805
1.89562
1.91009
1.9239
1.93704
1.9495
1.96127
1.97235
1.98273
1.9924
2.00136
2.00962
2.01716
2.02399
2.03011
2.03552
2.04021
2.04419
2.04746
2.05002
2.05187
2.05292
2.0533
2.05313
2.05226
2.0507
2.04847
2.0456
2.04209
2.03797
2.03324
2.02791
2.02201
2.01555
2.00853
2.00099
1.99292
1.98437
1.97531
1.96581
1.95583
1.94544
1.93462
1.92345
1.91191
1.90009
1.88794
1.87557
1.86292
1.85008
1.837
1.82374
1.81028
1.79666
1.7829
1.76903
1.75508
1.74106
1.727
1.71288
1.69873
1.68453
1.67025
1.65588
1.64129
1.62637
1.60937
1.58451
3.32236e-05
9.38389e-05
0.000645266
0.00242474
0.00689787
0.0133833
0.019581
0.0247784
0.0286896
0.0313298
0.0328939
0.0336371
0.0337168
0.0334952
0.032953
0.0321923
0.0313278
0.0304093
0.0294702
0.0285281
0.0275882
0.0266418
0.0256743
0.0246664
0.02359
0.0224171
0.0211157
0.019653
0.017993
0.0161387
0.0141387
0.0121166
0.0101462
0.00836643
0.00704913
0.00572844
0.00609241
0.00963784
0.0211112
0.041854
0.0600773
0.0732848
0.0823377
0.0900988
0.0997852
0.111454
0.124252
0.137507
0.152069
0.169152
0.191478
0.218489
0.250902
0.287821
0.327647
0.369976
0.413263
0.457411
0.501692
0.545929
0.589876
0.633391
0.676317
0.718533
0.759949
0.800508
0.840185
0.879002
0.916995
0.95422
0.990746
1.02664
1.06198
1.09683
1.13123
1.16525
1.19891
1.23225
1.2653
1.29805
1.33054
1.36276
1.39472
1.42642
1.45785
1.48901
1.51989
1.55049
1.58078
1.61077
1.64044
1.66978
1.69878
1.72742
1.7557
1.78359
1.81109
1.83817
1.86482
1.89101
1.91672
1.94194
1.96662
1.99076
2.01432
2.03729
2.05964
2.08135
2.1024
2.12277
2.14245
2.1614
2.17963
2.1971
2.21382
2.22976
2.24491
2.25927
2.27281
2.28554
2.29744
2.30852
2.31876
2.32817
2.33673
2.34445
2.35134
2.35738
2.36258
2.36693
2.37046
2.37315
2.37499
2.37591
2.37613
2.3756
2.37425
2.37212
2.36922
2.36557
2.36118
2.35607
2.35025
2.34374
2.33657
2.32873
2.32026
2.31117
2.30147
2.2912
2.28037
2.269
2.2571
2.24471
2.23184
2.21854
2.20482
2.19075
2.17632
2.1616
2.14657
2.1313
2.11578
2.10002
2.08405
2.06788
2.05155
2.03508
2.01852
2.00189
1.98521
1.96851
1.95179
1.93507
1.91837
1.90169
1.88496
1.86812
1.84972
1.82555
2.77921e-05
0.000284919
0.00188363
0.0066091
0.0157983
0.0242395
0.030627
0.0348564
0.0372829
0.0384205
0.0386764
0.0384297
0.0377721
0.0368126
0.035713
0.0345522
0.0333885
0.0322603
0.0311889
0.030181
0.0292313
0.0283234
0.027436
0.0265432
0.0256127
0.0246105
0.0235051
0.0222702
0.020883
0.0193259
0.0176133
0.0158052
0.0139766
0.0119062
0.0106091
0.012041
0.0193817
0.0379105
0.0640761
0.0879834
0.106299
0.118825
0.127648
0.135431
0.143765
0.15334
0.164803
0.179907
0.200374
0.225827
0.256977
0.292595
0.331826
0.373277
0.415967
0.459438
0.503228
0.547266
0.591374
0.635527
0.679662
0.723709
0.767575
0.81116
0.854374
0.897138
0.939389
0.981108
1.02229
1.06294
1.1031
1.14279
1.18206
1.22094
1.25947
1.29767
1.33557
1.37318
1.41051
1.44757
1.48437
1.5209
1.55715
1.59313
1.62883
1.66423
1.69932
1.73411
1.76856
1.80267
1.83643
1.86982
1.90282
1.93542
1.96761
1.99936
2.03065
2.06146
2.09177
2.12156
2.15079
2.17944
2.20748
2.23489
2.26165
2.28772
2.31309
2.33772
2.36159
2.38468
2.40696
2.42843
2.44906
2.46882
2.48772
2.50572
2.52282
2.53899
2.55425
2.56856
2.58193
2.59434
2.6058
2.61629
2.62582
2.63438
2.64197
2.6486
2.65426
2.65895
2.6627
2.6655
2.6673
2.66807
2.66809
2.66718
2.66536
2.66265
2.65906
2.65463
2.64935
2.64326
2.63636
2.62868
2.62024
2.61106
2.60115
2.59055
2.57926
2.56732
2.55475
2.54157
2.5278
2.51346
2.4986
2.48324
2.46741
2.45118
2.43454
2.41756
2.40026
2.38266
2.36477
2.34662
2.32823
2.30962
2.29082
2.27188
2.25283
2.2337
2.21454
2.19536
2.1762
2.15709
2.13806
2.11916
2.10036
2.0816
2.0617
2.03723
6.93389e-05
0.000905989
0.00518434
0.0161195
0.0275829
0.0354153
0.0399843
0.042317
0.04323
0.0432045
0.0426808
0.0416119
0.0402789
0.0388113
0.0373069
0.0358384
0.0344557
0.0331877
0.0320444
0.0310213
0.030102
0.0292613
0.0284703
0.0276932
0.0268911
0.026017
0.0250317
0.023913
0.0226429
0.0212078
0.0196553
0.0182897
0.0175579
0.0182988
0.0229685
0.0358651
0.0599964
0.0891037
0.115487
0.135312
0.147565
0.154294
0.159114
0.164764
0.172683
0.185229
0.202884
0.226003
0.254615
0.287922
0.325138
0.364831
0.406032
0.448016
0.490465
0.533242
0.576289
0.619635
0.663293
0.707284
0.751595
0.79618
0.840962
0.885844
0.930724
0.975513
1.02014
1.06454
1.10869
1.15257
1.19617
1.23949
1.28255
1.32535
1.36792
1.41024
1.45234
1.49421
1.53583
1.57722
1.61835
1.65922
1.69982
1.74013
1.78014
1.81984
1.85921
1.89824
1.9369
1.97519
2.01309
2.05057
2.08762
2.12422
2.16035
2.19598
2.2311
2.26567
2.29967
2.33308
2.36585
2.39796
2.42939
2.4601
2.49007
2.51927
2.54766
2.57522
2.60192
2.62774
2.65265
2.67663
2.69966
2.72172
2.74278
2.76284
2.78187
2.79987
2.81681
2.83269
2.8475
2.86123
2.87387
2.88543
2.89589
2.90527
2.91354
2.92073
2.92682
2.93183
2.93576
2.93864
2.94036
2.94101
2.94075
2.93945
2.93713
2.93381
2.92952
2.92427
2.91808
2.91098
2.90298
2.89411
2.88439
2.87385
2.8625
2.85037
2.83748
2.82387
2.80955
2.79456
2.77892
2.76266
2.74581
2.7284
2.71049
2.69211
2.6733
2.6541
2.63453
2.61463
2.59443
2.57393
2.55316
2.53215
2.51093
2.48956
2.46807
2.4465
2.4249
2.40331
2.38175
2.36028
2.33896
2.31784
2.29694
2.27622
2.25461
2.22918
0.000611418
0.0027188
0.0124058
0.0282791
0.0385665
0.0441787
0.0469565
0.0479914
0.0478997
0.0471252
0.0457128
0.043983
0.0420945
0.0401746
0.0383204
0.0365997
0.0350529
0.0336955
0.0325228
0.031515
0.0306425
0.0298699
0.0291558
0.0284529
0.0276929
0.0268337
0.0258408
0.0246889
0.0233801
0.0220208
0.0210468
0.0213548
0.0250556
0.0357079
0.0561755
0.0838994
0.112198
0.137193
0.155589
0.165998
0.171093
0.174266
0.178741
0.187927
0.202212
0.222182
0.247525
0.277724
0.311948
0.349105
0.388168
0.428225
0.468835
0.509815
0.551148
0.592873
0.635057
0.677773
0.721081
0.765017
0.809582
0.854734
0.9004
0.946498
0.992932
1.03961
1.08645
1.13337
1.18033
1.22728
1.27418
1.32102
1.36779
1.41446
1.46103
1.50748
1.55379
1.59995
1.64593
1.6917
1.73726
1.78256
1.82759
1.87232
1.91675
1.96084
2.00458
2.04795
2.09092
2.13347
2.17559
2.21725
2.25843
2.29911
2.33925
2.37884
2.41785
2.45625
2.494
2.53109
2.56746
2.6031
2.63796
2.67202
2.70525
2.73761
2.76907
2.79959
2.82915
2.85772
2.88527
2.91178
2.93722
2.96157
2.98481
3.00691
3.02787
3.04767
3.06629
3.08371
3.09994
3.11496
3.12876
3.14135
3.15272
3.16287
3.17179
3.1795
3.18598
3.19126
3.19535
3.19825
3.19987
3.20036
3.19976
3.19802
3.19515
3.19118
3.18613
3.18003
3.17289
3.16474
3.1556
3.14551
3.13447
3.12253
3.10971
3.09603
3.08152
3.06621
3.05013
3.03331
3.01579
2.99758
2.97872
2.95927
2.93927
2.91876
2.89778
2.87636
2.85454
2.83237
2.80985
2.78702
2.76389
2.74051
2.7169
2.69313
2.66923
2.64525
2.62124
2.59725
2.57332
2.54951
2.52589
2.50254
2.47948
2.4567
2.43321
2.40632
0.00226064
0.00655984
0.0236459
0.0391324
0.0473456
0.0513474
0.0529352
0.0529909
0.0521276
0.0504638
0.0483647
0.0460353
0.0436447
0.0413268
0.0391792
0.0372632
0.0356061
0.0342072
0.0330433
0.0320786
0.0312704
0.0305732
0.0299456
0.0293381
0.0287493
0.0282152
0.0278334
0.0278005
0.0283456
0.0302512
0.0343029
0.0422192
0.0573121
0.0793337
0.104494
0.129555
0.151093
0.166679
0.175573
0.179883
0.183272
0.189407
0.200179
0.216526
0.238224
0.264842
0.295568
0.32953
0.365797
0.403496
0.441984
0.480907
0.520183
0.559853
0.600009
0.640753
0.682187
0.724403
0.767475
0.811438
0.856288
0.902
0.948522
0.995779
1.04369
1.09215
1.14109
1.19043
1.24009
1.29
1.34014
1.39044
1.44088
1.4914
1.54199
1.5926
1.64319
1.69371
1.74413
1.7944
1.84447
1.89431
1.94388
1.99316
2.04211
2.0907
2.13892
2.18673
2.2341
2.28102
2.32745
2.37337
2.41876
2.46359
2.50783
2.55144
2.59441
2.63669
2.67826
2.71908
2.7591
2.7983
2.83664
2.87408
2.91058
2.94612
2.98065
3.01414
3.04656
3.07787
3.10805
3.13706
3.16489
3.1915
3.21688
3.241
3.26385
3.2854
3.30564
3.32456
3.34215
3.35841
3.37331
3.38687
3.39908
3.40994
3.41944
3.4276
3.43441
3.43989
3.44405
3.44691
3.44837
3.44862
3.44763
3.44538
3.4419
3.43722
3.43135
3.42433
3.41618
3.40692
3.39659
3.38522
3.37283
3.35945
3.34511
3.32985
3.31368
3.29664
3.27878
3.26011
3.24067
3.2205
3.19964
3.17813
3.15603
3.13339
3.11024
3.08662
3.06257
3.03813
3.01332
2.98817
2.9627
2.93697
2.911
2.88485
2.85857
2.83221
2.80582
2.77945
2.75316
2.72701
2.70109
2.67548
2.65022
2.62531
2.59983
2.57124
0.00480952
0.0127233
0.0349931
0.0486883
0.0551914
0.0580037
0.0586442
0.0579099
0.0561841
0.0538151
0.0510762
0.0481906
0.0453451
0.042684
0.0403047
0.038259
0.0365583
0.0351858
0.0341009
0.0332475
0.0325691
0.0319972
0.0314855
0.0310981
0.0307999
0.030867
0.031628
0.0336534
0.0379505
0.0460798
0.0591226
0.0769078
0.0975746
0.118997
0.139444
0.156833
0.169691
0.178077
0.183533
0.189044
0.197357
0.210291
0.228316
0.251205
0.278258
0.308697
0.3417
0.376522
0.412514
0.449185
0.486273
0.523719
0.561593
0.600013
0.639107
0.679003
0.719817
0.761647
0.804557
0.848588
0.893756
0.940046
0.98742
1.03582
1.08517
1.13538
1.18638
1.23808
1.2904
1.34327
1.39662
1.45039
1.50451
1.55894
1.61359
1.66843
1.72337
1.77835
1.8333
1.88816
1.94286
1.99735
2.05157
2.10549
2.15907
2.21227
2.26505
2.31739
2.36925
2.4206
2.47141
2.52166
2.57132
2.62035
2.66872
2.7164
2.76336
2.80955
2.85495
2.89951
2.94318
2.98594
3.02774
3.06853
3.10829
3.14697
3.18453
3.22095
3.25617
3.29016
3.3229
3.35435
3.38448
3.41328
3.44071
3.46676
3.4914
3.51461
3.53638
3.5567
3.57555
3.59293
3.60883
3.62325
3.6362
3.64765
3.65763
3.66614
3.67317
3.67875
3.68289
3.68559
3.68682
3.68671
3.68523
3.68238
3.6782
3.67272
3.66595
3.65793
3.64869
3.63826
3.62667
3.61396
3.60015
3.58528
3.56938
3.55248
3.53462
3.51582
3.49614
3.47559
3.45422
3.43206
3.40917
3.38561
3.36142
3.33665
3.31134
3.28554
3.25927
3.23258
3.2055
3.17805
3.15028
3.12222
3.09392
3.06543
3.0368
3.00809
2.97935
2.95064
2.92201
2.89354
2.86532
2.83744
2.80995
2.78287
2.75533
2.72515
0.00736222
0.0208586
0.0451535
0.0571054
0.0625156
0.0645232
0.0644521
0.0629812
0.0605657
0.0575565
0.0542488
0.0508929
0.0476919
0.0447958
0.0422971
0.0402371
0.0386124
0.0373994
0.0365453
0.0359915
0.0357448
0.0357813
0.0362076
0.0371376
0.0387758
0.0415383
0.0461246
0.0537185
0.0643125
0.0777623
0.0935526
0.110839
0.128271
0.144448
0.158297
0.169272
0.177682
0.184886
0.192916
0.203802
0.218772
0.238158
0.261601
0.288466
0.318031
0.349637
0.382709
0.416778
0.45149
0.486642
0.522186
0.558186
0.59477
0.632081
0.670265
0.70946
0.749779
0.791319
0.834155
0.878339
0.923897
0.970831
1.01912
1.06871
1.11954
1.17155
1.22465
1.27876
1.33379
1.38966
1.44629
1.5036
1.56149
1.6199
1.67871
1.73786
1.79724
1.85677
1.91636
1.9759
2.03531
2.09453
2.15349
2.21213
2.27041
2.32827
2.38568
2.44259
2.49898
2.55479
2.61
2.66459
2.71852
2.77175
2.82424
2.87596
2.92687
2.97693
3.0261
3.07434
3.1216
3.16783
3.213
3.25705
3.29995
3.34166
3.38213
3.42133
3.45922
3.49576
3.53091
3.56464
3.59693
3.62774
3.65707
3.68487
3.71114
3.73584
3.75897
3.78051
3.80045
3.81879
3.83552
3.85064
3.86415
3.87604
3.88633
3.89503
3.90213
3.90765
3.91162
3.91403
3.9149
3.9143
3.9122
3.90864
3.90364
3.89724
3.88947
3.88035
3.86993
3.85824
3.84531
3.83118
3.81588
3.79946
3.78195
3.76338
3.74379
3.72321
3.70167
3.67922
3.6559
3.63175
3.60684
3.58123
3.55496
3.52809
3.50066
3.4727
3.44426
3.41536
3.38604
3.35634
3.3263
3.29596
3.26538
3.23461
3.2037
3.17269
3.14166
3.11064
3.07971
3.04895
3.01845
2.98832
2.9586
2.92933
2.89971
2.86777
0.00927504
0.0296453
0.0539986
0.0652144
0.0699833
0.0713657
0.0706925
0.0686048
0.0656007
0.0620751
0.0583572
0.054718
0.0513675
0.0484532
0.0460591
0.0442203
0.0429109
0.0421446
0.0418562
0.0419157
0.0425177
0.0438024
0.0460047
0.0494288
0.0544229
0.061308
0.0701884
0.0806802
0.0927917
0.106112
0.120002
0.133711
0.146526
0.157965
0.167971
0.176997
0.186108
0.196659
0.209897
0.226564
0.246791
0.270259
0.296424
0.324722
0.354644
0.385772
0.417778
0.450422
0.483558
0.517145
0.551236
0.585947
0.621424
0.657824
0.695292
0.733963
0.773957
0.815377
0.858305
0.902804
0.948915
0.996654
1.04601
1.09696
1.14944
1.2034
1.25875
1.31542
1.37331
1.43233
1.49238
1.55337
1.61518
1.67769
1.74079
1.80436
1.86828
1.93245
1.99674
2.06103
2.12521
2.1892
2.25292
2.3163
2.37929
2.44183
2.50385
2.56531
2.62617
2.68638
2.74593
2.80477
2.86287
2.9202
2.9767
3.03233
3.08705
3.14083
3.19362
3.24537
3.29603
3.34555
3.39388
3.44097
3.4868
3.5313
3.57445
3.61619
3.6565
3.69532
3.73262
3.76837
3.80255
3.83512
3.86606
3.89536
3.92298
3.94891
3.97314
3.99564
4.01642
4.03546
4.05276
4.06833
4.08217
4.09427
4.10465
4.11331
4.12027
4.12553
4.12913
4.13108
4.1314
4.13014
4.12726
4.12282
4.11686
4.10941
4.10051
4.09018
4.07848
4.06542
4.05106
4.03543
4.01858
4.00055
3.98137
3.96109
3.93974
3.91736
3.89397
3.86961
3.84434
3.81821
3.7913
3.76366
3.73536
3.70644
3.67693
3.64688
3.61632
3.58528
3.5538
3.52191
3.48968
3.45715
3.42438
3.39141
3.35829
3.32508
3.29182
3.25857
3.22541
3.19243
3.15972
3.12737
3.09546
3.06402
3.03232
2.9986
0.0104031
0.0373106
0.0623124
0.0733154
0.0777113
0.0786917
0.0775327
0.0749361
0.0714892
0.0676548
0.0637999
0.0602036
0.0570608
0.0545012
0.0526052
0.0514593
0.0510151
0.0510693
0.0518432
0.0533623
0.0557398
0.0591017
0.0635892
0.0693086
0.0763121
0.0845689
0.0939441
0.104181
0.115017
0.126109
0.137104
0.147757
0.15797
0.167879
0.177957
0.188941
0.201641
0.216716
0.234526
0.255074
0.278094
0.303191
0.329951
0.358014
0.38709
0.416963
0.447483
0.478561
0.510175
0.542369
0.575245
0.60894
0.643599
0.679376
0.716421
0.754873
0.794853
0.836462
0.879788
0.924905
0.971868
1.02071
1.07143
1.12402
1.17844
1.23465
1.29257
1.3521
1.41315
1.47561
1.53936
1.60429
1.67024
1.73707
1.80461
1.8727
1.94122
2.01004
2.079
2.14799
2.21687
2.28555
2.35395
2.42199
2.48959
2.55669
2.6232
2.68905
2.75421
2.81863
2.8823
2.94519
3.00725
3.06843
3.12868
3.18796
3.24622
3.30341
3.35951
3.41444
3.46816
3.52062
3.57176
3.62153
3.6699
3.71682
3.76225
3.80614
3.84847
3.88917
3.92823
3.9656
4.00125
4.03518
4.06735
4.09774
4.12633
4.15311
4.17805
4.20115
4.22239
4.24179
4.25933
4.27501
4.28885
4.30085
4.31101
4.31935
4.32588
4.33062
4.3336
4.33484
4.3344
4.33227
4.32839
4.32289
4.31579
4.30714
4.29696
4.28529
4.27217
4.25764
4.24176
4.22455
4.20607
4.18636
4.16548
4.14345
4.12033
4.09614
4.07092
4.04466
4.01746
3.9894
3.96054
3.93094
3.90067
3.86977
3.83828
3.80624
3.77366
3.74058
3.70703
3.67306
3.63875
3.60415
3.56931
3.53427
3.49908
3.46378
3.42841
3.39305
3.35777
3.32266
3.28783
3.25336
3.21932
3.18579
3.15207
3.11662
0.0110731
0.043942
0.0705869
0.0816803
0.0858238
0.0865054
0.0849112
0.0818872
0.078152
0.074263
0.0706186
0.0674737
0.0649735
0.0631749
0.0622577
0.0620106
0.0624659
0.0637169
0.0657743
0.0686702
0.0724303
0.0770875
0.0826541
0.089098
0.0963545
0.104317
0.112847
0.121793
0.131039
0.140508
0.150173
0.16011
0.170534
0.181804
0.194361
0.208619
0.224867
0.243224
0.263624
0.285867
0.309684
0.334802
0.360982
0.388042
0.415851
0.444327
0.473435
0.503183
0.533624
0.564847
0.596965
0.630105
0.664413
0.700044
0.737144
0.775854
0.816302
0.85861
0.902858
0.949124
0.997478
1.04796
1.10061
1.1554
1.21232
1.27133
1.33234
1.39526
1.45996
1.52631
1.59415
1.66333
1.73369
1.80501
1.87706
1.94967
2.02267
2.09593
2.16933
2.24274
2.31604
2.38913
2.46192
2.53433
2.60628
2.67766
2.74836
2.81826
2.88734
2.9556
3.02301
3.08954
3.15513
3.21973
3.28328
3.34574
3.40704
3.46715
3.52602
3.58361
3.63985
3.69469
3.74807
3.79995
3.85028
3.89903
3.94615
3.99161
4.03537
4.07738
4.1176
4.15601
4.19259
4.2273
4.26014
4.29109
4.32011
4.34721
4.37236
4.39555
4.41679
4.43606
4.45339
4.46875
4.48218
4.49367
4.50323
4.51087
4.51663
4.52052
4.52257
4.52281
4.52136
4.51803
4.51294
4.50617
4.49774
4.48769
4.47607
4.4629
4.44824
4.43214
4.41463
4.39576
4.37559
4.35416
4.33152
4.30773
4.28283
4.25686
4.22984
4.20173
4.17267
4.14275
4.11204
4.08059
4.04846
4.01569
3.98234
3.94842
3.91398
3.87899
3.84352
3.80763
3.7714
3.73489
3.69815
3.66122
3.62412
3.5869
3.54959
3.51227
3.47502
3.43795
3.40114
3.36469
3.32865
3.29314
3.25749
3.22047
0.0113718
0.0509203
0.0786985
0.0900043
0.0940355
0.0945246
0.0925302
0.0890559
0.0850906
0.0813737
0.0782936
0.075987
0.0744843
0.0737889
0.0736619
0.0743076
0.0757509
0.0779488
0.0808821
0.0845394
0.0889075
0.0939679
0.0996822
0.106008
0.112897
0.120304
0.128198
0.136579
0.145486
0.154996
0.165242
0.176414
0.188729
0.202403
0.217609
0.234435
0.252878
0.272852
0.294216
0.316806
0.340467
0.365042
0.390425
0.416544
0.443365
0.470892
0.499158
0.528224
0.558175
0.589114
0.621163
0.654464
0.689163
0.725418
0.763381
0.803205
0.845051
0.888994
0.935062
0.98337
1.03401
1.08704
1.14248
1.20033
1.26059
1.3232
1.38807
1.45508
1.52408
1.59487
1.66724
1.74098
1.81587
1.89162
1.96799
2.04478
2.12178
2.19886
2.27601
2.35315
2.43025
2.50714
2.58373
2.65994
2.73565
2.81072
2.88499
2.95834
3.0308
3.10233
3.17289
3.24245
3.31094
3.3783
3.44447
3.50939
3.57301
3.63528
3.69618
3.75564
3.81361
3.87003
3.92486
3.97803
4.02952
4.07929
4.1273
4.17352
4.2179
4.26042
4.30103
4.33971
4.37643
4.41119
4.44397
4.47474
4.5035
4.53024
4.55493
4.57758
4.59818
4.61674
4.63326
4.64776
4.66024
4.67071
4.67918
4.68567
4.69021
4.69284
4.69358
4.69254
4.68963
4.68481
4.67823
4.66991
4.6599
4.64824
4.63497
4.62014
4.60378
4.58595
4.56669
4.54606
4.5241
4.50088
4.47644
4.45085
4.42414
4.39637
4.36757
4.33772
4.30694
4.2753
4.24287
4.20971
4.17586
4.14139
4.10633
4.07072
4.03459
3.9979
3.9607
3.92311
3.88519
3.84699
3.80857
3.76995
3.73118
3.69225
3.6532
3.61413
3.57514
3.53631
3.49773
3.45948
3.42162
3.3843
3.34688
3.3085
0.0114012
0.0575838
0.0866787
0.0982388
0.102152
0.102376
0.0998789
0.0961522
0.0924088
0.0892901
0.0870161
0.0856797
0.0851412
0.0851052
0.0857686
0.0871769
0.0892806
0.0920413
0.0954285
0.0994217
0.104005
0.109166
0.114902
0.12122
0.128138
0.135695
0.14395
0.152981
0.162886
0.173782
0.185795
0.199033
0.213571
0.229444
0.246638
0.265103
0.284756
0.305505
0.32726
0.349954
0.373482
0.397773
0.422832
0.448668
0.475316
0.502834
0.531297
0.5608
0.591444
0.623343
0.656624
0.691424
0.727896
0.766201
0.806489
0.848897
0.893545
0.940514
0.989885
1.04173
1.09609
1.15301
1.21249
1.27453
1.33911
1.40615
1.47557
1.54723
1.62095
1.69649
1.77353
1.85165
1.93056
2.01012
2.09017
2.17049
2.2508
2.33106
2.41133
2.49158
2.57165
2.65138
2.73076
2.80987
2.8884
2.96617
3.04306
3.11903
3.194
3.26789
3.34065
3.41225
3.48261
3.55167
3.61936
3.68562
3.7504
3.81368
3.87541
3.93557
3.99408
4.0509
4.10597
4.15925
4.2107
4.2603
4.30803
4.35386
4.39774
4.43964
4.47954
4.5174
4.55322
4.58699
4.6187
4.64834
4.6759
4.70136
4.72472
4.74597
4.76512
4.78218
4.79716