/*--------------------------------*- C++ -*----------------------------------*\
| =========                 |                                                 |
| \\      /  F ield         | OpenFOAM: The Open Source CFD Toolbox           |
|  \\    /   O peration     | Version:  2406                                  |
|   \\  /    A nd           | Website:  www.openfoam.com                      |
|    \\/     M anipulation  |                                                 |
\*---------------------------------------------------------------------------*/
FoamFile
{
    version     2.0;
    format      ascii;
    arch        "LSB;label=32;scalar=64";
    class       volScalarField;
    location    "385";
    object      nut;
}
// * * * * * * * * * * * * * * * * * * * * * * * * * * * * * * * * * * * * * //

dimensions      [0 2 -1 0 0 0 0];

internalField   nonuniform List<scalar> 
12225
(
5.34397e-06
8.11066e-06
1.00039e-05
1.11275e-05
1.16998e-05
1.18829e-05
1.19405e-05
1.18535e-05
1.16979e-05
1.15306e-05
1.13668e-05
1.12069e-05
1.10712e-05
1.09302e-05
1.08373e-05
1.07064e-05
1.06679e-05
1.05442e-05
0.000132085
5.88939e-05
4.33358e-05
3.72864e-05
3.43474e-05
3.31642e-05
3.27148e-05
3.30609e-05
3.36895e-05
3.36716e-05
3.32533e-05
3.34146e-05
3.32894e-05
3.36832e-05
3.37121e-05
3.4272e-05
3.44445e-05
3.52261e-05
0.000605136
0.000303126
0.000207728
0.000159046
0.000132461
0.000113109
0.000101706
9.18283e-05
8.58635e-05
7.89251e-05
7.46055e-05
6.95462e-05
6.66121e-05
6.2956e-05
6.10519e-05
5.83581e-05
5.71974e-05
5.52452e-05
0.000843938
0.000655529
0.000522362
0.00042179
0.000362742
0.000311807
0.000281784
0.000252018
0.000234651
0.00021404
0.000201892
0.000186701
0.00017812
0.000166631
0.000160511
0.000151673
0.000147396
0.000139831
0.000863072
0.00080842
0.000749516
0.000665014
0.000606504
0.000546978
0.000509347
0.000468743
0.000443755
0.000414142
0.000396025
0.000372848
0.000359225
0.000340598
0.00033031
0.000315076
0.00030759
0.000293681
0.000854734
0.000844848
0.000826808
0.000793439
0.000758121
0.000716394
0.000687787
0.000654179
0.000631599
0.00060386
0.000585568
0.000561915
0.000546963
0.00052654
0.000514478
0.000496669
0.000487391
0.000470458
0.000852189
0.000851096
0.000845784
0.000836587
0.00082269
0.000802331
0.00078703
0.000767353
0.000753192
0.000734671
0.000721571
0.000703968
0.000692029
0.000675474
0.000664969
0.0006495
0.000640744
0.000625355
0.000851564
0.000851013
0.00084976
0.000847535
0.000842855
0.000836018
0.000828916
0.000819945
0.000812993
0.000803722
0.000796612
0.000786678
0.000779424
0.000769174
0.000762101
0.000751789
0.000745226
0.000734356
0.000851527
0.000850756
0.000850043
0.000849027
0.000847528
0.000845187
0.000842608
0.000839363
0.000836197
0.000832532
0.000828602
0.000824737
0.00082083
0.000816268
0.000812237
0.000807055
0.000802954
0.000796922
0.00085156
0.000850668
0.000849964
0.000849142
0.000848339
0.000847278
0.000846223
0.000844896
0.000843692
0.000842178
0.000840709
0.000838903
0.0008373
0.000835216
0.000833413
0.000831028
0.000828988
0.000826151
0.000851562
0.000850665
0.000849912
0.000849112
0.000848415
0.00084763
0.000846946
0.000846143
0.00084547
0.00084465
0.000843956
0.000843056
0.000842322
0.00084132
0.00084053
0.000839388
0.000838529
0.00083721
0.000851554
0.000850671
0.00084989
0.000849097
0.000848395
0.000847664
0.000847025
0.000846342
0.000845756
0.00084511
0.000844565
0.000843933
0.00084341
0.000842771
0.000842253
0.00084159
0.000841053
0.000840353
0.000851547
0.000850675
0.000849876
0.00084909
0.000848372
0.000847659
0.000847011
0.000846361
0.000845775
0.000845179
0.000844646
0.000844095
0.000843605
0.00084309
0.000842631
0.000842142
0.000841699
0.000841227
0.000851542
0.000850676
0.000849865
0.000849084
0.000848353
0.000847646
0.000846985
0.000846345
0.000845746
0.000845163
0.000844619
0.000844088
0.000843591
0.000843106
0.00084265
0.000842205
0.000841782
0.000841371
0.000851539
0.000850675
0.000849858
0.000849078
0.000848339
0.000847633
0.000846964
0.000846324
0.000845717
0.000845135
0.000844582
0.000844052
0.000843548
0.000843065
0.000842604
0.000842162
0.000841739
0.000841334
0.000851538
0.000850674
0.000849853
0.000849072
0.00084833
0.000847622
0.000846949
0.000846307
0.000845695
0.00084511
0.000844553
0.00084402
0.000843512
0.000843025
0.00084256
0.000842115
0.000841688
0.000841281
0.000851537
0.000850673
0.000849851
0.000849068
0.000848324
0.000847614
0.000846939
0.000846294
0.00084568
0.000845093
0.000844533
0.000843997
0.000843486
0.000842996
0.000842529
0.00084208
0.000841652
0.000841242
0.000851539
0.000850677
0.000849857
0.000849076
0.000848332
0.000847622
0.000846947
0.000846302
0.000845686
0.000845098
0.000844537
0.000844
0.000843487
0.000842996
0.000842526
0.000842077
0.000841646
0.000841235
0.000851537
0.000850673
0.00084985
0.000849067
0.000848321
0.00084761
0.000846931
0.000846285
0.000845667
0.000845077
0.000844514
0.000843975
0.00084346
0.000842967
0.000842496
0.000842045
0.000841613
0.0008412
0.000851537
0.000850673
0.00084985
0.000849066
0.00084832
0.000847609
0.00084693
0.000846283
0.000845665
0.000845075
0.000844511
0.000843972
0.000843457
0.000842964
0.000842492
0.000842041
0.000841608
0.000841195
0.000851537
0.000850675
0.000849852
0.000849071
0.000848324
0.000847615
0.000846937
0.000846292
0.000845673
0.000845085
0.000844519
0.00084398
0.000843462
0.000842968
0.000842493
0.00084204
0.000841602
0.000841185
0.000851536
0.000850679
0.000849853
0.000849079
0.000848329
0.000847626
0.000846942
0.0008463
0.000845668
0.000845072
0.000844478
0.00084392
0.000843361
0.000842839
0.000842312
0.000841822
0.000841315
0.000840847
0.000851541
0.000850681
0.000849846
0.000849093
0.00084831
0.000847594
0.000846838
0.000846128
0.000845343
0.000844568
0.000843704
0.000842876
0.00084197
0.000841139
0.000840216
0.000839372
0.000838376
0.000837515
0.000851594
0.0008506
0.000849796
0.000848983
0.000847845
0.000846695
0.000845196
0.00084366
0.000841589
0.000839382
0.000836761
0.000834198
0.000831407
0.000828826
0.000826004
0.000823157
0.000820236
0.00081761
0.000851689
0.000849223
0.000848834
0.000846453
0.000842263
0.000837332
0.000831283
0.000824617
0.000816061
0.000807803
0.000798398
0.000790106
0.000781169
0.00077362
0.000765263
0.000758266
0.000750071
0.000743492
0.000846462
0.000829834
0.000834792
0.000820942
0.000800369
0.000780296
0.000756716
0.000734974
0.000711086
0.000690507
0.000669302
0.000652096
0.000634477
0.000620508
0.000605558
0.000593825
0.000580509
0.000570429
0.000757539
0.000766148
0.00073332
0.000680549
0.000624653
0.000578743
0.000535123
0.000500448
0.000467399
0.000442051
0.000417819
0.00039985
0.000382027
0.00036902
0.00035522
0.000345251
0.000333809
0.000325645
0.000429842
0.000450037
0.000388687
0.000327785
0.000280538
0.000247442
0.000220934
0.000201926
0.000185579
0.000173957
0.000163405
0.000156079
0.000148982
0.000144171
0.00013907
0.00013568
0.000131577
0.000128676
0.000114154
0.000107611
8.72436e-05
7.36707e-05
6.49544e-05
5.95151e-05
5.58113e-05
5.35743e-05
5.2025e-05
5.13423e-05
5.09047e-05
5.10351e-05
5.12069e-05
5.16998e-05
5.10447e-05
5.04645e-05
5.00758e-05
4.96846e-05
5.94123e-06
8.0233e-06
9.67939e-06
1.09486e-05
1.18569e-05
1.25085e-05
1.2923e-05
1.32167e-05
1.33529e-05
1.34419e-05
1.34835e-05
1.34734e-05
1.34412e-05
1.33931e-05
1.33385e-05
1.32808e-05
1.32215e-05
1.31621e-05
3.71576e-10
1.3397e-08
3.45031e-08
6.69404e-08
1.06752e-07
1.5394e-07
2.33027e-07
3.63961e-07
5.58712e-07
8.10133e-07
1.07939e-06
1.35073e-06
1.60133e-06
1.82021e-06
2.00524e-06
2.15346e-06
2.26374e-06
2.33907e-06
2.37884e-06
2.37457e-06
2.34886e-06
2.30743e-06
2.21238e-06
2.06189e-06
1.84867e-06
1.56695e-06
1.22205e-06
8.37457e-07
4.68055e-07
1.93149e-07
5.39366e-08
1.62883e-08
1.37419e-08
1.53459e-08
1.79006e-08
2.11429e-08
2.427e-08
2.62532e-08
3.04567e-08
6.37473e-08
1.38111e-07
3.23781e-07
5.56189e-07
7.44472e-07
8.3582e-07
8.21948e-07
7.68978e-07
6.84531e-07
6.00525e-07
5.45943e-07
5.74958e-07
7.39934e-07
8.51599e-07
9.61393e-07
1.16927e-06
1.6539e-06
4.15143e-06
9.49724e-06
1.47848e-05
1.93645e-05
2.32838e-05
2.55886e-05
2.69341e-05
2.81362e-05
2.9261e-05
3.03676e-05
3.14051e-05
3.23605e-05
3.32676e-05
3.41241e-05
3.49456e-05
3.5733e-05
3.64949e-05
3.72331e-05
3.79525e-05
3.86548e-05
3.93415e-05
4.00164e-05
4.06794e-05
4.13334e-05
4.1978e-05
4.26154e-05
4.32452e-05
4.38689e-05
4.44863e-05
4.50984e-05
4.57048e-05
4.6306e-05
4.69019e-05
4.74926e-05
4.80777e-05
4.8657e-05
4.92302e-05
4.97968e-05
5.03565e-05
5.09091e-05
5.1455e-05
5.19952e-05
5.25323e-05
5.30706e-05
5.36169e-05
5.41635e-05
5.47083e-05
5.52553e-05
5.58046e-05
5.63567e-05
5.69122e-05
5.74714e-05
5.80349e-05
5.8603e-05
5.91765e-05
5.97557e-05
6.03414e-05
6.09341e-05
6.15346e-05
6.21436e-05
6.2762e-05
6.33907e-05
6.40307e-05
6.46829e-05
6.53486e-05
6.60289e-05
6.67251e-05
6.74388e-05
6.81712e-05
6.89242e-05
6.97099e-05
7.05293e-05
7.13573e-05
7.22157e-05
7.22217e-05
7.1998e-05
7.17524e-05
7.14923e-05
7.12141e-05
7.09213e-05
7.06134e-05
7.02843e-05
6.99367e-05
6.95751e-05
6.91965e-05
6.88032e-05
6.83945e-05
6.79712e-05
6.75336e-05
6.70823e-05
6.6621e-05
6.61394e-05
6.56569e-05
6.51475e-05
6.46427e-05
6.4108e-05
6.35828e-05
6.3025e-05
6.24822e-05
6.19044e-05
6.13478e-05
6.07535e-05
6.01852e-05
5.95782e-05
5.89977e-05
5.83812e-05
5.77855e-05
5.71655e-05
5.65505e-05
5.59282e-05
5.53031e-05
5.4675e-05
5.40443e-05
5.34112e-05
5.27751e-05
5.2135e-05
5.14897e-05
5.08364e-05
5.01715e-05
4.9489e-05
4.87909e-05
4.82056e-05
4.76857e-05
4.57641e-05
1.81423e-09
7.0086e-09
4.49886e-08
1.3662e-07
3.99364e-07
1.37301e-06
3.18735e-06
5.85622e-06
9.2703e-06
1.27143e-05
1.65066e-05
2.09725e-05
2.44404e-05
2.73089e-05
2.94497e-05
3.06832e-05
3.10832e-05
3.09876e-05
2.98392e-05
2.82452e-05
2.47787e-05
2.06766e-05
1.64316e-05
1.26782e-05
9.56325e-06
7.01213e-06
5.04386e-06
3.55118e-06
2.36843e-06
1.5127e-06
9.06876e-07
5.33059e-07
3.31171e-07
2.236e-07
1.68065e-07
1.42168e-07
1.53938e-07
2.61901e-07
3.2539e-07
2.48814e-06
5.06753e-06
1.1557e-05
1.7971e-05
2.19985e-05
2.3e-05
2.16595e-05
1.94021e-05
1.52817e-05
1.22865e-05
1.16387e-05
1.21968e-05
1.2445e-05
1.1683e-05
1.33719e-05
1.7108e-05
2.2793e-05
3.11229e-05
4.09369e-05
5.09097e-05
6.25963e-05
7.53793e-05
8.94497e-05
0.000104321
0.000119877
0.00013572
0.000151612
0.000167245
0.000182435
0.000197021
0.000210935
0.000224143
0.000236681
0.000248427
0.000259734
0.000270452
0.000280837
0.000290716
0.000300246
0.000309455
0.000318396
0.00032709
0.000335571
0.000343856
0.000351965
0.000359913
0.000367711
0.000375371
0.0003829
0.000390305
0.00039759
0.000404758
0.000411809
0.000418739
0.000425541
0.000432198
0.000438687
0.000444971
0.000450993
0.000456669
0.000461879
0.000466468
0.000470837
0.000475135
0.000479283
0.000483328
0.000487241
0.000491034
0.000494698
0.000498234
0.000501639
0.00050491
0.000508046
0.000511044
0.000513904
0.000516622
0.000519198
0.00052163
0.000523917
0.000526058
0.000528051
0.000529898
0.000531596
0.000533147
0.00053455
0.000535807
0.000536923
0.000537903
0.000538772
0.000539573
0.000540336
0.00054119
0.000541895
0.000542407
0.000542856
0.000543061
0.000543252
0.000543348
0.000543311
0.000543074
0.000542734
0.00054227
0.000541689
0.00054099
0.000540174
0.000539238
0.000538176
0.000536964
0.000535911
0.00053436
0.000533179
0.000531391
0.00053004
0.00052804
0.000526525
0.000524335
0.000522673
0.000520327
0.000518537
0.000516068
0.000514167
0.000511621
0.000509589
0.000507048
0.000504736
0.000502268
0.000499793
0.000497281
0.000494742
0.000492179
0.000489594
0.00048698
0.000484329
0.000481626
0.000478839
0.000475911
0.000472752
0.000469162
0.000464514
0.000458131
0.000440776
2.1746e-09
5.7574e-09
6.50354e-08
3.68428e-07
1.10051e-06
3.00386e-06
6.66698e-06
1.15902e-05
1.78167e-05
2.50274e-05
3.28771e-05
4.10087e-05
4.90275e-05
5.61716e-05
6.20922e-05
6.66443e-05
6.97162e-05
7.17264e-05
7.21931e-05
7.14709e-05
6.86947e-05
6.47846e-05
5.87056e-05
5.10418e-05
4.2394e-05
3.39092e-05
2.58416e-05
1.90295e-05
1.35504e-05
9.41369e-06
6.36932e-06
4.0614e-06
2.61979e-06
1.75076e-06
1.26558e-06
1.05659e-06
9.26799e-07
1.44151e-06
2.06834e-06
9.10404e-06
2.02098e-05
3.81835e-05
5.11193e-05
5.82434e-05
5.86988e-05
5.42968e-05
4.15714e-05
3.01017e-05
2.62022e-05
2.7993e-05
3.1953e-05
3.77977e-05
4.62927e-05
6.01082e-05
7.56832e-05
9.33272e-05
0.000114008
0.000138781
0.000167893
0.000200835
0.000236213
0.000273376
0.000310989
0.00034832
0.000384497
0.000419102
0.000451825
0.000482606
0.000511482
0.000538615
0.000563992
0.000588137
0.000610906
0.000632911
0.000653808
0.000673984
0.000693415
0.000712279
0.000730606
0.000748474
0.000765921
0.000782992
0.000799713
0.000816113
0.000832209
0.000848018
0.000863552
0.000878818
0.000893821
0.000908561
0.000923037
0.000937239
0.000951155
0.000964765
0.000978043
0.000990955
0.00100346
0.00101552
0.00102709
0.00103815
0.00104879
0.00105921
0.00106939
0.00107931
0.00108896
0.00109835
0.00110746
0.00111629
0.00112484
0.0011331
0.00114106
0.00114873
0.00115609
0.00116314
0.00116989
0.00117632
0.00118243
0.00118822
0.0011937
0.00119885
0.00120367
0.00120818
0.00121236
0.00121622
0.00121977
0.00122301
0.00122595
0.00122864
0.00123108
0.0012333
0.00123531
0.001237
0.00123837
0.00123938
0.00123995
0.00124042
0.00124059
0.00124044
0.00123998
0.00123925
0.00123824
0.00123695
0.0012354
0.00123358
0.0012315
0.00122916
0.00122657
0.00122389
0.00122071
0.00121764
0.00121397
0.00121048
0.00120633
0.00120245
0.00119787
0.00119364
0.0011887
0.00118417
0.00117894
0.00117415
0.0011687
0.00116367
0.00115808
0.00115267
0.00114704
0.00114136
0.0011356
0.00112977
0.00112389
0.00111796
0.00111197
0.0011059
0.00109971
0.00109334
0.00108668
0.00107955
0.00107158
0.00106166
0.00104795
0.00101689
2.18867e-09
1.36373e-08
1.92599e-07
8.72673e-07
2.55736e-06
6.93593e-06
1.40105e-05
2.35926e-05
3.53314e-05
4.82477e-05
6.13461e-05
7.39699e-05
8.52937e-05
9.48461e-05
0.000102077
0.000107693
0.000111398
0.000113231
0.000113498
0.00011237
0.000109841
0.000105695
0.000100129
9.34561e-05
8.4513e-05
7.402e-05
6.23474e-05
5.04075e-05
3.92446e-05
2.98304e-05
2.21158e-05
1.62579e-05
1.1613e-05
8.36794e-06
6.12791e-06
4.72242e-06
4.41961e-06
5.98864e-06
1.0572e-05
2.75272e-05
5.015e-05
6.54844e-05
7.33697e-05
7.44453e-05
6.13987e-05
5.22077e-05
5.19119e-05
5.53846e-05
5.98635e-05
6.81949e-05
8.17421e-05
0.000100956
0.000118297
0.000146328
0.00017417
0.000212322
0.000253981
0.000302297
0.000353503
0.000407655
0.000462372
0.000517024
0.000570274
0.000621627
0.000670566
0.000716955
0.000760783
0.00080221
0.000841094
0.00087812
0.000913379
0.000947145
0.000979391
0.00101049
0.00104045
0.0010695
0.00109771
0.00112518
0.00115198
0.00117818
0.00120382
0.00122894
0.00125358
0.00127775
0.00130148
0.00132478
0.00134766
0.00137013
0.0013922
0.00141385
0.00143508
0.00145589
0.00147627
0.00149618
0.00151563
0.00153458
0.00155303
0.00157095
0.00158837
0.00160529
0.0016218
0.00163795
0.00165372
0.00166908
0.00168405
0.0016986
0.00171273
0.00172643
0.0017397
0.00175252
0.00176489
0.00177681
0.00178827
0.00179926
0.00180978
0.00181982
0.00182939
0.00183847
0.00184707
0.00185519
0.00186282
0.00186996
0.00187663
0.00188282
0.00188853
0.00189379
0.0018986
0.00190298
0.00190694
0.00191047
0.00191358
0.00191621
0.00191836
0.00191994
0.00192105
0.00192185
0.00192218
0.00192205
0.00192148
0.00192049
0.00191908
0.00191725
0.00191503
0.0019124
0.0019094
0.001906
0.00190226
0.00189821
0.00189369
0.00188898
0.00188375
0.00187838
0.00187248
0.00186649
0.00185996
0.00185341
0.00184634
0.00183932
0.00183181
0.00182439
0.00181651
0.00180874
0.00180056
0.00179237
0.00178396
0.00177543
0.00176678
0.00175802
0.00174917
0.00174025
0.00173123
0.00172209
0.00171278
0.00170323
0.00169329
0.00168275
0.00167115
0.00165721
0.00163822
0.00160171
2.89817e-09
4.28477e-08
4.40542e-07
1.87183e-06
6.53912e-06
1.61247e-05
3.02971e-05
4.80582e-05
6.74664e-05
8.66343e-05
0.000104136
0.000118937
0.000130104
0.000138723
0.000144665
0.000148242
0.000149957
0.000150123
0.000148975
0.000146673
0.000143323
0.000138595
0.000132978
0.000126531
0.000118342
0.00010857
9.71531e-05
8.43441e-05
7.059e-05
5.73022e-05
4.5484e-05
3.56927e-05
2.77033e-05
2.16302e-05
1.78346e-05
1.46624e-05
1.55654e-05
2.31332e-05
4.22978e-05
7.0076e-05
9.04451e-05
9.36991e-05
8.81554e-05
8.33356e-05
8.20088e-05
8.39245e-05
8.9685e-05
0.000100211
0.000117726
0.000133479
0.000156964
0.000188712
0.000225698
0.000271902
0.000321622
0.000380451
0.000440843
0.000505896
0.000571517
0.000637949
0.000703353
0.000767337
0.000829136
0.000888491
0.00094526
0.000999268
0.00105059
0.00109971
0.00114677
0.00119167
0.0012348
0.00127632
0.00131636
0.00135514
0.00139274
0.00142932
0.00146496
0.00149975
0.00153374
0.00156701
0.00159958
0.0016315
0.0016628
0.0016935
0.00172363
0.00175318
0.00178219
0.00181064
0.00183855
0.00186591
0.00189273
0.001919
0.00194471
0.00196985
0.00199442
0.00201841
0.00204183
0.00206469
0.00208699
0.00210877
0.00213004
0.00215082
0.00217108
0.00219083
0.00221005
0.00222873
0.00224686
0.00226444
0.00228145
0.00229789
0.00231375
0.00232903
0.00234371
0.0023578
0.00237129
0.00238418
0.00239647
0.00240814
0.0024192
0.00242965
0.0024395
0.00244873
0.00245736
0.00246539
0.00247283
0.00247968
0.00248596
0.00249169
0.00249687
0.00250145
0.00250549
0.00250893
0.00251176
0.00251388
0.00251555
0.00251669
0.00251727
0.00251729
0.00251677
0.00251572
0.00251415
0.00251207
0.0025095
0.00250643
0.00250288
0.00249886
0.0024944
0.00248949
0.00248412
0.00247836
0.00247212
0.00246553
0.00245845
0.00245106
0.00244322
0.00243512
0.0024266
0.00241788
0.00240879
0.00239956
0.00238997
0.00238028
0.00237026
0.00236009
0.00234969
0.00233911
0.00232836
0.00231747
0.00230644
0.00229528
0.00228399
0.00227254
0.00226089
0.00224897
0.00223663
0.00222365
0.0022096
0.00219332
0.00217154
0.00213499
2.42438e-09
9.96772e-08
1.01123e-06
4.87399e-06
1.6509e-05
3.57276e-05
5.97376e-05
8.58341e-05
0.000110161
0.000130305
0.00014586
0.000157681
0.000166138
0.000171708
0.000175111
0.000176771
0.000177015
0.000176067
0.000174082
0.000171165
0.000167345
0.000162393
0.000156756
0.000150302
0.000142435
0.000133198
0.000122447
0.000110194
9.65927e-05
8.09585e-05
6.53582e-05
5.17492e-05
4.08167e-05
3.22334e-05
2.76154e-05
2.90947e-05
3.9297e-05
6.3479e-05
8.90456e-05
0.000103818
0.000109424
0.00010995
0.000109661
0.000111871
0.000118908
0.000132205
0.000147682
0.000162398
0.000189705
0.000222375
0.000263793
0.000313513
0.000369692
0.000432906
0.000499198
0.000570348
0.000642147
0.000715808
0.000788907
0.000861358
0.000932187
0.00100111
0.00106783
0.00113174
0.00119329
0.00125302
0.00131001
0.00136488
0.00141771
0.00146861
0.0015178
0.00156541
0.00161158
0.00165644
0.00170011
0.00174268
0.00178423
0.00182483
0.00186454
0.0019034
0.00194146
0.00197874
0.00201528
0.0020511
0.00208621
0.00212063
0.00215437
0.00218745
0.00221986
0.00225162
0.00228272
0.00231317
0.00234297
0.00237211
0.0024006
0.00242844
0.00245564
0.00248221
0.00250817
0.00253352
0.00255827
0.00258241
0.00260593
0.00262883
0.00265111
0.00267274
0.00269372
0.00271405
0.00273371
0.0027527
0.00277102
0.00278866
0.00280562
0.00282188
0.00283746
0.00285234
0.00286653
0.00288002
0.00289281
0.00290491
0.0029163
0.00292701
0.00293703
0.00294637
0.00295504
0.00296303
0.00297037
0.00297708
0.00298318
0.00298855
0.00299329
0.00299738
0.00300075
0.00300337
0.00300554
0.00300705
0.00300793
0.0030082
0.00300787
0.00300694
0.00300543
0.00300335
0.00300072
0.00299754
0.00299382
0.00298958
0.00298483
0.00297957
0.00297382
0.00296759
0.00296087
0.00295369
0.00294603
0.00293796
0.00292943
0.00292053
0.00291123
0.00290162
0.00289166
0.00288143
0.00287088
0.0028601
0.00284901
0.00283769
0.00282611
0.0028143
0.00280228
0.00279008
0.00277771
0.00276517
0.00275248
0.0027396
0.00272651
0.00271315
0.00269938
0.00268501
0.00266965
0.00265231
0.00263011
0.00259566
6.04836e-09
2.54515e-07
2.64006e-06
1.34258e-05
3.62611e-05
6.69245e-05
9.88357e-05
0.000125905
0.000147284
0.000163292
0.000175438
0.000183536
0.000188834
0.000192017
0.000193612
0.000193987
0.000193363
0.000191866
0.000189554
0.000186478
0.00018256
0.000177647
0.000172118
0.000165619
0.000157867
0.000144029
0.000127607
0.000112108
9.71586e-05
8.22912e-05
6.78359e-05
5.54792e-05
4.6963e-05
4.37098e-05
4.93107e-05
6.7721e-05
9.35927e-05
0.000114252
0.000127276
0.00013352
0.000135827
0.000138886
0.000146856
0.000162129
0.00017251
0.00018862
0.000214842
0.000248203
0.000290789
0.00034033
0.000398563
0.000463322
0.000532866
0.000606267
0.000681591
0.000758894
0.000836265
0.000913735
0.000990176
0.00106533
0.00113872
0.00120976
0.00127898
0.00134634
0.00141131
0.00147423
0.00153498
0.00159376
0.00165068
0.00170585
0.0017594
0.00181145
0.0018621
0.00191146
0.00195961
0.00200663
0.00205258
0.00209751
0.00214147
0.0021845
0.00222661
0.00226786
0.00230825
0.00234781
0.00238656
0.00242452
0.00246169
0.0024981
0.00253375
0.00256866
0.00260282
0.00263625
0.00266896
0.00270093
0.00273219
0.00276273
0.00279256
0.00282169
0.0028501
0.00287782
0.00290485
0.00293119
0.00295684
0.00298178
0.00300602
0.00302955
0.00305235
0.00307443
0.00309578
0.0031164
0.00313627
0.00315541
0.0031738
0.00319144
0.00320833
0.00322448
0.00323988
0.00325453
0.00326845
0.00328163
0.00329406
0.00330575
0.0033167
0.00332693
0.00333642
0.0033452
0.00335326
0.00336068
0.0033674
0.00337335
0.00337862
0.0033832
0.003387
0.00339008
0.00339263
0.00339452
0.00339576
0.00339635
0.00339632
0.00339566
0.00339439
0.00339253
0.00339008
0.00338706
0.00338348
0.00337934
0.00337467
0.00336947
0.00336374
0.0033575
0.00335075
0.00334351
0.00333577
0.00332757
0.00331891
0.00330982
0.00330033
0.00329047
0.00328025
0.0032697
0.00325883
0.00324766
0.00323617
0.00322439
0.00321233
0.0032
0.00318743
0.00317464
0.00316164
0.00314846
0.00313508
0.00312151
0.00310771
0.00309365
0.00307924
0.00306431
0.00304858
0.00303122
0.00301005
0.00297889
5.33021e-08
7.13882e-07
6.96415e-06
2.99646e-05
6.57081e-05
0.000103557
0.000136026
0.000161117
0.000179132
0.000191631
0.000198945
0.000202937
0.000204704
0.000205044
0.000204481
0.000203336
0.000201793
0.000199855
0.00019737
0.000194094
0.000189915
0.000184794
0.000178777
0.000171483
0.000154005
0.000137285
0.000121783
0.000106893
9.24413e-05
7.84492e-05
6.68754e-05
6.14488e-05
6.60119e-05
7.75886e-05
9.92774e-05
0.000128461
0.000149763
0.00015914
0.000164626
0.00016913
0.000177427
0.00019186
0.000196352
0.000211993
0.000235794
0.000267804
0.000308577
0.000356968
0.000413495
0.000476682
0.000546323
0.000620026
0.000696489
0.00077484
0.000854103
0.000933847
0.00101318
0.00109179
0.00116921
0.00124464
0.00131861
0.00139115
0.00146161
0.00153018
0.00159677
0.00166148
0.00172432
0.0017854
0.0018448
0.00190261
0.00195892
0.00201383
0.00206742
0.00211976
0.00217091
0.00222094
0.00226987
0.00231775
0.00236461
0.00241047
0.00245536
0.00249929
0.00254229
0.00258437
0.00262557
0.00266589
0.00270535
0.00274397
0.00278176
0.00281873
0.00285491
0.00289029
0.00292489
0.00295871
0.00299177
0.00302406
0.00305558
0.00308632
0.00311631
0.00314555
0.00317407
0.00320185
0.00322888
0.00325518
0.00328073
0.00330552
0.00332955
0.00335282
0.00337532
0.00339705
0.00341801
0.00343819
0.00345759
0.00347621
0.00349405
0.00351111
0.00352739
0.00354289
0.00355762
0.00357156
0.00358474
0.00359715
0.0036088
0.00361969
0.00362982
0.00363922
0.00364788
0.00365589
0.00366313
0.00366961
0.00367538
0.00368046
0.00368472
0.00368832
0.00369131
0.00369361
0.00369524
0.00369621
0.00369653
0.00369622
0.00369529
0.00369374
0.0036916
0.00368887
0.00368556
0.00368169
0.00367727
0.0036723
0.0036668
0.00366078
0.00365423
0.00364716
0.0036396
0.00363154
0.00362302
0.00361405
0.00360467
0.00359489
0.00358473
0.00357422
0.00356336
0.00355217
0.00354065
0.0035288
0.00351664
0.00350419
0.00349147
0.00347849
0.00346529
0.00345186
0.00343823
0.00342438
0.0034103
0.00339599
0.0033815
0.00336663
0.00335114
0.0033344
0.00331468
0.00328744
1.96728e-07
1.76547e-06
1.62304e-05
5.24278e-05
9.65341e-05
0.000135389
0.000165158
0.00018626
0.000200252
0.000208307
0.000212481
0.000213825
0.00021332
0.000211744
0.00020963
0.000207266
0.00020472
0.000201904
0.000198577
0.000194722
0.000190167
0.000184761
0.000178351
0.000161158
0.000145382
0.000131376
0.000118476
0.000107439
9.9479e-05
9.68409e-05
9.98462e-05
9.93958e-05
0.000112043
0.000135231
0.000160377
0.000183056
0.000200258
0.000207039
0.000213865
0.000215856
0.00021988
0.000232951
0.000253748
0.000283067
0.000320737
0.0003663
0.000419442
0.000479362
0.000545754
0.000617262
0.000692743
0.000770499
0.000849676
0.000929629
0.00100976
0.00108961
0.00116874
0.00124641
0.00132267
0.00139809
0.00147166
0.0015436
0.00161377
0.00168221
0.00174893
0.00181397
0.00187738
0.00193923
0.00199958
0.0020585
0.00211607
0.00217236
0.00222744
0.00228136
0.00233417
0.00238591
0.00243658
0.00248619
0.00253478
0.00258234
0.0026289
0.00267445
0.00271902
0.00276261
0.00280527
0.00284699
0.00288782
0.0029278
0.00296691
0.00300515
0.00304252
0.00307906
0.00311476
0.00314964
0.00318372
0.00321698
0.00324946
0.00328115
0.00331207
0.00334223
0.00337163
0.00340025
0.00342811
0.0034552
0.00348151
0.00350704
0.00353179
0.00355576
0.00357894
0.00360133
0.00362293
0.00364373
0.00366374
0.00368296
0.00370138
0.00371901
0.00373586
0.00375191
0.00376718
0.00378166
0.00379537
0.0038083
0.00382046
0.00383186
0.0038425
0.00385239
0.00386156
0.00387007
0.00387777
0.00388474
0.003891
0.00389657
0.00390132
0.00390546
0.00390894
0.00391174
0.00391387
0.00391534
0.00391618
0.00391638
0.00391597
0.00391495
0.00391334
0.00391115
0.00390839
0.00390507
0.0039012
0.00389679
0.00389185
0.00388639
0.0038804
0.0038739
0.00386689
0.0038594
0.00385143
0.00384302
0.00383418
0.00382494
0.00381531
0.00380532
0.00379496
0.00378425
0.0037732
0.0037618
0.00375006
0.00373802
0.00372567
0.00371305
0.00370017
0.00368705
0.00367369
0.0036601
0.00364629
0.00363224
0.00361797
0.00360337
0.00358829
0.00357225
0.00355387
0.00353011
4.17396e-07
3.89386e-06
3.0181e-05
7.86061e-05
0.000126908
0.000165126
0.000191377
0.000207944
0.000217625
0.000221762
0.000221883
0.000219612
0.000216111
0.000212148
0.000208162
0.000204326
0.000200563
0.000196727
0.000192461
0.000187768
0.000182148
0.000175564
0.000163947
0.00014898
0.000135973
0.000126119
0.000120263
0.000113971
0.000109246
0.000112343
0.000124943
0.000144231
0.000165932
0.000187043
0.000205663
0.000219773
0.000227879
0.000233994
0.000240274
0.000251897
0.000269505
0.000295487
0.000329503
0.000371339
0.000420351
0.000475926
0.000537576
0.000604653
0.000676434
0.000751646
0.00082911
0.000907751
0.00098696
0.00106626
0.00114522
0.00122331
0.00130002
0.00137608
0.00145072
0.00152394
0.00159557
0.00166561
0.00173405
0.00180094
0.00186631
0.00193023
0.00199275
0.00205393
0.00211381
0.00217239
0.00222982
0.00228615
0.00234142
0.00239568
0.00244899
0.00250139
0.00255298
0.00260368
0.00265335
0.00270196
0.00274951
0.00279601
0.00284145
0.00288586
0.00292925
0.00297165
0.00301309
0.00305355
0.00309308
0.00313175
0.00316956
0.00320654
0.0032427
0.00327806
0.00331261
0.00334637
0.00337936
0.00341157
0.00344302
0.00347369
0.00350358
0.00353269
0.00356103
0.00358859
0.00361536
0.00364135
0.00366655
0.00369096
0.00371458
0.0037374
0.00375944
0.00378068
0.00380112
0.00382078
0.00383964
0.00385771
0.00387499
0.00389149
0.00390721
0.00392215
0.00393631
0.00394971
0.00396234
0.00397422
0.00398534
0.00399571
0.00400541
0.00401438
0.00402258
0.00403007
0.00403687
0.00404296
0.0040483
0.00405303
0.00405708
0.00406046
0.00406319
0.00406528
0.00406674
0.00406759
0.00406783
0.00406748
0.00406655
0.00406505
0.004063
0.0040604
0.00405727
0.00405361
0.00404942
0.00404473
0.00403952
0.0040338
0.00402759
0.00402089
0.00401372
0.00400612
0.00399809
0.00398966
0.00398084
0.00397165
0.00396209
0.00395217
0.00394188
0.00393124
0.00392025
0.00390893
0.0038973
0.00388536
0.00387315
0.00386067
0.00384794
0.00383496
0.00382174
0.0038083
0.00379464
0.00378072
0.00376645
0.00375147
0.00373465
0.00371469
6.37195e-07
7.62102e-06
4.67337e-05
0.000102161
0.000151228
0.000187735
0.000211543
0.000224668
0.000229673
0.000229332
0.000225733
0.00022036
0.000214231
0.00020799
0.000201945
0.000196246
0.0001904
0.000184802
0.000179024
0.000173056
0.000166816
0.000160257
0.000153017
0.000145245
0.000137672
0.000131522
0.000129138
0.000133687
0.000143425
0.000157397
0.000174293
0.000192343
0.000209738
0.000224745
0.000235892
0.000245176
0.000254929
0.000267223
0.000283663
0.000306559
0.000336744
0.000374527
0.00041914
0.000469995
0.00052647
0.000588079
0.000654374
0.000724721
0.000798261
0.00087391
0.000950722
0.00102797
0.00110517
0.001182
0.00125758
0.0013324
0.00140621
0.00147868
0.00154973
0.00161934
0.00168748
0.00175415
0.00181931
0.00188309
0.0019456
0.00200692
0.00206712
0.0021263
0.00218463
0.00224236
0.00229915
0.00235499
0.00240988
0.00246387
0.002517
0.00256928
0.00262065
0.0026711
0.00272062
0.00276915
0.00281668
0.00286322
0.00290874
0.00295324
0.00299675
0.00303929
0.00308089
0.00312159
0.00316141
0.00320037
0.00323849
0.00327579
0.00331227
0.00334796
0.00338286
0.00341698
0.00345032
0.00348289
0.00351469
0.00354572
0.00357598
0.00360547
0.00363418
0.00366211
0.00368927
0.00371564
0.00374123
0.00376604
0.00379006
0.0038133
0.00383575
0.00385742
0.00387829
0.00389839
0.0039177
0.00393623
0.00395398
0.00397096
0.00398717
0.00400261
0.00401728
0.0040312
0.00404436
0.00405678
0.00406845
0.00407941
0.00408966
0.00409919
0.004108
0.00411611
0.00412353
0.00413026
0.0041363
0.00414171
0.00414644
0.00415052
0.00415396
0.00415678
0.00415899
0.0041606
0.00416162
0.00416207
0.00416196
0.00416129
0.00416008
0.00415835
0.0041561
0.00415334
0.00415008
0.00414631
0.00414205
0.00413728
0.00413202
0.00412629
0.0041201
0.00411348
0.00410645
0.00409902
0.00409121
0.00408303
0.00407448
0.00406556
0.00405627
0.00404661
0.0040366
0.00402624
0.00401555
0.00400455
0.00399325
0.00398167
0.00396981
0.00395768
0.00394531
0.00393271
0.0039199
0.00390687
0.00389358
0.00387977
0.00386444
0.0038478
8.01118e-07
1.32512e-05
6.39285e-05
0.000125448
0.000175424
0.000209229
0.000228756
0.000237199
0.000238136
0.000234316
0.000227739
0.000219808
0.000211434
0.000203189
0.000194958
0.000187456
0.000180201