/*--------------------------------*- C++ -*----------------------------------*\
| =========                 |                                                 |
| \\      /  F ield         | OpenFOAM: The Open Source CFD Toolbox           |
|  \\    /   O peration     | Version:  2406                                  |
|   \\  /    A nd           | Website:  www.openfoam.com                      |
|    \\/     M anipulation  |                                                 |
\*---------------------------------------------------------------------------*/
FoamFile
{
    version     2.0;
    format      ascii;
    arch        "LSB;label=32;scalar=64";
    class       volScalarField;
    location    "385";
    object      omega;
}
// * * * * * * * * * * * * * * * * * * * * * * * * * * * * * * * * * * * * * //

dimensions      [0 0 -1 0 0 0 0];

internalField   nonuniform List<scalar> 
12225
(
37546.7
40213.6
41821.4
42634.7
42936.6
42902.7
42786.2
42545.4
42274.9
42008.9
41759.3
41525.6
41322.8
41127
40979.4
40812.4
40728.5
40578.3
2867.14
6608.66
9271.89
11170
12519.2
13432
14058.1
14483.7
14751
14982.5
15177.3
15414.8
15603.2
15831.4
15979.7
16173.2
16237.8
16359.3
618.566
1232.03
1790.96
2316.57
2749.19
3173.33
3482.58
3802.67
4021.95
4334.17
4552.32
4853.75
5045.67
5320.42
5473.5
5718.24
5825.64
6037.79
443.177
567.403
708.237
869.118
1002.32
1153.59
1264.8
1397.53
1485.92
1609.03
1688.65
1803.88
1872.16
1977.6
2033.3
2127.9
2169.31
2263.55
433.279
459.788
493.271
551.736
600.932
661.058
705.166
760.053
797.236
846.997
879.265
925.669
953.617
996.841
1020.35
1060.25
1078.43
1119.71
437.452
439.892
447.089
462.865
481.58
506.333
524.433
547.933
564.365
586.569
601.475
622.761
636.141
656.519
668.142
687.593
696.898
717.309
438.723
436.629
436.985
439.19
444.17
452.855
459.3
468.572
475.059
484.519
490.962
500.661
506.905
516.682
522.438
532.176
537.068
547.523
439.023
436.648
434.867
433.567
433.678
434.926
436.515
439.148
440.899
443.943
445.981
449.624
451.936
455.999
458.406
462.752
465.059
470.006
439.028
436.766
434.664
432.789
431.298
430.299
429.557
429.215
428.955
428.994
429.276
429.55
429.949
430.7
431.28
432.463
433.192
434.932
439.003
436.801
434.666
432.7
430.855
429.234
427.729
426.445
425.205
424.188
423.241
422.516
421.771
421.306
420.777
420.564
420.255
420.357
438.997
436.796
434.67
432.689
430.782
429.025
427.331
425.789
424.283
422.932
421.606
420.451
419.293
418.324
417.321
416.538
415.677
415.082
438.998
436.787
434.667
432.678
430.766
428.979
427.255
425.652
424.096
422.657
421.253
419.969
418.708
417.569
416.438
415.437
414.43
413.557
438.999
436.781
434.664
432.667
430.758
428.958
427.233
425.608
424.046
422.578
421.162
419.834
418.552
417.351
416.19
415.106
414.055
413.077
439
436.777
434.662
432.658
430.75
428.942
427.218
425.584
424.023
422.543
421.127
419.784
418.498
417.278
416.11
415
413.937
412.928
439.001
436.774
434.659
432.652
430.743
428.931
427.206
425.567
424.005
422.519
421.102
419.753
418.466
417.24
416.068
414.952
413.884
412.867
439.001
436.773
434.656
432.647
430.737
428.922
427.196
425.553
423.989
422.501
421.082
419.73
418.44
417.211
416.037
414.917
413.847
412.827
439.001
436.772
434.655
432.644
430.732
428.915
427.187
425.542
423.976
422.485
421.064
419.71
418.418
417.186
416.01
414.888
413.816
412.794
439
436.769
434.65
432.637
430.723
428.904
427.174
425.527
423.959
422.466
421.043
419.687
418.393
417.159
415.982
414.858
413.785
412.76
439
436.771
434.653
432.64
430.727
428.908
427.178
425.531
423.963
422.469
421.045
419.688
418.394
417.159
415.981
414.857
413.783
412.758
439.001
436.772
434.654
432.643
430.731
428.912
427.183
425.536
423.968
422.475
421.051
419.694
418.4
417.166
415.988
414.863
413.79
412.765
439.001
436.772
434.656
432.645
430.735
428.917
427.189
425.542
423.976
422.483
421.062
419.706
418.414
417.181
416.006
414.883
413.813
412.789
439.002
436.773
434.661
432.649
430.742
428.924
427.201
425.557
423.999
422.512
421.105
419.76
418.489
417.27
416.119
415.014
413.975
412.975
439
436.777
434.673
432.655
430.768
428.96
427.276
425.668
424.186
422.785
421.508
420.29
419.18
418.103
417.133
416.187
415.369
414.541
438.971
436.828
434.711
432.729
431.02
429.433
428.117
426.915
426.056
425.344
424.908
424.518
424.307
424.059
423.99
423.997
424.086
424.086
438.907
437.553
435.216
434.032
433.856
434.191
435.183
436.603
439.095
441.548
444.735
447.449
450.646
453.184
456.295
458.723
461.958
464.331
441.525
447.763
442.495
447.455
456.375
465.631
477.54
489.057
502.717
514.92
528.362
539.476
551.586
561.191
572.186
580.685
591.132
598.792
492.827
484.885
503.601
539.611
584.199
626.853
673.457
715.417
760.479
798.44
838.573
870.145
904.351
929.931
959.579
980.893
1007.97
1026.86
866.429
825.795
951.659
1123.04
1302.54
1466.81
1627.94
1766.1
1902.35
2010.99
2120.3
2201.03
2287.14
2346.21
2416.8
2461.89
2526.21
2569.9
3275.9
3509.53
4373.31
5253.63
6028.13
6674.42
7199.05
7613.1
7944.83
8188.12
8395
8538.23
8675.2
8766.07
8879.51
8951.45
9064.54
9130.1
23148.3
24553.7
25592.1
26333.3
26822.2
27141.2
27312
27410.4
27417.1
27400.5
27360.5
27294.4
27219.7
27139.8
27059.5
26980.6
26903.5
26829.2
11463.3
2514.65
2517.49
2520.7
2524.17
2527.88
2532.63
2539.04
2547.49
2557.78
2568.71
2579.76
2590.21
2599.71
2608.16
2615.47
2621.59
2626.61
2630.48
2632.9
2635.06
2635.84
2635.71
2633.48
2629.26
2622.83
2614.4
2604.74
2595.63
2589.6
2587.96
2589.6
2592.39
2595.34
2598.35
2601.41
2604.49
2607.56
2610.85
2614.62
2620.67
2629.51
2640.32
2649.72
2655.97
2658.83
2660.33
2660.91
2661.52
2663.13
2667.53
2676.49
2683.68
2690.9
2701.46
2721.46
2811.27
3007.3
3212.96
3401.04
3569.49
3721.13
3858.72
3985.36
4103.3
4215.14
4319.3
4415.75
4506.32
4591.44
4672.2
4749.05
4822.68
4893.5
4961.87
5028.1
5092.38
5155.01
5216.06
5275.74
5334.08
5391.22
5447.18
5502.05
5555.82
5608.55
5660.22
5710.88
5760.48
5809.03
5856.51
5902.89
5948.12
5992.19
6035.03
6076.61
6116.93
6155.99
6193.86
6230.72
6266.92
6302.2
6336.42
6369.71
6402.02
6433.34
6463.68
6493
6521.31
6548.59
6574.83
6600.02
6624.16
6647.23
6669.24
6690.18
6710.04
6728.82
6746.53
6763.16
6778.72
6793.21
6806.64
6819.01
6830.32
6840.57
6850.17
6859.14
6866.35
6872.8
6877.45
6881.15
6883.6
6885.17
6886.01
6885.73
6884.76
6882.54
6879.24
6875.18
6870.13
6864.25
6857.48
6849.9
6841.5
6832.37
6822.4
6811.94
6800.38
6788.57
6775.57
6762.48
6748.17
6733.96
6718.51
6703.4
6687.01
6671.22
6654.12
6637.72
6620.06
6603.07
6584.99
6567.22
6548.98
6530.67
6512.21
6493.68
6475.1
6456.47
6437.76
6418.91
6399.84
6380.36
6360.26
6339.15
6317.56
6305.31
6295.73
6191.67
11463.5
2000.85
1057.65
896.962
781.829
658.119
668.476
683.397
676.151
660.069
633.696
607.065
581.873
558.44
539.312
525.02
516.039
511.025
516.14
524.608
566.096
630.365
721.634
828.278
944.865
1061.05
1171.64
1259.23
1326.1
1333.57
1308.61
1236.29
1096.9
930.292
781.733
682.939
604.223
533.158
485.788
454.546
447.419
451.085
465.703
482.959
501.515
523.092
550.599
605.102
683.157
760.37
894.389
1221.03
1660.34
2013.33
2219.38
2344.49
2425.98
2466.67
2475.56
2434.48
2368.47
2294.82
2222.81
2156.85
2098.75
2049.18
2007.81
1974.24
1947.7
1927.26
1912.04
1901.05
1894.75
1890.25
1888.5
1887.73
1889.06
1891.54
1894.97
1899.08
1903.77
1908.87
1914.28
1919.92
1925.71
1931.59
1937.51
1943.42
1949.27
1955.04
1960.69
1966.21
1971.57
1976.79
1981.89
1986.93
1992.02
1997.35
2003.19
2009.99
2018.37
2026.9
2035.04
2043.06
2050.8
2058.35
2065.65
2072.74
2079.59
2086.22
2092.61
2098.77
2104.7
2110.41
2115.88
2121.12
2126.13
2130.91
2135.47
2139.81
2143.92
2147.82
2151.5
2154.97
2158.23
2161.28
2164.14
2166.71
2168.88
2170.59
2171.43
2172.06
2172.42
2172.56
2172.48
2172.29
2171.93
2171.32
2170.45
2169.38
2168.1
2166.62
2164.95
2163.09
2161.07
2158.94
2156.82
2153.5
2151.53
2147.6
2145.45
2141.1
2138.74
2134.04
2131.47
2126.48
2123.73
2118.49
2115.56
2110.16
2106.96
2101.51
2097.76
2092.88
2088.36
2083.66
2078.92
2074.14
2069.33
2064.48
2059.63
2054.77
2049.92
2045.1
2040.41
2035.99
2032.23
2031.55
2032.53
2046.69
11463.5
2046.03
830.487
641.489
680.082
742.582
725.545
682.359
618.962
556.262
499.479
449.669
407.039
373.858
348.08
328.176
313.077
301.909
294.385
289.664
291.363
296.281
310.473
334.928
371.97
420.926
483.558
553.587
628.363
692.648
742.957
768.175
760.162
729.995
669.935
592.049
515.78
436.727
386.18
360.263
365.063
378.536
397.507
414.116
440.015
489.173
609.234
770.856
1018.35
1290.32
1473.34
1608.72
1728.02
1785.03
1788.25
1755.36
1704.6
1635.76
1561.88
1488.79
1425.25
1370.83
1326.52
1290.82
1262.87
1241.25
1224.86
1212.68
1203.89
1197.73
1194.06
1191.71
1190.98
1190.74
1191.69
1193.17
1195.28
1197.74
1200.55
1203.59
1206.83
1210.2
1213.69
1217.24
1220.85
1224.48
1228.11
1231.75
1235.36
1238.95
1242.51
1246.05
1249.57
1253.1
1256.65
1260.25
1263.96
1267.81
1271.85
1276.11
1280.48
1284.71
1288.81
1292.81
1296.67
1300.41
1304.02
1307.51
1310.87
1314.1
1317.2
1320.17
1323.01
1325.72
1328.31
1330.76
1333.08
1335.27
1337.33
1339.26
1341.06
1342.73
1344.27
1345.69
1346.97
1348.11
1349.11
1349.93
1350.55
1350.96
1351.14
1351.19
1351.11
1350.97
1350.74
1350.35
1349.85
1349.22
1348.45
1347.58
1346.58
1345.48
1344.26
1342.93
1341.51
1339.98
1338.36
1336.48
1334.76
1332.62
1330.76
1328.41
1326.42
1323.86
1321.75
1319.02
1316.78
1313.9
1311.53
1308.53
1306.02
1302.92
1300.21
1297.18
1294.21
1291.17
1288.09
1284.98
1281.83
1278.66
1275.49
1272.32
1269.2
1266.15
1263.26
1260.68
1258.66
1258.39
1260.15
1272.23
11463.5
2024.12
967.098
987.176
963.405
877.119
752.039
633.96
535.502
460.031
402.659
357.711
322.684
295.837
275.288
259.472
247.311
238.095
231.359
226.724
224.229
224.38
226.969
231.627
241.948
258.138
282.034
314.445
354.563
397.355
440.89
478.31
507.311
514.077
506.499
483.963
449.495
398.776
391.826
423.114
494.565
550.107
595.574
647.455
731.008
869.62
1056.27
1229.58
1333.27
1398.05
1448.08
1471.65
1449.2
1367.21
1330.15
1263.78
1209.25
1152.7
1105.74
1064.35
1031.22
1004.33
983.529
967.552
955.65
946.962
940.83
936.669
934.41
933.187
932.901
933.292
934.414
935.958
937.949
940.227
942.766
945.489
948.368
951.365
954.454
957.612
960.821
964.065
967.331
970.608
973.887
977.163
980.431
983.689
986.936
990.176
993.412
996.652
999.902
1003.17
1006.47
1009.8
1013.14
1016.49
1019.78
1022.97
1026.06
1029.07
1031.97
1034.78
1037.49
1040.1
1042.6
1045
1047.3
1049.49
1051.58
1053.56
1055.43
1057.19
1058.85
1060.39
1061.83
1063.15
1064.37
1065.47
1066.47
1067.35
1068.11
1068.75
1069.27
1069.65
1069.89
1069.99
1069.96
1069.83
1069.59
1069.27
1068.84
1068.31
1067.68
1066.93
1066.09
1065.14
1064.1
1062.96
1061.73
1060.4
1058.98
1057.48
1055.87
1054.15
1052.4
1050.5
1048.6
1046.54
1044.51
1042.3
1040.14
1037.79
1035.51
1033.04
1030.64
1028.05
1025.55
1022.86
1020.24
1017.5
1014.75
1011.96
1009.13
1006.27
1003.38
1000.47
997.553
994.655
991.797
989.02
986.393
984.035
982.133
981.389
982.386
989.265
11463.6
2190.06
1464.71
1295.38
1054.86
829.987
646.3
515.592
425.243
361.633
315.875
282.813
259.153
241.454
227.788
217.161
208.912
202.562
197.82
194.502
192.49
192.228
193.071
194.944
199.337
206.475
217.345
233.009
254.895
281.642
310.851
339.47
366.246
386.794
395.25
390.69
391.407
416.624
499.108
597.266
664.241
730.282
814.762
921.851
1031.78
1120.6
1186.13
1237.03
1264.02
1267.25
1219.89
1157.79
1111.67
1058.55
1018.73
972.466
937.437
904.16
877.824
855.756
838.662
825.44
815.689
808.712
803.958
801.094
799.724
799.303
799.631
800.742
802.353
804.381
806.755
809.385
812.234
815.246
818.392
821.641
824.972
828.366
831.807
835.281
838.779
842.289
845.804
849.318
852.824
856.319
859.798
863.261
866.706
870.132
873.541
876.932
880.306
883.66
886.99
890.289
893.542
896.737
899.854
902.883
905.825
908.678
911.438
914.105
916.675
919.148
921.521
923.793
925.962
928.028
929.989
931.844
933.591
935.23
936.759
938.178
939.487
940.685
941.77
942.742
943.599
944.34
944.963
945.466
945.845
946.097
946.215
946.223
946.103
945.88
945.55
945.116
944.579
943.935
943.186
942.331
941.372
940.313
939.154
937.897
936.543
935.094
933.55
931.918
930.188
928.368
926.473
924.484
922.434
920.291
918.098
915.81
913.483
911.059
908.606
906.059
903.491
900.831
898.159
895.402
892.634
889.806
886.945
884.045
881.111
878.149
875.166
872.176
869.188
866.216
863.284
860.426
857.703
855.208
853.077
851.731
851.803
855.063
11463.6
2858.42
1862.7
1355.99
956.953
678.453
512.692
406.091
338.441
294.851
265.162
243.718
227.353
214.39
203.945
195.462
188.62
183.227
179.162
176.327
174.677
174.412
175.023
176.599
179.82
184.767
191.962
202.101
216.197
234.58
256.109
278.762
299.551
321.32
344.425
389.477
465.111
582.213
676.144
750.964
825.911
902.819
972.103
1025.08
1067.9
1101.37
1115.93
1107.82
1056.24
1015.52
974.161
933.281
897.573
862.261
833.27
805.54
783.664
764.544
749.611
737.82
729.105
722.908
718.82
716.738
715.979
715.982
717.084
718.826
721.083
723.771
726.772
730.027
733.479
737.086
740.816
744.641
748.54
752.495
756.492
760.518
764.563
768.617
772.672
776.721
780.759
784.779
788.779
792.753
796.698
800.611
804.491
808.335
812.142
815.909
819.633
823.31
826.934
830.496
833.984
837.395
840.721
843.956
847.098
850.147
853.097
855.948
858.696
861.339
863.876
866.303
868.619
870.823
872.912
874.885
876.74
878.477
880.093
881.588
882.962
884.214
885.341
886.344
887.22
887.969
888.59
889.081
889.442
889.664
889.742
889.714
889.556
889.276
888.876
888.359
887.725
886.975
886.11
885.13
884.037
882.833
881.521
880.101
878.576
876.947
875.217
873.388
871.458
869.435
867.322
865.119
862.837
860.472
858.034
855.515
852.93
850.269
847.55
844.76
841.921
839.016
836.07
833.068
830.031
826.949
823.829
820.673
817.485
814.27
811.037
807.797
804.561
801.343
798.162
795.05
792.057
789.255
786.753
784.827
783.881
784.859
11464.1
3559.67
1963.72
1200.64
760.673
529.182
404.553
336.103
293.514
264.585
243.282
226.723
213.303
202.124
192.689
184.746
178.192
172.973
169.052
166.353
164.888
164.716
165.411
167.21
170.34
174.947
181.472
190.506
202.778
218.839
238.887
263.704
297.492
341.406
410.019
518.436
633.581
718.672
790.6
854.961
906.109
943.078
972.376
994.25
1001
982.023
944.337
910.558
875.599
846.008
815.776
787.426
761.978
738.975
719.589
702.657
689.122
678.134
669.874
663.913
660.036
658.129
657.527
657.967
659.477
661.712
664.596
667.946
671.659
675.658
679.872
684.254
688.764
693.372
698.054
702.791
707.568
712.37
717.186
722.006
726.822
731.626
736.412
741.172
745.903
750.6
755.257
759.872
764.44
768.959
773.424
777.834
782.186
786.476
790.702
794.859
798.944
802.95
806.875
810.71
814.447
818.084
821.617
825.044
828.361
831.565
834.654
837.625
840.474
843.199
845.798
848.269
850.61
852.819
854.894
856.833
858.635
860.298
861.819
863.197
864.434
865.53
866.485
867.296
867.964
868.488
868.868
869.089
869.163
869.116
868.925
868.597
868.133
867.536
866.806
865.94
864.941
863.812
862.557
861.178
859.676
858.055
856.316
854.461
852.494
850.416
848.23
845.94
843.549
841.062
838.484
835.818
833.068
830.234
827.322
824.335
821.279
818.154
814.969
811.724
808.429
805.083
801.696
798.267
794.799
791.295
787.761
784.203
780.628
777.049
773.474
769.919
766.4
762.942
759.591
756.4
753.448
750.924
749.028
748.325
11470.8
3808.47
1781.38
943.75
586.937
426.612
345.202
297.867
267.399
245.917
229.776
216.732
205.636
195.931
187.403
179.996
173.707
168.599
164.781
162.37
161.349
161.639
163.085
165.923
170.148
175.801
183.53
194.271
208.966
229.552
258.716
301.079
364.146
460.221
565.843
653.111
724.693
786.172
834.21
869.414
895.777
908.297
910.307
886.475
857.581
829.642
802.152
778.008
754.416
732.365
710.509
690.656
673.14
657.962
645.295
634.871
626.798
620.791
616.724
614.647
613.969
614.407
616.032
618.552
621.837
625.714
630.073
634.801
639.815
645.05
650.45
655.975
661.591
667.273
673
678.756
684.528
690.302
696.067
701.815
707.537
713.226
718.875
724.478
730.032
735.53
740.968
746.345
751.654
756.891
762.053
767.138
772.142
777.063
781.896
786.64
791.291
795.85
800.308
804.655
808.887
812.999
816.989
820.853
824.589
828.193
831.663
834.996
838.187
841.236
844.139
846.894
849.5
851.954
854.255
856.401
858.39
860.221
861.893
863.407
864.759
865.952
866.983
867.852
868.56
869.106
869.489
869.692
869.744
869.647
869.391
868.979
868.415
867.7
866.835
865.824
864.667
863.366
861.925
860.346
858.631
856.784
854.807
852.703
850.474
848.125
845.657
843.075
840.382
837.583
834.685
831.691
828.605
825.428
822.167
818.824
815.408
811.92
808.367
804.752
801.082
797.362
793.598
789.791
785.945
782.065
778.155
774.222
770.276
766.325
762.383
758.46
754.572
750.74
746.972
743.335
739.891
736.773
734.07
731.974
11491.2
3715.64
1456.88
746.405
490.455
379.257
320.512
284.5
260.31
242.257
227.618
215.295
204.598
195.173
186.897
179.784
173.926
169.423
166.4
164.74
164.437
165.475
167.903
172.017
178.223
186.629
198.7
216.349
241.99
281.416
343.557
424.759
511.52
586.654
651.551
707.732
754.49
792.218
820.949
833.343
833.508
813.074
788.888
764.928
742.739
723.02
704.669
687.434
670.26
653.688
638.02
624.149
612.213
602.233
594.212
588.055
583.693
581.191
580.248
580.389
581.85
584.347
587.767
591.947
596.759
602.081
607.812
613.867
620.172
626.673
633.315
640.06
646.876
653.735
660.616
667.501
674.384
681.248
688.08
694.871
701.613
708.298
714.921
721.475
727.955
734.355
740.669
746.885
753.007
759.038
764.974
770.812
776.549
782.181
787.705
793.117
798.413
803.588
808.636
813.551
818.33
822.969
827.464
831.812
836.011
840.057
843.947
847.678
851.246
854.649
857.884
860.948
863.841
866.559
869.102
871.468
873.654
875.66
877.485
879.127
880.587
881.864
882.959
883.871
884.6
885.147
885.507
885.667
885.667
885.489
885.132
884.601
883.898
883.026
881.986
880.78
879.412
877.884
876.199
874.36
872.37
870.233
867.952
865.53
862.972
860.28
857.458
854.51
851.44
848.254
844.958
841.558
838.056
834.457
830.766
826.989
823.132
819.2
815.199
811.134
807.01
802.834
798.611
794.346
790.041
785.702
781.336
776.949
772.55
768.151
763.761
759.392
755.058
750.779
746.576
742.494
738.575
734.917
731.548
728.374
11522.7
3267.52
1159.44
619.396
434.892
351.27
306.433
278.488
258.17
242.67
230.194
219.435
209.823
201.199
193.622
187.245
182.279
178.856
177.183
177.067
178.805
182.254
188.175
197.666
211.366
229.856
256.319
295.28
347.387
410.169
473.198
533.228
588.04
636.201
678.022
713.611
744.656
761.031
763.848
750.48
732.295
711.675
692.91
676.484
661.965
648.623
635.63
622.708
609.836
597.602
586.5
576.941
569.013
562.727
558.065
555.054
553.698
553.492
554.593
556.838
560.149
564.385
569.428
575.155
581.45
588.211
595.349
602.787
610.462
618.335
626.336
634.423
642.564
650.727
658.883
667.001
675.041
683.014
690.939
698.812
706.621
714.358
722.016
729.59
737.072
744.456
751.738
758.916
765.982
772.922
779.732
786.411
792.955
799.361
805.625
811.745
817.716
823.535
829.199
834.706
840.051
845.231
850.242
855.081
859.745
864.232
868.537
872.658
876.591
880.334
883.882
887.235
890.391
893.347
896.103
898.657
901.007
903.152
905.091
906.824
908.35
909.669
910.782
911.69
912.393
912.892
913.174
913.252
913.137
912.824
912.312
911.605
910.707
909.619
908.345
906.888
905.25
903.435
901.446
899.288
896.963
894.476
891.83
889.031
886.081
882.986
879.749
876.376
872.869
869.236
865.483
861.615
857.639
853.558
849.379
845.11
840.757
836.325
831.82
827.248
822.614
817.927
813.19
808.41
803.59
798.739
793.862
788.968
784.065
779.163
774.273
769.406
764.575
759.798
755.096
750.502
746.047
741.806
737.775
733.613
11554.1
2736.99
966.186
558.977
413.387
343.693
304.675
280.33
263.704
250.975
240.323
230.953
222.619
215.375
209.448
205.034
202.796
202.375
204.137
207.976
214.276
223.275
236.625
255.689
281.653
315.828
357.174
401.822
448.405
494.052
536.756
576.259
611.577
642.719
671.056
690.408
696.986
691.878
680.09
664.805
649.667
635.889
624.137
613.764
604.082
594.541
584.848
575.087
565.591
556.857
549.252
542.999
538.169
534.757
532.979
532.467
533.193
535.153
538.259
542.406
547.502
553.447
560.166
567.53
575.424
583.757
592.444
601.401
610.536
619.734
629.055
638.474
647.954
657.46
666.951
676.4
685.8
695.133
704.381
713.54
722.592
731.53
740.351
749.051
757.622
766.057
774.347
782.485
790.462
798.279
805.932
813.42
820.741
827.891
834.867
841.667
848.288
854.728
860.985
867.055
872.934
878.619
884.105
889.391
894.473
899.349
904.015
908.47
912.708
916.728
920.526
924.101
927.451
930.575
933.472
936.142
938.581
940.79
942.767
944.512
946.026
947.309
948.362
949.186
949.783
950.149
950.282
950.193
949.884
949.356
948.609
947.647
946.475
945.094
943.509
941.722
939.739
937.561
935.194
932.642
929.909
927
923.919
920.671
917.261
913.694
909.975
906.109
902.101
897.956
893.683
889.286
884.773
880.15
875.426
870.607
865.702
860.715
855.653
850.52
845.324
840.071
834.768
829.42
824.035
818.621
813.184
807.733
802.277
796.825
791.387
785.974
780.6
775.279
770.034
764.888
759.866
755.027
750.356
745.301
11577.6
2237.18
844.672
519.854
398.939
341.089
309.03
289.229
275.475
264.92
256.246
248.936
242.948
238.463
236.252
235.897
238.128
243.066
250.152
259.269
271.638
288.476
309.921
335.771
365.36
397.617
431.113
464.456
496.879
527.619
555.675
581.546
605.838
625.036
633.509
634.515
628.846
619.935
609.39
599.036
589.872
581.872
574.743
567.958
561.15
554.146
546.994
539.952
533.387
527.668
523.05
519.646
517.687
517.008
517.506
519.311
522.386
526.602
531.855
538.053
545.098
552.867
561.173
570.02
579.406
589.262
599.503
610.052
620.85
631.876
643.027
654.245
665.482
676.708
687.848
698.856
709.714
720.402
730.907
741.228
751.389
761.401
771.268
780.99
790.558
799.96
809.184
818.216
827.051
835.686
844.12
852.351
860.378
868.199
875.809
883.207
890.392
897.363
904.117
910.653
916.965
923.049
928.903
934.524
939.91
945.059
949.969
954.638
959.061
963.236
967.161
970.834
974.254
977.422
980.336
982.996
985.401
987.55
989.441
991.077
992.458
993.583
994.456
995.079
995.45
995.573
995.444
995.072
994.457
993.605
992.515
991.194
989.643
987.867
985.871
983.657
981.231
978.598
975.761
972.725
969.496
966.078
962.477
958.699
954.748
950.631
946.354
941.922
937.34
932.615
927.754
922.762
917.648
912.423
907.094
901.669
896.155
890.559
884.886
879.141
873.331
867.462
861.542
855.578
849.58
843.556
837.514
831.463
825.409
819.363
813.333
807.331
801.371
795.467
789.639
783.908
778.29
772.834
767.535
761.649
11591.2
2027.87
815.734
513.499
400.044
347.835
319.893
302.909
291.431
283.054
276.761
272.168
269.608
268.862
270.212
274.164
280.594
289.256
299.981
313.454
329.771
348.7
369.842
392.631
416.45
440.661
464.651
487.698
509.262
529.904
549.945
566.877
576.157
579.116
578.692
575.38
569.882
563.759
557.756
552.328
547.507
543.06
538.738
534.326
529.744
525.048
520.428
516.165
512.567
509.974
508.732
508.474
509.378
511.449
514.623
518.846
523.907
530.001
537.155
545.285
554.3
564.111
574.676
585.885
597.631
609.834
622.389
635.205
648.212
661.375
674.591
687.761
700.826
713.687
726.296
738.624
750.655
762.388
773.84
785.048
796.06
806.9
817.584
828.119
838.493
848.682
858.663
868.412
877.921
887.191
896.222
905.014
913.563
921.867
929.923
937.728
945.283
952.588
959.642
966.443
972.987
979.269
985.288
991.04
996.527
1001.75
1006.7
1011.38
1015.78
1019.91
1023.77
1027.34
1030.64
1033.65
1036.39
1038.86
1041.04
1042.95
1044.58
1045.92
1047
1047.8
1048.32
1048.58
1048.56
1048.29
1047.74
1046.93
1045.87
1044.55
1042.98
1041.16
1039.1
1036.8
1034.26
1031.5
1028.52
1025.31
1021.89
1018.27
1014.44
1010.41
1006.19
1001.79
997.203
992.447
987.526
982.446
977.212
971.832
966.311
960.653
954.874
948.984
942.991
936.903
930.726
924.467
918.13
911.722
905.249
898.715
892.13
885.504
878.849
872.174
865.487
858.795
852.105
845.425
838.764
832.135
825.552
819.03
812.586
806.24
800.001
793.91
787.987
781.323
11599.8
1955.93
784.339
507.345
405.817
359.015
334.287
319.491
309.817
303.307
299.373
297.709
297.561
299.676
303.947
310.286
318.551
328.619
340.587
354.358
369.543
385.851
402.92
420.299
437.625
454.511
470.829
486.958
502.86
516.262
525.096
529.685
531.56
532.114
531.432
529.644
527.409
525.188
523.137
521.285
519.57
517.925
516.375
514.852
513.295
511.828
510.624
509.964
509.826
510.302
511.337
513.396
516.643
521.11
526.783
533.68
541.916
551.508
562.25
573.936
586.445
599.672
613.534
627.909
642.691
657.846
673.183
688.566
703.881
719.005
733.872
748.473
762.868
776.924
790.516
803.599
816.163
828.236
839.892
851.243
862.431
873.483
884.418
895.261
905.984
916.538
926.872
936.931
946.717
956.236
965.485
974.464
983.166
991.59
999.729
1007.58
1015.15
1022.44
1029.44
1036.16
1042.59
1048.73
1054.58
1060.13
1065.39
1070.36
1075.03
1079.41
1083.49
1087.28
1090.76
1093.95
1096.83
1099.42
1101.71
1103.71
1105.42
1106.83
1107.94
1108.76
1109.3
1109.53
1109.49
1109.17
1108.55
1107.67
1106.5
1105.07
1103.37
1101.4
1099.17
1096.69
1093.95
1090.97
1087.75
1084.29
1080.6
1076.69
1072.56
1068.21
1063.66
1058.91
1053.96
1048.82
1043.51
1038.01
1032.35
1026.53
1020.56
1014.44
1008.19
1001.79
995.285
988.669
981.954
975.147
968.251
961.275
954.224
947.103
939.92
932.675
925.381
918.054
910.706
903.343
895.975
888.607
881.246
873.898
866.572
859.283
852.048
844.878
837.792
830.806
823.931
817.194
810.655
803.257
11603.3
1910.57
780.418
513.492
417.153
373.764
351.234
337.679
328.922
323.637
321.235
320.685
322.251
325.95
331.356
338.293
346.605
356.17
366.842
378.408
390.617
403.226
415.971
428.629
441.024
453.016
464.273
474.016
481.602
487.466
492.295
495.966
498.97
501.781
504.193
506.282
508.197
510.019
511.77
513.457
515.064
516.476
517.491
518.292
519.276
520.623
522.505
525.1
528.502
532.889
538.483
545.268
553.314
562.634
573.196
585.014
598.2
612.835
628.582
645.033
662.025
679.432
697.142
715.036
732.982
750.81
768.484
785.918
803.001
819.619
835.665
851.072
865.821
879.803
892.979
905.36
916.931
927.751
938.016
947.967
958.071
968.195
978.326
988.571
998.826
1008.98
1018.94
1028.67
1038.14
1047.33
1056.24
1064.86
1073.18
1081.2
1088.9
1096.28
1103.35
1110.1
1116.55
1122.69
1128.53
1134.05
1139.25
1144.13
1148.71
1152.97
1156.92
1160.56
1163.9
1166.92
1169.63
1172.03
1174.11
1175.89
1177.36
1178.53
1179.41
1179.97
1180.23
1180.19
1179.88
1179.24
1178.32
1177.12
1175.63
1173.86
1171.81
1169.49
1166.9
1164.04
1160.92
1157.54
1153.91
1150.03
1145.92
1141.56
1136.98
1132.18
1127.16
1121.92
1116.48
1110.84
1105.01
1098.99
1092.8
1086.43
1079.9
1073.21
1066.38
1059.41
1052.32
1045.12
1037.82
1030.43
1022.94
1015.35
1007.69
999.94
992.123
984.242
976.304
968.308
960.271
952.211
944.139
936.059
927.98
919.908
911.847
903.802
895.783
887.811
879.902
872.07
864.328
856.692
849.171
841.783
834.633
826.543
11604.2
1882.64
778.109
523.123
431.087
389.328
368.018
355.247
346.949
342.342
340.464
340.209
342.27
346.128
351.352
357.683
364.938
373.015
381.78
391.1
400.852
410.946
421.339
431.498
441.192
450.088
458.556
466.452
473.755
480.63
487.178
493.33
499.012
503.984
508.777
513.453
518.079
522.706
527.38
532.171
537.171
542.353
547.897
553.931
560.544
567.874
576.033
585.11
595.196
606.396
618.822
632.483
647.454
663.68
680.869
698.857
717.47
736.342
755.378
774.66
794.124
813.68
833.232
852.685
871.936
890.88
909.435
927.525
945.067
961.963
978.089
993.229
1007.2
1020.13
1032.18
1043.43
1053.94
1063.74
1072.88
1081.5
1089.82
1097.94
1106.1
1114.9
1123.87
1132.77
1141.5
1150.03
1158.31
1166.31
1174
1181.4
1188.47
1195.23
1201.64
1207.72
1213.47
1218.89
1224
1228.8
1233.29
1237.45
1241.29
1244.81
1248.01
1250.9
1253.49
1255.78
1257.75
1259.43
1260.8
1261.86
1262.61
1263.06
1263.21
1263.09
1262.69
1261.97
1260.96
1259.66
1258.08
1256.21
1254.06
1251.64
1248.95
1245.99
1242.77
1239.28
1235.54
1231.54
1227.29
1222.79
1218.05
1213.08
1207.88
1202.46
1196.81
1190.96
1184.9
1178.64
1172.19
1165.54
1158.72
1151.71
1144.54
1137.21
1129.72
1122.09
1114.32
1106.42
1098.4
1090.31
1082.12
1073.84
1065.47
1057.01
1048.47
1039.85
1031.18
1022.44
1013.66
1004.86
996.046
987.22
978.388
969.554
960.726
951.911
943.116
934.344
925.609
916.935
908.336
899.824
891.411
883.11
874.931
866.883
859.121
850.375
11600.8
1865.95
781.739
533.763
443.591
403.237
382.875
370.444
362.424
358.23
356.595
356.441
358.597
362.344
367.397
373.536
380.634
388.653
397.312
406.53
416.178
425.879
435.489
445.176
454.986
465.145
475.376
485.561
495.693
505.867
516.101
526.37
536.723
547.342
558.117
569.072
580.241
591.638
603.294
615.244
627.484
640.163
653.436
667.391
682.084
697.624
714.01
731.197
749.153
767.865
787.346
807.735
828.582
849.523
870.58
891.646
912.573
933.183
953.375
973.128
992.409
1011.18
1029.42
1047.09
1064.15
1080.58
1096.37
1111.5
1125.97
1139.75
1152.84
1165.24
1176.81
1187.55
1197.66
1207.23
1216.3
1224.82
1232.79
1240.22
1246.89
1253.24
1259.82
1266.66
1273.4
1279.94
1286.21
1292.22
1297.95
1303.4
1308.57
1313.46
1318.05
1322.34
1326.32
1329.99
1333.37
1336.46
1339.28
1341.83
1344.11
1346.11
1347.81
1349.24
1350.39
1351.28
1351.91
1352.28
1352.36
1352.22
1351.81
1351.1
1350.14
1348.92
1347.45
1345.72
1343.75
1341.52
1339.03
1336.29
1333.29
1330.05
1326.56
1322.83
1318.87
1314.66
1310.23
1305.56
1300.66
1295.54
1290.18
1284.61
1278.83
1272.83
1266.63
1260.23
1253.64
1246.86
1239.89
1232.73
1225.4
1217.9
1210.23
1202.39
1194.41
1186.27
1177.99
1169.58
1161.03
1152.35
1143.56
1134.66
1125.65
1116.56
1107.36
1098.08
1088.73
1079.3
1069.81
1060.27
1050.68
1041.08
1031.48
1021.88
1012.27
1002.66
993.059
983.479
973.929
964.43
955.001
945.648
936.378
927.204
918.134
909.186
900.369
891.685
883.33
873.999
11594.7
1855.55
787.279
540.975
453.225
415.658
396.602
385.123
378.163
375.039
374.117
375.247
378.867
384.264
391.17
399.466
409.073
419.158
430.049
442.011
454.95
468.311
482.415
497.512
513.697
531.014
549.186
568.163
587.889
608.227
629.04
650.238
671.805
693.773
716.007
738.567
761.556
784.775
808.119
831.504
854.887
878.317
901.848
925.53
949.471
974.165
999.253
1024.28
1048.98
1073.18
1096.71
1119.1
1140.38
1160.62
1179.82
1198.02
1215.19
1231.33
1246.43
1260.53
1273.67
1285.9
1297.26
1307.83
1317.61
1326.65
1335
1342.7
1349.8
1356.35
1362.42
1368.26
1373.99
1379.58
1384.92
1389.93
1394.54
1398.56
1402.31
1405.98
1409.66
1413.79
1418.05
1421.59
1424.66
1427.41
1429.9
1432.18
1434.25
1436.13
1437.81
1439.28
1440.53
1441.56