/*--------------------------------*- C++ -*----------------------------------*\
| =========                 |                                                 |
| \\      /  F ield         | OpenFOAM: The Open Source CFD Toolbox           |
|  \\    /   O peration     | Version:  2406                                  |
|   \\  /    A nd           | Website:  www.openfoam.com                      |
|    \\/     M anipulation  |                                                 |
\*---------------------------------------------------------------------------*/
FoamFile
{
    version     2.0;
    format      ascii;
    arch        "LSB;label=32;scalar=64";
    class       volScalarField;
    location    "385";
    object      p;
}
// * * * * * * * * * * * * * * * * * * * * * * * * * * * * * * * * * * * * * //

dimensions      [0 2 -2 0 0 0 0];

internalField   nonuniform List<scalar> 
12225
(
-4.32381
-5.1841
-5.56284
-5.67491
-5.79129
-5.93366
-6.06243
-6.16874
-6.26031
-6.34408
-6.42484
-6.50406
-6.58254
-6.66207
-6.74507
-6.83618
-6.93774
-7.06388
-4.60073
-5.23746
-5.55504
-5.66257
-5.77561
-5.91372
-6.04019
-6.14609
-6.23894
-6.32526
-6.40779
-6.48773
-6.56622
-6.64507
-6.72634
-6.81312
-6.90327
-6.99136
-4.80424
-5.23473
-5.53126
-5.66141
-5.77979
-5.9146
-6.03834
-6.14272
-6.23495
-6.321
-6.4026
-6.48107
-6.55769
-6.63406
-6.71135
-6.7906
-6.86657
-6.92855
-4.94214
-5.25718
-5.53919
-5.67899
-5.79267
-5.91834
-6.03635
-6.1378
-6.22829
-6.31278
-6.39301
-6.47008
-6.54513
-6.61917
-6.69264
-6.76507
-6.83121
-6.8829
-5.05757
-5.29921
-5.55403
-5.69433
-5.80402
-5.92291
-6.03653
-6.13574
-6.2247
-6.30775
-6.38665
-6.46219
-6.53529
-6.60649
-6.67579
-6.74201
-6.80093
-6.8465
-5.16151
-5.34515
-5.56751
-5.70658
-5.81465
-5.92816
-6.03753
-6.1344
-6.22169
-6.30323
-6.38059
-6.45437
-6.52522
-6.59343
-6.65869
-6.7196
-6.77295
-6.81427
-5.2552
-5.39289
-5.58341
-5.71905
-5.82525
-5.93327
-6.03808
-6.13239
-6.2179
-6.29781
-6.37349
-6.44539
-6.51395
-6.57924
-6.64081
-6.69729
-6.74635
-6.78493
-5.33928
-5.44242
-5.60363
-5.73286
-5.83616
-5.93851
-6.03851
-6.12998
-6.21345
-6.2915
-6.3653
-6.43519
-6.50138
-6.56384
-6.62204
-6.67484
-6.72064
-6.75743
-5.41477
-5.49264
-5.62768
-5.74815
-5.84761
-5.94435
-6.03936
-6.1276
-6.20873
-6.28464
-6.35632
-6.42401
-6.48777
-6.54748
-6.60264
-6.65239
-6.69567
-6.73122
-5.48267
-5.5422
-5.65456
-5.76485
-5.85967
-5.95093
-6.04083
-6.1255
-6.20396
-6.27748
-6.34684
-6.41219
-6.47348
-6.53055
-6.58298
-6.63015
-6.67143
-6.70604
-5.54386
-5.59
-5.68326
-5.78277
-5.87224
-5.95813
-6.04291
-6.12373
-6.19928
-6.2702
-6.33709
-6.4
-6.45882
-6.51337
-6.56335
-6.60832
-6.64795
-6.68179
-5.59451
-5.63167
-5.7104
-5.80004
-5.88409
-5.96515
-6.04528
-6.12241
-6.19508
-6.26349
-6.328
-6.38863
-6.44522
-6.4976
-6.54554
-6.58876
-6.62711
-6.66031
-5.63997
-5.67057
-5.73719
-5.81747
-5.89594
-5.97229
-6.0479
-6.1213
-6.19101
-6.25684
-6.31896
-6.37731
-6.43175
-6.48209
-6.52818
-6.56984
-6.60707
-6.63969
-5.68628
-5.71134
-5.76681
-5.83731
-5.90935
-5.98042
-6.05106
-6.12021
-6.18646
-6.24929
-6.30865
-6.36444
-6.41651
-6.46468
-6.50885
-6.54895
-6.58503
-6.61704
-5.7317
-5.75214
-5.79791
-5.85883
-5.92382
-5.98916
-6.05452
-6.119
-6.18133
-6.24077
-6.29707
-6.35006
-6.39959
-6.4455
-6.48773
-6.52627
-6.56122
-6.59258
-5.77373
-5.79044
-5.82823
-5.88041
-5.93825
-5.99768
-6.05766
-6.11728
-6.17541
-6.23119
-6.28423
-6.33429
-6.3812
-6.42483
-6.46515
-6.50216
-6.53599
-6.56667
-5.80877
-5.82265
-5.85434
-5.89927
-5.95058
-6.0044
-6.05926
-6.1142
-6.16815
-6.22027
-6.27005
-6.31721
-6.36157
-6.40302
-6.44152
-6.4771
-6.50987
-6.53988
-5.8315
-5.84352
-5.87118
-5.91106
-5.95744
-6.00673
-6.05738
-6.10836
-6.1587
-6.20757
-6.25444
-6.29901
-6.3411
-6.38061
-6.41752
-6.45184
-6.48367
-6.51307
-5.83356
-5.84492
-5.87122
-5.90923
-5.95343
-6.00037
-6.04859
-6.09718
-6.14521
-6.19189
-6.23673
-6.27946
-6.31993
-6.35805
-6.39382
-6.42727
-6.45846
-6.48752
-5.80748
-5.82024
-5.84936
-5.89036
-5.93661
-5.98464
-6.03343
-6.08228
-6.13029
-6.1767
-6.22111
-6.26335
-6.30332
-6.34099
-6.37636
-6.4095
-6.44049
-6.46947
-5.76852
-5.784
-5.81881
-5.86578
-5.91626
-5.96704
-6.01795
-6.0685
-6.11769
-6.16482
-6.20964
-6.25211
-6.29218
-6.32987
-6.36524
-6.39839
-6.42942
-6.45849
-5.7177
-5.73804
-5.78236
-5.83823
-5.89426
-5.94865
-6.00265
-6.05579
-6.1068
-6.15511
-6.20075
-6.24378
-6.28423
-6.32215
-6.35767
-6.39094
-6.42208
-6.45131
-5.65669
-5.68517
-5.74377
-5.81081
-5.87263
-5.93093
-5.98867
-6.04483
-6.09785
-6.14752
-6.19414
-6.23789
-6.27881
-6.31701
-6.3527
-6.38609
-6.41735
-6.4467
-5.58583
-5.62788
-5.70672
-5.78583
-5.85243
-5.91475
-5.97675
-6.03605
-6.09097
-6.14193
-6.18956
-6.234
-6.27535
-6.31379
-6.34961
-6.38306
-6.41438
-6.44385
-5.50451
-5.5687
-5.67491
-5.76505
-5.83422
-5.90039
-5.96692
-6.02921
-6.08584
-6.138
-6.18656
-6.23164
-6.2733
-6.31184
-6.34762
-6.38099
-6.4122
-6.44163
-5.41234
-5.51002
-5.65012
-5.74898
-5.81875
-5.8883
-5.95872
-6.0233
-6.08123
-6.1345
-6.184
-6.22974
-6.27179
-6.31051
-6.34631
-6.37962
-6.41083
-6.44048
-5.31097
-5.4565
-5.62919
-5.7322
-5.80369
-5.87825
-5.95242
-6.0186
-6.07734
-6.13133
-6.1814
-6.22746
-6.26957
-6.30821
-6.34377
-6.37665
-6.4075
-6.43713
-5.19221
-5.42271
-5.61619
-5.70967
-5.7825
-5.86521
-5.94536
-6.0148
-6.07591
-6.13195
-6.18367
-6.23083
-6.27355
-6.31256
-6.34833
-6.38104
-6.41155
-6.44172
-5.00868
-5.41567
-5.64117
-5.71293
-5.77673
-5.86029
-5.94125
-6.01029
-6.07124
-6.12763
-6.17988
-6.22746
-6.27035
-6.30904
-6.34428
-6.37652
-6.40625
-6.43412
-4.73981
-5.34198
-5.63388
-5.71311
-5.78127
-5.87088
-5.95579
-6.02662
-6.08845
-6.14549
-6.19813
-6.24573
-6.28818
-6.32531
-6.35805
-6.38803
-6.41526
-6.43743
-7.44816
-7.44831
-7.44841
-7.44854
-7.44852
-7.44748
-7.44439
-7.43944
-7.43418
-7.43003
-7.42862
-7.43084
-7.43636
-7.44423
-7.45335
-7.46273
-7.47147
-7.47884
-7.48427
-7.48751
-7.48885
-7.4888
-7.48764
-7.48567
-7.48328
-7.48095
-7.47909
-7.47792
-7.47742
-7.47734
-7.4773
-7.47704
-7.47654
-7.47588
-7.47522
-7.47461
-7.47394
-7.47289
-7.47112
-7.46868
-7.46614
-7.46427
-7.46405
-7.46565
-7.46829
-7.47096
-7.47299
-7.47436
-7.47547
-7.47676
-7.47841
-7.48126
-7.48677
-7.49292
-7.4959
-7.4934
-7.48842
-7.48655
-7.49586
-7.52094
-7.56374
-7.62322
-7.69653
-7.77985
-7.86883
-7.95913
-8.04709
-8.13014
-8.2067
-8.27587
-8.33731
-8.39102
-8.43719
-8.47616
-8.50826
-8.53384
-8.55319
-8.56659
-8.57425
-8.57633
-8.57297
-8.56426
-8.55027
-8.53105
-8.50661
-8.47698
-8.44213
-8.40208
-8.35678
-8.30621
-8.25034
-8.18914
-8.12258
-8.05064
-7.97327
-7.89043
-7.80209
-7.70829
-7.60915
-7.50473
-7.39474
-7.27886
-7.15713
-7.02973
-6.8967
-6.75808
-6.6139
-6.4642
-6.30901
-6.14839
-5.98239
-5.81109
-5.63457
-5.4529
-5.2662
-5.07456
-4.8781
-4.67693
-4.4712
-4.26104
-4.04661
-3.82807
-3.60556
-3.37928
-3.14938
-2.91606
-2.6795
-2.43996
-2.19771
-1.95293
-1.70559
-1.45578
-1.20384
-0.950034
-0.694584
-0.437703
-0.179596
0.0795188
0.339424
0.599907
0.860758
1.12177
1.38275
1.64349
1.9038
2.1635
2.42241
2.68034
2.93712
3.19258
3.44654
3.69884
3.94931
4.1978
4.44415
4.68824
4.92993
5.16912
5.40569
5.63954
5.87057
6.09868
6.32376
6.54571
6.76442
6.97978
7.19169
7.40007
7.6048
7.8058
8.00295
8.19612
8.3852
8.57007
8.75063
8.92679
9.09878
9.26651
9.43302
9.58904
-7.44976
-7.45003
-7.45066
-7.45153
-7.452
-7.45138
-7.44901
-7.44519
-7.44164
-7.44015
-7.4415
-7.44572
-7.45237
-7.46062
-7.46955
-7.47839
-7.48648
-7.49338
-7.4988
-7.50255
-7.50431
-7.50394
-7.50167
-7.49798
-7.49347
-7.48882
-7.48468
-7.4815
-7.47941
-7.47814
-7.4772
-7.47624
-7.47535
-7.47491
-7.47488
-7.47495
-7.47479
-7.47413
-7.47266
-7.47051
-7.46845
-7.46741
-7.468
-7.47007
-7.47262
-7.4747
-7.47579
-7.47572
-7.47554
-7.47604
-7.47531
-7.47282
-7.47194
-7.47831
-7.49016
-7.49696
-7.49619
-7.4979
-7.51178
-7.54309
-7.59324
-7.66027
-7.7401
-7.82744
-7.91734
-8.00578
-8.08988
-8.16789
-8.23888
-8.30251
-8.35877
-8.40787
-8.45009
-8.48576
-8.51517
-8.5386
-8.55627
-8.56837
-8.57506
-8.57644
-8.57259
-8.56358
-8.54943
-8.53017
-8.50581
-8.47633
-8.44173
-8.40198
-8.35706
-8.30693
-8.25156
-8.19092
-8.12497
-8.05368
-7.97699
-7.89488
-7.80727
-7.7141
-7.61529
-7.51073
-7.40054
-7.28493
-7.16386
-7.03723
-6.90501
-6.76721
-6.62386
-6.47499
-6.32063
-6.16084
-5.99567
-5.82519
-5.64947
-5.46861
-5.2827
-5.09184
-4.89614
-4.69573
-4.49074
-4.2813
-4.06757
-3.84971
-3.62786
-3.4022
-3.1729
-2.94012
-2.70403
-2.4648
-2.2226
-1.97767
-1.73036
-1.48087
-1.2293
-0.975859
-0.720751
-0.464181
-0.206359
0.0524959
0.312167
0.572444
0.833116
1.09398
1.35483
1.61547
1.87571
2.13536
2.39424
2.65217
2.90897
3.16447
3.41851
3.6709
3.92149
4.17012
4.41663
4.66089
4.90277
5.14216
5.37894
5.61302
5.84428
6.07264
6.29798
6.5202
6.73918
6.95484
7.16706
7.37575
7.58082
7.78216
7.97968
8.17325
8.36281
8.54828
8.72955
8.90656
9.0795
9.2477
9.41615
9.57165
-7.45137
-7.45142
-7.4516
-7.45191
-7.45225
-7.45233
-7.45223
-7.45263
-7.45441
-7.45811
-7.46367
-7.47074
-7.47885
-7.48739
-7.49583
-7.50366
-7.51053
-7.51616
-7.52038
-7.5231
-7.52424
-7.52373
-7.52169
-7.51831
-7.51379
-7.50839
-7.50243
-7.49628
-7.49032
-7.48491
-7.48036
-7.47688
-7.47464
-7.47352
-7.47306
-7.47268
-7.47199
-7.4709
-7.46945
-7.46811
-7.46775
-7.46908
-7.47208
-7.47573
-7.47845
-7.47936
-7.47785
-7.47328
-7.46767
-7.46457
-7.46668
-7.47039
-7.47316
-7.48181
-7.49924
-7.52149
-7.54591
-7.5749
-7.61221
-7.65945
-7.71623
-7.78094
-7.85125
-7.92454
-7.99836
-8.07066
-8.13988
-8.20491
-8.26505
-8.31985
-8.36911
-8.41274
-8.45077
-8.48325
-8.51029
-8.53198
-8.54841
-8.55967
-8.56581
-8.56689
-8.56293
-8.55396
-8.53999
-8.52101
-8.49701
-8.46798
-8.43388
-8.3947
-8.35039
-8.30093
-8.24627
-8.18638
-8.12121
-8.05073
-7.9749
-7.89368
-7.80703
-7.71492
-7.61727
-7.51396
-7.405
-7.2905
-7.17049
-7.04493
-6.91381
-6.77713
-6.6349
-6.48716
-6.33393
-6.17528
-6.01124
-5.84189
-5.6673
-5.48756
-5.30275
-5.11299
-4.91838
-4.71903
-4.51509
-4.30668
-4.09396
-3.87707
-3.65618
-3.43145
-3.20305
-2.97116
-2.73596
-2.49762
-2.25632
-2.01224
-1.76568
-1.51686
-1.26593
-1.0131
-0.758566
-0.502536
-0.245223
0.0131567
0.272391
0.532269
0.79258
1.05312
1.31368
1.57407
1.8341
2.09357
2.3523
2.61011
2.86682
3.12226
3.37626
3.62866
3.87929
4.12797
4.37457
4.61894
4.86094
5.10047
5.33739
5.57162
5.80304
6.03156
6.25707
6.47946
6.69862
6.91445
7.12685
7.33572
7.54095
7.74246
7.94016
8.13392
8.32363
8.50919
8.69062
8.86787
9.04147
9.21017
9.38135
9.53307
-7.45238
-7.4521
-7.45169
-7.45162
-7.45272
-7.45566
-7.46038
-7.46652
-7.47376
-7.48178
-7.49023
-7.49882
-7.50725
-7.51528
-7.52265
-7.52914
-7.53455
-7.53874
-7.54161
-7.5431
-7.5432
-7.54188
-7.5392
-7.53527
-7.53022
-7.52416
-7.51721
-7.50955
-7.50137
-7.49298
-7.48481
-7.47734
-7.47097
-7.4659
-7.46205
-7.45911
-7.45682
-7.45518
-7.45481
-7.45659
-7.46083
-7.46658
-7.47234
-7.4763
-7.47671
-7.47411
-7.4702
-7.46661
-7.46469
-7.46577
-7.47294
-7.48643
-7.50402
-7.52619
-7.55421
-7.58756
-7.62499
-7.66586
-7.71067
-7.75988
-7.81354
-7.87111
-7.93164
-7.99386
-8.05641
-8.11799
-8.17747
-8.23398
-8.28681
-8.3355
-8.37972
-8.41927
-8.45404
-8.48397
-8.50904
-8.52924
-8.54458
-8.55507
-8.5607
-8.56148
-8.55741
-8.54846
-8.53463
-8.5159
-8.49224
-8.46361
-8.42999
-8.39134
-8.34762
-8.29879
-8.24481
-8.18564
-8.12122
-8.05153
-7.9765
-7.89609
-7.81026
-7.71897
-7.62218
-7.51983
-7.41192
-7.29849
-7.17953
-7.05502
-6.92496
-6.78935
-6.64821
-6.50156
-6.34943
-6.19186
-6.02892
-5.86066
-5.68716
-5.5085
-5.32477
-5.13607
-4.94251
-4.7442
-4.54128
-4.33387
-4.12213
-3.90621
-3.68625
-3.46243
-3.23491
-3.00387
-2.7695
-2.53198
-2.29149
-2.04822
-1.80241
-1.55427
-1.30398
-1.05175
-0.797787
-0.54229
-0.285481
-0.0275702
0.231231
0.490713
0.750662
1.01087
1.27115
1.53128
1.79109
2.05037
2.30895
2.56663
2.82324
3.07861
3.33258
3.58497
3.83561
4.08434
4.33101
4.57546
4.81757
5.05721
5.29426
5.52862
5.76019
5.98885
6.21451
6.43706
6.65638
6.87237
7.08492
7.29392
7.49929
7.70093
7.89874
8.09263
8.2825
8.46828
8.64996
8.82748
9.00148
9.17016
9.34212
9.48772
-7.45453
-7.45395
-7.4534
-7.45453
-7.45904
-7.46661
-7.47597
-7.48612
-7.49638
-7.50632
-7.5157
-7.52444
-7.53249
-7.53975
-7.54613
-7.5515
-7.55575
-7.55878
-7.56052
-7.56094
-7.56001
-7.55772
-7.55411
-7.54925
-7.54318
-7.53599
-7.52776
-7.51861
-7.50864
-7.49799
-7.48684
-7.47555
-7.46464
-7.45469
-7.44624
-7.43976
-7.4356
-7.43439
-7.4369
-7.44311
-7.45112
-7.45825
-7.46331
-7.46611
-7.46677
-7.46644
-7.46644
-7.46875
-7.47513
-7.48633
-7.50352
-7.52704
-7.55591
-7.58873
-7.62435
-7.66231
-7.70239
-7.74483
-7.78993
-7.83785
-7.88848
-7.9414
-7.99593
-8.05123
-8.10642
-8.16062
-8.21306
-8.26308
-8.31013
-8.35378
-8.39372
-8.42969
-8.46152
-8.48907
-8.51224
-8.53095
-8.54514
-8.55477
-8.55978
-8.56015
-8.55582
-8.54676
-8.53294
-8.51431
-8.49083
-8.46247
-8.42918
-8.39092
-8.34764
-8.2993
-8.24585
-8.18726
-8.12346
-8.05441
-7.98006
-7.90036
-7.81527
-7.72473
-7.62872
-7.5272
-7.42015
-7.30759
-7.1895
-7.06586
-6.93669
-6.80196
-6.66171
-6.51595
-6.36472
-6.20805
-6.04601
-5.87865
-5.70603
-5.52826
-5.3454
-5.15757
-4.96486
-4.7674
-4.56531
-4.35873
-4.14779
-3.93265
-3.71345
-3.49037
-3.26357
-3.03323
-2.79953
-2.56265
-2.32278
-2.08014
-1.83492
-1.58733
-1.33756
-1.08584
-0.832341
-0.577286
-0.320892
-0.0633698
0.195072
0.454222
0.713869
0.973808
1.23384
1.49376
1.75338
2.0125
2.27094
2.52851
2.78503
3.04035
3.29428
3.54665
3.7973
4.04607
4.29278
4.53731
4.7795
5.01924
5.2564
5.49088
5.72258
5.95138
6.17718
6.39987
6.61933
6.83547
7.04817
7.25734
7.46288
7.66468
7.86267
8.05673
8.2468
8.43278
8.61466
8.7923
8.9663
9.13433
9.30582
9.44458
-7.45909
-7.45802
-7.45822
-7.46299
-7.47202
-7.48308
-7.49477
-7.50629
-7.51716
-7.52722
-7.53647
-7.54492
-7.55253
-7.55923
-7.56491
-7.5695
-7.57291
-7.57508
-7.57596
-7.57552
-7.57374
-7.57062
-7.56619
-7.56048
-7.55351
-7.5453
-7.53587
-7.52531
-7.51371
-7.50116
-7.4878
-7.47386
-7.45984
-7.44648
-7.43479
-7.42604
-7.42138
-7.4216
-7.42612
-7.43254
-7.43894
-7.44446
-7.44905
-7.4532
-7.45758
-7.46331
-7.47133
-7.48312
-7.49984
-7.52177
-7.54851
-7.57915
-7.61298
-7.6495
-7.68799
-7.72817
-7.76982
-7.81302
-7.85785
-7.9043
-7.95221
-8.00127
-8.05105
-8.101
-8.15057
-8.19916
-8.24621
-8.29122
-8.33375
-8.37341
-8.40988
-8.4429
-8.47225
-8.49774
-8.51922
-8.53657
-8.54969
-8.55847
-8.56284
-8.56272
-8.55806
-8.5488
-8.53487
-8.51623
-8.49282
-8.46459
-8.4315
-8.39349
-8.35051
-8.30252
-8.24946
-8.19129
-8.12795
-8.05939
-7.98556
-7.90641
-7.8219
-7.73196
-7.63657
-7.53569
-7.42931
-7.31742
-7.2
-7.07704
-6.94853
-6.81449
-6.67491
-6.52984
-6.37928
-6.2233
-6.06193
-5.89525
-5.72331
-5.5462
-5.36401
-5.17682
-4.98476
-4.78794
-4.58647
-4.3805
-4.17016
-3.9556
-3.73698
-3.51446
-3.2882
-3.05838
-2.82519
-2.5888
-2.34941
-2.10722
-1.86245
-1.61528
-1.36592
-1.11457
-0.861436
-0.606724
-0.350654
-0.0934344
0.164724
0.42361
0.683015
0.942733
1.20256
1.46231
1.72177
1.98075
2.23907
2.49654
2.75299
3.00824
3.26213
3.51448
3.76513
4.0139
4.26064
4.50519
4.74743
4.98723
5.22447
5.45903
5.69082
5.91972
6.14562
6.36843
6.58801
6.80428
7.01711
7.22641
7.43209
7.63404
7.83217
8.02638
8.21657
8.40265
8.58459
8.76214
8.93587
9.10294
9.2737
9.40569
-7.46537
-7.46459
-7.4673
-7.47613
-7.48779
-7.49985
-7.51163
-7.52282
-7.53332
-7.54309
-7.55209
-7.56027
-7.56754
-7.57381
-7.579
-7.58303
-7.58585
-7.5874
-7.58764
-7.58657
-7.58416
-7.58042
-7.57536
-7.56901
-7.56129
-7.55216
-7.54175
-7.53016
-7.51745
-7.50369
-7.48901
-7.4737
-7.45842
-7.44404
-7.43182
-7.42346
-7.41975
-7.4197
-7.42157
-7.42453
-7.42845
-7.43345
-7.43994
-7.44787
-7.45769
-7.47065
-7.4876
-7.50863
-7.53359
-7.56205
-7.59371
-7.62792
-7.66425
-7.70246
-7.74225
-7.78337
-7.8256
-7.86883
-7.91298
-7.95798
-8.0037
-8.04992
-8.09633
-8.14257
-8.18822
-8.23289
-8.27613
-8.31755
-8.35677
-8.39345
-8.42729
-8.45801
-8.48537
-8.50919
-8.52926
-8.54544
-8.5576
-8.5656
-8.56934
-8.56874
-8.56371
-8.55417
-8.54006
-8.52132
-8.49787
-8.46966
-8.43664
-8.39876
-8.35595
-8.30817
-8.25536
-8.19747
-8.13445
-8.06623
-7.99277
-7.91402
-7.82991
-7.74041
-7.64547
-7.54507
-7.43917
-7.32775
-7.21082
-7.08834
-6.96032
-6.82676
-6.68767
-6.54308
-6.39301
-6.2375
-6.07662
-5.91041
-5.73895
-5.56231
-5.38058
-5.19386
-5.00225
-4.80587
-4.60484
-4.3993
-4.18939
-3.97525
-3.75703
-3.5349
-3.30902
-3.07958
-2.84675
-2.61072
-2.37168
-2.12983
-1.88538
-1.63852
-1.38946
-1.13839
-0.885523
-0.631068
-0.375243
-0.118256
0.139682
0.398361
0.657574
0.917115
1.17678
1.43638
1.6957
1.95456
2.21277
2.47015
2.72652
2.98171
3.23555
3.48787
3.7385
3.98725
4.23398
4.47853
4.72078
4.9606
5.19786
5.43247
5.66431
5.89328
6.11926
6.34214
6.56181
6.77816
6.99108
7.20047
7.40625
7.6083
7.80653
8.00082
8.19108
8.37718
8.55905
8.73639
8.9097
9.07571
9.2458
9.37141
-7.47101
-7.4717
-7.47813
-7.48915
-7.50093
-7.51241
-7.52351
-7.53417
-7.54429
-7.55379
-7.56256
-7.57049
-7.57749
-7.58346
-7.58831
-7.59198
-7.59442
-7.59558
-7.59543
-7.59395
-7.59114
-7.58702
-7.58157
-7.57468
-7.56626
-7.55649
-7.54555
-7.53347
-7.52028
-7.50614
-7.49131
-7.4761
-7.46122
-7.44786
-7.43752
-7.43077
-7.42639
-7.42318
-7.42144
-7.42207
-7.42558
-7.43163
-7.44038
-7.45261
-7.46865
-7.48828
-7.51129
-7.53748
-7.56664
-7.59838
-7.63246
-7.66855
-7.70634
-7.74557
-7.78598
-7.82738
-7.8696
-7.91251
-7.95601
-7.99998
-8.04426
-8.08865
-8.13291
-8.17677
-8.21991
-8.262
-8.30271
-8.34169
-8.37862
-8.41319
-8.44512
-8.47414
-8.50002
-8.52254
-8.5415
-8.55673
-8.56807
-8.57538
-8.57855
-8.57748
-8.57206
-8.56221
-8.54786
-8.52894
-8.50537
-8.47709
-8.44404
-8.40617
-8.36342
-8.31573
-8.26305
-8.20531
-8.14247
-8.07447
-8.00124
-7.92274
-7.8389
-7.74969
-7.65505
-7.55495
-7.44936
-7.33827
-7.22164
-7.09948
-6.97178
-6.83853
-6.69975
-6.55547
-6.40572
-6.25053
-6.08995
-5.92405
-5.7529
-5.57656
-5.39513
-5.20871
-5.0174
-4.82131
-4.62057
-4.41532
-4.20568
-3.99181
-3.77386
-3.55199
-3.32638
-3.09719
-2.86461
-2.62882
-2.39003
-2.14842
-1.90419
-1.65756
-1.40871
-1.15785
-0.905173
-0.65091
-0.395269
-0.138459
0.119308
0.377826
0.636885
0.896282
1.15581
1.41528
1.67449
1.93324
2.19136
2.44864
2.70493
2.96006
3.21386
3.46614
3.71671
3.96542
4.21211
4.45664
4.69886
4.93867
5.17594
5.41056
5.64243
5.87144
6.09747
6.32039
6.54011
6.7565
6.96948
7.17894
7.38478
7.5869
7.78519
7.97954
8.16981
8.35588
8.53763
8.71468
8.8875
9.05245
9.22197
9.34174
-7.47427
-7.47715
-7.4863
-7.4974
-7.50832
-7.51906
-7.52962
-7.53988
-7.54973
-7.55902
-7.56763
-7.57542
-7.58228
-7.5881
-7.59279
-7.5963
-7.59857
-7.59955
-7.59923
-7.59758
-7.59462
-7.59034
-7.58461
-7.5773
-7.56859
-7.55872
-7.5478
-7.53585
-7.52292
-7.50922
-7.49514
-7.48127
-7.46845
-7.45754
-7.44881
-7.44147
-7.43473
-7.42917
-7.42588
-7.42574
-7.42956
-7.43761
-7.44974
-7.46577
-7.48531
-7.50815
-7.53404
-7.56272
-7.59392
-7.62734
-7.66273
-7.69983
-7.73838
-7.77813
-7.81889
-7.86047
-7.90272
-7.9455
-7.98868
-8.03209
-8.07557
-8.11894
-8.162
-8.20448
-8.24614
-8.28669
-8.32584
-8.36331
-8.39879
-8.432
-8.46267
-8.49054
-8.51537
-8.53694
-8.55507
-8.56955
-8.58023
-8.58696
-8.58962
-8.58808
-8.58227
-8.5721
-8.55747
-8.53831
-8.51455
-8.48612
-8.45295
-8.415
-8.3722
-8.3245
-8.27185
-8.21416
-8.1514
-8.08349
-8.01038
-7.93201
-7.84832
-7.75926
-7.66478
-7.56484
-7.45942
-7.3485
-7.23204
-7.11005
-6.98252
-6.84944
-6.71083
-6.56672
-6.41713
-6.26211
-6.10171
-5.93598
-5.765
-5.58883
-5.40757
-5.22132
-5.03017
-4.83426
-4.63369
-4.4286
-4.21913
-4.00543
-3.78764
-3.56593
-3.34048
-3.11145
-2.87902
-2.6434
-2.40477
-2.16332
-1.91925
-1.67278
-1.42408
-1.17336
-0.92083
-0.666711
-0.411212
-0.154542
0.10309
0.361475
0.620407
0.879681
1.1391
1.39845
1.65755
1.9162
2.17422
2.43141
2.68762
2.94267
3.19641
3.44863
3.69915
3.9478
4.19443
4.4389
4.68109
4.92086
5.1581
5.39271
5.62459
5.85362
6.07967
6.30261
6.52235
6.73876
6.95177
7.16126
7.36715
7.56932
7.76765
7.96202
8.15228
8.33827
8.51986
8.69658
8.86889
9.03283
9.20185
9.31643
-7.47382
-7.47871
-7.48841
-7.49865
-7.50888
-7.51915
-7.52938
-7.53943
-7.54915
-7.5584
-7.567
-7.57482
-7.58172
-7.58761
-7.59239
-7.59599
-7.59835
-7.59942
-7.59918
-7.59761
-7.59469
-7.59036
-7.58451
-7.57722
-7.56873
-7.55917
-7.54861
-7.53713
-7.52496
-7.51245
-7.50005
-7.48834
-7.47762
-7.46775
-7.45855
-7.44988
-7.442
-7.43595
-7.43296
-7.43383
-7.43904
-7.44853
-7.46197
-7.47926
-7.5001
-7.52424
-7.5514
-7.58123
-7.61341
-7.64767
-7.68376
-7.72142
-7.76045
-7.8006
-7.84171
-7.8836
-7.92609
-7.96902
-8.01221
-8.05553
-8.0988
-8.14182
-8.1844
-8.2263
-8.26729
-8.30711
-8.3455
-8.3822
-8.41692
-8.44938
-8.47931
-8.50647
-8.53061
-8.55154
-8.56904
-8.58294
-8.59307
-8.59929
-8.60148
-8.59953
-8.59335
-8.58284
-8.56791
-8.54848
-8.52449
-8.49586
-8.46251
-8.42441
-8.38149
-8.33371
-8.28098
-8.22326
-8.16048
-8.09257
-8.01947
-7.94112
-7.85747
-7.76844
-7.67401
-7.57412
-7.46875
-7.35787
-7.24148
-7.11954
-6.99206
-6.85904
-6.72049
-6.57643
-6.4269
-6.27194
-6.11161
-5.94595
-5.77503
-5.59893
-5.41774
-5.23156
-5.04049
-4.84465
-4.64416
-4.43915
-4.22977
-4.01615
-3.79845
-3.57683
-3.35147
-3.12253
-2.8902
-2.65468
-2.41616
-2.17482
-1.93086
-1.6845
-1.43591
-1.1853
-0.932878
-0.678875
-0.423492
-0.166938
0.0905769
0.348846
0.607663
0.866823
1.12612
1.38536
1.64435
1.90289
2.1608
2.41789
2.67399
2.92897
3.18265
3.43481
3.68526
3.93383
4.18037
4.42477
4.66688
4.90659
5.14379
5.37836
5.61024
5.83928
6.06533
6.28827
6.508
6.72442
6.93743
7.14694
7.35286
7.55507
7.75343
7.94779
8.13801
8.3239
8.50528
8.68165
8.85344
9.01641
9.18499
9.29505
-7.46699
-7.47296
-7.48207
-7.49177
-7.5018
-7.51197
-7.52217
-7.53226
-7.54211
-7.55155
-7.5604
-7.5685
-7.57572
-7.58193
-7.58705
-7.59099
-7.59367
-7.59505
-7.5951
-7.59378
-7.59106
-7.5869
-7.58129
-7.57435
-7.56626
-7.55716
-7.54719
-7.53658
-7.52569
-7.51479
-7.50391
-7.49314
-7.4826
-7.47231
-7.46247
-7.45355
-7.44618
-7.4411
-7.43906
-7.44065
-7.44628
-7.45604
-7.46984
-7.48756
-7.50894
-7.53366
-7.56137
-7.5917
-7.62436
-7.65908
-7.69562
-7.73374
-7.77323
-7.81387
-7.85547
-7.89784
-7.94078
-7.98412
-8.02771
-8.07136
-8.11491
-8.15814
-8.20085
-8.24279
-8.28373
-8.32344
-8.36166
-8.39813
-8.43257
-8.46472
-8.49431
-8.52109
-8.54483
-8.56534
-8.58241
-8.59586
-8.60553
-8.61131
-8.61309
-8.61076
-8.60422
-8.59337
-8.57813
-8.55842
-8.53416
-8.50528
-8.4717
-8.43338
-8.39029
-8.34235
-8.28949
-8.23165
-8.16877
-8.10079
-8.02762
-7.94922
-7.86551
-7.77644
-7.68195
-7.58202
-7.47662
-7.36571
-7.24929
-7.12732
-6.99982
-6.86677
-6.72819
-6.58411
-6.43457
-6.2796
-6.11925
-5.95359
-5.78267
-5.60657
-5.42539
-5.23922
-5.04817
-4.85235
-4.65189
-4.44691
-4.23756
-4.02398
-3.80633
-3.58476
-3.35945
-3.13057
-2.89831
-2.66287
-2.42442
-2.18317
-1.9393
-1.69303
-1.44453
-1.19401
-0.941698
-0.687802
-0.432533
-0.176095
0.0813025
0.339453
0.59815
0.857189
1.11637
1.37549
1.63435
1.89278
2.15057
2.40754
2.66353
2.91841
3.17203
3.42413
3.67449
3.92295
4.16939
4.41368
4.6557
4.89534
5.13247
5.367
5.59886
5.8279
6.05394
6.27687
6.49658
6.71299
6.92599
7.13551
7.34146
7.54371
7.74208
7.93643
8.12659
8.31235
8.49351
8.66951
8.8408
9.00286
9.17101
9.27724
-7.45105
-7.4571
-7.46591
-7.47599
-7.48648
-7.49699
-7.50747
-7.51788
-7.52812
-7.538
-7.54735
-7.55598
-7.56375
-7.57053
-7.57619
-7.58066
-7.58386
-7.58574
-7.58625
-7.58536
-7.58305
-7.5793
-7.57418
-7.56781
-7.5604
-7.55213
-7.54315
-7.53354
-7.52343
-7.51297
-7.50221
-7.49124
-7.48024
-7.46956
-7.45965
-7.45096
-7.44402
-7.43948
-7.43798
-7.44005
-7.44606
-7.45619
-7.4704
-7.48853
-7.51028
-7.53532
-7.56331
-7.59393
-7.62691
-7.662
-7.69897
-7.73759
-7.77763
-7.81888
-7.86114
-7.9042
-7.94785
-7.99191
-8.0362
-8.08053
-8.1247
-8.16851
-8.21173
-8.25413
-8.29548
-8.33554
-8.37404
-8.41071
-8.44527
-8.47745
-8.50699
-8.53362
-8.55715
-8.57739
-8.59413
-8.60721
-8.61646
-8.6218
-8.62315
-8.62042
-8.61351
-8.60232
-8.58676
-8.56675
-8.5422
-8.51305
-8.47918
-8.4406
-8.39728
-8.34916
-8.29614
-8.23815
-8.17514
-8.10703
-8.03377
-7.95527
-7.87147
-7.7823
-7.68772
-7.58769
-7.4822
-7.37122
-7.25472
-7.13269
-7.00512
-6.872
-6.73336
-6.58922
-6.43963
-6.28462
-6.12424
-5.95855
-5.7876
-5.61149
-5.43029
-5.24411
-5.05305
-4.85724
-4.6568
-4.45184
-4.24252
-4.02898
-3.81137
-3.58985
-3.36458
-3.13576
-2.90357
-2.6682
-2.42984
-2.18868
-1.94491
-1.69874
-1.45034
-1.19993
-0.947733
-0.693958
-0.438811
-0.182498
0.0747718
0.332793
0.591359
0.850266
1.10931
1.3683
1.62703
1.88532
2.14298
2.39982
2.65568
2.91048
3.16405
3.41609
3.66633
3.91466
4.16097
4.40514
4.64706
4.8866
5.12365
5.35811
5.58996
5.81901
6.04505
6.26794
6.48762
6.704
6.917
7.12652
7.3325
7.53479
7.73318
7.9275
8.11759
8.30321
8.48415
8.65978
8.83057
8.99179
9.1595
9.26259
-7.4247
-7.43027
-7.43975
-7.45113
-7.46261
-7.47372
-7.48464
-7.49557
-7.50645
-7.5171
-7.52726
-7.53673
-7.5453
-7.55283
-7.55922
-7.5644
-7.5683
-7.57084
-7.572
-7.57175
-7.57009
-7.56706
-7.56272
-7.55716
-7.5505
-7.54286
-7.53433
-7.525
-7.51493
-7.50422
-7.49302
-7.4816
-7.47028
-7.45939
-7.44931
-7.44059
-7.43382
-7.42965
-7.42867
-7.43137
-7.43802
-7.44874
-7.46344
-7.48194
-7.50396
-7.52921
-7.55741
-7.5883
-7.62164
-7.65719
-7.69469
-7.73391
-7.77461
-7.81659
-7.85961
-7.90348
-7.94798
-7.99292
-8.03812
-8.08337
-8.12845
-8.17312
-8.21716
-8.26034
-8.30243
-8.34315
-8.38223
-8.41941
-8.45437
-8.48682
-8.51644
-8.54297
-8.56626
-8.58619
-8.60257
-8.61517
-8.62388
-8.6287
-8.6296
-8.62648
-8.61924
-8.60779
-8.59198
-8.57172
-8.54694
-8.51752
-8.48331
-8.44437
-8.40084
-8.35256
-8.29939
-8.24126
-8.17812
-8.10991
-8.03656
-7.95798
-7.87408
-7.7848
-7.69011
-7.58999
-7.48441
-7.37336
-7.2568
-7.13471
-7.00706
-6.87388
-6.73518
-6.591
-6.44137
-6.28634
-6.12595
-5.96025
-5.7893
-5.61318
-5.43199
-5.24583
-5.0548
-4.85903
-4.65864
-4.45374
-4.24447
-4.031
-3.81347
-3.59203
-3.36685
-3.13813
-2.90604
-2.67079
-2.43255
-2.19152
-1.94789
-1.70185
-1.45359
-1.20333
-0.951288
-0.697674
-0.442689
-0.186543
0.070559
0.32841
0.586806
0.845543
1.10442
1.36324
1.6218
1.87993
2.13742
2.3941
2.64984
2.9046
3.15819
3.41016
3.66025
3.90842
4.15458
4.39863
4.64044
4.87988
5.11685
5.35127
5.58315
5.81224
6.03826
6.26111
6.48074
6.6971
6.91008
7.11961
7.32563
7.52798
7.72639
7.92068
8.11069
8.29617
8.47688
8.65215
8.82247
8.98291
9.15013
9.25075
-7.38835
-7.39398
-7.40496
-7.41821
-7.43088
-7.44262
-7.45412
-7.46591
-7.4779
-7.48969
-7.50094
-7.51143
-7.52096
-7.5294
-7.53665
-7.54266
-7.54739
-7.55076
-7.55276
-7.55333
-7.55249
-7.55025
-7.54664
-7.54172
-7.53554
-7.52818
-7.51969
-7.51016
-7.49972
-7.48855
-7.47689
-7.46499
-7.45316
-7.44183
-7.43151
-7.4228
-7.41632
-7.41268
-7.41239
-7.41581
-7.42313
-7.4344
-7.44951
-7.46829
-7.4905
-7.51591
-7.5443
-7.57545
-7.60911
-7.64506
-7.68304
-7.72284
-7.76424
-7.807
-7.85089
-7.89567
-7.94114
-7.98711
-8.03338
-8.0797
-8.12584
-8.17155
-8.21658
-8.26069
-8.30362
-8.34508
-8.38478
-8.42244
-8.45774
-8.49035
-8.51992
-8.54622
-8.56917
-8.58869
-8.6046
-8.61653
-8.62441
-8.62853
-8.62903
-8.62571
-8.61841
-8.60695
-8.59113
-8.57084
-8.54601
-8.51649
-8.48193
-8.4426
-8.3989
-8.35052
-8.29721
-8.23892
-8.17564
-8.10733
-8.0339
-7.95524
-7.87123
-7.78181
-7.68697
-7.58671
-7.48104
-7.36991
-7.25328
-7.13112
-7.0034
-6.87014
-6.73137
-6.58714
-6.43749
-6.28245
-6.12207
-5.95638
-5.78544
-5.60934
-5.42818
-5.24207
-5.0511
-4.85541
-4.65511
-4.45032
-4.24118
-4.02782
-3.81041
-3.58911
-3.3641
-3.13555
-2.90366
-2.6686
-2.43058
-2.18978
-1.94638
-1.70057
-1.45256
-1.20257
-0.950804
-0.697471
-0.442776
-0.186926
0.0698745
0.327419
0.585502
0.843923
1.10248
1.36098
1.61922
1.87702
2.1342
2.39056
2.64603
2.90064
3.15411
3.4059
3.65575
3.9037
4.14968
4.39358
4.63526
4.87461
5.11149
5.34591
5.57793
5.80714
6.03314
6.25593
6.47553
6.69187
6.90486
7.11442
7.32054
7.523
7.72144
7.9157
8.10563
8.29097
8.47145
8.64638
8.81625
8.97597
9.14265
9.24146
-7.34482
-7.35143
-7.36458
-7.38008
-7.39414
-7.40673
-7.4188
-7.43127
-7.44434
-7.45746
-7.47014
-7.48202
-7.49283
-7.50228
-7.51032
-7.51714
-7.52274
-7.52704
-7.52996
-7.53143
-7.53142
-7.5299
-7.52688
-7.52236
-7.51638
-7.50899
-7.50027
-7.49034
-7.47937
-7.46756
-7.45517
-7.44255
-7.43013
-7.41843
-7.40801
-7.39947
-7.3934
-7.3903
-7.39059
-7.39452
-7.40223
-7.41373
-7.42895
-7.44774
-7.46994
-7.49538
-7.52384
-7.5551
-7.58895
-7.62517
-7.66354
-7.70386
-7.74592
-7.78946
-7.83427
-7.8801
-7.92672
-7.97389
-8.02131
-8.06871
-8.11584
-8.16246
-8.20832
-8.25316
-8.29672
-8.33869
-8.37878
-8.41668
-8.45207
-8.48454
-8.51366
-8.53924
-8.56147
-8.58043
-8.59577
-8.60672
-8.61317
-8.61615
-8.61622
-8.61299
-8.60602
-8.59496
-8.57949
-8.55949
-8.53499
-8.50598
-8.47235
-8.43399
-8.39078
-8.34254
-8.28921
-8.23082
-8.16743
-8.09899
-8.02541
-7.94657
-7.86235
-7.77269
-7.67762
-7.57714
-7.47126
-7.35994
-7.24314
-7.1208
-6.99291
-6.85948
-6.72056
-6.5762
-6.42644
-6.27132
-6.11086
-5.94511
-5.77412
-5.59798
-5.41681
-5.2307
-5.03976
-4.8441
-4.64387
-4.43916
-4.23011
-4.01685
-3.79955
-3.57839
-3.35355
-3.12519
-2.89349
-2.65865
-2.42087
-2.18031
-1.93717
-1.69163
-1.44391
-1.19425
-0.942815
-0.689826
-0.435489
-0.18001
0.0764053
0.333552
0.591226
0.849225
1.10735
1.3654
1.62317
1.8805
2.13716
2.39298
2.64778
2.90141
3.15373
3.40463
3.65392
3.90147
4.14711
4.3907
4.6321
4.87118
5.10783
5.3421
5.57413
5.80335
6.02925
6.25196
6.47152
6.68785
6.90086
7.11051
7.31685
7.51953
7.71803
7.91226
8.10212
8.28734
8.46764
8.64226
8.81171
8.97076
9.13684
9.23448
-7.29718
-7.30512
-7.32105
-7.33899
-7.35359
-7.36627
-7.37941
-7.39343
-7.40786
-7.42223
-7.43618
-7.44942
-7.46163
-7.47231
-7.48134
-7.48908
-7.4957
-7.50105
-7.50499
-7.50742
-7.50825
-7.50743
-7.50491
-7.5007
-7.49479
-7.48725
-7.47815
-7.46764
-7.45591
-7.44325
-7.43
-7.41659
-7.40351
-7.39131
-7.38058
-7.3719
-7.36579
-7.3627
-7.36294
-7.36675
-7.37424
-7.38544
-7.40029
-7.41874
-7.44065
-7.46586
-7.49421
-7.5255
-7.55951
-7.59602
-7.63484
-7.67574
-7.7185
-7.76287
-7.80857
-7.85537
-7.903
-7.95117
-7.99955
-8.04784
-8.09579
-8.14314
-8.18962
-8.23497
-8.27889
-8.32114
-8.3614
-8.39938
-8.4347
-8.46679
-8.49472
-8.51825
-8.53846
-8.55626
-8.57136
-8.58294
-8.5905
-8.59429
-8.59465
-8.59158
-8.58483
-8.57399
-8.55871
-8.53883
-8.51454
-8.48599
-8.4533
-8.41596
-8.37328
-8.32525
-8.27202
-8.21371
-8.15035
-8.08185