/*--------------------------------*- C++ -*----------------------------------*\
| =========                 |                                                 |
| \\      /  F ield         | OpenFOAM: The Open Source CFD Toolbox           |
|  \\    /   O peration     | Version:  2406                                  |
|   \\  /    A nd           | Website:  www.openfoam.com                      |
|    \\/     M anipulation  |                                                 |
\*---------------------------------------------------------------------------*/
FoamFile
{
    version     2.0;
    format      ascii;
    arch        "LSB;label=32;scalar=64";
    class       surfaceScalarField;
    location    "385";
    object      phi;
}
// * * * * * * * * * * * * * * * * * * * * * * * * * * * * * * * * * * * * * //

dimensions      [0 3 -1 0 0 0 0];

oriented        oriented;

internalField   nonuniform List<scalar> 
24170
(
3.05853e-06
1.29875e-07
2.91721e-06
1.41317e-07
2.79073e-06
1.26482e-07
2.67696e-06
1.13768e-07
2.57501e-06
1.01955e-07
2.48504e-06
8.99692e-08
2.40666e-06
7.83776e-08
2.3389e-06
6.77611e-08
2.28035e-06
5.85548e-08
2.22944e-06
5.0906e-08
2.18508e-06
4.43615e-08
2.1465e-06
3.85766e-08
2.11316e-06
3.33378e-08
2.08468e-06
2.84783e-08
2.06092e-06
2.37668e-08
2.04222e-06
1.87004e-08
2.02981e-06
1.2407e-08
2.56552e-10
2.02955e-06
3.47334e-06
7.3782e-08
3.50554e-06
1.09118e-07
3.52177e-06
1.10253e-07
3.52545e-06
1.10089e-07
3.51929e-06
1.08114e-07
3.5061e-06
1.03165e-07
3.48802e-06
9.64515e-08
3.46664e-06
8.91385e-08
3.44338e-06
8.18221e-08
3.41948e-06
7.47994e-08
3.39567e-06
6.81772e-08
3.37235e-06
6.18988e-08
3.3498e-06
5.58779e-08
3.32829e-06
4.99926e-08
3.30801e-06
4.40498e-08
3.28919e-06
3.75191e-08
3.27166e-06
2.99313e-08
1.94262e-08
3.25249e-06
3.68227e-06
5.40312e-08
3.6998e-06
9.15831e-08
3.71388e-06
9.61734e-08
3.72613e-06
9.78434e-08
3.73616e-06
9.80818e-08
3.74383e-06
9.54974e-08
3.74928e-06
9.09968e-08
3.7527e-06
8.57168e-08
3.75435e-06
8.01763e-08
3.75454e-06
7.46036e-08
3.75361e-06
6.91101e-08
3.75181e-06
6.37029e-08
3.74935e-06
5.83375e-08
3.74642e-06
5.29206e-08
3.74317e-06
4.72957e-08
3.73962e-06
4.10685e-08
3.73543e-06
3.4127e-08
2.56864e-08
3.72917e-06
3.93669e-06
4.27264e-08
3.94883e-06
7.94481e-08
3.95822e-06
8.67787e-08
3.96663e-06
8.94324e-08
3.97428e-06
9.04341e-08
3.98104e-06
8.87374e-08
3.98694e-06
8.50932e-08
3.99207e-06
8.05932e-08
3.99648e-06
7.57682e-08
4.00025e-06
7.08333e-08
4.00348e-06
6.58734e-08
4.00627e-06
6.0914e-08
4.00869e-06
5.59172e-08
4.0108e-06
5.08105e-08
4.01263e-06
4.54672e-08
4.01404e-06
3.96543e-08
4.01481e-06
3.33607e-08
2.64096e-08
4.01409e-06
4.21536e-06
3.44956e-08
4.22546e-06
6.93451e-08
4.23345e-06
7.87942e-08
4.24051e-06
8.23677e-08
4.24706e-06
8.38856e-08
4.25302e-06
8.27797e-08
4.25838e-06
7.97326e-08
4.26322e-06
7.57539e-08
4.2676e-06
7.13824e-08
4.2716e-06
6.68323e-08
4.27528e-06
6.21966e-08
4.27868e-06
5.75096e-08
4.28185e-06
5.27505e-08
4.2848e-06
4.78638e-08
4.2875e-06
4.27635e-08
4.28983e-06
3.73291e-08
4.29159e-06
3.16009e-08
2.56625e-08
4.29233e-06
4.51551e-06
2.80773e-08
4.52437e-06
6.04754e-08
4.53178e-06
7.13867e-08
4.5384e-06
7.57487e-08
4.54459e-06
7.76983e-08
4.55028e-06
7.70867e-08
4.55546e-06
7.45538e-08
4.56019e-06
7.10249e-08
4.56454e-06
6.70335e-08
4.56857e-06
6.27976e-08
4.57234e-06
5.84269e-08
4.57589e-06
5.39653e-08
4.57922e-06
4.94137e-08
4.58235e-06
4.4736e-08
4.58523e-06
3.98882e-08
4.58773e-06
3.48232e-08
4.58972e-06
2.96151e-08
2.44266e-08
4.59095e-06
4.83781e-06
2.29877e-08
4.84573e-06
5.25541e-08
4.85278e-06
6.43411e-08
4.8592e-06
6.93207e-08
4.86528e-06
7.16236e-08
4.87092e-06
7.1445e-08
4.8761e-06
6.93762e-08
4.88086e-06
6.62621e-08
4.88527e-06
6.26228e-08
4.88939e-06
5.86824e-08
4.89325e-06
5.45638e-08
4.89689e-06
5.03236e-08
4.90032e-06
4.59836e-08
4.90353e-06
4.15304e-08
4.90646e-06
3.69549e-08
4.90903e-06
3.2258e-08
4.91111e-06
2.75287e-08
2.29341e-08
4.9126e-06
5.18365e-06
1.89228e-08
5.19074e-06
4.54636e-08
5.19747e-06
5.76104e-08
5.20376e-06
6.30313e-08
5.20979e-06
6.5594e-08
5.21545e-06
6.57829e-08
5.22069e-06
6.41332e-08
5.22555e-06
6.1405e-08
5.23007e-06
5.80999e-08
5.2343e-06
5.44495e-08
5.23828e-06
5.05852e-08
5.24203e-06
4.65772e-08
5.24555e-06
4.24651e-08
5.24882e-06
3.82583e-08
5.2518e-06
3.39739e-08
5.25441e-06
2.96428e-08
5.25659e-06
2.53547e-08
2.12574e-08
5.25827e-06
5.55461e-06
1.56515e-08
5.56094e-06
3.91359e-08
5.56735e-06
5.11922e-08
5.57351e-06
5.68797e-08
5.57949e-06
5.96092e-08
5.58518e-06
6.00915e-08
5.5905e-06
5.8813e-08
5.59547e-06
5.64421e-08
5.60011e-06
5.34552e-08
5.60447e-06
5.00908e-08
5.60857e-06
4.64861e-08
5.61242e-06
4.27241e-08
5.61603e-06
3.88583e-08
5.61937e-06
3.49184e-08
5.6224e-06
3.09393e-08
5.62508e-06
2.69685e-08
5.62734e-06
2.30889e-08
1.9424e-08
5.62918e-06
5.95243e-06
1.2993e-08
5.95806e-06
3.35076e-08
5.96416e-06
4.50947e-08
5.97017e-06
5.08731e-08
5.97609e-06
5.36846e-08
5.9818e-06
5.43838e-08
5.98719e-06
5.34246e-08
5.99225e-06
5.13812e-08
5.99701e-06
4.86972e-08
6.00148e-06
4.56152e-08
6.00569e-06
4.22761e-08
6.00964e-06
3.87729e-08
6.01333e-06
3.51701e-08
6.01674e-06
3.15131e-08
6.01983e-06
2.78477e-08
6.02257e-06
2.42291e-08
6.02493e-06
2.07296e-08
1.74501e-08
6.0269e-06
6.379e-06
1.08072e-08
6.38399e-06
2.8512e-08
6.38976e-06
3.93242e-08
6.39562e-06
4.50178e-08
6.40147e-06
4.7834e-08
6.40718e-06
4.86768e-08
6.41262e-06
4.79815e-08
6.41777e-06
4.62339e-08
6.42263e-06
4.38379e-08
6.42721e-06
4.10344e-08
6.43152e-06
3.7967e-08
6.43555e-06
3.47342e-08
6.43932e-06
3.14087e-08
6.44278e-06
2.80462e-08
6.44593e-06
2.46987e-08
6.44874e-06
2.14225e-08
6.45119e-06
1.8279e-08
1.5349e-08
6.45329e-06
5.74241e-06
9.23244e-09
5.74618e-06
2.47378e-08
5.75081e-06
3.46996e-08
5.75564e-06
4.01856e-08
5.76052e-06
4.2954e-08
5.76533e-06
4.38673e-08
5.76996e-06
4.3349e-08
5.77437e-06
4.18248e-08
5.77855e-06
3.96608e-08
5.78249e-06
3.70895e-08
5.7862e-06
3.4255e-08
5.78968e-06
3.12582e-08
5.79291e-06
2.8176e-08
5.79589e-06
2.50688e-08
5.7986e-06
2.1991e-08
5.80102e-06
1.89968e-08
5.80316e-06
1.61386e-08
1.34858e-08
5.80503e-06
6.99971e-06
7.67443e-09
7.00362e-06
2.0831e-08
7.00861e-06
2.97068e-08
7.01398e-06
3.48163e-08
7.01949e-06
3.74481e-08
7.02497e-06
3.83821e-08
7.0303e-06
3.80184e-08
7.03541e-06
3.67188e-08
7.04027e-06
3.4804e-08
7.04486e-06
3.24933e-08
7.04919e-06
2.99275e-08
7.05324e-06
2.72076e-08
7.05701e-06
2.44114e-08
7.06047e-06
2.16018e-08
7.06363e-06
1.88323e-08
7.06647e-06
1.61533e-08
7.06901e-06
1.36079e-08
1.12542e-08
7.07124e-06
8.53238e-06
6.14286e-09
8.53635e-06
1.68553e-08
8.54166e-06
2.44015e-08
8.54754e-06
2.89334e-08
8.55368e-06
3.13131e-08
8.55986e-06
3.21956e-08
8.56594e-06
3.19443e-08
8.5718e-06
3.08569e-08
8.5774e-06
2.92018e-08
8.58272e-06
2.71769e-08
8.58773e-06
2.49155e-08
8.59242e-06
2.25142e-08
8.59679e-06
2.00485e-08
8.60081e-06
1.75794e-08
8.60448e-06
1.51575e-08
8.60781e-06
1.2827e-08
8.6108e-06
1.06225e-08
8.59108e-09
8.61346e-06
1.04007e-05
4.64153e-09
1.04047e-05
1.2856e-08
1.04103e-05
1.88409e-08
1.04166e-05
2.25694e-08
1.04234e-05
2.45548e-08
1.04303e-05
2.52927e-08
1.04372e-05
2.50917e-08
1.04438e-05
2.41876e-08
1.04502e-05
2.27921e-08
1.04563e-05
2.10722e-08
1.04621e-05
1.91469e-08
1.04675e-05
1.71036e-08
1.04726e-05
1.50109e-08
1.04772e-05
1.2924e-08
1.04815e-05
1.08875e-08
1.04854e-05
8.93832e-09
1.04889e-05
7.10294e-09
5.41924e-09
1.04921e-05
1.26783e-05
3.16328e-09
1.26823e-05
8.836e-09
1.26881e-05
1.30573e-08
1.26949e-05
1.57481e-08
1.27023e-05
1.71717e-08
1.27099e-05
1.76533e-08
1.27176e-05
1.74244e-08
1.27251e-05
1.66588e-08
1.27324e-05
1.55099e-08
1.27394e-05
1.41052e-08
1.2746e-05
1.25411e-08
1.27522e-05
1.08899e-08
1.2758e-05
9.2081e-09
1.27634e-05
7.54132e-09
1.27683e-05
5.92551e-09
1.27729e-05
4.38948e-09
1.2777e-05
2.95205e-09
1.64315e-09
1.27808e-05
1.54547e-05
1.68104e-09
1.54588e-05
4.73381e-09
1.54648e-05
7.00575e-09
1.54721e-05
8.43184e-09
1.54802e-05
9.11292e-09
1.54886e-05
9.21378e-09
1.54972e-05
8.87016e-09
1.55057e-05
8.18868e-09
1.55139e-05
7.26365e-09
1.55218e-05
6.17647e-09
1.55294e-05
4.99205e-09
1.55365e-05
3.76087e-09
1.55432e-05
2.52299e-09
1.55494e-05
1.31054e-09
1.55552e-05
1.48692e-10
1.55605e-05
-9.42851e-10
1.55654e-05
-1.95238e-09
-2.85738e-09
1.55699e-05
1.88392e-05
1.30504e-10
1.88436e-05
3.70435e-10
1.88501e-05
4.72172e-10
1.88581e-05
4.12005e-10
1.8867e-05
1.75806e-10
1.88765e-05
-2.23775e-10
1.88861e-05
-7.61134e-10
1.88957e-05
-1.40511e-09
1.89051e-05
-2.12401e-09
1.89142e-05
-2.88863e-09
1.89228e-05
-3.67312e-09
1.8931e-05
-4.455e-09
1.89388e-05
-5.21517e-09
1.8946e-05
-5.93777e-09
1.89528e-05
-6.61022e-09
1.89591e-05
-7.22256e-09
1.89649e-05
-7.76994e-09
-8.237e-09
1.89703e-05
2.29651e-05
-1.64895e-09
2.29702e-05
-4.6974e-09
2.29778e-05
-7.12045e-09
2.29871e-05
-8.90139e-09
2.29975e-05
-1.01974e-08
2.30084e-05
-1.11793e-08
2.30196e-05
-1.19484e-08
2.30308e-05
-1.25583e-08
2.30417e-05
-1.30493e-08
2.30522e-05
-1.34532e-08
2.30624e-05
-1.37906e-08
2.3072e-05
-1.40717e-08
2.30811e-05
-1.43017e-08
2.30896e-05
-1.44832e-08
2.30976e-05
-1.46175e-08
2.31051e-05
-1.47045e-08
2.31121e-05
-1.47462e-08
-1.47342e-08
2.31186e-05
1.68122e-05
-3.12756e-09
1.68163e-05
-8.81608e-09
1.68223e-05
-1.31356e-08
1.68295e-05
-1.60883e-08
1.68374e-05
-1.80491e-08
1.68455e-05
-1.93702e-08
1.68538e-05
-2.02383e-08
1.6862e-05
-2.07629e-08
1.687e-05
-2.10407e-08
1.68777e-05
-2.11502e-08
1.68851e-05
-2.11429e-08
1.68921e-05
-2.10504e-08
1.68987e-05
-2.08935e-08
1.69049e-05
-2.06869e-08
1.69107e-05
-2.04398e-08
1.69161e-05
-2.01581e-08
1.69212e-05
-1.98465e-08
-1.95006e-08
1.6926e-05
1.46362e-05
-4.71044e-09
1.46405e-05
-1.31279e-08
1.46465e-05
-1.91671e-08
1.46534e-05
-2.30053e-08
1.46608e-05
-2.54056e-08
1.46683e-05
-2.69189e-08
1.46759e-05
-2.77786e-08
1.46832e-05
-2.81418e-08
1.46904e-05
-2.81654e-08
1.46972e-05
-2.79689e-08
1.47037e-05
-2.76258e-08
1.47098e-05
-2.71829e-08
1.47156e-05
-2.66734e-08
1.4721e-05
-2.61206e-08
1.47261e-05
-2.55393e-08
1.47309e-05
-2.49385e-08
1.47354e-05
-2.43245e-08
-2.36944e-08
1.47396e-05
1.2742e-05
-6.5575e-09
1.27468e-05
-1.79411e-08
1.27531e-05
-2.54603e-08
1.27599e-05
-2.98338e-08
1.2767e-05
-3.24535e-08
1.27741e-05
-3.4021e-08
1.2781e-05
-3.47605e-08
1.27878e-05
-3.48825e-08
1.27942e-05
-3.4609e-08
1.28003e-05
-3.40906e-08
1.28061e-05
-3.3413e-08
1.28116e-05
-3.26336e-08
1.28167e-05
-3.17949e-08
1.28215e-05
-3.09265e-08
1.2826e-05
-3.00465e-08
1.28302e-05
-2.9165e-08
1.28342e-05
-2.82883e-08
-2.74142e-08
1.28379e-05
1.10932e-05
-8.87403e-09
1.10988e-05
-2.35132e-08
1.11055e-05
-3.21132e-08
1.11123e-05
-3.66248e-08
1.11191e-05
-3.92772e-08
1.11258e-05
-4.07732e-08
1.11324e-05
-4.12835e-08
1.11386e-05
-4.10963e-08
1.11445e-05
-4.04949e-08
1.115e-05
-3.96442e-08
1.11552e-05
-3.86338e-08
1.11601e-05
-3.75291e-08
1.11647e-05
-3.63798e-08
1.1169e-05
-3.52198e-08
1.1173e-05
-3.40688e-08
1.11768e-05
-3.2937e-08
1.11803e-05
-3.18294e-08
-3.0742e-08
1.11837e-05
9.65831e-06
-1.19681e-08
9.66482e-06
-3.00279e-08
9.67181e-06
-3.91002e-08
9.67856e-06
-4.33734e-08
9.68521e-06
-4.59316e-08
9.69168e-06
-4.72406e-08
9.69782e-06
-4.74251e-08
9.70361e-06
-4.68807e-08
9.70904e-06
-4.59332e-08
9.71415e-06
-4.47455e-08
9.71892e-06
-4.34051e-08
9.72337e-06
-4.19843e-08
9.72753e-06
-4.05384e-08
9.73142e-06
-3.91047e-08
9.73505e-06
-3.7703e-08
9.73846e-06
-3.6344e-08
9.74166e-06
-3.5031e-08
-3.37565e-08
9.74467e-06
8.40965e-06
-1.62612e-08
8.4172e-06
-3.75836e-08
8.42445e-06
-4.63496e-08
8.43118e-06
-5.01062e-08
8.43775e-06
-5.24977e-08
8.44403e-06
-5.35224e-08
8.44991e-06
-5.33071e-08
8.4554e-06
-5.23704e-08
8.46053e-06
-5.10595e-08
8.46531e-06
-4.95241e-08
8.46975e-06
-4.78496e-08
8.47388e-06
-4.61131e-08
8.47772e-06
-4.43749e-08
8.48129e-06
-4.26743e-08
8.48462e-06
-4.10315e-08
8.48773e-06
-3.94573e-08
8.49065e-06
-3.79537e-08
-3.64992e-08
8.49339e-06
7.32323e-06
-2.22051e-08
7.33197e-06
-4.63284e-08
7.33962e-06
-5.40002e-08
7.34657e-06
-5.70552e-08
7.35326e-06
-5.91869e-08
7.35956e-06
-5.98216e-08
7.3654e-06
-5.91422e-08
7.3708e-06
-5.77747e-08
7.37581e-06
-5.60701e-08
7.38045e-06
-5.41603e-08
7.38473e-06
-5.21299e-08
7.38867e-06
-5.00583e-08
7.39231e-06
-4.80116e-08
7.39567e-06
-4.60287e-08
7.39877e-06
-4.41337e-08
7.40165e-06
-4.23399e-08
7.40435e-06
-4.06495e-08
-3.90336e-08
7.40688e-06
6.37841e-06
-3.05441e-08
6.38903e-06
-5.69531e-08
6.39779e-06
-6.27595e-08
6.40576e-06
-6.50191e-08
6.41325e-06
-6.66836e-08
6.42014e-06
-6.67056e-08
6.42641e-06
-6.54165e-08
6.43214e-06
-6.35071e-08
6.43738e-06
-6.13083e-08
6.44215e-06
-5.89286e-08
6.44647e-06
-5.64524e-08
6.45037e-06
-5.39597e-08
6.45389e-06
-5.15256e-08
6.45704e-06
-4.91815e-08
6.45987e-06
-4.69585e-08
6.46242e-06
-4.48948e-08
6.46475e-06
-4.2975e-08
-4.11526e-08
6.46686e-06
5.56032e-06
-4.53947e-08
5.5755e-06
-7.2136e-08
5.58802e-06
-7.52757e-08
5.59945e-06
-7.64484e-08
5.60971e-06
-7.69507e-08
5.61865e-06
-7.56445e-08
5.62637e-06
-7.3133e-08
5.63298e-06
-7.01185e-08
5.63856e-06
-6.68903e-08
5.64318e-06
-6.35477e-08
5.6469e-06
-6.01718e-08
5.64979e-06
-5.68494e-08
5.65194e-06
-5.36727e-08
5.65342e-06
-5.06663e-08
5.65433e-06
-4.78592e-08
5.65477e-06
-4.53404e-08
5.65488e-06
-4.30814e-08
-4.12604e-08
5.65499e-06
4.86996e-06
-8.77496e-08
4.90265e-06
-1.04818e-07
4.92483e-06
-9.74602e-08
4.93951e-06
-9.11239e-08
4.94788e-06
-8.53173e-08
4.95118e-06
-7.89457e-08
4.95044e-06
-7.23978e-08
4.94646e-06
-6.61345e-08
4.93986e-06
-6.02945e-08
4.9312e-06
-5.4886e-08
4.92093e-06
-4.99032e-08
4.90945e-06
-4.53606e-08
4.89706e-06
-4.12922e-08
4.88418e-06
-3.77796e-08
4.87115e-06
-3.48307e-08
4.85815e-06
-3.2343e-08
4.84532e-06
-3.02463e-08
-2.89745e-08
4.83303e-06
4.11493e-06
4.01011e-06
3.91265e-06
3.82152e-06
3.73621e-06
3.65726e-06
3.58486e-06
3.51873e-06
3.45843e-06
3.40355e-06
3.35365e-06
3.30829e-06
3.26699e-06
3.22921e-06
3.19438e-06
3.16204e-06
3.13179e-06
3.10282e-06
-1.03576e-08
1.03573e-08
-2.78697e-08
1.75112e-08
-4.74329e-08
1.95628e-08
-6.56549e-08
1.82211e-08
-7.73011e-08
1.1646e-08
-7.4449e-08
-2.85324e-09
-5.2513e-08
-2.19357e-08
-1.31891e-08
-3.93251e-08
3.88195e-08
-5.2008e-08
9.82851e-08
-5.94669e-08
1.59613e-07
-6.13273e-08
2.18659e-07
-5.90468e-08
2.7271e-07
-5.40505e-08
3.20069e-07
-4.736e-08
3.59786e-07
-3.97165e-08
3.91371e-07
-3.15854e-08
4.1457e-07
-2.31985e-08
4.29186e-07
-1.46156e-08
4.3492e-07
-5.73348e-09
4.31346e-07
3.57385e-09
4.18227e-07
1.31192e-08
3.9574e-07
2.24871e-08
3.64429e-07
3.13118e-08
3.25201e-07
3.92281e-08
2.79407e-07
4.57954e-08
2.28935e-07
5.0472e-08
1.76271e-07
5.26663e-08
1.2444e-07
5.18326e-08
7.68218e-08
4.76206e-08
3.66869e-08
4.01375e-08
6.34508e-09
3.03457e-08
-1.39558e-08
2.03044e-08
-2.64145e-08
1.24624e-08
-3.3849e-08
7.43809e-09
-3.88046e-08
4.95895e-09
-4.26896e-08
3.88851e-09
-4.45873e-08
1.90098e-09
-4.04789e-08
-4.10533e-09
-2.65397e-08
-1.3937e-08
-1.25251e-09
-2.5285e-08
3.4239e-08
-3.54905e-08
7.44298e-08
-4.01897e-08
1.12286e-07
-3.78561e-08
1.42455e-07
-3.01682e-08
1.62234e-07
-1.97791e-08
1.71186e-07
-8.95206e-09
1.70748e-07
4.37638e-10
1.6492e-07
5.8272e-09
1.58397e-07
6.52283e-09
1.54613e-07
3.78326e-09
1.59158e-07
-4.54677e-09
1.73003e-07
-1.38458e-08
1.77892e-07
-4.89012e-09
1.59041e-07
1.88496e-08
1.06154e-07
5.28851e-08
1.20908e-08
9.40619e-08
-1.21201e-07
1.3329e-07
-2.82709e-07
1.61507e-07
-4.61947e-07
1.79236e-07
-6.49889e-07
1.8794e-07
-8.3877e-07
1.8888e-07
-1.02221e-06
1.83438e-07
-1.19553e-06
1.73319e-07
-1.35588e-06
1.60349e-07
-1.50191e-06
1.46031e-07
-1.63344e-06
1.31529e-07
-1.75112e-06
1.17674e-07
-1.85605e-06
1.04936e-07
-1.94959e-06
9.35372e-08
-2.03313e-06
8.35399e-08
-2.10802e-06
7.48887e-08
-2.17549e-06
6.74646e-08
-2.2366e-06
6.11161e-08
-2.29229e-06
5.56832e-08
-2.3433e-06
5.10151e-08
-2.39028e-06
4.69761e-08
-2.43373e-06
4.34495e-08
-2.47407e-06
4.03392e-08
-2.51164e-06
3.75633e-08
-2.54669e-06
3.50563e-08
-2.57946e-06
3.2765e-08
-2.61011e-06
3.06471e-08
-2.63878e-06
2.86687e-08
-2.66558e-06
2.68027e-08
-2.69061e-06
2.5027e-08
-2.71394e-06
2.33237e-08
-2.73562e-06
2.16782e-08
-2.7557e-06
2.0078e-08
-2.77421e-06
1.85123e-08
-2.79119e-06
1.69709e-08
-2.80663e-06
1.54446e-08
-2.82056e-06
1.39238e-08
-2.83296e-06
1.23986e-08
-2.84383e-06
1.08585e-08
-2.85312e-06
9.29291e-09
-2.86082e-06
7.69122e-09
-2.86686e-06
6.04191e-09
-2.8712e-06
4.33115e-09
-2.87375e-06
2.55415e-09
-2.87452e-06
7.60491e-10
-2.87363e-06
-8.92318e-10
-2.87131e-06
-2.32331e-09
-2.86767e-06
-3.6392e-09
-2.86274e-06
-4.92791e-09
-2.85654e-06
-6.20767e-09
-2.84905e-06
-7.48655e-09
-2.84029e-06
-8.76547e-09
-2.83025e-06
-1.00443e-08
-2.81893e-06
-1.13222e-08
-2.80633e-06
-1.25982e-08
-2.79246e-06
-1.38712e-08
-2.77733e-06
-1.514e-08
-2.76093e-06
-1.64035e-08
-2.74327e-06
-1.76605e-08
-2.72437e-06
-1.89098e-08
-2.70422e-06
-2.01502e-08
-2.68285e-06
-2.13802e-08
-2.66025e-06
-2.25989e-08
-2.63645e-06
-2.38048e-08
-2.61146e-06
-2.49973e-08
-2.58529e-06
-2.61753e-08
-2.55796e-06
-2.73379e-08
-2.52949e-06
-2.84828e-08
-2.49989e-06
-2.96085e-08
-2.46919e-06
-3.07109e-08
-2.43741e-06
-3.17859e-08
-2.4046e-06
-3.28251e-08
-2.37078e-06
-3.38239e-08
-2.336e-06
-3.47804e-08
-2.30033e-06
-3.56832e-08
-2.2637e-06
-3.66329e-08
-2.22607e-06
-3.76303e-08
-2.18751e-06
-3.8563e-08
-2.14806e-06
-3.94483e-08
-2.10775e-06
-4.02994e-08
-2.06662e-06
-4.11216e-08
-2.0247e-06
-4.19114e-08
-1.98201e-06
-4.26714e-08
-1.93859e-06
-4.34004e-08
-1.89447e-06
-4.40992e-08
-1.84968e-06
-4.47683e-08
-1.80425e-06
-4.54085e-08
-1.7582e-06
-4.60198e-08
-1.71158e-06
-4.66023e-08
-1.6644e-06
-4.71562e-08
-1.6167e-06
-4.76811e-08
-1.5685e-06
-4.81818e-08
-1.51983e-06
-4.86499e-08
-1.47072e-06
-4.90965e-08
-1.42119e-06
-4.95102e-08
-1.37128e-06
-4.98999e-08
-1.32101e-06
-5.02543e-08
-1.27041e-06
-5.05841e-08
-1.21952e-06
-5.08787e-08
-1.16835e-06
-5.11541e-08
-1.11694e-06
-5.14013e-08
-1.06529e-06
-5.1639e-08
-1.01342e-06
-5.18576e-08
-9.61334e-07
-5.2076e-08
-9.09043e-07
-5.22827e-08
-8.56542e-07
-5.24929e-08
-8.03842e-07
-5.26938e-08
-7.50946e-07
-5.28916e-08
-6.97857e-07
-5.30851e-08
-6.44585e-07
-5.32695e-08
-5.91128e-07
-5.34545e-08
-5.37488e-07
-5.36404e-08
-4.83657e-07
-5.38317e-08
-4.2963e-07
-5.40286e-08
-3.75407e-07
-5.42259e-08
-3.20999e-07
-5.44123e-08
-2.66442e-07
-5.45621e-08
-2.1181e-07
-5.46395e-08
-1.5723e-07
-5.45877e-08
-1.02913e-07
-5.4327e-08
-4.92982e-08
-5.36264e-08
2.92918e-09
-5.224e-08
5.21078e-08
-4.919e-08
9.77863e-08
-4.56881e-08
-2.03706e-08
1.18154e-07
-4.05729e-09
1.44141e-08
-1.19876e-08
2.544e-08
-1.75551e-08
2.51297e-08
-1.34474e-08
1.41115e-08
7.96907e-09
-9.77072e-09
4.67726e-08
-4.1658e-08
9.91093e-08
-7.42722e-08
1.59329e-07
-9.95455e-08
2.21453e-07
-1.14132e-07
2.807e-07
-1.18714e-07
3.34789e-07
-1.15416e-07
3.82539e-07
-1.06798e-07
4.23596e-07
-9.51072e-08
4.58086e-07
-8.18502e-08
4.86325e-07
-6.79555e-08
5.08691e-07
-5.3952e-08
5.25589e-07
-4.0096e-08
5.37452e-07
-2.64787e-08
5.44837e-07
-1.31177e-08
5.48318e-07
9.26019e-11
5.48073e-07
1.33643e-08
5.43696e-07
2.68643e-08
5.34429e-07
4.05793e-08
5.19366e-07
5.42921e-08
4.97603e-07
6.75589e-08
4.68403e-07
7.9673e-08
4.31399e-07
8.96717e-08
3.86803e-07
9.6429e-08
3.3555e-07
9.8876e-08
2.79383e-07
9.63063e-08
2.21001e-07
8.87293e-08
1.64263e-07
7.70457e-08
1.14136e-07
6.2592e-08
7.48743e-08
4.67045e-08
4.91395e-08
3.06988e-08
3.79104e-08
1.51239e-08
4.09054e-08
-1.0886e-09
5.56869e-08
-1.88825e-08
8.06281e-08
-3.88758e-08
1.13708e-07
-5.83632e-08
1.48506e-07
-7.0287e-08
1.78459e-07
-7.01429e-08
1.99725e-07
-5.91211e-08
2.10802e-07
-4.12449e-08
2.12505e-07
-2.14829e-08
2.06451e-07
-2.89754e-09
1.94372e-07
1.25158e-08
1.80516e-07
1.9683e-08
1.64904e-07
2.21342e-08
1.32281e-07
3.64052e-08
6.32788e-08
6.44538e-08
-5.93712e-08
1.08803e-07
-2.29197e-07
1.64935e-07
-4.27577e-07
2.17229e-07
-6.37459e-07
2.62766e-07
-8.46009e-07
3.02612e-07
-1.04599e-06
3.33275e-07
-1.23463e-06
3.50138e-07
-1.4082e-06
3.52809e-07
-1.56382e-06
3.43558e-07
-1.7002e-06
3.2526e-07
-1.81775e-06
3.00986e-07
-1.91806e-06
2.73632e-07
-2.00335e-06
2.45637e-07
-2.07609e-06
2.18771e-07
-2.13867e-06
1.94111e-07
-2.19317e-06
1.72177e-07
-2.24132e-06
1.53077e-07
-2.28445e-06
1.36674e-07
-2.32361e-06
1.227e-07
-2.35956e-06
1.1083e-07
-2.39283e-06
1.00735e-07
-2.42382e-06
9.21099e-08
-2.45282e-06
8.46825e-08
-2.48003e-06
7.82251e-08
-2.50561e-06
7.255e-08
-2.52966e-06
6.75006e-08
-2.55227e-06
6.29508e-08
-2.57351e-06
5.88001e-08
-2.59342e-06
5.49689e-08
-2.61205e-06
5.13938e-08
-2.62943e-06
4.80243e-08
-2.64558e-06
4.482e-08
-2.66053e-06
4.17488e-08
-2.67429e-06
3.87843e-08
-2.68687e-06
3.59052e-08
-2.69829e-06
3.30939e-08
-2.70855e-06
3.03355e-08
-2.71765e-06
2.76173e-08
-2.72561e-06
2.49281e-08
-2.73243e-06
2.22582e-08
-2.73811e-06
1.95992e-08
-2.74266e-06
1.69439e-08
-2.74609e-06
1.42867e-08
-2.74842e-06
1.16243e-08
-2.74969e-06
8.95579e-09
-2.74993e-06
6.28373e-09
-2.74922e-06
3.61768e-09
-2.74765e-06
9.81952e-10
-2.7453e-06
-1.5899e-09
-2.74209e-06
-4.10712e-09
-2.7378e-06
-6.61892e-09
-2.73229e-06
-9.1422e-09
-2.72556e-06
-1.1668e-08
-2.71757e-06
-1.41961e-08
-2.70833e-06
-1.67273e-08
-2.69784e-06
-1.92608e-08
-2.68609e-06
-2.1795e-08
-2.67308e-06
-2.4328e-08
-2.65883e-06
-2.68577e-08
-2.64332e-06
-2.93817e-08
-2.62656e-06
-3.18979e-08
-2.60857e-06
-3.44038e-08
-2.58933e-06
-3.6897e-08
-2.56887e-06
-3.93751e-08
-2.54719e-06
-4.18356e-08
-2.5243e-06
-4.42759e-08
-2.50021e-06
-4.66935e-08
-2.47493e-06
-4.9086e-08
-2.44848e-06
-5.14515e-08
-2.42087e-06
-5.37878e-08
-2.39212e-06
-5.6092e-08
-2.36225e-06
-5.83611e-08
-2.33128e-06
-6.05914e-08
-2.29922e-06
-6.27789e-08
-2.26609e-06
-6.49197e-08
-2.23191e-06
-6.70101e-08
-2.19669e-06
-6.90484e-08
-2.16044e-06
-7.10326e-08
-2.12316e-06
-7.29646e-08
-2.08492e-06
-7.48838e-08
-2.04576e-06
-7.67826e-08
-2.00571e-06
-7.86136e-08
-1.96479e-06
-8.0374e-08
-1.92301e-06
-8.20721e-08
-1.88041e-06
-8.37134e-08
-1.83703e-06
-8.52929e-08
-1.79287e-06
-8.6812e-08
-1.74799e-06
-8.82699e-08
-1.70241e-06
-8.96668e-08
-1.65615e-06
-9.10043e-08
-1.60926e-06
-9.22828e-08
-1.56177e-06
-9.35028e-08
-1.51369e-06
-9.46643e-08
-1.46506e-06
-9.57683e-08
-1.41592e-06
-9.68145e-08
-1.36628e-06
-9.78084e-08
-1.31617e-06
-9.87447e-08
-1.26563e-06
-9.96312e-08
-1.21466e-06
-1.00461e-07
-1.16332e-06
-1.01237e-07
-1.11161e-06
-1.01952e-07
-1.05958e-06
-1.02608e-07
-1.00724e-06
-1.03205e-07
-9.54635e-07
-1.03752e-07
-9.01777e-07
-1.04252e-07
-8.48689e-07
-1.04721e-07
-7.95378e-07
-1.05162e-07
-7.41858e-07
-1.0559e-07
-6.88131e-07
-1.06006e-07
-6.34201e-07
-1.06418e-07
-5.80069e-07
-1.06823e-07
-5.25743e-07
-1.07215e-07
-4.71225e-07
-1.07602e-07
-4.16522e-07
-1.07972e-07
-3.61634e-07
-1.08342e-07
-3.06562e-07
-1.08714e-07
-2.51299e-07
-1.09097e-07
-1.9584e-07
-1.0949e-07
-1.40182e-07
-1.09888e-07
-8.43319e-08
-1.10266e-07
-2.83125e-08
-1.10587e-07
2.78332e-08
-1.10791e-07
8.40075e-08
-1.10769e-07
1.40008e-07
-1.10335e-07
1.95534e-07
-1.09161e-07
2.49998e-07
-1.06713e-07
3.02847e-07
-1.02048e-07
3.50512e-07
-9.33609e-08
-6.60711e-08
3.96208e-07
1.32164e-09
1.30922e-08
4.61834e-09
2.21422e-08
1.7037e-08
1.27106e-08
4.90921e-08
-1.79444e-08
1.02454e-07
-6.31325e-08
1.69164e-07
-1.08368e-07
2.36957e-07
-1.42065e-07
2.97741e-07
-1.6033e-07
3.4841e-07
-1.64801e-07
3.88997e-07
-1.59302e-07
4.21137e-07
-1.47555e-07
4.46683e-07
-1.32345e-07
4.67093e-07
-1.15517e-07
4.83393e-07
-9.8151e-08
4.96259e-07
-8.08207e-08
5.06112e-07
-6.38061e-08
5.13239e-07
-4.72221e-08
5.17855e-07
-3.10949e-08
5.2015e-07
-1.54124e-08
5.20379e-07
-1.36332e-10
5.18923e-07
1.48203e-08
5.16179e-07
2.96087e-08
5.12399e-07
4.43603e-08
5.07558e-07
5.91328e-08
5.01264e-07
7.38544e-08
4.92683e-07
8.82549e-08
4.80559e-07
1.01797e-07
4.63364e-07
1.13625e-07
4.39653e-07
1.22589e-07
4.08578e-07
1.27382e-07
3.70507e-07
1.26802e-07
3.2749e-07
1.20064e-07
2.83105e-07
1.06979e-07
2.41745e-07
8.80666e-08
2.07928e-07
6.45177e-08
1.85387e-07
3.76678e-08
1.75812e-07
8.48858e-09
1.78544e-07
-2.16129e-08
1.90646e-07
-5.09765e-08
2.0458e-07
-7.22956e-08
2.11539e-07
-7.72457e-08
2.07975e-07
-6.65789e-08
1.94409e-07
-4.55547e-08
1.71967e-07
-1.88021e-08
1.427e-07
7.78401e-09
1.06731e-07
3.30709e-08
5.59549e-08
6.32919e-08
-2.38119e-08
9.94494e-08
-1.45529e-07
1.43851e-07
-3.0859e-07
1.99466e-07
-5.02992e-07
2.58855e-07
-7.10886e-07
3.16697e-07
-9.14566e-07
3.68615e-07
-1.10692e-06
4.09577e-07
-1.28199e-06
4.37838e-07
-1.4332e-06
4.53826e-07
-1.55745e-06
4.57518e-07
-1.6568e-06
4.49487e-07
-1.73544e-06
4.31452e-07
-1.79787e-06
4.05992e-07
-1.84853e-06
3.75914e-07
-1.8913e-06
3.43756e-07
-1.92924e-06
3.11577e-07
-1.96446e-06
2.80857e-07
-1.99822e-06
2.52525e-07
-2.03115e-06
2.27041e-07
-2.06349e-06
2.04519e-07
-2.09526e-06
1.84844e-07
-2.12635e-06
1.67771e-07
-2.15665e-06
1.52996e-07
-2.18602e-06
1.40203e-07
-2.21437e-06
1.29082e-07
-2.24162e-06
1.19357e-07
-2.26772e-06
1.10782e-07
-2.29265e-06
1.03151e-07
-2.31638e-06
9.62884e-08
-2.33893e-06
9.005e-08
-2.3603e-06
8.43167e-08
-2.38049e-06
7.89921e-08
-2.39952e-06
7.39985e-08
-2.4174e-06
6.92732e-08
-2.43415e-06
6.47655e-08
-2.44976e-06
6.04344e-08
-2.46426e-06
5.62465e-08
-2.47765e-06
5.21744e-08
-2.48994e-06
4.81957e-08
-2.50114e-06
4.42915e-08
-2.51125e-06
4.04459e-08
-2.52028e-06
3.66455e-08
-2.52823e-06
3.28786e-08
-2.53511e-06
2.91353e-08
-2.54092e-06
2.54075e-08
-2.54567e-06
2.16886e-08
-2.54936e-06
1.79746e-08
-2.552e-06
1.42634e-08
-2.5536e-06
1.05556e-08
-2.55417e-06
6.85376e-09
-2.55372e-06
3.16359e-09
-2.55223e-06
-5.06821e-10
-2.54967e-06
-4.15722e-09
-2.54597e-06
-7.80904e-09
-2.5411e-06
-1.14871e-08
-2.53505e-06
-1.5192e-08
-2.5278e-06
-1.8914e-08
-2.51935e-06
-2.26482e-08
-2.50969e-06
-2.63914e-08
-2.49881e-06
-3.01403e-08
-2.48672e-06
-3.38918e-08
-2.4734e-06
-3.76427e-08
-2.45887e-06
-4.13895e-08
-2.44313e-06
-4.51288e-08
-2.42617e-06
-4.88573e-08
-2.408e-06
-5.25712e-08
-2.38864e-06
-5.6267e-08
-2.36807e-06
-5.99411e-08
-2.34632e-06
-6.35896e-08
-2.32339e-06
-6.72088e-08
-2.29929e-06
-7.07949e-08
-2.27404e-06
-7.43446e-08
-2.24764e-06
-7.78544e-08
-2.22011e-06
-8.13212e-08
-2.19146e-06
-8.47407e-08
-2.16172e-06
-8.81087e-08
-2.1309e-06
-9.14203e-08
-2.09901e-06
-9.46709e-08
-2.06608e-06
-9.78564e-08
-2.03212e-06
-1.00974e-07
-1.99715e-06
-1.04022e-07
-1.96119e-06
-1.06999e-07
-1.92425e-06
-1.09907e-07
-1.88637e-06
-1.1276e-07
-1.8476e-06
-1.15552e-07
-1.80796e-06
-1.18259e-07
-1.76745e-06
-1.20875e-07
-1.72612e-06
-1.23403e-07
-1.68399e-06
-1.25846e-07
-1.64107e-06
-1.28201e-07
-1.59741e-06
-1.30467e-07
-1.55303e-06
-1.32642e-07
-1.50796e-06
-1.34727e-07
-1.46223e-06
-1.36722e-07
-1.41587e-06
-1.38629e-07
-1.36892e-06
-1.40448e-07
-1.3214e-06
-1.42179e-07
-1.27334e-06
-1.43823e-07
-1.22476e-06
-1.45381e-07
-1.17571e-06
-1.46859e-07
-1.12619e-06
-1.48254e-07
-1.07624e-06
-1.49573e-07
-1.02589e-06
-1.50813e-07
-9.75148e-07
-1.51971e-07
-9.24053e-07
-1.53042e-07
-8.72633e-07
-1.54024e-07
-8.20913e-07
-1.54921e-07
-7.68923e-07
-1.55738e-07
-7.16681e-07
-1.5649e-07
-6.6421e-07
-1.57189e-07
-6.11518e-07
-1.5785e-07
-5.58621e-07
-1.58485e-07
-5.05519e-07
-1.59106e-07
-4.52219e-07
-1.59716e-07
-3.9872e-07
-1.6032e-07
-3.45029e-07
-1.60904e-07
-2.91151e-07
-1.61479e-07
-2.37089e-07
-1.62033e-07
-1.82846e-07
-1.62584e-07
-1.28421e-07
-1.63138e-07
-7.38081e-08
-1.63708e-07
-1.89999e-08
-1.64298e-07
3.60096e-08
-1.64896e-07
9.12123e-08
-1.65468e-07
1.46585e-07
-1.65958e-07
2.02075e-07
-1.6628e-07
2.57594e-07
-1.66287e-07
3.13002e-07
-1.65743e-07
3.6809e-07
-1.64249e-07
4.22529e-07
-1.61151e-07
4.75882e-07
-1.55401e-07
5.27159e-07
-1.44636e-07
-1.18817e-07
5.79907e-07
-8.06622e-10
1.38987e-08
9.56899e-09
1.17659e-08
4.77619e-08
-2.54825e-08
1.15117e-07
-8.53003e-08
1.94133e-07
-1.42148e-07
2.66445e-07
-1.80681e-07
3.22783e-07
-1.98404e-07
3.62357e-07
-1.99905e-07
3.88702e-07
-1.91146e-07
4.06181e-07
-1.76781e-07
4.18301e-07
-1.59675e-07
4.27322e-07
-1.41366e-07
4.34449e-07
-1.22644e-07
4.40211e-07
-1.03914e-07
4.44784e-07
-8.53931e-08
4.48177e-07
-6.71993e-08
4.50357e-07
-4.94022e-08
4.51302e-07
-3.20399e-08
4.51022e-07
-1.51322e-08
4.49573e-07
1.31239e-09
4.47082e-07
1.73116e-08
4.43784e-07
3.29067e-08
4.39998e-07
4.81473e-08
4.36056e-07
6.30757e-08
4.32216e-07
7.76947e-08
4.28545e-07
9.19275e-08
4.24782e-07
1.05561e-07
4.20222e-07
1.18186e-07
4.13708e-07
1.29104e-07
4.03842e-07
1.3725e-07
3.89417e-07
1.41229e-07
3.69959e-07
1.39524e-07
3.46111e-07
1.30829e-07
3.19813e-07
1.14366e-07
2.93988e-07
9.03443e-08
2.71777e-07
5.98804e-08
2.55365e-07
2.49029e-08
2.44573e-07
-1.08196e-08
2.33322e-07
-3.97243e-08
2.1342e-07
-5.23925e-08
1.81676e-07
-4.55015e-08
1.38971e-07
-2.38737e-08
8.63455e-08
7.07111e-09
2.12723e-08
4.62713e-08
-6.37608e-08
9.28171e-08
-1.75724e-07
1.45034e-07
-3.15855e-07
2.03423e-07
-4.82503e-07
2.66097e-07
-6.68145e-07
3.29493e-07
-8.5815e-07
3.89471e-07
-1.04074e-06
4.41442e-07
-1.20606e-06
4.82022e-07
-1.34701e-06
5.0956e-07
-1.46163e-06
5.24205e-07
-1.5511e-06
5.27306e-07
-1.61748e-06
5.20206e-07
-1.66464e-06
5.04671e-07
-1.69757e-06
4.82424e-07
-1.72148e-06
4.55353e-07
-1.74075e-06
4.25271e-07
-1.75868e-06
3.93834e-07
-1.77733e-06
3.62407e-07
-1.79779e-06
3.32038e-07
-1.82039e-06
3.03456e-07
-1.84497e-06
2.77106e-07
-1.87112e-06
2.5319e-07
-1.89833e-06
2.31732e-07
-1.92612e-06
2.12629e-07
-1.95404e-06
1.95694e-07
-1.98175e-06
1.80706e-07
-2.00897e-06
1.67423e-07
-2.0355e-06
1.55607e-07
-2.06118e-06
1.45041e-07
-2.08592e-06
1.35524e-07
-2.10965e-06
1.26882e-07
-2.13233e-06
1.18966e-07
-2.15393e-06
1.11649e-07
-2.17444e-06
1.04824e-07
-2.19385e-06
9.84022e-08
-2.21216e-06
9.23126e-08
-2.22939e-06
8.64952e-08
-2.24552e-06
8.0901e-08
-2.26058e-06
7.54898e-08
-2.27456e-06
7.02285e-08
-2.28748e-06
6.50893e-08
-2.29933e-06
6.00495e-08
-2.31013e-06
5.50894e-08
-2.31988e-06
5.01926e-08
-2.32858e-06
4.53446e-08
-2.33623e-06
4.05334e-08
-2.34285e-06
3.57479e-08
-2.34842e-06
3.09792e-08
-2.35295e-06
2.62202e-08
-2.35645e-06
2.14655e-08
-2.3589e-06
1.67117e-08
-2.3603e-06
1.19571e-08
-2.36065e-06
7.20136e-09
-2.35993e-06
2.44487e-09
-2.35812e-06
-2.31289e-09
-2.3552e-06
-7.07857e-09
-2.35115e-06
-1.18668e-08
-2.34594e-06
-1.66897e-08
-2.33959e-06
-2.15456e-08
-2.33208e-06
-2.6427e-08
-2.3234e-06
-3.13278e-08
-2.31355e-06
-3.6243e-08
-2.30252e-06
-4.11676e-08
-2.29032e-06
-4.60972e-08
-2.27693e-06