/*--------------------------------*- C++ -*----------------------------------*\
| =========                 |                                                 |
| \\      /  F ield         | OpenFOAM: The Open Source CFD Toolbox           |
|  \\    /   O peration     | Version:  2406                                  |
|   \\  /    A nd           | Website:  www.openfoam.com                      |
|    \\/     M anipulation  |                                                 |
\*---------------------------------------------------------------------------*/
FoamFile
{
    version     2.0;
    format      ascii;
    arch        "LSB;label=32;scalar=64";
    class       volVectorField;
    location    "385";
    object      U;
}
// * * * * * * * * * * * * * * * * * * * * * * * * * * * * * * * * * * * * * //

dimensions      [0 1 -1 0 0 0 0];

internalField   nonuniform List<vector> 
12225
(
(9.77939 0.0428474 0)
(9.36071 0.077813 0)
(8.95372 0.0840689 0)
(8.57136 0.0811227 0)
(8.22866 0.0747771 0)
(7.92787 0.0667945 0)
(7.66492 0.0582866 0)
(7.4364 0.0498982 0)
(7.23924 0.0422693 0)
(7.06848 0.035819 0)
(6.91931 0.0304063 0)
(6.78978 0.0257814 0)
(6.67705 0.0216585 0)
(6.58039 0.0178984 0)
(6.49829 0.0142235 0)
(6.4309 0.0102735 0)
(6.38135 0.00553945 0)
(6.34517 -0.00379286 0)
(10.0773 0.0566092 0)
(10.2203 0.089747 0)
(10.2974 0.0891967 0)
(10.3212 0.0859949 0)
(10.3131 0.0835172 0)
(10.2834 0.0803483 0)
(10.2371 0.0764246 0)
(10.1785 0.0721961 0)
(10.1122 0.0679232 0)
(10.0423 0.0637715 0)
(9.97226 0.0598806 0)
(9.90289 0.0560947 0)
(9.83575 0.0522962 0)
(9.77094 0.0483076 0)
(9.70982 0.0439553 0)
(9.65194 0.0386233 0)
(9.59934 0.0315062 0)
(9.54476 0.0189132 0)
(10.0189 0.0417901 0)
(10.0766 0.0641403 0)
(10.1244 0.0669024 0)
(10.1594 0.0708203 0)
(10.1882 0.074751 0)
(10.2125 0.0764185 0)
(10.2308 0.0761185 0)
(10.243 0.0747264 0)
(10.2496 0.0727422 0)
(10.2519 0.0704486 0)
(10.2507 0.0678633 0)
(10.2469 0.0649969 0)
(10.2409 0.0618173 0)
(10.2335 0.058252 0)
(10.2249 0.0540992 0)
(10.2155 0.0487692 0)
(10.2053 0.0417797 0)
(10.191 0.030763 0)
(10.0085 0.0306893 0)
(10.0428 0.0546367 0)
(10.0735 0.0614781 0)
(10.0957 0.0662755 0)
(10.115 0.0697872 0)
(10.1333 0.0710816 0)
(10.1497 0.0707468 0)
(10.1638 0.0696037 0)
(10.1758 0.0680319 0)
(10.1862 0.0661586 0)
(10.1951 0.0640159 0)
(10.2027 0.0616205 0)
(10.2093 0.0589175 0)
(10.215 0.0557983 0)
(10.22 0.0520527 0)
(10.2242 0.0472519 0)
(10.2271 0.041158 0)
(10.2276 0.0331859 0)
(10.005 0.0240991 0)
(10.0299 0.0484825 0)
(10.0543 0.05668 0)
(10.072 0.0613219 0)
(10.0872 0.0646871 0)
(10.102 0.0662153 0)
(10.1157 0.0662658 0)
(10.1278 0.0654853 0)
(10.1387 0.0642232 0)
(10.1486 0.0626075 0)
(10.1577 0.0606954 0)
(10.1661 0.0584898 0)
(10.1739 0.0559364 0)
(10.1812 0.0529309 0)
(10.1879 0.0493119 0)
(10.1939 0.0448191 0)
(10.1989 0.0393881 0)
(10.2022 0.0329875 0)
(10.0034 0.0195201 0)
(10.0223 0.0424601 0)
(10.0428 0.0514168 0)
(10.0585 0.0563801 0)
(10.072 0.059981 0)
(10.085 0.061818 0)
(10.0972 0.0621607 0)
(10.1083 0.0616076 0)
(10.1183 0.0605229 0)
(10.1275 0.0590449 0)
(10.1362 0.0572356 0)
(10.1443 0.0550999 0)
(10.1519 0.0526013 0)
(10.159 0.0496575 0)
(10.1657 0.0461592 0)
(10.1718 0.0419622 0)
(10.1768 0.0370804 0)
(10.1806 0.0316461 0)
(10.0024 0.0159812 0)
(10.0169 0.0369233 0)
(10.0344 0.0463556 0)
(10.0488 0.0516777 0)
(10.0612 0.0554387 0)
(10.0732 0.0574661 0)
(10.0845 0.0580193 0)
(10.0948 0.0576519 0)
(10.1043 0.056718 0)
(10.1131 0.0553554 0)
(10.1213 0.053631 0)
(10.129 0.0515594 0)
(10.1364 0.0491232 0)
(10.1432 0.0462641 0)
(10.1496 0.0429177 0)
(10.1554 0.0390181 0)
(10.1602 0.0346228 0)
(10.1641 0.0299168 0)
(10.0017 0.0131409 0)
(10.013 0.031998 0)
(10.0279 0.0416152 0)
(10.041 0.0471378 0)
(10.0526 0.0509398 0)
(10.0638 0.0530858 0)
(10.0744 0.0538119 0)
(10.0842 0.0536086 0)
(10.0932 0.0528094 0)
(10.1016 0.0515527 0)
(10.1095 0.0499108 0)
(10.117 0.0479087 0)
(10.124 0.0455464 0)
(10.1306 0.0427913 0)
(10.1366 0.0396164 0)
(10.1421 0.0360088 0)
(10.1467 0.0320477 0)
(10.1505 0.0279166 0)
(10.0013 0.0108534 0)
(10.0101 0.0276162 0)
(10.0227 0.0371199 0)
(10.0346 0.042699 0)
(10.0454 0.0464677 0)
(10.0558 0.0486799 0)
(10.0658 0.0495422 0)
(10.0751 0.0494757 0)
(10.0837 0.0487908 0)
(10.0918 0.0476303 0)
(10.0994 0.0460692 0)
(10.1066 0.0441443 0)
(10.1133 0.0418703 0)
(10.1196 0.0392391 0)
(10.1254 0.0362519 0)
(10.1305 0.0329299 0)
(10.135 0.0293575 0)
(10.1388 0.0256973 0)
(10.0009 0.00900495 0)
(10.0079 0.0237188 0)
(10.0185 0.0328381 0)
(10.0293 0.0383555 0)
(10.0393 0.0420351 0)
(10.049 0.0442583 0)
(10.0584 0.0452156 0)
(10.0672 0.0452571 0)
(10.0754 0.0446679 0)
(10.0832 0.0435943 0)
(10.0905 0.0421146 0)
(10.0973 0.0402755 0)
(10.1038 0.0381037 0)
(10.1097 0.0356126 0)
(10.1152 0.0328227 0)
(10.1201 0.0297751 0)
(10.1244 0.0265504 0)
(10.1281 0.0232871 0)
(10.0007 0.00749671 0)
(10.0062 0.0202674 0)
(10.0152 0.0287872 0)
(10.0248 0.034123 0)
(10.0341 0.0376573 0)
(10.0431 0.039835 0)
(10.0519 0.0408409 0)
(10.0602 0.0409612 0)
(10.0681 0.0404517 0)
(10.0755 0.0394582 0)
(10.0824 0.038062 0)
(10.089 0.0363161 0)
(10.0951 0.0342588 0)
(10.1008 0.0319186 0)
(10.106 0.0293295 0)
(10.1107 0.0265419 0)
(10.1148 0.0236286 0)
(10.1184 0.0207049 0)
(10.0006 0.00631416 0)
(10.0051 0.0174254 0)
(10.0127 0.0252671 0)
(10.0214 0.030338 0)
(10.03 0.0336928 0)
(10.0384 0.035784 0)
(10.0467 0.036794 0)
(10.0546 0.0369599 0)
(10.0621 0.0365087 0)
(10.0692 0.035582 0)
(10.0758 0.0342629 0)
(10.0821 0.0326092 0)
(10.0879 0.0306662 0)
(10.0934 0.0284721 0)
(10.0983 0.0260682 0)
(10.1028 0.0235073 0)
(10.1068 0.0208533 0)
(10.1103 0.0182043 0)
(10.0005 0.00530899 0)
(10.0042 0.0148738 0)
(10.0108 0.0219407 0)
(10.0186 0.0266641 0)
(10.0265 0.0298031 0)
(10.0344 0.0317735 0)
(10.0421 0.0327546 0)
(10.0496 0.032944 0)
(10.0567 0.0325391 0)
(10.0635 0.031674 0)
(10.0699 0.0304324 0)
(10.0759 0.0288745 0)
(10.0814 0.0270504 0)
(10.0866 0.0250042 0)
(10.0914 0.0227808 0)
(10.0957 0.0204327 0)
(10.0995 0.018015 0)
(10.1029 0.015613 0)
(10.0004 0.00434089 0)
(10.0034 0.0122837 0)
(10.009 0.0183941 0)
(10.0158 0.0226203 0)
(10.0231 0.0254485 0)
(10.0303 0.0272278 0)
(10.0375 0.0281291 0)
(10.0446 0.0283124 0)
(10.0513 0.0279408 0)
(10.0577 0.0271361 0)
(10.0638 0.02598 0)
(10.0695 0.0245337 0)
(10.0748 0.0228487 0)
(10.0797 0.0209722 0)
(10.0842 0.0189499 0)
(10.0883 0.0168307 0)
(10.092 0.0146613 0)
(10.0954 0.0125136 0)
(10.0003 0.00339503 0)
(10.0028 0.00966957 0)
(10.0074 0.0146617 0)
(10.0134 0.0182262 0)
(10.0199 0.0206288 0)
(10.0265 0.0221321 0)
(10.0331 0.0228874 0)
(10.0397 0.0230207 0)
(10.046 0.0226591 0)
(10.052 0.0219071 0)
(10.0577 0.0208405 0)
(10.0631 0.019518 0)
(10.0681 0.0179899 0)
(10.0728 0.0163022 0)
(10.0771 0.0144982 0)
(10.081 0.0126212 0)
(10.0846 0.0107093 0)
(10.0878 0.00882181 0)
(10.0002 0.00246284 0)
(10.0023 0.00704333 0)
(10.0061 0.0107766 0)
(10.0113 0.0135072 0)
(10.017 0.0153505 0)
(10.023 0.0164771 0)
(10.0291 0.0170052 0)
(10.0351 0.0170287 0)
(10.041 0.0166405 0)
(10.0466 0.0159232 0)
(10.052 0.0149415 0)
(10.057 0.0137475 0)
(10.0618 0.0123866 0)
(10.0662 0.0108997 0)
(10.0703 0.00932476 0)
(10.074 0.00769783 0)
(10.0775 0.0060484 0)
(10.0806 0.00442502 0)
(10.0002 0.00153258 0)
(10.0019 0.00438818 0)
(10.0051 0.00673895 0)
(10.0096 0.00846824 0)
(10.0147 0.00960648 0)
(10.0201 0.0102426 0)
(10.0256 0.0104513 0)
(10.0312 0.0102938 0)
(10.0366 0.00983091 0)
(10.0419 0.00911966 0)
(10.0469 0.00820856 0)
(10.0516 0.00713844 0)
(10.0561 0.00594537 0)
(10.0603 0.00466216 0)
(10.0642 0.00331867 0)
(10.0678 0.00194261 0)
(10.0711 0.000555364 0)
(10.0741 -0.000804377 0)
(10.0002 0.000574881 0)
(10.0016 0.00163175 0)
(10.0045 0.00247089 0)
(10.0085 0.00303526 0)
(10.0131 0.00331553 0)
(10.018 0.00333525 0)
(10.0231 0.00312165 0)
(10.0282 0.00270187 0)
(10.0333 0.00210499 0)
(10.0382 0.00136029 0)
(10.0429 0.000495056 0)
(10.0474 -0.000465808 0)
(10.0517 -0.0014992 0)
(10.0556 -0.00258352 0)
(10.0594 -0.00369891 0)
(10.0628 -0.0048268 0)
(10.066 -0.00595356 0)
(10.069 -0.00704983 0)
(10.0002 -0.000480014 0)
(10.0016 -0.00140606 0)
(10.0043 -0.00225114 0)
(10.008 -0.00300944 0)
(10.0124 -0.00372176 0)
(10.0171 -0.00442871 0)
(10.022 -0.00515334 0)
(10.0269 -0.00590513 0)
(10.0317 -0.00668832 0)
(10.0364 -0.00750431 0)
(10.0409 -0.00835091 0)
(10.0452 -0.00922276 0)
(10.0493 -0.0101125 0)
(10.0531 -0.0110119 0)
(10.0568 -0.0119124 0)
(10.0601 -0.012805 0)
(10.0633 -0.0136837 0)
(10.0662 -0.0145286 0)
(10.0002 -0.00151346 0)
(10.0017 -0.00437044 0)
(10.0047 -0.00681446 0)
(10.0088 -0.00878745 0)
(10.0134 -0.0103894 0)
(10.0182 -0.0117396 0)
(10.0231 -0.0129102 0)
(10.0281 -0.0139442 0)
(10.0329 -0.0148793 0)
(10.0376 -0.0157474 0)
(10.0421 -0.0165705 0)
(10.0463 -0.0173611 0)
(10.0504 -0.0181264 0)
(10.0542 -0.01887 0)
(10.0578 -0.0195929 0)
(10.0611 -0.0202941 0)
(10.0643 -0.0209729 0)
(10.0672 -0.021617 0)
(10.0002 -0.00248312 0)
(10.0021 -0.007104 0)
(10.0057 -0.0108909 0)
(10.0103 -0.0137854 0)
(10.0153 -0.0160204 0)
(10.0204 -0.0178149 0)
(10.0256 -0.0192773 0)
(10.0307 -0.020476 0)
(10.0357 -0.0214808 0)
(10.0405 -0.0223511 0)
(10.045 -0.0231269 0)
(10.0493 -0.0238337 0)
(10.0534 -0.0244892 0)
(10.0572 -0.0251055 0)
(10.0608 -0.0256901 0)
(10.0642 -0.0262464 0)
(10.0674 -0.0267772 0)
(10.0703 -0.0272737 0)
(10.0003 -0.00356512 0)
(10.0028 -0.0100492 0)
(10.0072 -0.0150571 0)
(10.0126 -0.0186641 0)
(10.0182 -0.0213592 0)
(10.0238 -0.0234691 0)
(10.0293 -0.0251158 0)
(10.0347 -0.0263922 0)
(10.0399 -0.0274042 0)
(10.0449 -0.0282357 0)
(10.0496 -0.028939 0)
(10.054 -0.0295491 0)
(10.0581 -0.0300922 0)
(10.062 -0.0305877 0)
(10.0657 -0.0310477 0)
(10.0691 -0.0314791 0)
(10.0723 -0.0318861 0)
(10.0753 -0.0322627 0)
(10.0004 -0.00487076 0)
(10.0038 -0.0133902 0)
(10.0096 -0.019437 0)
(10.0161 -0.0235166 0)
(10.0223 -0.0265205 0)
(10.0284 -0.0288353 0)
(10.0344 -0.0305626 0)
(10.0402 -0.0318322 0)
(10.0456 -0.0327945 0)
(10.0508 -0.0335508 0)
(10.0556 -0.0341588 0)
(10.0602 -0.0346596 0)
(10.0645 -0.0350869 0)
(10.0685 -0.0354655 0)
(10.0722 -0.0358109 0)
(10.0757 -0.0361318 0)
(10.079 -0.0364332 0)
(10.0821 -0.03671 0)
(10.0007 -0.00654806 0)
(10.0056 -0.0172794 0)
(10.0131 -0.0240609 0)
(10.0207 -0.0283266 0)
(10.0277 -0.0315122 0)
(10.0344 -0.0339483 0)
(10.0409 -0.0356762 0)
(10.0471 -0.0368777 0)
(10.053 -0.0377489 0)
(10.0584 -0.0384014 0)
(10.0635 -0.0388935 0)
(10.0683 -0.0392729 0)
(10.0728 -0.0395796 0)
(10.0769 -0.0398437 0)
(10.0808 -0.040083 0)
(10.0845 -0.0403076 0)
(10.0879 -0.040522 0)
(10.0911 -0.0407205 0)
(10.0011 -0.00876579 0)
(10.0084 -0.0217975 0)
(10.018 -0.0289777 0)
(10.027 -0.0331556 0)
(10.0348 -0.0363844 0)
(10.0422 -0.0388425 0)
(10.0495 -0.0405077 0)
(10.0563 -0.0416152 0)
(10.0627 -0.0423839 0)
(10.0685 -0.0429217 0)
(10.074 -0.0432858 0)
(10.0791 -0.0435309 0)
(10.0839 -0.0437042 0)
(10.0883 -0.0438412 0)
(10.0924 -0.0439635 0)
(10.0962 -0.0440842 0)
(10.0998 -0.0442065 0)
(10.1031 -0.0443174 0)
(10.0017 -0.0117629 0)
(10.0127 -0.0268871 0)
(10.0252 -0.0342256 0)
(10.0359 -0.0382797 0)
(10.0448 -0.0414464 0)
(10.0534 -0.0437253 0)
(10.0618 -0.0451631 0)
(10.0695 -0.0460855 0)
(10.0766 -0.0467082 0)
(10.0832 -0.0471159 0)
(10.0893 -0.0473566 0)
(10.0949 -0.047485 0)
(10.1001 -0.0475503 0)
(10.1049 -0.0475878 0)
(10.1093 -0.0476222 0)
(10.1134 -0.0476735 0)
(10.1172 -0.0477462 0)
(10.1207 -0.0478072 0)
(10.003 -0.016725 0)
(10.0198 -0.0327136 0)
(10.037 -0.0391955 0)
(10.0507 -0.0433321 0)
(10.0621 -0.0467818 0)
(10.0731 -0.0489824 0)
(10.0836 -0.0501403 0)
(10.0931 -0.0507552 0)
(10.1017 -0.051077 0)
(10.1095 -0.0511858 0)
(10.1166 -0.0511353 0)
(10.1231 -0.0509883 0)
(10.1289 -0.0508046 0)
(10.1342 -0.0506175 0)
(10.1388 -0.0504462 0)
(10.143 -0.050322 0)
(10.1469 -0.0502624 0)
(10.1503 -0.0502114 0)
(10.0087 -0.0254454 0)
(10.0385 -0.0413204 0)
(10.0669 -0.0441076 0)
(10.0884 -0.047078 0)
(10.1069 -0.050797 0)
(10.124 -0.0534744 0)
(10.1393 -0.0550323 0)
(10.1523 -0.0559463 0)
(10.1632 -0.0564603 0)
(10.1724 -0.0566416 0)
(10.1799 -0.0565604 0)
(10.1858 -0.0562925 0)
(10.1904 -0.055932 0)
(10.1936 -0.0555488 0)
(10.1957 -0.0551901 0)
(10.1969 -0.054882 0)
(10.1974 -0.0546425 0)
(10.1972 -0.0545912 0)
(10.0344 -0.0366863 0)
(10.1236 -0.0623213 0)
(10.1857 -0.064262 0)
(10.2214 -0.0631387 0)
(10.2428 -0.0626546 0)
(10.2544 -0.0618546 0)
(10.2571 -0.0606377 0)
(10.252 -0.0592951 0)
(10.2407 -0.0579569 0)
(10.2247 -0.0565954 0)
(10.2049 -0.0552075 0)
(10.1822 -0.0538216 0)
(10.1574 -0.0525008 0)
(10.1309 -0.0512554 0)
(10.104 -0.0501321 0)
(10.077 -0.0492752 0)
(10.0501 -0.0486407 0)
(10.0239 -0.0486321 0)
(9.89107 -0.0284652 0)
(9.66117 -0.0560643 0)
(9.43022 -0.0639487 0)
(9.20268 -0.0656651 0)
(8.98935 -0.065043 0)
(8.79359 -0.0628459 0)
(8.61402 -0.0596281 0)
(8.44945 -0.0559045 0)
(8.29899 -0.0519924 0)
(8.16205 -0.0481216 0)
(8.03749 -0.0443489 0)
(7.92436 -0.0407394 0)
(7.82141 -0.0373644 0)
(7.72773 -0.0343505 0)
(7.64152 -0.0318151 0)
(7.56176 -0.0297365 0)
(7.48735 -0.0280235 0)
(7.41824 -0.0270139 0)
(-0.00348354 0.00958716 -9.80631e-19)
(-0.0160317 0.015677 1.03112e-18)
(-0.0330731 0.0170526 0)
(-0.0517995 0.0145769 0)
(-0.0680489 0.00743234 0)
(-0.0729993 -0.00392956 -6.50827e-19)
(-0.0584455 -0.0188282 0)
(-0.0289618 -0.0358505 0)
(0.0120877 -0.0501202 0)
(0.0606644 -0.0582135 0)
(0.113896 -0.0604647 3.91149e-19)
(0.168023 -0.0585332 0)
(0.219213 -0.0536732 0)
(0.265075 -0.0469143 0)
(0.304376 -0.0390292 0)
(0.336539 -0.0305419 1.89979e-19)
(0.361297 -0.0217524 0)
(0.378467 -0.0127701 0)
(0.388049 -0.00348307 0)
(0.389599 0.00632398 0)
(0.382191 0.0165009 0)
(0.366263 0.0264803 0)
(0.342263 0.035479 0)
(0.310688 0.0426947 2.05435e-19)
(0.272436 0.0473493 -2.27099e-19)
(0.228911 0.0486737 2.58862e-19)
(0.182056 0.0460238 3.05978e-19)
(0.134333 0.0390758 0)
(0.0886349 0.028086 0)
(0.0481754 0.0143912 -6.75438e-19)
(0.0162285 0.00121729 -9.86843e-19)
(-0.00530148 -0.00673142 0)
(-0.0190719 -0.00764465 0)
(-0.027637 -0.00416741 -1.02713e-18)
(-0.0330258 0.000102877 0)
(-0.037464 0.00234192 0)
(-0.0412812 0.00129558 9.1571e-19)
(-0.0409064 -0.00319326 0)
(-0.0319388 -0.0105569 9.56425e-19)
(-0.0129814 -0.0194285 2.24573e-18)
(0.015304 -0.0282135 0)
(0.0492047 -0.0328017 0)
(0.0845914 -0.0320955 0)
(0.116082 -0.0267107 0)
(0.139597 -0.0186392 0)
(0.153206 -0.00994758 7.58288e-19)
(0.157312 -0.00227264 7.61427e-19)
(0.153563 0.00236811 7.68969e-19)
(0.14697 0.00353995 0)
(0.141401 0.00300853 -8.19497e-19)
(0.141614 -0.00179216 0)
(0.151155 -0.0158882 7.64617e-19)
(0.159708 -0.0340287 7.48828e-19)
(0.156443 -0.049732 0)
(0.127682 -0.0479685 0)
(0.0709714 -0.0219007 0)
(-0.0348662 0.0245621 8.40527e-19)
(-0.179948 0.067982 0)
(-0.33882 0.0992701 0)
(-0.509536 0.119787 0)
(-0.684077 0.130675 0)
(-0.856227 0.132998 0)
(-1.02109 0.12868 0)
(-1.17521 0.120337 0)
(-1.31672 0.109933 0)
(-1.44493 0.0988363 -1.02375e-19)
(-1.56018 0.0879883 0)
(-1.66339 0.0779131 0)
(-1.75564 0.0688785 8.87468e-20)
(-1.83822 0.0609768 8.58197e-20)
(-1.91238 0.0541759 0)
(-1.97929 0.0483804 -8.12641e-20)
(-2.03999 0.0434626 7.94341e-20)
(-2.0954 0.0392895 0)
(-2.14627 0.0357365 -7.63533e-20)
(-2.19324 0.032691 0)
(-2.23681 0.0300568 0)
(-2.27741 0.0277567 7.26389e-20)
(-2.31537 0.0257252 0)
(-2.35096 0.0239101 -7.05233e-20)
(-2.38441 0.0222698 0)
(-2.41589 0.0207712 6.85825e-20)
(-2.44553 0.0193877 6.76585e-20)
(-2.47346 0.0180984 6.67579e-20)
(-2.49975 0.016886 1.31752e-19)
(-2.52448 0.0157365 -1.30019e-19)
(-2.54772 0.0146379 0)
(-2.56949 0.0135799 0)
(-2.58984 0.0125531 0)
(-2.60879 0.0115484 -1.23265e-19)
(-2.62636 0.010557 -1.21599e-19)
(-2.64255 0.00956998 1.19934e-19)
(-2.65736 0.00857812 0)
(-2.67078 0.00757203 -1.166e-19)
(-2.68278 0.00654276 -1.14927e-19)
(-2.69333 0.00548244 -1.13249e-19)
(-2.70238 0.0043875 0)
(-2.70989 0.00326661 0)
(-2.71581 0.00215673 0)
(-2.72006 0.00113416 -1.06476e-19)
(-2.7226 0.000280294 0)
(-2.72372 -0.00042248 0)
(-2.72363 -0.00106481 1.01136e-19)
(-2.72232 -0.00168957 0)
(-2.71981 -0.00230395 0)
(-2.7161 -0.0029118 9.54694e-20)
(-2.71118 -0.00351354 0)
(-2.70506 -0.00410919 0)
(-2.69772 -0.00469861 -8.94279e-20)
(-2.68917 -0.00528137 -8.73227e-20)
(-2.6794 -0.00585727 0)
(-2.66842 -0.00642583 8.29646e-20)
(-2.65622 -0.00698681 0)
(-2.64281 -0.00753976 -7.83974e-20)
(-2.62819 -0.00808442 0)
(-2.61235 -0.00862037 -7.36059e-20)
(-2.59532 -0.00914732 -7.1121e-20)
(-2.57709 -0.00966493 0)
(-2.55766 -0.010173 0)
(-2.53706 -0.0106712 0)
(-2.51529 -0.0111594 0)
(-2.49235 -0.0116367 0)
(-2.46826 -0.0121019 0)
(-2.44304 -0.0125527 0)
(-2.41669 -0.0129836 -4.88115e-20)
(-2.38924 -0.0133837 4.56818e-20)
(-2.3607 -0.0137271 0)
(-2.33113 -0.0139731 0)
(-2.30055 -0.0140773 0)
(-2.26903 -0.0140275 0)
(-2.23652 -0.0141284 5.74056e-20)
(-2.20298 -0.0144674 0)
(-2.16843 -0.0148008 -4.24835e-20)
(-2.13292 -0.0151145 3.46818e-20)
(-2.09647 -0.0154148 0)
(-2.05913 -0.0157012 0)
(-2.0209 -0.0159755 0)
(-1.98182 -0.016238 -9.23463e-22)
(-1.94191 -0.0164916 8.21658e-21)
(-1.9012 -0.0167358 0)
(-1.85972 -0.0169706 2.74412e-20)
(-1.81748 -0.0171972 3.75599e-20)
(-1.77453 -0.0174156 -4.80415e-20)
(-1.73087 -0.0176264 0)
(-1.68654 -0.0178303 0)
(-1.64156 -0.0180278 -8.18861e-20)
(-1.59595 -0.0182213 0)
(-1.54974 -0.0184058 0)
(-1.50294 -0.0185898 0)
(-1.4556 -0.0187643 0)
(-1.40771 -0.0189388 1.47944e-19)
(-1.35933 -0.0191034 1.62939e-19)
(-1.31044 -0.0192695 0)
(-1.26113 -0.0194271 1.95021e-19)
(-1.21136 -0.0195904 0)
(-1.16121 -0.0197493 0)
(-1.11064 -0.0199197 2.49291e-19)
(-1.05972 -0.0200905 0)
(-1.00838 -0.0202781 2.90468e-19)
(-0.956703 -0.0204707 0)
(-0.904613 -0.020683 0)
(-0.852185 -0.0209023 3.6178e-19)
(-0.799349 -0.0211401 0)
(-0.746164 -0.0213913 4.1725e-19)
(-0.692596 -0.0216592 0)
(-0.638662 -0.0219486 0)
(-0.584353 -0.0222617 0)
(-0.52966 -0.0226026 -5.54879e-19)
(-0.474572 -0.0229734 0)
(-0.41908 -0.0233746 6.42178e-19)
(-0.363181 -0.0238037 0)
(-0.306898 -0.0242566 0)
(-0.250276 -0.0247373 0)
(-0.193409 -0.0252309 0)
(-0.136475 -0.0256734 0)
(-0.0798188 -0.0259305 0)
(-0.0237511 -0.0257148 0)
(0.0283683 -0.024118 -2.29053e-18)
(0.0872156 -0.0215485 0)
(0.100606 -0.00970514 0)
(-4.44983e-05 0.0253958 2.96456e-18)
(-0.00665682 0.0442346 -3.23177e-18)
(-0.0153884 0.0471659 0)
(-0.019566 0.0393456 2.09056e-18)
(-0.0091 0.0184792 0)
(0.022559 -0.0203915 8.10203e-19)
(0.065023 -0.0710746 -9.29986e-19)
(0.115662 -0.116767 -6.28236e-19)
(0.170138 -0.148329 0)
(0.224268 -0.163728 -3.8658e-19)
(0.274991 -0.165046 -1.65666e-19)
(0.320505 -0.156304 0)
(0.360193 -0.141355 0)
(0.394045 -0.122902 0)
(0.422196 -0.102802 0)
(0.444942 -0.0821913 -1.19101e-19)
(0.462641 -0.0616526 0)
(0.475674 -0.0414071 2.35263e-19)
(0.4843 -0.0214554 0)
(0.489261 -0.00158343 0)
(0.49113 0.0183477 -2.41853e-19)
(0.489551 0.0381451 0)
(0.483936 0.0575159 2.50011e-19)
(0.473538 0.0759638 -1.28173e-19)
(0.457494 0.0927352 1.3278e-19)
(0.434996 0.106768 -1.39056e-19)
(0.405458 0.116716 -1.47807e-19)
(0.368764 0.121115 0)
(0.325434 0.118726 0)
(0.276742 0.109019 2.04516e-19)
(0.224826 0.0927266 -2.43984e-19)
(0.172644 0.0720345 0)
(0.123589 0.0497501 0)
(0.0820115 0.0288372 5.23825e-19)
(0.0519102 0.0120293 0)
(0.0351162 -0.000257658 0)
(0.0314302 -0.0116936 -1.02039e-18)
(0.0415427 -0.0258119 0)
(0.0605363 -0.0446186 6.14111e-19)
(0.0877597 -0.0659572 -9.06397e-19)
(0.119692 -0.0827744 0)
(0.149637 -0.0875557 0)
(0.17289 -0.0792082 -9.70452e-19)
(0.187465 -0.0616216 -9.2047e-19)
(0.193271 -0.040106 -9.31394e-19)
(0.191277 -0.0188776 4.96276e-19)
(0.182909 -0.00171062 -5.27865e-19)
(0.17143 0.00654774 -1.70702e-18)
(0.157947 0.00371342 1.23678e-18)
(0.138389 -0.0065287 6.68436e-19)
(0.100252 -0.0143403 0)
(0.021708 0.00189497 -7.93186e-19)
(-0.123065 0.0609204 5.30199e-19)
(-0.300741 0.131458 0)
(-0.487702 0.19656 0)
(-0.676984 0.254341 0)
(-0.864449 0.300521 -1.28423e-19)
(-1.04486 0.329824 0)
(-1.21258 0.341544 1.90061e-19)
(-1.36505 0.338736 0)
(-1.49995 0.324836 1.57613e-19)
(-1.61719 0.303351 0)
(-1.71772 0.277527 -1.40306e-19)
(-1.80342 0.250061 0)
(-1.87658 0.222976 1.30077e-19)
(-1.93949 0.197602 -6.3622e-20)
(-1.99424 0.174682 0)
(-2.04255 0.154489 -1.20539e-19)
(-2.08581 0.137002 -5.88624e-20)
(-2.1251 0.122031 -5.78364e-20)
(-2.16121 0.109296 0)
(-2.19472 0.0984871 -5.61548e-20)
(-2.22604 0.0892996 -5.51787e-20)
(-2.25547 0.0814525 0)
(-2.28322 0.0747004 5.36289e-20)
(-2.30946 0.0688378 -1.05777e-19)
(-2.3343 0.0636931 0)
(-2.35782 0.0591276 -5.14951e-20)
(-2.38009 0.0550289 0)
(-2.40116 0.0513078 1.50428e-19)
(-2.42107 0.0478934 0)
(-2.43985 0.0447294 -1.4655e-19)
(-2.45753 0.0417712 -4.8234e-20)
(-2.47412 0.0389834 4.75497e-20)
(-2.48963 0.0363373 9.38521e-20)
(-2.50409 0.03381 -9.26103e-20)
(-2.5175 0.0313825 0)
(-2.52986 0.0290394 0)
(-2.54117 0.0267671 0)
(-2.55145 0.0245542 2.63042e-19)
(-2.56069 0.0223902 8.64341e-20)
(-2.56889 0.0202656 -8.51631e-20)
(-2.57606 0.0181717 0)
(-2.58221 0.0161006 -8.26001e-20)
(-2.58733 0.0140449 8.12932e-20)
(-2.59147 0.0119969 7.99823e-20)
(-2.59464 0.00994809 0)
(-2.5969 0.00789167 0)
(-2.59831 0.00583853 0)
(-2.59897 0.00383855 7.46185e-20)
(-2.59897 0.00196773 0)
(-2.59806 0.000233812 -1.43672e-19)
(-2.59602 -0.00142703 -2.11095e-19)
(-2.59284 -0.00305192 1.37836e-19)
(-2.58849 -0.00464998 0)
(-2.58296 -0.00622608 6.60045e-20)
(-2.57624 -0.00778072 0)
(-2.56834 -0.00931359 1.25617e-19)
(-2.55924 -0.0108239 -6.134e-20)
(-2.54894 -0.0123106 -5.97336e-20)
(-2.53744 -0.0137727 0)
(-2.52475 -0.0152091 -1.68726e-19)
(-2.51085 -0.0166188 1.09185e-19)
(-2.49575 -0.0180008 5.26992e-20)
(-2.47946 -0.0193541 0)
(-2.46197 -0.0206775 4.91353e-20)
(-2.44329 -0.0219701 1.42305e-19)
(-2.42343 -0.0232309 0)
(-2.4024 -0.0244592 8.7526e-20)
(-2.38019 -0.0256544 8.36905e-20)
(-2.35683 -0.026816 7.97868e-20)
(-2.33232 -0.0279432 0)
(-2.30668 -0.0290348 0)
(-2.27991 -0.0300899 0)
(-2.25203 -0.0311078 -3.19894e-20)
(-2.22306 -0.0320899 -2.93323e-20)
(-2.19301 -0.0330411 0)
(-2.16188 -0.0339712 -5.04293e-20)
(-2.12969 -0.0348882 -4.59234e-20)
(-2.09642 -0.0357868 0)
(-2.0621 -0.03665 -3.60705e-20)
(-2.0268 -0.0374519 -6.38215e-20)
(-1.99054 -0.0381898 2.64588e-20)
(-1.95334 -0.038875 2.27856e-20)
(-1.91521 -0.0395194 0)
(-1.87616 -0.0401266 0)
(-1.83624 -0.0406929 0)
(-1.79546 -0.0412226 8.87107e-22)
(-1.75384 -0.0417141 3.12587e-21)
(-1.71142 -0.0421687 1.85965e-20)
(-1.66821 -0.0425886 -1.5594e-20)
(-1.62425 -0.0429748 1.98432e-20)
(-1.57957 -0.0433282 2.70935e-20)
(-1.53418 -0.0436496 0)
(-1.48811 -0.0439401 0)
(-1.44139 -0.0441992 -4.3638e-20)
(-1.39404 -0.0444331 0)
(-1.34608 -0.044636 0)
(-1.29753 -0.0448162 1.27007e-19)
(-1.24843 -0.0449675 0)
(-1.19877 -0.0450946 7.60718e-20)
(-1.14861 -0.0451919 -8.4611e-20)
(-1.09795 -0.0452651 0)
(-1.04684 -0.0453103 9.71878e-20)
(-0.995269 -0.0453372 0)
(-0.943296 -0.045344 0)
(-0.890906 -0.045342 -1.21364e-19)
(-0.838142 -0.0453295 2.56725e-19)
(-0.784977 -0.0453176 -1.37213e-19)
(-0.731448 -0.0453032 0)
(-0.677519 -0.0452936 0)
(-0.623225 -0.0452853 1.6059e-19)
(-0.568531 -0.0452774 0)
(-0.513467 -0.0452745 1.78325e-19)
(-0.458016 -0.0452702 0)
(-0.402186 -0.0452743 0)
(-0.345972 -0.0452875 0)
(-0.289364 -0.0453151 2.18524e-19)
(-0.232352 -0.045358 0)
(-0.174924 -0.0454145 -2.39257e-19)
(-0.117078 -0.0454765 0)
(-0.0588278 -0.0455264 0)
(-0.00019725 -0.0455284 5.37334e-19)
(0.0587607 -0.0454296 -5.43619e-19)
(0.11791 -0.0451661 0)
(0.176928 -0.0446052 0)
(0.23574 -0.0434842 0)
(0.292025 -0.0413012 1.65673e-18)
(0.351286 -0.0370837 0)
(0.387342 -0.0242915 -1.14939e-18)
(0.000957906 0.0274637 3.4774e-22)
(0.00193684 0.0501037 4.45821e-18)
(0.00621894 0.0474709 0)
(0.0234413 0.0187967 -3.41324e-18)
(0.0628819 -0.043605 0)
(0.119706 -0.122681 0)
(0.18197 -0.192769 -3.31767e-22)
(0.240073 -0.239096 3.4475e-19)
(0.289672 -0.259438 2.90493e-19)
(0.329969 -0.258655 2.55859e-19)
(0.362015 -0.243435 0)
(0.387469 -0.219664 0)
(0.407855 -0.191728 -2.06556e-19)
(0.424252 -0.162377 -3.96928e-19)
(0.437372 -0.133116 3.86272e-19)
(0.447669 -0.104683 0)
(0.455436 -0.0773662 3.77932e-19)
(0.460876 -0.0512105 -1.8898e-19)
(0.464158 -0.0261659 0)
(0.465423 -0.00210308 3.91857e-19)
(0.46506 0.0212365 1.95567e-19)
(0.463367 0.0442186 -3.96357e-19)
(0.460652 0.0670988 -2.01546e-19)
(0.457078 0.0898784 0)
(0.452479 0.11222 4.31037e-19)
(0.446305 0.133374 4.48809e-19)
(0.437598 0.15215 0)
(0.425033 0.166947 4.93274e-19)
(0.407171 0.175943 0)
(0.382845 0.177455 5.60495e-19)
(0.351713 0.170411 3.06009e-19)
(0.314745 0.154818 0)
(0.27445 0.131766 0)
(0.234713 0.103215 0)
(0.199935 0.0715847 0)
(0.174045 0.0387228 0)
(0.159945 0.00477218 0)
(0.157467 -0.0308932 1.40916e-18)
(0.165751 -0.0675878 -1.80446e-18)
(0.179941 -0.0993832 0)
(0.190561 -0.114009 0)
(0.191795 -0.107665 0)
(0.183512 -0.0856241 -1.93873e-22)
(0.166945 -0.0553168 7.07097e-19)
(0.143513 -0.0251385 1.54742e-18)
(0.114184 0.00146032 -1.75881e-18)
(0.0777948 0.0252575 -1.04428e-18)
(0.0261393 0.0434065 1.25538e-18)
(-0.0642846 0.0679536 -7.49408e-22)
(-0.19928 0.123552 6.79732e-19)
(-0.366489 0.196486 0)
(-0.551436 0.273946 3.39213e-19)
(-0.741467 0.348809 5.51718e-22)
(-0.925449 0.413332 0)
(-1.0953 0.463063 0)
(-1.24562 0.497528 -1.62466e-19)
(-1.37174 0.51474 0)
(-1.47414 0.514486 0)
(-1.55574 0.498833 1.27847e-19)
(-1.62042 0.471355 2.38393e-19)
(-1.6724 0.43601 -1.11904e-19)
(-1.71559 0.396565 0)
(-1.75322 0.356198 1.0342e-19)
(-1.78764 0.317283 0)
(-1.82036 0.281364 9.88979e-20)
(-1.85221 0.249233 9.46318e-20)
(-1.88355 0.221127 -1.85629e-19)
(-1.91445 0.196901 -9.09427e-20)
(-1.94486 0.176202 0)
(-1.97465 0.158589 1.73379e-19)
(-2.0037 0.143599 0)
(-2.03191 0.130798 2.50094e-19)
(-2.05919 0.119796 1.63773e-19)
(-2.08547 0.110255 1.60941e-19)
(-2.11074 0.101902 -1.58256e-19)
(-2.13496 0.094511 2.33576e-19)
(-2.15812 0.0878965 0)
(-2.18024 0.0819104 0)
(-2.20131 0.076434 -1.48535e-19)
(-2.22135 0.0713744 -2.19488e-19)
(-2.24035 0.066657 0)
(-2.25834 0.0622228 7.10206e-20)
(-2.27532 0.0580246 0)
(-2.2913 0.0540245 -2.06585e-19)
(-2.30628 0.0501917 -1.04846e-22)
(-2.32027 0.0465013 9.64865e-23)
(-2.33328 0.0429328 1.31486e-19)
(-2.3453 0.039469 0)
(-2.35635 0.0360956 -1.27402e-19)
(-2.36642 0.0328002 -5.67943e-23)
(-2.37552 0.0295727 0)
(-2.38364 0.0264047 0)
(-2.3908 0.0232899 0)
(-2.39699 0.0202241 1.17207e-19)
(-2.40221 0.0172064 0)
(-2.40648 0.0142391 0)
(-2.4098 0.0113281 0)
(-2.41217 0.008482 0)
(-2.4136 0.00570942 0)
(-2.41405 0.0030068 1.04675e-19)
(-2.41348 0.00034322 0)
(-2.41183 -0.00230972 1.00165e-19)
(-2.40907 -0.00494617 9.79123e-20)
(-2.4052 -0.00755355 -9.56383e-20)
(-2.4002 -0.0101295 0)
(-2.39405 -0.012673 -9.1019e-20)
(-2.38676 -0.0151826 0)
(-2.3783 -0.0176569 -8.63e-20)
(-2.36869 -0.0200942 8.39013e-20)
(-2.35791 -0.0224927 2.44834e-19)
(-2.34596 -0.0248507 0)
(-2.33285 -0.0271664 2.30083e-19)
(-2.31856 -0.0294381 7.45176e-20)
(-2.3031 -0.0316641 0)
(-2.28648 -0.0338426 1.38381e-19)
(-2.26869 -0.035972 1.33208e-19)
(-2.24975 -0.0380505 -1.91663e-19)
(-2.22964 -0.0400767 0)
(-2.20839 -0.0420492 -5.8337e-20)
(-2.18599 -0.043967 -5.56128e-20)
(-2.16246 -0.0458288 -1.59259e-19)
(-2.13781 -0.0476332 0)
(-2.11205 -0.0493782 0)
(-2.08518 -0.0510617 0)
(-2.05723 -0.0526814 -4.22879e-20)
(-2.0282 -0.0542353 0)
(-1.9981 -0.0557222 0)
(-1.96696 -0.0571429 3.26492e-20)
(-1.93478 -0.0585005 2.96276e-20)
(-1.90156 -0.0598007 0)
(-1.86734 -0.0610552 0)
(-1.83216 -0.0622568 4.07243e-20)
(-1.79604 -0.0633884 0)
(-1.75899 -0.064447 -2.80563e-20)
(-1.72102 -0.065437 -2.26009e-20)
(-1.68216 -0.0663646 0)
(-1.64244 -0.0672274 0)
(-1.60186 -0.0680267 2.97149e-21)
(-1.56047 -0.0687634 -1.03426e-21)
(-1.51828 -0.0694388 -1.04753e-21)
(-1.47532 -0.070055 0)
(-1.43161 -0.0706138 -4.92645e-20)
(-1.38718 -0.0711165 0)
(-1.34206 -0.0715646 0)
(-1.29627 -0.0719597 0)
(-1.24984 -0.0723032 5.32913e-20)
(-1.20278 -0.0725991 0)
(-1.15512 -0.0728474 -1.3319e-19)
(-1.10689 -0.0730514 -7.50345e-20)
(-1.05809 -0.0732117 0)
(-1.00876 -0.0733263 -8.98463e-20)
(-0.958911 -0.0733957 0)
(-0.908578 -0.073418 0)
(-0.857775 -0.0733976 -3.35316e-19)
(-0.806538 -0.0733376 2.38104e-19)
(-0.754874 -0.073247 0)
(-0.702815 -0.0731306 2.69232e-19)
(-0.650357 -0.0729984 -1.43717e-19)
(-0.597525 -0.0728541 0)
(-0.544306 -0.0727061 0)
(-0.490714 -0.0725535 0)
(-0.436737 -0.0724008 -5.25074e-19)
(-0.382381 -0.0722399 0)
(-0.327643 -0.0720777 -1.92265e-19)
(-0.272527 -0.0719074 0)
(-0.217031 -0.0717384 0)
(-0.161152 -0.0715732 0)
(-0.104881 -0.0714168 0)
(-0.048209 -0.0712711 0)
(0.00887926 -0.0711312 0)
(0.0663927 -0.0709825 -4.89301e-19)
(0.124318 -0.0708014 0)
(0.182623 -0.0705412 -2.5323e-19)
(0.24124 -0.0701289 7.67506e-19)
(0.300069 -0.0694698 0)
(0.35888 -0.0683994 0)
(0.41767 -0.0666279 -5.3098e-19)
(0.474856 -0.0636817 -5.40927e-19)
(0.534483 -0.0585259 5.48739e-19)
(0.581026 -0.0457151 5.66639e-19)
(-0.00125956 0.0268165 -5.96808e-18)
(0.000721673 0.0389955 -7.08245e-18)
(0.0188213 0.00623152 -3.48262e-18)
(0.0674781 -0.0797311 -9.2452e-19)
(0.136775 -0.184537 0)
(0.207242 -0.270887 7.55791e-19)
(0.265531 -0.321733 -2.98056e-19)
(0.3078 -0.338392 0)
(0.336247 -0.330293 -2.23852e-19)
(0.354976 -0.307468 0)
(0.367692 -0.277266 3.82941e-19)
(0.376924 -0.244094 0)
(0.384124 -0.210287 1.73274e-19)
(0.389989 -0.17697 3.36537e-19)
(0.394778 -0.144638 -3.30577e-19)
(0.398535 -0.11349 0)
(0.40123 -0.0835874 -3.28028e-19)
(0.402831 -0.0549222 0)
(0.403327 -0.0274583 0)
(0.402732 -0.00113893 -3.44515e-19)
(0.401154 0.0241461 0)
(0.398717 0.0485484 -7.79869e-22)
(0.395672 0.072236 0)
(0.392341 0.0953461 0)
(0.389014 0.117904 7.26805e-22)
(0.385871 0.139735 -3.90182e-19)
(0.382855 0.160355 -4.10258e-19)
(0.37956 0.178874 -4.32233e-19)
(0.37514 0.193932 0)
(0.368354 0.203742 -9.71689e-19)
(0.357877 0.206303 0)
(0.342788 0.199823 -5.57577e-19)
(0.3231 0.183172 0)
(0.300009 0.156238 0)
(0.27586 0.120174 7.64208e-19)
(0.253731 0.0770061 0)
(0.236477 0.0292966 -1.00821e-18)
(0.225157 -0.0206101 -2.48208e-21)
(0.217263 -0.067465 1.77613e-18)
(0.204167 -0.0969761 -1.51952e-18)
(0.180405 -0.0984044 0)
(0.14661 -0.0774115 0)
(0.102951 -0.0433946 -7.12056e-19)
(0.0510257 -0.00107864 0)
(-0.0123704 0.0444392 -8.57716e-19)
(-0.101248 0.0933063 7.11623e-19)