/*--------------------------------*- C++ -*----------------------------------*\
| =========                 |                                                 |
| \\      /  F ield         | OpenFOAM: The Open Source CFD Toolbox           |
|  \\    /   O peration     | Version:  2406                                  |
|   \\  /    A nd           | Website:  www.openfoam.com                      |
|    \\/     M anipulation  |                                                 |
\*---------------------------------------------------------------------------*/
FoamFile
{
    version     2.0;
    format      ascii;
    arch        "LSB;label=32;scalar=64";
    class       volScalarField;
    location    "1.8";
    object      nu;
}
// * * * * * * * * * * * * * * * * * * * * * * * * * * * * * * * * * * * * * //

dimensions      [0 2 -1 0 0 0 0];

internalField   nonuniform List<scalar> 
1800
(
0.0181171
0.0207335
0.0253558
0.0555986
0.0321782
0.0148398
0.0110784
0.00951699
0.00904238
0.00806727
0.0156108
0.0545263
0.0814035
0.0233696
0.0128869
0.0100237
0.00884185
0.00810425
0.00807167
0.00728654
0.0155353
0.190519
0.0185958
0.0112096
0.00911412
0.00820769
0.00778785
0.00753464
0.00765464
0.00736244
0.0161115
0.0189241
0.0107922
0.00860702
0.00777663
0.00741639
0.00731069
0.00736206
0.00762561
0.00781391
0.0297856
0.0114302
0.00845849
0.00749016
0.00713775
0.00709052
0.00725308
0.00760637
0.00821268
0.00907433
0.0157887
0.00881004
0.00736521
0.00693846
0.00691187
0.00715848
0.00767889
0.00856165
0.0100492
0.01262
0.0100809
0.00749874
0.00681887
0.00674584
0.00703397
0.0076842
0.00883752
0.0107968
0.0140813
0.018726
0.00799668
0.00683733
0.00658763
0.00683491
0.00752649
0.00882424
0.0110804
0.0149569
0.0224823
0.0369421
0.00701058
0.00649822
0.00657254
0.00717168
0.00842696
0.0107916
0.0154084
0.0262894
0.0547995
0.0432529
0.0064726
0.0063439
0.0067097
0.00772628
0.00989695
0.0149244
0.0292808
0.0599338
0.0323985
0.01984
0.0106175
0.0102056
0.0110534
0.0126759
0.0147953
0.0173203
0.0203249
0.0237038
0.0272014
0.0333168
0.0104653
0.00999398
0.0108335
0.0125462
0.0148426
0.0174431
0.0201704
0.0228891
0.0255382
0.0281879
0.0107968
0.00989938
0.0105077
0.0120881
0.0143819
0.017068
0.0197939
0.0222092
0.0238684
0.0242041
0.011921
0.00999665
0.0101666
0.0113934
0.0133592
0.0157732
0.0181936
0.0201334
0.0210989
0.0206397
0.0151736
0.0104793
0.00995457
0.0106909
0.012108
0.0139431
0.0158426
0.017369
0.0180167
0.0175677
0.0264778
0.0120404
0.0101896
0.0102944
0.0111094
0.0122924
0.0135835
0.0146798
0.0151658
0.0148909
0.029062
0.0161367
0.0114688
0.0106053
0.0108288
0.0114492
0.0121599
0.0127281
0.0129226
0.0125217
0.0194441
0.0383884
0.0168988
0.0127243
0.011652
0.0116309
0.011786
0.0117829
0.0115671
0.0108985
0.0200524
0.0417406
0.0586835
0.0288773
0.0165578
0.0139385
0.0127629
0.0118765
0.0111607
0.0103893
0.0224674
0.0205044
0.0231546
0.03789
0.0683435
0.0205503
0.0141633
0.0120775
0.0110069
0.0105624
0.178885
0.024039
0.0150588
0.0157819
0.0157415
0.0151518
0.0147996
0.0158558
0.0161826
0.0196439
0.0386766
0.0300423
0.0176056
0.0192024
0.0161407
0.0142751
0.0136331
0.0146017
0.0149956
0.0181954
0.0223229
0.0319164
0.0291774
0.0231375
0.0150533
0.0129866
0.0123779
0.0131377
0.0135966
0.0165787
0.0171578
0.0210262
0.0456826
0.0199839
0.0135598
0.0120324
0.0115531
0.0120192
0.012315
0.0149401
0.0144732
0.0158522
0.0225531
0.0154963
0.0123619
0.0113319
0.0111039
0.0114411
0.0114665
0.0135629
0.0128083
0.0134392
0.0152962
0.0132801
0.0113321
0.0106746
0.0107297
0.0112065
0.0111062
0.0126568
0.0116541
0.0120327
0.0130064
0.0120021
0.0106704
0.0102258
0.0103489
0.0110261
0.0111074
0.012257
0.010892
0.0108864
0.0117778
0.011212
0.0104507
0.0101843
0.0101785
0.0108175
0.0112736
0.0122916
0.010001
0.0103002
0.0117407
0.0111044
0.010454
0.0104011
0.0103388
0.0107371
0.0114646
0.0126606
0.00936094
0.00959819
0.011098
0.0105017
0.0102352
0.0105325
0.0106646
0.010912
0.0117122
0.0132969
0.00886718
0.00954474
0.0106724
0.0102944
0.0104992
0.0107991
0.011055
0.0114032
0.0122158
0.0144756
0.00839864
0.00971103
0.00980218
0.00985566
0.0110998
0.0114965
0.0114232
0.0121175
0.0132064
0.0168236
0.0096601
0.00987624
0.00982091
0.0110904
0.0140575
0.0130603
0.0118531
0.0125013
0.0139797
0.0192918
0.0123468
0.01088
0.0111221
0.0139433
0.0204819
0.014931
0.0125771
0.0127763
0.0139206
0.0190399
0.0146609
0.0124955
0.0134413
0.0170452
0.0451205
0.0142298
0.0121287
0.0125144
0.0134016
0.0167898
0.0171741
0.0153707
0.0144739
0.0171292
0.0138583
0.0109458
0.0104732
0.0110461
0.0118995
0.0140549
0.0237734
0.0165045
0.0139451
0.0119573
0.0092995
0.00872449
0.00895888
0.00969918
0.0105015
0.011866
0.0134978
0.0120146
0.0103343
0.00831257
0.00767465
0.00786312
0.0083729
0.00905998
0.00963096
0.0103584
0.00855018
0.0080921
0.00745833
0.00725281
0.00754544
0.00821966
0.00884974
0.00926975
0.00940491
0.00959197
0.00677258
0.00687699
0.00707356
0.00765862
0.00913762
0.0118773
0.0148632
0.0138357
0.0116717
0.0104702
0.0174026
0.0240215
0.0574357
0.0502044
0.0216818
0.0140229
0.00996062
0.00873627
0.00793537
0.00833724
0.0194938
0.0220889
0.0298317
0.0448747
0.0380025
0.0501948
0.0160802
0.0137931
0.0102542
0.00886373
0.0211596
0.0234602
0.0272806
0.0278205
0.0391181
0.0283126
0.0258882
0.0175117
0.0157211
0.0115004
0.0214802
0.0221925
0.0259516
0.0236221
0.029557
0.0222099
0.0300423
0.0186261
0.0220393
0.0150732
0.021303
0.0219563
0.0248296
0.0239014
0.0269502
0.0227838
0.0256429
0.0203359
0.0216549
0.0179183
0.0195132
0.0206816
0.0219369
0.0240397
0.0253543
0.0266825
0.0274206
0.0247391
0.024357
0.0211666
0.0158173
0.0164535
0.0166879
0.0179173
0.0183591
0.0205313
0.0212091
0.0243514
0.0251596
0.0257963
0.0113982
0.0116416
0.0115099
0.0119661
0.0118394
0.0125581
0.012404
0.0134297
0.0132323
0.0145356
0.0083623
0.00835205
0.00831602
0.00835247
0.00834423
0.00842483
0.00843584
0.0085487
0.00857266
0.00869776
0.0065305
0.00651146
0.00652965
0.00652026
0.00656049
0.00655791
0.00661801
0.00662085
0.0066973
0.00670601
0.0103682
0.0106412
0.0104192
0.0101871
0.0100582
0.0102306
0.0110153
0.0101316
0.00703729
0.00578745
0.0107337
0.0106893
0.0104342
0.0101662
0.0100409
0.0103058
0.0113038
0.00999201
0.00692102
0.00575044
0.0109586
0.0108939
0.0106467
0.0103629
0.0102376
0.0106232
0.0118857
0.00975136
0.00680927
0.00572501
0.0111872
0.0111387
0.0108945
0.0106203
0.0105547
0.0111677
0.0128423
0.00942971
0.0066997
0.00570988
0.0113803
0.0113943
0.0112156
0.0109667
0.0109954
0.0120943
0.0143677
0.0090354
0.0066007
0.00571173
0.011737
0.0117566
0.011575
0.0114341
0.0118201
0.0138998
0.0148994
0.00856786
0.00650586
0.00573026
0.0120484
0.0121157
0.0121193
0.0121537
0.0131978
0.0189795
0.0138469
0.00812063
0.00642129
0.00577354
0.0127864
0.0129545
0.0128223
0.0132893
0.0172236
0.0265241
0.0115716
0.00768307
0.00635266
0.00584769
0.0137635
0.0137266
0.0143571
0.019854
0.0889239
0.0194809
0.00981336
0.00727733
0.00630322
0.00596689
0.0148412
0.016441
0.0231793
0.0573142
0.0298248
0.0127834
0.00855355
0.00695065
0.00629305
0.00615861
0.0119674
0.0114943
0.0110739
0.0107057
0.0103634
0.0100531
0.00977782
0.00952886
0.00932128
0.00819027
0.0118463
0.0114123
0.0110209
0.010665
0.0103311
0.0100336
0.00978416
0.00951148
0.00892336
0.00738558
0.0117035
0.0113127
0.0109503
0.0106045
0.0102784
0.00999725
0.00978862
0.00951733
0.00858431
0.00690644
0.0115645
0.0112309
0.0109029
0.0105614
0.0102371
0.00997377
0.00981692
0.00955454
0.00829596
0.00659159
0.0114478
0.011175
0.0108851
0.0105501
0.010224
0.00997016
0.00985765
0.00959304
0.00803483
0.00636383
0.0113409
0.0111298
0.0108797
0.01055
0.0102322
0.0100103
0.00997028
0.00968988
0.00781175
0.00619601
0.0113062
0.0111585
0.0109334
0.0105843
0.0102461
0.0100394
0.0100793
0.00977347
0.00761511
0.00606757
0.011297
0.0111626
0.0109622
0.0106192
0.0102992
0.010146
0.0103063
0.00992333
0.00744531
0.00596886
0.0115169
0.011345
0.0110423
0.0106009
0.0102501
0.0101524
0.0104752
0.0100298
0.00729661
0.00589347
0.0114421
0.0111475
0.0109163
0.0105808
0.0102906
0.0102727
0.0107728
0.010119
0.0071582
0.00583284
0.198958
0.0596215
0.0378719
0.0406039
0.0446148
0.040974
0.0321965
0.0265386
0.0199179
0.0140909
0.147773
0.0602403
0.0368643
0.0374694
0.041913
0.0413293
0.0340622
0.0271649
0.0206136
0.0139382
0.120066
0.0603494
0.0357824
0.0351017
0.0397724
0.0409601
0.0364095
0.0275145
0.0215585
0.0137657
0.103464
0.059671
0.034588
0.0332431
0.0381013
0.0403418
0.0393612
0.0275577
0.0226547
0.0135592
0.0920556
0.0583436
0.0333758
0.031781
0.0367861
0.0397547
0.042814
0.0273881
0.0235979
0.0133233
0.0840808
0.0567063
0.0323153
0.0306758
0.0357424
0.0392397
0.0457516
0.0272694
0.0235247
0.0131244
0.0792267
0.0553757
0.0315751
0.0298839
0.0348764
0.0388506
0.0460318
0.027461
0.0221317
0.0128794
0.0775494
0.0550381
0.031318
0.0292966
0.0340028
0.0388021
0.0428886
0.0281877
0.0195358
0.0129555
0.0789784
0.0560042
0.0315612
0.0287654
0.0328823
0.0385383
0.038505
0.0286453
0.0183426
0.0126689
0.0827512
0.0584004
0.0307921
0.0282862
0.0312536
0.036393
0.0334031
0.0264319
0.0159028
0.0140796
0.0861879
0.0679408
0.0307169
0.0284645
0.0278479
0.034434
0.0241247
0.0235797
0.0144785
0.0146041
0.0839203
0.0782679
0.029633
0.0299477
0.0214065
0.03631
0.0165945
0.021164
0.0130167
0.0142568
0.0775468
0.0924301
0.0302087
0.0270921
0.0175409
0.031748
0.0140491
0.0189715
0.0126411
0.014111
0.0724684
0.117757
0.0342844
0.0204787
0.0175027
0.022252
0.0148517
0.0173164
0.0144388
0.0131476
0.0674393
0.123668
0.0407906
0.0176307
0.0204521
0.0183801
0.0180011
0.0166065
0.0178628
0.0134289
0.057986
0.0723219
0.0479121
0.0171306
0.0209701
0.0172984
0.0190337
0.0176041
0.0201901
0.0150846
0.0479027
0.0650927
0.073051
0.0197848
0.0180799
0.0179668
0.0167584
0.0199695
0.0186292
0.0171463
0.0351712
0.0984721
0.0399106
0.0351766
0.0145725
0.0170799
0.0129092
0.0155482
0.0135808
0.0151221
0.021762
0.0198804
0.0140039
0.012556
0.0112188
0.0108014
0.010176
0.0102826
0.00998484
0.0100041
0.00792576
0.0078938
0.00828932
0.00851835
0.00874891
0.00806246
0.00832001
0.00764665
0.00758477
0.00720027
0.0116019
0.0114292
0.0112826
0.0114412
0.011683
0.0120693
0.0125003
0.0132212
0.014264
0.0154169
0.0123737
0.012072
0.0120063
0.0122401
0.0126531
0.0132166
0.0138859
0.0148943
0.0160424
0.017693
0.0128739
0.012692
0.0128471
0.0132591
0.0138488
0.0145449
0.0154193
0.0164154
0.0177045
0.0192186
0.0133578
0.0134376
0.0138225
0.0143572
0.0150401
0.0156687
0.016534
0.0172409
0.018504
0.0194278
0.0144512
0.0147239
0.0152382
0.0157367
0.0162932
0.0166839
0.0173302
0.0178028
0.0188278
0.01953
0.016019
0.0161645
0.0164745
0.0167251
0.0169447
0.0170622
0.0173224
0.0175949
0.0180775
0.0186574
0.01673
0.0164493
0.0162349
0.0161328
0.0159022
0.0157654
0.0155473
0.0155476
0.0154677
0.0157409
0.0139498
0.0135027
0.0130065
0.0127315
0.0123333
0.0121664
0.0118339
0.0117681
0.0115138
0.0115816
0.00974275
0.00952499
0.00931683
0.00914152
0.00897477
0.00884057
0.00869877
0.0086017
0.00849157
0.00843489
0.00708912
0.0069895
0.00690313
0.00681978
0.00675326
0.00668756
0.0066409
0.00659242
0.00656643
0.00653423
0.0057572
0.00648863
0.00835556
0.0148287
0.0283434
0.0146809
0.012056
0.010946
0.00962541
0.00813975
0.00583696
0.00641538
0.00786138
0.0123467
0.0430318
0.0198254
0.0133184
0.0111296
0.00956698
0.00806751
0.0059632
0.00637635
0.00745117
0.0102223
0.0183048
0.0205352
0.0147364
0.0116269
0.00974416
0.0082087
0.00615334
0.00638263
0.0071383
0.00892895
0.0128605
0.0171612
0.0155602
0.0124795
0.0102352
0.00850863
0.006436
0.0064508
0.00692822
0.00811272
0.0104769
0.0138862
0.0151333
0.0133823
0.011083
0.0090782
0.00685669
0.00660389
0.00683001
0.00759734
0.00910673
0.0115489
0.0138579
0.0139415
0.0122663
0.00984002
0.00749102
0.00687312
0.00685611
0.00730766
0.00826974
0.00989782
0.0120393
0.0134416
0.0133099
0.0111177
0.0084796
0.00729863
0.00702015
0.00721239
0.00780404
0.00886662
0.0104642
0.0122364
0.013489
0.0120256
0.0101444
0.00793813
0.00733972
0.00729534
0.00760889
0.0082784
0.00934546
0.0107227
0.0124765
0.0118205
0.0133115
0.00889688
0.00784181
0.00756029
0.00764306
0.00803295
0.00874711
0.00978329
0.0113766
0.0122724
0.0202357
0.0103795
0.00856779
0.00802261
0.00789111
0.00804424
0.0084649
0.00916243
0.0100435
0.0120189
0.0499
0.0126175
0.00955964
0.00871985
0.00839048
0.00833894
0.00852601
0.00893895
0.00935559
0.0109095
0.0314925
0.0156675
0.0109336
0.00970457
0.0092362
0.00902234
0.00901977
0.0092147
0.00932664
0.0104148
0.0252681
0.0183273
0.0122737
0.0108923
0.010497
0.0102532
0.0100896
0.0100549
0.00991353
0.0106058
0.0264245
0.0176868
0.0125317
0.0116586
0.0117937
0.0119739
0.0118676
0.0115737
0.011119
0.0113846
0.0402446
0.0150222
0.011881
0.0118002
0.0124892
0.0134707
0.014226
0.0141036
0.0132108
0.0128945
0.0254756
0.0128755
0.0114464
0.0118801
0.0128919
0.0144443
0.0166566
0.0183368
0.0172364
0.0158766
0.0161619
0.0116315
0.0112853
0.0121015
0.0134208
0.0153352
0.01858
0.024038
0.0271476
0.0234053
0.0127347
0.0109648
0.0112365
0.012385
0.0140549
0.0163431
0.0200288
0.0274936
0.0419333
0.0477397
0.0112706
0.010521
0.0111736
0.0125894
0.0145274
0.0171088
0.0208094
0.0264739
0.0364369
0.0543057
0.0113837
0.0114584
0.0128238
0.0171004
0.0324179
0.0557539
0.0271816
0.024092
0.0226088
0.0271244
0.0112115
0.0115272
0.0131191
0.0175589
0.0288681
0.0360398
0.0256782
0.0236617
0.0225435
0.0279973
0.0109502
0.011559
0.0132838
0.0172311
0.0238444
0.0278305
0.0241621
0.0231087
0.0222046
0.0276903
0.0110678
0.0117551
0.0135176
0.0167032
0.020913
0.0234289
0.0224743
0.0223459
0.0216764
0.0268895
0.0116746
0.0121783
0.0139072
0.0162679
0.0190807
0.020648
0.0208338
0.0214366
0.021039
0.0259294
0.0126411
0.0129002
0.0143753
0.0158104
0.0175517
0.0186436
0.0193373
0.0204508
0.020351
0.0249734
0.0141135
0.0140782
0.0147021
0.0152262
0.0162292
0.0171101
0.0180049
0.0194278
0.0196186
0.0240487
0.016609
0.0158548
0.0147636
0.0146123
0.0152456
0.0160238
0.0168963
0.0184286
0.018834
0.0231029
0.0212561
0.0181956
0.014641
0.0142178
0.0147729
0.0154311
0.016075
0.0175278
0.0180064
0.0220738
0.0375941
0.0211462
0.0145898
0.0144092
0.0149607
0.0152839
0.0154906
0.0167322
0.0171422
0.0209268
0.0108348
0.0190987
0.0247308
0.048477
0.0558423
0.0424016
0.139686
0.0285827
0.0192693
0.0150678
0.00866224
0.0112484
0.0145697
0.0198147
0.0255686
0.0251961
0.019606
0.0158607
0.0142591
0.0131963
0.00858282
0.0101442
0.0128722
0.0163993
0.01969
0.0200666
0.017471
0.0162499
0.0155544
0.0148971
0.00937279
0.0101159
0.0124312
0.0168605
0.0243303
0.0278489
0.0225393
0.0202578
0.0189907
0.0189786
0.0112996
0.0113293
0.0128574
0.0172702
0.0342583
0.051692
0.0261913
0.0231198
0.0215906
0.0238445
0.00580025
0.00590266
0.00604451
0.00624724
0.0064837
0.00678313
0.00713762
0.00748956
0.00804317
0.00830605
0.00600914
0.0060871
0.00620782
0.00637718
0.00656308
0.00677356
0.00702639
0.00721159
0.00759968
0.00767283
0.00629972
0.00635028
0.00646335
0.00662478
0.00680377
0.00703174
0.0072312
0.00751863
0.00776758
0.00805279
0.00670696
0.00672594
0.00685002
0.00703255
0.00727029
0.00760667
0.00784401
0.00855357
0.00860384
0.00988076
0.00725024
0.00722995
0.00737743
0.00761122
0.00799717
0.00847159
0.00909884
0.0102218
0.0103416
0.0135195
0.0121463
0.0118632
0.0115922
0.0111944
0.0108256
0.0106174
0.0106593
0.010307
0.00800239
0.00625994
0.0124122
0.0121549
0.0117426
0.0112298
0.0108103
0.0105651
0.0105407
0.0102465
0.00823209
0.00640787
0.0121334
0.011933
0.0116448
0.0112566
0.0108979
0.0106398
0.0105306
0.0102224
0.0084944
0.00659345
0.0122274
0.0119952
0.0116706
0.0112668
0.010878
0.0105642
0.0103688
0.0100883
0.00877985
0.00683943
0.0122351
0.0119273
0.0115647
0.0111696
0.0107976
0.0104859
0.0102642
0.0100313
0.00913659
0.00719095
0.0122675
0.0118915
0.0114943
0.0111006
0.0107304
0.0104045
0.0101464
0.00994869
0.00951378
0.00771636
0.0122601
0.0118225
0.0113936
0.0109952
0.0106207
0.0102812
0.00999937
0.00985343
0.00992655
0.00864581
0.0122103
0.0117275
0.0112769
0.0108742
0.0104937
0.0101403
0.00983881
0.009733
0.0102883
0.0106716
0.0121381
0.011635
0.0111798
0.0107811
0.0104038
0.0100508
0.00974163
0.00960131
0.0102357
0.0130385
0.0120594
0.0115643
0.0111243
0.0107429
0.010386
0.0100556
0.00975681
0.00955479
0.00979195
0.00989349
0.0084416
0.00983641
0.0108584
0.0114938
0.0122911
0.014908
0.0157774
0.00885606
0.00658233
0.00571161
0.00899428
0.0100817
0.0106458
0.010942
0.0113153
0.0123591
0.0140533
0.00933898
0.00668954
0.00569202
0.00956392
0.0101747
0.0104121
0.0105034
0.010637
0.0111732
0.0122733
0.0096869
0.00680659
0.00569519
0.00986151
0.0101149
0.0101998
0.0102288
0.0102811
0.0105832
0.0113669
0.00990082
0.00693037
0.0057159
0.0099702
0.010096
0.0101211
0.0100972
0.010087
0.0102771
0.010872
0.00997512
0.00705246
0.00575281
0.0101166
0.0101986
0.010184
0.0101153
0.0100495
0.0101509
0.0106173
0.0100281
0.00718117
0.00580358
0.0103964
0.0104442
0.0103628
0.0102152
0.0100849
0.0101257
0.0105035
0.0100542
0.00731413
0.00586709
0.0107803
0.0107455
0.0105601
0.0103288
0.0101461
0.0101413
0.0104559
0.0101042
0.00746197
0.00594435
0.0110977
0.0109275
0.0106569
0.010393
0.0102065
0.0101947
0.0104775
0.0101895
0.00762495
0.00603454
0.0109545
0.0110172
0.0107991
0.0105628
0.0103867
0.0103538
0.010574
0.0102877
0.00780697
0.00613918
0.0386876
0.0362457
0.096406
0.0455301
0.0267753
0.0250254
0.0277418
0.0429032
0.0256333
0.0171067
0.043722
0.0381452
0.0664659
0.0739776
0.0313827
0.0260002
0.0267971
0.0298325
0.0262378
0.0150122
0.0504889
0.0409444
0.0550213
0.168335
0.0370841
0.0271649
0.0271654
0.0264222
0.024808
0.0143095
0.059698
0.0434763
0.0515003
0.779491
0.0419103
0.027788
0.0269868
0.0242128
0.0224138
0.0142833
0.0723039
0.0470398
0.0496486
0.156844
0.0448832
0.0288628
0.0268541
0.0232065
0.0207515
0.0143591
0.0898553
0.0508873
0.046762
0.0948951
0.0493732
0.0303607
0.0270773
0.0230395
0.0198446
0.0144367
0.117071
0.0547527
0.044253
0.0736251
0.052129
0.0323277
0.0276298
0.0233843
0.0193688
0.014456
0.165891
0.0581366
0.0421878
0.0601518
0.0526622
0.034721
0.0284339
0.0240394
0.0191802
0.0144088
0.243731
0.0597431
0.0404258
0.0511571
0.0508495
0.0372997
0.0294515
0.0248628
0.0192198
0.0143191
0.265996
0.0595603
0.0389923
0.0449524
0.0477817
0.0395698
0.0306892
0.0257339
0.0194639
0.0142078
0.00725444
0.00742702
0.00814079
0.0087784
0.00943327
0.00964898
0.00979205
0.00927448
0.00925612
0.00775593
0.0149352
0.0109246
0.00967523
0.00981295
0.0102888
0.010714
0.0112028
0.0113874
0.0114245
0.0112593
0.0257434
0.024343
0.0134382
0.0119795
0.0119837
0.0125593
0.0133916
0.0151692
0.0153124
0.0141071
0.0317456
0.0398657
0.0244919
0.0164813
0.0151505
0.0157905
0.0172368
0.0238999
0.0257825
0.0150735
0.0352322
0.0359547
0.0709588
0.0257292
0.0199193
0.0200869
0.022608
0.0436972
0.0325919
0.0167748
0.00725049
0.00692666
0.00661976
0.00635053
0.0061316
0.00596245
0.00584039
0.00576474
0.00573359
0.00574561
0.0103403
0.00951664
0.00870417
0.00799709
0.0073698
0.00684504
0.00645353
0.00619521
0.00604933
0.00599382
0.011998
0.0111116
0.0103019
0.00962277
0.00891992
0.00814149
0.00740459
0.00685067
0.00650962
0.00634156
0.0122333
0.011351
0.0107127
0.0102921
0.00989215
0.00935087
0.0085602
0.00773079
0.00714215
0.00682283
0.0121131
0.0113139
0.010678
0.0102647
0.00995562
0.00969372
0.00931104
0.00864915
0.00794312
0.00746296
)
;

boundaryField
{
    left
    {
        type            calculated;
        value           nonuniform List<scalar> 
35
(
0.0868388
0.111772
0.118933
0.104208
0.0870057
0.0660047
0.0488695
0.0331979
0.0193342
0.00788848
0.163378
0.157064
0.13453
0.112335
0.0951659
0.0827804
0.0746619
0.0705471
0.0704655
0.0749585
0.034064
0.0384626
0.0442241
0.0517724
0.0615113
0.0740665
0.090937
0.113138
0.135065
0.15181
0.00721649
0.013615
0.0216912
0.026963
0.0307812
)
;
    }
    right
    {
        type            calculated;
        value           nonuniform List<scalar> 
35
(
0.0150708
0.0132257
0.015027
0.0195603
0.0258418
0.0312073
0.0334469
0.0337806
0.0332476
0.0324056
0.0315454
0.030713
0.029792
0.0286359
0.0271396
0.0252067
0.022731
0.0198371
0.0170737
0.0149851
0.0137326
0.0132208
0.013295
0.0138231
0.0147458
0.016601
0.0205291
0.0243967
0.021782
0.0174983
0.0142069
0.0119627
0.0104353
0.00962967
0.0104859
)
;
    }
    down
    {
        type            calculated;
        value           nonuniform List<scalar> 
40
(
0.00638638
0.00674851
0.00771891
0.00847043
0.00916424
0.00927633
0.00927385
0.00861099
0.00853119
0.00695426
0.00655035
0.00631966
0.00610497
0.00592341
0.00578956
0.0056999
0.00564414
0.00561687
0.00561746
0.00564889
0.00571691
0.00583045
0.00598546
0.00621046
0.00648382
0.00685799
0.00730094
0.00783674
0.00855811
0.00913283
0.0162625
0.0558217
0.220705
0.170944
0.0297363
0.0235918
0.0309668
0.0484267
0.0513925
0.0196813
)
;
    }
    up
    {
        type            calculated;
        value           nonuniform List<scalar> 
40
(
0.00633178
0.0066074
0.00740559
0.00877808
0.0122313
0.0238319
0.0158107
0.0196313
0.0211968
0.0125161
0.00607022
0.00605869
0.0060806
0.00607536
0.00611582
0.00611372
0.00617152
0.00617228
0.00624524
0.00625107
0.00648266
0.00640479
0.00633687
0.00627257
0.00622102
0.00617153
0.00613829
0.00610359
0.00608855
0.00606676
0.00678821
0.00682649
0.00732798
0.00773835
0.00803239
0.00744138
0.00771718
0.00699742
0.00693362
0.00657514
)
;
    }
    cylinder
    {
        type            calculated;
        value           nonuniform List<scalar> 
80
(
0.0116242
0.0115671
0.012554
0.0160177
0.0349673
0.0317235
0.0185464
0.0141243
0.0149063
0.0221993
0.0157112
0.0119793
0.0114725
0.0128198
0.0196316
0.0310021
0.016244
0.00969518
0.00769111
0.0067519
0.00550178
0.00547946
0.00546896
0.00547005
0.00548997
0.00553161
0.00560648
0.0057269
0.00591906
0.00623077
0.00756122
0.00681456
0.00639618
0.00613072
0.00594341
0.00580838
0.00570684
0.00563076
0.00557467
0.00553167
0.00585474
0.00597146
0.00611871
0.00631602
0.00660147
0.0070405
0.00785344
0.00984318
0.0138219
0.0093738
0.00549014
0.00544833
0.00543297
0.00543715
0.005459
0.00549492
0.00554311
0.00560364
0.00567547
0.00575894
0.00556527
0.00568699
0.00587525
0.0061581
0.00658074
0.00722569
0.00827188
0.0101951
0.0148439
0.0349151
0.0400961
0.0249631
0.01789
0.0156915
0.015984
0.0200497
0.0311854
0.0311666
0.0160791
0.0127198
)
;
    }
    defaultFaces
    {
        type            empty;
    }
}


// ************************************************************************* //
