/*--------------------------------*- C++ -*----------------------------------*\
| =========                 |                                                 |
| \\      /  F ield         | OpenFOAM: The Open Source CFD Toolbox           |
|  \\    /   O peration     | Version:  2406                                  |
|   \\  /    A nd           | Website:  www.openfoam.com                      |
|    \\/     M anipulation  |                                                 |
\*---------------------------------------------------------------------------*/
FoamFile
{
    version     2.0;
    format      ascii;
    arch        "LSB;label=32;scalar=64";
    class       volScalarField;
    location    "1.8";
    object      p;
}
// * * * * * * * * * * * * * * * * * * * * * * * * * * * * * * * * * * * * * //

dimensions      [0 2 -2 0 0 0 0];

internalField   nonuniform List<scalar> 
1800
(
-0.479291
-0.483675
-0.484256
-0.480466
-0.470345
-0.463842
-0.460636
-0.451624
-0.441655
-0.453728
-0.511675
-0.514588
-0.514834
-0.513936
-0.510391
-0.5048
-0.498319
-0.49056
-0.47929
-0.500112
-0.556006
-0.550722
-0.556574
-0.554903
-0.547341
-0.539455
-0.530582
-0.52014
-0.506678
-0.505401
-0.607836
-0.594655
-0.584364
-0.58017
-0.574334
-0.566034
-0.555037
-0.541488
-0.526136
-0.511946
-0.630965
-0.625851
-0.620454
-0.613342
-0.604053
-0.591708
-0.576021
-0.55764
-0.537656
-0.517456
-0.685276
-0.673055
-0.66421
-0.652829
-0.637736
-0.618476
-0.595559
-0.569983
-0.54279
-0.515468
-0.745062
-0.726498
-0.714162
-0.697207
-0.673778
-0.645052
-0.613174
-0.579841
-0.546456
-0.513488
-0.809948
-0.78684
-0.769799
-0.743811
-0.708498
-0.667923
-0.625561
-0.582932
-0.540638
-0.499832
-0.87927
-0.850908
-0.825696
-0.786426
-0.736394
-0.682681
-0.628444
-0.573794
-0.520655
-0.473443
-0.943058
-0.909563
-0.870989
-0.815006
-0.749357
-0.681814
-0.614295
-0.548607
-0.489788
-0.437116
-0.828993
-0.831377
-0.83254
-0.833601
-0.834711
-0.835918
-0.83738
-0.839361
-0.841937
-0.8436
-0.786248
-0.785676
-0.785883
-0.786332
-0.787092
-0.788242
-0.789883
-0.792135
-0.795001
-0.798029
-0.741619
-0.737676
-0.736574
-0.735957
-0.735769
-0.736192
-0.737289
-0.739161
-0.741967
-0.745529
-0.694966
-0.68744
-0.684688
-0.682357
-0.680424
-0.679261
-0.678979
-0.679683
-0.68152
-0.684133
-0.646059
-0.636601
-0.631896
-0.62715
-0.622556
-0.618713
-0.615816
-0.613971
-0.613218
-0.612895
-0.593057
-0.587084
-0.580975
-0.573641
-0.565824
-0.558257
-0.551291
-0.545126
-0.539795
-0.534604
-0.548126
-0.54362
-0.535458
-0.526141
-0.515553
-0.504118
-0.492271
-0.480394
-0.468787
-0.457461
-0.516024
-0.512542
-0.505071
-0.493576
-0.479266
-0.464257
-0.447728
-0.429937
-0.411725
-0.394656
-0.478759
-0.484131
-0.481305
-0.471636
-0.45855
-0.44336
-0.425294
-0.404549
-0.382624
-0.361988
-0.465263
-0.468794
-0.467845
-0.460966
-0.444444
-0.42988
-0.416899
-0.398837
-0.377176
-0.353361
-0.837816
-0.982882
-1.11074
-1.1809
-1.04373
-0.751264
-0.452713
-0.2279
-0.0849616
-0.00892819
-0.819959
-1.02699
-1.20894
-1.31558
-1.15959
-0.816273
-0.473249
-0.224362
-0.0750424
-0.0022543
-0.787226
-1.06657
-1.31096
-1.46315
-1.28853
-0.887752
-0.495976
-0.220337
-0.0641041
0.00526101
-0.736566
-1.09207
-1.411
-1.6147
-1.42464
-0.965589
-0.52105
-0.216638
-0.0529252
0.012833
-0.665739
-1.09206
-1.49853
-1.75908
-1.56311
-1.04769
-0.549029
-0.214556
-0.042952
0.0191683
-0.574917
-1.06223
-1.55694
-1.88748
-1.69621
-1.13111
-0.5801
-0.215319
-0.035815
0.023014
-0.469015
-0.999631
-1.5792
-1.98766
-1.81457
-1.21107
-0.613855
-0.220127
-0.0326924
0.0238344
-0.357453
-0.904743
-1.56281
-2.05111
-1.9084
-1.28249
-0.64974
-0.230533
-0.0343878
0.0218299
-0.260203
-0.7794
-1.50504
-2.07586
-1.97342
-1.3421
-0.686753
-0.247594
-0.0417751
0.0173056
-0.210724
-0.636952
-1.41224
-2.05934
-2.01186
-1.39041
-0.723909
-0.27065
-0.0552189
0.0103245
-0.130143
-0.506323
-1.33607
-2.04005
-2.01158
-1.39812
-0.742663
-0.294945
-0.0767218
-0.00148372
-0.161759
-0.458599
-1.28016
-1.91744
-1.90338
-1.33541
-0.73913
-0.327112
-0.111092
-0.018843
-0.201395
-0.464441
-1.1937
-1.76381
-1.7464
-1.266
-0.747702
-0.370615
-0.150035
-0.0358636
-0.24204
-0.4624
-1.07211
-1.54969
-1.55847
-1.20189
-0.778874
-0.433775
-0.197149
-0.0533837
-0.256799
-0.434654
-0.924011
-1.32157
-1.3738
-1.15554
-0.832115
-0.514384
-0.252101
-0.070892
-0.247451
-0.392654
-0.775743
-1.10735
-1.21609
-1.13297
-0.901268
-0.595713
-0.304017
-0.0851518
-0.216517
-0.341258
-0.634959
-0.916034
-1.08884
-1.13222
-0.973731
-0.667181
-0.342925
-0.093437
-0.174052
-0.281214
-0.505009
-0.762305
-0.992545
-1.12224
-1.00311
-0.69764
-0.362082
-0.0972797
-0.117409
-0.230067
-0.444527
-0.663828
-0.910686
-1.09484
-0.997679
-0.699976
-0.366812
-0.0994303
-0.0924135
-0.195579
-0.432969
-0.704151
-0.925998
-1.06912
-0.967859
-0.681447
-0.359972
-0.0994114
-0.347641
-0.392235
-0.423428
-0.448278
-0.466859
-0.480846
-0.486317
-0.481192
-0.435151
-0.402479
-0.238551
-0.289004
-0.327797
-0.358651
-0.383646
-0.401156
-0.39759
-0.390461
-0.363741
-0.359136
-0.146107
-0.198637
-0.240867
-0.274709
-0.299974
-0.32307
-0.326528
-0.332101
-0.319415
-0.31682
-0.0656068
-0.118701
-0.163028
-0.20023
-0.229101
-0.256478
-0.270228
-0.285578
-0.284682
-0.289768
0.00286457
-0.0502987
-0.0959823
-0.135988
-0.168247
-0.198368
-0.21885
-0.239053
-0.248457
-0.26184
0.0597653
0.0068976
-0.0392468
-0.0802742
-0.114287
-0.14527
-0.16912
-0.19201
-0.208262
-0.227111
0.10603
0.0537363
0.00778929
-0.0329538
-0.0671995
-0.0975984
-0.122582
-0.145691
-0.164997
-0.185299
0.14256
0.090735
0.0448777
0.00498832
-0.0288007
-0.0576986
-0.0816515
-0.102569
-0.120863
-0.138095
0.164847
0.113901
0.0676983
0.0284462
-0.00511121
-0.0321109
-0.0539168
-0.0707688
-0.0839547
-0.0936306
0.175441
0.123582
0.0768301
0.0369939
0.00247635
-0.0248835
-0.0471655
-0.0629816
-0.0742365
-0.0800867
0.831557
0.776168
0.712127
0.644225
0.571281
0.490615
0.402238
0.311531
0.228517
0.174535
0.666762
0.607766
0.541823
0.469838
0.390039
0.300337
0.201661
0.100762
0.00929067
-0.0514297
0.486079
0.425622
0.358593
0.28404
0.19998
0.104649
-0.000392626
-0.10779
-0.204669
-0.27001
0.31309
0.250596
0.180988
0.103049
0.0150444
-0.0845614
-0.193896
-0.305916
-0.406532
-0.471825
0.1562
0.0910038
0.0181122
-0.0635382
-0.155621
-0.259287
-0.37116
-0.48681
-0.586264
-0.650872
0.0139592
-0.0538715
-0.129335
-0.213168
-0.306769
-0.4115
-0.523941
-0.636771
-0.734497
-0.796909
-0.11126
-0.180177
-0.256316
-0.341137
-0.436001
-0.539153
-0.648056
-0.756192
-0.848921
-0.906267
-0.222035
-0.290037
-0.365032
-0.446892
-0.535159
-0.633131
-0.737773
-0.839202
-0.923052
-0.973839
-0.31416
-0.377616
-0.447545
-0.524783
-0.609381
-0.701834
-0.795739
-0.884758
-0.95498
-0.999313
-0.38565
-0.444337
-0.508721
-0.580092
-0.658635
-0.73982
-0.820382
-0.893703
-0.948509
-0.986964
1.80379
1.8168
1.83062
1.84414
1.85663
1.86759
1.8764
1.88232
1.88703
1.90403
1.76307
1.77412
1.78536
1.79586
1.80499
1.81223
1.81701
1.81909
1.82085
1.83544
1.70331
1.71159
1.71929
1.72568
1.73029
1.73254
1.73187
1.72853
1.72557
1.73585
1.62582
1.63079
1.63405
1.63522
1.63404
1.62983
1.62201
1.61137
1.60175
1.60616
1.53135
1.53221
1.53013
1.52515
1.51723
1.50559
1.48958
1.47044
1.45285
1.45054
1.42322
1.41962
1.41133
1.39902
1.383
1.36244
1.33674
1.30765
1.28058
1.27072
1.303
1.29433
1.27937
1.25931
1.23468
1.20449
1.16814
1.12797
1.09001
1.0724
1.1772
1.16278
1.13962
1.11001
1.07507
1.0338
0.985772
0.933921
0.884832
0.858157
1.05066
1.02969
0.997472
0.957533
0.911319
0.857685
0.796403
0.731349
0.670309
0.633968
0.934722
0.899629
0.852693
0.799285
0.740471
0.674227
0.600086
0.5225
0.450365
0.404943
1.67057
1.65967
1.65304
1.63468
1.62416
1.61956
1.62136
1.6357
1.66799
1.74588
1.66758
1.65694
1.65062
1.63282
1.62235
1.61557
1.61619
1.6268
1.65395
1.72156
1.66526
1.65416
1.64827
1.63073
1.6202
1.61073
1.6098
1.61501
1.63467
1.68634
1.6635
1.65144
1.64604
1.62845
1.61769
1.60505
1.60227
1.60032
1.61056
1.63994
1.66224
1.64877
1.64391
1.62601
1.61481
1.59857
1.59358
1.58271
1.58211
1.58185
1.66145
1.64612
1.64193
1.62343
1.61152
1.59131
1.58361
1.56215
1.54984
1.51181
1.66108
1.64344
1.64011
1.62071
1.6078
1.58327
1.57229
1.53869
1.51425
1.4295
1.66108
1.6408
1.63848
1.61781
1.60361
1.57446
1.55973
1.51254
1.47521
1.3362
1.66138
1.63831
1.63738
1.6149
1.59906
1.56481
1.54608
1.48389
1.43216
1.23138
1.6619
1.63604
1.63773
1.61247
1.59452
1.55461
1.53149
1.45382
1.38761
1.12425
1.66316
1.63388
1.63406
1.60824
1.58802
1.54267
1.51388
1.41995
1.33213
1.02069
1.66596
1.63342
1.64004
1.60659
1.58463
1.53148
1.49699
1.39326
1.28345
1.01585
1.67009
1.63397
1.64152
1.60494
1.58182
1.52236
1.48048
1.37478
1.24515
1.01526
1.67511
1.63558
1.64336
1.60412
1.57757
1.51922
1.46453
1.36304
1.21591
1.01087
1.68138
1.63856
1.6439
1.60333
1.57004
1.52116
1.44862
1.35433
1.19328
1.00287
1.69078
1.64138
1.64041
1.59809
1.55893
1.52302
1.43266
1.34663
1.17762
0.99411
1.70465
1.64502
1.63428
1.57715
1.54429
1.5236
1.41698
1.34025
1.1703
0.989097
1.72442
1.65057
1.63283
1.56859
1.53065
1.52386
1.40158
1.33894
1.1708
0.990046
1.73825
1.65301
1.63292
1.56665
1.5203
1.52399
1.38912
1.34367
1.17301
0.995994
1.78389
1.65249
1.62889
1.55965
1.51856
1.52439
1.38598
1.35606
1.17676
1.0105
0.816178
0.680188
0.519024
0.363803
0.222959
0.0952194
-0.0198687
-0.12314
-0.213375
-0.287686
0.774135
0.663907
0.537012
0.409992
0.291139
0.181047
0.0785209
-0.0165676
-0.101685
-0.175995
0.761018
0.661226
0.554011
0.446636
0.343357
0.24544
0.152731
0.0659287
-0.0132315
-0.0843862
0.762656
0.668283
0.572382
0.479206
0.389129
0.302125
0.218172
0.138271
0.063581
-0.00486071
0.77135
0.683231
0.595608
0.512329
0.431885
0.352875
0.27519
0.199994
0.128715
0.0625221
0.78388
0.702862
0.621999
0.545031
0.470427
0.396389
0.322741
0.250766
0.182249
0.118107
0.799554
0.725077
0.649539
0.576369
0.50488
0.433705
0.362558
0.292684
0.225647
0.163325
0.817355
0.747863
0.676175
0.605095
0.534992
0.465153
0.395787
0.32807
0.262572
0.200203
0.830618
0.762968
0.693281
0.623055
0.552972
0.482799
0.413458
0.346104
0.281315
0.221152
0.847733
0.780966
0.712104
0.641184
0.569271
0.497673
0.427528
0.359539
0.294394
0.232973
-1.59584
-1.53641
-1.44917
-1.35128
-1.25681
-1.17215
-1.09778
-1.03497
-0.983465
-0.943668
-1.69562
-1.6426
-1.56318
-1.46906
-1.37584
-1.29259
-1.21978
-1.15665
-1.10411
-1.06352
-1.74523
-1.6988
-1.6292
-1.54216
-1.45449
-1.37288
-1.30005
-1.23621
-1.18154
-1.13758
-1.75021
-1.71055
-1.65299
-1.57641
-1.49426
-1.41501
-1.34267
-1.27858
-1.22233
-1.17495
-1.72054
-1.68764
-1.64343
-1.57962
-1.5054
-1.43013
-1.35908
-1.29482
-1.23742
-1.18717
-1.6688
-1.64232
-1.61048
-1.56003
-1.49595
-1.42674
-1.35815
-1.2939
-1.23553
-1.18347
-1.60708
-1.58626
-1.56407
-1.52622
-1.47381
-1.41298
-1.34921
-1.28676
-1.22867
-1.17725
-1.54356
-1.52718
-1.5119
-1.48464
-1.44376
-1.39221
-1.33444
-1.27464
-1.21687
-1.16486
-1.4823
-1.46914
-1.45854
-1.43957
-1.40909
-1.36745
-1.31749
-1.26273
-1.20764
-1.1599
-1.42369
-1.41307
-1.40574
-1.39269
-1.37053
-1.33783
-1.29533
-1.24494
-1.18923
-1.13745
-1.36667
-1.35765
-1.35365
-1.34495
-1.32929
-1.30469
-1.27064
-1.22846
-1.1795
-1.12427
-1.30613
-1.30586
-1.30424
-1.29817
-1.28706
-1.26869
-1.24167
-1.20647
-1.16383
-1.1107
-1.25469
-1.25541
-1.25409
-1.2509
-1.2435
-1.22965
-1.2078
-1.17784
-1.13967
-1.08866
-1.20001
-1.20044
-1.201
-1.20009
-1.19531
-1.18455
-1.16655
-1.14109
-1.10737
-1.06112
-1.14046
-1.14151
-1.14305
-1.14324
-1.14019
-1.13167
-1.11667
-1.09544
-1.06754
-1.03011
-1.0806
-1.08142
-1.08261
-1.08348
-1.08184
-1.07559
-1.06369
-1.04662
-1.02535
-0.997989
-1.018
-1.02381
-1.0255
-1.02673
-1.02617
-1.0224
-1.01436
-1.00185
-0.986117
-0.967358
-0.962881
-0.970516
-0.973112
-0.974765
-0.975118
-0.973541
-0.969498
-0.962261
-0.951854
-0.938708
-0.915411
-0.922204
-0.92462
-0.926295
-0.927214
-0.927077
-0.925907
-0.923502
-0.91867
-0.909811
-0.871402
-0.876209
-0.878051
-0.879408
-0.880413
-0.880935
-0.881134
-0.881349
-0.881104
-0.877938
-0.941507
-0.704683
-0.655181
-0.656536
-0.628975
-0.537172
-0.404563
-0.265673
-0.144141
-0.0398376
-0.916552
-0.693368
-0.660795
-0.667958
-0.637115
-0.53549
-0.400567
-0.260936
-0.140071
-0.0381467
-0.895448
-0.692732
-0.674404
-0.6853
-0.649074
-0.536879
-0.39763
-0.256304
-0.135638
-0.0361305
-0.880992
-0.704744
-0.696881
-0.709398
-0.665527
-0.54233
-0.396173
-0.251923
-0.130941
-0.0339252
-0.871799
-0.728045
-0.727872
-0.740945
-0.687677
-0.551839
-0.396347
-0.247781
-0.125949
-0.0315609
-0.864965
-0.76
-0.767451
-0.781056
-0.717007
-0.56587
-0.398407
-0.243877
-0.120603
-0.0290068
-0.858607
-0.798537
-0.8164
-0.831152
-0.754336
-0.58541
-0.402744
-0.240216
-0.114817
-0.0261824
-0.85204
-0.843362
-0.873951
-0.893105
-0.803238
-0.611988
-0.409906
-0.236829
-0.108486
-0.0229527
-0.845906
-0.890231
-0.941902
-0.970175
-0.866225
-0.647519
-0.420511
-0.233746
-0.101498
-0.0191366
-0.84201
-0.937369
-1.02092
-1.06546
-0.945284
-0.694627
-0.434892
-0.230886
-0.0937211
-0.0145271
-0.927354
-0.750146
-0.68267
-0.649843
-0.607495
-0.513039
-0.394358
-0.250187
-0.139785
-0.0379756
-0.913257
-0.742278
-0.67708
-0.649841
-0.609135
-0.513064
-0.39304
-0.261648
-0.142916
-0.0397581
-0.911382
-0.733698
-0.670923
-0.649412
-0.612784
-0.517067
-0.39223
-0.261211
-0.143831
-0.0399754
-0.91516
-0.723392
-0.66307
-0.648436
-0.615844
-0.523175
-0.397907
-0.26414
-0.145287
-0.0404987
-0.933235
-0.709429
-0.651742
-0.647138
-0.619195
-0.531261
-0.403537
-0.266929
-0.146134
-0.0407975
-0.90438
-1.01827
-1.08709
-1.12058
-1.12167
-1.10802
-1.07852
-1.05084
-1.01671
-0.987625
-0.901626
-1.01553
-1.08196
-1.1117
-1.10914
-1.09091
-1.05974
-1.02773
-0.994682
-0.959801
-0.904465
-1.01893
-1.08492
-1.11358
-1.11142
-1.09227
-1.06584
-1.03359
-1.00832
-0.977742
-0.911269
-1.02748
-1.09462
-1.12403
-1.12467
-1.108
-1.08852
-1.05999
-1.04297
-1.01759
-0.922621
-1.04132
-1.11095
-1.14292
-1.14841
-1.13789
-1.12616
-1.1064
-1.0955
-1.07512
1.25457
1.24124
1.22123
1.19832
1.1735
1.14565
1.11438
1.08211
1.05434
1.04334
1.36259
1.35843
1.34869
1.3357
1.32031
1.30183
1.28003
1.25692
1.23738
1.23244
1.46765
1.46823
1.4648
1.4589
1.45108
1.4408
1.42774
1.41322
1.4012
1.40215
1.56326
1.56767
1.56969
1.57008
1.56899
1.56585
1.56017
1.55265
1.54669
1.55303
1.64751
1.65528
1.6617
1.66704
1.67119
1.67362
1.67377
1.67182
1.67061
1.68138
1.71752
1.72797
1.73803
1.74749
1.75602
1.76312
1.76811
1.77058
1.7728
1.7869
1.77181
1.78438
1.79731
1.81
1.82194
1.83261
1.84124
1.84684
1.85108
1.86668
1.80874
1.82276
1.83771
1.85272
1.86712
1.88044
1.89188
1.90005
1.90576
1.91974
1.82686
1.84148
1.85733
1.87336
1.88882
1.90331
1.91615
1.92587
1.9323
1.94356
1.82524
1.8395
1.8549
1.87029
1.88492
1.89832
1.90983
1.91827
1.92458
1.94081
-0.776033
-0.817057
-0.869013
-0.931974
-1.00661
-1.09254
-1.18911
-1.29032
-1.38117
-1.44517
-0.564907
-0.608672
-0.662107
-0.725798
-0.800894
-0.888117
-0.984962
-1.08797
-1.18041
-1.24655
-0.322163
-0.369579
-0.425433
-0.490493
-0.565865
-0.652407
-0.748795
-0.849516
-0.942014
-1.00911
-0.0649043
-0.115693
-0.17378
-0.239725
-0.314598
-0.399397
-0.493032
-0.589697
-0.6787
-0.74272
0.187305
0.134889
0.0763939
0.0115482
-0.0606654
-0.141356
-0.229827
-0.320668
-0.40417
-0.461294
0.419723
0.368965
0.313244
0.252387
0.185394
0.111107
0.0300226
-0.0528396
-0.128519
-0.177414
0.626851
0.581032
0.531187
0.477052
0.417623
0.351756
0.279837
0.20652
0.140087
0.0998657
0.813614
0.774365
0.731915
0.685777
0.634858
0.578058
0.515773
0.452377
0.39557
0.363678
0.989144
0.955763
0.919179
0.879747
0.836439
0.788127
0.735163
0.68151
0.634181
0.609962
1.14904
1.12082
1.0878
1.05346
1.01725
0.977673
0.934615
0.891189
0.853506
0.83622
1.75186
1.69186
1.6691
1.63791
1.61727
1.6065
1.58923
1.57165
1.50781
1.40218
1.73803
1.68868
1.66915
1.64225
1.62105
1.61305
1.59901
1.58503
1.54233
1.47818
1.72597
1.68476
1.66943
1.64606
1.62319
1.6183
1.60778
1.60092
1.5768
1.55076
1.71553
1.68058
1.6702
1.64412
1.62298
1.62235
1.6153
1.61522
1.60703
1.61258
1.70652
1.67723
1.66996
1.63976
1.62299
1.62435
1.6211
1.62698
1.63205
1.66375
1.69867
1.67382
1.66708
1.6393
1.62512
1.62562
1.62518
1.63596
1.65217
1.70424
1.69166
1.67042
1.66406
1.63923
1.6266
1.6262
1.62761
1.64197
1.66693
1.73413
1.68522
1.66724
1.66111
1.63863
1.62705
1.62595
1.62839
1.64491
1.67599
1.75339
1.67944
1.66453
1.65826
1.6376
1.62665
1.62477
1.62756
1.64481
1.67916
1.76184
1.67451
1.66218
1.65557
1.63627
1.62562
1.62264
1.62519
1.64171
1.67646
1.75933
1.87051
1.70392
1.66242
1.61932
1.59475
1.57814
1.55153
1.5169
1.416
1.31296
1.83185
1.70687
1.67024
1.62623
1.59843
1.58005
1.55189
1.51718
1.4151
1.2966
1.80998
1.70438
1.67055
1.62874
1.60142
1.5836
1.55609
1.52273
1.42486
1.29726
1.7876
1.69878
1.67123
1.63209
1.60639
1.5898
1.56394
1.53339
1.44078
1.3075
1.76807
1.69486
1.67096
1.6347
1.61176
1.59748
1.57499
1.54831
1.46358
1.32797
1.05073
0.938077
0.796701
0.620241
0.411006
0.175389
-0.0739477
-0.320364
-0.548481
-0.746082
1.03727
0.926485
0.787807
0.616077
0.413294
0.183373
-0.0636315
-0.311259
-0.542469
-0.742771
1.05039
0.937697
0.796232
0.624205
0.423038
0.194205
-0.0536422
-0.304124
-0.539061
-0.742869
1.07835
0.955845
0.807016
0.633489
0.432886
0.203861
-0.0457792
-0.299752
-0.538944
-0.746747
1.12713
0.984456
0.820782
0.641949
0.439936
0.210099
-0.0413303
-0.298757
-0.542442
-0.754689
)
;

boundaryField
{
    left
    {
        type            zeroGradient;
    }
    right
    {
        type            fixedValue;
        value           uniform 0;
    }
    down
    {
        type            zeroGradient;
    }
    up
    {
        type            zeroGradient;
    }
    cylinder
    {
        type            zeroGradient;
    }
    defaultFaces
    {
        type            empty;
    }
}


// ************************************************************************* //
