/*--------------------------------*- C++ -*----------------------------------*\
| =========                 |                                                 |
| \\      /  F ield         | OpenFOAM: The Open Source CFD Toolbox           |
|  \\    /   O peration     | Version:  2406                                  |
|   \\  /    A nd           | Website:  www.openfoam.com                      |
|    \\/     M anipulation  |                                                 |
\*---------------------------------------------------------------------------*/
FoamFile
{
    version     2.0;
    format      ascii;
    arch        "LSB;label=32;scalar=64";
    class       surfaceScalarField;
    location    "1.8";
    object      phi;
}
// * * * * * * * * * * * * * * * * * * * * * * * * * * * * * * * * * * * * * //

dimensions      [0 3 -1 0 0 0 0];

oriented        oriented;

internalField   nonuniform List<scalar> 
3485
(
-0.00160942
0.00220097
-0.000591541
-0.0036138
0.00301499
-0.00101061
-0.00519513
0.00283772
-0.00125639
-0.00588092
0.00212715
-0.00144136
-0.00490062
0.00052358
-0.00150388
-0.000576826
-0.00307494
-0.00124885
0.00830442
-0.00890193
2.06872e-05
0.0225589
-0.0164191
0.00216461
0.0422941
-0.0252626
0.00552737
-0.0311294
0.00950183
0.0639217
-0.000929715
0.00313068
-0.00128738
0.00337265
-0.00141994
0.00297029
-5.36648e-06
0.000712567
0.00520222
-0.00468401
0.0159101
-0.0137829
0.0327059
-0.0256977
0.05566
-0.0393732
0.0845617
-0.0541644
-0.0639388
0.117371
0.000105103
0.00302558
0.000136198
0.00334155
0.00212105
0.000985446
0.00863738
-0.00580377
0.0214766
-0.0175232
0.0409423
-0.0332486
0.066469
-0.0512244
0.09672
-0.0696242
0.130096
-0.0875407
-0.100489
0.166647
0.00145575
0.00156982
0.00344566
0.00135165
0.00944455
-0.00501344
0.0223686
-0.0187278
0.0431683
-0.038323
0.070759
-0.0608392
0.10281
-0.0832755
0.136645
-0.103459
0.16954
-0.120436
-0.132807
0.201858
0.00087448
0.000695344
0.00536037
-0.00313425
0.0172822
-0.0169352
0.0382112
-0.0396568
0.066731
-0.0668428
0.099383
-0.0934913
0.132378
-0.11627
0.162823
-0.133904
0.188948
-0.146561
-0.154833
0.210974
0.00121221
-0.000516864
0.00957521
-0.0114972
0.0282534
-0.0356134
0.0560304
-0.0674339
0.0880528
-0.0988651
0.11915
-0.124588
0.145944
-0.143064
0.16719
-0.15515
0.183208
-0.16258
-0.1669
0.195275
0.00264425
-0.00316112
0.0159621
-0.0248151
0.0405046
-0.0601558
0.0706429
-0.0975722
0.0994931
-0.127715
0.123048
-0.148143
0.14053
-0.160546
0.153096
-0.167716
0.162399
-0.171882
-0.174373
0.169872
0.00483531
-0.00799642
0.0227859
-0.0427657
0.0496044
-0.0869744
0.0763617
-0.124329
0.0976794
-0.149033
0.112749
-0.163213
0.123118
-0.170915
0.130621
-0.17522
0.13652
-0.177781
-0.179384
0.14153
0.00705921
-0.0150556
0.0276985
-0.063405
0.0522738
-0.11155
0.0725521
-0.144608
0.0865773
-0.163058
0.0957628
-0.172398
0.102022
-0.177175
0.106694
-0.179891
0.110514
-0.181601
-0.182578
0.113708
0.0089349
-0.0239905
0.0292713
-0.0837414
0.0488589
-0.131137
0.0627564
-0.158505
0.0714037
-0.171706
0.0766779
-0.177672
0.0803196
-0.180816
0.0832134
-0.182785
0.0852583
-0.183646
0.0861815
-0.183501
-0.000347667
0.00323587
-0.0028882
-0.00153285
0.0132391
-0.0120539
-0.00334236
0.0221404
-0.0203309
-0.00541166
0.0284838
-0.0264145
-0.00746229
0.0327749
-0.0307242
-0.00933952
0.0357529
-0.0338757
-0.010985
0.037918
-0.0362726
-0.0124003
0.0395764
-0.038161
-0.0136056
0.0409384
-0.0397331
0.0421548
-0.0146091
-0.0411513
0.000297885
0.00293798
0.000431014
0.013106
-2.5652e-05
0.022597
-0.000954513
0.0294126
-0.00209761
0.033918
-0.00326909
0.0369244
-0.00436857
0.0390175
-0.00534084
0.0405487
-0.00613814
0.0417357
0.0427313
-0.00671457
0.000888316
0.00204967
0.00253312
0.0114612
0.00379927
0.0213309
0.00444353
0.0287684
0.00465796
0.0337035
0.00468344
0.0368989
0.00468937
0.0390116
0.00478233
0.0404557
0.00503645
0.0414816
0.0422702
0.00549752
0.00120344
0.000846223
0.00433258
0.00833204
0.00764587
0.0180176
0.0103641
0.0260502
0.0124647
0.0316029
0.0141851
0.0351785
0.0157653
0.0374314
0.0173857
0.0388352
0.0191849
0.0396824
0.0401563
0.0212988
0.000978209
-0.000131986
0.0050075
0.00430275
0.0102939
0.0127312
0.015413
0.020931
0.0198921
0.0271239
0.0238032
0.0312674
0.0273964
0.0338382
0.0309312
0.0353004
0.0346453
0.0359683
0.0359824
0.0388193
0.000689477
-0.000821464
0.00422892
0.0007633
0.0104424
0.00651768
0.0175327
0.0138408
0.024437
0.0202195
0.0308399
0.0248645
0.0368159
0.0278622
0.0425928
0.0295236
0.0484631
0.030098
0.0295797
0.0548658
0.000680047
-0.00150151
0.00277578
-0.00133243
0.00793485
0.00135861
0.0152695
0.00650611
0.0234113
0.0120778
0.0316105
0.0166653
0.0396282
0.0198445
0.0475001
0.0216516
0.0554427
0.0221554
0.0210525
0.0639699
0.000450755
-0.00195227
0.001127
-0.00200868
0.00350124
-0.00101563
0.00844115
0.0015662
0.0154625
0.00505639
0.0234384
0.00868947
0.0318402
0.0114427
0.0405271
0.0129647
0.0496173
0.0130652
0.0111741
0.0594956
-0.000953063
-0.000999203
-0.00173239
-0.00122935
-0.00211283
-0.000635185
-0.000972285
0.000425651
0.00246217
0.00162194
0.00779711
0.00335453
0.014494
0.00474582
0.022331
0.00512769
0.0312822
0.00411405
0.00123918
0.0412171
-0.00159074
-0.0038307
-0.00572228
-0.00673798
-0.00661993
-0.00451425
0.000252254
0.00754456
0.017186
0.027927
-0.0123
0.422781
-0.42509
-0.0213922
0.447713
-0.438621
-0.0374207
0.3188
-0.302772
-0.0376997
0.126457
-0.126178
-0.00966059
-0.110648
0.0826091
0.0307931
-0.26965
0.229196
0.0716905
-0.337573
0.296675
0.103061
-0.311385
0.280015
0.128103
-0.277459
0.252417
-0.157777
0.144924
-0.00617144
0.422238
-0.0191785
0.46072
-0.0374045
0.337026
-0.0351052
0.124158
-0.0034188
-0.142335
0.0396351
-0.312704
0.081295
-0.379232
0.11158
-0.34167
0.135559
-0.301438
-0.170539
0.0070068
0.420729
-0.00774875
0.475476
-0.0262311
0.355509
-0.0219492
0.119876
0.0118029
-0.176087
0.0579108
-0.358812
0.0994314
-0.420753
0.126669
-0.368908
0.147075
-0.321843
-0.181914
0.0281146
0.413913
0.0139544
0.489636
-0.0048025
0.374266
0.000987883
0.114086
0.0349737
-0.210073
0.0836629
-0.407501
0.125764
-0.462854
0.149824
-0.392968
0.164441
-0.336459
-0.190204
0.0553828
0.397349
0.042798
0.502221
0.0257178
0.391346
0.0314058
0.108398
0.0640806
-0.242747
0.113061
-0.456482
0.156454
-0.506246
0.179723
-0.416238
0.188415
-0.345151
-0.194148
0.085815
0.3664
0.0790819
0.508954
0.0644867
0.405941
0.0694832
0.103401
0.100213
-0.273477
0.146035
-0.502305
0.188045
-0.548256
0.212392
-0.440585
0.217549
-0.350308
-0.194
0.115865
0.314505
0.119907
0.504911
0.108467
0.417381
0.113146
0.0987218
0.143631
-0.303962
0.184998
-0.543672
0.221107
-0.584365
0.244564
-0.464042
0.248629
-0.354373
-0.191474
0.139148
0.234853
0.159503
0.484556
0.153149
0.423736
0.157513
0.0943578
0.187873
-0.334322
0.226805
-0.582604
0.256524
-0.614083
0.275636
-0.483153
0.278704
-0.357442
-0.188293
0.152267
0.123803
0.198233
0.438591
0.195686
0.426283
0.1976
0.0924443
0.226326
-0.363048
0.264237
-0.620515
0.291178
-0.641024
0.305535
-0.49751
0.306258
-0.358165
-0.185113
0.142714
0.00901594
0.218229
0.363076
0.228373
0.416138
0.233387
0.0874305
0.2591
-0.388761
0.294929
-0.656344
0.321383
-0.667478
0.332912
-0.509039
0.330618
-0.35587
-0.181896
0.268817
-0.0132009
-0.2466
0.360106
0.271786
0.435756
0.340489
0.537861
-0.014675
0.623281
-0.474181
0.657615
-0.690678
0.646183
-0.656046
0.611999
-0.474855
0.567126
-0.310997
-0.153643
0.442522
0.0419103
-0.497633
0.480468
0.23384
0.580784
0.240174
0.70124
-0.135131
0.766101
-0.539043
0.763299
-0.687875
0.716823
-0.60957
0.66062
-0.418652
0.602576
-0.252953
-0.119046
0.602686
0.0709749
-0.63175
0.633269
0.203256
0.734797
0.138646
0.82822
-0.228554
0.859934
-0.570756
0.831996
-0.659938
0.76115
-0.538724
0.685389
-0.34289
0.617055
-0.184619
-0.0807801
0.703738
0.0643478
-0.69711
0.760838
0.146156
0.851085
0.048399
0.914173
-0.291643
0.924273
-0.580856
0.878424
-0.614089
0.790642
-0.450942
0.69757
-0.249818
0.617346
-0.104395
-0.0386049
0.767903
0.0369869
-0.740543
0.836852
0.0772077
0.914611
-0.0293604
0.961062
-0.338094
0.950522
-0.570316
0.875341
-0.538907
0.768771
-0.344373
0.672048
-0.153096
0.59531
-0.0276568
0.000887651
0.808744
0.00256409
-0.774321
0.870927
0.015025
0.939906
-0.0983399
0.974516
-0.372704
0.931397
-0.527197
0.821724
-0.429234
0.698972
-0.22162
0.604212
-0.058336
0.541993
0.0345629
0.0296719
0.821776
-0.0269306
-0.792282
0.875579
-0.0387773
0.938682
-0.161443
0.932553
-0.366575
0.82515
-0.419793
0.679721
-0.283806
0.562692
-0.104591
0.491145
0.0132115
0.457465
0.068243
0.0417756
0.801493
-0.0453829
-0.783041
0.847991
-0.0852754
0.872073
-0.185526
0.773803
-0.268305
0.589791
-0.235781
0.432475
-0.12649
0.351932
-0.0240484
0.328449
0.0366944
0.33557
0.0611215
0.0341259
0.698369
-0.0460554
-0.697697
0.704197
-0.0911031
0.620128
-0.101457
0.42651
-0.0746874
0.241708
-0.0509781
0.14684
-0.0316231
0.128755
-0.00596275
0.148785
0.0166644
0.183776
0.0261303
0.0150494
0.336744
-0.3828
0.245641
0.144184
0.069497
0.0185189
-0.0131043
-0.019067
-0.00240259
0.0237277
0.510896
0.0759106
-0.500625
0.520979
0.103625
0.530648
0.131862
0.540201
0.160319
0.550003
0.185473
0.54981
0.211168
0.52546
0.226208
0.465432
0.226674
0.352468
0.230335
0.169789
0.509944
0.0657282
-0.499762
0.522087
0.0914813
0.535761
0.118188
0.550725
0.145355
0.564958
0.17124
0.581772
0.194354
0.586493
0.221488
0.584035
0.229132
0.559159
0.255211
0.231315
0.516886
0.0567295
-0.507887
0.528146
0.0802211
0.541604
0.104731
0.558298
0.128661
0.574864
0.154674
0.594855
0.174363
0.613437
0.202905
0.629025
0.213544
0.642174
0.242063
0.241739
0.527009
0.048283
-0.518563
0.538489
0.0687414
0.552005
0.0912145
0.569107
0.111558
0.588236
0.135545
0.60915
0.153448
0.633836
0.17822
0.655216
0.192164
0.681355
0.215924
0.225983
0.535056
0.039402
-0.526175
0.547294
0.0565031
0.562477
0.0760317
0.580682
0.0933532
0.602562
0.113665
0.625811
0.130199
0.653809
0.150223
0.680524
0.165448
0.712384
0.184063
0.197825
0.537249
0.0299265
-0.527774
0.550192
0.0435608
0.56705
0.0591734
0.586922
0.0734809
0.611168
0.0894193
0.637573
0.103793
0.668568
0.119228
0.700795
0.133221
0.737545
0.147313
0.161049
0.529922
0.0202585
-0.520254
0.543317
0.0301652
0.561112
0.0413789
0.58245
0.0521422
0.608458
0.0634113
0.637595
0.0746564
0.671453
0.0853709
0.707981
0.0966927
0.749095
0.1062
0.117862
0.504705
0.0107986
-0.495245
0.518094
0.0167763
0.536057
0.0234165
0.558017
0.0301823
0.584821
0.0366067
0.615528
0.0439497
0.651183
0.0497162
0.690602
0.0572734
0.7349
0.0619011
0.0697216
0.437252
0.00258659
-0.42904
0.449075
0.00495381
0.46523
0.00726141
0.485455
0.00995728
0.510035
0.0120269
0.53886
0.0151244
0.57204
0.0165364
0.609473
0.0198396
0.651184
0.0201908
0.0232088
0.2537
-0.251114
0.258654
0.265916
0.275873
0.2879
0.303024
0.319561
0.3394
0.359591
0.0697104
0.130721
-0.12031
-0.0801221
0.0599378
0.132865
-0.123093
0.0508045
0.135129
-0.125995
0.0419373
0.13804
-0.129172
0.0331098
0.141216
-0.132388
0.0243521
0.143904
-0.135147
0.0159438
0.144355
-0.135947
0.00826499
0.139624
-0.131945
0.00224544
0.12155
-0.11553
0.0655175
-0.0632721
0.0667633
0.140188
-0.0762296
0.0573272
0.142302
0.0480763
0.144379
0.0391052
0.147011
0.0303408
0.14998
0.0218386
0.152406
0.0138866
0.152307
0.00682146
0.146689
0.001608
0.126763
0.0671255
0.0595342
0.148871
-0.0682177
0.0506965
0.151139
0.0419374
0.153138
0.0334266
0.155522
0.0252198
0.158187
0.0174479
0.160178
0.0103828
0.159372
0.00432777
0.152744
0.000349416
0.130741
0.067475
0.0496709
0.156685
-0.0574844
0.0417592
0.159051
0.0338692
0.161028
0.0261777
0.163213
0.0188055
0.165559
0.0119761
0.167008
0.00606447
0.165284
0.00121521
0.157593
-0.000953018
0.13291
0.0665219
0.0368537
0.16375
-0.0439187
0.0298614
0.166043
0.0229213
0.167968
0.0161512
0.169983
0.00980799
0.171902
0.00428384
0.172532
-0.00011921
0.169687
-0.00295951
0.160434
-0.0028508
0.132801
0.0636711
0.0226084
0.169804
-0.0286626
0.0167312
0.171921
0.0110065
0.173693
0.00554258
0.175447
0.00051138
0.176934
-0.00346586
0.176509
-0.00619333
0.172415
-0.00725596
0.161496
-0.00469208
0.130237
0.0589791
0.00495879
0.175209
-0.0103641
-0.000109359
0.176989
-0.00489008
0.178474
-0.0092596
0.179817
-0.0126353
0.180309
-0.0143287
0.178203
-0.014878
0.172964
-0.0128913
0.159509
-0.00685539
0.124201
0.0521237
-0.0132268
0.179207
0.00922919
-0.0167875
0.18055
-0.020055
0.181741
-0.022806
0.182568
-0.024073
0.181576
-0.0242273
0.178357
-0.0229633
0.1717
-0.017956
0.154502
-0.00850161
0.114747
0.0436221
-0.0354844
0.182032
0.0326587
-0.0380569
0.183122
-0.039952
0.183636
-0.0402287
0.182844
-0.0389838
0.180331
-0.0369803
0.176353
-0.0324044
0.167124
-0.0231674
0.145265
-0.00969682
0.101276
0.0339252
-0.0598785
0.05841
-0.0604021
-0.0595509
-0.057523
-0.0548639
-0.050216
-0.0415973
-0.0274694
-0.00993471
0.102537
0.0306079
-0.113788
-0.0193574
0.0910571
0.0311853
-0.019705
0.079344
0.0318458
-0.0201327
0.0673838
0.032598
-0.0206378
0.0551673
0.0334213
-0.0212047
0.042707
0.03419
-0.0217297
0.0301032
0.0344667
-0.0218629
0.0177199
0.0331392
-0.020756
0.00662729
0.0280508
-0.0169582
0.0150743
-0.00844703
0.102782
0.0419022
-0.114077
0.0912987
0.0426689
0.0795905
0.043554
0.0676477
0.0445407
0.0554603
0.0456087
0.0430345
0.0466157
0.0304538
0.0470474
0.0180324
0.0455606
0.00677473
0.0393085
0.0218491
0.102346
0.0531355
-0.113579
0.0909023
0.0541128
0.0792373
0.0552191
0.0673425
0.0564356
0.0552097
0.0577414
0.0428447
0.0589808
0.030329
0.0595631
0.0179648
0.0579248
0.00673124
0.050542
0.0285803
0.100745
0.0642976
-0.111908
0.0894232
0.0654351
0.0778746
0.0667677
0.0660909
0.0682192
0.0540719
0.0697605
0.041843
0.0712097
0.0295102
0.0718958
0.0173835
0.0700516
0.00642814
0.0614974
0.0350084
0.0985211
0.0751842
-0.109408
0.0874596
0.0764965
0.0762025
0.0780248
0.0647189
0.0797028
0.0529815
0.0814979
0.0409986
0.0831925
0.0288871
0.0840073
0.0169749
0.0819638
0.00622203
0.0722503
0.0412305
0.094532
0.0859038
-0.105252
0.0837426
0.0872859
0.0727719
0.0889955
0.0616193
0.0908553
0.0502747
0.0928425
0.0387456
0.0947217
0.027144
0.0956088
0.0157966
0.0933112
0.0056427
0.0824042
0.0468732
0.090222
0.0960683
-0.100387
0.0799994
0.0975085
0.0695962
0.0993988
0.0589426
0.101509
0.0480162
0.103769
0.0368651
0.105873
0.0256698
0.106804
0.0148017
0.104179
0.00521344
0.0919924
0.0520866
0.0832787
0.105828
-0.0930384
0.0735621
0.107225
0.063771
0.10919
0.0538585
0.111421
0.0437519
0.113875
0.0334409
0.116184
0.0230945
0.117151
0.0131005
0.114173
0.00442389
0.100669
0.0565105
0.0778264
0.114118
-0.0861162
0.0692388
0.115813
0.0601072
0.118322
0.0505531
0.120976
0.040722
0.123706
0.0307572
0.126149
0.0209167
0.126991
0.0115954
0.123495
0.00372091
0.108543
0.0602314
0.0682638
-0.0744557
0.0609837
0.05331
0.0451132
0.0364314
0.0274336
0.0184776
0.0100272
0.00304071
0.200873
-0.000431545
-0.00245134
0.206585
-0.0138854
0.00817291
0.212715
0.0224655
-0.0285949
0.213867
0.0936211
-0.0947733
0.211059
0.141651
-0.138843
0.205549
0.169226
-0.163716
0.196534
0.16914
-0.160125
0.183784
0.173119
-0.160369
0.160325
0.185743
-0.162284
0.206701
-0.160164
0.200851
-0.00329267
0.206383
-0.0194176
0.2117
0.0171483
0.211814
0.0935073
0.208221
0.145244
0.202203
0.175244
0.193607
0.177736
0.181247
0.185479
0.159243
0.207747
0.251867
0.200682
-0.00598537
0.205984
-0.0247193
0.210423
0.0127095
0.209346
0.0945839
0.204782
0.149808
0.197884
0.182142
0.189593
0.186026
0.177241
0.197832
0.156862
0.228125
0.29515
0.20037
-0.00836596
0.20538
-0.0297285
0.208873
0.00921623
0.206435
0.0970221
0.200709
0.155533
0.192677
0.190175
0.184616
0.194088
0.171855
0.210592
0.15334
0.24664
0.336583
0.199926
-0.0103021
0.204573
-0.0343752
0.207045
0.00674416
0.203055
0.101012
0.195988
0.1626
0.186704
0.199459
0.178799
0.201993
0.16521
0.224181
0.148765
0.263085
0.37594
0.199353
-0.0116649
0.203551
-0.038574
0.204913
0.00538278
0.199187
0.106737
0.190652
0.171135
0.180107
0.210004
0.172222
0.209878
0.157567
0.238836
0.143352
0.277299
0.414041
0.198644
-0.0123189
0.202267
-0.042197
0.202419
0.0052306
0.194824
0.114332
0.184776
0.181183
0.173032
0.221749
0.164923
0.217987
0.149148
0.254611
0.137022
0.289426
0.450676
0.197782
-0.0121114
0.200631
-0.0450453
0.199495
0.00636645
0.189996
0.123831
0.178463
0.192716
0.165616
0.234596
0.156973
0.22663
0.140312
0.271271
0.130333
0.299405
0.487971
0.196752
-0.0108733
0.198528
-0.0468211
0.196087
0.00880704
0.184782
0.135136
0.171837
0.205661
0.157966
0.248466
0.14854
0.236057
0.131704
0.288107
0.12305
0.308059
0.524904
0.195613
-0.00849701
0.195861
-0.0470688
0.192244
0.0124239
0.179226
0.148154
0.165059
0.219827
0.150142
0.263383
0.139983
0.246216
0.122422
0.305668
0.116182
0.3143
0.56663
0.303268
-0.00975471
0.307319
-0.0511202
0.318221
0.00152186
0.319844
0.146532
0.320656
0.219016
0.31229
0.271749
0.317984
0.240523
0.31398
0.309672
0.358001
0.270278
0.50131
0.423321
0.30269
-0.0104345
0.304556
-0.0529858
0.31737
-0.0112923
0.324341
0.13956
0.331634
0.211723
0.329525
0.273857
0.342034
0.228014
0.347053
0.304654
0.373887
0.243444
0.438111
0.437086
0.302214
-0.0106386
0.302817
-0.0535886
0.314287
-0.0227619
0.332411
0.121436
0.34712
0.197014
0.359463
0.261514
0.380174
0.207303
0.396103
0.288725
0.413565
0.225982
0.38082
0.470857
0.302279
-0.0109077
0.302356
-0.0536655
0.30918
-0.0295853
0.34274
0.0878752
0.364345
0.175409
0.391768
0.234092
0.423046
0.176025
0.444264
0.267506
0.465948
0.204298
0.32857
0.518198
0.303204
-0.0121016
0.302715
-0.0531766
0.306345
-0.0332154
0.34985
0.0443703
0.378429
0.14683
0.415837
0.196685
0.454174
0.137687
0.48126
0.240421
0.510062
0.175497
0.275767
0.562864
0.305341
-0.0154324
0.304903
-0.0527381
0.309345
-0.0376578
0.352107
0.00160826
0.386937
0.112
0.43176
0.151862
0.471236
0.0982104
0.505506
0.206151
0.53806
0.142943
0.222518
0.59131
0.308492
-0.0219139
0.308951
-0.0531978
0.315622
-0.0443285
0.347325
-0.0300946
0.385382
0.0739429
0.434406
0.102838
0.470535
0.0620813
0.512874
0.163812
0.547312
0.108506
0.168096
0.601734
0.310357
-0.0302612
0.310034
-0.0528743
0.316367
-0.0506618
0.328767
-0.0424946
0.365567
0.0371429
0.414694
0.0537108
0.442303
0.034473
0.493882
0.112232
0.53176
0.0706278
0.109583
0.590273
0.307925
-0.0361765
0.300214
-0.0451624
0.29443
-0.0448784
0.281885
-0.0299499
0.309775
0.00925351
0.345401
0.0180842
0.363167
0.016707
0.424499
0.0509007
0.464661
0.0304654
0.047764
0.52648
0.265834
0.220671
0.175793
0.145843
0.155097
0.173181
0.189888
0.240788
0.271254
0.319018
0.435423
-0.092224
0.441237
-0.0820441
0.446971
-0.0739512
0.453286
-0.0637993
0.460514
-0.0511468
0.467661
-0.0358099
0.475461
-0.0181641
0.483157
0.00153371
0.491303
0.0245128
0.0490874
0.442584
-0.097722
0.448816
-0.0882764
0.454527
-0.0796625
0.460099
-0.069371
0.46588
-0.0569281
0.471693
-0.0416225
0.477903
-0.0243744
0.484125
-0.00468799
0.49141
0.0172276
0.040736
0.473291
-0.100156
0.477112
-0.092097
0.480696
-0.0832471
0.483579
-0.0722538
0.486118
-0.0594669
0.488798
-0.044303
0.491869
-0.0274454
0.495647
-0.00846567
0.500906
0.0119681
0.033755
0.516255
-0.0982132
0.51438
-0.0902224
0.512307
-0.0811738
0.510116
-0.0700625
0.508029
-0.0573799
0.506871
-0.0431456
0.506758
-0.0273322
0.50861
-0.010318
0.512268
0.00831073
0.0274599
0.553827
-0.0891759
0.544975
-0.0813705
0.5366
-0.0727991
0.529266
-0.0627289
0.523145
-0.0512586
0.518926
-0.0389271
0.516657
-0.025063
0.51712
-0.010781
0.520063
0.00536822
0.0213481
0.57624
-0.0741057
0.562025
-0.0671563
0.549226
-0.0599998
0.538358
-0.0518611
0.52963
-0.0425299
0.523429
-0.0327263
0.519831
-0.0214652
0.519272
-0.0102219
0.521818
0.00282261
0.015392
0.582591
-0.0549631
0.56519
-0.0497548
0.549758
-0.0445685
0.536655
-0.0387575
0.526169
-0.0320443
0.518522
-0.0250791
0.513901
-0.0168447
0.512532
-0.00885237
0.514503
0.000851731
0.00964123
0.5682
-0.0328908
0.548789
-0.0303435
0.531592
-0.0273719
0.516906
-0.0240706
0.5051
-0.0202384
0.496165
-0.0161443
0.490584
-0.0112637
0.488289
-0.00655724
0.490082
-0.000941185
0.00447741
0.505483
-0.0118934
0.486214
-0.0110743
0.469181
-0.0103392
0.454529
-0.00941874
0.44257
-0.00827907
0.433347
-0.00692131
0.427369
-0.00528583
0.424385
-0.0035736
0.424986
-0.00154215
0.000423523
0.307124
0.29605
0.285711
0.276292
0.268013
0.261092
0.255806
0.252232
0.25069
0.00742449
0.05486
-0.0622845
0.0138904
0.124586
-0.131052
0.0163195
0.157206
-0.159635
0.0165689
0.169305
-0.169554
0.0162531
0.173626
-0.173311
0.014539
0.175514
-0.1738
0.0119358
0.174348
-0.171745
0.0092164
0.170774
-0.168055
0.00678402
0.164528
-0.162096
0.153198
0.00510197
-0.151516
0.00914532
0.0457147
0.0195069
0.114225
0.0258315
0.150881
0.0288768
0.16626
0.0306506
0.171853
0.0315982
0.174566
0.0313553
0.174591
0.0304274
0.171702
0.0292455
0.16571
0.154644
0.0277991
0.00989882
0.0358159
0.0237853
0.100338
0.0340561
0.140611
0.0403387
0.159977
0.0443135
0.167878
0.0475368
0.171343
0.0497627
0.172365
0.0508415
0.170623
0.0509311
0.165621
0.155872
0.0497029
0.00953154
0.0262843
0.0261429
0.083727
0.0403844
0.126369
0.0502232
0.150138
0.0569094
0.161192
0.0621342
0.166118
0.0664108
0.168089
0.069444
0.16759
0.0709644
0.1641
0.156415
0.0704217
0.00828351
0.0180008
0.0261572
0.0658533
0.0439422
0.108584
0.0575988
0.136482
0.0673594
0.151431
0.0748226
0.158655
0.0810197
0.161892
0.0860128
0.162597
0.0893599
0.160753
0.155499
0.0902761
0.00660179
0.011399
0.0238644
0.0485906
0.0440147
0.0884339
0.0613509
0.119145
0.074501
0.138281
0.0844582
0.148698
0.0924779
0.153872
0.0991067
0.155968
0.104127
0.155733
0.152933
0.106692
0.00490909
0.00648994
0.0199744
0.0335253
0.0405832
0.0678251
0.060757
0.0989716
0.0774659
0.121572
0.0905084
0.135656
0.100868
0.143512
0.109435
0.147401
0.116467
0.148702
0.147782
0.121618
0.00340072
0.00308922
0.0154168
0.0215092
0.0343567
0.0488852
0.0555364
0.0777918
0.0750214
0.102087
0.0911959
0.119481
0.104179
0.130529
0.114731
0.136849
0.123406
0.140026
0.14109
0.130098
0.00210828
0.000980943
0.0110253
0.0125922
0.0267982
0.0331123
0.0468381
0.0577519
0.0675193
0.0814058
0.0862958
0.100704
0.102243
0.114582
0.115559
0.123533
0.126927
0.128658
0.130857
0.137161
0.00101496
-3.40193e-05
0.00722132
0.00638589
0.0192815
0.0210521
0.0363526
0.0406808
0.0560216
0.0617368
0.0756413
0.0810848
0.09342
0.096803
0.108612
0.108342
0.121236
0.116033
0.1202
0.131893
0.000496777
-0.000530796
0.00446951
0.00241316
0.0129356
0.012586
0.026065
0.0275513
0.0428506
0.0449511
0.0614007
0.0625347
0.079833
0.0783708
0.0968789
0.0912957
0.111883
0.10103
0.108096
0.123987
0.000426729
-0.000957525
0.00267327
0.000166616
0.00817278
0.00708651
0.0173253
0.0183989
0.0301375
0.0321389
0.0457942
0.046878
0.0629392
0.0612258
0.0802293
0.0740056
0.0965922
0.0846667
0.0934912
0.111197
0.000506914
-0.00146444
0.00153009
-0.00085656
0.00452711
0.00408949
0.0099842
0.0129418
0.018396
0.0237271
0.0298018
0.0354722
0.0435881
0.0474394
0.0587591
0.0588347
0.0743057
0.06912
0.0780109
0.089786
0.000196353
-0.00166079
0.000416068
-0.00107628
0.00119233
0.00331324
0.00327713
0.010857
0.00738729
0.0196169
0.013991
0.0288684
0.0231026
0.0383279
0.034252
0.0476853
0.0468357
0.0565363
0.0640919
0.0607547
-0.000337665
-0.00132313
-0.000986152
-0.000427789
-0.00213838
0.00446546
-0.00278454
0.0115031
-0.00213035
0.0189627
0.000358423
0.0263796
0.00501734
0.033669
0.0119069
0.0407958
0.0208366
0.0476065
0.0532929
0.0316357
-0.000557922
-0.000765205
-0.00227388
0.00128817
-0.0049551
0.00714668
-0.00736499
0.013913
-0.00884701
0.0204448
-0.00900569
0.0265383
-0.00747103
0.0321344
-0.00394059
0.0372654
0.00166324
0.0420027
0.0460622
0.00889387
-0.000688152
-7.70533e-05
-0.00336654
0.00396655
-0.00680064
0.0105808
-0.00996294
0.0170753
-0.0123738
0.0228557
-0.0137813
0.0279458
-0.0139898
0.0323429
-0.0127622
0.0360378
-0.00995246
0.0391929
0.0419029
-0.00579316
-0.000956409
0.000879356
-0.00400118
0.00701133
-0.00759909
0.0141787
-0.0109153
0.0203915
-0.0135664
0.0255068
-0.0153983
0.0297776
-0.0163912
0.0333358
-0.016537
0.0361835
-0.0157769
0.0384328
0.0403369
-0.0142108
-0.00113035
0.0020097
-0.00396744
0.00984842
-0.00732883
0.0175401
-0.0105171
0.0235798
-0.0131747
0.0281644
-0.0151499
0.0317528
-0.0164402
0.0346261
-0.0171689
0.0369122
-0.0174734
0.0387374
0.0402788
-0.0174154
-0.000878497
-0.003084
-0.00587478
-0.00870946
-0.0112693
-0.0133922
-0.0150386
-0.0162874
-0.0172831
-0.0181556
0.111373
0.484253
-0.471639
0.0810133
0.304008
-0.273649
0.0474357
0.192669
-0.159091
0.0301529
0.108816
-0.0915329
0.0288233
0.036037
-0.0347074
0.0378251
-0.0250872
0.0160854
0.0533657
-0.0669574
0.0514167
0.0702417
-0.0800981
0.0632222
0.0871097
-0.0800423
0.0631744
-0.0508063
0.039829
0.1037
0.491751
0.0723671
0.335341
0.0418998
0.223136
0.0290005
0.121715
0.0305712
0.0344662
0.0415855
-0.0361015
0.0579804
-0.0833523
0.0750869
-0.0972045
0.0917955
-0.096751
-0.0612653
0.0886763
0.49286
0.0594122
0.364605
0.0343538
0.248195
0.0261265
0.129942
0.0307942
0.0297985
0.0442107
-0.049518
0.0618018
-0.100943
0.0793184
-0.114721
0.0959507
-0.113383
-0.0713228
0.0678018
0.485813
0.0437347
0.388672
0.0253552
0.266574
0.0215742
0.133723
0.0295242
0.0218484
0.045692
-0.0656858
0.0649471
-0.120198
0.0831796
-0.132954
0.0999441
-0.130148
-0.0811148
0.0458661
0.471583
0.0274628
0.407075
0.015954
0.278083
0.0159805
0.133697
0.0270733
0.0107557
0.0460582
-0.0846708
0.0674089
-0.141549
0.0867337
-0.152279
0.103923
-0.147337
-0.090794
0.0256757
0.454801
0.0124116
0.420339
0.00688336
0.283611
0.00945214
0.131128
0.0232364
-0.0030286
0.045096
-0.10653
0.0690094
-0.165462
0.0898772
-0.173146
0.107869
-0.165328
-0.100553
0.00800438
0.441003
-0.000202463
0.428546
-0.00190833
0.285317
0.00153073
0.127689
0.0175039
-0.0190018
0.0424989
-0.131525
0.0695529
-0.192516
0.092471
-0.196064
0.111695
-0.184553
-0.110628
-0.00518053
0.431973
-0.0089489
0.432315
-0.0106536
0.287022
-0.00842767
0.125463
0.00972303
-0.0371525
0.0382863
-0.160089
0.0690821
-0.223312
0.0945116
-0.221494
0.115365
-0.205406
-0.121268
-0.0130096
0.427567
-0.0153421
0.434647
-0.0204239
0.292104
-0.0201575
0.125197
0.000952245
-0.0582622
0.0333351
-0.192471
0.0681861
-0.258163
0.0963112
-0.249619
0.119003
-0.228098
-0.132679
-0.0156785
-0.0196526
-0.0303209
-0.0313024
-0.00695553
0.0297694
0.0682812
0.0986771
0.122996
0.00336123
0.0281879
-0.0315491
-0.00029144
0.00365267
0.000107234
-0.000398674
-0.0015921
0.00169933
-0.00428615
0.00269405
-0.00410662
-0.000179526
-0.00254958
-0.00155705
-0.000178067
-0.00237151
0.00384432
-0.00402238
-0.00316132
0.0573527
0.120629
-0.149794
0.0246779
0.0363274
0.0124975
0.0117817
0.00259396
0.0116029
-0.00225118
0.00753919
-2.89577e-05
-0.00240175
0.00896508
-0.0105511
0.0213435
-0.0147499
0.0327769
-0.0154558
-0.0102001
0.134253
0.250682
-0.264306
0.0689334
0.101647
0.0374811
0.043234
0.0195759
0.029508
0.0128714
0.0142437
0.0178137
-0.00734409
0.0305257
-0.0232631
0.0454387
-0.0296629
0.0597138
-0.0297309
-0.0191762
0.194229
0.37914
-0.322686
0.110008
0.185867
0.0606942
0.0925482
0.0345243
0.055678
0.0254184
0.0233496
0.0299094
-0.0118351
0.0435132
-0.0368668
0.0597645
-0.0459142
0.075891
-0.0458574
-0.0292668
0.232943
-0.325442
0.145161
0.0786176
0.0427627
0.0314048
0.0356552
0.0502051
0.0675131
0.08483
0.0125463
0.000275992
-0.0128223
0.0136379
-0.00109155
0.0158039
-0.00216603
0.0185586
-0.00275472
0.0218594
-0.0033008
0.0245928
-0.00273335
0.0279301
-0.00333732
0.0293939
-0.0014638
0.0320452
-0.0026513
0.000496068
0.0332354
0.000296508
-0.0332559
0.0367829
-0.00463906
0.0435385
-0.00892167
0.0529869
-0.0122031
0.0653066
-0.0156205
0.0789123
-0.0163391
0.0957655
-0.0201905
0.111782
-0.0174806
0.131673
-0.0225418
-0.0176252
0.0496337
-0.000480728
-0.0488564
0.0555569
-0.0105622
0.0664025
-0.0197674
0.0819857
-0.0277863
0.102473
-0.0361079
0.126937
-0.0408028
0.156569
-0.0498222
0.188458
-0.0493704
0.226263
-0.0603461
-0.0556682
0.0619345
-0.00228237
-0.0601329
0.0698085
-0.0184363
0.0837316
-0.0336904
0.103774
-0.0478283
0.129548
-0.0618825
0.161405
-0.0726591
0.197164
-0.085582
0.238072
-0.0902779
0.281343
-0.103618
-0.0970112
0.0707656
-0.067946
0.0801284
0.0961408
0.118734
0.147128
0.181161
0.217197
0.257017
0.29056
0.0742362
-0.0717962
0.0783614
-0.0808014
0.0667456
-0.0731461
0.0806367
0.0588315
-0.0749287
0.0828429
0.0504298
-0.0767881
0.0851898
0.0415131
-0.078622
0.0875387
0.0321565
-0.0801791
0.0895357
0.0225817
-0.0806946
0.0902694
0.0131623
-0.0784149
0.0878343
0.00472586
-0.0690573
0.0774938
-0.0396465
0.0443723
0.0802886
-0.0635746
-0.0885102
0.0717587
-0.0646162
0.062743
-0.065913
0.0532788
-0.0673239
0.0434661
-0.0688093
0.0334342
-0.0701471
0.0233755
-0.0706359
0.0136058
-0.0686452
0.00491277
-0.0603643
-0.0347337
0.082162
-0.0543198
-0.0914167
0.0728098
-0.055264
0.0632991
-0.0564023
0.0536263
-0.0576511
0.0437748
-0.0589578
0.0337491
-0.0601215
0.0236544
-0.0605413
0.0137908
-0.0587816
0.00499172
-0.0515652
-0.029742
0.0861895
-0.0447509
-0.0957584
0.0765068
-0.0455814
0.0666497
-0.0465452
0.0565728
-0.0475742
0.046244
-0.048629
0.0356857
-0.0495632
0.0250413
-0.0498968
0.0146532
-0.0483934
0.00538153
-0.0422936
-0.0243604
0.0891582
-0.0347665
-0.0991426
0.0790289
-0.0354521
0.0687057
-0.036222
0.0581705
-0.037039
0.0474212
-0.0378797
0.0365012
-0.0386432
0.0255586
-0.0389543
0.0149402
-0.037775
0.00551141
-0.0328648
-0.018849
0.0921676
-0.0244777
-0.102456
0.0817032
-0.0249877
0.0710339
-0.0255528
0.0601434
-0.0261485
0.0490278
-0.0267641
0.0377278
-0.0273432
0.0264021
-0.0276286
0.0154441
-0.026817
0.00575498
-0.0231757
-0.013094
0.0948844
-0.0138767
-0.105485
0.0840862
-0.0141895
0.0730613
-0.0145278
0.0617894
-0.0148765
0.0502628
-0.0152375
0.038524
-0.0156044
0.0267638
-0.0158684
0.0154886
-0.0155418
0.00574029
-0.0134274
-0.00735375
0.0973111
-0.00297995
-0.108208
0.0862005
-0.00307888
0.0748351
-0.00316239
0.0631835
-0.00322498
0.051222
-0.00327598
0.0389748
-0.00335715
0.0266469
-0.00354053
0.0149072
-0.00380212
0.0051801
-0.00370028
-0.00217365
0.0994836
0.00813024
-0.110594
0.0881447
0.00826009
0.0765396
0.00844268
0.064632
0.00868262
0.0523877
0.00896837
0.0398073
0.00922325
0.0270521
0.00921462
0.0147891
0.00846089
0.00473984
0.00634896
0.00256619
0.101266
-0.112493
0.0898214
0.0781313
0.0661761
0.0539398
0.0414334
0.0287851
0.01649
0.00588084
0.0153162
-0.149077
-0.0177544
0.0113422
-0.158122