/*--------------------------------*- C++ -*----------------------------------*\
| =========                 |                                                 |
| \\      /  F ield         | OpenFOAM: The Open Source CFD Toolbox           |
|  \\    /   O peration     | Version:  2406                                  |
|   \\  /    A nd           | Website:  www.openfoam.com                      |
|    \\/     M anipulation  |                                                 |
\*---------------------------------------------------------------------------*/
FoamFile
{
    version     2.0;
    format      ascii;
    arch        "LSB;label=32;scalar=64";
    class       volVectorField;
    location    "1.8";
    object      U;
}
// * * * * * * * * * * * * * * * * * * * * * * * * * * * * * * * * * * * * * //

dimensions      [0 1 -1 0 0 0 0];

internalField   nonuniform List<vector> 
1800
(
(-0.017314 0.00745204 0)
(-0.0329303 0.0096854 1.36768e-20)
(-0.0417434 0.000783617 1.15719e-20)
(-0.039808 -0.00629239 7.09751e-20)
(-0.0338348 -0.0111185 1.1435e-19)
(-0.0141614 -0.0157829 2.59432e-20)
(0.0364487 -0.0141729 -1.19401e-21)
(0.114172 -0.0094106 -1.07695e-19)
(0.222315 0.00786845 0)
(0.316019 0.00888185 4.84197e-20)
(-0.0320841 0.0179529 7.63966e-21)
(-0.0379223 0.0215659 1.80966e-20)
(-0.0356132 0.0172116 1.12466e-20)
(-0.0258073 0.0104777 -1.72333e-21)
(0.0102088 0.00191857 1.24357e-20)
(0.0939804 -0.0131431 -7.60482e-20)
(0.222899 -0.028275 3.38885e-20)
(0.386813 -0.039211 1.68862e-19)
(0.592147 -0.025319 4.94505e-20)
(0.716812 -0.0350846 2.92882e-20)
(-0.0337941 0.0236012 1.45181e-20)
(-0.0335218 0.0237279 -4.72028e-20)
(-0.0283088 0.0186144 -5.15064e-20)
(0.0236291 0.0139186 1.26853e-20)
(0.135728 -0.00302925 -1.67948e-20)
(0.308898 -0.0199392 2.23688e-20)
(0.527804 -0.0328491 -3.20609e-20)
(0.771642 -0.0407199 -2.07374e-19)
(1.04034 -0.0319681 9.03466e-20)
(1.22466 -0.0336381 1.12144e-19)
(-0.0246024 0.0197844 3.57899e-20)
(-0.0278749 0.0331858 9.78358e-20)
(0.0205993 0.0188795 -5.15172e-20)
(0.152329 0.0039558 -9.08903e-23)
(0.364346 -0.0122407 8.08605e-20)
(0.636932 -0.0228906 -2.41506e-20)
(0.937323 -0.0244018 -9.13203e-20)
(1.23322 -0.0167294 -7.79863e-20)
(1.50662 -0.00135488 -8.13585e-21)
(1.71619 0.0145453 8.64139e-20)
(-0.0105014 0.00756589 -1.53657e-21)
(0.00726089 0.00689306 4.93637e-20)
(0.12967 -0.000929288 2.13694e-20)
(0.36988 -0.0127371 -6.18416e-20)
(0.696305 -0.0169546 -3.0734e-20)
(1.05384 -0.00926782 5.05512e-20)
(1.39118 0.00803407 4.87238e-20)
(1.67714 0.0301424 1.05642e-19)
(1.89979 0.0533332 -2.34639e-19)
(2.05712 0.0714427 -2.1137e-19)
(-0.00231006 0.00215054 3.58056e-22)
(0.0777826 -0.011477 1.30512e-19)
(0.321249 -0.0182355 9.70865e-20)
(0.693188 -0.014091 -1.19314e-19)
(1.10921 0.00543964 1.16432e-19)
(1.48786 0.0343493 -8.88766e-21)
(1.78605 0.0643877 1.32084e-19)
(1.99613 0.0899352 2.24731e-19)
(2.13187 0.108341 -3.22567e-19)
(2.20974 0.119762 -2.49414e-19)
(0.0163222 -0.000881599 -4.13413e-20)
(0.212824 -0.0249212 -2.69932e-19)
(0.604779 -0.0153638 2.94056e-20)
(1.08233 0.0170566 3.40426e-19)
(1.51313 0.0591763 -1.96821e-20)
(1.83233 0.0976274 -2.52857e-19)
(2.03837 0.12618 -1.72483e-19)
(2.15991 0.144207 4.86736e-19)
(2.22882 0.153536 5.57622e-19)
(2.2697 0.157459 5.1307e-20)
(0.0640467 -0.00372788 4.56958e-20)
(0.415297 -0.0236049 2.96493e-20)
(0.946002 0.01934 -1.5472e-19)
(1.45321 0.0790079 8.13406e-20)
(1.81927 0.129681 -4.54271e-21)
(2.04171 0.163254 -8.29014e-19)
(2.16547 0.182412 -1.94149e-21)
(2.23483 0.192031 5.9723e-19)
(2.27571 0.196185 -3.64691e-19)
(2.29923 0.197206 -3.63754e-19)
(0.140144 -0.00258923 1.82017e-19)
(0.668885 0.00354983 1.64839e-19)
(1.2785 0.0861337 -3.94582e-19)
(1.73752 0.159478 -9.47188e-20)
(2.01056 0.205672 4.96275e-21)
(2.15489 0.22976 3.15925e-19)
(2.23014 0.242068 -5.86452e-19)
(2.27077 0.248171 -2.98342e-19)
(2.29444 0.249168 6.36681e-19)
(2.31124 0.247423 1.36826e-19)
(0.242542 0.00936917 4.55739e-21)
(0.934321 0.0644916 4.38348e-19)
(1.54693 0.176514 -3.73002e-19)
(1.92665 0.249917 -1.74416e-19)
(2.12109 0.287003 1.88702e-19)
(2.21251 0.302653 -1.98202e-19)
(2.25696 0.310542 3.73518e-19)
(2.2844 0.311996 2.36899e-20)
(2.30412 0.311221 -2.57944e-19)
(2.3115 0.305853 -8.11745e-20)
(-0.00239613 0.0398422 1.76888e-20)
(-0.0104411 0.161001 -4.32322e-20)
(-0.0240315 0.267843 -3.95561e-20)
(-0.0379883 0.344338 6.53779e-20)
(-0.0505976 0.396882 -8.17071e-21)
(-0.0612571 0.43408 -1.08094e-20)
(-0.0698475 0.461639 -4.63237e-21)
(-0.0766767 0.483147 1.19777e-20)
(-0.0821645 0.501386 -4.69588e-23)
(-0.0854986 0.518543 7.45222e-21)
(-0.00362453 0.0402972 -1.60834e-20)
(-0.0169872 0.167997 1.9814e-23)
(-0.031383 0.282287 1.94883e-20)
(-0.0452574 0.362771 7.24553e-20)
(-0.0574274 0.415959 1.64398e-20)
(-0.0676605 0.45189 2.96704e-20)
(-0.076079 0.477395 -1.6673e-20)
(-0.0829552 0.496522 0)
(-0.088472 0.511803 7.07606e-21)
(-0.092206 0.524964 -2.42278e-20)
(-0.00374805 0.0327341 7.62598e-23)
(-0.0214631 0.157336 7.85794e-20)
(-0.035795 0.278858 1.00045e-19)
(-0.0485286 0.366665 -5.31151e-20)
(-0.0588485 0.423953 -1.08182e-20)
(-0.066763 0.461255 3.13589e-20)
(-0.0726368 0.486487 8.49008e-21)
(-0.0767959 0.504387 6.32422e-21)
(-0.0795255 0.517824 2.76407e-20)
(-0.0807268 0.528874 6.05403e-20)
(-0.00207135 0.0186377 -1.6661e-21)
(-0.0214077 0.127485 8.53395e-20)
(-0.0346243 0.253112 -3.02041e-20)
(-0.0452688 0.350817 -1.20052e-19)
(-0.0524628 0.416114 1.77897e-20)
(-0.0564816 0.458011 -2.26764e-20)
(-0.0580471 0.485216 1.24539e-20)
(-0.0576734 0.503432 0)
(-0.0556571 0.516088 -2.43159e-20)
(-0.0514925 0.525612 3.92759e-20)
(0.000252124 0.00266065 4.04776e-20)
(-0.0157165 0.0801773 -1.67451e-20)
(-0.0273285 0.201385 -7.36748e-20)
(-0.0357727 0.308637 4.16522e-20)
(-0.0394058 0.385694 -1.32185e-20)
(-0.0386717 0.436563 -2.90153e-20)
(-0.0347445 0.469176 3.79267e-20)
(-0.0284197 0.48988 -3.09605e-20)
(-0.0199349 0.502786 5.68814e-21)
(-0.00792614 0.510653 -5.17302e-21)
(0.00310626 -0.00426943 2.5406e-20)
(-0.00409051 0.0293072 -1.72418e-20)
(-0.0140411 0.127286 5.55716e-20)
(-0.021742 0.23544 -2.99231e-20)
(-0.0233223 0.323933 -1.27754e-19)
(-0.0186317 0.387429 1.07681e-19)
(-0.00913162 0.42986 -3.56867e-21)
(0.00391605 0.456646 -7.70461e-21)
(0.0201623 0.471997 9.85204e-20)
(0.0417376 0.478393 -2.26926e-20)
(0.00902349 -0.0117607 -1.67745e-20)
(0.00969067 -0.0037287 3.52045e-20)
(0.00172913 0.0521449 1.19593e-20)
(-0.00626585 0.141275 -2.2309e-19)
(-0.00861741 0.229514 9.58443e-21)
(-0.00339678 0.301393 1.87861e-19)
(0.00876984 0.354159 1.00227e-19)
(0.026753 0.389888 1.26033e-19)
(0.0500935 0.411006 -1.99695e-19)
(0.0809769 0.417166 -1.67538e-19)
(0.0158523 -0.0193872 -4.36867e-22)
(0.0172806 -0.0205264 -1.46725e-20)
(0.015316 -0.0035217 -6.80687e-20)
(0.00383395 0.0479639 1.09562e-19)
(-0.00373773 0.11851 1.98931e-19)
(-0.00227689 0.185746 -8.63526e-20)
(0.00761632 0.240259 6.40152e-20)
(0.0261425 0.280538 -2.88073e-20)
(0.0536155 0.3061 -2.58696e-19)
(0.0913324 0.310523 1.47691e-20)
(0.00899452 -0.0192799 4.4332e-21)
(0.00681087 -0.0224872 -6.67663e-21)
(-0.00118669 -0.0170129 1.60317e-20)
(-0.011232 -0.00525416 -1.20705e-20)
(-0.0149493 0.0213083 -1.75948e-21)
(-0.0186498 0.0642702 -1.87922e-19)
(-0.0137581 0.106838 -6.21999e-20)
(0.00349353 0.140727 -1.26631e-19)
(0.0348147 0.16174 3.15351e-21)
(0.0805161 0.160713 3.97597e-19)
(-0.00121695 -0.00623151 3.14548e-21)
(-0.00709837 -0.0159832 3.15229e-21)
(-0.021085 -0.0210905 4.63115e-20)
(-0.0330505 -0.0171996 1.28603e-19)
(-0.0391907 -0.0110087 -9.71199e-20)
(-0.0445011 -0.00248974 -2.66929e-19)
(-0.0331289 0.0156946 -6.7433e-20)
(-0.00678735 0.0320173 2.3594e-19)
(0.0378346 0.0428783 2.97223e-19)
(0.102303 0.0429025 3.12813e-19)
(-0.0830861 0.587617 5.17456e-20)
(-0.080623 0.614048 -3.15408e-19)
(-0.156659 0.42976 -5.86562e-19)
(-0.222917 0.175883 1.13363e-18)
(-0.129272 -0.133893 -6.90589e-19)
(0.0521539 -0.346125 2.30794e-20)
(0.265187 -0.440764 9.87198e-20)
(0.444432 -0.411554 4.26266e-20)
(0.576494 -0.368898 -4.23152e-20)
(0.706629 -0.211167 -4.76968e-20)
(-0.098098 0.584788 6.27558e-20)
(-0.09583 0.626759 -8.84345e-21)
(-0.192785 0.453319 5.85929e-20)
(-0.225858 0.173792 -5.62015e-19)
(-0.100318 -0.175269 -2.30731e-19)
(0.106838 -0.403573 5.00783e-19)
(0.330429 -0.498162 -6.81472e-20)
(0.498881 -0.455293 9.59478e-21)
(0.621622 -0.404471 -6.8775e-20)
(0.742993 -0.230879 8.50574e-20)
(-0.0806153 0.580408 -3.03604e-19)
(-0.0818446 0.642449 2.90757e-19)
(-0.176243 0.477419 1.01442e-19)
(-0.177819 0.169027 -9.48413e-19)
(-0.0186573 -0.220304 6.27523e-19)
(0.213237 -0.463897 2.34197e-21)
(0.44636 -0.554292 6.08543e-21)
(0.593154 -0.494763 -2.00648e-20)
(0.69589 -0.435883 1.43149e-20)
(0.793152 -0.249086 1.88196e-21)
(-0.0312149 0.571944 -2.65451e-19)
(-0.032725 0.658396 -1.1034e-21)
(-0.101953 0.496052 1.29715e-19)
(-0.0829987 0.159511 5.80653e-19)
(0.113225 -0.267084 -1.51666e-19)
(0.361624 -0.527313 -8.32952e-20)
(0.606473 -0.609128 7.26048e-20)
(0.731927 -0.528152 0)
(0.809926 -0.459509 0)
(0.864203 -0.263568 -2.65842e-22)
(0.045768 0.552561 1.0774e-19)
(0.0582456 0.670606 1.00579e-19)
(-0.00450932 0.518489 7.24193e-21)
(0.0687481 0.148284 -3.82999e-19)
(0.290184 -0.313201 -2.09914e-19)
(0.539979 -0.592573 -5.33004e-19)
(0.78866 -0.664557 2.09376e-20)
(0.902139 -0.557168 7.38618e-21)
(0.96479 -0.473328 -3.67523e-20)
(0.96237 -0.272017 -9.18052e-22)
(0.143079 0.51655 1.61428e-19)
(0.183332 0.675703 8.02165e-20)
(0.145856 0.531078 -2.56519e-19)
(0.262361 0.136916 -2.18135e-21)
(0.517027 -0.35609 6.32222e-19)
(0.759212 -0.654533 -2.08812e-19)
(0.984191 -0.719041 -1.10491e-19)
(1.08103 -0.585502 -1.23131e-20)
(1.14532 -0.479057 1.46967e-21)
(1.0882 -0.273416 -1.54866e-20)
(0.248001 0.45984 -4.48334e-20)
(0.336718 0.671279 -3.01367e-20)
(0.339296 0.539297 -4.00171e-20)
(0.490218 0.127123 3.01346e-20)
(0.791058 -0.39484 -5.18561e-20)
(1.03005 -0.706847 3.72351e-19)
(1.20808 -0.764851 -5.60803e-20)
(1.26045 -0.612367 -2.12118e-20)
(1.32828 -0.480295 1.76146e-20)
(1.23298 -0.268935 -2.01033e-21)
(0.337781 0.371607 -1.6922e-19)
(0.502799 0.644248 -1.43868e-18)
(0.551803 0.54294 -1.2184e-19)
(0.740517 0.11993 -1.62756e-20)
(1.08169 -0.429396 -3.38029e-19)
(1.32236 -0.748976 -4.53251e-19)
(1.46096 -0.796817 2.38289e-19)
(1.44898 -0.632109 -1.00105e-19)
(1.4994 -0.478077 5.45891e-21)
(1.38186 -0.260627 -1.02985e-21)
(0.374796 0.246331 -4.5047e-19)
(0.692692 0.608332 -6.07606e-19)
(0.781021 0.543305 6.45749e-19)
(0.997721 0.106405 1.24608e-20)
(1.3621 -0.456764 -2.55531e-19)
(1.59522 -0.7826 -1.36616e-19)
(1.71128 -0.817158 -2.98801e-19)
(1.64705 -0.641228 3.3886e-20)
(1.65747 -0.470738 3.4703e-20)
(1.52166 -0.249578 1.91793e-20)
(0.380369 0.0561175 -1.55055e-19)
(0.822909 0.505595 1.57775e-18)
(0.951382 0.538818 7.05935e-19)
(1.23232 0.124067 -1.47803e-19)
(1.63321 -0.471065 -1.40519e-19)
(1.84728 -0.806771 9.93521e-20)
(1.93464 -0.829251 -4.7433e-19)
(1.83868 -0.640586 -5.75826e-20)
(1.80365 -0.456783 -7.15571e-21)
(1.64497 -0.235932 -3.00905e-20)
(0.639036 -0.0645948 1.60188e-19)
(1.0911 0.381394 2.33929e-19)
(1.23154 0.491747 -4.76547e-20)
(1.5837 0.0745437 3.1488e-19)
(2.01523 -0.517614 -1.18264e-19)
(2.18361 -0.833619 -9.96226e-20)
(2.20083 -0.834886 -9.7259e-20)
(2.05959 -0.627964 4.42416e-20)
(1.96936 -0.427595 -1.56952e-19)
(1.77599 -0.214588 2.08261e-20)
(1.42112 0.0264594 -9.36287e-20)
(1.45525 0.294214 -1.1091e-19)
(1.6449 0.363181 -3.76975e-19)
(2.1516 -0.103837 1.25019e-19)
(2.5491 -0.644274 -7.01915e-19)
(2.60139 -0.873193 -3.49699e-19)
(2.47842 -0.801075 -3.35603e-20)
(2.24884 -0.563105 -3.42302e-20)
(2.10425 -0.353395 1.86528e-19)
(1.87421 -0.170388 3.73464e-20)
(2.0148 0.0790105 -3.50981e-21)
(1.92676 0.272854 4.70671e-20)
(2.17938 0.232377 -9.18585e-20)
(2.64633 -0.230914 -1.5881e-35)
(2.89827 -0.687283 -3.51523e-20)
(2.86528 -0.832613 1.00319e-33)
(2.66573 -0.713444 8.4899e-20)
(2.35763 -0.478738 2.87103e-33)
(2.16392 -0.277645 -8.08223e-21)
(1.91123 -0.126166 1.20485e-20)
(2.29795 0.0932642 1.45743e-20)
(2.32293 0.228731 3.94266e-20)
(2.63039 0.116297 3.56938e-19)
(2.97434 -0.323933 0)
(3.13306 -0.720254 4.91577e-19)
(3.0423 -0.806205 1.46085e-19)
(2.79492 -0.629065 -1.47411e-19)
(2.43025 -0.376295 5.76271e-33)
(2.17833 -0.183306 -1.44184e-19)
(1.89974 -0.0755922 -1.67109e-20)
(2.4686 0.0696582 3.22449e-20)
(2.58796 0.141858 -1.55115e-20)
(2.87897 0.00813692 0)
(3.15248 -0.391443 0)
(3.25564 -0.71812 0)
(3.07712 -0.724812 0)
(2.74032 -0.502354 1.54877e-20)
(2.3503 -0.253698 5.88292e-33)
(2.09814 -0.0800741 -1.07094e-20)
(1.83523 -0.0214868 -2.55895e-33)
(2.60294 0.0244549 1.71208e-20)
(2.73343 0.0527486 0)
(2.97156 -0.0796006 0)
(3.23736 -0.444943 0)
(3.24864 -0.700745 0)
(2.94124 -0.6227 0)
(2.52561 -0.363096 -2.49949e-20)
(2.11704 -0.13282 2.02244e-19)
(1.8896 0.00898036 -1.2333e-20)
(1.69293 0.0234633 3.45904e-21)
(2.67266 -0.0172636 0)
(2.75482 -0.0149415 9.69753e-20)
(2.99507 -0.161421 2.35718e-19)
(3.21078 -0.479371 0)
(2.98095 -0.619738 1.9479e-19)
(2.48657 -0.463081 9.35123e-21)
(2.04474 -0.202419 -1.10401e-19)
(1.7063 -0.0179231 -8.88202e-20)
(1.55832 0.0757141 8.73126e-20)
(1.4665 0.0512729 -4.01556e-20)
(2.62535 -0.0504026 2.5491e-20)
(2.67044 -0.0777109 -1.53912e-20)
(2.91081 -0.227032 2.23823e-20)
(2.84607 -0.432995 -6.61821e-35)
(2.26605 -0.439545 -1.67558e-20)
(1.63292 -0.250969 2.93263e-34)
(1.25969 -0.0557889 -1.97632e-20)
(1.09669 0.0528006 -8.94971e-20)
(1.09261 0.0965402 -1.34261e-20)
(1.12739 0.0540026 3.07128e-20)
(2.29245 -0.0564868 0)
(2.31115 -0.135413 -7.46447e-20)
(2.32063 -0.239328 -6.2805e-20)
(1.78412 -0.21513 0)
(1.01413 -0.130326 -5.80172e-20)
(0.566022 -0.0588476 -4.62981e-20)
(0.424652 -0.00295841 -4.90857e-20)
(0.44667 0.0410305 -1.41098e-20)
(0.552157 0.056866 -1.08365e-20)
(0.663527 0.0307952 -2.93611e-20)
(1.22506 -0.0563866 7.00561e-21)
(0.993309 -0.084821 0)
(0.611912 -0.022594 0)
(0.329251 0.0119378 0)
(0.124687 -0.00731622 0)
(-0.00903635 -0.0155425 0)
(-0.0732957 -0.00930367 -1.79899e-20)
(-0.0465332 0.00426132 1.17713e-34)
(0.032123 0.0116705 -1.40151e-20)
(0.124483 0.00724993 -3.09631e-20)
(2.29609 0.284334 3.569e-19)
(2.32694 0.241735 1.43444e-19)
(2.32915 0.199058 3.01761e-19)
(2.32131 0.165268 -3.37862e-19)
(2.29406 0.126344 9.96562e-20)
(2.25537 0.11235 5.9705e-20)
(2.12914 0.0599421 -7.27092e-21)
(1.87986 0.0401809 1.61773e-20)
(1.56524 -0.0252892 7.86964e-20)
(0.880465 -0.0683334 -4.6489e-20)
(2.29139 0.246102 -1.69104e-19)
(2.32261 0.213428 3.74752e-20)
(2.34495 0.187038 1.10392e-19)
(2.35054 0.16522 1.09178e-19)
(2.35285 0.134162 -2.03545e-19)
(2.31682 0.118813 1.23617e-19)
(2.32724 0.0838833 1.43137e-20)
(2.15519 0.0534118 -1.02571e-20)
(2.14392 0.0411695 1.22241e-21)
(1.72778 -0.0205589 4.48567e-20)
(2.32728 0.214248 2.36219e-20)
(2.34866 0.189453 -1.09893e-19)
(2.37413 0.165021 -1.43046e-19)
(2.37294 0.149421 3.1173e-19)
(2.39783 0.130985 -2.14115e-20)
(2.35259 0.110395 4.1427e-20)
(2.39877 0.105471 -7.9817e-20)
(2.28226 0.0687382 -6.92e-20)
(2.33181 0.0831819 -4.01285e-20)
(2.12992 0.0330005 -1.74134e-20)
(2.37589 0.185081 4.04146e-20)
(2.39255 0.163465 -1.33569e-19)
(2.42273 0.146648 3.11283e-20)
(2.41715 0.127129 -1.0288e-19)
(2.44803 0.120266 1.39595e-19)
(2.4142 0.0982367 -5.71155e-20)
(2.45032 0.103015 1.49914e-20)
(2.38652 0.076778 -1.50837e-20)
(2.41565 0.0904332 -6.41181e-22)
(2.32347 0.0650083 2.03786e-20)
(2.4107 0.155202 7.73984e-20)
(2.43119 0.134938 -2.05106e-19)
(2.46372 0.125075 -1.62742e-20)
(2.46867 0.105727 -1.68708e-20)
(2.49728 0.101908 -6.36027e-21)
(2.48574 0.0835042 -1.06303e-21)
(2.51082 0.0850774 3.31229e-20)
(2.48282 0.0704107 -2.15477e-20)
(2.5011 0.0747049 -3.27467e-20)
(2.4563 0.0681079 -4.09627e-20)
(2.41801 0.122259 1.38681e-19)
(2.44394 0.105321 2.28013e-20)
(2.47805 0.0980146 -1.38471e-19)
(2.49561 0.0831158 8.03709e-20)
(2.52475 0.077872 6.11312e-20)
(2.53274 0.065634 -4.03803e-20)
(2.55712 0.0610732 5.69303e-20)
(2.5539 0.0536204 1.30434e-20)
(2.57498 0.0484615 -6.04284e-20)
(2.55971 0.0502754 -7.39523e-20)
(2.38309 0.0868911 1.82058e-20)
(2.41294 0.0739932 4.08801e-20)
(2.44849 0.0675637 -5.39756e-20)
(2.47489 0.0571774 -3.12549e-20)
(2.50833 0.0507942 5.92349e-20)
(2.53005 0.0427158 2.61803e-20)
(2.56021 0.0353367 5.20645e-20)
(2.57674 0.0302449 4.16878e-20)
(2.60274 0.0206684 9.6688e-21)
(2.61459 0.0222838 3.18464e-20)
(2.26604 0.0547523 2.22449e-20)
(2.30281 0.0450568 1.98566e-22)
(2.33317 0.0398135 -6.53168e-20)
(2.37267 0.0328333 -5.46521e-20)
(2.40192 0.0264934 3.1753e-20)
(2.44396 0.0216038 -2.4515e-20)
(2.47034 0.0129483 -2.0109e-20)
(2.51519 0.009346 6.03299e-20)
(2.53626 -0.00296302 -4.74597e-20)
(2.58517 -0.00465258 -5.34718e-20)
(1.9559 0.0148125 5.35788e-20)
(2.00303 0.0105164 -2.77057e-20)
(2.01397 0.00738265 -2.61306e-20)
(2.07339 0.00452982 2.73244e-20)
(2.07942 0.000539575 -1.63166e-20)
(2.15068 -0.00147616 -4.46542e-21)
(2.15062 -0.00723594 -2.12725e-20)
(2.23226 -0.0100709 1.30815e-20)
(2.2258 -0.0186896 1.30694e-20)
(2.31512 -0.0243774 -1.46395e-20)
(1.13841 -0.00158522 0)
(1.1598 -0.002545 2.30817e-21)
(1.15341 -0.00386624 -3.5037e-20)
(1.18462 -0.00416935 -5.27541e-20)
(1.17409 -0.00679133 2.86014e-20)
(1.21623 -0.00582349 1.11351e-19)
(1.20045 -0.0117873 -6.81367e-21)
(1.25086 -0.00920482 -5.34341e-20)
(1.22913 -0.0199813 -5.70846e-21)
(1.28232 -0.0163616 1.88793e-21)
(1.39154 0.817238 -4.55721e-20)
(1.37962 0.860993 -9.52709e-20)
(1.38116 0.907803 -6.40126e-19)
(1.38641 0.960511 1.97976e-19)
(1.39035 1.0168 1.02231e-18)
(1.38674 1.07174 1.42538e-19)
(1.36256 1.10987 -7.89396e-20)
(1.29322 1.10452 -3.31868e-19)
(1.10596 0.989253 -3.34156e-19)
(0.590454 0.548905 -4.6101e-20)
(1.53627 0.789532 -3.65834e-19)
(1.53037 0.832064 1.06865e-18)
(1.52996 0.876994 4.86273e-19)
(1.53493 0.928163 -7.22985e-19)
(1.54168 0.983707 2.45179e-19)
(1.54143 1.03771 2.38329e-19)
(1.51759 1.07321 7.96389e-19)
(1.44222 1.06535 -1.17481e-18)
(1.23272 0.948544 -5.07843e-20)
(0.650668 0.517633 2.12257e-19)
(1.6706 0.759916 1.05371e-19)
(1.6722 0.801821 8.4661e-19)
(1.67355 0.844665 1.64976e-20)
(1.67892 0.891817 -4.29729e-19)
(1.68707 0.942903 1.27195e-19)
(1.68823 0.991988 -6.82438e-20)
(1.66277 1.02119 -4.6784e-20)
(1.57929 1.00891 -4.06634e-19)
(1.34439 0.889138 1.82905e-20)
(0.697995 0.473482 -2.1702e-19)
(1.79236 0.718752 -4.30175e-19)
(1.80012 0.758375 3.965e-19)
(1.80611 0.79856 -6.12049e-19)
(1.81489 0.841778 -2.29947e-19)
(1.82548 0.88774 1.36307e-18)
(1.8269 0.930557 -8.69381e-19)
(1.79759 0.95228 -9.94025e-19)
(1.70455 0.934813 4.30398e-19)
(1.43947 0.81288 -1.2342e-19)
(0.729385 0.419858 -6.48167e-20)
(1.90283 0.670797 5.39462e-19)
(1.91529 0.707939 4.35731e-19)
(1.92507 0.74461 -2.07578e-19)
(1.93538 0.782882 8.2007e-19)
(1.9458 0.82311 1.67265e-19)
(1.94485 0.857946 -3.75809e-19)
(1.90924 0.868887 5.60929e-19)
(1.80429 0.845406 -6.69356e-19)
(1.50266 0.721929 -7.60793e-19)
(0.736511 0.356547 -2.33423e-21)
(2.0016 0.611759 7.18855e-19)
(2.01647 0.644166 9.0642e-19)
(2.02991 0.676262 -9.30433e-19)
(2.04458 0.709471 -9.60161e-19)
(2.05663 0.742262 2.36162e-19)
(2.04988 0.767521 -7.08211e-19)
(2.00226 0.770264 -4.71833e-19)
(1.87983 0.741871 4.08698e-19)
(1.53505 0.615841 6.83712e-20)
(0.718114 0.285861 -1.55476e-20)
(2.08901 0.55258 6.68465e-19)
(2.10505 0.581905 -9.00123e-19)
(2.11868 0.610113 -8.00079e-19)
(2.12951 0.637908 6.30842e-19)
(2.13484 0.664804 -5.67351e-19)
(2.1187 0.675702 1.69789e-18)
(2.06042 0.6694 -2.57559e-19)
(1.91563 0.634121 -1.3818e-18)
(1.52166 0.501627 6.05361e-19)
(0.667595 0.212942 3.17592e-20)
(2.16798 0.484279 -4.4008e-19)
(2.18198 0.507002 -6.31097e-19)
(2.19371 0.52901 -8.78048e-19)
(2.20647 0.550738 3.06777e-20)
(2.20761 0.564441 2.81815e-19)
(2.16716 0.567459 2.96852e-19)
(2.0942 0.55588 7.12338e-19)
(1.91086 0.51417 -3.76918e-19)
(1.46066 0.380537 1.91933e-20)
(0.587809 0.142904 6.3413e-20)
(2.22648 0.42133 2.20956e-19)
(2.23934 0.440912 -7.41859e-20)
(2.25245 0.459843 4.32321e-19)
(2.25392 0.474191 1.13388e-18)
(2.22476 0.472058 -3.96449e-19)
(2.18291 0.467469 -1.4307e-18)
(2.09135 0.449773 1.05787e-18)
(1.85592 0.396419 9.56573e-19)
(1.34412 0.263118 -4.85377e-19)
(0.482319 0.082744 -7.9807e-21)
(2.27736 0.362675 -4.55433e-19)
(2.28827 0.377104 -4.94129e-21)
(2.2861 0.385596 6.14948e-19)
(2.26368 0.386423 6.19517e-19)
(2.22995 0.382423 4.41682e-19)
(2.17363 0.374444 -7.15058e-19)
(2.0398 0.34761 3.39626e-20)
(1.73763 0.282325 -3.63107e-19)
(1.16707 0.154807 -5.48596e-19)
(0.361752 0.0374471 -1.33829e-20)
(0.511018 0.292417 4.04733e-20)
(0.473333 0.29975 -2.104e-19)
(0.430995 0.308197 -3.82063e-20)
(0.38468 0.317881 1.60079e-19)
(0.334231 0.328586 -2.77375e-20)
(0.279007 0.338901 -2.13316e-20)
(0.218244 0.343906 -6.25421e-20)
(0.150204 0.331272 -2.79797e-20)
(0.0771292 0.278142 1.07722e-19)
(0.0290068 0.145153 5.41874e-21)
(0.550668 0.391352 1.08805e-20)
(0.513426 0.404482 3.75831e-20)
(0.472191 0.419132 7.77574e-21)
(0.427311 0.435433 1.09722e-20)
(0.378418 0.453141 6.23303e-20)
(0.324649 0.470639 3.09844e-20)
(0.264658 0.48208 6.14796e-20)
(0.195864 0.472308 -6.96965e-20)
(0.116945 0.409983 7.57171e-20)
(0.0500619 0.226323 -7.29254e-22)
(0.605621 0.484737 -1.18125e-19)
(0.569441 0.503399 -2.12207e-20)
(0.530071 0.523831 3.1829e-20)
(0.487431 0.546317 -6.27979e-20)
(0.44092 0.570728 -1.08527e-20)
(0.389449 0.595394 1.24103e-19)
(0.331007 0.613693 -1.13541e-20)
(0.261937 0.607767 -2.80205e-20)
(0.176194 0.537981 -3.20841e-22)
(0.0830905 0.305211 1.89518e-20)
(0.673572 0.572914 -7.916e-20)
(0.639012 0.597356 -1.47914e-19)
(0.602425 0.623531 -2.75005e-20)
(0.562971 0.651916 2.04729e-20)
(0.519671 0.682472 -1.57213e-19)
(0.471243 0.713405 -7.81655e-20)
(0.415079 0.737292 -1.97415e-19)
(0.346248 0.733886 6.85963e-20)
(0.252909 0.656443 -4.96681e-20)
(0.126861 0.377412 -9.2201e-20)
(0.754337 0.649502 8.9387e-20)
(0.722337 0.678902 -7.33892e-20)
(0.689802 0.710075 -1.50406e-20)
(0.655124 0.743898 -4.25547e-20)
(0.616806 0.780421 -6.24349e-20)
(0.573082 0.817631 7.66165e-20)
(0.520363 0.847284 6.62893e-20)
(0.451922 0.846881 -1.28346e-19)
(0.34907 0.763212 -2.4568e-19)
(0.181666 0.441762 5.36967e-20)
(0.844101 0.7196 2.66379e-20)
(0.81455 0.753764 2.23287e-20)
(0.786063 0.788957 8.06097e-20)
(0.756182 0.826896 3.95599e-20)
(0.723175 0.868054 1.88169e-19)
(0.685034 0.910188 -1.66958e-19)
(0.637083 0.943963 -1.25518e-19)
(0.57015 0.944846 -3.78866e-20)
(0.45751 0.854483 9.78114e-20)
(0.243418 0.495003 1.52749e-19)
(0.942562 0.772062 -5.36089e-20)
(0.917594 0.810213 2.81151e-20)
(0.895421 0.848989 2.00681e-19)
(0.872235 0.89062 -1.09291e-19)
(0.845694 0.935875 -3.4776e-19)
(0.813519 0.982462 1.90951e-19)
(0.7702 1.02003 5.77411e-19)
(0.7041 1.0221 1.58506e-19)
(0.579223 0.926609 -3.32681e-20)
(0.311551 0.535904 2.21349e-19)
(1.04416 0.818204 -2.11348e-19)
(1.02146 0.858463 -6.66337e-20)
(1.00434 0.898734 2.17647e-19)
(0.988179 0.942518 -1.11605e-19)
(0.969823 0.990547 7.93708e-20)
(0.945858 1.03984 3.80891e-19)
(0.909049 1.07878 -4.17991e-19)
(0.844729 1.07979 -3.92852e-19)
(0.707546 0.978155 3.36751e-19)
(0.382652 0.562447 -2.34875e-21)
(1.15376 0.839186 -1.6951e-20)
(1.14013 0.882191 4.19827e-20)
(1.13083 0.923432 -2.00307e-19)
(1.12086 0.968451 -6.85189e-20)
(1.10826 1.01888 4.57824e-19)
(1.09003 1.0711 1.36922e-19)
(1.05751 1.11154 -1.20317e-19)
(0.99258 1.11141 0)
(0.840606 1.00457 -2.22055e-19)
(0.45452 0.572564 -1.14415e-19)
(1.2445 0.8465 0)
(1.2393 0.890807 0)
(1.24418 0.934459 5.92763e-19)
(1.24777 0.981175 1.35124e-19)
(1.24651 1.03229 -2.12545e-19)
(1.23719 1.08446 4.03507e-19)
(1.21012 1.12337 -2.94089e-19)
(1.14429 1.12058 -8.15862e-19)
(0.976043 1.00909 4.19888e-19)
(0.525334 0.568323 2.17915e-19)
(0.996656 0.00296076 -1.8844e-20)
(1.00947 -0.0138514 -1.06471e-20)
(1.03509 0.0367824 8.99293e-21)
(1.04424 0.132099 3.30292e-21)
(1.03187 0.196115 8.79719e-21)
(0.997575 0.232621 1.89135e-20)
(0.96113 0.230244 -1.0084e-20)
(0.894601 0.233138 -1.08056e-20)
(0.821824 0.243254 -7.34129e-20)
(0.676942 0.25613 4.46986e-20)
(0.996192 0.00186904 -4.26772e-22)
(1.01066 -0.0186332 8.52246e-21)
(1.03494 0.0317879 1.05493e-22)
(1.0427 0.133931 7.06972e-21)
(1.03055 0.203077 7.02122e-21)
(0.996592 0.242853 -2.92948e-20)
(0.96307 0.244703 -1.3009e-20)
(0.902425 0.252544 5.09935e-22)
(0.83551 0.276628 1.87665e-19)
(0.711646 0.321352 4.89261e-21)
(0.995334 0.000615545 5.22571e-22)
(1.01193 -0.0233164 1.7043e-20)
(1.03531 0.0276429 -1.22759e-20)
(1.04205 0.136676 -7.95641e-22)
(1.0304 0.210422 -8.22786e-21)
(0.996424 0.253154 1.20449e-21)
(0.964713 0.257758 1.64116e-20)
(0.911834 0.270723 -1.63675e-20)
(0.849329 0.306898 1.08091e-19)
(0.75672 0.383117 -2.42239e-19)
(0.994231 -0.000745798 4.57587e-21)
(1.01317 -0.0280039 -8.2293e-22)
(1.03621 0.0242605 -1.36918e-20)
(1.04224 0.140339 -1.84015e-20)
(1.03115 0.21818 1.92839e-20)
(0.996921 0.263718 2.15948e-20)
(0.966535 0.269288 -2.20883e-20)
(0.922876 0.28797 8.42451e-20)
(0.863682 0.333404 -9.9096e-20)
(0.811259 0.440538 -2.64637e-19)
(0.992967 -0.00220225 3.03051e-22)
(1.01438 -0.0327568 -2.07782e-20)
(1.03769 0.0215599 6.09413e-21)
(1.04323 0.144948 2.77916e-20)
(1.0326 0.226381 7.77819e-21)
(0.998083 0.274546 4.74134e-20)
(0.969082 0.27912 2.60172e-20)
(0.935606 0.304599 7.23531e-20)
(0.87885 0.355575 -3.56235e-22)
(0.873999 0.49261 1.96593e-19)
(0.991603 -0.00374521 -1.94578e-21)
(1.01549 -0.0376301 2.4787e-22)
(1.03968 0.0194747 -3.98891e-21)
(1.04485 0.150542 8.03788e-21)
(1.03463 0.235019 -2.73222e-20)
(1.00018 0.285483 7.86115e-21)
(0.972841 0.287177 -3.47294e-21)
(0.949775 0.320815 -2.11372e-19)
(0.895281 0.372911 0)
(0.945255 0.540806 -2.53994e-20)
(0.990285 -0.00534845 1.23638e-21)
(1.01627 -0.0426485 1.17102e-20)
(1.04183 0.0179184 9.93621e-22)
(1.04685 0.157096 -4.09696e-20)
(1.0373 0.243973 -1.03349e-20)
(1.00365 0.296301 -5.89711e-20)
(0.978342 0.293644 4.70186e-21)
(0.964695 0.336607 4.9774e-21)
(0.915064 0.386003 -1.96683e-21)
(1.019 0.580514 7.51639e-19)
(0.989293 -0.00695801 -1.90494e-21)
(1.01633 -0.0477058 1.54279e-20)
(1.0435 0.0167547 1.12565e-20)
(1.049 0.164378 1.76041e-20)
(1.0409 0.252974 -4.30711e-20)
(1.00878 0.306644 1.31539e-20)
(0.986317 0.298824 -2.89066e-21)
(0.979888 0.351667 2.62167e-20)
(0.940233 0.393529 1.35317e-19)
(1.10314 0.624074 -2.76851e-20)
(0.988986 -0.0085076 1.28835e-21)
(1.0152 -0.0525473 -8.95333e-21)
(1.0439 0.0161214 -1.59915e-21)
(1.05133 0.172229 3.12131e-20)
(1.04591 0.261781 3.95966e-21)
(1.01565 0.315985 2.0585e-20)
(0.997423 0.30295 -4.72635e-20)
(0.995414 0.364603 6.53487e-20)
(0.974557 0.393319 2.74384e-19)
(1.16971 0.645815 -6.40132e-19)
(0.989652 -0.0099806 4.12855e-21)
(1.01264 -0.0569668 -2.27991e-20)
(1.04285 0.016989 3.92823e-22)
(1.0541 0.182028 -1.29253e-20)
(1.05281 0.271248 4.63593e-20)
(1.02485 0.324535 -2.81762e-20)
(1.01176 0.306703 -1.59621e-20)
(1.01435 0.37601 3.42557e-20)
(1.01602 0.405495 -1.46281e-19)
(1.27152 0.698915 3.5178e-19)
(0.991719 -0.011561 -1.3504e-21)
(1.00732 -0.0617531 3.3553e-21)
(1.03969 0.0108266 3.88099e-22)
(1.05866 0.186395 -3.05575e-20)
(1.06826 0.276081 -3.03832e-20)
(1.04496 0.334111 -3.94231e-20)
(1.0393 0.30497 1.4665e-20)
(1.05241 0.386035 -1.42823e-19)
(1.06042 0.353845 -4.86709e-19)
(1.28362 0.688989 -1.38677e-19)
(0.995506 -0.0126932 -7.24615e-21)
(0.998389 -0.0653935 -1.08264e-22)
(1.03198 -0.00609662 1.47459e-21)
(1.05734 0.180314 8.68895e-21)
(1.10227 0.271434 1.63543e-20)
(1.07984 0.342117 5.74979e-20)
(1.1217 0.29395 1.50842e-20)
(1.12725 0.387645 1.09358e-19)
(1.19962 0.315248 2.03456e-19)
(1.28648 0.591154 2.49921e-19)
(0.998976 -0.0132194 -1.6225e-21)
(0.991307 -0.0667879 -1.9284e-21)
(1.02784 -0.0222538 2.04024e-21)
(1.03949 0.167381 4.20387e-21)
(1.17573 0.2584 5.50228e-35)
(1.10731 0.338677 -7.12988e-21)
(1.29296 0.275192 -4.52024e-34)
(1.21227 0.373487 1.66006e-20)
(1.43092 0.293142 -4.21103e-20)
(1.34053 0.511442 -2.0437e-19)
(1.00127 -0.0134546 1.60885e-20)
(0.989143 -0.0667626 -1.86785e-35)
(1.02669 -0.0340927 -2.20976e-21)
(1.00638 0.136949 -2.13081e-21)
(1.27687 0.234868 -1.55723e-20)
(1.12264 0.315076 3.65621e-21)
(1.48782 0.242744 -5.28568e-34)
(1.31245 0.348677 -3.85735e-20)
(1.63466 0.270333 -9.34672e-20)
(1.49241 0.441928 2.27642e-19)
(1.00245 -0.0140814 0)
(0.993153 -0.066523 -7.14741e-35)
(1.0251 -0.0391617 0)
(0.990306 0.085047 0)
(1.33598 0.202425 0)
(1.16639 0.272276 0)
(1.59229 0.195883 -3.22606e-34)
(1.4303 0.318296 0)
(1.74238 0.237223 -1.63233e-20)
(1.67923 0.375294 1.36817e-19)
(1.00201 -0.0164549 2.29053e-21)
(1.0053 -0.0663816 -8.40421e-21)
(1.02825 -0.0440486 -3.02933e-21)
(1.00775 0.0279384 0)
(1.33026 0.163207 0)
(1.24326 0.219143 5.86401e-21)
(1.60215 0.14672 2.75154e-20)
(1.54208 0.279832 -1.1843e-20)
(1.78433 0.199051 -2.48658e-20)
(1.82051 0.309328 9.81998e-20)
(0.99901 -0.0225636 -6.90023e-20)
(1.02691 -0.0658478 8.18409e-21)
(1.03381 -0.0515692 -4.74055e-21)
(1.04182 -0.0250754 -2.56169e-20)
(1.26632 0.11412 -2.45961e-20)
(1.30559 0.15831 6.64243e-21)
(1.54538 0.0982653 -2.70321e-20)
(1.60012 0.231423 -1.81464e-20)
(1.77211 0.158486 -3.0705e-20)
(1.88943 0.243859 1.00963e-19)
(0.993496 -0.0301268 -4.5351e-21)
(1.0415 -0.0653828 -1.04156e-20)
(1.02775 -0.0585197 -5.60153e-21)
(1.05166 -0.0497313 -4.73514e-21)
(1.13202 0.0687291 -7.98086e-35)
(1.31582 0.0979981 5.99681e-21)
(1.39632 0.0548758 -8.70742e-34)
(1.56804 0.178196 -1.07241e-20)
(1.67536 0.115381 1.62175e-20)
(1.8784 0.176953 2.26091e-20)
(0.972597 -0.0497959 1.31731e-19)
(1.04016 -0.0658824 -1.72792e-21)
(0.968919 -0.0658161 -6.09221e-21)
(0.963796 -0.0535385 7.77697e-21)
(0.90548 0.0217638 1.05263e-20)
(1.17662 0.035729 5.64474e-21)
(1.07329 0.0289736 1.35965e-20)
(1.36992 0.100867 -2.49712e-20)
(1.4108 0.0607655 -2.97707e-20)
(1.69663 0.0932029 7.98676e-20)
(0.87127 -0.0324451 6.16797e-21)
(0.853691 -0.0483551 -4.84339e-35)
(0.631936 -0.0488088 -6.55993e-21)
(0.517364 -0.0238379 0)
(0.451616 0.00245467 0)
(0.597993 0.00912266 6.16656e-21)
(0.520496 0.0140553 -6.36105e-36)
(0.767551 0.030949 -9.73221e-21)
(0.79994 0.0170301 -2.4425e-20)
(1.02193 0.0311781 -3.78683e-20)
(1.46742 0.711362 1.49566e-19)
(1.56309 0.695337 -4.58542e-20)
(1.67278 0.669999 -3.16008e-21)
(1.7812 0.633997 5.18475e-20)
(1.88275 0.590131 -2.12968e-19)