/*--------------------------------*- C++ -*----------------------------------*\
| =========                 |                                                 |
| \\      /  F ield         | OpenFOAM: The Open Source CFD Toolbox           |
|  \\    /   O peration     | Version:  2406                                  |
|   \\  /    A nd           | Website:  www.openfoam.com                      |
|    \\/     M anipulation  |                                                 |
\*---------------------------------------------------------------------------*/
FoamFile
{
    version     2.0;
    format      ascii;
    arch        "LSB;label=32;scalar=64";
    class       volVectorField;
    location    "1.15";
    object      flux;
}
// * * * * * * * * * * * * * * * * * * * * * * * * * * * * * * * * * * * * * //

dimensions      [0 1 -1 1 0 0 0];

internalField   nonuniform List<vector> 
2500
(
(0.000306412 0.000306412 0)
(0.000917287 0.000309065 0)
(0.00152424 0.000314464 0)
(0.00212537 0.00032258 0)
(0.00271764 0.000333458 0)
(0.00329867 0.000347151 0)
(0.0038662 0.000363723 0)
(0.00441809 0.000383246 0)
(0.00495234 0.000405802 0)
(0.00546711 0.000431479 0)
(0.0059607 0.00046037 0)
(0.00643159 0.000492573 0)
(0.00687839 0.000528184 0)
(0.00729989 0.000567299 0)
(0.00769499 0.000610008 0)
(0.00806273 0.000656394 0)
(0.00840225 0.000706529 0)
(0.00871277 0.000760469 0)
(0.0089936 0.000818254 0)
(0.00924407 0.0008799 0)
(0.00946355 0.000945398 0)
(0.00965141 0.00101471 0)
(0.009807 0.00108776 0)
(0.00992966 0.00116444 0)
(0.0100187 0.00124461 0)
(0.0100734 0.00132806 0)
(0.0100929 0.00141456 0)
(0.0100764 0.00150381 0)
(0.0100232 0.00159549 0)
(0.00993241 0.00168921 0)
(0.0098032 0.00178451 0)
(0.00963486 0.00188092 0)
(0.00942673 0.0019779 0)
(0.00917831 0.00207487 0)
(0.00888926 0.0021712 0)
(0.00855944 0.00226625 0)
(0.00818898 0.00235932 0)
(0.00777831 0.00244972 0)
(0.00732817 0.00253673 0)
(0.00683967 0.00261964 0)
(0.00631432 0.00269773 0)
(0.005754 0.00277032 0)
(0.005161 0.00283674 0)
(0.00453803 0.00289638 0)
(0.00388813 0.00294866 0)
(0.00321472 0.00299309 0)
(0.0025215 0.00302925 0)
(0.00181244 0.00305677 0)
(0.00109177 0.00307526 0)
(0.000364549 0.00308376 0)
(0.000309065 0.000917287 0)
(0.000925339 0.000925339 0)
(0.00153775 0.000941539 0)
(0.00214437 0.000965916 0)
(0.00274221 0.000998595 0)
(0.00332893 0.00103974 0)
(0.00390229 0.00108953 0)
(0.00446017 0.00114819 0)
(0.00500057 0.00121596 0)
(0.00552167 0.00129312 0)
(0.00602179 0.00137994 0)
(0.0064994 0.00147672 0)
(0.00695312 0.00158375 0)
(0.00738171 0.00170131 0)
(0.00778409 0.00182969 0)
(0.00815925 0.00196913 0)
(0.00850632 0.00211985 0)
(0.0088245 0.00228203 0)
(0.00911303 0.00245577 0)
(0.00937122 0.00264115 0)
(0.00959836 0.00283812 0)
(0.00979377 0.00304659 0)
(0.00995673 0.00326632 0)
(0.0100865 0.003497 0)
(0.0101823 0.00373818 0)
(0.0102433 0.00398927 0)
(0.0102686 0.00424956 0)
(0.0102574 0.00451818 0)
(0.0102086 0.00479412 0)
(0.0101214 0.00507621 0)
(0.00999492 0.00536313 0)
(0.00982824 0.0056534 0)
(0.00962068 0.00594541 0)
(0.00937161 0.00623741 0)
(0.00908064 0.00652754 0)
(0.00874756 0.00681383 0)
(0.00837246 0.0070942 0)
(0.00795572 0.00736655 0)
(0.00749809 0.00762871 0)
(0.00700067 0.00787852 0)
(0.006465 0.00811384 0)
(0.00589301 0.00833259 0)
(0.00528706 0.00853277 0)
(0.00464994 0.00871251 0)
(0.00398484 0.0088701 0)
(0.0032953 0.00900401 0)
(0.00258518 0.00911297 0)
(0.00185845 0.00919598 0)
(0.00111876 0.00925218 0)
(0.000373048 0.00927941 0)
(0.000314464 0.00152424 0)
(0.000941539 0.00153775 0)
(0.00156481 0.00156481 0)
(0.00218243 0.00160556 0)
(0.00279146 0.00166021 0)
(0.0033896 0.001729 0)
(0.00397465 0.00181227 0)
(0.00454452 0.00191039 0)
(0.00509727 0.00202376 0)
(0.00563109 0.00215283 0)
(0.0061443 0.00229809 0)
(0.00663539 0.00246002 0)
(0.00710298 0.00263912 0)
(0.00754583 0.00283589 0)
(0.00796281 0.00305079 0)
(0.00835289 0.00328423 0)
(0.00871514 0.00353661 0)
(0.0090487 0.00380821 0)
(0.00935272 0.00409924 0)
(0.00962642 0.0044098 0)
(0.00986899 0.00473985 0)
(0.0100796 0.00508922 0)
(0.0102574 0.00545755 0)
(0.0104015 0.00584431 0)
(0.010511 0.00624874 0)
(0.0105847 0.00666989 0)
(0.0106218 0.00710656 0)
(0.010621 0.00755731 0)
(0.0105813 0.00802042 0)
(0.0105014 0.00849395 0)
(0.0103804 0.00897569 0)
(0.0102171 0.00946316 0)
(0.0100108 0.00995366 0)
(0.00976045 0.0104442 0)
(0.00946567 0.0109318 0)
(0.0091261 0.0114129 0)
(0.0087417 0.0118843 0)
(0.00831281 0.0123422 0)
(0.00784014 0.012783 0)
(0.00732481 0.0132032 0)
(0.00676839 0.013599 0)
(0.00617293 0.013967 0)
(0.00554092 0.0143039 0)
(0.00487535 0.0146063 0)
(0.00417962 0.0148715 0)
(0.00345759 0.0150968 0)
(0.00271347 0.0152801 0)
(0.00195164 0.0154195 0)
(0.0011752 0.0155139 0)
(0.00039178 0.015561 0)
(0.00032258 0.00212537 0)
(0.000965916 0.00214437 0)
(0.00160556 0.00218243 0)
(0.00223976 0.00223976 0)
(0.00286565 0.00231665 0)
(0.003481 0.00241346 0)
(0.00408368 0.00253066 0)
(0.00467165 0.00266876 0)
(0.00524301 0.00282835 0)
(0.00579601 0.00301008 0)
(0.00632898 0.00321463 0)
(0.00684044 0.0034427 0)
(0.00732899 0.00369501 0)
(0.00779337 0.00397226 0)
(0.00823243 0.00427511 0)
(0.00864507 0.00460418 0)
(0.00903029 0.00496002 0)
(0.00938713 0.00534306 0)
(0.00971462 0.00575361 0)
(0.0100118 0.00619183 0)
(0.0102778 0.00665769 0)
(0.0105115 0.00715095 0)
(0.0107118 0.00767112 0)
(0.0108777 0.00821748 0)
(0.0110079 0.00878899 0)
(0.0111011 0.00938431 0)
(0.011156 0.0100017 0)
(0.0111712 0.0106393 0)
(0.0111453 0.0112945 0)
(0.0110767 0.0119647 0)
(0.0109641 0.0126467 0)
(0.0108062 0.0133371 0)
(0.0106018 0.0140319 0)
(0.0103497 0.0147271 0)
(0.0100493 0.0154181 0)
(0.00970004 0.0161003 0)
(0.00930168 0.0167688 0)
(0.00885448 0.0174184 0)
(0.0083591 0.0180439 0)
(0.00781668 0.0186403 0)
(0.00722886 0.0192022 0)
(0.00659784 0.0197248 0)
(0.00592632 0.0202031 0)
(0.00521757 0.0206327 0)
(0.00447535 0.0210094 0)
(0.0037039 0.0213294 0)
(0.00290791 0.0215897 0)
(0.00209223 0.0217874 0)
(0.00126023 0.0219206 0)
(0.000420199 0.0219875 0)
(0.000333458 0.00271764 0)
(0.000998595 0.00274221 0)
(0.00166021 0.00279146 0)
(0.00231665 0.00286565 0)
(0.00296516 0.00296516 0)
(0.00360361 0.00309047 0)
(0.00422994 0.00324219 0)
(0.00484222 0.00342099 0)
(0.0054386 0.00362767 0)
(0.00601737 0.00386305 0)
(0.00657692 0.00412805 0)
(0.00711577 0.0044236 0)
(0.00763254 0.00475063 0)
(0.00812593 0.00511008 0)
(0.00859474 0.00550284 0)
(0.0090378 0.00592975 0)
(0.00945402 0.00639151 0)
(0.00984229 0.00688874 0)
(0.0102015 0.00742187 0)
(0.0105305 0.00799113 0)
(0.0108281 0.00859651 0)
(0.011093 0.00923774 0)
(0.011324 0.00991422 0)
(0.0115194 0.010625 0)
(0.0116778 0.0113689 0)
(0.0117975 0.012144 0)
(0.0118768 0.0129483 0)
(0.0119138 0.013779 0)
(0.0119067 0.0146333 0)
(0.0118536 0.0155073 0)
(0.0117527 0.0163972 0)
(0.0116023 0.0172983 0)
(0.0114008 0.0182056 0)
(0.0111467 0.0191138 0)
(0.0108389 0.0200169 0)
(0.0104767 0.0209088 0)
(0.0100597 0.021783 0)
(0.00958797 0.0226328 0)
(0.00906204 0.0234516 0)
(0.0084831 0.0242323 0)
(0.0078529 0.0249682 0)
(0.00717382 0.0256527 0)
(0.00644884 0.0262794 0)
(0.00568161 0.0268424 0)
(0.00487636 0.0273361 0)
(0.00403787 0.0277557 0)
(0.00317145 0.0280967 0)
(0.00228257 0.0283558 0)
(0.00137528 0.0285302 0)
(0.000458676 0.0286178 0)
(0.000347151 0.00329867 0)
(0.00103974 0.00332893 0)
(0.001729 0.0033896 0)
(0.00241346 0.003481 0)
(0.00309047 0.00360361 0)
(0.00375803 0.00375803 0)
(0.00441419 0.00394501 0)
(0.00505713 0.00416543 0)
(0.00568507 0.00442026 0)
(0.00629639 0.00471056 0)
(0.00688953 0.00503747 0)
(0.00746301 0.00540217 0)
(0.00801547 0.00580585 0)
(0.00854559 0.0062497 0)
(0.00905209 0.00673485 0)
(0.00953374 0.00726237 0)
(0.00998929 0.0078332 0)
(0.0104175 0.00844812 0)
(0.010817 0.00910772 0)
(0.0111865 0.00981232 0)
(0.0115244 0.010562 0)
(0.0118292 0.0113564 0)
(0.0120991 0.0121949 0)
(0.0123323 0.0130764 0)
(0.0125269 0.0139993 0)
(0.0126805 0.0149615 0)
(0.0127911 0.0159604 0)
(0.0128562 0.0169927 0)
(0.0128735 0.0180548 0)
(0.0128406 0.019142 0)
(0.0127551 0.0202495 0)
(0.0126147 0.0213716 0)
(0.0124172 0.022502 0)
(0.012161 0.0236339 0)
(0.0118443 0.0247602 0)
(0.0114662 0.025873 0)
(0.0110258 0.0269643 0)
(0.0105231 0.0280256 0)
(0.00995852 0.0290485 0)
(0.00933331 0.0300243 0)
(0.00864929 0.0309444 0)
(0.00790908 0.0318006 0)
(0.00711603 0.0325847 0)
(0.00627426 0.0332893 0)
(0.00538859 0.0339073 0)
(0.0044645 0.0344325 0)
(0.00350807 0.0348596 0)
(0.00252566 0.0351839 0)
(0.00152218 0.0354022 0)
(0.000507803 0.0355119 0)
(0.000363723 0.0038662 0)
(0.00108953 0.00390229 0)
(0.00181227 0.00397465 0)
(0.00253066 0.00408368 0)
(0.00324219 0.00422994 0)
(0.00394501 0.00441419 0)
(0.00463734 0.00463734 0)
(0.00531746 0.00490045 0)
(0.00598373 0.00520472 0)
(0.00663458 0.00555144 0)
(0.00726853 0.005942 0)
(0.00788415 0.00637787 0)
(0.00848007 0.0068605 0)
(0.00905493 0.00739137 0)
(0.00960741 0.0079719 0)
(0.0101362 0.00860339 0)
(0.0106398 0.00928706 0)
(0.0111168 0.0100239 0)
(0.0115657 0.0108146 0)
(0.0119848 0.0116598 0)
(0.0123722 0.0125595 0)
(0.012726 0.0135135 0)
(0.0130439 0.0145209 0)
(0.0133238 0.0155807 0)
(0.0135629 0.0166908 0)
(0.0137586 0.017849 0)
(0.013908 0.019052 0)
(0.0140082 0.0202961 0)
(0.014056 0.0215768 0)
(0.0140484 0.0228887 0)
(0.0139823 0.0242259 0)
(0.0138548 0.0255815 0)
(0.0136631 0.026948 0)
(0.0134049 0.0283172 0)
(0.013078 0.0296803 0)
(0.0126808 0.031028 0)
(0.0122123 0.0323502 0)
(0.0116722 0.033637 0)
(0.0110607 0.0348777 0)
(0.010379 0.0360618 0)
(0.0096292 0.037179 0)
(0.00881411 0.0382189 0)
(0.00793754 0.0391717 0)
(0.00700419 0.0400281 0)
(0.00601961 0.0407795 0)
(0.00499015 0.0414182 0)
(0.00392287 0.0419377 0)
(0.00282521 0.0423323 0)
(0.0017032 0.0425978 0)
(0.000568338 0.0427312 0)
(0.000383246 0.00441809 0)
(0.00114819 0.00446017 0)
(0.00191039 0.00454452 0)
(0.00266876 0.00467165 0)
(0.00342099 0.00484222 0)
(0.00416543 0.00505713 0)
(0.00490045 0.00531746 0)
(0.0056245 0.0056245 0)
(0.00633606 0.00597966 0)
(0.00703368 0.00638452 0)
(0.00771596 0.00684076 0)
(0.00838151 0.0073501 0)
(0.00902898 0.00791435 0)
(0.00965698 0.00853527 0)
(0.0102641 0.0092146 0)
(0.0108489 0.00995396 0)
(0.0114098 0.0107548 0)
(0.0119451 0.0116185 0)
(0.0124529 0.0125459 0)
(0.0129313 0.0135377 0)
(0.013378 0.0145941 0)
(0.0137906 0.015715 0)
(0.0141663 0.0168996 0)
(0.0145022 0.0181465 0)
(0.0147952 0.0194536 0)
(0.0150417 0.0208181 0)
(0.0152383 0.0222366 0)
(0.015381 0.0237045 0)
(0.0154661 0.0252167 0)
(0.0154897 0.0267669 0)
(0.0154478 0.0283481 0)
(0.0153368 0.0299522 0)
(0.015153 0.0315704 0)
(0.0148933 0.033193 0)
(0.0145551 0.0348094 0)
(0.0141361 0.0364086 0)
(0.0136348 0.0379787 0)
(0.0130505 0.0395075 0)
(0.0123834 0.0409826 0)
(0.0116346 0.0423912 0)
(0.0108064 0.0437209 0)
(0.00990178 0.0449592 0)
(0.00892522 0.0460943 0)
(0.00788207 0.047115 0)
(0.00677875 0.0480108 0)
(0.00562268 0.0487726 0)
(0.00442209 0.0493922 0)
(0.00318577 0.049863 0)
(0.0019211 0.0501798 0)
(0.000641207 0.050339 0)
(0.000405802 0.00495234 0)
(0.00121596 0.00500057 0)
(0.00202376 0.00509727 0)
(0.00282835 0.00524301 0)
(0.00362767 0.0054386 0)
(0.00442026 0.00568507 0)
(0.00520472 0.00598373 0)
(0.00597966 0.00633606 0)
(0.00674376 0.00674376 0)
(0.00749567 0.00720867 0)
(0.00823411 0.0077328 0)
(0.00895774 0.00831821 0)
(0.00966523 0.00896704 0)
(0.0103552 0.00968141 0)
(0.0110261 0.0104634 0)
(0.0116764 0.011315 0)
(0.0123043 0.012238 0)
(0.0129078 0.013234 0)
(0.0134849 0.0143043 0)
(0.014033 0.0154496 0)
(0.0145495 0.0166705 0)
(0.0150314 0.0179668 0)
(0.0154754 0.0193378 0)
(0.0158777 0.0207819 0)
(0.0162345 0.0222971 0)
(0.0165416 0.0238801 0)
(0.0167944 0.025527 0)
(0.0169883 0.0272327 0)
(0.0171184 0.0289913 0)
(0.0171797 0.0307956 0)
(0.0171676 0.0326375 0)
(0.0170771 0.0345076 0)
(0.0169039 0.0363957 0)
(0.0166439 0.0382904 0)
(0.0162936 0.0401795 0)
(0.0158501 0.0420499 0)
(0.0153113 0.0438876 0)
(0.0146761 0.0456783 0)
(0.0139444 0.0474073 0)
(0.0131173 0.0490595 0)
(0.0121972 0.05062 0)
(0.0111875 0.0520741 0)
(0.0100933 0.0534077 0)
(0.00892071 0.0546075 0)
(0.00767723 0.055661 0)
(0.00637152 0.0565571 0)
(0.00501325 0.0572861 0)
(0.0036128 0.0578402 0)
(0.00217919 0.0582132 0)
(0.000727524 0.0584005 0)
(0.000431479 0.00546711 0)
(0.00129312 0.00552167 0)
(0.00215283 0.00563109 0)
(0.00301008 0.00579601 0)
(0.00386305 0.00601737 0)
(0.00471056 0.00629639 0)
(0.00555144 0.00663458 0)
(0.00638452 0.00703368 0)
(0.00720867 0.00749567 0)
(0.00802273 0.00802273 0)
(0.0088255 0.00861717 0)
(0.00961575 0.00928146 0)
(0.0103922 0.0100181 0)
(0.0111534 0.0108296 0)
(0.0118977 0.0117186 0)
(0.0126235 0.0126872 0)
(0.0133288 0.0137378 0)
(0.0140113 0.0148723 0)
(0.0146685 0.0160922 0)
(0.0152976 0.0173988 0)
(0.0158952 0.0187926 0)
(0.0164579 0.0202738 0)
(0.0169814 0.0218416 0)
(0.0174615 0.0234945 0)
(0.0178933 0.0252302 0)
(0.0182716 0.0270453 0)
(0.0185909 0.0289353 0)
(0.0188453 0.0308946 0)
(0.019029 0.0329166 0)
(0.0191359 0.034993 0)
(0.0191598 0.0371147 0)
(0.019095 0.0392709 0)
(0.0189358 0.0414498 0)
(0.0186772 0.0436385 0)
(0.0183145 0.0458225 0)
(0.0178441 0.0479868 0)
(0.0172632 0.0501151 0)
(0.0165702 0.0521907 0)
(0.0157645 0.0541963 0)
(0.0148473 0.0561143 0)
(0.013821 0.0579271 0)
(0.0126896 0.0596175 0)
(0.0114586 0.0611687 0)
(0.0101353 0.0625649 0)
(0.00872833 0.0637915 0)
(0.00724786 0.0648353 0)
(0.00570526 0.0656848 0)
(0.00411277 0.0663306 0)
(0.00248142 0.0667653 0)
(0.000828606 0.0669837 0)
(0.00046037 0.0059607 0)
(0.00137994 0.00602179 0)
(0.00229809 0.0061443 0)
(0.00321463 0.00632898 0)
(0.00412805 0.00657692 0)
(0.00503747 0.00688953 0)
(0.005942 0.00726853 0)
(0.00684076 0.00771596 0)
(0.0077328 0.00823411 0)
(0.00861717 0.0088255 0)
(0.00949284 0.00949284 0)
(0.0103587 0.010239 0)
(0.0112134 0.0110669 0)
(0.0120556 0.0119796 0)
(0.0128837 0.01298 0)
(0.0136956 0.0140709 0)
(0.0144894 0.0152549 0)
(0.0152623 0.0165345 0)
(0.0160114 0.0179117 0)
(0.0167335 0.0193878 0)
(0.0174246 0.020964 0)
(0.0180804 0.0226404 0)
(0.0186961 0.0244164 0)
(0.0192663 0.0262908 0)
(0.0197853 0.0282609 0)
(0.0202467 0.0303231 0)
(0.0206438 0.0324727 0)
(0.0209696 0.0347034 0)
(0.0212167 0.0370077 0)
(0.0213778 0.0393766 0)
(0.0214454 0.0417995 0)
(0.0214123 0.0442646 0)
(0.0212715 0.0467582 0)
(0.0210166 0.0492654 0)
(0.0206419 0.0517698 0)
(0.0201427 0.0542541 0)
(0.0195152 0.0566994 0)
(0.0187573 0.0590864 0)
(0.017868 0.0613949 0)
(0.0168481 0.0636044 0)
(0.0157004 0.0656943 0)
(0.0144291 0.0676446 0)
(0.0130407 0.0694355 0)
(0.0115435 0.0710484 0)
(0.00994759 0.0724662 0)
(0.0082648 0.0736732 0)
(0.00650853 0.0746559 0)
(0.00469328 0.0754032 0)
(0.00283238 0.0759063 0)
(0.000946 0.0761592 0)
(0.000492573 0.00643159 0)
(0.00147672 0.0064994 0)
(0.00246002 0.00663539 0)
(0.0034427 0.00684044 0)
(0.0044236 0.00711577 0)
(0.00540217 0.00746301 0)
(0.00637787 0.00788415 0)
(0.0073501 0.00838151 0)
(0.00831821 0.00895774 0)
(0.00928146 0.00961575 0)
(0.010239 0.0103587 0)
(0.0111898 0.0111898 0)
(0.0121328 0.0121127 0)
(0.0130664 0.0131307 0)
(0.013989 0.0142473 0)
(0.0148985 0.0154659 0)
(0.0157925 0.0167897 0)
(0.016668 0.0182215 0)
(0.0175218 0.0197638 0)
(0.0183499 0.0214186 0)
(0.0191478 0.0231871 0)
(0.0199103 0.0250699 0)
(0.0206319 0.0270668 0)
(0.021306 0.0291763 0)
(0.0219257 0.031396 0)
(0.0224834 0.033722 0)
(0.0229711 0.0361491 0)
(0.0233804 0.0386708 0)
(0.0237022 0.0412786 0)
(0.0239277 0.0439625 0)
(0.0240478 0.0467109 0)
(0.0240536 0.0495102 0)
(0.0239366 0.0523452 0)
(0.0236888 0.0551988 0)
(0.0233032 0.0580525 0)
(0.0227737 0.0608863 0)
(0.0220955 0.0636786 0)
(0.0212656 0.0664071 0)
(0.0202825 0.0690485 0)
(0.0191468 0.071579 0)
(0.0178612 0.0739748 0)
(0.0164307 0.0762122 0)
(0.0148624 0.0782683 0)
(0.013166 0.0801214 0)
(0.0113531 0.0817512 0)
(0.00943757 0.0831394 0)
(0.00743524 0.0842702 0)
(0.00536317 0.0851304 0)
(0.00323746 0.0857096 0)
(0.00108151 0.0860008 0)
(0.000528184 0.00687839 0)
(0.00158375 0.00695312 0)
(0.00263912 0.00710298 0)
(0.00369501 0.00732899 0)
(0.00475063 0.00763254 0)
(0.00580585 0.00801547 0)
(0.0068605 0.00848007 0)
(0.00791435 0.00902898 0)
(0.00896704 0.00966523 0)
(0.0100181 0.0103922 0)
(0.0110669 0.0112134 0)
(0.0121127 0.0121328 0)
(0.0131543 0.0131543 0)
(0.0141903 0.0142819 0)
(0.0152189 0.0155198 0)
(0.016238 0.0168718 0)
(0.0172449 0.0183419 0)
(0.0182364 0.0199333 0)
(0.0192085 0.0216492 0)
(0.0201567 0.0234921 0)
(0.0210759 0.0254637 0)
(0.0219601 0.027565 0)
(0.0228024 0.029796 0)
(0.0235955 0.0321555 0)
(0.024331 0.0346411 0)
(0.0249999 0.0372488 0)
(0.0255926 0.0399733 0)
(0.026099 0.0428073 0)
(0.0265085 0.0457418 0)
(0.0268102 0.0487658 0)
(0.0269931 0.0518662 0)
(0.0270466 0.055028 0)
(0.0269601 0.0582342 0)
(0.026724 0.0614655 0)
(0.0263294 0.0647008 0)
(0.0257688 0.0679174 0)
(0.0250361 0.0710907 0)
(0.0241272 0.074195 0)
(0.0230399 0.0772034 0)
(0.0217744 0.0800886 0)
(0.0203335 0.0828228 0)
(0.0187226 0.0853786 0)
(0.01695 0.0877293 0)
(0.0150264 0.0898495 0)
(0.0129656 0.0917155 0)
(0.0107838 0.0933058 0)
(0.00849944 0.0946018 0)
(0.00613268 0.095588 0)
(0.00370287 0.0962523 0)
(0.00123722 0.0965863 0)
(0.000567299 0.00729989 0)
(0.00170131 0.00738171 0)
(0.00283589 0.00754583 0)
(0.00397226 0.00779337 0)
(0.00511008 0.00812593 0)
(0.0062497 0.00854559 0)
(0.00739137 0.00905493 0)
(0.00853527 0.00965698 0)
(0.00968141 0.0103552 0)
(0.0108296 0.0111534 0)
(0.0119796 0.0120556 0)
(0.0131307 0.0130664 0)
(0.0142819 0.0141903 0)
(0.0154319 0.0154319 0)
(0.0165789 0.0167961 0)
(0.0177206 0.0182874 0)
(0.0188539 0.0199104 0)
(0.0199754 0.0216692 0)
(0.0210806 0.0235674 0)
(0.0221644 0.0256083 0)
(0.0232207 0.0277942 0)
(0.0242426 0.0301266 0)
(0.0252224 0.0326059 0)
(0.0261511 0.0352312 0)
(0.027019 0.0380003 0)
(0.0278157 0.0409092 0)
(0.0285296 0.0439522 0)
(0.0291488 0.0471218 0)
(0.0296607 0.0504082 0)
(0.0300521 0.0537994 0)
(0.0303101 0.0572812 0)
(0.0304216 0.0608368 0)
(0.030374 0.0644472 0)
(0.0301555 0.0680908 0)
(0.0297551 0.0717439 0)
(0.0291636 0.0753807 0)
(0.0283731 0.0789731 0)
(0.0273783 0.0824918 0)
(0.0261761 0.085906 0)
(0.0247662 0.0891841 0)
(0.0231513 0.0922939 0)
(0.0213372 0.0952039 0)
(0.0193333 0.0978828 0)
(0.0171521 0.100301 0)
(0.0148093 0.102431 0)
(0.0123239 0.104247 0)
(0.00971741 0.105728 0)
(0.00701368 0.106856 0)
(0.00423584 0.107615 0)
(0.00141555 0.107998 0)
(0.000610008 0.00769499 0)
(0.00182969 0.00778409 0)
(0.00305079 0.00796281 0)
(0.00427511 0.00823243 0)
(0.00550284 0.00859474 0)
(0.00673485 0.00905209 0)
(0.0079719 0.00960741 0)
(0.0092146 0.0102641 0)
(0.0104634 0.0110261 0)
(0.0117186 0.0118977 0)
(0.01298 0.0128837 0)
(0.0142473 0.013989 0)
(0.0155198 0.0152189 0)
(0.0167961 0.0165789 0)
(0.0180744 0.0180744 0)
(0.0193524 0.0197109 0)
(0.0206267 0.0214936 0)
(0.0218934 0.0234275 0)
(0.0231476 0.0255171 0)
(0.0243835 0.0277663 0)
(0.0255942 0.0301781 0)
(0.0267717 0.0327547 0)
(0.027907 0.0354971 0)
(0.0289898 0.0384048 0)
(0.0300089 0.0414758 0)
(0.0309519 0.0447064 0)
(0.0318053 0.0480908 0)
(0.032555 0.051621 0)
(0.0331861 0.0552866 0)
(0.0336831 0.0590746 0)
(0.0340305 0.0629696 0)
(0.0342125 0.0669532 0)
(0.0342141 0.0710042 0)
(0.0340207 0.0750985 0)
(0.0336192 0.0792096 0)
(0.032998 0.0833082 0)
(0.0321473 0.0873626 0)
(0.0310601 0.0913392 0)
(0.0297321 0.0952028 0)
(0.0281623 0.0989171 0)
(0.0263533 0.102445 0)
(0.0243115 0.10575 0)
(0.0220471 0.108795 0)
(0.0195745 0.111547 0)
(0.0169119 0.113973 0)
(0.0140812 0.116043 0)
(0.0111079 0.117732 0)
(0.00801984 0.119018 0)
(0.00484468 0.119885 0)
(0.0016193 0.120321 0)
(0.000656394 0.00806273 0)
(0.00196913 0.00815925 0)
(0.00328423 0.00835289 0)
(0.00460418 0.00864507 0)
(0.00592975 0.0090378 0)
(0.00726237 0.00953374 0)
(0.00860339 0.0101362 0)
(0.00995396 0.0108489 0)
(0.011315 0.0116764 0)
(0.0126872 0.0126235 0)
(0.0140709 0.0136956 0)
(0.0154659 0.0148985 0)
(0.0168718 0.016238 0)
(0.0182874 0.0177206 0)
(0.0197109 0.0193524 0)
(0.0211398 0.0211398 0)
(0.0225705 0.0230889 0)
(0.0239988 0.0252058 0)
(0.0254193 0.0274956 0)
(0.0268253 0.0299634 0)
(0.0282091 0.032613 0)
(0.0295616 0.0354473 0)
(0.0308724 0.0384681 0)
(0.0321298 0.0416755 0)
(0.0333207 0.0450679 0)
(0.0344307 0.0486419 0)
(0.0354442 0.0523917 0)
(0.0363446 0.056309 0)
(0.0371143 0.060383 0)
(0.0377352 0.0645999 0)
(0.0381887 0.0689428 0)
(0.0384561 0.0733916 0)
(0.0385194 0.077923 0)
(0.038361 0.0825104 0)
(0.0379648 0.0871239 0)
(0.0373165 0.0917306 0)
(0.0364042 0.0962947 0)
(0.0352186 0.100778 0)
(0.033754 0.10514 0)
(0.0320084 0.10934 0)
(0.029984 0.113334 0)
(0.0276876 0.11708 0)
(0.0251306 0.120536 0)
(0.0223294 0.123662 0)
(0.019305 0.12642 0)
(0.0160828 0.128775 0)
(0.0126925 0.130698 0)
(0.00916695 0.132164 0)
(0.00553901 0.133152 0)
(0.0018517 0.133649 0)
(0.000706529 0.00840225 0)
(0.00211985 0.00850632 0)
(0.00353661 0.00871514 0)
(0.00496002 0.00903029 0)
(0.00639151 0.00945402 0)
(0.0078332 0.00998929 0)
(0.00928706 0.0106398 0)
(0.0107548 0.0114098 0)
(0.012238 0.0123043 0)
(0.0137378 0.0133288 0)
(0.0152549 0.0144894 0)
(0.0167897 0.0157925 0)
(0.0183419 0.0172449 0)
(0.0199104 0.0188539 0)
(0.0214936 0.0206267 0)
(0.0230889 0.0225705 0)
(0.0246927 0.0246927 0)
(0.0263001 0.027 0)
(0.0279053 0.0294991 0)
(0.0295009 0.0321958 0)
(0.0310781 0.035095 0)
(0.0326268 0.0382008 0)
(0.0341352 0.0415155 0)
(0.0355897 0.0450404 0)
(0.0369753 0.0487743 0)
(0.0382756 0.0527142 0)
(0.0394724 0.0568547 0)
(0.0405464 0.0611873 0)
(0.041477 0.0657009 0)
(0.0422429 0.0703807 0)
(0.0428221 0.0752087 0)
(0.0431927 0.0801632 0)
(0.0433329 0.0852186 0)
(0.0432216 0.0903454 0)
(0.0428395 0.0955103 0)
(0.0421688 0.100677 0)
(0.0411948 0.105804 0)
(0.0399057 0.110848 0)
(0.0382938 0.115765 0)
(0.0363558 0.120505 0)
(0.0340934 0.125019 0)
(0.0315136 0.12926 0)
(0.0286291 0.133176 0)
(0.0254583 0.136723 0)
(0.0220253 0.139855 0)
(0.0183598 0.142533 0)
(0.0144962 0.14472 0)
(0.0104733 0.146388 0)
(0.00632996 0.147513 0)
(0.00211648 0.14808 0)
(0.000760469 0.00871277 0)
(0.00228203 0.0088245 0)
(0.00380821 0.0090487 0)
(0.00534306 0.00938713 0)
(0.00688874 0.00984229 0)
(0.00844812 0.0104175 0)
(0.0100239 0.0111168 0)
(0.0116185 0.0119451 0)
(0.013234 0.0129078 0)
(0.0148723 0.0140113 0)
(0.0165345 0.0152623 0)
(0.0182215 0.016668 0)
(0.0199333 0.0182364 0)
(0.0216692 0.0199754 0)
(0.0234275 0.0218934 0)
(0.0252058 0.0239988 0)
(0.027 0.0263001 0)
(0.0288053 0.0288053 0)
(0.0306151 0.0315222 0)
(0.0324212 0.0344578 0)
(0.0342141 0.0376185 0)
(0.0359821 0.0410092 0)
(0.037712 0.0446337 0)
(0.0393886 0.0484939 0)
(0.0409946 0.0525899 0)
(0.0425111 0.0569191 0)
(0.0439173 0.0614765 0)
(0.0451908 0.066254 0)
(0.0463077 0.0712399 0)
(0.0472431 0.0764191 0)
(0.0479712 0.0817722 0)
(0.048466 0.087276 0)
(0.0487015 0.0929024 0)
(0.0486527 0.0986193 0)
(0.048296 0.10439 0)
(0.0476099 0.110172 0)
(0.046576 0.115922 0)
(0.0451796 0.121589 0)
(0.0434103 0.127121 0)
(0.0412631 0.132464 0)
(0.0387388 0.137562 0)
(0.0358445 0.142356 0)
(0.0325941 0.146791 0)
(0.0290083 0.150812 0)
(0.0251148 0.154367 0)
(0.0209479 0.157408 0)
(0.0165479 0.159895 0)
(0.0119599 0.161793 0)
(0.0072304 0.163073 0)
(0.00241798 0.163718 0)
(0.000818254 0.0089936 0)
(0.00245577 0.00911303 0)
(0.00409924 0.00935272 0)
(0.00575361 0.00971462 0)
(0.00742187 0.0102015 0)
(0.00910772 0.010817 0)
(0.0108146 0.0115657 0)
(0.0125459 0.0124529 0)
(0.0143043 0.0134849 0)
(0.0160922 0.0146685 0)
(0.0179117 0.0160114 0)
(0.0197638 0.0175218 0)
(0.0216492 0.0192085 0)
(0.0235674 0.0210806 0)
(0.0255171 0.0231476 0)
(0.0274956 0.0254193 0)
(0.0294991 0.0279053 0)
(0.0315222 0.0306151 0)
(0.0335578 0.0335578 0)
(0.0355971 0.036742 0)
(0.0376295 0.0401754 0)
(0.0396421 0.0438644 0)
(0.0416199 0.0478141 0)
(0.0435459 0.0520278 0)
(0.0454005 0.0565065 0)
(0.0471623 0.0612488 0)
(0.0488073 0.0662503 0)
(0.0503097 0.0715031 0)
(0.051642 0.0769958 0)
(0.0527752 0.0827127 0)
(0.0536791 0.0886335 0)
(0.0543229 0.0947333 0)
(0.0546762 0.100982 0)
(0.0547088 0.107344 0)
(0.0543924 0.113779 0)
(0.0537008 0.12024 0)
(0.0526114 0.126678 0)
(0.0511054 0.133035 0)
(0.0491695 0.139254 0)
(0.0467961 0.145271 0)
(0.0439849 0.151021 0)
(0.0407428 0.156438 0)
(0.0370847 0.161457 0)
(0.033034 0.166013 0)
(0.0286221 0.170046 0)
(0.0238887 0.173501 0)
(0.0188808 0.176328 0)
(0.0136513 0.178487 0)
(0.00825527 0.179944 0)
(0.00276121 0.180678 0)
(0.0008799 0.00924407 0)
(0.00264115 0.00937122 0)
(0.0044098 0.00962642 0)
(0.00619183 0.0100118 0)
(0.00799113 0.0105305 0)
(0.00981232 0.0111865 0)
(0.0116598 0.0119848 0)
(0.0135377 0.0129313 0)
(0.0154496 0.014033 0)
(0.0173988 0.0152976 0)
(0.0193878 0.0167335 0)
(0.0214186 0.0183499 0)
(0.0234921 0.0201567 0)
(0.0256083 0.0221644 0)
(0.0277663 0.0243835 0)
(0.0299634 0.0268253 0)
(0.0321958 0.0295009 0)
(0.0344578 0.0324212 0)
(0.036742 0.0355971 0)
(0.0390388 0.0390388 0)
(0.0413365 0.0427555 0)
(0.0436209 0.0467556 0)
(0.0458755 0.0510456 0)
(0.048081 0.0556304 0)
(0.0502156 0.0605125 0)
(0.0522548 0.0656918 0)
(0.0541716 0.0711648 0)
(0.0559363 0.0769245 0)
(0.0575172 0.0829597 0)
(0.0588808 0.0892544 0)
(0.0599918 0.0957879 0)
(0.0608143 0.102534 0)
(0.0613121 0.109459 0)
(0.0614495 0.116526 0)
(0.0611923 0.12369 0)
(0.060509 0.130899 0)
(0.0593713 0.138098 0)
(0.0577561 0.145222 0)
(0.0556457 0.152205 0)
(0.0530298 0.158976 0)
(0.0499058 0.165458 0)
(0.0462802 0.171576 0)
(0.0421689 0.177254 0)
(0.0375979 0.182416 0)
(0.0326031 0.186992 0)
(0.0272302 0.190917 0)
(0.0215337 0.194132 0)
(0.0155759 0.196588 0)
(0.00942197 0.198247 0)
(0.00315203 0.199083 0)
(0.000945398 0.00946355 0)
(0.00283812 0.00959836 0)
(0.00473985 0.00986899 0)
(0.00665769 0.0102778 0)
(0.00859651 0.0108281 0)
(0.010562 0.0115244 0)
(0.0125595 0.0123722 0)
(0.0145941 0.013378 0)
(0.0166705 0.0145495 0)
(0.0187926 0.0158952 0)
(0.020964 0.0174246 0)
(0.0231871 0.0191478 0)
(0.0254637 0.0210759 0)
(0.0277942 0.0232207 0)
(0.0301781 0.0255942 0)
(0.032613 0.0282091 0)
(0.035095 0.0310781 0)
(0.0376185 0.0342141 0)
(0.0401754 0.0376295 0)
(0.0427555 0.0413365 0)
(0.0453463 0.0453463 0)
(0.0479321 0.0496691 0)
(0.0504947 0.0543136 0)
(0.0530128 0.0592865 0)
(0.055462 0.0645922 0)
(0.0578146 0.0702321 0)
(0.06004 0.0762042 0)
(0.0621046 0.0825027 0)
(0.063972 0.089117 0)
(0.0656034 0.0960315 0)
(0.0669581 0.103225 0)
(0.0679941 0.110669 0)
(0.0686686 0.11833 0)
(0.0689394 0.126167 0)
(0.0687656 0.134129 0)
(0.0681087 0.142163 0)
(0.0669344 0.150203 0)
(0.0652133 0.158179 0)
(0.0629229 0.166015 0)
(0.0600486 0.173628 0)
(0.0565854 0.180934 0)
(0.0525385 0.187842 0)
(0.0479247 0.194265 0)
(0.0427726 0.200116 0)
(0.0371228 0.205309 0)
(0.031028 0.209769 0)
(0.0245518 0.213426 0)
(0.017767 0.216223 0)
(0.0107508 0.218114 0)
(0.00359728 0.219067 0)
(0.00101471 0.00965141 0)
(0.00304659 0.00979377 0)
(0.00508922 0.0100796 0)
(0.00715095 0.0105115 0)
(0.00923774 0.011093 0)
(0.0113564 0.0118292 0)
(0.0135135 0.012726 0)
(0.015715 0.0137906 0)
(0.0179668 0.0150314 0)
(0.0202738 0.0164579 0)
(0.0226404 0.0180804 0)
(0.0250699 0.0199103 0)
(0.027565 0.0219601 0)
(0.0301266 0.0242426 0)
(0.0327547 0.0267717 0)
(0.0354473 0.0295616 0)
(0.0382008 0.0326268 0)
(0.0410092 0.0359821 0)
(0.0438644 0.0396421 0)
(0.0467556 0.0436209 0)
(0.0496691 0.0479321 0)
(0.0525882 0.0525882 0)
(0.0554929 0.0576002 0)
(0.0583596 0.062977 0)
(0.0611612 0.0687254 0)
(0.0638669 0.0748489 0)
(0.0664422 0.0813474 0)
(0.0688491 0.0882167 0)
(0.071046 0.0954473 0)
(0.0729884 0.103024 0)
(0.0746293 0.110926 0)
(0.0759197 0.119125 0)
(0.0768096 0.127584 0)
(0.0772488 0.136259 0)
(0.0771884 0.145098 0)
(0.0765821 0.154037 0)
(0.0753875 0.163008 0)
(0.0735682 0.17193 0)
(0.0710952 0.180718 0)
(0.0679487 0.189277 0)
(0.0641198 0.197508 0)
(0.0596119 0.20531 0)
(0.0544421 0.212578 0)
(0.0486417 0.21921 0)
(0.0422567 0.225108 0)
(0.0353474 0.23018 0)
(0.0279878 0.234345 0)
(0.0202634 0.237532 0)
(0.0122657 0.239689 0)
(0.00410499 0.240776 0)
(0.00108776 0.009807 0)
(0.00326632 0.00995673 0)
(0.00545755 0.0102574 0)
(0.00767112 0.0107118 0)
(0.00991422 0.011324 0)
(0.0121949 0.0120991 0)
(0.0145209 0.0130439 0)
(0.0168996 0.0141663 0)
(0.0193378 0.0154754 0)
(0.0218416 0.0169814 0)
(0.0244164 0.0186961 0)
(0.0270668 0.0206319 0)
(0.029796 0.0228024 0)
(0.0326059 0.0252224 0)
(0.0354971 0.027907 0)
(0.0384681 0.0308724 0)
(0.0415155 0.0341352 0)
(0.0446337 0.037712 0)
(0.0478141 0.0416199 0)
(0.0510456 0.0458755 0)
(0.0543136 0.0504947 0)
(0.0576002 0.0554929 0)
(0.0608836 0.0608836 0)
(0.0641381 0.0666786 0)
(0.0673338 0.0728875 0)
(0.0704366 0.0795162 0)
(0.0734077 0.0865674 0)
(0.0762044 0.0940388 0)
(0.0787797 0.101923 0)
(0.0810825 0.110206 0)
(0.0830588 0.118868 0)
(0.0846518 0.127879 0)
(0.0858029 0.137202 0)
(0.086453 0.14679 0)
(0.0865437 0.156586 0)
(0.086019 0.166523 0)
(0.0848273 0.176522 0)
(0.0829231 0.186496 0)
(0.0802692 0.196346 0)
(0.076839 0.205965 0)
(0.0726186 0.215241 0)
(0.0676084 0.224053 0)
(0.0618252 0.232281 0)
(0.0553027 0.239805 0)
(0.0480927 0.246509 0)
(0.0402644 0.252283 0)
(0.0319037 0.25703 0)
(0.0231109 0.260668 0)
(0.0139946 0.26313 0)
(0.00468465 0.264373 0)
(0.00116444 0.00992966 0)
(0.003497 0.0100865 0)
(0.00584431 0.0104015 0)
(0.00821748 0.0108777 0)
(0.010625 0.0115194 0)
(0.0130764 0.0123323 0)
(0.0155807 0.0133238 0)
(0.0181465 0.0145022 0)
(0.0207819 0.0158777 0)
(0.0234945 0.0174615 0)
(0.0262908 0.0192663 0)
(0.0291763 0.021306 0)
(0.0321555 0.0235955 0)
(0.0352312 0.0261511 0)
(0.0384048 0.0289898 0)
(0.0416755 0.0321298 0)
(0.0450404 0.0355897 0)
(0.0484939 0.0393886 0)
(0.0520278 0.0435459 0)
(0.0556304 0.048081 0)
(0.0592865 0.0530128 0)
(0.062977 0.0583596 0)
(0.0666786 0.0641381 0)
(0.0703635 0.0703635 0)
(0.0739988 0.0770483 0)
(0.0775468 0.0842022 0)
(0.0809648 0.0918306 0)
(0.0842047 0.0999345 0)
(0.0872134 0.108509 0)
(0.0899331 0.117542 0)
(0.0923018 0.127014 0)
(0.0942538 0.136897 0)
(0.0957207 0.147153 0)
(0.0966331 0.157733 0)
(0.0969214 0.168576 0)
(0.0965183 0.179608 0)
(0.0953606 0.190745 0)
(0.0933918 0.201887 0)
(0.0905646 0.212924 0)
(0.0868434 0.223734 0)
(0.0822073 0.234187 0)
(0.0766527 0.244146 0)
(0.0701946 0.253468 0)
(0.0628692 0.262011 0)
(0.0547342 0.269639 0)
(0.0458687 0.276221 0)