/*--------------------------------*- C++ -*----------------------------------*\
| =========                 |                                                 |
| \\      /  F ield         | OpenFOAM: The Open Source CFD Toolbox           |
|  \\    /   O peration     | Version:  2406                                  |
|   \\  /    A nd           | Website:  www.openfoam.com                      |
|    \\/     M anipulation  |                                                 |
\*---------------------------------------------------------------------------*/
FoamFile
{
    version     2.0;
    format      ascii;
    arch        "LSB;label=32;scalar=64";
    class       volScalarField;
    location    "1.15";
    object      gradTx;
}
// * * * * * * * * * * * * * * * * * * * * * * * * * * * * * * * * * * * * * //

dimensions      [0 -1 0 1 0 0 0];

internalField   nonuniform List<scalar> 
2500
(
0.00306412
0.00917287
0.0152424
0.0212537
0.0271764
0.0329867
0.038662
0.0441809
0.0495234
0.0546711
0.059607
0.0643159
0.0687839
0.0729989
0.0769499
0.0806273
0.0840225
0.0871277
0.089936
0.0924407
0.0946355
0.0965141
0.09807
0.0992966
0.100187
0.100734
0.100929
0.100764
0.100232
0.0993241
0.098032
0.0963486
0.0942673
0.0917831
0.0888926
0.0855944
0.0818898
0.0777831
0.0732817
0.0683967
0.0631432
0.05754
0.05161
0.0453803
0.0388813
0.0321472
0.025215
0.0181244
0.0109177
0.00364549
0.00309065
0.00925339
0.0153775
0.0214437
0.0274221
0.0332893
0.0390229
0.0446017
0.0500057
0.0552167
0.0602179
0.064994
0.0695312
0.0738171
0.0778409
0.0815925
0.0850632
0.088245
0.0911303
0.0937122
0.0959836
0.0979377
0.0995673
0.100865
0.101823
0.102433
0.102686
0.102574
0.102086
0.101214
0.0999492
0.0982824
0.0962068
0.0937161
0.0908064
0.0874756
0.0837246
0.0795572
0.0749809
0.0700067
0.06465
0.0589301
0.0528706
0.0464994
0.0398484
0.032953
0.0258518
0.0185845
0.0111876
0.00373048
0.00314464
0.00941539
0.0156481
0.0218243
0.0279146
0.033896
0.0397465
0.0454452
0.0509727
0.0563109
0.061443
0.0663539
0.0710298
0.0754583
0.0796281
0.0835289
0.0871514
0.090487
0.0935272
0.0962642
0.0986899
0.100796
0.102574
0.104015
0.10511
0.105847
0.106218
0.10621
0.105813
0.105014
0.103804
0.102171
0.100108
0.0976045
0.0946567
0.091261
0.087417
0.0831281
0.0784014
0.0732481
0.0676839
0.0617293
0.0554092
0.0487535
0.0417962
0.0345759
0.0271347
0.0195164
0.011752
0.0039178
0.0032258
0.00965916
0.0160556
0.0223976
0.0286565
0.03481
0.0408368
0.0467165
0.0524301
0.0579601
0.0632898
0.0684044
0.0732899
0.0779337
0.0823243
0.0864507
0.0903029
0.0938713
0.0971462
0.100118
0.102778
0.105115
0.107118
0.108777
0.110079
0.111011
0.11156
0.111712
0.111453
0.110767
0.109641
0.108062
0.106018
0.103497
0.100493
0.0970004
0.0930168
0.0885448
0.083591
0.0781668
0.0722886
0.0659784
0.0592632
0.0521757
0.0447535
0.037039
0.0290791
0.0209223
0.0126023
0.00420199
0.00333458
0.00998595
0.0166021
0.0231665
0.0296516
0.0360361
0.0422994
0.0484222
0.054386
0.0601737
0.0657692
0.0711577
0.0763254
0.0812593
0.0859474
0.090378
0.0945402
0.0984229
0.102015
0.105305
0.108281
0.11093
0.11324
0.115194
0.116778
0.117975
0.118768
0.119138
0.119067
0.118536
0.117527
0.116023
0.114008
0.111467
0.108389
0.104767
0.100597
0.0958797
0.0906204
0.084831
0.078529
0.0717382
0.0644884
0.0568161
0.0487636
0.0403787
0.0317145
0.0228257
0.0137528
0.00458676
0.00347151
0.0103974
0.01729
0.0241346
0.0309047
0.0375803
0.0441419
0.0505713
0.0568507
0.0629639
0.0688953
0.0746301
0.0801547
0.0854559
0.0905209
0.0953374
0.0998929
0.104175
0.10817
0.111865
0.115244
0.118292
0.120991
0.123323
0.125269
0.126805
0.127911
0.128562
0.128735
0.128406
0.127551
0.126147
0.124172
0.12161
0.118443
0.114662
0.110258
0.105231
0.0995852
0.0933331
0.0864929
0.0790908
0.0711603
0.0627426
0.0538859
0.044645
0.0350807
0.0252566
0.0152218
0.00507803
0.00363723
0.0108953
0.0181227
0.0253066
0.0324219
0.0394501
0.0463734
0.0531746
0.0598373
0.0663458
0.0726853
0.0788415
0.0848007
0.0905493
0.0960741
0.101362
0.106398
0.111168
0.115657
0.119848
0.123722
0.12726
0.130439
0.133238
0.135629
0.137586
0.13908
0.140082
0.14056
0.140484
0.139823
0.138548
0.136631
0.134049
0.13078
0.126808
0.122123
0.116722
0.110607
0.10379
0.096292
0.0881411
0.0793754
0.0700419
0.0601961
0.0499015
0.0392287
0.0282521
0.017032
0.00568338
0.00383246
0.0114819
0.0191039
0.0266876
0.0342099
0.0416543
0.0490045
0.056245
0.0633606
0.0703368
0.0771596
0.0838151
0.0902898
0.0965698
0.102641
0.108489
0.114098
0.119451
0.124529
0.129313
0.13378
0.137906
0.141663
0.145022
0.147952
0.150417
0.152383
0.15381
0.154661
0.154897
0.154478
0.153368
0.15153
0.148933
0.145551
0.141361
0.136348
0.130505
0.123834
0.116346
0.108064
0.0990178
0.0892522
0.0788207
0.0677875
0.0562268
0.0442209
0.0318577
0.019211
0.00641207
0.00405802
0.0121596
0.0202376
0.0282835
0.0362767
0.0442026
0.0520472
0.0597966
0.0674376
0.0749567
0.0823411
0.0895774
0.0966523
0.103552
0.110261
0.116764
0.123043
0.129078
0.134849
0.14033
0.145495
0.150314
0.154754
0.158777
0.162345
0.165416
0.167944
0.169883
0.171184
0.171797
0.171676
0.170771
0.169039
0.166439
0.162936
0.158501
0.153113
0.146761
0.139444
0.131173
0.121972
0.111875
0.100933
0.0892071
0.0767723
0.0637152
0.0501325
0.036128
0.0217919
0.00727524
0.00431479
0.0129312
0.0215283
0.0301008
0.0386305
0.0471056
0.0555144
0.0638452
0.0720867
0.0802273
0.088255
0.0961575
0.103922
0.111534
0.118977
0.126235
0.133288
0.140113
0.146685
0.152976
0.158952
0.164579
0.169814
0.174615
0.178933
0.182716
0.185909
0.188453
0.19029
0.191359
0.191598
0.19095
0.189358
0.186772
0.183145
0.178441
0.172632
0.165702
0.157645
0.148473
0.13821
0.126896
0.114586
0.101353
0.0872833
0.0724786
0.0570526
0.0411277
0.0248142
0.00828606
0.0046037
0.0137994
0.0229809
0.0321463
0.0412805
0.0503747
0.05942
0.0684076
0.077328
0.0861717
0.0949284
0.103587
0.112134
0.120556
0.128837
0.136956
0.144894
0.152623
0.160114
0.167335
0.174246
0.180804
0.186961
0.192663
0.197853
0.202467
0.206438
0.209696
0.212167
0.213778
0.214454
0.214123
0.212715
0.210166
0.206419
0.201427
0.195152
0.187573
0.17868
0.168481
0.157004
0.144291
0.130407
0.115435
0.0994759
0.082648
0.0650853
0.0469328
0.0283238
0.00946
0.00492573
0.0147672
0.0246002
0.034427
0.044236
0.0540217
0.0637787
0.073501
0.0831821
0.0928146
0.10239
0.111898
0.121328
0.130664
0.13989
0.148985
0.157925
0.16668
0.175218
0.183499
0.191478
0.199103
0.206319
0.21306
0.219257
0.224834
0.229711
0.233804
0.237022
0.239277
0.240478
0.240536
0.239366
0.236888
0.233032
0.227737
0.220955
0.212656
0.202825
0.191468
0.178612
0.164307
0.148624
0.13166
0.113531
0.0943757
0.0743524
0.0536317
0.0323746
0.0108151
0.00528184
0.0158375
0.0263912
0.0369501
0.0475063
0.0580585
0.068605
0.0791435
0.0896704
0.100181
0.110669
0.121127
0.131543
0.141903
0.152189
0.16238
0.172449
0.182364
0.192085
0.201567
0.210759
0.219601
0.228024
0.235955
0.24331
0.249999
0.255926
0.26099
0.265085
0.268102
0.269931
0.270466
0.269601
0.26724
0.263294
0.257688
0.250361
0.241272
0.230399
0.217744
0.203335
0.187226
0.1695
0.150264
0.129656
0.107838
0.0849944
0.0613268
0.0370287
0.0123722
0.00567299
0.0170131
0.0283589
0.0397226
0.0511008
0.062497
0.0739137
0.0853527
0.0968141
0.108296
0.119796
0.131307
0.142819
0.154319
0.165789
0.177206
0.188539
0.199754
0.210806
0.221644
0.232207
0.242426
0.252224
0.261511
0.27019
0.278157
0.285296
0.291488
0.296607
0.300521
0.303101
0.304216
0.30374
0.301555
0.297551
0.291636
0.283731
0.273783
0.261761
0.247662
0.231513
0.213372
0.193333
0.171521
0.148093
0.123239
0.0971741
0.0701368
0.0423584
0.0141555
0.00610008
0.0182969
0.0305079
0.0427511
0.0550284
0.0673485
0.079719
0.092146
0.104634
0.117186
0.1298
0.142473
0.155198
0.167961
0.180744
0.193524
0.206267
0.218934
0.231476
0.243835
0.255942
0.267717
0.27907
0.289898
0.300089
0.309519
0.318053
0.32555
0.331861
0.336831
0.340305
0.342125
0.342141
0.340207
0.336192
0.32998
0.321473
0.310601
0.297321
0.281623
0.263533
0.243115
0.220471
0.195745
0.169119
0.140812
0.111079
0.0801984
0.0484468
0.016193
0.00656394
0.0196913
0.0328423
0.0460418
0.0592975
0.0726237
0.0860339
0.0995396
0.11315
0.126872
0.140709
0.154659
0.168718
0.182874
0.197109
0.211398
0.225705
0.239988
0.254193
0.268253
0.282091
0.295616
0.308724
0.321298
0.333207
0.344307
0.354442
0.363446
0.371143
0.377352
0.381887
0.384561
0.385194
0.38361
0.379648
0.373165
0.364042
0.352186
0.33754
0.320084
0.29984
0.276876
0.251306
0.223294
0.19305
0.160828
0.126925
0.0916695
0.0553901
0.018517
0.00706529
0.0211985
0.0353661
0.0496002
0.0639151
0.078332
0.0928706
0.107548
0.12238
0.137378
0.152549
0.167897
0.183419
0.199104
0.214936
0.230889
0.246927
0.263001
0.279053
0.295009
0.310781
0.326268
0.341352
0.355897
0.369753
0.382756
0.394724
0.405464
0.41477
0.422429
0.428221
0.431927
0.433329
0.432216
0.428395
0.421688
0.411948
0.399057
0.382938
0.363558
0.340934
0.315136
0.286291
0.254583
0.220253
0.183598
0.144962
0.104733
0.0632996
0.0211648
0.00760469
0.0228203
0.0380821
0.0534306
0.0688874
0.0844812
0.100239
0.116185
0.13234
0.148723
0.165345
0.182215
0.199333
0.216692
0.234275
0.252058
0.27
0.288053
0.306151
0.324212
0.342141
0.359821
0.37712
0.393886
0.409946
0.425111
0.439173
0.451908
0.463077
0.472431
0.479712
0.48466
0.487015
0.486527
0.48296
0.476099
0.46576
0.451796
0.434103
0.412631
0.387388
0.358445
0.325941
0.290083
0.251148
0.209479
0.165479
0.119599
0.072304
0.0241798
0.00818254
0.0245577
0.0409924
0.0575361
0.0742187
0.0910772
0.108146
0.125459
0.143043
0.160922
0.179117
0.197638
0.216492
0.235674
0.255171
0.274956
0.294991
0.315222
0.335578
0.355971
0.376295
0.396421
0.416199
0.435459
0.454005
0.471623
0.488073
0.503097
0.51642
0.527752
0.536791
0.543229
0.546762
0.547088
0.543924
0.537008
0.526114
0.511054
0.491695
0.467961
0.439849
0.407428
0.370847
0.33034
0.286221
0.238887
0.188808
0.136513
0.0825527
0.0276121
0.008799
0.0264115
0.044098
0.0619183
0.0799113
0.0981232
0.116598
0.135377
0.154496
0.173988
0.193878
0.214186
0.234921
0.256083
0.277663
0.299634
0.321958
0.344578
0.36742
0.390388
0.413365
0.436209
0.458755
0.48081
0.502156
0.522548
0.541716
0.559363
0.575172
0.588808
0.599918
0.608143
0.613121
0.614495
0.611923
0.60509
0.593713
0.577561
0.556457
0.530298
0.499058
0.462802
0.421689
0.375979
0.326031
0.272302
0.215337
0.155759
0.0942197
0.0315203
0.00945398
0.0283812
0.0473985
0.0665769
0.0859651
0.10562
0.125595
0.145941
0.166705
0.187926
0.20964
0.231871
0.254637
0.277942
0.301781
0.32613
0.35095
0.376185
0.401754
0.427555
0.453463
0.479321
0.504947
0.530128
0.55462
0.578146
0.6004
0.621046
0.63972
0.656034
0.669581
0.679941
0.686686
0.689394
0.687656
0.681087
0.669344
0.652133
0.629229
0.600486
0.565854
0.525385
0.479247
0.427726
0.371228
0.31028
0.245518
0.17767
0.107508
0.0359728
0.0101471
0.0304659
0.0508922
0.0715095
0.0923774
0.113564
0.135135
0.15715
0.179668
0.202738
0.226404
0.250699
0.27565
0.301266
0.327547
0.354473
0.382008
0.410092
0.438644
0.467556
0.496691
0.525882
0.554929
0.583596
0.611612
0.638669
0.664422
0.688491
0.71046
0.729884
0.746293
0.759197
0.768096
0.772488
0.771884
0.765821
0.753875
0.735682
0.710952
0.679487
0.641198
0.596119
0.544421
0.486417
0.422567
0.353474
0.279878
0.202634
0.122657
0.0410499
0.0108776
0.0326632
0.0545755
0.0767112
0.0991422
0.121949
0.145209
0.168996
0.193378
0.218416
0.244164
0.270668
0.29796
0.326059
0.354971
0.384681
0.415155
0.446337
0.478141
0.510456
0.543136
0.576002
0.608836
0.641381
0.673338
0.704366
0.734077
0.762044
0.787797
0.810825
0.830588
0.846518
0.858029
0.86453
0.865437
0.86019
0.848273
0.829231
0.802692
0.76839
0.726186
0.676084
0.618252
0.553027
0.480927
0.402644
0.319037
0.231109
0.139946
0.0468465
0.0116444
0.03497
0.0584431
0.0821748
0.10625
0.130764
0.155807
0.181465
0.207819
0.234945
0.262908
0.291763
0.321555
0.352312
0.384048
0.416755
0.450404
0.484939
0.520278
0.556304
0.592865
0.62977
0.666786
0.703635
0.739988
0.775468
0.809648
0.842047
0.872134
0.899331
0.923018
0.942538
0.957207
0.966331
0.969214
0.965183
0.953606
0.933918
0.905646
0.868434
0.822073
0.766527
0.701946
0.628692
0.547342
0.458687
0.363726
0.263637
0.159709
0.0534747
0.0124461
0.0373818
0.0624874
0.0878899
0.113689
0.139993
0.166908
0.194536
0.222971
0.252302
0.282609
0.31396
0.346411
0.380003
0.414758
0.450679
0.487743
0.525899
0.565065
0.605125
0.645922
0.687254
0.728875
0.770483
0.811726
0.852189
0.8914
0.928825
0.963869
0.995879
1.02414
1.04791
1.06639
1.07875
1.08419
1.08188
1.07106
1.05102
1.02117
0.981028
0.930302
0.868887
0.796908
0.714741
0.623025
0.522662
0.414813
0.300863
0.182343
0.0610686
0.0132806
0.0398927
0.0666989
0.0938431
0.12144
0.149615
0.17849
0.208181
0.238801
0.270453
0.303231
0.33722
0.372488
0.409092
0.447064
0.486419
0.527142
0.569191
0.612488
0.656918
0.702321
0.748489
0.795162
0.842022
0.888687
0.93471
0.979572
1.02268
1.06338
1.10093
1.13453
1.16331
1.18636
1.20271
1.2114
1.21145
1.20192
1.18196
1.15078
1.10778
1.05253
0.984837
0.904781
0.812739
0.709413
0.595829
0.473333
0.343555
0.208322
0.0697888
0.0141456
0.0424956
0.0710656
0.100017
0.129483
0.159604
0.19052
0.222366
0.25527
0.289353
0.324727
0.361491
0.399733
0.439522
0.480908
0.523917
0.568547
0.614765
0.662503
0.711648
0.762042
0.813474
0.865674
0.918306
0.970967
1.02317
1.07437
1.12389
1.17103
1.21495
1.25474
1.28942
1.31794
1.33917
1.35197
1.35517
1.34764
1.32831
1.2962
1.25052
1.19066
1.11632
1.02749
0.924535
0.808214
0.679691
0.540527
0.392644
0.238221
0.0798294
0.0150381
0.0451818
0.0755731
0.106393
0.13779
0.169927
0.202961
0.237045
0.272327
0.308946
0.347034
0.386708
0.428073
0.471218
0.51621
0.56309
0.611873
0.66254
0.715031
0.769245
0.825027
0.882167
0.940388
0.999345
1.05861
1.11767
1.17593
1.23268
1.28712
1.33833
1.3853
1.42691
1.46194
1.48911
1.50706
1.51441
1.50978
1.49184
1.45938
1.41133
1.34691
1.2656
1.1673
1.05232
0.921471
0.77606
0.617898
0.449252
0.272737
0.0914267
0.0159549
0.0479412
0.0802042
0.112945
0.146333
0.180548
0.215768
0.252167
0.289913
0.329166
0.370077
0.412786
0.457418
0.504082
0.552866
0.60383
0.657009
0.712399
0.769958
0.829597
0.89117
0.954473
1.01923
1.08509
1.1516
1.21824
1.28436
1.34921
1.4119
1.47144
1.5267
1.57641
1.61919
1.65356
1.67793
1.69064
1.69005
1.67451
1.64248
1.59262
1.52382
1.43534
1.3269
1.19872
1.05164
0.887127
0.70727
0.514756
0.312722
0.10487
0.0168921
0.0507621
0.0849395
0.119647
0.155073
0.19142
0.228887
0.267669
0.307956
0.34993
0.393766
0.439625
0.487658
0.537994
0.590746
0.645999
0.703807
0.764191
0.827127
0.892544
0.960315
1.03024
1.10206
1.17542
1.24986
1.32483
1.39967
1.47355
1.54555
1.61457
1.67936
1.73852
1.79048
1.83353
1.86582
1.8854
1.89028
1.87845
1.84797
1.7971
1.72435
1.62866
1.50947
1.36688
1.2017
1.01556
0.810884
0.590845
0.359231
0.120517
0.0178451
0.0536313
0.0897569
0.126467
0.163972
0.202495
0.242259
0.283481
0.326375
0.371147
0.417995
0.467109
0.518662
0.572812
0.629696
0.689428
0.752087
0.817722
0.886335
0.957879
1.03225
1.10926
1.18868
1.27014
1.35321
1.43731
1.52176
1.6057
1.68814
1.76791
1.84363
1.91376
1.97653
2.03
2.07202
2.10031
2.11246
2.10603
2.07859
2.02788
1.95194
1.84922
1.71882
1.56059
1.37528
1.16465
0.931504
0.679618
0.413573
0.138813
0.0188092
0.056534
0.0946316
0.133371
0.172983
0.213716
0.255815
0.299522
0.345076
0.392709
0.442646
0.495102
0.55028
0.608368
0.669532
0.733916
0.801632
0.87276
0.947333
1.02534
1.10669
1.19125
1.27879
1.36897
1.46138
1.55543
1.65043
1.74551
1.83962
1.93151
2.01971
2.10251
2.17797
2.24388
2.29779
2.337
2.35867
2.3598
2.33738
2.28851
2.21055
2.10137
1.95951
1.78446
1.57681
1.33844
1.07257
0.783698
0.477393
0.160318
0.019779
0.0594541
0.0995366
0.140319
0.182056
0.22502
0.26948
0.315704
0.363957
0.414498
0.467582
0.523452
0.582342
0.644472
0.710042
0.77923
0.852186
0.929024
1.00982
1.09459
1.1833
1.27584
1.37202
1.47153
1.57398
1.67882
1.78535
1.89269
1.99976
2.10526
2.20763
2.30502
2.39529
2.47597
2.54428
2.59711
2.63106
2.64251
2.62772
2.58298
2.50482
2.39024
2.23704
2.04413
1.81181
1.54202
1.23842
0.9064
0.55277
0.185742
0.0207487
0.0623741
0.104442
0.147271
0.191138
0.236339
0.283172
0.33193
0.382904
0.436385
0.492654
0.551988
0.614655
0.680908
0.750985
0.825104
0.903454
0.986193
1.07344
1.16526
1.26167
1.36259
1.4679
1.57733
1.69053
1.80698
1.92601
2.04677
2.16816
2.28885
2.4072
2.52127
2.62873
2.72686
2.81253
2.88217
2.93179
2.95704
2.95329
2.91583
2.84008
2.7219
2.55803
2.34651
2.08712
1.78174
1.43453
1.05194
0.642362
0.215991
0.021712
0.0652754
0.109318
0.154181
0.200169
0.247602
0.296803
0.348094
0.401795
0.458225
0.517698
0.580525
0.647008
0.717439
0.792096
0.871239
0.955103
1.0439
1.13779
1.2369
1.34129
1.45098
1.56586
1.68576
1.81037
1.93924
2.07175
2.20708
2.34417
2.4817
2.61798
2.75099
2.87827
2.99686
3.10329
3.19352
3.26293
3.30631
3.31803
3.29209
3.22249
3.10357
2.93055
2.70018
2.41136
2.06571
1.66792
1.22574
0.749589
0.252235
0.0226625
0.0681383
0.114129
0.161003
0.209088
0.25873
0.31028
0.364086
0.420499
0.479868
0.542541
0.608863
0.679174
0.753807
0.833082
0.917306
1.00677
1.10172
1.2024
1.30899
1.42163
1.54037
1.66523
1.79608
1.93271
2.07476
2.22168
2.37272
2.52691
2.68294
2.83917
2.99354
3.14348
3.28587
3.41694
3.53219
3.62631
3.69321
3.72603
3.71728
3.6591
3.54379
3.36444
3.11584
2.79546
2.40434
1.94766
1.43482
0.878887
0.295988
0.0235932
0.070942
0.118843
0.167688
0.21783
0.269643
0.323502
0.379787
0.438876
0.501151
0.566994
0.636786
0.710907
0.789731
0.873626
0.962947
1.05804
1.15922
1.26678
1.38098
1.50203
1.63008
1.76522
1.90745
2.05663
2.21253
2.37471
2.54255
2.71516
2.89136
3.06958
3.2478
3.42344
3.59328
3.75331
3.89863
4.02332
4.12031
4.18141
4.19731
4.15787
4.05263
3.87169
3.60691
3.25341
2.81108
2.28556
1.68836
1.03604
0.349227
0.0244972
0.0736655
0.123422
0.174184
0.226328
0.280256
0.33637
0.395075
0.456783
0.521907
0.590864
0.664071
0.74195
0.824918
0.913392
1.00778
1.10848
1.21589
1.33035
1.45222
1.58179
1.7193
1.86496
2.01887
2.18103
2.35135
2.52953
2.71513
2.90741
3.10536
3.30756
3.51213
3.7166
3.91774
4.11146
4.29258
4.45461
4.58961
4.68794
4.73824
4.72758
4.6419
4.46703
4.19042
3.80339
3.30368
2.69721
1.99838
1.22862
0.414525
0.0253673
0.0762871
0.12783
0.180439
0.234516
0.290485
0.348777
0.409826
0.474073
0.541963
0.613949
0.690485
0.772034
0.85906
0.952028
1.0514
1.15765
1.27121
1.39254
1.52205
1.66015
1.80718
1.96346
2.12924
2.30467
2.48982
2.6846
2.88874
3.10177
3.32288
3.55093
3.78428
4.02067
4.25708
4.48949
4.71264
4.91972
5.10202
5.24858
5.34587
5.37762
5.32517
5.16845
4.88817
4.46935
3.90573
3.20333
2.38077
1.46647
0.495209
0.0261964
0.0787852
0.132032
0.186403
0.242323
0.300243
0.360618
0.423912
0.490595
0.561143
0.636044
0.71579
0.800886
0.891841
0.989171
1.0934
1.20505
1.32464
1.45271
1.58976
1.73628
1.89277
2.05965
2.23734
2.42617
2.62638
2.83813
3.06141
3.296
3.54146
3.79697
4.06127
4.33251
4.60804
4.88421
5.15596
5.41652
5.65678
5.86476
6.02486
6.11727
6.11766
5.99788
5.72837
5.28345
4.64936
3.83177
2.85634
1.76224
0.595496
0.0269773
0.0811384
0.13599
0.192022
0.249682
0.309444
0.37179
0.437209
0.5062
0.579271
0.656943
0.739748
0.828228
0.922939
1.02445
1.13334
1.25019
1.37562
1.51021
1.65458
1.80934
1.97508
2.15241
2.34187
2.54401
2.75931
2.98815
3.23085
3.48753
3.75815
4.04234
4.33938
4.648
4.96618
5.29093
5.61785
5.94068
6.25058
6.5352
6.77754
6.95446
7.03538
6.98158
6.74796
6.29016
5.57933
4.62025
3.45208
2.13163
0.720488
0.0277032
0.0833259
0.13967
0.197248
0.256527
0.318006
0.382189
0.449592
0.520741
0.596175
0.676446
0.762122
0.853786
0.952039
1.0575
1.1708
1.2926
1.42356
1.56438
1.71576
1.87842
2.0531
2.24053
2.44146
2.65662
2.88674
3.13251
3.39456
3.67345
3.96958
4.28317
4.61415
4.96203
5.32572
5.70323
6.09134
6.485
6.87654
7.25445
7.60171
7.8933
8.09299
8.14971
7.99583
7.5534
6.76042
5.62008
4.20162
2.5927
0.875779
0.0283674
0.0853277
0.143039
0.202031
0.262794
0.325847
0.391717
0.460943
0.534077
0.611687
0.694355
0.782683
0.877293
0.978828
1.08795
1.20536
1.33176
1.46791
1.61457
1.77254
1.94265
2.12578
2.32281
2.53468
2.76233
3.00674
3.26892
3.54987
3.85059
4.17202
4.51505
4.88039
5.26852
5.67952
6.11282
6.56692
7.03879
7.52312
8.01097
8.48775
8.92979
9.2988
9.53316
9.53638
9.17076
8.29182
6.90033
5.14313
3.16282
1.06617
0.0289638
0.0871251
0.146063
0.206327
0.268424
0.332893
0.400281
0.47115
0.546075
0.625649
0.710484
0.801214
0.898495
1.00301
1.11547
1.23662
1.36723
1.50812
1.66013
1.82416
2.00116
2.1921
2.39805
2.62011
2.85946
3.11732
3.39503
3.69397
4.01562
4.3615
4.73321
5.13236
5.56055
6.01923
6.50964
7.03248
7.58759
8.17329
8.7853
9.41484
10.0451
10.6446
11.1525
11.45
11.305
10.3388
8.54863
6.30931
3.85029
1.29276
0.0294866
0.088701
0.148715
0.210094
0.273361
0.339073
0.407795
0.480108
0.55661
0.637915
0.724662
0.817512
0.917155
1.02431
1.13973
1.2642
1.39855
1.54367
1.70046
1.86992
2.05309
2.25108
2.46509
2.69639
2.94637
3.21653
3.5085
3.82406
4.16514
4.53389
4.93263
5.36393
5.83057
6.33558
6.88215
7.47364
8.11337
8.80438
9.54892
10.3475
11.1972
12.0872
12.9873
13.8102
14.2644
13.2126
10.6485
7.69678
4.63734
1.5478
0.0299309
0.0900401
0.150968
0.213294
0.277557
0.344325
0.414182
0.487726
0.565571
0.648353
0.736732
0.831394
0.933058
1.04247
1.16043
1.28775
1.42533
1.57408
1.73501
1.90917
2.09769
2.3018
2.52283
2.76221
3.02153
3.30251
3.60709
3.9374
4.29585
4.68513
5.10832
5.5689
6.07086
6.61879
7.21797
7.87453
8.59552
9.38923
10.2654
11.2357
12.3151
13.5252
14.9042
16.5436
18.7333
17.6017
13.1383
9.19361
5.45555
1.80941
0.0302925
0.0911297
0.152801
0.215897
0.280967
0.348596
0.419377
0.493922
0.572861
0.656848
0.746559
0.842702
0.946018
1.05728
1.17732
1.30698
1.4472
1.59895
1.76328
1.94132
2.13426
2.34345
2.5703
2.81641
3.08351
3.37356
3.68873
4.03149
4.40465
4.81141
5.25552
5.7413
6.27387
6.85927
7.50475
8.21901
9.01271
9.89903
10.8946
12.0211
13.3083
14.7997
16.5657
18.731
21.5273
20.3257
15.1119
10.4854
6.18292
2.04418
0.0305677
0.0919598
0.154195
0.217874
0.283558
0.351839
0.423323
0.49863
0.578402
0.663306
0.754032
0.851304
0.95588
1.06856
1.19018
1.32164
1.46388
1.61793
1.78487
1.96588
2.16223
2.37532
2.60668
2.85799
3.13113
3.42823
3.75166
4.10415
4.48884
4.90937
5.37001
5.87581
6.43282
7.04829
7.7311
8.49216
9.34507
10.307
11.3999
12.6526
14.1034
15.8053
17.8327
20.2917
23.323
22.0651
16.5006
11.4547
6.74765
2.22906
0.0307526
0.0925218
0.155139
0.219206
0.285302
0.354022
0.425978
0.501798
0.582132
0.667653
0.759063
0.857096
0.962523
1.07615
1.19885
1.33152
1.47513
1.63073
1.79944
1.98247
2.18114
2.39689
2.6313
2.88616
3.16343
3.46534
3.79443
4.15361
4.54624
4.97627
5.44837
5.96808
6.54211
7.17862
7.88763
8.68162
9.57627
10.5914
11.7526
13.0925
14.6536
16.4908
18.6733
21.2846
24.4116
23.1143
17.373
12.087
7.12497
2.354
0.0308376
0.0927941
0.15561
0.219875
0.286178
0.355119
0.427312
0.50339
0.584005
0.669837
0.761592
0.860008
0.965863
1.07998
1.20321
1.33649
1.4808
1.63718
1.80678
1.99083
2.19067
2.40776
2.64373
2.90038
3.17975
3.4841
3.81607
4.17865
4.57533
5.01022
5.48817
6.01501
6.59779
7.24511
7.96763
8.77862
9.69481
10.7374
11.9335
13.3177
14.9339
16.8364
19.0903
21.7662
24.9282
23.6107
17.7927
12.3968
7.31236
2.41645
)
;

boundaryField
{
    walls
    {
        type            calculated;
        value           nonuniform List<scalar> 
200
(
0.0308376
0.0927941
0.15561
0.219875
0.286178
0.355119
0.427312
0.50339
0.584005
0.669837
0.761592
0.860008
0.965863
1.07998
1.20321
1.33649
1.4808
1.63718
1.80678
1.99083
2.19067
2.40776
2.64373
2.90038
3.17975
3.4841
3.81607
4.17865
4.57533
5.01022
5.48817
6.01501
6.59779
7.24511
7.96763
8.77862
9.69481
10.7374
11.9335
13.3177
14.9339
16.8364
19.0903
21.7662
24.9282
23.6107
17.7927
12.3968
7.31236
2.41645
0
0
0
0
0
0
0
0
0
0
0
0
0
0
0
0
0
0
0
0
0
0
0
0
0
0
0
0
0
0
0
0
0
0
0
0
0
0
0
0
0
0
0
0
0
0
0
0
0
0
0
0
0
0
0
0
0
0
0
0
0
0
0
0
0
0
0
0
0
0
0
0
0
0
0
0
0
0
0
0
0
0
0
0
0
0
0
0
0
0
0
0
0
0
0
0
0
0
0
0
0.00306412
0.00917287
0.0152424
0.0212537
0.0271764
0.0329867
0.038662
0.0441809
0.0495234
0.0546711
0.059607
0.0643159
0.0687839
0.0729989
0.0769499
0.0806273
0.0840225
0.0871277
0.089936
0.0924407
0.0946355
0.0965141
0.09807
0.0992966
0.100187
0.100734
0.100929
0.100764
0.100232
0.0993241
0.098032
0.0963486
0.0942673
0.0917831
0.0888926
0.0855944
0.0818898
0.0777831
0.0732817
0.0683967
0.0631432
0.05754
0.05161
0.0453803
0.0388813
0.0321472
0.025215
0.0181244
0.0109177
0.00364549
)
;
    }
    frontAndBack
    {
        type            empty;
    }
}


// ************************************************************************* //
