/*--------------------------------*- C++ -*----------------------------------*\
| =========                 |                                                 |
| \\      /  F ield         | OpenFOAM: The Open Source CFD Toolbox           |
|  \\    /   O peration     | Version:  2406                                  |
|   \\  /    A nd           | Website:  www.openfoam.com                      |
|    \\/     M anipulation  |                                                 |
\*---------------------------------------------------------------------------*/
FoamFile
{
    version     2.0;
    format      ascii;
    arch        "LSB;label=32;scalar=64";
    class       volScalarField;
    location    "1.15";
    object      T;
}
// * * * * * * * * * * * * * * * * * * * * * * * * * * * * * * * * * * * * * //

dimensions      [0 0 0 1 0 0 0];

internalField   nonuniform List<scalar> 
2500
(
0.193687
0.19381
0.194054
0.19442
0.194904
0.195507
0.196224
0.197053
0.197991
0.199034
0.200178
0.201418
0.202751
0.20417
0.20567
0.207248
0.208896
0.210609
0.212381
0.214206
0.216078
0.217991
0.219939
0.221914
0.223911
0.225922
0.22794
0.229959
0.231971
0.233968
0.235944
0.237889
0.239798
0.24166
0.243469
0.245216
0.246893
0.248491
0.250004
0.251423
0.25274
0.253948
0.255041
0.256013
0.256857
0.257568
0.258143
0.258577
0.258868
0.259013
0.19381
0.193933
0.19418
0.194549
0.195038
0.195645
0.196369
0.197206
0.198153
0.199207
0.200362
0.201615
0.202962
0.204397
0.205914
0.20751
0.209178
0.210913
0.212708
0.214558
0.216456
0.218397
0.220374
0.22238
0.224409
0.226453
0.228506
0.23056
0.232609
0.234644
0.236657
0.238642
0.240589
0.24249
0.244337
0.246122
0.247836
0.249471
0.251019
0.252471
0.253819
0.255057
0.256176
0.257171
0.258036
0.258765
0.259354
0.259799
0.260098
0.260247
0.194054
0.19418
0.194431
0.194806
0.195304
0.195922
0.19666
0.197512
0.198477
0.199551
0.20073
0.202009
0.203384
0.20485
0.206402
0.208035
0.209744
0.211521
0.213363
0.215262
0.217214
0.21921
0.221245
0.223313
0.225406
0.227517
0.22964
0.231766
0.233888
0.235999
0.238089
0.240151
0.242176
0.244155
0.24608
0.247941
0.24973
0.251438
0.253055
0.254574
0.255985
0.257281
0.258455
0.259498
0.260405
0.26117
0.261788
0.262255
0.262568
0.262725
0.19442
0.194549
0.194806
0.195191
0.195702
0.196337
0.197094
0.197971
0.198963
0.200068
0.201281
0.202599
0.204017
0.205531
0.207135
0.208824
0.210593
0.212436
0.214348
0.216322
0.218352
0.220433
0.222557
0.224718
0.226908
0.229121
0.231349
0.233583
0.235817
0.238041
0.240248
0.242427
0.24457
0.246668
0.24871
0.250687
0.25259
0.254408
0.256132
0.257752
0.259259
0.260643
0.261898
0.263014
0.263985
0.264804
0.265466
0.265967
0.266303
0.266471
0.194904
0.195038
0.195304
0.195702
0.19623
0.196888
0.197672
0.19858
0.199609
0.200755
0.202016
0.203386
0.204862
0.206439
0.208112
0.209877
0.211728
0.213659
0.215664
0.217739
0.219877
0.22207
0.224314
0.2266
0.228922
0.231271
0.233641
0.236022
0.238406
0.240784
0.243148
0.245486
0.247788
0.250046
0.252247
0.254381
0.256438
0.258405
0.260273
0.26203
0.263666
0.265171
0.266536
0.267751
0.268808
0.269701
0.270424
0.27097
0.271337
0.27152
0.195507
0.195645
0.195922
0.196337
0.196888
0.197573
0.198391
0.199339
0.200414
0.201613
0.202932
0.204369
0.205918
0.207575
0.209336
0.211196
0.213149
0.215192
0.217316
0.219518
0.221791
0.224128
0.226523
0.228968
0.231456
0.233978
0.236528
0.239095
0.24167
0.244244
0.246807
0.249346
0.251852
0.254313
0.256717
0.259051
0.261303
0.263461
0.265513
0.267445
0.269246
0.270904
0.272409
0.273751
0.274919
0.275906
0.276705
0.277309
0.277715
0.277918
0.196224
0.196369
0.19666
0.197094
0.197672
0.198391
0.19925
0.200246
0.201377
0.20264
0.204031
0.205547
0.207184
0.208939
0.210806
0.212782
0.214861
0.217038
0.219308
0.221664
0.224101
0.226613
0.229192
0.231831
0.234521
0.237256
0.240025
0.242819
0.245628
0.248441
0.251247
0.254034
0.256789
0.259499
0.262151
0.264731
0.267224
0.269616
0.271892
0.27404
0.276044
0.277892
0.27957
0.281067
0.282371
0.283474
0.284367
0.285044
0.285498
0.285725
0.197053
0.197206
0.197512
0.197971
0.19858
0.199339
0.200246
0.201299
0.202496
0.203834
0.205309
0.20692
0.208662
0.210531
0.212525
0.214637
0.216864
0.219201
0.221642
0.224182
0.226815
0.229533
0.232331
0.2352
0.238132
0.241118
0.244149
0.247213
0.250301
0.2534
0.256497
0.259579
0.262632
0.26564
0.268589
0.271462
0.274243
0.276916
0.279464
0.281869
0.284117
0.286192
0.288078
0.289762
0.291231
0.292474
0.29348
0.294242
0.294754
0.295011
0.197991
0.198153
0.198477
0.198963
0.199609
0.200414
0.201377
0.202496
0.203769
0.205193
0.206767
0.208487
0.21035
0.212353
0.214492
0.216763
0.219163
0.221685
0.224326
0.227079
0.229939
0.232899
0.235952
0.239089
0.242303
0.245583
0.248919
0.252301
0.255715
0.259148
0.262587
0.266015
0.269417
0.272777
0.276075
0.279294
0.282415
0.285419
0.288285
0.290996
0.293532
0.295875
0.298007
0.299913
0.301576
0.302983
0.304124
0.304989
0.305569
0.30586
0.199034
0.199207
0.199551
0.200068
0.200755
0.201613
0.20264
0.203834
0.205193
0.206717
0.208402
0.210247
0.212249
0.214404
0.21671
0.219163
0.221759
0.224495
0.227364
0.230362
0.233483
0.23672
0.240066
0.243513
0.247051
0.25067
0.254359
0.258106
0.261898
0.265718
0.269552
0.273382
0.27719
0.280956
0.284661
0.288282
0.291798
0.295187
0.298426
0.301493
0.304365
0.307022
0.309441
0.311605
0.313495
0.315096
0.316394
0.317378
0.31804
0.318371
0.200178
0.200362
0.20073
0.201281
0.202016
0.202932
0.204031
0.205309
0.206767
0.208402
0.210214
0.2122
0.214357
0.216685
0.21918
0.221838
0.224658
0.227634
0.230763
0.234039
0.237456
0.241009
0.244688
0.248487
0.252395
0.256401
0.260493
0.264659
0.268881
0.273145
0.277432
0.281723
0.285997
0.290232
0.294404
0.298489
0.302461
0.306295
0.309964
0.313442
0.316703
0.319722
0.322475
0.324939
0.327092
0.328918
0.330398
0.331521
0.332276
0.332654
0.201418
0.201615
0.202009
0.202599
0.203386
0.204369
0.205547
0.20692
0.208487
0.210247
0.2122
0.214343
0.216675
0.219196
0.221902
0.224791
0.227861
0.231108
0.234529
0.238117
0.241869
0.245776
0.249833
0.254029
0.258355
0.262799
0.267348
0.271988
0.276701
0.281469
0.286272
0.291088
0.295893
0.300662
0.305369
0.309984
0.314478
0.318822
0.322984
0.326935
0.330643
0.334079
0.337215
0.340024
0.342482
0.344566
0.346257
0.34754
0.348402
0.348835
0.202751
0.202962
0.203384
0.204017
0.204862
0.205918
0.207184
0.208662
0.21035
0.212249
0.214357
0.216675
0.219202
0.221937
0.224879
0.228025
0.231374
0.234923
0.238668
0.242606
0.246731
0.251036
0.255515
0.260157
0.264953
0.26989
0.274953
0.280127
0.285393
0.29073
0.296117
0.301528
0.306935
0.312312
0.317625
0.322843
0.327933
0.332858
0.337583
0.342074
0.346293
0.350207
0.353782
0.356987
0.359793
0.362173
0.364106
0.365573
0.366559
0.367054
0.20417
0.204397
0.20485
0.205531
0.206439
0.207575
0.208939
0.210531
0.212353
0.214404
0.216685
0.219196
0.221937
0.224909
0.22811
0.23154
0.235198
0.239082
0.243188
0.247514
0.252054
0.256802
0.261751
0.266891
0.272212
0.277699
0.283338
0.289111
0.294997
0.300975
0.307018
0.313099
0.319187
0.325249
0.331249
0.337151
0.342914
0.3485
0.353866
0.35897
0.363772
0.368231
0.372307
0.375964
0.379168
0.381888
0.384098
0.385775
0.386903
0.387469
0.20567
0.205914
0.206402
0.207135
0.208112
0.209336
0.210806
0.212525
0.214492
0.21671
0.21918
0.221902
0.224879
0.22811
0.231597
0.23534
0.239338
0.24359
0.248095
0.252849
0.257849
0.263087
0.268557
0.27425
0.280153
0.286254
0.292534
0.298976
0.305556
0.31225
0.319029
0.325862
0.332714
0.339548
0.346323
0.352996
0.359522
0.365854
0.371946
0.377747
0.383211
0.388289
0.392935
0.397107
0.400765
0.403872
0.406398
0.408315
0.409606
0.410253
0.207248
0.20751
0.208035
0.208824
0.209877
0.211196
0.212782
0.214637
0.216763
0.219163
0.221838
0.224791
0.228025
0.23154
0.23534
0.239425
0.243796
0.248453
0.253395
0.258621
0.264125
0.269904
0.27595
0.282253
0.288802
0.295581
0.302574
0.309759
0.317112
0.324605
0.332206
0.33988
0.347589
0.355288
0.362933
0.370474
0.377859
0.385036
0.391947
0.398537
0.40475
0.410531
0.415825
0.420583
0.424757
0.428305
0.43119
0.433382
0.434857
0.435598
0.208896
0.209178
0.209744
0.210593
0.211728
0.213149
0.214861
0.216864
0.219163
0.221759
0.224658
0.227861
0.231374
0.235198
0.239338
0.243796
0.248573
0.253673
0.259094
0.264835
0.270894
0.277266
0.283945
0.29092
0.29818
0.30571
0.313491
0.321499
0.329709
0.33809
0.346606
0.355219
0.363883
0.372552
0.381172
0.389688
0.39804
0.406166
0.414002
0.421483
0.428544
0.435121
0.44115
0.446572
0.451333
0.455382
0.458677
0.461181
0.462866
0.463713
0.210609
0.210913
0.211521
0.212436
0.213659
0.215192
0.217038
0.219201
0.221685
0.224495
0.227634
0.231108
0.234923
0.239082
0.24359
0.248453
0.253673
0.259253
0.265195
0.271499
0.278163
0.285184
0.292556
0.300269
0.308312
0.316667
0.325316
0.334234
0.343392
0.352757
0.36229
0.371946
0.381676
0.391426
0.401137
0.410745
0.420181
0.429375
0.438253
0.446739
0.454758
0.462235
0.469096
0.475272
0.480699
0.485318
0.489078
0.491937
0.493862
0.494829
0.212381
0.212708
0.213363
0.214348
0.215664
0.217316
0.219308
0.221642
0.224326
0.227364
0.230763
0.234529
0.238668
0.243188
0.248095
0.253395
0.259094
0.265195
0.271702
0.278618
0.285941
0.29367
0.301798
0.310318
0.319216
0.328478
0.338081
0.348001
0.358205
0.368658
0.379315
0.390129
0.401044
0.412
0.422928
0.433757
0.444408
0.454801
0.46485
0.474469
0.483569
0.492063
0.499866
0.506897
0.51308
0.518346
0.522635
0.525898
0.528096
0.5292
0.214206
0.214558
0.215262
0.216322
0.217739
0.219518
0.221664
0.224182
0.227079
0.230362
0.234039
0.238117
0.242606
0.247514
0.252849
0.258621
0.264835
0.271499
0.278618
0.286196
0.294233
0.30273
0.311682
0.32108
0.330914
0.341167
0.351816
0.362835
0.374191
0.385842
0.397743
0.409839
0.422069
0.434364
0.446648
0.458841
0.470852
0.482589
0.493954
0.504847
0.515166
0.52481
0.533678
0.541677
0.548718
0.554719
0.55961
0.563332
0.56584
0.567101
0.216078
0.216456
0.217214
0.218352
0.219877
0.221791
0.224101
0.226815
0.229939
0.233483
0.237456
0.241869
0.246731
0.252054
0.257849
0.264125
0.270894
0.278163
0.285941
0.294233
0.303043
0.312372
0.322216
0.33257
0.343421
0.354755
0.366547
0.378771
0.391389
0.404359
0.41763
0.431143
0.444828
0.45861
0.472404
0.486116
0.499647
0.51289
0.525733
0.538059
0.549752
0.560693
0.570768
0.579863
0.587877
0.594712
0.600288
0.604533
0.607395
0.608833
0.217991
0.218397
0.21921
0.220433
0.22207
0.224128
0.226613
0.229533
0.232899
0.23672
0.241009
0.245776
0.251036
0.256802
0.263087
0.269904
0.277266
0.285184
0.29367
0.30273
0.312372
0.322598
0.333407
0.344795
0.356751
0.369259
0.382298
0.395836
0.409837
0.424255
0.439033
0.454107
0.469401
0.48483
0.5003
0.515706
0.530933
0.545861
0.56036
0.574299
0.58754
0.599947
0.611385
0.621724
0.630841
0.638626
0.64498
0.649821
0.653086
0.654728
0.219939
0.220374
0.221245
0.222557
0.224314
0.226523
0.229192
0.232331
0.235952
0.240066
0.244688
0.249833
0.255515
0.261751
0.268557
0.27595
0.283945
0.292556
0.301798
0.311682
0.322216
0.333407
0.345256
0.357761
0.370912
0.384694
0.399086
0.414057
0.429568
0.445569
0.462001
0.478793
0.495862
0.513114
0.530443
0.547731
0.564851
0.581662
0.59802
0.61377
0.628755
0.642817
0.655799
0.667547
0.67792
0.686785
0.694026
0.699546
0.70327
0.705144
0.221914
0.22238
0.223313
0.224718
0.2266
0.228968
0.231831
0.2352
0.239089
0.243513
0.248487
0.254029
0.260157
0.266891
0.27425
0.282253
0.29092
0.300269
0.310318
0.32108
0.33257
0.344795
0.357761
0.371466
0.385906
0.401066
0.416925
0.433452
0.450607
0.468337
0.48658
0.505258
0.524281
0.543546
0.562935
0.582315
0.601542
0.620459
0.638899
0.656685
0.673636
0.689568
0.704297
0.717646
0.729445
0.739539
0.747792
0.754088
0.758338
0.760477
0.223911
0.224409
0.225406
0.226908
0.228922
0.231456
0.234521
0.238132
0.242303
0.247051
0.252395
0.258355
0.264953
0.272212
0.280153
0.288802
0.29818
0.308312
0.319216
0.330914
0.343421
0.356751
0.370912
0.385906
0.401731
0.418375
0.435818
0.454031
0.472971
0.492586
0.512807
0.533552
0.554723
0.576207
0.597873
0.619575
0.641148
0.662417
0.683189
0.703264
0.72243
0.740476
0.757186
0.772352
0.785775
0.797273
0.806682
0.813865
0.818716
0.821159
0.225922
0.226453
0.227517
0.229121
0.231271
0.233978
0.237256
0.241118
0.245583
0.25067
0.256401
0.262799
0.26989
0.277699
0.286254
0.295581
0.30571
0.316667
0.328478
0.341167
0.354755
0.369259
0.384694
0.401066
0.418375
0.436613
0.455763
0.475796
0.496671
0.518332
0.540708
0.563713
0.587241
0.611167
0.635349
0.659623
0.683807
0.7077
0.731086
0.753732
0.775397
0.795833
0.81479
0.832024
0.8473
0.8604
0.871133
0.879334
0.884875
0.887667
0.22794
0.228506
0.22964
0.231349
0.233641
0.236528
0.240025
0.244149
0.248919
0.254359
0.260493
0.267348
0.274953
0.283338
0.292534
0.302574
0.313491
0.325316
0.338081
0.351816
0.366547
0.382298
0.399086
0.416925
0.435818
0.455763
0.476745
0.498738
0.521701
0.545579
0.570299
0.595769
0.621876
0.648486
0.675443
0.702565
0.72965
0.756471
0.782782
0.808319
0.832803
0.855945
0.877455
0.897045
0.914437
0.929373
0.941624
0.950995
0.95733
0.960523
0.229959
0.23056
0.231766
0.233583
0.236022
0.239095
0.242819
0.247213
0.252301
0.258106
0.264659
0.271988
0.280127
0.289111
0.298976
0.309759
0.321499
0.334234
0.348001
0.362835
0.378771
0.395836
0.414057
0.433452
0.454031
0.475796
0.498738
0.522834
0.548045
0.574318
0.601578
0.62973
0.658655
0.688208
0.718219
0.74849
0.778796
0.808882
0.838469
0.867257
0.894923
0.921133
0.945547
0.967825
0.98764
1.00468
1.01868
1.0294
1.03665
1.04031
0.231971
0.232609
0.233888
0.235817
0.238406
0.24167
0.245628
0.250301
0.255715
0.261898
0.268881
0.276701
0.285393
0.294997
0.305556
0.317112
0.329709
0.343392
0.358205
0.374191
0.391389
0.409837
0.429568
0.450607
0.472971
0.496671
0.521701
0.548045
0.57567
0.604521
0.634527
0.665589
0.697583
0.730357
0.763726
0.797474
0.831352
0.865076
0.898332
0.930775
0.962037
0.991728
1.01945
1.0448
1.0674
1.08687
1.10288
1.11516
1.12347
1.12767
0.233968
0.234644
0.235999
0.238041
0.240784
0.244244
0.248441
0.2534
0.259148
0.265718
0.273145
0.281469
0.29073
0.300975
0.31225
0.324605
0.33809
0.352757
0.368658
0.385842
0.404359
0.424255
0.445569
0.468337
0.492586
0.518332
0.545579
0.574318
0.604521
0.63614
0.669104
0.703315
0.738645
0.774934
0.811986
0.849567
0.887402
0.925178
0.96254
0.999097
1.03442
1.06807
1.09957
1.12845
1.15425
1.17652
1.19487
1.20895
1.2185
1.22332
0.235944
0.236657
0.238089
0.240248
0.243148
0.246807
0.251247
0.256497
0.262587
0.269552
0.277432
0.286272
0.296117
0.307018
0.319029
0.332206
0.346606
0.36229
0.379315
0.397743
0.41763
0.439033
0.462001
0.48658
0.512807
0.540708
0.570299
0.601578
0.634527
0.669104
0.705243
0.742849
0.781794
0.821911
0.862994
0.904792
0.947006
0.98929
1.03125
1.07243
1.11236
1.15051
1.18633
1.21926
1.24875
1.27427
1.29534
1.31154
1.32253
1.32808
0.237889
0.238642
0.240151
0.242427
0.245486
0.249346
0.254034
0.259579
0.266015
0.273382
0.281723
0.291088
0.301528
0.313099
0.325862
0.33988
0.355219
0.371946
0.390129
0.409839
0.431143
0.454107
0.478793
0.505258
0.533552
0.563713
0.595769
0.62973
0.665589
0.703315
0.742849
0.784103
0.82695
0.871222
0.916705
0.963134
1.01019
1.05748
1.10458
1.15098
1.19612
1.2394
1.28017
1.31778
1.35155
1.38085
1.40509
1.42375
1.43644
1.44285
0.239798
0.240589
0.242176
0.24457
0.247788
0.251852
0.256789
0.262632
0.269417
0.27719
0.285997
0.295893
0.306935
0.319187
0.332714
0.347589
0.363883
0.381676
0.401044
0.422069
0.444828
0.469401
0.495862
0.524281
0.554723
0.587241
0.621876
0.658655
0.697583
0.738645
0.781794
0.82695
0.873994
0.922762
0.973033
1.02453
1.07692
1.12978
1.18262
1.23488
1.28594
1.33508
1.38155
1.42456
1.46331
1.49703
1.52499
1.54657
1.56125
1.56868
0.24166
0.24249
0.244155
0.246668
0.250046
0.254313
0.259499
0.26564
0.272777
0.280956
0.290232
0.300662
0.312312
0.325249
0.339548
0.355288
0.372552
0.391426
0.412
0.434364
0.45861
0.48483
0.513114
0.543546
0.576207
0.611167
0.648486
0.688208
0.730357
0.774934
0.821911
0.871222
0.922762
0.976371
1.03184
1.08887
1.14712
1.20614
1.2654
1.32428
1.38204
1.43788
1.49091
1.5402
1.58477
1.62369
1.65604
1.68107
1.69812
1.70676
0.243469
0.244337
0.24608
0.24871
0.252247
0.256717
0.262151
0.268589
0.276075
0.284661
0.294404
0.305369
0.317625
0.331249
0.346323
0.362933
0.381172
0.401137
0.422928
0.446648
0.472404
0.5003
0.530443
0.562935
0.597873
0.635349
0.675443
0.718219
0.763726
0.811986
0.862994
0.916705
0.973033
1.03184
1.09291
1.15597
1.22065
1.28648
1.3529
1.41921
1.48458
1.54811
1.60873
1.66533
1.71674
1.76178
1.79936
1.8285
1.84839
1.85848
0.245216
0.246122
0.247941
0.250687
0.254381
0.259051
0.264731
0.271462
0.279294
0.288282
0.298489
0.309984
0.322843
0.337151
0.352996
0.370474
0.389688
0.410745
0.433757
0.458841
0.486116
0.515706
0.547731
0.582315
0.619575
0.659623
0.702565
0.74849
0.797474
0.849567
0.904792
0.963134
1.02453
1.08887
1.15597
1.22555
1.29726
1.3706
1.44498
1.51964
1.59367
1.66601
1.73543
1.80059
1.86006
1.9124
1.95623
1.99031
2.01363
2.02547
0.246893
0.247836
0.24973
0.25259
0.256438
0.261303
0.267224
0.274243
0.282415
0.291798
0.302461
0.314478
0.327933
0.342914
0.359522
0.377859
0.39804
0.420181
0.444408
0.470852
0.499647
0.530933
0.564851
0.601542
0.641148
0.683807
0.72965
0.778796
0.831352
0.887402
0.947006
1.01019
1.07692
1.14712
1.22065
1.29726
1.37659
1.45819
1.54141
1.62544
1.7093
1.79176
1.8714
1.94663
2.01568
2.07676
2.12812
2.16819
2.19566
2.20963
0.248491
0.249471
0.251438
0.254408
0.258405
0.263461
0.269616
0.276916
0.285419
0.295187
0.306295
0.318822
0.332858
0.3485
0.365854
0.385036
0.406166
0.429375
0.454801
0.482589
0.51289
0.545861
0.581662
0.620459
0.662417
0.7077
0.756471
0.808882
0.865076
0.925178
0.98929
1.05748
1.12978
1.20614
1.28648
1.3706
1.45819
1.54879
1.64177
1.7363
1.8313
1.92541
2.01698
2.10409
2.18459
2.25623
2.31674
2.36411
2.39668
2.41326
0.250004
0.251019
0.253055
0.256132
0.260273
0.265513
0.271892
0.279464
0.288285
0.298426
0.309964
0.322984
0.337583
0.353866
0.371946
0.391947
0.414002
0.438253
0.46485
0.493954
0.525733
0.56036
0.59802
0.638899
0.683189
0.731086
0.782782
0.838469
0.898332
0.96254
1.03125
1.10458
1.18262
1.2654
1.3529
1.44498
1.54141
1.64177
1.74549
1.85172
1.95932
2.06682
2.17233
2.27356
2.36786
2.45233
2.52409
2.58047
2.61932
2.63912
0.251423
0.252471
0.254574
0.257752
0.26203
0.267445
0.27404
0.281869
0.290996
0.301493
0.313442
0.326935
0.342074
0.35897
0.377747
0.398537
0.421483
0.446739
0.474469
0.504847
0.538059
0.574299
0.61377
0.656685
0.703264
0.753732
0.808319
0.867257
0.930775
0.999097
1.07243
1.15098
1.23488
1.32428
1.41921
1.51964
1.62544
1.7363
1.85172
1.9709
2.09271
2.21559
2.33742
2.4555
2.56655
2.66684
2.75253
2.82011
2.86678
2.8906
0.25274
0.253819
0.255985
0.259259
0.263666
0.269246
0.276044
0.284117
0.293532
0.304365
0.316703
0.330643
0.346293
0.363772
0.383211
0.40475
0.428544
0.454758
0.483569
0.515166
0.549752
0.58754
0.628755
0.673636
0.72243
0.775397
0.832803
0.894923
0.962037
1.03442
1.11236
1.19612
1.28594
1.38204
1.48458
1.59367
1.7093
1.8313
1.95932
2.09271
2.23042
2.37089
2.51184
2.65015
2.78176
2.90176
3.00493
3.08657
3.14301
3.17183
0.253948
0.255057
0.257281
0.260643
0.265171
0.270904
0.277892
0.286192
0.295875
0.307022
0.319722
0.334079
0.350207
0.368231
0.388289
0.410531
0.435121
0.462235
0.492063
0.52481
0.560693
0.599947
0.642817
0.689568
0.740476
0.795833
0.855945
0.921133
0.991728
1.06807
1.15051
1.2394
1.33508
1.43788
1.54811
1.66601
1.79176
1.92541
2.06682
2.21559
2.37089
2.53132
2.69461
2.85731
3.01444
3.15944
3.28486
3.38425
3.45292
3.48795
0.255041
0.256176
0.258455
0.261898
0.266536
0.272409
0.27957
0.288078
0.298007
0.309441
0.322475
0.337215
0.353782
0.372307
0.392935
0.415825
0.44115
0.469096
0.499866
0.533678
0.570768
0.611385
0.655799
0.704297
0.757186
0.81479
0.877455
0.945547
1.01945
1.09957
1.18633
1.28017
1.38155
1.49091
1.60873
1.73543
1.8714
2.01698
2.17233
2.33742
2.51184
2.69461
2.88379
3.07593
3.26525
3.44277
3.59692
3.71878
3.80264
3.84529
0.256013
0.257171
0.259498
0.263014
0.267751
0.273751
0.281067
0.289762
0.299913
0.311605
0.324939
0.340024
0.356987
0.375964
0.397107
0.420583
0.446572
0.475272
0.506897
0.541677
0.579863
0.621724
0.667547
0.717646
0.772352
0.832024
0.897045
0.967825
1.0448
1.12845
1.21926
1.31778
1.42456
1.5402
1.66533
1.80059
1.94663
2.10409
2.27356
2.4555
2.65015
2.85731
3.07593
3.30341
3.53393
3.75561
3.94748
4.09756
4.19986
4.25157
0.256857
0.258036
0.260405
0.263985
0.268808
0.274919
0.282371
0.291231
0.301576
0.313495
0.327092
0.342482
0.359793
0.379168
0.400765
0.424757
0.451333
0.480699
0.51308
0.548718
0.587877
0.630841
0.67792
0.729445
0.785775
0.8473
0.914437
0.98764
1.0674
1.15425
1.24875
1.35155
1.46331
1.58477
1.71674
1.86006
2.01568
2.18459
2.36786
2.56655
2.78176
3.01444
3.26525
3.53393
3.81766
4.10451
4.34616
4.53045
4.65403
4.71594
0.257568
0.258765
0.26117
0.264804
0.269701
0.275906
0.283474
0.292474
0.302983
0.315096
0.328918
0.344566
0.362173
0.381888
0.403872
0.428305
0.455382
0.485318
0.518346
0.554719
0.594712
0.638626
0.686785
0.739539
0.797273
0.8604
0.929373
1.00468
1.08687
1.17652
1.27427
1.38085
1.49703
1.62369
1.76178
1.9124
2.07676
2.25623
2.45233
2.66684
2.90176
3.15944
3.44277
3.75561
4.10451
4.50494
4.80858
5.03047
5.17632
5.2487
0.258143
0.259354
0.261788
0.265466
0.270424
0.276705
0.284367
0.29348
0.304124
0.316394
0.330398
0.346257
0.364106
0.384098
0.406398
0.43119
0.458677
0.489078
0.522635
0.55961
0.600288
0.64498
0.694026
0.747792
0.806682
0.871133
0.941624
1.01868
1.10288
1.19487
1.29534
1.40509
1.52499
1.65604
1.79936
1.95623
2.12812
2.31674
2.52409
2.75253
3.00493
3.28486
3.59692
3.94748
4.34616
4.80858
5.15919
5.41305
5.5786
5.66037
0.258577
0.259799
0.262255
0.265967
0.27097
0.277309
0.285044
0.294242
0.304989
0.317378
0.331521
0.34754
0.365573
0.385775
0.408315
0.433382
0.461181
0.491937
0.525898
0.563332
0.604533
0.649821
0.699546
0.754088
0.813865
0.879334
0.950995
1.0294
1.11516
1.20895
1.31154
1.42375
1.54657
1.68107
1.8285
1.99031
2.16819
2.36411
2.58047
2.82011
3.08657
3.38425
3.71878
4.09756
4.53045
5.03047
5.41305
5.6905
5.87124
5.9604
0.258868
0.260098
0.262568
0.266303
0.271337
0.277715
0.285498
0.294754
0.305569
0.31804
0.332276
0.348402
0.366559
0.386903
0.409606
0.434857
0.462866
0.493862
0.528096
0.56584
0.607395
0.653086
0.70327
0.758338
0.818716
0.884875
0.95733
1.03665
1.12347
1.2185
1.32253
1.43644
1.56125
1.69812
1.84839
2.01363
2.19566
2.39668
2.61932
2.86678
3.14301
3.45292
3.80264
4.19986
4.65403
5.17632
5.5786
5.87124
6.06208
6.15624
0.259013
0.260247
0.262725
0.266471
0.27152
0.277918
0.285725
0.295011
0.30586
0.318371
0.332654
0.348835
0.367054
0.387469
0.410253
0.435598
0.463713
0.494829
0.5292
0.567101
0.608833
0.654728
0.705144
0.760477
0.821159
0.887667
0.960523
1.04031
1.12767
1.22332
1.32808
1.44285
1.56868
1.70676
1.85848
2.02547
2.20963
2.41326
2.63912
2.8906
3.17183
3.48795
3.84529
4.25157
4.71594
5.2487
5.66037
5.9604
6.15624
6.2529
)
;

boundaryField
{
    walls
    {
        type            zeroGradient;
    }
    frontAndBack
    {
        type            empty;
    }
}


// ************************************************************************* //
