/*--------------------------------*- C++ -*----------------------------------*\
| =========                 |                                                 |
| \\      /  F ield         | OpenFOAM: The Open Source CFD Toolbox           |
|  \\    /   O peration     | Version:  2406                                  |
|   \\  /    A nd           | Website:  www.openfoam.com                      |
|    \\/     M anipulation  |                                                 |
\*---------------------------------------------------------------------------*/
FoamFile
{
    version     2.0;
    format      ascii;
    arch        "LSB;label=32;scalar=64";
    class       volScalarField;
    location    "1.45";
    object      nu;
}
// * * * * * * * * * * * * * * * * * * * * * * * * * * * * * * * * * * * * * //

dimensions      [0 2 -1 0 0 0 0];

internalField   nonuniform List<scalar> 
1800
(
0.0247298
0.0283333
0.0473472
0.0386938
0.0158961
0.0116941
0.0101237
0.0092613
0.00901318
0.0086024
0.0256152
0.0360404
0.0422493
0.0193628
0.0122298
0.0100355
0.00907064
0.00846333
0.00845593
0.00771321
0.0247797
0.0575492
0.0171908
0.0111264
0.00926821
0.00848442
0.00810895
0.00784844
0.008006
0.00759752
0.0279513
0.0169385
0.0105796
0.00870467
0.00799001
0.00769106
0.00760703
0.00762022
0.0078901
0.00786419
0.0296043
0.0110391
0.00848675
0.00766946
0.0073761
0.00734401
0.00748219
0.00774713
0.00822393
0.0085623
0.0140218
0.00871965
0.0074988
0.00713631
0.00712125
0.00733452
0.0077447
0.00836167
0.00924194
0.0102923
0.00977741
0.00756927
0.00696736
0.00690862
0.00716278
0.00769363
0.00853534
0.00974685
0.0114325
0.013262
0.0079857
0.0069351
0.00670726
0.00692931
0.00751817
0.00852969
0.0100678
0.0121949
0.0148955
0.018308
0.0070579
0.00658184
0.00664776
0.00718001
0.00822503
0.00995686
0.0125401
0.0162436
0.0220412
0.0325944
0.00652236
0.00640346
0.00674043
0.00764027
0.00935665
0.012473
0.0182274
0.0305827
0.0667032
0.0774262
0.00786926
0.00909284
0.0112068
0.0138244
0.0158439
0.0171117
0.0182042
0.019313
0.0199309
0.0197858
0.00777827
0.00885217
0.0109063
0.0138991
0.0167801
0.018699
0.0199524
0.0209257
0.021422
0.0214128
0.00782676
0.0086601
0.0104355
0.0134033
0.0172279
0.0210145
0.0243203
0.0271719
0.0290337
0.0281346
0.00805956
0.00854152
0.00985903
0.0122386
0.0157097
0.0199133
0.0242978
0.0283479
0.0312022
0.0310104
0.00862097
0.00856101
0.00933561
0.0109138
0.0131006
0.0154745
0.017577
0.0191428
0.0200341
0.0209113
0.00991383
0.00883789
0.00904141
0.00996453
0.0112351
0.0125425
0.0136571
0.0144573
0.0148553
0.0153688
0.0135797
0.00963781
0.00912384
0.00953769
0.0102299
0.0109407
0.0115446
0.011983
0.0121915
0.0124484
0.0273991
0.0118319
0.00988655
0.00973375
0.0099937
0.0102974
0.0105297
0.0106627
0.0106896
0.0107206
0.0207087
0.020015
0.0128113
0.0110223
0.0106242
0.0104573
0.0102687
0.0100528
0.00984815
0.00974409
0.0210205
0.0610606
0.0342247
0.0164176
0.0128778
0.0113697
0.0104089
0.00975395
0.00938743
0.00950951
0.0202492
0.0156038
0.0140237
0.0145001
0.0146342
0.0155323
0.0168326
0.0192186
0.0206716
0.0260539
0.0242134
0.0172659
0.0155924
0.0151077
0.0144104
0.0148196
0.0158603
0.0180739
0.0195094
0.0244695
0.0278621
0.0268959
0.018556
0.0148027
0.0134359
0.0135144
0.0143864
0.0164467
0.0179498
0.0224144
0.02411
0.0528843
0.0200257
0.0134755
0.0122915
0.0121872
0.0127613
0.0144685
0.0159905
0.0199614
0.0183111
0.0257316
0.0159935
0.012526
0.0116066
0.01143
0.0116388
0.0127938
0.0140401
0.0174212
0.014979
0.0163763
0.0138595
0.011885
0.0111603
0.0111251
0.0111554
0.0118063
0.0125891
0.0152468
0.0129141
0.0132448
0.0128384
0.0111859
0.0106235
0.0108573
0.0110645
0.011458
0.0118076
0.0137435
0.0114839
0.0117163
0.0119176
0.0105798
0.0101267
0.0104458
0.011009
0.0115116
0.0116314
0.0129712
0.0103652
0.0114741
0.0115504
0.0102674
0.00996867
0.0101306
0.0108324
0.0116715
0.0119112
0.0128652
0.00963061
0.0104378
0.0105414
0.00995265
0.0100893
0.0101377
0.0107148
0.0117951
0.0124648
0.0133455
0.00935945
0.00988918
0.010097
0.010183
0.0105609
0.0105785
0.0108931
0.0119894
0.0132556
0.014643
0.00879605
0.00930923
0.00949956
0.0106711
0.0114812
0.0116052
0.0118303
0.0128908
0.0146493
0.0174655
0.00910682
0.00947811
0.0106967
0.013388
0.0125901
0.0122172
0.0129107
0.0145337
0.0168146
0.022681
0.0104317
0.0108583
0.0140308
0.0182491
0.013519
0.0122773
0.0128514
0.0150564
0.0180766
0.0272286
0.0124064
0.0135915
0.019056
0.0264958
0.0140408
0.0126783
0.013119
0.0149825
0.0173846
0.0234969
0.01585
0.0156289
0.01982
0.0163774
0.011829
0.0112195
0.0118047
0.0132115
0.0147637
0.0175232
0.0184837
0.0148309
0.0130682
0.0101099
0.00927154
0.00944138
0.0101095
0.0110936
0.0119924
0.0132405
0.0119973
0.0105166
0.00873023
0.00791825
0.00794522
0.00841449
0.00905504
0.00973361
0.0102264
0.0107754
0.00811748
0.00756142
0.00725288
0.00740087
0.00788696
0.00847451
0.00891584
0.00924197
0.00938668
0.00954075
0.00677462
0.00694231
0.00740972
0.00848415
0.0102493
0.0115992
0.0112954
0.0104747
0.0097939
0.00943205
0.0250306
0.0841274
0.0339149
0.018729
0.0139307
0.0109457
0.00912562
0.00854044
0.00798334
0.00844696
0.0198138
0.0257283
0.0320135
0.0338927
0.0186133
0.017393
0.0120136
0.0108804
0.00912717
0.00849538
0.0192279
0.0196566
0.0214054
0.021449
0.0206658
0.0175954
0.0163724
0.0129831
0.0124238
0.0100782
0.0186583
0.0181669
0.0200966
0.0181671
0.0208871
0.0164537
0.0187935
0.0144282
0.0156299
0.01252
0.0189031
0.0187827
0.0205578
0.0194561
0.0215213
0.0185735
0.0197782
0.0168416
0.0171294
0.015168
0.0173474
0.0181703
0.0186038
0.0201374
0.0202154
0.0221877
0.0212699
0.0213947
0.0204088
0.0188575
0.0142731
0.0148802
0.0147725
0.0157977
0.0156553
0.0173894
0.0170871
0.0195833
0.0187693
0.0213145
0.0108968
0.0112174
0.0109779
0.0113893
0.011187
0.0117338
0.0115356
0.0122308
0.011989
0.0127818
0.00825165
0.00823918
0.00817505
0.00820023
0.00815858
0.00821229
0.00818926
0.00826134
0.00824839
0.00832603
0.00647486
0.00645022
0.00646705
0.00645729
0.0064974
0.00649806
0.00656159
0.0065663
0.00665377
0.00665982
0.0102221
0.0105943
0.0104236
0.0102583
0.0102077
0.0104539
0.0112278
0.0100193
0.00703337
0.00579709
0.0105632
0.0106248
0.0104423
0.0102394
0.0101884
0.0105355
0.0115198
0.00987291
0.00692157
0.00576071
0.0108632
0.010855
0.0106596
0.0104484
0.0104121
0.0108807
0.0120445
0.00962286
0.00681223
0.00573461
0.0111901
0.0112199
0.0110572
0.0108576
0.0108665
0.0115665
0.0129359
0.00929512
0.00670469
0.0057201
0.0116298
0.0117118
0.0115271
0.0113208
0.0114952
0.0127474
0.0140803
0.00891058
0.00660605
0.00572223
0.0120791
0.0122153
0.0122382
0.0122974
0.0128397
0.0152528
0.0139239
0.00846729
0.00651374
0.005743
0.0127907
0.0132403
0.0132141
0.0132014
0.015347
0.0225403
0.0127618
0.00803101
0.0064318
0.00578932
0.0139641
0.0140182
0.0143164
0.0167296
0.0245482
0.0218303
0.0109255
0.00761537
0.00636741
0.005869
0.0150729
0.0167583
0.0249242
0.14557
0.0598821
0.015677
0.00937984
0.00723709
0.00632771
0.00599623
0.0210867
0.0368752
0.0939577
0.0498431
0.0193955
0.011342
0.00832889
0.00694303
0.00633234
0.00619818
0.011941
0.0115138
0.0111355
0.0108001
0.0104903
0.0102167
0.00997598
0.00970785
0.00928926
0.00793689
0.0117727
0.0113858
0.0110386
0.0107191
0.0104229
0.0101693
0.00996272
0.0096738
0.00889017
0.00727727
0.0116298
0.0112761
0.0109497
0.010636
0.0103452
0.0101061
0.0099375
0.00964218
0.00854385
0.00685614
0.011522
0.0112227
0.0109263
0.0106129
0.0103175
0.0100858
0.00995098
0.00963832
0.0082495
0.00656602
0.0113963
0.0111622
0.0109132
0.0106161
0.0103254
0.0101054
0.0100101
0.00966814
0.00799233
0.00635111
0.0112551
0.0110664
0.0108564
0.0105768
0.0103139
0.0101508
0.010154
0.00978351
0.00778393
0.00619423
0.0112462
0.0111086
0.0109063
0.0105955
0.0103061
0.0101593
0.0102481
0.00984112
0.00759601
0.00607284
0.0112568
0.0111391
0.0109713
0.0106721
0.0104025
0.0103046
0.0104907
0.00993916
0.00743042
0.00597816
0.0114903
0.0113369
0.0110648
0.0106683
0.0103724
0.0103338
0.0106691
0.00999654
0.0072847
0.00590344
0.0113838
0.0111293
0.0109541
0.0106774
0.0104449
0.0104877
0.0109855
0.0100405
0.00715188
0.00584367
0.122264
0.0381924
0.0335581
0.0436435
0.0434568
0.0410219
0.0338624
0.0279904
0.0199942
0.0138808
0.109945
0.0374202
0.0319166
0.0410671
0.0438363
0.0425761
0.0367394
0.0287938
0.0205425
0.0136745
0.0963806
0.0366198
0.0304916
0.0390407
0.0438459
0.0435881
0.0407048
0.0293586
0.0212796
0.0135058
0.0847536
0.0357117
0.0291969
0.0374397
0.0436498
0.0444617
0.0461459
0.0296272
0.0220588
0.0133102
0.0753447
0.0346554
0.0280433
0.0361815
0.0434187
0.0454909
0.0527905
0.0296648
0.0226206
0.0130482
0.0679815
0.0335887
0.027119
0.0351937
0.0432691
0.0464521
0.0575148
0.0297754
0.0220805
0.0128759
0.0627396
0.0328304
0.0264744
0.0343951
0.0430253
0.046898
0.0550344
0.029919
0.0206255
0.0126384
0.0598743
0.0328248
0.0260444
0.0335964
0.0421396
0.0469778
0.0461295
0.0297388
0.0182131
0.0127102
0.0598298
0.0339975
0.0257291
0.0324518
0.0399062
0.0455577
0.0361987
0.0279661
0.0171417
0.0122977
0.0632763
0.0356063
0.0253199
0.0313547
0.0353693
0.0372048
0.0273972
0.0231433
0.0149047
0.0138461
0.0703245
0.0391916
0.0250269
0.0294221
0.027018
0.0285834
0.0184294
0.0191647
0.0134834
0.0140988
0.0651398
0.0426449
0.0236028
0.026617
0.0192233
0.0246506
0.0138645
0.0180829
0.0120458
0.013193
0.0565158
0.0446529
0.022539
0.0215627
0.0167042
0.0221755
0.0128762
0.0182024
0.0119031
0.0128252
0.0504378
0.0451174
0.0224121
0.0173539
0.0181086
0.0186435
0.0148225
0.0170142
0.0138119
0.0127252
0.0502001
0.043913
0.0223866
0.0156873
0.0219283
0.0172078
0.0207856
0.0161919
0.0175412
0.0137045
0.0546412
0.0385934
0.0224586
0.0157263
0.0202961
0.0178008
0.0218788
0.0177255
0.020518
0.0152227
0.0533592
0.0374261
0.0254731
0.0177324
0.0166256
0.0194287
0.0165819
0.0214278
0.0182911
0.0167283
0.0384433
0.0541513
0.0294461
0.0201882
0.0134619
0.0158679
0.0122363
0.0150373
0.0131777
0.0147187
0.0230882
0.019755
0.0134011
0.0118105
0.0106711
0.0102875
0.0099781
0.0100064
0.00978423
0.00979312
0.00793497
0.00787501
0.00838315
0.00854304
0.00853958
0.00805512
0.00828604
0.00756391
0.00757098
0.00719166
0.0112575
0.0111691
0.0111467
0.0114031
0.0118013
0.0123305
0.0128529
0.0139932
0.0150528
0.0170175
0.0118368
0.0117379
0.011842
0.0122669
0.0127852
0.0135348
0.0141858
0.015191
0.0163993
0.0177178
0.0125546
0.0126137
0.012927
0.0135359
0.0141283
0.0149065
0.0154907
0.0163626
0.0170641
0.0182974
0.0134698
0.0136326
0.0140146
0.0144828
0.0149557
0.0153938
0.0158596
0.016307
0.0169968
0.0174826
0.014585
0.0146496
0.0149606
0.0151953
0.0155653
0.0157544
0.0162208
0.016474
0.0172728
0.0175717
0.0156219
0.0155267
0.0157123
0.0158162
0.0159993
0.0160319
0.0161499
0.0162977
0.0165197
0.0169299
0.0162226
0.0158075
0.0155124
0.015272
0.0149507
0.0147759
0.0143836
0.0144388
0.0141242
0.014456
0.0134375
0.012917
0.0124108
0.0121072
0.0117533
0.0116129
0.0112901
0.0113097
0.0109951
0.0111799
0.00956343
0.00935582
0.0091642
0.0089996
0.00885551
0.00872599
0.00860288
0.00849958
0.00839561
0.00833469
0.00707623
0.00697522
0.00688465
0.00679669
0.00672483
0.00665233
0.00660217
0.00654643
0.00651968
0.0064802
0.00587665
0.0066645
0.00850218
0.0141946
0.0533261
0.0194014
0.0134927
0.0114081
0.00978157
0.00825843
0.00595525
0.00659784
0.00806286
0.0121675
0.032533
0.0262294
0.0153903
0.0117234
0.00974502
0.00821023
0.00607882
0.00656817
0.00769094
0.0104051
0.017361
0.0217285
0.0164538
0.012371
0.0100033
0.00837468
0.00626089
0.00658551
0.00740707
0.00923783
0.0129592
0.0168897
0.0161821
0.0131562
0.0105806
0.00872973
0.00652082
0.00666292
0.00722303
0.00848238
0.0108364
0.0138818
0.0150995
0.0137287
0.011411
0.00932283
0.0068867
0.00681587
0.00714182
0.00800582
0.00959624
0.0119032
0.0138195
0.0139471
0.0124425
0.0100962
0.0074028
0.0070685
0.00716653
0.00772178
0.00881215
0.0105247
0.0124799
0.0135657
0.0133475
0.011267
0.00813337
0.00745861
0.0073178
0.00760048
0.00830535
0.00951758
0.0112247
0.012881
0.0138103
0.0122933
0.00916631
0.00803433
0.0076358
0.00766579
0.00804825
0.00880835
0.00998272
0.0114428
0.0130988
0.0123856
0.0106166
0.00883862
0.00816901
0.00796836
0.00808944
0.00851359
0.0092515
0.0102707
0.0116897
0.0125808
0.012619
0.00988295
0.00895791
0.00856202
0.0084619
0.00862009
0.0090242
0.00965468
0.0103247
0.011682
0.0150229
0.0110759
0.0100228
0.00954768
0.00927803
0.00920409
0.00934678
0.0096858
0.00990087
0.0108689
0.0162035
0.011901
0.0111173
0.0109454
0.0107298
0.0104466
0.0102941
0.0103327
0.0102089
0.0107164
0.0147754
0.0118509
0.0116617
0.0122318
0.0127996
0.0127111
0.0121462
0.0116873
0.0111697
0.0112335
0.0126961
0.0114038
0.0117505
0.0129232
0.0147701
0.0165956
0.0162103
0.0146426
0.0132581
0.0125677
0.0110082
0.0108811
0.0116961
0.0132715
0.0158732
0.0208707
0.0276914
0.0236024
0.0178824
0.0149262
0.0097613
0.0103739
0.0115784
0.013498
0.0164531
0.0226335
0.0424248
0.0862015
0.0269716
0.0180561
0.00894129
0.00998055
0.0115368
0.0137329
0.0167665
0.0216723
0.0313086
0.044318
0.0316236
0.0207191
0.00842061
0.00966546
0.0115251
0.013813
0.0160937
0.0183275
0.0208967
0.0234976
0.0233224
0.0200372
0.00808317
0.00937394
0.0114246
0.0137876
0.0156046
0.0169187
0.0182595
0.0196946
0.0202822
0.019419
0.01117
0.011976
0.0144174
0.0225346
0.0636599
0.0337775
0.025813
0.0253242
0.0250378
0.0307077
0.0109582
0.0119982
0.0146929
0.0213368
0.0335846
0.0294169
0.0251461
0.0251845
0.0253762
0.0326128
0.0110687
0.0120715
0.0147984
0.0195463
0.0260564
0.0263978
0.0244308
0.0248656
0.0252537
0.0326573
0.0115158
0.0122917
0.0149895
0.0184469
0.0227722
0.0239174
0.0234779
0.0243648
0.0248567
0.0318878
0.0120852
0.0127784
0.015146
0.0176657
0.020582
0.021973
0.0224546
0.0237745
0.024339
0.0308833
0.0128013
0.013548
0.015012
0.0168418
0.0188441
0.0203837
0.021459
0.0231732
0.0238351
0.0299722
0.0138108
0.0144132
0.0146209
0.0159446
0.0173662
0.0189939
0.02047
0.0225425
0.0233721
0.029259
0.0149521
0.0150297
0.0141518
0.0150944
0.0161432
0.0177726
0.0194711
0.0218318
0.0228894
0.0286694
0.0161175
0.0152639
0.0137449
0.0144564
0.0152453
0.0167722
0.0185027
0.021027
0.022309
0.0280431
0.017739
0.0153216
0.0135898
0.0142076
0.0147534
0.0160477
0.0176281
0.0201546
0.0215805
0.0272148
0.0104939
0.0150866
0.0197884
0.0306642
0.0396227
0.028043
0.019795
0.0154297
0.013611
0.0124514
0.00916472
0.0111845
0.0137889
0.0168602
0.017821
0.0162645
0.01455
0.0134746
0.0129011
0.0123515
0.00932119
0.0109566
0.0136704
0.0167786
0.0179432
0.0175966
0.0164271
0.0156136
0.0150955
0.0145359
0.0101399
0.0112596
0.0142962
0.0211212
0.0294732
0.0255473
0.0213515
0.0201668
0.0193275
0.0192104
0.0117302
0.0121414
0.0145813
0.0232597
0.202145
0.0323631
0.0246097
0.0238121
0.0231483
0.0255971
0.00591314
0.00601452
0.00616129
0.00636606
0.00660757
0.0069195
0.00727855
0.007659
0.0082392
0.00854897
0.00614142
0.0062226
0.00635443
0.00653727
0.00674355
0.00699582
0.00727624
0.00752437
0.0079631
0.00811548
0.00644465
0.00650266
0.00662915
0.00680644
0.00701374
0.00726686
0.00750207
0.00781676
0.00813792
0.00850655
0.00685338
0.00688481
0.00702156
0.00722156
0.00749445
0.00782621
0.00812346
0.00877552
0.00896534
0.0102063
0.00738371
0.00738354
0.00754299
0.00780491
0.00821489
0.00869242
0.00933001
0.0103892
0.0106943
0.0134518
0.0127887
0.0125451
0.0123069
0.0118878
0.0114796
0.0112147
0.0111229
0.0105599
0.00834142
0.00649438
0.013051
0.0127637
0.0123189
0.0117727
0.0113334
0.0110672
0.0109685
0.010546
0.00861649
0.00667672
0.0126289
0.012398
0.0121086
0.0117292
0.0113838
0.0111289
0.0109749
0.0105803
0.00893206
0.00690619
0.0127183
0.0124619
0.0121327
0.0117286
0.0113391
0.0110156
0.0107789
0.0104493
0.0092629
0.00721538
0.0126877
0.0123445
0.011965
0.0115608
0.011183
0.010865
0.0106256
0.0103978
0.00969251
0.00767686
0.0126373
0.0122288
0.0118177
0.0114173
0.0110443
0.0107203
0.0104686
0.0103247
0.0101542
0.00840411
0.0125322
0.0120739
0.0116394
0.0112385
0.0108629
0.0105269
0.010261
0.0101935
0.0106171
0.00982359
0.0123884
0.0119057
0.0114646
0.0110694
0.0106959
0.0103542
0.0100711
0.0100041
0.010808
0.0129845
0.0122355
0.0117568
0.0113298
0.0109551
0.0106039
0.0102821
0.00999997
0.00985686
0.0103821
0.0121301
0.0120888
0.0116335
0.0112319
0.0108807
0.0105558
0.0102636
0.0100004
0.00977881
0.00978856
0.00919021
0.00854244
0.0100224
0.0113511
0.0124336
0.0139601
0.0175745
0.0143526
0.00894982
0.00675656
0.00583239
0.00908462
0.0103243
0.0111892
0.0118158
0.0124514
0.0135243
0.0138872
0.00938924
0.00686376
0.0058151
0.00972777
0.0105299
0.010951
0.0112028
0.0115012
0.0121029
0.0125645
0.0096765
0.00698521
0.00582229
0.0101569
0.0105589
0.0107568
0.0108662
0.0109749
0.011285
0.0117679
0.00990898
0.00711715
0.00584818
0.0103675
0.0105813
0.0106659
0.0106882
0.0107185
0.010915
0.0113168
0.0100323
0.00725006
0.00589168
0.0105772
0.010724
0.010739
0.0106832
0.0106292
0.0107287
0.0110631
0.0101399
0.00739414
0.00595049
0.0109085
0.0110019
0.0109213
0.010773
0.0106513
0.0106893
0.01096
0.0102224
0.00754585
0.00602404
0.0113469
0.011324
0.0111105
0.0108745
0.0107062
0.010705
0.0109257
0.0103089
0.00771265
0.00611353
0.0116698
0.011475
0.0111868
0.010943
0.0107851
0.0107791
0.0109639
0.0104177
0.00790042
0.00622058
0.0114599
0.0115517
0.0113692
0.0111654
0.0110109
0.010969
0.0110726
0.0105287
0.00811165
0.00634647
0.036702
0.0394007
0.0895243
0.0324408
0.0258359
0.0257145
0.0289816
0.0417185
0.0270268
0.0185176
0.0410583
0.0391872
0.147966
0.0389216
0.0277098
0.0260261
0.0277273
0.0298197
0.0260381
0.0157332
0.0466041
0.0398513
0.106221
0.0447833
0.0294255
0.0266323
0.0277488
0.0267217
0.0248796
0.0148065
0.0536778
0.0401159
0.074732
0.0502073
0.0308407
0.0271965
0.0275368
0.0248677
0.0229871
0.0147844
0.0623952
0.0400534
0.0597805
0.0549609
0.0323456
0.0280437
0.0274497
0.024128
0.0215531
0.0148622
0.0728767
0.039899
0.0513033
0.0580694
0.0342295
0.0293947
0.0276941
0.0241753
0.0206565
0.0148624
0.0854903
0.0397928
0.0455406
0.0580456
0.036476
0.0312724
0.0282354
0.024649
0.0200685
0.0147471
0.100504
0.0396855
0.0412971
0.0550592
0.0388381
0.0336022
0.0290499
0.0253525
0.019712
0.0145421
0.116133
0.039423
0.0380651
0.0508814
0.0409581
0.0362179
0.0301876
0.0261855
0.01958
0.0143071
0.125629
0.0389048
0.0355534
0.0469131
0.0425313
0.0388191
0.0317464
0.0270873
0.0196701
0.0140812
0.00724682
0.00742769
0.00832862
0.00894212
0.00956636
0.00972119
0.00987371
0.00947662
0.00944973
0.00793242
0.0150011
0.0107039
0.00976065
0.0100544
0.0105042
0.0109009
0.011387
0.0116009
0.0117529
0.0116007
0.0250389
0.0224834
0.0129132
0.0122378
0.0123577
0.0129894
0.0138571
0.0157032
0.0160041
0.0148215
0.029901
0.0534444
0.0202454
0.0164297
0.0157857
0.0167086
0.0183345
0.0258752
0.0290658
0.0155663
0.0331935
0.0416915
0.0384396
0.0231331
0.0205035
0.0213143
0.0241715
0.045445
0.0379075
0.0175572
0.00743426
0.00710098
0.00678121
0.00650052
0.00627146
0.00609298
0.00596354
0.00588255
0.00584771
0.00585796
0.0105495
0.00967217
0.00884112
0.00812644
0.00749908
0.00697791
0.00658792
0.00632813
0.00617993
0.00612357
0.0124879
0.0115082
0.0105988
0.00983036
0.0090555
0.00824821
0.00751875
0.00697818
0.00664436
0.00648052
0.0126591
0.0117783
0.0111217
0.0106502
0.0101581
0.00950049
0.00864672
0.00782912
0.00726314
0.0069589
0.0127309
0.0118526
0.0111608
0.0106909
0.0103219
0.00997258
0.00947226
0.00874213
0.00803747
0.00758019
)
;

boundaryField
{
    left
    {
        type            calculated;
        value           nonuniform List<scalar> 
35
(
0.0319844
0.032329
0.0330863
0.0350487
0.0384735
0.041653
0.0401789
0.0320615
0.0199407
0.00790113
0.0518192
0.0488623
0.0457192
0.0425816
0.0395891
0.0368589
0.0345351
0.0327786
0.031735
0.0314827
0.035625
0.0401146
0.0451977
0.0503309
0.0545885
0.0573078
0.0584024
0.0580627
0.0566057
0.0544372
0.00721045
0.0137222
0.0220619
0.0274522
0.0317771
)
;
    }
    right
    {
        type            calculated;
        value           nonuniform List<scalar> 
35
(
0.0124562
0.0123703
0.0146274
0.0196695
0.0274855
0.0352643
0.0392547
0.0403425
0.0400046
0.0391996
0.0385399
0.0382623
0.0382526
0.0381745
0.0376128
0.0361737
0.0335224
0.0295264
0.0247054
0.0202014
0.0168422
0.0147559
0.0137414
0.0135867
0.0141631
0.0158081
0.019493
0.0277055
0.0334508
0.0253079
0.0179188
0.0134046
0.0108538
0.00957184
0.00944052
)
;
    }
    down
    {
        type            calculated;
        value           nonuniform List<scalar> 
40
(
0.00638066
0.00676045
0.00791268
0.00859442
0.00926986
0.00931291
0.00933263
0.00881466
0.00868669
0.00710544
0.00671435
0.00647848
0.00625357
0.00606302
0.00592081
0.00582212
0.0057585
0.00572575
0.00572279
0.00575233
0.00582019
0.0059307
0.00608668
0.00630549
0.00657027
0.00692229
0.00732996
0.00781681
0.00851028
0.0090489
0.0127977
0.0313638
0.0549824
0.113056
0.0458689
0.0567222
0.0648316
0.0209166
0.0156125
0.0133333
)
;
    }
    up
    {
        type            calculated;
        value           nonuniform List<scalar> 
40
(
0.00643498
0.00697523
0.00833587
0.0115969
0.0278787
0.041298
0.0246225
0.0133265
0.0106929
0.00973266
0.00602229
0.00600788
0.00603178
0.0060269
0.00607419
0.00607559
0.00614769
0.00615048
0.00624959
0.0062518
0.00648277
0.00640087
0.00632582
0.00625568
0.00619627
0.00614144
0.00610204
0.00606368
0.00604537
0.00602023
0.0067849
0.00681816
0.00746476
0.00781521
0.00789198
0.00749333
0.00768292
0.0069445
0.00695175
0.00658701
)
;
    }
    cylinder
    {
        type            calculated;
        value           nonuniform List<scalar> 
80
(
0.00751253
0.00747948
0.00762329
0.00802846
0.00898101
0.0115712
0.0230996
0.0227546
0.0145785
0.0151221
0.0230811
0.0199998
0.0166494
0.0179288
0.0310325
0.0355319
0.0144609
0.0094587
0.00766902
0.00677373
0.00551112
0.00548885
0.00547732
0.00547862
0.00549871
0.00554252
0.00562061
0.00574651
0.0059446
0.00625949
0.00732733
0.00672602
0.00636039
0.00611545
0.00593815
0.0058115
0.00571528
0.00564192
0.0055857
0.00554261
0.00604702
0.00619142
0.00637384
0.00662298
0.00699935
0.00761219
0.00888159
0.012418
0.0123394
0.00858111
0.00559167
0.00555251
0.00554034
0.00554849
0.00557563
0.00561769
0.00567363
0.00574383
0.005829
0.00592934
0.0056636
0.00577889
0.00595252
0.00620362
0.00655951
0.00706281
0.00778642
0.00884879
0.0104459
0.0129644
0.0174428
0.0264293
0.0328762
0.0216006
0.0147723
0.0114689
0.00962158
0.00859731
0.00802409
0.0076924
)
;
    }
    defaultFaces
    {
        type            empty;
    }
}


// ************************************************************************* //
