/*--------------------------------*- C++ -*----------------------------------*\
| =========                 |                                                 |
| \\      /  F ield         | OpenFOAM: The Open Source CFD Toolbox           |
|  \\    /   O peration     | Version:  2406                                  |
|   \\  /    A nd           | Website:  www.openfoam.com                      |
|    \\/     M anipulation  |                                                 |
\*---------------------------------------------------------------------------*/
FoamFile
{
    version     2.0;
    format      ascii;
    arch        "LSB;label=32;scalar=64";
    class       volScalarField;
    location    "1.45";
    object      p;
}
// * * * * * * * * * * * * * * * * * * * * * * * * * * * * * * * * * * * * * //

dimensions      [0 2 -2 0 0 0 0];

internalField   nonuniform List<scalar> 
1800
(
-0.68589
-0.689354
-0.683483
-0.670959
-0.660187
-0.649361
-0.63368
-0.617202
-0.602926
-0.599811
-0.699824
-0.704735
-0.700438
-0.690082
-0.680438
-0.669612
-0.656172
-0.641385
-0.625494
-0.631019
-0.734877
-0.734623
-0.730002
-0.722517
-0.712773
-0.700954
-0.687278
-0.672738
-0.65631
-0.655978
-0.776145
-0.7709
-0.761566
-0.752936
-0.742527
-0.729541
-0.714281
-0.697814
-0.680692
-0.669304
-0.814205
-0.808955
-0.8014
-0.790964
-0.777773
-0.761624
-0.743029
-0.723146
-0.703273
-0.685674
-0.872563
-0.858727
-0.849169
-0.836026
-0.818363
-0.796605
-0.772041
-0.746086
-0.719924
-0.694641
-0.933417
-0.915681
-0.903257
-0.885299
-0.860484
-0.830527
-0.797854
-0.764282
-0.731044
-0.699472
-0.998434
-0.97691
-0.959958
-0.933911
-0.898566
-0.857915
-0.815428
-0.773102
-0.732026
-0.69286
-1.06508
-1.03859
-1.01388
-0.975732
-0.926876
-0.874034
-0.821357
-0.770286
-0.721037
-0.673479
-1.12463
-1.09289
-1.05611
-1.0026
-0.939136
-0.874046
-0.810737
-0.74814
-0.686682
-0.631219
-1.04366
-1.04662
-1.04711
-1.04747
-1.04786
-1.04849
-1.04966
-1.05123
-1.05325
-1.05666
-1.03925
-1.03926
-1.03921
-1.04009
-1.04172
-1.04415
-1.04769
-1.05247
-1.05871
-1.06715
-1.02632
-1.02287
-1.02222
-1.02348
-1.02652
-1.03119
-1.0375
-1.04547
-1.05511
-1.06702
-1.00168
-0.994301
-0.992837
-0.994176
-0.998106
-1.00465
-1.01364
-1.02491
-1.03834
-1.05397
-0.96414
-0.952617
-0.949819
-0.950112
-0.953383
-0.960083
-0.970142
-0.983286
-0.999083
-1.01687
-0.915935
-0.900971
-0.896311
-0.894141
-0.894683
-0.898834
-0.906672
-0.917955
-0.932262
-0.94876
-0.860419
-0.845634
-0.83887
-0.833055
-0.82902
-0.828106
-0.830669
-0.83666
-0.845881
-0.857843
-0.799289
-0.791574
-0.783667
-0.774444
-0.765517
-0.758193
-0.753216
-0.750966
-0.751767
-0.756658
-0.755403
-0.75014
-0.738795
-0.726441
-0.713807
-0.700422
-0.687451
-0.676018
-0.667326
-0.664794
-0.709631
-0.713082
-0.703104
-0.691398
-0.679092
-0.662915
-0.644796
-0.6273
-0.612421
-0.603325
-1.08174
-1.17774
-1.14402
-0.964304
-0.682697
-0.422973
-0.229881
-0.110079
-0.0399943
-0.00495726
-1.12239
-1.28815
-1.27265
-1.07026
-0.734854
-0.437584
-0.223277
-0.0981003
-0.0298416
-0.000749909
-1.15678
-1.40592
-1.4196
-1.19384
-0.795443
-0.454975
-0.216165
-0.0847712
-0.0185367
0.00422481
-1.17462
-1.52376
-1.57579
-1.32777
-0.865719
-0.475335
-0.209181
-0.0706499
-0.00638659
0.0098663
-1.16557
-1.6268
-1.73132
-1.4674
-0.943404
-0.499499
-0.203918
-0.0572171
0.00569014
0.0156983
-1.11826
-1.70043
-1.87464
-1.6071
-1.02747
-0.52868
-0.202396
-0.0465181
0.0161793
0.0208165
-1.03036
-1.73375
-1.99492
-1.74086
-1.11584
-0.563743
-0.206228
-0.0403571
0.0233657
0.0241479
-0.906917
-1.72237
-2.07925
-1.85914
-1.20355
-0.604384
-0.216446
-0.0397818
0.025936
0.0249646
-0.759988
-1.66352
-2.12191
-1.9507
-1.28378
-0.6489
-0.23376
-0.0454101
0.0233045
0.0231757
-0.617302
-1.56435
-2.11784
-2.0151
-1.35398
-0.695147
-0.257967
-0.0575906
0.015505
0.0190661
-0.485332
-1.48728
-2.11786
-2.04279
-1.38066
-0.719456
-0.281121
-0.0768809
0.000301092
0.0113533
-0.487816
-1.439
-2.03054
-1.95349
-1.32677
-0.717708
-0.314007
-0.1137
-0.0257326
5.92134e-05
-0.550519
-1.3639
-1.90009
-1.80886
-1.25805
-0.720693
-0.356078
-0.158808
-0.05574
-0.010612
-0.588326
-1.24743
-1.70099
-1.63378
-1.1917
-0.738763
-0.408708
-0.208141
-0.0873631
-0.0213745
-0.585829
-1.09895
-1.48587
-1.46455
-1.1413
-0.77765
-0.4767
-0.263491
-0.118904
-0.0316156
-0.55292
-0.948848
-1.28161
-1.31996
-1.11492
-0.83303
-0.550469
-0.320486
-0.151269
-0.0414341
-0.494064
-0.802584
-1.09616
-1.20483
-1.1156
-0.903364
-0.620994
-0.367183
-0.173742
-0.0463508
-0.425188
-0.673009
-0.945693
-1.12106
-1.12612
-0.951153
-0.662834
-0.395404
-0.187075
-0.0487202
-0.346736
-0.599552
-0.865867
-1.05297
-1.11089
-0.964905
-0.676521
-0.408005
-0.194189
-0.0505538
-0.303617
-0.566439
-0.870944
-1.06973
-1.10017
-0.939196
-0.662132
-0.405778
-0.195661
-0.051501
-0.535308
-0.583684
-0.62027
-0.641779
-0.651542
-0.656163
-0.649848
-0.627157
-0.582961
-0.588423
-0.41763
-0.473162
-0.520181
-0.556562
-0.579537
-0.593289
-0.596607
-0.593763
-0.589526
-0.601574
-0.318366
-0.375227
-0.426139
-0.469967
-0.503483
-0.528461
-0.545321
-0.562771
-0.571772
-0.586536
-0.230297
-0.288487
-0.341746
-0.388904
-0.429036
-0.464011
-0.491087
-0.519577
-0.536896
-0.561678
-0.15344
-0.212359
-0.266075
-0.315194
-0.357965
-0.398599
-0.430811
-0.465175
-0.491358
-0.525131
-0.0875639
-0.145834
-0.198754
-0.248007
-0.291029
-0.332753
-0.367828
-0.404788
-0.437419
-0.475363
-0.0328355
-0.0895788
-0.141352
-0.188881
-0.23109
-0.270988
-0.306942
-0.342656
-0.377392
-0.413533
0.0112056
-0.0445106
-0.0948964
-0.140029
-0.180804
-0.217706
-0.251903
-0.283793
-0.31572
-0.346826
0.0383982
-0.0165347
-0.0656524
-0.108846
-0.147718
-0.181229
-0.211826
-0.238033
-0.262294
-0.284311
0.0505865
-0.00435218
-0.0540992
-0.0983985
-0.137853
-0.171792
-0.201385
-0.225132
-0.24527
-0.260209
0.697914
0.637242
0.568083
0.495581
0.418644
0.334932
0.244925
0.154165
0.0720818
0.0193633
0.529513
0.465692
0.394964
0.318637
0.235088
0.142614
0.0427331
-0.0577
-0.147859
-0.207232
0.340872
0.276239
0.205244
0.127207
0.0402952
-0.0569049
-0.162326
-0.268591
-0.363697
-0.427287
0.158358
0.0924574
0.0196755
-0.0609313
-0.150922
-0.251448
-0.360188
-0.470016
-0.568235
-0.631765
-0.00801504
-0.0762151
-0.151765
-0.235483
-0.328615
-0.431917
-0.542135
-0.654287
-0.751016
-0.813693
-0.157979
-0.228506
-0.305983
-0.390927
-0.484979
-0.588787
-0.698679
-0.807966
-0.902637
-0.963053
-0.288865
-0.36055
-0.43904
-0.52541
-0.619445
-0.720622
-0.826444
-0.93058
-1.01972
-1.07524
-0.406166
-0.476826
-0.552156
-0.630247
-0.717667
-0.817372
-0.918455
-1.01595
-1.09606
-1.14546
-0.498523
-0.563733
-0.635747
-0.712951
-0.797195
-0.888289
-0.97884
-1.06399
-1.13077
-1.17386
-0.572279
-0.633182
-0.702369
-0.777021
-0.852398
-0.929064
-1.006
-1.0758
-1.12766
-1.16467
1.66598
1.67564
1.68564
1.69507
1.70338
1.7102
1.71515
1.718
1.72089
1.73641
1.62466
1.6322
1.63946
1.64568
1.65043
1.65331
1.65398
1.65274
1.65235
1.66496
1.5647
1.56933
1.57299
1.5751
1.57531
1.57315
1.56833
1.56157
1.55633
1.5647
1.48726
1.48839
1.48753
1.48441
1.47887
1.47038
1.45863
1.44482
1.43311
1.43589
1.39331
1.39017
1.38389
1.37458
1.36233
1.34653
1.32683
1.30484
1.28538
1.28161
1.28596
1.27837
1.26592
1.24929
1.2289
1.20413
1.17476
1.14296
1.1142
1.10309
1.16574
1.15316
1.13431
1.11026
1.08152
1.04729
1.00744
0.964794
0.925518
0.907097
1.04027
1.02192
0.994817
0.961212
0.922275
0.87727
0.826196
0.772439
0.722627
0.695759
0.914147
0.889357
0.853268
0.809355
0.759227
0.702099
0.638255
0.571962
0.510867
0.474978
0.7998
0.760314
0.708958
0.651306
0.588564
0.519039
0.44276
0.364488
0.292755
0.248182
1.59727
1.57915
1.57081
1.5525
1.5425
1.52954
1.52489
1.53081
1.55511
1.62311
1.59581
1.57646
1.56917
1.55088
1.54005
1.525
1.51928
1.52167
1.54077
1.59912
1.59478
1.57403
1.5677
1.54918
1.53726
1.51954
1.51254
1.50979
1.52145
1.56448
1.5941
1.57182
1.56642
1.54736
1.53413
1.51319
1.50475
1.49514
1.49758
1.51869
1.59372
1.56978
1.56534
1.54541
1.53063
1.50597
1.49584
1.47766
1.46966
1.4614
1.59363
1.56789
1.56448
1.5433
1.52676
1.49789
1.48561
1.4573
1.43821
1.39234
1.59384
1.56611
1.56385
1.541
1.52245
1.48894
1.47406
1.43413
1.4038
1.31054
1.59435
1.56448
1.56346
1.53846
1.51766
1.47908
1.46129
1.40845
1.36614
1.21732
1.59517
1.56323
1.56345
1.53572
1.5123
1.46792
1.44734
1.38068
1.32455
1.11208
1.59621
1.56254
1.56418
1.53318
1.50637
1.45538
1.43226
1.35204
1.28187
1.00376
1.59809
1.56161
1.56442
1.5299
1.50021
1.44185
1.4145
1.32071
1.22877
0.90191
1.60285
1.56276
1.56898
1.52905
1.49678
1.4288
1.39628
1.29651
1.18366
0.908452
1.60892
1.56453
1.57377
1.52903
1.49446
1.42019
1.37914
1.27773
1.1445
0.912212
1.61588
1.56695
1.5777
1.53054
1.49164
1.41767
1.36231
1.26256
1.11001
0.905729
1.62399
1.57019
1.57915
1.53087
1.48607
1.41871
1.34492
1.24979
1.08162
0.892855
1.63337
1.57315
1.57734
1.5241
1.47798
1.41876
1.32684
1.24025
1.0623
0.879563
1.64487
1.57547
1.57056
1.50891
1.46806
1.41686
1.30904
1.2353
1.0531
0.870059
1.66247
1.57997
1.56439
1.49446
1.45747
1.41494
1.29119
1.23826
1.05204
0.866072
1.67776
1.58478
1.56146
1.48703
1.44804
1.41296
1.27628
1.24582
1.05222
0.867513
1.72302
1.58522
1.55826
1.4827
1.44889
1.41077
1.27577
1.25835
1.05354
0.88214
0.688118
0.547602
0.377671
0.212483
0.0626442
-0.0719895
-0.192236
-0.300468
-0.393822
-0.473346
0.649852
0.533234
0.39761
0.261667
0.135839
0.0208703
-0.0847999
-0.183374
-0.273296
-0.35224
0.639557
0.531693
0.416198
0.301868
0.193958
0.0927556
-0.00278325
-0.0931518
-0.17616
-0.25146
0.641826
0.540541
0.437933
0.339734
0.246578
0.157249
0.0708191
-0.0121743
-0.0910506
-0.163657
0.650797
0.557911
0.465217
0.378068
0.295339
0.214698
0.135063
0.0573232
-0.0178855
-0.0880595
0.663537
0.57928
0.49456
0.414608
0.33845
0.263412
0.188727
0.11493
0.0434022
-0.0242533
0.678331
0.602103
0.524112
0.44907
0.376735
0.304976
0.233608
0.162435
0.0939281
0.0285182
0.693897
0.624486
0.552109
0.48074
0.410394
0.340719
0.271638
0.202728
0.136366
0.0712128
0.705266
0.639371
0.57047
0.500965
0.430601
0.360998
0.29184
0.224058
0.159335
0.0965783
0.723181
0.658288
0.5907
0.520683
0.449203
0.378411
0.308354
0.240388
0.173908
0.110431
-1.30069
-1.25413
-1.18657
-1.11053
-1.03569
-0.966809
-0.90628
-0.855192
-0.813374
-0.78141
-1.40469
-1.3619
-1.29929
-1.22494
-1.15177
-1.08448
-1.02525
-0.974022
-0.931465
-0.899052
-1.46657
-1.42818
-1.37238
-1.30256
-1.23205
-1.16607
-1.10697
-1.05566
-1.01202
-0.97742
-1.49039
-1.45694
-1.40957
-1.34708
-1.28006
-1.2155
-1.15671
-1.10503
-1.06027
-1.02317
-1.48403
-1.45566
-1.41779
-1.36453
-1.3032
-1.24137
-1.18332
-1.13112
-1.08506
-1.0455
-1.45713
-1.43353
-1.40476
-1.36143
-1.3077
-1.2504
-1.19419
-1.14199
-1.09517
-1.05438
-1.41903
-1.39972
-1.37837
-1.34459
-1.29976
-1.24893
-1.19648
-1.14575
-1.09924
-1.0591
-1.37699
-1.36136
-1.34552
-1.3198
-1.2837
-1.24006
-1.19243
-1.14406
-1.0982
-1.05824
-1.33587
-1.32344
-1.31163
-1.2923
-1.2639
-1.22754
-1.18576
-1.14123
-1.09757
-1.06064
-1.29813
-1.28869
-1.27994
-1.26541
-1.24296
-1.2124
-1.17506
-1.13279
-1.08778
-1.0471
-1.26374
-1.25754
-1.25141
-1.24063
-1.22303
-1.19771
-1.16523
-1.12742
-1.08573
-1.03991
-1.2297
-1.22714
-1.22354
-1.21577
-1.2019
-1.18087
-1.15263
-1.11849
-1.07942
-1.03208
-1.19258
-1.193
-1.19177
-1.18611
-1.17457
-1.15641
-1.13162
-1.10107
-1.06496
-1.01936
-1.15353
-1.15679
-1.15649
-1.15238
-1.14263
-1.12636
-1.10429
-1.07776
-1.04647
-1.007
-1.11807
-1.12345
-1.12383
-1.12088
-1.11342
-1.09974
-1.07991
-1.05662
-1.03241
-1.00122
-1.08791
-1.09506
-1.09601
-1.09416
-1.0894
-1.08016
-1.06466
-1.04464
-1.025
-1.00336
-1.06444
-1.07233
-1.07329
-1.07158
-1.06786
-1.06193
-1.05178
-1.03609
-1.02261
-1.00796
-1.05066
-1.05808
-1.05889
-1.0575
-1.05476
-1.05101
-1.04559
-1.03624
-1.02428
-1.0127
-1.0453
-1.05171
-1.0526
-1.05204
-1.05068
-1.04861
-1.04539
-1.0398
-1.03205
-1.02465
-1.0444
-1.0494
-1.05021
-1.05017
-1.04968
-1.04887
-1.04774
-1.04582
-1.0431
-1.04101
-0.905859
-0.728808
-0.684673
-0.634283
-0.549602
-0.424467
-0.30131
-0.190668
-0.10221
-0.0284755
-0.892266
-0.727904
-0.691195
-0.63669
-0.542112
-0.416585
-0.293376
-0.184318
-0.0979854
-0.0269404
-0.885607
-0.736537
-0.703574
-0.642443
-0.54008
-0.410006
-0.285495
-0.1776
-0.0932657
-0.02508
-0.888551
-0.755573
-0.722781
-0.65267
-0.541679
-0.404902
-0.277825
-0.170639
-0.0882083
-0.0230636
-0.899888
-0.78419
-0.749332
-0.668172
-0.546338
-0.401123
-0.270361
-0.163416
-0.0828328
-0.0209655
-0.917084
-0.821997
-0.783995
-0.690018
-0.554403
-0.398784
-0.263109
-0.155892
-0.0771235
-0.0188031
-0.939301
-0.869442
-0.827633
-0.719537
-0.566546
-0.398153
-0.256062
-0.147994
-0.0710189
-0.0165553
-0.966593
-0.926985
-0.882534
-0.758672
-0.58378
-0.399669
-0.249212
-0.139607
-0.0644028
-0.0141587
-1.00039
-0.996495
-0.951162
-0.810755
-0.607555
-0.403942
-0.242581
-0.130596
-0.0571275
-0.0115136
-1.03977
-1.07988
-1.03729
-0.878513
-0.63977
-0.411617
-0.236184
-0.120819
-0.0490412
-0.00849474
-0.90211
-0.750807
-0.698421
-0.631637
-0.539505
-0.410225
-0.294997
-0.189498
-0.102529
-0.0284733
-0.893252
-0.744398
-0.691755
-0.629635
-0.541452
-0.415116
-0.298195
-0.192044
-0.10399
-0.0291735
-0.890782
-0.737845
-0.687018
-0.629955
-0.543811
-0.416481
-0.299891
-0.192639
-0.104198
-0.0291402
-0.889149
-0.731098
-0.681727
-0.629169
-0.548451
-0.419703
-0.302471
-0.19368
-0.10472
-0.0293137
-0.896866
-0.72462
-0.676239
-0.626848
-0.540517
-0.424796
-0.3046
-0.194051
-0.104682
-0.0293843
-0.75004
-0.861518
-0.935833
-0.978552
-0.99367
-0.994545
-0.983448
-0.971318
-0.956548
-0.942976
-0.74757
-0.859652
-0.932049
-0.971687
-0.983166
-0.980074
-0.966792
-0.95097
-0.937526
-0.922508
-0.750228
-0.862718
-0.934804
-0.973542
-0.984617
-0.981126
-0.970527
-0.955017
-0.946768
-0.933774
-0.755677
-0.869975
-0.943011
-0.982296
-0.995144
-0.993762
-0.98777
-0.975531
-0.971866
-0.959535
-0.764825
-0.881534
-0.956587
-0.997908
-1.01453
-1.01791
-1.0178
-1.01184
-1.01061
-0.999449
1.18608
1.17563
1.16
1.14249
1.12395
1.10359
1.08134
1.05925
1.04159
1.03757
1.28512
1.28201
1.27461
1.26499
1.25385
1.24071
1.22557
1.21017
1.1984
1.19904
1.37958
1.38031
1.37802
1.37404
1.36885
1.36208
1.3536
1.34456
1.33815
1.34316
1.46497
1.46887
1.471
1.47205
1.47215
1.47091
1.468
1.46399
1.46174
1.47074
1.53946
1.54612
1.55186
1.55688
1.56111
1.56413
1.56552
1.56533
1.56613
1.57826
1.6011
1.61001
1.61872
1.62702
1.63464
1.64118
1.64605
1.64879
1.6515
1.66555
1.64832
1.65894
1.66992
1.68073
1.69096
1.7002
1.70779
1.71275
1.71655
1.73057
1.67961
1.69127
1.7037
1.71614
1.72807
1.73917
1.74884
1.75588
1.76071
1.77181
1.69344
1.70526
1.71796
1.73061
1.74267
1.75383
1.76358
1.77092
1.77636
1.78893
1.68902
1.70017
1.712
1.72355
1.73424
1.74371
1.7515
1.75693
1.76148
1.77766
-0.624319
-0.658078
-0.700997
-0.752743
-0.813138
-0.88144
-0.95807
-1.03636
-1.1061
-1.15469
-0.431567
-0.468258
-0.512803
-0.565449
-0.626775
-0.696719
-0.772631
-0.850792
-0.921231
-0.970068
-0.214382
-0.254428
-0.301017
-0.354604
-0.41583
-0.484914
-0.560053
-0.636508
-0.705595
-0.754545
0.013412
-0.0293921
-0.0776871
-0.131805
-0.192378
-0.259776
-0.332462
-0.405491
-0.471518
-0.516593
0.23602
0.192115
0.143772
0.0909057
0.0328577
-0.0309111
-0.0992178
-0.167467
-0.228898
-0.267999
0.441827
0.39945
0.353608
0.3043
0.250821
0.192523
0.130321
0.0684841
0.0134113
-0.0191204
0.626069
0.587913
0.547125
0.503566
0.45646
0.405143
0.350405
0.296194
0.248555
0.222755
0.79204
0.759499
0.725022
0.688194
0.648166
0.60434
0.55747
0.511228
0.471386
0.451974
0.947589
0.920044
0.890605
0.859419
0.825707
0.788861
0.749549
0.71108
0.678895
0.664823
1.08989
1.06665
1.0402
1.01326
0.985395
0.955638
0.924204
0.8937
0.86888
0.859787
1.67106
1.60939
1.59087
1.55293
1.5358
1.52023
1.50061
1.47722
1.41811
1.32241
1.65668
1.60697
1.58925
1.55493
1.54003
1.52594
1.5095
1.49007
1.44868
1.39052
1.64433
1.60434
1.58618
1.55614
1.54296
1.53038
1.51717
1.50409
1.47958
1.45498
1.63385
1.60146
1.5842
1.55734
1.54516
1.53384
1.52364
1.51684
1.50649
1.50983
1.62501
1.59837
1.58258
1.55819
1.54672
1.5363
1.52859
1.52716
1.52866
1.55507
1.61762
1.59513
1.58075
1.5584
1.54762
1.53771
1.53192
1.53483
1.54613
1.59079
1.61149
1.59181
1.57873
1.55792
1.54783
1.53809
1.53363
1.53971
1.55865
1.61699
1.60644
1.58848
1.57665
1.55689
1.54734
1.53745
1.53371
1.54172
1.56593
1.63353
1.60241
1.58521
1.5746
1.55554
1.54622
1.53579
1.53222
1.54087
1.56779
1.64019
1.59939
1.58208
1.57263
1.55405
1.54457
1.53315
1.52925
1.53721
1.56416
1.63676
1.79317
1.6204
1.57843
1.53279
1.51319
1.49509
1.46676
1.42636
1.33666
1.23324
1.754
1.62414
1.58624
1.53872
1.51632
1.49692
1.46753
1.42707
1.33558
1.22004
1.73079
1.62238
1.58733
1.54174
1.51922
1.50019
1.47142
1.43259
1.34409
1.22259
1.70784
1.6172
1.58813
1.54578
1.52418
1.50582
1.47861
1.44309
1.358
1.23392
1.68794
1.61257
1.58947
1.54946
1.52974
1.51253
1.48837
1.45652
1.378
1.25412
0.997516
0.896228
0.769372
0.612644
0.428512
0.222083
0.00316029
-0.215242
-0.420107
-0.601157
0.986468
0.886611
0.762224
0.609693
0.431009
0.229225
0.0121957
-0.207205
-0.414733
-0.598244
0.99913
0.89727
0.770569
0.617817
0.440197
0.239003
0.021138
-0.200675
-0.411395
-0.598058
1.02552
0.914883
0.781913
0.627674
0.449951
0.24809
0.0284775
-0.196318
-0.410672
-0.600891
1.06994
0.941727
0.796166
0.637158
0.457663
0.25455
0.0330841
-0.19471
-0.412898
-0.607009
)
;

boundaryField
{
    left
    {
        type            zeroGradient;
    }
    right
    {
        type            fixedValue;
        value           uniform 0;
    }
    down
    {
        type            zeroGradient;
    }
    up
    {
        type            zeroGradient;
    }
    cylinder
    {
        type            zeroGradient;
    }
    defaultFaces
    {
        type            empty;
    }
}


// ************************************************************************* //
