/*--------------------------------*- C++ -*----------------------------------*\
| =========                 |                                                 |
| \\      /  F ield         | OpenFOAM: The Open Source CFD Toolbox           |
|  \\    /   O peration     | Version:  2406                                  |
|   \\  /    A nd           | Website:  www.openfoam.com                      |
|    \\/     M anipulation  |                                                 |
\*---------------------------------------------------------------------------*/
FoamFile
{
    version     2.0;
    format      ascii;
    arch        "LSB;label=32;scalar=64";
    class       surfaceScalarField;
    location    "1.45";
    object      phi;
}
// * * * * * * * * * * * * * * * * * * * * * * * * * * * * * * * * * * * * * //

dimensions      [0 3 -1 0 0 0 0];

oriented        oriented;

internalField   nonuniform List<scalar> 
3485
(
-0.00133367
0.000275284
0.00105839
-0.00273341
0.000191225
0.00120851
-0.00347304
-5.91612e-05
0.000798794
-0.00289179
-0.00062692
4.5669e-05
0.000357942
-0.00240112
-0.000848617
0.00735411
-0.00601839
-0.000977781
0.0184089
-0.011249
0.000194176
0.033484
-0.0178551
0.00278006
0.0523504
-0.0253461
0.00647971
-0.02999
0.010446
0.0718944
-0.000919234
0.00119452
-0.00186512
0.00113711
-0.00220109
0.000276807
-0.000417742
-0.00241027
0.00531395
-0.0081328
0.0158777
-0.0165822
0.0314401
-0.0268113
0.0516099
-0.038025
0.0760964
-0.0498326
-0.0571761
0.103283
-0.000183662
0.00137818
-0.000123896
0.00107735
0.00190652
-0.00175361
0.00842878
-0.00893253
0.0205545
-0.0202585
0.0382838
-0.0343115
0.0610102
-0.0495377
0.0876657
-0.0646804
0.117295
-0.0794618
-0.0892331
0.149352
0.00059477
0.00078341
0.00231499
-0.000642872
0.00849399
-0.00793261
0.021032
-0.0214705
0.0400434
-0.03927
0.0644593
-0.0587274
0.0925928
-0.0776712
0.12264
-0.0947274
0.152815
-0.109637
-0.120077
0.183659
0.000532163
0.000251248
0.00482735
-0.00493806
0.0162142
-0.0193194
0.0352498
-0.0405061
0.0604849
-0.0645051
0.0893718
-0.0876144
0.119303
-0.107602
0.148286
-0.123711
0.174816
-0.136167
-0.145003
0.199742
0.00114736
-0.000896113
0.00921616
-0.0130069
0.0261801
-0.0362834
0.0507772
-0.0651032
0.0793893
-0.0931171
0.108256
-0.116481
0.134798
-0.134144
0.157815
-0.146728
0.177125
-0.155477
-0.161465
0.193588
0.00269982
-0.00359593
0.0150387
-0.0253457
0.0370212
-0.0582659
0.0643188
-0.0924008
0.0916818
-0.12048
0.115749
-0.140548
0.135418
-0.153813
0.151057
-0.162367
0.163623
-0.168043
-0.17202
0.174177
0.00469272
-0.00828865
0.0211262
-0.0417792
0.0457426
-0.0828824
0.071462
-0.11812
0.0935523
-0.14257
0.110704
-0.1577
0.12366
-0.166769
0.133715
-0.172422
0.141934
-0.176262
-0.179079
0.148993
0.00672358
-0.0150122
0.0259109
-0.0609664
0.0495804
-0.106552
0.0704553
-0.138995
0.0861996
-0.158315
0.0975095
-0.16901
0.105884
-0.175143
0.112478
-0.179017
0.117918
-0.181701
-0.183686
0.122526
0.00849948
-0.0235117
0.0280115
-0.0804784
0.0478711
-0.126412
0.0630295
-0.154154
0.0733663
-0.168651
0.0803106
-0.175955
0.0852311
-0.180063
0.0890484
-0.182834
0.092208
-0.184861
0.0948299
-0.186308
-0.0006547
0.012538
-0.0118833
-0.00282467
0.0301661
-0.0279961
-0.00594039
0.0402117
-0.037096
-0.00947653
0.0455324
-0.0419963
-0.0131642
0.048441
-0.0447534
-0.0168587
0.0500654
-0.0463709
-0.0204471
0.0508971
-0.0473087
-0.0238418
0.0511922
-0.0477975
-0.027012
0.0510975
-0.0479273
0.0507266
-0.0300357
-0.0477028
0.000382629
0.0121554
-0.000238809
0.0307875
-0.00195267
0.0419255
-0.00429434
0.0478741
-0.00692658
0.0510733
-0.00969331
0.0528321
-0.0125131
0.0537169
-0.0153207
0.0539998
-0.0180689
0.0538457
0.0533925
-0.0207349
0.00153335
0.010622
0.00295299
0.0293679
0.00325347
0.0416251
0.00267087
0.0484567
0.0016428
0.0521013
0.000431476
0.0540434
-0.000854715
0.0550031
-0.0021727
0.0553178
-0.00350551
0.0551785
0.0547633
-0.00487628
0.00263358
0.00798846
0.0065096
0.0254919
0.009553
0.0385817
0.0115371
0.0464726
0.0128415
0.0507969
0.0138136
0.0530714
0.0146456
0.054171
0.0154298
0.0545336
0.0162277
0.0543806
0.0538819
0.017109
0.00329837
0.0046901
0.00952296
0.0192673
0.0157106
0.032394
0.0209078
0.0412754
0.0251977
0.0465069
0.0289138
0.0493554
0.032341
0.0507438
0.0356743
0.0512004
0.039061
0.0509939
0.0502156
0.0427273
0.00306358
0.00162651
0.0106171
0.0117138
0.0194792
0.023532
0.0279666
0.032788
0.0356355
0.038838
0.042611
0.0423799
0.0491684
0.0441864
0.0555677
0.044801
0.0620431
0.0445185
0.0433233
0.0689354
0.00189357
-0.000267059
0.00897271
0.00463461
0.0189412
0.0135635
0.0297044
0.0220249
0.0402696
0.0282727
0.0503843
0.0322653
0.0601369
0.0344338
0.0697282
0.0352098
0.0794014
0.0348453
0.0330039
0.0897208
0.00095121
-0.00121827
0.00559004
-4.22049e-06
0.0142464
0.00490707
0.0250203
0.0112511
0.0366058
0.0166871
0.0484388
0.0204323
0.0603538
0.0225187
0.0723772
0.0231864
0.0846513
0.0225712
0.019804
0.0978511
0.00063558
-0.00185385
0.00233584
-0.00170449
0.00716265
8.0263e-05
0.0150654
0.00334829
0.0248817
0.0068709
0.0359226
0.00939134
0.0479092
0.0105321
0.0607874
0.0103082
0.074644
0.00871471
0.00472546
0.0897225
-0.000795459
-0.00129143
-0.000412377
0.00298158
0.00900386
0.0174174
0.0281437
0.041232
0.0564264
0.0715978
-0.0424442
0.415561
-0.403153
-0.0447836
0.294577
-0.292237
-0.0346417
0.082199
-0.092341
-0.00320399
-0.124486
0.0930487
0.0388206
-0.261963
0.219938
0.0778286
-0.303695
0.264687
0.10856
-0.28705
0.256319
0.129112
-0.233154
0.212601
0.14338
-0.18672
0.172453
-0.0998727
0.0937932
-0.0390336
0.43386
-0.0497705
0.305313
-0.0402939
0.0727225
-0.00589543
-0.158885
0.0389866
-0.306845
0.0796699
-0.344379
0.111287
-0.318667
0.132223
-0.25409
0.146967
-0.201465
-0.106349
-0.0263263
0.45531
-0.0441129
0.3231
-0.0352727
0.0638823
0.00163186
-0.19579
0.0477265
-0.352939
0.088068
-0.38472
0.118204
-0.348803
0.137702
-0.273588
0.151841
-0.215604
-0.112946
-0.00221185
0.474631
-0.0243426
0.345231
-0.0184543
0.057994
0.0190027
-0.233246
0.0665741
-0.400511
0.105694
-0.42384
0.132069
-0.375178
0.147642
-0.289162
0.159297
-0.227258
-0.118982
0.0302303
0.487128
0.00524021
0.370221
0.00930125
0.053933
0.0437334
-0.267679
0.0922665
-0.449044
0.13181
-0.463384
0.15446
-0.397828
0.164279
-0.29898
0.171086
-0.234065
-0.123298
0.0680166
0.488047
0.0423174
0.39592
0.0423429
0.0539074
0.0712794
-0.296615
0.118905
-0.49667
0.161048
-0.505527
0.183332
-0.420112
0.188388
-0.304036
0.188831
-0.234508
-0.124617
0.108544
0.469223
0.0851164
0.419348
0.0796019
0.059422
0.102683
-0.319696
0.145788
-0.539775
0.188553
-0.548292
0.213453
-0.445012
0.217635
-0.308218
0.212718
-0.229592
-0.122469
0.144897
0.422177
0.129305
0.434941
0.120364
0.0683625
0.140315
-0.339648
0.177172
-0.576632
0.215208
-0.586328
0.24098
-0.470783
0.247481
-0.314719
0.240517
-0.222627
-0.117942
0.173394
0.338506
0.171143
0.437191
0.15994
0.0795658
0.179878
-0.359586
0.212728
-0.609482
0.243837
-0.617437
0.266042
-0.492988
0.274401
-0.323078
0.268447
-0.216674
-0.113155
0.179264
0.230839
0.201553
0.414903
0.196101
0.0850173
0.214473
-0.377957
0.246138
-0.641147
0.273277
-0.644577
0.290039
-0.50975
0.297419
-0.330458
0.293319
-0.212573
-0.109936
0.285557
0.152032
-0.20675
0.388476
0.311984
0.488469
-0.0149758
0.576798
-0.466286
0.61555
-0.679899
0.606117
-0.635144
0.571215
-0.474848
0.537335
-0.296578
0.505455
-0.180693
-0.0909915
0.43681
0.158589
-0.443367
0.544813
0.203981
0.666969
-0.137132
0.727413
-0.52673
0.72643
-0.678916
0.689023
-0.597737
0.634091
-0.419916
0.584
-0.246487
0.543656
-0.140349
-0.0696574
0.625119
0.151367
-0.617896
0.719817
0.109283
0.809887
-0.227202
0.826454
-0.543296
0.788899
-0.641362
0.727814
-0.536652
0.663145
-0.355247
0.608897
-0.192239
0.565141
-0.0965935
-0.0468526
0.767596
0.108406
-0.724635
0.847759
0.0291204
0.902231
-0.281675
0.899407
-0.540472
0.845949
-0.587904
0.762297
-0.453
0.677704
-0.270653
0.613877
-0.128413
0.567746
-0.050462
-0.0241227
0.850512
0.0512005
-0.793307
0.918195
-0.0385626
0.953241
-0.316721
0.934593
-0.521824
0.861838
-0.515149
0.764423
-0.355585
0.672691
-0.178921
0.605076
-0.0607981
0.55898
-0.00436623
-0.0022791
0.890146
-0.00281473
-0.836131
0.949431
-0.0978482
0.974841
-0.342131
0.933968
-0.480951
0.831249
-0.412429
0.714641
-0.238977
0.622782
-0.0870625
0.564932
-0.00294786
0.530183
0.0303827
0.0139693
0.89991
-0.0495572
-0.853168
0.953331
-0.151269
0.949164
-0.337964
0.860895
-0.392682
0.729594
-0.281128
0.611779
-0.121163
0.534116
-0.00939956
0.493414
0.0377543
0.475522
0.0482746
0.0216065
0.872433
-0.0854161
-0.836574
0.894816
-0.173653
0.820629
-0.263776
0.665646
-0.237699
0.514996
-0.130478
0.422487
-0.0286534
0.38449
0.0285977
0.376216
0.0460277
0.380998
0.0434934
0.0189666
0.728521
-0.0833714
-0.730565
0.667644
-0.112776
0.502022
-0.0981544
0.321928
-0.0576042
0.215391
-0.023941
0.185239
0.00149785
0.195812
0.0180256
0.217824
0.0240155
0.240052
0.0212656
0.00924648
0.292776
-0.376148
0.18
0.081846
0.0242418
0.000300851
0.0017987
0.0198243
0.0438398
0.0651053
0.522548
0.0877421
-0.51546
0.528178
0.116895
0.534194
0.142976
0.537939
0.170432
0.53779
0.193737
0.521214
0.216318
0.478535
0.226338
0.401488
0.226399
0.290873
0.213898
0.156017
0.526451
0.0772596
-0.515969
0.537457
0.10589
0.548673
0.13176
0.560497
0.158609
0.570488
0.183746
0.579734
0.207072
0.573443
0.232629
0.561031
0.238811
0.515332
0.259597
0.227982
0.535914
0.0676069
-0.526262
0.548809
0.0929956
0.562252
0.118316
0.578885
0.141975
0.593668
0.168963
0.612965
0.187775
0.627041
0.218553
0.639372
0.226481
0.640893
0.258076
0.250978
0.551298
0.0578994
-0.54159
0.565041
0.0792526
0.580159
0.103198
0.59927
0.122865
0.618976
0.149256
0.641907
0.164844
0.666462
0.193998
0.6885
0.204443
0.71314
0.233436
0.239483
0.563658
0.0473766
-0.553135
0.578198
0.0647124
0.595616
0.0857792
0.616537
0.101945
0.640903
0.12489
0.666921
0.138825
0.69799
0.16293
0.727388
0.175045
0.76289
0.197934
0.209066
0.566382
0.03616
-0.555166
0.581557
0.0495382
0.600901
0.0664351
0.623584
0.079262
0.651242
0.0972311
0.680806
0.109261
0.716331
0.127405
0.752366
0.13901
0.79445
0.15585
0.167386
0.556229
0.0246133
-0.544683
0.571689
0.0340783
0.59212
0.0460045
0.616157
0.0552242
0.645729
0.0676594
0.678249
0.0767411
0.71674
0.0889149
0.757677
0.0980724
0.804464
0.109063
0.118682
0.526952
0.0129636
-0.515302
0.542128
0.0189019
0.562977
0.0251555
0.587175
0.0310261
0.617475
0.0373599
0.651032
0.0431835
0.690882
0.0490649
0.734074
0.0548807
0.783566
0.0595709
0.0656743
0.456101
0.0030167
-0.446154
0.469673
0.00533066
0.487746
0.0070824
0.509399
0.00937241
0.535881
0.010878
0.565931
0.0131343
0.600878
0.0141174
0.639424
0.0163346
0.68297
0.0160256
0.0180786
0.265794
-0.262777
0.271125
0.278207
0.287579
0.298457
0.311592
0.325709
0.342044
0.358069
0.069445
0.133327
-0.12234
-0.0804324
0.0593834
0.13509
-0.125028
0.0501764
0.13703
-0.127823
0.0413591
0.139608
-0.130791
0.0326559
0.142325
-0.133622
0.0240673
0.144375
-0.135786
0.0158281
0.144115
-0.135876
0.00827166
0.138805
-0.131249
0.00231662
0.120313
-0.114358
0.0647149
-0.0623983
0.0673126
0.143651
-0.0776364
0.0572653
0.145137
0.0476424
0.146653
0.0384987
0.148752
0.0297197
0.151104
0.0213272
0.152767
0.0135401
0.151902
0.00664057
0.145705
0.00157641
0.125377
0.0662913
0.0611153
0.153203
-0.0706678
0.0515292
0.154723
0.0422144
0.155968
0.0333665
0.1576
0.0250184
0.159452
0.017252
0.160534
0.0102629
0.158892
0.00431174
0.151656
0.000417548
0.129272
0.0667089
0.0508432
0.161853
-0.0594928
0.0422255
0.163341
0.0338198
0.164374
0.0258106
0.165609
0.018315
0.166948
0.0115424
0.167306
0.0057355
0.164699
0.00104392
0.156348
-0.000981071
0.131297
0.0657278
0.0372609
0.169374
-0.0447817
0.0298169
0.170785
0.0224764
0.171714
0.0154834
0.172602
0.00914261
0.173288
0.00375736
0.172692
-0.000480601
0.168936
-0.00314279
0.15901
-0.00287497
0.131029
0.0628528
0.021215
0.17572
-0.027561
0.0151221
0.176878
0.00935907
0.177477
0.00395986
0.178001
-0.000893922
0.178142
-0.00455076
0.176348
-0.00707752
0.171463
-0.00772954
0.159662
-0.00482291
0.128122
0.0580299
0.00174599
0.180959
-0.00698576
-0.00310141
0.181725
-0.00770659
0.182082
-0.0117463
0.182041
-0.014294
0.18069
-0.0155572
0.177612
-0.0157592
0.171665
-0.0133171
0.15722
-0.0069294
0.121734
0.0511005
-0.018083
0.184262
0.0147804
-0.0211319
0.184774
-0.0238962
0.184847
-0.0257578
0.183903
-0.0263594
0.181292
-0.0261758
0.177428
-0.0242107
0.1697
-0.0184715
0.151481
-0.00851867
0.111781
0.0425819
-0.043194
0.186614
0.0408417
-0.0446366
0.186217
-0.0446862
0.184896
-0.0433739
0.18259
-0.041714
0.179632
-0.0390311
0.174745
-0.0334662
0.164135
-0.0233635
0.141378
-0.00951383
0.0979318
0.033068
-0.0676736
0.0679798
-0.0663178
-0.0642554
-0.0617284
-0.0580513
-0.0519578
-0.041976
-0.0270097
-0.00955631
0.0978109
0.0335079
-0.108756
-0.022563
0.0866779
0.0343394
-0.0232064
0.0753669
0.0352406
-0.0239296
0.063873
0.0362102
-0.0247163
0.0521948
0.0371964
-0.0255183
0.0403491
0.0380223
-0.0261766
0.0284278
0.0381862
-0.0262649
0.016745
0.0365356
-0.0248529
0.00625836
0.0308461
-0.0203594
0.0165493
-0.0102909
0.0983835
0.0446021
-0.109478
0.0871518
0.045571
0.0757465
0.0466459
0.0641715
0.0477853
0.0524304
0.0489375
0.0405423
0.0499104
0.0285928
0.0501357
0.0168675
0.0482609
0.0062958
0.0414178
0.0228451
0.0987647
0.0556496
-0.109812
0.0875366
0.0567991
0.0761269
0.0580557
0.0645336
0.0593785
0.0527601
0.060711
0.0408263
0.0618442
0.028821
0.062141
0.0170244
0.0600575
0.00635297
0.0520892
0.0291981
0.0976044
0.0666094
-0.108564
0.0865113
0.0678922
0.0752353
0.0693316
0.0637672
0.0708466
0.052105
0.0723732
0.0402726
0.0736766
0.0283706
0.0740431
0.0166893
0.0717387
0.00615838
0.0626202
0.0353564
0.0953779
0.0773855
-0.106154
0.0844974
0.0787727
0.0734872
0.0803419
0.0623154
0.0820184
0.0509451
0.0837435
0.0393722
0.0852495
0.0277019
0.0857134
0.016245
0.0831956
0.00593295
0.0729323
0.0412894
0.0915283
0.0881189
-0.102262
0.0807603
0.0895406
0.0698768
0.0912254
0.0589073
0.0929879
0.0478583
0.0947925
0.0367366
0.0963711
0.025638
0.0968121
0.0148528
0.0939807
0.00526761
0.0825174
0.046557
0.0879877
0.0982287
-0.0980975
0.0778075
0.0997209
0.0674512
0.101582
0.0568703
0.103569
0.0460885
0.105574
0.0352002
0.10726
0.0243991
0.107613
0.014016
0.104364
0.00492454
0.0916089
0.0514815
0.0810692
0.107971
-0.0908118
0.0714302
0.10936
0.0617726
0.111239
0.0520347
0.113307
0.0421445
0.115465
0.0321151
0.117289
0.0221235
0.117605
0.0125227
0.113965
0.0042304
0.0999012
0.055712
0.0763082
0.11618
-0.0845165
0.0677971
0.117871
0.0587443
0.120292
0.0493105
0.12274
0.0396593
0.125116
0.0299365
0.127012
0.020377
0.127164
0.0113266
0.123015
0.0036781
0.10755
0.0593901
0.0667823
-0.0729422
0.0596249
0.0520937
0.0440431
0.035537
0.0267624
0.0180506
0.00981667
0.00300824
0.201877
-0.013554
0.00966708
0.207931
0.000289249
-0.00634359
0.210039
0.0824267
-0.0845344
0.207411
0.149392
-0.146764
0.202817
0.168393
-0.163799
0.197081
0.171791
-0.166056
0.188999
0.162261
-0.154178
0.177977
0.169959
-0.158937
0.155494
0.187039
-0.164555
0.223084
-0.176346
0.201823
-0.0173868
0.207362
-0.00525043
0.208555
0.0812338
0.205097
0.15285
0.200038
0.173453
0.194126
0.177703
0.186743
0.169644
0.176343
0.180359
0.155233
0.208148
0.268839
0.201691
-0.0210877
0.206643
-0.0102025
0.206774
0.0811027
0.202258
0.157366
0.19646
0.179251
0.190044
0.184119
0.183269
0.176419
0.173088
0.190539
0.153537
0.2277
0.312564
0.201457
-0.0245545
0.205772
-0.0145179
0.204687
0.0821875
0.198857
0.163196
0.192102
0.186005
0.185008
0.191214
0.178739
0.182688
0.168335
0.200944
0.150504
0.245531
0.354504
0.201114
-0.0276782
0.204766
-0.0181699
0.202286
0.0846673
0.194885
0.170597
0.187061
0.19383
0.179243
0.199032
0.173315
0.188616
0.162185
0.212074
0.146285
0.261431
0.394634
0.200659
-0.0303476
0.203622
-0.0211328
0.199542
0.088747
0.190398
0.179742
0.181517
0.20271
0.172964
0.207585
0.167082
0.194498
0.154866
0.22429
0.141206
0.27509
0.433579
0.200072
-0.0324296
0.202281
-0.0233425
0.196423
0.0946053
0.185518
0.190647
0.175679
0.212549
0.166341
0.216923
0.160134
0.200705
0.146722
0.237702
0.135057
0.286755
0.470538
0.199288
-0.0337279
0.200625
-0.0246791
0.192943
0.102287
0.180421
0.203169
0.16972
0.22325
0.159532
0.22711
0.152697
0.207541
0.138155
0.252244
0.128674
0.296236
0.508401
0.198197
-0.0339355
0.198511
-0.024993
0.189205
0.111594
0.175315
0.217058
0.16382
0.234745
0.152742
0.238189
0.145126
0.215156
0.130126
0.267244
0.121602
0.30476
0.545486
0.196783
-0.0327287
0.195779
-0.0239893
0.185337
0.122036
0.170381
0.232014
0.158319
0.246807
0.146344
0.250164
0.138099
0.223402
0.121751
0.283592
0.116041
0.31047
0.588585
0.304187
-0.0349052
0.311331
-0.0311339
0.318181
0.115186
0.315068
0.235127
0.314187
0.247688
0.307078
0.257273
0.315042
0.215437
0.312978
0.285655
0.359556
0.263892
0.51635
0.431792
0.301865
-0.03476
0.308438
-0.0377071
0.32238
0.101245
0.328808
0.228699
0.336823
0.239673
0.340053
0.254042
0.354422
0.201068
0.357245
0.282833
0.381162
0.239975
0.444253
0.453259
0.299367
-0.0321167
0.305553
-0.0438937
0.326565
0.0802338
0.350547
0.204717
0.366354
0.223866
0.386548
0.233848
0.404823
0.182793
0.415221
0.272435
0.435779
0.219417
0.380849
0.499183
0.297473
-0.0275794
0.30286
-0.0492806
0.329331
0.0537624
0.372829
0.161218
0.394143
0.202553
0.428604
0.199386
0.452115
0.159283
0.466735
0.257814
0.497331
0.188821
0.328743
0.549437
0.297391
-0.0229603
0.301041
-0.0529304
0.331342
0.0234616
0.386681
0.105879
0.415485
0.17375
0.455836
0.159035
0.483699
0.131419
0.50502
0.236494
0.539522
0.154319
0.278836
0.589429
0.299639
-0.020589
0.30227
-0.0555611
0.333525
-0.00779431
0.389556
0.0498484
0.427551
0.135755
0.469646
0.11694
0.500139
0.100927
0.529517
0.207116
0.561327
0.122509
0.226332
0.613831
0.304218
-0.0227966
0.307462
-0.0588057
0.334713
-0.0350454
0.380567
0.00399461
0.42492
0.0914023
0.467503
0.0743561
0.497088
0.0713419
0.535611
0.168593
0.567107
0.0910133
0.169545
0.623894
0.308644
-0.0294308
0.310535
-0.0606961
0.328511
-0.0530216
0.354068
-0.0215621
0.399107
0.0463629
0.437703
0.0357602
0.462062
0.0469827
0.514977
0.115678
0.54925
0.0567404
0.11002
0.608775
0.30789
-0.0353103
0.299286
-0.0520925
0.294131
-0.0478661
0.293087
-0.0205184
0.327005
0.0124446
0.349943
0.0128224
0.373829
0.0230971
0.439821
0.0496854
0.472305
0.0242571
0.0495898
0.532735
0.2667
0.214607
0.166741
0.146223
0.158668
0.17149
0.194587
0.244273
0.26853
0.318119
0.447542
-0.0961827
0.456716
-0.0868105
0.464758
-0.078709
0.472345
-0.0670805
0.479726
-0.0521621
0.486575
-0.0344101
0.493534
-0.0139453
0.499769
0.00854522
0.507402
0.0332091
0.0599218
0.462968
-0.105892
0.471276
-0.0951179
0.477521
-0.0849543
0.482174
-0.0717334
0.486698
-0.0566861
0.490722
-0.0384342
0.495675
-0.0188989
0.501113
0.0031073
0.507795
0.0265273
0.0517482
0.501511
-0.108219
0.503807
-0.0974148
0.505316
-0.0864634
0.505647
-0.0720639
0.506328
-0.0573676
0.507271
-0.0393769
0.509728
-0.0213553
0.51306
-0.000224902
0.518784
0.0208031
0.0442706
0.5443
-0.103083
0.539365
-0.0924792
0.534673
-0.081772
0.530579
-0.0679692
0.527608
-0.054397
0.526098
-0.0378666
0.5265
-0.0217571
0.529054
-0.00277944
0.533916
0.0159412
0.0365965
0.577529
-0.0911831
0.566871
-0.081821
0.557365
-0.0722658
0.549768
-0.0603724
0.543945
-0.0485741
0.540471
-0.034393
0.53923
-0.0205153
0.541002
-0.0045523
0.545282
0.0116621
0.0287429
0.598116
-0.0754677
0.583465
-0.0671701
0.570515
-0.0593159
0.559955
-0.049813
0.551652
-0.0402711
0.546115
-0.028856
0.543332
-0.0177316
0.543854
-0.00507497
0.547613
0.00790377
0.0211899
0.603971
-0.0555444
0.586086
-0.049285
0.570147
-0.0433774
0.556898
-0.0365642
0.546356
-0.0297293
0.538984
-0.0214838
0.534963
-0.0137106
0.534248
-0.00435981
0.537581
0.00457057
0.0140887
0.58532
-0.0320896
0.564899
-0.028864
0.546857
-0.0253352
0.531874
-0.0215812
0.519851
-0.0177064
0.51143
-0.0130633
0.506468
-0.00874799
0.505467
-0.00335863
0.508626
0.00141107
0.00741284
0.511297
-0.0106515
0.492085
-0.00965241
0.475528
-0.00877781
0.461792
-0.00784603
0.450885
-0.00679889
0.443267
-0.00544501
0.438686
-0.00416714
0.43772
-0.00239309
0.44
-0.000868403
0.00125808
0.307468
0.297816
0.289038
0.281192
0.274393
0.268948
0.264781
0.262388
0.261519
0.00584325
0.0489039
-0.0547472
0.011062
0.109281
-0.1145
0.0130689
0.138612
-0.140619
0.0132783
0.150524
-0.150734
0.0132684
0.154871
-0.154861
0.0123424
0.157313
-0.156387
0.0104233
0.157329
-0.15541
0.00821727
0.154504
-0.152298
0.0062498
0.148541
-0.146573
0.137468
0.00494457
-0.136163
0.0072592
0.0416447
0.0157514
0.100789
0.0211969
0.133166
0.0241015
0.14762
0.0258064
0.153166
0.0271532
0.155967
0.0276803
0.156802
0.0273848
0.154799
0.0266082
0.149317
0.138669
0.0254075
0.00793588
0.0337089
0.0193008
0.0894237
0.0281755
0.124292
0.0340173
0.141778
0.0378949
0.149289
0.0410983
0.152763
0.0437358
0.154164
0.0453904
0.153144
0.0459095
0.148798
0.139605
0.0449733
0.00776698
0.0259419
0.0212026
0.0759881
0.0332519
0.112242
0.0421032
0.132927
0.0484381
0.142954
0.0535282
0.147673
0.0579312
0.149761
0.0613971
0.149679
0.0634347
0.146761
0.139647
0.0633924
0.00693769
0.0190042
0.0212651
0.0616606
0.0358901
0.0976174
0.0476986
0.121118
0.0566089
0.134043
0.0636973
0.140585
0.0697461
0.143712
0.074833
0.144592
0.0784783
0.143116
0.138283
0.0798419
0.00574022
0.013264
0.0196811
0.0477198
0.0358841
0.0814143
0.0502343
0.106768
0.0616456
0.122632
0.070743
0.131487
0.0783643
0.136091
0.084865
0.138091
0.0900008
0.13798
0.135315
0.0929689
0.00445043
0.00881356
0.0169503
0.0352199
0.0335505
0.0648142
0.0498249
0.0904936
0.0635989
0.108858
0.0747644
0.120322
0.0840338
0.126822
0.0919939
0.130131
0.0987311
0.131242
0.130221
0.103825
0.00322781
0.00558575
0.0135484
0.0248993
0.0291849
0.0491777
0.0464099
0.0732686
0.0622448
0.0930234
0.075538
0.107028
0.0864606
0.115899
0.095623
0.120969
0.103404
0.123461
0.123996
0.109629
0.00220703
0.00337872
0.0100731
0.0170332
0.0234567
0.0357941
0.040174
0.0565512
0.0573496
0.0758479
0.0729902
0.0913878
0.0863853
0.102504
0.0977121
0.109642
0.107533
0.11364
0.115075
0.116454
0.00145768
0.00192104
0.00701235
0.0114785
0.0172932
0.0255133
0.0316681
0.0421763
0.0482494
0.0592666
0.0649531
0.0746842
0.0803328
0.0871241
0.0937416
0.096233
0.105141
0.10224
0.105265
0.114951
0.000929266
0.000991778
0.00451644
0.00789135
0.0115225
0.0185072
0.0223035
0.0313953
0.036221
0.0453491
0.0518934
0.0590118
0.0678738
0.0711437
0.0831171
0.0809897
0.096974
0.0883836
0.0935967
0.108642
0.000451871
0.000539907
0.00226317
0.00608005
0.00615284
0.0146175
0.0128949
0.0246532
0.022759
0.0354851
0.0352454
0.0465253
0.0493535
0.0570355
0.0640361
0.0663071
0.0784173
0.0740024
0.0801083
0.0919058
-0.000100664
0.000640571
-6.93043e-05
0.00604869
0.000955614
0.0135926
0.00385261
0.0217562
0.009251
0.0300867
0.0173195
0.0384568
0.0276388
0.0467163
0.0394367
0.0545091
0.0520058
0.0614333
0.0669828
0.0651313
-0.00069156
0.00133213
-0.00212131
0.00747844
-0.00322583
0.0146971
-0.00321152
0.0217419
-0.00147016
0.0283454
0.00243945
0.0345472
0.0086234
0.0405324
0.0167294
0.0464031
0.0262392
0.0519235
0.0561873
0.0370346
-0.00119937
0.0025315
-0.00361151
0.00989058
-0.00602187
0.0171075
-0.00773078
0.0234508
-0.00833909
0.0289537
-0.00751414
0.0337222
-0.00491432
0.0379325
-0.000432554
0.0419214
0.00565593
0.045835
0.0488451
0.0129982
-0.00174037
0.00427188
-0.00501928
0.0131695
-0.00840265
0.0204908
-0.0111727
0.0262209
-0.0130497
0.0308307
-0.0139517
0.0346243
-0.0137192
0.0377
-0.0121296
0.0403318
-0.00922109
0.0429265
0.0446131
-0.00498912
-0.00220527
0.00647714
-0.00618059
0.0171448
-0.0103382
0.0246484
-0.0139295
0.0298121
-0.0166467
0.0335479
-0.0184291
0.0364067
-0.019388
0.0386589
-0.0196252
0.040569
-0.0188924
0.0421936
0.0429563
-0.0172356
-0.00219093
0.00866807
-0.00623324
0.0211871
-0.0105965
0.0290117
-0.0145686
0.0337843
-0.0178685
0.0368478
-0.0204328
0.038971
-0.022339
0.0405652
-0.0236629
0.0418929
-0.0244103
0.0429409
0.043331
-0.0247849
-0.00185903
0.0105271
-0.00555572
0.0248838
-0.00977373
0.0332297
-0.0139079
0.0379184
-0.0177451
0.040685
-0.0212132
0.0424391
-0.0242748
0.0436268
-0.0268535
0.0444716
-0.0289115
0.0449989
0.0450424
-0.0306229
-0.00135622
-0.00446854
-0.00833478
-0.0124126
-0.016481
-0.0204128
-0.0240947
-0.0274206
-0.030349
-0.0330094
0.0933269
0.392624
-0.377309
0.0657599
0.260572
-0.233005
0.0456161
0.16024
-0.140096
0.0427217
0.0629394
-0.060045
0.0497902
-0.00651875
-0.000549746
0.0629223
-0.0521721
0.0390399
0.0784696
-0.0727884
0.0572411
0.093187
-0.0727418
0.0580244
0.106857
-0.0641395
0.0504693
-0.0385191
0.0297023
0.0793939
0.405136
0.0551528
0.284813
0.0411014
0.174291
0.0432585
0.0607822
0.0535173
-0.0167776
0.0679581
-0.0666129
0.0837182
-0.0885485
0.098171
-0.0871945
0.111199
-0.0771675
-0.0465267
0.0605653
0.409702
0.0420043
0.303374
0.0351178
0.181178
0.0423526
0.0535474
0.0560205
-0.0304455
0.0722571
-0.0828494
0.0884605
-0.104752
0.102683
-0.101417
0.115053
-0.0895369
-0.0538032
0.0400455
0.406691
0.0276091
0.315811
0.028571
0.180216
0.0406665
0.0414519
0.057762
-0.047541
0.0759864
-0.101074
0.0929033
-0.121669
0.107016
-0.11553
0.118806
-0.101326
-0.0604365
0.0200114
0.399678
0.0136972
0.322125
0.0223849
0.171528
0.0386364
0.0252005
0.0589322
-0.0678368
0.0792156
-0.121357
0.0970891
-0.139542
0.111272
-0.129713
0.122623
-0.112677
-0.0665132
0.00140632
0.393283
0.00142588
0.322105
0.0164475
0.156507
0.0359002
0.00574782
0.0592134
-0.0911501
0.0817125
-0.143856
0.100834
-0.158664
0.115352
-0.144231
0.126491
-0.123816
-0.072148
-0.014132
0.390179
-0.0081097
0.316083
0.00978455
0.138612
0.0315906
-0.0160583
0.0580149
-0.117574
0.0830818
-0.168923
0.103856
-0.179438
0.119054
-0.159429
0.130284
-0.135047
-0.0774988
-0.0260934
0.391488
-0.0167226
0.306712
0.00137119
0.120519
0.0248708
-0.0395578
0.0548324
-0.147536
0.0830126
-0.197103
0.105942
-0.202368
0.122206
-0.175693
0.133865
-0.146706
-0.0827577
-0.0348258
0.39569
-0.0255859
0.297472
-0.00980748
0.10474
0.0156204
-0.0649857
0.0496835
-0.181599
0.0815357
-0.228956
0.1071
-0.227932
0.124772
-0.193364
0.137172
-0.159106
-0.088128
-0.0404717
-0.0352365
-0.0228372
0.00522578
0.0435648
0.0792968
0.107683
0.126921
0.140268
0.00876226
0.0246531
-0.0334153
0.00238024
0.00638202
0.000464169
0.00191607
-0.00109493
0.0015591
-0.00166743
0.000572498
-0.000226226
-0.0014412
0.00334059
-0.00356682
0.00838667
-0.00504608
0.012716
-0.00432934
-0.00259774
0.0651941
0.0929956
-0.133537
0.0354332
0.0361429
0.0195903
0.0177589
0.0116518
0.00949759
0.0127595
-0.000535112
0.0209433
-0.00962509
0.0316883
-0.0143117
0.0423587
-0.0157165
0.05098
-0.0129507
-0.00761091
0.128322
0.191121
-0.226447
0.0753743
0.0890905
0.0460902
0.0470431
0.0335691
0.0220186
0.0342289
-0.00119486
0.0438144
-0.0192106
0.0567707
-0.027268
0.0696671
-0.028613
0.0807297
-0.0240133
-0.0142066
0.173962
0.294769
-0.27761
0.105306
0.157746
0.0641686
0.0881806
0.0474733
0.0387139
0.0467683
-0.000489855
0.0561481
-0.0285903
0.0704548
-0.0415747
0.0847204
-0.0428786
0.097493
-0.0367858
-0.021798
0.200823
-0.283363
0.125564
0.0736486
0.0523176
0.051278
0.0617275
0.0773939
0.0925396
0.106223
0.01122
0.000155859
-0.0113758
0.0123287
-0.00110875
0.0144463
-0.00211756
0.017286
-0.00283975
0.0207303
-0.00344434
0.0240698
-0.00333948
0.0277809
-0.00371108
0.0302146
-0.00243367
0.0328632
-0.00264859
-0.000552169
0.0295231
1.70353e-05
-0.0293843
0.0328692
-0.0044549
0.0391017
-0.00835006
0.047909
-0.0116471
0.0591003
-0.0146356
0.0715225
-0.0157617
0.0861588
-0.0183474
0.100262
-0.0165373
0.117052
-0.0194379
-0.0170371
0.0440229
-0.000791298
-0.0432146
0.0494469
-0.0098789
0.0592434
-0.0181465
0.073279
-0.0256827
0.0912601
-0.0326167
0.1124
-0.0369012
0.137308
-0.0432558
0.1635
-0.0427289
0.194604
-0.0505424
-0.0488803
0.0550393
-0.00244455
-0.0533861
0.0621525
-0.016992
0.074648
-0.030642
0.0924289
-0.0434636
0.11494
-0.0551274
0.142083
-0.0640448
0.172259
-0.0734316
0.205956
-0.0764262
0.242365
-0.0869513
-0.0841253
0.0631227
-0.0606227
0.0715382
0.0858695
0.105798
0.130513
0.159437
0.18983
0.223034
0.252536
0.0684171
-0.0639025
0.0702805
-0.0747951
0.061347
-0.0647369
0.071807
0.053963
-0.0658548
0.0732388
0.0461785
-0.0669551
0.0747396
0.037947
-0.0679303
0.0761618
0.0293347
-0.0685506
0.0771628
0.0205477
-0.0681982
0.0769852
0.0119334
-0.0654829
0.0740972
0.00428138
-0.0569716
0.0646236
-0.0324473
0.0367287
0.0739944
-0.0561461
-0.0817508
0.0659676
-0.0567102
0.0575072
-0.0573944
0.0486535
-0.0581013
0.0395162
-0.058793
0.0302449
-0.0592793
0.0210359
-0.0589892
0.0121775
-0.0566245
0.00438348
-0.0491776
-0.0280639
0.0753791
-0.0474219
-0.0841033
0.0665484
-0.0478795
0.0575944
-0.0484403
0.0485363
-0.0490432
0.039389
-0.0496457
0.0301852
-0.0500755
0.0210309
-0.0498348
0.0121863
-0.0477799
0.00438804
-0.0413793
-0.0236758
0.0788005
-0.0384306
-0.0877919
0.0697244
-0.0388033
0.0605175
-0.0392335
0.051153
-0.0396788
0.0416182
-0.0401109
0.0319512
-0.0404085
0.0222962
-0.0401798
0.0129695
-0.0384533
0.00474134
-0.0331511
-0.0189345
0.0817436
-0.0290782
-0.091096
0.0722568
-0.0293164
0.0626088
-0.0295855
0.0527916
-0.0298615
0.0428182
-0.0301375
0.0327542
-0.0303446
0.0227694
-0.030195
0.0132093
-0.0288931
0.00484886
-0.0247907
-0.0140856
0.0847045
-0.0193813
-0.0944014
0.0748502
-0.0194621
0.064818
-0.0195533
0.054602
-0.0196455
0.044216
-0.0197515
0.0337307
-0.0198593
0.0233472
-0.0198114
0.0134914
-0.0190374
0.00498635
-0.0162857
-0.00909927
0.0877073
-0.00932553
-0.0977631
0.0774748
-0.00922953
0.0670413
-0.00911986
0.0563923
-0.00899655
0.0455302
-0.00888939
0.0345196
-0.0088487
0.0235989
-0.0088907
0.0133512
-0.00878966
0.00482
-0.00775448
-0.00427927
0.0906625
0.00107241
-0.10106
0.0800778
0.00135512
0.0692734
0.00168454
0.0582234
0.00205346
0.04691
0.00242398
0.0353652
0.00269612
0.0238009
0.00267363
0.0129054
0.00210578
0.00418224
0.000968712
-9.70287e-05
0.093512
0.0117225
-0.104162
0.0826717
0.0121953
0.0716241
0.0127322
0.0603505
0.0133271
0.0488373
0.0139371
0.0371042
0.0144292
0.0253059
0.014472
0.0140005
0.0134111
0.00462166
0.0103476
0.00452463
0.095939
-0.10678
0.0849279
0.0737305
0.0623412
0.0507601
0.0390127
0.0272199
0.0157781
0.0057663
0.0141248
-0.134411
-0.0158762
0.0109247
-0.143373
0.00716063
-0.148533
0.0032493
-0.151498
-0.00036648