/*--------------------------------*- C++ -*----------------------------------*\
| =========                 |                                                 |
| \\      /  F ield         | OpenFOAM: The Open Source CFD Toolbox           |
|  \\    /   O peration     | Version:  2406                                  |
|   \\  /    A nd           | Website:  www.openfoam.com                      |
|    \\/     M anipulation  |                                                 |
\*---------------------------------------------------------------------------*/
FoamFile
{
    version     2.0;
    format      ascii;
    arch        "LSB;label=32;scalar=64";
    class       volVectorField;
    location    "1.45";
    object      U;
}
// * * * * * * * * * * * * * * * * * * * * * * * * * * * * * * * * * * * * * //

dimensions      [0 1 -1 0 0 0 0];

internalField   nonuniform List<vector> 
1800
(
(2.41934e-05 -0.006852 0)
(-0.00322407 -0.0150361 -2.30326e-21)
(-0.0079017 -0.0179559 -6.91585e-20)
(-0.00884927 -0.0184812 8.8439e-20)
(-0.00142523 -0.0163676 1.18522e-19)
(0.0323735 -0.00788405 3.19045e-20)
(0.0899082 0.00036895 -4.14834e-20)
(0.172114 0.00958384 -1.76465e-19)
(0.274964 0.0245894 0)
(0.357391 0.0473587 8.31816e-21)
(-0.0108231 0.00336384 1.25709e-20)
(-0.0145358 4.07534e-05 2.31026e-21)
(-0.0108468 -0.00723122 6.75134e-20)
(0.00206611 -0.0161755 9.40096e-20)
(0.0463633 -0.0282278 -1.21486e-20)
(0.130621 -0.0393737 -1.64127e-19)
(0.246279 -0.0482957 5.25653e-20)
(0.387458 -0.0520648 2.72707e-19)
(0.553694 -0.0397734 -1.28286e-20)
(0.661144 -0.035901 -2.35205e-20)
(-0.0154948 0.00893154 1.22427e-20)
(-0.0140561 0.00762957 -5.41264e-20)
(-0.00131497 0.00109173 -4.75387e-20)
(0.0555281 -0.0109335 2.3863e-20)
(0.169127 -0.0275015 -1.70044e-20)
(0.328712 -0.0416301 4.82756e-20)
(0.517919 -0.0491708 -3.25493e-20)
(0.721597 -0.0492814 -2.68411e-19)
(0.94414 -0.0304131 1.02871e-19)
(1.08438 -0.0244702 1.23166e-19)
(-0.0129317 0.00886587 1.40722e-20)
(-0.00575166 0.0105681 7.49854e-20)
(0.0505382 -0.00273411 -6.31634e-20)
(0.184631 -0.0195356 -5.60619e-22)
(0.384029 -0.034442 1.23367e-19)
(0.623946 -0.0417401 -3.70546e-20)
(0.878501 -0.0387704 -1.19176e-19)
(1.12585 -0.0266437 -9.06128e-20)
(1.36372 -0.00318972 -1.32379e-20)
(1.52962 0.0159264 8.21565e-20)
(-0.00480882 0.00305232 1.4471e-21)
(0.0255092 -0.00464803 5.53933e-20)
(0.160838 -0.018915 4.2018e-20)
(0.391419 -0.032327 -9.17989e-20)
(0.682033 -0.0357607 -4.17163e-20)
(0.989377 -0.0263699 6.28135e-20)
(1.27857 -0.00625924 5.3891e-20)
(1.53016 0.0205935 1.02926e-19)
(1.73916 0.0514166 -2.29789e-19)
(1.89056 0.0753692 -1.86557e-19)
(0.00051887 0.000578489 4.00232e-22)
(0.0993536 -0.0196142 1.47503e-19)
(0.341932 -0.0307439 1.06569e-19)
(0.680309 -0.029303 -1.38702e-19)
(1.04551 -0.0117179 1.32177e-19)
(1.37954 0.0174486 -1.08728e-20)
(1.65318 0.0510889 1.37531e-19)
(1.86158 0.0836889 2.25518e-19)
(2.01301 0.111488 -3.09962e-19)
(2.11834 0.132348 -2.44022e-19)
(0.0223698 -0.00200915 -4.19961e-20)
(0.227959 -0.0291617 -2.66786e-19)
(0.595981 -0.0240586 3.08456e-20)
(1.02556 0.00379465 3.59954e-19)
(1.416 0.0441545 -2.20687e-20)
(1.71901 0.0859118 -2.5911e-19)
(1.93192 0.121982 -1.69357e-19)
(2.07352 0.149848 4.94239e-19)
(2.1672 0.169822 5.53542e-19)
(2.22984 0.181614 5.27415e-20)
(0.0693402 -0.00456901 4.36884e-20)
(0.413088 -0.0256799 2.59614e-20)
(0.902675 0.0112666 -1.53811e-19)
(1.37148 0.067691 8.14086e-20)
(1.72511 0.120994 -4.13872e-21)
(1.95729 0.162661 -8.32005e-19)
(2.10012 0.191712 -5.17612e-21)
(2.18885 0.210836 5.95779e-19)
(2.24817 0.222613 -3.60186e-19)
(2.29169 0.229355 -3.61185e-19)
(0.141915 -0.00288091 1.70568e-19)
(0.645215 0.00155846 1.57265e-19)
(1.21505 0.0782628 -3.84459e-19)
(1.65865 0.153003 -9.25508e-20)
(1.93957 0.206325 4.98888e-21)
(2.10116 0.240526 3.10628e-19)
(2.19497 0.261127 -5.69086e-19)
(2.25439 0.273629 -2.90685e-19)
(2.29551 0.280466 6.54832e-19)
(2.32425 0.284573 1.45081e-19)
(0.239092 0.00910841 5.63662e-21)
(0.89522 0.0604768 4.15378e-19)
(1.48309 0.170235 -3.57424e-19)
(1.86376 0.249325 -1.67836e-19)
(2.07336 0.295225 1.82429e-19)
(2.18337 0.319786 -1.90717e-19)
(2.24538 0.331764 3.68544e-19)
(2.28378 0.339008 2.51317e-20)
(2.30953 0.341235 -2.50189e-19)
(2.33064 0.340332 -7.75874e-20)
(-0.00752483 0.154446 3.62527e-21)
(-0.0221173 0.365929 7.57831e-21)
(-0.0436347 0.484543 -4.72262e-21)
(-0.0644297 0.547256 5.51454e-21)
(-0.0839405 0.581611 4.37572e-22)
(-0.102233 0.60075 -2.85736e-21)
(-0.118771 0.610632 -3.71756e-21)
(-0.13297 0.61443 9.59891e-21)
(-0.145082 0.613688 -6.17394e-23)
(-0.156628 0.608819 -1.39995e-20)
(-0.0164953 0.156248 -2.65796e-21)
(-0.0427025 0.38334 -2.82962e-24)
(-0.0660437 0.513635 -2.38869e-21)
(-0.0859809 0.581442 1.45695e-20)
(-0.103322 0.617324 3.47927e-20)
(-0.118921 0.636424 4.99182e-21)
(-0.132969 0.645136 -3.56152e-20)
(-0.145248 0.646736 0)
(-0.155975 0.643272 -2.4398e-22)
(-0.166456 0.636045 -1.70233e-21)
(-0.0228428 0.143827 6.61465e-23)
(-0.0599321 0.377934 3.62099e-20)
(-0.0838707 0.522501 3.32326e-20)
(-0.101578 0.599624 -2.29266e-20)
(-0.115116 0.639945 4.08234e-20)
(-0.125895 0.661239 -2.37458e-21)
(-0.134647 0.671413 3.99141e-20)
(-0.141632 0.674078 2.33264e-20)
(-0.147133 0.671304 9.1834e-20)
(-0.15218 0.664465 1.10469e-19)
(-0.0240175 0.117322 3.43881e-21)
(-0.0692129 0.345145 7.27517e-20)
(-0.0920653 0.504674 -1.0442e-20)
(-0.105321 0.595777 -8.64316e-21)
(-0.112622 0.64416 -7.15424e-21)
(-0.116182 0.669318 -3.72764e-20)
(-0.11732 0.681395 7.30067e-21)
(-0.116669 0.685267 0)
(-0.114593 0.683543 -1.53014e-19)
(-0.111367 0.678018 -1.50973e-19)
(-0.0185336 0.0793469 4.02577e-20)
(-0.0663501 0.281753 -1.57663e-20)
(-0.0873268 0.452075 -6.84333e-20)
(-0.0957478 0.561116 2.20358e-21)
(-0.0961027 0.62366 -1.03398e-20)
(-0.0916204 0.658303 -5.70162e-20)
(-0.0843538 0.676787 3.00005e-20)
(-0.0752083 0.685268 6.62267e-20)
(-0.0642485 0.686871 -1.82654e-19)
(-0.0508359 0.682944 -2.04579e-19)
(-0.00815854 0.0377383 2.12234e-20)
(-0.0511989 0.193437 -2.82162e-20)
(-0.0705368 0.361626 6.44831e-20)
(-0.0761184 0.486839 9.91561e-21)
(-0.0708647 0.567616 -5.18504e-20)
(-0.0584055 0.616875 -8.75044e-20)
(-0.0417001 0.645794 -5.65808e-20)
(-0.0223136 0.661462 1.67465e-19)
(-0.000408884 0.667855 -1.96611e-19)
(0.0255253 0.66607 -2.12043e-19)
(0.00146365 0.00463826 -3.26716e-20)
(-0.0274733 0.0972859 6.06933e-20)
(-0.045041 0.242364 1.3192e-22)
(-0.0507121 0.371371 -1.31227e-19)
(-0.0434071 0.466874 5.22249e-20)
(-0.0257411 0.532337 6.53448e-20)
(-0.00112031 0.575081 -9.33671e-20)
(0.0281343 0.601346 4.32498e-20)
(0.0615091 0.615104 1.84825e-19)
(0.101558 0.61527 1.07416e-19)
(0.00639713 -0.00632027 -7.00488e-22)
(-0.00209172 0.0235668 -2.20454e-20)
(-0.0159543 0.120872 -7.89684e-20)
(-0.0235617 0.232014 7.88164e-20)
(-0.0183804 0.327693 1.49915e-19)
(-0.00052693 0.401333 -2.35345e-20)
(0.0274481 0.454673 -3.48754e-20)
(0.0631181 0.491276 -5.50688e-20)
(0.105922 0.513958 -8.13251e-20)
(0.158647 0.51464 2.94089e-20)
(0.015689 -0.0174641 -4.58813e-21)
(0.0183527 -0.0123385 -1.19672e-20)
(0.00798583 0.0257078 3.34098e-20)
(-0.00265532 0.0985698 1.72161e-20)
(-0.00227489 0.175487 5.2005e-21)
(0.0114548 0.241195 -1.59216e-19)
(0.0383757 0.293089 -7.36522e-20)
(0.0769521 0.33213 -9.76551e-20)
(0.127713 0.359554 8.40755e-22)
(0.19288 0.356829 9.58673e-20)
(0.0102457 -0.0183206 -7.84771e-21)
(0.00892688 -0.0192895 -8.86125e-21)
(0.00258988 -0.0135891 1.1226e-19)
(-0.00223973 0.00635618 1.09121e-19)
(-0.00202788 0.0460266 -7.8213e-20)
(0.0104371 0.087537 -3.50637e-19)
(0.0403749 0.123331 -8.14426e-21)
(0.0884438 0.15217 1.93229e-19)
(0.155522 0.173673 2.03046e-19)
(0.238437 0.171771 1.32398e-19)
(-0.212324 0.565482 -1.88485e-19)
(-0.22734 0.404439 -7.58381e-19)
(-0.20567 0.121247 -7.26732e-19)
(-0.112594 -0.149941 8.64537e-19)
(0.0961633 -0.333925 -3.03328e-19)
(0.295658 -0.394627 1.7343e-20)
(0.468154 -0.377669 -6.61852e-20)
(0.596833 -0.310235 5.08909e-20)
(0.681224 -0.250236 -3.67488e-20)
(0.752574 -0.135522 -2.86419e-20)
(-0.21863 0.584929 -2.42327e-19)
(-0.266264 0.411802 5.71873e-23)
(-0.244944 0.107614 -4.42629e-20)
(-0.119705 -0.196123 -4.76671e-19)
(0.111449 -0.394456 -3.95204e-20)
(0.320371 -0.450498 8.97931e-20)
(0.493272 -0.422021 3.78251e-20)
(0.619367 -0.34049 4.45102e-21)
(0.701619 -0.27205 -6.5569e-20)
(0.772475 -0.146237 5.48868e-20)
(-0.186109 0.610916 -1.9838e-20)
(-0.26427 0.432024 8.86545e-19)
(-0.232801 0.0937845 1.88305e-19)
(-0.0724566 -0.244977 -7.81806e-19)
(0.178287 -0.456184 2.54207e-19)
(0.387867 -0.505614 3.47698e-21)
(0.548063 -0.464674 3.0189e-20)
(0.659049 -0.369112 -4.52776e-20)
(0.731721 -0.293086 5.63233e-21)
(0.797352 -0.156873 7.33961e-23)
(-0.117341 0.635709 1.59922e-19)
(-0.188153 0.453951 -1.29598e-20)
(-0.16403 0.0834493 1.8798e-19)
(0.0361316 -0.295795 5.11621e-19)
(0.302553 -0.51812 -6.31597e-20)
(0.509931 -0.557732 -1.55108e-20)
(0.647721 -0.502181 -1.6709e-20)
(0.728014 -0.393013 0)
(0.780143 -0.311202 0)
(0.831649 -0.166653 -1.41446e-22)
(-0.0191507 0.65135 1.84568e-19)
(-0.0876723 0.482895 -4.43972e-19)
(-0.0255481 0.074271 -5.2109e-21)
(0.193726 -0.344334 -3.71049e-19)
(0.466326 -0.580231 -1.45147e-19)
(0.676825 -0.607091 -1.90803e-19)
(0.797355 -0.532409 1.16641e-20)
(0.837626 -0.408876 -1.38282e-20)
(0.857996 -0.323387 -6.38242e-20)
(0.881866 -0.174248 -2.55882e-21)
(0.100719 0.655779 1.65886e-19)
(0.0559938 0.510875 -1.73568e-19)
(0.160814 0.0678044 -1.09179e-18)
(0.383366 -0.386922 1.21298e-20)
(0.647514 -0.642134 4.81067e-19)
(0.857849 -0.657283 -7.26203e-20)
(0.97896 -0.557645 -3.57271e-20)
(0.987855 -0.415521 -6.33211e-20)
(0.973863 -0.326559 1.21415e-21)
(0.955698 -0.177832 -2.90196e-20)
(0.230352 0.641015 -1.20695e-19)
(0.246463 0.535236 -5.03742e-20)
(0.3748 0.0669549 3.30893e-19)
(0.608975 -0.420523 -1.03746e-19)
(0.856658 -0.699123 -6.42162e-20)
(1.03897 -0.708969 1.94369e-19)
(1.16226 -0.583248 -2.96895e-20)
(1.16013 -0.416466 2.01309e-21)
(1.12454 -0.319904 1.8496e-20)
(1.05833 -0.175833 6.69833e-21)
(0.347762 0.591066 -2.57731e-19)
(0.459564 0.554184 -5.16635e-19)
(0.606178 0.0787861 4.69951e-19)
(0.876606 -0.443046 3.82257e-20)
(1.11623 -0.743252 -3.4107e-19)
(1.24122 -0.75438 -2.98987e-19)
(1.33607 -0.609571 9.01381e-20)
(1.32934 -0.417071 -2.12215e-20)
(1.29128 -0.306424 1.49415e-21)
(1.18654 -0.168214 -3.83823e-21)
(0.443218 0.509378 -8.14224e-19)
(0.681498 0.562589 -2.7801e-19)
(0.849506 0.0827331 -2.10276e-19)
(1.16408 -0.456977 5.4984e-19)
(1.40896 -0.772194 -3.6617e-19)
(1.4798 -0.785063 -1.14254e-19)
(1.51305 -0.630215 -1.66953e-19)
(1.48425 -0.418682 1.35366e-20)
(1.45057 -0.290717 1.69787e-20)
(1.32649 -0.15684 9.89254e-21)
(0.488593 0.353552 -1.47934e-19)
(0.82489 0.547251 1.03415e-18)
(1.07579 0.117154 9.73826e-20)
(1.44581 -0.460945 2.80172e-19)
(1.69133 -0.790301 -3.1865e-19)
(1.73197 -0.799874 9.82072e-20)
(1.70151 -0.638735 -3.45495e-19)
(1.62919 -0.417953 -2.32319e-20)
(1.5892 -0.275335 -1.01017e-20)
(1.4603 -0.1442 -2.17957e-20)
(0.688958 0.190083 3.01887e-19)
(1.10237 0.472557 1.98443e-19)
(1.42949 0.0768972 -6.8066e-20)
(1.83991 -0.505258 5.68563e-20)
(2.04814 -0.814965 5.57202e-20)
(2.04679 -0.805405 -5.11902e-20)
(1.94817 -0.630059 -8.23622e-21)
(1.8086 -0.405239 4.76018e-20)
(1.73852 -0.252656 -1.17827e-19)
(1.60614 -0.127709 1.45941e-20)
(1.21967 0.177512 1.20772e-19)
(1.54894 0.312899 -3.2675e-19)
(2.05575 -0.1078 -5.76656e-19)
(2.42231 -0.636759 1.05843e-19)
(2.47175 -0.865084 -3.24553e-19)
(2.35396 -0.779776 3.2756e-21)
(2.18758 -0.561164 1.70297e-19)
(1.98618 -0.339821 -3.70512e-20)
(1.8688 -0.201208 1.45468e-19)
(1.72599 -0.100717 2.76811e-20)
(1.86672 0.204146 5.60569e-20)
(2.14388 0.190146 6.40173e-20)
(2.61708 -0.231847 -3.14481e-20)
(2.81493 -0.66111 1.84379e-35)
(2.72738 -0.817903 -7.68814e-20)
(2.50716 -0.710305 -1.88797e-34)
(2.29254 -0.489473 5.32675e-20)
(2.07801 -0.277606 1.25939e-33)
(1.94416 -0.149478 -3.57553e-21)
(1.79278 -0.0725109 4.09357e-21)
(2.33078 0.173522 1.24858e-19)
(2.63252 0.085232 3.50679e-19)
(2.96921 -0.318811 5.47807e-19)
(3.07018 -0.678573 0)
(2.94529 -0.774353 1.54442e-19)
(2.66486 -0.625347 -7.53639e-20)
(2.36752 -0.396354 -1.84253e-19)
(2.10459 -0.203368 3.27398e-33)
(1.95307 -0.0928556 -8.79689e-20)
(1.80174 -0.0442758 -7.07635e-21)
(2.63003 0.102373 1.34085e-19)
(2.90233 -0.00945124 -2.09207e-20)
(3.15394 -0.371652 0)
(3.21431 -0.661632 0)
(3.02393 -0.689949 0)
(2.68996 -0.507694 0)
(2.36408 -0.280946 1.24173e-20)
(2.08107 -0.116645 3.62436e-33)
(1.92042 -0.0319436 -5.59399e-21)
(1.77554 -0.0157733 -1.15009e-33)
(2.8011 0.0279046 3.89742e-20)
(3.0148 -0.0857488 0)
(3.24482 -0.411174 0)
(3.25622 -0.632706 0)
(2.96815 -0.590736 0)
(2.54541 -0.382056 0)
(2.18984 -0.170171 -2.38382e-20)
(1.93088 -0.0383259 1.37178e-19)
(1.80577 0.0201021 -6.73599e-21)
(1.69831 0.00962718 6.4758e-21)
(2.85435 -0.0338022 0)
(3.04466 -0.152747 2.40113e-19)
(3.23839 -0.434602 2.92453e-19)
(3.07979 -0.570136 0)
(2.65026 -0.448945 -9.7642e-21)
(2.19816 -0.225735 -1.02939e-19)
(1.87064 -0.0527491 -1.22852e-19)
(1.66703 0.030392 -6.52619e-20)
(1.59681 0.0561547 5.46176e-20)
(1.54469 0.0258068 -2.12209e-20)
(2.78035 -0.0876801 5.6547e-20)
(2.94977 -0.213276 -2.42141e-20)
(2.94485 -0.397155 2.08508e-20)
(2.50214 -0.421477 -4.85334e-35)
(1.92503 -0.264864 7.90912e-21)
(1.50963 -0.0808399 -4.89146e-34)
(1.3116 0.029403 -2.58636e-20)
(1.23678 0.0651839 -6.64121e-20)
(1.25118 0.0656522 -7.75176e-21)
(1.26467 0.0287847 1.56427e-20)
(2.3851 -0.117091 0)
(2.38942 -0.22709 -9.29077e-20)
(2.01102 -0.251179 -6.51729e-20)
(1.31787 -0.154336 0)
(0.818018 -0.0533277 -2.26284e-20)
(0.626674 0.00860851 -1.04211e-20)
(0.621035 0.04181 -2.65274e-20)
(0.678389 0.0501474 9.04058e-21)
(0.761706 0.0431222 -2.36039e-20)
(0.821237 0.0183463 -1.37508e-20)
(1.12546 -0.0848133 1.94509e-20)
(0.779073 -0.0571948 0)
(0.39238 -0.00689623 0)
(0.145509 -3.4003e-05 0)
(0.0162765 -0.00402672 0)
(-0.013528 -0.00327277 0)
(0.0279647 0.0072272 -2.47125e-20)
(0.105714 0.0124431 9.69488e-35)
(0.184876 0.0108515 -8.55181e-21)
(0.242272 0.00445292 -1.64777e-20)
(2.36174 0.336685 3.75269e-19)
(2.36376 0.287681 1.54932e-19)
(2.3538 0.236938 2.98675e-19)
(2.32834 0.199671 -3.07517e-19)
(2.26739 0.164531 7.21082e-20)
(2.1776 0.140957 3.78772e-20)
(1.98003 0.0858195 4.55847e-20)
(1.68581 0.0675282 2.25655e-20)
(1.29415 -0.0270425 3.82031e-20)
(0.710804 -0.0168912 -1.05644e-20)
(2.36698 0.297813 -1.81955e-19)
(2.39376 0.278407 3.82027e-20)
(2.40692 0.239997 1.3174e-19)
(2.39985 0.214318 1.11515e-19)
(2.38722 0.175815 -1.8301e-19)
(2.32841 0.170013 1.00002e-19)
(2.29526 0.134308 -7.10059e-22)
(2.09675 0.119925 -7.166e-21)
(2.0156 0.103818 -9.27754e-21)
(1.55583 0.0321854 1.06265e-20)
(2.4143 0.264051 2.56314e-20)
(2.43393 0.245664 -1.21021e-19)
(2.46898 0.217294 -1.63229e-19)
(2.4576 0.198849 3.47012e-19)
(2.48578 0.175098 -1.42751e-20)
(2.42553 0.155641 1.92865e-20)
(2.46016 0.157357 -6.76299e-20)
(2.32992 0.118831 -4.80669e-20)
(2.34884 0.154825 2.52817e-21)
(2.10821 0.0773499 -7.64935e-21)
(2.48754 0.231153 4.48433e-20)
(2.5013 0.209929 -1.45848e-19)
(2.54772 0.192247 2.45949e-20)
(2.53869 0.165986 -1.10737e-19)
(2.57992 0.161185 1.68119e-19)
(2.54047 0.12481 -5.23882e-20)
(2.5784 0.145872 3.27996e-20)
(2.50994 0.0973255 -4.07252e-20)
(2.53289 0.138676 -7.95073e-20)
(2.42858 0.0846184 -4.21556e-20)
(2.54022 0.194808 8.55204e-20)
(2.56119 0.171309 -2.34048e-19)
(2.60753 0.162136 -2.14219e-20)
(2.61529 0.131501 -1.27573e-20)
(2.65455 0.133834 -4.88385e-21)
(2.64615 0.0945183 -1.44951e-21)
(2.67736 0.111629 2.1941e-20)
(2.6536 0.0697638 -3.53772e-20)
(2.67415 0.0933475 -5.63861e-20)
(2.63473 0.0606763 -7.60226e-20)
(2.54858 0.154721 1.54251e-19)
(2.57731 0.132666 2.70503e-20)
(2.6237 0.126552 -1.64373e-19)
(2.64643 0.0992893 9.91872e-20)
(2.68656 0.0989686 7.69734e-20)
(2.70199 0.0674003 -6.24876e-20)
(2.73395 0.07212 8.74511e-20)
(2.7418 0.0418311 4.56269e-20)
(2.76578 0.0472309 -1.12634e-19)
(2.76574 0.0243708 -1.39393e-19)
(2.49982 0.111354 1.70827e-20)
(2.53379 0.0927331 4.95369e-20)
(2.58093 0.0872072 -6.39273e-20)
(2.61414 0.0647786 -3.60305e-20)
(2.65716 0.0612448 7.69957e-20)
(2.68982 0.0364336 3.8037e-20)
(2.72587 0.0336439 7.53052e-20)
(2.75846 0.00964883 5.63961e-20)
(2.78504 0.0055481 7.25606e-21)
(2.81981 -0.0151964 4.57176e-20)
(2.36219 0.0710439 2.09207e-20)
(2.4061 0.0569573 5.77649e-23)
(2.44637 0.0511674 -7.28751e-20)
(2.49437 0.0335328 -6.37099e-20)
(2.53071 0.02767 3.51398e-20)
(2.58531 0.00794685 -3.30858e-20)
(2.6139 0.00094831 -3.0908e-20)
(2.6768 -0.0198273 9.58343e-20)
(2.69428 -0.0294336 -8.36619e-20)
(2.76755 -0.0507643 -9.87806e-20)
(2.03465 0.018608 5.78617e-20)
(2.09398 0.0151725 -2.83493e-20)
(2.10961 0.00607999 -2.64247e-20)
(2.17389 0.00060346 3.07277e-20)
(2.1856 -0.00894927 -1.83288e-20)
(2.25795 -0.0167297 -4.70384e-21)
(2.26144 -0.027869 -3.11017e-20)
(2.34408 -0.0380656 2.20372e-20)
(2.33565 -0.0526038 1.97485e-20)
(2.42768 -0.0661606 -2.22848e-20)
(1.19141 -0.00240899 0)
(1.2172 -0.00507812 2.84204e-21)
(1.20708 -0.00802047 -3.83608e-20)
(1.23962 -0.0114117 -5.93073e-20)
(1.21916 -0.0153067 3.42073e-20)
(1.25957 -0.018361 1.42566e-19)
(1.2256 -0.0233196 -1.01409e-20)
(1.27453 -0.025288 -8.6763e-20)
(1.224 -0.0355022 -1.20291e-20)
(1.27915 -0.0341602 4.15255e-21)
(1.41186 0.837137 -4.64124e-20)
(1.39606 0.879609 -9.6491e-20)
(1.39561 0.925356 -6.94085e-19)
(1.3987 0.976276 2.19809e-19)
(1.39917 1.029 1.07035e-18)
(1.39048 1.07819 1.49257e-19)
(1.3607 1.1094 -7.90751e-20)
(1.28647 1.09846 -3.29536e-19)
(1.09556 0.979161 -3.30925e-19)
(0.583399 0.54158 -4.49817e-20)
(1.56835 0.809783 -4.00113e-19)
(1.55514 0.850841 1.15134e-18)
(1.54899 0.89391 5.13679e-19)
(1.54877 0.942777 -7.65529e-19)
(1.54987 0.994749 2.5446e-19)
(1.54304 1.04324 2.43485e-19)
(1.51269 1.07217 7.9829e-19)
(1.43211 1.05916 -1.16521e-18)
(1.21903 0.938411 -5.15074e-20)
(0.642463 0.510802 2.05381e-19)
(1.71548 0.779081 1.10624e-19)
(1.70767 0.819074 8.98788e-19)
(1.70055 0.859779 1.73668e-20)
(1.69837 0.904574 -4.46807e-19)
(1.69873 0.952003 1.30822e-19)
(1.69125 0.995567 -6.67026e-20)
(1.65783 1.01883 -4.77405e-20)
(1.56853 1.0021 -4.04264e-19)
(1.33003 0.879264 2.66262e-20)
(0.69014 0.467726 -2.16829e-19)
(1.84816 0.741797 -4.54544e-19)
(1.84578 0.77987 4.16167e-19)
(1.84111 0.817353 -6.37556e-19)
(1.8391 0.856913 -2.36704e-19)
(1.83865 0.898217 1.38202e-18)
(1.82906 0.934838 -8.69827e-19)
(1.79048 0.950615 -9.8303e-19)
(1.69089 0.928704 4.25382e-19)
(1.42214 0.803644 -1.25178e-19)
(0.720726 0.41492 -6.30594e-20)
(1.96589 0.696789 5.65795e-19)
(1.96675 0.730829 4.54385e-19)
(1.96383 0.763997 -2.13683e-19)
(1.9619 0.798813 8.35228e-19)
(1.96032 0.83403 1.64078e-19)
(1.94669 0.862163 -3.7487e-19)
(1.90097 0.868134 5.44253e-19)
(1.78892 0.840619 -6.52711e-19)
(1.48383 0.713471 -7.41826e-19)
(0.727653 0.352451 -5.17855e-21)
(2.06719 0.642306 7.50265e-19)
(2.07239 0.672737 9.35702e-19)
(2.07464 0.701545 -9.47769e-19)
(2.07508 0.729347 -9.64961e-19)
(2.06968 0.756339 2.32367e-19)
(2.04816 0.773798 -6.97808e-19)
(1.99005 0.771636 -4.50165e-19)
(1.85916 0.739052 3.85349e-19)
(1.51185 0.608522 7.07635e-20)
(0.707542 0.282375 -1.24165e-20)
(2.15749 0.588113 6.97105e-19)
(2.16047 0.612699 -9.29929e-19)
(2.15649 0.635455 -8.18013e-19)
(2.15042 0.65931 6.28541e-19)
(2.14395 0.677529 -5.54645e-19)
(2.11244 0.681987 1.64102e-18)
(2.04655 0.671354 -2.44144e-19)
(1.89027 0.631242 -1.32891e-18)
(1.49452 0.494704 5.81665e-19)
(0.655732 0.209768 3.2775e-20)
(2.22748 0.520532 -4.58437e-19)
(2.23133 0.539815 -6.41917e-19)
(2.23578 0.558498 -8.51163e-19)
(2.23687 0.570728 3.07016e-20)
(2.20366 0.581044 2.82285e-19)
(2.15456 0.575384 2.96613e-19)
(2.07302 0.561054 6.79654e-19)
(1.87817 0.512874 -3.51306e-19)
(1.42741 0.374301 2.00431e-20)
(0.574627 0.1402 6.31448e-20)
(2.28481 0.465522 2.27005e-19)
(2.28782 0.481451 -7.44887e-20)
(2.27846 0.493387 3.91269e-19)
(2.25062 0.490356 9.54447e-19)
(2.21579 0.486871 -3.75683e-19)
(2.16835 0.479174 -1.4305e-18)
(2.06055 0.455439 1.01902e-18)
(1.81311 0.394473 9.15252e-19)
(1.30451 0.256675 -4.66603e-19)
(0.469981 0.0807586 -1.01858e-20)
(2.32727 0.404888 -4.52726e-19)
(2.31192 0.410987 -4.77259e-21)
(2.28683 0.410709 5.8131e-19)
(2.25679 0.408325 5.93365e-19)
(2.21798 0.401932 4.31328e-19)
(2.14615 0.387108 -6.87158e-19)
(1.99426 0.351833 3.6587e-20)
(1.6831 0.278413 -3.4929e-19)
(1.12389 0.148836 -5.23572e-19)
(0.353014 0.0364589 -1.20418e-20)
(0.490352 0.331246 3.1308e-20)
(0.45322 0.341919 -1.48734e-19)
(0.412097 0.353675 -2.71147e-20)
(0.36748 0.366431 1.0361e-19)
(0.319106 0.379575 -2.86571e-20)
(0.266362 0.391019 -3.54424e-20)
(0.208566 0.394966 -3.2747e-20)
(0.144347 0.378353 -2.90734e-20)
(0.075275 0.317193 1.014e-19)
(0.0283092 0.16643 8.13251e-21)
(0.534481 0.428512 1.5993e-22)
(0.497602 0.444437 2.76378e-20)
(0.457325 0.461642 -1.73409e-20)
(0.413801 0.480053 1.09689e-20)
(0.366551 0.499064 5.00814e-20)
(0.314733 0.516437 3.13107e-20)
(0.257122 0.525575 9.53165e-20)
(0.191542 0.510959 -6.23484e-20)
(0.116111 0.440766 7.02622e-20)
(0.0498785 0.241849 -5.12213e-21)
(0.59555 0.519919 -8.83751e-20)
(0.559985 0.54091 1.08527e-20)
(0.521622 0.563344 4.388e-20)
(0.480198 0.587258 -1.27059e-20)
(0.434985 0.612107 3.32878e-21)
(0.384846 0.635565 1.3862e-19)
(0.327871 0.65034 -3.19238e-20)
(0.260772 0.638586 -5.0657e-20)
(0.177091 0.560845 -1.26199e-22)
(0.0834952 0.315244 1.53597e-20)
(0.667515 0.606165 8.25438e-21)
(0.633821 0.632308 -5.81976e-20)
(0.598397 0.659791 -9.95907e-20)
(0.560234 0.688864 -2.76228e-20)
(0.518192 0.719077 -9.42234e-20)
(0.470838 0.747994 -7.76554e-20)
(0.415539 0.76764 -2.26383e-19)
(0.347565 0.758078 7.63579e-20)
(0.254885 0.673025 -5.48262e-20)
(0.127405 0.383438 -9.46465e-20)
(0.750166 0.680913 4.32916e-20)
(0.718789 0.711524 -1.20683e-19)
(0.687168 0.7435 5.8445e-20)
(0.653577 0.777513 -5.66209e-20)
(0.616347 0.813222 -1.00254e-19)
(0.573481 0.847993 1.43134e-19)
(0.521328 0.873044 8.57023e-20)
(0.453241 0.866325 -1.27339e-19)
(0.35048 0.775159 -2.5907e-19)
(0.181527 0.444741 4.89903e-20)
(0.842981 0.750271 1.59616e-20)
(0.813262 0.785047 1.09088e-20)
(0.784535 0.820275 4.24258e-20)
(0.754501 0.857561 5.16572e-20)
(0.721497 0.897107 1.97376e-19)
(0.6834 0.936085 -1.89467e-19)
(0.635526 0.964563 -1.3487e-19)
(0.568717 0.958593 -4.50949e-20)
(0.456197 0.860603 1.10674e-19)
(0.241534 0.494077 1.53861e-19)
(0.946886 0.80149 -9.61025e-20)
(0.922342 0.840076 5.12981e-20)
(0.899875 0.878585 2.45846e-19)
(0.875754 0.918916 -1.54768e-19)
(0.847802 0.96157 -3.94661e-19)
(0.813895 1.00385 1.89733e-19)
(0.768883 1.03503 6.10832e-19)
(0.701437 1.02958 1.57041e-19)
(0.575796 0.926573 -4.08262e-20)
(0.308079 0.531173 2.18567e-19)
(1.05052 0.846453 -2.59901e-19)
(1.02784 0.886672 -8.90661e-20)
(1.0106 0.9264 2.65269e-19)
(0.993874 0.968647 -1.11048e-19)
(0.97412 1.01353 9.10289e-20)
(0.947741 1.0575 3.99943e-19)
(0.907966 1.08892 -4.3853e-19)
(0.840755 1.08186 -3.98923e-19)
(0.701547 0.972917 3.40817e-19)
(0.377447 0.554973 -6.50411e-22)
(1.16469 0.86478 -1.53525e-20)
(1.15114 0.907385 4.16036e-20)
(1.14105 0.947549 -2.22086e-19)
(1.1297 0.9906 -8.02746e-20)
(1.11497 1.0376 4.88441e-19)
(1.09354 1.08424 1.4612e-19)
(1.0571 1.1171 -1.2584e-19)
(0.988274 1.10954 0)
(0.833356 0.996531 -2.20707e-19)
(0.448484 0.56433 -1.12999e-19)
(1.25627 0.869771 0)
(1.25116 0.913774 0)
(1.25583 0.956372 6.43945e-19)
(1.2579 1.0008 1.49134e-19)
(1.25372 1.04805 -2.30548e-19)
(1.24015 1.0943 4.18909e-19)
(1.20818 1.12561 -3.02517e-19)
(1.13771 1.11596 -8.1793e-19)
(0.965962 0.999052 4.15762e-19)
(0.518072 0.559927 2.1472e-19)
(0.986101 -0.0146037 -9.90412e-21)
(1.02787 0.0059983 -1.1019e-20)
(1.03327 0.117231 6.90834e-21)
(1.0218 0.206977 2.91834e-21)
(0.99438 0.232091 1.21641e-20)
(0.955561 0.236079 2.31254e-20)
(0.923889 0.221371 -1.19519e-20)
(0.859974 0.229974 -1.46079e-20)
(0.804005 0.245692 -7.48705e-20)
(0.654991 0.278638 4.99801e-20)
(0.985766 -0.0170261 -3.73722e-22)
(1.0284 0.000973595 8.35749e-21)
(1.0325 0.117669 1.29923e-22)
(1.02038 0.213647 6.18225e-21)
(0.994199 0.24107 9.1432e-21)
(0.955663 0.24627 -3.47292e-20)
(0.927669 0.234283 -1.36484e-20)
(0.871079 0.246749 3.56051e-22)
(0.821903 0.277674 1.91513e-19)
(0.694405 0.344368 3.33445e-21)
(0.985134 -0.0195596 8.92316e-22)
(1.02953 -0.00353226 1.53879e-20)
(1.03232 0.118896 -6.6962e-21)
(1.01986 0.220765 -8.22041e-22)
(0.994243 0.249973 -1.09395e-20)
(0.95546 0.25606 2.33647e-21)
(0.930226 0.245433 1.77628e-20)
(0.88267 0.26203 -1.66085e-20)
(0.839019 0.306759 1.06578e-19)
(0.743548 0.406495 -2.48246e-19)
(0.984131 -0.022229 2.15734e-21)
(1.03113 -0.00760233 -1.20851e-21)
(1.03284 0.120919 -7.99639e-21)
(1.02002 0.228435 -1.39676e-20)
(0.994251 0.258916 2.36725e-20)
(0.955165 0.26557 2.32882e-20)
(0.932346 0.25469 -2.31539e-20)
(0.894771 0.276158 8.46338e-20)
(0.856016 0.33217 -9.71783e-20)
(0.801016 0.464793 -2.67753e-19)
(0.982696 -0.0250448 4.96154e-22)
(1.03323 -0.0113515 -1.59523e-20)
(1.03423 0.123755 2.64405e-21)
(1.02063 0.236787 2.42882e-20)
(0.994265 0.267928 9.15847e-21)
(0.95538 0.274703 5.22251e-20)
(0.934849 0.261973 2.77891e-20)
(0.907439 0.289524 7.06641e-20)
(0.8727 0.35358 -2.2936e-21)
(0.866588 0.517191 2.03305e-19)
(0.980793 -0.0280168 -3.90558e-22)
(1.03586 -0.0149113 2.54228e-22)
(1.03641 0.127452 -5.7152e-24)
(1.02148 0.245913 6.85954e-21)
(0.994833 0.276864 -3.19996e-20)
(0.956952 0.283272 7.8099e-21)
(0.9384 0.26747 -4.54085e-21)
(0.920281 0.302551 -2.0905e-19)
(0.890013 0.370193 0)
(0.941736 0.566756 -2.5586e-20)
(0.978472 -0.0311288 -4.18269e-23)
(1.03878 -0.0184057 7.04522e-21)
(1.03894 0.132056 7.64047e-22)
(1.02262 0.255724 -3.4e-20)
(0.996875 0.285421 -1.17447e-20)
(0.960587 0.291195 -6.52713e-20)
(0.943719 0.271636 4.68698e-21)
(0.932999 0.315366 5.42043e-21)
(0.910905 0.382734 -2.21957e-21)
(1.01713 0.606216 7.6785e-19)
(0.975958 -0.0342862 -8.1342e-21)
(1.04118 -0.0219573 8.32709e-21)
(1.04132 0.137437 -1.89913e-22)
(1.0245 0.265816 1.68585e-20)
(1.00134 0.293269 -4.97316e-20)
(0.966626 0.298379 1.48965e-20)
(0.951972 0.274822 -3.13031e-21)
(0.946366 0.327757 2.47305e-20)
(0.936497 0.389902 1.32716e-19)
(1.10619 0.651428 -3.92418e-20)
(0.973683 -0.0372932 2.95904e-21)
(1.04161 -0.025408 -4.95332e-21)
(1.04336 0.143376 8.94443e-22)
(1.02804 0.275688 2.94874e-20)
(1.00911 0.300076 5.05386e-21)
(0.975323 0.304384 2.46629e-20)
(0.964955 0.2771 -4.87228e-20)
(0.961861 0.338699 6.37142e-20)
(0.972238 0.38833 2.63754e-19)
(1.17372 0.671135 -6.36102e-19)
(0.972252 -0.0399575 7.17841e-21)
(1.03873 -0.0279727 -9.03109e-21)
(1.04527 0.150854 4.81361e-22)
(1.03412 0.285849 -8.89914e-21)
(1.0212 0.305559 5.50882e-20)
(0.98846 0.309002 -3.33591e-20)
(0.985445 0.279121 -1.63365e-20)
(0.984889 0.349334 3.63958e-20)
(1.01799 0.402809 -1.32501e-19)
(1.28936 0.725924 3.55751e-19)
(0.972042 -0.0425149 -1.69648e-21)
(1.02958 -0.0336889 -2.94316e-22)
(1.04829 0.151596 -4.89714e-21)
(1.04755 0.29334 -2.83807e-20)
(1.04779 0.310422 -3.21467e-20)
(1.0204 0.316929 -4.52664e-20)
(1.03237 0.275207 1.57541e-20)
(1.03889 0.357091 -1.35524e-19)
(1.06826 0.344901 -4.70452e-19)
(1.28652 0.715328 -1.13587e-19)
(0.973246 -0.0438992 -1.18887e-20)
(1.01109 -0.043245 -3.82696e-21)
(1.04989 0.137903 1.84058e-21)
(1.07019 0.2931 2.29688e-21)
(1.11918 0.307105 1.5203e-20)
(1.09481 0.322867 6.18004e-20)
(1.18001 0.260826 1.59841e-20)
(1.15067 0.357397 1.03725e-19)
(1.24443 0.309621 1.95589e-19)
(1.29713 0.605279 2.69979e-19)
(0.974489 -0.0425939 -2.00908e-21)
(0.991334 -0.050978 -2.40183e-21)
(1.05248 0.116049 2.50119e-21)
(1.09302 0.277753 5.5907e-21)
(1.24205 0.292364 3.85933e-35)
(1.16646 0.31026 -8.12915e-21)
(1.41694 0.241536 -4.37047e-34)
(1.25062 0.347723 1.65575e-20)
(1.51931 0.288509 -4.28207e-20)
(1.4055 0.512609 -2.16085e-19)
(0.976128 -0.0377645 2.14478e-20)
(0.975435 -0.0585174 -2.27952e-35)
(1.05183 0.0857668 -2.56542e-21)
(1.11103 0.235681 2.42689e-21)
(1.37073 0.268126 -1.10845e-20)
(1.2244 0.274449 4.04812e-21)
(1.63441 0.215185 -5.31224e-34)
(1.35386 0.33195 -4.86385e-20)
(1.7435 0.256366 -1.08358e-19)
(1.59766 0.43984 2.3887e-19)
(0.978214 -0.0310946 0)
(0.971633 -0.0640151 -7.76684e-35)
(1.04413 0.0494315 0)
(1.13227 0.170078 0)
(1.43814 0.23664 0)
(1.30528 0.225215 0)
(1.726 0.181253 -3.42713e-34)
(1.48527 0.309181 0)
(1.8474 0.212222 -1.65784e-20)
(1.77451 0.378517 1.41586e-19)
(0.979725 -0.0263215 2.79833e-21)
(0.984014 -0.0675996 -6.93489e-21)
(1.0403 0.0101814 -3.45603e-21)
(1.14989 0.0949601 0)
(1.43964 0.196265 0)
(1.39161 0.171862 7.01825e-21)
(1.71918 0.144988 3.11875e-20)
(1.61429 0.278084 -1.22829e-20)
(1.86955 0.171547 -2.54418e-20)
(1.89351 0.315008 9.63867e-20)
(0.979399 -0.0259479 -5.88268e-20)
(1.01353 -0.0722975 6.12432e-21)
(1.0446 -0.0303252 -4.68677e-21)
(1.15241 0.0263953 -2.57748e-20)
(1.38113 0.141689 -1.78473e-20)
(1.43825 0.118281 4.05999e-21)
(1.64296 0.106427 -3.10125e-20)
(1.67997 0.23672 -1.36165e-20)
(1.83826 0.135231 -3.46961e-20)
(1.95784 0.247069 1.14746e-19)
(0.975743 -0.0293962 -5.06383e-21)
(1.04393 -0.0742205 -1.12312e-20)
(1.03426 -0.0581957 -5.8679e-21)
(1.12094 -0.017241 -4.96539e-21)
(1.23916 0.0847272 -2.67994e-35)
(1.41606 0.066791 7.72684e-21)
(1.45407 0.070092 -8.62622e-34)
(1.64543 0.187159 -1.11129e-20)
(1.73035 0.0945438 1.73019e-20)
(1.94243 0.175573 2.27237e-20)
(0.960919 -0.0480104 1.34384e-19)
(1.0495 -0.0750399 -4.73938e-21)
(0.955653 -0.072795 -6.90045e-21)
(0.971783 -0.0357879 1.02465e-20)
(0.983735 0.0281693 7.47292e-21)
(1.19957 0.02255 1.16262e-20)
(1.08376 0.0437335 1.34303e-20)
(1.43487 0.101212 -2.79285e-20)
(1.43968 0.0466379 -2.80503e-20)
(1.72064 0.0944942 7.40747e-20)
(0.872542 -0.0322724 6.46766e-21)
(0.857412 -0.0562329 -5.25228e-35)
(0.588122 -0.0480652 -7.24427e-21)
(0.499936 -0.015756 0)
(0.480198 0.00452861 0)
(0.582198 0.00855154 8.05177e-21)
(0.528412 0.0164424 -7.02417e-36)
(0.793553 0.027131 -1.03381e-20)
(0.79199 0.0148803 -2.65916e-20)
(1.01338 0.0350505 -3.7564e-20)
(1.50308 0.731234 1.4758e-19)
(1.61222 0.715194 -5.54124e-20)
(1.73591 0.690693 -3.24284e-21)
(1.85454 0.658262 5.53e-20)
(1.9632 0.620141 -2.26534e-19)
(2.05883 0.573958 -4.26191e-19)
(2.14403 0.528226 -1.98891e-19)