/*--------------------------------*- C++ -*----------------------------------*\
| =========                 |                                                 |
| \\      /  F ield         | OpenFOAM: The Open Source CFD Toolbox           |
|  \\    /   O peration     | Version:  2406                                  |
|   \\  /    A nd           | Website:  www.openfoam.com                      |
|    \\/     M anipulation  |                                                 |
\*---------------------------------------------------------------------------*/
FoamFile
{
    version     2.0;
    format      ascii;
    arch        "LSB;label=32;scalar=64";
    class       volVectorField;
    location    "1.9";
    object      flux;
}
// * * * * * * * * * * * * * * * * * * * * * * * * * * * * * * * * * * * * * //

dimensions      [0 1 -1 1 0 0 0];

internalField   nonuniform List<vector> 
2500
(
(0.00101464 0.00101464 0)
(0.00303997 0.00102074 0)
(0.00505962 0.00103322 0)
(0.00707196 0.00105188 0)
(0.0090712 0.00107678 0)
(0.0110534 0.00110793 0)
(0.0130145 0.00114536 0)
(0.0149501 0.00118908 0)
(0.0168556 0.00123911 0)
(0.0187263 0.00129548 0)
(0.0205571 0.00135819 0)
(0.0223426 0.00142726 0)
(0.024077 0.00150267 0)
(0.0257544 0.00158441 0)
(0.0273686 0.00167245 0)
(0.0289128 0.00176673 0)
(0.0303802 0.00186718 0)
(0.0317638 0.00197369 0)
(0.0330561 0.00208615 0)
(0.0342497 0.00220437 0)
(0.0353368 0.00232817 0)
(0.0363098 0.0024573 0)
(0.037161 0.00259148 0)
(0.0378827 0.00273036 0)
(0.0384675 0.00287357 0)
(0.0389082 0.00302067 0)
(0.0391979 0.00317117 0)
(0.0393301 0.00332453 0)
(0.0392991 0.00348014 0)
(0.0390996 0.00363734 0)
(0.0387273 0.00379543 0)
(0.0381787 0.00395364 0)
(0.0374512 0.00411117 0)
(0.0365435 0.00426715 0)
(0.0354553 0.00442069 0)
(0.0341877 0.00457089 0)
(0.032743 0.00471678 0)
(0.0311251 0.00485742 0)
(0.029339 0.00499184 0)
(0.0273915 0.0051191 0)
(0.0252906 0.00523827 0)
(0.0230459 0.00534845 0)
(0.0206682 0.0054488 0)
(0.0181696 0.00553852 0)
(0.0155636 0.00561689 0)
(0.0128647 0.0056833 0)
(0.0100881 0.0057372 0)
(0.00725003 0.00577817 0)
(0.0043674 0.00580566 0)
(0.00145855 0.00581821 0)
(0.00102074 0.00303997 0)
(0.00305854 0.00305854 0)
(0.00509076 0.0030959 0)
(0.00711553 0.00315188 0)
(0.00912725 0.00322656 0)
(0.011122 0.00332001 0)
(0.0130956 0.00343229 0)
(0.0150438 0.00356346 0)
(0.016962 0.00371358 0)
(0.0188454 0.00388272 0)
(0.0206889 0.0040709 0)
(0.022487 0.00427815 0)
(0.0242342 0.00450446 0)
(0.0259242 0.00474978 0)
(0.0275509 0.005014 0)
(0.0291075 0.00529699 0)
(0.0305872 0.00559851 0)
(0.0319828 0.00591827 0)
(0.0332868 0.00625588 0)
(0.0344917 0.00661085 0)
(0.0355897 0.00698257 0)
(0.0365731 0.00737034 0)
(0.0374341 0.00777328 0)
(0.0381648 0.00819041 0)
(0.0387579 0.00862057 0)
(0.0392058 0.00906245 0)
(0.0395017 0.0095146 0)
(0.0396391 0.00997536 0)
(0.0396119 0.0104429 0)
(0.0394149 0.0109154 0)
(0.0390436 0.0113905 0)
(0.0384944 0.011866 0)
(0.0377647 0.0123395 0)
(0.0368531 0.0128084 0)
(0.0357591 0.0132701 0)
(0.0344838 0.0137217 0)
(0.0330296 0.0141604 0)
(0.0314001 0.0145834 0)
(0.0296007 0.0149876 0)
(0.0276379 0.0153704 0)
(0.02552 0.0157289 0)
(0.0232564 0.0160604 0)
(0.0208582 0.0163622 0)
(0.0183377 0.0166322 0)
(0.0157084 0.016868 0)
(0.012985 0.0170677 0)
(0.010183 0.0172299 0)
(0.00731848 0.0173532 0)
(0.00440743 0.0174366 0)
(0.0014711 0.0174769 0)
(0.00103322 0.00505962 0)
(0.0030959 0.00509076 0)
(0.00515296 0.00515296 0)
(0.00720263 0.00524627 0)
(0.00923933 0.0053708 0)
(0.0112591 0.00552663 0)
(0.0132579 0.00571386 0)
(0.0152314 0.00593262 0)
(0.0171749 0.00618301 0)
(0.0190837 0.00646512 0)
(0.0209526 0.00677904 0)
(0.0227761 0.00712479 0)
(0.0245486 0.00750236 0)
(0.026264 0.0079117 0)
(0.0279158 0.00835263 0)
(0.0294973 0.00882493 0)
(0.0310015 0.00932822 0)
(0.0324212 0.00986203 0)
(0.0337487 0.0104257 0)
(0.0349764 0.0110185 0)
(0.0360963 0.0116393 0)
(0.0371005 0.012287 0)
(0.0379811 0.0129602 0)
(0.03873 0.0136572 0)
(0.0393396 0.0143761 0)
(0.0398022 0.0151147 0)
(0.0401108 0.0158706 0)
(0.0402584 0.0166411 0)
(0.0402391 0.0174231 0)
(0.0400471 0.0182133 0)
(0.039678 0.0190082 0)
(0.0391277 0.019804 0)
(0.0383937 0.0205965 0)
(0.0374741 0.0213814 0)
(0.0363686 0.0221544 0)
(0.035078 0.0229106 0)
(0.0336047 0.0236454 0)
(0.0319523 0.0243539 0)
(0.0301261 0.0250313 0)
(0.0281327 0.0256727 0)
(0.0259805 0.0262734 0)
(0.0236792 0.026829 0)
(0.02124 0.027335 0)
(0.0186753 0.0277875 0)
(0.0159992 0.0281828 0)
(0.0132266 0.0285177 0)
(0.0103736 0.0287894 0)
(0.00745679 0.0289958 0)
(0.00449112 0.0291352 0)
(0.00149885 0.0292049 0)
(0.00105188 0.00707196 0)
(0.00315188 0.00711553 0)
(0.00524627 0.00720263 0)
(0.00733337 0.00733337 0)
(0.0094076 0.00750786 0)
(0.0114651 0.00772623 0)
(0.0135016 0.00798864 0)
(0.015513 0.00829525 0)
(0.0174945 0.00864622 0)
(0.0194415 0.00904171 0)
(0.0213486 0.00948182 0)
(0.0232104 0.00996663 0)
(0.0250211 0.0104961 0)
(0.0267745 0.0110703 0)
(0.0284641 0.0116888 0)
(0.0300831 0.0123515 0)
(0.0316243 0.0130578 0)
(0.0330803 0.013807 0)
(0.0344432 0.0145984 0)
(0.0357053 0.0154307 0)
(0.0368583 0.0163027 0)
(0.037894 0.0172126 0)
(0.0388042 0.0181586 0)
(0.0395807 0.0191382 0)
(0.0402154 0.0201489 0)
(0.0407003 0.0211876 0)
(0.0410281 0.0222508 0)
(0.0411915 0.0233349 0)
(0.0411841 0.0244354 0)
(0.041 0.0255479 0)
(0.0406343 0.0266673 0)
(0.0400827 0.0277881 0)
(0.0393422 0.0289048 0)
(0.038411 0.030011 0)
(0.0372883 0.0311007 0)
(0.0359748 0.032167 0)
(0.0344729 0.0332034 0)
(0.032786 0.034203 0)
(0.0309195 0.0351588 0)
(0.0288801 0.0360641 0)
(0.0266763 0.0369122 0)
(0.024318 0.0376967 0)
(0.0218168 0.0384113 0)
(0.0191855 0.0390504 0)
(0.0164386 0.0396088 0)
(0.0135916 0.0400818 0)
(0.010661 0.0404654 0)
(0.00766431 0.0407563 0)
(0.00461652 0.040952 0)
(0.00154074 0.0410502 0)
(0.00107678 0.0090712 0)
(0.00322656 0.00912725 0)
(0.0053708 0.00923933 0)
(0.00750786 0.0094076 0)
(0.00963219 0.00963219 0)
(0.0117399 0.0099133 0)
(0.0138269 0.0102511 0)
(0.015889 0.0106459 0)
(0.0179214 0.0110978 0)
(0.0199193 0.0116072 0)
(0.0218775 0.0121741 0)
(0.0237905 0.0127987 0)
(0.0256523 0.0134809 0)
(0.0274567 0.0142209 0)
(0.029197 0.0150183 0)
(0.0308663 0.0158727 0)
(0.0324571 0.0167836 0)
(0.0339618 0.0177501 0)
(0.0353724 0.0187713 0)
(0.0366807 0.0198456 0)
(0.0378782 0.0209714 0)
(0.0389564 0.0221466 0)
(0.0399067 0.0233687 0)
(0.0407203 0.0246348 0)
(0.041389 0.0259414 0)
(0.0419042 0.0272847 0)
(0.0422581 0.0286603 0)
(0.042443 0.0300633 0)
(0.0424521 0.0314882 0)
(0.042279 0.032929 0)
(0.0419182 0.0343793 0)
(0.0413652 0.0358321 0)
(0.0406166 0.0372799 0)
(0.03967 0.0387149 0)
(0.0385246 0.0401287 0)
(0.0371808 0.0415129 0)
(0.0356406 0.0428586 0)
(0.0339077 0.0441569 0)
(0.0319872 0.0453989 0)
(0.0298862 0.0465755 0)
(0.0276131 0.0476781 0)
(0.0251783 0.0486982 0)
(0.0225937 0.0496277 0)
(0.0198728 0.0504592 0)
(0.0170305 0.0511857 0)
(0.0140832 0.0518011 0)
(0.0110481 0.0523001 0)
(0.00794341 0.0526785 0)
(0.00478504 0.0529327 0)
(0.00159708 0.0530604 0)
(0.00110793 0.0110534 0)
(0.00332001 0.011122 0)
(0.00552663 0.0112591 0)
(0.00772623 0.0114651 0)
(0.0099133 0.0117399 0)
(0.012084 0.012084 0)
(0.0142342 0.0124975 0)
(0.0163597 0.0129808 0)
(0.0184558 0.0135342 0)
(0.0205177 0.014158 0)
(0.02254 0.0148524 0)
(0.0245173 0.0156176 0)
(0.0264433 0.0164537 0)
(0.0283118 0.0173607 0)
(0.0301159 0.0183384 0)
(0.0318484 0.0193863 0)
(0.0335018 0.0205038 0)
(0.0350679 0.02169 0)
(0.0365387 0.0229436 0)
(0.0379054 0.024263 0)
(0.0391593 0.0256461 0)
(0.0402913 0.0270905 0)
(0.0412924 0.0285931 0)
(0.0421534 0.0301505 0)
(0.0428653 0.0317584 0)
(0.0434192 0.0334122 0)
(0.0438066 0.0351064 0)
(0.0440194 0.0368352 0)
(0.0440499 0.0385919 0)
(0.0438912 0.040369 0)
(0.0435374 0.0421586 0)
(0.0429833 0.0439522 0)
(0.042225 0.0457404 0)
(0.0412598 0.0475135 0)
(0.0400863 0.0492614 0)
(0.0387047 0.0509734 0)
(0.0371169 0.0526385 0)
(0.0353262 0.0542456 0)
(0.033338 0.0557836 0)
(0.0311593 0.0572413 0)
(0.0287989 0.0586077 0)
(0.0262676 0.0598723 0)
(0.0235777 0.0610249 0)
(0.0207435 0.0620562 0)
(0.0177805 0.0629575 0)
(0.014706 0.0637211 0)
(0.0115385 0.0643404 0)
(0.0082969 0.0648098 0)
(0.00499844 0.0651252 0)
(0.00166842 0.0652836 0)
(0.00114536 0.0130145 0)
(0.00343229 0.0130956 0)
(0.00571386 0.0132579 0)
(0.00798864 0.0135016 0)
(0.0102511 0.0138269 0)
(0.0124975 0.0142342 0)
(0.0147238 0.0147238 0)
(0.0169257 0.0152961 0)
(0.0190985 0.0159514 0)
(0.0212374 0.0166903 0)
(0.0233371 0.0175131 0)
(0.0253918 0.0184199 0)
(0.0273954 0.0194111 0)
(0.0293413 0.0204866 0)
(0.0312226 0.0216463 0)
(0.0330317 0.0228898 0)
(0.0347608 0.0242163 0)
(0.0364016 0.025625 0)
(0.0379454 0.0271142 0)
(0.0393832 0.0286824 0)
(0.0407057 0.030327 0)
(0.0419034 0.0320452 0)
(0.0429666 0.0338336 0)
(0.0438856 0.0356881 0)
(0.0446506 0.0376038 0)
(0.0452523 0.0395751 0)
(0.0456811 0.0415959 0)
(0.0459284 0.0436589 0)
(0.0459859 0.0457564 0)
(0.0458458 0.0478795 0)
(0.0455014 0.0500187 0)
(0.044947 0.0521639 0)
(0.044178 0.0543039 0)
(0.043191 0.0564271 0)
(0.0419844 0.0585211 0)
(0.0405579 0.0605732 0)
(0.0389129 0.0625703 0)
(0.0370528 0.0644987 0)
(0.0349829 0.0663451 0)
(0.0327102 0.0680959 0)
(0.0302441 0.0697378 0)
(0.0275955 0.0712579 0)
(0.0247777 0.072644 0)
(0.0218054 0.0738845 0)
(0.0186954 0.074969 0)
(0.015466 0.075888 0)
(0.0121368 0.0766334 0)
(0.00872824 0.0771985 0)
(0.00525883 0.0775781 0)
(0.00175548 0.0777688 0)
(0.00118908 0.0149501 0)
(0.00356346 0.0150438 0)
(0.00593262 0.0152314 0)
(0.00829525 0.015513 0)
(0.0106459 0.015889 0)
(0.0129808 0.0163597 0)
(0.0152961 0.0169257 0)
(0.0175873 0.0175873 0)
(0.0198501 0.0183453 0)
(0.0220793 0.0192 0)
(0.0242697 0.020152 0)
(0.0264153 0.0212017 0)
(0.02851 0.0223493 0)
(0.030547 0.023595 0)
(0.0325191 0.0249387 0)
(0.0344184 0.02638 0)
(0.0362369 0.0279183 0)
(0.0379658 0.0295526 0)
(0.0395961 0.0312812 0)
(0.0411182 0.0331023 0)
(0.0425222 0.0350132 0)
(0.043798 0.0370108 0)
(0.0449353 0.0390911 0)
(0.0459235 0.0412496 0)
(0.0467524 0.0434806 0)
(0.0474114 0.045778 0)
(0.0478904 0.0481343 0)
(0.0481798 0.0505416 0)
(0.0482704 0.0529906 0)
(0.0481536 0.0554712 0)
(0.0478218 0.0579724 0)
(0.0472685 0.0604821 0)
(0.0464882 0.0629875 0)
(0.045477 0.0654748 0)
(0.0442325 0.0679296 0)
(0.0427539 0.0703368 0)
(0.0410424 0.0726808 0)
(0.0391011 0.0749457 0)
(0.0369352 0.0771154 0)
(0.034552 0.0791739 0)
(0.0319609 0.0811054 0)
(0.0291738 0.0828945 0)
(0.0262044 0.0845265 0)
(0.0230685 0.0859877 0)
(0.019784 0.0872656 0)
(0.0163704 0.0883487 0)
(0.012849 0.0892274 0)
(0.00924167 0.0898937 0)
(0.00556879 0.0903415 0)
(0.0018591 0.0905663 0)
(0.00123911 0.0168556 0)
(0.00371358 0.016962 0)
(0.00618301 0.0171749 0)
(0.00864622 0.0174945 0)
(0.0110978 0.0179214 0)
(0.0135342 0.0184558 0)
(0.0159514 0.0190985 0)
(0.0183453 0.0198501 0)
(0.0207112 0.0207112 0)
(0.0230442 0.0216825 0)
(0.0253388 0.0227647 0)
(0.0275891 0.0239583 0)
(0.0297887 0.0252638 0)
(0.0319307 0.0266815 0)
(0.0340076 0.0282113 0)
(0.0360113 0.0298531 0)
(0.0379333 0.0316062 0)
(0.0397645 0.0334696 0)
(0.0414951 0.0354418 0)
(0.0431152 0.0375206 0)
(0.0446142 0.0397033 0)
(0.0459813 0.0419864 0)
(0.0472054 0.0443656 0)
(0.0482751 0.0468358 0)
(0.049179 0.049391 0)
(0.049906 0.0520239 0)
(0.0504448 0.0547264 0)
(0.0507847 0.0574894 0)
(0.0509155 0.0603024 0)
(0.0508276 0.0631539 0)
(0.0505123 0.0660313 0)
(0.0499621 0.0689207 0)
(0.0491707 0.0718074 0)
(0.0481332 0.0746754 0)
(0.0468464 0.077508 0)
(0.045309 0.0802878 0)
(0.0435218 0.0829965 0)
(0.0414874 0.0856157 0)
(0.0392111 0.0881265 0)
(0.0367002 0.09051 0)
(0.0339646 0.0927479 0)
(0.0310166 0.0948219 0)
(0.0278709 0.0967148 0)
(0.0245445 0.0984103 0)
(0.0210564 0.0998937 0)
(0.0174279 0.101151 0)
(0.0136818 0.102172 0)
(0.00984226 0.102946 0)
(0.00593141 0.103466 0)
(0.00198034 0.103728 0)
(0.00129548 0.0187263 0)
(0.00388272 0.0188454 0)
(0.00646512 0.0190837 0)
(0.00904171 0.0194415 0)
(0.0116072 0.0199193 0)
(0.014158 0.0205177 0)
(0.0166903 0.0212374 0)
(0.0192 0.0220793 0)
(0.0216825 0.0230442 0)
(0.0241328 0.0241328 0)
(0.0265455 0.0253462 0)
(0.0289144 0.026685 0)
(0.0312332 0.0281499 0)
(0.0334945 0.0297414 0)
(0.0356907 0.0314597 0)
(0.0378133 0.0333046 0)
(0.0398534 0.0352758 0)
(0.0418014 0.0373722 0)
(0.043647 0.0395923 0)
(0.0453796 0.0419341 0)
(0.046988 0.0443945 0)
(0.0484603 0.0469699 0)
(0.0497847 0.0496558 0)
(0.0509489 0.0524466 0)
(0.0519404 0.0553355 0)
(0.0527469 0.0583148 0)
(0.053356 0.0613754 0)
(0.0537558 0.0645072 0)
(0.0539349 0.0676983 0)
(0.0538825 0.070936 0)
(0.0535886 0.0742059 0)
(0.0530445 0.0774923 0)
(0.0522428 0.0807785 0)
(0.0511776 0.0840463 0)
(0.0498449 0.0872766 0)
(0.0482424 0.0904493 0)
(0.0463703 0.0935434 0)
(0.044231 0.0965376 0)
(0.0418295 0.0994101 0)
(0.0391734 0.102139 0)
(0.0362728 0.104703 0)
(0.0331407 0.107081 0)
(0.0297928 0.109252 0)
(0.0262474 0.111198 0)
(0.0225251 0.112901 0)
(0.0186489 0.114346 0)
(0.0146438 0.115519 0)
(0.010536 0.116408 0)
(0.00635033 0.117006 0)
(0.00212041 0.117307 0)
(0.00135819 0.0205571 0)
(0.0040709 0.0206889 0)
(0.00677904 0.0209526 0)
(0.00948182 0.0213486 0)
(0.0121741 0.0218775 0)
(0.0148524 0.02254 0)
(0.0175131 0.0233371 0)
(0.020152 0.0242697 0)
(0.0227647 0.0253388 0)
(0.0253462 0.0265455 0)
(0.0278909 0.0278909 0)
(0.0303928 0.0293761 0)
(0.0328451 0.0310019 0)
(0.0352405 0.0327691 0)
(0.0375708 0.0346782 0)
(0.0398275 0.0367291 0)
(0.0420009 0.0389217 0)
(0.044081 0.0412552 0)
(0.046057 0.0437281 0)
(0.0479173 0.0463383 0)
(0.0496501 0.049083 0)
(0.0512427 0.0519582 0)
(0.052682 0.0549592 0)
(0.0539547 0.05808 0)
(0.0550473 0.0613135 0)
(0.0559459 0.0646511 0)
(0.0566372 0.0680831 0)
(0.0571076 0.0715981 0)
(0.0573443 0.0751833 0)
(0.0573351 0.0788242 0)
(0.0570686 0.082505 0)
(0.0565347 0.0862082 0)
(0.0557247 0.0899147 0)
(0.0546313 0.093604 0)
(0.0532493 0.0972546 0)
(0.0515759 0.100843 0)
(0.0496101 0.104347 0)
(0.0473541 0.10774 0)
(0.0448125 0.110998 0)
(0.041993 0.114096 0)
(0.0389061 0.117008 0)
(0.0355656 0.119712 0)
(0.0319882 0.122182 0)
(0.0281937 0.124397 0)
(0.0242044 0.126337 0)
(0.0200455 0.127983 0)
(0.0157444 0.12932 0)
(0.01133 0.130334 0)
(0.00682985 0.131016 0)
(0.00228076 0.131359 0)
(0.00142726 0.0223426 0)
(0.00427815 0.022487 0)
(0.00712479 0.0227761 0)
(0.00996663 0.0232104 0)
(0.0127987 0.0237905 0)
(0.0156176 0.0245173 0)
(0.0184199 0.0253918 0)
(0.0212017 0.0264153 0)
(0.0239583 0.0275891 0)
(0.026685 0.0289144 0)
(0.0293761 0.0303928 0)
(0.0320255 0.0320255 0)
(0.0346262 0.0338137 0)
(0.0371707 0.0357584 0)
(0.0396507 0.0378605 0)
(0.0420569 0.0401203 0)
(0.0443795 0.0425379 0)
(0.0466078 0.0451126 0)
(0.0487302 0.0478432 0)
(0.0507345 0.0507278 0)
(0.0526078 0.0537635 0)
(0.0543365 0.0569464 0)
(0.0559065 0.0602716 0)
(0.0573032 0.0637328 0)
(0.0585115 0.0673225 0)
(0.0595165 0.0710316 0)
(0.060303 0.0748494 0)
(0.060856 0.0787637 0)
(0.061161 0.0827604 0)
(0.0612042 0.0868238 0)
(0.0609725 0.0909361 0)
(0.0604541 0.0950779 0)
(0.0596387 0.0992281 0)
(0.0585176 0.103364 0)
(0.0570843 0.10746 0)
(0.0553345 0.111492 0)
(0.0532668 0.115431 0)
(0.0508823 0.119251 0)
(0.0481854 0.122922 0)
(0.0451838 0.126415 0)
(0.0418885 0.129703 0)
(0.038314 0.132757 0)
(0.0344781 0.135549 0)
(0.0304024 0.138055 0)
(0.0261111 0.140251 0)
(0.021632 0.142116 0)
(0.0169951 0.143631 0)
(0.0122325 0.14478 0)
(0.007375 0.145554 0)
(0.00246307 0.145942 0)
(0.00150267 0.024077 0)
(0.00450446 0.0242342 0)
(0.00750236 0.0245486 0)
(0.0104961 0.0250211 0)
(0.0134809 0.0256523 0)
(0.0164537 0.0264433 0)
(0.0194111 0.0273954 0)
(0.0223493 0.02851 0)
(0.0252638 0.0297887 0)
(0.0281499 0.0312332 0)
(0.0310019 0.0328451 0)
(0.0338137 0.0346262 0)
(0.0365781 0.0365781 0)
(0.0392873 0.0387021 0)
(0.0419327 0.0409994 0)
(0.0445048 0.0434709 0)
(0.0469931 0.0461168 0)
(0.0493863 0.0489369 0)
(0.0516722 0.0519304 0)
(0.0538376 0.0550954 0)
(0.0558687 0.0584293 0)
(0.0577508 0.0619282 0)
(0.0594684 0.0655872 0)
(0.0610056 0.0693999 0)
(0.062346 0.0733583 0)
(0.0634728 0.0774528 0)
(0.0643693 0.0816723 0)
(0.0650186 0.0860034 0)
(0.0654044 0.0904309 0)
(0.0655107 0.0949377 0)
(0.0653228 0.0995043 0)
(0.0648267 0.104109 0)
(0.0640103 0.108729 0)
(0.0628633 0.113338 0)
(0.0613773 0.11791 0)
(0.0595469 0.122414 0)
(0.0573692 0.12682 0)
(0.0548447 0.131097 0)
(0.0519772 0.135212 0)
(0.0487744 0.139133 0)
(0.0452475 0.142826 0)
(0.0414119 0.146259 0)
(0.0372869 0.149401 0)
(0.0328955 0.152223 0)
(0.0282647 0.154698 0)
(0.0234247 0.1568 0)
(0.018409 0.158509 0)
(0.013253 0.159806 0)
(0.0079916 0.160679 0)
(0.0026693 0.161118 0)
(0.00158441 0.0257544 0)
(0.00474978 0.0259242 0)
(0.0079117 0.026264 0)
(0.0110703 0.0267745 0)
(0.0142209 0.0274567 0)
(0.0173607 0.0283118 0)
(0.0204866 0.0293413 0)
(0.023595 0.030547 0)
(0.0266815 0.0319307 0)
(0.0297414 0.0334945 0)
(0.0327691 0.0352405 0)
(0.0357584 0.0371707 0)
(0.0387021 0.0392873 0)
(0.0415921 0.0415921 0)
(0.0444195 0.0440867 0)
(0.0471743 0.0467724 0)
(0.0498456 0.04965 0)
(0.0524214 0.0527198 0)
(0.0548886 0.0559811 0)
(0.0572334 0.0594327 0)
(0.0594407 0.063072 0)
(0.0614945 0.0668956 0)
(0.0633782 0.0708984 0)
(0.0650742 0.075074 0)
(0.0665645 0.0794144 0)
(0.0678305 0.0839095 0)
(0.0688535 0.0885475 0)
(0.0696146 0.0933143 0)
(0.0700953 0.0981935 0)
(0.0702776 0.103167 0)
(0.0701441 0.108213 0)
(0.069679 0.113308 0)
(0.0688678 0.118426 0)
(0.067698 0.12354 0)
(0.0661595 0.128618 0)
(0.064245 0.133628 0)
(0.0619502 0.138536 0)
(0.0592745 0.143306 0)
(0.0562211 0.147901 0)
(0.0527972 0.152283 0)
(0.0490147 0.156416 0)
(0.0448895 0.160262 0)
(0.0404425 0.163785 0)
(0.0356987 0.166952 0)
(0.0306877 0.169731 0)
(0.0254429 0.172093 0)
(0.0200013 0.174015 0)
(0.0144028 0.175474 0)
(0.00868643 0.176456 0)
(0.00290171 0.17695 0)
(0.00167245 0.0273686 0)
(0.005014 0.0275509 0)
(0.00835263 0.0279158 0)
(0.0116888 0.0284641 0)
(0.0150183 0.029197 0)
(0.0183384 0.0301159 0)
(0.0216463 0.0312226 0)
(0.0249387 0.0325191 0)
(0.0282113 0.0340076 0)
(0.0314597 0.0356907 0)
(0.0346782 0.0375708 0)
(0.0378605 0.0396507 0)
(0.0409994 0.0419327 0)
(0.0440867 0.0444195 0)
(0.0471131 0.0471131 0)
(0.0500682 0.0500154 0)
(0.0529405 0.0531278 0)
(0.0557174 0.0564511 0)
(0.0583851 0.0599852 0)
(0.0609285 0.0637294 0)
(0.0633316 0.0676815 0)
(0.0655771 0.0718384 0)
(0.0676468 0.0761953 0)
(0.0695216 0.0807459 0)
(0.0711815 0.0854821 0)
(0.0726059 0.0903937 0)
(0.073774 0.0954682 0)
(0.0746646 0.100691 0)
(0.0752567 0.106044 0)
(0.0755297 0.111509 0)
(0.0754639 0.117061 0)
(0.0750404 0.122676 0)
(0.0742425 0.128325 0)
(0.0730551 0.133977 0)
(0.0714657 0.139598 0)
(0.0694649 0.145152 0)
(0.0670468 0.150601 0)
(0.0642093 0.155903 0)
(0.0609545 0.161017 0)
(0.0572895 0.165902 0)
(0.0532261 0.170514 0)
(0.0487812 0.17481 0)
(0.0439772 0.17875 0)
(0.0388413 0.182295 0)
(0.033406 0.185409 0)
(0.0277084 0.188057 0)
(0.0217898 0.190213 0)
(0.0156947 0.191851 0)
(0.00946734 0.192953 0)
(0.00316296 0.193508 0)
(0.00176673 0.0289128 0)
(0.00529699 0.0291075 0)
(0.00882493 0.0294973 0)
(0.0123515 0.0300831 0)
(0.0158727 0.0308663 0)
(0.0193863 0.0318484 0)
(0.0228898 0.0330317 0)
(0.02638 0.0344184 0)
(0.0298531 0.0360113 0)
(0.0333046 0.0378133 0)
(0.0367291 0.0398275 0)
(0.0401203 0.0420569 0)
(0.0434709 0.0445048 0)
(0.0467724 0.0471743 0)
(0.0500154 0.0500682 0)
(0.053189 0.053189 0)
(0.0562813 0.0565389 0)
(0.0592788 0.0601193 0)
(0.0621669 0.0639309 0)
(0.0649297 0.0679734 0)
(0.0675497 0.0722455 0)
(0.0700083 0.0767444 0)
(0.0722857 0.0814658 0)
(0.074361 0.0864037 0)
(0.0762122 0.0915501 0)
(0.0778165 0.0968946 0)
(0.0791506 0.102425 0)
(0.0801908 0.108125 0)
(0.0809132 0.113976 0)
(0.0812944 0.119959 0)
(0.0813116 0.126047 0)
(0.0809431 0.132215 0)
(0.0801689 0.138429 0)
(0.0789712 0.144657 0)
(0.0773346 0.150861 0)
(0.0752471 0.157001 0)
(0.0727007 0.163033 0)
(0.0696914 0.168912 0)
(0.0662202 0.174592 0)
(0.0622934 0.180024 0)
(0.0579228 0.185159 0)
(0.0531264 0.18995 0)
(0.0479278 0.194348 0)
(0.042357 0.198309 0)
(0.0364496 0.201792 0)
(0.0302468 0.204756 0)
(0.0237948 0.207171 0)
(0.0171436 0.209007 0)
(0.0103434 0.210243 0)
(0.00345609 0.210864 0)
(0.00186718 0.0303802 0)
(0.00559851 0.0305872 0)
(0.00932822 0.0310015 0)
(0.0130578 0.0316243 0)
(0.0167836 0.0324571 0)
(0.0205038 0.0335018 0)
(0.0242163 0.0347608 0)
(0.0279183 0.0362369 0)
(0.0316062 0.0379333 0)
(0.0352758 0.0398534 0)
(0.0389217 0.0420009 0)
(0.0425379 0.0443795 0)
(0.0461168 0.0469931 0)
(0.04965 0.0498456 0)
(0.0531278 0.0529405 0)
(0.0565389 0.0562813 0)
(0.0598708 0.0598708 0)
(0.0631094 0.0637113 0)
(0.0662392 0.0678045 0)
(0.0692432 0.0721508 0)
(0.0721026 0.0767497 0)
(0.0747975 0.0815991 0)
(0.0773062 0.0866954 0)
(0.0796059 0.0920329 0)
(0.0816724 0.0976041 0)
(0.0834804 0.103399 0)
(0.085004 0.109404 0)
(0.0862165 0.115604 0)
(0.087091 0.121979 0)
(0.0876008 0.128509 0)
(0.0877195 0.135165 0)
(0.0874222 0.141919 0)
(0.0866851 0.148738 0)
(0.0854869 0.155583 0)
(0.0838091 0.162414 0)
(0.0816366 0.169185 0)
(0.0789584 0.17585 0)
(0.0757686 0.182357 0)
(0.0720663 0.188653 0)
(0.0678568 0.194684 0)
(0.0631519 0.200394 0)
(0.0579701 0.205728 0)
(0.0523369 0.210632 0)
(0.0462847 0.215053 0)
(0.039853 0.218944 0)
(0.0330875 0.22226 0)
(0.02604 0.224962 0)
(0.0187669 0.227018 0)
(0.0113252 0.228403 0)
(0.00378466 0.229099 0)
(0.00197369 0.0317638 0)
(0.00591827 0.0319828 0)
(0.00986203 0.0324212 0)
(0.013807 0.0330803 0)
(0.0177501 0.0339618 0)
(0.02169 0.0350679 0)
(0.025625 0.0364016 0)
(0.0295526 0.0379658 0)
(0.0334696 0.0397645 0)
(0.0373722 0.0418014 0)
(0.0412552 0.044081 0)
(0.0451126 0.0466078 0)
(0.0489369 0.0493863 0)
(0.0527198 0.0524214 0)
(0.0564511 0.0557174 0)
(0.0601193 0.0592788 0)
(0.0637113 0.0631094 0)
(0.0672125 0.0672125 0)
(0.0706064 0.0715908 0)
(0.0738749 0.0762457 0)
(0.076998 0.0811777 0)
(0.079954 0.0863856 0)
(0.0827196 0.0918667 0)
(0.0852697 0.0976161 0)
(0.0875779 0.103627 0)
(0.0896162 0.109889 0)
(0.0913557 0.116389 0)
(0.0927665 0.123113 0)
(0.0938181 0.130039 0)
(0.0944801 0.137146 0)
(0.0947224 0.144404 0)
(0.0945157 0.151783 0)
(0.0938324 0.159247 0)
(0.092647 0.166754 0)
(0.0909369 0.17426 0)
(0.0886835 0.181716 0)
(0.0858724 0.189068 0)
(0.0824946 0.196258 0)
(0.0785473 0.203229 0)
(0.0740343 0.209917 0)
(0.0689669 0.21626 0)
(0.0633641 0.222194 0)
(0.0572531 0.227657 0)
(0.0506693 0.23259 0)
(0.0436561 0.236935 0)
(0.0362646 0.240642 0)
(0.0285528 0.243665 0)
(0.0205845 0.245967 0)
(0.0124251 0.247518 0)
(0.00415278 0.248299 0)
(0.00208615 0.0330561 0)
(0.00625588 0.0332868 0)
(0.0104257 0.0337487 0)
(0.0145984 0.0344432 0)
(0.0187713 0.0353724 0)
(0.0229436 0.0365387 0)
(0.0271142 0.0379454 0)
(0.0312812 0.0395961 0)
(0.0354418 0.0414951 0)
(0.0395923 0.043647 0)
(0.0437281 0.046057 0)
(0.0478432 0.0487302 0)
(0.0519304 0.0516722 0)
(0.0559811 0.0548886 0)
(0.0599852 0.0583851 0)
(0.0639309 0.0621669 0)
(0.0678045 0.0662392 0)
(0.0715908 0.0706064 0)
(0.0752724 0.0752724 0)
(0.0788301 0.0802398 0)
(0.0822425 0.0855104 0)
(0.0854865 0.0910843 0)
(0.0885367 0.0969596 0)
(0.0913659 0.103133 0)
(0.0939449 0.109597 0)
(0.096243 0.116344 0)
(0.098228 0.123361 0)
(0.0998664 0.130632 0)
(0.101124 0.138137 0)
(0.101966 0.145853 0)
(0.102357 0.15375 0)
(0.102265 0.161794 0)
(0.101656 0.169948 0)
(0.1005 0.178167 0)
(0.0987707 0.186402 0)
(0.0964436 0.194598 0)
(0.0935009 0.202697 0)
(0.0899299 0.210635 0)
(0.0857249 0.218345 0)
(0.0808877 0.225757 0)
(0.0754288 0.232798 0)
(0.0693675 0.239397 0)
(0.0627326 0.245482 0)
(0.0555624 0.250984 0)
(0.0479051 0.255837 0)
(0.0398175 0.259981 0)
(0.031365 0.263365 0)
(0.02262 0.265943 0)
(0.0136572 0.267681 0)
(0.00456527 0.268556 0)
(0.00220437 0.0342497 0)
(0.00661085 0.0344917 0)
(0.0110185 0.0349764 0)
(0.0154307 0.0357053 0)
(0.0198456 0.0366807 0)
(0.024263 0.0379054 0)
(0.0286824 0.0393832 0)
(0.0331023 0.0411182 0)
(0.0375206 0.0431152 0)
(0.0419341 0.0453796 0)
(0.0463383 0.0479173 0)
(0.0507278 0.0507345 0)
(0.0550954 0.0538376 0)
(0.0594327 0.0572334 0)
(0.0637294 0.0609285 0)
(0.0679734 0.0649297 0)
(0.0721508 0.0692432 0)
(0.0762457 0.0738749 0)
(0.0802398 0.0788301 0)
(0.084113 0.084113 0)
(0.0878424 0.0897267 0)
(0.0914032 0.0956727 0)
(0.094768 0.101951 0)
(0.0979073 0.108559 0)
(0.100789 0.115491 0)
(0.10338 0.12274 0)
(0.105644 0.130294 0)
(0.107543 0.138137 0)
(0.109039 0.14625 0)
(0.110093 0.154608 0)
(0.110664 0.163182 0)
(0.110714 0.171935 0)
(0.110205 0.180828 0)
(0.109101 0.189812 0)
(0.107368 0.198834 0)
(0.104979 0.207834 0)
(0.101909 0.216748 0)
(0.0981424 0.225504 0)
(0.0936687 0.234026 0)
(0.0884875 0.242236 0)
(0.0826076 0.250052 0)
(0.0760482 0.25739 0)
(0.0688398 0.264169 0)
(0.0610239 0.270307 0)
(0.0526534 0.275729 0)
(0.0437922 0.280366 0)
(0.0345139 0.284154 0)
(0.0249007 0.287043 0)
(0.0150383 0.288993 0)
(0.00502774 0.289974 0)
(0.00232817 0.0353368 0)
(0.00698257 0.0355897 0)
(0.0116393 0.0360963 0)
(0.0163027 0.0368583 0)
(0.0209714 0.0378782 0)
(0.0256461 0.0391593 0)
(0.030327 0.0407057 0)
(0.0350132 0.0425222 0)
(0.0397033 0.0446142 0)
(0.0443945 0.046988 0)
(0.049083 0.0496501 0)
(0.0537635 0.0526078 0)
(0.0584293 0.0558687 0)
(0.063072 0.0594407 0)
(0.0676815 0.0633316 0)
(0.0722455 0.0675497 0)
(0.0767497 0.0721026 0)
(0.0811777 0.076998 0)
(0.0855104 0.0822425 0)
(0.0897267 0.0878424 0)
(0.0938023 0.0938023 0)
(0.0977108 0.100126 0)
(0.101423 0.106814 0)
(0.104906 0.113867 0)
(0.108126 0.12128 0)
(0.111046 0.129047 0)
(0.113625 0.137158 0)
(0.115823 0.145599 0)
(0.117595 0.154349 0)
(0.118897 0.163384 0)
(0.119685 0.172675 0)
(0.119911 0.182183 0)
(0.119533 0.191866 0)
(0.118506 0.201673 0)
(0.116793 0.211546 0)
(0.114358 0.22142 0)
(0.11117 0.231223 0)
(0.107208 0.240876 0)
(0.102458 0.250294 0)
(0.0969135 0.259387 0)
(0.0905829 0.268063 0)
(0.0834843 0.276226 0)
(0.0756494 0.283781 0)
(0.067123 0.290634 0)
(0.0579636 0.296697 0)
(0.0482424 0.301888 0)
(0.0380428 0.306136 0)
(0.0274584 0.309377 0)
(0.016588 0.311566 0)
(0.0055468 0.312668 0)
(0.0024573 0.0363098 0)
(0.00737034 0.0365731 0)
(0.012287 0.0371005 0)
(0.0172126 0.037894 0)
(0.0221466 0.0389564 0)
(0.0270905 0.0402913 0)
(0.0320452 0.0419034 0)
(0.0370108 0.043798 0)
(0.0419864 0.0459813 0)
(0.0469699 0.0484603 0)
(0.0519582 0.0512427 0)
(0.0569464 0.0543365 0)
(0.0619282 0.0577508 0)
(0.0668956 0.0614945 0)
(0.0718384 0.0655771 0)
(0.0767444 0.0700083 0)
(0.0815991 0.0747975 0)
(0.0863856 0.079954 0)
(0.0910843 0.0854865 0)
(0.0956727 0.0914032 0)
(0.100126 0.0977108 0)
(0.104415 0.104415 0)
(0.108509 0.111519 0)
(0.112373 0.119025 0)
(0.11597 0.126931 0)
(0.119258 0.135232 0)
(0.122195 0.14392 0)
(0.124733 0.152982 0)
(0.126825 0.162399 0)
(0.128418 0.172147 0)
(0.129463 0.182196 0)
(0.129906 0.192507 0)
(0.129695 0.203036 0)
(0.128781 0.213728 0)
(0.127115 0.224521 0)
(0.124656 0.235345 0)
(0.121365 0.24612 0)
(0.117213 0.256759 0)
(0.11218 0.267166 0)
(0.106257 0.27724 0)
(0.0994462 0.286874 0)
(0.0917656 0.295959 0)
(0.0832476 0.304385 0)
(0.0739403 0.312044 0)
(0.0639081 0.318832 0)
(0.0532308 0.324653 0)
(0.0420027 0.329421 0)
(0.0303309 0.333064 0)
(0.0183293 0.335525 0)
(0.00613022 0.336766 0)
(0.00259148 0.037161 0)
(0.00777328 0.0374341 0)
(0.0129602 0.0379811 0)
(0.0181586 0.0388042 0)
(0.0233687 0.0399067 0)
(0.0285931 0.0412924 0)
(0.0338336 0.0429666 0)
(0.0390911 0.0449353 0)
(0.0443656 0.0472054 0)
(0.0496558 0.0497847 0)
(0.0549592 0.052682 0)
(0.0602716 0.0559065 0)
(0.0655872 0.0594684 0)
(0.0708984 0.0633782 0)
(0.0761953 0.0676468 0)
(0.0814658 0.0722857 0)
(0.0866954 0.0773062 0)
(0.0918667 0.0827196 0)
(0.0969596 0.0885367 0)
(0.101951 0.094768 0)
(0.106814 0.101423 0)
(0.111519 0.108509 0)
(0.116033 0.116033 0)
(0.120318 0.123998 0)
(0.124333 0.132407 0)
(0.128035 0.141256 0)
(0.131375 0.150539 0)
(0.134301 0.160246 0)
(0.13676 0.170359 0)
(0.138694 0.180855 0)
(0.140045 0.191705 0)
(0.140751 0.20287 0)
(0.140753 0.214303 0)
(0.139992 0.225947 0)
(0.138411 0.237736 0)
(0.135957 0.249594 0)
(0.132584 0.261433 0)
(0.128254 0.273156 0)
(0.122938 0.284657 0)
(0.116621 0.29582 0)
(0.109302 0.306525 0)
(0.100996 0.316646 0)
(0.0917346 0.326055 0)
(0.0815698 0.334626 0)
(0.0705722 0.342236 0)
(0.0588311 0.348774 0)
(0.0464537 0.354136 0)
(0.0335626 0.358238 0)
(0.0202896 0.361011 0)
(0.00678719 0.36241 0)
(0.00273036 0.0378827 0)
(0.00819041 0.0381648 0)
(0.0136572 0.03873 0)
(0.0191382 0.0395807 0)
(0.0246348 0.0407203 0)
(0.0301505 0.0421534 0)
(0.0356881 0.0438856 0)
(0.0412496 0.0459235 0)
(0.0468358 0.0482751 0)
(0.0524466 0.0509489 0)
(0.05808 0.0539547 0)
(0.0637328 0.0573032 0)
(0.0693999 0.0610056 0)
(0.075074 0.0650742 0)
(0.0807459 0.0695216 0)
(0.0864037 0.074361 0)
(0.0920329 0.0796059 0)
(0.0976161 0.0852697 0)
(0.103133 0.0913659 0)
(0.108559 0.0979073 0)
(0.113867 0.104906 0)
(0.119025 0.112373 0)
(0.123998 0.120318 0)
(0.128747 0.128747 0)
(0.133227 0.137665 0)
(0.137391 0.147074 0)
(0.141185 0.156969 0)
(0.144553 0.167342 0)
(0.147434 0.178179 0)
(0.149765 0.18946 0)
(0.151477 0.201154 0)
(0.152503 0.213224 0)
(0.152772 0.225622 0)
(0.152214 0.23829 0)
(0.150762 0.251156 0)
(0.148352 0.264139 0)
(0.144927 0.277143 0)
(0.140437 0.290061 0)
(0.134845 0.302774 0)
(0.128126 0.315152 0)
(0.120272 0.327057 0)
(0.111295 0.338344 0)
(0.101227 0.348864 0)
(0.0901216 0.358471 0)
(0.078056 0.367019 0)
(0.0651306 0.374376 0)
(0.051467 0.380421 0)
(0.0372062 0.38505 0)
(0.0225013 0.388183 0)
(0.00752868 0.389763 0)
(0.00287357 0.0384675 0)
(0.00862057 0.0387579 0)
(0.0143761 0.0393396 0)
(0.0201489 0.0402154 0)
(0.0259414 0.041389 0)
(0.0317584 0.0428653 0)
(0.0376038 0.0446506 0)
(0.0434806 0.0467524 0)
(0.049391 0.049179 0)
(0.0553355 0.0519404 0)
(0.0613135 0.0550473 0)
(0.0673225 0.0585115 0)
(0.0733583 0.062346 0)
(0.0794144 0.0665645 0)
(0.0854821 0.0711815 0)
(0.0915501 0.0762122 0)
(0.0976041 0.0816724 0)
(0.103627 0.0875779 0)
(0.109597 0.0939449 0)
(0.115491 0.100789 0)
(0.12128 0.108126 0)
(0.126931 0.11597 0)
(0.132407 0.124333 0)
(0.137665 0.133227 0)
(0.14266 0.14266 0)
(0.147338 0.152636 0)
(0.151643 0.163156 0)
(0.155512 0.174216 0)
(0.158878 0.185804 0)
(0.161669 0.197903 0)
(0.163809 0.210484 0)
(0.165219 0.223513 0)
(0.165819 0.23694 0)
(0.165526 0.250706 0)