/*--------------------------------*- C++ -*----------------------------------*\
| =========                 |                                                 |
| \\      /  F ield         | OpenFOAM: The Open Source CFD Toolbox           |
|  \\    /   O peration     | Version:  2406                                  |
|   \\  /    A nd           | Website:  www.openfoam.com                      |
|    \\/     M anipulation  |                                                 |
\*---------------------------------------------------------------------------*/
FoamFile
{
    version     2.0;
    format      ascii;
    arch        "LSB;label=32;scalar=64";
    class       volScalarField;
    location    "1.9";
    object      gradTy;
}
// * * * * * * * * * * * * * * * * * * * * * * * * * * * * * * * * * * * * * //

dimensions      [0 -1 0 1 0 0 0];

internalField   nonuniform List<scalar> 
2500
(
0.0101464
0.0102074
0.0103322
0.0105188
0.0107678
0.0110793
0.0114536
0.0118908
0.0123911
0.0129548
0.0135819
0.0142726
0.0150267
0.0158441
0.0167245
0.0176673
0.0186718
0.0197369
0.0208615
0.0220437
0.0232817
0.024573
0.0259148
0.0273036
0.0287357
0.0302067
0.0317117
0.0332453
0.0348014
0.0363734
0.0379543
0.0395364
0.0411117
0.0426715
0.0442069
0.0457089
0.0471678
0.0485742
0.0499184
0.051191
0.0523827
0.0534845
0.054488
0.0553852
0.0561689
0.056833
0.057372
0.0577817
0.0580566
0.0581821
0.0303997
0.0305854
0.030959
0.0315188
0.0322656
0.0332001
0.0343229
0.0356346
0.0371358
0.0388272
0.040709
0.0427815
0.0450446
0.0474978
0.05014
0.0529699
0.0559851
0.0591827
0.0625588
0.0661085
0.0698257
0.0737034
0.0777328
0.0819041
0.0862057
0.0906245
0.095146
0.0997536
0.104429
0.109154
0.113905
0.11866
0.123395
0.128084
0.132701
0.137217
0.141604
0.145834
0.149876
0.153704
0.157289
0.160604
0.163622
0.166322
0.16868
0.170677
0.172299
0.173532
0.174366
0.174769
0.0505962
0.0509076
0.0515296
0.0524627
0.053708
0.0552663
0.0571386
0.0593262
0.0618301
0.0646512
0.0677904
0.0712479
0.0750236
0.079117
0.0835263
0.0882493
0.0932822
0.0986203
0.104257
0.110185
0.116393
0.12287
0.129602
0.136572
0.143761
0.151147
0.158706
0.166411
0.174231
0.182133
0.190082
0.19804
0.205965
0.213814
0.221544
0.229106
0.236454
0.243539
0.250313
0.256727
0.262734
0.26829
0.27335
0.277875
0.281828
0.285177
0.287894
0.289958
0.291352
0.292049
0.0707196
0.0711553
0.0720263
0.0733337
0.0750786
0.0772623
0.0798864
0.0829525
0.0864622
0.0904171
0.0948182
0.0996663
0.104961
0.110703
0.116888
0.123515
0.130578
0.13807
0.145984
0.154307
0.163027
0.172126
0.181586
0.191382
0.201489
0.211876
0.222508
0.233349
0.244354
0.255479
0.266673
0.277881
0.289048
0.30011
0.311007
0.32167
0.332034
0.34203
0.351588
0.360641
0.369122
0.376967
0.384113
0.390504
0.396088
0.400818
0.404654
0.407563
0.40952
0.410502
0.090712
0.0912725
0.0923933
0.094076
0.0963219
0.099133
0.102511
0.106459
0.110978
0.116072
0.121741
0.127987
0.134809
0.142209
0.150183
0.158727
0.167836
0.177501
0.187713
0.198456
0.209714
0.221466
0.233687
0.246348
0.259414
0.272847
0.286603
0.300633
0.314882
0.32929
0.343793
0.358321
0.372799
0.387149
0.401287
0.415129
0.428586
0.441569
0.453989
0.465755
0.476781
0.486982
0.496277
0.504592
0.511857
0.518011
0.523001
0.526785
0.529327
0.530604
0.110534
0.11122
0.112591
0.114651
0.117399
0.12084
0.124975
0.129808
0.135342
0.14158
0.148524
0.156176
0.164537
0.173607
0.183384
0.193863
0.205038
0.2169
0.229436
0.24263
0.256461
0.270905
0.285931
0.301505
0.317584
0.334122
0.351064
0.368352
0.385919
0.40369
0.421586
0.439522
0.457404
0.475135
0.492614
0.509734
0.526385
0.542456
0.557836
0.572413
0.586077
0.598723
0.610249
0.620562
0.629575
0.637211
0.643404
0.648098
0.651252
0.652836
0.130145
0.130956
0.132579
0.135016
0.138269
0.142342
0.147238
0.152961
0.159514
0.166903
0.175131
0.184199
0.194111
0.204866
0.216463
0.228898
0.242163
0.25625
0.271142
0.286824
0.30327
0.320452
0.338336
0.356881
0.376038
0.395751
0.415959
0.436589
0.457564
0.478795
0.500187
0.521639
0.543039
0.564271
0.585211
0.605732
0.625703
0.644987
0.663451
0.680959
0.697378
0.712579
0.72644
0.738845
0.74969
0.75888
0.766334
0.771985
0.775781
0.777688
0.149501
0.150438
0.152314
0.15513
0.15889
0.163597
0.169257
0.175873
0.183453
0.192
0.20152
0.212017
0.223493
0.23595
0.249387
0.2638
0.279183
0.295526
0.312812
0.331023
0.350132
0.370108
0.390911
0.412496
0.434806
0.45778
0.481343
0.505416
0.529906
0.554712
0.579724
0.604821
0.629875
0.654748
0.679296
0.703368
0.726808
0.749457
0.771154
0.791739
0.811054
0.828945
0.845265
0.859877
0.872656
0.883487
0.892274
0.898937
0.903415
0.905663
0.168556
0.16962
0.171749
0.174945
0.179214
0.184558
0.190985
0.198501
0.207112
0.216825
0.227647
0.239583
0.252638
0.266815
0.282113
0.298531
0.316062
0.334696
0.354418
0.375206
0.397033
0.419864
0.443656
0.468358
0.49391
0.520239
0.547264
0.574894
0.603024
0.631539
0.660313
0.689207
0.718074
0.746754
0.77508
0.802878
0.829965
0.856157
0.881265
0.9051
0.927479
0.948219
0.967148
0.984103
0.998937
1.01151
1.02172
1.02946
1.03466
1.03728
0.187263
0.188454
0.190837
0.194415
0.199193
0.205177
0.212374
0.220793
0.230442
0.241328
0.253462
0.26685
0.281499
0.297414
0.314597
0.333046
0.352758
0.373722
0.395923
0.419341
0.443945
0.469699
0.496558
0.524466
0.553355
0.583148
0.613754
0.645072
0.676983
0.70936
0.742059
0.774923
0.807785
0.840463
0.872766
0.904493
0.935434
0.965376
0.994101
1.02139
1.04703
1.07081
1.09252
1.11198
1.12901
1.14346
1.15519
1.16408
1.17006
1.17307
0.205571
0.206889
0.209526
0.213486
0.218775
0.2254
0.233371
0.242697
0.253388
0.265455
0.278909
0.293761
0.310019
0.327691
0.346782
0.367291
0.389217
0.412552
0.437281
0.463383
0.49083
0.519582
0.549592
0.5808
0.613135
0.646511
0.680831
0.715981
0.751833
0.788242
0.82505
0.862082
0.899147
0.93604
0.972546
1.00843
1.04347
1.0774
1.10998
1.14096
1.17008
1.19712
1.22182
1.24397
1.26337
1.27983
1.2932
1.30334
1.31016
1.31359
0.223426
0.22487
0.227761
0.232104
0.237905
0.245173
0.253918
0.264153
0.275891
0.289144
0.303928
0.320255
0.338137
0.357584
0.378605
0.401203
0.425379
0.451126
0.478432
0.507278
0.537635
0.569464
0.602716
0.637328
0.673225
0.710316
0.748494
0.787637
0.827604
0.868238
0.909361
0.950779
0.992281
1.03364
1.0746
1.11492
1.15431
1.19251
1.22922
1.26415
1.29703
1.32757
1.35549
1.38055
1.40251
1.42116
1.43631
1.4478
1.45554
1.45942
0.24077
0.242342
0.245486
0.250211
0.256523
0.264433
0.273954
0.2851
0.297887
0.312332
0.328451
0.346262
0.365781
0.387021
0.409994
0.434709
0.461168
0.489369
0.519304
0.550954
0.584293
0.619282
0.655872
0.693999
0.733583
0.774528
0.816723
0.860034
0.904309
0.949377
0.995043
1.04109
1.08729
1.13338
1.1791
1.22414
1.2682
1.31097
1.35212
1.39133
1.42826
1.46259
1.49401
1.52223
1.54698
1.568
1.58509
1.59806
1.60679
1.61118
0.257544
0.259242
0.26264
0.267745
0.274567
0.283118
0.293413
0.30547
0.319307
0.334945
0.352405
0.371707
0.392873
0.415921
0.440867
0.467724
0.4965
0.527198
0.559811
0.594327
0.63072
0.668956
0.708984
0.75074
0.794144
0.839095
0.885475
0.933143
0.981935
1.03167
1.08213
1.13308
1.18426
1.2354
1.28618
1.33628
1.38536
1.43306
1.47901
1.52283
1.56416
1.60262
1.63785
1.66952
1.69731
1.72093
1.74015
1.75474
1.76456
1.7695
0.273686
0.275509
0.279158
0.284641
0.29197
0.301159
0.312226
0.325191
0.340076
0.356907
0.375708
0.396507
0.419327
0.444195
0.471131
0.500154
0.531278
0.564511
0.599852
0.637294
0.676815
0.718384
0.761953
0.807459
0.854821
0.903937
0.954682
1.00691
1.06044
1.11509
1.17061
1.22676
1.28325
1.33977
1.39598
1.45152
1.50601
1.55903
1.61017
1.65902
1.70514
1.7481
1.7875
1.82295
1.85409
1.88057
1.90213
1.91851
1.92953
1.93508
0.289128
0.291075
0.294973
0.300831
0.308663
0.318484
0.330317
0.344184
0.360113
0.378133
0.398275
0.420569
0.445048
0.471743
0.500682
0.53189
0.565389
0.601193
0.639309
0.679734
0.722455
0.767444
0.814658
0.864037
0.915501
0.968946
1.02425
1.08125
1.13976
1.19959
1.26047
1.32215
1.38429
1.44657
1.50861
1.57001
1.63033
1.68912
1.74592
1.80024
1.85159
1.8995
1.94348
1.98309
2.01792
2.04756
2.07171
2.09007
2.10243
2.10864
0.303802
0.305872
0.310015
0.316243
0.324571
0.335018
0.347608
0.362369
0.379333
0.398534
0.420009
0.443795
0.469931
0.498456
0.529405
0.562813
0.598708
0.637113
0.678045
0.721508
0.767497
0.815991
0.866954
0.920329
0.976041
1.03399
1.09404
1.15604
1.21979
1.28509
1.35165
1.41919
1.48738
1.55583
1.62414
1.69185
1.7585
1.82357
1.88653
1.94684
2.00394
2.05728
2.10632
2.15053
2.18944
2.2226
2.24962
2.27018
2.28403
2.29099
0.317638
0.319828
0.324212
0.330803
0.339618
0.350679
0.364016
0.379658
0.397645
0.418014
0.44081
0.466078
0.493863
0.524214
0.557174
0.592788
0.631094
0.672125
0.715908
0.762457
0.811777
0.863856
0.918667
0.976161
1.03627
1.09889
1.16389
1.23113
1.30039
1.37146
1.44404
1.51783
1.59247
1.66754
1.7426
1.81716
1.89068
1.96258
2.03229
2.09917
2.1626
2.22194
2.27657
2.3259
2.36935
2.40642
2.43665
2.45967
2.47518
2.48299
0.330561
0.332868
0.337487
0.344432
0.353724
0.365387
0.379454
0.395961
0.414951
0.43647
0.46057
0.487302
0.516722
0.548886
0.583851
0.621669
0.662392
0.706064
0.752724
0.802398
0.855104
0.910843
0.969596
1.03133
1.09597
1.16344
1.23361
1.30632
1.38137
1.45853
1.5375
1.61794
1.69948
1.78167
1.86402
1.94598
2.02697
2.10635
2.18345
2.25757
2.32798
2.39397
2.45482
2.50984
2.55837
2.59981
2.63365
2.65943
2.67681
2.68556
0.342497
0.344917
0.349764
0.357053
0.366807
0.379054
0.393832
0.411182
0.431152
0.453796
0.479173
0.507345
0.538376
0.572334
0.609285
0.649297
0.692432
0.738749
0.788301
0.84113
0.897267
0.956727
1.01951
1.08559
1.15491
1.2274
1.30294
1.38137
1.4625
1.54608
1.63182
1.71935
1.80828
1.89812
1.98834
2.07834
2.16748
2.25504
2.34026
2.42236
2.50052
2.5739
2.64169
2.70307
2.75729
2.80366
2.84154
2.87043
2.88993
2.89974
0.353368
0.355897
0.360963
0.368583
0.378782
0.391593
0.407057
0.425222
0.446142
0.46988
0.496501
0.526078
0.558687
0.594407
0.633316
0.675497
0.721026
0.76998
0.822425
0.878424
0.938023
1.00126
1.06814
1.13867
1.2128
1.29047
1.37158
1.45599
1.54349
1.63384
1.72675
1.82183
1.91866
2.01673
2.11546
2.2142
2.31223
2.40876
2.50294
2.59387
2.68063
2.76226
2.83781
2.90634
2.96697
3.01888
3.06136
3.09377
3.11566
3.12668
0.363098
0.365731
0.371005
0.37894
0.389564
0.402913
0.419034
0.43798
0.459813
0.484603
0.512427
0.543365
0.577508
0.614945
0.655771
0.700083
0.747975
0.79954
0.854865
0.914032
0.977108
1.04415
1.11519
1.19025
1.26931
1.35232
1.4392
1.52982
1.62399
1.72147
1.82196
1.92507
2.03036
2.13728
2.24521
2.35345
2.4612
2.56759
2.67166
2.7724
2.86874
2.95959
3.04385
3.12044
3.18832
3.24653
3.29421
3.33064
3.35525
3.36766
0.37161
0.374341
0.379811
0.388042
0.399067
0.412924
0.429666
0.449353
0.472054
0.497847
0.52682
0.559065
0.594684
0.633782
0.676468
0.722857
0.773062
0.827196
0.885367
0.94768
1.01423
1.08509
1.16033
1.23998
1.32407
1.41256
1.50539
1.60246
1.70359
1.80855
1.91705
2.0287
2.14303
2.25947
2.37736
2.49594
2.61433
2.73156
2.84657
2.9582
3.06525
3.16646
3.26055
3.34626
3.42236
3.48774
3.54136
3.58238
3.61011
3.6241
0.378827
0.381648
0.3873
0.395807
0.407203
0.421534
0.438856
0.459235
0.482751
0.509489
0.539547
0.573032
0.610056
0.650742
0.695216
0.74361
0.796059
0.852697
0.913659
0.979073
1.04906
1.12373
1.20318
1.28747
1.37665
1.47074
1.56969
1.67342
1.78179
1.8946
2.01154
2.13224
2.25622
2.3829
2.51156
2.64139
2.77143
2.90061
3.02774
3.15152
3.27057
3.38344
3.48864
3.58471
3.67019
3.74376
3.80421
3.8505
3.88183
3.89763
0.384675
0.387579
0.393396
0.402154
0.41389
0.428653
0.446506
0.467524
0.49179
0.519404
0.550473
0.585115
0.62346
0.665645
0.711815
0.762122
0.816724
0.875779
0.939449
1.00789
1.08126
1.1597
1.24333
1.33227
1.4266
1.52636
1.63156
1.74216
1.85804
1.97903
2.10484
2.23513
2.3694
2.50706
2.64736
2.78943
2.93223
3.0746
3.21518
3.35253
3.48506
3.6111
3.72893
3.8368
3.93303
4.01602
4.08432
4.13671
4.1722
4.19011
0.389082
0.392058
0.398022
0.407003
0.419042
0.434192
0.452523
0.474114
0.49906
0.527469
0.559459
0.595165
0.634728
0.678305
0.726059
0.778165
0.834804
0.896162
0.96243
1.0338
1.11046
1.19258
1.28035
1.37391
1.47338
1.57887
1.69043
1.80805
1.93167
2.06116
2.19627
2.33667
2.48188
2.6313
2.78417
2.93956
3.09635
3.25326
3.40881
3.56134
3.70905
3.85002
3.98222
4.10362
4.21222
4.30609
4.3835
4.44296
4.48329
4.50367
0.391979
0.395017
0.401108
0.410281
0.422581
0.438066
0.456811
0.478904
0.504448
0.53356
0.566372
0.60303
0.643693
0.688535
0.73774
0.791506
0.85004
0.913557
0.98228
1.05644
1.13625
1.22195
1.31375
1.41185
1.51643
1.62765
1.74561
1.87037
2.00193
2.14021
2.28501
2.43603
2.59284
2.75484
2.92125
3.09111
3.26323
3.4362
3.60839
3.77795
3.9428
4.10073
4.24939
4.38636
4.50924
4.61574
4.70377
4.7715
4.8175
4.84076
0.393301
0.396391
0.402584
0.411915
0.42443
0.440194
0.459284
0.481798
0.507847
0.537558
0.571076
0.60856
0.650186
0.696146
0.746646
0.801908
0.862165
0.927665
0.998664
1.07543
1.15823
1.24733
1.34301
1.44553
1.55512
1.67201
1.79637
1.92833
2.06797
2.21527
2.37011
2.53225
2.7013
2.87669
3.05767
3.24323
3.43212
3.62283
3.81356
4.00223
4.18649
4.36377
4.53131
4.68626
4.82575
4.947
5.04747
5.12493
5.17761
5.20427
0.392991
0.396119
0.402391
0.411841
0.424521
0.440499
0.459859
0.482704
0.509155
0.539349
0.573443
0.61161
0.654044
0.700953
0.752567
0.809132
0.87091
0.938181
1.01124
1.09039
1.17595
1.26825
1.3676
1.47434
1.58878
1.71121
1.84189
1.98104
2.12883
2.28531
2.45048
2.62418
2.80609
2.99569
3.19227
3.39482
3.60205
3.81233
4.02372
4.23388
4.44016
4.63956
4.82888
5.0047
5.16358
5.30216
5.4173
5.50627
5.56688
5.59758
0.390996
0.394149
0.400471
0.41
0.42279
0.438912
0.458458
0.481536
0.508276
0.538825
0.573351
0.612042
0.655107
0.702776
0.755297
0.812944
0.876008
0.944801
1.01966
1.10093
1.18897
1.28418
1.38694
1.49765
1.61669
1.74445
1.88129
2.02752
2.18342
2.34918
2.52489
2.7105
2.90582
3.11042
3.32364
3.54451
3.77173
4.0036
4.238
4.47235
4.70365
4.92845
5.14296
5.34312
5.52478
5.68382
5.81638
5.91908
5.98916
6.0247
0.387273
0.390436
0.39678
0.406343
0.419182
0.435374
0.455014
0.478218
0.505123
0.535886
0.570686
0.609725
0.653228
0.701441
0.754639
0.813116
0.877195
0.947224
1.02357
1.10664
1.19685
1.29463
1.40045
1.51477
1.63809
1.77088
1.9136
2.0667
2.23057
2.40556
2.5919
2.78969
2.99888
3.21918
3.45005
3.6906
3.93956
4.19517
4.45518
4.71678
4.97656
5.23057
5.47435
5.70305
5.91162
6.09499
6.24839
6.36756
6.44905
6.49042
0.381787
0.384944
0.391277
0.400827
0.413652
0.429833
0.44947
0.472685
0.499621
0.530445
0.565347
0.604541
0.648267
0.69679
0.750404
0.809431
0.874222
0.945157
1.02265
1.10714
1.19911
1.29906
1.40751
1.52503
1.65219
1.78959
1.9378
2.09742
2.26899
2.45302
2.64992
2.86
3.08338
3.31999
3.56944
3.83099
4.10345
4.3851
4.67358
4.96585
5.25811
5.54582
5.82375
6.08607
6.32661
6.53912
6.71761
6.85672
6.95206
7.00053
0.374512
0.377647
0.383937
0.393422
0.406166
0.42225
0.44178
0.464882
0.491707
0.522428
0.557247
0.596387
0.640103
0.688678
0.742425
0.801689
0.866851
0.938324
1.01656
1.10205
1.19533
1.29695
1.40753
1.52772
1.65819
1.79965
1.95282
2.11845
2.29727
2.48997
2.69718
2.91946
3.15718
3.4105
3.67931
3.9631
4.26084
4.57091
4.89094
5.21771
5.54702
5.8737
6.1916
6.49374
6.77253
7.02019
7.22915
7.39258
7.50488
7.56206
0.365435
0.368531
0.374741
0.38411
0.3967
0.412598
0.43191
0.45477
0.481332
0.511776
0.546313
0.585176
0.628633
0.67698
0.730551
0.789712
0.854869
0.92647
1.005
1.09101
1.18506
1.28781
1.39992
1.52214
1.65526
1.8001
1.95755
2.12851
2.31392
2.5147
2.73174
2.96587
3.2178
3.48801
3.77674
4.0838
4.40849
4.74939
5.10424
5.46971
5.84129
6.21311
6.578
6.92754
7.25241
7.54279
7.78905
7.98243
8.11567
8.18363
0.354553
0.357591
0.363686
0.372883
0.385246
0.400863
0.419844
0.442325
0.468464
0.498449
0.532493
0.570843
0.613773
0.661595
0.714657
0.773346
0.838091
0.909369
0.987707
1.07368
1.16793
1.27115
1.38411
1.50762
1.6426
1.79
1.95085
2.12627
2.31739
2.52539
2.75148
2.99682
3.26248
3.54941
3.85827
4.18937
4.54244
4.91648
5.3095
5.71824
6.13794
6.56212
6.98243
7.38875
7.76949
8.11225
8.4046
8.63517
8.79452
8.87593
0.341877
0.344838
0.35078
0.359748
0.371808
0.387047
0.405579
0.427539
0.45309
0.482424
0.515759
0.553345
0.595469
0.64245
0.694649
0.752471
0.816366
0.886835
0.964436
1.04979
1.14358
1.24656
1.35957
1.48352
1.61943
1.7684
1.93162
2.11038
2.30607
2.52015
2.75416
3.00966
3.28818
3.59118
3.91993
4.27535
4.65785
5.06705
5.50151
5.95831
6.43267
6.91757
7.40344
7.87813
8.3272
8.73474
9.08459
9.36179
9.55396
9.65231
0.32743
0.330296
0.336047
0.344729
0.356406
0.371169
0.389129
0.410424
0.435218
0.463703
0.496101
0.532668
0.573692
0.619502
0.670468
0.727007
0.789584
0.858724
0.935009
1.01909
1.1117
1.21365
1.32584
1.44927
1.58506
1.73444
1.89876
2.07953
2.27837
2.49705
2.73746
3.00161
3.29157
3.60942
3.95716
4.33653
4.74886
5.19472
5.67357
6.18322
6.71929
7.2745
7.83811
8.39562
8.92895
9.41745
9.83976
10.176
10.4098
10.5296
0.311251
0.314001
0.319523
0.32786
0.339077
0.353262
0.370528
0.391011
0.414874
0.44231
0.473541
0.508823
0.548447
0.592745
0.642093
0.696914
0.757686
0.824946
0.899299
0.981424
1.07208
1.17213
1.28254
1.40437
1.53885
1.68732
1.8513
2.03248
2.23274
2.45416
2.69901
2.96978
3.26914
3.59988
3.96489
4.36694
4.80855
5.29164
5.81707
6.38401
6.98909
7.62536
8.28125
8.93967
9.57791
10.1688
10.6834
11.095
11.3819
11.5292
0.29339
0.296007
0.301261
0.309195
0.319872
0.33338
0.349829
0.369352
0.392111
0.418295
0.448125
0.481854
0.519772
0.562211
0.609545
0.662202
0.720663
0.785473
0.857249
0.936687
1.02458
1.1218
1.22938
1.34845
1.48029
1.62638
1.78837
1.96813
2.16777
2.38967
2.63652
2.91128
3.21727
3.55808
3.93759
4.35983
4.82884
5.34833
5.92121
6.54883
7.22987
7.9588
8.72407
9.50615
10.2765
10.9986
11.6324
12.1411
12.4961
12.6782
0.273915
0.276379
0.281327
0.288801
0.298862
0.311593
0.327102
0.34552
0.367002
0.391734
0.41993
0.451838
0.487744
0.527972
0.572895
0.622934
0.678568
0.740343
0.808877
0.884875
0.969135
1.06257
1.16621
1.28126
1.40905
1.55114
1.70929
1.88555
2.08222
2.30198
2.54787
2.82336
3.1324
3.47944
3.86944
4.30788
4.8006
5.35361
5.97261
6.66226
7.42479
8.25799
9.15217
10.0865
11.0254
11.9188
12.7085
13.3432
13.7852
14.0115
0.252906
0.2552
0.259805
0.266763
0.276131
0.287989
0.302441
0.319609
0.339646
0.362728
0.389061
0.418885
0.452475
0.490147
0.532261
0.579228
0.631519
0.689669
0.754288
0.826076
0.905829
0.994462
1.09302
1.20272
1.32494
1.46129
1.61362
1.78408
1.97516
2.18976
2.43126
2.70356
3.01123
3.35955
3.75463
4.20344
4.71389
5.29471
5.95523
6.70469
7.55096
8.4981
9.54208
10.6641
11.8219
12.9446
13.9418
14.7398
15.2919
15.5732
0.230459
0.232564
0.236792
0.24318
0.251783
0.262676
0.275955
0.291738
0.310166
0.331407
0.355656
0.38314
0.414119
0.448895
0.487812
0.531264
0.579701
0.633641
0.693675
0.760482
0.834843
0.917656
1.00996
1.11295
1.22803
1.35682
1.5012
1.6634
1.84603
2.05213
2.28533
2.54992
2.85097
3.1945
3.58768
4.03899
4.55845
5.15781
5.85061
6.65202
7.57799
8.64314
9.85576
11.2076
12.6554
14.0978
15.3759
16.3841
17.0714
17.418
0.206682
0.208582
0.2124
0.218168
0.225937
0.235777
0.247777
0.262044
0.278709
0.297928
0.319882
0.344781
0.372869
0.404425
0.439772
0.479278
0.523369
0.572531
0.627326
0.688398
0.756494
0.832476
0.917346
1.01227
1.11861
1.23797
1.37222
1.52359
1.69471
1.88873
2.10939
2.36121
2.64963
2.98125
3.36407
3.80788
4.32463
4.929
5.63894
6.47634
7.46742
8.64231
10.0319
11.6566
13.4961
15.4169
17.0815
18.351
19.1932
19.611
0.181696
0.183377
0.186753
0.191855
0.198728
0.207435
0.218054
0.230685
0.245445
0.262474
0.281937
0.304024
0.328955
0.356987
0.388413
0.42357
0.462847
0.506693
0.555624
0.610239
0.67123
0.739403
0.815698
0.901216
0.997248
1.10532
1.22724
1.36517
1.52168
1.69987
1.9035
2.13714
2.40637
2.71807
3.08078
3.50514
4.00454
4.59597
5.3012
6.14839
7.17446
8.42825
9.97415
11.8925
14.2568
16.9936
19.1838
20.7467
21.741
22.2233
0.155636
0.157084
0.159992
0.164386
0.170305
0.177805
0.186954
0.19784
0.210564
0.225251
0.242044
0.261111
0.282647
0.306877
0.33406
0.364496
0.39853
0.436561
0.479051
0.526534
0.579636
0.639081
0.705722
0.78056
0.864778
0.95978
1.06724
1.18917
1.32798
1.48662
1.66868
1.87856
2.12173
2.40501
2.73698
3.12851
3.59359
4.15035
4.82269
5.64278
6.65502
7.92333
9.54525
11.6836
14.6464
19.1183
21.9147
23.7122
24.802
25.3192
0.128647
0.12985
0.132266
0.135916
0.140832
0.14706
0.15466
0.163704
0.174279
0.186489
0.200455
0.21632
0.234247
0.254429
0.277084
0.302468
0.330875
0.362646
0.398175
0.437922
0.482424
0.532308
0.588311
0.651306
0.722325
0.8026
0.893608
0.99713
1.11533
1.25085
1.40693
1.58762
1.79794
2.04423
2.33458
2.67934
3.09197
3.59015
4.19748
4.94604
5.88058
7.06585
8.60102
10.6513
13.528
17.9196
20.6456
22.3864
23.4366
23.9335
0.100881
0.10183
0.103736
0.10661
0.110481
0.115385
0.121368
0.12849
0.136818
0.146438
0.157444
0.169951
0.18409
0.200013
0.217898
0.237948
0.2604
0.285528
0.31365
0.345139
0.380428
0.420027
0.464537
0.51467
0.571273
0.635359
0.708149
0.791121
0.886079
0.995237
1.12134
1.2678
1.43893
1.64019
1.87857
2.16311
2.50562
2.92164
3.43189
4.0642
4.85626
5.85936
7.14256
8.79348
10.8956
13.3873
15.3625
16.7523
17.6255
18.0456
0.0725003
0.0731848
0.0745679
0.0766431
0.0794341
0.082969
0.0872824
0.0924167
0.0984226
0.10536
0.1133
0.122325
0.13253
0.144028
0.156947
0.171436
0.187669
0.205845
0.2262
0.249007
0.274584
0.303309
0.335626
0.372062
0.413247
0.459935
0.51304
0.57367
0.643182
0.723252
0.815959
0.923911
1.0504
1.19964
1.37702
1.58956
1.84639
2.15956
2.54491
3.02326
3.62156
4.37345
5.31708
6.48514
7.87424
9.37243
10.6653
11.6355
12.2683
12.5784
0.043674
0.0440743
0.0449112
0.0461652
0.0478504
0.0499844
0.0525883
0.0556879
0.0593141
0.0635033
0.0682985
0.07375
0.079916
0.0868643
0.0946734
0.103434
0.113252
0.124251
0.136572
0.150383
0.16588
0.183293
0.202896
0.225013
0.250031
0.278417
0.310735
0.347672
0.390073
0.438979
0.495691
0.561842
0.639503
0.731321
0.840705
0.972081
1.13123
1.3257
1.56533
1.86277
2.2337
2.6962
3.26759
3.95619
4.74422
5.56326
6.29129
6.85653
7.23419
7.42175
0.0145855
0.014711
0.0149885
0.0154074
0.0159708
0.0166842
0.0175548
0.018591
0.0198034
0.0212041
0.0228076
0.0246307
0.026693
0.0290171
0.0316296
0.0345609
0.0378466
0.0415278
0.0456527
0.0502774
0.055468
0.0613022
0.0678719
0.0752868
0.0836777
0.0932023
0.104052
0.116458
0.130709
0.147157
0.166246
0.188531
0.214718
0.245711
0.282676
0.327124
0.381029
0.446959
0.528241
0.629086
0.754595
0.910359
1.10118
1.32814
1.58352
1.8454
2.08039
2.26544
2.39049
2.45301
)
;

boundaryField
{
    walls
    {
        type            calculated;
        value           nonuniform List<scalar> 
200
(
0
0
0
0
0
0
0
0
0
0
0
0
0
0
0
0
0
0
0
0
0
0
0
0
0
0
0
0
0
0
0
0
0
0
0
0
0
0
0
0
0
0
0
0
0
0
0
0
0
0
0.0101464
0.0303997
0.0505962
0.0707196
0.090712
0.110534
0.130145
0.149501
0.168556
0.187263
0.205571
0.223426
0.24077
0.257544
0.273686
0.289128
0.303802
0.317638
0.330561
0.342497
0.353368
0.363098
0.37161
0.378827
0.384675
0.389082
0.391979
0.393301
0.392991
0.390996
0.387273
0.381787
0.374512
0.365435
0.354553
0.341877
0.32743
0.311251
0.29339
0.273915
0.252906
0.230459
0.206682
0.181696
0.155636
0.128647
0.100881
0.0725003
0.043674
0.0145855
0.0581821
0.174769
0.292049
0.410502
0.530604
0.652836
0.777688
0.905663
1.03728
1.17307
1.31359
1.45942
1.61118
1.7695
1.93508
2.10864
2.29099
2.48299
2.68556
2.89974
3.12668
3.36766
3.6241
3.89763
4.19011
4.50367
4.84076
5.20427
5.59758
6.0247
6.49042
7.00053
7.56206
8.18363
8.87593
9.65231
10.5296
11.5292
12.6782
14.0115
15.5732
17.418
19.611
22.2233
25.3192
23.9335
18.0456
12.5784
7.42175
2.45301
0
0
0
0
0
0
0
0
0
0
0
0
0
0
0
0
0
0
0
0
0
0
0
0
0
0
0
0
0
0
0
0
0
0
0
0
0
0
0
0
0
0
0
0
0
0
0
0
0
0
)
;
    }
    frontAndBack
    {
        type            empty;
    }
}


// ************************************************************************* //
