/*--------------------------------*- C++ -*----------------------------------*\
| =========                 |                                                 |
| \\      /  F ield         | OpenFOAM: The Open Source CFD Toolbox           |
|  \\    /   O peration     | Version:  2406                                  |
|   \\  /    A nd           | Website:  www.openfoam.com                      |
|    \\/     M anipulation  |                                                 |
\*---------------------------------------------------------------------------*/
FoamFile
{
    version     2.0;
    format      ascii;
    arch        "LSB;label=32;scalar=64";
    class       volScalarField;
    location    "1.9";
    object      T;
}
// * * * * * * * * * * * * * * * * * * * * * * * * * * * * * * * * * * * * * //

dimensions      [0 0 0 1 0 0 0];

internalField   nonuniform List<scalar> 
2500
(
0.286556
0.286962
0.287772
0.288985
0.2906
0.292614
0.295022
0.29782
0.301002
0.304562
0.308492
0.312785
0.317429
0.322416
0.327731
0.333363
0.339296
0.345515
0.352002
0.358738
0.365702
0.372872
0.380226
0.387737
0.395379
0.403124
0.410942
0.418803
0.426674
0.434522
0.442314
0.450013
0.457585
0.464994
0.472203
0.479176
0.485878
0.492273
0.498328
0.504009
0.509285
0.514125
0.518503
0.522392
0.525771
0.528618
0.530917
0.532653
0.533817
0.5344
0.286962
0.28737
0.288185
0.289406
0.291031
0.293057
0.29548
0.298295
0.301498
0.30508
0.309036
0.313356
0.318031
0.323049
0.3284
0.33407
0.340043
0.346305
0.352836
0.359619
0.366633
0.373855
0.381262
0.388829
0.396528
0.404332
0.412211
0.420133
0.428066
0.435977
0.443832
0.451595
0.45923
0.466701
0.473971
0.481004
0.487765
0.494216
0.500325
0.506056
0.51138
0.516264
0.520682
0.524608
0.528017
0.530891
0.533211
0.534964
0.536139
0.536727
0.287772
0.288185
0.28901
0.290246
0.291891
0.293942
0.296395
0.299245
0.302487
0.306115
0.310121
0.314496
0.319231
0.324316
0.329737
0.335482
0.341536
0.347882
0.354504
0.361382
0.368495
0.37582
0.383335
0.391013
0.398827
0.406749
0.414748
0.422793
0.430851
0.438889
0.44687
0.45476
0.462521
0.470117
0.477511
0.484665
0.491542
0.498107
0.504323
0.510157
0.515576
0.520549
0.525048
0.529045
0.532518
0.535445
0.537809
0.539594
0.540791
0.541391
0.288985
0.289406
0.290246
0.291505
0.29318
0.295268
0.297766
0.300668
0.303971
0.307666
0.311747
0.316206
0.321031
0.326214
0.331741
0.3376
0.343775
0.350249
0.357007
0.364027
0.371289
0.37877
0.386446
0.394292
0.402279
0.410378
0.418559
0.426789
0.435035
0.443263
0.451435
0.459516
0.467468
0.475253
0.482833
0.490169
0.497223
0.503958
0.510337
0.516326
0.521889
0.526996
0.531616
0.535723
0.539291
0.542298
0.544727
0.546563
0.547793
0.548409
0.2906
0.291031
0.291891
0.29318
0.294894
0.297032
0.29959
0.302563
0.305946
0.309732
0.313914
0.318483
0.32343
0.328744
0.334412
0.340422
0.346759
0.353405
0.360344
0.367554
0.375016
0.382705
0.390598
0.398668
0.406887
0.415224
0.423648
0.432127
0.440625
0.449108
0.457537
0.465875
0.474083
0.482122
0.489951
0.497532
0.504823
0.511788
0.518386
0.524583
0.530341
0.535628
0.540412
0.544665
0.548361
0.551478
0.553995
0.555897
0.557172
0.557811
0.292614
0.293057
0.293942
0.295268
0.297032
0.299233
0.301866
0.304927
0.30841
0.312309
0.316617
0.321325
0.326424
0.331902
0.337749
0.343949
0.350488
0.357349
0.364515
0.371965
0.379677
0.387629
0.395794
0.404146
0.412655
0.421292
0.430023
0.438814
0.447631
0.456434
0.465187
0.473849
0.48238
0.490739
0.498884
0.506774
0.514366
0.521621
0.528497
0.534956
0.54096
0.546475
0.551467
0.555906
0.559765
0.563019
0.565647
0.567634
0.568966
0.569633
0.295022
0.29548
0.296395
0.297766
0.29959
0.301866
0.304589
0.307756
0.311359
0.315395
0.319854
0.32473
0.330011
0.335688
0.341748
0.348177
0.35496
0.362081
0.369521
0.377259
0.385274
0.393542
0.402036
0.410728
0.41959
0.428589
0.437691
0.446861
0.456062
0.465255
0.4744
0.483456
0.492379
0.501127
0.509656
0.517921
0.525879
0.533486
0.5407
0.547479
0.553784
0.559577
0.564822
0.569488
0.573544
0.576966
0.579731
0.581821
0.583222
0.583924
0.29782
0.298295
0.299245
0.300668
0.302563
0.304927
0.307756
0.311045
0.31479
0.318985
0.323622
0.328693
0.334188
0.340097
0.346407
0.353105
0.360174
0.367599
0.375361
0.383438
0.391808
0.400447
0.409327
0.418421
0.427697
0.437122
0.446661
0.456278
0.465933
0.475586
0.485195
0.494715
0.504102
0.51331
0.522293
0.531003
0.539394
0.54742
0.555035
0.562194
0.568856
0.574979
0.580525
0.58546
0.589752
0.593374
0.596301
0.598513
0.599997
0.600741
0.301002
0.301498
0.302487
0.303971
0.305946
0.30841
0.311359
0.31479
0.318698
0.323075
0.327915
0.33321
0.338951
0.345126
0.351723
0.358729
0.366128
0.373902
0.382034
0.3905
0.39928
0.408346
0.417672
0.427228
0.436982
0.4469
0.456945
0.467078
0.477258
0.487444
0.497589
0.507649
0.517574
0.527317
0.536828
0.546056
0.554951
0.563464
0.571546
0.579149
0.586226
0.592735
0.598633
0.603883
0.608451
0.612306
0.615422
0.617778
0.619359
0.620151
0.304562
0.30508
0.306115
0.307666
0.309732
0.312309
0.315395
0.318985
0.323075
0.327658
0.332728
0.338276
0.344294
0.35077
0.357692
0.365046
0.372817
0.380987
0.389538
0.398446
0.407689
0.417241
0.427074
0.437155
0.447453
0.457931
0.468552
0.479274
0.490054
0.500848
0.511607
0.522283
0.532825
0.54318
0.553296
0.563118
0.572593
0.581666
0.590285
0.598398
0.605955
0.612907
0.619211
0.624824
0.62971
0.633834
0.637169
0.639692
0.641384
0.642232
0.308492
0.309036
0.310121
0.311747
0.313914
0.316617
0.319854
0.323622
0.327915
0.332728
0.338054
0.343884
0.350211
0.357022
0.364307
0.372051
0.380238
0.388851
0.39787
0.407274
0.417037
0.427134
0.437534
0.448207
0.459116
0.470226
0.481495
0.492881
0.504338
0.515818
0.527272
0.538646
0.549886
0.560936
0.571738
0.582235
0.592368
0.602079
0.61131
0.620004
0.628107
0.635567
0.642334
0.648362
0.653611
0.658044
0.661629
0.664342
0.666161
0.667074
0.312785
0.313356
0.314496
0.316206
0.318483
0.321325
0.32473
0.328693
0.33321
0.338276
0.343884
0.350027
0.356695
0.363877
0.371563
0.379738
0.388386
0.397489
0.407029
0.416981
0.427323
0.438025
0.449057
0.460387
0.471978
0.483792
0.495785
0.507913
0.520127
0.532377
0.544609
0.556766
0.568791
0.580622
0.592198
0.603456
0.614332
0.624762
0.634685
0.644036
0.652758
0.660792
0.668084
0.674583
0.680245
0.685028
0.688897
0.691826
0.69379
0.694776
0.317429
0.318031
0.319231
0.321031
0.32343
0.326424
0.330011
0.334188
0.338951
0.344294
0.350211
0.356695
0.363736
0.371326
0.379451
0.388099
0.397253
0.406896
0.417008
0.427565
0.438543
0.449913
0.461643
0.4737
0.486045
0.498638
0.511434
0.524386
0.537442
0.550548
0.563646
0.576677
0.589577
0.602281
0.614722
0.626832
0.638541
0.64978
0.660479
0.670571
0.679989
0.68867
0.696553
0.703584
0.709712
0.71489
0.719081
0.722254
0.724383
0.72545
0.322416
0.323049
0.324316
0.326214
0.328744
0.331902
0.335688
0.340097
0.345126
0.35077
0.357022
0.363877
0.371326
0.379358
0.387963
0.397126
0.406832
0.417064
0.427801
0.43902
0.450694
0.462796
0.475292
0.488147
0.501322
0.514773
0.528454
0.542314
0.5563
0.570352
0.584411
0.59841
0.612282
0.625957
0.639362
0.652421
0.66506
0.677201
0.688769
0.69969
0.709888
0.719295
0.727844
0.735472
0.742124
0.747748
0.752301
0.755748
0.758062
0.759223
0.327731
0.3284
0.329737
0.331741
0.334412
0.337749
0.341748
0.346407
0.351723
0.357692
0.364307
0.371563
0.379451
0.387963
0.397086
0.406808
0.417113
0.427984
0.4394
0.451338
0.463772
0.476671
0.490002
0.50373
0.517811
0.532202
0.546853
0.561712
0.576719
0.591814
0.606931
0.622
0.636947
0.651697
0.666169
0.680283
0.693955
0.707102
0.719639
0.731484
0.742555
0.752774
0.762067
0.770365
0.777604
0.783727
0.788687
0.792443
0.794965
0.79623
0.333363
0.33407
0.335482
0.3376
0.340422
0.343949
0.348177
0.353105
0.358729
0.365046
0.372051
0.379738
0.388099
0.397126
0.406808
0.417132
0.428083
0.439645
0.451795
0.464511
0.477767
0.491531
0.50577
0.520446
0.535515
0.55093
0.566641
0.582591
0.598718
0.614956
0.631235
0.647481
0.663613
0.679548
0.695201
0.710482
0.7253
0.739562
0.753176
0.76605
0.778094
0.789219
0.799344
0.808391
0.816287
0.82297
0.828386
0.832488
0.835243
0.836626
0.339296
0.340043
0.341536
0.343775
0.346759
0.350488
0.35496
0.360174
0.366128
0.372817
0.380238
0.388386
0.397253
0.406832
0.417113
0.428083
0.439729
0.452032
0.464973
0.478527
0.49267
0.507369
0.522589
0.538291
0.554431
0.57096
0.587823
0.604962
0.62231
0.639798
0.65735
0.674886
0.692319
0.70956
0.726514
0.743083
0.759168
0.774667
0.789476
0.803493
0.816619
0.828754
0.839807
0.849689
0.858321
0.86563
0.871556
0.876046
0.879062
0.880576
0.345515
0.346305
0.347882
0.350249
0.353405
0.357349
0.362081
0.367599
0.373902
0.380987
0.388851
0.397489
0.406896
0.417064
0.427984
0.439645
0.452032
0.465129
0.478917
0.493372
0.508467
0.524171
0.540448
0.557259
0.574556
0.59229
0.610403
0.628832
0.647509
0.666359
0.685301
0.704248
0.723108
0.741781
0.760166
0.778156
0.79564
0.812505
0.828638
0.843924
0.858251
0.871511
0.883597
0.894412
0.903865
0.911874
0.918371
0.923295
0.926604
0.928266
0.352002
0.352836
0.354504
0.357007
0.360344
0.364515
0.369521
0.375361
0.382034
0.389538
0.39787
0.407029
0.417008
0.427801
0.4394
0.451795
0.464973
0.478917
0.493609
0.509026
0.525141
0.541923
0.559335
0.577337
0.595882
0.614915
0.634379
0.654207
0.674326
0.694656
0.715112
0.735599
0.756018
0.776262
0.796218
0.81577
0.834795
0.85317
0.870767
0.88746
0.903123
0.917632
0.93087
0.942725
0.953094
0.961887
0.969021
0.974433
0.978069
0.979896
0.358738
0.359619
0.361382
0.364027
0.367554
0.371965
0.377259
0.383438
0.3905
0.398446
0.407274
0.416981
0.427565
0.43902
0.451338
0.464511
0.478527
0.493372
0.509026
0.525468
0.542671
0.560605
0.579232
0.598512
0.618395
0.638827
0.659747
0.681085
0.702764
0.7247
0.746801
0.768966
0.791087
0.813048
0.834727
0.855995
0.876719
0.896759
0.915976
0.934227
0.951371
0.96727
0.98179
0.994806
1.0062
1.01587
1.02372
1.02967
1.03368
1.03569
0.365702
0.366633
0.368495
0.371289
0.375016
0.379677
0.385274
0.391808
0.39928
0.407689
0.417037
0.427323
0.438543
0.450694
0.463772
0.477767
0.49267
0.508467
0.525141
0.542671
0.561031
0.580192
0.600116
0.620761
0.642078
0.664011
0.686496
0.709461
0.732826
0.756499
0.780385
0.804373
0.828349
0.852186
0.875751
0.898904
0.921495
0.943372
0.964378
0.984355
1.00314
1.02059
1.03654
1.05085
1.06339
1.07403
1.08268
1.08925
1.09367
1.09589
0.372872
0.373855
0.37582
0.37877
0.382705
0.387629
0.393542
0.400447
0.408346
0.417241
0.427134
0.438025
0.449913
0.462796
0.476671
0.491531
0.507369
0.524171
0.541923
0.560605
0.580192
0.600655
0.621958
0.644058
0.666907
0.690446
0.71461
0.739324
0.764504
0.790054
0.815871
0.841839
0.867833
0.893717
0.919346
0.944563
0.969208
0.993109
1.01609
1.03798
1.0586
1.07776
1.0953
1.11106
1.12488
1.13662
1.14617
1.15342
1.1583
1.16076
0.380226
0.381262
0.383335
0.386446
0.390598
0.395794
0.402036
0.409327
0.417672
0.427074
0.437534
0.449057
0.461643
0.475292
0.490002
0.50577
0.522589
0.540448
0.559335
0.579232
0.600116
0.621958
0.644723
0.668371
0.692851
0.718104
0.744065
0.770654
0.797785
0.825358
0.853263
0.881376
0.909563
0.937677
0.96556
0.993042
1.01994
1.04608
1.07124
1.09525
1.11789
1.13897
1.15829
1.17567
1.19092
1.20389
1.21445
1.22248
1.22788
1.23059
0.387737
0.388829
0.391013
0.394292
0.398668
0.404146
0.410728
0.418421
0.427228
0.437155
0.448207
0.460387
0.4737
0.488147
0.50373
0.520446
0.538291
0.557259
0.577337
0.598512
0.620761
0.644058
0.668371
0.693658
0.71987
0.746949
0.774826
0.803423
0.832647
0.862396
0.892553
0.922987
0.953554
0.984096
1.01444
1.0444
1.07378
1.10237
1.12996
1.15631
1.18121
1.20442
1.22572
1.24491
1.26177
1.27613
1.28783
1.29672
1.30271
1.30572
0.395379
0.396528
0.398827
0.402279
0.406887
0.412655
0.41959
0.427697
0.436982
0.447453
0.459116
0.471978
0.486045
0.501322
0.517811
0.535515
0.554431
0.574556
0.595882
0.618395
0.642078
0.666907
0.692851
0.71987
0.747917
0.776934
0.806852
0.837591
0.869057
0.901142
0.933724
0.966666
0.999812
1.03299
1.06602
1.0987
1.1308
1.1621
1.19235
1.22131
1.24872
1.27431
1.29784
1.31905
1.33773
1.35364
1.36662
1.3765
1.38315
1.3865
0.403124
0.404332
0.406749
0.410378
0.415224
0.421292
0.428589
0.437122
0.4469
0.457931
0.470226
0.483792
0.498638
0.514773
0.532202
0.55093
0.57096
0.59229
0.614915
0.638827
0.664011
0.690446
0.718104
0.746949
0.776934
0.808003
0.840089
0.873109
0.906969
0.941557
0.976747
1.01239
1.04833
1.08438
1.12033
1.15598
1.19107
1.22536
1.25856
1.29041
1.32061
1.34886
1.37488
1.39838
1.41909
1.43677
1.4512
1.46219
1.4696
1.47332
0.410942
0.412211
0.414748
0.418559
0.423648
0.430023
0.437691
0.446661
0.456945
0.468552
0.481495
0.495785
0.511434
0.528454
0.546853
0.566641
0.587823
0.610403
0.634379
0.659747
0.686496
0.71461
0.744065
0.774826
0.806852
0.840089
0.874469
0.909913
0.946324
0.983589
1.02158
1.06013
1.09909
1.13825
1.17739
1.21628
1.25465
1.29223
1.32871
1.36376
1.39708
1.42831
1.45713
1.4832
1.50622
1.52589
1.54196
1.55421
1.56248
1.56664
0.418803
0.420133
0.422793
0.426789
0.432127
0.438814
0.446861
0.456278
0.467078
0.479274
0.492881
0.507913
0.524386
0.542314
0.561712
0.582591
0.604962
0.628832
0.654207
0.681085
0.709461
0.739324
0.770654
0.803423
0.837591
0.873109
0.909913
0.947924
0.987046
1.02717
1.06815
1.10983
1.15204
1.19457
1.23718
1.27962
1.3216
1.3628
1.4029
1.44153
1.47832
1.51289
1.54486
1.57384
1.59946
1.6214
1.63935
1.65305
1.6623
1.66695
0.426674
0.428066
0.430851
0.435035
0.440625
0.447631
0.456062
0.465933
0.477258
0.490054
0.504338
0.520127
0.537442
0.5563
0.576719
0.598718
0.62231
0.647509
0.674326
0.702764
0.732826
0.764504
0.797785
0.832647
0.869057
0.906969
0.946324
0.987046
1.02904
1.0722
1.11638
1.16142
1.20714
1.25331
1.2997
1.34601
1.39194
1.43714
1.48125
1.52385
1.56454
1.60286
1.63838
1.67065
1.69925
1.72377
1.74386
1.75921
1.76959
1.77481
0.434522
0.435977
0.438889
0.443263
0.449108
0.456434
0.465255
0.475586
0.487444
0.500848
0.515818
0.532377
0.550548
0.570352
0.591814
0.614956
0.639798
0.666359
0.694656
0.7247
0.756499
0.790054
0.825358
0.862396
0.901142
0.941557
0.983589
1.02717
1.0722
1.11858
1.16617
1.2148
1.26429
1.3144
1.36488
1.41542
1.46568
1.5153
1.56385
1.61088
1.65593
1.69847
1.73801
1.77402
1.80601
1.83349
1.85604
1.8733
1.88497
1.89086
0.442314
0.443832
0.44687
0.451435
0.457537
0.465187
0.4744
0.485195
0.497589
0.511607
0.527272
0.544609
0.563646
0.584411
0.606931
0.631235
0.65735
0.685301
0.715112
0.746801
0.780385
0.815871
0.853263
0.892553
0.933724
0.976747
1.02158
1.06815
1.11638
1.16617
1.21738
1.26984
1.32337
1.37773
1.43264
1.48779
1.54281
1.59729
1.65077
1.70275
1.75268
1.8
1.8441
1.88437
1.92024
1.95112
1.97651
1.99597
2.00915
2.0158
0.450013
0.451595
0.45476
0.459516
0.465875
0.473849
0.483456
0.494715
0.507649
0.522283
0.538646
0.556766
0.576677
0.59841
0.622
0.647481
0.674886
0.704248
0.735599
0.768966
0.804373
0.841839
0.881376
0.922987
0.966666
1.01239
1.06013
1.10983
1.16142
1.2148
1.26984
1.32639
1.38424
1.44317
1.50288
1.56304
1.62326
1.6831
1.74205
1.79955
1.85499
1.9077
1.95699
2.00215
2.04247
2.07729
2.10598
2.128
2.14293
2.15047
0.457585
0.45923
0.462521
0.467468
0.474083
0.48238
0.492379
0.504102
0.517574
0.532825
0.549886
0.568791
0.589577
0.612282
0.636947
0.663613
0.692319
0.723108
0.756018
0.791087
0.828349
0.867833
0.909563
0.953554
0.999812
1.04833
1.09909
1.15204
1.20714
1.26429
1.32337
1.38424
1.44671
1.51053
1.57542
1.64103
1.70695
1.77269
1.83771
1.90138
1.96301
2.02183
2.07705
2.12782
2.1733
2.21269
2.24522
2.27024
2.28723
2.29582
0.464994
0.466701
0.470117
0.475253
0.482122
0.490739
0.501127
0.51331
0.527317
0.54318
0.560936
0.580622
0.602281
0.625957
0.651697
0.679548
0.70956
0.741781
0.776262
0.813048
0.852186
0.893717
0.937677
0.984096
1.03299
1.08438
1.13825
1.19457
1.25331
1.3144
1.37773
1.44317
1.51053
1.57959
1.65005
1.72156
1.7937
1.86594
1.93769
2.00826
2.07687
2.14265
2.20465
2.2619
2.31337
2.3581
2.39514
2.4237
2.44313
2.45296
0.472203
0.473971
0.477511
0.482833
0.489951
0.498884
0.509656
0.522293
0.536828
0.553296
0.571738
0.592198
0.614722
0.639362
0.666169
0.695201
0.726514
0.760166
0.796218
0.834727
0.875751
0.919346
0.96556
1.01444
1.06602
1.12033
1.17739
1.23718
1.2997
1.36488
1.43264
1.50288
1.57542
1.65005
1.72649
1.80438
1.88329
1.96267
2.04188
2.12017
2.19666
2.27036
2.34017
2.40492
2.4634
2.5144
2.55678
2.58954
2.61186
2.62317
0.479176
0.481004
0.484665
0.490169
0.497532
0.506774
0.517921
0.531003
0.546056
0.563118
0.582235
0.603456
0.626832
0.652421
0.680283
0.710482
0.743083
0.778156
0.81577
0.855995
0.898904
0.944563
0.993042
1.0444
1.0987
1.15598
1.21628
1.27962
1.34601
1.41542
1.48779
1.56304
1.64103
1.72156
1.80438
1.88914
1.97539
2.0626
2.15007
2.23699
2.32239
2.40513
2.48395
2.55745
2.62415
2.68259
2.73133
2.76911
2.79491
2.80799
0.485878
0.487765
0.491542
0.497223
0.504823
0.514366
0.525879
0.539394
0.554951
0.572593
0.592368
0.614332
0.638541
0.66506
0.693955
0.7253
0.759168
0.79564
0.834795
0.876719
0.921495
0.969208
1.01994
1.07378
1.1308
1.19107
1.25465
1.3216
1.39194
1.46568
1.54281
1.62326
1.70695
1.7937
1.88329
1.97539
2.0696
2.16535
2.26194
2.3585
2.45397
2.54706
2.6363
2.72004
2.79649
2.86379
2.92016
2.96401
2.99402
3.00926
0.492273
0.494216
0.498107
0.503958
0.511788
0.521621
0.533486
0.54742
0.563464
0.581666
0.602079
0.624762
0.64978
0.677201
0.707102
0.739562
0.774667
0.812505
0.85317
0.896759
0.943372
0.993109
1.04608
1.10237
1.1621
1.22536
1.29223
1.3628
1.43714
1.5153
1.59729
1.6831
1.77269
1.86594
1.96267
2.0626
2.16535
2.27039
2.37701
2.48432
2.59116
2.69611
2.79747
2.89327
2.98131
3.05928
3.12492
3.17615
3.2113
3.22918
0.498328
0.500325
0.504323
0.510337
0.518386
0.528497
0.5407
0.555035
0.571546
0.590285
0.61131
0.634685
0.660479
0.688769
0.719639
0.753176
0.789476
0.828638
0.870767
0.915976
0.964378
1.01609
1.07124
1.12996
1.19235
1.25856
1.32871
1.4029
1.48125
1.56385
1.65077
1.74205
1.83771
1.93769
2.04188
2.15007
2.26194
2.37701
2.49462
2.61386
2.73353
2.85207
2.96755
3.07763
3.1796
3.27054
3.3475
3.40781
3.4493
3.47043
0.504009
0.506056
0.510157
0.516326
0.524583
0.534956
0.547479
0.562194
0.579149
0.598398
0.620004
0.644036
0.670571
0.69969
0.731484
0.76605
0.803493
0.843924
0.88746
0.934227
0.984355
1.03798
1.09525
1.15631
1.22131
1.29041
1.36376
1.44153
1.52385
1.61088
1.70275
1.79955
1.90138
2.00826
2.12017
2.23699
2.3585
2.48432
2.61386
2.74627
2.88035
3.01446
3.14643
3.27352
3.39237
3.49923
3.59021
3.66179
3.71114
3.73631
0.509285
0.51138
0.515576
0.521889
0.530341
0.54096
0.553784
0.568856
0.586226
0.605955
0.628107
0.652758
0.679989
0.709888
0.742555
0.778094
0.816619
0.858251
0.903123
0.951371
1.00314
1.0586
1.11789
1.18121
1.24872
1.32061
1.39708
1.47832
1.56454
1.65593
1.75268
1.85499
1.96301
2.07687
2.19666
2.32239
2.45397
2.59116
2.73353
2.88035
3.03052
3.18239
3.33364
3.48109
3.62062
3.74729
3.85584
3.94154
4.0007
4.03089
0.514125
0.516264
0.520549
0.526996
0.535628
0.546475
0.559577
0.574979
0.592735
0.612907
0.635567
0.660792
0.68867
0.719295
0.752774
0.789219
0.828754
0.871511
0.917632
0.96727
1.02059
1.07776
1.13897
1.20442
1.27431
1.34886
1.42831
1.51289
1.60286
1.69847
1.8
1.9077
2.02183
2.14265
2.27036
2.40513
2.54706
2.69611
2.85207
3.01446
3.18239
3.35439
3.52812
3.70008
3.86525
4.01701
4.14788
4.25139
4.32282
4.35923
0.518503
0.520682
0.525048
0.531616
0.540412
0.551467
0.564822
0.580525
0.598633
0.619211
0.642334
0.668084
0.696553
0.727844
0.762067
0.799344
0.839807
0.883597
0.93087
0.98179
1.03654
1.0953
1.15829
1.22572
1.29784
1.37488
1.45713
1.54486
1.63838
1.73801
1.8441
1.95699
2.07705
2.20465
2.34017
2.48395
2.6363
2.79747
2.96755
3.14643
3.33364
3.52812
3.72787
3.92939
4.12684
4.3112
4.47088
4.5969
4.68356
4.72761
0.522392
0.524608
0.529045
0.535723
0.544665
0.555906
0.569488
0.58546
0.603883
0.624824
0.648362
0.674583
0.703584
0.735472
0.770365
0.808391
0.849689
0.894412
0.942725
0.994806
1.05085
1.11106
1.17567
1.24491
1.31905
1.39838
1.4832
1.57384
1.67065
1.77402
1.88437
2.00215
2.12782
2.2619
2.40492
2.55745
2.72004
2.89327
3.07763
3.27352
3.48109
3.70008
3.92939
4.16634
4.40509
4.63369
4.83114
4.98543
5.09055
5.14368
0.525771
0.528017
0.532518
0.539291
0.548361
0.559765
0.573544
0.589752
0.608451
0.62971
0.653611
0.680245
0.709712
0.742124
0.777604
0.816287
0.858321
0.903865
0.953094
1.0062
1.06339
1.12488
1.19092
1.26177
1.33773
1.41909
1.50622
1.59946
1.69925
1.80601
1.92024
2.04247
2.1733
2.31337
2.4634
2.62415
2.79649
2.98131
3.1796
3.39237
3.62062
3.86525
4.12684
4.40509
4.69711
4.99095
5.23823
5.42677
5.5532
5.61654
0.528618
0.530891
0.535445
0.542298
0.551478
0.563019
0.576966
0.593374
0.612306
0.633834
0.658044
0.685028
0.71489
0.747748
0.783727
0.82297
0.86563
0.911874
0.961887
1.01587
1.07403
1.13662
1.20389
1.27613
1.35364
1.43677
1.52589
1.6214
1.72377
1.83349
1.95112
2.07729
2.21269
2.3581
2.5144
2.68259
2.86379
3.05928
3.27054
3.49923
3.74729
4.01701
4.3112
4.63369
4.99095
5.39842
5.70773
5.93391
6.08263
6.15644
0.530917
0.533211
0.537809
0.544727
0.553995
0.565647
0.579731
0.596301
0.615422
0.637169
0.661629
0.688897
0.719081
0.752301
0.788687
0.828386
0.871556
0.918371
0.969021
1.02372
1.08268
1.14617
1.21445
1.28783
1.36662
1.4512
1.54196
1.63935
1.74386
1.85604
1.97651
2.10598
2.24522
2.39514
2.55678
2.73133
2.92016
3.12492
3.3475
3.59021
3.85584
4.14788
4.47088
4.83114
5.23823
5.70773
6.06405
6.32223
6.49067
6.57388
0.532653
0.534964
0.539594
0.546563
0.555897
0.567634
0.581821
0.598513
0.617778
0.639692
0.664342
0.691826
0.722254
0.755748
0.792443
0.832488
0.876046
0.923295
0.974433
1.02967
1.08925
1.15342
1.22248
1.29672
1.3765
1.46219
1.55421
1.65305
1.75921
1.8733
1.99597
2.128
2.27024
2.4237
2.58954
2.76911
2.96401
3.17615
3.40781
3.66179
3.94154
4.25139
4.5969
4.98543
5.42677
5.93391
6.32223
6.60401
6.78765
6.87827
0.533817
0.536139
0.540791
0.547793
0.557172
0.568966
0.583222
0.599997
0.619359
0.641384
0.666161
0.69379
0.724383
0.758062
0.794965
0.835243
0.879062
0.926604
0.978069
1.03368
1.09367
1.1583
1.22788
1.30271
1.38315
1.4696
1.56248
1.6623
1.76959
1.88497
2.00915
2.14293
2.28723
2.44313
2.61186
2.79491
2.99402
3.2113
3.4493
3.71114
4.0007
4.32282
4.68356
5.09055
5.5532
6.08263
6.49067
6.78765
6.9814
7.07702
0.5344
0.536727
0.541391
0.548409
0.557811
0.569633
0.583924
0.600741
0.620151
0.642232
0.667074
0.694776
0.72545
0.759223
0.79623
0.836626
0.880576
0.928266
0.979896
1.03569
1.09589
1.16076
1.23059
1.30572
1.3865
1.47332
1.56664
1.66695
1.77481
1.89086
2.0158
2.15047
2.29582
2.45296
2.62317
2.80799
3.00926
3.22918
3.47043
3.73631
4.03089
4.35923
4.72761
5.14368
5.61654
6.15644
6.57388
6.87827
7.07702
7.17514
)
;

boundaryField
{
    walls
    {
        type            zeroGradient;
    }
    frontAndBack
    {
        type            empty;
    }
}


// ************************************************************************* //
