/*--------------------------------*- C++ -*----------------------------------*\
| =========                 |                                                 |
| \\      /  F ield         | OpenFOAM: The Open Source CFD Toolbox           |
|  \\    /   O peration     | Version:  2406                                  |
|   \\  /    A nd           | Website:  www.openfoam.com                      |
|    \\/     M anipulation  |                                                 |
\*---------------------------------------------------------------------------*/
FoamFile
{
    version     2.0;
    format      ascii;
    arch        "LSB;label=32;scalar=64";
    class       volVectorField;
    location    "1.1";
    object      flux;
}
// * * * * * * * * * * * * * * * * * * * * * * * * * * * * * * * * * * * * * //

dimensions      [0 1 -1 1 0 0 0];

internalField   nonuniform List<vector> 
2500
(
(0.00029327 0.00029327 0)
(0.000877507 0.000295589 0)
(0.00145668 0.000300319 0)
(0.00202814 0.000307432 0)
(0.00258816 0.000316972 0)
(0.00313374 0.000328992 0)
(0.00366205 0.000343556 0)
(0.00417047 0.000360736 0)
(0.0046566 0.000380614 0)
(0.00511832 0.000403279 0)
(0.00555376 0.000428826 0)
(0.00596134 0.000457354 0)
(0.00633977 0.000488963 0)
(0.00668802 0.000523753 0)
(0.00700532 0.00056182 0)
(0.00729119 0.000603252 0)
(0.00754533 0.00064813 0)
(0.00776767 0.000696521 0)
(0.00795832 0.000748475 0)
(0.00811752 0.000804023 0)
(0.00824562 0.000863171 0)
(0.00834306 0.000925897 0)
(0.00841032 0.00099215 0)
(0.00844789 0.00106184 0)
(0.00845628 0.00113485 0)
(0.00843592 0.001211 0)
(0.00838723 0.00129008 0)
(0.00831055 0.00137184 0)
(0.00820616 0.00145598 0)
(0.00807428 0.00154212 0)
(0.00791506 0.00162988 0)
(0.00772861 0.0017188 0)
(0.00751503 0.00180838 0)
(0.00727439 0.00189808 0)
(0.00700682 0.00198731 0)
(0.0067125 0.00207547 0)
(0.00639171 0.0021619 0)
(0.00604485 0.00224595 0)
(0.0056725 0.00232693 0)
(0.00527541 0.00240416 0)
(0.00485456 0.00247697 0)
(0.00441117 0.00254471 0)
(0.00394668 0.00260673 0)
(0.0034628 0.00266245 0)
(0.00296149 0.00271133 0)
(0.00244491 0.00275289 0)
(0.00191543 0.00278672 0)
(0.00137557 0.00281248 0)
(0.000828075 0.00282979 0)
(0.000276391 0.00283774 0)
(0.000295589 0.000877507 0)
(0.000884556 0.000884556 0)
(0.00146852 0.000898753 0)
(0.00204479 0.000920123 0)
(0.00260972 0.000948792 0)
(0.00316033 0.000984918 0)
(0.0036938 0.00102869 0)
(0.00420753 0.00108032 0)
(0.00469914 0.00114007 0)
(0.00516653 0.0012082 0)
(0.00560783 0.00128499 0)
(0.00602148 0.00137075 0)
(0.00640617 0.00146578 0)
(0.00676087 0.00157038 0)
(0.00708482 0.00168484 0)
(0.0073775 0.00180942 0)
(0.0076386 0.00194438 0)
(0.00786802 0.00208991 0)
(0.00806582 0.00224618 0)
(0.00823221 0.00241326 0)
(0.00836749 0.00259119 0)
(0.00847204 0.00277991 0)
(0.00854626 0.00297925 0)
(0.00859059 0.00318897 0)
(0.00860543 0.00340867 0)
(0.00859115 0.00363787 0)
(0.00854807 0.00387592 0)
(0.00847644 0.00412206 0)
(0.00837644 0.00437536 0)
(0.00824819 0.00463476 0)
(0.00809174 0.00489904 0)
(0.00790711 0.00516684 0)
(0.0076943 0.00543666 0)
(0.00745332 0.00570687 0)
(0.00718421 0.0059757 0)
(0.00688709 0.00624132 0)
(0.00656218 0.00650177 0)
(0.00620987 0.00675505 0)
(0.00583071 0.00699912 0)
(0.00542545 0.00723191 0)
(0.00499511 0.00745139 0)
(0.00454092 0.00765558 0)
(0.00406442 0.00784257 0)
(0.0035674 0.00801057 0)
(0.00305193 0.00815795 0)
(0.0025203 0.00828324 0)
(0.00197502 0.00838524 0)
(0.00141864 0.00846296 0)
(0.000853338 0.00851559 0)
(0.000284346 0.00854109 0)
(0.000300319 0.00145668 0)
(0.000898753 0.00146852 0)
(0.00149224 0.00149224 0)
(0.00207818 0.00152799 0)
(0.00265296 0.00157595 0)
(0.00321364 0.00163639 0)
(0.00375746 0.00170962 0)
(0.00428185 0.00179603 0)
(0.00478447 0.00189602 0)
(0.00526324 0.00201004 0)
(0.00571631 0.00213859 0)
(0.00614213 0.00228216 0)
(0.00653939 0.00244127 0)
(0.00690707 0.00261643 0)
(0.00724437 0.00280812 0)
(0.00755073 0.00301681 0)
(0.00782582 0.00324292 0)
(0.00806947 0.00348679 0)
(0.00828167 0.00374868 0)
(0.00846254 0.00402876 0)
(0.00861227 0.00432709 0)
(0.00873112 0.00464355 0)
(0.00881938 0.00497791 0)
(0.00887731 0.00532973 0)
(0.00890518 0.00569838 0)
(0.00890317 0.00608305 0)
(0.00887142 0.00648267 0)
(0.00880999 0.00689595 0)
(0.00871886 0.00732134 0)
(0.00859796 0.00775707 0)
(0.00844714 0.0082011 0)
(0.00826623 0.00865113 0)
(0.00805505 0.00910465 0)
(0.00781343 0.00955892 0)
(0.00754127 0.010011 0)
(0.00723856 0.0104577 0)
(0.00690544 0.0108958 0)
(0.00654219 0.011322 0)
(0.00614935 0.0117327 0)
(0.00572769 0.0121245 0)
(0.00527824 0.0124939 0)
(0.00480234 0.0128377 0)
(0.00430167 0.0131525 0)
(0.00377818 0.0134354 0)
(0.00323416 0.0136836 0)
(0.0026722 0.0138946 0)
(0.00209515 0.0140662 0)
(0.00150592 0.0141969 0)
(0.000906209 0.0142853 0)
(0.000301893 0.0143295 0)
(0.000307432 0.00202814 0)
(0.000920123 0.00204479 0)
(0.00152799 0.00207818 0)
(0.00212849 0.00212849 0)
(0.00271812 0.00219602 0)
(0.003294 0.00228113 0)
(0.00385344 0.00238427 0)
(0.00439392 0.00250597 0)
(0.00491316 0.00264683 0)
(0.0054091 0.00280748 0)
(0.00587995 0.00298863 0)
(0.00632416 0.00319099 0)
(0.00674043 0.0034153 0)
(0.00712772 0.00366228 0)
(0.00748521 0.00393265 0)
(0.0078123 0.00422707 0)
(0.00810857 0.00454613 0)
(0.00837378 0.00489034 0)
(0.0086078 0.00526011 0)
(0.00881062 0.00565566 0)
(0.00898228 0.0060771 0)
(0.00912286 0.0065243 0)
(0.00923244 0.00699692 0)
(0.00931107 0.00749438 0)
(0.00935876 0.00801582 0)
(0.00937544 0.00856006 0)
(0.00936097 0.00912565 0)
(0.00931512 0.00971075 0)
(0.00923757 0.0103132 0)
(0.00912794 0.0109305 0)
(0.0089858 0.0115597 0)
(0.00881067 0.0121977 0)
(0.00860209 0.0128408 0)
(0.00835965 0.0134851 0)
(0.008083 0.0141265 0)
(0.00777194 0.0147606 0)
(0.00742645 0.0153826 0)
(0.00704672 0.0159877 0)
(0.00663322 0.0165711 0)
(0.00618672 0.0171278 0)
(0.00570833 0.0176528 0)
(0.00519952 0.0181414 0)
(0.00466216 0.018589 0)
(0.00409847 0.0189913 0)
(0.00351108 0.0193441 0)
(0.00290294 0.0196441 0)
(0.00227736 0.0198881 0)
(0.0016377 0.0200736 0)
(0.000985927 0.0201985 0)
(0.000328539 0.0202613 0)
(0.000316972 0.00258816 0)
(0.000948792 0.00260972 0)
(0.00157595 0.00265296 0)
(0.00219602 0.00271812 0)
(0.00280559 0.00280559 0)
(0.00340189 0.00291585 0)
(0.0039823 0.00304949 0)
(0.00454441 0.00320721 0)
(0.00508599 0.00338978 0)
(0.00560504 0.00359806 0)
(0.00609982 0.00383297 0)
(0.0065688 0.00409545 0)
(0.00701068 0.00438648 0)
(0.00742442 0.00470702 0)
(0.00780915 0.00505801 0)
(0.00816421 0.00544036 0)
(0.0084891 0.00585484 0)
(0.00878345 0.00630216 0)
(0.00904699 0.00678285 0)
(0.00927953 0.00729727 0)
(0.0094809 0.00784555 0)
(0.00965094 0.00842758 0)
(0.00978946 0.00904295 0)
(0.00989621 0.00969092 0)
(0.00997086 0.0103704 0)
(0.010013 0.0110799 0)
(0.0100221 0.0118175 0)
(0.00999754 0.0125809 0)
(0.0099386 0.0133673 0)
(0.00984448 0.0141734 0)
(0.00971433 0.0149955 0)
(0.00954729 0.0158293 0)
(0.0093425 0.0166701 0)
(0.0090992 0.017513 0)
(0.00881673 0.0183523 0)
(0.0084946 0.0191823 0)
(0.00813258 0.0199969 0)
(0.00773072 0.0207897 0)
(0.0072894 0.0215542 0)
(0.00680939 0.0222839 0)
(0.00629189 0.0229724 0)
(0.00573855 0.0236133 0)
(0.00515149 0.0242006 0)
(0.0045333 0.0247284 0)
(0.00388704 0.0251916 0)
(0.00321618 0.0255853 0)
(0.00252462 0.0259056 0)
(0.00181634 0.0261489 0)
(0.00109392 0.0263127 0)
(0.000364658 0.026395 0)
(0.000328992 0.00313374 0)
(0.000984918 0.00316033 0)
(0.00163639 0.00321364 0)
(0.00228113 0.003294 0)
(0.00291585 0.00340189 0)
(0.0035379 0.0035379 0)
(0.0041448 0.00370279 0)
(0.00473421 0.00389743 0)
(0.00530401 0.0041228 0)
(0.00585229 0.00437997 0)
(0.00637734 0.00467009 0)
(0.00687767 0.00499438 0)
(0.007352 0.00535405 0)
(0.00779926 0.00575034 0)
(0.00821855 0.00618446 0)
(0.00860913 0.00665752 0)
(0.00897038 0.00717058 0)
(0.00930179 0.00772451 0)
(0.00960291 0.00832004 0)
(0.00987332 0.00895764 0)
(0.0101126 0.00963754 0)
(0.0103203 0.0103596 0)
(0.0104958 0.0111235 0)
(0.0106385 0.0119282 0)
(0.0107477 0.0127725 0)
(0.0108226 0.0136546 0)
(0.010862 0.0145721 0)
(0.0108649 0.0155221 0)
(0.01083 0.0165013 0)
(0.0107561 0.0175056 0)
(0.0106416 0.0185303 0)
(0.0104853 0.0195701 0)
(0.0102858 0.0206194 0)
(0.0100418 0.0216716 0)
(0.00975235 0.02272 0)
(0.00941651 0.0237573 0)
(0.00903378 0.0247757 0)
(0.00860402 0.0257674 0)
(0.00812749 0.0267241 0)
(0.00760496 0.0276376 0)
(0.00703774 0.0284999 0)
(0.00642768 0.0293028 0)
(0.00577725 0.0300388 0)
(0.00508948 0.0307004 0)
(0.00436799 0.0312812 0)
(0.00361693 0.0317749 0)
(0.00284094 0.0321766 0)
(0.00204483 0.0324817 0)
(0.00123202 0.0326871 0)
(0.000410843 0.0327903 0)
(0.000343556 0.00366205 0)
(0.00102869 0.0036938 0)
(0.00170962 0.00375746 0)
(0.00238427 0.00385344 0)
(0.00304949 0.0039823 0)
(0.00370279 0.0041448 0)
(0.00434183 0.00434183 0)
(0.00496441 0.00457447 0)
(0.00556852 0.00484391 0)
(0.00615234 0.00515147 0)
(0.00671423 0.00549857 0)
(0.00725275 0.00588668 0)
(0.00776665 0.00631731 0)
(0.00825483 0.00679199 0)
(0.00871633 0.00731221 0)
(0.00915033 0.00787937 0)
(0.00955609 0.00849478 0)
(0.00993291 0.00915957 0)
(0.0102801 0.00987465 0)
(0.010597 0.0106407 0)
(0.0108829 0.011458 0)
(0.0111369 0.0123265 0)
(0.011358 0.0132458 0)
(0.0115452 0.0142149 0)
(0.0116972 0.0152323 0)
(0.0118126 0.0162958 0)
(0.0118897 0.0174027 0)
(0.0119268 0.0185497 0)
(0.0119221 0.0197326 0)
(0.0118734 0.0209466 0)
(0.0117789 0.022186 0)
(0.0116364 0.0234446 0)
(0.011444 0.0247153 0)
(0.0111999 0.0259904 0)
(0.0109024 0.0272617 0)
(0.0105503 0.0285201 0)
(0.0101426 0.0297564 0)
(0.00967907 0.0309609 0)
(0.00915968 0.0321235 0)
(0.00858521 0.0332343 0)
(0.00795709 0.0342831 0)
(0.00727743 0.0352602 0)
(0.00654911 0.0361562 0)
(0.0057757 0.036962 0)
(0.00496153 0.0376694 0)
(0.00411158 0.038271 0)
(0.0032314 0.0387604 0)
(0.00232688 0.0391324 0)
(0.00140249 0.0393827 0)
(0.000467855 0.0395084 0)
(0.000360736 0.00417047 0)
(0.00108032 0.00420753 0)
(0.00179603 0.00428185 0)
(0.00250597 0.00439392 0)
(0.00320721 0.00454441 0)
(0.00389743 0.00473421 0)
(0.00457447 0.00496441 0)
(0.00523629 0.00523629 0)
(0.00588102 0.00555128 0)
(0.00650695 0.00591097 0)
(0.00711254 0.00631705 0)
(0.00769641 0.00677131 0)
(0.00825731 0.00727557 0)
(0.00879416 0.00783169 0)
(0.00930593 0.00844147 0)
(0.0097917 0.00910664 0)
(0.0102506 0.00982881 0)
(0.0106817 0.0106094 0)
(0.011084 0.0114495 0)
(0.0114567 0.0123501 0)
(0.0117984 0.0133116 0)
(0.0121081 0.014334 0)
(0.0123841 0.015417 0)
(0.012625 0.0165594 0)
(0.0128286 0.0177595 0)
(0.0129931 0.019015 0)
(0.013116 0.0203228 0)
(0.0131948 0.0216788 0)
(0.0132269 0.0230783 0)
(0.0132094 0.0245156 0)
(0.0131396 0.0259842 0)
(0.0130146 0.0274766 0)
(0.0128317 0.0289844 0)
(0.0125882 0.0304986 0)
(0.012282 0.0320092 0)
(0.0119113 0.0335057 0)
(0.0114746 0.0349767 0)
(0.0109711 0.0364108 0)
(0.0104009 0.037796 0)
(0.00976457 0.0391201 0)
(0.0090637 0.0403711 0)
(0.00830072 0.0415371 0)
(0.00747896 0.0426067 0)
(0.00660268 0.0435691 0)
(0.00567703 0.0444143 0)
(0.004708 0.0451333 0)
(0.00370229 0.0457184 0)
(0.00266707 0.0461631 0)
(0.00160811 0.0464624 0)
(0.000536622 0.0466128 0)
(0.000380614 0.0046566 0)
(0.00114007 0.00469914 0)
(0.00189602 0.00478447 0)
(0.00264683 0.00491316 0)
(0.00338978 0.00508599 0)
(0.0041228 0.00530401 0)
(0.00484391 0.00556852 0)
(0.00555128 0.00588102 0)
(0.0062432 0.0062432 0)
(0.00691811 0.00665695 0)
(0.00757457 0.00712427 0)
(0.00821128 0.00764728 0)
(0.00882703 0.00822817 0)
(0.00942072 0.00886914 0)
(0.00999128 0.00957238 0)
(0.0105377 0.01034 0)
(0.0110588 0.0111739 0)
(0.0115536 0.0120758 0)
(0.0120208 0.0130473 0)
(0.0124591 0.0140894 0)
(0.0128668 0.0152028 0)
(0.0132423 0.0163876 0)
(0.0135833 0.0176436 0)
(0.0138877 0.0189695 0)
(0.0141529 0.0203637 0)
(0.0143758 0.0218233 0)
(0.0145535 0.0233449 0)
(0.0146823 0.024924 0)
(0.0147589 0.0265551 0)
(0.0147793 0.0282317 0)
(0.0147398 0.0299462 0)
(0.0146366 0.03169 0)
(0.014466 0.0334533 0)
(0.0142247 0.0352254 0)
(0.0139094 0.0369948 0)
(0.0135178 0.038749 0)
(0.0130478 0.0404748 0)
(0.0124983 0.0421584 0)
(0.0118689 0.0437857 0)
(0.0111603 0.0453423 0)
(0.0103741 0.0468139 0)
(0.00951304 0.0481863 0)
(0.0085811 0.0494458 0)
(0.00758329 0.0505797 0)
(0.00652575 0.0515759 0)
(0.00541567 0.0524237 0)
(0.00426115 0.0531137 0)
(0.00307087 0.0536383 0)
(0.00185221 0.0539915 0)
(0.000618262 0.0541689 0)
(0.000403279 0.00511832 0)
(0.0012082 0.00516653 0)
(0.00201004 0.00526324 0)
(0.00280748 0.0054091 0)
(0.00359806 0.00560504 0)
(0.00437997 0.00585229 0)
(0.00515147 0.00615234 0)
(0.00591097 0.00650695 0)
(0.00665695 0.00691811 0)
(0.00738801 0.00738801 0)
(0.00810287 0.00791903 0)
(0.00880031 0.00851364 0)
(0.00947918 0.00917443 0)
(0.0101384 0.00990403 0)
(0.0107768 0.010705 0)
(0.0113932 0.0115799 0)
(0.0119864 0.012531 0)
(0.0125551 0.0135605 0)
(0.0130976 0.0146702 0)
(0.0136121 0.0158616 0)
(0.0140967 0.0171355 0)
(0.0145489 0.0184923 0)
(0.014966 0.0199318 0)
(0.015345 0.0214529 0)
(0.0156824 0.0230536 0)
(0.0159743 0.024731 0)
(0.0162167 0.0264813 0)
(0.016405 0.0282995 0)
(0.0165346 0.0301793 0)
(0.0166005 0.0321134 0)
(0.0165979 0.034093 0)
(0.0165217 0.0361083 0)
(0.0163671 0.0381481 0)
(0.0161298 0.0402001 0)
(0.0158056 0.0422507 0)
(0.0153912 0.0442855 0)
(0.0148839 0.0462891 0)
(0.014282 0.0482453 0)
(0.0135848 0.0501376 0)
(0.0127927 0.0519491 0)
(0.0119076 0.0536628 0)
(0.0109327 0.0552621 0)
(0.00987241 0.0567307 0)
(0.00873275 0.0580536 0)
(0.00752102 0.0592163 0)
(0.00624582 0.0602063 0)
(0.00491691 0.0610123 0)
(0.00354479 0.0616252 0)
(0.00213873 0.0620378 0)
(0.000714097 0.0622453 0)
(0.000428826 0.00555376 0)
(0.00128499 0.00560783 0)
(0.00213859 0.00571631 0)
(0.00298863 0.00587995 0)
(0.00383297 0.00609982 0)
(0.00467009 0.00637734 0)
(0.00549857 0.00671423 0)
(0.00631705 0.00711254 0)
(0.00712427 0.00757457 0)
(0.00791903 0.00810287 0)
(0.00870019 0.00870019 0)
(0.00946669 0.00936945 0)
(0.0102174 0.0101137 0)
(0.0109513 0.0109359 0)
(0.0116671 0.0118393 0)
(0.0123637 0.0128267 0)
(0.0130395 0.013901 0)
(0.0136929 0.0150648 0)
(0.0143219 0.0163204 0)
(0.0149244 0.0176694 0)
(0.0154976 0.0191133 0)
(0.0160386 0.0206526 0)
(0.0165439 0.0222872 0)
(0.0170095 0.0240162 0)
(0.017431 0.0258374 0)
(0.0178036 0.027748 0)
(0.0181219 0.0297435 0)
(0.0183803 0.0318186 0)
(0.0185728 0.0339663 0)
(0.018693 0.0361783 0)
(0.0187348 0.0384448 0)
(0.0186917 0.0407545 0)
(0.0185578 0.0430948 0)
(0.0183273 0.0454515 0)
(0.0179949 0.047809 0)
(0.0175562 0.0501506 0)
(0.0170076 0.0524585 0)
(0.0163469 0.0547139 0)
(0.0155727 0.0568976 0)
(0.0146855 0.0589898 0)
(0.013687 0.0609706 0)
(0.012581 0.0628205 0)
(0.0113726 0.0645205 0)
(0.0100689 0.0660526 0)
(0.00867844 0.0674001 0)
(0.00721161 0.0685478 0)
(0.00568006 0.0694826 0)
(0.00409644 0.0701937 0)
(0.0024723 0.0706725 0)
(0.000825681 0.0709133 0)
(0.000457354 0.00596134 0)
(0.00137075 0.00602148 0)
(0.00228216 0.00614213 0)
(0.00319099 0.00632416 0)
(0.00409545 0.0065688 0)
(0.00499438 0.00687767 0)
(0.00588668 0.00725275 0)
(0.00677131 0.00769641 0)
(0.00764728 0.00821128 0)
(0.00851364 0.00880031 0)
(0.00936945 0.00946669 0)
(0.0102138 0.0102138 0)
(0.0110456 0.0110451 0)
(0.011864 0.0119643 0)
(0.0126675 0.0129749 0)
(0.0134549 0.0140805 0)
(0.0142246 0.0152843 0)
(0.0149744 0.0165897 0)
(0.0157022 0.0179991 0)
(0.0164051 0.0195151 0)
(0.0170799 0.0211391 0)
(0.0177228 0.0228723 0)
(0.0183296 0.0247146 0)
(0.0188952 0.0266654 0)
(0.0194142 0.0287225 0)
(0.0198804 0.0308829 0)
(0.0202873 0.033142 0)
(0.0206278 0.0354938 0)
(0.0208943 0.0379307 0)
(0.021079 0.0404434 0)
(0.0211741 0.043021 0)
(0.0211717 0.0456509 0)
(0.0210641 0.0483186 0)
(0.0208439 0.051008 0)
(0.0205047 0.0537013 0)
(0.0200407 0.0563795 0)
(0.0194473 0.0590219 0)
(0.0187212 0.061607 0)
(0.0178606 0.0641122 0)
(0.0168657 0.0665147 0)
(0.0157384 0.0687914 0)
(0.0144826 0.0709194 0)
(0.0131045 0.0728764 0)
(0.0116123 0.0746413 0)
(0.0100162 0.0761945 0)
(0.00832835 0.0775181 0)
(0.00656279 0.0785966 0)
(0.00473472 0.0794173 0)
(0.00285832 0.0799701 0)
(0.000954821 0.080248 0)
(0.000488963 0.00633977 0)
(0.00146578 0.00640617 0)
(0.00244127 0.00653939 0)
(0.0034153 0.00674043 0)
(0.00438648 0.00701068 0)
(0.00535405 0.007352 0)
(0.00631731 0.00776665 0)
(0.00727557 0.00825731 0)
(0.00822817 0.00882703 0)
(0.00917443 0.00947918 0)
(0.0101137 0.0102174 0)
(0.0110451 0.0110456 0)
(0.0119679 0.0119679 0)
(0.0128811 0.0129885 0)
(0.0137833 0.0141114 0)
(0.0146731 0.0153409 0)
(0.0155487 0.0166811 0)
(0.0164076 0.0181354 0)
(0.0172473 0.0197074 0)
(0.0180643 0.0213999 0)
(0.0188548 0.023215 0)
(0.0196141 0.0251542 0)
(0.020337 0.0272179 0)
(0.0210174 0.0294055 0)
(0.0216486 0.0317152 0)
(0.0222231 0.0341437 0)
(0.0227328 0.0366862 0)
(0.0231689 0.0393363 0)
(0.0235223 0.0420858 0)
(0.0237834 0.0449244 0)
(0.0239423 0.04784 0)
(0.0239893 0.0508185 0)
(0.0239149 0.0538437 0)
(0.02371 0.0568973 0)
(0.0233664 0.0599591 0)
(0.0228767 0.0630074 0)
(0.0222351 0.0660185 0)
(0.0214372 0.0689676 0)
(0.0204805 0.0718288 0)
(0.0193647 0.0745755 0)
(0.0180917 0.0771809 0)
(0.016666 0.0796184 0)
(0.0150946 0.0818619 0)
(0.0133869 0.0838867 0)
(0.0115552 0.0856698 0)
(0.00961374 0.0871902 0)
(0.00757926 0.0884297 0)
(0.00546991 0.0893732 0)
(0.00330305 0.0900089 0)
(0.00110362 0.0903286 0)
(0.000523753 0.00668802 0)
(0.00157038 0.00676087 0)
(0.00261643 0.00690707 0)
(0.00366228 0.00712772 0)
(0.00470702 0.00742442 0)
(0.00575034 0.00779926 0)
(0.00679199 0.00825483 0)
(0.00783169 0.00879416 0)
(0.00886914 0.00942072 0)
(0.00990403 0.0101384 0)
(0.0109359 0.0109513 0)
(0.0119643 0.011864 0)
(0.0129885 0.0128811 0)
(0.0140074 0.0140074 0)
(0.01502 0.015248 0)
(0.0160246 0.0166075 0)
(0.0170191 0.0180907 0)
(0.0180008 0.019702 0)
(0.0189667 0.0214455 0)
(0.0199127 0.0233247 0)
(0.0208342 0.0253423 0)
(0.0217257 0.0275003 0)
(0.0225809 0.0297997 0)
(0.0233925 0.0322402 0)
(0.0241523 0.0348202 0)
(0.0248515 0.0375364 0)
(0.02548 0.0403839 0)
(0.0260274 0.0433559 0)
(0.0264823 0.0464435 0)
(0.0268333 0.0496356 0)
(0.0270683 0.0529188 0)
(0.0271754 0.0562774 0)
(0.0271428 0.0596934 0)
(0.0269594 0.0631461 0)
(0.0266149 0.0666129 0)
(0.0261001 0.0700689 0)
(0.0254075 0.0734871 0)
(0.0245315 0.0768392 0)
(0.0234685 0.0800953 0)
(0.0222178 0.0832246 0)
(0.0207812 0.0861962 0)
(0.0191636 0.0889791 0)
(0.0173729 0.0915429 0)
(0.0154202 0.0938588 0)
(0.0133196 0.0958996 0)
(0.0110883 0.0976409 0)
(0.00874579 0.0990613 0)
(0.00631392 0.100143 0)
(0.00381373 0.100872 0)
(0.0012745 0.101239 0)
(0.00056182 0.00700532 0)
(0.00168484 0.00708482 0)
(0.00280812 0.00724437 0)
(0.00393265 0.00748521 0)
(0.00505801 0.00780915 0)
(0.00618446 0.00821855 0)
(0.00731221 0.00871633 0)
(0.00844147 0.00930593 0)
(0.00957238 0.00999128 0)
(0.010705 0.0107768 0)
(0.0118393 0.0116671 0)
(0.0129749 0.0126675 0)
(0.0141114 0.0137833 0)
(0.015248 0.01502 0)
(0.0163833 0.0163833 0)
(0.0175158 0.0178789 0)
(0.0186432 0.0195122 0)
(0.0197625 0.0212885 0)
(0.02087 0.0232127 0)
(0.0219611 0.025289 0)
(0.0230305 0.027521 0)
(0.0240716 0.0299114 0)
(0.0250769 0.0324616 0)
(0.0260379 0.0351719 0)
(0.0269447 0.038041 0)
(0.0277868 0.0410658 0)
(0.0285523 0.0442413 0)
(0.0292285 0.0475605 0)
(0.029802 0.0510138 0)
(0.0302587 0.0545893 0)
(0.0305841 0.0582724 0)
(0.0307639 0.0620457 0)
(0.0307836 0.0658892 0)
(0.0306296 0.0697798 0)
(0.0302892 0.0736921 0)
(0.029751 0.0775977 0)
(0.0290054 0.0814662 0)
(0.0280453 0.0852651 0)
(0.0268659 0.08896 0)
(0.0254656 0.0925156 0)
(0.0238461 0.095896 0)
(0.0220127 0.0990652 0)
(0.0199742 0.101988 0)
(0.0177436 0.104631 0)
(0.0153373 0.106961 0)
(0.0127754 0.108951 0)
(0.0100812 0.110575 0)
(0.00728051 0.111813 0)
(0.00439872 0.112647 0)
(0.00147029 0.113067 0)
(0.000603252 0.00729119 0)
(0.00180942 0.0073775 0)
(0.00301681 0.00755073 0)
(0.00422707 0.0078123 0)
(0.00544036 0.00816421 0)
(0.00665752 0.00860913 0)
(0.00787937 0.00915033 0)
(0.00910664 0.0097917 0)
(0.01034 0.0105377 0)
(0.0115799 0.0113932 0)
(0.0128267 0.0123637 0)
(0.0140805 0.0134549 0)
(0.0153409 0.0146731 0)
(0.0166075 0.0160246 0)
(0.0178789 0.0175158 0)
(0.0191534 0.0191534 0)
(0.0204287 0.0209438 0)
(0.0217013 0.0228932 0)
(0.0229671 0.0250073 0)
(0.024221 0.0272915 0)
(0.0254565 0.02975 0)
(0.0266663 0.0323865 0)
(0.0278414 0.0352032 0)
(0.0289719 0.038201 0)
(0.0300462 0.0413789 0)
(0.0310518 0.0447344 0)
(0.0319747 0.0482625 0)
(0.0327998 0.0519558 0)
(0.0335112 0.0558045 0)
(0.0340919 0.0597958 0)
(0.0345247 0.0639138 0)
(0.0347921 0.0681395 0)
(0.0348769 0.0724507 0)
(0.0347623 0.0768219 0)
(0.0344328 0.0812245 0)
(0.0338743 0.0856265 0)
(0.0330748 0.0899935 0)
(0.0320252 0.0942882 0)
(0.0307191 0.0984715 0)
(0.0291539 0.102503 0)
(0.0273308 0.10634 0)
(0.0252556 0.109943 0)
(0.0229382 0.113268 0)
(0.0203934 0.116279 0)
(0.0176403 0.118936 0)
(0.0147024 0.121206 0)
(0.0116073 0.123061 0)
(0.00838555 0.124474 0)
(0.0050677 0.125428 0)
(0.00169421 0.125907 0)
(0.00064813 0.00754533 0)
(0.00194438 0.0076386 0)
(0.00324292 0.00782582 0)
(0.00454613 0.00810857 0)
(0.00585484 0.0084891 0)
(0.00717058 0.00897038 0)
(0.00849478 0.00955609 0)
(0.00982881 0.0102506 0)
(0.0111739 0.0110588 0)
(0.012531 0.0119864 0)
(0.013901 0.0130395 0)
(0.0152843 0.0142246 0)
(0.0166811 0.0155487 0)
(0.0180907 0.0170191 0)
(0.0195122 0.0186432 0)
(0.0209438 0.0204287 0)
(0.0223829 0.0223829 0)
(0.023826 0.0245133 0)
(0.0252682 0.0268266 0)
(0.0267038 0.0293292 0)
(0.0281255 0.0320266 0)
(0.0295248 0.0349233 0)
(0.0308913 0.0380225 0)
(0.0322136 0.0413259 0)
(0.0334782 0.0448333 0)
(0.0346704 0.0485425 0)
(0.0357737 0.0524488 0)
(0.0367706 0.056545 0)
(0.0376419 0.0608206 0)
(0.0383679 0.0652622 0)
(0.0389278 0.0698529 0)
(0.0393008 0.0745719 0)
(0.039466 0.0793948 0)
(0.0394034 0.0842934 0)
(0.0390938 0.0892358 0)
(0.03852 0.094186 0)
(0.0376671 0.0991051 0)
(0.0365234 0.103951 0)
(0.0350805 0.108678 0)
(0.0333344 0.113241 0)
(0.0312859 0.11759 0)
(0.0289408 0.121679 0)
(0.0263102 0.125458 0)
(0.0234109 0.128883 0)
(0.0202652 0.131909 0)
(0.0169005 0.134497 0)
(0.0133491 0.136612 0)
(0.00964736 0.138225 0)
(0.00583183 0.139314 0)
(0.00195003 0.139861 0)
(0.000696521 0.00776767 0)
(0.00208991 0.00786802 0)
(0.00348679 0.00806947 0)
(0.00489034 0.00837378 0)
(0.00630216 0.00878345 0)
(0.00772451 0.00930179 0)
(0.00915957 0.00993291 0)
(0.0106094 0.0106817 0)
(0.0120758 0.0115536 0)
(0.0135605 0.0125551 0)
(0.0150648 0.0136929 0)
(0.0165897 0.0149744 0)
(0.0181354 0.0164076 0)
(0.019702 0.0180008 0)
(0.0212885 0.0197625 0)
(0.0228932 0.0217013 0)
(0.0245133 0.023826 0)
(0.026145 0.026145 0)
(0.0277831 0.0286665 0)
(0.029421 0.0313981 0)
(0.0310506 0.0343465 0)
(0.0326622 0.0375174 0)
(0.034244 0.0409153 0)
(0.0357826 0.0445428 0)
(0.0372628 0.0484006 0)
(0.0386674 0.0524874 0)
(0.0399772 0.0567988 0)
(0.0411716 0.0613278 0)
(0.0422284 0.0660638 0)
(0.0431241 0.0709927 0)
(0.0438343 0.0760965 0)
(0.044334 0.0813528 0)
(0.0445985 0.0867352 0)
(0.0446033 0.0922125 0)
(0.0443254 0.097749 0)
(0.0437436 0.103305 0)
(0.0428396 0.108836 0)
(0.0415984 0.114294 0)
(0.0400091 0.119628 0)
(0.038066 0.124785 0)
(0.0357689 0.129709 0)
(0.0331234 0.134344 0)
(0.0301421 0.138635 0)
(0.0268439 0.142527 0)
(0.0232543 0.145971 0)
(0.0194056 0.148919 0)
(0.0153356 0.15133 0)
(0.0110872 0.15317 0)
(0.00670405 0.154412 0)
(0.00224209 0.155037 0)
(0.000748475 0.00795832 0)
(0.00224618 0.00806582 0)
(0.00374868 0.00828167 0)
(0.00526011 0.0086078 0)
(0.00678285 0.00904699 0)
(0.00832004 0.00960291 0)
(0.00987465 0.0102801 0)
(0.0114495 0.011084 0)
(0.0130473 0.0120208 0)
(0.0146702 0.0130976 0)
(0.0163204 0.0143219 0)
(0.0179991 0.0157022 0)
(0.0197074 0.0172473 0)
(0.0214455 0.0189667 0)
(0.0232127 0.02087 0)
(0.0250073 0.0229671 0)
(0.0268266 0.0252682 0)
(0.0286665 0.0277831 0)
(0.0305213 0.0305213 0)
(0.0323838 0.0334919 0)
(0.0342449 0.0367032 0)
(0.0360936 0.0401622 0)
(0.0379167 0.0438748 0)
(0.0396989 0.047845 0)
(0.0414228 0.0520747 0)
(0.0430685 0.0565633 0)
(0.0446141 0.0613075 0)
(0.0460355 0.0663004 0)
(0.0473068 0.0715318 0)
(0.0484006 0.076987 0)
(0.049288 0.0826471 0)
(0.0499396 0.0884883 0)
(0.0503257 0.0944817 0)
(0.0504171 0.100593 0)
(0.0501861 0.106784 0)
(0.0496067 0.113008 0)
(0.0486563 0.119217 0)
(0.0473159 0.125357 0)
(0.0455716 0.131368 0)
(0.0434151 0.13719 0)
(0.0408449 0.142759 0)
(0.0378665 0.14801 0)
(0.0344934 0.152878 0)
(0.0307469 0.1573 0)
(0.0266565 0.161217 0)
(0.0222595 0.164574 0)
(0.0176003 0.167322 0)
(0.0127295 0.16942 0)
(0.00769937 0.170838 0)
(0.00257545 0.171552 0)
(0.000804023 0.00811752 0)
(0.00241326 0.00823221 0)
(0.00402876 0.00846254 0)
(0.00565566 0.00881062 0)
(0.00729727 0.00927953 0)
(0.00895764 0.00987332 0)
(0.0106407 0.010597 0)
(0.0123501 0.0114567 0)
(0.0140894 0.0124591 0)
(0.0158616 0.0136121 0)
(0.0176694 0.0149244 0)
(0.0195151 0.0164051 0)
(0.0213999 0.0180643 0)
(0.0233247 0.0199127 0)
(0.025289 0.0219611 0)
(0.0272915 0.024221 0)
(0.0293292 0.0267038 0)
(0.0313981 0.029421 0)
(0.0334919 0.0323838 0)
(0.0356029 0.0356029 0)
(0.0377209 0.0390882 0)
(0.0398338 0.0428487 0)
(0.0419267 0.0468917 0)
(0.0439825 0.0512228 0)
(0.0459811 0.0558456 0)
(0.0479002 0.0607607 0)
(0.0497143 0.0659658 0)
(0.051396 0.0714549 0)
(0.052915 0.077218 0)
(0.0542394 0.0832404 0)
(0.0553355 0.0895025 0)
(0.0561686 0.095979 0)
(0.0567034 0.102639 0)
(0.0569052 0.109445 0)
(0.0567403 0.116355 0)
(0.0561773 0.123318 0)
(0.0551882 0.130278 0)
(0.0537494 0.137176 0)
(0.0518427 0.143944 0)
(0.0494569 0.150511 0)
(0.0465884 0.156805 0)
(0.0432421 0.16275 0)
(0.0394323 0.168271 0)
(0.035183 0.173294 0)
(0.0305279 0.177749 0)
(0.0255103 0.181572 0)
(0.0201822 0.184704 0)
(0.014603 0.187098 0)
(0.00883527 0.188715 0)
(0.00295597 0.189531 0)
(0.000863171 0.00824562 0)
(0.00259119 0.00836749 0)
(0.00432709 0.00861227 0)
(0.0060771 0.00898228 0)
(0.00784555 0.0094809 0)
(0.00963754 0.0101126 0)
(0.011458 0.0108829 0)
(0.0133116 0.0117984 0)
(0.0152028 0.0128668 0)
(0.0171355 0.0140967 0)
(0.0191133 0.0154976 0)
(0.0211391 0.0170799 0)
(0.023215 0.0188548 0)
(0.0253423 0.0208342 0)
(0.027521 0.0230305 0)
(0.02975 0.0254565 0)
(0.0320266 0.0281255 0)
(0.0343465 0.0310506 0)
(0.0367032 0.0342449 0)
(0.0390882 0.0377209 0)
(0.0414907 0.0414907 0)
(0.043897 0.045565 0)
(0.0462908 0.0499533 0)
(0.0486529 0.0546631 0)
(0.0509607 0.0596998 0)
(0.0531887 0.0650658 0)
(0.0553083 0.0707602 0)
(0.0572878 0.0767782 0)
(0.0590924 0.0831105 0)
(0.060685 0.0897426 0)
(0.0620265 0.0966546 0)
(0.063076 0.10382 0)
(0.063792 0.111206 0)
(0.0641329 0.118772 0)
(0.0640584 0.126472 0)
(0.0635305 0.134249 0)
(0.0625145 0.142043 0)
(0.0609811 0.149784 0)
(0.058907 0.157397 0)
(0.0562767 0.164801 0)
(0.0530839 0.171911 0)
(0.0493325 0.17864 0)
(0.0450374 0.184901 0)
(0.040225 0.190607 0)
(0.0349339 0.195675 0)
(0.0292141 0.200029 0)
(0.0231265 0.203601 0)
(0.0167411 0.206333 0)
(0.0101322 0.208181 0)
(0.00339054 0.209112 0)
(0.000925897 0.00834306 0)
(0.00277991 0.00847204 0)
(0.00464355 0.00873112 0)
(0.0065243 0.00912286 0)
(0.00842758 0.00965094 0)
(0.0103596 0.0103203 0)
(0.0123265 0.0111369 0)
(0.014334 0.0121081 0)
(0.0163876 0.0132423 0)
(0.0184923 0.0145489 0)
(0.0206526 0.0160386 0)
(0.0228723 0.0177228 0)
(0.0251542 0.0196141 0)
(0.0275003 0.0217257 0)
(0.0299114 0.0240716 0)
(0.0323865 0.0266663 0)
(0.0349233 0.0295248 0)
(0.0375174 0.0326622 0)
(0.0401622 0.0360936 0)
(0.0428487 0.0398338 0)
(0.045565 0.043897 0)
(0.0482964 0.0482964 0)
(0.0510249 0.0530437 0)
(0.053729 0.0581489 0)
(0.0563838 0.0636195 0)
(0.0589606 0.0694602 0)
(0.0614267 0.075672 0)
(0.0637462 0.0822516 0)
(0.0658794 0.0891912 0)
(0.0677835 0.0964768 0)
(0.0694129 0.104089 0)
(0.07072 0.111999 0)
(0.0716557 0.120175 0)
(0.072171 0.128571 0)
(0.0722174 0.137138 0)
(0.0717488 0.145814 0)
(0.0707229 0.15453 0)
(0.069103 0.16321 0)
(0.0668592 0.171767 0)
(0.063971 0.18011 0)
(0.060428 0.18814 0)
(0.0562323 0.195757 0)
(0.0513989 0.202857 0)
(0.045957 0.209341 0)
(0.0399502 0.215109 0)
(0.0334363 0.220072 0)
(0.0264862 0.224149 0)
(0.0191827 0.227269 0)
(0.011614 0.229381 0)
(0.00388722 0.230446 0)
(0.00099215 0.00841032 0)
(0.00297925 0.00854626 0)
(0.00497791 0.00881938 0)
(0.00699692 0.00923244 0)
(0.00904295 0.00978946 0)
(0.0111235 0.0104958 0)
(0.0132458 0.011358 0)
(0.015417 0.0123841 0)
(0.0176436 0.0135833 0)
(0.0199318 0.014966 0)
(0.0222872 0.0165439 0)
(0.0247146 0.0183296 0)
(0.0272179 0.020337 0)
(0.0297997 0.0225809 0)
(0.0324616 0.0250769 0)
(0.0352032 0.0278414 0)
(0.0380225 0.0308913 0)
(0.0409153 0.034244 0)
(0.0438748 0.0379167 0)
(0.0468917 0.0419267 0)
(0.0499533 0.0462908 0)
(0.0530437 0.0510249 0)
(0.0561434 0.0561434 0)
(0.0592287 0.061659 0)
(0.062272 0.0675822 0)
(0.0652412 0.0739202 0)
(0.0680998 0.0806765 0)
(0.0708069 0.0878502 0)
(0.0733175 0.0954351 0)
(0.0755824 0.103419 0)
(0.0775491 0.111782 0)
(0.0791619 0.120497 0)
(0.0803637 0.129528 0)
(0.081096 0.13883 0)
(0.081301 0.148347 0)
(0.0809232 0.158013 0)
(0.0799108 0.167751 0)
(0.0782178 0.177476 0)
(0.0758066 0.187089 0)
(0.0726494 0.196486 0)
(0.068731 0.205555 0)
(0.0640501 0.214177 0)
(0.0586216 0.222233 0)
(0.0524769 0.229605 0)
(0.0456653 0.236175 0)
(0.0382532 0.241837 0)
(0.0303237 0.246494 0)
(0.0219738 0.250063 0)
(0.0133089 0.25248 0)
(0.00445551 0.2537 0)
(0.00106184 0.00844789 0)
(0.00318897 0.00859059 0)
(0.00532973 0.00887731 0)
(0.00749438 0.00931107 0)
(0.00969092 0.00989621 0)
(0.0119282 0.0106385 0)
(0.0142149 0.0115452 0)
(0.0165594 0.012625 0)
(0.0189695 0.0138877 0)
(0.0214529 0.015345 0)
(0.0240162 0.0170095 0)
(0.0266654 0.0188952 0)
(0.0294055 0.0210174 0)
(0.0322402 0.0233925 0)
(0.0351719 0.0260379 0)
(0.038201 0.0289719 0)
(0.0413259 0.0322136 0)
(0.0445428 0.0357826 0)
(0.047845 0.0396989 0)
(0.0512228 0.0439825 0)
(0.0546631 0.0486529 0)
(0.0581489 0.053729 0)
(0.061659 0.0592287 0)
(0.0651679 0.0651679 0)
(0.068645 0.0715602 0)
(0.0720548 0.0784162 0)
(0.0753568 0.0857427 0)
(0.0785049 0.0935417 0)
(0.081448 0.10181 0)
(0.0841303 0.110536 0)
(0.0864911 0.119703 0)
(0.0884663 0.129283 0)
(0.0899887 0.139241 0)
(0.0909896 0.149527 0)
(0.0914002 0.160084 0)
(0.0911533 0.170839 0)
(0.0901858 0.181709 0)
(0.0884406 0.192596 0)
(0.0858697 0.20339 0)