/*--------------------------------*- C++ -*----------------------------------*\
| =========                 |                                                 |
| \\      /  F ield         | OpenFOAM: The Open Source CFD Toolbox           |
|  \\    /   O peration     | Version:  2406                                  |
|   \\  /    A nd           | Website:  www.openfoam.com                      |
|    \\/     M anipulation  |                                                 |
\*---------------------------------------------------------------------------*/
FoamFile
{
    version     2.0;
    format      ascii;
    arch        "LSB;label=32;scalar=64";
    class       volScalarField;
    location    "1.1";
    object      gradTx;
}
// * * * * * * * * * * * * * * * * * * * * * * * * * * * * * * * * * * * * * //

dimensions      [0 -1 0 1 0 0 0];

internalField   nonuniform List<scalar> 
2500
(
0.0029327
0.00877507
0.0145668
0.0202814
0.0258816
0.0313374
0.0366205
0.0417047
0.046566
0.0511832
0.0555376
0.0596134
0.0633977
0.0668802
0.0700532
0.0729119
0.0754533
0.0776767
0.0795832
0.0811752
0.0824562
0.0834306
0.0841032
0.0844789
0.0845628
0.0843592
0.0838723
0.0831055
0.0820616
0.0807428
0.0791506
0.0772861
0.0751503
0.0727439
0.0700682
0.067125
0.0639171
0.0604485
0.056725
0.0527541
0.0485456
0.0441117
0.0394668
0.034628
0.0296149
0.0244491
0.0191543
0.0137557
0.00828075
0.00276391
0.00295589
0.00884556
0.0146852
0.0204479
0.0260972
0.0316033
0.036938
0.0420753
0.0469914
0.0516653
0.0560783
0.0602148
0.0640617
0.0676087
0.0708482
0.073775
0.076386
0.0786802
0.0806582
0.0823221
0.0836749
0.0847204
0.0854626
0.0859059
0.0860543
0.0859115
0.0854807
0.0847644
0.0837644
0.0824819
0.0809174
0.0790711
0.076943
0.0745332
0.0718421
0.0688709
0.0656218
0.0620987
0.0583071
0.0542545
0.0499511
0.0454092
0.0406442
0.035674
0.0305193
0.025203
0.0197502
0.0141864
0.00853338
0.00284346
0.00300319
0.00898753
0.0149224
0.0207818
0.0265296
0.0321364
0.0375746
0.0428185
0.0478447
0.0526324
0.0571631
0.0614213
0.0653939
0.0690707
0.0724437
0.0755073
0.0782582
0.0806947
0.0828167
0.0846254
0.0861227
0.0873112
0.0881938
0.0887731
0.0890518
0.0890317
0.0887142
0.0880999
0.0871886
0.0859796
0.0844714
0.0826623
0.0805505
0.0781343
0.0754127
0.0723856
0.0690544
0.0654219
0.0614935
0.0572769
0.0527824
0.0480234
0.0430167
0.0377818
0.0323416
0.026722
0.0209515
0.0150592
0.00906209
0.00301893
0.00307432
0.00920123
0.0152799
0.0212849
0.0271812
0.03294
0.0385344
0.0439392
0.0491316
0.054091
0.0587995
0.0632416
0.0674043
0.0712772
0.0748521
0.078123
0.0810857
0.0837378
0.086078
0.0881062
0.0898228
0.0912286
0.0923244
0.0931107
0.0935876
0.0937544
0.0936097
0.0931512
0.0923757
0.0912794
0.089858
0.0881067
0.0860209
0.0835965
0.08083
0.0777194
0.0742645
0.0704672
0.0663322
0.0618672
0.0570833
0.0519952
0.0466216
0.0409847
0.0351108
0.0290294
0.0227736
0.016377
0.00985927
0.00328539
0.00316972
0.00948792
0.0157595
0.0219602
0.0280559
0.0340189
0.039823
0.0454441
0.0508599
0.0560504
0.0609982
0.065688
0.0701068
0.0742442
0.0780915
0.0816421
0.084891
0.0878345
0.0904699
0.0927953
0.094809
0.0965094
0.0978946
0.0989621
0.0997086
0.10013
0.100221
0.0999754
0.099386
0.0984448
0.0971433
0.0954729
0.093425
0.090992
0.0881673
0.084946
0.0813258
0.0773072
0.072894
0.0680939
0.0629189
0.0573855
0.0515149
0.045333
0.0388704
0.0321618
0.0252462
0.0181634
0.0109392
0.00364658
0.00328992
0.00984918
0.0163639
0.0228113
0.0291585
0.035379
0.041448
0.0473421
0.0530401
0.0585229
0.0637734
0.0687767
0.07352
0.0779926
0.0821855
0.0860913
0.0897038
0.0930179
0.0960291
0.0987332
0.101126
0.103203
0.104958
0.106385
0.107477
0.108226
0.10862
0.108649
0.1083
0.107561
0.106416
0.104853
0.102858
0.100418
0.0975235
0.0941651
0.0903378
0.0860402
0.0812749
0.0760496
0.0703774
0.0642768
0.0577725
0.0508948
0.0436799
0.0361693
0.0284094
0.0204483
0.0123202
0.00410843
0.00343556
0.0102869
0.0170962
0.0238427
0.0304949
0.0370279
0.0434183
0.0496441
0.0556852
0.0615234
0.0671423
0.0725275
0.0776665
0.0825483
0.0871633
0.0915033
0.0955609
0.0993291
0.102801
0.10597
0.108829
0.111369
0.11358
0.115452
0.116972
0.118126
0.118897
0.119268
0.119221
0.118734
0.117789
0.116364
0.11444
0.111999
0.109024
0.105503
0.101426
0.0967907
0.0915968
0.0858521
0.0795709
0.0727743
0.0654911
0.057757
0.0496153
0.0411158
0.032314
0.0232688
0.0140249
0.00467855
0.00360736
0.0108032
0.0179603
0.0250597
0.0320721
0.0389743
0.0457447
0.0523629
0.0588102
0.0650695
0.0711254
0.0769641
0.0825731
0.0879416
0.0930593
0.097917
0.102506
0.106817
0.11084
0.114567
0.117984
0.121081
0.123841
0.12625
0.128286
0.129931
0.13116
0.131948
0.132269
0.132094
0.131396
0.130146
0.128317
0.125882
0.12282
0.119113
0.114746
0.109711
0.104009
0.0976457
0.090637
0.0830072
0.0747896
0.0660268
0.0567703
0.04708
0.0370229
0.0266707
0.0160811
0.00536622
0.00380614
0.0114007
0.0189602
0.0264683
0.0338978
0.041228
0.0484391
0.0555128
0.062432
0.0691811
0.0757457
0.0821128
0.0882703
0.0942072
0.0999128
0.105377
0.110588
0.115536
0.120208
0.124591
0.128668
0.132423
0.135833
0.138877
0.141529
0.143758
0.145535
0.146823
0.147589
0.147793
0.147398
0.146366
0.14466
0.142247
0.139094
0.135178
0.130478
0.124983
0.118689
0.111603
0.103741
0.0951304
0.085811
0.0758329
0.0652575
0.0541567
0.0426115
0.0307087
0.0185221
0.00618262
0.00403279
0.012082
0.0201004
0.0280748
0.0359806
0.0437997
0.0515147
0.0591097
0.0665695
0.0738801
0.0810287
0.0880031
0.0947918
0.101384
0.107768
0.113932
0.119864
0.125551
0.130976
0.136121
0.140967
0.145489
0.14966
0.15345
0.156824
0.159743
0.162167
0.16405
0.165346
0.166005
0.165979
0.165217
0.163671
0.161298
0.158056
0.153912
0.148839
0.14282
0.135848
0.127927
0.119076
0.109327
0.0987241
0.0873275
0.0752102
0.0624582
0.0491691
0.0354479
0.0213873
0.00714097
0.00428826
0.0128499
0.0213859
0.0298863
0.0383297
0.0467009
0.0549857
0.0631705
0.0712427
0.0791903
0.0870019
0.0946669
0.102174
0.109513
0.116671
0.123637
0.130395
0.136929
0.143219
0.149244
0.154976
0.160386
0.165439
0.170095
0.17431
0.178036
0.181219
0.183803
0.185728
0.18693
0.187348
0.186917
0.185578
0.183273
0.179949
0.175562
0.170076
0.163469
0.155727
0.146855
0.13687
0.12581
0.113726
0.100689
0.0867844
0.0721161
0.0568006
0.0409644
0.024723
0.00825681
0.00457354
0.0137075
0.0228216
0.0319099
0.0409545
0.0499438
0.0588668
0.0677131
0.0764728
0.0851364
0.0936945
0.102138
0.110456
0.11864
0.126675
0.134549
0.142246
0.149744
0.157022
0.164051
0.170799
0.177228
0.183296
0.188952
0.194142
0.198804
0.202873
0.206278
0.208943
0.21079
0.211741
0.211717
0.210641
0.208439
0.205047
0.200407
0.194473
0.187212
0.178606
0.168657
0.157384
0.144826
0.131045
0.116123
0.100162
0.0832835
0.0656279
0.0473472
0.0285832
0.00954821
0.00488963
0.0146578
0.0244127
0.034153
0.0438648
0.0535405
0.0631731
0.0727557
0.0822817
0.0917443
0.101137
0.110451
0.119679
0.128811
0.137833
0.146731
0.155487
0.164076
0.172473
0.180643
0.188548
0.196141
0.20337
0.210174
0.216486
0.222231
0.227328
0.231689
0.235223
0.237834
0.239423
0.239893
0.239149
0.2371
0.233664
0.228767
0.222351
0.214372
0.204805
0.193647
0.180917
0.16666
0.150946
0.133869
0.115552
0.0961374
0.0757926
0.0546991
0.0330305
0.0110362
0.00523753
0.0157038
0.0261643
0.0366228
0.0470702
0.0575034
0.0679199
0.0783169
0.0886914
0.0990403
0.109359
0.119643
0.129885
0.140074
0.1502
0.160246
0.170191
0.180008
0.189667
0.199127
0.208342
0.217257
0.225809
0.233925
0.241523
0.248515
0.2548
0.260274
0.264823
0.268333
0.270683
0.271754
0.271428
0.269594
0.266149
0.261001
0.254075
0.245315
0.234685
0.222178
0.207812
0.191636
0.173729
0.154202
0.133196
0.110883
0.0874579
0.0631392
0.0381373
0.012745
0.0056182
0.0168484
0.0280812
0.0393265
0.0505801
0.0618446
0.0731221
0.0844147
0.0957238
0.10705
0.118393
0.129749
0.141114
0.15248
0.163833
0.175158
0.186432
0.197625
0.2087
0.219611
0.230305
0.240716
0.250769
0.260379
0.269447
0.277868
0.285523
0.292285
0.29802
0.302587
0.305841
0.307639
0.307836
0.306296
0.302892
0.29751
0.290054
0.280453
0.268659
0.254656
0.238461
0.220127
0.199742
0.177436
0.153373
0.127754
0.100812
0.0728051
0.0439872
0.0147029
0.00603252
0.0180942
0.0301681
0.0422707
0.0544036
0.0665752
0.0787937
0.0910664
0.1034
0.115799
0.128267
0.140805
0.153409
0.166075
0.178789
0.191534
0.204287
0.217013
0.229671
0.24221
0.254565
0.266663
0.278414
0.289719
0.300462
0.310518
0.319747
0.327998
0.335112
0.340919
0.345247
0.347921
0.348769
0.347623
0.344328
0.338743
0.330748
0.320252
0.307191
0.291539
0.273308
0.252556
0.229382
0.203934
0.176403
0.147024
0.116073
0.0838555
0.050677
0.0169421
0.0064813
0.0194438
0.0324292
0.0454613
0.0585484
0.0717058
0.0849478
0.0982881
0.111739
0.12531
0.13901
0.152843
0.166811
0.180907
0.195122
0.209438
0.223829
0.23826
0.252682
0.267038
0.281255
0.295248
0.308913
0.322136
0.334782
0.346704
0.357737
0.367706
0.376419
0.383679
0.389278
0.393008
0.39466
0.394034
0.390938
0.3852
0.376671
0.365234
0.350805
0.333344
0.312859
0.289408
0.263102
0.234109
0.202652
0.169005
0.133491
0.0964736
0.0583183
0.0195003
0.00696521
0.0208991
0.0348679
0.0489034
0.0630216
0.0772451
0.0915957
0.106094
0.120758
0.135605
0.150648
0.165897
0.181354
0.19702
0.212885
0.228932
0.245133
0.26145
0.277831
0.29421
0.310506
0.326622
0.34244
0.357826
0.372628
0.386674
0.399772
0.411716
0.422284
0.431241
0.438343
0.44334
0.445985
0.446033
0.443254
0.437436
0.428396
0.415984
0.400091
0.38066
0.357689
0.331234
0.301421
0.268439
0.232543
0.194056
0.153356
0.110872
0.0670405
0.0224209
0.00748475
0.0224618
0.0374868
0.0526011
0.0678285
0.0832004
0.0987465
0.114495
0.130473
0.146702
0.163204
0.179991
0.197074
0.214455
0.232127
0.250073
0.268266
0.286665
0.305213
0.323838
0.342449
0.360936
0.379167
0.396989
0.414228
0.430685
0.446141
0.460355
0.473068
0.484006
0.49288
0.499396
0.503257
0.504171
0.501861
0.496067
0.486563
0.473159
0.455716
0.434151
0.408449
0.378665
0.344934
0.307469
0.266565
0.222595
0.176003
0.127295
0.0769937
0.0257545
0.00804023
0.0241326
0.0402876
0.0565566
0.0729727
0.0895764
0.106407
0.123501
0.140894
0.158616
0.176694
0.195151
0.213999
0.233247
0.25289
0.272915
0.293292
0.313981
0.334919
0.356029
0.377209
0.398338
0.419267
0.439825
0.459811
0.479002
0.497143
0.51396
0.52915
0.542394
0.553355
0.561686
0.567034
0.569052
0.567403
0.561773
0.551882
0.537494
0.518427
0.494569
0.465884
0.432421
0.394323
0.35183
0.305279
0.255103
0.201822
0.14603
0.0883527
0.0295597
0.00863171
0.0259119
0.0432709
0.060771
0.0784555
0.0963754
0.11458
0.133116
0.152028
0.171355
0.191133
0.211391
0.23215
0.253423
0.27521
0.2975
0.320266
0.343465
0.367032
0.390882
0.414907
0.43897
0.462908
0.486529
0.509607
0.531887
0.553083
0.572878
0.590924
0.60685
0.620265
0.63076
0.63792
0.641329
0.640584
0.635305
0.625145
0.609811
0.58907
0.562767
0.530839
0.493325
0.450374
0.40225
0.349339
0.292141
0.231265
0.167411
0.101322
0.0339054
0.00925897
0.0277991
0.0464355
0.065243
0.0842758
0.103596
0.123265
0.14334
0.163876
0.184923
0.206526
0.228723
0.251542
0.275003
0.299114
0.323865
0.349233
0.375174
0.401622
0.428487
0.45565
0.482964
0.510249
0.53729
0.563838
0.589606
0.614267
0.637462
0.658794
0.677835
0.694129
0.7072
0.716557
0.72171
0.722174
0.717488
0.707229
0.69103
0.668592
0.63971
0.60428
0.562323
0.513989
0.45957
0.399502
0.334363
0.264862
0.191827
0.11614
0.0388722
0.0099215
0.0297925
0.0497791
0.0699692
0.0904295
0.111235
0.132458
0.15417
0.176436
0.199318
0.222872
0.247146
0.272179
0.297997
0.324616
0.352032
0.380225
0.409153
0.438748
0.468917
0.499533
0.530437
0.561434
0.592287
0.62272
0.652412
0.680998
0.708069
0.733175
0.755824
0.775491
0.791619
0.803637
0.81096
0.81301
0.809232
0.799108
0.782178
0.758066
0.726494
0.68731
0.640501
0.586216
0.524769
0.456653
0.382532
0.303237
0.219738
0.133089
0.0445551
0.0106184
0.0318897
0.0532973
0.0749438
0.0969092
0.119282
0.142149
0.165594
0.189695
0.214529
0.240162
0.266654
0.294055
0.322402
0.351719
0.38201
0.413259
0.445428
0.47845
0.512228
0.546631
0.581489
0.61659
0.651679
0.68645
0.720548
0.753568
0.785049
0.81448
0.841303
0.864911
0.884663
0.899887
0.909896
0.914002
0.911533
0.901858
0.884406
0.858697
0.824366
0.78119
0.729112
0.668266
0.598987
0.521828
0.43755
0.347122
0.251688
0.152504
0.0510668
0.0113485
0.0340867
0.0569838
0.0801582
0.103704
0.127725
0.152323
0.177595
0.203637
0.230536
0.258374
0.287225
0.317152
0.348202
0.38041
0.413789
0.448333
0.484006
0.520747
0.558456
0.596998
0.636195
0.675822
0.715602
0.755203
0.794237
0.832253
0.868738
0.903118
0.934757
0.962964
0.986998
1.00608
1.01939
1.02613
1.02548
1.01667
0.998995
0.971846
0.934742
0.887368
0.829602
0.761549
0.68356
0.596245
0.500478
0.397388
0.288323
0.174781
0.0585418
0.01211
0.0363787
0.0608305
0.0856006
0.110799
0.136546
0.162958
0.19015
0.218233
0.24731
0.27748
0.308829
0.341437
0.375364
0.410658
0.447344
0.485425
0.524874
0.565633
0.607607
0.650658
0.694602
0.739202
0.784162
0.829127
0.873672
0.917304
0.959453
0.999479
1.03667
1.07023
1.09931
1.12301
1.14038
1.15045
1.15225
1.14485
1.12738
1.09905
1.05924
1.00751
0.943651
0.867715
0.780056
0.681346
0.57258
0.455072
0.330416
0.200399
0.0671411
0.0129008
0.0387592
0.0648267
0.0912565
0.118175
0.145721
0.174027
0.203228
0.233449
0.264813
0.297435
0.33142
0.366862
0.403839
0.442413
0.482625
0.524488
0.567988
0.613075
0.659658
0.707602
0.75672
0.806765
0.857427
0.908328
0.959009
1.00893
1.05748
1.10393
1.14749
1.18726
1.22228
1.2515
1.27382
1.28809
1.29314
1.28786
1.27114
1.24203
1.19969
1.14353
1.07321
0.988695
0.890331
0.778844
0.655365
0.521421
0.378897
0.229932
0.0770593
0.0137184
0.0412206
0.0689595
0.0971075
0.125809
0.155221
0.185497
0.216788
0.24924
0.282995
0.318186
0.354938
0.393363
0.433559
0.475605
0.519558
0.56545
0.613278
0.663004
0.714549
0.767782
0.822516
0.878502
0.935417
0.992863
1.05035
1.10731
1.16305
1.21679
1.26765
1.31462
1.35661
1.3924
1.42072
1.44023
1.44953
1.44725
1.43206
1.40274
1.35821
1.29765
1.22055
1.12676
1.01658
0.890787
0.750648
0.59794
0.434893
0.264078
0.0885332
0.0145598
0.0437536
0.0732134
0.103132
0.133673
0.165013
0.197326
0.230783
0.265551
0.301793
0.339663
0.379307
0.420858
0.464435
0.510138
0.558045
0.608206
0.660638
0.715318
0.77218
0.831105
0.891912
0.954351
1.0181
1.08273
1.14775
1.21253
1.27634
1.33834
1.39753
1.45281
1.50293
1.54653
1.58212
1.60812
1.62289
1.62476
1.61211
1.58337
1.53718
1.47242
1.38834
1.28461
1.16144
1.01964
0.860623
0.686456
0.499782
0.303693
0.101853
0.0154212
0.0463476
0.0775707
0.109305
0.141734
0.175056
0.209466
0.245156
0.282317
0.321134
0.361783
0.404434
0.449244
0.496356
0.545893
0.597958
0.652622
0.709927
0.76987
0.832404
0.897426
0.964768
1.03419
1.10536
1.17786
1.25116
1.32462
1.39746
1.46875
1.53743
1.60226
1.66187
1.71469
1.75903
1.79304
1.81478
1.82225
1.81343
1.78638
1.73935
1.67082
1.57971
1.46543
1.32806
1.16838
0.987969
0.789215
0.575256
0.349832
0.117376
0.0162988
0.0489904
0.082011
0.115597
0.149955
0.185303
0.22186
0.259842
0.299462
0.34093
0.384448
0.43021
0.4784
0.529188
0.582724
0.639138
0.698529
0.760965
0.826471
0.895025
0.966546
1.04089
1.11782
1.19703
1.27809
1.36048
1.44352
1.52639
1.60811
1.68754
1.76333
1.83394
1.89763
1.95246
1.99628
2.02683
2.04169
2.0384
2.01454
1.96783
1.89627
1.79833
1.67304
1.52024
1.34064
1.13597
0.908983
0.663417
0.403805
0.135549
0.017188
0.0516684
0.0865113
0.121977
0.158293
0.195701
0.234446
0.274766
0.3169
0.361083
0.407545
0.456509
0.508185
0.562774
0.620457
0.681395
0.745719
0.813528
0.884883
0.95979
1.0382
1.11999
1.20497
1.29283
1.38318
1.47546
1.56902
1.663
1.75639
1.84795
1.93624
2.01957
2.096
2.16333
2.21912
2.26069
2.28518
2.28959
2.27089
2.22617
2.15278
2.04856
1.91201
1.74259
1.54088
1.30869
1.04921
0.766891
0.467259
0.156932
0.0180838
0.0543666
0.0910465
0.128408
0.166701
0.206194
0.247153
0.289844
0.334533
0.381481
0.430948
0.483186
0.538437
0.596934
0.658892
0.724507
0.793948
0.867352
0.944817
1.02639
1.11206
1.20175
1.29528
1.39241
1.49274
1.59576
1.70081
1.80703
1.91338
2.01856
2.12103
2.21898
2.31027
2.39245
2.46273
2.51801
2.55489
2.56975
2.55883
2.5184
2.44497
2.33553
2.18783
2.00077
1.77459
1.5112
1.21423
0.888996
0.542277
0.182235
0.0189808
0.0570687
0.0955892
0.134851
0.17513
0.216716
0.259904
0.304986
0.352254
0.402001
0.454515
0.51008
0.568973
0.631461
0.697798
0.768219
0.842934
0.922125
1.00593
1.09445
1.18772
1.28571
1.3883
1.49527
1.6063
1.72089
1.83841
1.95803
2.07868
2.19906
2.31754
2.43221
2.54074
2.64043
2.72815
2.80034
2.853
2.88178
2.88204
2.84905
2.7782
2.66533
2.50716
2.30168
2.04865
1.74989
1.40953
1.03395
0.631516
0.212366
0.0198731
0.059757
0.10011
0.141265
0.183523
0.2272
0.272617
0.320092
0.369948
0.422507
0.47809
0.537013
0.599591
0.666129
0.736921
0.812245
0.892358
0.97749
1.06784
1.16355
1.26472
1.37138
1.48347
1.60084
1.72322
1.85019
1.98116
2.11533
2.25168
2.3889
2.52533
2.65897
2.78737
2.90759
3.01615
3.10903
3.18158
3.22862
3.24448
3.22316
3.15862
3.04519
2.87806
2.65393
2.37167
2.03285
1.64212
1.20718
0.738399
0.248495
0.0207547
0.0624132
0.104577
0.147606
0.191823
0.237573
0.285201
0.335057
0.38749
0.442855
0.501506
0.563795
0.630074
0.700689
0.775977
0.856265
0.94186
1.03305
1.13008
1.23318
1.34249
1.45814
1.58013
1.70839
1.84274
1.98284
2.12819
2.27806
2.43149
2.58722
2.74363
2.89865
3.04977
3.19385
3.32713
3.4451
3.54248
3.61316
3.65026
3.64626
3.59331
3.48366
3.31037
3.0682
2.75458
2.37049
1.92109
1.41571
0.867365
0.292137
0.021619
0.0650177
0.108958
0.153826
0.199969
0.247757
0.297564
0.349767
0.404748
0.462891
0.524585
0.590219
0.660185
0.734871
0.814662
0.899935
0.991051
1.08836
1.19217
1.30278
1.42043
1.5453
1.67751
1.81709
1.96394
2.11785
2.27843
2.44508
2.61693
2.79284
2.97125
3.15016
3.32701
3.4986
3.66092
3.80907
3.93711
4.03799
4.10349
4.12429
4.09023
3.99082
3.81611
3.55794
3.21139
2.7763
2.25825
1.66871
1.0242
0.345269
0.0224595
0.0675505
0.11322
0.159877
0.207897
0.257674
0.309609
0.364108
0.421584
0.482453
0.547139
0.61607
0.689676
0.768392
0.852651
0.942882
1.03951
1.14294
1.25357
1.37176
1.49784
1.6321
1.77476
1.92596
2.08574
2.25403
2.43059
2.61497
2.80649
3.00415
3.20656
3.41186
3.61758
3.82053
4.01661
4.20063
4.36613
4.50512
4.60797
4.66332
4.65818
4.57847
4.41
4.14018
3.76028
3.26799
2.66919
1.97823
1.21647
0.410464
0.0232693
0.0699912
0.117327
0.165711
0.215542
0.267241
0.321235
0.37796
0.437857
0.501376
0.568976
0.641122
0.718288
0.800953
0.8896
0.984715
1.08678
1.19628
1.31368
1.43944
1.57397
1.71767
1.87089
2.0339
2.20691
2.39
2.58312
2.78604
2.9983
3.21913
3.44741
3.68151
3.9192
4.15747
4.3923
4.61844
4.82907
5.01548
5.16668
5.26912
5.30654
5.26021
5.11005
4.83672
4.4252
3.86919
3.17464
2.36013
1.45403
0.491051
0.0240416
0.0723191
0.121245
0.171278
0.222839
0.276376
0.332343
0.391201
0.453423
0.519491
0.589898
0.665147
0.745755
0.832246
0.925156
1.02503
1.13241
1.24785
1.3719
1.50511
1.64801
1.8011
1.96486
2.13973
2.32609
2.52421
2.73428
2.95631
3.19013
3.43532
3.69107
3.95615
4.22874
4.50618
4.78483
5.05965
5.32384
5.56831
5.78104
5.94642
6.04461
6.05127
5.93819
5.67579
5.23833
4.61202
3.80245
2.83526
1.74952
0.591247
0.0247697
0.0745139
0.124939
0.176528
0.229724
0.284999
0.342831
0.403711
0.468139
0.536628
0.609706
0.687914
0.771809
0.861962
0.95896
1.0634
1.1759
1.29709
1.42759
1.56805
1.71911
1.8814
2.05555
2.24215
2.44178
2.65495
2.88209
3.12353
3.37943
3.64978
3.93423
4.23209
4.54208
4.86223
5.18952
5.51957
5.84612
6.16031
6.44979
6.69751
6.88034
6.96766
6.92069
6.69433
6.24414
5.54123
4.59035
3.43058
2.11866
0.716154
0.0254471
0.0765558
0.128377
0.181414
0.236133
0.293028
0.352602
0.415371
0.481863
0.552621
0.628205
0.709194
0.796184
0.889791
0.990652
1.09943
1.21679
1.34344
1.4801
1.6275
1.7864
1.95757
2.14177
2.33979
2.55241
2.78038
3.02442
3.2852
3.5633
3.85917
4.17303
4.50485
4.85415
5.21983
5.59995
5.99125
6.3887
6.78461
7.16747
7.52023
7.81784
8.02404
8.08773
7.94123
7.50656
6.72165
5.58964
4.17972
2.57951
0.871367
0.0260673
0.0784257
0.131525
0.18589
0.242006
0.300388
0.361562
0.426067
0.494458
0.567307
0.645205
0.728764
0.818619
0.915429
1.01988
1.13268
1.25458
1.38635
1.52878
1.68271
1.84901
2.02857
2.22233
2.43125
2.65632
2.89856
3.15899
3.43866
3.73859
4.05977
4.40308
4.76928
5.15886
5.57189
6.00784
6.4652
6.94093
7.42971
7.92259
8.40495
8.85311
9.22874
9.47018
9.48091
9.12316
8.25243
6.86941
5.12089
3.14941
1.06169
0.0266245
0.0801057
0.134354
0.189913
0.247284
0.307004
0.36962
0.435691
0.505797
0.580536
0.660526
0.746413
0.838867
0.938588
1.04631
1.16279
1.28883
1.42527
1.573
1.73294
1.90607
2.09341
2.29605
2.51513
2.75186
3.00752
3.28347
3.58112
3.90197
4.2476
4.61961
5.01964
5.4493
5.91006
6.40316
6.9293
7.48833
8.07855
8.69566
9.33087
9.96738
10.5735
11.0887
11.3937
11.2568
10.2988
8.51727
6.28676
3.8367
1.28821
0.0271133
0.0815795
0.136836
0.193441
0.251916
0.312812
0.376694
0.444143
0.515759
0.592163
0.674001
0.761945
0.856698
0.958996
1.06961
1.18936
1.31909
1.45971
1.61217
1.77749
1.95675
2.15109
2.36175
2.59004
2.83739
3.10533
3.39552
3.70977
4.05007
4.41856
4.81762
5.24981
5.71795
6.22506
6.77436
7.3692
8.0129
8.70849
9.4582
10.2626
11.1186
12.0153
12.9227
13.7533
14.2155
13.1721
10.6167
7.67397
4.62358
1.5432
0.0275289
0.0828324
0.138946
0.196441
0.255853
0.317749
0.38271
0.451333
0.524237
0.602063
0.685478
0.775181
0.871902
0.976409
1.08951
1.21206
1.34497
1.48919
1.64574
1.81572
2.00029
2.20072
2.41837
2.65472
2.91138
3.19012
3.49291
3.82191
4.17957
4.5686
4.99211
5.45359
5.95707
6.50714
7.10909
7.76903
8.49404
9.29237
10.1737
11.1498
12.2356
13.4525
14.8389
16.4861
18.684
17.5609
13.1063
9.17056
5.44165
1.80476
0.0278672
0.0838524
0.140662
0.198881
0.259056
0.321766
0.387604
0.457184
0.531137
0.610123
0.694826
0.785966
0.884297
0.990613
1.10575
1.23061
1.36612
1.5133
1.67322
1.84704
2.03601
2.24149
2.46494
2.70799
2.97242
3.26021
3.57358
3.91503
4.28739
4.69391
5.13834
5.62504
6.15915
6.74671
7.39497
8.11265
8.9104
9.80138
10.8022
11.9346
13.2282
14.7265
16.4999
18.673
21.4776
20.2846
15.0796
10.4622
6.16891
2.0395
0.0281248
0.0846296
0.141969
0.200736
0.261489
0.324817
0.391324
0.461631
0.536383
0.616252
0.701937
0.794173
0.893732
1.00143
1.11813
1.24474
1.38225
1.5317
1.6942
1.87098
2.06333
2.27269
2.50063
2.74887
3.01933
3.31415
3.63577
3.98695
4.37084
4.79113
5.2521
5.75884
6.31738
6.93503
7.62065
8.38515
9.24214
10.2088
11.307
12.5655
14.0228
15.7316
17.7665
20.2334
23.273
22.0237
16.4681
11.4314
6.73356
2.22435
0.0282979
0.0851559
0.142853
0.201985
0.263127
0.326871
0.393827
0.464624
0.539915
0.620378
0.706725
0.799701
0.900089
1.00872
1.12647
1.25428
1.39314
1.54412
1.70838
1.88715
2.08181
2.29381
2.5248
2.77658
3.05115
3.35079
3.67806
4.03592
4.42775
4.85754
5.32997
5.85062
6.42621
7.06489
7.77673
8.57418
9.47292
10.4928
11.6593
13.0051
14.5727
16.4168
18.6069
21.2261
24.3614
23.0728
17.3404
12.0635
7.11083
2.34927
0.0283774
0.0854109
0.143295
0.202613
0.26395
0.327903
0.395084
0.466128
0.541689
0.622453
0.709133
0.80248
0.903286
1.01239
1.13067
1.25907
1.39861
1.55037
1.71552
1.89531
2.09112
2.30446
2.537
2.79056
3.06722
3.36931
3.69945
4.06071
4.45659
4.89124
5.36953
5.89731
6.48164
7.13115
7.8565
8.67095
9.59124
10.6386
11.84
13.2302
14.8528
16.7624
19.0237
21.7076
24.8779
23.5691
17.76
12.3733
7.29819
2.41171
)
;

boundaryField
{
    walls
    {
        type            calculated;
        value           nonuniform List<scalar> 
200
(
0.0283774
0.0854109
0.143295
0.202613
0.26395
0.327903
0.395084
0.466128
0.541689
0.622453
0.709133
0.80248
0.903286
1.01239
1.13067
1.25907
1.39861
1.55037
1.71552
1.89531
2.09112
2.30446
2.537
2.79056
3.06722
3.36931
3.69945
4.06071
4.45659
4.89124
5.36953
5.89731
6.48164
7.13115
7.8565
8.67095
9.59124
10.6386
11.84
13.2302
14.8528
16.7624
19.0237
21.7076
24.8779
23.5691
17.76
12.3733
7.29819
2.41171
0
0
0
0
0
0
0
0
0
0
0
0
0
0
0
0
0
0
0
0
0
0
0
0
0
0
0
0
0
0
0
0
0
0
0
0
0
0
0
0
0
0
0
0
0
0
0
0
0
0
0
0
0
0
0
0
0
0
0
0
0
0
0
0
0
0
0
0
0
0
0
0
0
0
0
0
0
0
0
0
0
0
0
0
0
0
0
0
0
0
0
0
0
0
0
0
0
0
0
0
0.0029327
0.00877507
0.0145668
0.0202814
0.0258816
0.0313374
0.0366205
0.0417047
0.046566
0.0511832
0.0555376
0.0596134
0.0633977
0.0668802
0.0700532
0.0729119
0.0754533
0.0776767
0.0795832
0.0811752
0.0824562
0.0834306
0.0841032
0.0844789
0.0845628
0.0843592
0.0838723
0.0831055
0.0820616
0.0807428
0.0791506
0.0772861
0.0751503
0.0727439
0.0700682
0.067125
0.0639171
0.0604485
0.056725
0.0527541
0.0485456
0.0441117
0.0394668
0.034628
0.0296149
0.0244491
0.0191543
0.0137557
0.00828075
0.00276391
)
;
    }
    frontAndBack
    {
        type            empty;
    }
}


// ************************************************************************* //
