/*--------------------------------*- C++ -*----------------------------------*\
| =========                 |                                                 |
| \\      /  F ield         | OpenFOAM: The Open Source CFD Toolbox           |
|  \\    /   O peration     | Version:  2406                                  |
|   \\  /    A nd           | Website:  www.openfoam.com                      |
|    \\/     M anipulation  |                                                 |
\*---------------------------------------------------------------------------*/
FoamFile
{
    version     2.0;
    format      ascii;
    arch        "LSB;label=32;scalar=64";
    class       volScalarField;
    location    "1.1";
    object      T;
}
// * * * * * * * * * * * * * * * * * * * * * * * * * * * * * * * * * * * * * //

dimensions      [0 0 0 1 0 0 0];

internalField   nonuniform List<scalar> 
2500
(
0.190696
0.190813
0.191047
0.191396
0.191858
0.192431
0.193112
0.193896
0.19478
0.195759
0.196827
0.19798
0.199212
0.200516
0.201887
0.203318
0.204804
0.206337
0.207911
0.20952
0.211158
0.212818
0.214495
0.216182
0.217874
0.219565
0.221248
0.22292
0.224573
0.226202
0.227802
0.229368
0.230894
0.232374
0.233804
0.235177
0.236489
0.237734
0.238907
0.240003
0.241017
0.241944
0.242781
0.243523
0.244166
0.244708
0.245144
0.245474
0.245695
0.245805
0.190813
0.190932
0.191167
0.191519
0.191985
0.192563
0.193249
0.194041
0.194932
0.19592
0.196999
0.198163
0.199408
0.200726
0.202112
0.20356
0.205063
0.206615
0.20821
0.209842
0.211503
0.213188
0.214892
0.216607
0.218328
0.220049
0.221765
0.223468
0.225155
0.226819
0.228454
0.230056
0.231617
0.233133
0.234599
0.236007
0.237353
0.238632
0.239837
0.240964
0.242008
0.242962
0.243824
0.244588
0.245251
0.245809
0.246259
0.246599
0.246826
0.24694
0.191047
0.191167
0.191407
0.191764
0.192238
0.192825
0.193523
0.194328
0.195236
0.196242
0.197341
0.198529
0.199798
0.201144
0.202561
0.204042
0.205581
0.207173
0.208809
0.210485
0.212194
0.21393
0.215687
0.217458
0.219238
0.22102
0.222799
0.224568
0.226323
0.228056
0.229762
0.231435
0.233069
0.234657
0.236194
0.237673
0.239089
0.240436
0.241706
0.242895
0.243997
0.245007
0.245918
0.246727
0.24743
0.248021
0.248498
0.248859
0.249101
0.249222
0.191396
0.191519
0.191764
0.19213
0.192616
0.193218
0.193933
0.194759
0.195691
0.196724
0.197854
0.199076
0.200384
0.201772
0.203235
0.204766
0.20636
0.20801
0.20971
0.211453
0.213234
0.215046
0.216883
0.218739
0.220607
0.222482
0.224358
0.226227
0.228084
0.229922
0.231735
0.233516
0.235259
0.236957
0.238603
0.24019
0.241712
0.243161
0.24453
0.245814
0.247005
0.248097
0.249085
0.249962
0.250724
0.251367
0.251885
0.252278
0.252541
0.252672
0.191858
0.191985
0.192238
0.192616
0.193116
0.193738
0.194477
0.195331
0.196295
0.197365
0.198537
0.199805
0.201164
0.202609
0.204134
0.205733
0.2074
0.209129
0.210913
0.212747
0.214625
0.21654
0.218485
0.220456
0.222444
0.224444
0.226449
0.228453
0.230448
0.232428
0.234386
0.236314
0.238205
0.240051
0.241845
0.243578
0.245242
0.246831
0.248335
0.249746
0.251058
0.252263
0.253354
0.254324
0.255167
0.255879
0.256454
0.256888
0.25718
0.257326
0.192431
0.192563
0.192825
0.193218
0.193738
0.194384
0.195153
0.196042
0.197047
0.198163
0.199388
0.200714
0.202139
0.203655
0.205258
0.206943
0.208702
0.210531
0.212423
0.214372
0.216372
0.218417
0.2205
0.222615
0.224756
0.226914
0.229085
0.231259
0.233431
0.235591
0.237733
0.239848
0.241927
0.243962
0.245944
0.247863
0.24971
0.251477
0.253152
0.254728
0.256194
0.257543
0.258765
0.259854
0.260801
0.261601
0.262248
0.262737
0.263066
0.26323
0.193112
0.193249
0.193523
0.193933
0.194477
0.195153
0.195958
0.19689
0.197944
0.199117
0.200405
0.201803
0.203306
0.20491
0.206608
0.208396
0.210268
0.212218
0.214241
0.216331
0.21848
0.220684
0.222935
0.225227
0.227553
0.229906
0.232278
0.234662
0.237049
0.23943
0.241798
0.244142
0.246453
0.24872
0.250933
0.253081
0.255153
0.257138
0.259024
0.260802
0.262458
0.263984
0.265369
0.266604
0.26768
0.268589
0.269324
0.269881
0.270255
0.270442
0.193896
0.194041
0.194328
0.194759
0.195331
0.196042
0.19689
0.197872
0.198984
0.200224
0.201587
0.203069
0.204666
0.206372
0.208183
0.210094
0.2121
0.214195
0.216373
0.218628
0.220955
0.223348
0.225799
0.228301
0.230848
0.233433
0.236046
0.238679
0.241324
0.24397
0.246607
0.249226
0.251813
0.254358
0.256849
0.259271
0.261613
0.263861
0.266001
0.268021
0.269907
0.271647
0.273228
0.274638
0.275869
0.276909
0.277752
0.27839
0.278819
0.279033
0.19478
0.194932
0.195236
0.195691
0.196295
0.197047
0.197944
0.198984
0.200165
0.201482
0.202932
0.204511
0.206216
0.208042
0.209985
0.212039
0.2142
0.216462
0.218821
0.221271
0.223805
0.226417
0.229102
0.231851
0.234657
0.237512
0.240407
0.243333
0.24628
0.249237
0.252192
0.255133
0.258046
0.260919
0.263736
0.266483
0.269143
0.271702
0.274143
0.27645
0.278607
0.280599
0.282412
0.284032
0.285445
0.286642
0.287612
0.288346
0.28884
0.289087
0.195759
0.19592
0.196242
0.196724
0.197365
0.198163
0.199117
0.200224
0.201482
0.202887
0.204437
0.206128
0.207957
0.20992
0.212012
0.21423
0.216569
0.219025
0.221592
0.224264
0.227036
0.229903
0.232856
0.235889
0.238994
0.242162
0.245384
0.248649
0.251946
0.255263
0.258586
0.261902
0.265195
0.268448
0.271646
0.274771
0.277803
0.280724
0.283516
0.286158
0.288633
0.290921
0.293006
0.29487
0.296499
0.297879
0.298997
0.299845
0.300415
0.300701
0.196827
0.196999
0.197341
0.197854
0.198537
0.199388
0.200405
0.201587
0.202932
0.204437
0.206099
0.207917
0.209886
0.212004
0.214267
0.216671
0.219212
0.221886
0.224689
0.227615
0.230659
0.233814
0.237074
0.240432
0.243878
0.247404
0.251
0.254653
0.258352
0.262082
0.265829
0.269576
0.273306
0.276999
0.280637
0.284197
0.287659
0.291
0.294198
0.297229
0.300072
0.302704
0.305104
0.307253
0.309132
0.310724
0.312017
0.312996
0.313655
0.313985
0.19798
0.198163
0.198529
0.199076
0.199805
0.200714
0.201803
0.203069
0.204511
0.206128
0.207917
0.209876
0.212002
0.214294
0.216748
0.219361
0.22213
0.225051
0.22812
0.231332
0.234682
0.238164
0.241771
0.245496
0.249329
0.253261
0.257281
0.261376
0.265532
0.269734
0.273964
0.278203
0.282432
0.286629
0.29077
0.294831
0.298786
0.30261
0.306275
0.309754
0.313021
0.31605
0.318814
0.321291
0.323459
0.325298
0.32679
0.327923
0.328684
0.329066
0.199212
0.199408
0.199798
0.200384
0.201164
0.202139
0.203306
0.204666
0.206216
0.207957
0.209886
0.212002
0.214304
0.21679
0.219457
0.222303
0.225326
0.228522
0.231889
0.235421
0.239115
0.242963
0.24696
0.251098
0.255367
0.259757
0.264256
0.26885
0.273524
0.278259
0.283037
0.287836
0.292633
0.297402
0.302117
0.306749
0.311268
0.315643
0.319843
0.323835
0.327588
0.331072
0.334255
0.33711
0.33961
0.341732
0.343455
0.344763
0.345643
0.346085
0.200516
0.200726
0.201144
0.201772
0.202609
0.203655
0.20491
0.206372
0.208042
0.20992
0.212004
0.214294
0.21679
0.219489
0.222392
0.225497
0.228802
0.232305
0.236003
0.239892
0.243968
0.248225
0.252658
0.257258
0.262015
0.266919
0.271956
0.277111
0.282367
0.287704
0.2931
0.298531
0.30397
0.309388
0.314754
0.320034
0.325194
0.330197
0.335006
0.339584
0.343893
0.347897
0.351559
0.354846
0.357727
0.360174
0.362162
0.363672
0.364688
0.365198
0.201887
0.202112
0.202561
0.203235
0.204134
0.205258
0.206608
0.208183
0.209985
0.212012
0.214267
0.216748
0.219457
0.222392
0.225556
0.228946
0.232562
0.236403
0.240467
0.244751
0.249251
0.253963
0.25888
0.263994
0.269295
0.274772
0.28041
0.286193
0.292101
0.298114
0.304205
0.310347
0.31651
0.322661
0.328762
0.334776
0.340663
0.346379
0.351881
0.357125
0.362067
0.366663
0.370872
0.374653
0.37797
0.380788
0.38308
0.384821
0.385992
0.38658
0.203318
0.20356
0.204042
0.204766
0.205733
0.206943
0.208396
0.210094
0.212039
0.21423
0.216671
0.219361
0.222303
0.225497
0.228946
0.232649
0.236607
0.24082
0.245288
0.250007
0.254976
0.26019
0.265643
0.271326
0.277231
0.283345
0.289652
0.296135
0.302772
0.309539
0.316409
0.323349
0.330326
0.3373
0.344231
0.351073
0.35778
0.364303
0.37059
0.376591
0.382252
0.387523
0.392354
0.396698
0.400511
0.403754
0.406392
0.408397
0.409747
0.410424
0.204804
0.205063
0.205581
0.20636
0.2074
0.208702
0.210268
0.2121
0.2142
0.216569
0.219212
0.22213
0.225326
0.228802
0.232562
0.236607
0.24094
0.24556
0.25047
0.255668
0.261151
0.266918
0.272961
0.279274
0.285847
0.292666
0.299715
0.306975
0.314423
0.322032
0.32977
0.337603
0.345491
0.353389
0.361252
0.369027
0.37666
0.384094
0.391269
0.398126
0.404603
0.41064
0.416179
0.421164
0.425544
0.429271
0.432304
0.43461
0.436163
0.436943
0.206337
0.206615
0.207173
0.20801
0.209129
0.210531
0.212218
0.214195
0.216462
0.219025
0.221886
0.225051
0.228522
0.232305
0.236403
0.24082
0.24556
0.250626
0.256018
0.261739
0.267787
0.274159
0.280852
0.287857
0.295165
0.302762
0.310632
0.318753
0.3271
0.335644
0.34435
0.353178
0.362084
0.371017
0.379925
0.388747
0.397422
0.405883
0.414062
0.421887
0.429288
0.436194
0.442537
0.448251
0.453275
0.457553
0.461037
0.463687
0.465472
0.466369
0.207911
0.20821
0.208809
0.20971
0.210913
0.212423
0.214241
0.216373
0.218821
0.221592
0.224689
0.22812
0.231889
0.236003
0.240467
0.245288
0.25047
0.256018
0.261937
0.268227
0.27489
0.281925
0.289328
0.297092
0.305207
0.313661
0.322434
0.331506
0.340849
0.350429
0.360209
0.370144
0.380185
0.390274
0.400352
0.410349
0.420194
0.429811
0.439121
0.44804
0.456487
0.464378
0.471633
0.478175
0.483932
0.488838
0.492836
0.495878
0.497928
0.498958
0.20952
0.209842
0.210485
0.211453
0.212747
0.214372
0.216331
0.218628
0.221271
0.224264
0.227615
0.231332
0.235421
0.239892
0.244751
0.250007
0.255668
0.261739
0.268227
0.275136
0.282468
0.290224
0.298402
0.306995
0.315995
0.325387
0.335155
0.345273
0.355713
0.366439
0.377409
0.388573
0.399876
0.411255
0.422638
0.433951
0.445109
0.456026
0.466609
0.476763
0.486392
0.495398
0.503689
0.511171
0.517762
0.523383
0.527966
0.531455
0.533807
0.53499
0.211158
0.211503
0.212194
0.213234
0.214625
0.216372
0.21848
0.220955
0.223805
0.227036
0.230659
0.234682
0.239115
0.243968
0.249251
0.254976
0.261151
0.267787
0.27489
0.282468
0.290525
0.299064
0.308084
0.317581
0.327545
0.337965
0.348821
0.360088
0.371736
0.383725
0.39601
0.408536
0.42124
0.434053
0.446893
0.459676
0.472306
0.484682
0.496698
0.508245
0.519209
0.529478
0.538942
0.547493
0.555032
0.561467
0.566717
0.570717
0.573414
0.57477
0.212818
0.213188
0.21393
0.215046
0.21654
0.218417
0.220684
0.223348
0.226417
0.229903
0.233814
0.238164
0.242963
0.248225
0.253963
0.26019
0.266918
0.274159
0.281925
0.290224
0.299064
0.30845
0.318383
0.32886
0.339874
0.351414
0.363459
0.375984
0.388957
0.402336
0.416071
0.430101
0.444359
0.458764
0.473227
0.48765
0.501927
0.51594
0.529568
0.542683
0.555156
0.566855
0.577649
0.587414
0.596032
0.603394
0.609406
0.613989
0.617079
0.618634
0.214495
0.214892
0.215687
0.216883
0.218485
0.2205
0.222935
0.225799
0.229102
0.232856
0.237074
0.241771
0.24696
0.252658
0.25888
0.265643
0.272961
0.280852
0.289328
0.298402
0.308084
0.318383
0.329302
0.34084
0.352993
0.365749
0.37909
0.392989
0.407412
0.422316
0.437645
0.453336
0.46931
0.485481
0.501749
0.518001
0.534118
0.549966
0.565405
0.580288
0.594465
0.607781
0.620085
0.631229
0.641076
0.649496
0.656377
0.661625
0.665166
0.666949
0.216182
0.216607
0.217458
0.218739
0.220456
0.222615
0.225227
0.228301
0.231851
0.235889
0.240432
0.245496
0.251098
0.257258
0.263994
0.271326
0.279274
0.287857
0.297092
0.306995
0.317581
0.32886
0.34084
0.353524
0.366907
0.380982
0.395729
0.411124
0.427131
0.443704
0.460783
0.4783
0.49617
0.514296
0.532566
0.550856
0.569027
0.58693
0.604403
0.621278
0.637378
0.652525
0.666542
0.679256
0.690502
0.700129
0.708004
0.714014
0.718071
0.720114
0.217874
0.218328
0.219238
0.220607
0.222444
0.224756
0.227553
0.230848
0.234657
0.238994
0.243878
0.249329
0.255367
0.262015
0.269295
0.277231
0.285847
0.295165
0.305207
0.315995
0.327545
0.339874
0.352993
0.366907
0.381617
0.397115
0.413387
0.430406
0.448136
0.46653
0.485526
0.505049
0.525006
0.545292
0.565782
0.586337
0.606801
0.627004
0.646761
0.665878
0.684151
0.701373
0.717335
0.731834
0.744677
0.755684
0.764696
0.77158
0.776229
0.778571
0.219565
0.220049
0.22102
0.222482
0.224444
0.226914
0.229906
0.233433
0.237512
0.242162
0.247404
0.253261
0.259757
0.266919
0.274772
0.283345
0.292666
0.302762
0.313661
0.325387
0.337965
0.351414
0.365749
0.380982
0.397115
0.414147
0.432062
0.450839
0.470441
0.490818
0.511907
0.533627
0.555879
0.578547
0.601495
0.624565
0.647585
0.67036
0.69268
0.714321
0.735049
0.754622
0.772795
0.78933
0.803998
0.816584
0.826901
0.834787
0.840117
0.842803
0.221248
0.221765
0.222799
0.224358
0.226449
0.229085
0.232278
0.236046
0.240407
0.245384
0.251
0.257281
0.264256
0.271956
0.28041
0.289652
0.299715
0.310632
0.322434
0.335155
0.348821
0.363459
0.37909
0.395729
0.413387
0.432062
0.451747
0.47242
0.494046
0.516577
0.539946
0.564067
0.588837
0.614128
0.63979
0.665651
0.691515
0.717165
0.742361
0.766846
0.790349
0.812588
0.833277
0.852135
0.86889
0.883289
0.895105
0.904146
0.910261
0.913343
0.22292
0.223468
0.224568
0.226227
0.228453
0.231259
0.234662
0.238679
0.243333
0.248649
0.254653
0.261376
0.26885
0.277111
0.286193
0.296135
0.306975
0.318753
0.331506
0.345273
0.360088
0.375984
0.392989
0.411124
0.430406
0.450839
0.47242
0.495131
0.518942
0.543803
0.569648
0.596388
0.623912
0.652084
0.680741
0.709693
0.738722
0.767583
0.796005
0.823692
0.850333
0.875598
0.899155
0.920669
0.939818
0.9563
0.969844
0.980218
0.98724
0.990781
0.224573
0.225155
0.226323
0.228084
0.230448
0.233431
0.237049
0.241324
0.24628
0.251946
0.258352
0.265532
0.273524
0.282367
0.292101
0.302772
0.314423
0.3271
0.340849
0.355713
0.371736
0.388957
0.407412
0.427131
0.448136
0.470441
0.494046
0.518942
0.5451
0.572475
0.601001
0.630588
0.661118
0.692449
0.724403
0.756773
0.789319
0.821764
0.853803
0.885099
0.91529
0.943996
0.970824
0.99538
1.01728
1.03617
1.05171
1.06362
1.0717
1.07577
0.226202
0.226819
0.228056
0.229922
0.232428
0.235591
0.23943
0.24397
0.249237
0.255263
0.262082
0.269734
0.278259
0.287704
0.298114
0.309539
0.322032
0.335644
0.350429
0.366439
0.383725
0.402336
0.422316
0.443704
0.46653
0.490818
0.516577
0.543803
0.572475
0.602553
0.633972
0.666643
0.700447
0.735231
0.770808
0.806953
0.843399
0.879843
0.915936
0.951298
0.98551
1.01813
1.0487
1.07675
1.10182
1.12348
1.14134
1.15505
1.16435
1.16904
0.227802
0.228454
0.229762
0.231735
0.234386
0.237733
0.241798
0.246607
0.252192
0.258586
0.265829
0.273964
0.283037
0.2931
0.304205
0.316409
0.32977
0.34435
0.360209
0.377409
0.39601
0.416071
0.437645
0.460783
0.485526
0.511907
0.539946
0.569648
0.601001
0.633972
0.668503
0.704506
0.741861
0.780411
0.819959
0.860262
0.901032
0.94193
0.982568
1.02251
1.06128
1.09836
1.13321
1.16528
1.19402
1.21891
1.23946
1.25527
1.266
1.27142
0.229368
0.230056
0.231435
0.233516
0.236314
0.239848
0.244142
0.249226
0.255133
0.261902
0.269576
0.278203
0.287836
0.298531
0.310347
0.323349
0.337603
0.353178
0.370144
0.388573
0.408536
0.430101
0.453336
0.4783
0.505049
0.533627
0.564067
0.596388
0.630588
0.666643
0.704506
0.744093
0.785288
0.827933
0.871821
0.916698
0.962249
1.0081
1.05383
1.09894
1.14288
1.18505
1.22482
1.26153
1.29453
1.32317
1.34687
1.36514
1.37755
1.38383
0.230894
0.231617
0.233069
0.235259
0.238205
0.241927
0.246453
0.251813
0.258046
0.265195
0.273306
0.282432
0.292633
0.30397
0.31651
0.330326
0.345491
0.362084
0.380185
0.399876
0.42124
0.444359
0.46931
0.49617
0.525006
0.555879
0.588837
0.623912
0.661118
0.700447
0.741861
0.785288
0.83062
0.877699
0.926318
0.976208
1.02704
1.0784
1.12983
1.18076
1.23056
1.27856
1.32399
1.36607
1.40402
1.43705
1.46446
1.48562
1.50002
1.50731
0.232374
0.233133
0.234657
0.236957
0.240051
0.243962
0.24872
0.254358
0.260919
0.268448
0.276999
0.286629
0.297402
0.309388
0.322661
0.3373
0.353389
0.371017
0.390274
0.411255
0.434053
0.458764
0.485481
0.514296
0.545292
0.578547
0.614128
0.652084
0.692449
0.735231
0.780411
0.827933
0.877699
0.929562
0.983316
1.03869
1.09533
1.15281
1.2106
1.26809
1.32456
1.37922
1.43118
1.4795
1.52324
1.56145
1.59324
1.61783
1.6346
1.64309
0.233804
0.234599
0.236194
0.238603
0.241845
0.245944
0.250933
0.256849
0.263736
0.271646
0.280637
0.29077
0.302117
0.314754
0.328762
0.344231
0.361252
0.379925
0.400352
0.422638
0.446893
0.473227
0.501749
0.532566
0.565782
0.601495
0.63979
0.680741
0.724403
0.770808
0.819959
0.871821
0.926318
0.983316
1.04262
1.10396
1.16698
1.23123
1.29613
1.361
1.42505
1.48735
1.54686
1.60247
1.65302
1.69734
1.73433
1.76302
1.78262
1.79256
0.235177
0.236007
0.237673
0.24019
0.243578
0.247863
0.253081
0.259271
0.266483
0.274771
0.284197
0.294831
0.306749
0.320034
0.334776
0.351073
0.369027
0.388747
0.410349
0.433951
0.459676
0.48765
0.518001
0.550856
0.586337
0.624565
0.665651
0.709693
0.756773
0.806953
0.860262
0.916698
0.976208
1.03869
1.10396
1.17177
1.24177
1.31347
1.38629
1.45948
1.53214
1.60322
1.67149
1.73563
1.79422
1.84581
1.88904
1.92266
1.94567
1.95735
0.236489
0.237353
0.239089
0.241712
0.245242
0.24971
0.255153
0.261613
0.269143
0.277803
0.287659
0.298786
0.311268
0.325194
0.340663
0.35778
0.37666
0.397422
0.420194
0.445109
0.472306
0.501927
0.534118
0.569027
0.606801
0.647585
0.691515
0.738722
0.789319
0.843399
0.901032
0.962249
1.02704
1.09533
1.16698
1.24177
1.31934
1.39925
1.48086
1.56339
1.64584
1.727
1.80547
1.87964
1.94779
2.0081
2.05884
2.09843
2.12559
2.1394
0.237734
0.238632
0.240436
0.243161
0.246831
0.251477
0.257138
0.263861
0.271702
0.280724
0.291
0.30261
0.315643
0.330197
0.346379
0.364303
0.384094
0.405883
0.429811
0.456026
0.484682
0.51594
0.549966
0.58693
0.627004
0.67036
0.717165
0.767583
0.821764
0.879843
0.94193
1.0081
1.0784
1.15281
1.23123
1.31347
1.39925
1.48812
1.57946
1.67244
1.76599
1.85876
1.94913
2.03516
2.11473
2.18558
2.24545
2.29234
2.32458
2.341
0.238907
0.239837
0.241706
0.24453
0.248335
0.253152
0.259024
0.266001
0.274143
0.283516
0.294198
0.306275
0.319843
0.335006
0.351881
0.37059
0.391269
0.414062
0.439121
0.466609
0.496698
0.529568
0.565405
0.604403
0.646761
0.69268
0.742361
0.796005
0.853803
0.915936
0.982568
1.05383
1.12983
1.2106
1.29613
1.38629
1.48086
1.57946
1.68148
1.78612
1.89225
1.99838
2.10266
2.20279
2.29613
2.37979
2.45089
2.50678
2.5453
2.56494
0.240003
0.240964
0.242895
0.245814
0.249746
0.254728
0.260802
0.268021
0.27645
0.286158
0.297229
0.309754
0.323835
0.339584
0.357125
0.376591
0.398126
0.421887
0.44804
0.476763
0.508245
0.542683
0.580288
0.621278
0.665878
0.714321
0.766846
0.823692
0.885099
0.951298
1.02251
1.09894
1.18076
1.26809
1.361
1.45948
1.56339
1.67244
1.78612
1.90368
2.02398
2.14546
2.26603
2.38299
2.49306
2.59252
2.67754
2.74462
2.79095
2.8146
0.241017
0.242008
0.243997
0.247005
0.251058
0.256194
0.262458
0.269907
0.278607
0.288633
0.300072
0.313021
0.327588
0.343893
0.362067
0.382252
0.404603
0.429288
0.456487
0.486392
0.519209
0.555156
0.594465
0.637378
0.684151
0.735049
0.790349
0.850333
0.91529
0.98551
1.06128
1.14288
1.23056
1.32456
1.42505
1.53214
1.64584
1.76599
1.89225
2.02398
2.16015
2.29919
2.43886
2.57602
2.70663
2.82579
2.92828
3.0094
3.0655
3.09415
0.241944
0.242962
0.245007
0.248097
0.252263
0.257543
0.263984
0.271647
0.280599
0.290921
0.302704
0.31605
0.331072
0.347897
0.366663
0.387523
0.41064
0.436194
0.464378
0.495398
0.529478
0.566855
0.607781
0.652525
0.701373
0.754622
0.812588
0.875598
0.943996
1.01813
1.09836
1.18505
1.27856
1.37922
1.48735
1.60322
1.727
1.85876
1.99838
2.14546
2.29919
2.45818
2.62016
2.78169
2.9378
3.08195
3.20667
3.30553
3.37386
3.40871
0.242781
0.243824
0.245918
0.249085
0.253354
0.258765
0.265369
0.273228
0.282412
0.293006
0.305104
0.318814
0.334255
0.351559
0.370872
0.392354
0.416179
0.442537
0.471633
0.503689
0.538942
0.577649
0.620085
0.666542
0.717335
0.772795
0.833277
0.899155
0.970824
1.0487
1.13321
1.22482
1.32399
1.43118
1.54686
1.67149
1.80547
1.94913
2.10266
2.26603
2.43886
2.62016
2.80801
2.99896
3.18724
3.36389
3.51734
3.63867
3.72217
3.76464
0.243523
0.244588
0.246727
0.249962
0.254324
0.259854
0.266604
0.274638
0.284032
0.29487
0.307253
0.321291
0.33711
0.354846
0.374653
0.396698
0.421164
0.448251
0.478175
0.511171
0.547493
0.587414
0.631229
0.679256
0.731834
0.78933
0.852135
0.920669
0.99538
1.07675
1.16528
1.26153
1.36607
1.4795
1.60247
1.73563
1.87964
2.03516
2.20279
2.38299
2.57602
2.78169
2.99896
3.22523
3.45471
3.6755
3.86666
4.0162
4.11813
4.16966
0.244166
0.245251
0.24743
0.250724
0.255167
0.260801
0.26768
0.275869
0.285445
0.296499
0.309132
0.323459
0.33961
0.357727
0.37797
0.400511
0.425544
0.453275
0.483932
0.517762
0.555032
0.596032
0.641076
0.690502
0.744677
0.803998
0.86889
0.939818
1.01728
1.10182
1.19402
1.29453
1.40402
1.52324
1.65302
1.79422
1.94779
2.11473
2.29613
2.49306
2.70663
2.9378
3.18724
3.45471
3.73737
4.02333
4.26426
4.448
4.57122
4.63295
0.244708
0.245809
0.248021
0.251367
0.255879
0.261601
0.268589
0.276909
0.286642
0.297879
0.310724
0.325298
0.341732
0.360174
0.380788
0.403754
0.429271
0.457553
0.488838
0.523383
0.561467
0.603394
0.649496
0.700129
0.755684
0.816584
0.883289
0.9563
1.03617
1.12348
1.21891
1.32317
1.43705
1.56145
1.69734
1.84581
2.0081
2.18558
2.37979
2.59252
2.82579
3.08195
3.36389
3.6755
4.02333
4.42286
4.72577
4.94711
5.09259
5.16478
0.245144
0.246259
0.248498
0.251885
0.256454
0.262248
0.269324
0.277752
0.287612
0.298997
0.312017
0.32679
0.343455
0.362162
0.38308
0.406392
0.432304
0.461037
0.492836
0.527966
0.566717
0.609406
0.656377
0.708004
0.764696
0.826901
0.895105
0.969844
1.05171
1.14134
1.23946
1.34687
1.46446
1.59324
1.73433
1.88904
2.05884
2.24545
2.45089
2.67754
2.92828
3.20667
3.51734
3.86666
4.26426
4.72577
5.07564
5.32895
5.49413
5.57571
0.245474
0.246599
0.248859
0.252278
0.256888
0.262737
0.269881
0.27839
0.288346
0.299845
0.312996
0.327923
0.344763
0.363672
0.384821
0.408397
0.43461
0.463687
0.495878
0.531455
0.570717
0.613989
0.661625
0.714014
0.77158
0.834787
0.904146
0.980218
1.06362
1.15505
1.25527
1.36514
1.48562
1.61783
1.76302
1.92266
2.09843
2.29234
2.50678
2.74462
3.0094
3.30553
3.63867
4.0162
4.448
4.94711
5.32895
5.60584
5.78621
5.87518
0.245695
0.246826
0.249101
0.252541
0.25718
0.263066
0.270255
0.278819
0.28884
0.300415
0.313655
0.328684
0.345643
0.364688
0.385992
0.409747
0.436163
0.465472
0.497928
0.533807
0.573414
0.617079
0.665166
0.718071
0.776229
0.840117
0.910261
0.98724
1.0717
1.16435
1.266
1.37755
1.50002
1.6346
1.78262
1.94567
2.12559
2.32458
2.5453
2.79095
3.0655
3.37386
3.72217
4.11813
4.57122
5.09259
5.49413
5.78621
5.97667
6.07064
0.245805
0.24694
0.249222
0.252672
0.257326
0.26323
0.270442
0.279033
0.289087
0.300701
0.313985
0.329066
0.346085
0.365198
0.38658
0.410424
0.436943
0.466369
0.498958
0.53499
0.57477
0.618634
0.666949
0.720114
0.778571
0.842803
0.913343
0.990781
1.07577
1.16904
1.27142
1.38383
1.50731
1.64309
1.79256
1.95735
2.1394
2.341
2.56494
2.8146
3.09415
3.40871
3.76464
4.16966
4.63295
5.16478
5.57571
5.87518
6.07064
6.16711
)
;

boundaryField
{
    walls
    {
        type            zeroGradient;
    }
    frontAndBack
    {
        type            empty;
    }
}


// ************************************************************************* //
