/*--------------------------------*- C++ -*----------------------------------*\
| =========                 |                                                 |
| \\      /  F ield         | OpenFOAM: The Open Source CFD Toolbox           |
|  \\    /   O peration     | Version:  2406                                  |
|   \\  /    A nd           | Website:  www.openfoam.com                      |
|    \\/     M anipulation  |                                                 |
\*---------------------------------------------------------------------------*/
FoamFile
{
    version     2.0;
    format      ascii;
    arch        "LSB;label=32;scalar=64";
    class       volVectorField;
    location    "1.4";
    object      flux;
}
// * * * * * * * * * * * * * * * * * * * * * * * * * * * * * * * * * * * * * //

dimensions      [0 1 -1 1 0 0 0];

internalField   nonuniform List<vector> 
2500
(
(0.000475678 0.000475678 0)
(0.00142545 0.000479879 0)
(0.00237342 0.000488411 0)
(0.00331941 0.000501213 0)
(0.00426127 0.000518327 0)
(0.0051977 0.000539795 0)
(0.00612731 0.000565671 0)
(0.00704857 0.00059601 0)
(0.00795981 0.000630877 0)
(0.00885922 0.000670338 0)
(0.0097448 0.000714459 0)
(0.0106143 0.000763308 0)
(0.0114654 0.000816946 0)
(0.0122955 0.00087543 0)
(0.0131016 0.000938806 0)
(0.0138808 0.0010071 0)
(0.0146296 0.00108034 0)
(0.0153446 0.00115852 0)
(0.0160219 0.00124159 0)
(0.0166576 0.00132951 0)
(0.0172474 0.00142219 0)
(0.0177871 0.0015195 0)
(0.0182721 0.00162126 0)
(0.018698 0.00172728 0)
(0.0190599 0.0018373 0)
(0.0193534 0.001951 0)
(0.0195739 0.00206802 0)
(0.0197171 0.00218797 0)
(0.0197786 0.00231036 0)
(0.0197545 0.00243469 0)
(0.0196414 0.00256037 0)
(0.0194361 0.00268677 0)
(0.019136 0.00281322 0)
(0.0187392 0.00293901 0)
(0.0182442 0.00306336 0)
(0.0176506 0.00318548 0)
(0.0169587 0.00330456 0)
(0.0161695 0.00341975 0)
(0.0152851 0.00353021 0)
(0.0143085 0.0036351 0)
(0.0132437 0.00373359 0)
(0.0120954 0.00382487 0)
(0.0108695 0.00390819 0)
(0.00957272 0.00398284 0)
(0.00821258 0.00404815 0)
(0.00679735 0.00410356 0)
(0.00533594 0.0041486 0)
(0.00383781 0.00418284 0)
(0.00231299 0.00420583 0)
(0.000772596 0.00421638 0)
(0.000479879 0.00142545 0)
(0.00143819 0.00143819 0)
(0.00239475 0.00146376 0)
(0.00334933 0.00150218 0)
(0.00429985 0.00155354 0)
(0.00524505 0.00161798 0)
(0.00618353 0.00169565 0)
(0.00711378 0.00178672 0)
(0.00803414 0.0018914 0)
(0.00894281 0.00200986 0)
(0.00983777 0.00214233 0)
(0.0107168 0.002289 0)
(0.0115776 0.00245006 0)
(0.0124174 0.00262569 0)
(0.0132333 0.00281601 0)
(0.0140223 0.00302113 0)
(0.014781 0.00324111 0)
(0.0155058 0.00347592 0)
(0.0161929 0.00372549 0)
(0.0168382 0.00398963 0)
(0.0174374 0.00426809 0)
(0.0179862 0.00456047 0)
(0.0184799 0.0048663 0)
(0.018914 0.00518492 0)
(0.0192836 0.00551559 0)
(0.0195842 0.00585737 0)
(0.0198109 0.00620919 0)
(0.0199594 0.00656981 0)
(0.0200253 0.00693784 0)
(0.0200045 0.00731171 0)
(0.0198935 0.00768969 0)
(0.019689 0.00806989 0)
(0.0193883 0.00845028 0)
(0.0189893 0.00882869 0)
(0.0184907 0.00920282 0)
(0.0178918 0.0095703 0)
(0.017193 0.00992863 0)
(0.0163952 0.0102753 0)
(0.0155005 0.0106078 0)
(0.0145119 0.0109235 0)
(0.0134334 0.01122 0)
(0.01227 0.0114948 0)
(0.0110275 0.0117457 0)
(0.00971268 0.0119704 0)
(0.00833331 0.012167 0)
(0.0068978 0.0123339 0)
(0.00541522 0.0124695 0)
(0.00389505 0.0125726 0)
(0.00234652 0.0126425 0)
(0.000783139 0.0126762 0)
(0.000488411 0.00237342 0)
(0.00146376 0.00239475 0)
(0.00243741 0.00243741 0)
(0.00340919 0.00250153 0)
(0.00437707 0.00258727 0)
(0.00533981 0.00269485 0)
(0.00629606 0.00282454 0)
(0.00724432 0.00297661 0)
(0.00818295 0.00315141 0)
(0.00911016 0.00334925 0)
(0.0100239 0.0035705 0)
(0.0109221 0.00381549 0)
(0.0118021 0.00408455 0)
(0.0126614 0.00437797 0)
(0.0134971 0.004696 0)
(0.0143059 0.00503879 0)
(0.0150844 0.00540646 0)
(0.015829 0.00579899 0)
(0.0165356 0.00621623 0)
(0.0172002 0.00665793 0)
(0.0178183 0.00712363 0)
(0.0183853 0.00761272 0)
(0.0188966 0.00812437 0)
(0.0193472 0.00865754 0)
(0.0197324 0.00921095 0)
(0.020047 0.00978307 0)
(0.0202864 0.0103721 0)
(0.0204457 0.010976 0)
(0.0205205 0.0115924 0)
(0.0205064 0.0122188 0)
(0.0203996 0.0128521 0)
(0.0201967 0.0134893 0)
(0.0198948 0.0141269 0)
(0.0194917 0.0147613 0)
(0.0189858 0.0153887 0)
(0.0183764 0.016005 0)
(0.0176637 0.0166062 0)
(0.0168487 0.0171878 0)
(0.0159333 0.0177457 0)
(0.0149207 0.0182756 0)
(0.013815 0.0187732 0)
(0.012621 0.0192346 0)
(0.0113451 0.0196558 0)
(0.00999411 0.0200331 0)
(0.00857608 0.0203633 0)
(0.00709977 0.0206434 0)
(0.0055747 0.020871 0)
(0.0040108 0.0210439 0)
(0.00241659 0.0211609 0)
(0.000806383 0.0212193 0)
(0.000501213 0.00331941 0)
(0.00150218 0.00334933 0)
(0.00250153 0.00340919 0)
(0.00349918 0.00349918 0)
(0.00449318 0.00361955 0)
(0.00548232 0.00377059 0)
(0.00646529 0.00395268 0)
(0.00744065 0.00416623 0)
(0.00840678 0.0044117 0)
(0.0093619 0.00468958 0)
(0.010304 0.00500036 0)
(0.0112309 0.00534455 0)
(0.0121401 0.00572262 0)
(0.0130288 0.00613498 0)
(0.0138941 0.00658199 0)
(0.0147328 0.00706393 0)
(0.0155412 0.00758094 0)
(0.0163156 0.00813302 0)
(0.0170518 0.00872 0)
(0.0177456 0.00934152 0)
(0.0183922 0.00999698 0)
(0.0189869 0.0106855 0)
(0.0195248 0.011406 0)
(0.0200006 0.012157 0)
(0.0204092 0.0129368 0)
(0.0207453 0.0137431 0)
(0.0210039 0.0145735 0)
(0.0211797 0.0154251 0)
(0.021268 0.0162946 0)
(0.0212642 0.0171784 0)
(0.021164 0.0180722 0)
(0.0209638 0.0189718 0)
(0.0206603 0.0198723 0)
(0.0202511 0.0207685 0)
(0.0197344 0.021655 0)
(0.0191093 0.0225261 0)
(0.0183757 0.0233759 0)
(0.0175347 0.0241984 0)
(0.0165883 0.0249875 0)
(0.0155395 0.0257372 0)
(0.0143924 0.0264414 0)
(0.0131525 0.0270944 0)
(0.011826 0.0276906 0)
(0.0104202 0.0282249 0)
(0.00894364 0.0286924 0)
(0.00740546 0.029089 0)
(0.00581572 0.0294111 0)
(0.00418492 0.0296555 0)
(0.00252184 0.02982 0)
(0.000841554 0.0299027 0)
(0.000518327 0.00426127 0)
(0.00155354 0.00429985 0)
(0.00258727 0.00437707 0)
(0.00361955 0.00449318 0)
(0.00464848 0.00464848 0)
(0.00567294 0.00484338 0)
(0.00669169 0.00507837 0)
(0.00770333 0.00535399 0)
(0.0087063 0.00567085 0)
(0.00969883 0.00602961 0)
(0.0106789 0.00643093 0)
(0.0116443 0.00687546 0)
(0.0125926 0.00736385 0)
(0.0135208 0.00789667 0)
(0.014426 0.00847441 0)
(0.0153048 0.00909744 0)
(0.0161535 0.00976599 0)
(0.016968 0.0104801 0)
(0.0177441 0.0112396 0)
(0.0184772 0.012044 0)
(0.0191623 0.0128926 0)
(0.0197944 0.0137844 0)
(0.0203681 0.0147179 0)
(0.020878 0.0156912 0)
(0.0213184 0.0167022 0)
(0.0216838 0.017748 0)
(0.0219684 0.0188255 0)
(0.0221668 0.0199309 0)
(0.0222737 0.0210599 0)
(0.022284 0.0222079 0)
(0.0221931 0.0233695 0)
(0.0219967 0.024539 0)
(0.0216915 0.0257101 0)
(0.0212744 0.0268761 0)
(0.0207434 0.0280299 0)
(0.0200974 0.0291641 0)
(0.019336 0.0302709 0)
(0.0184603 0.0313426 0)
(0.0174721 0.0323711 0)
(0.0163746 0.0333485 0)
(0.0151722 0.0342669 0)
(0.0138702 0.0351187 0)
(0.0124755 0.0358966 0)
(0.0109959 0.0365938 0)
(0.00944022 0.0372041 0)
(0.0078184 0.0377217 0)
(0.00614118 0.038142 0)
(0.00441978 0.038461 0)
(0.00266372 0.0386754 0)
(0.000888993 0.0387832 0)
(0.000539795 0.0051977 0)
(0.00161798 0.00524505 0)
(0.00269485 0.00533981 0)
(0.00377059 0.00548232 0)
(0.00484338 0.00567294 0)
(0.0059122 0.0059122 0)
(0.00697589 0.0062007 0)
(0.00803313 0.00653915 0)
(0.00908241 0.00692831 0)
(0.010122 0.00736901 0)
(0.0111499 0.0078621 0)
(0.0121638 0.00840843 0)
(0.0131613 0.0090088 0)
(0.0141394 0.00966398 0)
(0.0150949 0.0103746 0)
(0.0160244 0.0111412 0)
(0.0169239 0.0119641 0)
(0.0177892 0.0128434 0)
(0.0186158 0.0137789 0)
(0.0193986 0.0147701 0)
(0.0201326 0.0158162 0)
(0.0208122 0.016916 0)
(0.0214316 0.0180677 0)
(0.0219849 0.0192692 0)
(0.0224659 0.0205176 0)
(0.0228686 0.0218097 0)
(0.0231867 0.0231416 0)
(0.0234142 0.0245086 0)
(0.0235451 0.0259056 0)
(0.0235738 0.0273266 0)
(0.0234951 0.0287653 0)
(0.0233044 0.0302144 0)
(0.0229974 0.0316662 0)
(0.0225709 0.0331124 0)
(0.0220224 0.0345441 0)
(0.0213503 0.0359522 0)
(0.0205542 0.0373269 0)
(0.0196349 0.0386585 0)
(0.0185941 0.039937 0)
(0.0174352 0.0411524 0)
(0.0161626 0.0422949 0)
(0.0147822 0.0433549 0)
(0.0133011 0.0443233 0)
(0.0117277 0.0451914 0)
(0.0100716 0.0459513 0)
(0.00834344 0.0465962 0)
(0.00655496 0.0471197 0)
(0.00471831 0.047517 0)
(0.00284402 0.047784 0)
(0.000949278 0.0479182 0)
(0.000565671 0.00612731 0)
(0.00169565 0.00618353 0)
(0.00282454 0.00629606 0)
(0.00395268 0.00646529 0)
(0.00507837 0.00669169 0)
(0.0062007 0.00697589 0)
(0.00731864 0.00731864 0)
(0.00843094 0.00772079 0)
(0.00953617 0.00818331 0)
(0.0106326 0.00870721 0)
(0.0117183 0.00929354 0)
(0.012791 0.00994337 0)
(0.0138481 0.0106577 0)
(0.0148866 0.0114375 0)
(0.0159033 0.0122836 0)
(0.0168943 0.0131967 0)
(0.0178557 0.0141773 0)
(0.0187828 0.0152255 0)
(0.0196709 0.0163412 0)
(0.0205145 0.017524 0)
(0.0213082 0.0187729 0)
(0.0220459 0.0200865 0)
(0.0227213 0.0214628 0)
(0.0233279 0.0228994 0)
(0.023859 0.024393 0)
(0.0243077 0.0259396 0)
(0.0246672 0.0275348 0)
(0.0249308 0.029173 0)
(0.0250917 0.0308481 0)
(0.0251437 0.0325531 0)
(0.0250808 0.0342802 0)
(0.0248977 0.0360209 0)
(0.0245895 0.0377659 0)
(0.0241523 0.0395051 0)
(0.0235832 0.0412279 0)
(0.0228801 0.0429232 0)
(0.0220424 0.0445792 0)
(0.0210704 0.0461841 0)
(0.019966 0.0477258 0)
(0.0187325 0.0491921 0)
(0.0173747 0.0505711 0)
(0.0158986 0.051851 0)
(0.014312 0.0530207 0)
(0.012624 0.0540696 0)
(0.010845 0.0549881 0)
(0.00898676 0.0557677 0)
(0.00706199 0.0564007 0)
(0.00508412 0.0568811 0)
(0.00306496 0.057204 0)
(0.00102315 0.0573663 0)
(0.00059601 0.00704857 0)
(0.00178672 0.00711378 0)
(0.00297661 0.00724432 0)
(0.00416623 0.00744065 0)
(0.00535399 0.00770333 0)
(0.00653915 0.00803313 0)
(0.00772079 0.00843094 0)
(0.00889781 0.00889781 0)
(0.0100688 0.00943488 0)
(0.0112322 0.0100434 0)
(0.012386 0.0107246 0)
(0.013528 0.0114799 0)
(0.0146554 0.0123105 0)
(0.0157653 0.0132175 0)
(0.0168541 0.0142021 0)
(0.017918 0.0152651 0)
(0.0189526 0.0164072 0)
(0.0199531 0.0176286 0)
(0.0209143 0.0189295 0)
(0.0218303 0.0203093 0)
(0.0226951 0.021767 0)
(0.0235021 0.0233012 0)
(0.0242445 0.0249096 0)
(0.024915 0.0265895 0)
(0.0255062 0.0283371 0)
(0.0260104 0.0301481 0)
(0.0264201 0.032017 0)
(0.0267275 0.0339378 0)
(0.0269252 0.0359032 0)
(0.027006 0.037905 0)
(0.026963 0.0399342 0)
(0.02679 0.0419808 0)
(0.0264816 0.0440337 0)
(0.0260329 0.0460813 0)
(0.0254404 0.048111 0)
(0.0247016 0.0501095 0)
(0.0238152 0.052063 0)
(0.0227815 0.0539574 0)
(0.0216021 0.0557782 0)
(0.0202805 0.0575109 0)
(0.0188215 0.0591413 0)
(0.0172318 0.0606553 0)
(0.0155197 0.0620395 0)
(0.0136952 0.0632813 0)
(0.0117696 0.0643692 0)
(0.00975598 0.0652926 0)
(0.00766836 0.0660427 0)
(0.00552165 0.066612 0)
(0.00332922 0.0669948 0)
(0.00111151 0.0671871 0)
(0.000630877 0.00795981 0)
(0.0018914 0.00803414 0)
(0.00315141 0.00818295 0)
(0.0044117 0.00840678 0)
(0.00567085 0.0087063 0)
(0.00692831 0.00908241 0)
(0.00818331 0.00953617 0)
(0.00943488 0.0100688 0)
(0.0106818 0.0106818 0)
(0.0119224 0.0113764 0)
(0.0131548 0.0121544 0)
(0.0143769 0.0130173 0)
(0.0155857 0.0139665 0)
(0.0167783 0.0150037 0)
(0.0179509 0.01613 0)
(0.0190994 0.0173467 0)
(0.0202192 0.0186546 0)
(0.0213051 0.0200543 0)
(0.0223515 0.0215457 0)
(0.0233521 0.0231287 0)
(0.0243001 0.0248022 0)
(0.0251885 0.0265646 0)
(0.0260096 0.0284136 0)
(0.0267554 0.0303461 0)
(0.0274176 0.0323581 0)
(0.0279876 0.0344445 0)
(0.028457 0.0365995 0)
(0.0288169 0.0388158 0)
(0.0290589 0.0410854 0)
(0.0291748 0.043399 0)
(0.0291566 0.0457461 0)
(0.0289972 0.0481151 0)
(0.02869 0.0504935 0)
(0.0282296 0.0528674 0)
(0.0276113 0.0552224 0)
(0.0268322 0.057543 0)
(0.0258903 0.0598131 0)
(0.0247856 0.0620159 0)
(0.0235196 0.0641347 0)
(0.0220957 0.0661523 0)
(0.020519 0.0680518 0)
(0.0187968 0.0698168 0)
(0.016938 0.0714312 0)
(0.0149536 0.0728803 0)
(0.0128563 0.0741502 0)
(0.0106603 0.0752286 0)
(0.00838136 0.0761047 0)
(0.00603621 0.0767698 0)
(0.00364005 0.0772172 0)
(0.00121544 0.0774419 0)
(0.000670338 0.00885922 0)
(0.00200986 0.00894281 0)
(0.00334925 0.00911016 0)
(0.00468958 0.0093619 0)
(0.00602961 0.00969883 0)
(0.00736901 0.010122 0)
(0.00870721 0.0106326 0)
(0.0100434 0.0112322 0)
(0.0113764 0.0119224 0)
(0.0127049 0.0127049 0)
(0.0140269 0.0135816 0)
(0.0153401 0.0145543 0)
(0.0166418 0.0156249 0)
(0.0179288 0.0167953 0)
(0.0191972 0.018067 0)
(0.0204426 0.0194415 0)
(0.0216602 0.0209199 0)
(0.0228442 0.022503 0)
(0.0239887 0.0241912 0)
(0.0250867 0.0259841 0)
(0.026131 0.027881 0)
(0.0271136 0.0298802 0)
(0.028026 0.0319793 0)
(0.0288595 0.0341749 0)
(0.0296046 0.0364627 0)
(0.0302518 0.0388372 0)
(0.0307914 0.0412918 0)
(0.0312135 0.0438186 0)
(0.0315084 0.0464084 0)
(0.0316666 0.0490507 0)
(0.0316791 0.0517337 0)
(0.0315374 0.0544442 0)
(0.0312339 0.0571679 0)
(0.0307619 0.059889 0)
(0.030116 0.0625906 0)
(0.0292922 0.0652551 0)
(0.0282881 0.0678638 0)
(0.0271031 0.0703973 0)
(0.0257385 0.0728359 0)
(0.0241976 0.0751599 0)
(0.0224859 0.0773493 0)
(0.0206112 0.0793849 0)
(0.0185833 0.0812481 0)
(0.0164141 0.0829213 0)
(0.0141179 0.0843883 0)
(0.0117105 0.0856345 0)
(0.00920965 0.0866474 0)
(0.00663409 0.0874165 0)
(0.00400125 0.0879339 0)
(0.00133623 0.0881938 0)
(0.000714459 0.0097448 0)
(0.00214233 0.00983777 0)
(0.0035705 0.0100239 0)
(0.00500036 0.010304 0)
(0.00643093 0.0106789 0)
(0.0078621 0.0111499 0)
(0.00929354 0.0117183 0)
(0.0107246 0.012386 0)
(0.0121544 0.0131548 0)
(0.0135816 0.0140269 0)
(0.0150042 0.0150042 0)
(0.0164202 0.0160892 0)
(0.0178267 0.017284 0)
(0.0192203 0.0185909 0)
(0.020597 0.0200117 0)
(0.0219523 0.0215484 0)
(0.0232807 0.0232023 0)
(0.0245764 0.0249747 0)
(0.0258326 0.026866 0)
(0.0270419 0.0288764 0)
(0.0281962 0.031005 0)
(0.0292868 0.0332503 0)
(0.0303043 0.0356098 0)
(0.0312388 0.0380801 0)
(0.0320799 0.0406564 0)
(0.0328167 0.043333 0)
(0.0334383 0.0461024 0)
(0.0339334 0.0489561 0)
(0.034291 0.0518839 0)
(0.0345001 0.0548741 0)
(0.0345502 0.0579134 0)
(0.0344314 0.060987 0)
(0.0341348 0.0640785 0)
(0.0336523 0.0671703 0)
(0.0329775 0.070243 0)
(0.0321053 0.0732764 0)
(0.0310324 0.0762489 0)
(0.0297577 0.0791385 0)
(0.0282822 0.0819224 0)
(0.026609 0.0845775 0)
(0.0247441 0.0870809 0)
(0.0226956 0.0894101 0)
(0.0204744 0.0915435 0)
(0.0180938 0.0934604 0)
(0.0155695 0.095142 0)
(0.0129194 0.0965712 0)
(0.0101634 0.0977333 0)
(0.00732267 0.0986159 0)
(0.00441731 0.0992097 0)
(0.00147538 0.0995081 0)
(0.000763308 0.0106143 0)
(0.002289 0.0107168 0)
(0.00381549 0.0109221 0)
(0.00534455 0.0112309 0)
(0.00687546 0.0116443 0)
(0.00840843 0.0121638 0)
(0.00994337 0.012791 0)
(0.0114799 0.013528 0)
(0.0130173 0.0143769 0)
(0.0145543 0.0153401 0)
(0.0160892 0.0164202 0)
(0.0176199 0.0176199 0)
(0.0191435 0.0189418 0)
(0.0206564 0.0203884 0)
(0.0221547 0.0219623 0)
(0.0236332 0.0236657 0)
(0.0250865 0.0255004 0)
(0.026508 0.0274681 0)
(0.0278904 0.0295695 0)
(0.0292257 0.0318051 0)
(0.0305049 0.0341743 0)
(0.0317184 0.0366757 0)
(0.0328559 0.0393069 0)
(0.0339061 0.0420643 0)
(0.0348574 0.0449431 0)
(0.0356978 0.0479369 0)
(0.0364145 0.0510379 0)
(0.0369949 0.0542368 0)
(0.0374263 0.0575223 0)
(0.0376961 0.0608816 0)
(0.037792 0.0642998 0)
(0.0377026 0.0677606 0)
(0.0374172 0.0712455 0)
(0.0369263 0.0747345 0)
(0.0362221 0.0782058 0)
(0.0352982 0.0816363 0)
(0.0341503 0.0850017 0)
(0.0327766 0.0882764 0)
(0.0311774 0.0914344 0)
(0.0293561 0.0944492 0)
(0.0273186 0.0972942 0)
(0.0250738 0.0999434 0)
(0.0226336 0.102372 0)
(0.0200127 0.104555 0)
(0.0172287 0.106472 0)
(0.0143018 0.108101 0)
(0.0112543 0.109427 0)
(0.00811056 0.110434 0)
(0.00489347 0.111112 0)
(0.00163463 0.111453 0)
(0.000816946 0.0114654 0)
(0.00245006 0.0115776 0)
(0.00408455 0.0118021 0)
(0.00572262 0.0121401 0)
(0.00736385 0.0125926 0)
(0.0090088 0.0131613 0)
(0.0106577 0.0138481 0)
(0.0123105 0.0146554 0)
(0.0139665 0.0155857 0)
(0.0156249 0.0166418 0)
(0.017284 0.0178267 0)
(0.0189418 0.0191435 0)
(0.0205952 0.0205952 0)
(0.0222408 0.0221851 0)
(0.0238743 0.023916 0)
(0.0254904 0.0257907 0)
(0.0270832 0.0278117 0)
(0.0286455 0.0299809 0)
(0.0301696 0.0322996 0)
(0.0316466 0.0347686 0)
(0.0330668 0.0373878 0)
(0.0344194 0.0401559 0)
(0.0356929 0.0430707 0)
(0.036875 0.0461286 0)
(0.0379524 0.0493246 0)
(0.0389116 0.0526522 0)
(0.0397382 0.056103 0)
(0.0404178 0.0596669 0)
(0.0409358 0.0633318 0)
(0.0412777 0.0670835 0)
(0.0414292 0.0709059 0)
(0.0413771 0.0747806 0)
(0.0411086 0.0786871 0)
(0.0406126 0.082603 0)
(0.0398794 0.0865038 0)
(0.0389012 0.0903635 0)
(0.0376725 0.0941542 0)
(0.0361905 0.0978471 0)
(0.0344549 0.101412 0)
(0.0324688 0.104819 0)
(0.0302383 0.108037 0)
(0.0277731 0.111037 0)
(0.0250861 0.113788 0)
(0.0221938 0.116265 0)
(0.0191157 0.118439 0)
(0.0158748 0.12029 0)
(0.0124962 0.121796 0)
(0.00900772 0.12294 0)
(0.00543578 0.123711 0)
(0.00181603 0.124098 0)
(0.00087543 0.0122955 0)
(0.00262569 0.0124174 0)
(0.00437797 0.0126614 0)
(0.00613498 0.0130288 0)
(0.00789667 0.0135208 0)
(0.00966398 0.0141394 0)
(0.0114375 0.0148866 0)
(0.0132175 0.0157653 0)
(0.0150037 0.0167783 0)
(0.0167953 0.0179288 0)
(0.0185909 0.0192203 0)
(0.0203884 0.0206564 0)
(0.0221851 0.0222408 0)
(0.0239772 0.0239772 0)
(0.0257603 0.0258691 0)
(0.0275289 0.0279198 0)
(0.0292766 0.0301324 0)
(0.0309959 0.0325095 0)
(0.0326781 0.0350528 0)
(0.0343138 0.0377638 0)
(0.0358921 0.0406426 0)
(0.0374013 0.0436884 0)
(0.0388286 0.0468994 0)
(0.04016 0.0502719 0)
(0.0413811 0.0538011 0)
(0.0424761 0.05748 0)
(0.0434292 0.0613001 0)
(0.0442237 0.0652505 0)
(0.044843 0.0693183 0)
(0.0452702 0.073488 0)
(0.0454891 0.077742 0)
(0.0454838 0.0820601 0)
(0.0452396 0.0864196 0)
(0.0447431 0.0907954 0)
(0.0439826 0.0951604 0)
(0.0429485 0.0994849 0)
(0.0416339 0.103738 0)
(0.0400345 0.107886 0)
(0.0381494 0.111895 0)
(0.0359812 0.115731 0)
(0.0335363 0.119359 0)
(0.0308249 0.122743 0)
(0.0278613 0.125851 0)
(0.0246637 0.12865 0)
(0.021254 0.13111 0)
(0.0176582 0.133205 0)
(0.0139049 0.13491 0)
(0.0100257 0.136207 0)
(0.00605127 0.13708 0)
(0.00202194 0.137519 0)
(0.000938806 0.0131016 0)
(0.00281601 0.0132333 0)
(0.004696 0.0134971 0)
(0.00658199 0.0138941 0)
(0.00847441 0.014426 0)
(0.0103746 0.0150949 0)
(0.0122836 0.0159033 0)
(0.0142021 0.0168541 0)
(0.01613 0.0179509 0)
(0.018067 0.0191972 0)
(0.0200117 0.020597 0)
(0.0219623 0.0221547 0)
(0.023916 0.0238743 0)
(0.0258691 0.0257603 0)
(0.0278169 0.0278169 0)
(0.0297538 0.0300482 0)
(0.0316728 0.0324578 0)
(0.0335659 0.0350489 0)
(0.0354239 0.0378243 0)
(0.0372364 0.0407858 0)
(0.0389915 0.0439341 0)
(0.0406762 0.0472691 0)
(0.0422764 0.0507892 0)
(0.0437767 0.0544911 0)
(0.0451605 0.05837 0)
(0.0464106 0.062419 0)
(0.0475087 0.0666292 0)
(0.048436 0.0709891 0)
(0.0491733 0.075485 0)
(0.0497014 0.0801004 0)
(0.0500013 0.084816 0)
(0.0500546 0.0896098 0)
(0.049844 0.0944567 0)
(0.0493534 0.0993291 0)
(0.0485688 0.104197 0)
(0.0474785 0.109026 0)
(0.0460735 0.113782 0)
(0.0443481 0.118427 0)
(0.0423004 0.122923 0)
(0.0399323 0.12723 0)
(0.0372503 0.131308 0)
(0.0342652 0.135117 0)
(0.0309926 0.138618 0)
(0.0274528 0.141774 0)
(0.0236705 0.144551 0)
(0.0196748 0.146916 0)
(0.0154986 0.148843 0)
(0.0111779 0.15031 0)
(0.00674806 0.151297 0)
(0.00225508 0.151794 0)
(0.0010071 0.0138808 0)
(0.00302113 0.0140223 0)
(0.00503879 0.0143059 0)
(0.00706393 0.0147328 0)
(0.00909744 0.0153048 0)
(0.0111412 0.0160244 0)
(0.0131967 0.0168943 0)
(0.0152651 0.017918 0)
(0.0173467 0.0190994 0)
(0.0194415 0.0204426 0)
(0.0215484 0.0219523 0)
(0.0236657 0.0236332 0)
(0.0257907 0.0254904 0)
(0.0279198 0.0275289 0)
(0.0300482 0.0297538 0)
(0.0321698 0.0321698 0)
(0.0342774 0.0347815 0)
(0.0363624 0.0375929 0)
(0.038415 0.0406075 0)
(0.0404236 0.043828 0)
(0.0423755 0.0472559 0)
(0.0442564 0.0508916 0)
(0.0460506 0.054734 0)
(0.0477409 0.0587806 0)
(0.049309 0.0630265 0)
(0.0507353 0.0674651 0)
(0.0519993 0.0720873 0)
(0.0530796 0.0768812 0)
(0.0539542 0.0818324 0)
(0.0546012 0.0869231 0)
(0.0549984 0.0921328 0)
(0.0551245 0.0974374 0)
(0.054959 0.10281 0)
(0.0544829 0.108219 0)
(0.0536793 0.113631 0)
(0.0525338 0.119009 0)
(0.0510352 0.124315 0)
(0.0491759 0.129504 0)
(0.0469525 0.134534 0)
(0.0443661 0.13936 0)
(0.0414231 0.143935 0)
(0.0381348 0.148213 0)
(0.0345184 0.15215 0)
(0.0305962 0.155703 0)
(0.0263961 0.158831 0)
(0.0219511 0.161499 0)
(0.0172985 0.163674 0)
(0.0124796 0.165329 0)
(0.00753553 0.166444 0)
(0.0025186 0.167006 0)
(0.00108034 0.0146296 0)
(0.00324111 0.014781 0)
(0.00540646 0.0150844 0)
(0.00758094 0.0155412 0)
(0.00976599 0.0161535 0)
(0.0119641 0.0169239 0)
(0.0141773 0.0178557 0)
(0.0164072 0.0189526 0)
(0.0186546 0.0202192 0)
(0.0209199 0.0216602 0)
(0.0232023 0.0232807 0)
(0.0255004 0.0250865 0)
(0.0278117 0.0270832 0)
(0.0301324 0.0292766 0)
(0.0324578 0.0316728 0)
(0.0347815 0.0342774 0)
(0.0370959 0.0370959 0)
(0.039392 0.0401334 0)
(0.041659 0.0433942 0)
(0.0438847 0.046882 0)
(0.046055 0.0505991 0)
(0.0481544 0.054547 0)
(0.0501654 0.0587253 0)
(0.0520692 0.0631319 0)
(0.0538451 0.0677627 0)
(0.0554714 0.0726112 0)
(0.0569248 0.0776682 0)
(0.058181 0.0829219 0)
(0.0592152 0.0883569 0)
(0.0600018 0.0939549 0)
(0.0605156 0.0996936 0)
(0.0607314 0.105547 0)
(0.0606253 0.111486 0)
(0.0601748 0.117476 0)
(0.0593596 0.12348 0)
(0.0581621 0.129457 0)
(0.0565682 0.135362 0)
(0.0545679 0.141148 0)
(0.052156 0.146766 0)
(0.0493326 0.152164 0)
(0.0461034 0.157288 0)
(0.0424806 0.162088 0)
(0.0384825 0.166509 0)
(0.0341341 0.170504 0)
(0.0294666 0.174026 0)
(0.0245172 0.177031 0)
(0.0193289 0.179483 0)
(0.0139487 0.181351 0)
(0.00842455 0.182609 0)
(0.00281615 0.183243 0)
(0.00115852 0.0153446 0)
(0.00347592 0.0155058 0)
(0.00579899 0.015829 0)
(0.00813302 0.0163156 0)
(0.0104801 0.016968 0)
(0.0128434 0.0177892 0)
(0.0152255 0.0187828 0)
(0.0176286 0.0199531 0)
(0.0200543 0.0213051 0)
(0.022503 0.0228442 0)
(0.0249747 0.0245764 0)
(0.0274681 0.026508 0)
(0.0299809 0.0286455 0)
(0.0325095 0.0309959 0)
(0.0350489 0.0335659 0)
(0.0375929 0.0363624 0)
(0.0401334 0.039392 0)
(0.0426607 0.0426607 0)
(0.0451635 0.0461742 0)
(0.0476285 0.0499371 0)
(0.0500406 0.053953 0)
(0.0523826 0.0582243 0)
(0.0546354 0.0627516 0)
(0.0567783 0.0675338 0)
(0.0587882 0.0725674 0)
(0.0606409 0.0778465 0)
(0.06231 0.0833622 0)
(0.0637683 0.0891024 0)
(0.0649873 0.0950516 0)
(0.0659378 0.10119 0)
(0.0665906 0.107495 0)
(0.0669165 0.113939 0)
(0.0668875 0.120488 0)
(0.0664769 0.127107 0)
(0.0656602 0.133755 0)
(0.0644162 0.140384 0)
(0.0627272 0.146947 0)
(0.0605802 0.15339 0)
(0.0579678 0.159655 0)
(0.0548883 0.165685 0)
(0.0513469 0.17142 0)
(0.0473559 0.176799 0)
(0.0429354 0.181761 0)
(0.0381126 0.186251 0)
(0.0329229 0.190212 0)
(0.0274083 0.193596 0)
(0.0216179 0.19636 0)
(0.0156058 0.198466 0)
(0.00942772 0.199886 0)
(0.00315198 0.200601 0)
(0.00124159 0.0160219 0)
(0.00372549 0.0161929 0)
(0.00621623 0.0165356 0)
(0.00872 0.0170518 0)
(0.0112396 0.0177441 0)
(0.0137789 0.0186158 0)
(0.0163412 0.0196709 0)
(0.0189295 0.0209143 0)
(0.0215457 0.0223515 0)
(0.0241912 0.0239887 0)
(0.026866 0.0258326 0)
(0.0295695 0.0278904 0)
(0.0322996 0.0301696 0)
(0.0350528 0.0326781 0)
(0.0378243 0.0354239 0)
(0.0406075 0.038415 0)
(0.0433942 0.041659 0)
(0.0461742 0.0451635 0)
(0.0489354 0.0489354 0)
(0.0516635 0.0529805 0)
(0.0543423 0.057304 0)
(0.056953 0.0619094 0)
(0.0594749 0.0667987 0)
(0.061885 0.0719718 0)
(0.0641578 0.0774262 0)
(0.0662661 0.0831567 0)
(0.0681807 0.0891552 0)
(0.0698705 0.0954098 0)
(0.0713032 0.101905 0)
(0.0724457 0.10862 0)
(0.073264 0.115531 0)
(0.0737244 0.122608 0)
(0.0737939 0.129817 0)
(0.0734411 0.137118 0)
(0.0726366 0.144464 0)
(0.0713547 0.151807 0)
(0.0695733 0.159091 0)
(0.0672759 0.166255 0)
(0.0644518 0.173236 0)
(0.0610973 0.179967 0)
(0.0572165 0.18638 0)
(0.0528218 0.192405 0)
(0.0479345 0.197972 0)
(0.042585 0.203016 0)
(0.0368125 0.207472 0)
(0.0306649 0.211283 0)
(0.0241983 0.214398 0)
(0.017475 0.216773 0)
(0.0105597 0.218376 0)
(0.00353099 0.219183 0)
(0.00132951 0.0166576 0)
(0.00398963 0.0168382 0)
(0.00665793 0.0172002 0)
(0.00934152 0.0177456 0)
(0.012044 0.0184772 0)
(0.0147701 0.0193986 0)
(0.017524 0.0205145 0)
(0.0203093 0.0218303 0)
(0.0231287 0.0233521 0)
(0.0259841 0.0250867 0)
(0.0288764 0.0270419 0)
(0.0318051 0.0292257 0)
(0.0347686 0.0316466 0)
(0.0377638 0.0343138 0)
(0.0407858 0.0372364 0)
(0.043828 0.0404236 0)
(0.046882 0.0438847 0)
(0.0499371 0.0476285 0)
(0.0529805 0.0516635 0)
(0.0559972 0.0559972 0)
(0.0589695 0.0606362 0)
(0.0618772 0.0655856 0)
(0.0646978 0.0708489 0)
(0.0674057 0.0764275 0)
(0.0699732 0.0823204 0)
(0.0723699 0.0885233 0)
(0.074563 0.095029 0)
(0.0765177 0.101826 0)
(0.0781974 0.108899 0)
(0.0795641 0.116228 0)
(0.0805789 0.123787 0)
(0.0812026 0.131545 0)
(0.0813968 0.139465 0)
(0.0811242 0.147504 0)
(0.0803499 0.155612 0)
(0.0790424 0.163734 0)
(0.0771747 0.171808 0)
(0.0747255 0.179768 0)
(0.0716803 0.187541 0)
(0.0680324 0.195051 0)
(0.0637843 0.202219 0)
(0.0589482 0.208966 0)
(0.0535464 0.215212 0)
(0.0476124 0.220879 0)
(0.0411902 0.225893 0)
(0.034334 0.230187 0)
(0.027108 0.233699 0)
(0.0195841 0.23638 0)
(0.0118375 0.238189 0)
(0.00395894 0.239101 0)
(0.00142219 0.0172474 0)
(0.00426809 0.0174374 0)
(0.00712363 0.0178183 0)
(0.00999698 0.0183922 0)
(0.0128926 0.0191623 0)
(0.0158162 0.0201326 0)
(0.0187729 0.0213082 0)
(0.021767 0.0226951 0)
(0.0248022 0.0243001 0)
(0.027881 0.026131 0)
(0.031005 0.0281962 0)
(0.0341743 0.0305049 0)
(0.0373878 0.0330668 0)
(0.0406426 0.0358921 0)
(0.0439341 0.0389915 0)
(0.0472559 0.0423755 0)
(0.0505991 0.046055 0)
(0.053953 0.0500406 0)
(0.057304 0.0543423 0)
(0.0606362 0.0589695 0)
(0.0639306 0.0639306 0)
(0.0671658 0.0692328 0)
(0.0703169 0.0748813 0)
(0.0733564 0.0808793 0)
(0.0762536 0.0872274 0)
(0.0789748 0.0939231 0)
(0.0814836 0.10096 0)
(0.0837409 0.108329 0)
(0.0857052 0.116014 0)
(0.0873334 0.123994 0)
(0.0885808 0.132245 0)
(0.0894022 0.140733 0)
(0.0897526 0.14942 0)
(0.089588 0.158258 0)
(0.0888669 0.167195 0)
(0.087551 0.176169 0)
(0.0856071 0.185112 0)
(0.0830081 0.193949 0)
(0.0797346 0.202599 0)
(0.075776 0.210975 0)
(0.0711324 0.218988 0)
(0.065815 0.226545 0)
(0.0598474 0.233554 0)
(0.0532659 0.239924 0)
(0.0461197 0.245569 0)
(0.0384704 0.250409 0)
(0.0303913 0.254373 0)
(0.0219657 0.257401 0)
(0.0132811 0.259447 0)
(0.00444255 0.260478 0)
(0.0015195 0.0177871 0)
(0.00456047 0.0179862 0)
(0.00761272 0.0183853 0)
(0.0106855 0.0189869 0)
(0.0137844 0.0197944 0)
(0.016916 0.0208122 0)
(0.0200865 0.0220459 0)
(0.0233012 0.0235021 0)
(0.0265646 0.0251885 0)
(0.0298802 0.0271136 0)
(0.0332503 0.0292868 0)
(0.0366757 0.0317184 0)
(0.0401559 0.0344194 0)
(0.0436884 0.0374013 0)
(0.0472691 0.0406762 0)
(0.0508916 0.0442564 0)
(0.054547 0.0481544 0)
(0.0582243 0.0523826 0)
(0.0619094 0.056953 0)
(0.0655856 0.0618772 0)
(0.0692328 0.0671658 0)
(0.0728279 0.0728279 0)
(0.0763442 0.0788711 0)
(0.0797518 0.0853009 0)
(0.083017 0.09212 0)
(0.0861028 0.0993279 0)
(0.0889687 0.10692 0)
(0.0915709 0.114888 0)
(0.0938629 0.123218 0)
(0.0957955 0.13189 0)
(0.0973177 0.140878 0)
(0.0983773 0.150149 0)
(0.0989217 0.159661 0)
(0.0988994 0.169365 0)
(0.0982607 0.179203 0)
(0.0969594 0.189109 0)
(0.0949547 0.199007 0)
(0.0922123 0.208813 0)
(0.0887064 0.218436 0)
(0.0844217 0.227778 0)
(0.0793544 0.236735 0)
(0.0735143 0.245203 0)
(0.0669256 0.253073 0)
(0.0596276 0.260239 0)
(0.0516751 0.2666 0)
(0.0431379 0.272062 0)
(0.0341002 0.276541 0)
(0.024658 0.279966 0)
(0.014914 0.282282 0)
(0.00498973 0.283449 0)
(0.00162126 0.0182721 0)
(0.0048663 0.0184799 0)
(0.00812437 0.0188966 0)
(0.011406 0.0195248 0)
(0.0147179 0.0203681 0)
(0.0180677 0.0214316 0)
(0.0214628 0.0227213 0)
(0.0249096 0.0242445 0)
(0.0284136 0.0260096 0)
(0.0319793 0.028026 0)
(0.0356098 0.0303043 0)
(0.0393069 0.0328559 0)
(0.0430707 0.0356929 0)
(0.0468994 0.0388286 0)
(0.0507892 0.0422764 0)
(0.054734 0.0460506 0)
(0.0587253 0.0501654 0)
(0.0627516 0.0546354 0)
(0.0667987 0.0594749 0)
(0.0708489 0.0646978 0)
(0.0748813 0.0703169 0)
(0.0788711 0.0763442 0)
(0.0827899 0.0827899 0)
(0.0866053 0.0896621 0)
(0.0902805 0.0969662 0)
(0.0937751 0.104704 0)
(0.0970441 0.112874 0)
(0.100039 0.121469 0)
(0.102707 0.130478 0)
(0.104993 0.139881 0)
(0.106839 0.149653 0)
(0.108185 0.15976 0)
(0.108969 0.17016 0)
(0.10913 0.1808 0)
(0.108611 0.191619 0)
(0.107354 0.202543 0)
(0.105311 0.213491 0)
(0.102437 0.224368 0)
(0.0986995 0.235072 0)
(0.0940758 0.245492 0)
(0.0885576 0.25551 0)
(0.0821521 0.265003 0)
(0.0748832 0.273847 0)
(0.0667932 0.281917 0)
(0.057943 0.289094 0)
(0.0484117 0.295267 0)
(0.0382956 0.300336 0)
(0.0277063 0.304216 0)
(0.0167639 0.306842 0)
(0.0056098 0.308166 0)
(0.00172728 0.018698 0)
(0.00518492 0.018914 0)
(0.00865754 0.0193472 0)
(0.012157 0.0200006 0)
(0.0156912 0.020878 0)
(0.0192692 0.0219849 0)
(0.0228994 0.0233279 0)
(0.0265895 0.024915 0)
(0.0303461 0.0267554 0)
(0.0341749 0.0288595 0)
(0.0380801 0.0312388 0)
(0.0420643 0.0339061 0)
(0.0461286 0.036875 0)
(0.0502719 0.04016 0)
(0.0544911 0.0437767 0)
(0.0587806 0.0477409 0)
(0.0631319 0.0520692 0)
(0.0675338 0.0567783 0)
(0.0719718 0.061885 0)
(0.0764275 0.0674057 0)
(0.0808793 0.0733564 0)
(0.0853009 0.0797518 0)
(0.0896621 0.0866053 0)
(0.093928 0.093928 0)
(0.0980591 0.101729 0)
(0.102011 0.110013 0)
(0.105734 0.118781 0)
(0.109175 0.12803 0)
(0.112275 0.137749 0)
(0.114971 0.147923 0)
(0.117197 0.158526 0)
(0.118884 0.169526 0)
(0.119962 0.180879 0)
(0.120358 0.19253 0)
(0.120004 0.204414 0)
(0.118832 0.216452 0)
(0.116779 0.228554 0)
(0.113794 0.240616 0)
(0.109831 0.252523 0)
(0.10486 0.264149 0)
(0.0988652 0.275359 0)
(0.0918506 0.28601 0)
(0.0838388 0.295958 0)
(0.0748746 0.305058 0)
(0.0650251 0.313168 0)
(0.0543799 0.320156 0)
(0.0430497 0.325903 0)
(0.031164 0.330308 0)
(0.0188636 0.333292 0)
(0.00631387 0.334797 0)
(0.0018373 0.0190599 0)
(0.00551559 0.0192836 0)
(0.00921095 0.0197324 0)
(0.0129368 0.0204092 0)
(0.0167022 0.0213184 0)
(0.0205176 0.0224659 0)
(0.024393 0.023859 0)
(0.0283371 0.0255062 0)
(0.0323581 0.0274176 0)
(0.0364627 0.0296046 0)
(0.0406564 0.0320799 0)
(0.0449431 0.0348574 0)
(0.0493246 0.0379524 0)
(0.0538011 0.0413811 0)
(0.05837 0.0451605 0)
(0.0630265 0.049309 0)