/*--------------------------------*- C++ -*----------------------------------*\
| =========                 |                                                 |
| \\      /  F ield         | OpenFOAM: The Open Source CFD Toolbox           |
|  \\    /   O peration     | Version:  2406                                  |
|   \\  /    A nd           | Website:  www.openfoam.com                      |
|    \\/     M anipulation  |                                                 |
\*---------------------------------------------------------------------------*/
FoamFile
{
    version     2.0;
    format      ascii;
    arch        "LSB;label=32;scalar=64";
    class       volScalarField;
    location    "1.4";
    object      gradTy;
}
// * * * * * * * * * * * * * * * * * * * * * * * * * * * * * * * * * * * * * //

dimensions      [0 -1 0 1 0 0 0];

internalField   nonuniform List<scalar> 
2500
(
0.00475678
0.00479879
0.00488411
0.00501213
0.00518327
0.00539795
0.00565671
0.0059601
0.00630877
0.00670338
0.00714459
0.00763308
0.00816946
0.0087543
0.00938806
0.010071
0.0108034
0.0115852
0.0124159
0.0132951
0.0142219
0.015195
0.0162126
0.0172728
0.018373
0.01951
0.0206802
0.0218797
0.0231036
0.0243469
0.0256037
0.0268677
0.0281322
0.0293901
0.0306336
0.0318548
0.0330456
0.0341975
0.0353021
0.036351
0.0373359
0.0382487
0.0390819
0.0398284
0.0404815
0.0410356
0.041486
0.0418284
0.0420583
0.0421638
0.0142545
0.0143819
0.0146376
0.0150218
0.0155354
0.0161798
0.0169565
0.0178672
0.018914
0.0200986
0.0214233
0.02289
0.0245006
0.0262569
0.0281601
0.0302113
0.0324111
0.0347592
0.0372549
0.0398963
0.0426809
0.0456047
0.048663
0.0518492
0.0551559
0.0585737
0.0620919
0.0656981
0.0693784
0.0731171
0.0768969
0.0806989
0.0845028
0.0882869
0.0920282
0.095703
0.0992863
0.102753
0.106078
0.109235
0.1122
0.114948
0.117457
0.119704
0.12167
0.123339
0.124695
0.125726
0.126425
0.126762
0.0237342
0.0239475
0.0243741
0.0250153
0.0258727
0.0269485
0.0282454
0.0297661
0.0315141
0.0334925
0.035705
0.0381549
0.0408455
0.0437797
0.04696
0.0503879
0.0540646
0.0579899
0.0621623
0.0665793
0.0712363
0.0761272
0.0812437
0.0865754
0.0921095
0.0978307
0.103721
0.10976
0.115924
0.122188
0.128521
0.134893
0.141269
0.147613
0.153887
0.16005
0.166062
0.171878
0.177457
0.182756
0.187732
0.192346
0.196558
0.200331
0.203633
0.206434
0.20871
0.210439
0.211609
0.212193
0.0331941
0.0334933
0.0340919
0.0349918
0.0361955
0.0377059
0.0395268
0.0416623
0.044117
0.0468958
0.0500036
0.0534455
0.0572262
0.0613498
0.0658199
0.0706393
0.0758094
0.0813302
0.0872
0.0934152
0.0999698
0.106855
0.11406
0.12157
0.129368
0.137431
0.145735
0.154251
0.162946
0.171784
0.180722
0.189718
0.198723
0.207685
0.21655
0.225261
0.233759
0.241984
0.249875
0.257372
0.264414
0.270944
0.276906
0.282249
0.286924
0.29089
0.294111
0.296555
0.2982
0.299027
0.0426127
0.0429985
0.0437707
0.0449318
0.0464848
0.0484338
0.0507837
0.0535399
0.0567085
0.0602961
0.0643093
0.0687546
0.0736385
0.0789667
0.0847441
0.0909744
0.0976599
0.104801
0.112396
0.12044
0.128926
0.137844
0.147179
0.156912
0.167022
0.17748
0.188255
0.199309
0.210599
0.222079
0.233695
0.24539
0.257101
0.268761
0.280299
0.291641
0.302709
0.313426
0.323711
0.333485
0.342669
0.351187
0.358966
0.365938
0.372041
0.377217
0.38142
0.38461
0.386754
0.387832
0.051977
0.0524505
0.0533981
0.0548232
0.0567294
0.059122
0.062007
0.0653915
0.0692831
0.0736901
0.078621
0.0840843
0.090088
0.0966398
0.103746
0.111412
0.119641
0.128434
0.137789
0.147701
0.158162
0.16916
0.180677
0.192692
0.205176
0.218097
0.231416
0.245086
0.259056
0.273266
0.287653
0.302144
0.316662
0.331124
0.345441
0.359522
0.373269
0.386585
0.39937
0.411524
0.422949
0.433549
0.443233
0.451914
0.459513
0.465962
0.471197
0.47517
0.47784
0.479182
0.0612731
0.0618353
0.0629606
0.0646529
0.0669169
0.0697589
0.0731864
0.0772079
0.0818331
0.0870721
0.0929354
0.0994337
0.106577
0.114375
0.122836
0.131967
0.141773
0.152255
0.163412
0.17524
0.187729
0.200865
0.214628
0.228994
0.24393
0.259396
0.275348
0.29173
0.308481
0.325531
0.342802
0.360209
0.377659
0.395051
0.412279
0.429232
0.445792
0.461841
0.477258
0.491921
0.505711
0.51851
0.530207
0.540696
0.549881
0.557677
0.564007
0.568811
0.57204
0.573663
0.0704857
0.0711378
0.0724432
0.0744065
0.0770333
0.0803313
0.0843094
0.0889781
0.0943488
0.100434
0.107246
0.114799
0.123105
0.132175
0.142021
0.152651
0.164072
0.176286
0.189295
0.203093
0.21767
0.233012
0.249096
0.265895
0.283371
0.301481
0.32017
0.339378
0.359032
0.37905
0.399342
0.419808
0.440337
0.460813
0.48111
0.501095
0.52063
0.539574
0.557782
0.575109
0.591413
0.606553
0.620395
0.632813
0.643692
0.652926
0.660427
0.66612
0.669948
0.671871
0.0795981
0.0803414
0.0818295
0.0840678
0.087063
0.0908241
0.0953617
0.100688
0.106818
0.113764
0.121544
0.130173
0.139665
0.150037
0.1613
0.173467
0.186546
0.200543
0.215457
0.231287
0.248022
0.265646
0.284136
0.303461
0.323581
0.344445
0.365995
0.388158
0.410854
0.43399
0.457461
0.481151
0.504935
0.528674
0.552224
0.57543
0.598131
0.620159
0.641347
0.661523
0.680518
0.698168
0.714312
0.728803
0.741502
0.752286
0.761047
0.767698
0.772172
0.774419
0.0885922
0.0894281
0.0911016
0.093619
0.0969883
0.10122
0.106326
0.112322
0.119224
0.127049
0.135816
0.145543
0.156249
0.167953
0.18067
0.194415
0.209199
0.22503
0.241912
0.259841
0.27881
0.298802
0.319793
0.341749
0.364627
0.388372
0.412918
0.438186
0.464084
0.490507
0.517337
0.544442
0.571679
0.59889
0.625906
0.652551
0.678638
0.703973
0.728359
0.751599
0.773493
0.793849
0.812481
0.829213
0.843883
0.856345
0.866474
0.874165
0.879339
0.881938
0.097448
0.0983777
0.100239
0.10304
0.106789
0.111499
0.117183
0.12386
0.131548
0.140269
0.150042
0.160892
0.17284
0.185909
0.200117
0.215484
0.232023
0.249747
0.26866
0.288764
0.31005
0.332503
0.356098
0.380801
0.406564
0.43333
0.461024
0.489561
0.518839
0.548741
0.579134
0.60987
0.640785
0.671703
0.70243
0.732764
0.762489
0.791385
0.819224
0.845775
0.870809
0.894101
0.915435
0.934604
0.95142
0.965712
0.977333
0.986159
0.992097
0.995081
0.106143
0.107168
0.109221
0.112309
0.116443
0.121638
0.12791
0.13528
0.143769
0.153401
0.164202
0.176199
0.189418
0.203884
0.219623
0.236657
0.255004
0.274681
0.295695
0.318051
0.341743
0.366757
0.393069
0.420643
0.449431
0.479369
0.510379
0.542368
0.575223
0.608816
0.642998
0.677606
0.712455
0.747345
0.782058
0.816363
0.850017
0.882764
0.914344
0.944492
0.972942
0.999434
1.02372
1.04555
1.06472
1.08101
1.09427
1.10434
1.11112
1.11453
0.114654
0.115776
0.118021
0.121401
0.125926
0.131613
0.138481
0.146554
0.155857
0.166418
0.178267
0.191435
0.205952
0.221851
0.23916
0.257907
0.278117
0.299809
0.322996
0.347686
0.373878
0.401559
0.430707
0.461286
0.493246
0.526522
0.56103
0.596669
0.633318
0.670835
0.709059
0.747806
0.786871
0.82603
0.865038
0.903635
0.941542
0.978471
1.01412
1.04819
1.08037
1.11037
1.13788
1.16265
1.18439
1.2029
1.21796
1.2294
1.23711
1.24098
0.122955
0.124174
0.126614
0.130288
0.135208
0.141394
0.148866
0.157653
0.167783
0.179288
0.192203
0.206564
0.222408
0.239772
0.258691
0.279198
0.301324
0.325095
0.350528
0.377638
0.406426
0.436884
0.468994
0.502719
0.538011
0.5748
0.613001
0.652505
0.693183
0.73488
0.77742
0.820601
0.864196
0.907954
0.951604
0.994849
1.03738
1.07886
1.11895
1.15731
1.19359
1.22743
1.25851
1.2865
1.3111
1.33205
1.3491
1.36207
1.3708
1.37519
0.131016
0.132333
0.134971
0.138941
0.14426
0.150949
0.159033
0.168541
0.179509
0.191972
0.20597
0.221547
0.238743
0.257603
0.278169
0.300482
0.324578
0.350489
0.378243
0.407858
0.439341
0.472691
0.507892
0.544911
0.5837
0.62419
0.666292
0.709891
0.75485
0.801004
0.84816
0.896098
0.944567
0.993291
1.04197
1.09026
1.13782
1.18427
1.22923
1.2723
1.31308
1.35117
1.38618
1.41774
1.44551
1.46916
1.48843
1.5031
1.51297
1.51794
0.138808
0.140223
0.143059
0.147328
0.153048
0.160244
0.168943
0.17918
0.190994
0.204426
0.219523
0.236332
0.254904
0.275289
0.297538
0.321698
0.347815
0.375929
0.406075
0.43828
0.472559
0.508916
0.54734
0.587806
0.630265
0.674651
0.720873
0.768812
0.818324
0.869231
0.921328
0.974374
1.0281
1.08219
1.13631
1.19009
1.24315
1.29504
1.34534
1.3936
1.43935
1.48213
1.5215
1.55703
1.58831
1.61499
1.63674
1.65329
1.66444
1.67006
0.146296
0.14781
0.150844
0.155412
0.161535
0.169239
0.178557
0.189526
0.202192
0.216602
0.232807
0.250865
0.270832
0.292766
0.316728
0.342774
0.370959
0.401334
0.433942
0.46882
0.505991
0.54547
0.587253
0.631319
0.677627
0.726112
0.776682
0.829219
0.883569
0.939549
0.996936
1.05547
1.11486
1.17476
1.2348
1.29457
1.35362
1.41148
1.46766
1.52164
1.57288
1.62088
1.66509
1.70504
1.74026
1.77031
1.79483
1.81351
1.82609
1.83243
0.153446
0.155058
0.15829
0.163156
0.16968
0.177892
0.187828
0.199531
0.213051
0.228442
0.245764
0.26508
0.286455
0.309959
0.335659
0.363624
0.39392
0.426607
0.461742
0.499371
0.53953
0.582243
0.627516
0.675338
0.725674
0.778465
0.833622
0.891024
0.950516
1.0119
1.07495
1.13939
1.20488
1.27107
1.33755
1.40384
1.46947
1.5339
1.59655
1.65685
1.7142
1.76799
1.81761
1.86251
1.90212
1.93596
1.9636
1.98466
1.99886
2.00601
0.160219
0.161929
0.165356
0.170518
0.177441
0.186158
0.196709
0.209143
0.223515
0.239887
0.258326
0.278904
0.301696
0.326781
0.354239
0.38415
0.41659
0.451635
0.489354
0.529805
0.57304
0.619094
0.667987
0.719718
0.774262
0.831567
0.891552
0.954098
1.01905
1.0862
1.15531
1.22608
1.29817
1.37118
1.44464
1.51807
1.59091
1.66255
1.73236
1.79967
1.8638
1.92405
1.97972
2.03016
2.07472
2.11283
2.14398
2.16773
2.18376
2.19183
0.166576
0.168382
0.172002
0.177456
0.184772
0.193986
0.205145
0.218303
0.233521
0.250867
0.270419
0.292257
0.316466
0.343138
0.372364
0.404236
0.438847
0.476285
0.516635
0.559972
0.606362
0.655856
0.708489
0.764275
0.823204
0.885233
0.95029
1.01826
1.08899
1.16228
1.23787
1.31545
1.39465
1.47504
1.55612
1.63734
1.71808
1.79768
1.87541
1.95051
2.02219
2.08966
2.15212
2.20879
2.25893
2.30187
2.33699
2.3638
2.38189
2.39101
0.172474
0.174374
0.178183
0.183922
0.191623
0.201326
0.213082
0.226951
0.243001
0.26131
0.281962
0.305049
0.330668
0.358921
0.389915
0.423755
0.46055
0.500406
0.543423
0.589695
0.639306
0.692328
0.748813
0.808793
0.872274
0.939231
1.0096
1.08329
1.16014
1.23994
1.32245
1.40733
1.4942
1.58258
1.67195
1.76169
1.85112
1.93949
2.02599
2.10975
2.18988
2.26545
2.33554
2.39924
2.45569
2.50409
2.54373
2.57401
2.59447
2.60478
0.177871
0.179862
0.183853
0.189869
0.197944
0.208122
0.220459
0.235021
0.251885
0.271136
0.292868
0.317184
0.344194
0.374013
0.406762
0.442564
0.481544
0.523826
0.56953
0.618772
0.671658
0.728279
0.788711
0.853009
0.9212
0.993279
1.0692
1.14888
1.23218
1.3189
1.40878
1.50149
1.59661
1.69365
1.79203
1.89109
1.99007
2.08813
2.18436
2.27778
2.36735
2.45203
2.53073
2.60239
2.666
2.72062
2.76541
2.79966
2.82282
2.83449
0.182721
0.184799
0.188966
0.195248
0.203681
0.214316
0.227213
0.242445
0.260096
0.28026
0.303043
0.328559
0.356929
0.388286
0.422764
0.460506
0.501654
0.546354
0.594749
0.646978
0.703169
0.763442
0.827899
0.896621
0.969662
1.04704
1.12874
1.21469
1.30478
1.39881
1.49653
1.5976
1.7016
1.808
1.91619
2.02543
2.13491
2.24368
2.35072
2.45492
2.5551
2.65003
2.73847
2.81917
2.89094
2.95267
3.00336
3.04216
3.06842
3.08166
0.18698
0.18914
0.193472
0.200006
0.20878
0.219849
0.233279
0.24915
0.267554
0.288595
0.312388
0.339061
0.36875
0.4016
0.437767
0.477409
0.520692
0.567783
0.61885
0.674057
0.733564
0.797518
0.866053
0.93928
1.01729
1.10013
1.18781
1.2803
1.37749
1.47923
1.58526
1.69526
1.80879
1.9253
2.04414
2.16452
2.28554
2.40616
2.52523
2.64149
2.75359
2.8601
2.95958
3.05058
3.13168
3.20156
3.25903
3.30308
3.33292
3.34797
0.190599
0.192836
0.197324
0.204092
0.213184
0.224659
0.23859
0.255062
0.274176
0.296046
0.320799
0.348574
0.379524
0.413811
0.451605
0.49309
0.538451
0.587882
0.641578
0.699732
0.762536
0.83017
0.902805
0.980591
1.06365
1.15208
1.24592
1.34518
1.4498
1.55963
1.67445
1.79394
1.91767
2.04509
2.17549
2.30804
2.44175
2.57549
2.70795
2.83771
2.96323
3.08287
3.19492
3.29769
3.3895
3.46877
3.53408
3.58421
3.61819
3.63534
0.193534
0.195842
0.20047
0.207453
0.216838
0.228686
0.243077
0.260104
0.279876
0.302518
0.328167
0.356978
0.389116
0.424761
0.464106
0.507353
0.554714
0.606409
0.662661
0.723699
0.789748
0.861028
0.937751
1.02011
1.10827
1.20238
1.30253
1.40877
1.52108
1.63937
1.76344
1.893
2.02763
2.16677
2.3097
2.45553
2.6032
2.75144
2.89883
3.04374
3.18442
3.31895
3.44537
3.56164
3.66579
3.75593
3.83034
3.88754
3.92635
3.94596
0.195739
0.198109
0.202864
0.210039
0.219684
0.231867
0.246672
0.264201
0.28457
0.307914
0.334383
0.364145
0.397382
0.434292
0.475087
0.519993
0.569248
0.6231
0.681807
0.74563
0.814836
0.889687
0.970441
1.05734
1.15061
1.25045
1.357
1.47038
1.59063
1.7177
1.85146
1.99165
2.13788
2.28959
2.44606
2.60637
2.76936
2.93367
3.0977
3.25964
3.41746
3.56896
3.71182
3.84366
3.9621
4.06487
4.14989
4.21536
4.25985
4.28234
0.197171
0.199594
0.204457
0.211797
0.221668
0.234142
0.249308
0.267275
0.288169
0.312135
0.339334
0.369949
0.404178
0.442237
0.48436
0.530796
0.58181
0.637683
0.698705
0.765177
0.837409
0.915709
1.00039
1.09175
1.19007
1.29562
1.40862
1.52925
1.65762
1.79376
1.9376
2.08895
2.24746
2.41261
2.58369
2.75973
2.93953
3.12161
3.30422
3.4853
3.66255
3.83342
3.9952
4.14504
4.2801
4.39764
4.49511
4.57032
4.62149
4.64739
0.197786
0.200253
0.205205
0.21268
0.222737
0.235451
0.250917
0.269252
0.290589
0.315084
0.34291
0.374263
0.409358
0.44843
0.491733
0.539542
0.592152
0.649873
0.713032
0.781974
0.857052
0.938629
1.02707
1.12275
1.226
1.33719
1.4566
1.58451
1.72111
1.86653
2.02079
2.18379
2.35524
2.53469
2.72144
2.91455
3.11275
3.31448
3.51781
3.72045
3.91977
4.11282
4.29642
4.46717
4.62167
4.75655
4.86873
4.95546
5.01457
5.04452
0.197545
0.200045
0.205064
0.212642
0.22284
0.235738
0.251437
0.27006
0.291748
0.316666
0.345001
0.376961
0.412777
0.452702
0.497014
0.546012
0.600018
0.659378
0.724457
0.795641
0.873334
0.957955
1.04993
1.14971
1.25771
1.37436
1.50006
1.63519
1.78005
1.93487
2.09981
2.27485
2.45984
2.6544
2.85792
3.06947
3.28778
3.51119
3.73763
3.96455
4.18898
4.4075
4.61636
4.81152
4.98885
5.14425
5.27388
5.37436
5.44297
5.47776
0.196414
0.198935
0.203996
0.21164
0.221931
0.234951
0.250808
0.26963
0.291566
0.316791
0.345502
0.37792
0.414292
0.454891
0.500013
0.549984
0.605156
0.665906
0.73264
0.805789
0.885808
0.973177
1.06839
1.17197
1.28443
1.40629
1.53806
1.68023
1.83325
1.99749
2.17323
2.36062
2.55965
2.77009
2.99142
3.2228
3.46298
3.71028
3.96247
4.21675
4.46978
4.71762
4.95585
5.17963
5.38393
5.56373
5.71424
5.83123
5.91127
5.95191
0.194361
0.19689
0.201967
0.209638
0.219967
0.233044
0.248977
0.2679
0.289972
0.315374
0.344314
0.377026
0.413771
0.454838
0.500546
0.551245
0.607314
0.669165
0.737244
0.812026
0.894022
0.983773
1.08185
1.18884
1.30537
1.43207
1.56957
1.71849
1.87943
2.05293
2.23946
2.43935
2.6528
2.87974
3.11985
3.37242
3.63631
3.90981
4.19063
4.47575
4.76139
5.04307
5.31555
5.57305
5.80942
6.01843
6.1941
6.33107
6.42499
6.47275
0.19136
0.193883
0.198948
0.206603
0.216915
0.229974
0.245895
0.264816
0.2869
0.312339
0.341348
0.374172
0.411086
0.452396
0.49844
0.54959
0.606253
0.668875
0.737939
0.813968
0.897526
0.989217
1.08969
1.19962
1.31973
1.45076
1.5935
1.74871
1.91716
2.09961
2.29672
2.50907
2.7371
2.98101
3.24072
3.51576
3.80514
4.10728
4.41985
4.73964
5.06251
5.38331
5.69591
5.99335
6.26808
6.51233
6.71853
6.87989
6.9908
7.04729
0.187392
0.189893
0.194917
0.202511
0.212744
0.225709
0.241523
0.260329
0.282296
0.307619
0.336523
0.369263
0.406126
0.447431
0.493534
0.544829
0.601748
0.664769
0.734411
0.811242
0.89588
0.988994
1.0913
1.20358
1.32666
1.4614
1.60872
1.76959
1.94495
2.13579
2.34303
2.56755
2.81008
3.07117
3.35108
3.64966
3.96625
4.29947
4.64708
5.00579
5.37112
5.73724
6.09699
6.44198
6.76291
7.04998
7.29358
7.48494
7.61684
7.68412
0.182442
0.184907
0.189858
0.197344
0.207434
0.220224
0.235832
0.254404
0.276113
0.30116
0.329775
0.362221
0.398794
0.439826
0.485688
0.536793
0.593596
0.656602
0.726366
0.803499
0.888669
0.982607
1.08611
1.20004
1.32533
1.46299
1.61409
1.77977
1.9612
2.15963
2.37627
2.61234
2.86895
3.14708
3.44744
3.77036
4.11562
4.48225
4.86829
5.27051
5.6842
6.10288
6.51823
6.92017
7.29711
7.63668
7.92646
8.15509
8.31314
8.3939
0.176506
0.178918
0.183764
0.191093
0.200974
0.213503
0.228801
0.247016
0.268322
0.292922
0.321053
0.352982
0.389012
0.429485
0.474785
0.525338
0.581621
0.644162
0.713547
0.790424
0.87551
0.969594
1.07354
1.18832
1.31495
1.45458
1.60844
1.77787
1.96428
2.16918
2.39414
2.64075
2.9106
3.20517
3.52577
3.87335
4.24837
4.65047
5.07824
5.5288
5.99739
6.47702
6.95814
7.42863
7.87406
8.27854
8.62593
8.90127
9.0922
9.18993
0.169587
0.17193
0.176637
0.183757
0.19336
0.205542
0.220424
0.238152
0.258903
0.282881
0.310324
0.341503
0.376725
0.416339
0.460735
0.510352
0.565682
0.627272
0.695733
0.771747
0.856071
0.949547
1.05311
1.16779
1.29475
1.43524
1.59066
1.76254
1.95254
2.16248
2.39427
2.64996
2.93166
3.24149
3.58146
3.95338
4.35858
4.79768
5.27016
5.77387
6.30445
6.85463
7.41373
7.96724
8.4971
8.98269
9.40265
9.73711
9.96971
10.0889
0.161695
0.163952
0.168487
0.175347
0.184603
0.196349
0.210704
0.227815
0.247856
0.271031
0.297577
0.327766
0.361905
0.400345
0.443481
0.491759
0.545679
0.605802
0.672759
0.747255
0.830081
0.922123
1.02437
1.13794
1.26406
1.40413
1.5597
1.73248
1.92438
2.13753
2.37424
2.63701
2.92856
3.25172
3.60939
4.00439
4.43926
4.91596
5.43538
5.9967
6.59658
7.2281
7.87972
8.53436
9.16932
9.75744
10.2699
10.6798
10.9656
11.1122
0.152851
0.155005
0.159333
0.165883
0.174721
0.185941
0.19966
0.216021
0.235196
0.257385
0.282822
0.311774
0.344549
0.381494
0.423004
0.469525
0.52156
0.579678
0.644518
0.716803
0.797346
0.887064
0.986995
1.09831
1.22232
1.36053
1.51463
1.68651
1.87832
2.09247
2.33167
2.59894
2.8976
3.2313
3.60393
4.01956
4.48226
4.99575
5.56299
6.18534
6.86151
7.586
8.34726
9.12579
9.89306
10.6126
11.2443
11.7515
12.1054
12.287
0.143085
0.145119
0.149207
0.155395
0.163746
0.174352
0.187325
0.202805
0.220957
0.241976
0.26609
0.293561
0.324688
0.359812
0.399323
0.443661
0.493326
0.548883
0.610973
0.680324
0.75776
0.844217
0.940758
1.0486
1.16911
1.30388
1.4547
1.62364
1.81304
2.02559
2.26439
2.53291
2.83515
3.17557
3.55919
3.99149
4.47834
5.02577
5.63954
6.32429
7.0823
7.91136
8.80182
9.73283
10.6689
11.5599
12.3477
12.9809
13.4219
13.6478
0.132437
0.134334
0.13815
0.143924
0.151722
0.161626
0.173747
0.188215
0.20519
0.224859
0.247441
0.273186
0.302383
0.335363
0.372503
0.414231
0.461034
0.513469
0.572165
0.637843
0.711324
0.793544
0.885576
0.988652
1.10419
1.23381
1.3794
1.54313
1.72752
1.9355
2.17047
2.43637
2.73779
3.08004
3.46924
3.9124
4.41746
4.99317
5.64887
6.39382
7.23594
8.17928
9.21984
10.3388
11.4941
12.6145
13.6099
14.4066
14.9578
15.2387
0.120954
0.1227
0.12621
0.131525
0.138702
0.147822
0.158986
0.172318
0.187968
0.206112
0.226956
0.250738
0.277731
0.308249
0.342652
0.381348
0.424806
0.473559
0.528218
0.589482
0.65815
0.735143
0.821521
0.918506
1.02752
1.1502
1.28846
1.44456
1.62111
1.82121
2.04849
2.30727
2.60265
2.94067
3.32852
3.7747
4.28927
4.88399
5.57241
6.36974
7.29193
8.35364
9.56316
10.9122
12.3577
13.7981
15.0745
16.0816
16.768
17.1142
0.108695
0.110275
0.113451
0.11826
0.124755
0.133011
0.14312
0.155197
0.16938
0.185833
0.204744
0.226336
0.250861
0.278613
0.309926
0.345184
0.384825
0.429354
0.479345
0.535464
0.598474
0.669256
0.748832
0.838388
0.939308
1.05321
1.182
1.32791
1.49361
1.68226
1.89763
2.14426
2.42762
2.7543
3.13236
3.57159
4.08397
4.68419
5.39023
6.22399
7.2117
8.3835
9.77027
11.3926
13.2299
15.149
16.8122
18.0805
18.922
19.3395
0.0957272
0.0971268
0.0999411
0.104202
0.109959
0.117277
0.12624
0.136952
0.149536
0.164141
0.180938
0.200127
0.221938
0.246637
0.274528
0.305962
0.341341
0.381126
0.42585
0.476124
0.532659
0.596276
0.667932
0.748746
0.840027
0.943321
1.06045
1.1936
1.34536
1.51885
1.71785
1.94694
2.21172
2.51911
2.87765
3.29799
3.79356
4.38136
5.08317
5.92716
6.95028
8.20137
9.74484
11.661
14.0235
16.7588
18.9477
20.5096
21.5032
21.9853
0.0821258
0.0833331
0.0857608
0.0894364
0.0944022
0.100716
0.10845
0.117696
0.128563
0.141179
0.155695
0.172287
0.191157
0.21254
0.236705
0.263961
0.294666
0.329229
0.368125
0.411902
0.461197
0.516751
0.57943
0.650251
0.730412
0.821332
0.924702
1.04255
1.1773
1.33193
1.51003
1.71603
1.95541
2.235
2.5634
2.95151
3.41332
3.96697
4.63639
5.45375
6.46347
7.72947
9.34932
11.4858
14.4471
18.9176
21.7129
23.5096
24.5989
25.1158
0.0679735
0.068978
0.0709977
0.0740546
0.078184
0.0834344
0.0898676
0.0975598
0.106603
0.117105
0.129194
0.143018
0.158748
0.176582
0.196748
0.219511
0.245172
0.274083
0.306649
0.34334
0.384704
0.431379
0.484117
0.543799
0.611472
0.688382
0.776018
0.876175
0.99103
1.12324
1.27606
1.45354
1.66073
1.90399
2.1914
2.53334
2.94327
3.43889
4.04381
4.79012
5.72258
6.90595
8.43941
10.4882
13.3636
17.754
20.4791
22.2193
23.2691
23.7657
0.0533594
0.0541522
0.055747
0.0581572
0.0614118
0.0655496
0.0706199
0.0766836
0.0838136
0.0920965
0.101634
0.112543
0.124962
0.139049
0.154986
0.172985
0.193289
0.216179
0.241983
0.27108
0.303913
0.341002
0.382956
0.430497
0.484482
0.545935
0.616086
0.696425
0.788766
0.895334
1.01888
1.16284
1.33152
1.53041
1.76649
2.04882
2.38921
2.80324
3.3116
3.94214
4.73258
5.73419
7.01606
8.66579
10.7669
13.2578
15.2322
16.6215
17.4944
17.9143
0.0383781
0.0389505
0.040108
0.0418492
0.0441978
0.0471831
0.0508412
0.0552165
0.0603621
0.0663409
0.0732267
0.0811056
0.0900772
0.100257
0.111779
0.124796
0.139487
0.156058
0.17475
0.195841
0.219657
0.24658
0.277063
0.31164
0.350946
0.395746
0.446957
0.505698
0.573333
0.651544
0.742419
0.848575
0.973313
1.12084
1.29658
1.50752
1.76285
2.07458
2.45857
2.93566
3.5328
4.28361
5.22629
6.3935
7.78186
9.27943
10.5718
11.5416
12.1742
12.4841
0.0231299
0.0234652
0.0241659
0.0252184
0.0266372
0.0284402
0.0306496
0.0332922
0.0364005
0.0400125
0.0441731
0.0489347
0.0543578
0.0605127
0.0674806
0.0753553
0.0842455
0.0942772
0.105597
0.118375
0.132811
0.14914
0.167639
0.188636
0.212523
0.239772
0.27095
0.30675
0.34802
0.395807
0.451416
0.516485
0.59309
0.68388
0.792271
0.922693
1.08093
1.27453
1.51335
1.81003
2.18026
2.64211
3.21292
3.90102
4.68861
5.50727
6.235
6.80001
7.17752
7.365
0.00772596
0.00783139
0.00806383
0.00841554
0.00888993
0.00949278
0.0102315
0.0111151
0.0121544
0.0133623
0.0147538
0.0163463
0.0181603
0.0202194
0.0225508
0.025186
0.0281615
0.0315198
0.0353099
0.0395894
0.0444255
0.0498973
0.056098
0.0631387
0.0711517
0.0802961
0.0907644
0.102791
0.116664
0.132738
0.151458
0.173381
0.199215
0.229865
0.266497
0.310627
0.364226
0.429867
0.510877
0.611468
0.736742
0.892291
1.08292
1.30971
1.56494
1.82669
2.06158
2.24656
2.37156
2.43405
)
;

boundaryField
{
    walls
    {
        type            calculated;
        value           nonuniform List<scalar> 
200
(
0
0
0
0
0
0
0
0
0
0
0
0
0
0
0
0
0
0
0
0
0
0
0
0
0
0
0
0
0
0
0
0
0
0
0
0
0
0
0
0
0
0
0
0
0
0
0
0
0
0
0.00475678
0.0142545
0.0237342
0.0331941
0.0426127
0.051977
0.0612731
0.0704857
0.0795981
0.0885922
0.097448
0.106143
0.114654
0.122955
0.131016
0.138808
0.146296
0.153446
0.160219
0.166576
0.172474
0.177871
0.182721
0.18698
0.190599
0.193534
0.195739
0.197171
0.197786
0.197545
0.196414
0.194361
0.19136
0.187392
0.182442
0.176506
0.169587
0.161695
0.152851
0.143085
0.132437
0.120954
0.108695
0.0957272
0.0821258
0.0679735
0.0533594
0.0383781
0.0231299
0.00772596
0.0421638
0.126762
0.212193
0.299027
0.387832
0.479182
0.573663
0.671871
0.774419
0.881938
0.995081
1.11453
1.24098
1.37519
1.51794
1.67006
1.83243
2.00601
2.19183
2.39101
2.60478
2.83449
3.08166
3.34797
3.63534
3.94596
4.28234
4.64739
5.04452
5.47776
5.95191
6.47275
7.04729
7.68412
8.3939
9.18993
10.0889
11.1122
12.287
13.6478
15.2387
17.1142
19.3395
21.9853
25.1158
23.7657
17.9143
12.4841
7.365
2.43405
0
0
0
0
0
0
0
0
0
0
0
0
0
0
0
0
0
0
0
0
0
0
0
0
0
0
0
0
0
0
0
0
0
0
0
0
0
0
0
0
0
0
0
0
0
0
0
0
0
0
)
;
    }
    frontAndBack
    {
        type            empty;
    }
}


// ************************************************************************* //
