/*--------------------------------*- C++ -*----------------------------------*\
| =========                 |                                                 |
| \\      /  F ield         | OpenFOAM: The Open Source CFD Toolbox           |
|  \\    /   O peration     | Version:  2406                                  |
|   \\  /    A nd           | Website:  www.openfoam.com                      |
|    \\/     M anipulation  |                                                 |
\*---------------------------------------------------------------------------*/
FoamFile
{
    version     2.0;
    format      ascii;
    arch        "LSB;label=32;scalar=64";
    class       volScalarField;
    location    "1.4";
    object      T;
}
// * * * * * * * * * * * * * * * * * * * * * * * * * * * * * * * * * * * * * //

dimensions      [0 0 0 1 0 0 0];

internalField   nonuniform List<scalar> 
2500
(
0.212657
0.212848
0.213227
0.213797
0.214555
0.215501
0.216634
0.217952
0.219454
0.221136
0.222997
0.225034
0.227243
0.22962
0.232161
0.234861
0.237714
0.240713
0.243852
0.247122
0.250515
0.254021
0.257629
0.261329
0.265109
0.268953
0.27285
0.276783
0.280737
0.284694
0.288639
0.292551
0.296413
0.300205
0.303909
0.307503
0.310969
0.314287
0.317437
0.320401
0.32316
0.325698
0.327998
0.330046
0.331827
0.333331
0.334546
0.335465
0.336081
0.336391
0.212848
0.21304
0.213423
0.213997
0.214763
0.215717
0.216861
0.218191
0.219706
0.221404
0.223283
0.22534
0.22757
0.229971
0.232537
0.235264
0.238146
0.241176
0.244348
0.247653
0.251083
0.254628
0.258278
0.26202
0.265844
0.269734
0.273677
0.277658
0.281661
0.285668
0.289663
0.293626
0.297538
0.301381
0.305134
0.308777
0.312291
0.315655
0.318849
0.321855
0.324654
0.327228
0.329562
0.331639
0.333447
0.334972
0.336206
0.337138
0.337764
0.338077
0.213227
0.213423
0.213813
0.214398
0.215177
0.216149
0.217313
0.218667
0.22021
0.22194
0.223854
0.22595
0.228223
0.230671
0.233288
0.23607
0.23901
0.242103
0.245342
0.248718
0.252222
0.255845
0.259576
0.263403
0.267315
0.271296
0.275334
0.279411
0.283512
0.287619
0.291714
0.295779
0.299793
0.303737
0.30759
0.311331
0.31494
0.318397
0.32168
0.32477
0.327648
0.330296
0.332697
0.334834
0.336694
0.338265
0.339534
0.340494
0.341138
0.341461
0.213797
0.213997
0.214398
0.214998
0.215797
0.216795
0.21799
0.219381
0.220967
0.222744
0.224711
0.226866
0.229204
0.231722
0.234415
0.237279
0.240308
0.243496
0.246835
0.250317
0.253933
0.257674
0.261528
0.265483
0.269528
0.273647
0.277826
0.282049
0.286298
0.290556
0.294804
0.299021
0.303189
0.307286
0.31129
0.315179
0.318933
0.32253
0.325947
0.329165
0.332163
0.334922
0.337424
0.339652
0.341592
0.34323
0.344554
0.345556
0.346228
0.346565
0.214555
0.214763
0.215177
0.215797
0.216624
0.217657
0.218894
0.220334
0.221975
0.223816
0.225855
0.228088
0.230512
0.233125
0.235921
0.238895
0.242043
0.245356
0.24883
0.252454
0.256221
0.260119
0.264138
0.268266
0.27249
0.276794
0.281163
0.285581
0.29003
0.29449
0.298943
0.303368
0.307742
0.312044
0.316252
0.320342
0.324291
0.328076
0.331675
0.335065
0.338225
0.341134
0.343773
0.346124
0.348171
0.3499
0.351299
0.352357
0.353066
0.353422
0.215501
0.215717
0.216149
0.216795
0.217657
0.218733
0.220022
0.221523
0.223235
0.225156
0.227284
0.229616
0.232149
0.23488
0.237805
0.240918
0.244215
0.247688
0.25133
0.255134
0.25909
0.263187
0.267415
0.27176
0.276209
0.280746
0.285356
0.290021
0.294722
0.299439
0.304151
0.308837
0.313473
0.318036
0.322501
0.326845
0.331042
0.335067
0.338896
0.342504
0.34587
0.348969
0.351783
0.35429
0.356474
0.358318
0.359811
0.36094
0.361698
0.362078
0.216634
0.216861
0.217313
0.21799
0.218894
0.220022
0.221374
0.222949
0.224746
0.226764
0.228999
0.231451
0.234116
0.23699
0.24007
0.243352
0.246828
0.250494
0.254341
0.258362
0.262547
0.266885
0.271365
0.275974
0.280697
0.285518
0.29042
0.295384
0.300392
0.305421
0.310449
0.315453
0.320409
0.325289
0.330069
0.334723
0.339222
0.343539
0.34765
0.351526
0.355143
0.358476
0.361502
0.364201
0.366552
0.368539
0.370146
0.371363
0.37218
0.372589
0.217952
0.218191
0.218667
0.219381
0.220334
0.221523
0.222949
0.224611
0.226508
0.228639
0.231001
0.233593
0.236412
0.239455
0.242719
0.246197
0.249886
0.253778
0.257867
0.262144
0.266599
0.271222
0.276
0.28092
0.285966
0.291122
0.29637
0.30169
0.307061
0.31246
0.317863
0.323245
0.32858
0.333838
0.338993
0.344014
0.348873
0.35354
0.357986
0.362181
0.366098
0.36971
0.372991
0.375918
0.378469
0.380626
0.382371
0.383693
0.38458
0.385025
0.219454
0.219706
0.22021
0.220967
0.221975
0.223235
0.224746
0.226508
0.22852
0.230781
0.233289
0.236043
0.23904
0.242277
0.245751
0.249458
0.253391
0.257545
0.261913
0.266486
0.271254
0.276206
0.281329
0.28661
0.292031
0.297577
0.303226
0.30896
0.314753
0.320583
0.326423
0.332246
0.338022
0.343722
0.349314
0.354766
0.360047
0.365122
0.369961
0.37453
0.378799
0.382738
0.386318
0.389513
0.392299
0.394656
0.396564
0.398008
0.398978
0.399464
0.221136
0.221404
0.22194
0.222744
0.223816
0.225156
0.226764
0.228639
0.230781
0.233189
0.235863
0.2388
0.241999
0.245457
0.249171
0.253136
0.257348
0.2618
0.266485
0.271395
0.27652
0.281848
0.287365
0.293058
0.298909
0.3049
0.31101
0.317217
0.323495
0.32982
0.336162
0.342491
0.348777
0.354985
0.361082
0.367031
0.372799
0.378347
0.38364
0.388642
0.393319
0.397636
0.401563
0.40507
0.408129
0.410717
0.412813
0.414401
0.415467
0.416001
0.222997
0.223283
0.223854
0.224711
0.225855
0.227284
0.228999
0.231001
0.233289
0.235863
0.238722
0.241865
0.24529
0.248995
0.252978
0.257234
0.261759
0.266546
0.27159
0.27688
0.282406
0.288158
0.294121
0.30028
0.306617
0.313112
0.319743
0.326487
0.333317
0.340203
0.347117
0.354023
0.360889
0.367677
0.37435
0.380868
0.387192
0.393281
0.399095
0.404594
0.409739
0.414492
0.418817
0.422682
0.426055
0.428909
0.431222
0.432975
0.434152
0.434742
0.225034
0.22534
0.22595
0.226866
0.228088
0.229616
0.231451
0.233593
0.236043
0.2388
0.241865
0.245236
0.248913
0.252893
0.257175
0.261755
0.266629
0.27179
0.277232
0.282946
0.288922
0.295148
0.301609
0.30829
0.315172
0.322233
0.329451
0.336799
0.344249
0.351769
0.359327
0.366886
0.374408
0.381853
0.389179
0.396342
0.403298
0.410002
0.416409
0.422473
0.428151
0.433401
0.438181
0.442454
0.446186
0.449345
0.451906
0.453847
0.455151
0.455805
0.227243
0.22757
0.228223
0.229204
0.230512
0.232149
0.234116
0.236412
0.23904
0.241999
0.24529
0.248913
0.252867
0.257151
0.261763
0.2667
0.271959
0.277534
0.283417
0.289602
0.296076
0.302828
0.309844
0.317105
0.324594
0.332286
0.340158
0.348182
0.356326
0.364556
0.372837
0.381128
0.389387
0.397571
0.405632
0.413523
0.421193
0.428592
0.435669
0.442374
0.448657
0.454469
0.459766
0.464504
0.468643
0.47215
0.474993
0.477148
0.478596
0.479323
0.22962
0.229971
0.230671
0.231722
0.233125
0.23488
0.23699
0.239455
0.242277
0.245457
0.248995
0.252893
0.257151
0.261767
0.266742
0.272071
0.277753
0.283782
0.290152
0.296853
0.303877
0.31121
0.318838
0.326742
0.334902
0.343294
0.351892
0.360666
0.369582
0.378603
0.38769
0.396799
0.405883
0.414894
0.42378
0.432487
0.44096
0.449141
0.456974
0.464401
0.471366
0.477815
0.483696
0.48896
0.493562
0.497461
0.500625
0.503023
0.504635
0.505444
0.232161
0.232537
0.233288
0.234415
0.235921
0.237805
0.24007
0.242719
0.245751
0.249171
0.252978
0.257175
0.261763
0.266742
0.272111
0.277868
0.284012
0.290537
0.297438
0.304707
0.312333
0.320304
0.328604
0.337214
0.346114
0.355278
0.364678
0.374282
0.384053
0.393951
0.403933
0.413952
0.423955
0.433889
0.443697
0.453317
0.462688
0.471746
0.480427
0.488666
0.4964
0.503567
0.510106
0.515964
0.521087
0.525432
0.528957
0.531631
0.533428
0.53433
0.234861
0.235264
0.23607
0.237279
0.238895
0.240918
0.243352
0.246197
0.249458
0.253136
0.257234
0.261755
0.2667
0.272071
0.277868
0.284091
0.290736
0.297802
0.305281
0.313168
0.321451
0.330118
0.339153
0.348538
0.35825
0.368262
0.378544
0.389061
0.399776
0.410643
0.421616
0.432642
0.443666
0.454626
0.465459
0.476098
0.486473
0.496512
0.506143
0.515293
0.523889
0.531862
0.539143
0.545669
0.551382
0.556228
0.560162
0.563147
0.565154
0.566161
0.237714
0.238146
0.23901
0.240308
0.242043
0.244215
0.246828
0.249886
0.253391
0.257348
0.261759
0.266629
0.271959
0.277753
0.284012
0.290736
0.297925
0.305575
0.313681
0.322238
0.331235
0.34066
0.350497
0.360726
0.371325
0.382264
0.393513
0.405034
0.416786
0.42872
0.440786
0.452927
0.465079
0.477177
0.489149
0.500921
0.512414
0.523548
0.534241
0.54441
0.553974
0.562852
0.570966
0.578245
0.58462
0.590031
0.594427
0.597763
0.600006
0.601133
0.240713
0.241176
0.242103
0.243496
0.245356
0.247688
0.250494
0.253778
0.257545
0.2618
0.266546
0.27179
0.277534
0.283782
0.290537
0.297802
0.305575
0.313855
0.322639
0.33192
0.34169
0.351937
0.362643
0.373791
0.385355
0.397306
0.409611
0.42223
0.435118
0.448225
0.461493
0.474861
0.48826
0.501616
0.514851
0.52788
0.540617
0.552971
0.564849
0.576158
0.586805
0.596697
0.605747
0.613871
0.620992
0.62704
0.631955
0.635687
0.638198
0.639459
0.243852
0.244348
0.245342
0.246835
0.24883
0.25133
0.254341
0.257867
0.261913
0.266485
0.27159
0.277232
0.283417
0.290152
0.297438
0.305281
0.313681
0.322639
0.332151
0.342213
0.352817
0.36395
0.375598
0.38774
0.400352
0.413403
0.426858
0.440675
0.454806
0.469197
0.483785
0.498502
0.513274
0.52802
0.542651
0.557074
0.571193
0.584904
0.598103
0.610685
0.622542
0.633571
0.643671
0.652745
0.660705
0.66747
0.672971
0.677149
0.679961
0.681373
0.247122
0.247653
0.248718
0.250317
0.252454
0.255134
0.258362
0.262144
0.266486
0.271395
0.27688
0.282946
0.289602
0.296853
0.304707
0.313168
0.322238
0.33192
0.342213
0.353113
0.364612
0.3767
0.389363
0.40258
0.416325
0.430569
0.445273
0.460394
0.47588
0.491673
0.507706
0.523905
0.540187
0.556463
0.572637
0.588603
0.604254
0.619473
0.634144
0.648145
0.661357
0.673659
0.684936
0.695078
0.703981
0.711554
0.717715
0.722397
0.725548
0.727132
0.250515
0.251083
0.252222
0.253933
0.256221
0.25909
0.262547
0.266599
0.271254
0.27652
0.282406
0.288922
0.296076
0.303877
0.312333
0.321451
0.331235
0.34169
0.352817
0.364612
0.377071
0.390184
0.403937
0.418311
0.43328
0.448812
0.46487
0.481406
0.498366
0.515688
0.5333
0.55112
0.56906
0.587021
0.604896
0.622568
0.639916
0.656811
0.673119
0.688705
0.70343
0.717158
0.729756
0.741097
0.751062
0.759545
0.76645
0.771701
0.775236
0.777014
0.254021
0.254628
0.255845
0.257674
0.260119
0.263187
0.266885
0.271222
0.276206
0.281848
0.288158
0.295148
0.302828
0.31121
0.320304
0.330118
0.34066
0.351937
0.36395
0.3767
0.390184
0.404394
0.419315
0.434931
0.451216
0.468138
0.485657
0.503726
0.522286
0.541271
0.560604
0.580198
0.599955
0.619766
0.639514
0.659071
0.678298
0.697053
0.715183
0.732535
0.748952
0.764277
0.778358
0.791047
0.802209
0.811717
0.819464
0.825357
0.829327
0.831323
0.257629
0.258278
0.259576
0.261528
0.264138
0.267415
0.271365
0.276
0.281329
0.287365
0.294121
0.301609
0.309844
0.318838
0.328604
0.339153
0.350497
0.362643
0.375598
0.389363
0.403937
0.419315
0.435486
0.452431
0.470128
0.488544
0.507638
0.527361
0.547653
0.568444
0.589651
0.61118
0.632925
0.654767
0.676577
0.698212
0.719519
0.740336
0.760494
0.779816
0.798124
0.815239
0.830985
0.845192
0.857702
0.868369
0.877067
0.883688
0.888149
0.890393
0.261329
0.26202
0.263403
0.265483
0.268266
0.27176
0.275974
0.28092
0.28661
0.293058
0.30028
0.30829
0.317105
0.326742
0.337214
0.348538
0.360726
0.373791
0.38774
0.40258
0.418311
0.434931
0.452431
0.470796
0.490003
0.51002
0.530807
0.552313
0.574477
0.597223
0.620465
0.644102
0.668019
0.692087
0.716162
0.740088
0.763695
0.7868
0.809212
0.830732
0.851156
0.870278
0.887896
0.903814
0.917846
0.929824
0.939598
0.947044
0.952064
0.954589
0.265109
0.265844
0.267315
0.269528
0.27249
0.276209
0.280697
0.285966
0.292031
0.298909
0.306617
0.315172
0.324594
0.334902
0.346114
0.35825
0.371325
0.385355
0.400352
0.416325
0.43328
0.451216
0.470128
0.490003
0.510819
0.532549
0.55515
0.578573
0.602753
0.627613
0.653061
0.67899
0.705276
0.731779
0.758342
0.784793
0.81094
0.836583
0.861503
0.885475
0.908267
0.929643
0.949368
0.967215
0.982969
0.996432
1.00743
1.01581
1.02147
1.02431
0.268953
0.269734
0.271296
0.273647
0.276794
0.280746
0.285518
0.291122
0.297577
0.3049
0.313112
0.322233
0.332286
0.343294
0.355278
0.368262
0.382264
0.397306
0.413403
0.430569
0.448812
0.468138
0.488544
0.51002
0.532549
0.556103
0.580644
0.606121
0.632469
0.659608
0.687443
0.71586
0.744726
0.77389
0.803182
0.83241
0.861365
0.889819
0.91753
0.944241
0.969685
0.993593
1.01569
1.03572
1.05343
1.06857
1.08096
1.09041
1.09679
1.1
0.27285
0.273677
0.275334
0.277826
0.281163
0.285356
0.29042
0.29637
0.303226
0.31101
0.319743
0.329451
0.340158
0.351892
0.364678
0.378544
0.393513
0.409611
0.426858
0.445273
0.46487
0.485657
0.507638
0.530807
0.55515
0.580644
0.607251
0.634924
0.663596
0.693188
0.723599
0.75471
0.786381
0.81845
0.85073
0.883014
0.915068
0.94664
0.977456
1.00723
1.03564
1.0624
1.08718
1.10968
1.1296
1.14667
1.16064
1.17131
1.17852
1.18215
0.276783
0.277658
0.279411
0.282049
0.285581
0.290021
0.295384
0.30169
0.30896
0.317217
0.326487
0.336799
0.348182
0.360666
0.374282
0.389061
0.405034
0.42223
0.440675
0.460394
0.481406
0.503726
0.527361
0.552313
0.578573
0.606121
0.634924
0.664936
0.696094
0.728316
0.761501
0.795526
0.830241
0.865474
0.901024
0.936664
0.972139
1.00717
1.04144
1.07463
1.10638
1.13635
1.16417
1.18947
1.21191
1.23117
1.24696
1.25903
1.26718
1.2713
0.280737
0.281661
0.283512
0.286298
0.29003
0.294722
0.300392
0.307061
0.314753
0.323495
0.333317
0.344249
0.356326
0.369582
0.384053
0.399776
0.416786
0.435118
0.454806
0.47588
0.498366
0.522286
0.547653
0.574477
0.602753
0.632469
0.663596
0.696094
0.729901
0.764938
0.801103
0.838268
0.87628
0.914955
0.954078
0.993403
1.03265
1.0715
1.10962
1.14664
1.18215
1.21574
1.24699
1.27548
1.30081
1.32257
1.34045
1.35413
1.36338
1.36805
0.284694
0.285668
0.287619
0.290556
0.29449
0.299439
0.305421
0.31246
0.320583
0.32982
0.340203
0.351769
0.364556
0.378603
0.393951
0.410643
0.42872
0.448225
0.469197
0.491673
0.515688
0.541271
0.568444
0.597223
0.627613
0.659608
0.693188
0.728316
0.764938
0.802977
0.842333
0.882877
0.92445
0.966861
1.00988
1.05325
1.09665
1.13975
1.18215
1.22344
1.26317
1.30086
1.33602
1.36815
1.39678
1.42143
1.44171
1.45725
1.46777
1.47308
0.288639
0.289663
0.291714
0.294804
0.298943
0.304151
0.310449
0.317863
0.326423
0.336162
0.347117
0.359327
0.372837
0.38769
0.403933
0.421616
0.440786
0.461493
0.483785
0.507706
0.5333
0.560604
0.589651
0.620465
0.653061
0.687443
0.723599
0.761501
0.801103
0.842333
0.885095
0.929262
0.974673
1.02113
1.06839
1.11618
1.16416
1.21195
1.25913
1.30522
1.34971
1.39204
1.43165
1.46794
1.50036
1.52834
1.5514
1.5691
1.5811
1.58716
0.292551
0.293626
0.295779
0.299021
0.303368
0.308837
0.315453
0.323245
0.332246
0.342491
0.354023
0.366886
0.381128
0.396799
0.413952
0.432642
0.452927
0.474861
0.498502
0.523905
0.55112
0.580198
0.61118
0.644102
0.67899
0.71586
0.75471
0.795526
0.838268
0.882877
0.929262
0.977302
1.02684
1.07766
1.12954
1.18216
1.23517
1.28816
1.34065
1.39211
1.44197
1.48957
1.53426
1.57534
1.61213
1.64398
1.67028
1.69049
1.70422
1.71115
0.296413
0.297538
0.299793
0.303189
0.307742
0.313473
0.320409
0.32858
0.338022
0.348777
0.360889
0.374408
0.389387
0.405883
0.423955
0.443666
0.465079
0.48826
0.513274
0.540187
0.56906
0.599955
0.632925
0.668019
0.705276
0.744726
0.786381
0.830241
0.87628
0.92445
0.974673
1.02684
1.08079
1.13632
1.19319
1.25108
1.30961
1.36834
1.42676
1.48425
1.54016
1.59376
1.64427
1.69087
1.73274
1.76908
1.79917
1.82234
1.8381
1.84607
0.300205
0.301381
0.303737
0.307286
0.312044
0.318036
0.325289
0.333838
0.343722
0.354985
0.367677
0.381853
0.397571
0.414894
0.433889
0.454626
0.477177
0.501616
0.52802
0.556463
0.587021
0.619766
0.654767
0.692087
0.731779
0.77389
0.81845
0.865474
0.914955
0.966861
1.02113
1.07766
1.13632
1.19691
1.25917
1.32279
1.38737
1.45245
1.51744
1.5817
1.64447
1.7049
1.76209
1.81507
1.86286
1.90447
1.93902
1.96569
1.98385
1.99305
0.303909
0.305134
0.30759
0.31129
0.316252
0.322501
0.330069
0.338993
0.349314
0.361082
0.37435
0.389179
0.405632
0.42378
0.443697
0.465459
0.489149
0.514851
0.542651
0.572637
0.604896
0.639514
0.676577
0.716162
0.758342
0.803182
0.85073
0.901024
0.954078
1.00988
1.06839
1.12954
1.19319
1.25917
1.32723
1.39706
1.46826
1.54032
1.61264
1.68448
1.75501
1.82325
1.88815
1.94854
2.00325
2.05108
2.09091
2.12174
2.14277
2.15343
0.307503
0.308777
0.311331
0.315179
0.320342
0.326845
0.334723
0.344014
0.354766
0.367031
0.380868
0.396342
0.413523
0.432487
0.453317
0.476098
0.500921
0.52788
0.557074
0.588603
0.622568
0.659071
0.698212
0.740088
0.784793
0.83241
0.883014
0.936664
0.993403
1.05325
1.11618
1.18216
1.25108
1.32279
1.39706
1.4736
1.552
1.63174
1.71217
1.79252
1.87183
1.94902
2.02282
2.09188
2.15474
2.20994
2.25608
2.29189
2.31638
2.3288
0.310969
0.312291
0.31494
0.318933
0.324291
0.331042
0.339222
0.348873
0.360047
0.372799
0.387192
0.403298
0.421193
0.44096
0.462688
0.486473
0.512414
0.540617
0.571193
0.604254
0.639916
0.678298
0.719519
0.763695
0.81094
0.861365
0.915068
0.972139
1.03265
1.09665
1.16416
1.23517
1.30961
1.38737
1.46826
1.552
1.6382
1.72634
1.81577
1.90563
1.9949
2.08233
2.16647
2.24569
2.31821
2.38222
2.43595
2.47779
2.50646
2.52103
0.314287
0.315655
0.318397
0.32253
0.328076
0.335067
0.343539
0.35354
0.365122
0.378347
0.393281
0.410002
0.428592
0.449141
0.471746
0.496512
0.523548
0.552971
0.584904
0.619473
0.656811
0.697053
0.740336
0.7868
0.836583
0.889819
0.94664
1.00717
1.0715
1.13975
1.21195
1.28816
1.36834
1.45245
1.54032
1.63174
1.72634
1.82365
1.92298
2.02348
2.12401
2.2232
2.31937
2.41057
2.49463
2.56925
2.63218
2.68138
2.71516
2.73236
0.317437
0.318849
0.32168
0.325947
0.331675
0.338896
0.34765
0.357986
0.369961
0.38364
0.399095
0.416409
0.435669
0.456974
0.480427
0.506143
0.534241
0.564849
0.598103
0.634144
0.673119
0.715183
0.760494
0.809212
0.861503
0.91753
0.977456
1.04144
1.10962
1.18215
1.25913
1.34065
1.42676
1.51744
1.61264
1.71217
1.81577
1.92298
2.03318
2.1455
2.25876
2.37146
2.48166
2.58706
2.68499
2.77252
2.84674
2.90498
2.94508
2.96552
0.320401
0.321855
0.32477
0.329165
0.335065
0.342504
0.351526
0.362181
0.37453
0.388642
0.404594
0.422473
0.442374
0.464401
0.488666
0.515293
0.54441
0.576158
0.610685
0.648145
0.688705
0.732535
0.779816
0.830732
0.885475
0.944241
1.00723
1.07463
1.14664
1.22344
1.30522
1.39211
1.48425
1.5817
1.68448
1.79252
1.90563
2.02348
2.1455
2.27089
2.39847
2.52664
2.65326
2.7756
2.89035
2.99375
3.08195
3.15144
3.19938
3.22384
0.32316
0.324654
0.327648
0.332163
0.338225
0.34587
0.355143
0.366098
0.378799
0.393319
0.409739
0.428151
0.448657
0.471366
0.4964
0.523889
0.553974
0.586805
0.622542
0.661357
0.70343
0.748952
0.798124
0.851156
0.908267
0.969685
1.03564
1.10638
1.18215
1.26317
1.34971
1.44197
1.54016
1.64447
1.75501
1.87183
1.9949
2.12401
2.25876
2.39847
2.54206
2.68791
2.83373
2.97638
3.11175
3.23492
3.34065
3.42422
3.48196
3.51143
0.325698
0.327228
0.330296
0.334922
0.341134
0.348969
0.358476
0.36971
0.382738
0.397636
0.414492
0.433401
0.454469
0.477815
0.503567
0.531862
0.562852
0.596697
0.633571
0.673659
0.717158
0.764277
0.815239
0.870278
0.929643
0.993593
1.0624
1.13635
1.21574
1.30086
1.39204
1.48957
1.59376
1.7049
1.82325
1.94902
2.08233
2.2232
2.37146
2.52664
2.68791
2.85381
3.02206
3.18915
3.35011
3.49833
3.62635
3.7277
3.79769
3.83338
0.327998
0.329562
0.332697
0.337424
0.343773
0.351783
0.361502
0.372991
0.386318
0.401563
0.418817
0.438181
0.459766
0.483696
0.510106
0.539143
0.570966
0.605747
0.643671
0.684936
0.729756
0.778358
0.830985
0.887896
0.949368
1.01569
1.08718
1.16417
1.24699
1.33602
1.43165
1.53426
1.64427
1.76209
1.88815
2.02282
2.16647
2.31937
2.48166
2.65326
2.83373
3.02206
3.21626
3.41287
3.60605
3.78684
3.94363
4.06748
4.15268
4.196
0.330046
0.331639
0.334834
0.339652
0.346124
0.35429
0.364201
0.375918
0.389513
0.40507
0.422682
0.442454
0.464504
0.48896
0.515964
0.545669
0.578245
0.613871
0.652745
0.695078
0.741097
0.791047
0.845192
0.903814
0.967215
1.03572
1.10968
1.18947
1.27548
1.36815
1.46794
1.57534
1.69087
1.81507
1.94854
2.09188
2.24569
2.41057
2.58706
2.7756
2.97638
3.18915
3.41287
3.64486
3.87931
4.10429
4.29883
4.45092
4.55457
4.60696
0.331827
0.333447
0.336694
0.341592
0.348171
0.356474
0.366552
0.378469
0.392299
0.408129
0.426055
0.446186
0.468643
0.493562
0.521087
0.551382
0.58462
0.620992
0.660705
0.703981
0.751062
0.802209
0.857702
0.917846
0.982969
1.05343
1.1296
1.21191
1.30081
1.39678
1.50036
1.61213
1.73274
1.86286
2.00325
2.15474
2.31821
2.49463
2.68499
2.89035
3.11175
3.35011
3.60605
3.87931
4.16699
4.45719
4.70154
4.88786
5.01281
5.07541
0.333331
0.334972
0.338265
0.34323
0.3499
0.358318
0.368539
0.380626
0.394656
0.410717
0.428909
0.449345
0.47215
0.497461
0.525432
0.556228
0.590031
0.62704
0.66747
0.711554
0.759545
0.811717
0.868369
0.929824
0.996432
1.06857
1.14667
1.23117
1.32257
1.42143
1.52834
1.64398
1.76908
1.90447
2.05108
2.20994
2.38222
2.56925
2.77252
2.99375
3.23492
3.49833
3.78684
4.10429
4.45719
4.861
5.16735
5.39131
5.53853
5.6116
0.334546
0.336206
0.339534
0.344554
0.351299
0.359811
0.370146
0.382371
0.396564
0.412813
0.431222
0.451906
0.474993
0.500625
0.528957
0.560162
0.594427
0.631955
0.672971
0.717715
0.76645
0.819464
0.877067
0.939598
1.00743
1.08096
1.16064
1.24696
1.34045
1.44171
1.5514
1.67028
1.79917
1.93902
2.09091
2.25608
2.43595
2.63218
2.84674
3.08195
3.34065
3.62635
3.94363
4.29883
4.70154
5.16735
5.5207
5.77664
5.94358
6.02604
0.335465
0.337138
0.340494
0.345556
0.352357
0.36094
0.371363
0.383693
0.398008
0.414401
0.432975
0.453847
0.477148
0.503023
0.531631
0.563147
0.597763
0.635687
0.677149
0.722397
0.771701
0.825357
0.883688
0.947044
1.01581
1.09041
1.17131
1.25903
1.35413
1.45725
1.5691
1.69049
1.82234
1.96569
2.12174
2.29189
2.47779
2.68138
2.90498
3.15144
3.42422
3.7277
4.06748
4.45092
4.88786
5.39131
5.77664
6.05617
6.2383
6.32817
0.336081
0.337764
0.341138
0.346228
0.353066
0.361698
0.37218
0.38458
0.398978
0.415467
0.434152
0.455151
0.478596
0.504635
0.533428
0.565154
0.600006
0.638198
0.679961
0.725548
0.775236
0.829327
0.888149
0.952064
1.02147
1.09679
1.17852
1.26718
1.36338
1.46777
1.5811
1.70422
1.8381
1.98385
2.14277
2.31638
2.50646
2.71516
2.94508
3.19938
3.48196
3.79769
4.15268
4.55457
5.01281
5.53853
5.94358
6.2383
6.43054
6.5254
0.336391
0.338077
0.341461
0.346565
0.353422
0.362078
0.372589
0.385025
0.399464
0.416001
0.434742
0.455805
0.479323
0.505444
0.53433
0.566161
0.601133
0.639459
0.681373
0.727132
0.777014
0.831323
0.890393
0.954589
1.02431
1.1
1.18215
1.2713
1.36805
1.47308
1.58716
1.71115
1.84607
1.99305
2.15343
2.3288
2.52103
2.73236
2.96552
3.22384
3.51143
3.83338
4.196
4.60696
5.07541
5.6116
6.02604
6.32817
6.5254
6.62277
)
;

boundaryField
{
    walls
    {
        type            zeroGradient;
    }
    frontAndBack
    {
        type            empty;
    }
}


// ************************************************************************* //
