/*--------------------------------*- C++ -*----------------------------------*\
| =========                 |                                                 |
| \\      /  F ield         | OpenFOAM: The Open Source CFD Toolbox           |
|  \\    /   O peration     | Version:  2406                                  |
|   \\  /    A nd           | Website:  www.openfoam.com                      |
|    \\/     M anipulation  |                                                 |
\*---------------------------------------------------------------------------*/
FoamFile
{
    version     2.0;
    format      ascii;
    arch        "LSB;label=32;scalar=64";
    class       volScalarField;
    location    "1.15";
    object      nu;
}
// * * * * * * * * * * * * * * * * * * * * * * * * * * * * * * * * * * * * * //

dimensions      [0 2 -1 0 0 0 0];

internalField   nonuniform List<scalar> 
1800
(
0.0630678
0.0451553
0.0202545
0.0134894
0.0110337
0.00980379
0.00910419
0.0086555
0.00851717
0.00854768
0.0304788
0.0686788
0.0274504
0.0134878
0.01048
0.00935514
0.0087835
0.00844198
0.00853355
0.00809133
0.0266076
0.03472
0.0144007
0.0104111
0.00912921
0.00858096
0.00832549
0.00817046
0.00842088
0.00800935
0.0381819
0.0148915
0.0100758
0.00869598
0.00819327
0.00801604
0.00800793
0.00805372
0.00840866
0.00818275
0.021173
0.0104012
0.00843615
0.00785568
0.00770227
0.00775826
0.00794153
0.00818038
0.00864726
0.00851622
0.0120732
0.00856232
0.00764023
0.00742043
0.0074941
0.00774465
0.00811208
0.0085461
0.00909338
0.00918772
0.00914566
0.00763071
0.00719361
0.00721959
0.00749859
0.00795535
0.008539
0.00919634
0.00991927
0.010319
0.00779982
0.00707742
0.00694911
0.00719726
0.00770946
0.00843916
0.00933841
0.0103448
0.0114183
0.0122386
0.00703857
0.0067386
0.00685621
0.00735177
0.00819181
0.00936261
0.0108013
0.0123915
0.0139943
0.015151
0.00656312
0.00654119
0.00689629
0.0077146
0.00907624
0.0110128
0.0133704
0.0158759
0.0183486
0.0205919
0.00727326
0.00897991
0.0117216
0.014055
0.0148299
0.0150483
0.0151992
0.0152527
0.015137
0.0149482
0.00715658
0.0087348
0.011649
0.0150362
0.0163509
0.0162591
0.0161162
0.0162174
0.0162025
0.0159197
0.00712543
0.00852074
0.0113016
0.0158503
0.0203794
0.0221524
0.0210874
0.0194363
0.018456
0.0178101
0.00717938
0.00834013
0.0107204
0.0155258
0.0255425
0.0465719
0.0669615
0.0499432
0.0347654
0.0260935
0.00737572
0.00823636
0.00995667
0.0129092
0.0170582
0.0220126
0.0276554
0.0334082
0.036392
0.0454695
0.00781425
0.00827128
0.0093616
0.0110673
0.01294
0.0145665
0.0159146
0.0169293
0.0175372
0.0198684
0.00868729
0.00853142
0.00907392
0.0100629
0.01106
0.0118419
0.0124226
0.0128152
0.0129901
0.0138878
0.0105396
0.0091803
0.00916307
0.00966853
0.0101706
0.0105227
0.0107664
0.0109381
0.010975
0.0114881
0.0159636
0.0106777
0.00979475
0.00986019
0.00995076
0.00993352
0.00987897
0.0098278
0.00968523
0.00993112
0.0614932
0.0155624
0.0118465
0.0109658
0.0103665
0.00982331
0.00941157
0.0090939
0.00878247
0.00926224
0.0157604
0.0135479
0.0136177
0.0144103
0.0154399
0.0176191
0.0203341
0.0240756
0.0263244
0.0337791
0.0169957
0.014424
0.0140852
0.0143861
0.014995
0.016851
0.0193315
0.0229489
0.0252592
0.0323393
0.0198537
0.0171153
0.0146986
0.0140013
0.0142142
0.0157181
0.0179409
0.0212884
0.0235839
0.0298906
0.0319655
0.0228031
0.0141177
0.0127882
0.0128455
0.013963
0.0158852
0.0188506
0.0211431
0.0264521
0.0910282
0.0213432
0.0127551
0.0116932
0.0116398
0.0122872
0.0136879
0.0160414
0.0181657
0.0224687
0.0234961
0.0156446
0.0120182
0.0112192
0.0110733
0.0113116
0.0121247
0.0137503
0.015405
0.0187236
0.0155357
0.013355
0.0118
0.0110457
0.0109617
0.0110142
0.0113644
0.0123659
0.0134597
0.0158631
0.0125832
0.0120771
0.0114915
0.0107282
0.0108595
0.0110826
0.0112328
0.0117963
0.0124198
0.0140804
0.0111112
0.0115624
0.010927
0.0102506
0.0105198
0.0111151
0.011456
0.0118413
0.0121467
0.0132658
0.0100249
0.0102815
0.010079
0.00991161
0.0101553
0.0109446
0.0117402
0.0123132
0.0125164
0.0132786
0.00965588
0.00976727
0.00994153
0.00998548
0.0100583
0.0107164
0.0118825
0.013059
0.0136327
0.0143401
0.00900199
0.00909118
0.0100195
0.0108348
0.0108446
0.0111291
0.0122759
0.0141064
0.0156438
0.0169655
0.00890538
0.00998069
0.0125259
0.0129182
0.0125283
0.0127174
0.0137846
0.0160869
0.0188736
0.0228566
0.00999121
0.0128736
0.0180328
0.0134285
0.0124167
0.0130655
0.0148636
0.0184429
0.0229834
0.0354443
0.0122626
0.0177063
0.0242862
0.0140606
0.0129365
0.0134935
0.0151815
0.0187365
0.0229443
0.0333545
0.0155978
0.0198064
0.0192045
0.0126929
0.0119141
0.0125544
0.0139266
0.0160524
0.018157
0.021227
0.0168762
0.0144371
0.0112397
0.00996883
0.00993368
0.0105142
0.0114151
0.0124514
0.0133235
0.0143199
0.0108963
0.00931981
0.00829847
0.00811352
0.00847085
0.00907909
0.00971031
0.0102752
0.0106645
0.0110572
0.00771212
0.00734618
0.00732183
0.00765806
0.00818584
0.00868005
0.0090342
0.00928283
0.00940283
0.00953178
0.00683753
0.00714067
0.00783377
0.00898525
0.00999722
0.0101834
0.00983362
0.00947899
0.0091875
0.00905814
0.0231241
0.018025
0.0150659
0.0124136
0.0107424
0.00958524
0.00880943
0.00862962
0.00813536
0.0084388
0.0170675
0.0183571
0.0161523
0.0168251
0.0132016
0.0127021
0.0102008
0.00969662
0.00868947
0.00841196
0.0156339
0.0172754
0.0159617
0.017757
0.0155922
0.015404
0.0131428
0.0114653
0.0109004
0.00932838
0.0167932
0.0171815
0.0183094
0.017432
0.0198832
0.0163399
0.0187207
0.0137596
0.0144735
0.0113477
0.0178162
0.017581
0.0199507
0.0187289
0.0223348
0.0190634
0.0237136
0.0174504
0.0194387
0.0145019
0.0157709
0.0163618
0.0167744
0.0181399
0.0184764
0.0208007
0.0215336
0.0228243
0.0240341
0.0200737
0.0132117
0.0138456
0.013537
0.0146344
0.0142617
0.0159556
0.015633
0.0184388
0.0176532
0.0230155
0.0104515
0.0106896
0.0103824
0.0107907
0.0104259
0.010988
0.0106219
0.0112363
0.0109527
0.0115748
0.00806432
0.008005
0.00795328
0.00793229
0.00789511
0.00792287
0.00788482
0.00795761
0.00791419
0.00801498
0.00642308
0.00640418
0.00643035
0.00642511
0.00647762
0.00648153
0.00655768
0.00656799
0.00666719
0.0066753
0.0101174
0.0107275
0.0106652
0.010585
0.0106147
0.010918
0.0115928
0.00998944
0.00708353
0.0058329
0.0106395
0.0108302
0.0107497
0.0106363
0.0106696
0.0110668
0.0118527
0.00980107
0.00697144
0.00579534
0.0111691
0.0112406
0.0111245
0.0109981
0.0110412
0.0115587
0.0123608
0.00954367
0.00686042
0.00576848
0.0117902
0.0118762
0.0117315
0.0116094
0.0117367
0.0125241
0.0132114
0.00923722
0.00675499
0.0057555
0.0124727
0.0127225
0.0126452
0.0125718
0.0129256
0.0143786
0.0139194
0.00886605
0.00665863
0.00576062
0.0133382
0.013809
0.0138228
0.0139598
0.0152145
0.0181886
0.0134466
0.00846307
0.00657524
0.00578655
0.014596
0.0153709
0.0159858
0.0177537
0.0222597
0.0220225
0.0120251
0.00805184
0.00650355
0.00583716
0.0171753
0.0201616
0.0246177
0.0336731
0.036606
0.0177021
0.0104467
0.00766113
0.00644877
0.0059207
0.0257405
0.0399527
0.0560351
0.0360001
0.0204428
0.0130008
0.00921501
0.00732382
0.00642318
0.00605175
0.0353355
0.0310655
0.0239963
0.0183903
0.0139264
0.010549
0.00832625
0.00705949
0.00644584
0.00625401
0.0119481
0.0115833
0.0112654
0.0109828
0.0107216
0.0104919
0.0102834
0.00998704
0.00933538
0.00777167
0.0117846
0.011451
0.0111571
0.010885
0.0106333
0.0104203
0.0102433
0.00992087
0.00893152
0.00722161
0.0116937
0.0113812
0.0110967
0.0108213
0.0105617
0.0103447
0.0101816
0.00982778
0.00856392
0.00684161
0.0115718
0.0113208
0.0110814
0.0108237
0.0105764
0.0103814
0.0102576
0.00985329
0.00827917
0.00657519
0.0114006
0.0111877
0.0109869
0.0107536
0.01053
0.0103738
0.0103184
0.00988584
0.00803709
0.00637788
0.0113624
0.0111714
0.0109799
0.0107377
0.0105163
0.0103894
0.0103963
0.00990985
0.00782404
0.00622713
0.0114189
0.0113194
0.0111576
0.0108831
0.0106172
0.0104738
0.0105039
0.00989671
0.00762708
0.00610538
0.0113321
0.011258
0.0111794
0.0109686
0.0107638
0.0107004
0.0108364
0.0100071
0.00746688
0.00601149
0.0116079
0.0114746
0.0112583
0.0109275
0.0106945
0.0107095
0.0110245
0.0100601
0.00732881
0.00593837
0.0114643
0.0113212
0.0112511
0.0110443
0.0108529
0.0109264
0.0113608
0.0100618
0.0072
0.00587967
0.0704614
0.0297763
0.0338065
0.0456412
0.0430119
0.0447697
0.0356722
0.0283238
0.0192364
0.0135548
0.0744158
0.0288004
0.0323844
0.0456239
0.0433536
0.0473316
0.0399533
0.0290586
0.0195733
0.0133673
0.0779109
0.0278866
0.0311351
0.0451078
0.0430291
0.0497024
0.0461305
0.029639
0.0200574
0.0132482
0.0805778
0.0269696
0.0299553
0.0440837
0.0426523
0.0528127
0.0544133
0.030035
0.0205444
0.0130284
0.0812515
0.0260126
0.0288775
0.042744
0.0432536
0.0571194
0.0623443
0.0302506
0.0208726
0.0127938
0.0791419
0.0251046
0.0280112
0.0417136
0.0454564
0.0611657
0.0627852
0.0304069
0.0203025
0.0127398
0.0763811
0.0244575
0.027332
0.0415517
0.0481221
0.062296
0.0535459
0.0298116
0.0192625
0.0124362
0.0745547
0.0242263
0.0266074
0.0417659
0.0483264
0.0583463
0.0404824
0.0280234
0.0171187
0.0124354
0.0723926
0.0244425
0.0256367
0.0404311
0.0433411
0.0448741
0.0289662
0.0248096
0.0160959
0.0120367
0.0772796
0.0251268
0.0246768
0.0358671
0.0320838
0.0277217
0.0209124
0.0195192
0.0142475
0.0134705
0.118214
0.0265843
0.0234828
0.0285243
0.0218905
0.0202145
0.0152897
0.0166408
0.0125573
0.0132091
0.0922963
0.0262386
0.0210799
0.0222201
0.0169576
0.0183876
0.0127338
0.0167725
0.0111259
0.0127843
0.0629049
0.0248278
0.0191203
0.0187852
0.0164453
0.018314
0.012625
0.0172425
0.0113062
0.01297
0.0484087
0.0237035
0.0178576
0.0167798
0.0193709
0.0174303
0.0153158
0.0160331
0.0136975
0.0127881
0.0449004
0.0238133
0.0170766
0.0159096
0.0244744
0.0173756
0.0243924
0.0157586
0.0179041
0.0131248
0.04975
0.0242334
0.0170194
0.0159675
0.0215577
0.0191592
0.0255433
0.0179924
0.0193156
0.0140412
0.0603654
0.025258
0.0185957
0.0170054
0.0166117
0.0212416
0.0164652
0.0216055
0.0174088
0.0158644
0.0470357
0.0334528
0.020514
0.0159792
0.0129086
0.0144463
0.0119636
0.0145539
0.0126805
0.0138713
0.0254468
0.0185468
0.0124684
0.0111015
0.010285
0.0099768
0.00986398
0.00977196
0.00960394
0.00958395
0.00795057
0.00787195
0.00849611
0.00852661
0.0084374
0.00810664
0.00820436
0.00752124
0.00760346
0.00718006
0.0111946
0.0113569
0.011462
0.0118799
0.0123587
0.0130269
0.0139027
0.0152771
0.0180882
0.0230551
0.0119185
0.0118977
0.0119976
0.0124035
0.0127579
0.0133633
0.0138173
0.0147048
0.0152966
0.0168977
0.0126673
0.0125825
0.0127407
0.0131244
0.0133986
0.0139422
0.0141301
0.0149316
0.0148717
0.0160334
0.0131063
0.0130135
0.013245
0.0134946
0.0139128
0.0142555
0.014698
0.0151918
0.0156481
0.0161861
0.0136626
0.0136478
0.0140202
0.014277
0.0148592
0.0149967
0.0156356
0.0156685
0.0165432
0.0165016
0.0146524
0.0146663
0.0149526
0.0150565
0.0152757
0.0151001
0.0152265
0.0150443
0.0152886
0.0153997
0.0153089
0.0148253
0.0144184
0.0141204
0.0138432
0.0136198
0.0133873
0.0133144
0.0131613
0.0133791
0.0126455
0.0121682
0.0117242
0.0114796
0.0112104
0.011108
0.010875
0.0108365
0.0106084
0.0106878
0.00937586
0.00918324
0.00900562
0.00884742
0.00870819
0.00857438
0.00845132
0.00833949
0.00823342
0.00814384
0.00704731
0.00694159
0.00684305
0.00674999
0.00667235
0.00659954
0.00654547
0.00649234
0.00646219
0.0064265
0.00601177
0.00686141
0.00872024
0.0139317
0.0450561
0.0261447
0.0155903
0.0121239
0.0100415
0.00840452
0.00608686
0.00680016
0.00833487
0.0123872
0.0291705
0.0334677
0.0178214
0.0125269
0.0100168
0.00836329
0.00620435
0.00677281
0.00799081
0.0108446
0.0179382
0.0237186
0.0181528
0.0130949
0.010263
0.00852882
0.00637695
0.00678676
0.00770944
0.00972019
0.013796
0.0181785
0.0173577
0.013707
0.0107588
0.00886976
0.00662446
0.00685401
0.00749883
0.00891646
0.0116076
0.0151498
0.0164014
0.0143828
0.0115384
0.00941031
0.00697901
0.00700056
0.00737573
0.00832791
0.0101357
0.0129053
0.0152288
0.0149883
0.0127309
0.0102137
0.00748509
0.00726865
0.00738298
0.00794951
0.00909504
0.0110073
0.0134106
0.0147424
0.0139623
0.0114985
0.00819434
0.00770489
0.00757062
0.00782418
0.00848706
0.00965269
0.0113626
0.0131756
0.0141013
0.0125665
0.0091633
0.00834901
0.00798398
0.0079865
0.00831526
0.00898178
0.00998625
0.0112048
0.0125462
0.0121419
0.010413
0.00921901
0.00867261
0.00847805
0.00856551
0.00892187
0.00951977
0.0102645
0.0112101
0.0118013
0.0116998
0.0102314
0.00967091
0.00936865
0.00925027
0.00933913
0.00962375
0.0100498
0.0103909
0.0112384
0.0122062
0.0110162
0.010846
0.0107481
0.0105086
0.0102953
0.0102486
0.0103497
0.0102968
0.0108195
0.0115741
0.0112027
0.0117142
0.0124346
0.0125546
0.0120082
0.0115113
0.0112509
0.0108739
0.0110383
0.0107339
0.0111522
0.0123179
0.014313
0.0164076
0.0160164
0.0144312
0.0133733
0.0123466
0.0119276
0.00995308
0.0109559
0.0126461
0.0156772
0.0220085
0.031706
0.0255495
0.0193256
0.0152955
0.0134319
0.00918249
0.010615
0.0127179
0.0162082
0.0238463
0.0526016
0.101
0.0272114
0.0178684
0.0151246
0.00855406
0.0102869
0.0127185
0.0160483
0.0202696
0.025525
0.0288215
0.0236874
0.0183261
0.0157945
0.00809543
0.00997334
0.0125121
0.0148826
0.0164009
0.0176722
0.0186978
0.0182417
0.0166426
0.0153033
0.00774323
0.00962641
0.012169
0.0140236
0.0148296
0.0154392
0.0159823
0.0160303
0.015505
0.0148549
0.00747123
0.00928603
0.0118851
0.0137242
0.0143618
0.014724
0.0150489
0.0151825
0.0150126
0.0147094
0.0113888
0.0128967
0.0167405
0.0292913
0.0474716
0.0306193
0.0270989
0.0276973
0.0282416
0.0352333
0.0114242
0.0128083
0.0167683
0.0244146
0.0325614
0.0284071
0.026659
0.0278242
0.0290665
0.0385463
0.0116133
0.0128544
0.0166576
0.0216233
0.0270206
0.0267316
0.0261455
0.0276155
0.0291173
0.0389413
0.0119459
0.013221
0.0165695
0.020374
0.0240585
0.0250883
0.0254018
0.0271737
0.0287326
0.0380015
0.0123017
0.013849
0.0162112
0.0193634
0.0220019
0.0236327
0.0246184
0.0266733
0.0281749
0.0366857
0.0128175
0.0143747
0.0155895
0.0182492
0.0203886
0.0224221
0.0239549
0.0262943
0.0277173
0.0355833
0.0133823
0.0144425
0.0149267
0.0171351
0.0190298
0.0213554
0.0233764
0.0260475
0.0274737
0.0349395
0.0138457
0.0141199
0.0143497
0.0161276
0.017851
0.0203356
0.0227657
0.0258118
0.0273722
0.0347002
0.014345
0.0137123
0.0138967
0.015287
0.0168402
0.0193453
0.0220502
0.0254534
0.0272507
0.0346347
0.0149634
0.01345
0.0136105
0.0146853
0.0160242
0.0184246
0.0212286
0.0248884
0.0269463
0.0344379
0.0101249
0.0130899
0.0162487
0.0202796
0.0194622
0.0163
0.0141158
0.0126528
0.0119008
0.0113889
0.00957826
0.0112083
0.0132235
0.0145747
0.0146215
0.0138785
0.0131972
0.0125846
0.0122476
0.0118994
0.0101871
0.0118415
0.0146325
0.0170782
0.0175358
0.0166939
0.0158464
0.0152085
0.0148101
0.0143192
0.0110727
0.0127475
0.0169515
0.0264719
0.0294048
0.0237762
0.0212616
0.0204441
0.01979
0.0195228
0.0118948
0.0132079
0.0172773
0.0358422
0.0573235
0.0293644
0.0254604
0.0253662
0.0251517
0.02766
0.00604084
0.00614789
0.00630832
0.0065272
0.00679675
0.00714211
0.00752763
0.007953
0.00852308
0.0087821
0.0062843
0.00637485
0.00652722
0.00673762
0.00698729
0.00729387
0.00759804
0.00792712
0.00835394
0.00857505
0.00659456
0.00666297
0.00680859
0.00701373
0.00725847
0.00754961
0.0078264
0.00823842
0.00858373
0.00905549
0.00700087
0.00704162
0.00718999
0.00741127
0.00770284
0.00803344
0.00842015
0.00909551
0.00942399
0.0105891
0.00752105
0.00752812
0.00769029
0.00796124
0.0083571
0.00883167
0.0095796
0.0105943
0.0109364
0.0129195
0.0134095
0.0133033
0.0131976
0.0127782
0.0122925
0.0118999
0.0116005
0.0108472
0.00876687
0.0068055
0.0138323
0.0134944
0.0129959
0.0123816
0.0118851
0.0115564
0.0113464
0.0108402
0.00910458
0.00704663
0.0131379
0.0128491
0.0125598
0.012193
0.0118649
0.0116144
0.011417
0.0109849
0.00951509
0.00735668
0.0131589
0.0128657
0.0125503
0.0121692
0.011803
0.0114921
0.0112356
0.0109
0.00992078
0.00777976
0.0130562
0.0126846
0.0123156
0.0119302
0.0115728
0.0112742
0.0110453
0.0108672
0.0104569
0.00845001
0.0129076
0.0124899
0.0120967
0.0117173
0.0113651
0.0110646
0.0108439
0.0107977
0.0110377
0.00961952
0.0127062
0.0122617
0.0118567
0.011483
0.0111317
0.0108215
0.0105898
0.0106171
0.011493
0.0122406
0.0124921
0.0120503
0.0116568
0.0113042
0.0109714
0.0106712
0.0104286
0.0103798
0.0112271
0.0148029
0.0122919
0.0118734
0.0115073
0.0111868
0.01089
0.0106242
0.010388
0.010228
0.0104995
0.0106897
0.0121138
0.0117225
0.0113818
0.0110831
0.0108082
0.010565
0.0103412
0.0100985
0.00985471
0.00871507
0.00868521
0.0102985
0.0120166
0.0138472
0.0166589
0.02027
0.0141085
0.00910744
0.00694811
0.00596992
0.00922248
0.0106554
0.0119101
0.012989
0.0140003
0.0149603
0.0136093
0.0094457
0.00705359
0.00595567
0.00990513
0.0109615
0.0117136
0.0122633
0.0127048
0.0130596
0.0125566
0.0096666
0.0071787
0.00596812
0.0104749
0.0111253
0.0115434
0.0117918
0.0119162
0.0120165
0.0118343
0.00982271
0.00731818
0.0060036
0.0108427
0.0112343
0.011443
0.0115057
0.011479
0.0114807
0.0114141
0.00995735
0.00747006
0.00606033
0.0111568
0.0114116
0.0114586
0.0113672
0.01124
0.0112046
0.0112186
0.0101167
0.00763995
0.00613556
0.0115455
0.0116845
0.0115464
0.0113166
0.0111379
0.011108
0.0111885
0.0103138
0.00782961
0.0062281
0.0120001
0.0119178
0.0115775
0.0112882
0.0111348
0.0111465
0.0112773
0.01053
0.00803709
0.0063372
0.0121881
0.0118737
0.0115292
0.0113366
0.0112638
0.0113099
0.0114332
0.0107225
0.00826039
0.00646529
0.0117026
0.0118913
0.0118325
0.0117436
0.0116668
0.0116341
0.0116117
0.0108514
0.00850319
0.00661878
0.0342959
0.0501633
0.044752
0.0294586
0.0262384
0.0267913
0.0302217
0.0394655
0.027858
0.019886
0.0373148
0.0446518
0.0567826
0.0314849
0.0271452
0.0267977
0.028757
0.0293667
0.0258486
0.0162834
0.0404044
0.0414206
0.065645
0.0328263
0.0279469
0.0272382
0.0285038
0.0266885
0.0249794
0.0151911
0.0434885
0.0389119
0.066538
0.034004
0.0288862
0.0279151
0.0282197
0.0253423
0.0233972
0.0151213
0.0466651
0.0370714
0.0601056
0.0356083
0.0303087
0.0290008
0.0280962
0.0249503
0.0220228
0.015117
0.0500105
0.0356775
0.052215
0.0377743
0.032303
0.030591
0.0282423
0.0251372
0.0209506
0.0149769
0.0536309
0.0344489
0.0458408
0.0402
0.0347374
0.0327049
0.0286605
0.0255827
0.0201002
0.0147041
0.0575943
0.0332342
0.0412348
0.0424234
0.0373595
0.0353422
0.0294364
0.0261477
0.0195003
0.0143662
0.0618396
0.0320184
0.0379576
0.0441055
0.0398377
0.038425
0.030728
0.0268016
0.0191669
0.0140419
0.0662002
0.0308508
0.0355857
0.0451567
0.0418131
0.041704
0.0327247
0.0275411
0.0190839
0.0137752
0.00724287
0.00745623
0.00856532
0.00905895
0.0096538
0.0097763
0.00996895
0.00966575
0.00963644
0.00811789
0.0149529
0.0105704
0.00991278
0.0102853
0.0106651
0.0110447
0.0115372
0.0117594
0.0120469
0.0117869
0.0251815
0.0200476
0.0127024
0.0126101
0.0127009
0.0133665
0.0142617
0.0161471
0.0166157
0.0156045
0.0294136
0.0873326
0.0185753
0.0170022
0.0165499
0.017662
0.0194235
0.0278245
0.03214
0.0158015
0.0317441
0.060901
0.029429
0.0232366
0.0215755
0.0227446
0.025776
0.0450318
0.0427427
0.0178693
0.00764721
0.00730624
0.00697458
0.00668287
0.00644248
0.00625217
0.00611168
0.00602085
0.00597867
0.00598487
0.0106758
0.00977704
0.00895301
0.00825169
0.00764007
0.00713026
0.00674252
0.00647774
0.00632344
0.00626397
0.0130119
0.0118682
0.0108312
0.00997562
0.00915177
0.008347
0.00764419
0.00711984
0.00678991
0.00662685
0.0131602
0.0122627
0.0115581
0.0110043
0.0103814
0.00960316
0.00872604
0.00794144
0.00739792
0.00710218
0.013449
0.0125225
0.011742
0.0111944
0.0107346
0.010252
0.00962181
0.0088474
0.00815591
0.0077126
)
;

boundaryField
{
    left
    {
        type            calculated;
        value           nonuniform List<scalar> 
35
(
0.0230618
0.0219401
0.0211115
0.0211237
0.0221557
0.0238921
0.0256234
0.0257112
0.020085
0.00791559
0.0348454
0.0334104
0.0320067
0.0306392
0.0293125
0.0280252
0.0267788
0.0255823
0.0244569
0.0235844
0.0335644
0.036289
0.0383692
0.0396981
0.040336
0.0403574
0.0398532
0.0389221
0.0376878
0.0362913
0.00720748
0.0137177
0.0223823
0.0271685
0.0305904
)
;
    }
    right
    {
        type            calculated;
        value           nonuniform List<scalar> 
35
(
0.0113916
0.0119114
0.0143832
0.0198811
0.0294414
0.0403989
0.0467848
0.0487099
0.0482623
0.0470214
0.0461008
0.0460618
0.0469246
0.048318
0.0495658
0.0497108
0.0476518
0.0426261
0.0351674
0.0273816
0.0212029
0.0171386
0.0148328
0.0138136
0.0137851
0.0149693
0.0179523
0.0253446
0.0456372
0.0372006
0.0217471
0.0144711
0.0111133
0.00955156
0.00906236
)
;
    }
    down
    {
        type            calculated;
        value           nonuniform List<scalar> 
40
(
0.00637997
0.00678669
0.00815875
0.00866465
0.0093355
0.00934294
0.00942221
0.00901893
0.00884478
0.00728677
0.00691942
0.00667726
0.00644048
0.00623873
0.00608478
0.00597351
0.00589853
0.00585633
0.0058465
0.00587187
0.00593963
0.00605365
0.00621856
0.00644172
0.00671975
0.00708424
0.00751422
0.00803138
0.0087307
0.00910902
0.0111808
0.017379
0.0260056
0.117163
0.0653827
0.0246813
0.0168384
0.0136806
0.0123346
0.0115722
)
;
    }
    up
    {
        type            calculated;
        value           nonuniform List<scalar> 
40
(
0.00666906
0.00751522
0.00949727
0.0139297
0.0181704
0.0145053
0.0114734
0.0100802
0.00935131
0.00903757
0.00599206
0.00599211
0.0060221
0.00603314
0.00609153
0.00610425
0.00619552
0.00620238
0.00633413
0.00632475
0.00646358
0.00637623
0.00629372
0.00621926
0.00615541
0.00610196
0.00606117
0.00602688
0.00600623
0.00598904
0.00678323
0.00683751
0.00765626
0.00786472
0.00785551
0.00758113
0.00759964
0.00693925
0.00700916
0.00658686
)
;
    }
    cylinder
    {
        type            calculated;
        value           nonuniform List<scalar> 
80
(
0.00680366
0.0067264
0.00674027
0.00685192
0.00713649
0.00775126
0.00907083
0.012512
0.026748
0.0469875
0.0455778
0.023027
0.0177814
0.0209266
0.0343559
0.0205283
0.0112667
0.00863255
0.00740813
0.00670689
0.00554031
0.00551646
0.00550423
0.00550698
0.00552982
0.00557752
0.0056573
0.00578234
0.00597386
0.00626429
0.00716643
0.00667559
0.00634942
0.00612532
0.00596268
0.00584066
0.00574371
0.00567053
0.00561522
0.00557257
0.00630369
0.00649607
0.00674421
0.0070895
0.00764519
0.00865723
0.0111668
0.0159007
0.0102197
0.00806034
0.00570918
0.00567294
0.00566477
0.00568046
0.0057182
0.00577354
0.00584444
0.0059297
0.00603124
0.00615399
0.00577721
0.00588527
0.00604635
0.00627818
0.00660586
0.00706651
0.00771146
0.00860908
0.00986823
0.011629
0.0136105
0.0139959
0.0122954
0.0107598
0.00964554
0.00869493
0.00799428
0.00752953
0.00720112
0.0069635
)
;
    }
    defaultFaces
    {
        type            empty;
    }
}


// ************************************************************************* //
