/*--------------------------------*- C++ -*----------------------------------*\
| =========                 |                                                 |
| \\      /  F ield         | OpenFOAM: The Open Source CFD Toolbox           |
|  \\    /   O peration     | Version:  2406                                  |
|   \\  /    A nd           | Website:  www.openfoam.com                      |
|    \\/     M anipulation  |                                                 |
\*---------------------------------------------------------------------------*/
FoamFile
{
    version     2.0;
    format      ascii;
    arch        "LSB;label=32;scalar=64";
    class       volScalarField;
    location    "1.15";
    object      p;
}
// * * * * * * * * * * * * * * * * * * * * * * * * * * * * * * * * * * * * * //

dimensions      [0 2 -2 0 0 0 0];

internalField   nonuniform List<scalar> 
1800
(
-1.00929
-1.00546
-0.995998
-0.986511
-0.972915
-0.95681
-0.942077
-0.931764
-0.928283
-0.934797
-1.00016
-1.0018
-0.993983
-0.986515
-0.976108
-0.962019
-0.948
-0.936189
-0.927346
-0.930659
-1.03469
-1.03173
-1.02499
-1.01702
-1.00737
-0.996061
-0.98487
-0.975124
-0.96629
-0.970867
-1.06936
-1.06585
-1.05902
-1.0515
-1.04253
-1.03224
-1.0216
-1.0116
-1.00204
-1.001
-1.11133
-1.10279
-1.09574
-1.08727
-1.07706
-1.06546
-1.05326
-1.04128
-1.02998
-1.02368
-1.15747
-1.14259
-1.13382
-1.12299
-1.10931
-1.09345
-1.07648
-1.05935
-1.04281
-1.02855
-1.20508
-1.18686
-1.17512
-1.1595
-1.13923
-1.11585
-1.09113
-1.06622
-1.04183
-1.01865
-1.2575
-1.23595
-1.21927
-1.19562
-1.16525
-1.13141
-1.0966
-1.06207
-1.02847
-0.99612
-1.31132
-1.28593
-1.26164
-1.22666
-1.18354
-1.13752
-1.09149
-1.04669
-1.00363
-0.962332
-1.35843
-1.3286
-1.29362
-1.24478
-1.18788
-1.12943
-1.07237
-1.01776
-0.965792
-0.915823
-1.16319
-1.1662
-1.16456
-1.16162
-1.15819
-1.15519
-1.15304
-1.15167
-1.15133
-1.1528
-1.20713
-1.20757
-1.20566
-1.20379
-1.20225
-1.20206
-1.20397
-1.20761
-1.21284
-1.22055
-1.24236
-1.23974
-1.23764
-1.23705
-1.2375
-1.23934
-1.24453
-1.25369
-1.26562
-1.28006
-1.26234
-1.25641
-1.25438
-1.25555
-1.25975
-1.26677
-1.27665
-1.28915
-1.30397
-1.32251
-1.26318
-1.25327
-1.25104
-1.25383
-1.26178
-1.27493
-1.29206
-1.31147
-1.33258
-1.35659
-1.24198
-1.22811
-1.22477
-1.22681
-1.23425
-1.24746
-1.26601
-1.28913
-1.31553
-1.34449
-1.20187
-1.18514
-1.17997
-1.17935
-1.18354
-1.19336
-1.20872
-1.22923
-1.25405
-1.28223
-1.15155
-1.133
-1.12568
-1.12104
-1.1199
-1.12373
-1.13289
-1.14741
-1.16684
-1.19023
-1.10112
-1.08086
-1.07198
-1.06301
-1.05533
-1.05097
-1.051
-1.05627
-1.06712
-1.08371
-1.04808
-1.03877
-1.02916
-1.01659
-1.00317
-0.990695
-0.981254
-0.977112
-0.979712
-0.990992
-1.16453
-1.10786
-0.91897
-0.62973
-0.408611
-0.235068
-0.123635
-0.0588984
-0.0214385
-0.00279732
-1.26178
-1.24115
-1.01906
-0.682484
-0.422819
-0.229414
-0.111679
-0.0479139
-0.0137046
-0.000158026
-1.36231
-1.3949
-1.14128
-0.745326
-0.440763
-0.223698
-0.0984257
-0.035674
-0.0050436
0.00299892
-1.45417
-1.56056
-1.28197
-0.817285
-0.462349
-0.218148
-0.0840203
-0.0222424
0.00450724
0.0067426
-1.5288
-1.72526
-1.43149
-0.900973
-0.488371
-0.214089
-0.0696058
-0.00833615
0.0145557
0.0109632
-1.56233
-1.87341
-1.58527
-0.993055
-0.520506
-0.213749
-0.0573189
0.0045443
0.0242071
0.0152647
-1.53876
-1.99282
-1.73432
-1.09243
-0.560611
-0.219499
-0.0496885
0.0144177
0.0321484
0.0189591
-1.46298
-2.07489
-1.86973
-1.1959
-0.608763
-0.232584
-0.0486625
0.0193962
0.0369257
0.0212434
-1.33945
-2.11404
-1.98106
-1.29763
-0.66317
-0.252733
-0.0547074
0.0184325
0.0373816
0.0215145
-1.18658
-2.10453
-2.06394
-1.39344
-0.721263
-0.279091
-0.0671522
0.0117264
0.0332878
0.0196634
-1.04489
-2.11379
-2.1257
-1.44442
-0.751536
-0.298102
-0.0829469
-0.00153981
0.0231887
0.0149817
-0.993434
-2.08382
-2.07348
-1.39626
-0.743346
-0.319683
-0.112525
-0.0269867
0.00496596
0.00672806
-0.993403
-1.9644
-1.94024
-1.31918
-0.73774
-0.356923
-0.15612
-0.0591779
-0.0142255
-0.000135602
-0.977271
-1.74775
-1.75611
-1.23858
-0.740056
-0.402246
-0.206688
-0.0963107
-0.0348723
-0.00636807
-0.928594
-1.51707
-1.5666
-1.16913
-0.759393
-0.459137
-0.259973
-0.13286
-0.0550198
-0.0130642
-0.860301
-1.30629
-1.39443
-1.11647
-0.792827
-0.524164
-0.317797
-0.171749
-0.0765895
-0.0205843
-0.770603
-1.11983
-1.25226
-1.09223
-0.84529
-0.592405
-0.369351
-0.202953
-0.0915416
-0.0244898
-0.669856
-0.973263
-1.1471
-1.08954
-0.893514
-0.64186
-0.403641
-0.222705
-0.100365
-0.0261486
-0.583323
-0.897875
-1.08445
-1.0738
-0.91268
-0.66579
-0.421037
-0.233655
-0.105765
-0.0274764
-0.531491
-0.880695
-1.08999
-1.07852
-0.908489
-0.659576
-0.420895
-0.236193
-0.107867
-0.0284201
-0.821596
-0.882339
-0.931033
-0.969898
-0.996394
-1.00687
-0.99342
-0.962876
-0.932417
-0.956004
-0.695019
-0.766456
-0.826135
-0.878345
-0.918543
-0.946795
-0.960269
-0.965569
-0.972735
-0.980787
-0.580826
-0.655184
-0.719377
-0.777317
-0.827957
-0.86926
-0.905888
-0.932469
-0.953827
-0.972107
-0.477627
-0.550783
-0.617294
-0.677409
-0.733883
-0.78356
-0.829178
-0.867992
-0.897378
-0.92969
-0.38416
-0.455275
-0.521711
-0.582687
-0.63994
-0.693009
-0.739496
-0.785032
-0.821623
-0.864694
-0.301357
-0.370544
-0.434754
-0.494571
-0.549704
-0.60169
-0.648102
-0.694652
-0.735522
-0.782425
-0.231368
-0.298751
-0.359414
-0.416967
-0.46863
-0.517671
-0.562738
-0.605949
-0.646821
-0.689463
-0.175419
-0.240589
-0.298712
-0.353982
-0.40149
-0.447498
-0.48748
-0.52519
-0.560856
-0.596315
-0.140886
-0.20315
-0.260505
-0.312884
-0.357874
-0.400144
-0.433936
-0.464414
-0.491038
-0.515356
-0.126471
-0.188715
-0.248047
-0.299497
-0.347146
-0.386324
-0.42082
-0.447556
-0.469371
-0.484453
0.508713
0.442601
0.368931
0.293407
0.215041
0.131869
0.0447591
-0.041075
-0.117501
-0.166037
0.329956
0.261783
0.187587
0.109299
0.0255396
-0.0649515
-0.160294
-0.254209
-0.337461
-0.391919
0.129079
0.0611667
-0.0120102
-0.0906727
-0.176326
-0.269873
-0.368978
-0.46722
-0.55455
-0.612882
-0.0640077
-0.13252
-0.206588
-0.286866
-0.374568
-0.470334
-0.57164
-0.672162
-0.762258
-0.820488
-0.238827
-0.309433
-0.385708
-0.468291
-0.558181
-0.655421
-0.757644
-0.859503
-0.948129
-1.00592
-0.395058
-0.468004
-0.546251
-0.630214
-0.721027
-0.818362
-0.919153
-1.01853
-1.10484
-1.16038
-0.53404
-0.607876
-0.685626
-0.768666
-0.858267
-0.953206
-1.04987
-1.14483
-1.22577
-1.27687
-0.657396
-0.727833
-0.803205
-0.884218
-0.96949
-1.05748
-1.14722
-1.23507
-1.3069
-1.3526
-0.762757
-0.83091
-0.901496
-0.974865
-1.05126
-1.13027
-1.21096
-1.28798
-1.34815
-1.38838
-0.851053
-0.911083
-0.972276
-1.0357
-1.10244
-1.17201
-1.24186
-1.30532
-1.35298
-1.38779
1.51021
1.51522
1.5202
1.52446
1.52765
1.52961
1.53022
1.52975
1.53068
1.54418
1.46501
1.46758
1.46959
1.47047
1.46997
1.46788
1.46417
1.45956
1.4571
1.46764
1.40161
1.40095
1.39927
1.39607
1.39117
1.38429
1.37541
1.36564
1.35858
1.36516
1.32184
1.3174
1.31098
1.30244
1.29179
1.27873
1.26329
1.24699
1.23391
1.23514
1.22596
1.21724
1.20558
1.1911
1.17393
1.1537
1.13051
1.10638
1.08605
1.08132
1.11545
1.10219
1.08468
1.06343
1.03882
1.01044
0.978507
0.945552
0.916968
0.905971
0.992254
0.973871
0.950083
0.921761
0.889414
0.85256
0.811456
0.769073
0.731236
0.713768
0.863875
0.839822
0.80797
0.770403
0.728328
0.681403
0.630099
0.57778
0.530368
0.505092
0.733148
0.703444
0.6634
0.616158
0.563446
0.50499
0.441662
0.377727
0.319947
0.286397
0.612985
0.568697
0.5137
0.45332
0.388856
0.319068
0.244512
0.169859
0.102601
0.0612875
1.51553
1.48207
1.48021
1.45832
1.44359
1.42492
1.41789
1.41631
1.43443
1.48919
1.51398
1.47959
1.47853
1.45591
1.44031
1.41953
1.4117
1.40626
1.41837
1.4634
1.51305
1.47734
1.47704
1.45328
1.43649
1.41329
1.40453
1.39361
1.39756
1.42721
1.51269
1.47534
1.47577
1.45042
1.43218
1.40626
1.39637
1.37829
1.37247
1.38035
1.51281
1.47362
1.47472
1.44731
1.42748
1.39852
1.3871
1.36029
1.34363
1.32249
1.51324
1.47229
1.47389
1.44397
1.42248
1.39005
1.37666
1.33968
1.31153
1.25238
1.51389
1.47144
1.47327
1.44043
1.41713
1.38069
1.36509
1.3167
1.27689
1.16943
1.51483
1.47115
1.47281
1.43662
1.41112
1.36993
1.35237
1.29171
1.23947
1.07528
1.51588
1.47168
1.47257
1.4324
1.40393
1.35736
1.3385
1.26506
1.19823
0.967318
1.51654
1.47315
1.47296
1.42789
1.39531
1.34353
1.32376
1.23788
1.15641
0.854987
1.51814
1.4743
1.47372
1.4239
1.38701
1.32923
1.30693
1.20861
1.10685
0.754284
1.52709
1.47706
1.47968
1.4227
1.38089
1.31631
1.28993
1.18499
1.06417
0.768233
1.53528
1.47996
1.48729
1.42432
1.37769
1.30725
1.27329
1.1636
1.02311
0.775418
1.54301
1.48272
1.49472
1.42821
1.37543
1.30176
1.25561
1.14544
0.986078
0.770635
1.55232
1.49227
1.49883
1.4299
1.3714
1.29803
1.23597
1.12995
0.95523
0.759138
1.56272
1.4931
1.49688
1.42373
1.36572
1.29374
1.21525
1.11845
0.932427
0.745952
1.57406
1.49255
1.48766
1.40896
1.35858
1.28833
1.19576
1.11543
0.917843
0.733584
1.5884
1.49434
1.4757
1.39394
1.35031
1.28336
1.17846
1.12211
0.909598
0.7261
1.60402
1.49972
1.46861
1.38354
1.34309
1.27996
1.16443
1.12934
0.904889
0.727362
1.64879
1.50136
1.46498
1.38022
1.34331
1.27781
1.16751
1.13758
0.903806
0.745245
0.503393
0.351141
0.169436
-0.00554002
-0.162603
-0.303796
-0.433291
-0.548882
-0.651828
-0.744382
0.469612
0.341744
0.195939
0.0525684
-0.0785534
-0.199686
-0.313351
-0.420792
-0.520442
-0.61289
0.467132
0.348142
0.223834
0.103248
-0.00906652
-0.116166
-0.218747
-0.318566
-0.41162
-0.500373
0.476563
0.366556
0.256232
0.15187
0.0541052
-0.0409566
-0.13386
-0.226427
-0.314398
-0.39924
0.493851
0.393206
0.292967
0.199855
0.112656
0.0272357
-0.0578407
-0.14347
-0.22713
-0.307916
0.513769
0.422404
0.330822
0.245797
0.165892
0.0872241
0.00804215
-0.0719113
-0.151023
-0.228079
0.532727
0.452084
0.369125
0.290055
0.214315
0.139614
0.0640681
-0.012059
-0.0871429
-0.161003
0.55224
0.481493
0.406574
0.33195
0.258039
0.18502
0.11189
0.0395484
-0.0341465
-0.10597
0.566791
0.500862
0.430583
0.358237
0.284445
0.210583
0.137288
0.0668088
-0.00428158
-0.0722123
0.58801
0.522765
0.453467
0.380513
0.30568
0.231063
0.157097
0.08407
0.0114217
-0.0585084
-0.986355
-0.950786
-0.898959
-0.839761
-0.780771
-0.726479
-0.67843
-0.636698
-0.60225
-0.576096
-1.08714
-1.05353
-1.00485
-0.946475
-0.888674
-0.835329
-0.788071
-0.746952
-0.71256
-0.686625
-1.15293
-1.12189
-1.07792
-1.02293
-0.966933
-0.91444
-0.867513
-0.826956
-0.79257
-0.765787
-1.18669
-1.15863
-1.12064
-1.07129
-1.01822
-0.967128
-0.921001
-0.880865
-0.846454
-0.818608
-1.1946
-1.16956
-1.13852
-1.09636
-1.04822
-0.999854
-0.954954
-0.915348
-0.88116
-0.852743
-1.18472
-1.16279
-1.13839
-1.10385
-1.06213
-1.01811
-0.975455
-0.936816
-0.903372
-0.875537
-1.1653
-1.14668
-1.1278
-1.10031
-1.06532
-1.02651
-0.987067
-0.949784
-0.916859
-0.88973
-1.14292
-1.12769
-1.11319
-1.09152
-1.06246
-1.02836
-0.991981
-0.955918
-0.922884
-0.895217
-1.12149
-1.1098
-1.09891
-1.082
-1.05788
-1.02771
-0.993836
-0.958652
-0.925184
-0.897902
-1.10113
-1.09335
-1.08545
-1.07221
-1.05194
-1.02476
-0.992242
-0.9563
-0.918908
-0.886314
-1.07922
-1.07556
-1.07003
-1.05933
-1.04211
-1.01819
-0.988587
-0.955269
-0.91948
-0.880104
-1.05435
-1.05428
-1.05061
-1.04118
-1.0257
-1.00435
-0.977953
-0.947947
-0.915055
-0.876177
-1.03049
-1.03306
-1.03011
-1.0216
-1.00694
-0.987051
-0.963527
-0.937175
-0.907777
-0.872492
-1.01412
-1.01804
-1.01609
-1.00927
-0.9965
-0.977832
-0.956133
-0.933694
-0.908711
-0.878217
-1.00488
-1.0101
-1.00894
-1.00411
-0.994831
-0.97919
-0.959207
-0.940013
-0.920317
-0.893767
-1.00356
-1.00979
-1.00848
-1.00408
-0.997718
-0.987341
-0.969886
-0.953781
-0.938525
-0.919141
-1.01603
-1.02262
-1.02186
-1.01837
-1.01295
-1.00433
-0.9901
-0.973531
-0.95866
-0.943633
-1.04124
-1.04775
-1.04735
-1.04427
-1.03897
-1.03104
-1.01995
-1.00652
-0.992982
-0.980238
-1.07601
-1.08198
-1.08133
-1.07802
-1.07269
-1.06574
-1.0573
-1.04757
-1.03756
-1.0285
-1.11788
-1.12274
-1.12159
-1.11822
-1.11345
-1.10812
-1.10257
-1.09679
-1.09125
-1.08695
-0.790246
-0.659877
-0.604213
-0.523063
-0.425076
-0.314935
-0.215772
-0.134077
-0.0714963
-0.0199384
-0.789127
-0.661763
-0.606406
-0.517837
-0.414169
-0.30505
-0.207548
-0.128311
-0.0680506
-0.0187814
-0.796053
-0.669972
-0.612862
-0.514423
-0.405423
-0.295515
-0.199071
-0.122051
-0.0640618
-0.0172819
-0.812289
-0.68559
-0.624296
-0.513186
-0.398844
-0.286499
-0.190484
-0.115477
-0.059752
-0.0156328
-0.835347
-0.708982
-0.64076
-0.514443
-0.393817
-0.27788
-0.18177
-0.108623
-0.0552004
-0.0139403
-0.863114
-0.741045
-0.662643
-0.51878
-0.39034
-0.269654
-0.172926
-0.101505
-0.0504479
-0.0122474
-0.898231
-0.783194
-0.691077
-0.527146
-0.388657
-0.261833
-0.163902
-0.094085
-0.0454851
-0.0105588
-0.94492
-0.838101
-0.72778
-0.540806
-0.38912
-0.254431
-0.154595
-0.0862621
-0.0402339
-0.00884055
-1.00459
-0.908177
-0.775607
-0.561256
-0.392195
-0.247477
-0.144877
-0.077894
-0.0345686
-0.00703023
-1.07789
-0.997224
-0.838182
-0.590229
-0.398484
-0.241021
-0.134612
-0.0688268
-0.0283493
-0.00504807
-0.779402
-0.668707
-0.607044
-0.52296
-0.420597
-0.312664
-0.217183
-0.13576
-0.0719223
-0.0200664
-0.771762
-0.662136
-0.603532
-0.524027
-0.421784
-0.314825
-0.219036
-0.137176
-0.0727858
-0.0203784
-0.768659
-0.656868
-0.600661
-0.523838
-0.423074
-0.315734
-0.219448
-0.137296
-0.0729028
-0.0202838
-0.767641
-0.652291
-0.597401
-0.521961
-0.425381
-0.317573
-0.220249
-0.137688
-0.0733664
-0.0204
-0.77605
-0.650907
-0.596173
-0.519208
-0.427486
-0.319095
-0.220272
-0.137454
-0.0734464
-0.0205384
-0.551183
-0.656642
-0.733134
-0.783795
-0.814046
-0.83209
-0.839161
-0.840741
-0.835127
-0.821795
-0.548985
-0.65504
-0.730018
-0.778162
-0.80534
-0.820834
-0.826663
-0.827284
-0.824247
-0.809852
-0.551001
-0.657514
-0.732265
-0.779777
-0.806576
-0.822516
-0.829473
-0.830455
-0.828625
-0.813302
-0.555375
-0.663416
-0.738882
-0.786907
-0.814903
-0.832388
-0.84143
-0.842824
-0.841155
-0.825788
-0.562778
-0.672871
-0.74987
-0.799518
-0.830103
-0.850211
-0.862132
-0.864954
-0.862679
-0.850191
1.1272
1.11937
1.10762
1.09487
1.08186
1.06806
1.0535
1.03969
1.02984
1.03141
1.2142
1.21219
1.20692
1.20027
1.19284
1.18428
1.17471
1.16547
1.15965
1.16472
1.29549
1.29646
1.29513
1.29272
1.28966
1.28571
1.28086
1.27599
1.27373
1.28178
1.36853
1.37194
1.37399
1.37532
1.3761
1.37607
1.37503
1.37337
1.37357
1.38426
1.43114
1.43653
1.44125
1.44547
1.44919
1.45212
1.45392
1.45456
1.4563
1.46886
1.48201
1.48901
1.49586
1.50241
1.50848
1.51379
1.51788
1.52021
1.52266
1.53563
1.51953
1.52758
1.53591
1.54411
1.55188
1.55899
1.56497
1.56895
1.57204
1.58295
1.54214
1.55056
1.55949
1.56833
1.57673
1.58456
1.59148
1.59668
1.60035
1.60933
1.54854
1.55653
1.56499
1.57321
1.5808
1.5876
1.59333
1.59745
1.60126
1.61543
1.53808
1.54494
1.55206
1.55871
1.56451
1.5693
1.57286
1.57505
1.57783
1.59286
-0.434654
-0.462606
-0.498038
-0.540178
-0.588347
-0.642705
-0.702602
-0.762082
-0.814928
-0.850959
-0.266147
-0.296788
-0.333664
-0.376599
-0.42556
-0.480011
-0.538108
-0.596438
-0.649396
-0.684322
-0.0791228
-0.112576
-0.150969
-0.194377
-0.242949
-0.296385
-0.352965
-0.409258
-0.459612
-0.493582
0.115265
0.0797292
0.0403072
-0.00304387
-0.0505232
-0.102041
-0.156133
-0.209224
-0.256462
-0.285628
0.305243
0.26917
0.230149
0.188263
0.143202
0.0948584
0.0444484
-0.00458625
-0.0475456
-0.0714363
0.481832
0.447334
0.410726
0.3721
0.330984
0.287102
0.241482
0.19748
0.159821
0.141012
0.641125
0.610354
0.578176
0.544452
0.508532
0.470096
0.430115
0.391867
0.360086
0.345695
0.785096
0.759186
0.732388
0.704205
0.673922
0.641328
0.607429
0.575344
0.549529
0.539047
0.920348
0.89853
0.875733
0.851933
0.826579
0.799496
0.771577
0.745521
0.725268
0.718793
1.04447
1.02587
1.00507
0.984396
0.963627
0.942193
0.920467
0.900418
0.885424
0.882968
1.58866
1.51291
1.49727
1.459
1.44259
1.42584
1.40542
1.38119
1.33108
1.24653
1.57445
1.51004
1.49847
1.46187
1.44616
1.4304
1.41292
1.39195
1.35681
1.30475
1.56225
1.50679
1.49795
1.46365
1.44861
1.43373
1.41917
1.4035
1.38334
1.35985
1.55188
1.50339
1.49634
1.46486
1.45032
1.43614
1.42426
1.41391
1.40608
1.40671
1.54313
1.50007
1.4941
1.46551
1.4513
1.43755
1.4279
1.42204
1.42434
1.445
1.5358
1.49683
1.49155
1.46554
1.45157
1.43792
1.42997
1.42765
1.4382
1.47476
1.52973
1.49365
1.48896
1.46497
1.45116
1.43726
1.43045
1.43064
1.44745
1.4959
1.52478
1.49055
1.48648
1.46389
1.45013
1.4356
1.4294
1.43099
1.45187
1.50817
1.52084
1.48757
1.48419
1.46237
1.44851
1.43298
1.42688
1.42869
1.45123
1.51132
1.51779
1.48474
1.4821
1.46049
1.44632
1.42941
1.423
1.42379
1.44542
1.50508
1.71069
1.52309
1.48539
1.43791
1.42303
1.40416
1.37551
1.33593
1.26004
1.16188
1.67178
1.52645
1.49267
1.44269
1.42571
1.40602
1.37657
1.33686
1.25885
1.15141
1.6475
1.52667
1.49525
1.44593
1.42823
1.40896
1.38014
1.34193
1.26615
1.15503
1.62472
1.52371
1.49537
1.45062
1.43261
1.41397
1.38692
1.35191
1.27828
1.16657
1.60539
1.51725
1.49512
1.45477
1.43744
1.41966
1.39538
1.3633
1.29595
1.18534
0.957099
0.86891
0.758874
0.624241
0.4674
0.292355
0.106461
-0.0801399
-0.257236
-0.416373
0.948358
0.861319
0.75335
0.622153
0.469617
0.298165
0.113765
-0.0735529
-0.252732
-0.41387
0.960434
0.871383
0.761343
0.629785
0.477757
0.306463
0.121231
-0.0680585
-0.249813
-0.413515
0.985243
0.888074
0.772482
0.639337
0.486673
0.314399
0.127536
-0.0642307
-0.248973
-0.415607
1.02603
0.913147
0.786465
0.648823
0.494091
0.320311
0.131681
-0.0626143
-0.250555
-0.420425
)
;

boundaryField
{
    left
    {
        type            zeroGradient;
    }
    right
    {
        type            fixedValue;
        value           uniform 0;
    }
    down
    {
        type            zeroGradient;
    }
    up
    {
        type            zeroGradient;
    }
    cylinder
    {
        type            zeroGradient;
    }
    defaultFaces
    {
        type            empty;
    }
}


// ************************************************************************* //
