/*--------------------------------*- C++ -*----------------------------------*\
| =========                 |                                                 |
| \\      /  F ield         | OpenFOAM: The Open Source CFD Toolbox           |
|  \\    /   O peration     | Version:  2406                                  |
|   \\  /    A nd           | Website:  www.openfoam.com                      |
|    \\/     M anipulation  |                                                 |
\*---------------------------------------------------------------------------*/
FoamFile
{
    version     2.0;
    format      ascii;
    arch        "LSB;label=32;scalar=64";
    class       surfaceScalarField;
    location    "1.15";
    object      phi;
}
// * * * * * * * * * * * * * * * * * * * * * * * * * * * * * * * * * * * * * //

dimensions      [0 3 -1 0 0 0 0];

oriented        oriented;

internalField   nonuniform List<scalar> 
3485
(
-0.000363458
0.000178732
0.000184726
-0.000280396
0.000503746
-0.000586808
0.00186804
0.00090457
-0.00305301
0.00686566
0.000765066
-0.00576268
0.0151501
-0.00115074
-0.00713365
0.0268315
-0.00500364
-0.00667779
0.0419201
-0.0105195
-0.00456914
0.0604527
-0.0173786
-0.00115395
0.0823234
-0.0253674
0.00349671
-0.0301636
0.00822837
0.104259
-0.00081782
0.000996553
-0.00130899
0.000994919
-0.000385202
-1.92208e-05
0.00380454
-0.00342467
0.0123637
-0.00970991
0.0252893
-0.0179292
0.0421096
-0.0273399
0.0621279
-0.0373969
0.0845865
-0.0478261
-0.0542895
0.108712
-5.25817e-05
0.00104913
0.000300211
0.000642127
0.00322882
-0.00294783
0.0108521
-0.0110479
0.0234674
-0.0223252
0.0406176
-0.0350794
0.0613883
-0.0481106
0.0846947
-0.0607032
0.109661
-0.0727921
-0.0805801
0.135951
0.00045176
0.000597375
0.00272185
-0.00162797
0.00982186
-0.0100478
0.0224923
-0.0237183
0.0400894
-0.0399224
0.0614162
-0.0564062
0.0850957
-0.0717901
0.10991
-0.085518
0.134932
-0.0978136
-0.106183
0.160535
0.000847171
-0.000249796
0.00620027
-0.00698107
0.0179192
-0.0217668
0.0354364
-0.0412356
0.0570823
-0.0615682
0.0809521
-0.080276
0.105476
-0.0963136
0.129645
-0.109687
0.152791
-0.12096
-0.129582
0.17619
0.00182192
-0.00207172
0.0105564
-0.0157155
0.0264542
-0.0376645
0.0476084
-0.0623899
0.0713358
-0.0852956
0.0953929
-0.104333
0.118449
-0.11937
0.13997
-0.131208
0.159862
-0.140852
-0.148889
0.17917
0.00327192
-0.00534364
0.0151943
-0.027638
0.0344321
-0.0569023
0.0574673
-0.0854251
0.0809877
-0.108816
0.103038
-0.126384
0.122914
-0.139246
0.140628
-0.148922
0.156471
-0.156695
-0.163366
0.170947
0.00475812
-0.0101018
0.0194877
-0.0423676
0.040628
-0.0780425
0.0632902
-0.108087
0.08431
-0.129836
0.102539
-0.144613
0.118025
-0.154732
0.131235
-0.162131
0.14262
-0.16808
-0.173317
0.152572
0.00625044
-0.0163522
0.0229593
-0.0590764
0.0439609
-0.0990441
0.0639326
-0.128059
0.0806636
-0.146567
0.0940804
-0.15803
0.104897
-0.165548
0.113834
-0.171068
0.121377
-0.175623
-0.179703
0.127763
0.00760902
-0.0239612
0.0248345
-0.0763019
0.0434669
-0.117677
0.0590199
-0.143612
0.0707547
-0.158302
0.0795475
-0.166823
0.0864201
-0.172421
0.0920315
-0.17668
0.0966917
-0.180283
0.100485
-0.183496
-0.00146198
0.0194309
-0.0179689
-0.00491635
0.0396364
-0.0361821
-0.00927392
0.0486807
-0.0443232
-0.0139635
0.0526523
-0.0479627
-0.018772
0.0543287
-0.0495202
-0.0235596
0.0546795
-0.0498919
-0.028208
0.0541343
-0.0494859
-0.0326595
0.0529574
-0.0485059
-0.0369083
0.0513026
-0.0470538
0.0493375
-0.0409999
-0.045246
-0.000389185
0.01982
-0.00242922
0.0416765
-0.00550836
0.0517599
-0.00904328
0.0561872
-0.0128275
0.0581129
-0.016794
0.058646
-0.0208448
0.0581852
-0.0248246
0.0569371
-0.0286664
0.0551444
0.0530868
-0.0324157
0.000876582
0.0189435
0.000696033
0.041857
-0.000668247
0.0531241
-0.00258498
0.0581039
-0.00466239
0.0601903
-0.00684597
0.0608296
-0.00920781
0.060547
-0.0117725
0.0595018
-0.0144952
0.0578671
0.0557897
-0.017198
0.0022534
0.0166901
0.0044893
0.0396211
0.00564966
0.0519638
0.00607963
0.057674
0.00622905
0.0600409
0.0062716
0.060787
0.00615286
0.0606657
0.0056913
0.0599634
0.00484628
0.0587121
0.0569484
0.00368752
0.0037706
0.0129195
0.00910566
0.034286
0.0136887
0.0473808
0.0172759
0.0540867
0.0201283
0.0571885
0.0224901
0.0584253
0.024552
0.0586038
0.0264678
0.0580476
0.0283617
0.0568181
0.0549416
0.0303686
0.00452293
0.00839653
0.0123426
0.0264664
0.020185
0.0395383
0.0271186
0.0471532
0.0331948
0.0511122
0.0386899
0.0529302
0.04385
0.0534437
0.0488623
0.0530353
0.0538836
0.0517968
0.0496773
0.0591479
0.00418202
0.00421452
0.0130559
0.0175925
0.0231834
0.0294108
0.033039
0.0372976
0.0422934
0.0418578
0.0510738
0.0441498
0.0595928
0.0449247
0.0680247
0.0446034
0.0765157
0.0433058
0.0407191
0.085474
0.00294363
0.00127089
0.0111965
0.0093396
0.0219783
0.018629
0.0335524
0.0257235
0.0452171
0.0301931
0.0568429
0.0325241
0.068511
0.0332566
0.0803035
0.0328109
0.0922334
0.0313759
0.0279097
0.105043
0.00132172
-5.08331e-05
0.00737
0.00329132
0.0168202
0.00917886
0.0281148
0.0144288
0.0404492
0.0178587
0.0535722
0.0194011
0.067468
0.0193607
0.0821487
0.0181302
0.0975897
0.0159349
0.0110508
0.114449
0.000133893
0.00283841
0.00896425
0.0176304
0.0283555
0.0410788
0.0558704
0.0728466
0.0922782
0.111557
-0.0541837
0.326236
-0.313053
-0.0340048
0.0775464
-0.0977253
0.00139856
-0.117006
0.0816021
0.0433566
-0.240583
0.198625
0.0823851
-0.278601
0.239572
0.111926
-0.261088
0.231548
0.131994
-0.219149
0.199081
0.144175
-0.168155
0.155973
0.15174
-0.126979
0.119414
-0.0650573
0.0625669
-0.0545543
0.348375
-0.0442935
0.0672856
-0.00814608
-0.153153
0.0371483
-0.285877
0.0793256
-0.320778
0.111074
-0.292837
0.132649
-0.240723
0.145682
-0.181188
0.153936
-0.135232
-0.0679038
-0.0463845
0.377561
-0.0461335
0.0670346
-0.0100936
-0.189193
0.0369425
-0.332913
0.0802101
-0.364046
0.112416
-0.325043
0.134377
-0.262684
0.147688
-0.194499
0.156431
-0.143975
-0.0711709
-0.0268684
0.408117
-0.0347942
0.0749604
0.000363181
-0.22435
0.0468236
-0.379374
0.0887713
-0.405993
0.118819
-0.355091
0.139058
-0.282923
0.151358
-0.206799
0.159938
-0.152555
-0.0747583
0.00108304
0.437403
-0.0104098
0.0864533
0.02099
-0.25575
0.0677109
-0.426095
0.107556
-0.445838
0.133421
-0.380957
0.14932
-0.298822
0.158552
-0.216031
0.165668
-0.159671
-0.0782733
0.0377584
0.458792
0.0219389
0.102273
0.0482325
-0.282044
0.0942579
-0.47212
0.134316
-0.485896
0.157153
-0.403794
0.167469
-0.309138
0.171587
-0.220148
0.175396
-0.163481
-0.0809539
0.077878
0.466388
0.0578787
0.122272
0.0751192
-0.299284
0.118638
-0.515638
0.161673
-0.528932
0.186078
-0.428199
0.193106
-0.316167
0.191925
-0.218967
0.190974
-0.16253
-0.0819192
0.116266
0.455165
0.0949203
0.143618
0.102312
-0.306676
0.139945
-0.553271
0.184293
-0.57328
0.213515
-0.457421
0.221961
-0.324612
0.218252
-0.215258
0.212942
-0.15722
-0.0808956
0.150301
0.419313
0.130948
0.16297
0.133092
-0.30882
0.163395
-0.583574
0.203938
-0.613822
0.235909
-0.489392
0.248602
-0.337305
0.246347
-0.213003
0.23923
-0.150103
-0.0787973
0.173207
0.357664
0.165153
0.171024
0.165955
-0.309622
0.190547
-0.608166
0.22486
-0.648135
0.254543
-0.519076
0.270135
-0.352897
0.271457
-0.214324
0.26575
-0.144396
-0.0774141
0.313549
0.262119
-0.218004
0.422829
0.0617437
0.514345
-0.401138
0.558649
-0.65247
0.556052
-0.645539
0.535609
-0.498632
0.513119
-0.330407
0.489899
-0.191104
0.465585
-0.120083
-0.0640026
0.483866
0.21044
-0.432187
0.611594
-0.0659842
0.690506
-0.48005
0.70152
-0.663483
0.665089
-0.609108
0.611739
-0.445282
0.565449
-0.284116
0.532865
-0.15852
0.507712
-0.09493
-0.0508145
0.687173
0.154896
-0.631629
0.776903
-0.155714
0.802244
-0.505391
0.77271
-0.633949
0.718833
-0.555232
0.658031
-0.38448
0.603167
-0.229253
0.563686
-0.119039
0.53543
-0.0666744
-0.0368916
0.832707
0.0836931
-0.761504
0.883824
-0.206831
0.876584
-0.498151
0.822941
-0.580306
0.74728
-0.479571
0.672823
-0.310022
0.612827
-0.169257
0.572117
-0.0783287
0.543462
-0.0380199
-0.0231409
0.910115
0.012055
-0.838477
0.9419
-0.238616
0.9208
-0.477051
0.855618
-0.515124
0.76773
-0.391683
0.681389
-0.223682
0.613214
-0.101082
0.569066
-0.0341807
0.540407
-0.0093611
-0.00991942
0.947241
-0.0518395
-0.883347
0.973376
-0.26475
0.934557
-0.438233
0.840875
-0.421442
0.733001
-0.283809
0.644196
-0.134877
0.582984
-0.0398692
0.546553
0.00225004
0.524355
0.0128375
0.000881251
0.9562
-0.106066
-0.901973
0.964576
-0.273127
0.893725
-0.367382
0.77428
-0.301996
0.655903
-0.165432
0.570952
-0.0499262
0.52158
0.00950278
0.497184
0.0266456
0.485014
0.0250081
0.00743427
0.909873
-0.137523
-0.878416
0.868551
-0.231805
0.743011
-0.241842
0.596874
-0.155859
0.488035
-0.0565939
0.431204
0.0069049
0.409117
0.0315898
0.403901
0.0318617
0.404377
0.0245323
0.00844561
0.712271
-0.11036
-0.739434
0.590679
-0.110213
0.422666
-0.0738291
0.296658
-0.0298508
0.241076
-0.00101207
0.233192
0.0147882
0.244248
0.0205342
0.258164
0.0179454
0.269653
0.0130439
0.00477183
0.236212
-0.346571
0.125999
0.05217
0.0223192
0.0213071
0.0360954
0.0566296
0.074575
0.0876188
0.524466
0.0955244
-0.519506
0.528752
0.123478
0.531207
0.150117
0.526898
0.175256
0.512737
0.19333
0.480861
0.208067
0.429635
0.21176
0.356534
0.209053
0.271827
0.19342
0.158081
0.545598
0.0846876
-0.534761
0.556306
0.112769
0.568553
0.13787
0.578119
0.16569
0.584027
0.187422
0.583193
0.208901
0.568985
0.225968
0.547293
0.230746
0.493618
0.247094
0.219513
0.567396
0.0723681
-0.555076
0.580728
0.0994364
0.59653
0.122068
0.613696
0.148525
0.629279
0.171839
0.646099
0.19208
0.654979
0.217088
0.661525
0.224199
0.655986
0.252633
0.24387
0.587863
0.0603295
-0.575824
0.602651
0.0846481
0.619968
0.104751
0.640644
0.127849
0.662349
0.150134
0.686075
0.168355
0.709606
0.193557
0.729979
0.203826
0.751436
0.231176
0.233802
0.599663
0.0483737
-0.587707
0.61576
0.0685512
0.634777
0.0857345
0.657772
0.104853
0.683921
0.123985
0.711944
0.140332
0.743913
0.161588
0.773841
0.173898
0.808675
0.196342
0.204
0.5997
0.0359145
-0.58724
0.616674
0.0515768
0.637663
0.0647458
0.662528
0.0799882
0.691951
0.0945619
0.723958
0.108325
0.761055
0.124491
0.79873
0.136223
0.841789
0.153283
0.162442
0.587108
0.022949
-0.574143
0.604405
0.03428
0.626875
0.042276
0.652873
0.0539896
0.684687
0.0627478
0.719428
0.0735841
0.760145
0.0837741
0.803105
0.0932623
0.852311
0.104077
0.11278
0.555029
0.010605
-0.542685
0.5724
0.0169091
0.594225
0.0204505
0.620238
0.027977
0.651855
0.0311309
0.686586
0.0388535
0.728294
0.0420653
0.772519
0.0490374
0.824431
0.0521658
0.058795
0.476879
0.00115934
-0.467433
0.490885
0.00290334
0.507441
0.00389465
0.529106
0.00631136
0.553354
0.00688281
0.582528
0.00967992
0.615158
0.00943509
0.652095
0.0121001
0.69343
0.0108311
0.0127912
0.271742
-0.270583
0.274645
0.27854
0.284851
0.291734
0.301414
0.310849
0.322949
0.33378
0.0682279
0.136283
-0.124263
-0.0802484
0.0577094
0.136854
-0.126336
0.0483717
0.137777
-0.12844
0.0396202
0.139281
-0.130529
0.0311307
0.140775
-0.132285
0.0228852
0.141505
-0.13326
0.0150543
0.140103
-0.132272
0.00790149
0.134106
-0.126953
0.00227525
0.115672
-0.110045
0.0622764
-0.0600011
0.066436
0.147225
-0.0773776
0.0559518
0.147339
0.0461663
0.147563
0.0370938
0.148353
0.0285534
0.149315
0.0205012
0.149558
0.0130615
0.147542
0.00645514
0.140712
0.00159623
0.12053
0.0638726
0.0592563
0.157039
-0.0690703
0.0495016
0.157093
0.0402002
0.156864
0.0315491
0.157004
0.0235411
0.157323
0.0161934
0.156905
0.00960243
0.154133
0.00400784
0.146307
0.00036701
0.124171
0.0642396
0.0472891
0.16552
-0.0557707
0.0388249
0.165558
0.0306252
0.165064
0.0229537
0.164676
0.0159621
0.164315
0.0097973
0.16307
0.00455951
0.159371
0.000427926
0.150439
-0.00111941
0.125719
0.0631202
0.0317728
0.172602
-0.0388541
0.0248534
0.172477
0.018178
0.171739
0.0119501
0.170904
0.00640695
0.169858
0.00184667
0.16763
-0.00166457
0.162882
-0.00365922
0.152433
-0.00292584
0.124985
0.0601943
0.0143197
0.17823
-0.019948
0.00896716
0.177829
0.00388104
0.176825
-0.000724993
0.17551
-0.00441576
0.173549
-0.00699115
0.170206
-0.00857615
0.164467
-0.00824198
0.152099
-0.00476881
0.121512
0.0554255
-0.00476929
0.182519
0.000480543
-0.00856709
0.181627
-0.0118486
0.180107
-0.0143248
0.177986
-0.0158116
0.175036
-0.0164803
0.170874
-0.0159745
0.163961
-0.0128992
0.149024
-0.0064593
0.115072
0.0489662
-0.0261926
0.184948
0.023763
-0.0278481
0.183283
-0.028733
0.180992
-0.0288722
0.178125
-0.0283759
0.174539
-0.0270648
0.169563
-0.0239329
0.16083
-0.017573
0.142664
-0.00785348
0.105353
0.0411128
-0.0485629
0.185197
0.0483146
-0.0479878
0.182708
-0.0467922
0.179796
-0.045036
0.176369
-0.0425144
0.172018
-0.0385741
0.165623
-0.0320639
0.154319
-0.0217493
0.132349
-0.00863114
0.0922345
0.0324816
-0.0718386
0.0735389
-0.0694141
-0.0662978
-0.0623497
-0.0571545
-0.0498331
-0.0391257
-0.024453
-0.00852038
0.0911724
0.0368204
-0.10176
-0.026233
0.0804837
0.0377356
-0.0270469
0.0697041
0.0386732
-0.0278935
0.0588406
0.0396043
-0.0287409
0.0479003
0.0404595
-0.0295192
0.0369018
0.0410497
-0.0300513
0.0259255
0.0408818
-0.0299054
0.0152372
0.0388573
-0.028169
0.00567701
0.0327691
-0.0232089
0.0176589
-0.0119819
0.092072
0.0475669
-0.102818
0.081251
0.0485565
0.070337
0.0495872
0.0593436
0.0505978
0.0482837
0.0515194
0.0371822
0.0521512
0.0261179
0.0519461
0.0153404
0.0496348
0.00568959
0.0424199
0.0233485
0.0932365
0.058248
-0.103918
0.0824318
0.0593611
0.0715167
0.0605023
0.060485
0.0616295
0.0493352
0.0626692
0.0380841
0.0634023
0.0268176
0.0632126
0.0157996
0.0606527
0.00588072
0.0523388
0.0292292
0.0912632
0.0689491
-0.101964
0.0805206
0.0701037
0.0697067
0.0713163
0.0588262
0.07251
0.0478759
0.0736195
0.036865
0.0744132
0.025872
0.0742056
0.0151507
0.0713741
0.0055515
0.061938
0.0347807
0.089976
0.0796087
-0.100636
0.0792736
0.0808061
0.068517
0.0820729
0.0577112
0.0833158
0.046859
0.0844717
0.0359833
0.0852889
0.025179
0.0850099
0.0146953
0.0818578
0.00534098
0.0712923
0.0401217
0.0875709
0.0900542
-0.0980164
0.0770645
0.0913125
0.0664743
0.0926631
0.0558394
0.0939507
0.0451902
0.0951208
0.034564
0.095915
0.0240599
0.0955141
0.0139251
0.0919926
0.00495664
0.0802607
0.0450783
0.0839033
0.0998908
-0.0937399
0.0740907
0.101125
0.0641727
0.102581
0.0540821
0.104041
0.0438238
0.105379
0.0334779
0.106261
0.0232178
0.105774
0.0133463
0.101864
0.00470888
0.0888982
0.0497872
0.0769848
0.109659
-0.0867527
0.0674435
0.110666
0.0580555
0.111969
0.0487493
0.113347
0.0394165
0.114712
0.0300194
0.115658
0.0206787
0.115115
0.0116968
0.110846
0.00395239
0.0966426
0.0537396
0.0736278
0.118
-0.0819694
0.0649876
0.119307
0.0558769
0.12108
0.0465358
0.122689
0.0371695
0.124078
0.0279157
0.124912
0.0189453
0.124085
0.0105172
0.119274
0.00342852
0.103731
0.0571681
0.0637976
-0.0700599
0.0567683
0.0494083
0.0415678
0.0333606
0.0250125
0.0168261
0.009147
0.002833
0.203054
-0.0220354
0.0169714
0.206562
0.0492896
-0.0527977
0.204424
0.144009
-0.141872
0.199811
0.178233
-0.17362
0.195058
0.168889
-0.164136
0.190117
0.162363
-0.157423
0.183239
0.154421
-0.147543
0.173169
0.169917
-0.159847
0.15005
0.193649
-0.17053
0.249259
-0.200969
0.202893
-0.0269383
0.205708
0.0464745
0.202702
0.147015
0.19749
0.183446
0.192399
0.17398
0.187521
0.167241
0.18153
0.160412
0.172118
0.179329
0.150144
0.215623
0.296584
0.202644
-0.0315922
0.204663
0.0444554
0.200586
0.151092
0.194455
0.189577
0.188759
0.179675
0.183704
0.172297
0.178466
0.16565
0.169319
0.188476
0.148793
0.23615
0.341459
0.202308
-0.0359101
0.203447
0.0433164
0.198052
0.156487
0.190666
0.196963
0.184234
0.186107
0.178918
0.177613
0.174216
0.170352
0.164948
0.197743
0.145811
0.255287
0.385306
0.201905
-0.0398254
0.202096
0.0431259
0.195069
0.163514
0.186189
0.205843
0.179072
0.193224
0.173456
0.183229
0.168954
0.174854
0.158978
0.20772
0.141848
0.272417
0.426518
0.20146
-0.0432955
0.200621
0.0439652
0.191625
0.172509
0.181282
0.216186
0.173642
0.200864
0.167549
0.189322
0.1628
0.179603
0.151811
0.218709
0.136975
0.287253
0.465477
0.200936
-0.0462418
0.198961
0.0459404
0.18782
0.183649
0.17633
0.227676
0.168245
0.208949
0.161351
0.196216
0.156001
0.184953
0.143749
0.230961
0.130788
0.300214
0.502525
0.200202
-0.0484544
0.197036
0.0491067
0.183909
0.196777
0.171649
0.239936
0.163038
0.21756
0.15505
0.204204
0.148953
0.19105
0.135225
0.244689
0.124743
0.310696
0.540515
0.199096
-0.0495602
0.194879
0.0533232
0.180251
0.211405
0.167443
0.252744
0.158244
0.226759
0.149116
0.213333
0.142282
0.197883
0.127798
0.259173
0.118197
0.320297
0.576743
0.19754
-0.0491108
0.192503
0.0583609
0.1772
0.226707
0.164069
0.265875
0.154695
0.236133
0.144768
0.22326
0.137041
0.20561
0.120252
0.275963
0.112927
0.327622
0.61961
0.305707
-0.0528079
0.313891
0.0501774
0.315479
0.225119
0.311722
0.269632
0.313132
0.234723
0.309792
0.226599
0.318571
0.19683
0.316096
0.278438
0.364557
0.279161
0.53799
0.446177
0.302118
-0.0529157
0.314438
0.0378577
0.329811
0.209746
0.339711
0.259731
0.350794
0.22364
0.358284
0.219109
0.369139
0.185975
0.371396
0.276181
0.400678
0.249879
0.465547
0.473121
0.298788
-0.0496934
0.316143
0.020503
0.346894
0.178994
0.375166
0.23146
0.391707
0.207099
0.414514
0.196302
0.423688
0.176802
0.43713
0.26274
0.464536
0.222472
0.41053
0.519553
0.295414
-0.0430972
0.316484
-0.000566633
0.360715
0.134763
0.405484
0.18669
0.425078
0.187505
0.459746
0.161635
0.471614
0.164934
0.490344
0.244009
0.525055
0.18776
0.365871
0.569715
0.294003
-0.0350903
0.315279
-0.0218421
0.368322
0.0817202
0.422653
0.132359
0.447983
0.162175
0.485955
0.123663
0.504398
0.146491
0.525659
0.222748
0.563109
0.150311
0.314585
0.614394
0.295488
-0.0285684
0.314877
-0.0412304
0.369753
0.0268436
0.4257
0.0764125
0.459455
0.12842
0.496046
0.0870708
0.520484
0.122053
0.547088
0.196144
0.583401
0.113998
0.25425
0.643737
0.300127
-0.0266854
0.316692
-0.0577956
0.364591
-0.0210546
0.413662
0.027341
0.454641
0.0874412
0.488053
0.0536587
0.515945
0.0941615
0.553553
0.158536
0.588442
0.0791085
0.190197
0.652496
0.306788
-0.0314634
0.317293
-0.0683007
0.347429
-0.0511907
0.379345
-0.00457468
0.422434
0.044352
0.449132
0.0269613
0.478397
0.0648963
0.53286
0.104073
0.564439
0.0475297
0.126642
0.627993
0.307435
-0.0368879
0.299314
-0.06018
0.29607
-0.0479464
0.303121
-0.0116261
0.33473
0.0127436
0.350372
0.011319
0.386079
0.0291891
0.447533
0.0426186
0.472712
0.0223507
0.058228
0.541127
0.265122
0.204942
0.156996
0.14537
0.158113
0.169432
0.198621
0.24124
0.263591
0.321819
0.463655
-0.0977268
0.472607
-0.0863295
0.479472
-0.0759348
0.485279
-0.0615783
0.491329
-0.0449038
0.497175
-0.0257939
0.502852
-0.00519632
0.508906
0.0177093
0.514609
0.0426114
0.0686414
0.481064
-0.10567
0.486861
-0.0921271
0.49117
-0.0802431
0.494605
-0.0650132
0.499308
-0.0496076
0.504043
-0.0305281
0.510498
-0.0116516
0.517242
0.0109653
0.526
0.0338532
0.0598804
0.518697
-0.104813
0.519541
-0.0929711
0.520866
-0.0815684
0.522174
-0.0663209
0.524738
-0.0521715
0.527595
-0.0333854
0.532396
-0.0164524
0.53754
0.00582078
0.54594
0.0254534
0.0507441
0.56388
-0.0989783
0.560002
-0.0890928
0.556788
-0.0783544
0.554865
-0.0643982
0.553864
-0.0511703
0.554269
-0.0337906
0.55638
-0.0185635
0.56019
0.00201049
0.566861
0.0187832
0.0417803
0.604034
-0.0886179
0.5949
-0.0799591
0.586584
-0.0700384
0.580223
-0.0580366
0.575002
-0.0459491
0.572303
-0.0310917
0.571418
-0.0176786
0.573842
-0.000413792
0.578834
0.0137917
0.0329065
0.629015
-0.0738966
0.614358
-0.0653015
0.601068
-0.0567486
0.590213
-0.0471814
0.5814
-0.0371361
0.575912
-0.0256045
0.572966
-0.0147319
0.574172
-0.00162052
0.578428
0.00953644
0.0240937
0.631557
-0.0529581
0.612605
-0.0463493
0.595773
-0.0399167
0.582004
-0.0334117
0.571156
-0.0262881
0.564259
-0.0187077
0.560559
-0.0110321
0.561176
-0.00223785
0.565311
0.00540204
0.0152619
0.603894
-0.0288592
0.583173
-0.0256278
0.565345
-0.022089
0.550876
-0.0189421
0.539822
-0.0152343
0.532667
-0.0115527
0.529011
-0.00737672
0.529842
-0.00306839
0.533943
0.00130102
0.00651968
0.521158
-0.00889029
0.503608
-0.00807795
0.488882
-0.00736305
0.476823
-0.00688316
0.467735
-0.00614626
0.461529
-0.00534714
0.458326
-0.00417354
0.458156
-0.00289852
0.460905
-0.00144767
-8.63369e-06
0.312928
0.304851
0.297487
0.290604
0.284458
0.279111
0.274937
0.272039
0.270591
0.00448127
0.043185
-0.0476663
0.00850377
0.0954697
-0.0994922
0.0100832
0.121582
-0.123161
0.0102449
0.132857
-0.133018
0.010256
0.137243
-0.137254
0.00981492
0.139763
-0.139322
0.00857153
0.140581
-0.139338
0.00691191
0.138699
-0.137039
0.00535867
0.133468
-0.131915
0.123042
0.00437721
-0.12206
0.00566419
0.0375208
0.0123076
0.0888263
0.0167026
0.117187
0.0192158
0.130344
0.0207849
0.135674
0.0220809
0.138467
0.0228967
0.139766
0.0230359
0.13856
0.0227052
0.133799
0.123764
0.0219832
0.00636585
0.031155
0.0153636
0.0798286
0.022503
0.110048
0.0273804
0.125466
0.0307429
0.132312
0.0335536
0.135657
0.0360676
0.137252
0.0379058
0.136721
0.0388364
0.132868
0.124053
0.0385468
0.00647034
0.0246846
0.0173534
0.0689455
0.0270592
0.100342
0.0342705
0.118255
0.0395474
0.127035
0.0439082
0.131296
0.0478348
0.133325
0.0511301
0.133426
0.0533148
0.130683
0.123568
0.0537998
0.00602402
0.0186606
0.0180825
0.056887
0.0301723
0.088252
0.0397891
0.108638
0.0470182
0.119806
0.0528695
0.125444
0.0580283
0.128166
0.0625355
0.128919
0.0658856
0.127333
0.12216
0.0672936
0.00516887
0.0134918
0.0174366
0.0446193
0.0315384
0.0741502
0.0437874
0.0963891
0.053286
0.110307
0.0607614
0.117969
0.0671149
0.121813
0.0727169
0.123317
0.0772683
0.122782
0.119509
0.0799198
0.00410443
0.00938732
0.0154125
0.0333112
0.0304852
0.0590776
0.0452894
0.0815849
0.0576685
0.0979279
0.0674598
0.108178
0.0754162
0.113856
0.0822244
0.116509
0.0880047
0.117001
0.115284
0.0922298
0.00304465
0.00634268
0.0124111
0.0239447
0.0266762
0.0448125
0.042742
0.0655192
0.057829
0.0828408
0.0706252
0.0953815
0.0810915
0.10339
0.0897532
0.107847
0.0970111
0.109743
0.109572
0.102723
0.00215751
0.00418516
0.00917067
0.0169316
0.0209777
0.0330055
0.0360715
0.0504253
0.0521692
0.0667431
0.0674198
0.0801309
0.080912
0.089898
0.0925253
0.0962337
0.102586
0.0996825
0.100561
0.111598
0.00138672
0.00279844
0.00600111
0.0123172
0.0144119
0.0245947
0.0264361
0.0384011
0.0408649
0.0523143
0.0561046
0.0648912
0.0708449
0.0751577
0.0842898
0.0827888
0.0961208
0.0878515
0.0901458
0.106536
0.000592907
0.00220553
0.00287434
0.0100358
0.00771572
0.0197533
0.0157027
0.0304141
0.0266267
0.0413904
0.0395863
0.0519315
0.053486
0.0612579
0.0674119
0.0688629
0.0806514
0.0746121
0.0785749
0.0922222
-0.000257107
0.00246264
-8.30095e-05
0.00986166
0.00162255
0.0180478
0.00572729
0.0263093
0.01263
0.0344877
0.0220744
0.0424871
0.0333604
0.0499719
0.0457244
0.0564989
0.0584629
0.0618737
0.0660112
0.0710266
-0.00095636
0.003419
-0.0022548
0.0111601
-0.00270991
0.0185029
-0.00148725
0.0250867
0.00198451
0.0310159
0.00789774
0.0365739
0.0159012
0.0419685
0.0254066
0.0469935
0.0359337
0.0513465
0.0546679
0.0472771
-0.00123702
0.00465602
-0.0032011
0.0131242
-0.00473266
0.0200345
-0.0052087
0.0255627
-0.00420865
0.0300159
-0.00140958
0.0337748
0.0032137
0.0373452
0.00931238
0.0408948
0.0166744
0.0439845
0.0460653
0.025277
-0.00165454
0.00631057
-0.0043541
0.0158237
-0.00681221
0.0224926
-0.00849563
0.0272461
-0.00926336
0.0307836
-0.00900323
0.0335147
-0.00755702
0.035899
-0.00488999
0.0382278
-0.000819185
0.0399137
0.0409022
0.00434392
-0.00229545
0.00860602
-0.00593
0.0194583
-0.00939577
0.0259583
-0.0120973
0.0299476
-0.0138822
0.0325686
-0.0148501
0.0344825
-0.0151312
0.0361802
-0.0144808
0.0375774
-0.0127134
0.0381462
0.0380379
-0.00984912
-0.00247931
0.0110853
-0.00650603
0.023485
-0.0105136
0.0299659
-0.0139764
0.0334104
-0.0168021
0.0353943
-0.0190227
0.036703
-0.0205795
0.037737
-0.0213872
0.0383851
-0.0215551
0.0383141
0.037589
-0.0211062
-0.0024441
0.0135294
-0.00665486
0.0276958
-0.0111633
0.0344743
-0.0155177
0.0377648
-0.0195734
0.03945
-0.0231989
0.0403286
-0.0261926
0.0407307
-0.0284805
0.040673
-0.0302131
0.0400467
0.0388831
-0.0315073
-0.00236349
0.0158929
-0.0066983
0.0320306
-0.011615
0.039391
-0.0166326
0.0427824
-0.0215243
0.0443418
-0.0260944
0.0448986
-0.0301746
0.0448109
-0.0337074
0.0442058
-0.0367676
0.0431069
0.0415766
-0.0394611
-0.00207596
-0.00622744
-0.0111596
-0.0163398
-0.0215182
-0.0265115
-0.0311865
-0.0354865
-0.0394334
-0.0431028
0.0782462
0.319171
-0.305195
0.0603189
0.216138
-0.198211
0.0528977
0.118334
-0.110913
0.0582554
0.0278547
-0.0332124
0.0688707
-0.0298973
0.019282
0.0823493
-0.0592594
0.0457807
0.0961427
-0.0666025
0.0528091
0.108644
-0.0608784
0.0483775
0.119866
-0.0500361
0.0388135
-0.0289979
0.0216907
0.0640046
0.326193
0.0513604
0.228783
0.0505355
0.119159
0.0605995
0.0177907
0.0736787
-0.0429764
0.087797
-0.0733777
0.101406
-0.0802117
0.113316
-0.0727882
0.123669
-0.0603887
-0.0353658
0.0471531
0.326317
0.0405896
0.235346
0.0473354
0.112413
0.061999
0.0031271
0.0778023
-0.0587798
0.0928005
-0.0883759
0.106298
-0.0937088
0.117582
-0.0840726
0.127014
-0.0698203
-0.0408645
0.0290046
0.322589
0.0296925
0.234658
0.0443116
0.0977942
0.0632146
-0.0157759
0.0815613
-0.0771264
0.0975872
-0.104402
0.111081
-0.107203
0.121765
-0.0947565
0.130293
-0.0783485
-0.0455658
0.0116481
0.315285
0.0202704
0.226036
0.0419397
0.0761249
0.0645426
-0.0383787
0.0851488
-0.0977327
0.102249
-0.121502
0.115839
-0.120793
0.125998
-0.104915
0.133687
-0.0860374
-0.0495298
-0.00417281
0.309609
0.0125766
0.209286
0.0396489
0.0490526
0.0654941
-0.064224
0.0882722
-0.120511
0.106545
-0.139774
0.120392
-0.134641
0.130192
-0.114715
0.137189
-0.0930341
-0.0528378
-0.0184521
0.306955
0.00574233
0.185092
0.0364107
0.0183842
0.0652565
-0.0930698
0.090355
-0.145609
0.11005
-0.159469
0.124421
-0.149013
0.134119
-0.124413
0.140661
-0.0995757
-0.0556165
-0.0305913
0.306039
-0.00161493
0.156116
0.031185
-0.0144158
0.0630305
-0.124915
0.0908493
-0.173428
0.112382
-0.181001
0.127644
-0.164275
0.137549
-0.134318
0.143929
-0.105955
-0.0580354
-0.040736
0.307314
-0.0100742
0.125454
0.0232572
-0.0477472
0.058344
-0.160002
0.089474
-0.204558
0.113354
-0.204881
0.12992
-0.180842
0.140349
-0.144746
0.146869
-0.112475
-0.060287
-0.0488418
-0.0211133
0.0127416
0.0513644
0.0863785
0.113045
0.131284
0.142511
0.14945
0.0150707
0.0194769
-0.0345476
0.00667295
0.00839778
0.00223647
0.00443648
0.000648356
0.00158812
0.00261712
-0.00196876
0.00676817
-0.00415105
0.0115906
-0.00482246
0.0162045
-0.0046139
0.0195264
-0.00332185
-0.00180359
0.0740145
0.0693682
-0.123906
0.0455518
0.0368605
0.0302645
0.0197237
0.0258276
0.00602503
0.0304719
-0.00661301
0.0391968
-0.012876
0.0486827
-0.0143083
0.0573383
-0.0132695
0.0636982
-0.00968175
-0.00523273
0.126833
0.144035
-0.201499
0.0819454
0.081748
0.0576496
0.0440195
0.050347
0.0133276
0.0547387
-0.0110047
0.0647614
-0.0228987
0.0763387
-0.0258856
0.0869682
-0.023899
0.0953964
-0.01811
-0.0100066
0.159319
0.229395
-0.24468
0.103466
0.137601
0.0721477
0.075338
0.0625628
0.0229126
0.0665939
-0.0150358
0.0775506
-0.0338554
0.09055
-0.038885
0.102445
-0.0357939
0.112429
-0.0280945
-0.015724
0.173792
-0.249591
0.113182
0.077607
0.0673072
0.0715534
0.0834787
0.0974028
0.109986
0.120705
0.00991487
8.538e-05
-0.0100002
0.0109427
-0.00102782
0.012886
-0.00194326
0.0155619
-0.00267595
0.0187161
-0.00315419
0.021872
-0.00315591
0.0251713
-0.00329927
0.0277733
-0.00260205
0.0311397
-0.00336634
-0.00340794
0.0260018
-8.85381e-05
-0.0258279
0.0289308
-0.00395678
0.0343303
-0.00734275
0.0419082
-0.0102539
0.0512396
-0.0124856
0.0618575
-0.0137738
0.0744781
-0.0159198
0.0879284
-0.0160524
0.105352
-0.0207901
-0.0219615
0.0388229
-0.000808285
-0.0381031
0.0434868
-0.00862073
0.0518285
-0.0156845
0.0636025
-0.0220279
0.0783805
-0.0272635
0.0961452
-0.0315385
0.117545
-0.0373198
0.141615
-0.0401224
0.171867
-0.0510415
-0.0515944
0.0487196
-0.00222951
-0.0472984
0.0548272
-0.0147283
0.0654536
-0.0263109
0.0803585
-0.0369328
0.0992078
-0.0461129
0.122287
-0.0546177
0.149029
-0.0640619
0.180254
-0.0713468
0.214368
-0.085156
-0.0819064
0.0561358
-0.0539881
0.0633907
0.0756266
0.0924937
0.113674
0.138977
0.167145
0.19852
0.224962
0.0624979
-0.055933
0.0623418
-0.0689066
0.0557448
-0.0561142
0.0628672
0.0489068
-0.0565063
0.0633443
0.0418231
-0.0568432
0.0639269
0.0343766
-0.0570184
0.0644649
0.0265811
-0.056834
0.0646295
0.0186058
-0.0558053
0.0637807
0.0107794
-0.0528491
0.0606755
0.00386069
-0.0453194
0.0522381
-0.0255425
0.0294032
0.0682879
-0.0486206
-0.0756003
0.0607828
-0.048609
0.0529001
-0.0486236
0.0446656
-0.0486087
0.0361838
-0.0485366
0.0276076
-0.0482577
0.0191302
-0.047328
0.0110294
-0.0447483
0.0039683
-0.0382583
-0.0215742
0.0691155
-0.0403725
-0.0773636
0.0607627
-0.0402563
0.0523287
-0.0401896
0.0438523
-0.0401323
0.0353739
-0.0400582
0.0269446
-0.0398284
0.0186631
-0.0390465
0.010753
-0.0368382
0.00385984
-0.0313651
-0.0177143
0.0716728
-0.0318552
-0.0801901
0.0631161
-0.0316996
0.054489
-0.0315626
0.0457874
-0.0314307
0.0370204
-0.0312912
0.0282392
-0.0310472
0.0195791
-0.0303864
0.0113193
-0.0285784
0.00412498
-0.0241708
-0.0135894
0.074338
-0.0230253
-0.083168
0.0654132
-0.0227747
0.0563859
-0.0225353
0.0472607
-0.0223055
0.0380661
-0.0220966
0.0288839
-0.021865
0.0198949
-0.0213974
0.0114354
-0.020119
0.00417827
-0.0169136
-0.00941108
0.0770668
-0.0138374
-0.0862547
0.0677695
-0.0134774
0.0583508
-0.0131165
0.048813
-0.0127678
0.0391815
-0.0124651
0.0295454
-0.0122289
0.0201351
-0.0119871
0.0114126
-0.0113965
0.00414924
-0.00965028
-0.00526185
0.0800777
-0.00427143
-0.0896436
0.0703904
-0.0037901
0.0605611
-0.00328723
0.0505799
-0.00278665
0.0404538
-0.00233901
0.0302526
-0.0020277
0.0202263
-0.00196071
0.0110005
-0.0021707
0.00369362
-0.0023434
-0.00156822
0.0832759
0.00563399
-0.0931814
0.0732469
0.00623896
0.0630808
0.00687881
0.0527659
0.00752833
0.0422981
0.00812876
0.0317174
0.00855295
0.0212134
0.00854334
0.0113722
0.00767046
0.0035468
0.00548204
0.00197857
0.0863999
0.0158185
-0.0965844
0.0761051
0.0165337
0.0657003
0.0172836
0.0551876
0.018041
0.0445759
0.0187405
0.0339034
0.0192254
0.0233106
0.0191362
0.0132157
0.0177654
0.00465446
0.0140432
0.00663303
0.0891149
-0.0995294
0.0786017
0.0679918
0.0572919
0.0465132
0.0356874
0.0249181
0.0145145
0.00534886
0.0123765
-0.120627
-0.0138099
0.00964937
-0.129188
0.00646202
-0.133852
0.00325774
-0.136134
0.000485777
-0.13655
-0.00174
-0.135029