/*--------------------------------*- C++ -*----------------------------------*\
| =========                 |                                                 |
| \\      /  F ield         | OpenFOAM: The Open Source CFD Toolbox           |
|  \\    /   O peration     | Version:  2406                                  |
|   \\  /    A nd           | Website:  www.openfoam.com                      |
|    \\/     M anipulation  |                                                 |
\*---------------------------------------------------------------------------*/
FoamFile
{
    version     2.0;
    format      ascii;
    arch        "LSB;label=32;scalar=64";
    class       volVectorField;
    location    "1.15";
    object      U;
}
// * * * * * * * * * * * * * * * * * * * * * * * * * * * * * * * * * * * * * //

dimensions      [0 1 -1 0 0 0 0];

internalField   nonuniform List<vector> 
1800
(
(-0.000166404 -0.00213981 0)
(-0.004864 0.000676971 -9.82484e-21)
(-0.0123385 0.0113673 -9.21216e-20)
(-0.0103587 0.0370796 8.2241e-20)
(0.0136653 0.0640964 1.53481e-19)
(0.0646094 0.0857255 2.97826e-20)
(0.141081 0.102548 -4.04607e-20)
(0.239862 0.116163 -8.0175e-20)
(0.358957 0.127737 0)
(0.451891 0.167887 -1.9913e-20)
(-0.00823703 0.000286968 3.12029e-21)
(-0.0110661 0.000606753 -3.97136e-20)
(-0.00999735 -0.00219766 6.91418e-20)
(0.0120957 -0.00559978 9.31667e-20)
(0.07329 -0.00795124 -2.44358e-20)
(0.166633 -0.0109869 -1.93248e-19)
(0.285813 -0.0127539 4.72397e-20)
(0.424563 -0.0128263 1.84891e-19)
(0.579801 -0.00784623 -4.40118e-21)
(0.684537 0.00771279 -9.44618e-21)
(-0.0131752 0.00815933 1.12165e-20)
(-0.0114228 0.00755357 -6.03164e-20)
(0.00879221 -0.0010449 -5.15375e-20)
(0.0825055 -0.0162004 2.45658e-20)
(0.204446 -0.0314517 -1.79888e-20)
(0.35735 -0.0419511 3.53024e-20)
(0.527387 -0.0455516 -4.16543e-20)
(0.70395 -0.042622 -1.60745e-19)
(0.887991 -0.027216 3.46799e-20)
(1.00664 -0.0201394 -1.84473e-20)
(-0.00953299 0.00654889 9.48783e-21)
(0.000501664 0.00500727 6.16674e-20)
(0.0728491 -0.00813119 -5.2408e-20)
(0.217843 -0.0261985 -3.81902e-22)
(0.409103 -0.0407537 1.07087e-19)
(0.620578 -0.0464535 -2.47082e-20)
(0.832724 -0.0427714 -6.45072e-20)
(1.03376 -0.031736 -5.2541e-20)
(1.22686 -0.0104028 -1.95005e-20)
(1.35377 0.00214137 4.39616e-20)
(-0.00211856 0.00243145 -7.83547e-21)
(0.043846 -0.00843647 4.89015e-20)
(0.194123 -0.0223853 3.63573e-20)
(0.417801 -0.0348071 -7.15574e-20)
(0.672647 -0.0380152 -3.08009e-20)
(0.925338 -0.0298241 4.45255e-20)
(1.15601 -0.0125571 3.20234e-20)
(1.35799 0.0103355 5.32337e-20)
(1.53596 0.0381244 -1.17599e-19)
(1.66347 0.0552784 -8.20109e-20)
(0.0098981 -0.000583358 4.49602e-22)
(0.131744 -0.0239121 1.60326e-19)
(0.372095 -0.0331336 8.58401e-20)
(0.67137 -0.031299 -1.10089e-19)
(0.972156 -0.0162127 9.86614e-20)
(1.2398 0.00915473 -7.86064e-21)
(1.46291 0.039723 9.2604e-20)
(1.64521 0.0711849 1.45109e-19)
(1.79612 0.101036 -1.84133e-19)
(1.91891 0.120348 -1.37793e-19)
(0.0422054 -0.00499232 -3.36418e-20)
(0.263118 -0.033661 -2.53467e-19)
(0.599043 -0.0283855 2.36995e-20)
(0.958713 -0.00421554 3.02968e-19)
(1.27687 0.0316909 -1.56616e-20)
(1.53089 0.0719687 -2.00654e-19)
(1.72541 0.110928 -1.32649e-19)
(1.87542 0.145288 3.59439e-19)
(1.9965 0.173432 4.0285e-19)
(2.09835 0.192369 3.15418e-20)
(0.0930527 -0.00794879 3.95377e-20)
(0.434131 -0.0302524 4.08628e-20)
(0.860106 0.00117077 -1.29456e-19)
(1.25169 0.0508532 7.15587e-20)
(1.55564 0.102939 -4.79755e-21)
(1.77363 0.150032 -6.87412e-19)
(1.92793 0.189041 3.14296e-21)
(2.04175 0.219451 4.85919e-19)
(2.1322 0.241705 -3.06978e-19)
(2.21012 0.255239 -3.1411e-19)
(0.162916 -0.00519269 1.56662e-19)
(0.636809 -0.00401014 1.49275e-19)
(1.12966 0.0614529 -3.62177e-19)
(1.51721 0.131754 -8.7971e-20)
(1.78025 0.189764 1.40768e-21)
(1.94982 0.233785 2.68107e-19)
(2.06215 0.2657 -4.94253e-19)
(2.14342 0.288075 -2.58709e-19)
(2.20905 0.302855 5.89283e-19)
(2.26728 0.311134 1.35999e-19)
(0.250863 0.00774679 1.46643e-20)
(0.85383 0.0512148 3.87057e-19)
(1.37589 0.149455 -3.37425e-19)
(1.72669 0.228597 -1.51685e-19)
(1.93524 0.281501 1.60824e-19)
(2.05829 0.31575 -1.78033e-19)
(2.13809 0.338009 3.31727e-19)
(2.19782 0.352431 2.8564e-20)
(2.24824 0.361313 -2.43648e-19)
(2.29362 0.365835 -8.14517e-20)
(-0.0130397 0.235058 -1.39877e-20)
(-0.0347759 0.475171 5.95578e-20)
(-0.0633086 0.581592 3.60425e-20)
(-0.0893558 0.628128 -4.76775e-20)
(-0.113767 0.646987 2.22211e-21)
(-0.136449 0.650029 1.43646e-20)
(-0.156644 0.642743 4.76696e-21)
(-0.174153 0.627964 -4.57643e-21)
(-0.189417 0.607299 -1.30096e-23)
(-0.204102 0.582108 -2.34513e-20)
(-0.0290899 0.246209 1.49159e-20)
(-0.0656044 0.507975 8.48315e-23)
(-0.0962669 0.624322 1.71083e-20)
(-0.120234 0.673782 -5.23091e-20)
(-0.141042 0.693472 -1.39795e-20)
(-0.160182 0.695743 -2.52305e-20)
(-0.177322 0.686313 -2.42396e-20)
(-0.192023 0.669223 0)
(-0.204448 0.646441 -8.49663e-21)
(-0.216599 0.618975 2.66802e-20)
(-0.0436821 0.241415 4.91502e-23)
(-0.0955325 0.518561 -3.90005e-20)
(-0.127857 0.64841 -2.01608e-20)
(-0.149192 0.704474 2.60714e-20)
(-0.164474 0.728502 2.05019e-20)
(-0.176462 0.735571 -2.86471e-20)
(-0.186555 0.729149 4.03426e-20)
(-0.193764 0.710385 2.84877e-20)
(-0.199336 0.684001 1.15809e-19)
(-0.205516 0.654149 1.0454e-19)
(-0.0535139 0.220602 1.46157e-20)
(-0.119242 0.503976 6.50609e-20)
(-0.150828 0.648918 1.69392e-23)
(-0.166311 0.712527 6.03141e-20)
(-0.173168 0.737054 -1.88136e-20)
(-0.175551 0.743109 -1.57657e-20)
(-0.175845 0.740061 -3.77302e-21)
(-0.175416 0.730998 0)
(-0.175076 0.715181 -1.72125e-19)
(-0.174307 0.691297 -2.56549e-19)
(-0.0534903 0.181633 1.60576e-20)
(-0.12712 0.455481 -5.10292e-21)
(-0.154818 0.616179 -2.08631e-20)
(-0.162553 0.695158 -2.82995e-20)
(-0.161234 0.73091 -8.86622e-22)
(-0.156032 0.745129 -4.75005e-20)
(-0.148529 0.746998 9.56877e-22)
(-0.139553 0.740145 1.13521e-19)
(-0.128761 0.726146 -2.32612e-19)
(-0.115609 0.704886 -2.66785e-19)
(-0.0435354 0.128505 8.10588e-21)
(-0.118969 0.371493 -2.45968e-20)
(-0.144838 0.543005 4.13412e-20)
(-0.147692 0.641017 3.59051e-20)
(-0.139061 0.693416 4.3137e-20)
(-0.124933 0.720793 -2.3191e-19)
(-0.108085 0.733517 -8.00143e-20)
(-0.0892803 0.736002 2.53645e-19)
(-0.0671574 0.729516 -3.80827e-19)
(-0.0414544 0.713422 -2.85187e-19)
(-0.027155 0.0736768 -3.15822e-20)
(-0.096187 0.264964 6.16778e-20)
(-0.122173 0.43361 -6.9997e-21)
(-0.123882 0.54662 9.88384e-21)
(-0.110582 0.616282 7.10169e-20)
(-0.0884727 0.658376 -8.29811e-20)
(-0.0613147 0.682799 -2.37972e-19)
(-0.0307592 0.694576 -5.52349e-20)
(0.00408979 0.695662 4.60903e-19)
(0.0453567 0.683939 3.17126e-19)
(-0.0102856 0.0295701 -9.05328e-22)
(-0.0639789 0.156774 -3.67557e-20)
(-0.088985 0.303551 -6.61789e-20)
(-0.0919398 0.418816 2.55951e-20)
(-0.0771989 0.499854 4.33168e-20)
(-0.0497856 0.555065 5.23818e-20)
(-0.0139186 0.591761 -1.20759e-19)
(0.0275721 0.614614 -5.63051e-20)
(0.0746919 0.625761 1.27995e-19)
(0.133596 0.618608 3.02585e-20)
(0.00170437 0.00370737 -1.72523e-20)
(-0.0311767 0.0660512 -1.44408e-20)
(-0.0516876 0.173872 2.5449e-20)
(-0.0557554 0.273172 4.43595e-20)
(-0.0416368 0.351696 1.21641e-20)
(-0.0114783 0.410838 -3.98481e-20)
(0.0311872 0.454407 -5.12747e-20)
(0.0827196 0.486087 -1.44457e-20)
(0.141859 0.508559 -2.03608e-21)
(0.222654 0.504576 -2.46909e-19)
(0.00188638 -0.00181629 -2.09671e-20)
(-0.00672333 0.0104715 -2.63362e-20)
(-0.020851 0.0672928 1.21305e-19)
(-0.0257426 0.134527 1.13708e-19)
(-0.0120607 0.193804 -6.05098e-20)
(0.0219476 0.241429 -2.25631e-19)
(0.074282 0.278864 6.27319e-20)
(0.141317 0.308723 9.96971e-21)
(0.222713 0.334262 -3.17896e-20)
(0.332477 0.332176 -1.48493e-19)
(-0.277194 0.440751 -4.28497e-19)
(-0.238219 0.119114 -9.0103e-19)
(-0.0734227 -0.136535 -5.53231e-19)
(0.102135 -0.303875 4.12311e-19)
(0.318958 -0.359203 -7.52403e-20)
(0.48417 -0.3421 1.07588e-20)
(0.605715 -0.290876 -9.18039e-20)
(0.688061 -0.225876 4.02702e-20)
(0.739102 -0.172034 -2.66177e-20)
(0.777887 -0.0897408 -1.75976e-20)
(-0.28155 0.463202 -4.8591e-19)
(-0.284609 0.0976135 1.16372e-20)
(-0.111335 -0.186749 -1.1366e-19)
(0.0869753 -0.364759 -2.52286e-19)
(0.318601 -0.416284 3.39306e-20)
(0.491496 -0.385694 -7.06101e-20)
(0.616749 -0.32113 5.57886e-20)
(0.700176 -0.245003 2.15164e-21)
(0.751409 -0.184832 -4.89321e-20)
(0.790763 -0.0955485 3.45145e-20)
(-0.25393 0.49696 3.70663e-19)
(-0.29215 0.0899987 1.15059e-18)
(-0.106055 -0.236877 1.84068e-19)
(0.112183 -0.427585 -3.86249e-19)
(0.34832 -0.474814 4.01867e-20)
(0.517672 -0.429894 2.88061e-21)
(0.637989 -0.351736 2.88112e-20)
(0.717598 -0.264176 -4.04727e-20)
(0.766421 -0.197855 2.43833e-21)
(0.805404 -0.101501 -2.95005e-22)
(-0.188724 0.538028 5.84289e-19)
(-0.238738 0.0957644 -2.00493e-20)
(-0.03658 -0.285111 1.59952e-19)
(0.198146 -0.489474 2.75746e-19)
(0.428223 -0.531246 -8.30339e-21)
(0.579359 -0.47144 1.31901e-20)
(0.680872 -0.380293 -3.93227e-20)
(0.747361 -0.281966 0)
(0.788662 -0.210363 0)
(0.824537 -0.107427 -7.89371e-23)
(-0.0892862 0.569241 1.56448e-19)
(-0.128814 0.108253 -8.18738e-19)
(0.102855 -0.330077 -1.40407e-20)
(0.348636 -0.549413 -2.22113e-19)
(0.568648 -0.582976 -6.46359e-20)
(0.692831 -0.506894 -6.3419e-21)
(0.760617 -0.403557 5.75457e-21)
(0.800365 -0.296129 -1.77731e-20)
(0.82578 -0.221011 -5.85135e-20)
(0.852769 -0.11291 -2.25618e-21)
(0.0184432 0.603697 7.32705e-20)
(0.0358865 0.123628 -3.54473e-19)
(0.290527 -0.36882 -1.32522e-18)
(0.535895 -0.607907 1.53654e-20)
(0.751959 -0.630808 2.29157e-19)
(0.85821 -0.534753 3.55684e-21)
(0.888456 -0.418219 -1.38049e-21)
(0.889173 -0.30361 -7.39004e-20)
(0.888657 -0.22761 9.91254e-22)
(0.897215 -0.117109 -2.73087e-20)
(0.142533 0.614864 -1.3231e-19)
(0.245678 0.142417 -4.04298e-20)
(0.495431 -0.397352 5.06031e-19)
(0.728293 -0.664138 -1.40145e-19)
(0.939346 -0.679882 -4.33811e-20)
(1.04787 -0.55938 5.57731e-20)
(1.05718 -0.424398 -1.33138e-20)
(1.01917 -0.302213 1.08664e-20)
(0.98733 -0.227508 1.90522e-20)
(0.96671 -0.118722 9.68136e-21)
(0.265815 0.606326 -2.17504e-19)
(0.469634 0.170425 7.11202e-19)
(0.715773 -0.408492 7.70562e-19)
(0.93268 -0.710695 5.59856e-20)
(1.11592 -0.73025 -2.00997e-19)
(1.22755 -0.58717 -1.20839e-19)
(1.23903 -0.427536 1.65756e-20)
(1.17881 -0.293557 1.07958e-20)
(1.12173 -0.219466 2.52001e-22)
(1.06721 -0.11652 -3.9211e-21)
(0.399382 0.573515 -7.36604e-19)
(0.694984 0.185924 1.67664e-19)
(0.960933 -0.402705 -8.94751e-19)
(1.17544 -0.74036 7.05322e-19)
(1.30569 -0.773477 -2.7223e-19)
(1.39012 -0.617111 -6.08923e-20)
(1.40683 -0.432813 -7.47769e-20)
(1.3433 -0.282622 4.87775e-21)
(1.27596 -0.205521 5.83511e-21)
(1.19438 -0.11045 2.71391e-21)
(0.492466 0.498751 -8.14089e-20)
(0.890037 0.228235 2.27397e-20)
(1.22661 -0.380391 -5.17686e-19)
(1.45274 -0.755511 4.60724e-19)
(1.52964 -0.802018 -2.8211e-19)
(1.55382 -0.641756 5.97259e-20)
(1.55375 -0.439928 -1.89963e-19)
(1.49146 -0.273245 -8.36003e-21)
(1.42627 -0.189559 -8.10306e-21)
(1.33191 -0.101908 -1.35491e-20)
(0.739354 0.374349 4.14545e-19)
(1.22092 0.175549 6.47504e-20)
(1.62612 -0.419778 -4.39615e-20)
(1.85218 -0.777402 -1.15372e-19)
(1.86674 -0.816502 1.18647e-19)
(1.79249 -0.654192 -1.80594e-20)
(1.73067 -0.441672 1.62196e-20)
(1.65229 -0.260461 3.40921e-20)
(1.59026 -0.167781 -8.1471e-20)
(1.49373 -0.0892656 1.02884e-20)
(1.20709 0.282895 2.91819e-19)
(1.84851 -0.0190696 -3.95625e-19)
(2.28026 -0.567547 -4.91021e-19)
(2.38247 -0.834679 5.66682e-20)
(2.28302 -0.788527 -3.65201e-20)
(2.09577 -0.591731 1.557e-19)
(1.92959 -0.386296 1.80024e-19)
(1.79866 -0.220075 -2.60587e-20)
(1.72558 -0.134984 9.81112e-20)
(1.63495 -0.0720363 2.10584e-20)
(1.90058 0.230155 8.00519e-20)
(2.48745 -0.143929 4.49058e-20)
(2.74147 -0.611459 4.55802e-20)
(2.65969 -0.80586 3.45434e-35)
(2.47101 -0.728196 -6.79923e-20)
(2.26426 -0.520866 -6.55018e-34)
(2.07098 -0.322852 2.82193e-20)
(1.90995 -0.17471 4.84253e-34)
(1.81828 -0.101501 -1.42368e-21)
(1.72491 -0.0546602 6.83793e-22)
(2.46519 0.155857 1.55937e-19)
(2.9008 -0.226882 5.91755e-19)
(3.02136 -0.629792 4.93716e-19)
(2.8654 -0.768165 0)
(2.59727 -0.657238 -2.86488e-20)
(2.32931 -0.441903 -1.35223e-19)
(2.10843 -0.253427 -1.51554e-19)
(1.93998 -0.124952 1.81394e-33)
(1.84463 -0.0652943 -5.60118e-20)
(1.75208 -0.0367283 -2.51792e-21)
(2.7975 0.0580271 1.52805e-19)
(3.10777 -0.277537 -1.48167e-20)
(3.17847 -0.607373 0)
(2.99151 -0.680954 0)
(2.688 -0.539669 0)
(2.37934 -0.329742 0)
(2.12071 -0.166384 7.87572e-21)
(1.93249 -0.0689343 2.07206e-33)
(1.83232 -0.0286282 -2.88645e-21)
(1.7437 -0.0206848 -4.8112e-34)
(2.9636 -0.0276716 6.74637e-20)
(3.21622 -0.312679 0)
(3.26068 -0.572174 0)
(2.98945 -0.594164 0)
(2.59288 -0.435156 0)
(2.25191 -0.232084 0)
(2.00831 -0.0895837 -1.63827e-20)
(1.84638 -0.0186008 9.26658e-20)
(1.76887 0.00407404 -3.64586e-21)
(1.69867 -0.00491765 8.53838e-21)
(3.02689 -0.0981009 0)
(3.23259 -0.340446 2.89871e-19)
(3.17099 -0.520852 2.15391e-19)
(2.7965 -0.464689 0)
(2.34852 -0.282595 -8.77346e-20)
(1.99805 -0.110897 -1.02541e-19)
(1.7837 -0.0125176 -9.28862e-20)
(1.66427 0.0238322 -4.43707e-20)
(1.62371 0.0278885 3.70862e-20)
(1.58189 0.00721424 -1.27378e-20)
(2.94229 -0.159103 6.2181e-20)
(3.0165 -0.329499 -2.22058e-20)
(2.73939 -0.401317 5.41219e-21)
(2.21633 -0.301407 -2.7015e-35)
(1.75842 -0.137718 2.08372e-20)
(1.48835 -0.0158353 -5.82281e-34)
(1.3724 0.0365455 -1.95035e-20)
(1.33063 0.0437299 -4.23285e-20)
(1.33898 0.0354724 -4.39435e-21)
(1.33241 0.0117242 8.39122e-21)
(2.41857 -0.178568 0)
(2.23183 -0.251376 -8.0707e-20)
(1.68713 -0.191333 -4.97908e-20)
(1.13478 -0.0786344 0)
(0.847035 -0.00414526 1.30533e-20)
(0.766445 0.0322409 1.54408e-20)
(0.785096 0.0424645 -5.07303e-21)
(0.826873 0.0361198 1.17545e-20)
(0.877749 0.0258087 -1.80591e-20)
(0.90144 0.00927792 -6.79602e-21)
(0.943377 -0.0881079 2.44183e-20)
(0.57492 -0.032433 0)
(0.257645 -0.00300027 0)
(0.0963634 0.000718564 0)
(0.0576422 0.00230091 0)
(0.0893571 0.00799491 0)
(0.15425 0.0112717 -1.96734e-20)
(0.218455 0.00974609 6.72869e-35)
(0.272331 0.00670349 -5.0171e-21)
(0.303108 0.00236763 -9.08795e-21)
(2.37107 0.371199 3.88271e-19)
(2.37306 0.32319 1.68198e-19)
(2.3499 0.278839 2.79807e-19)
(2.30299 0.228051 -3.13004e-19)
(2.19791 0.175344 9.25875e-20)
(2.0473 0.117259 2.78046e-20)
(1.8038 0.0613959 7.1672e-20)
(1.50146 0.0355266 2.04782e-20)
(1.14346 -0.0364794 -4.31863e-20)
(0.73115 0.0874419 2.52313e-20)
(2.45034 0.337215 -2.01776e-19)
(2.4824 0.3011 3.6357e-20)
(2.48996 0.259649 1.77289e-19)
(2.48635 0.227259 1.42588e-19)
(2.45631 0.171682 -2.18799e-19)
(2.37301 0.147277 9.91657e-20)
(2.29209 0.0778023 -2.57624e-20)
(2.06199 0.0795981 -8.88249e-21)
(1.95083 0.0385979 -8.06018e-21)
(1.4893 0.0218188 -1.14662e-20)
(2.5545 0.28942 3.3225e-20)
(2.57292 0.265987 -1.45389e-19)
(2.62207 0.218491 -1.98989e-19)
(2.60005 0.202381 4.34152e-19)
(2.64761 0.14743 -5.49812e-21)
(2.55706 0.132087 -8.3685e-22)
(2.59877 0.0865717 -8.45994e-20)
(2.41514 0.0579857 -6.29617e-20)
(2.42684 0.0663413 8.54109e-21)
(2.14429 0.00624274 -7.06575e-21)
(2.65841 0.242502 5.35889e-20)
(2.65616 0.227449 -1.78277e-19)
(2.73477 0.179243 2.78968e-20)
(2.69761 0.165597 -1.37167e-19)
(2.77902 0.122622 2.26505e-19)
(2.70163 0.0992262 -6.68761e-20)
(2.77229 0.0776881 5.00565e-20)
(2.65709 0.0318779 -6.09178e-20)
(2.68967 0.048076 -1.14492e-19)
(2.54308 -0.0116082 -5.32003e-20)
(2.71021 0.198541 1.01601e-19)
(2.71513 0.183916 -2.91311e-19)
(2.79126 0.144664 -2.4805e-20)
(2.77566 0.126493 -1.76224e-20)
(2.84752 0.0943063 -6.84037e-21)
(2.81369 0.0672059 -1.98933e-21)
(2.87047 0.0505703 3.85045e-20)
(2.81815 0.0103115 -5.00449e-20)
(2.8512 0.0148165 -8.34982e-20)
(2.77944 -0.0358311 -1.13228e-19)
(2.70383 0.15453 1.84452e-19)
(2.7234 0.139021 3.46457e-20)
(2.79204 0.108009 -2.05359e-19)
(2.80252 0.0879436 1.23937e-19)
(2.86363 0.0613515 1.04317e-19)
(2.8668 0.0347835 -7.52519e-20)
(2.91469 0.0177467 1.1329e-19)
(2.90813 -0.0143616 4.4411e-20)
(2.94108 -0.0185177 -1.45464e-19)
(2.92158 -0.0594773 -1.83857e-19)
(2.6401 0.10519 1.70539e-20)
(2.6735 0.0921859 6.36356e-20)
(2.73514 0.0638783 -7.94854e-20)
(2.76537 0.047876 -4.16491e-20)
(2.82256 0.0220401 1.06867e-19)
(2.84905 0.000152994 4.24868e-20)
(2.89879 -0.0185784 9.60299e-20)
(2.9211 -0.045576 7.93333e-20)
(2.95837 -0.0557742 1.76803e-20)
(2.98051 -0.0876436 6.6274e-20)
(2.48711 0.0577275 2.21558e-20)
(2.53947 0.0496181 -1.52624e-22)
(2.58248 0.0196797 -8.66484e-20)
(2.63509 0.012774 -7.61617e-20)
(2.67499 -0.0165197 3.54837e-20)
(2.72704 -0.0287226 -4.02607e-20)
(2.76172 -0.0506859 -3.28879e-20)
(2.81622 -0.0706019 1.13404e-19)
(2.84158 -0.0877541 -9.51305e-20)
(2.90436 -0.112033 -1.08913e-19)
(2.12774 0.00706976 6.79432e-20)
(2.19532 -0.00167846 -3.10711e-20)
(2.19323 -0.0182578 -3.07938e-20)
(2.26882 -0.0222599 3.63784e-20)
(2.25716 -0.0435276 -2.15664e-20)
(2.33492 -0.0439413 -2.7791e-21)
(2.32018 -0.0691504 -4.55339e-20)
(2.39582 -0.0703259 2.49064e-20)
(2.38012 -0.0973697 2.56653e-20)
(2.45661 -0.102396 -2.85446e-20)
(1.22625 -0.0102451 0)
(1.23607 -0.014791 3.36149e-21)
(1.21861 -0.0179703 -4.49758e-20)
(1.23313 -0.0218995 -7.003e-20)
(1.20024 -0.0231729 4.01717e-20)
(1.22676 -0.0275681 1.65042e-19)
(1.17405 -0.0299964 -1.23135e-20)
(1.21674 -0.0359204 -9.60028e-20)
(1.13825 -0.0411935 -1.22804e-20)
(1.19956 -0.0491943 4.78154e-21)
(1.43115 0.861326 -4.86725e-20)
(1.40448 0.89769 -1.00627e-19)
(1.39542 0.937107 -7.32138e-19)
(1.38941 0.980297 2.25352e-19)
(1.37975 1.02316 1.074e-18)
(1.36059 1.06071 1.4068e-19)
(1.32208 1.08076 -8.13297e-20)
(1.24291 1.06231 -3.01262e-19)
(1.05368 0.941527 -3.16578e-19)
(0.561491 0.520463 -4.12094e-20)
(1.59819 0.837457 -4.29535e-19)
(1.57106 0.870788 1.21754e-18)
(1.55265 0.905961 5.33745e-19)
(1.54054 0.946075 -7.71062e-19)
(1.52921 0.987493 2.51655e-19)
(1.50989 1.02395 2.3224e-19)
(1.46946 1.04223 7.46551e-19)
(1.38338 1.02274 -1.08776e-18)
(1.17226 0.901682 -5.30823e-20)
(0.61901 0.491566 1.81612e-19)
(1.74974 0.812211 1.16891e-19)
(1.72704 0.843614 9.35658e-19)
(1.70496 0.875028 1.76666e-20)
(1.68805 0.909814 -4.4428e-19)
(1.67377 0.946124 1.34691e-19)
(1.65242 0.977686 -4.88488e-20)
(1.60848 0.991065 -4.91093e-20)
(1.51382 0.968539 -3.83587e-19)
(1.27829 0.845416 4.95042e-20)
(0.665049 0.450624 -2.13173e-19)
(1.88106 0.780064 -4.75298e-19)
(1.86333 0.808789 4.26927e-19)
(1.84207 0.836592 -6.47516e-19)
(1.82335 0.86611 -2.34294e-19)
(1.80626 0.896131 1.32424e-18)
(1.78117 0.920503 -8.16813e-19)
(1.7318 0.92665 -9.11605e-19)
(1.62749 0.898538 4.00611e-19)
(1.36338 0.772523 -1.2694e-19)
(0.692937 0.399605 -5.77736e-20)
(1.99354 0.739338 5.89016e-19)
(1.97983 0.764457 4.65045e-19)
(1.96063 0.787752 -2.12318e-19)
(1.94092 0.811225 8.15217e-19)
(1.9206 0.834035 1.46769e-19)
(1.8905 0.849299 -3.56363e-19)
(1.83365 0.846718 4.89538e-19)
(1.71667 0.813445 -6.00857e-19)
(1.41813 0.683958 -6.87077e-19)
(0.697709 0.338344 -1.10675e-20)
(2.08994 0.687196 7.78919e-19)
(2.0774 0.707561 9.53062e-19)
(2.0589 0.726001 -9.43442e-19)
(2.03863 0.74404 -9.34534e-19)
(2.01471 0.759474 2.14098e-19)
(1.97601 0.764061 -6.49293e-19)
(1.90958 0.753311 -3.90068e-19)
(1.7739 0.714147 3.26859e-19)
(1.43693 0.58055 7.48197e-20)
(0.676082 0.270002 -5.80436e-21)
(2.17126 0.626507 7.18209e-19)
(2.15872 0.641927 -9.34173e-19)
(2.14051 0.655923 -7.94745e-19)
(2.11683 0.666996 5.82284e-19)
(2.08258 0.670978 -5.15837e-19)
(2.03333 0.66563 1.50164e-18)
(1.95747 0.649643 -2.12806e-19)
(1.79529 0.603339 -1.2059e-18)
(1.41517 0.467422 5.26745e-19)
(0.627058 0.199992 3.46025e-20)
(2.23728 0.563414 -4.60516e-19)
(2.21988 0.573138 -6.31729e-19)
(2.19395 0.578831 -8.33211e-19)
(2.15994 0.579183 3.31118e-20)
(2.11844 0.574628 2.65984e-19)
(2.06457 0.564994 2.68521e-19)
(1.97187 0.543089 5.84897e-19)
(1.77435 0.487045 -2.92488e-19)
(1.34726 0.351385 2.19662e-20)
(0.552068 0.133962 6.20989e-20)
(2.27666 0.495977 2.27082e-19)
(2.24914 0.498121 -7.64926e-20)
(2.21649 0.496635 3.83019e-19)
(2.17878 0.492464 1.05244e-18)
(2.13187 0.483746 -3.7787e-19)
(2.06422 0.468052 -1.29216e-18)
(1.94476 0.436706 9.14592e-19)
(1.70263 0.370239 8.30881e-19)
(1.22852 0.238202 -4.29048e-19)
(0.456826 0.0773372 -1.59986e-20)
(2.29477 0.426976 -4.48724e-19)
(2.26002 0.425424 -4.6728e-21)
(2.2205 0.420574 5.77531e-19)
(2.17375 0.412091 5.7559e-19)
(2.11385 0.397772 4.01015e-19)
(2.02459 0.373845 -6.28876e-19)
(1.86709 0.33167 4.26907e-20)
(1.57088 0.255717 -3.29943e-19)
(1.05947 0.134655 -4.88295e-19)
(0.352113 0.0347034 -8.53876e-21)
(0.460753 0.376067 1.89199e-20)
(0.424342 0.388334 -6.38834e-20)
(0.384651 0.401085 -1.2812e-20)
(0.342063 0.413959 3.22371e-20)
(0.296304 0.426077 -3.17863e-20)
(0.246843 0.435144 -5.51345e-20)
(0.193107 0.43537 1.45222e-22)
(0.134117 0.41416 -3.18674e-20)
(0.0709435 0.347366 9.62416e-20)
(0.0267183 0.184225 1.23211e-20)
(0.509414 0.470998 -1.64441e-20)
(0.473289 0.48745 1.45378e-20)
(0.434274 0.504352 -5.28986e-20)
(0.39242 0.521374 1.15511e-20)
(0.347273 0.537716 3.77381e-20)
(0.298089 0.551033 3.30417e-20)
(0.243807 0.554899 1.3407e-19)
(0.182656 0.534631 -5.71727e-20)
(0.112439 0.45908 6.61734e-20)
(0.0487167 0.251911 -1.03523e-20)
(0.576332 0.55936 -4.72738e-20)
(0.541832 0.580006 5.6987e-20)
(0.50475 0.601298 6.129e-20)
(0.464804 0.622959 4.73e-20)
(0.421258 0.64418 1.91532e-20)
(0.372985 0.662512 1.57386e-19)
(0.31822 0.670949 -5.11155e-20)
(0.254087 0.652748 -6.98919e-20)
(0.174182 0.569668 4.11213e-23)
(0.0824107 0.319024 1.19879e-20)
(0.646834 0.643929 1.36502e-19)
(0.613397 0.668605 6.57004e-20)
(0.578427 0.693698 -1.95118e-19)
(0.541039 0.719275 -8.56804e-20)
(0.500223 0.744744 -2.75394e-20)
(0.454591 0.767557 -7.85846e-20)
(0.401656 0.779933 -2.53429e-19)
(0.336947 0.763125 8.24902e-20)
(0.2486 0.672526 -5.92736e-20)
(0.124441 0.380956 -9.79542e-20)
(0.735969 0.716723 -1.90563e-20)
(0.704234 0.745239 -1.86006e-19)
(0.67172 0.773974 1.47372e-19)
(0.637042 0.803266 -7.35126e-20)
(0.598927 0.832651 -1.41476e-19)
(0.555728 0.859518 2.08244e-19)
(0.504287 0.875461 1.02048e-19)
(0.43842 0.860064 -1.26947e-19)
(0.339781 0.763208 -2.65891e-19)
(0.175934 0.43485 4.56123e-20)
(0.836332 0.782798 1.77969e-21)
(0.806793 0.81448 -2.87521e-21)
(0.777119 0.845593 3.83271e-21)
(0.745396 0.877181 6.39639e-20)
(0.710272 0.90915 2.08388e-19)
(0.669921 0.938785 -2.07353e-19)
(0.62033 0.956981 -1.40389e-19)
(0.553162 0.941996 -4.70209e-20)
(0.442836 0.839263 1.10218e-19)
(0.233951 0.479024 1.51146e-19)
(0.94051 0.832068 -1.58878e-19)
(0.916184 0.867163 8.21413e-20)
(0.892904 0.901167 2.9842e-19)
(0.867223 0.935385 -1.95977e-19)
(0.837082 0.969918 -4.307e-19)
(0.800421 1.00211 1.90751e-19)
(0.752681 1.0224 6.16081e-19)
(0.683414 1.00794 1.55837e-19)
(0.55883 0.900659 -3.55019e-20)
(0.298253 0.513971 2.15055e-19)
(1.04512 0.873853 -3.33373e-19)
(1.02008 0.90978 -1.17653e-19)
(0.999861 0.944457 3.15043e-19)
(0.980003 0.980261 -1.12512e-19)
(0.95709 1.01695 9.81041e-20)
(0.927503 1.05102 4.06553e-19)
(0.884979 1.07191 -4.3311e-19)
(0.816159 1.05639 -3.87837e-19)
(0.67861 0.943621 3.23092e-19)
(0.364511 0.536099 -4.38282e-21)
(1.16966 0.891797 -1.46449e-20)
(1.15235 0.929667 4.29825e-20)
(1.13621 0.963867 -2.42213e-19)
(1.11804 0.999396 -8.75849e-20)
(1.09656 1.03724 5.04999e-19)
(1.06896 1.07333 1.46789e-19)
(1.02787 1.09541 -1.21484e-19)
(0.956719 1.07961 0)
(0.803892 0.963423 -2.11704e-19)
(0.432209 0.543688 -1.10109e-19)
(1.25991 0.895391 0)
(1.25208 0.935081 0)
(1.25196 0.97203 6.80922e-19)
(1.24706 1.00859 1.54962e-19)
(1.23458 1.04581 -2.32891e-19)
(1.21255 1.08046 4.1412e-19)
(1.17375 1.10036 -2.85393e-19)
(1.09959 1.08244 -7.70301e-19)
(0.929773 0.962899 3.92489e-19)
(0.498532 0.538314 2.04495e-19)
(0.974682 -0.0256237 -1.04686e-20)
(1.04415 0.0722583 -9.38678e-21)
(1.01093 0.199811 6.88811e-21)
(0.988397 0.245698 4.47857e-21)
(0.95509 0.232676 1.61784e-20)
(0.92006 0.22355 2.83626e-20)
(0.894129 0.211339 -1.40116e-20)
(0.834044 0.230539 -1.9653e-20)
(0.789782 0.254314 -8.44326e-20)
(0.623782 0.313722 6.53316e-20)
(0.974257 -0.0296171 -5.60266e-22)
(1.04458 0.0707557 8.1095e-21)
(1.01008 0.205823 1.1774e-22)
(0.987953 0.254746 9.08853e-21)
(0.955184 0.241646 1.23509e-20)
(0.920225 0.232416 -4.07989e-20)
(0.899657 0.222414 -1.46063e-20)
(0.847495 0.245896 2.26778e-22)
(0.810985 0.287234 2.12937e-19)
(0.66658 0.381689 9.97674e-22)
(0.973629 -0.0335091 1.5224e-21)
(1.04556 0.0698422 1.48768e-20)
(1.00972 0.212345 -6.78752e-21)
(0.987715 0.263874 -1.11757e-21)
(0.954267 0.250372 -1.49488e-20)
(0.919261 0.240552 2.92878e-21)
(0.90315 0.231509 1.91375e-20)
(0.860416 0.259724 -1.77387e-20)
(0.830975 0.317586 1.11803e-19)
(0.719428 0.445032 -2.71539e-19)
(0.972719 -0.0373207 1.43483e-21)
(1.04717 0.0694507 -1.56678e-21)
(1.00996 0.219457 -7.89658e-21)
(0.987266 0.273293 -2.2586e-20)
(0.952151 0.258933 3.22106e-20)
(0.917946 0.247969 2.50158e-20)
(0.905511 0.238587 -2.43895e-20)
(0.872735 0.272305 8.87029e-20)
(0.850748 0.344429 -1.00524e-19)
(0.778565 0.505938 -2.82286e-19)
(0.971444 -0.0410897 7.90549e-22)
(1.04966 0.0694918 -1.28563e-20)
(1.01087 0.227313 2.49198e-21)
(0.986222 0.283227 3.71371e-20)
(0.949597 0.267237 1.20905e-20)
(0.917466 0.254503 5.48493e-20)
(0.907679 0.243861 2.94303e-20)
(0.884494 0.284082 7.09648e-20)
(0.869125 0.367581 -5.02163e-21)
(0.849135 0.559306 2.20265e-19)
(0.969761 -0.0449446 6.2742e-22)
(1.05335 0.0699139 2.66565e-22)
(1.01216 0.236125 4.44022e-22)
(0.984807 0.29371 1.05569e-20)
(0.948611 0.274938 -4.02876e-20)
(0.918844 0.260115 7.87435e-21)
(0.910579 0.247847 -5.4487e-21)
(0.895319 0.295552 -2.097e-19)
(0.889017 0.385675 0)
(0.928407 0.610057 -2.66246e-20)
(0.967628 -0.0489741 -8.21283e-22)
(1.05803 0.0706335 1.36888e-21)
(1.01331 0.246036 9.23141e-22)
(0.984468 0.304263 -5.19747e-20)
(0.951205 0.281586 -1.46789e-20)
(0.922532 0.264999 -6.93304e-20)
(0.915309 0.251003 4.5987e-21)
(0.906081 0.306894 6.09201e-21)
(0.911808 0.399551 -2.63405e-21)
(1.00561 0.648603 8.06979e-19)
(0.964871 -0.0529263 -1.20529e-20)
(1.06262 0.0713926 -1.80975e-21)
(1.0145 0.256841 5.95357e-22)
(0.987163 0.314007 2.50241e-20)
(0.958289 0.286986 -6.46088e-20)
(0.92879 0.26933 1.6456e-20)
(0.923762 0.253465 -3.32595e-21)
(0.918842 0.318101 2.25525e-20)
(0.938201 0.408683 1.34334e-19)
(1.10335 0.693907 -5.95173e-20)
(0.961244 -0.0566789 2.69196e-21)
(1.06572 0.072291 7.73955e-22)
(1.01727 0.267835 -2.65341e-22)
(0.994289 0.322206 5.02478e-20)
(0.970453 0.291056 6.543e-21)
(0.939118 0.273263 2.6872e-20)
(0.93989 0.255174 -4.833e-20)
(0.936412 0.328316 6.24841e-20)
(0.977245 0.406455 2.59603e-19)
(1.1772 0.710953 -6.40155e-19)
(0.956964 -0.0605391 5.15062e-21)
(1.06616 0.0742103 1.17045e-20)
(1.02334 0.279233 7.63337e-22)
(1.0073 0.328714 -1.48061e-20)
(0.990328 0.293155 7.32939e-20)
(0.96048 0.276642 -3.68456e-20)
(0.971278 0.257399 -1.56246e-20)
(0.96612 0.340205 4.08934e-20)
(1.02941 0.424976 -1.14247e-19)
(1.30314 0.76731 3.70366e-19)
(0.952003 -0.0636412 -2.0377e-21)
(1.05958 0.0697972 -5.39119e-21)
(1.038 0.286204 -6.9287e-21)
(1.03599 0.336037 -3.6694e-20)
(1.03878 0.29657 -4.3028e-20)
(1.02437 0.281913 -4.62004e-20)
(1.04916 0.252384 1.43179e-20)
(1.04308 0.346569 -1.33535e-19)
(1.08604 0.365128 -4.55258e-19)
(1.30557 0.747662 -8.86305e-20)
(0.945362 -0.0660128 -1.93273e-20)
(1.04018 0.055381 -7.45554e-21)
(1.06427 0.27669 2.29349e-21)
(1.10052 0.335799 -1.12975e-21)
(1.16187 0.288565 2.46328e-20)
(1.14865 0.282588 6.22921e-20)
(1.24982 0.237733 1.5213e-20)
(1.17499 0.348812 1.08504e-19)
(1.31704 0.327051 1.92207e-19)
(1.35532 0.628202 3.08957e-19)
(0.937517 -0.06561 -2.49951e-21)
(1.02223 0.0387773 -3.29288e-21)
(1.09649 0.248925 3.92412e-21)
(1.17888 0.313748 7.73122e-21)
(1.31898 0.270888 4.09745e-35)
(1.26235 0.264023 -7.36656e-21)
(1.50995 0.226277 -4.40745e-34)
(1.27671 0.338492 1.76583e-20)
(1.64393 0.296172 -4.54824e-20)
(1.47551 0.543056 -2.41023e-19)
(0.932056 -0.0592352 2.45018e-20)
(1.0026 0.0133991 -2.79311e-35)
(1.12013 0.200763 -3.84602e-21)
(1.24546 0.267017 7.37367e-21)
(1.452 0.247463 -8.30872e-21)
(1.35183 0.225384 -6.62159e-21)
(1.71842 0.214996 -5.42128e-34)
(1.38966 0.316324 -5.70017e-20)
(1.87405 0.256603 -1.16244e-19)
(1.65489 0.485113 2.62764e-19)
(0.93319 -0.0486617 0)
(0.990709 -0.0146846 -1.30578e-34)
(1.12478 0.137525 0)
(1.291 0.20216 0)
(1.51812 0.219795 0)
(1.44128 0.178091 0)
(1.7973 0.194676 -3.66468e-34)
(1.53618 0.289722 0)
(1.94926 0.209831 -1.72235e-20)
(1.83301 0.427932 1.53288e-19)
(0.93882 -0.0386332 3.23868e-21)
(0.994024 -0.0395813 -3.75918e-22)
(1.11897 0.0673305 -4.89502e-21)
(1.30591 0.128623 0)
(1.52469 0.184569 0)
(1.51392 0.129961 6.9846e-21)
(1.7844 0.168273 3.49229e-20)
(1.66952 0.262459 -1.31318e-20)
(1.94076 0.163163 -2.62799e-20)
(1.97305 0.354947 1.01766e-19)
(0.944874 -0.0331342 -5.09591e-20)
(1.0176 -0.0648035 1.1102e-21)
(1.10683 -0.00192661 -5.89707e-21)
(1.2833 0.0586791 -2.59203e-20)
(1.47198 0.135604 -1.34069e-20)
(1.53589 0.0861335 -1.4652e-21)
(1.70131 0.135823 -3.19997e-20)
(1.73967 0.226609 -9.72704e-21)
(1.89715 0.120802 -4.68081e-20)
(2.04533 0.276105 1.26973e-19)
(0.948048 -0.0332544 -5.76746e-21)
(1.0564 -0.0805467 -1.29486e-20)
(1.07053 -0.0522498 -6.90174e-21)
(1.20689 0.00805566 -5.82706e-21)
(1.3237 0.0808924 2.54762e-35)
(1.47373 0.0476871 7.98641e-21)
(1.49235 0.0987916 -7.94477e-34)
(1.71357 0.173442 -1.24947e-20)
(1.77502 0.0771511 1.84117e-20)
(2.00462 0.198883 2.27894e-20)
(0.943705 -0.0490146 1.34449e-19)
(1.06148 -0.0871055 -6.33908e-21)
(0.945603 -0.0758557 -8.20615e-21)
(0.992957 -0.0198939 1.19462e-20)
(1.03328 0.0275335 6.09922e-21)
(1.18581 0.0192075 1.31411e-20)
(1.11369 0.0589275 9.53839e-21)
(1.48517 0.0864283 -2.5558e-20)
(1.43445 0.0405429 -2.33725e-20)
(1.73547 0.112465 7.71299e-20)
(0.87247 -0.0351088 6.91904e-21)
(0.846066 -0.0621288 -5.9782e-35)
(0.534963 -0.0433742 -8.55873e-21)
(0.488798 -0.00824933 0)
(0.487796 0.00560219 0)
(0.556599 0.00870861 8.17634e-21)
(0.549934 0.0173924 -8.37937e-36)
(0.797018 0.0227015 -1.22677e-20)
(0.765074 0.0162658 -2.77313e-20)
(1.01271 0.0398608 -3.64529e-20)
(1.5566 0.766044 1.54036e-19)
(1.67087 0.755796 -6.5254e-20)
(1.79551 0.737711 -3.29937e-21)
(1.91129 0.71188 6.10803e-20)
(2.01444 0.677146 -2.53061e-19)
(2.10733 0.633448 -4.60311e-19)
(2.1884 0.583829 -2.12498e-19)