/*--------------------------------*- C++ -*----------------------------------*\
| =========                 |                                                 |
| \\      /  F ield         | OpenFOAM: The Open Source CFD Toolbox           |
|  \\    /   O peration     | Version:  2406                                  |
|   \\  /    A nd           | Website:  www.openfoam.com                      |
|    \\/     M anipulation  |                                                 |
\*---------------------------------------------------------------------------*/
FoamFile
{
    version     2.0;
    format      ascii;
    arch        "LSB;label=32;scalar=64";
    class       volScalarField;
    location    "200";
    object      epsilon;
}
// * * * * * * * * * * * * * * * * * * * * * * * * * * * * * * * * * * * * * //

dimensions      [0 2 -3 0 0 0 0];

internalField   nonuniform List<scalar> 
12225
(
1085.71
2467.79
3645.44
4414.75
4812.15
4980.51
4975.33
4926.51
4840.74
4729.17
4620.76
4517.27
4425.61
4339.63
4269.14
4198.65
4151.02
4085.86
81.23
262.52
438.553
584.501
691.162
762.813
805.02
829.621
846.927
856.798
866.68
873.604
883.055
890.846
900.542
910.289
917.423
934.267
20.5775
51.1735
83.4741
112.529
136.934
156.181
170.172
179.873
186.392
190.77
193.499
195.603
196.871
198.354
199.392
200.691
202.736
205.986
14.7579
21.8683
30.0216
38.4984
46.2196
53.0343
58.6258
63.2594
66.7578
69.6435
71.6134
73.33
74.3187
75.3357
75.7352
76.4078
76.6255
77.3427
14.361
16.3337
18.4571
21.4861
24.4397
27.2609
29.7371
31.9824
33.8191
35.4787
36.745
37.9267
38.7443
39.5737
40.0568
40.6451
40.8622
41.4443
14.6446
14.9541
15.4277
16.4559
17.6093
18.8286
19.9699
21.0767
22.0337
22.9481
23.6895
24.4155
24.956
25.5269
25.8924
26.3494
26.5521
27.0019
14.7184
14.6387
14.6738
14.8757
15.2176
15.6833
16.1628
16.6724
17.1383
17.6108
18.0104
18.4207
18.7384
19.0877
19.3213
19.6225
19.767
20.0792
14.7545
14.5907
14.4691
14.4209
14.4418
14.5153
14.6476
14.8246
15.0023
15.2023
15.3793
15.576
15.7326
15.9149
16.0399
16.2079
16.2904
16.4756
14.7641
14.5919
14.4345
14.3029
14.2031
14.1371
14.0973
14.0987
14.1107
14.1415
14.1783
14.2346
14.2793
14.3427
14.3852
14.45
14.4812
14.5623
14.7656
14.5942
14.4321
14.2828
14.1466
14.0296
13.9256
13.8437
13.7744
13.7224
13.6772
13.6482
13.6204
13.6063
13.5892
13.5838
13.5723
13.5819
14.7657
14.5945
14.4323
14.2806
14.137
14.0051
13.8816
13.7705
13.6679
13.5777
13.4939
13.4219
13.3537
13.2972
13.2406
13.1973
13.1473
13.1179
14.7657
14.5944
14.4323
14.2801
14.1357
14.0007
13.8728
13.754
13.6417
13.5386
13.441
13.3523
13.2677
13.1922
13.1185
13.055
12.9896
12.9369
14.7657
14.5941
14.4321
14.2797
14.1353
13.9995
13.8707
13.7497
13.6347
13.5271
13.4248
13.3294
13.2384
13.1542
13.0732
12.9991
12.9267
12.8616
14.7657
14.594
14.4319
14.2792
14.1349
13.9987
13.8698
13.7481
13.6327
13.5237
13.4201
13.3224
13.2294
13.1418
13.0582
12.9796
12.9043
12.8337
14.7657
14.5938
14.4317
14.2789
14.1345
13.9981
13.8691
13.7471
13.6316
13.5222
13.4183
13.32
13.2265
13.1379
13.0536
12.9737
12.8975
12.8253
14.7657
14.5938
14.4316
14.2786
14.1341
13.9976
13.8685
13.7463
13.6307
13.5211
13.4171
13.3185
13.2249
13.1361
13.0516
12.9713
12.8949
12.8222
14.7657
14.5937
14.4315
14.2784
14.1338
13.9972
13.868
13.7457
13.6299
13.5202
13.4162
13.3175
13.2237
13.1347
13.0501
12.9697
12.8931
12.8203
14.7657
14.5937
14.4314
14.2783
14.1336
13.9969
13.8677
13.7453
13.6294
13.5196
13.4155
13.3167
13.2228
13.1337
13.049
12.9685
12.8919
12.819
14.7657
14.5937
14.4314
14.2782
14.1336
13.9969
13.8675
13.7452
13.6292
13.5194
13.4152
13.3163
13.2224
13.1333
13.0485
12.968
12.8913
12.8184
14.7657
14.5937
14.4315
14.2783
14.1337
13.997
13.8677
13.7453
13.6294
13.5196
13.4154
13.3166
13.2227
13.1336
13.0489
12.9683
12.8917
12.8188
14.7657
14.5937
14.4316
14.2785
14.1339
13.9973
13.8681
13.7457
13.63
13.5202
13.4163
13.3176
13.2241
13.1352
13.051
12.9708
12.8948
12.8224
14.7657
14.5938
14.4317
14.2786
14.1343
13.9978
13.869
13.7473
13.6325
13.524
13.4219
13.3252
13.2344
13.1483
13.0676
12.9907
12.9192
12.8504
14.7657
14.5937
14.4319
14.2789
14.1361
14.0021
13.8782
13.7629
13.6573
13.5595
13.4707
13.3883
13.3141
13.2446
13.1829
13.1237
13.0729
13.0213
14.7644
14.5922
14.4335
14.2871
14.1628
14.0551
13.9689
13.8978
13.8459
13.8048
13.7783
13.758
13.7482
13.7416
13.7423
13.7433
13.7529
13.7517
14.7478
14.5944
14.4764
14.4102
14.4234
14.4613
14.5554
14.6706
14.817
14.9613
15.1238
15.2712
15.432
15.5684
15.7197
15.8374
15.9783
16.0722
14.6504
14.7821
14.9369
15.3416
15.9227
16.5509
17.2339
17.8781
18.5378
19.1218
19.7129
20.2098
20.7203
21.1251
21.5592
21.8761
22.2458
22.4813
14.572
16.1273
17.9726
20.4197
22.9236
25.2655
27.5469
29.5528
31.4909
33.1029
34.6861
35.9145
37.1765
38.0667
39.062
39.6739
40.4626
40.8542
16.5442
25.8796
36.721
46.5548
55.8661
64.2737
72.102
78.742
84.8031
89.5919
94.0148
97.177
100.316
102.193
104.455
105.419
107.138
107.495
45.7966
105.211
164.44
217.234
267.845
313.452
353.663
386.108
413.224
433.658
450.597
462.705
472.894
479.775
486.818
490.308
496.155
497.492
632.343
1081.16
1534.74
1880.99
2183.47
2431.76
2631.52
2773.01
2876.13
2932.17
2969.03
2970.11
2963.09
2946.15
2918.22
2884.95
2849.13
2811.79
0.440018
0.432208
0.723809
1.01451
1.27285
1.48961
1.67891
1.85841
2.02711
2.1923
2.36248
2.54704
2.75944
3.02297
3.34977
3.72941
4.15376
4.62342
5.14248
5.71778
6.35561
7.06336
7.84653
8.71189
9.66423
10.711
11.859
13.1045
14.4457
15.8854
17.423
19.0622
20.803
22.6493
24.601
26.663
28.8357
31.1274
33.5464
36.1113
38.8427
41.7782
44.847
48.0707
51.4416
54.973
58.6637
62.5232
66.5522
70.7599
75.1468
79.7222
84.4864
89.449
94.6099
99.9788
105.555
111.347
117.355
123.588
130.042
136.729
143.643
150.795
158.178
165.804
173.663
181.765
190.102
198.681
207.494
216.546
225.827
235.342
245.079
255.041
265.214
275.602
286.188
296.974
307.941
319.091
330.403
341.875
353.484
365.226
377.077
389.03
401.058
413.147
425.27
437.398
449.502
461.549
473.505
485.342
497.042
508.628
520.199
531.584
542.826
553.877
564.729
575.351
585.721
595.812
605.6
615.061
624.167
632.895
641.22
649.118
656.565
663.541
670.023
675.991
681.429
686.317
690.643
694.392
697.557
700.131
702.116
703.507
704.307
704.483
703.899
702.749
701.199
699.036
696.23
692.889
689.008
684.615
679.734
674.392
668.62
662.45
655.914
649.051
641.926
634.574
627.038
619.356
611.57
603.716
595.838
587.97
580.149
572.413
564.798
557.341
550.075
543.03
536.233
529.707
523.477
517.558
511.968
506.714
501.811
497.255
493.047
489.182
485.65
482.416
479.49
477.172
477.946
479.693
481.749
484.085
486.656
489.372
492.089
494.438
496.503
497.613
496.284
474.767
1.7227
0.956595
0.849359
0.882124
0.966631
1.07938
1.21352
1.36713
1.53747
1.72452
1.93006
2.1571
2.4096
2.69192
3.00642
3.35302
3.73154
4.14291
4.58876
5.07108
5.5916
6.15194
6.75321
7.39647
8.08238
8.81168
9.58441
10.3999
11.2584
12.1621
13.1119
14.1083
15.1504
16.2388
17.3748
18.5608
19.7986
21.0914
22.4423
23.855
25.3318
26.8735
28.4756
30.1422
31.8737
33.6727
35.5403
37.4788
39.4894
41.5743
43.7346
45.9724
48.2886
50.6853
53.1634
55.7245
58.3694
61.0998
63.9159
66.8192
69.8098
72.8891
76.0566
79.3134
82.6589
86.0937
89.6167
93.2283
96.927
100.713
104.584
108.54
112.578
116.697
120.895
125.169
129.517
133.936
138.423
142.975
147.587
152.257
156.977
161.746
166.556
171.402
176.277
181.176
186.09
191.012
195.932
200.84
205.726
210.584
215.406
220.192
224.953
229.715
234.539
239.329
244.055
248.71
253.286
257.773
262.162
266.442
270.606
274.642
278.542
282.295
285.892
289.323
292.58
295.653
298.535
301.216
303.69
305.949
307.987
309.798
311.379
312.725
313.835
314.704
315.327
315.687
315.765
315.631
315.29
314.703
313.859
312.784
311.486
309.972
308.252
306.338
304.239
301.97
299.544
296.978
294.291
291.499
288.618
285.663
282.653
279.601
276.526
273.442
270.366
267.313
264.299
261.34
258.45
255.642
252.929
250.321
247.832
245.468
243.239
241.151
239.211
237.42
235.782
234.298
232.968
231.79
230.776
230.03
230.039
230.309
230.724
231.278
231.936
232.654
233.358
233.982
234.522
235.105
235.248
234.33
3.33472
1.58632
1.27756
1.22959
1.27091
1.36023
1.48423
1.63846
1.82076
2.03007
2.26586
2.52796
2.8165
3.13166
3.47344
3.84157
4.23594
4.65691
5.10519
5.58174
6.08749
6.62341
7.19036
7.78926
8.4211
9.08719
9.78933
10.5254
11.2924
12.0864
12.9139
13.779
14.6829
15.6271
16.6128
17.6417
18.7151
19.8345
21.001
22.2159
23.4798
24.7936
26.1577
27.5741
29.0444
30.5692
32.1494
33.7863
35.4811
37.2349
39.0488
40.9238
42.8609
44.8612
46.9253
49.0542
51.2484
53.5089
55.8359
58.2302
60.692
63.2218
65.8197
68.4857
71.2199
74.0222
76.8921
79.8293
82.8333
85.9033
89.0384
92.2376
95.4997
98.8233
102.207
105.648
109.146
112.698
116.301
119.954
123.652
127.394
131.176
134.994
138.845
142.724
146.627
150.55
154.487
158.434
162.385
166.336
170.282
174.22
178.148
182.067
185.98
189.89
193.795
197.665
201.488
205.258
208.967
212.608
216.173
219.655
223.046
226.339
229.525
232.596
235.546
238.366
241.049
243.587
245.974
248.203
250.267
252.161
253.878
255.416
256.768
257.932
258.905
259.685
260.268
260.634
260.77
260.764
260.557
260.157
259.56
258.777
257.814
256.678
255.375
253.915
252.305
250.557
248.681
246.691
244.599
242.418
240.161
237.841
235.47
233.061
230.628
228.183
225.738
223.307
220.901
218.533
216.214
213.954
211.763
209.65
207.625
205.695
203.865
202.143
200.531
199.035
197.655
196.394
195.252
194.228
193.329
192.595
192.166
191.902
191.748
191.681
191.692
191.732
191.719
191.675
191.632
191.723
191.926
192.633
4.85563
2.20248
1.74145
1.64105
1.65864
1.74028
1.86629
2.02902
2.22498
2.4522
2.70912
2.99427
3.30616
3.64343
4.00492
4.38975
4.79751
5.22825
5.68243
6.1608
6.66424
7.19372
7.75013
8.33434
8.94698
9.58842
10.2583
10.9587
11.6927
12.4642
13.2729
14.1186
15.0022
15.9248
16.8877
17.8922
18.9398
20.0316
21.1676
22.3485
23.5749
24.8471
26.1652
27.5286
28.9418
30.4061
31.9224
33.492
35.1158
36.7949
38.5303
40.323
42.174
44.0842
46.0544
48.0854
50.1778
52.3323
54.5494
56.8299
59.174
61.5823
64.0549
66.5922
69.1943
71.861
74.5924
77.3881
80.2478
83.171
86.157
89.205
92.3139
95.4828
98.7102
101.995
105.334
108.727
112.172
115.666
119.206
122.79
126.415
130.078
133.775
137.504
141.259
145.038
148.836
152.649
156.473
160.305
164.14
167.976
171.81
175.639
179.463
183.277
187.071
190.83
194.547
198.215
201.827
205.374
208.851
212.249
215.561
218.779
221.896
224.904
227.796
230.564
233.201
235.699
238.052
240.252
242.294
244.172
245.88
247.413
248.767
249.938
250.923
251.72
252.326
252.727
252.907
252.934
252.768
252.414
251.873
251.151
250.254
249.188
247.96
246.577
245.048
243.382
241.591
239.685
237.676
235.577
233.399
231.155
228.857
226.517
224.148
221.761
219.369
216.983
214.615
212.275
209.975
207.724
205.531
203.405
201.354
199.386
197.505
195.718
194.027
192.438
190.951
189.566
188.283
187.101
186.02
185.059
184.265
183.591
183.005
182.486
182.003
181.529
181.042
180.555
180.097
179.797
179.743
180.275
6.18201
2.80579
2.21021
2.06528
2.06292
2.13694
2.26236
2.42859
2.63061
2.8655
3.13103
3.42517
3.74595
4.09159
4.46059
4.85195
5.26513
5.70016
6.15745
6.63777
7.14204
7.67135
8.22675
8.80934
9.42013
10.0602
10.7307
11.4332
12.1695
12.9412
13.7489
14.5934
15.4756
16.3964
17.3568
18.3576
19.3994
20.4831
21.6099
22.7811
23.9975
25.2604
26.5711
27.9317
29.3427
30.8047
32.3188
33.8862
35.508
37.1854
38.9194
40.7112
42.562
44.4729
46.4452
48.4795
50.5764
52.737
54.9618
57.2518
59.6075
62.0297
64.5189
67.0755
69.6999
72.3923
75.1529
77.9817
80.8786
83.8433
86.8753
89.9741
93.1389
96.3688
99.6627
103.019
106.437
109.914
113.448
117.037
120.68
124.372
128.112
131.896
135.722
139.584
143.481
147.408
151.36
155.335
159.328
163.334
167.35
171.372
175.394
179.412
183.421
187.412
191.379
195.311
199.202
203.043
206.827
210.547
214.194
217.762
221.241
224.625
227.904
231.071
234.119
237.038
239.822
242.462
244.951
247.283
249.45
251.446
253.265
254.902
256.352
257.611
258.675
259.541
260.208
260.668
260.898
260.951
260.806
260.463
259.927
259.201
258.291
257.202
255.942
254.518
252.938
251.212
249.352
247.367
245.27
243.073
240.788
238.427
236.004
233.53
231.018
228.481
225.93
223.377
220.834
218.311
215.82
213.37
210.97
208.629
206.355
204.154
202.034
199.997
198.05
196.193
194.43
192.758
191.179
189.689
188.287
186.98
185.785
184.683
183.654
182.685
181.75
180.834
179.925
179.039
178.208
177.547
177.118
177.187
7.33008
3.3724
2.66166
2.47457
2.4536
2.51806
2.63927
2.80403
3.0059
3.24113
3.50708
3.80153
4.12248
4.46819
4.83727
5.22875
5.64219
6.0776
6.53539
7.01632
7.52132
8.0515
8.60799
9.19198
9.80468
10.4473
11.1212
11.8276
12.5679
13.3432
14.1545
15.0028
15.8891
16.8144
17.7796
18.7857
19.8337
20.9246
22.0598
23.2403
24.4674
25.7423
27.0665
28.4412
29.8677
31.347
32.8804
34.4692
36.1148
37.8184
39.5815
41.4052
43.291
45.2399
47.2531
49.3319
51.4779
53.6922
55.976
58.3304
60.7565
63.2551
65.8273
68.4739
71.1954
73.9925
76.8657
79.8153
82.8414
85.944
89.123
92.3779
95.7083
99.1132
102.592
106.143
109.765
113.456
117.214
121.037
124.923
128.868
132.87
136.926
141.031
145.183
149.377
153.608
157.873
162.167
166.486
170.823
175.174
179.533
183.894
188.251
192.597
196.923
201.221
205.485
209.704
213.872
217.98
222.019
225.982
229.859
233.642
237.323
240.892
244.34
247.66
250.842
253.878
256.76
259.48
262.029
264.401
266.588
268.584
270.383
271.98
273.37
274.549
275.514
276.262
276.791
277.074
277.151
277.016
276.667
276.107
275.341
274.374
273.212
271.862
270.332
268.63
266.766
264.752
262.598
260.318
257.923
255.427
252.841
250.181
247.457
244.685
241.876
239.044
236.2
233.357
230.526
227.718
224.942
222.21
219.529
216.908
214.353
211.87
209.465
207.142
204.903
202.75
200.683
198.702
196.805
194.989
193.256
191.61
190.045
188.546
187.103
185.701
184.33
182.987
181.689
180.469
179.425
178.588
178.091
8.91678
4.00161
3.11253
2.86395
2.81663
2.86628
2.97892
3.13798
3.33527
3.56619
3.82773
4.11759
4.43389
4.77509
5.13998
5.52779
5.93814
6.37107
6.82698
7.30658
7.81075
8.34055
8.89712
9.48163
10.0953
10.7394
11.4151
12.1237
12.8665
13.6445
14.4588
15.3107
16.2011
17.1312
18.1022
19.1151
20.1712
21.2717
22.418
23.6115
24.8534
26.1453
27.4886
28.8848
30.3353
31.8417
33.4054
35.028
36.7112
38.4566
40.2658
42.1405
44.0822
46.0927
48.1736
50.3265
52.5532
54.8554
57.2345
59.6922
62.2298
64.8488
67.5505
70.3361
73.2066
76.163
79.2061
82.3366
85.5549
88.8614
92.256
95.7387
99.309
102.966
106.71
110.538
114.449
118.443
122.515
126.665
130.889
135.185
139.548
143.976
148.464
153.008
157.604
162.246
166.93
171.649
176.399
181.173
185.965
190.768
195.574
200.376
205.165
209.934
214.672
219.373
224.026
228.622
233.154
237.61
241.982
246.26
250.435
254.497
258.436
262.243
265.907
269.421
272.774
275.957
278.962
281.78
284.402
286.822
289.031
291.025
292.795
294.338
295.649
296.723
297.56
298.156
298.486
298.583
298.444
298.07
297.463
296.628
295.571
294.297
292.813
291.129
289.253
287.195
284.967
282.581
280.05
277.386
274.604
271.717
268.739
265.685
262.568
259.401
256.199
252.975
249.741
246.509
243.29
240.096
236.936
233.82
230.755
227.75
224.81
221.942
219.149
216.436
213.804
211.254
208.787
206.4
204.093
201.865
199.717
197.645
195.642
193.699
191.809
189.968
188.177
186.453
184.828
183.384
182.121
181.088
10.9548
4.69224
3.55669
3.22485
3.14195
3.17124
3.27139
3.42151
3.61136
3.83529
4.08984
4.3726
4.6818
5.01607
5.37441
5.75621
6.16117
6.58937
7.04121
7.51731
8.01851
8.54579
9.10024
9.68299
10.2952
10.9382
11.6132
12.3213
13.0639
13.8423
14.6575
15.5109
16.4037
17.3372
18.3127
19.3315
20.3951
21.505
22.6626
23.8695
25.1275
26.4382
27.8032
29.2245
30.7036
32.2426
33.8432
35.5074
37.2371
39.0345
40.9015
42.8402
44.8527
46.9411
49.1076
51.3543
53.6834
56.097
58.5971
61.1857
63.865
66.6366
69.5024
72.4641
75.5232
78.681
81.9388
85.2976
88.7582
92.3211
95.9868
99.7552
103.626
107.599
111.673
115.846
120.118
124.486
128.949
133.502
138.144
142.871
147.678
152.562
157.518
162.541
167.626
172.766
177.956
183.189
188.459
193.757
199.076
204.408
209.745
215.077
220.395
225.689
230.949
236.167
241.331
246.431
251.458
256.401
261.249
265.992
270.618
275.118
279.48
283.695
287.751
291.637
295.345
298.864
302.185
305.298
308.194
310.865
313.304
315.502
317.454
319.154
320.597
321.779
322.697
323.349
323.712
323.813
323.652
323.229
322.547
321.613
320.431
319.009
317.352
315.471
313.375
311.075
308.582
305.911
303.073
300.083
296.955
293.704
290.345
286.894
283.364
279.77
276.127
272.45
268.75
265.041
261.336
257.645
253.979
250.348
246.761
243.226
239.749
236.339
232.998
229.733
226.546
223.439
220.413
217.469
214.605
211.823
209.121
206.499
203.954
201.481
199.079
196.746
194.487
192.32
190.273
188.411
186.712
185.177
12.9498
5.34706
3.9613
3.54209
3.42027
3.4266
3.51201
3.65132
3.83212
4.04769
4.29403
4.56857
4.86954
5.1957
5.54619
5.92052
6.31849
6.7402
7.18603
7.65658
8.15264
8.67514
9.22511
9.80361
10.4118
11.051
11.7224
12.4274
13.1673
13.9434
14.7571
15.6099
16.5031
17.4382
18.4167
19.4402
20.5104
21.6288
22.7974
24.0179
25.2925
26.6232
28.012
29.4612
30.9727
32.549
34.1922
35.9047
37.689
39.5476
41.4829
43.4977
45.5945
47.776
50.0448
52.4038
54.8555
57.4028
60.0481
62.7942
65.6436
68.5986
71.6617
74.8349
78.1203
81.5199
85.0351
88.6673
92.4179
96.2875
100.277
104.386
108.615
112.963
117.429
122.012
126.711
131.522
136.444
141.473
146.605
151.837
157.163
162.58
168.081
173.66
179.311
185.027
190.8
196.624
202.488
208.386
214.307
220.241
226.18
232.111
238.026
243.912
249.758
255.554
261.288
266.949
272.524
278.003
283.372
288.622
293.739
298.711
303.528
308.177
312.648
316.928
321.007
324.875
328.52
331.933
335.105
338.027
340.69
343.086
345.21
347.054
348.613
349.883
350.862
351.546
351.916
351.996
351.783
351.279
350.49
349.42
348.076
346.465
344.595
342.475
340.115
337.526
334.722
331.716
328.521
325.153
321.628
317.959
314.164
310.259
306.258
302.178
298.034
293.841
289.613
285.365
281.108
276.854
272.617
268.404
264.228
260.096
256.016
251.996
248.041
244.159
240.352
236.624
232.979
229.418
225.942
222.553
219.252
216.04
212.918
209.886
206.945
204.098
201.352
198.724
196.237
193.944
191.804
189.795
14.798
5.93585
4.31279
3.80915
3.6471
3.63103
3.70054
3.82808
3.99909
4.20571
4.4434
4.70932
5.00166
5.31921
5.66119
6.0272
6.41711
6.83104
7.26936
7.73266
8.22176
8.73763
9.2814
9.85358
10.4555
11.0885
11.7541
12.4537
13.1888
13.9608
14.7713
15.6219
16.5142
17.45
18.4309
19.4588
20.5355
21.663
22.8431
24.0779
25.3705
26.7236
28.1395
29.6207
31.1698
32.7895
34.4827
36.2522
38.1009
40.032
42.0486
44.1538
46.3509
48.6431
51.0339
53.5266
56.1246
58.8311
61.6495
64.5829
67.6347
70.8078
74.1051
77.5293
81.0831
84.7686
88.588
92.543
96.6351
100.865
105.235
109.743
114.39
119.176
124.099
129.158
134.351
139.675
145.126
150.702
156.397
162.207
168.127
174.149
180.268
186.476
192.766
199.129
205.556
212.039
218.566
225.128
231.715
238.313
244.913
251.502
258.067
264.596
271.077
277.496
283.841
290.098
296.256
302.3
308.217
313.994
319.619
325.078
330.359
335.449
340.335
345.006
349.45
353.656
357.613
361.31
364.738
367.887
370.75
373.317
375.581
377.538
379.18
380.504
381.506
382.183
382.523
382.542
382.236
381.61
380.669
379.421
377.871
376.027
373.898
371.493
368.823
365.9
362.738
359.35
355.752
351.959
347.987
343.853
339.572
335.162
330.641
326.023
321.326
316.565
311.756
306.913
302.051
297.181
292.316
287.467
282.646
277.861
273.122
268.437
263.814
259.26
254.78
250.381
246.066
241.839
237.705
233.666
229.726
225.889
222.159
218.541
215.037
211.655
208.404
205.298
202.357
199.623
197.042
194.582
16.4445
6.44594
4.60638
4.02438
3.82329
3.78556
3.83949
3.95516
4.11619
4.31376
4.54276
4.80009
5.08381
5.39269
5.72597
6.08331
6.46468
6.8703
7.30009
7.75484
8.23554
8.74335
9.27971
9.84498
10.4404
11.0672
11.727
12.4212
13.1515
13.9194
14.7268
15.5754
16.4669
17.4035
18.3871
19.4199
20.5041
21.6418
22.8353
24.0872
25.4025
26.7833
28.2325
29.7532
31.3486
33.0222
34.777
36.6167
38.5448
40.565
42.6812
44.8972
47.217
49.6446
52.1841
54.8395
57.615
60.5145
63.5421
66.7018
69.9974
73.4325
77.0106
80.735
84.6088
88.6346
92.815
97.1519
101.647
106.301
111.116
116.091
121.227
126.521
131.973
137.581
143.343
149.253
155.31
161.508
167.841
174.304
180.889
187.591
194.399
201.307
208.303
215.379
222.524
229.727
236.975
244.258
251.562
258.873
266.18
273.467
280.72
287.926
295.07
302.138
309.114
315.985
322.736
329.353
335.82
342.123
348.249
354.184
359.913
365.423
370.701
375.735
380.512
385.022
389.251
393.191
396.832
400.163
403.176
405.863
408.218
410.234
411.906
413.229
414.2
414.816
415.072
414.976
414.523
413.718
412.573
411.094
409.286
407.158
404.719
401.98
398.951
395.646
392.079
388.264
384.216
379.953
375.49
370.844
366.034
361.077
355.989
350.79
345.495
340.123
334.688
329.207
323.694
318.163
312.627
307.098
301.587
296.106
290.664
285.272
279.937
274.669
269.474
264.362
259.337
254.407
249.577
244.854
240.244
235.754
231.391
227.162
223.076
219.142
215.369
211.773
208.367
205.186
202.166
199.278
17.8549
6.87171
4.84196
4.18994
3.95298
3.89473
3.93373
4.03781
4.18906
4.37777
4.59834
4.84739
5.12289
5.42356
5.7483
6.09695
6.46976
6.8674
7.28957
7.73691
8.21021
8.71037
9.23824
9.79457
10.3813
11
11.6523
12.3401
13.065
13.8291
14.6342
15.4827
16.3765
17.318
18.3095
19.3536
20.4534
21.6107
22.828
24.1078
25.455
26.8737
28.3677
29.9413
31.5987
33.3436
35.1798
37.1115
39.1429
41.2787
43.5233
45.8815
48.3581
50.9577
53.6854
56.546
59.5443
62.6853
65.9735
69.4138
73.0104
76.7678
80.6899
84.7805
89.043
93.4804
98.0953
102.89
107.866
113.024
118.365
123.89
129.596
135.483
141.548
147.79
154.203
160.784
167.528
174.428
181.478
188.671
195.997
203.449
211.016
218.688
226.453
234.3
242.216
250.188
258.203
266.246
274.303
282.358
290.397
298.403
306.36
314.253
322.065
329.78
337.382
344.855
352.183
359.35
366.34
373.138
379.728
386.096
392.227
398.108
403.724
409.063
414.112
418.86
423.296
427.409
431.19
434.629
437.718
440.451
442.82
444.819
446.445
447.692
448.559
449.043
449.14
448.861
448.187
447.14
445.726
443.954
441.828
439.357
436.553
433.425
429.986
426.248
422.227
417.937
413.395
408.618
403.622
398.425
393.045
387.501
381.81
375.992
370.064
364.043
357.948
351.794
345.597
339.371
333.13
326.887
320.654
314.444
308.267
302.135
296.057
290.045
284.106
278.251
272.488
266.828
261.277
255.845
250.542
245.378
240.363
235.508
230.825
226.325
222.021
217.924
214.048
210.419
206.968
203.671
19.0116
7.21214
5.02194
4.3098
4.04119
3.96411
3.98929
4.08249
4.22453
4.40507
4.61771
4.85901
5.12698
5.42064
5.73858
6.08042
6.44602
6.8352
7.24826
7.68646
8.15082
8.6425
9.1628
9.71311
10.2948
10.9096
11.5591
12.2454
12.9706
13.737
14.547
15.4034
16.3081
17.2636
18.2728
19.3386
20.4636
21.6493
22.9011
24.224
25.6228
27.1017
28.6652
30.318
32.0652
33.9121
35.8632
37.9234
40.098
42.3923
44.8119
47.3623
50.0493
52.8785
55.8557
58.9864
62.2764
65.7312
69.3563
73.1569
77.1379
81.3041
85.6598
90.209
94.9553
99.9015
105.05
110.403
115.962
121.727
127.698
133.874
140.253
146.834
153.612
160.585
167.745
175.089
182.608
190.296
198.144
206.142
214.281
222.549
230.934
239.425
248.007
256.667
265.39
274.161
282.964
291.784
300.603
309.404
318.17
326.883
335.526
344.082
352.531
360.857
369.041
377.067
384.917
392.574
400.022
407.243
414.223
420.945
427.395
433.558
439.421
444.971
450.196
455.084
459.625
463.809
467.626
471.07
474.132
476.806
479.086
480.968
482.448
483.523
484.192
484.451
484.306
483.746
482.77
481.402
479.646
477.507
474.995
472.116
468.884
465.309
461.404
457.181
452.657
447.846
442.766
437.433
431.865
426.08
420.096
413.932
407.607
401.14
394.55
387.855
381.073
374.221
367.316
360.371
353.403
346.424
339.448
332.488
325.557
318.666
311.826
305.05
298.349
291.735
285.218
278.811
272.524
266.37
260.361
254.511
248.834
243.344
238.057
232.986
228.145
223.546
219.199
215.126
211.254
207.575
19.9068
7.46816
5.14965
4.38853
4.0934
3.99995
4.01315
4.09656
4.23035
4.40395
4.61059
4.84624
5.10833
5.3951
5.70568
6.0402
6.39886
6.78215
7.1904
7.62438
8.08517
8.57407
9.09258
9.64242
10.2256
10.8435
11.4981
12.1918
12.9271
13.7066
14.533
15.4088
16.3349
17.3161
18.3563
19.4594
20.6297
21.8715
23.1894
24.5888
26.0747
27.6525
29.3276
31.1059
32.9935
34.9961
37.1196
39.3703
41.7545
44.279
46.9504
49.7751
52.7599
55.911
59.2351
62.7385
66.4274
70.3081
74.3862
78.6674
83.1568
87.8592
92.7786
97.9188
103.283
108.873
114.691
120.738
127.014
133.519
140.25
147.206
154.383
161.778
169.384
177.197
185.208
193.411
201.796
210.354
219.073
227.943
236.951
246.083
255.327
264.666
274.086
283.57
293.102
302.664
312.24
321.81
331.356
340.86
350.302
359.664
368.926
378.069
387.073
395.921
404.593
413.071
421.337
429.373
437.162
444.687
451.931
458.879
465.516
471.828
477.802
483.426
488.687
493.576
498.082
502.197
505.914
509.225
512.124
514.606
516.667
518.304
519.514
520.298
520.654
520.58
520.079
519.128
517.762
515.983
513.797
511.213
508.238
504.881
501.156
497.072
492.643
487.882
482.805
477.429
471.77
465.844
459.671
453.267
446.651
439.842
432.86
425.723
418.452
411.065
403.58
396.016
388.388
380.713
373.007
365.282
357.554
349.836
342.142
334.484
326.877
319.332
311.863
304.484
297.209
290.051
283.025
276.146
269.429
262.893
256.554
250.43
244.539
238.9
233.527
228.432
223.622
219.117
214.841
210.807
20.5336
7.63835
5.22738
4.43043
4.11533
4.00878
4.0127
4.08927
4.21731
4.38511
4.58592
4.81627
5.07391
5.35753
5.66617
5.99964
6.35832
6.74225
7.15205
7.58881
8.05384
8.5487
9.07513
9.63496
10.23
10.8611
11.5319
12.2452
13.0043
13.8124
14.673
15.5899
16.567
17.6083
18.7184
19.9023
21.1652
22.5127
23.9505
25.4847
27.1216
28.8677
30.7296
32.7145
34.8295
37.0814
39.4776
42.026
44.7346
47.6117
50.6652
53.9024
57.3303
60.956
64.7861
68.8275
73.0864
77.5689
82.2805
87.2264
92.4109
97.838
103.511
109.431
115.601
122.022
128.692
135.611
142.778
150.189
157.84
165.727
173.844
182.184
190.739
199.502
208.463
217.61
226.933
236.42
246.058
255.832
265.728
275.731
285.825
295.992
306.216
316.478
326.76
337.043
347.308
357.536
367.706
377.798
387.794
397.671
407.412
416.995
426.4
435.61
444.603
453.362
461.867
470.103
478.05
485.693
493.014
500
506.635
512.907
518.803
524.312
529.423
534.126
538.416
542.282
545.721
548.726
551.294
553.422
555.105
556.344
557.136
557.489
557.395
556.862
555.859
554.423
552.557
550.268
547.562
544.446
540.929
537.021
532.735
528.081
523.073
517.725
512.052
506.07
499.797
493.248
486.443
479.397
472.13
464.66
457.007
449.19
441.229
433.144
424.952
416.672
408.322
399.917
391.473
383.005
374.528
366.056
357.603
349.185
340.815
332.508
324.278
316.143
308.117
300.217
292.461
284.866
277.453
270.242
263.252
256.505
250.025
243.83
237.94
232.364
227.109
222.194
217.538
213.187
20.9837
7.75278
5.26973
4.44488
4.11512
3.99988
3.99721
4.06786
4.19202
4.35851
4.56005
4.79241
5.05322
5.34114
5.65545
5.99595
6.36264
6.75543
7.17591
7.62561
8.10629
8.61995
9.16887
9.7556
10.383
11.0541
11.7721
12.5408
13.3643
14.2469
15.1933
16.2087
17.2984
18.4678
19.7229
21.0702
22.5165
24.0689
25.7349
27.5224
29.4391
31.4932
33.6928
36.046
38.5601
41.2441
44.1076
47.16
50.4112
53.8724
57.5534
61.4601
65.5989
69.9758
74.5969
79.4677
84.5933
89.9781
95.6257
101.539
107.72
114.17
120.889
127.877
135.131
142.649
150.427
158.461
166.745
175.273
184.038
193.031
202.244
211.666
221.287
231.095
241.078
251.224
261.517
271.944
282.49
293.138
303.872
314.675
325.53
336.418
347.322
358.221
369.097
379.929
390.699
401.386
411.971
422.432
432.75
442.905
452.876
462.646
472.193
481.499
490.546
499.314
507.786
515.945
523.775
531.26
538.385
545.135
551.497
557.46
563.013
568.147
572.852
577.12
580.948
584.328
587.256
589.732
591.752
593.315
594.42
595.066
595.254
595.007
594.289
593.108
591.485
589.423
586.93
584.011
580.674
576.925
572.773
568.229
563.304
558.01
552.36
546.367
540.047
533.415
526.488
519.283
511.816
504.104
496.165
488.016
479.679
471.17
462.511
453.721
444.818
435.822
426.749
417.615
408.438
399.231
390.011
380.791
371.589
362.418
353.296
344.237
335.259
326.38
317.617
308.991
300.52
292.227
284.134
276.268
268.648
261.301
254.254
247.528
241.131
235.086
229.399
224.093
219.081
214.456
21.215
7.78699
5.26937
4.4353
4.10031
3.98155
3.98018
4.05541
4.1859
4.35991
4.56955
4.81169
5.08434
5.38645
5.71771
6.07842
6.46948
6.89201
7.34764
7.83854
8.36727
8.9368
9.55048
10.2121
10.9258
11.6963
12.5283
13.4273
14.3989
15.4497
16.5863
17.8159
19.1462
20.5852
22.1415
23.8241
25.6422
27.6057
29.7244
32.0082
34.4673
37.1116
39.9512
42.9954
46.2535
49.7352
53.4502
57.4081
61.618
66.0889
70.8338
75.8559
81.1573
86.7402
92.6065
98.7575
105.194
111.915
118.919
126.204
133.768
141.604
149.709
158.076
166.699
175.568
184.677
194.015
203.574
213.341
223.308
233.461
243.79
254.281
264.922
275.698
286.597
297.603
308.701
319.875
331.111
342.391
353.7
365.019
376.332
387.621
398.867
410.053
421.159
432.168
443.059
453.815
464.416
474.843
485.078
495.103
504.898
514.445
523.728
532.727
541.426
549.807
557.855
565.554
572.89
579.849
586.417
592.58
598.327
603.65
608.54
612.99
616.991
620.538
623.631
626.264
628.434
630.146
631.396
632.185
632.516
632.386
631.815
630.758
629.269
627.337
624.97
622.173
618.954
615.319
611.276
606.829
601.989
596.763
591.164
585.202
578.889
572.237
565.263
557.98
550.405
542.552
534.438
526.078
517.489
508.688
499.694
490.525
481.201
471.741
462.165
452.489
442.732
432.911
423.04
413.136
403.213
393.287
383.376
373.495
363.662
353.893
344.208
334.628
325.172
315.861
306.718
297.769
289.037
280.541
272.316
264.392
256.804
249.583
242.76
236.329
230.294
224.677
219.385
214.563
21.2675
7.76613
5.24484
4.41176
4.08373
3.97604
3.9864
4.07418
4.21961
4.41178
4.64449
4.91425
5.21941
5.55954
5.93511
6.34735
6.79818
7.29007
7.82605
8.40979
9.04555
9.73819
10.4931
11.3164
12.2146
13.1953
14.2663
15.4361
16.7139
18.1096
19.6337
21.2974
23.1123
25.0903
27.2437
29.5848
32.1265
34.8814
37.8617
41.079
44.5444
48.2689
52.2625
56.5337
61.0898
65.938
71.0856
76.5375
82.2983
88.3736
94.7667
101.476
108.493
115.809
123.42
131.316
139.491
147.936
156.642
165.598
174.796
184.222
193.867
203.718
213.764
223.993
234.392
244.949
255.652
266.488
277.445
288.51
299.671
310.916
322.23
333.602
345.018
356.464
367.927
379.393
390.847
402.275
413.662
424.994