/*--------------------------------*- C++ -*----------------------------------*\
| =========                 |                                                 |
| \\      /  F ield         | OpenFOAM: The Open Source CFD Toolbox           |
|  \\    /   O peration     | Version:  2406                                  |
|   \\  /    A nd           | Website:  www.openfoam.com                      |
|    \\/     M anipulation  |                                                 |
\*---------------------------------------------------------------------------*/
FoamFile
{
    version     2.0;
    format      ascii;
    arch        "LSB;label=32;scalar=64";
    class       volScalarField;
    location    "200";
    object      k;
}
// * * * * * * * * * * * * * * * * * * * * * * * * * * * * * * * * * * * * * //

dimensions      [0 2 -2 0 0 0 0];

internalField   nonuniform List<scalar> 
12225
(
0.533136
0.814486
1.00524
1.1101
1.16212
1.1702
1.16391
1.14823
1.12424
1.0987
1.07416
1.05031
1.02974
1.00913
0.993875
0.975847
0.966902
0.949816
0.43108
0.485315
0.500595
0.507023
0.514625
0.524157
0.533353
0.545208
0.555654
0.568959
0.579833
0.594196
0.604931
0.619946
0.629786
0.645074
0.652802
0.667947
0.383052
0.416451
0.429024
0.427403
0.422947
0.415298
0.407735
0.400172
0.393453
0.387328
0.382145
0.37784
0.374313
0.371807
0.369761
0.368791
0.367848
0.368518
0.3746
0.379505
0.384621
0.385876
0.385323
0.383656
0.380899
0.376935
0.373133
0.368619
0.364508
0.360008
0.355986
0.351817
0.348097
0.344432
0.341079
0.337956
0.373637
0.372872
0.373071
0.372942
0.37237
0.37131
0.369961
0.3678
0.36575
0.363103
0.360681
0.357826
0.355264
0.352378
0.349824
0.347016
0.344573
0.341913
0.373776
0.371639
0.370198
0.36886
0.367748
0.366358
0.365121
0.363491
0.361989
0.360155
0.358474
0.356523
0.354754
0.352763
0.350981
0.349013
0.347272
0.345366
0.373843
0.371535
0.369571
0.367691
0.366108
0.364472
0.363044
0.361494
0.360082
0.358539
0.357113
0.35557
0.354143
0.352616
0.351209
0.34972
0.348353
0.346918
0.373847
0.371551
0.369463
0.367435
0.365618
0.363845
0.362245
0.360654
0.359192
0.357719
0.356347
0.354957
0.353653
0.352333
0.351093
0.34984
0.348658
0.347471
0.373839
0.371558
0.369437
0.367393
0.365496
0.363672
0.361981
0.360351
0.358828
0.357354
0.355966
0.354617
0.353341
0.352097
0.350914
0.349763
0.348661
0.34759
0.373834
0.371559
0.369422
0.367381
0.365459
0.363625
0.361898
0.360249
0.358693
0.357206
0.355798
0.35445
0.35317
0.351943
0.350774
0.349653
0.34858
0.34755
0.37383
0.371558
0.369412
0.367371
0.36544
0.363604
0.361864
0.360208
0.358638
0.357143
0.355722
0.354368
0.35308
0.351852
0.350681
0.349564
0.348495
0.347476
0.373828
0.371556
0.369405
0.367363
0.365428
0.363589
0.361844
0.360185
0.358609
0.357109
0.355682
0.354324
0.35303
0.351798
0.350623
0.349503
0.348432
0.347413
0.373827
0.371554
0.3694
0.367357
0.365418
0.363577
0.361828
0.360167
0.358587
0.357084
0.355653
0.354292
0.352994
0.351758
0.350579
0.349456
0.348382
0.34736
0.373826
0.371552
0.369396
0.36735
0.365409
0.363566
0.361814
0.36015
0.358567
0.357061
0.355627
0.354262
0.352961
0.351722
0.350539
0.349413
0.348336
0.34731
0.373826
0.371551
0.369392
0.367345
0.365401
0.363555
0.361801
0.360134
0.358548
0.35704
0.355603
0.354235
0.352931
0.351689
0.350503
0.349374
0.348294
0.347265
0.373825
0.371549
0.369389
0.36734
0.365395
0.363547
0.36179
0.360121
0.358533
0.357021
0.355582
0.354211
0.352905
0.35166
0.350472
0.349339
0.348257
0.347225
0.373825
0.371548
0.369388
0.367337
0.36539
0.36354
0.361782
0.36011
0.35852
0.357006
0.355565
0.354192
0.352883
0.351635
0.350445
0.34931
0.348226
0.347192
0.373825
0.371548
0.369386
0.367335
0.365386
0.363536
0.361776
0.360103
0.358511
0.356995
0.355552
0.354177
0.352867
0.351617
0.350425
0.349289
0.348203
0.347167
0.373825
0.371548
0.369386
0.367334
0.365385
0.363534
0.361774
0.3601
0.358507
0.35699
0.355546
0.35417
0.352858
0.351608
0.350415
0.349277
0.348191
0.347154
0.373825
0.371548
0.369387
0.367335
0.365387
0.363536
0.361776
0.360102
0.358509
0.356993
0.355548
0.354172
0.35286
0.35161
0.350417
0.349278
0.348192
0.347155
0.373825
0.371549
0.369388
0.367338
0.36539
0.36354
0.361781
0.360108
0.358515
0.357
0.355556
0.35418
0.352869
0.351619
0.350426
0.349288
0.348202
0.347166
0.373825
0.37155
0.369391
0.367341
0.365395
0.363546
0.361789
0.360117
0.358526
0.357011
0.355569
0.354194
0.352884
0.351635
0.350444
0.349307
0.348223
0.347187
0.373825
0.371552
0.369394
0.367347
0.365403
0.363556
0.361801
0.360134
0.358547
0.357037
0.355599
0.354229
0.352924
0.351679
0.350492
0.349358
0.348277
0.347243
0.373825
0.371555
0.369399
0.367361
0.365424
0.363594
0.361856
0.360212
0.358648
0.357162
0.355746
0.354396
0.353106
0.351872
0.350691
0.349558
0.348474
0.347431
0.373823
0.371558
0.369421
0.367458
0.365613
0.363901
0.362272
0.36074
0.359259
0.357845
0.356468
0.355142
0.353846
0.352592
0.351368
0.350181
0.349025
0.347902
0.373785
0.371651
0.369866
0.368436
0.367092
0.365861
0.364557
0.363254
0.361848
0.360435
0.358951
0.357473
0.355957
0.35446
0.352952
0.351472
0.35
0.34856
0.373847
0.373646
0.374449
0.375081
0.374807
0.374234
0.37287
0.371231
0.369197
0.367091
0.364791
0.362491
0.360114
0.35777
0.355424
0.353124
0.350872
0.348668
0.380334
0.391483
0.404537
0.405107
0.403634
0.400412
0.395744
0.391306
0.386531
0.382172
0.377763
0.373714
0.369822
0.366174
0.362855
0.359638
0.356898
0.354108
0.40624
0.439097
0.445762
0.445493
0.445673
0.446697
0.448537
0.452196
0.455503
0.460276
0.464473
0.469731
0.474567
0.479917
0.485212
0.490426
0.496127
0.501097
0.458615
0.616686
0.744203
0.838712
0.905347
0.94901
0.976754
0.991413
0.998885
0.998413
0.996393
0.991264
0.98446
0.976715
0.968613
0.960375
0.952256
0.944338
5.1236e-06
3.83167e-05
9.39953e-05
0.000170985
0.000249208
0.000327221
0.000465464
0.000714088
0.00109994
0.00160429
0.00212561
0.00265309
0.00310245
0.00350304
0.00377746
0.00398316
0.00401088
0.00399142
0.00394302
0.0037388
0.00343679
0.00291431
0.00221371
0.00140405
0.000668548
0.000210448
4.64561e-05
3.0657e-05
3.74923e-05
4.89885e-05
6.0143e-05
6.61343e-05
6.97266e-05
8.74711e-05
0.000183216
0.000400458
0.000667034
0.000847548
0.000880179
0.000853562
0.000775557
0.000772013
0.000895962
0.00124166
0.00138708
0.00167655
0.00208866
0.00437692
0.0160864
0.0325888
0.0481817
0.0620962
0.0745163
0.0856121
0.0956384
0.104749
0.113132
0.120903
0.128188
0.135078
0.141705
0.148139
0.154501
0.160451
0.166311
0.171888
0.177404
0.182729
0.188007
0.19316
0.198281
0.20332
0.208333
0.213295
0.218234
0.223139
0.228024
0.232884
0.237724
0.242542
0.24734
0.252114
0.256864
0.261587
0.26628
0.27094
0.275562
0.280142
0.284675
0.289158
0.293584
0.297949
0.302249
0.306482
0.310647
0.314749
0.318796
0.322805
0.326807
0.330768
0.334646
0.338467
0.342216
0.345893
0.349494
0.353012
0.356445
0.359786
0.363031
0.366175
0.369213
0.37214
0.37495
0.377639
0.3802
0.382631
0.384923
0.387074
0.389077
0.390929
0.392623
0.394157
0.395525
0.396723
0.39775
0.398605
0.399286
0.399795
0.400138
0.400334
0.400425
0.400048
0.398915
0.398503
0.396528
0.395321
0.393703
0.392073
0.390108
0.387899
0.385401
0.382625
0.379537
0.37654
0.37314
0.369616
0.365871
0.361952
0.357853
0.353595
0.349181
0.344625
0.339927
0.335061
0.330065
0.324965
0.31982
0.314636
0.309431
0.304223
0.299022
0.293846
0.288705
0.28361
0.278565
0.27359
0.268681
0.263848
0.259132
0.255362
0.253923
0.252787
0.251652
0.250457
0.249121
0.247536
0.245488
0.242414
0.238336
0.214191
2.50134e-05
1.48102e-05
4.5117e-05
0.000107078
0.000267827
0.000736114
0.00164706
0.00306221
0.0046824
0.00642991
0.00801055
0.00940049
0.010344
0.0110556
0.0112439
0.0111369
0.0109456
0.0104409
0.00968269
0.00861756
0.00739424
0.00592842
0.00452909
0.00323391
0.00208439
0.00120054
0.00062463
0.000312857
0.000161848
9.61932e-05
6.93171e-05
7.43385e-05
0.000178851
0.000320309
0.0011541
0.00250335
0.00395322
0.00468737
0.00461946
0.00434855
0.00390123
0.00410008
0.00500271
0.00722038
0.0121756
0.0197141
0.0301754
0.0445855
0.0636306
0.0825065
0.101178
0.118946
0.137164
0.15541
0.174293
0.193441
0.21293
0.232474
0.251977
0.270521
0.288473
0.305528
0.321927
0.337589
0.3527
0.36728
0.381452
0.39526
0.408779
0.422076
0.435205
0.448208
0.461124
0.473984
0.486812
0.499634
0.512464
0.525317
0.538203
0.551132
0.56411
0.577139
0.590222
0.60336
0.61655
0.629789
0.643071
0.656391
0.669739
0.683104
0.696473
0.709832
0.72316
0.736439
0.749647
0.76276
0.775752
0.788601
0.801298
0.813939
0.826584
0.839206
0.851807
0.86438
0.876912
0.889398
0.901826
0.914186
0.926468
0.938661
0.950753
0.962731
0.974584
0.986297
0.997858
1.00925
1.02047
1.03148
1.04228
1.05286
1.06319
1.07325
1.08304
1.09252
1.10169
1.11052
1.11899
1.12708
1.13479
1.14208
1.14892
1.15528
1.16114
1.16653
1.17133
1.17569
1.17949
1.18278
1.18559
1.18776
1.18897
1.18941
1.18858
1.18814
1.1867
1.18466
1.18197
1.17866
1.17475
1.17025
1.1652
1.15961
1.15352
1.14694
1.13988
1.13228
1.12436
1.11614
1.10766
1.09898
1.09014
1.08116
1.0721
1.06297
1.05381
1.04465
1.03551
1.02638
1.01725
1.00816
0.999085
0.989884
0.980543
0.971083
0.961407
0.951391
0.940617
0.928988
0.915151
0.866508
3.18467e-05
1.27103e-05
5.3215e-05
0.000244259
0.000732403
0.00205574
0.00410215
0.00660773
0.00911509
0.0115594
0.0136157
0.0152698
0.0164068
0.0172267
0.0173763
0.0172707
0.0169348
0.0163233
0.0155106
0.014529
0.0133184
0.011968
0.0102535
0.00835278
0.0063256
0.0044687
0.00275738
0.0016294
0.000953319
0.00059544
0.00039264
0.000395871
0.000599412
0.00122143
0.00364413
0.00785833
0.0105341
0.0120924
0.0134651
0.0137928
0.0141667
0.0204497
0.0295623
0.041856
0.0604474
0.0810585
0.105559
0.130522
0.157895
0.186617
0.218655
0.252645
0.28843
0.3246
0.36048
0.395027
0.427774
0.458327
0.486551
0.51319
0.538217
0.561888
0.584368
0.605857
0.626521
0.646497
0.665923
0.684908
0.703548
0.721918
0.740082
0.758091
0.775989
0.793813
0.811589
0.829343
0.847092
0.864852
0.882634
0.900447
0.918295
0.936184
0.954115
0.972087
0.990101
1.00815
1.02624
1.04435
1.06249
1.08065
1.09882
1.117
1.13519
1.15336
1.17154
1.1897
1.20786
1.22602
1.24418
1.26234
1.28045
1.29852
1.31653
1.33447
1.35232
1.37007
1.38771
1.40523
1.4226
1.43983
1.45688
1.47374
1.49041
1.50685
1.52305
1.539
1.55467
1.57005
1.5851
1.59982
1.61418
1.62815
1.64171
1.65484
1.6675
1.67968
1.69135
1.70247
1.71302
1.72297
1.73229
1.74094
1.7489
1.75614
1.76262
1.76835
1.77328
1.77739
1.78068
1.78304
1.78423
1.7848
1.78462
1.78338
1.78109
1.77781
1.77363
1.76855
1.76261
1.75584
1.74828
1.73996
1.73095
1.72127
1.71097
1.70011
1.68876
1.67697
1.66482
1.65236
1.63964
1.62672
1.61364
1.60045
1.5872
1.57391
1.56064
1.54739
1.53414
1.52088
1.50755
1.49411
1.48054
1.46682
1.45288
1.43865
1.42381
1.4085
1.39154
1.34667
3.60223e-05
3.39844e-05
0.00022126
0.000876788
0.00253036
0.0058259
0.00973056
0.0137924
0.0174536
0.0206915
0.0228039
0.0241645
0.0243677
0.0241367
0.0237225
0.0229897
0.0221523
0.0212299
0.0202072
0.0190861
0.0178381
0.0164594
0.0148801
0.0130906
0.0110827
0.00894736
0.00683885
0.00495452
0.00325069
0.00223286
0.00151777
0.00156836
0.0025525
0.00679051
0.0160767
0.025198
0.0275797
0.0271434
0.0323588
0.0417206
0.055488
0.0722983
0.0919491
0.11567
0.141605
0.170997
0.204417
0.240657
0.27987
0.320599
0.362579
0.404527
0.446003
0.48632
0.525191
0.562354
0.597731
0.631329
0.663258
0.693698
0.722754
0.750598
0.777362
0.803201
0.828253
0.852644
0.876487
0.89988
0.922909
0.945646
0.968153
0.990485
1.01269
1.03479
1.05684
1.07885
1.10084
1.12284
1.14485
1.16689
1.18896
1.21107
1.23322
1.25541
1.27764
1.29992
1.32223
1.34457
1.36694
1.38934
1.41177
1.4342
1.45666
1.47912
1.50158
1.52404
1.5465
1.56893
1.59133
1.61368
1.63596
1.65817
1.68027
1.70226
1.72411
1.74582
1.76737
1.78873
1.8099
1.83086
1.85158
1.87205
1.89225
1.91216
1.93176
1.95102
1.96992
1.98845
2.00657
2.02427
2.04151
2.05827
2.07452
2.09023
2.10537
2.11991
2.13382
2.14707
2.15963
2.17145
2.1825
2.19275
2.20215
2.21067
2.21829
2.22499
2.23072
2.23545
2.23914
2.24173
2.24306
2.24363
2.24335
2.24168
2.23882
2.23483
2.22974
2.22359
2.21639
2.20819
2.19904
2.18897
2.17804
2.1663
2.15382
2.14064
2.12685
2.11251
2.09769
2.08246
2.06687
2.051
2.03489
2.0186
2.00217
1.98565
1.96908
1.95247
1.93582
1.91914
1.90237
1.88549
1.86849
1.85134
1.83403
1.81654
1.79865
1.78062
1.762
1.72106
3.96064e-05
0.000122373
0.000765628
0.00280548
0.00743028
0.0137473
0.0197461
0.0248293
0.0279508
0.0288947
0.0287946
0.028501
0.0276932
0.0267479
0.0257795
0.0248325
0.0239277
0.0230273
0.0221112
0.0211538
0.0201222
0.0189774
0.01767
0.0161686
0.0144283
0.0125156
0.0103103
0.00800841
0.00661598
0.00481958
0.00438267
0.00618987
0.0158719
0.0369273
0.0520091
0.0566696
0.060946
0.0673958
0.0795043
0.0943081
0.112808
0.136545
0.163953
0.195896
0.231274
0.270533
0.311935
0.354872
0.398537
0.442295
0.485839
0.528738
0.570871
0.612037
0.652113
0.690998
0.728636
0.765007
0.800141
0.834084
0.866889
0.89865
0.929459
0.959422
0.988639
1.01721
1.04523
1.07278
1.09994
1.12678
1.15337
1.17975
1.20598
1.2321
1.25814
1.28412
1.31008
1.33603
1.36199
1.38797
1.41399
1.44004
1.46613
1.49226
1.51843
1.54465
1.5709
1.5972
1.62352
1.64986
1.67623
1.70261
1.72899
1.75538
1.78174
1.80809
1.83439
1.86064
1.88682
1.91291
1.93891
1.96478
1.99051
2.01608
2.04148
2.06668
2.09166
2.11641
2.14091
2.16513
2.18905
2.21265
2.23592
2.25883
2.28135
2.30346
2.32514
2.34635
2.36709
2.38731
2.40699
2.4261
2.4446
2.46247
2.47968
2.49619
2.51197
2.52698
2.54119
2.55456
2.56705
2.57862
2.58923
2.59886
2.60747
2.61503
2.6215
2.62684
2.63102
2.63401
2.63566
2.63631
2.63593
2.63409
2.63093
2.6265
2.62081
2.61391
2.60582
2.59658
2.58624
2.57484
2.56243
2.54908
2.53485
2.5198
2.50401
2.48754
2.47048
2.45289
2.43485
2.41641
2.39763
2.37859
2.35931
2.33985
2.32024
2.30052
2.2807
2.26078
2.24075
2.22059
2.20031
2.1799
2.15938
2.13879
2.11806
2.09747
2.07681
2.03815
2.73581e-05
0.000419873
0.00243892
0.00805214
0.0176734
0.0260416
0.0313547
0.0333682
0.033563
0.0328485
0.0314551
0.0299285
0.028512
0.0272379
0.0261003
0.0250882
0.0241839
0.0233604
0.0225878
0.0218195
0.0210156
0.0201248
0.0190905
0.0178726
0.0164482
0.0148311
0.0136662
0.0112539
0.00821692
0.00812395
0.0141874
0.0348389
0.0686015
0.085543
0.0900943
0.0916515
0.0967344
0.108027
0.125403
0.147507
0.174672
0.206792
0.242823
0.28218
0.323711
0.366727
0.410258
0.45406
0.497813
0.541347
0.584609
0.627525
0.670047
0.712083
0.753509
0.79422
0.834131
0.873169
0.911301
0.948514
0.984817
1.02025
1.05485
1.08869
1.12184
1.15437
1.18637
1.21789
1.24901
1.2798
1.31031
1.34061
1.37073
1.40072
1.43062
1.46045
1.49025
1.52004
1.54982
1.57963
1.60947
1.63934
1.66926
1.69922
1.72922
1.75927
1.78935
1.81947
1.84962
1.87978
1.90996
1.94014
1.97032
2.00046
2.03058
2.06064
2.09062
2.12053
2.15032
2.18
2.20953
2.2389
2.2681
2.29708
2.32584
2.35435
2.38259
2.41054
2.43816
2.46545
2.49238
2.51892
2.54505
2.57074
2.59597
2.62072
2.64495
2.66863
2.69175
2.71427
2.73616
2.75739
2.77793
2.79775
2.8168
2.83507
2.85251
2.86909
2.88477
2.89952
2.91329
2.92605
2.93775
2.94837
2.95787
2.96623
2.97339
2.97933
2.98401
2.98742
2.98941
2.99019
2.9898
2.9879
2.98456
2.97981
2.97369
2.96621
2.95742
2.94734
2.93602
2.92351
2.90985
2.89512
2.87937
2.86267
2.8451
2.82673
2.80763
2.78788
2.76756
2.74672
2.72543
2.70375
2.68172
2.65941
2.63685
2.61407
2.5911
2.56796
2.54465
2.52118
2.49757
2.47384
2.45004
2.42627
2.40252
2.37916
2.35588
2.31827
0.000303523
0.00150777
0.00689065
0.0195874
0.0306947
0.0360814
0.0374961
0.037079
0.0354576
0.0334755
0.0315796
0.0298288
0.0282426
0.0268821
0.0257358
0.0247767
0.0239722
0.023273
0.0226351
0.0220383
0.0214319
0.0207597
0.0199834
0.0190359
0.0178246
0.016351
0.0148992
0.0151181
0.0183032
0.0303018
0.0605546
0.0944528
0.10845
0.112223
0.112681
0.118464
0.131997
0.151695
0.177169
0.207598
0.242724
0.281025
0.321546
0.363425
0.406034
0.448984
0.492038
0.535128
0.57823
0.62137
0.664516
0.707664
0.75078
0.793789
0.836587
0.879051
0.92108
0.96258
1.00347
1.04371
1.08326
1.12211
1.16027
1.19778
1.23468
1.27101
1.30683
1.3422
1.37718
1.41182
1.44619
1.48032
1.51428
1.54809
1.5818
1.61544
1.64904
1.68263
1.71621
1.74981
1.78344
1.81711
1.85082
1.88458
1.91838
1.95222
1.98611
2.02002
2.05396
2.08791
2.12186
2.1558
2.18972
2.22359
2.2574
2.29113
2.32476
2.35827
2.39164
2.42485
2.45788
2.49071
2.5233
2.55565
2.58771
2.61947
2.6509
2.68197
2.71265
2.74293
2.77278
2.80216
2.83105
2.85942
2.88726
2.91451
2.94117
2.9672
2.99257
3.01725
3.0412
3.06441
3.08683
3.10844
3.12919
3.14906
3.16801
3.18601
3.20302
3.219
3.23391
3.24772
3.26039
3.2719
3.28219
3.29125
3.29903
3.3055
3.31063
3.3144
3.31671
3.31765
3.31727
3.31532
3.31183
3.30683
3.30034
3.29238
3.28298
3.27217
3.25999
3.24649
3.23172
3.21573
3.1986
3.18038
3.16116
3.141
3.11997
3.09817
3.07564
3.05247
3.02871
3.00443
2.97968
2.95452
2.92899
2.90313
2.87697
2.85054
2.82387
2.79699
2.76992
2.74273
2.71549
2.68834
2.66133
2.63485
2.60852
2.57059
0.00181931
0.00442141
0.0166387
0.0325176
0.0398148
0.0416703
0.0410812
0.0391355
0.0364094
0.0336966
0.0312491
0.0291824
0.027516
0.026199
0.0251613
0.0243349
0.0236581
0.0230823
0.0225594
0.0220302
0.0214614
0.0207694
0.019775
0.0186649
0.0176757
0.0165777
0.0170099
0.0241554
0.0450197
0.0819889
0.110668
0.122469
0.125897
0.127109
0.135797
0.151257
0.173665
0.201687
0.234571
0.270925
0.309811
0.350063
0.391171
0.432734
0.474576
0.516616
0.558789
0.601122
0.643684
0.686536
0.729713
0.773221
0.817023
0.861036
0.905161
0.949286
0.993293
1.03707
1.08052
1.12357
1.16614
1.2082
1.24974
1.29075
1.33123
1.37123
1.41078
1.44991
1.48868
1.52712
1.5653
1.60325
1.64102
1.67865
1.71617
1.75362
1.79103
1.82842
1.86582
1.90323
1.94067
1.97815
2.01567
2.05324
2.09085
2.12851
2.1662
2.20393
2.24166
2.27941
2.31714
2.35485
2.39251
2.43011
2.46762
2.50503
2.54231
2.57943
2.61638
2.65313
2.68965
2.72592
2.76192
2.79761
2.83295
2.86794
2.90252
2.93669
2.97039
3.00361
3.03632
3.06848
3.10006
3.13104
3.16138
3.19106
3.22004
3.2483
3.2758
3.30251
3.3284
3.35344
3.3776
3.40085
3.42314
3.44445
3.46475
3.484
3.50216
3.51921
3.53511
3.54981
3.56329
3.57553
3.58647
3.5961
3.60437
3.61126
3.61673
3.62078
3.62331
3.62438
3.62397
3.62196
3.6183
3.61304
3.60619
3.59777
3.58781
3.57633
3.56336
3.54896
3.53315
3.51601
3.49758
3.47793
3.45714
3.43527
3.4124
3.38859
3.36392
3.33845
3.31226
3.28539
3.25792
3.22989
3.20135
3.17236
3.14294
3.11315
3.08301
3.05259
3.02193
2.99111
2.96024
2.92948
2.89893
2.86897
2.83921
2.79988
0.00477854
0.00980851
0.0293632
0.0424414
0.0464683
0.046073
0.0436777
0.0401074
0.0365046
0.0332607
0.0305957
0.0285221
0.0269423
0.0257391
0.0248062
0.0240679
0.0234714
0.0229611
0.022496
0.0220411
0.0215824
0.0212212
0.021178
0.0214132
0.0231335
0.028289
0.0412105
0.0668544
0.0981399
0.119916
0.129326
0.13323
0.137545
0.148395
0.166691
0.191134
0.221195
0.255055
0.291699
0.330013
0.36936
0.409247
0.449523
0.490096
0.530835
0.571801
0.613076
0.654758
0.696935
0.739679
0.783031
0.826984
0.871497
0.9165
0.961901
1.00759
1.05344
1.09934
1.14517
1.19084
1.23625
1.28136
1.3261
1.37045
1.41441
1.45797
1.50116
1.54399
1.58649
1.62872
1.67069
1.71245
1.75405
1.79551
1.83687
1.87816
1.91941
1.96064
2.00188
2.04313
2.08442
2.12574
2.16712
2.20853
2.24999
2.29149
2.33303
2.37458
2.41615
2.4577
2.49924
2.54073
2.58216
2.6235
2.66474
2.70583
2.74677
2.78751
2.82804
2.86833
2.90834
2.94805
2.98743
3.02644
3.06505
3.10322
3.14093
3.17813
3.2148
3.2509
3.28639
3.32125
3.35544
3.38893
3.42168
3.45366
3.48484
3.5152
3.54469
3.57328
3.60095
3.62766
3.65338
3.67808
3.70172
3.72428
3.74572
3.76602
3.78513
3.80304
3.8197
3.83509
3.84918
3.86194
3.87333
3.88333
3.89191
3.89905
3.90471
3.90887
3.91149
3.91257
3.91209
3.90993
3.90603
3.90046
3.89323
3.88435
3.87384
3.86172
3.84801
3.83275
3.81598
3.79774
3.7781
3.7571
3.73482
3.71131
3.68665
3.66091
3.63415
3.60644
3.57785
3.54843
3.51824
3.48734
3.45578
3.42362
3.3909
3.35768
3.32401
3.28994
3.25557
3.22099
3.18631
3.15173
3.11738
3.08363
3.0501
3.00854
0.0079273
0.0176589
0.0412021
0.0508792
0.0522989
0.0499359
0.0456621
0.041003
0.0366951
0.0331186
0.0303565
0.0282828
0.0267494
0.0256221
0.024791
0.0241413
0.0235974
0.0231169
0.022733
0.0224761
0.022334
0.0228748
0.0246412
0.0288354
0.0386415
0.0582089
0.0837365
0.107503
0.123641
0.131868
0.136629
0.144644
0.158091
0.178596
0.205039
0.235862
0.269967
0.306011
0.343329
0.381376
0.419905
0.458729
0.497767
0.537045
0.576635
0.616649
0.657206
0.698414
0.740368
0.783135
0.826736
0.871172
0.916406
0.962377
1.009
1.05616
1.10375
1.15163
1.1997
1.24784
1.29595
1.34394
1.39176
1.43934
1.48667
1.53371
1.58047
1.62695
1.67317
1.71915
1.76492
1.81051
1.85594
1.90126
1.94649
1.99166
2.03679
2.08191
2.12703
2.17217
2.21734
2.26256
2.30781
2.35311
2.39844
2.44381
2.48921
2.53461
2.58002
2.6254
2.67075
2.71603
2.76123
2.80631
2.85126
2.89603
2.94061
2.98496
3.02904
3.07284
3.11631
3.15941
3.20212
3.2444
3.2862
3.3275
3.36825
3.40841
3.44795
3.48683
3.52501
3.56245
3.59912
3.63498
3.66999
3.70412
3.73734
3.76962
3.80091
3.83119
3.86043
3.88859
3.91565
3.94157
3.96633
3.98989
4.01223
4.03332
4.05312
4.07162
4.08879
4.1046
4.11903
4.13205
4.14365
4.15378
4.16243
4.16958
4.17521
4.17929
4.18181
4.18272
4.18205
4.17962
4.17535
4.16938
4.1617
4.15232
4.14124
4.12847
4.11403
4.09795
4.08025
4.06098
4.04017
4.01789
3.99419
3.96912
3.94275
3.91515
3.88637
3.85647
3.82553
3.7936
3.76074
3.72701
3.69246
3.65714
3.62112
3.58445
3.5472
3.50944
3.47128
3.43282
3.39422
3.35566
3.3173
3.27953
3.24196
3.1976
0.0102103
0.0276277
0.0510847
0.0584368
0.0580772
0.0538891
0.0482158
0.0425014
0.0375566
0.0336656
0.0307898
0.0287465
0.0273095
0.0263293
0.0256544
0.0252147
0.0250432
0.025075
0.0255275
0.0266981
0.0290727
0.0336613
0.0422769
0.0578139
0.076825
0.0957636
0.112308
0.124016
0.131679
0.139089
0.14951
0.166249
0.18848
0.21598
0.247047
0.280524
0.31558
0.351556
0.388157
0.425081
0.462268
0.49968
0.537382
0.57548
0.614095
0.653353
0.693379
0.734283
0.776149
0.819028
0.862948
0.90791
0.953884
1.00081
1.04862
1.0972
1.14644
1.19622
1.24641
1.29691
1.34759
1.39837
1.44915
1.49987
1.55047
1.60093
1.65121
1.70131
1.75122
1.80095
1.85052
1.89995
1.94925
1.99845
2.04758
2.09665
2.1457
2.19474
2.24378
2.29284
2.34192
2.39105
2.4402
2.48939
2.53862
2.58786
2.63712
2.68637
2.7356
2.78479
2.83391
2.88295
2.93187
2.98065
3.02925
3.07765
3.1258
3.17367
3.22123
3.26844
3.31527
3.36167
3.4076
3.45302
3.4979
3.54218
3.58583
3.6288
3.67105
3.71254
3.75323
3.79306
3.83202
3.87004
3.9071
3.94316
3.97819
4.01213
4.04498
4.07668
4.10722
4.13656
4.16467
4.19152
4.21709
4.24134
4.26426
4.28582
4.306
4.32477
4.34212
4.35803
4.37248
4.38546
4.39694
4.4069
4.41533
4.42222
4.42755
4.43132
4.43349
4.43404
4.43302
4.43009
4.42531
4.41882
4.41061
4.40066
4.38896
4.37552
4.36035
4.34346
4.32487
4.30461
4.28272
4.25923
4.23419
4.20765
4.17966
4.15029
4.11959
4.08761
4.05441
4.02006
3.98461
3.94811
3.91062
3.8722
3.83291
3.79282
3.752
3.71055
3.66857
3.62619
3.58358
3.54093
3.49842
3.45645
3.41467
3.36716
0.0114331
0.0376705
0.0609249
0.0666325
0.0647653
0.0588878
0.051847
0.0453385
0.0400722
0.0361105
0.0332692
0.0313091
0.0300104
0.0293627
0.0291033
0.0292259
0.0300154
0.0316231
0.0346721
0.0400563
0.0487825
0.0604564
0.0745792
0.0885146
0.102035
0.113338
0.122653
0.131119
0.141275
0.154583
0.173884
0.197671
0.225405
0.256057
0.288531
0.322207
0.356668
0.391533
0.426711
0.462143
0.497854
0.533922
0.570462
0.607601
0.645468
0.684191
0.723892
0.764664
0.806582
0.849697
0.894036
0.939601
0.986367
1.03428
1.08328
1.13326
1.18412
1.23573
1.28799
1.34077
1.39395
1.44742
1.50109
1.55487
1.60869
1.6625
1.71625
1.76993
1.8235
1.87697
1.93034
1.98361
2.03679
2.0899
2.14295
2.19596
2.24895
2.30193
2.3549
2.40789
2.4609
2.51392
2.56696
2.62003
2.6731
2.72617
2.77923
2.83226
2.88524
2.93815
2.99096
3.04364
3.09617
3.14852
3.20064
3.2525
3.30407
3.35531
3.40617
3.45662
3.50661
3.55611
3.60505
3.65341
3.70113
3.74816
3.79447
3.84
3.8847
3.92853
3.97144
4.01339
4.05433
4.09422
4.13302
4.17069
4.20718
4.24247
4.27652
4.3093
4.34078
4.37092
4.39971
4.42712
4.45311
4.47768
4.50079
4.52244
4.54259
4.56125
4.57839
4.59402
4.60812
4.62068
4.63168
4.64112
4.649
4.65531
4.66005
4.66321
4.66479
4.66475
4.66313
4.65947
4.65403
4.64689
4.63803
4.62742
4.61506
4.60092
4.58501
4.56733
4.54789
4.52671
4.50379
4.47919
4.45292
4.42503
4.39555
4.36455
4.33206
4.29813
4.26283
4.22619
4.18827
4.14914
4.10883
4.06741
4.02496
3.98153
3.93721
3.89211
3.84634
3.80005
3.75341
3.70664
3.6599
3.61365
3.56753
3.51667
0.0123009
0.0467503
0.0709982
0.0761041
0.072878
0.0654546
0.0573853
0.0505687
0.0454763
0.041884
0.0394489
0.0381551
0.037676
0.0377459
0.038984
0.0412969
0.0450021
0.0502746
0.0572269
0.0655789
0.0747716
0.0847681
0.0947509
0.10412
0.113108
0.122124
0.132447
0.144968
0.161583
0.182574
0.207282
0.234839
0.264552
0.295723
0.327824
0.360464
0.393488
0.426825
0.460461
0.494448
0.528879
0.563867
0.599537
0.636016
0.673433
0.711907
0.751536
0.79241
0.834593
0.878134
0.923057
0.969366
1.01704
1.06604
1.11629
1.16771
1.2202
1.27365
1.32794
1.38295
1.43856
1.49466
1.55114
1.60791
1.66489
1.722
1.77919
1.83642
1.89364
1.95084
2.00799
2.0651
2.12216
2.17917
2.23614
2.29307
2.34998
2.40687
2.46375
2.52061
2.57748
2.63433
2.69118
2.74801
2.80482
2.8616
2.91832
2.97497
3.03153
3.08797
3.14427
3.20039
3.25631
3.31198
3.36737
3.42244
3.47715
3.53147
3.58533
3.6387
3.69154
3.7438
3.79541
3.84635
3.89655
3.94597
3.99456
4.04225
4.08901
4.13478
4.17951
4.22315
4.26566
4.30698
4.34708
4.38591
4.42343
4.45961
4.49441
4.52779
4.55974
4.59023
4.61922
4.64671
4.67266
4.69706
4.7199
4.74116
4.76083
4.77892
4.79541
4.81031
4.82362
4.83535
4.84548
4.85402
4.86097
4.86636
4.87017
4.87242
4.87314
4.87233
4.8697
4.86509
4.85885
4.85092
4.8413
4.82996
4.81687
4.80202
4.78538
4.76694
4.74671
4.72468
4.70085
4.67526
4.6479
4.61881
4.58802
4.55556
4.52147
4.48579
4.44856
4.40983
4.36965
4.32805
4.28511
4.24087
4.19541
4.14879
4.10111
4.05247
4.00302
3.95289
3.90227
3.85141
3.80046
3.74991
3.69942
3.64515
0.0127422
0.0573511
0.0824364
0.0871138
0.0826716
0.0739089
0.0652382
0.0587216
0.0544755
0.0520026
0.0509535
0.050672
0.0514807
0.0532278
0.0559578
0.0596282
0.0642439
0.0697249
0.0759434
0.082708
0.0898737
0.0974421
0.105497
0.11445
0.124898
0.137419
0.15285
0.171814
0.193869
0.218779
0.245803
0.274357
0.304012
0.334328
0.365109
0.396267
0.427783
0.459682
0.492034
0.524936
0.5585
0.592842
0.628083
0.664341
0.701729
0.740347
0.780284
0.821608
0.864375
0.908626
0.954383
1.00165
1.05041
1.10062
1.15223
1.20517
1.25934
1.31465
1.37098
1.42822
1.48625
1.54495
1.60421
1.66394
1.72403
1.7844
1.84497
1.90569
1.9665
2.02736
2.08825
2.14913
2.21
2.27083
2.33164
2.3924
2.45313
2.51382
2.57446
2.63507
2.69563
2.75614
2.8166
2.87699
2.93731
2.99754
3.05765
3.11763
3.17746
3.23711
3.29655
3.35575
3.41467
3.47327
3.53152
3.58937
3.64678
3.70371
3.7601
3.81592
3.87111
3.92561
3.97939
4.03238
4.08453
4.13578
4.18609
4.23539
4.28364
4.33077
4.37674
4.42149
4.46497
4.50714
4.54795
4.58734
4.6253
4.66177
4.69672
4.73012
4.76195
4.79218
4.8208
4.84778
4.87311
4.89678
4.91878
4.93911
4.95777
4.97475
4.99008
5.00377
5.01583
5.02626
5.03508
5.0423
5.04794
5.05205
5.05461
5.05563
5.05526
5.05327
5.04932
5.04368
5.03646
5.02763
5.01716
5.00502
4.99118
4.9756
4.95826
4.93914
4.9182
4.89544
4.87086
4.84443
4.81618
4.7861
4.75421
4.72053
4.68508
4.64789
4.60899
4.56842
4.52622
4.48243
4.43709
4.39026
4.34202
4.29243
4.24159
4.18961
4.13663
4.08282
4.02835
3.9735
3.91842
3.86363
3.80881
3.75124
0.0129438
0.067783
0.0945668
0.0993243
0.0938789
0.0838626
0.0746561
0.0683798
0.0649483
0.0633076
0.0628141
0.0631989
0.0646161
0.0667721
0.069662
0.0732295
0.0774714
0.0823917
0.0880304
0.0944997
0.102007
0.110869
0.121406
0.133989
0.148918
0.166606
0.186817
0.209501
0.234118
0.260309
0.287614
0.315659
0.344272
0.373344
0.402846
0.432793
0.463243
0.49428
0.525999
0.558505
0.591897
0.626269
0.661726
0.698364
0.736277
0.775546
0.816243
0.858431
0.902161
0.947467
0.994371
1.04288
1.09297
1.14462
1.19778
1.25239
1.30837
1.36563
1.42407
1.48357
1.54401
1.60529
1.66729
1.72989
1.79299
1.8565
1.92033
1.98441
2.04866
2.11303
2.17748
2.24195
2.30644
2.3709
2.43532
2.49968
2.56398
2.6282
2.69234
2.75637
2.82031
2.88413
2.94783
3.01138
3.07479
3.13802
3.20107
3.2639
3.32649
3.38881
3.45083
3.51253
3.57385
3.63477
3.69524
3.75521
3.81466
3.87352
3.93174
3.98929
4.0461
4.10213
4.15731
4.2116
4.26494
4.31726
4.36852
4.41865
4.46761
4.51532
4.56175
4.60683
4.6505
4.69273
4.73347
4.77267
4.81029
4.84629
4.88064
4.91331
4.94429
4.97356
5.00108
5.02687
5.0509
5.07317
5.0937
5.11247
5.1295
5.14481
5.15842
5.17036
5.18067
5.18934
5.1964
5.20189
5.20582
5.20831
5.20932
5.20874
5.20704
5.20338
5.19809
5.1913
5.18299
5.17316
5.16179
5.14883
5.13425
5.11801
5.10005
5.08035
5.05886
5.03554
5.01039
4.98336
4.95445
4.92364
4.89093
4.85631
4.81981
4.78142
4.74117
4.69908
4.65518
4.6095
4.56208
4.51298
4.46225
4.40998
4.35624
4.30117
4.24492
4.18762
4.1295
4.07084
4.0118
3.95299
3.894
3.83336
0.0130147
0.0783093
0.107277
0.112411
0.106206
0.0949249
0.0848738
0.0782787
0.074748
0.0730851
0.0726231
0.0732403
0.0748281
0.0773248
0.0807248
0.0850699
0.0904099
0.0967599
0.104316
0.113313
0.124081
0.137011
0.151919
0.169024
0.188276
0.209552
0.232551
0.257027
0.282575
0.308936
0.335932
0.36347
0.391515
0.420069
0.449163
0.478865
0.509257
0.540428
0.572469
0.605468
0.639512
0.674691
0.711093
0.748801
0.787887
0.82842
0.870457
0.914053
0.959252
1.00608
1.05457
1.10471
1.1565
1.20991
1.26491
1.32143
1.37941
1.43876
1.49938
1.56117
1.62402
1.68782
1.75245
1.81779
1.88375
1.95021
2.01707
2.08426
2.15168
2.21927
2.28696
2.3547
2.42245
2.49015
2.5578
2.62534
2.69276
2.76004
2.82717
2.89411
2.96087
3.02741
3.09373
3.15982
3.22564
3.29118
3.35643
3.42134
3.48591
3.55009
3.61386
3.67718
3.74002
3.80234
3.86409
3.92525
3.98575
4.04555
4.10461
4.16287
4.22028
4.27679
4.33234
4.38687
4.44033
4.49266
4.54381
4.5937
4.6423
4.68954
4.73536
4.77971
4.82253
4.86379
4.90343
4.94141
4.97769
5.01224
5.04502
5.076
5.1052
5.13259
5.15814
5.18186
5.20376
5.22383
5.24209
5.25856
5.27325
5.2862
5.29745
5.30704
5.31505
5.32143
5.32623
5.32956
5.33135
5.3319
5.3311
5.32866
5.32488
5.31959
5.31289
5.30479
5.29531
5.28443