/*--------------------------------*- C++ -*----------------------------------*\
| =========                 |                                                 |
| \\      /  F ield         | OpenFOAM: The Open Source CFD Toolbox           |
|  \\    /   O peration     | Version:  2406                                  |
|   \\  /    A nd           | Website:  www.openfoam.com                      |
|    \\/     M anipulation  |                                                 |
\*---------------------------------------------------------------------------*/
FoamFile
{
    version     2.0;
    format      ascii;
    arch        "LSB;label=32;scalar=64";
    class       volScalarField;
    location    "200";
    object      nut;
}
// * * * * * * * * * * * * * * * * * * * * * * * * * * * * * * * * * * * * * //

dimensions      [0 2 -1 0 0 0 0];

internalField   nonuniform List<scalar> 
12225
(
1.42141e-05
2.01966e-05
2.38588e-05
2.57608e-05
2.66779e-05
2.6819e-05
2.67093e-05
2.64347e-05
2.60117e-05
2.55575e-05
2.51172e-05
2.46854e-05
2.43098e-05
2.39307e-05
2.36483e-05
2.33125e-05
2.31443e-05
2.28236e-05
0.000183668
9.60972e-05
7.24553e-05
6.07777e-05
5.40844e-05
4.99288e-05
4.72885e-05
4.56498e-05
4.45551e-05
4.39755e-05
4.35804e-05
4.35419e-05
4.35147e-05
4.37894e-05
4.39668e-05
4.44507e-05
4.47673e-05
4.53651e-05
0.00064857
0.000376692
0.000272936
0.000214421
0.000179918
0.000153983
0.000136994
0.000122866
0.000113361
0.000104654
9.8892e-05
9.31132e-05
8.94993e-05
8.54849e-05
8.3225e-05
8.03797e-05
7.89881e-05
7.70461e-05
0.000843614
0.000690318
0.000566562
0.000470971
0.000409317
0.000358132
0.000324003
0.000292153
0.000271246
0.000249806
0.000236067
0.000220674
0.000211221
0.00019967
0.000192976
0.000184169
0.000178983
0.000172003
0.000861925
0.000813808
0.000767365
0.000696321
0.000641459
0.000585928
0.00054638
0.000505369
0.000477432
0.000446925
0.000426887
0.000403512
0.000388897
0.000370457
0.000359684
0.000344861
0.00033664
0.000323664
0.000854396
0.000844194
0.000832915
0.000805512
0.000778547
0.000742742
0.000714681
0.000681351
0.000656973
0.000628408
0.0006085
0.000584467
0.000568628
0.000548335
0.000535964
0.000518685
0.000509038
0.000493296
0.000852032
0.00085072
0.000846663
0.000838963
0.000830575
0.000815456
0.000802162
0.000783457
0.00076879
0.000749842
0.00073577
0.000717864
0.000705324
0.00068888
0.000678228
0.00066327
0.000654469
0.000640198
0.000851531
0.00085065
0.00084947
0.000847197
0.000844329
0.000839483
0.000834571
0.000827003
0.000820488
0.000811108
0.00080361
0.000793533
0.00078597
0.000775804
0.000768686
0.00075878
0.000752333
0.00074234
0.00085149
0.000850414
0.000849601
0.0008484
0.000847354
0.000845528
0.000843809
0.000841064
0.000838408
0.00083489
0.000831142
0.000827114
0.000823149
0.000818426
0.000814395
0.000809379
0.000805347
0.000799895
0.000851489
0.000850377
0.000849516
0.000848485
0.00084769
0.000846625
0.000845736
0.000844499
0.000843364
0.000841858
0.000840429
0.000838576
0.000836937
0.000834799
0.000832974
0.000830649
0.000828692
0.000826057
0.000851476
0.000850391
0.000849471
0.000848487
0.000847663
0.000846754
0.000845989
0.000845111
0.000844358
0.000843454
0.000842678
0.000841703
0.000840881
0.000839823
0.000838957
0.000837807
0.000836925
0.000835666
0.000851464
0.000850402
0.000849451
0.000848489
0.000847633
0.000846758
0.000845984
0.00084518
0.000844471
0.000843714
0.000843051
0.00084232
0.000841685
0.000840965
0.000840348
0.000839627
0.000839022
0.000838297
0.000851456
0.000850408
0.000849438
0.000848489
0.000847614
0.000846753
0.000845961
0.000845179
0.000844459
0.000843744
0.000843087
0.000842428
0.000841822
0.00084121
0.000840646
0.000840073
0.000839543
0.000839003
0.000851451
0.00085041
0.000849429
0.000848487
0.0008476
0.000846746
0.000845941
0.000845166
0.000844435
0.00084373
0.000843064
0.000842421
0.000841813
0.000841225
0.000840667
0.000840128
0.000839614
0.000839119
0.000851449
0.00085041
0.000849424
0.000848483
0.00084759
0.000846737
0.000845926
0.000845152
0.000844415
0.000843711
0.000843039
0.000842397
0.000841784
0.000841198
0.000840637
0.000840101
0.000839587
0.000839096
0.000851448
0.000850409
0.00084942
0.000848479
0.000847583
0.000846729
0.000845915
0.000845139
0.000844399
0.000843692
0.000843017
0.000842373
0.000841757
0.000841168
0.000840605
0.000840067
0.00083955
0.000839058
0.000851447
0.000850408
0.000849418
0.000848476
0.000847578
0.000846722
0.000845906
0.000845128
0.000844386
0.000843677
0.000843
0.000842354
0.000841735
0.000841144
0.000840578
0.000840038
0.00083952
0.000839024
0.000851447
0.000850408
0.000849417
0.000848474
0.000847574
0.000846718
0.0008459
0.000845121
0.000844377
0.000843666
0.000842988
0.000842339
0.000841719
0.000841126
0.000840559
0.000840016
0.000839497
0.000839
0.000851447
0.000850408
0.000849417
0.000848473
0.000847573
0.000846716
0.000845898
0.000845118
0.000844373
0.000843661
0.000842981
0.000842332
0.000841711
0.000841116
0.000840548
0.000840004
0.000839484
0.000838986
0.000851447
0.000850408
0.000849418
0.000848474
0.000847575
0.000846718
0.0008459
0.00084512
0.000844375
0.000843663
0.000842983
0.000842334
0.000841712
0.000841118
0.000840549
0.000840005
0.000839485
0.000838986
0.000851447
0.000850409
0.000849419
0.000848477
0.000847578
0.000846723
0.000845905
0.000845126
0.000844381
0.00084367
0.000842989
0.00084234
0.000841717
0.000841123
0.000840552
0.000840007
0.000839482
0.000838982
0.000851445
0.000850413
0.000849419
0.000848484
0.000847582
0.000846732
0.00084591
0.000845134
0.000844381
0.000843669
0.000842973
0.000842316
0.000841669
0.000841059
0.000840452
0.000839882
0.00083931
0.000838775
0.000851436
0.000850423
0.00084942
0.000848501
0.00084758
0.000846735
0.000845865
0.000845055
0.000844207
0.000843403
0.000842548
0.000841732
0.000840853
0.000840019
0.000839107
0.000838264
0.000837313
0.000836472
0.00085141
0.000850467
0.000849434
0.000848493
0.000847401
0.000846302
0.000844907
0.000843544
0.000841808
0.000840071
0.000838001
0.000835928
0.000833595
0.000831256
0.000828759
0.000826224
0.000823578
0.000821139
0.000851428
0.000850588
0.000849037
0.000847133
0.000844066
0.000839869
0.000835038
0.000829696
0.000822866
0.000816397
0.000808747
0.000801775
0.000793813
0.000786807
0.000778861
0.000772138
0.00076438
0.000758147
0.000852022
0.000847633
0.000841027
0.000829562
0.000813252
0.000795713
0.00077487
0.000755945
0.00073519
0.000717219
0.000698081
0.000681996
0.000664904
0.000650906
0.000635799
0.000623799
0.000610431
0.000600253
0.000842008
0.000821394
0.000770809
0.000718444
0.000664933
0.000621091
0.00057911
0.000545891
0.000513986
0.000489132
0.00046462
0.000445748
0.000426498
0.000411901
0.000396427
0.000384946
0.000372225
0.000363073
0.000776192
0.000611457
0.000490087
0.000410318
0.000353277
0.000313163
0.000280297
0.000256671
0.000235947
0.000220797
0.000206611
0.000196244
0.000185962
0.000178532
0.000170764
0.000165253
0.000159198
0.000154994
0.000316317
0.000180145
0.000135166
0.000112029
9.72497e-05
8.7601e-05
8.06848e-05
7.61536e-05
7.24818e-05
7.00985e-05
6.79508e-05
6.66381e-05
6.53099e-05
6.45913e-05
6.37449e-05
6.33785e-05
6.28321e-05
6.26781e-05
1.98428e-05
2.50682e-05
2.89146e-05
3.15902e-05
3.33985e-05
3.45513e-05
3.52713e-05
3.5648e-05
3.5839e-05
3.58247e-05
3.57791e-05
3.56422e-05
3.54692e-05
3.52702e-05
3.5061e-05
3.48474e-05
3.4636e-05
3.44291e-05
4.46957e-10
1.5237e-08
3.73355e-08
6.78315e-08
9.87381e-08
1.29483e-07
1.83896e-07
2.81523e-07
4.32429e-07
6.28594e-07
8.30002e-07
1.0324e-06
1.20357e-06
1.35514e-06
1.45804e-06
1.5345e-06
1.54352e-06
1.53459e-06
1.51523e-06
1.43631e-06
1.32105e-06
1.12185e-06
8.54118e-07
5.43266e-07
2.59325e-07
8.17267e-08
1.80363e-08
1.18907e-08
1.45258e-08
1.89582e-08
2.32484e-08
2.55355e-08
2.68925e-08
3.3694e-08
7.04693e-08
1.53678e-07
2.55366e-07
3.23827e-07
3.35856e-07
3.25363e-07
2.95388e-07
2.93688e-07
3.40232e-07
4.70158e-07
5.24223e-07
6.32002e-07
7.84856e-07
1.62439e-06
5.66341e-06
1.0762e-05
1.5079e-05
1.86026e-05
2.15292e-05
2.39924e-05
2.6109e-05
2.79505e-05
2.95814e-05
3.10423e-05
3.23704e-05
3.35913e-05
3.47351e-05
3.58188e-05
3.6866e-05
3.7823e-05
3.87458e-05
3.96058e-05
4.04406e-05
4.12309e-05
4.20009e-05
4.27393e-05
4.34613e-05
4.416e-05
4.48445e-05
4.55112e-05
4.61652e-05
4.6805e-05
4.7433e-05
4.80488e-05
4.86535e-05
4.92471e-05
4.983e-05
5.04022e-05
5.09638e-05
5.15146e-05
5.20547e-05
5.25837e-05
5.31015e-05
5.36077e-05
5.4102e-05
5.45842e-05
5.50539e-05
5.55108e-05
5.59547e-05
5.63855e-05
5.68036e-05
5.72096e-05
5.76046e-05
5.7991e-05
5.83719e-05
5.87445e-05
5.91034e-05
5.94523e-05
5.97893e-05
6.0115e-05
6.04287e-05
6.07303e-05
6.10194e-05
6.12957e-05
6.15589e-05
6.18087e-05
6.20446e-05
6.22665e-05
6.24738e-05
6.26665e-05
6.28439e-05
6.30059e-05
6.31521e-05
6.32821e-05
6.33956e-05
6.34924e-05
6.3572e-05
6.36341e-05
6.36784e-05
6.37048e-05
6.3713e-05
6.3703e-05
6.36748e-05
6.36286e-05
6.35655e-05
6.34888e-05
6.33991e-05
6.32924e-05
6.30241e-05
6.29576e-05
6.25869e-05
6.24236e-05
6.21541e-05
6.18932e-05
6.15977e-05
6.12787e-05
6.09285e-05
6.05481e-05
6.01398e-05
5.97371e-05
5.92913e-05
5.88326e-05
5.83489e-05
5.78454e-05
5.73213e-05
5.67781e-05
5.6216e-05
5.56362e-05
5.50381e-05
5.44187e-05
5.37817e-05
5.31296e-05
5.24683e-05
5.17986e-05
5.11219e-05
5.04404e-05
4.97552e-05
4.90682e-05
4.83807e-05
4.76941e-05
4.70088e-05
4.63277e-05
4.56501e-05
4.49778e-05
4.43166e-05
4.37927e-05
4.35374e-05
4.32889e-05
4.30389e-05
4.27819e-05
4.25071e-05
4.22032e-05
4.18443e-05
4.13634e-05
4.07626e-05
3.77184e-05
2.182e-09
7.28814e-09
4.1769e-08
1.1783e-07
3.35021e-07
9.99418e-07
2.14809e-06
3.96203e-06
6.13847e-06
8.70032e-06
1.13495e-05
1.39798e-05
1.60916e-05
1.79035e-05
1.87175e-05
1.89738e-05
1.86475e-05
1.71175e-05
1.44752e-05
1.11554e-05
8.22308e-06
5.72451e-06
3.88248e-06
2.53895e-06
1.5559e-06
9.02021e-07
4.89369e-07
2.72468e-07
1.67061e-07
1.18984e-07
1.00153e-07
1.3082e-07
3.50672e-07
6.72145e-07
2.51466e-06
5.44275e-06
8.4948e-06
9.6937e-06
9.14376e-06
8.34462e-06
6.51562e-06
6.11713e-06
5.09242e-06
4.63405e-06
5.82708e-06
8.57898e-06
1.2365e-05
1.80412e-05
2.54487e-05
3.31901e-05
4.23346e-05
5.14638e-05
6.20079e-05
7.31046e-05
8.53819e-05
9.82376e-05
0.000111754
0.000125503
0.000139329
0.00015256
0.000165256
0.000177184
0.000188405
0.000198898
0.000208599
0.000217855
0.000226488
0.000234802
0.000242627
0.000250087
0.000257278
0.000264231
0.00027099
0.000277594
0.000284064
0.000290434
0.000296717
0.000302936
0.000309101
0.000315227
0.000321323
0.000327398
0.000333457
0.000339506
0.000345549
0.000351589
0.000357627
0.000363662
0.000369694
0.000375718
0.000381729
0.000387715
0.000393663
0.000399552
0.000405354
0.000411029
0.000416517
0.000421744
0.000426615
0.000431317
0.000436056
0.000440751
0.000445433
0.000450091
0.000454724
0.000459332
0.000463911
0.000468459
0.000472972
0.00047745
0.000481887
0.000486282
0.00049063
0.000494929
0.000499173
0.00050336
0.000507484
0.000511541
0.000515526
0.000519434
0.00052326
0.000526998
0.000530641
0.000534184
0.000537618
0.000540938
0.000544138
0.000547213
0.000550164
0.00055299
0.000555682
0.000558274
0.000560623
0.000562957
0.000564949
0.000566925
0.000568547
0.000570002
0.000571344
0.000572464
0.000573108
0.000573681
0.000573764
0.000574007
0.000573878
0.000573522
0.000572949
0.000572159
0.00057115
0.000569921
0.000568485
0.000566858
0.000565042
0.000563059
0.000560893
0.000558512
0.000555992
0.000553342
0.00055058
0.000547717
0.000544771
0.000541755
0.000538684
0.000535568
0.000532412
0.000529234
0.000526032
0.000522798
0.000519494
0.000516016
0.000511759
0.000507095
0.000502306
0.000497408
0.000492349
0.000487028
0.000481232
0.000474662
0.000466955
0.000439231
2.77806e-09
6.15478e-09
6.05863e-08
3.20081e-07
8.57182e-07
2.28941e-06
4.72865e-06
8.23834e-06
1.25135e-05
1.77175e-05
2.33641e-05
2.92e-05
3.46524e-05
3.96606e-05
4.30057e-05
4.5158e-05
4.60508e-05
4.5214e-05
4.26947e-05
3.85801e-05
3.31988e-05
2.67668e-05
1.99837e-05
1.41222e-05
9.29206e-06
5.93014e-06
3.40866e-06
2.02593e-06
1.23425e-06
8.53402e-07
6.55606e-07
7.87252e-07
1.37849e-06
3.09285e-06
9.45012e-06
1.99225e-05
2.56752e-05
2.58629e-05
2.39286e-05
1.65855e-05
1.08105e-05
1.26132e-05
1.67772e-05
2.21408e-05
3.12914e-05
4.13991e-05
5.76928e-05
7.44753e-05
9.77773e-05
0.000122967
0.000152491
0.000185759
0.000222393
0.000260524
0.00029935
0.000337121
0.000373157
0.000406646
0.000437292
0.000465647
0.00049166
0.000515622
0.000537471
0.000558052
0.000577243
0.000595289
0.000612229
0.000628404
0.000643833
0.000658705
0.000673099
0.000687102
0.000700778
0.000714187
0.000727373
0.000740378
0.00075323
0.000765961
0.000778589
0.000791133
0.000803609
0.000816026
0.000828394
0.000840719
0.000853005
0.000865254
0.000877464
0.000889633
0.000901756
0.000913824
0.000925826
0.000937747
0.000949567
0.000961264
0.00097281
0.000984177
0.00099534
0.00100629
0.00101708
0.00102783
0.00103856
0.00104922
0.00105983
0.00107038
0.00108087
0.00109129
0.00110163
0.00111189
0.00112207
0.00113216
0.00114215
0.00115203
0.00116181
0.00117146
0.00118099
0.00119038
0.00119963
0.00120872
0.00121765
0.0012264
0.00123497
0.00124334
0.00125149
0.00125943
0.00126712
0.00127456
0.00128174
0.00128865
0.00129528
0.00130161
0.00130763
0.00131334
0.00131864
0.00132362
0.00132811
0.00133223
0.0013358
0.00133886
0.00134158
0.00134398
0.00134549
0.00134688
0.00134789
0.00134814
0.00134782
0.00134691
0.00134551
0.00134359
0.00134117
0.00133824
0.00133485
0.00133101
0.00132674
0.00132209
0.00131707
0.0013117
0.00130602
0.00130004
0.00129381
0.00128735
0.00128071
0.00127391
0.00126698
0.00125995
0.00125283
0.00124564
0.0012384
0.00123111
0.0012237
0.00121602
0.00120744
0.00119827
0.00118875
0.00117892
0.00116868
0.0011578
0.0011458
0.00113226
0.00111579
0.00106808
3.1423e-09
1.62172e-08
1.86522e-07
7.23998e-07
2.19664e-06
5.7217e-06
1.10883e-05
1.86767e-05
2.84799e-05
4.04948e-05
5.23805e-05
6.33873e-05
7.10829e-05
7.64813e-05
8.00399e-05
8.12089e-05
8.06599e-05
7.87519e-05
7.49138e-05
6.9885e-05
6.37623e-05
5.58856e-05
4.65198e-05
3.67737e-05
2.72685e-05
1.92891e-05
1.30843e-05
8.71076e-06
5.61419e-06
3.93368e-06
2.83063e-06
3.24022e-06
5.67739e-06
1.4701e-05
3.08917e-05
4.04034e-05
3.47175e-05
2.43835e-05
2.36725e-05
2.7716e-05
3.45667e-05
4.44224e-05
5.58251e-05
7.30614e-05
9.8133e-05
0.000127767
0.000163471
0.000204276
0.000252817
0.000303568
0.00035895
0.000415606
0.000472629
0.000528275
0.000581707
0.000632135
0.000679298
0.000723096
0.000763701
0.00080123
0.000835942
0.000868527
0.000899017
0.000927546
0.000954498
0.000980055
0.00100442
0.0010278
0.00105033
0.00107216
0.00109338
0.00111409
0.00113439
0.00115432
0.00117395
0.00119332
0.00121248
0.00123145
0.00125026
0.00126894
0.0012875
0.00130595
0.00132431
0.00134258
0.00136076
0.00137885
0.00139686
0.00141478
0.0014326
0.00145031
0.00146791
0.00148537
0.0015027
0.00151987
0.00153687
0.00155369
0.00157035
0.00158685
0.00160324
0.00161957
0.00163581
0.00165196
0.00166802
0.00168397
0.0016998
0.00171552
0.00173111
0.00174657
0.00176189
0.00177705
0.00179206
0.00180691
0.00182157
0.00183605
0.00185034
0.00186441
0.00187827
0.0018919
0.00190528
0.00191841
0.00193126
0.00194382
0.00195608
0.00196802
0.00197961
0.00199086
0.00200173
0.00201221
0.00202229
0.00203195
0.00204115
0.00204989
0.00205809
0.00206571
0.00207272
0.00207917
0.00208495
0.00209004
0.00209455
0.00209844
0.00210136
0.00210391
0.00210595
0.0021069
0.00210703
0.00210638
0.00210495
0.00210277
0.00209984
0.00209618
0.00209181
0.00208676
0.00208106
0.00207476
0.0020679
0.0020605
0.00205259
0.00204423
0.00203546
0.00202632
0.00201686
0.00200712
0.00199716
0.001987
0.00197666
0.00196616
0.00195554
0.0019448
0.00193388
0.00192266
0.00191069
0.00189806
0.00188492
0.00187129
0.00185705
0.00184192
0.00182528
0.00180641
0.00178391
0.00172752
3.45494e-09
4.88113e-08
4.2026e-07
1.9153e-06
6.27229e-06
1.49528e-05
2.84637e-05
4.70778e-05
6.62191e-05
8.08082e-05
9.14981e-05
0.00010016
0.000105414
0.000108409
0.000109561
0.000109162
0.000107461
0.000104412
9.99494e-05
9.46485e-05
8.8025e-05
7.99925e-05
7.04303e-05
5.96804e-05
4.80663e-05
3.69382e-05
2.67894e-05
1.84887e-05
1.41083e-05
1.00689e-05
9.10127e-06
1.27745e-05
2.76235e-05
5.13811e-05
5.32514e-05
4.64818e-05
4.5214e-05
4.74652e-05
5.48269e-05
6.43014e-05
7.80179e-05
0.000101478
0.000134091
0.000174847
0.000219977
0.000273035
0.000331668
0.000395027
0.000462326
0.000530505
0.000600018
0.000668378
0.000735031
0.000799067
0.000860033
0.000917689
0.000971878
0.00102248
0.00107016
0.00111511
0.00115709
0.00119669
0.00123409
0.0012695
0.0013032
0.00133539
0.00136627
0.00139603
0.00142481
0.00145276
0.00147999
0.0015066
0.00153268
0.0015583
0.00158353
0.00160842
0.00163302
0.00165736
0.00168147
0.00170539
0.00172912
0.00175268
0.00177609
0.00179936
0.00182248
0.00184546
0.0018683
0.001891
0.00191355
0.00193594
0.00195818
0.00198024
0.00200213
0.00202385
0.00204538
0.00206674
0.00208794
0.00210899
0.00212991
0.0021507
0.00217137
0.00219189
0.00221226
0.00223248
0.00225253
0.0022724
0.0022921
0.00231161
0.00233092
0.00235002
0.00236891
0.00238758
0.002406
0.00242419
0.00244212
0.00245978
0.00247717
0.00249427
0.00251106
0.00252754
0.00254369
0.00255949
0.00257493
0.00258999
0.00260465
0.0026189
0.00263271
0.00264607
0.00265896
0.00267135
0.00268323
0.00269455
0.00270528
0.00271529
0.00272457
0.00273328
0.00274126
0.00274849
0.00275501
0.00276078
0.00276554
0.0027697
0.0027732
0.00277555
0.00277694
0.00277738
0.00277689
0.00277547
0.00277314
0.00276989
0.00276577
0.00276079
0.00275498
0.00274838
0.00274104
0.00273298
0.00272426
0.0027149
0.00270498
0.00269453
0.00268361
0.00267226
0.00266052
0.00264843
0.00263602
0.00262333
0.00261041
0.00259726
0.00258386
0.0025701
0.0025557
0.00254064
0.00252497
0.00250867
0.00249164
0.00247363
0.00245405
0.00243204
0.00240586
0.00234884
2.38653e-09
1.20748e-07
1.16183e-06
5.48932e-06
1.79219e-05
3.95455e-05
6.54083e-05
8.6977e-05
0.000102675
0.00011361
0.000120028
0.000123796
0.000126051
0.000127117
0.000127084
0.000125958
0.000123744
0.000120267
0.000115842
0.000110532
0.000103816
9.58314e-05
8.64417e-05
7.57144e-05
6.38704e-05
5.17272e-05
4.22342e-05
3.0484e-05
1.95658e-05
1.69831e-05
2.66259e-05
5.17378e-05
7.3515e-05
7.26474e-05
7.05393e-05
6.87289e-05
7.21506e-05
8.04942e-05
9.717e-05
0.000125057
0.000161336
0.00020762
0.000260928
0.000321145
0.000386084
0.000456814
0.000530531
0.000606602
0.000683737
0.00076046
0.000836371
0.000910326
0.000981911
0.00105075
0.0011162
0.00117839
0.00123792
0.00129411
0.0013473
0.00139768
0.00144538
0.00149066
0.00153373
0.00157481
0.0016141
0.0016518
0.00168809
0.00172315
0.00175712
0.00179015
0.00182234
0.00185381
0.00188464
0.00191492
0.00194472
0.00197409
0.00200308
0.00203173
0.00206009
0.00208817
0.00211601
0.00214361
0.002171
0.00219818
0.00222516
0.00225195
0.00227854
0.00230494
0.00233114
0.00235714
0.00238294
0.00240853
0.00243391
0.00245909
0.00248406
0.00250884
0.00253342
0.00255782
0.00258204
0.00260607
0.00262992
0.00265357
0.00267701
0.00270024
0.00272325
0.00274603
0.00276857
0.00279087
0.00281292
0.00283471
0.00285623
0.00287748
0.00289844
0.0029191
0.00293946
0.00295952
0.00297925
0.00299866
0.00301773
0.00303646
0.00305482
0.00307281
0.00309041
0.00310761
0.0031244
0.00314075
0.00315667
0.00317212
0.00318709
0.00320156
0.00321552
0.00322895
0.00324168
0.00325367
0.00326511
0.0032759
0.00328599
0.00329534
0.00330396
0.00331181
0.00331871
0.00332487
0.00333029
0.00333463
0.00333793
0.00334022
0.0033415
0.00334178
0.00334104
0.00333929
0.00333655
0.00333283
0.00332815
0.00332254
0.00331604
0.00330867
0.00330048
0.00329151
0.0032818
0.00327141
0.00326039
0.00324877
0.00323659
0.00322391
0.00321073
0.00319711
0.00318309
0.00316865
0.00315382
0.00313853
0.00312263
0.00310606
0.00308879
0.00307081
0.00305203
0.00303226
0.00301105
0.00298766
0.00295985
0.00290598
2.64691e-08
3.76747e-07
3.27664e-06
1.68341e-05
4.41873e-05
7.30071e-05
9.56963e-05
0.000112104
0.000122277
0.000128505
0.000132667
0.000135294
0.000136585
0.000136939
0.000136405
0.000134946
0.000132594
0.000129086
0.000124761
0.000119434
0.000112798
0.00010465
9.50343e-05
8.38988e-05
7.12602e-05
5.79035e-05
4.57737e-05
3.94707e-05
3.95852e-05
5.17754e-05
7.67532e-05
9.01584e-05
9.15483e-05
8.94422e-05
8.906e-05
9.50314e-05
0.000112045
0.0001408
0.000180871
0.000227338
0.000284274
0.000347927
0.000417449
0.000491303
0.000568653
0.000648944
0.000730561
0.000812751
0.000894569
0.000975295
0.00105433
0.00113119
0.00120517
0.00127634
0.00134534
0.00141116
0.00147411
0.00153413
0.00159136
0.00164592
0.00169796
0.00174764
0.00179514
0.00184064
0.00188433
0.00192636
0.00196692
0.00200615
0.0020442
0.0020812
0.00211726
0.00215251
0.00218702
0.00222088
0.00225417
0.00228694
0.00231926
0.00235116
0.00238269
0.00241388
0.00244475
0.00247533
0.00250563
0.00253566
0.00256544
0.00259497
0.00262426
0.0026533
0.0026821
0.00271066
0.00273897
0.00276704
0.00279487
0.00282245
0.00284978
0.00287686
0.0029037
0.00293029
0.00295664
0.00298276
0.00300863
0.00303424
0.0030596
0.00308469
0.00310951
0.00313404
0.00315829
0.00318225
0.00320591
0.00322926
0.00325231
0.00327504
0.00329746
0.00331958
0.00334138
0.00336285
0.00338397
0.00340475
0.00342517
0.00344524
0.00346494
0.00348427
0.00350322
0.00352177
0.00353992
0.00355766
0.00357498
0.00359186
0.0036083
0.00362428
0.0036398
0.00365482
0.00366909
0.00368286
0.00369607
0.0037087
0.00372068
0.00373201
0.00374265
0.00375258
0.00376169
0.00377011
0.00377783
0.00378455
0.00379028
0.003795
0.00379872
0.00380142
0.00380309
0.00380371
0.00380328
0.0038018
0.00379928
0.00379574
0.00379118
0.00378564
0.00377914
0.00377172
0.00376341
0.00375425
0.00374428
0.00373355
0.00372208
0.00370991
0.00369705
0.00368355
0.00366949
0.00365484
0.00363964
0.00362384
0.00360736
0.00359015
0.00357217
0.0035534
0.00353379
0.00351319
0.00349123
0.00346744
0.00343987
0.00338995
1.58393e-07
1.08653e-06
9.81119e-06
3.82163e-05
7.32766e-05
0.000101927
0.000121612
0.000133146
0.000138372
0.00014062
0.000141419
0.00014156
0.000141336
0.000140794
0.000139816
0.000138227
0.000135623
0.000131899
0.000126984
0.000120602
0.000112841
0.000103589
9.20702e-05
7.96055e-05
6.74329e-05
5.47181e-05
4.6605e-05
5.21241e-05
7.13236e-05
9.50441e-05
0.000104425
0.000106865
0.000106938
0.000107991
0.000122952
0.000150203
0.00018907
0.000236175
0.000293562
0.000356802
0.000427885
0.00050298
0.000582026
0.000663716
0.000747524
0.000832632
0.000917926
0.00100271
0.00108639
0.00116854
0.00124854
0.00132609
0.00140183
0.00147505
0.0015457
0.00161365
0.00167893
0.00174155
0.00180158
0.00185911
0.00191424
0.00196709
0.00201782
0.00206655
0.00211345
0.00215866
0.00220233
0.0022446
0.00228562
0.00232551
0.00236438
0.00240233
0.00243947
0.00247587
0.00251162
0.00254677
0.00258139
0.00261552
0.00264922
0.00268251
0.00271542
0.00274798
0.00278021
0.00281212
0.00284373
0.00287504
0.00290606
0.0029368
0.00296725
0.00299743
0.00302733
0.00305694
0.00308628
0.00311534
0.0031441
0.00317256
0.00320074
0.00322864
0.00325626
0.00328361
0.00331067
0.00333744
0.00336392
0.0033901
0.00341596
0.00344151
0.00346675
0.00349166
0.00351624
0.00354048
0.00356439
0.00358797
0.0036112
0.00363408
0.00365662
0.00367881
0.00370065
0.00372214
0.00374327
0.00376406
0.00378449
0.00380457
0.00382429
0.00384365
0.00386265
0.00388128
0.00389954
0.00391742
0.00393493
0.00395205
0.00396884
0.00398508
0.0040008
0.00401611
0.00403097
0.00404534
0.00405919
0.0040725
0.00408524
0.00409738
0.00410884
0.00411965
0.00412976
0.00413899
0.00414728
0.00415464
0.00416105
0.00416647
0.00417089
0.00417427
0.00417659
0.00417784
0.004178
0.00417707
0.00417506
0.00417197
0.00416781
0.00416259
0.00415635
0.00414911
0.0041409
0.00413174
0.00412166
0.00411069
0.00409883
0.00408632
0.00407306
0.00405903
0.00404424
0.00402868
0.00401231
0.0039951
0.00397703
0.00395809
0.00393826
0.00391745
0.00389543
0.00387189
0.00384538
0.00380065
4.14704e-07
2.70745e-06
2.24598e-05
6.19247e-05
9.79768e-05
0.00012194
0.000135693
0.000140764
0.000141934
0.000141535
0.000141021
0.000140886
0.00014087
0.000140502
0.000139315
0.000136932
0.000133848
0.000130078
0.000125325
0.00011905
0.000111259
0.000102527
9.3615e-05
8.31349e-05
7.52042e-05
7.338e-05
8.00735e-05
9.48975e-05
0.000110049
0.000117945
0.000120281
0.000121764
0.000130057
0.000153811
0.000190414
0.000234904
0.000290347
0.000352678
0.000422308
0.000496356
0.000575263
0.000656857
0.000740999
0.000826825
0.000913417
0.0010001
0.00108626
0.00117144
0.00125528
0.00133699
0.00141699
0.00149534
0.00157147
0.00164529
0.00171673
0.00178575
0.00185231
0.00191643
0.00197813
0.00203747
0.00209452
0.00214938
0.00220215
0.00225296
0.00230193
0.00234919
0.00239487
0.0024391
0.00248202
0.00252374
0.00256438
0.00260403
0.00264281
0.00268077
0.002718
0.00275458
0.00279056
0.002826
0.00286094
0.00289542
0.00292948
0.00296314
0.00299643
0.00302936
0.00306196
0.00309423
0.0031262
0.00315784
0.00318917
0.00322017
0.00325086
0.00328123
0.00331129
0.00334103
0.00337046
0.00339958
0.00342839
0.00345689
0.00348508
0.00351296
0.00354053
0.00356777
0.00359469
0.00362128
0.00364752
0.00367343
0.00369898
0.00372419
0.00374904
0.00377354
0.00379768
0.00382146
0.00384489
0.00386796
0.00389067
0.00391304
0.00393505
0.00395672
0.00397805
0.00399905
0.00401972
0.00404007
0.00406009
0.00407981
0.00409922
0.00411832
0.00413712
0.00415562
0.00417382
0.00419177
0.00420942
0.00422665
0.00424358
0.00426019
0.00427648
0.00429242
0.004308
0.00432318
0.00433795
0.00435229
0.00436612
0.00437943
0.00439218
0.0044042
0.00441539
0.00442577
0.00443531
0.00444396
0.00445169
0.00445843
0.00446415
0.00446882
0.00447239
0.00447484
0.00447615
0.00447632
0.00447532
0.00447316
0.00446983
0.00446536
0.00445975
0.00445301
0.00444516
0.00443622
0.00442615
0.00441507
0.00440301
0.00438997
0.00437595
0.00436097
0.004345
0.00432805
0.00431011
0.00429119
0.0042713
0.00425042
0.00422843
0.00420536
0.0041801
0.00414021
6.85657e-07
5.94144e-06
4.00845e-05
8.70331e-05
0.00012151
0.000139586
0.000145535
0.000145684
0.000143509
0.000141328
0.000140003
0.000139217
0.000138435
0.000137131
0.000135028
0.000131686
0.000126751
0.000120244
0.000112697
0.000104546
9.58297e-05
8.86954e-05
8.35566e-05
8.16016e-05
8.44751e-05
9.65705e-05
0.000110544
0.000121609
0.000128917
0.000132686
0.000136579
0.00015586
0.000186423
0.000227462
0.00027926
0.00033825
0.0004052
0.000477046
0.000553666
0.000633575
0.000716585
0.000801459
0.00088761
0.000974351
0.00106112
0.00114746
0.00123296
0.00131711
0.00139951
0.00148084
0.00156038
0.00163806
0.00171371
0.00178725
0.00185859
0.0019277
0.00199455
0.00205911
0.00212139
0.00218143
0.00223927
0.002295
0.0023487
0.00240047
0.00245042
0.00249866
0.00254528
0.00259042
0.00263422
0.00267678
0.00271821
0.00275863
0.00279814
0.00283686
0.00287485
0.00291213
0.00294875
0.00298476
0.00302022
0.00305517
0.00308964
0.00312368
0.00315729
0.00319051
0.00322334
0.00325578
0.00328787
0.00331962
0.00335104
0.00338214
0.00341292
0.00344339
0.00347353
0.00350337
0.00353289
0.0035621
0.00359099
0.00361956
0.0036478
0.00367571
0.00370328
0.00373051
0.0037574
0.00378394
0.00381012
0.00383594
0.0038614
0.00388649
0.00391122
0.00393558
0.00395957
0.0039832
0.00400646
0.00402936
0.00405191
0.00407411
0.00409597
0.0041175
0.00413871
0.00415961
0.00418022
0.00420053
0.00422058
0.00424036
0.0042599
0.0042792
0.00429828
0.00431714
0.0043358
0.00435432
0.00437259
0.00439066
0.00440856
0.00442628
0.00444383
0.00446118
0.00447834
0.00449528
0.004512
0.00452845
0.00454461
0.00456043
0.00457589
0.00459076
0.00460491
0.00461845
0.0046313
0.0046434
0.00465469
0.00466509
0.00467454
0.00468298
0.00469036
0.00469662
0.00470173
0.00470563
0.0047083
0.00470972
0.00470986
0.00470872
0.00470627
0.00470253
0.0046975
0.00469116
0.00468352
0.00467462
0.00466448
0.00465313
0.00464056
0.0046268
0.00461185
0.00459572
0.00457844
0.00456004
0.00454055
0.00452002
0.00449839
0.00447565
0.00445118
0.00441515
8.8099e-07
1.1513e-05
5.61736e-05
0.000105544
0.0001372
0.000150463
0.000150901
0.000146014
0.000140607
0.000136671
0.000134405
0.00013321
0.00013233
0.000130444
0.000128721
0.000126324
0.000122151
0.000116319
0.00011006
0.000103985
9.84816e-05
9.49181e-05
9.59996e-05
0.000105441
0.000115987
0.000125206
0.00013321
0.000139244
0.000144444
0.000156506
0.000181268
0.000218385
0.000263821
0.000318904
0.000381432
0.000449462
0.00052271
0.000599576
0.000679775
0.000762232
0.000846495
0.000931729
0.00101747
0.00110326
0.00118872
0.00127349
0.00135697
0.00143918
0.00152042
0.00160012
0.00167815
0.0017544
0.00182875
0.00190112
0.00197145
0.00203969
0.0021058
0.00216977
0.00223158
0.00229123
0.00234876
0.00240426
0.00245778
0.00250944
0.00255933
0.00260762
0.0026545
0.0026999
0.0027439
0.0027866
0.00282812
0.00286856
0.002908
0.00294651
0.00298416
0.00302104
0.00305726
0.00309287
0.00312794
0.0031625
0.00319658
0.00323024
0.00326348
0.00329633
0.00332881
0.00336095
0.00339275
0.00342421
0.00345534
0.00348616
0.00351666
0.00354684
0.00357671
0.00360627
0.00363551
0.00366444
0.00369305
0.00372133
0.00374929
0.00377691
0.00380419
0.00383113
0.00385771
0.00388394
0.00390982
0.00393533
0.00396047
0.00398524
0.00400965
0.00403368
0.00405734
0.00408064
0.00410358
0.00412616
0.00414839
0.00417028
0.00419185
0.0042131
0.00423405
0.00425472
0.00427512
0.00429527
0.0043152
0.00433492
0.00435445
0.00437382
0.00439303
0.00441212
0.00443111
0.00445
0.00446882
0.00448757
0.00450629
0.00452498
0.00454364
0.00456228
0.00458089
0.00459947
0.00461802
0.0046365
0.0046549
0.00467316
0.0046913
0.00470894
0.00472607
0.00474278
0.004759
0.00477464
0.0047896
0.0048038
0.00481716
0.00482959
0.00484101
0.00485135
0.00486053
0.00486849
0.00487518
0.00488055
0.00488454
0.00488713
0.00488828
0.00488797
0.00488618
0.00488289
0.0048781
0.00487181
0.00486405
0.00485481
0.00484412
0.00483198
0.00481842
0.00480347
0.00478716
0.00476955
0.0047507
0.0047307
0.00470956
0.00468744
0.00466382
0.0046313
9.85228e-07
1.89779e-05
7.45845e-05
0.000124496
0.000152524
0.000158556
0.000153215
0.000144836
0.000137532
0.000132329
0.000128851
0.000126318
0.000123723
0.000121656
0.000119034
0.000115009
0.000110655
0.0001059
0.00010264
0.000102703
0.000107183
0.000114084
0.000122565