/*--------------------------------*- C++ -*----------------------------------*\
| =========                 |                                                 |
| \\      /  F ield         | OpenFOAM: The Open Source CFD Toolbox           |
|  \\    /   O peration     | Version:  2406                                  |
|   \\  /    A nd           | Website:  www.openfoam.com                      |
|    \\/     M anipulation  |                                                 |
\*---------------------------------------------------------------------------*/
FoamFile
{
    version     2.0;
    format      ascii;
    arch        "LSB;label=32;scalar=64";
    class       volVectorField;
    location    "200";
    object      U;
}
// * * * * * * * * * * * * * * * * * * * * * * * * * * * * * * * * * * * * * //

dimensions      [0 1 -1 0 0 0 0];

internalField   nonuniform List<vector> 
12225
(
(9.83267 -0.996502 0)
(9.58029 -0.929497 0)
(9.30189 -0.618443 0)
(8.99837 -0.379296 0)
(8.70562 -0.226001 0)
(8.43998 -0.132803 0)
(8.20311 -0.0766848 0)
(7.99339 -0.0428399 0)
(7.80876 -0.0223956 0)
(7.64698 -0.0100254 0)
(7.50526 -0.00265847 0)
(7.38131 0.00160233 0)
(7.27295 0.00382963 0)
(7.17889 0.00474271 0)
(7.09791 0.00467433 0)
(7.0303 0.0032526 0)
(6.97571 0.00327553 0)
(6.93653 -0.0145269 0)
(10.0784 0.268989 0)
(10.1891 0.430189 0)
(10.2264 0.384421 0)
(10.2221 0.303073 0)
(10.2025 0.23532 0)
(10.1729 0.185133 0)
(10.1322 0.148683 0)
(10.0818 0.122436 0)
(10.0249 0.103316 0)
(9.96443 0.08904 0)
(9.90242 0.0780309 0)
(9.84008 0.0692536 0)
(9.77878 0.0619975 0)
(9.71911 0.0557112 0)
(9.66215 0.0498595 0)
(9.60763 0.0440222 0)
(9.55822 0.0365248 0)
(9.50674 0.0276182 0)
(10.0052 0.0601826 0)
(10.0353 0.0501053 0)
(10.0697 0.0172522 0)
(10.0979 0.011731 0)
(10.1216 0.0215966 0)
(10.1413 0.0323873 0)
(10.1553 0.0405694 0)
(10.1634 0.0462574 0)
(10.1666 0.0500361 0)
(10.1661 0.0522222 0)
(10.1624 0.053174 0)
(10.1564 0.0531582 0)
(10.1485 0.0523692 0)
(10.1392 0.0508576 0)
(10.129 0.0485773 0)
(10.1182 0.0450688 0)
(10.1074 0.0401686 0)
(10.0934 0.030791 0)
(9.99743 0.0101174 0)
(10.0108 0.0266002 0)
(10.0382 0.0391951 0)
(10.0607 0.0530436 0)
(10.0784 0.0632562 0)
(10.0944 0.0679879 0)
(10.1085 0.0691301 0)
(10.1202 0.0686901 0)
(10.1298 0.0674799 0)
(10.1379 0.065836 0)
(10.1447 0.063859 0)
(10.1504 0.0616573 0)
(10.155 0.059208 0)
(10.159 0.0564472 0)
(10.1624 0.0531847 0)
(10.1651 0.0490286 0)
(10.1671 0.043665 0)
(10.167 0.0357942 0)
(9.99904 0.00671045 0)
(10.0086 0.0342122 0)
(10.0292 0.0485946 0)
(10.0461 0.0554221 0)
(10.0595 0.0594888 0)
(10.0726 0.0613353 0)
(10.0851 0.0616297 0)
(10.0962 0.061193 0)
(10.1059 0.0603875 0)
(10.1148 0.0592823 0)
(10.1229 0.0578948 0)
(10.1303 0.0562346 0)
(10.1371 0.0542743 0)
(10.1435 0.0519228 0)
(10.1494 0.0490284 0)
(10.1549 0.0453086 0)
(10.1595 0.0406025 0)
(10.1625 0.0345842 0)
(10.0001 0.00925665 0)
(10.0081 0.0334978 0)
(10.0239 0.0445554 0)
(10.0378 0.0492873 0)
(10.0495 0.0531671 0)
(10.0612 0.0558193 0)
(10.0725 0.0569862 0)
(10.0827 0.0571989 0)
(10.092 0.0568539 0)
(10.1006 0.0560751 0)
(10.1086 0.0549135 0)
(10.1161 0.0534 0)
(10.1232 0.051529 0)
(10.1299 0.0492367 0)
(10.1362 0.046416 0)
(10.142 0.042898 0)
(10.147 0.0386347 0)
(10.1507 0.0336151 0)
(10.0003 0.00918035 0)
(10.007 0.0288917 0)
(10.02 0.0392415 0)
(10.0325 0.0446034 0)
(10.0432 0.048957 0)
(10.0537 0.0519486 0)
(10.064 0.0533518 0)
(10.0736 0.0537095 0)
(10.0824 0.0534544 0)
(10.0906 0.0527345 0)
(10.0983 0.0516122 0)
(10.1057 0.050122 0)
(10.1126 0.0482688 0)
(10.1192 0.0460067 0)
(10.1253 0.0432682 0)
(10.131 0.0399629 0)
(10.1359 0.0361053 0)
(10.1398 0.0318006 0)
(10.0004 0.00819941 0)
(10.006 0.0248796 0)
(10.017 0.0351844 0)
(10.0283 0.0409837 0)
(10.0383 0.0452573 0)
(10.048 0.048148 0)
(10.0575 0.0495795 0)
(10.0665 0.0500075 0)
(10.0749 0.0498187 0)
(10.0827 0.0491571 0)
(10.0902 0.048086 0)
(10.0972 0.04664 0)
(10.1039 0.0448323 0)
(10.1102 0.0426366 0)
(10.1161 0.0400193 0)
(10.1215 0.0369458 0)
(10.1262 0.0334654 0)
(10.1301 0.0297178 0)
(10.0004 0.00726573 0)
(10.0052 0.021719 0)
(10.0145 0.0315812 0)
(10.0247 0.037395 0)
(10.0341 0.0414522 0)
(10.0431 0.044221 0)
(10.052 0.0456933 0)
(10.0605 0.0462034 0)
(10.0684 0.0460821 0)
(10.076 0.0454776 0)
(10.0831 0.0444567 0)
(10.0899 0.0430587 0)
(10.0963 0.0413057 0)
(10.1023 0.0391918 0)
(10.1079 0.0367105 0)
(10.1131 0.0338657 0)
(10.1176 0.0307213 0)
(10.1214 0.0274152 0)
(10.0004 0.00643237 0)
(10.0045 0.0189645 0)
(10.0124 0.028076 0)
(10.0216 0.0337408 0)
(10.0303 0.03762 0)
(10.0387 0.0402844 0)
(10.0471 0.0417782 0)
(10.0551 0.0423459 0)
(10.0627 0.0422732 0)
(10.0699 0.0417125 0)
(10.0768 0.0407356 0)
(10.0832 0.0393872 0)
(10.0894 0.0376973 0)
(10.0951 0.0356784 0)
(10.1005 0.0333435 0)
(10.1053 0.0307205 0)
(10.1096 0.0278755 0)
(10.1134 0.0249313 0)
(10.0004 0.00564865 0)
(10.0039 0.0164752 0)
(10.0107 0.0247241 0)
(10.0188 0.0301363 0)
(10.0269 0.0338279 0)
(10.0348 0.0363573 0)
(10.0427 0.0378243 0)
(10.0503 0.0384179 0)
(10.0575 0.038378 0)
(10.0644 0.0378536 0)
(10.0709 0.0369207 0)
(10.0771 0.0356281 0)
(10.083 0.0340129 0)
(10.0885 0.0321013 0)
(10.0935 0.0299204 0)
(10.0981 0.02751 0)
(10.1023 0.0249332 0)
(10.1059 0.0222941 0)
(10.0003 0.00494835 0)
(10.0034 0.0143754 0)
(10.0093 0.0218054 0)
(10.0166 0.0268938 0)
(10.0241 0.0303754 0)
(10.0316 0.0327501 0)
(10.039 0.0341557 0)
(10.0462 0.0347474 0)
(10.0531 0.0347253 0)
(10.0597 0.0342294 0)
(10.066 0.0333378 0)
(10.0719 0.0321027 0)
(10.0775 0.0305659 0)
(10.0828 0.0287622 0)
(10.0876 0.026727 0)
(10.092 0.0245046 0)
(10.096 0.0221521 0)
(10.0995 0.0197585 0)
(10.0003 0.00429195 0)
(10.003 0.0124548 0)
(10.0081 0.0190505 0)
(10.0147 0.023733 0)
(10.0217 0.0269685 0)
(10.0287 0.0291678 0)
(10.0356 0.030485 0)
(10.0425 0.0310534 0)
(10.0491 0.0310378 0)
(10.0554 0.0305659 0)
(10.0614 0.029716 0)
(10.0671 0.028542 0)
(10.0725 0.0270893 0)
(10.0775 0.0253977 0)
(10.0821 0.023507 0)
(10.0863 0.0214628 0)
(10.0901 0.0193153 0)
(10.0936 0.0171423 0)
(10.0003 0.00360724 0)
(10.0026 0.0104522 0)
(10.007 0.0160962 0)
(10.0129 0.0202364 0)
(10.0192 0.0231342 0)
(10.0257 0.0250964 0)
(10.0322 0.0262752 0)
(10.0386 0.0267854 0)
(10.0449 0.0267581 0)
(10.0509 0.026304 0)
(10.0566 0.0254985 0)
(10.062 0.0243962 0)
(10.0671 0.0230435 0)
(10.0719 0.0214827 0)
(10.0763 0.0197549 0)
(10.0803 0.0179041 0)
(10.084 0.0159732 0)
(10.0873 0.0140286 0)
(10.0002 0.00289143 0)
(10.0022 0.00836663 0)
(10.006 0.012956 0)
(10.0111 0.0164157 0)
(10.0168 0.018867 0)
(10.0228 0.020516 0)
(10.0288 0.0214953 0)
(10.0348 0.0219012 0)
(10.0406 0.0218344 0)
(10.0463 0.0213856 0)
(10.0517 0.0206233 0)
(10.0568 0.0196001 0)
(10.0617 0.0183609 0)
(10.0662 0.0169469 0)
(10.0704 0.0153975 0)
(10.0742 0.0137525 0)
(10.0777 0.0120474 0)
(10.081 0.0103378 0)
(10.0002 0.00214598 0)
(10.0019 0.0062043 0)
(10.0051 0.00964498 0)
(10.0096 0.0122864 0)
(10.0147 0.0141681 0)
(10.02 0.0154126 0)
(10.0256 0.0161191 0)
(10.0311 0.016363 0)
(10.0366 0.0162178 0)
(10.0419 0.0157528 0)
(10.0469 0.0150256 0)
(10.0517 0.0140824 0)
(10.0563 0.0129635 0)
(10.0606 0.0117061 0)
(10.0645 0.0103447 0)
(10.0682 0.00891278 0)
(10.0716 0.00743854 0)
(10.0747 0.00596794 0)
(10.0002 0.00137099 0)
(10.0016 0.00395769 0)
(10.0044 0.00615626 0)
(10.0083 0.00784537 0)
(10.0128 0.00902731 0)
(10.0177 0.00976322 0)
(10.0228 0.0101139 0)
(10.0279 0.0101294 0)
(10.0329 0.00985795 0)
(10.0378 0.00934686 0)
(10.0426 0.00863818 0)
(10.0471 0.00776795 0)
(10.0514 0.0067683 0)
(10.0554 0.00566881 0)
(10.0592 0.00449698 0)
(10.0627 0.00327875 0)
(10.0659 0.00203482 0)
(10.0689 0.000802044 0)
(10.0002 0.000553239 0)
(10.0014 0.00158224 0)
(10.0039 0.00242767 0)
(10.0074 0.00302629 0)
(10.0115 0.00337147 0)
(10.0159 0.003483 0)
(10.0206 0.00338366 0)
(10.0253 0.00309503 0)
(10.0301 0.00264028 0)
(10.0347 0.00204362 0)
(10.0391 0.00132817 0)
(10.0434 0.000515421 0)
(10.0474 -0.000374323 0)
(10.0513 -0.00132165 0)
(10.0549 -0.00230823 0)
(10.0582 -0.00331661 0)
(10.0614 -0.00433345 0)
(10.0643 -0.00533075 0)
(10.0001 -0.000347647 0)
(10.0013 -0.00103684 0)
(10.0037 -0.00170383 0)
(10.0069 -0.00234965 0)
(10.0109 -0.00297508 0)
(10.0151 -0.00359573 0)
(10.0196 -0.00423071 0)
(10.0241 -0.00489127 0)
(10.0286 -0.00558131 0)
(10.033 -0.00630178 0)
(10.0372 -0.00705156 0)
(10.0413 -0.0078272 0)
(10.0452 -0.00862303 0)
(10.0489 -0.00943219 0)
(10.0524 -0.0102471 0)
(10.0556 -0.0110597 0)
(10.0587 -0.0118642 0)
(10.0615 -0.012642 0)
(10.0001 -0.00119749 0)
(10.0014 -0.00351581 0)
(10.0038 -0.00562436 0)
(10.0073 -0.00744383 0)
(10.0114 -0.00896465 0)
(10.0157 -0.0102489 0)
(10.0202 -0.0113622 0)
(10.0248 -0.0123466 0)
(10.0293 -0.0132339 0)
(10.0337 -0.0140528 0)
(10.0379 -0.0148255 0)
(10.0419 -0.0155654 0)
(10.0458 -0.0162801 0)
(10.0494 -0.0169736 0)
(10.0529 -0.0176477 0)
(10.0561 -0.0183018 0)
(10.0591 -0.018936 0)
(10.062 -0.0195389 0)
(10.0002 -0.00191795 0)
(10.0015 -0.00565336 0)
(10.0042 -0.00902065 0)
(10.0081 -0.0117956 0)
(10.0125 -0.0139845 0)
(10.0171 -0.0157496 0)
(10.0218 -0.0172065 0)
(10.0266 -0.0184096 0)
(10.0312 -0.0194109 0)
(10.0357 -0.0202681 0)
(10.04 -0.0210263 0)
(10.044 -0.0217135 0)
(10.0479 -0.022348 0)
(10.0516 -0.0229422 0)
(10.055 -0.0235043 0)
(10.0583 -0.0240386 0)
(10.0613 -0.0245484 0)
(10.0641 -0.0250269 0)
(10.0002 -0.00258509 0)
(10.0017 -0.00774018 0)
(10.0048 -0.012404 0)
(10.0092 -0.0160467 0)
(10.0142 -0.0187428 0)
(10.0192 -0.0208434 0)
(10.0242 -0.0225301 0)
(10.0292 -0.0238668 0)
(10.034 -0.0249266 0)
(10.0387 -0.0257895 0)
(10.043 -0.0265132 0)
(10.0472 -0.0271349 0)
(10.0511 -0.0276816 0)
(10.0548 -0.028174 0)
(10.0583 -0.028626 0)
(10.0615 -0.0290462 0)
(10.0646 -0.02944 0)
(10.0675 -0.0298033 0)
(10.0001 -0.00317947 0)
(10.0017 -0.00981644 0)
(10.0054 -0.0157956 0)
(10.0107 -0.020218 0)
(10.0164 -0.0233821 0)
(10.0218 -0.0257776 0)
(10.0272 -0.0275792 0)
(10.0324 -0.0289044 0)
(10.0375 -0.0299094 0)
(10.0423 -0.0307106 0)
(10.0468 -0.0313668 0)
(10.051 -0.0319133 0)
(10.055 -0.0323799 0)
(10.0588 -0.0327903 0)
(10.0623 -0.0331606 0)
(10.0656 -0.0334999 0)
(10.0687 -0.0338148 0)
(10.0717 -0.0341037 0)
(10.0001 -0.00365429 0)
(10.0016 -0.0122906 0)
(10.006 -0.0193271 0)
(10.0124 -0.0239256 0)
(10.0187 -0.0274219 0)
(10.0246 -0.0302836 0)
(10.0305 -0.0323398 0)
(10.0361 -0.0336855 0)
(10.0414 -0.0345999 0)
(10.0464 -0.0352715 0)
(10.051 -0.0357801 0)
(10.0554 -0.0361731 0)
(10.0596 -0.0364904 0)
(10.0635 -0.0367622 0)
(10.0671 -0.0370066 0)
(10.0705 -0.0372334 0)
(10.0737 -0.0374475 0)
(10.0767 -0.0376414 0)
(9.9998 -0.00329498 0)
(10.0011 -0.0159078 0)
(10.0069 -0.0245804 0)
(10.0142 -0.0283466 0)
(10.0208 -0.0310943 0)
(10.0273 -0.0338337 0)
(10.0338 -0.0360387 0)
(10.0402 -0.0375943 0)
(10.046 -0.0387062 0)
(10.0514 -0.0395234 0)
(10.0565 -0.0401143 0)
(10.0612 -0.0405353 0)
(10.0656 -0.0408403 0)
(10.0697 -0.0410714 0)
(10.0736 -0.0412561 0)
(10.0772 -0.0414121 0)
(10.0806 -0.0415511 0)
(10.0837 -0.0416722 0)
(9.99825 0.000385902 0)
(9.99792 -0.0167125 0)
(10.0067 -0.0303407 0)
(10.0165 -0.0360454 0)
(10.0241 -0.0383623 0)
(10.0312 -0.0395364 0)
(10.0388 -0.0401511 0)
(10.0461 -0.0405718 0)
(10.0529 -0.0409704 0)
(10.0591 -0.0413498 0)
(10.0649 -0.0416757 0)
(10.0702 -0.0419516 0)
(10.0751 -0.0421896 0)
(10.0795 -0.0424067 0)
(10.0837 -0.0426109 0)
(10.0875 -0.042811 0)
(10.091 -0.0430072 0)
(10.0942 -0.0431728 0)
(9.99406 0.00309139 0)
(9.99016 -0.0068378 0)
(10.004 -0.0217136 0)
(10.0201 -0.0369476 0)
(10.0324 -0.0482095 0)
(10.0428 -0.054016 0)
(10.0525 -0.0561202 0)
(10.0612 -0.0564926 0)
(10.069 -0.0561594 0)
(10.076 -0.0554586 0)
(10.0824 -0.0545859 0)
(10.088 -0.0536525 0)
(10.0931 -0.0527494 0)
(10.0976 -0.0519101 0)
(10.1015 -0.0511671 0)
(10.105 -0.0505269 0)
(10.1082 -0.0499998 0)
(10.111 -0.0495329 0)
(9.99474 -0.0304072 0)
(9.99684 -0.0138981 0)
(10.0127 0.0179128 0)
(10.0326 0.0252248 0)
(10.0524 0.0160771 0)
(10.0709 0.0038729 0)
(10.0865 -0.0066475 0)
(10.099 -0.0153316 0)
(10.1088 -0.022356 0)
(10.1163 -0.0279068 0)
(10.1221 -0.0321689 0)
(10.1262 -0.0354298 0)
(10.129 -0.0379076 0)
(10.1306 -0.0397991 0)
(10.1312 -0.0412465 0)
(10.131 -0.0423916 0)
(10.1302 -0.0433401 0)
(10.1286 -0.0441924 0)
(10.0376 -0.214616 0)
(10.1071 -0.370477 0)
(10.1387 -0.350007 0)
(10.1484 -0.288477 0)
(10.156 -0.233287 0)
(10.1625 -0.189662 0)
(10.1638 -0.156112 0)
(10.1584 -0.130733 0)
(10.1473 -0.111694 0)
(10.1319 -0.0972143 0)
(10.1133 -0.086044 0)
(10.0921 -0.077288 0)
(10.0693 -0.0703688 0)
(10.0451 -0.0648285 0)
(10.0203 -0.0603644 0)
(9.99515 -0.0567829 0)
(9.96996 -0.0539448 0)
(9.94524 -0.0521437 0)
(9.92762 0.783773 0)
(9.83967 0.760191 0)
(9.70768 0.53356 0)
(9.53331 0.350269 0)
(9.34937 0.225564 0)
(9.17403 0.144097 0)
(9.0113 0.0912401 0)
(8.8618 0.0565108 0)
(8.72538 0.0333952 0)
(8.60165 0.0178626 0)
(8.4893 0.00732573 0)
(8.38727 0.000185455 0)
(8.29421 -0.00461573 0)
(8.20929 -0.00784623 0)
(8.13142 -0.00999252 0)
(8.0599 -0.0114312 0)
(7.99352 -0.0124224 0)
(7.93202 -0.0135204 0)
(-0.00385949 0.0106889 -1.04856e-18)
(-0.0175238 0.0169484 1.03961e-18)
(-0.0358639 0.0177019 0)
(-0.0556454 0.0141762 0)
(-0.0705551 0.00612751 0)
(-0.0700753 -0.00605545 -6.67707e-19)
(-0.0498443 -0.0221472 0)
(-0.0154959 -0.0388774 0)
(0.0287383 -0.0509426 0)
(0.0790706 -0.0559133 0)
(0.132015 -0.0549217 3.66406e-19)
(0.182881 -0.0496738 0)
(0.227804 -0.0415083 0)
(0.264553 -0.0314722 0)
(0.291947 -0.0202415 0)
(0.309265 -0.00827783 2.1e-19)
(0.316659 0.00435676 0)
(0.312448 0.0172019 0)
(0.297176 0.0293641 0)
(0.271848 0.0395657 0)
(0.237676 0.0464694 0)
(0.196455 0.0488505 0)
(0.150836 0.0457604 0)
(0.104247 0.036839 4.49389e-19)
(0.0607405 0.0228999 -6.12251e-19)
(0.024747 0.0072108 8.9437e-19)
(-0.000464844 -0.00371117 1.20293e-18)
(-0.0166253 -0.00538157 0)
(-0.0271678 -0.00179444 0)
(-0.034425 0.0018947 -9.80848e-19)
(-0.0402249 0.0026331 -9.39016e-19)
(-0.0432326 -0.000413909 0)
(-0.0385143 -0.00680034 0)
(-0.0239217 -0.0149844 -1.04859e-18)
(0.000178926 -0.0230986 0)
(0.029984 -0.0274607 0)
(0.0603649 -0.0256244 6.50815e-19)
(0.0870495 -0.0191497 0)
(0.10577 -0.0108629 5.02404e-19)
(0.115081 -0.00369148 9.78404e-19)
(0.116998 0.00199561 0)
(0.116102 0.0036528 0)
(0.127508 -0.0117134 0)
(0.143421 -0.0351734 0)
(0.152012 -0.0578741 0)
(0.138135 -0.0654641 8.12266e-19)
(0.0941821 -0.0480962 9.65553e-19)
(0.0165339 -0.0068085 9.84093e-19)
(-0.115083 0.0488577 0)
(-0.270528 0.0923589 -3.56429e-19)
(-0.439019 0.121263 0)
(-0.614476 0.13759 1.93255e-19)
(-0.78989 0.143725 1.58668e-19)
(-0.959451 0.141923 0)
(-1.11919 0.134594 0)
(-1.26647 0.123847 0)
(-1.40006 0.111438 1.01856e-19)
(-1.51971 0.0986614 0)
(-1.62594 0.0863947 0)
(-1.71976 0.0751649 0)
(-1.80245 0.0652404 0)
(-1.87537 0.0566973 0)
(-1.93984 0.0494882 0)
(-1.99724 0.0434627 0)
(-2.04867 0.0384509 0)
(-2.0951 0.0342949 -7.55107e-20)
(-2.13735 0.0308458 0)
(-2.17608 0.0279764 0)
(-2.21187 0.0255753 7.2137e-20)
(-2.24516 0.0235554 7.1163e-20)
(-2.27633 0.0218406 0)
(-2.30567 0.0203719 -6.93545e-20)
(-2.33341 0.0190997 6.85023e-20)
(-2.35976 0.0179859 0)
(-2.38487 0.0169985 -6.68697e-20)
(-2.40885 0.0161129 0)
(-2.4318 0.0153085 0)
(-2.45381 0.0145692 6.45384e-20)
(-2.47493 0.0138816 0)
(-2.49519 0.0132347 -6.30289e-20)
(-2.51465 0.0126195 0)
(-2.53331 0.0120285 6.15368e-20)
(-2.5512 0.0114552 6.07934e-20)
(-2.56832 0.0108936 6.00502e-20)
(-2.58468 0.0103385 1.18612e-19)
(-2.60026 0.00978451 -1.1712e-19)
(-2.61507 0.00922634 0)
(-2.62909 0.00865788 0)
(-2.64229 0.00807284 0)
(-2.65466 0.00746404 -1.11084e-19)
(-2.66617 0.00682333 -1.09551e-19)
(-2.67677 0.00614326 1.08006e-19)
(-2.68643 0.00541768 0)
(-2.69511 0.00464535 -1.04877e-19)
(-2.70274 0.00383496 -1.03292e-19)
(-2.70927 0.0030114 -1.01694e-19)
(-2.71463 0.00221349 0)
(-2.71871 0.00148067 0)
(-2.72147 0.000844852 0)
(-2.72307 0.000306499 -9.51118e-20)
(-2.7237 -0.00018709 0)
(-2.72332 -0.000677352 0)
(-2.72194 -0.0011699 8.9802e-20)
(-2.71953 -0.00166856 0)
(-2.71605 -0.00217334 0)
(-2.71149 -0.00268531 8.41211e-20)
(-2.7058 -0.00320395 0)
(-2.69897 -0.00373013 0)
(-2.69096 -0.00426324 -7.8007e-20)
(-2.68174 -0.00480418 -7.58606e-20)
(-2.67128 -0.00535222 0)
(-2.65955 -0.00590827 7.13876e-20)
(-2.64652 -0.00647146 0)
(-2.63217 -0.0070427 -6.66517e-20)
(-2.61646 -0.00762116 0)
(-2.59937 -0.00820787 -6.16227e-20)
(-2.58087 -0.00880203 -5.89875e-20)
(-2.56093 -0.00940433 0)
(-2.53954 -0.0100136 0)
(-2.51666 -0.0106304 0)
(-2.49228 -0.0112539 0)
(-2.46637 -0.0118845 0)
(-2.43893 -0.0125217 0)
(-2.40993 -0.0131651 0)
(-2.37938 -0.0138136 -3.43185e-20)
(-2.34725 -0.0144656 3.06906e-20)
(-2.31355 -0.0151189 0)
(-2.27828 -0.0157712 0)
(-2.24145 -0.0164234 0)
(-2.20306 -0.0170772 0)
(-2.16313 -0.0177043 2.03563e-20)
(-2.12169 -0.0183571 0)
(-2.07873 -0.0189935 -1.36553e-21)
(-2.03434 -0.0196355 -8.77204e-21)
(-1.98846 -0.0202821 0)
(-1.94123 -0.020899 0)
(-1.89262 -0.0215368 0)
(-1.84272 -0.0221122 5.41582e-20)
(-1.7916 -0.0226779 6.68502e-20)
(-1.73931 -0.0232269 0)
(-1.68591 -0.0237475 9.40658e-20)
(-1.63148 -0.0242458 1.0866e-19)
(-1.57609 -0.0247332 -1.23979e-19)
(-1.51977 -0.025189 0)
(-1.46268 -0.0255956 0)
(-1.40487 -0.0259728 -1.74557e-19)
(-1.34645 -0.0263125 0)
(-1.28751 -0.026616 0)
(-1.22813 -0.0268818 0)
(-1.16841 -0.0271105 0)
(-1.10843 -0.0273003 2.77584e-19)
(-1.04828 -0.0274523 3.01592e-19)
(-0.988036 -0.0275674 0)
(-0.927771 -0.0276489 3.53712e-19)
(-0.867557 -0.027699 0)
(-0.807457 -0.0277221 0)
(-0.747519 -0.0277226 4.44037e-19)
(-0.687792 -0.0277039 0)
(-0.628315 -0.0276699 5.14233e-19)
(-0.569116 -0.0276285 0)
(-0.510217 -0.0275841 0)
(-0.45163 -0.0275449 6.39281e-19)
(-0.393358 -0.0275183 0)
(-0.335397 -0.0275097 7.40096e-19)
(-0.277734 -0.0275231 0)
(-0.220349 -0.0275987 0)
(-0.163221 -0.0277486 0)
(-0.106352 -0.0279503 -1.00647e-18)
(-0.0497658 -0.0281671 0)
(0.00633882 -0.0281188 1.16664e-18)
(0.0615374 -0.0273477 0)
(0.115999 -0.0261218 0)
(0.169944 -0.0248931 0)
(0.223124 -0.0236849 0)
(0.275402 -0.0224331 0)
(0.326154 -0.0210307 0)
(0.375548 -0.0192813 0)
(0.417976 -0.0165314 -1.79852e-18)
(0.464924 -0.0136641 0)
(0.462122 0.00081722 0)
(3.24524e-05 0.0279392 3.14561e-18)
(-0.0074231 0.0470137 -3.07932e-18)
(-0.0163574 0.048356 0)
(-0.0174204 0.0371514 2.22468e-18)
(0.000891609 0.0106724 0)
(0.0396293 -0.0361567 6.31075e-19)
(0.0890989 -0.0891215 -7.73985e-19)
(0.144867 -0.13202 -5.49861e-19)
(0.202219 -0.157624 0)
(0.256749 -0.165543 -3.62778e-19)
(0.305495 -0.159207 -1.59855e-19)
(0.347239 -0.14309 0)
(0.381598 -0.120976 0)
(0.408576 -0.0955878 0)
(0.428424 -0.068671 0)
(0.4416 -0.0412125 -1.30586e-19)
(0.448314 -0.013775 0)
(0.449811 0.0135517 2.65264e-19)
(0.445802 0.0402494 0)
(0.435665 0.0655311 0)
(0.418609 0.08826 -2.80272e-19)
(0.393876 0.106871 0)
(0.360947 0.119408 3.15649e-19)
(0.319971 0.123831 -1.73606e-19)
(0.271992 0.11865 1.98215e-19)
(0.219259 0.103923 -2.36471e-19)
(0.165298 0.082002 -2.96712e-19)
(0.114457 0.0568929 0)
(0.0722726 0.0328374 0)
(0.0437028 0.0133448 7.18984e-19)
(0.0300521 -0.00176536 -9.16312e-19)
(0.0316118 -0.0167457 0)
(0.0450504 -0.0351627 0)
(0.0683699 -0.0574373 5.24605e-19)
(0.0978236 -0.0765569 0)
(0.125643 -0.0825475 0)
(0.145514 -0.0740188 -2.99825e-19)
(0.155635 -0.0559297 0)
(0.156202 -0.0340505 3.16401e-19)
(0.150921 -0.019323 -6.84017e-19)
(0.141249 -0.0209871 0)
(0.119612 -0.0308429 0)
(0.070403 -0.0304204 -2.01201e-18)
(-0.0470669 0.0192907 -1.48282e-18)
(-0.229857 0.105333 -7.74833e-19)
(-0.421153 0.183383 2.43209e-19)
(-0.617756 0.251967 -1.74238e-19)
(-0.811655 0.308533 -4.08051e-19)
(-0.999563 0.348631 2.25171e-19)
(-1.17416 0.368387 9.65349e-20)
(-1.33243 0.370471 0)
(-1.47216 0.358656 -7.89057e-20)
(-1.59248 0.336913 7.57298e-20)
(-1.6941 0.309115 0)
(-1.77884 0.278455 0)
(-1.84911 0.24744 0)
(-1.90756 0.217783 -6.36271e-20)
(-1.95667 0.190555 0)
(-1.9986 0.166288 1.23165e-19)
(-2.03513 0.145136 0)
(-2.06762 0.127003 1.18973e-19)
(-2.09706 0.111663 0)
(-2.12416 0.0988097 -1.15459e-19)
(-2.14942 0.0880897 0)
(-2.17318 0.0791539 1.12358e-19)
(-2.19569 0.0716912 -5.55079e-20)
(-2.21712 0.0654322 0)
(-2.2376 0.0601499 -1.08171e-19)
(-2.25723 0.0556579 -5.34318e-20)
(-2.27608 0.0518038 -5.28024e-20)
(-2.2942 0.0484618 0)
(-2.31163 0.0455317 -5.15249e-20)
(-2.32841 0.0429324 -5.09671e-20)
(-2.34456 0.040599 0)
(-2.3601 0.0384789 4.97717e-20)
(-2.37504 0.0365301 -9.82935e-20)
(-2.38939 0.0347185 0)
(-2.40316 0.0330166 -4.79969e-20)
(-2.41634 0.0314018 0)
(-2.42894 0.0298558 1.40384e-19)
(-2.44095 0.0283636 0)
(-2.45236 0.0269127 -1.36826e-19)
(-2.46317 0.0254929 -4.50296e-20)
(-2.47337 0.0240955 4.43799e-20)
(-2.48294 0.0227135 8.7558e-20)
(-2.49188 0.0213407 -8.63479e-20)
(-2.50016 0.0199725 0)
(-2.50778 0.0186041 0)
(-2.51472 0.0172322 0)
(-2.52097 0.0158526 2.44314e-19)
(-2.52652 0.0144606 8.01791e-20)
(-2.53136 0.0130508 -7.88928e-20)
(-2.53548 0.0116153 0)
(-2.53889 0.0101442 -7.62847e-20)
(-2.54158 0.00862753 7.49512e-20)
(-2.5436 0.00706492 7.36108e-20)
(-2.54498 0.00547492 0)
(-2.5458 0.00389879 0)
(-2.54611 0.00238782 0)
(-2.54574 0.000956663 6.80099e-20)
(-2.54445 -0.000438543 0)
(-2.5422 -0.00183449 -1.30181e-19)
(-2.53896 -0.00323928 -1.90674e-19)
(-2.53469 -0.00465785 1.24075e-19)
(-2.52936 -0.00609078 0)
(-2.52295 -0.00753859 5.89575e-20)
(-2.51542 -0.00900046 0)
(-2.50675 -0.0104766 1.11203e-19)
(-2.4969 -0.0119659 -5.40237e-20)
(-2.48584 -0.0134685 -5.23163e-20)
(-2.47356 -0.014983 0)
(-2.46001 -0.0165093 -1.45859e-19)
(-2.44517 -0.0180456 9.36857e-20)
(-2.42901 -0.0195913 4.48275e-20)
(-2.4115 -0.0211443 0)
(-2.39262 -0.022704 4.09661e-20)
(-2.37234 -0.0242681 1.17291e-19)
(-2.35064 -0.0258354 0)
(-2.32748 -0.0274029 7.0115e-20)
(-2.30286 -0.0289686 6.587e-20)
(-2.27675 -0.030529 6.15246e-20)
(-2.24913 -0.0320821 0)
(-2.22 -0.0336242 0)
(-2.18932 -0.0351525 0)
(-2.1571 -0.0366628 -2.18188e-20)
(-2.12334 -0.0381514 -1.87627e-20)
(-2.08801 -0.0396141 0)
(-2.05114 -0.0410465 -2.79281e-20)
(-2.01273 -0.0424454 -2.26193e-20)
(-1.97277 -0.0438071 0)
(-1.9313 -0.0451289 -1.08005e-20)
(-1.88833 -0.0464033 -1.16538e-20)
(-1.84389 -0.0476259 -9.10542e-22)
(-1.798 -0.0487916 -5.25716e-21)
(-1.75071 -0.0498966 0)
(-1.70207 -0.0509359 0)
(-1.65212 -0.0519024 0)
(-1.60092 -0.0527934 -3.2992e-20)
(-1.54852 -0.0536113 3.78327e-20)
(-1.49499 -0.0543489 9.18594e-20)
(-1.4404 -0.0550013 -5.42604e-20)
(-1.38481 -0.0555756 5.94382e-20)
(-1.3283 -0.0560574 6.93171e-20)
(-1.27098 -0.0564415 0)
(-1.21291 -0.0567325 0)
(-1.1542 -0.0569258 -9.07324e-20)
(-1.09494 -0.0570267 0)
(-1.03521 -0.0570399 0)
(-0.975113 -0.0569666 2.34642e-19)
(-0.914737 -0.0568127 0)
(-0.854169 -0.0565806 1.33752e-19)
(-0.793495 -0.0562766 -1.45479e-19)
(-0.732796 -0.0559055 0)
(-0.672148 -0.0554762 1.61506e-19)
(-0.611622 -0.0549958 0)
(-0.55128 -0.0544719 0)
(-0.49118 -0.0539119 -1.93191e-19)
(-0.431371 -0.0533249 4.0365e-19)
(-0.371892 -0.0527184 -2.13177e-19)
(-0.312773 -0.0521037 0)
(-0.254034 -0.0514882 0)
(-0.195686 -0.050878 2.41482e-19)
(-0.137734 -0.0502818 0)
(-0.080171 -0.0497053 2.6259e-19)
(-0.022983 -0.0491481 0)
(0.0337916 -0.0486143 0)
(0.0901435 -0.0481003 0)
(0.146143 -0.0475883 2.8346e-19)
(0.201852 -0.0470542 0)
(0.257383 -0.0463846 -2.83317e-19)
(0.312792 -0.04544 0)
(0.368038 -0.0443343 0)
(0.423048 -0.043209 5.64214e-19)
(0.477731 -0.0420318 -5.63904e-19)
(0.531923 -0.0407002 0)
(0.585166 -0.039028 0)
(0.637398 -0.0365805 0)
(0.685586 -0.0327816 1.70062e-18)
(0.735653 -0.0266645 0)
(0.761148 -0.00855691 -1.18686e-18)
(0.000745038 0.0310999 4.18214e-22)
(0.00136586 0.0534721 4.29334e-18)
(0.00846807 0.0451658 0)
(0.0352362 0.00228831 -2.77083e-18)
(0.0880492 -0.0753982 0)
(0.15502 -0.159526 0)
(0.222601 -0.224886 -4.72976e-22)
(0.282077 -0.261151 3.11029e-19)
(0.330297 -0.269723 2.72454e-19)
(0.367483 -0.257279 2.47558e-19)
(0.395331 -0.231186 0)
(0.415862 -0.19747 0)
(0.430745 -0.160283 -2.16757e-19)
(0.441132 -0.122135 -4.26942e-19)
(0.447808 -0.0843766 4.26392e-19)
(0.451273 -0.0475883 0)
(0.451845 -0.012044 4.4096e-19)
(0.449782 0.0221393 -2.19156e-19)
(0.44544 0.0550412 0)
(0.439056 0.0866546 4.4398e-19)
(0.430606 0.116587 2.26317e-19)
(0.419579 0.143867 -4.70027e-19)
(0.404946 0.166833 -2.45409e-19)
(0.385273 0.183202 0)
(0.359164 0.19044 5.61871e-19)
(0.325927 0.186459 6.18147e-19)
(0.286439 0.170524 0)
(0.243621 0.143713 8.13966e-19)
(0.202452 0.108921 0)
(0.168489 0.0700885 1.18605e-18)
(0.146478 0.0300716 7.20951e-19)
(0.137863 -0.0105908 0)
(0.143375 -0.052412 0)
(0.157825 -0.0903126 0)
(0.167856 -0.110224 0)
(0.164381 -0.103637 0)
(0.147532 -0.0790064 0)
(0.115609 -0.0484736 1.1394e-18)
(0.0711381 -0.0158992 -2.08025e-18)
(0.0123829 0.021946 0)
(-0.113843 0.0840876 0)
(-0.289288 0.170379 0)
(-0.481784 0.262198 -3.53392e-22)
(-0.684001 0.352557 2.91432e-19)
(-0.883217 0.432251 4.62806e-19)
(-1.06544 0.491673 -3.88134e-19)
(-1.22569 0.532444 -1.6931e-19)
(-1.35941 0.554291 1.50405e-19)
(-1.46575 0.556968 1.67276e-21)
(-1.54753 0.542284 1.29613e-19)
(-1.60914 0.513632 0)
(-1.65535 0.475362 1.16423e-19)
(-1.69086 0.431659 1.88844e-21)
(-1.71966 0.386209 0)
(-1.74474 0.341811 0)
(-1.76812 0.300386 -9.99765e-20)
(-1.791 0.263028 0)
(-1.81392 0.230192 0)
(-1.83707 0.201871 9.27463e-20)
(-1.86038 0.177762 1.80324e-19)
(-1.88367 0.157412 -8.80398e-20)
(-1.90677 0.140327 0)
(-1.92949 0.126009 8.49954e-20)
(-1.9517 0.113998 0)
(-1.9733 0.103885 8.2389e-20)
(-1.99423 0.0953227 8.11126e-20)
(-2.01447 0.0880264 -1.59834e-19)
(-2.034 0.0817567 -7.8733e-20)
(-2.05284 0.0763185 0)
(-2.071 0.0715534 1.53247e-19)
(-2.0885 0.0673324 0)
(-2.10535 0.0635521 2.23823e-19)
(-2.12158 0.0601286 1.47183e-19)
(-2.1372 0.0569937 1.4523e-19)
(-2.15223 0.0540918 -1.433e-19)
(-2.16669 0.0513778 2.12159e-19)
(-2.18057 0.0488147 0)
(-2.19389 0.0463722 0)
(-2.20665 0.0440253 -1.35714e-19)
(-2.21885 0.0417535 -2.00818e-19)
(-2.23049 0.0395399 0)
(-2.24156 0.03737 6.50962e-20)
(-2.25206 0.0352322 0)
(-2.26198 0.0331163 -1.8949e-19)
(-2.27131 0.0310141 -9.87388e-23)
(-2.28004 0.0289187 9.01294e-23)
(-2.28816 0.0268244 1.20563e-19)
(-2.29566 0.0247267 0)
(-2.30253 0.0226222 -1.1669e-19)
(-2.30875 0.0205084 -5.40276e-23)
(-2.31431 0.0183838 0)
(-2.3192 0.0162485 0)
(-2.32342 0.0141041 0)
(-2.32696 0.0119542 1.06782e-19)
(-2.3298 0.00980479 0)
(-2.33195 0.00766284 0)
(-2.33338 0.00553256 0)
(-2.33404 0.00340842 0)
(-2.3339 0.00126713 0)
(-2.3329 -0.000914143 9.41099e-20)
(-2.33099 -0.00313132 0)
(-2.32815 -0.00537305 8.95506e-20)
(-2.32433 -0.00763846 8.7257e-20)
(-2.31952 -0.00992746 -8.49336e-20)
(-2.31369 -0.01224 0)
(-2.30679 -0.0145752 -8.01939e-20)
(-2.29881 -0.0169328 0)
(-2.28971 -0.0193116 -7.53239e-20)
(-2.27946 -0.0217108 7.28377e-20)
(-2.26804 -0.0241294 2.11332e-19)
(-2.25542 -0.0265661 0)
(-2.24157 -0.0290192 1.95932e-19)
(-2.22646 -0.0314871 6.30046e-20)
(-2.21006 -0.0339676 0)
(-2.19234 -0.0364584 1.1482e-19)
(-2.17329 -0.0389569 1.0934e-19)
(-2.15286 -0.0414603 -1.55357e-19)
(-2.13104 -0.0439654 0)
(-2.10781 -0.0464683 -4.5848e-20)
(-2.08314 -0.048965 -4.29115e-20)
(-2.05702 -0.0514509 -1.20537e-19)
(-2.02942 -0.0539212 0)
(-2.00033 -0.0563706 0)
(-1.96974 -0.0587936 0)
(-1.93764 -0.0611839 -2.83977e-20)
(-1.90402 -0.0635351 0)
(-1.86889 -0.0658401 0)
(-1.83223 -0.0680924 1.75906e-20)
(-1.79407 -0.0702854 1.41795e-20)
(-1.75441 -0.0724129 0)
(-1.71326 -0.074467 0)
(-1.67065 -0.0764411 7.19741e-21)
(-1.62661 -0.078325 0)
(-1.58116 -0.0801113 7.49102e-21)
(-1.53436 -0.0817926 1.36734e-20)
(-1.48623 -0.0833609 0)
(-1.43684 -0.0848106 0)
(-1.38623 -0.0861319 -3.6774e-20)
(-1.33447 -0.0873243 -1.4919e-21)
(-1.28163 -0.088381 -1.52794e-21)
(-1.22777 -0.0892902 0)
(-1.17296 -0.0900589 -1.39661e-19)
(-1.11728 -0.0906849 0)
(-1.06085 -0.0911519 0)
(-1.00371 -0.0914587 0)
(-0.945985 -0.0916082 1.04389e-19)
(-0.887748 -0.0916036 0)
(-0.829097 -0.0914519 -2.39852e-19)
(-0.770123 -0.0911569 -1.30361e-19)
(-0.710917 -0.0907265 0)
(-0.651566 -0.0901668 -1.47853e-19)
(-0.592154 -0.0894863 0)
(-0.532761 -0.0886943 0)
(-0.473459 -0.0878029 -5.18926e-19)
(-0.414318 -0.0868236 3.62261e-19)
(-0.355398 -0.085769 0)
(-0.296752 -0.0846522 3.97013e-19)
(-0.238425 -0.0834862 -2.08817e-19)
(-0.180452 -0.0822826 0)
(-0.122858 -0.0810547 0)
(-0.0656591 -0.0798161 0)
(-0.00885595 -0.07858 -7.23141e-19)
(0.0475479 -0.0773661 0)
(0.103553 -0.0761814 -2.51524e-19)
(0.1592 -0.0750174 0)
(0.214522 -0.0738613 0)
(0.269554 -0.072722 0)
(0.324346 -0.0716143 0)
(0.378959 -0.0705281 0)
(0.433469 -0.0694376 0)
(0.487952 -0.068332 -5.38503e-19)
(0.542425 -0.067191 0)
(0.596848 -0.0659848 -2.74503e-19)
(0.651143 -0.0646553 8.2694e-19)
(0.705178 -0.063064 0)
(0.75862 -0.0609619 0)
(0.811457 -0.0578646 -5.62365e-19)
(0.861805 -0.0530469 -5.69375e-19)
(0.913945 -0.0453902 5.75129e-19)
(0.952617 -0.0269891 5.95499e-19)
(-0.00201741 0.0323293 -6.27234e-18)
(0.00169568 0.0374751 -6.89906e-18)
(0.032267 -0.0204633 -2.71305e-18)
(0.0980589 -0.131175 -6.85738e-19)
(0.178122 -0.242189 0)
(0.251346 -0.319222 6.45509e-19)
(0.306928 -0.353952 -2.69076e-19)
(0.343939 -0.353637 0)
(0.366355 -0.330239 -2.17523e-19)
(0.379084 -0.294251 0)
(0.386085 -0.252731 3.89851e-19)
(0.38985 -0.209566 0)
(0.391713 -0.166593 1.84858e-19)
(0.392264 -0.124571 3.69282e-19)
(0.391727 -0.0838362 -3.73634e-19)
(0.390173 -0.0445085 0)
(0.387622 -0.00663174 -3.95477e-19)
(0.384168 0.0297704 0)
(0.379812 0.0647134 0)
(0.374627 0.0981877 -4.01301e-19)
(0.368765 0.130064 0)
(0.362274 0.159928 -1.16198e-21)
(0.354952 0.186893 0)
(0.346173 0.209363 0)
(0.334887 0.224984 8.12257e-22)
(0.319793 0.230797 -5.36069e-19)
(0.29995 0.223952 -5.86773e-19)
(0.275637 0.202606 -6.55049e-19)
(0.248777 0.166916 0)
(0.223022 0.119218 -1.75524e-18)
(0.202412 0.0637722 0)
(0.189988 0.00531664 -1.20534e-18)
(0.184068 -0.0519451 0)
(0.169324 -0.087783 0)
(0.132944 -0.0876132 9.35522e-19)
(0.0757022 -0.0542046 0)
(0.00277434 0.0055672 -1.11964e-18)
(-0.113894 0.085802 -7.33868e-22)
(-0.269695 0.183002 1.10299e-18)
(-0.443631 0.288297 -7.64746e-19)
(-0.634568 0.395372 0)
(-0.825573 0.493339 0)
(-1.00256 0.572877 -1.90451e-19)
(-1.15583 0.630704 0)
(-1.28043 0.66584 -1.44385e-19)
(-1.37729 0.679739 1.31064e-19)
(-1.44831 0.675768 1.20847e-19)
(-1.49692 0.657347 0)