/*--------------------------------*- C++ -*----------------------------------*\
| =========                 |                                                 |
| \\      /  F ield         | OpenFOAM: The Open Source CFD Toolbox           |
|  \\    /   O peration     | Version:  2406                                  |
|   \\  /    A nd           | Website:  www.openfoam.com                      |
|    \\/     M anipulation  |                                                 |
\*---------------------------------------------------------------------------*/
FoamFile
{
    version     2.0;
    format      ascii;
    arch        "LSB;label=32;scalar=64";
    class       volScalarField;
    location    "1.5";
    object      nu;
}
// * * * * * * * * * * * * * * * * * * * * * * * * * * * * * * * * * * * * * //

dimensions      [0 2 -1 0 0 0 0];

internalField   nonuniform List<scalar> 
1800
(
0.0240754
0.0256081
0.0390265
0.058578
0.0174246
0.0121063
0.0103166
0.00935115
0.00906622
0.00854636
0.0238455
0.0348312
0.0427063
0.0202492
0.012446
0.0100793
0.00907118
0.00842828
0.00840901
0.00764079
0.0229068
0.060786
0.0174855
0.0111873
0.00926308
0.00844982
0.00806261
0.00779624
0.00794588
0.00754538
0.0251581
0.0173676
0.0106546
0.00869865
0.00795601
0.00764407
0.0075542
0.00757126
0.0078365
0.00783985
0.0333536
0.0111605
0.00848617
0.00764043
0.00733384
0.00729703
0.00743741
0.00771613
0.00820819
0.00862016
0.0144381
0.00874775
0.00747576
0.00709969
0.00708071
0.00729847
0.00772629
0.00838398
0.00934515
0.0105771
0.00987027
0.00756055
0.00693837
0.00687454
0.00713272
0.00768224
0.00857172
0.00988481
0.0117632
0.0138465
0.00800067
0.00691769
0.00668121
0.00690392
0.00750584
0.00855754
0.0101892
0.0124955
0.015542
0.0195518
0.00705345
0.00656467
0.00662764
0.00716568
0.0082366
0.0100523
0.0128733
0.0172214
0.0250265
0.0391689
0.00651399
0.00638927
0.00672688
0.00763924
0.00941675
0.0127948
0.0196018
0.0357478
0.0773897
0.0486473
0.0080529
0.0091704
0.0111525
0.0137194
0.0159314
0.0174755
0.0188201
0.0202419
0.0212833
0.0214536
0.00796538
0.00893279
0.0108419
0.0136788
0.0166034
0.0188142
0.0204689
0.0219014
0.0228816
0.0232846
0.00803432
0.0087475
0.0103725
0.0131083
0.0166789
0.020348
0.0237315
0.0268825
0.0294486
0.0296023
0.00831797
0.00864615
0.00981952
0.0119872
0.0151155
0.0188086
0.0224756
0.0256268
0.0277438
0.0279713
0.00899628
0.00869997
0.00933611
0.0107764
0.0128109
0.0150524
0.0170457
0.0185002
0.019261
0.0197907
0.010629
0.00904362
0.00908905
0.00991305
0.0111111
0.0123895
0.0135093
0.0143232
0.0147128
0.0150887
0.0155915
0.0100493
0.00925503
0.00956164
0.0102008
0.0108967
0.0115066
0.011955
0.0121691
0.0123491
0.0319545
0.0128635
0.0102044
0.00987263
0.010067
0.0103529
0.0105776
0.0106978
0.010715
0.0106726
0.0195691
0.0251832
0.0141492
0.0115832
0.0109059
0.0106664
0.0104275
0.0101647
0.00993238
0.00976274
0.0200336
0.0455628
0.0949252
0.0195259
0.0137334
0.0118461
0.0106887
0.00993824
0.00953919
0.00958711
0.0219249
0.0161842
0.0141253
0.0146488
0.0146425
0.0153442
0.0164245
0.0185988
0.0199034
0.0249776
0.0268896
0.0181
0.0159071
0.0154652
0.0144497
0.0146104
0.0154369
0.0174509
0.0187398
0.0234011
0.0282426
0.0285562
0.0197933
0.015236
0.0134698
0.0132975
0.0139575
0.0158248
0.0171973
0.0214133
0.0223149
0.0385838
0.0224255
0.0138279
0.0123519
0.0120748
0.0124477
0.0139464
0.0153168
0.0190919
0.0172428
0.0230941
0.0169457
0.0127779
0.0116643
0.0114134
0.0114882
0.0124566
0.0135281
0.0167397
0.0143935
0.015975
0.014202
0.0120243
0.0111422
0.0110969
0.0111128
0.011644
0.0122633
0.0147745
0.0126093
0.013084
0.0129558
0.0112435
0.0105427
0.0107354
0.0110198
0.0114066
0.0116384
0.0134587
0.0113417
0.0115639
0.0120038
0.0106316
0.0100923
0.0102887
0.0108803
0.0114748
0.0115686
0.0128322
0.0102698
0.0113022
0.0117346
0.010349
0.0100231
0.0100556
0.0106581
0.0115656
0.0118882
0.0128276
0.00957323
0.0103757
0.0106826
0.00997233
0.0101594
0.0101715
0.0105867
0.0116213
0.0124072
0.0133629
0.00930483
0.00990385
0.0101588
0.0101566
0.0106049
0.0106876
0.0108737
0.0118205
0.013111
0.0146642
0.00872932
0.0094097
0.00946165
0.0105437
0.0114478
0.0116253
0.0118465
0.0127756
0.014431
0.0174621
0.00915938
0.009497
0.0104446
0.0132472
0.012765
0.0120959
0.0126883
0.0142742
0.0164339
0.0223801
0.0106112
0.0107266
0.0133226
0.0189042
0.014119
0.0123495
0.0126261
0.0145857
0.0173607
0.0258416
0.0125427
0.0132782
0.0173459
0.0388596
0.0146617
0.0126665
0.0128794
0.0145197
0.0166746
0.0222915
0.0158617
0.0154716
0.018253
0.0174875
0.0119778
0.0111036
0.0115403
0.0128283
0.0142855
0.0169725
0.0189244
0.0148486
0.0134494
0.0102399
0.00921685
0.00930003
0.00991618
0.010878
0.0117722
0.0130498
0.0121745
0.0107491
0.00888146
0.00792461
0.00788388
0.00831891
0.00894735
0.00963795
0.0101457
0.0107216
0.00818733
0.0076213
0.00726053
0.00736697
0.00783738
0.00844412
0.00889967
0.00923769
0.00938584
0.00954433
0.00676984
0.00692193
0.00734567
0.00836292
0.0101714
0.0118189
0.0116783
0.0107396
0.00994987
0.00952503
0.0225338
0.0556408
0.0431047
0.020673
0.0147802
0.0113059
0.00922019
0.00854965
0.00795845
0.00842164
0.0196659
0.0250811
0.0334053
0.0437478
0.0203527
0.0191159
0.0124492
0.0111868
0.00921529
0.00851318
0.0199905
0.0204055
0.0223571
0.0226808
0.0228417
0.0189761
0.0172846
0.013444
0.012718
0.0102079
0.0192754
0.0186756
0.0206437
0.0186273
0.0220013
0.0171124
0.0197014
0.0148066
0.0159637
0.0127112
0.019223
0.0191392
0.0209294
0.0197092
0.0219725
0.0189547
0.0202015
0.0170669
0.017211
0.0151882
0.0176633
0.0185425
0.0190328
0.0205696
0.0207129
0.0226136
0.0218751
0.021484
0.0205976
0.0185762
0.0145024
0.0151065
0.0150395
0.0160929
0.0159886
0.0177314
0.0175644
0.0200157
0.0194224
0.0214979
0.0109778
0.0112778
0.0110729
0.0114798
0.0112948
0.0118567
0.0116718
0.0124088
0.0121773
0.0130434
0.00827189
0.00826336
0.00820388
0.00823111
0.00819611
0.00825156
0.00823558
0.0083101
0.00830501
0.00838417
0.00648392
0.00646009
0.00647602
0.00646604
0.00650512
0.00650464
0.00656738
0.00657078
0.00665665
0.00666226
0.010252
0.0105984
0.010414
0.0102353
0.0101714
0.0104053
0.0111796
0.0100291
0.00703179
0.00579445
0.0105826
0.0106275
0.0104348
0.0102222
0.0101584
0.0104907
0.0114766
0.00988524
0.00691894
0.00575776
0.010867
0.0108514
0.0106421
0.0104124
0.0103588
0.0108139
0.0120049
0.0096428
0.00680971
0.00573179
0.0111599
0.0111728
0.0110039
0.0108004
0.0107964
0.0114759
0.0129033
0.00931212
0.00670137
0.00571702
0.0115493
0.0116312
0.0114444
0.0112185
0.0113632
0.0125962
0.0141666
0.00892886
0.00660275
0.00571922
0.0119973
0.0120757
0.0120435
0.0120632
0.0125672
0.0148935
0.014071
0.00848338
0.00651065
0.00573963
0.012595
0.0130049
0.0130451
0.0130721
0.0148733
0.0218071
0.0128607
0.0080388
0.00642739
0.00578513
0.0136804
0.0137846
0.0138594
0.0157324
0.0238643
0.0230577
0.0110206
0.00762095
0.00636212
0.00586397
0.0146975
0.0158832
0.0209492
0.0461205
0.0684777
0.0161236
0.00944855
0.00724166
0.00632074
0.00599002
0.019085
0.0302949
0.0801913
0.0552111
0.0205321
0.0115361
0.0083554
0.00693781
0.00632177
0.00619044
0.0119464
0.0115108
0.0111247
0.0107829
0.0104667
0.0101865
0.00994011
0.00967529
0.00929117
0.00797229
0.0117824
0.0113877
0.0110329
0.0107066
0.0104035
0.0101423
0.00992915
0.00964367
0.00889195
0.00729188
0.0116345
0.011275
0.0109429
0.0106239
0.0103277
0.0100831
0.00991041
0.00962116
0.008548
0.00686259
0.0115215
0.0112158
0.0109133
0.0105944
0.0102944
0.0100589
0.00992323
0.00962185
0.00825448
0.006569
0.0114037
0.0111634
0.0109061
0.0106004
0.0103016
0.0100742
0.00997482
0.00964696
0.00799511
0.00635153
0.011266
0.0110762
0.0108606
0.010572
0.0102983
0.0101233
0.0101168
0.00976072
0.00778405
0.00619255
0.0112444
0.011106
0.0109013
0.0105854
0.0102888
0.0101338
0.0102181
0.00983118
0.00759595
0.00607029
0.0112523
0.0111304
0.0109555
0.0106481
0.0103707
0.0102669
0.0104572
0.00994095
0.00743061
0.00597552
0.0114828
0.011325
0.0110464
0.0106425
0.0103385
0.0102927
0.0106332
0.0100043
0.00728447
0.0059009
0.0113857
0.0111205
0.0109335
0.0106458
0.0104039
0.0104388
0.0109425
0.0100506
0.00715095
0.00584113
0.127966
0.0402831
0.0338497
0.0430713
0.043706
0.040757
0.0335318
0.0278178
0.0200425
0.0139252
0.110974
0.039614
0.0322379
0.0402122
0.0438073
0.0422081
0.0362114
0.0286099
0.0206228
0.0137222
0.0955814
0.0389182
0.0308211
0.0380364
0.0435976
0.0430761
0.039866
0.0291568
0.0214012
0.0135479
0.0835807
0.0380729
0.0295225
0.0363557
0.0432334
0.0437367
0.0448456
0.0293978
0.0222334
0.0133515
0.0743248
0.0370268
0.0283559
0.0350612
0.0428277
0.0444755
0.0509751
0.0294035
0.022848
0.013094
0.067278
0.0359339
0.0274128
0.0340736
0.0424471
0.0451442
0.0556774
0.0294846
0.0223524
0.0129118
0.0623867
0.0351596
0.026755
0.0333033
0.0419685
0.0454255
0.0541072
0.0296848
0.0208637
0.0126727
0.0598731
0.0352356
0.0263471
0.0325621
0.0409795
0.0455436
0.0462816
0.0297329
0.0184037
0.0127513
0.0601332
0.0365673
0.0261145
0.0315518
0.0389144
0.0446311
0.0370905
0.0283161
0.0173232
0.012353
0.0635395
0.03828
0.0257223
0.0306474
0.0350451
0.0377811
0.0285891
0.023763
0.0150298
0.0138729
0.0698368
0.0426257
0.0255072
0.0292117
0.0275041
0.0300549
0.0191439
0.0197062
0.0136133
0.0142294
0.0656461
0.0474122
0.0241815
0.0271932
0.0196086
0.0262042
0.0141525
0.0183629
0.0121919
0.0133662
0.05788
0.0509949
0.0233227
0.0222134
0.0167977
0.023139
0.0129773
0.0182663
0.0120223
0.0129234
0.0523639
0.0524604
0.0236353
0.0176284
0.0179587
0.0189862
0.0147682
0.017109
0.0138979
0.0127025
0.0523013
0.0497463
0.0240228
0.0158035
0.0216066
0.0172698
0.0202405
0.0162862
0.0175083
0.0136648
0.055722
0.0417423
0.0241637
0.0158155
0.0202363
0.0176451
0.0213748
0.0177076
0.0205014
0.0153151
0.0522848
0.040257
0.0276489
0.0179587
0.0167145
0.0191418
0.0166089
0.0212545
0.0183812
0.0168775
0.0376333
0.0596959
0.0315372
0.0213026
0.0135795
0.0160858
0.0123092
0.0151109
0.0132389
0.0148089
0.0228192
0.0198322
0.0135239
0.0119308
0.0107442
0.0103509
0.0100002
0.0100446
0.00981323
0.00982534
0.00793334
0.00787692
0.00836738
0.00854336
0.00856448
0.00805036
0.00829431
0.00757467
0.00756963
0.00719253
0.0113096
0.0111896
0.0111452
0.0113854
0.0117402
0.0122795
0.0127592
0.0137734
0.0149753
0.0165938
0.0118836
0.011749
0.0118264
0.0122328
0.0127387
0.0134816
0.0141848
0.0151577
0.016475
0.0178957
0.0125424
0.0125804
0.0128864
0.0134914
0.0141242
0.0149186
0.0156014
0.0165256
0.017374
0.0185415
0.0134379
0.0136225
0.0140348
0.014545
0.0150747
0.0155482
0.0160785
0.0165545
0.0173299
0.0177742
0.0146402
0.0147551
0.0150976
0.0153667
0.0157408
0.0159437
0.0164109
0.0166829
0.0174976
0.0178059
0.0157744
0.0156975
0.0158767
0.0159938
0.0161516
0.0162064
0.0163298
0.0164979
0.0167593
0.0171704
0.0163482
0.0159523
0.0156645
0.0154527
0.015118
0.0149688
0.0145742
0.014624
0.0143375
0.01464
0.0135434
0.013029
0.0125187
0.012213
0.0118426
0.0117061
0.0113639
0.0113838
0.0110669
0.0112391
0.00959111
0.0093819
0.0091879
0.00902059
0.00887408
0.00874398
0.00861917
0.00851904
0.00841243
0.00835607
0.00707891
0.00697835
0.00688881
0.00680159
0.00673109
0.00665923
0.00660985
0.00655458
0.00652793
0.00648948
0.00585713
0.00663643
0.00847886
0.0142635
0.0491782
0.0184503
0.0132181
0.0113258
0.00975206
0.00823617
0.00593577
0.00656839
0.00802962
0.0121791
0.0337734
0.0252442
0.0150437
0.0116154
0.00970804
0.0081844
0.00605965
0.00653697
0.00765103
0.0103684
0.0174541
0.0216382
0.0162041
0.0122432
0.00995223
0.00834501
0.0062429
0.00655262
0.00736213
0.00918275
0.0129224
0.0168894
0.0160786
0.0130449
0.0105214
0.00869369
0.00650604
0.0066293
0.00717472
0.00841769
0.0107625
0.013836
0.0150519
0.013654
0.0113594
0.00928878
0.00687843
0.00678336
0.00709383
0.00793895
0.00950519
0.0118034
0.0137435
0.0138826
0.0123976
0.010062
0.00740617
0.00703809
0.00712226
0.0076626
0.00872856
0.0104057
0.0123363
0.0134365
0.0132718
0.0112277
0.0081587
0.00742902
0.00727552
0.00755095
0.0082447
0.00943539
0.0111043
0.01272
0.01367
0.0122056
0.00923775
0.00800375
0.00758851
0.00761612
0.00799849
0.0087589
0.00993315
0.0113858
0.0130507
0.0123064
0.0107888
0.00880904
0.00810739
0.0079033
0.00802726
0.00845804
0.00921029
0.0102598
0.0117443
0.0126496
0.013025
0.00986614
0.00887015
0.00846184
0.00836356
0.00852857
0.00894479
0.0095983
0.0103191
0.0117685
0.0159937
0.0111212
0.00990175
0.00938364
0.00911119
0.00904983
0.00920945
0.00957062
0.00982611
0.0108902
0.0180795
0.0121217
0.0110162
0.0107112
0.0104531
0.010195
0.0100854
0.0101658
0.010087
0.010684
0.0166971
0.0121583
0.0116256
0.0119915
0.0123859
0.0122729
0.0118139
0.0114465
0.0109899
0.0111394
0.0139133
0.0116321
0.0116962
0.0126496
0.0141534
0.0155531
0.0152894
0.0140555
0.0128779
0.0123843
0.0117267
0.0110438
0.0116182
0.0129691
0.0151808
0.0190783
0.0236248
0.0212548
0.0170318
0.0147296
0.010214
0.0104944
0.0114932
0.0131959
0.0157807
0.0207558
0.0340274
0.0562898
0.0273113
0.0185148
0.00924582
0.0100661
0.0114297
0.0134366
0.0162816
0.0210454
0.0322227
0.0666856
0.0413497
0.0227774
0.00864918
0.00973622
0.0114231
0.0136196
0.0160861
0.0188937
0.0224949
0.0265801
0.0274187
0.022419
0.00827831
0.00944625
0.0113536
0.0136928
0.0157541
0.0174061
0.0190618
0.0209212
0.0221271
0.0212662
0.011196
0.0118693
0.0141151
0.0215778
0.0601253
0.0350232
0.0257468
0.0250434
0.0246115
0.0300962
0.0109457
0.0118931
0.0144115
0.0208057
0.0335999
0.0299619
0.0250274
0.0248617
0.0248828
0.0318208
0.0110027
0.0119719
0.0145344
0.0192205
0.0258244
0.026497
0.0242572
0.0245167
0.0247295
0.0318107
0.0114389
0.0121882
0.0147438
0.0181784
0.022537
0.0237916
0.0232426
0.0239915
0.0243195
0.0310474
0.012053
0.0126528
0.0149669
0.0174379
0.0203638
0.021738
0.0221571
0.0233696
0.0237931
0.0300651
0.0128248
0.0134181
0.0149375
0.0166579
0.0186185
0.0200851
0.0210969
0.0227208
0.0232691
0.029161
0.0139085
0.0143651
0.0146189
0.0157943
0.0171425
0.0186598
0.0200482
0.0220287
0.0227668
0.0284232
0.0152358
0.0151723
0.0141886
0.0149811
0.0159349
0.0174375
0.0190108
0.0212576
0.0222307
0.0277776
0.0166729
0.015621
0.0137989
0.0143828
0.0150886
0.0164704
0.0180378
0.0204115
0.0215969
0.0270774
0.0186534
0.0158315
0.0136487
0.0142072
0.0146825
0.0158064
0.0171908
0.0195272
0.0208297
0.0261794
0.0105432
0.0155532
0.0204478
0.0331579
0.0514707
0.033431
0.0217336
0.0162431
0.0140516
0.0127013
0.0090913
0.0111826
0.0138975
0.0173013
0.0186179
0.0169679
0.0149247
0.0136741
0.0130433
0.012446
0.00920221
0.0108275
0.0135347
0.016736
0.0180362
0.0178263
0.0165444
0.0156958
0.0151529
0.0145791
0.0100154
0.0110658
0.0139633
0.0204456
0.0289256
0.0259663
0.0214109
0.0201508
0.019265
0.0191669
0.0117061
0.0120126
0.0142473
0.0220631
0.128407
0.0335311
0.0246043
0.0236349
0.0228762
0.0253046
0.00589471
0.0059964
0.00614227
0.00634649
0.00658625
0.00689478
0.00725186
0.00762418
0.00819789
0.0085064
0.00612003
0.00620089
0.00633094
0.00651135
0.00671336
0.00695765
0.00723392
0.00746962
0.00790004
0.00804309
0.00642117
0.00647834
0.00660308
0.00677771
0.0069805
0.00722942
0.00745977
0.00776532
0.00807158
0.00842577
0.00682922
0.00685928
0.00699478
0.00719219
0.00746104
0.00779581
0.00808371
0.00874033
0.00890147
0.0101453
0.00736059
0.00735805
0.00751644
0.00777499
0.00818436
0.00866606
0.00929624
0.0103553
0.0106262
0.0135071
0.0126821
0.0124279
0.0121812
0.0117661
0.0113676
0.0111172
0.011053
0.0105218
0.00828363
0.0064537
0.0129394
0.0126588
0.0122215
0.0116835
0.0112501
0.0109902
0.0109064
0.0105011
0.00855009
0.00662923
0.0125501
0.0123262
0.0120373
0.0116564
0.0113086
0.0110531
0.0109061
0.0105218
0.00885498
0.00685003
0.0126439
0.0123925
0.0120633
0.0116581
0.0112675
0.0109444
0.010713
0.0103885
0.0091775
0.00714696
0.0126216
0.0122839
0.0119058
0.0115017
0.0111235
0.0108053
0.0105672
0.0103359
0.0095942
0.00758665
0.0125861
0.0121817
0.0117711
0.0113704
0.0109965
0.010671
0.0104167
0.0102613
0.0100408
0.00827212
0.0124976
0.0120407
0.011605
0.0112028
0.0108258
0.0104877
0.0102178
0.0101357
0.0104965
0.00958537
0.0123679
0.0118827
0.0114378
0.0110393
0.0106626
0.010317
0.0100293
0.00995767
0.010731
0.012555
0.012226
0.011741
0.0113074
0.0109269
0.0105696
0.0102408
0.00995316
0.00981249
0.010366
0.0123591
0.0120877
0.0116245
0.0112153
0.0108579
0.0105266
0.0102275
0.00995824
0.00973983
0.0097871
0.00928778
0.00852358
0.00999069
0.0112699
0.0122637
0.0136332
0.0171033
0.0145064
0.00893499
0.00672879
0.00581269
0.00906967
0.0102845
0.0110948
0.0116617
0.0122557
0.0133441
0.013965
0.00938616
0.00683571
0.00579492
0.00970473
0.0104739
0.0108578
0.0110756
0.0113474
0.0119592
0.0125574
0.00968062
0.006956
0.00580121
0.0101113
0.0104852
0.0106614
0.0107565
0.0108564
0.0111728
0.0117287
0.00991704
0.0070866
0.00582597
0.0103034
0.0105001
0.010573
0.0105877
0.0106146
0.010818
0.011266
0.0100303
0.00721709
0.00586805
0.0105014
0.0106369
0.0106477
0.0105914
0.0105372
0.0106403
0.0110034
0.0101263
0.0073583
0.00592529
0.010823
0.0109091
0.0108307
0.0106855
0.0105647
0.0106055
0.0108958
0.0101952
0.00750629
0.00599705
0.0112516
0.0112291
0.0110241
0.0107908
0.0106208
0.0106197
0.010856
0.0102732
0.0076696
0.0060845
0.0115772
0.0113894
0.0111055
0.0108577
0.0106944
0.0106881
0.0108897
0.0103786
0.00785296
0.00618876
0.0113873
0.0114696
0.0112777
0.011066
0.0109074
0.0108688
0.0109949
0.0104898
0.00805942
0.00631085
0.037064
0.0385283
0.107935
0.0334215
0.0258399
0.025572
0.0287937
0.0420412
0.0268139
0.018276
0.0415808
0.0387981
0.141376
0.0411775
0.0279771
0.0259536
0.0275755
0.0298611
0.0260629
0.0156216
0.0474552
0.0399402
0.091889
0.0487239
0.029994
0.0266201
0.0276358
0.0266879
0.0248629
0.0147323
0.055088
0.0406626
0.0675151
0.0563366
0.0316222
0.0271927
0.0274269
0.0247767
0.0229049
0.0147136
0.0647499
0.0409842
0.0563978
0.0628808
0.0332351
0.0280114
0.0273333
0.0239887
0.0214438
0.0147969
0.0767705
0.0411431
0.049659
0.0660763
0.0351636
0.0293235
0.0275766
0.0240025
0.0205563
0.0148146
0.0918026
0.0413103
0.0447993
0.0638124
0.0374202
0.0311683
0.0281219
0.0244621
0.0199968
0.0147242
0.11034
0.0414451
0.0410727
0.0580237
0.0397453
0.0334737
0.0289337
0.0251668
0.0196743
0.0145442
0.129289
0.0413555
0.0381331
0.0519142
0.0417366
0.0360643
0.0300447
0.0260085
0.019574
0.0143294
0.137436
0.0409254
0.0357734
0.0468871
0.043074
0.0386243
0.0315371
0.0269167
0.0196923
0.0141168
0.0072481
0.00742579
0.00829621
0.00891973
0.00954917
0.00971138
0.00985952
0.00944563
0.00941962
0.00790451
0.0150006
0.0107331
0.00974246
0.0100172
0.0104749
0.0108755
0.011361
0.0115716
0.0117038
0.0115559
0.0251235
0.0228292
0.0129712
0.0121882
0.0123017
0.0129269
0.0137903
0.0156277
0.0159025
0.0147061
0.0301068
0.050084
0.0206517
0.0163853
0.0156772
0.0165645
0.0181699
0.0255815
0.0285494
0.0155043
0.0334674
0.0401045
0.0413471
0.0232661
0.0203705
0.0211101
0.0239358
0.0453115
0.0369873
0.0174552
0.00740389
0.00707199
0.00675423
0.00647535
0.00624791
0.00607093
0.00594269
0.00586266
0.00582852
0.00583924
0.0105215
0.00965094
0.00882137
0.00810667
0.00747831
0.00695595
0.00656542
0.00630586
0.00615814
0.00610215
0.0124074
0.0114465
0.0105555
0.00980192
0.00903733
0.00823258
0.00750035
0.00695701
0.0066219
0.00645754
0.0125878
0.0117071
0.0110555
0.0105947
0.0101197
0.00948101
0.00863481
0.00781326
0.0072428
0.00693597
0.0126258
0.0117594
0.0110791
0.0106208
0.0102635
0.00993036
0.0094494
0.00872842
0.00802135
0.00755954
)
;

boundaryField
{
    left
    {
        type            calculated;
        value           nonuniform List<scalar> 
35
(
0.0348577
0.035786
0.0371201
0.0396927
0.0437396
0.046586
0.0428493
0.032614
0.019852
0.00789922
0.0578981
0.0542737
0.050354
0.0464981
0.0429037
0.0397042
0.0370589
0.0351444
0.0341062
0.0340061
0.0355379
0.0401514
0.0455892
0.05151
0.0570277
0.0612321
0.0636419
0.0641586
0.0630638
0.0608815
0.00721148
0.0137124
0.0220023
0.0273808
0.0316787
)
;
    }
    right
    {
        type            calculated;
        value           nonuniform List<scalar> 
35
(
0.0127066
0.0124663
0.0146759
0.019644
0.027211
0.0345746
0.0382596
0.039226
0.0388744
0.0380905
0.0374266
0.0370802
0.0369261
0.0366489
0.0358856
0.0343116
0.0316537
0.0278239
0.0233422
0.019252
0.0162583
0.0144435
0.0136196
0.0135975
0.0142587
0.015953
0.0197265
0.0277444
0.0313171
0.023885
0.0173335
0.01321
0.0108025
0.00957733
0.00953454
)
;
    }
    down
    {
        type            calculated;
        value           nonuniform List<scalar> 
40
(
0.00638141
0.00675769
0.00787953
0.00857869
0.00925645
0.00930768
0.00932053
0.00878234
0.00866195
0.00708023
0.0066864
0.00645142
0.00622827
0.00603928
0.00589856
0.0058014
0.00573909
0.0057073
0.005705
0.00573499
0.00580321
0.00591432
0.00607005
0.00628968
0.00655514
0.00690907
0.00731942
0.00780507
0.00849176
0.00903788
0.0131373
0.0383222
0.0637423
0.113158
0.0412236
0.0449467
0.103565
0.0243242
0.0166604
0.0137997
)
;
    }
    up
    {
        type            calculated;
        value           nonuniform List<scalar> 
40
(
0.00640917
0.00690615
0.0081658
0.0110524
0.0246695
0.0301902
0.0373504
0.0146789
0.0111129
0.00992408
0.00602948
0.00601474
0.00603774
0.00603201
0.00607714
0.00607737
0.00614639
0.00614848
0.00624272
0.00624574
0.00648401
0.00640291
0.00632911
0.00625986
0.00620176
0.0061474
0.00610882
0.00607023
0.00605247
0.00602716
0.00678554
0.00681775
0.00744031
0.00780607
0.00790592
0.00748118
0.00769231
0.0069501
0.00694562
0.00658545
)
;
    }
    cylinder
    {
        type            calculated;
        value           nonuniform List<scalar> 
80
(
0.00773399
0.00771015
0.00789239
0.00839452
0.00960703
0.0133198
0.0264385
0.0198363
0.014039
0.0148837
0.0235591
0.0184554
0.0156543
0.016758
0.0274141
0.0348867
0.0149845
0.00953746
0.00768303
0.00677324
0.00550876
0.0054863
0.00547494
0.00547613
0.00549629
0.00553969
0.00561698
0.00574232
0.00594028
0.00625568
0.00736054
0.00673827
0.00636511
0.0061172
0.0059378
0.00580948
0.00571264
0.00563933
0.00558332
0.0055403
0.00601367
0.00615257
0.006328
0.006567
0.00692514
0.00750146
0.00866917
0.0118763
0.0127151
0.00868928
0.00557502
0.0055354
0.00552255
0.0055298
0.00555577
0.00559659
0.00565115
0.00571978
0.00580281
0.00590012
0.00564736
0.00576343
0.00593899
0.00619422
0.00655822
0.00707694
0.00783161
0.00896422
0.0107332
0.0136945
0.0195843
0.0358847
0.0829971
0.0349391
0.0182661
0.0128239
0.0103008
0.00900102
0.00830844
0.00792841
)
;
    }
    defaultFaces
    {
        type            empty;
    }
}


// ************************************************************************* //
