/*--------------------------------*- C++ -*----------------------------------*\
| =========                 |                                                 |
| \\      /  F ield         | OpenFOAM: The Open Source CFD Toolbox           |
|  \\    /   O peration     | Version:  2406                                  |
|   \\  /    A nd           | Website:  www.openfoam.com                      |
|    \\/     M anipulation  |                                                 |
\*---------------------------------------------------------------------------*/
FoamFile
{
    version     2.0;
    format      ascii;
    arch        "LSB;label=32;scalar=64";
    class       volScalarField;
    location    "1.5";
    object      p;
}
// * * * * * * * * * * * * * * * * * * * * * * * * * * * * * * * * * * * * * //

dimensions      [0 2 -2 0 0 0 0];

internalField   nonuniform List<scalar> 
1800
(
-0.649265
-0.652432
-0.646885
-0.634092
-0.624341
-0.615077
-0.60003
-0.58341
-0.568365
-0.56506
-0.667798
-0.67333
-0.670675
-0.659646
-0.649356
-0.639395
-0.626671
-0.612128
-0.595833
-0.602817
-0.704947
-0.704956
-0.700895
-0.693631
-0.684125
-0.672691
-0.659228
-0.644534
-0.627567
-0.626535
-0.748737
-0.743448
-0.73416
-0.72589
-0.715859
-0.703138
-0.687889
-0.671073
-0.653397
-0.640701
-0.78651
-0.782316
-0.775522
-0.765494
-0.752654
-0.736676
-0.717934
-0.697564
-0.676925
-0.658103
-0.846782
-0.832851
-0.82381
-0.811128
-0.793786
-0.772084
-0.747257
-0.720748
-0.693749
-0.667503
-0.907725
-0.889855
-0.877667
-0.859996
-0.835329
-0.805278
-0.772291
-0.73824
-0.704438
-0.672243
-0.972499
-0.950693
-0.933821
-0.907823
-0.872375
-0.831479
-0.788723
-0.746131
-0.704809
-0.665127
-1.03936
-1.01247
-0.987708
-0.949353
-0.900158
-0.846979
-0.793924
-0.742253
-0.692096
-0.644012
-1.09971
-1.06753
-1.03042
-0.976444
-0.912546
-0.847031
-0.782951
-0.719426
-0.65773
-0.602548
-1.01676
-1.01968
-1.0204
-1.02112
-1.02197
-1.02307
-1.02463
-1.02653
-1.02872
-1.03195
-1.00563
-1.00561
-1.00579
-1.00689
-1.00879
-1.01146
-1.01513
-1.01992
-1.02599
-1.03398
-0.986686
-0.98313
-0.982585
-0.983861
-0.986801
-0.991314
-0.997388
-1.00505
-1.01428
-1.0254
-0.957192
-0.949648
-0.948125
-0.949146
-0.952506
-0.95831
-0.966445
-0.976808
-0.989341
-1.00396
-0.916472
-0.904833
-0.901816
-0.901471
-0.903711
-0.909044
-0.917452
-0.928722
-0.942522
-0.958206
-0.867185
-0.852245
-0.847164
-0.844089
-0.84328
-0.845666
-0.851375
-0.860215
-0.87183
-0.885398
-0.810653
-0.797415
-0.790225
-0.783549
-0.778173
-0.775384
-0.775573
-0.778744
-0.784785
-0.793316
-0.752115
-0.745736
-0.736632
-0.726962
-0.717227
-0.708403
-0.701211
-0.69611
-0.693562
-0.694891
-0.712745
-0.709604
-0.697156
-0.682484
-0.669956
-0.655863
-0.641199
-0.62729
-0.6155
-0.60944
-0.667815
-0.673619
-0.662336
-0.65002
-0.641611
-0.624884
-0.605472
-0.586234
-0.568973
-0.556631
-1.05481
-1.16462
-1.15815
-1.00912
-0.735089
-0.463246
-0.254154
-0.121964
-0.0442413
-0.00533443
-1.08662
-1.26627
-1.28605
-1.12209
-0.796362
-0.483414
-0.249732
-0.110329
-0.0338128
-0.000809293
-1.11143
-1.3733
-1.43089
-1.25239
-0.867378
-0.507049
-0.245065
-0.097388
-0.022212
0.00452466
-1.11934
-1.47748
-1.58367
-1.3949
-0.946191
-0.534045
-0.240814
-0.0837975
-0.00981396
0.0105101
-1.0976
-1.56721
-1.73281
-1.54205
-1.03278
-0.565002
-0.238528
-0.071126
0.00235847
0.0165708
-1.03962
-1.62684
-1.86705
-1.68698
-1.12552
-0.600896
-0.240077
-0.0613889
0.0127018
0.0216997
-0.944604
-1.64582
-1.97565
-1.82249
-1.22129
-0.64224
-0.246912
-0.0562268
0.0195007
0.0247997
-0.818483
-1.62012
-2.04628
-1.93817
-1.31384
-0.68817
-0.260067
-0.0566077
0.0215482
0.0252377
-0.674259
-1.5477
-2.07328
-2.02297
-1.39555
-0.736456
-0.280234
-0.0633325
0.0183343
0.0230426
-0.540058
-1.43666
-2.05576
-2.0769
-1.46477
-0.785046
-0.306976
-0.0769174
0.00984013
0.0185303
-0.415136
-1.34759
-2.04061
-2.10029
-1.48919
-0.809002
-0.331014
-0.0976126
-0.00632551
0.0102749
-0.425958
-1.3021
-1.97195
-2.01178
-1.42699
-0.800563
-0.361544
-0.136066
-0.0341464
-0.00174682
-0.490475
-1.23903
-1.84041
-1.86072
-1.34626
-0.79559
-0.400652
-0.182148
-0.0660879
-0.0133317
-0.532052
-1.13952
-1.64333
-1.67207
-1.26466
-0.806164
-0.452944
-0.233567
-0.0997087
-0.0249718
-0.534348
-1.00777
-1.43058
-1.48614
-1.19836
-0.837645
-0.522434
-0.292797
-0.133991
-0.0359604
-0.505974
-0.871713
-1.22867
-1.32471
-1.1564
-0.887612
-0.598334
-0.353564
-0.168736
-0.0464148
-0.454304
-0.738651
-1.04396
-1.19342
-1.14197
-0.953972
-0.672063
-0.404096
-0.193193
-0.0516324
-0.389855
-0.617869
-0.891554
-1.09416
-1.14004
-0.99766
-0.714948
-0.434116
-0.207656
-0.0542031
-0.313621
-0.547065
-0.812705
-1.01831
-1.11519
-1.00676
-0.728418
-0.446748
-0.215091
-0.0561436
-0.272503
-0.513109
-0.816606
-1.03878
-1.10459
-0.985593
-0.716075
-0.442937
-0.216207
-0.057061
-0.50807
-0.554497
-0.590286
-0.612509
-0.622572
-0.626736
-0.620036
-0.596487
-0.548239
-0.54836
-0.392031
-0.445212
-0.489612
-0.525804
-0.548695
-0.561151
-0.561273
-0.554957
-0.545422
-0.554874
-0.293794
-0.349311
-0.397282
-0.439731
-0.47202
-0.49528
-0.507884
-0.521618
-0.525599
-0.53659
-0.207144
-0.264032
-0.314692
-0.359958
-0.39826
-0.431525
-0.455031
-0.480344
-0.493402
-0.514045
-0.131872
-0.189514
-0.24126
-0.288556
-0.329362
-0.368107
-0.397662
-0.429153
-0.451966
-0.481888
-0.0678771
-0.124998
-0.176311
-0.223918
-0.265162
-0.304927
-0.337839
-0.372226
-0.402101
-0.436861
-0.0149759
-0.0706696
-0.121051
-0.167208
-0.207837
-0.24589
-0.279967
-0.313519
-0.345873
-0.379712
0.0274264
-0.0271563
-0.0765532
-0.120461
-0.159746
-0.19499
-0.227512
-0.25751
-0.287437
-0.316589
0.0536852
-0.000193601
-0.0487721
-0.0908028
-0.128364
-0.160338
-0.189348
-0.213946
-0.236649
-0.256796
0.0656541
0.0114647
-0.0374602
-0.0806451
-0.118856
-0.151321
-0.179577
-0.201874
-0.220668
-0.234182
0.714764
0.655008
0.586712
0.514937
0.438575
0.355223
0.265281
0.1743
0.0918605
0.0388703
0.547323
0.484289
0.414318
0.338637
0.255593
0.163418
0.0635366
-0.0371948
-0.127791
-0.187524
0.360448
0.296456
0.226033
0.148439
0.0618044
-0.0353461
-0.141018
-0.247794
-0.343494
-0.40757
0.179578
0.114177
0.0418328
-0.0384531
-0.128297
-0.228938
-0.338131
-0.448694
-0.54761
-0.611664
0.0148993
-0.0528662
-0.128124
-0.211717
-0.304955
-0.408688
-0.519592
-0.632644
-0.730184
-0.793386
-0.133992
-0.20407
-0.281297
-0.366305
-0.460643
-0.56518
-0.675886
-0.786133
-0.881625
-0.942456
-0.264082
-0.335314
-0.413572
-0.49957
-0.59395
-0.696009
-0.802836
-0.907911
-0.997913
-1.05389
-0.379693
-0.44937
-0.524616
-0.606348
-0.696189
-0.794666
-0.895689
-0.993693
-1.07436
-1.12396
-0.474197
-0.539567
-0.60959
-0.686101
-0.771629
-0.863276
-0.954621
-1.04075
-1.10828
-1.15159
-0.54618
-0.606792
-0.673944
-0.747705
-0.824426
-0.902364
-0.980248
-1.05095
-1.10352
-1.14095
1.68186
1.69213
1.7028
1.71294
1.72197
1.7295
1.7351
1.73847
1.74167
1.75747
1.64083
1.64901
1.65698
1.66394
1.66944
1.67306
1.67442
1.67372
1.67368
1.68663
1.58111
1.58641
1.59079
1.59363
1.59459
1.59316
1.58901
1.58278
1.57789
1.58656
1.50383
1.50567
1.50556
1.50318
1.49839
1.4906
1.47946
1.46612
1.4547
1.45774
1.4099
1.40749
1.40196
1.39341
1.38191
1.36681
1.34771
1.32615
1.30695
1.30343
1.30261
1.29574
1.284
1.2681
1.24844
1.22436
1.19558
1.16419
1.13564
1.12469
1.18261
1.17073
1.15255
1.12914
1.10106
1.06744
1.02808
0.985731
0.946539
0.928142
1.05725
1.03962
1.01319
0.98023
0.941893
0.89739
0.84665
0.793011
0.743125
0.716147
0.931204
0.907087
0.87164
0.82835
0.77879
0.722105
0.658489
0.592179
0.530899
0.494822
0.816861
0.778151
0.727512
0.670499
0.608295
0.539139
0.462983
0.384576
0.312567
0.267759
1.60279
1.5862
1.57774
1.55941
1.5499
1.53816
1.53418
1.54127
1.56664
1.63625
1.60121
1.58354
1.57605
1.55785
1.54755
1.5337
1.52864
1.5322
1.55243
1.61232
1.60004
1.58108
1.5745
1.5562
1.54486
1.52834
1.52196
1.52036
1.5332
1.57772
1.59921
1.5788
1.5731
1.55443
1.54186
1.52209
1.51421
1.50573
1.50939
1.53194
1.59871
1.57666
1.57189
1.55252
1.53849
1.51496
1.50532
1.48825
1.48148
1.47459
1.59853
1.57463
1.57088
1.55046
1.53475
1.50696
1.49513
1.46787
1.44998
1.40546
1.59867
1.57267
1.5701
1.54821
1.53058
1.49813
1.4836
1.44467
1.41548
1.32372
1.59914
1.57082
1.56958
1.54572
1.52594
1.4884
1.47084
1.41889
1.37767
1.2306
1.59992
1.56931
1.56948
1.54305
1.52077
1.47747
1.45691
1.39094
1.33592
1.12554
1.60091
1.56829
1.57014
1.54061
1.51516
1.46529
1.44186
1.36204
1.29303
1.01754
1.60275
1.56706
1.57013
1.53725
1.50912
1.452
1.42411
1.33034
1.23942
0.915334
1.60719
1.56781
1.57435
1.53626
1.50591
1.43909
1.40591
1.30584
1.1938
0.92015
1.61297
1.56945
1.57869
1.53592
1.50364
1.43043
1.38874
1.28731
1.15502
0.923335
1.6197
1.57198
1.58219
1.53698
1.50065
1.42808
1.37202
1.27273
1.12139
0.91709
1.62763
1.57541
1.58336
1.53704
1.49477
1.42958
1.35489
1.26054
1.09367
0.904687
1.63695
1.57844
1.58153
1.53012
1.48622
1.43013
1.33725
1.2512
1.0748
0.891814
1.6487
1.58097
1.57511
1.51492
1.47572
1.42886
1.3198
1.24587
1.06601
0.882926
1.66687
1.58568
1.56987
1.50186
1.46472
1.42747
1.30217
1.24809
1.06554
0.879708
1.68195
1.59018
1.56768
1.49517
1.45495
1.42583
1.28756
1.2554
1.06625
0.88166
1.72727
1.59041
1.56442
1.49051
1.45562
1.42396
1.28655
1.26824
1.06798
0.89607
0.704158
0.564841
0.396689
0.233212
0.0848349
-0.0488831
-0.168351
-0.275513
-0.368673
-0.446644
0.665372
0.550119
0.416141
0.281625
0.1568
0.0425012
-0.0625805
-0.160199
-0.249472
-0.327393
0.654454
0.548129
0.434041
0.320763
0.213467
0.112777
0.0176973
-0.0719307
-0.153963
-0.228018
0.656303
0.556237
0.454706
0.357289
0.264582
0.175716
0.0898058
0.00768876
-0.0702322
-0.141697
0.664775
0.572717
0.480884
0.394401
0.31208
0.231849
0.152699
0.0756925
0.00138075
-0.0677713
0.676999
0.59338
0.509398
0.429996
0.354165
0.279414
0.205072
0.131855
0.0610471
-0.00570226
0.691635
0.61575
0.538266
0.463597
0.391529
0.319948
0.248819
0.17813
0.110033
0.0454951
0.70725
0.637825
0.565608
0.494369
0.424229
0.354582
0.285806
0.217212
0.151252
0.0869431
0.718604
0.652451
0.583489
0.514039
0.443862
0.374205
0.305452
0.237799
0.173488
0.111404
0.736255
0.671074
0.603361
0.533373
0.461961
0.391244
0.321431
0.253669
0.187777
0.124801
-1.35247
-1.30405
-1.2337
-1.15458
-1.07689
-1.00559
-0.942961
-0.890157
-0.84694
-0.813857
-1.45609
-1.41179
-1.34678
-1.26966
-1.19359
-1.12384
-1.06263
-1.00967
-0.965684
-0.932132
-1.51641
-1.4768
-1.41899
-1.34668
-1.2737
-1.20541
-1.14429
-1.09117
-1.04594
-1.01003
-1.53772
-1.50332
-1.4544
-1.38979
-1.32052
-1.25377
-1.19294
-1.13943
-1.09301
-1.05445
-1.52819
-1.49915
-1.46022
-1.40526
-1.3419
-1.27798
-1.21792
-1.16385
-1.11607
-1.07491
-1.49784
-1.47386
-1.44448
-1.39987
-1.34436
-1.28509
-1.22687
-1.1727
-1.12399
-1.08138
-1.45631
-1.43684
-1.41524
-1.3806
-1.33432
-1.28168
-1.22726
-1.17452
-1.12601
-1.0839
-1.41087
-1.39522
-1.37936
-1.35317
-1.31603
-1.27085
-1.22136
-1.17097
-1.12301
-1.08098
-1.36628
-1.35387
-1.34215
-1.32266
-1.29367
-1.25622
-1.21293
-1.16661
-1.12099
-1.08224
-1.32501
-1.31552
-1.30685
-1.29231
-1.26963
-1.2385
-1.20022
-1.15665
-1.11004
-1.06772
-1.28733
-1.28091
-1.27475
-1.26401
-1.2464
-1.2209
-1.18799
-1.14948
-1.10683
-1.05999
-1.25067
-1.2478
-1.24407
-1.23639
-1.22272
-1.20181
-1.17346
-1.13891
-1.09914
-1.05092
-1.21132
-1.21139
-1.20984
-1.20459
-1.19361
-1.17587
-1.15118
-1.12031
-1.08345
-1.03661
-1.16874
-1.17144
-1.17135
-1.16784
-1.1588
-1.14313
-1.12135
-1.09452
-1.06236
-1.02148
-1.12843
-1.1336
-1.13427
-1.13178
-1.12481
-1.11166
-1.09236
-1.06911
-1.04329
-1.01109
-1.09349
-1.10052
-1.10169
-1.10015
-1.09559
-1.08639
-1.07109
-1.05128
-1.03085
-1.00809
-1.06457
-1.07252
-1.07386
-1.07271
-1.06949
-1.06379
-1.05379
-1.03856
-1.02394
-1.00865
-1.04421
-1.05175
-1.05286
-1.0518
-1.04926
-1.04566
-1.04107
-1.03284
-1.02104
-1.00924
-1.03201
-1.03848
-1.03957
-1.03925
-1.03817
-1.03653
-1.0341
-1.0294
-1.02197
-1.01447
-1.02431
-1.02929
-1.03032
-1.03062
-1.03061
-1.0304
-1.02994
-1.02871
-1.02628
-1.02406
-0.917954
-0.731985
-0.688299
-0.644205
-0.566192
-0.442366
-0.315806
-0.20032
-0.107462
-0.0298989
-0.902383
-0.729886
-0.69508
-0.648243
-0.560603
-0.435033
-0.308214
-0.194106
-0.103205
-0.0283266
-0.89353
-0.73772
-0.708078
-0.655969
-0.560397
-0.429193
-0.300752
-0.187547
-0.0984613
-0.0264298
-0.894053
-0.75646
-0.72816
-0.668499
-0.5635
-0.425109
-0.293604
-0.180764
-0.0933765
-0.0243728
-0.902894
-0.785088
-0.755769
-0.686667
-0.570015
-0.422675
-0.286783
-0.173733
-0.0879607
-0.0222244
-0.917357
-0.822953
-0.79166
-0.711624
-0.580447
-0.422041
-0.280312
-0.166415
-0.0821886
-0.0199965
-0.936006
-0.870087
-0.836787
-0.744968
-0.595609
-0.423547
-0.274207
-0.158734
-0.075991
-0.0176618
-0.959101
-0.926531
-0.893159
-0.787962
-0.616747
-0.427735
-0.268499
-0.150584
-0.0692472
-0.0151493
-0.987374
-0.993676
-0.963579
-0.844241
-0.645687
-0.435347
-0.263253
-0.141841
-0.0618085
-0.0123505
-1.02039
-1.07298
-1.05095
-0.916437
-0.685039
-0.447106
-0.258521
-0.13237
-0.0535239
-0.00913024
-0.913949
-0.75663
-0.703943
-0.640472
-0.552951
-0.427344
-0.308835
-0.196886
-0.107369
-0.0297506
-0.904639
-0.750435
-0.69687
-0.637939
-0.554574
-0.432148
-0.311645
-0.200254
-0.108989
-0.0305468
-0.902352
-0.743642
-0.691995
-0.638468
-0.556986
-0.433186
-0.313478
-0.20127
-0.109268
-0.0305404
-0.901163
-0.73647
-0.686448
-0.637788
-0.558815
-0.436963
-0.316258
-0.202714
-0.109879
-0.0307466
-0.909514
-0.728976
-0.680329
-0.636148
-0.558117
-0.44229
-0.31865
-0.203452
-0.109917
-0.0308315
-0.781396
-0.893518
-0.967173
-1.00847
-1.02124
-1.01934
-1.00492
-0.989615
-0.97161
-0.956472
-0.778954
-0.891538
-0.963214
-1.00135
-1.01046
-1.00446
-0.987858
-0.968542
-0.951255
-0.934034
-0.781538
-0.89466
-0.966012
-1.00322
-1.012
-1.00548
-0.99178
-0.972659
-0.96099
-0.946459
-0.787199
-0.902106
-0.974438
-1.01221
-1.02287
-1.01852
-1.0097
-0.994083
-0.987934
-0.974627
-0.796658
-0.913982
-0.988398
-1.02826
-1.04283
-1.04349
-1.04087
-1.03219
-1.02941
-1.01757
1.19002
1.17913
1.16284
1.14452
1.12503
1.10355
1.07995
1.05639
1.0373
1.03226
1.29053
1.28725
1.27949
1.26936
1.25758
1.24364
1.22752
1.21101
1.19815
1.19798
1.3867
1.3874
1.38493
1.38067
1.37509
1.3678
1.35866
1.34884
1.34165
1.34609
1.47373
1.4777
1.47982
1.48077
1.48072
1.47921
1.47592
1.47142
1.46867
1.47732
1.5498
1.55664
1.56249
1.56758
1.57182
1.57479
1.57602
1.57562
1.57617
1.58814
1.61283
1.62199
1.63093
1.63943
1.64723
1.65389
1.65882
1.66155
1.66423
1.67835
1.66126
1.67221
1.68352
1.69467
1.70519
1.71469
1.72248
1.72756
1.73143
1.74579
1.69357
1.70564
1.71852
1.73142
1.74379
1.75529
1.76529
1.77252
1.77746
1.78909
1.70826
1.72058
1.73383
1.74708
1.75974
1.77149
1.7818
1.7896
1.79529
1.80746
1.70446
1.71617
1.72862
1.74084
1.75221
1.76236
1.77078
1.77672
1.78156
1.79782
-0.654852
-0.689703
-0.733995
-0.787462
-0.850048
-0.920866
-1.00032
-1.08196
-1.15474
-1.20555
-0.459032
-0.496794
-0.542678
-0.596989
-0.660394
-0.73295
-0.811958
-0.893685
-0.967263
-1.01861
-0.237843
-0.279005
-0.326985
-0.382283
-0.44561
-0.517285
-0.595561
-0.675543
-0.748008
-0.799579
-0.00543411
-0.0494333
-0.0991892
-0.15507
-0.217774
-0.287766
-0.363555
-0.44003
-0.509379
-0.55721
0.221737
0.17656
0.126706
0.0720649
0.0119237
-0.0543411
-0.125603
-0.197127
-0.261752
-0.303466
0.431674
0.388038
0.340719
0.289694
0.234215
0.173567
0.108613
0.0437427
-0.0143029
-0.0491774
0.619477
0.580159
0.538004
0.492861
0.443926
0.390472
0.333241
0.27629
0.225956
0.198137
0.788649
0.75508
0.719388
0.681156
0.639504
0.593766
0.544655
0.49595
0.453682
0.432582
0.947225
0.918786
0.888268
0.855848
0.820708
0.782166
0.740855
0.700189
0.665833
0.65046
1.09222
1.06823
1.04081
1.01277
0.98367
0.952454
0.919308
0.886933
0.860316
0.850033
1.67724
1.61676
1.59715
1.56001
1.54282
1.52771
1.50843
1.48564
1.42556
1.32834
1.66288
1.61437
1.59489
1.56193
1.54703
1.53356
1.51748
1.49872
1.45677
1.39773
1.65053
1.61162
1.59238
1.56333
1.55001
1.53812
1.52533
1.51302
1.48825
1.46347
1.64
1.60857
1.59093
1.56469
1.55228
1.54172
1.53198
1.52604
1.5157
1.5194
1.63108
1.60536
1.58944
1.56554
1.5539
1.5443
1.53709
1.53663
1.53837
1.56558
1.62359
1.60207
1.58764
1.56563
1.55486
1.54583
1.54059
1.54454
1.55628
1.60207
1.61733
1.59874
1.58567
1.56497
1.55509
1.54632
1.54244
1.54964
1.5692
1.62889
1.61215
1.59541
1.58362
1.56378
1.55462
1.54578
1.54267
1.55183
1.57681
1.64592
1.60803
1.59217
1.58157
1.56237
1.55352
1.54422
1.54131
1.55113
1.57893
1.65294
1.60497
1.58908
1.57959
1.5609
1.55192
1.54167
1.53845
1.54759
1.57553
1.64975
1.79905
1.6278
1.58557
1.54027
1.51996
1.50207
1.47395
1.43409
1.34255
1.23903
1.7599
1.63147
1.59345
1.54638
1.52316
1.5039
1.47465
1.43475
1.34149
1.22536
1.73691
1.62956
1.5943
1.54932
1.52611
1.50722
1.47861
1.4403
1.35018
1.22764
1.71401
1.62423
1.59518
1.55327
1.53111
1.51294
1.48591
1.45083
1.36437
1.23883
1.69409
1.61977
1.59655
1.55683
1.53672
1.51979
1.49589
1.46454
1.38478
1.25911
0.999078
0.89599
0.766821
0.606983
0.418958
0.208044
-0.0155466
-0.238333
-0.446891
-0.630757
0.98765
0.88605
0.759396
0.603848
0.421428
0.215318
-0.00630876
-0.230121
-0.441405
-0.627767
1.00037
0.896779
0.767752
0.611986
0.430711
0.225259
0.00279683
-0.223491
-0.438038
-0.627603
1.02698
0.914475
0.779036
0.62179
0.440503
0.234442
0.0102212
-0.219125
-0.437389
-0.630575
1.07201
0.941567
0.793236
0.631155
0.448148
0.240889
0.0148144
-0.217604
-0.439792
-0.63695
)
;

boundaryField
{
    left
    {
        type            zeroGradient;
    }
    right
    {
        type            fixedValue;
        value           uniform 0;
    }
    down
    {
        type            zeroGradient;
    }
    up
    {
        type            zeroGradient;
    }
    cylinder
    {
        type            zeroGradient;
    }
    defaultFaces
    {
        type            empty;
    }
}


// ************************************************************************* //
