/*--------------------------------*- C++ -*----------------------------------*\
| =========                 |                                                 |
| \\      /  F ield         | OpenFOAM: The Open Source CFD Toolbox           |
|  \\    /   O peration     | Version:  2406                                  |
|   \\  /    A nd           | Website:  www.openfoam.com                      |
|    \\/     M anipulation  |                                                 |
\*---------------------------------------------------------------------------*/
FoamFile
{
    version     2.0;
    format      ascii;
    arch        "LSB;label=32;scalar=64";
    class       surfaceScalarField;
    location    "1.5";
    object      phi;
}
// * * * * * * * * * * * * * * * * * * * * * * * * * * * * * * * * * * * * * //

dimensions      [0 3 -1 0 0 0 0];

oriented        oriented;

internalField   nonuniform List<scalar> 
3485
(
-0.00144105
0.000449081
0.00099197
-0.00306115
0.000415383
0.00120472
-0.00399845
7.68741e-05
0.000860429
-0.00384871
-0.000530751
0.000381007
-0.00121173
-0.00229928
-0.000337708
0.0051534
-0.00597889
-0.00038624
0.0156543
-0.0112786
0.000777681
0.0303484
-0.0179529
0.00325881
0.0490078
-0.0255226
0.00686327
-0.0302597
0.0107219
0.0685456
-0.000936121
0.0013852
-0.00189064
0.0013699
-0.00232754
0.000513779
-0.000727882
-0.00213041
0.00478413
-0.00781128
0.0151801
-0.0163749
0.0307508
-0.0268493
0.0511845
-0.0383866
0.0762442
-0.0505823
-0.0582034
0.104188
-0.00019071
0.00157591
-0.000147944
0.00132713
0.00178163
-0.00141579
0.00817638
-0.00852516
0.0202974
-0.0199323
0.0381898
-0.0342673
0.0612713
-0.0499308
0.0884626
-0.0655779
0.118741
-0.0808604
-0.0910748
0.151612
0.000665743
0.000910169
0.00229523
-0.000302358
0.00832536
-0.00744592
0.0208387
-0.0210385
0.0400689
-0.0391624
0.0649466
-0.0591451
0.0936994
-0.0786836
0.124401
-0.09628
0.155111
-0.11157
-0.122379
0.186415
0.000547378
0.000362791
0.00473934
-0.00449432
0.01611
-0.0188166
0.0353845
-0.040313
0.0611231
-0.064901
0.0906411
-0.0886631
0.121141
-0.109184
0.150477
-0.125616
0.177068
-0.138161
-0.146979
0.201669
0.00114022
-0.000777425
0.00921465
-0.0125688
0.0264079
-0.0360098
0.051513
-0.0654181
0.0807299
-0.094118
0.110057
-0.11799
0.136758
-0.135884
0.159591
-0.148448
0.178435
-0.157006
-0.162711
0.194166
0.00267269
-0.00345011
0.0151899
-0.025086
0.0376339
-0.0584538
0.0654895
-0.0932737
0.0932324
-0.121861
0.117358
-0.142116
0.136783
-0.155309
0.151991
-0.163657
0.164062
-0.169077
-0.172769
0.17412
0.00472589
-0.008176
0.0214633
-0.0418234
0.046558
-0.0835486
0.0726135
-0.119329
0.0947491
-0.143996
0.111697
-0.159064
0.124319
-0.167931
0.134018
-0.173356
0.141922
-0.17698
-0.17952
0.148673
0.0067929
-0.0149689
0.0263099
-0.0613404
0.0502853
-0.107524
0.0712203
-0.140264
0.0867987
-0.159575
0.0978129
-0.170078
0.105832
-0.17595
0.112044
-0.179569
0.117134
-0.18207
-0.183855
0.121469
0.00858833
-0.0235572
0.0283437
-0.0810957
0.0482837
-0.127464
0.0633021
-0.155283
0.0733672
-0.16964
0.0800216
-0.176733
0.0846791
-0.180607
0.088285
-0.183174
0.0912719
-0.185057
0.0936706
-0.186254
-0.000555933
0.0111817
-0.0106258
-0.00251806
0.0279748
-0.0260126
-0.00539391
0.0380185
-0.0351426
-0.00868527
0.0435353
-0.040244
-0.0121231
0.046645
-0.0432072
-0.0155669
0.0484721
-0.0450284
-0.018912
0.0495227
-0.0461776
-0.0220725
0.0500532
-0.0468927
-0.0250038
0.0502095
-0.0472782
0.0500943
-0.0277701
-0.047328
0.00044211
0.0107396
2.22119e-05
0.0283946
-0.0014561
0.0394968
-0.00357083
0.0456501
-0.00598408
0.0490583
-0.00852407
0.0510121
-0.011101
0.0520996
-0.0136493
0.0526015
-0.0161222
0.0526824
0.0524754
-0.0185033
0.00153073
0.00920885
0.00311649
0.0268089
0.00365778
0.0389555
0.00330917
0.0459987
0.00248826
0.0498792
0.00147117
0.0520292
0.000385603
0.0531852
-0.000714698
0.0537018
-0.0018074
0.0537751
0.0535818
-0.00291375
0.00253486
0.00667399
0.00648866
0.0228551
0.009731
0.0357131
0.0119291
0.0438006
0.013419
0.0483893
0.0145513
0.0508969
0.0155376
0.0521989
0.0164879
0.0527516
0.0174752
0.0527878
0.0524716
0.0185853
0.00305334
0.00362065
0.00917039
0.016738
0.0154314
0.0294522
0.0207735
0.0384584
0.0252056
0.0439572
0.0290437
0.0470587
0.0325849
0.0486577
0.0360432
0.0492933
0.0395825
0.0492486
0.0486238
0.0434303
0.00266968
0.000950974
0.00987704
0.00953066
0.0186233
0.0207059
0.0271436
0.0299381
0.0348953
0.0362055
0.0419511
0.040003
0.0485753
0.0420334
0.0550384
0.0428302
0.061591
0.0426959
0.0416183
0.0685965
0.0015565
-0.000605527
0.00797693
0.00311024
0.0175446
0.0111383
0.0281285
0.0193542
0.0386355
0.0256986
0.0487366
0.0299019
0.0584805
0.0322896
0.0680556
0.033255
0.0777105
0.033041
0.0313166
0.0880123
0.000818367
-0.00142389
0.00464374
-0.000715136
0.0125876
0.00319442
0.0228514
0.0090904
0.0340806
0.0144694
0.045644
0.0183384
0.0573324
0.0206012
0.0691502
0.0214372
0.0812438
0.0209475
0.018319
0.0942413
0.000539837
-0.00196373
0.00176716
-0.00194246
0.00567149
-0.000709911
0.0126661
0.00209577
0.0217175
0.005418
0.0321213
0.0079347
0.0435432
0.00917926
0.0558998
0.00908059
0.069265
0.00758227
0.00378548
0.0837986
-0.000971761
-0.0017095
-0.00155899
0.000917796
0.00599808
0.0135465
0.0235035
0.0358429
0.0502884
0.0647958
-0.038844
0.422655
-0.411581
-0.0434242
0.324589
-0.320009
-0.0379396
0.11913
-0.124615
-0.0102499
-0.0942242
0.0665345
0.0313219
-0.250414
0.208842
0.0713407
-0.305977
0.265958
0.103823
-0.297493
0.265011
0.125943
-0.244854
0.222734
0.141582
-0.198437
0.182799
-0.106919
0.100058
-0.0348598
0.439011
-0.0474138
0.337143
-0.0427859
0.114502
-0.0121159
-0.124894
0.0323103
-0.29484
0.0740068
-0.347673
0.107206
-0.330692
0.129522
-0.26717
0.145522
-0.214438
-0.114162
-0.0216729
0.45777
-0.0405874
0.356058
-0.0367524
0.110667
-0.00330513
-0.158341
0.0423595
-0.340504
0.0839673
-0.389281
0.115476
-0.362201
0.135954
-0.287648
0.151018
-0.229501
-0.121411
0.00201207
0.474344
-0.0203141
0.378384
-0.0189976
0.109351
0.0150002
-0.192339
0.0623077
-0.387812
0.103407
-0.43038
0.131327
-0.390121
0.14746
-0.303781
0.159484
-0.241525
-0.127835
0.0347518
0.483022
0.00963646
0.403499
0.00937173
0.109616
0.0401704
-0.223138
0.0881961
-0.435838
0.130529
-0.472713
0.155666
-0.415258
0.166117
-0.314233
0.172717
-0.248125
-0.132142
0.0720198
0.479599
0.0472168
0.428302
0.0437442
0.113088
0.0689189
-0.248313
0.115022
-0.481941
0.15962
-0.517311
0.185463
-0.4411
0.192055
-0.320825
0.192135
-0.248204
-0.133072
0.111642
0.455969
0.0903859
0.449558
0.0827526
0.120722
0.102797
-0.268357
0.143827
-0.522971
0.187277
-0.560761
0.215431
-0.469254
0.222203
-0.327597
0.217416
-0.243417
-0.130412
0.146795
0.403415
0.134714
0.46164
0.12469
0.130745
0.142701
-0.286367
0.178387
-0.558657
0.215734
-0.598108
0.242915
-0.496435
0.252014
-0.336697
0.245864
-0.237267
-0.125562
0.17383
0.313384
0.17702
0.45845
0.164935
0.14283
0.182902
-0.304334
0.215968
-0.591723
0.246891
-0.629031
0.268923
-0.518467
0.278715
-0.346489
0.273727
-0.232279
-0.120693
0.177225
0.200955
0.206873
0.428802
0.200778
0.148925
0.217244
-0.3208
0.249332
-0.623811
0.277767
-0.657467
0.294374
-0.535074
0.30195
-0.354064
0.298263
-0.228593
-0.117405
0.282585
0.128563
-0.210193
0.382626
0.328761
0.481097
0.0504535
0.574016
-0.413719
0.619815
-0.66961
0.616811
-0.654463
0.582942
-0.501204
0.546995
-0.318117
0.513129
-0.194727
-0.0973543
0.433284
0.145533
-0.450254
0.533275
0.22877
0.658049
-0.0743202
0.728554
-0.484224
0.733549
-0.674605
0.699649
-0.620563
0.645918
-0.447473
0.594203
-0.266402
0.550977
-0.151502
-0.0742765
0.617632
0.146507
-0.618606
0.707028
0.139374
0.804755
-0.172047
0.833019
-0.512489
0.801957
-0.643542
0.741279
-0.559885
0.674487
-0.380681
0.617809
-0.209724
0.571233
-0.104926
-0.0496662
0.756573
0.108567
-0.718632
0.837306
0.0586413
0.900168
-0.234909
0.907144
-0.519465
0.861465
-0.597863
0.779755
-0.478175
0.691696
-0.292622
0.623129
-0.141157
0.57308
-0.0548765
-0.0248945
0.838803
0.0537966
-0.784032
0.909417
-0.011973
0.952566
-0.278058
0.943763
-0.510662
0.877347
-0.531447
0.779953
-0.380781
0.684824
-0.197494
0.612876
-0.0692089
0.56302
-0.00501962
-0.00110008
0.878995
0.00126195
-0.826461
0.940787
-0.0737647
0.974808
-0.312079
0.944915
-0.480769
0.848056
-0.434589
0.729102
-0.261827
0.631721
-0.100113
0.569125
-0.00661311
0.531403
0.032703
0.0164319
0.888753
-0.0434373
-0.844053
0.945529
-0.130541
0.953359
-0.319908
0.873732
-0.401142
0.742891
-0.303748
0.620279
-0.139215
0.537324
-0.0171571
0.492912
0.0377984
0.473417
0.0521984
0.0244175
0.863012
-0.0777218
-0.828727
0.893251
-0.16078
0.832289
-0.258947
0.679741
-0.248594
0.522145
-0.146151
0.421892
-0.0389627
0.379892
0.0248434
0.370474
0.0472162
0.37585
0.0468226
0.0210643
0.727317
-0.0781012
-0.726937
0.677865
-0.111329
0.518955
-0.100036
0.331903
-0.0615426
0.214205
-0.0284535
0.177596
-0.00235333
0.186491
0.0159478
0.209449
0.0242585
0.233624
0.022647
0.0101156
0.301126
-0.379228
0.189798
0.0897616
0.028219
-0.000234529
-0.00258786
0.0133599
0.0376184
0.0602654
0.521639
0.0857476
-0.513716
0.528037
0.115071
0.53459
0.14212
0.5392
0.169511
0.540784
0.192582
0.527094
0.215359
0.487298
0.226211
0.411703
0.227207
0.298868
0.217023
0.15722
0.523996
0.0752748
-0.513523
0.535384
0.103683
0.547133
0.130372
0.559404
0.15724
0.569829
0.182157
0.580175
0.205013
0.575522
0.230864
0.56526
0.237468
0.522432
0.259852
0.229398
0.532376
0.0660195
-0.523121
0.544974
0.0910847
0.558552
0.116794
0.575283
0.140508
0.590085
0.167355
0.609234
0.185864
0.623732
0.216366
0.636672
0.224529
0.640308
0.256216
0.251099
0.54663
0.0567279
-0.537338
0.559968
0.0777469
0.574865
0.101897
0.59379
0.121583
0.613257
0.147887
0.635628
0.163494
0.659956
0.192037
0.681444
0.203041
0.706498
0.231162
0.238965
0.558474
0.0464952
-0.548241
0.572643
0.0635774
0.589738
0.0848023
0.610306
0.101015
0.6343
0.123893
0.659732
0.138062
0.690228
0.161541
0.718911
0.174359
0.753771
0.196301
0.208703
0.561392
0.0355302
-0.550427
0.576216
0.0487537
0.595226
0.0657918
0.617492
0.0787493
0.644714
0.096671
0.673756
0.109021
0.708576
0.12672
0.744028
0.138907
0.785248
0.155081
0.167491
0.551797
0.0242758
-0.540543
0.566937
0.0336136
0.586994
0.0457347
0.610635
0.0551085
0.63972
0.0675867
0.671795
0.0769461
0.709599
0.0889157
0.750002
0.0985043
0.79595
0.109133
0.119388
0.52307
0.0129267
-0.511721
0.537951
0.0187323
0.558391
0.0252945
0.5823
0.0311999
0.612118
0.0377685
0.645363
0.0437015
0.684619
0.0496593
0.727412
0.0557114
0.776183
0.0603618
0.066843
0.452832
0.00308386
-0.442989
0.46617
0.00539389
0.484122
0.00734242
0.505655
0.00966731
0.532057
0.0113663
0.562098
0.0136612
0.597003
0.0147536
0.635627
0.0170873
0.679158
0.0168309
0.0190639
0.264061
-0.260977
0.269455
0.276797
0.286464
0.297831
0.311492
0.326246
0.343333
0.360164
0.0695711
0.132844
-0.12201
-0.0804048
0.0595919
0.134721
-0.124742
0.0504164
0.136759
-0.127584
0.0415984
0.139436
-0.130618
0.0328718
0.142268
-0.133542
0.024242
0.144454
-0.135824
0.015951
0.144328
-0.136037
0.0083404
0.139115
-0.131504
0.00233528
0.120671
-0.114666
0.064928
-0.0625927
0.0672234
0.143015
-0.0773942
0.0572985
0.144646
0.0477632
0.146294
0.0386735
0.148525
0.0299127
0.151029
0.021502
0.152865
0.0136716
0.152158
0.0067161
0.14607
0.0015966
0.12579
0.0665246
0.0609515
0.15243
-0.0703666
0.051487
0.154111
0.0422544
0.155527
0.0334451
0.157335
0.0251032
0.159371
0.0173189
0.160649
0.0102998
0.159177
0.00431723
0.152053
0.000401118
0.129707
0.0669257
0.0508831
0.160999
-0.0594526
0.0423389
0.162655
0.0339979
0.163868
0.0260307
0.165302
0.0185341
0.166868
0.0117205
0.167463
0.0058603
0.165037
0.0011091
0.156804
-0.000966815
0.131783
0.0659589
0.0373773
0.168539
-0.0449167
0.0299268
0.170105
0.0225769
0.171218
0.0155648
0.172314
0.00920049
0.173232
0.00378299
0.17288
-0.000471321
0.169292
-0.00315246
0.159485
-0.00288797
0.131518
0.0630709
0.0219514
0.174884
-0.0282969
0.0158241
0.176232
0.00997046
0.177072
0.00444266
0.177842
-0.000551915
0.178227
-0.00432826
0.176656
-0.00692746
0.171891
-0.00765604
0.160214
-0.00480653
0.128669
0.0582644
0.00252113
0.180261
-0.00789806
-0.0024108
0.181164
-0.00700005
0.181661
-0.0110146
0.181856
-0.0137716
0.180984
-0.0151843
0.178069
-0.0155229
0.172229
-0.0132114
0.157902
-0.00691396
0.122371
0.0513504
-0.0171609
0.183801
0.0136208
-0.0205052
0.184509
-0.0235921
0.184748
-0.0256924
0.183957
-0.0263453
0.181636
-0.026122
0.177846
-0.0241858
0.170293
-0.0185104
0.152227
-0.0085809
0.112442
0.0427695
-0.0413306
0.186207
0.0389253
-0.0429754
0.186153
-0.0433821
0.185154
-0.0425119
0.183086
-0.0410566
0.180181
-0.0386275
0.175417
-0.0333149
0.164981
-0.0233941
0.142306
-0.0095793
0.0986267
0.0331902
-0.0664851
0.0664382
-0.0653884
-0.0634086
-0.0609294
-0.0574809
-0.0517041
-0.0420061
-0.027164
-0.00963298
0.0986393
0.0330005
-0.109631
-0.0220085
0.0874504
0.0337993
-0.0226104
0.0760731
0.034672
-0.0232947
0.064501
0.0356201
-0.024048
0.0527312
0.036597
-0.0248272
0.0407797
0.0374321
-0.0254805
0.0287393
0.0376296
-0.0255892
0.0169314
0.0360367
-0.0242288
0.00633061
0.0304346
-0.0198339
0.016326
-0.00999538
0.0991746
0.0441302
-0.110304
0.0878981
0.0450758
0.0764383
0.0461317
0.0647969
0.0472616
0.052975
0.0484188
0.0409894
0.0494176
0.0289259
0.0496932
0.0170753
0.0478874
0.00638025
0.0411296
0.0227062
0.0994055
0.0552186
-0.110494
0.0881315
0.0563499
0.0766682
0.057595
0.0650138
0.0589159
0.053171
0.0602617
0.0411587
0.0614299
0.0290654
0.0617865
0.0171746
0.0597781
0.00641175
0.0518925
0.029118
0.0982455
0.0662179
-0.109245
0.0871051
0.0674902
0.075771
0.0689291
0.0642344
0.0704525
0.0524954
0.0720006
0.0405808
0.0733446
0.0285933
0.073774
0.0168256
0.0715458
0.00621187
0.0625062
0.0353299
0.096063
0.0770037
-0.106849
0.0851579
0.0783954
0.0741093
0.0799777
0.0628829
0.0816789
0.0514409
0.0834427
0.0397798
0.0850057
0.0280067
0.085547
0.0164368
0.0831157
0.00601062
0.0729324
0.0413405
0.0920968
0.0877386
-0.102832
0.0813282
0.0891639
0.0704359
0.0908701
0.0594426
0.0926721
0.0483477
0.0945376
0.0371528
0.0962007
0.0259535
0.0967463
0.0150491
0.0940201
0.00534291
0.0826386
0.0466834
0.0883833
0.0978746
-0.0985193
0.0781793
0.0993679
0.0678013
0.101248
0.057199
0.103275
0.0463881
0.105348
0.0354538
0.107135
0.024587
0.107613
0.0141264
0.104481
0.00496012
0.0918049
0.0516435
0.0814882
0.107633
-0.0912463
0.0718174
0.109039
0.0621131
0.110952
0.0523199
0.113068
0.0423712
0.115297
0.032282
0.117224
0.0222317
0.117663
0.0125786
0.114134
0.00424295
0.100141
0.0558865
0.0765823
0.115851
-0.0848006
0.068059
0.117562
0.0589889
0.120022
0.0495255
0.122531
0.0398323
0.12499
0.03006
0.126997
0.0204519
0.127271
0.0113618
0.123224
0.00368338
0.107819
0.0595698
0.0671218
-0.073281
0.0599418
0.0523807
0.0442941
0.0357428
0.0269151
0.01815
0.0098698
0.00302284
0.201691
-0.0114066
0.00770519
0.207875
-0.00432869
-0.00185514
0.210682
0.0723765
-0.0751835
0.208519
0.142308
-0.140145
0.204086
0.166324
-0.161891
0.198294
0.172542
-0.16675
0.190024
0.163553
-0.155284
0.178767
0.170268
-0.159011
0.156239
0.186464
-0.163936
0.219802
-0.173195
0.201657
-0.0150734
0.207368
-0.0100399
0.209256
0.0704886
0.206222
0.145342
0.201288
0.171258
0.195279
0.178551
0.187672
0.17116
0.177012
0.180928
0.155886
0.207591
0.265383
0.201535
-0.0186181
0.206709
-0.0152147
0.207542
0.0696563
0.203424
0.149459
0.197722
0.17696
0.191157
0.185115
0.184121
0.178197
0.173661
0.191387
0.15411
0.227142
0.308999
0.2013
-0.0219281
0.205893
-0.019808
0.205532
0.0700178
0.200088
0.154903
0.193397
0.183651
0.186087
0.192425
0.17953
0.184754
0.168827
0.20209
0.15103
0.244939
0.350785
0.200948
-0.024886
0.204931
-0.0237916
0.203218
0.0717315
0.196201
0.16192
0.18839
0.191462
0.180279
0.200537
0.174058
0.190975
0.162622
0.213527
0.146776
0.260785
0.390712
0.200478
-0.0273739
0.203822
-0.0271355
0.200573
0.0749805
0.191797
0.170696
0.182855
0.200404
0.17394
0.209452
0.167789
0.197125
0.155271
0.226045
0.141659
0.274397
0.429539
0.199872
-0.0292557
0.202506
-0.0297697
0.197556
0.0799307
0.186973
0.181278
0.17698
0.210397
0.16724
0.219191
0.160801
0.203565
0.1471
0.239745
0.135494
0.286003
0.466514
0.199073
-0.0303387
0.200866
-0.0315626
0.194161
0.0866349
0.181879
0.193561
0.170932
0.221344
0.160335
0.229788
0.153289
0.210611
0.138511
0.254524
0.129073
0.295441
0.50434
0.197982
-0.0303311
0.198752
-0.0323321
0.19046
0.0949268
0.176705
0.207316
0.164886
0.233163
0.153407
0.241267
0.145583
0.218435
0.130401
0.269706
0.121948
0.303894
0.541488
0.196608
-0.0289496
0.196005
-0.0317284
0.186554
0.104377
0.171612
0.222258
0.159144
0.245631
0.14676
0.253651
0.138305
0.22689
0.121882
0.286128
0.116212
0.309564
0.584418
0.303981
-0.0309205
0.310797
-0.0385439
0.318456
0.0967181
0.315854
0.22486
0.314981
0.246504
0.307412
0.26122
0.314992
0.21931
0.312824
0.288296
0.359245
0.263143
0.513678
0.429986
0.301912
-0.0308223
0.307697
-0.0443287
0.321586
0.082829
0.327828
0.218617
0.335448
0.238885
0.337752
0.258915
0.352176
0.204886
0.355509
0.284964
0.379284
0.239368
0.443006
0.449956
0.299704
-0.0285159
0.304634
-0.0492593
0.3242
0.0632638
0.347295
0.195522
0.362829
0.223351
0.382076
0.239668
0.401387
0.185575
0.412256
0.274095
0.431484
0.220141
0.37974
0.49475
0.298139
-0.0246443
0.301947
-0.0530679
0.32535
0.0398607
0.367859
0.153014
0.389286
0.201923
0.423127
0.205827
0.448445
0.160258
0.463296
0.259243
0.492349
0.191087
0.326671
0.545418
0.298264
-0.020898
0.30029
-0.0550942
0.326427
0.0137238
0.380844
0.0985963
0.409944
0.172824
0.450283
0.165488
0.479878
0.130662
0.501571
0.23755
0.535442
0.157217
0.276127
0.585986
0.300568
-0.0194555
0.301753
-0.0562795
0.32873
-0.0132529
0.383641
0.0436851
0.421809
0.134655
0.464672
0.122625
0.496397
0.0989381
0.526299
0.207648
0.558183
0.125332
0.224007
0.610303
0.304985
-0.0224301
0.307094
-0.0583883
0.330868
-0.0370276
0.375263
-0.000709546
0.419416
0.090502
0.463407
0.0786346
0.493653
0.0686916
0.5326
0.168701
0.564232
0.0937007
0.168088
0.620152
0.308972
-0.0293922
0.310083
-0.0594985
0.326081
-0.0530264
0.349984
-0.0246126
0.394549
0.0459374
0.435069
0.0381143
0.459396
0.044365
0.512002
0.116095
0.54676
0.0589422
0.108938
0.60591
0.307925
-0.0353071
0.299356
-0.050929
0.29395
-0.0476212
0.291282
-0.0219446
0.325013
0.0122072
0.349716
0.0134109
0.372069
0.0220123
0.437844
0.0503195
0.471718
0.0250689
0.0487792
0.531877
0.266703
0.215774
0.168153
0.146208
0.158416
0.171826
0.193839
0.244158
0.269227
0.318006
0.445079
-0.0954978
0.453857
-0.0861728
0.461759
-0.0782688
0.469396
-0.0670891
0.477049
-0.0525703
0.484019
-0.0352669
0.491287
-0.0151652
0.497907
0.00700083
0.505401
0.0314307
0.0581229
0.459354
-0.104896
0.467749
-0.0945684
0.474283
-0.0848024
0.479316
-0.0721228
0.484166
-0.0574196
0.488454
-0.0395552
0.493467
-0.0201778
0.498995
0.00147199
0.505558
0.0248678
0.0501578
0.497561
-0.107707
0.50039
-0.0973973
0.502345
-0.0867575
0.503028
-0.0728061
0.503832
-0.0582234
0.504848
-0.0405709
0.507172
-0.0225023
0.51034
-0.00169556
0.51575
0.019458
0.0427863
0.540869
-0.103157
0.536297
-0.0928258
0.5318
-0.08226
0.527723
-0.0687294
0.52461
-0.0551104
0.522917
-0.0388781
0.52303
-0.022615
0.525332
-0.00399793
0.529851
0.0149393
0.0352993
0.574272
-0.0914434
0.563601
-0.0821555
0.554004
-0.0726627
0.546208
-0.0609339
0.540179
-0.0490808
0.53648
-0.035179
0.535018
-0.0211537
0.536568
-0.00554746
0.540612
0.0108951
0.0276707
0.594447
-0.0755872
0.579699
-0.0674076
0.56667
-0.0596339
0.555987
-0.0502508
0.54762
-0.0407136
0.541973
-0.0295326
0.539093
-0.0182731
0.539476
-0.00593022
0.543068
0.00730305
0.0203112
0.60029
-0.0557257
0.582454
-0.049572
0.566592
-0.0437717
0.55335
-0.0370086
0.542856
-0.0302197
0.535416
-0.0220927
0.531327
-0.0141835
0.5305
-0.0051039
0.533627
0.00417627
0.0133953
0.582622
-0.0324376
0.562321
-0.0292716
0.544354
-0.0258041
0.529374
-0.0220289
0.517337
-0.0181831
0.508758
-0.0135135
0.50369
-0.00911529
0.502387
-0.00380113
0.505354
0.00120941
0.00702876
0.51036
-0.010921
0.491004
-0.00991533
0.474243
-0.00904278
0.460291
-0.00807779
0.449131
-0.00702316
0.441226
-0.00560778
0.43639
-0.00427955
0.43507
-0.00248116
0.437163
-0.000883183
0.00120226
0.307085
0.29717
0.288127
0.280049
0.273026
0.267419
0.263139
0.260658
0.259775
0.00606191
0.0498233
-0.0558852
0.0114527
0.111569
-0.11696
0.0135118
0.14139
-0.143449
0.0137153
0.153353
-0.153556
0.0136599
0.157715
-0.157659
0.0126078
0.16012
-0.159068
0.0105609
0.15998
-0.157934
0.008268
0.157032
-0.154739
0.00624384
0.151002
-0.148978
0.139856
0.0049127
-0.138525
0.00752389
0.0422994
0.0162768
0.102816
0.0218332
0.135833
0.0247394
0.150447
0.0264422
0.156012
0.0277477
0.158814
0.0281712
0.159557
0.027786
0.157417
0.0269632
0.151825
0.141069
0.0257502
0.00821594
0.0340835
0.0199471
0.0910851
0.0290247
0.126756
0.0349296
0.144542
0.0388215
0.15212
0.0420376
0.155598
0.0446403
0.156954
0.0462303
0.155827
0.0466971
0.151358
0.142044
0.0457217
0.00801921
0.0260643
0.0219175
0.0771868
0.0343063
0.114367
0.0433252
0.135523
0.0497305
0.145715
0.0548598
0.150469
0.0592759
0.152538
0.0627145
0.152388
0.0646998
0.149372
0.142159
0.0645856
0.00712882
0.0189354
0.0219515
0.0623641
0.0370563
0.0992619
0.0491823
0.123397
0.0582655
0.136632
0.0654491
0.143285
0.0715571
0.14643
0.0766703
0.147275
0.0803076
0.145735
0.140842
0.0816247
0.00586369
0.0130717
0.0202354
0.0479924
0.0369806
0.0825167
0.0517968
0.108581
0.0635341
0.124894
0.0728369
0.133983
0.0805834
0.138684
0.0871548
0.140704
0.0923142
0.140576
0.137902
0.0952536
0.00452195
0.0085498
0.0173313
0.0351831
0.0344067
0.0654413
0.0511813
0.091806
0.0653923
0.110683
0.0769033
0.122472
0.0864293
0.129158
0.0945695
0.132563
0.101422
0.133723
0.132743
0.106581
0.00326586
0.00528394
0.0137882
0.0246608
0.029775
0.0494545
0.0474063
0.0741748
0.0636331
0.0944565
0.0772761
0.108829
0.0884996
0.117934
0.0979103
0.123153
0.105882
0.125751
0.126388
0.112237
0.00221681
0.00306713
0.0102161
0.0166615
0.0238627
0.0358079
0.0409008
0.0571367
0.0583749
0.0769824
0.0742588
0.0929448
0.0878468
0.104346
0.0993322
0.111667
0.109288
0.115795
0.117353
0.118323
0.00144063
0.0016265
0.00709206
0.0110101
0.0176053
0.0252947
0.0322974
0.0424445
0.0491878
0.060092
0.0661214
0.0760111
0.0816292
0.0888384
0.0950776
0.098219
0.106459
0.104413
0.107593
0.11622
0.000908684
0.000717812
0.0046084
0.00731035
0.0118684
0.0180347
0.0230127
0.0313002
0.0373319
0.0457728
0.0533632
0.0599798
0.069605
0.0725966
0.084998
0.082826
0.0989129
0.0904984
0.09593
0.110576
0.000472286
0.000245526
0.0024844
0.00529824
0.00669745
0.0138217
0.0138656
0.024132
0.0242197
0.0354187
0.0372077
0.0469917
0.0517785
0.0580258
0.0668458
0.0677587
0.0815108
0.0758334
0.0822819
0.095159
1.16486e-05
0.000233877
0.000314454
0.00499543
0.00168396
0.0124522
0.00497818
0.0208378
0.0108326
0.0295643
0.0193957
0.0384286
0.0302151
0.0472064
0.0424878
0.055486
0.0554664
0.0628547
0.0688252
0.0689231
-0.000508762
0.000742639
-0.00172912
0.00621578
-0.00262774
0.0133508
-0.00238032
0.0205904
-0.000361128
0.0275451
0.00387153
0.034196
0.0104127
0.0406652
0.0189015
0.0469972
0.0288125
0.0529437
0.0576006
0.0400371
-0.00105737
0.00180001
-0.00335579
0.0085142
-0.00568713
0.0156821
-0.00732525
0.0222285
-0.00782554
0.0280454
-0.00681781
0.0331882
-0.00395675
0.0378042
0.000857003
0.0421835
0.00737786
0.0464229
0.0497694
0.015209
-0.00158894
0.00338895
-0.00473481
0.0116601
-0.00803744
0.0189847
-0.010766
0.024957
-0.0126056
0.0298851
-0.0134256
0.0340083
-0.0130263
0.0374049
-0.0111591
0.0403162
-0.00786798
0.0431317
0.0451981
-0.00329668
-0.00206805
0.005457
-0.00591306
0.0155051
-0.00997632
0.023048
-0.0134958
0.0284765
-0.0161537
0.0325431
-0.0178912
0.0357457
-0.0187905
0.0383042
-0.0188757
0.0404014
-0.0179636
0.0422197
0.0433425
-0.016108
-0.00211951
0.00757651
-0.006091
0.0194766
-0.0104044
0.0273614
-0.0143263
0.0323984
-0.0175491
0.0357658
-0.019984
0.0381806
-0.0216893
0.0400095
-0.0227823
0.0414944
-0.0233321
0.0427695
0.0434625
-0.0234521
-0.00178844
0.00936495
-0.0053825
0.0230706
-0.00949249
0.0314713
-0.013485
0.0363909
-0.0171169
0.0393977
-0.0203094
0.0413731
-0.023061
0.0427611
-0.0253655
0.0437988
-0.0271862
0.0445902
0.0449274
-0.0286512
-0.00126081
-0.00420281
-0.00787406
-0.0117271
-0.0155365
-0.0191918
-0.0226083
-0.0257021
-0.0283901
-0.0307907
0.0960514
0.405015
-0.39049
0.0674571
0.26718
-0.238586
0.0451063
0.166337
-0.143986
0.0404213
0.0694655
-0.0647805
0.0465884
-0.00135571
-0.00481139
0.0593845
-0.0496364
0.0368403
0.0751438
-0.0730124
0.0572532
0.0902282
-0.074402
0.0593176
0.104341
-0.0665518
0.0524385
-0.0402309
0.0311303
0.0827725
0.417401
0.0568103
0.293142
0.0403614
0.182786
0.0406598
0.0691671
0.0500609
-0.0107568
0.0643
-0.0638755
0.0803454
-0.0890578
0.09523
-0.0892867
0.108756
-0.0800773
-0.0485536
0.0639436
0.422381
0.0434306
0.313655
0.0340014
0.192215
0.0393617
0.0638068
0.0522172
-0.0236122
0.0684231
-0.0800814
0.0850091
-0.105644
0.0997463
-0.104024
0.112677
-0.0930081
-0.0561797
0.0430646
0.419353
0.0286573
0.328063
0.0269305
0.193942
0.037171
0.0535663
0.0535458
-0.0399871
0.0718996
-0.0984351
0.0893324
-0.123077
0.104063
-0.118755
0.116491
-0.105437
-0.0632011
0.0226976
0.411865
0.014209
0.336551
0.0201521
0.187998
0.0345388
0.0391796
0.0542342
-0.0596825
0.074798
-0.118999
0.0933515
-0.14163
0.108277
-0.13368
0.120362
-0.117521
-0.069711
0.00379495
0.404773
0.00133316
0.339013
0.0136716
0.17566
0.0311361
0.0217151
0.053959
-0.0825055
0.0768877
-0.141928
0.096881
-0.161623
0.112289
-0.149088
0.124272
-0.129505
-0.0758317
-0.0120067
0.400672
-0.00859704
0.335603
0.00659041
0.160473
0.0261253
0.00218021
0.0521309
-0.108511
0.0777796
-0.167576
0.0996445
-0.183488
0.1159
-0.165344
0.128101
-0.141705
-0.0817285
-0.0239282
0.401148
-0.0173338
0.329009
-0.0021898
0.145329
0.0187476
-0.0187572
0.0482675
-0.138031
0.077187
-0.196496
0.10145
-0.207752
0.118955
-0.182849
0.13172
-0.154469
-0.0875994
-0.0323636
0.40486
-0.0259376
0.322583
-0.0136182
0.133009
0.00898796
-0.0413634
0.0424744
-0.171517
0.0752161
-0.229237
0.102351
-0.234886
0.121444
-0.201942
0.135083
-0.168108
-0.0936501
-0.0375111
-0.0349372
-0.0265428
-0.00137167
0.0359527
0.0726731
0.102797
0.12359
0.13828
0.00780986
0.0255418
-0.0333516
0.00177952
0.00603034
0.000337929
0.00144159
-0.00121557
0.0015535
-0.00208699
0.000871426
-0.000971852
-0.00111514
0.00212939
-0.00310124
0.00701287
-0.00488348
0.0114741
-0.00446122
-0.00272003
0.0639264
0.0974171
-0.135802
0.0338004
0.0361564
0.0182178
0.0170242
0.0097546
0.0100167
0.0100155
0.00061048
0.0177669
-0.00886651
0.0285921
-0.0139264
0.0395864
-0.0158778
0.0485943
-0.0134691
-0.00801542
0.128857
0.200016
-0.231456
0.074366
0.0906478
0.0445157
0.0468744
0.031126
0.0234064
0.0308799
0.000856615
0.04011
-0.0180967
0.0532097
-0.0270261
0.0664682
-0.0291362
0.077981
-0.0249819
-0.0149378
0.176573
0.306993
-0.283551
0.105836
0.161385
0.0632592
0.0894512
0.0452635
0.0414021
0.0434607
0.00265937
0.0523626
-0.0269986
0.0667917
-0.0414552
0.0814264
-0.0437709
0.0946799
-0.0382355
-0.0228692
0.205339
-0.288836
0.128139
0.073604
0.0502256
0.0480736
0.0579153
0.0737133
0.08926
0.103463
0.0114217
0.000176323
-0.011598
0.012529
-0.00110736
0.0146568
-0.00212778
0.0174921
-0.00283531
0.0209304
-0.00343833
0.0242242
-0.00329375
0.0279401
-0.00371589
0.0303612
-0.00242118
0.0330886
-0.00272738
-0.000263012
0.0300793
6.89947e-05
-0.029972
0.0334575
-0.00448549
0.0397772
-0.00844752
0.0487096
-0.0117677
0.0601238
-0.0148526
0.0728047
-0.0159746
0.0878347
-0.0187459
0.102291
-0.0168778
0.119382
-0.0198179
-0.0166829
0.0448603
-0.000723276
-0.044068
0.0503569
-0.00998204
0.0603203
-0.0184109
0.0746256
-0.026073
0.0930504
-0.0332774
0.114762
-0.0376857
0.140435
-0.0444192
0.167439
-0.0438822
0.199177
-0.0515561
-0.0489615
0.056069
-0.00238284
-0.0544095
0.0632894
-0.0172024
0.076008
-0.0311296
0.0941632
-0.0442282
0.117217
-0.0563314
0.145101
-0.0655693
0.176126
-0.0754448
0.21069
-0.078446
0.247697
-0.088563
-0.0848155
0.0642694
-0.0617395
0.0728172
0.0874093
0.107767
0.13306
0.162744
0.193881
0.227672
0.257432
0.0693021
-0.0651373
0.0715356
-0.0757003
0.0621683
-0.0660611
0.0731949
0.0546967
-0.0672872
0.0747587
0.0468086
-0.0685075
0.0763956
0.0384642
-0.0696149
0.0779593
0.0297348
-0.0703754
0.0791048
0.0208305
-0.0701478
0.0790521
0.0121015
-0.0674879
0.076217
0.00434154
-0.0588333
0.0665933
-0.0335503
0.0378919
0.0749083
-0.0573079
-0.0827377
0.0668015
-0.0579543
0.0582539
-0.0587396
0.0493067
-0.0595602
0.0400688
-0.0603771
0.0306873
-0.0609939
0.0213582
-0.0608187
0.0123729
-0.0585026
0.0044548
-0.0509153
-0.0290955
0.0763853
-0.0485071
-0.0851861
0.0674793
-0.0490483
0.0584446
-0.0497048
0.0492965
-0.0504122
0.0400449
-0.0511255
0.0307181
-0.0516671
0.0214224
-0.0515231
0.0124248
-0.0495049
0.00447687
-0.0429673
-0.0246186
0.0799144
-0.0394353
-0.0889862
0.0707525
-0.0398863
0.0614522
-0.0404046
0.0519833
-0.0409433
0.0423295
-0.0414717
0.0325265
-0.0418641
0.0227188
-0.0417153
0.0132276
-0.0400138
0.00483844
-0.0345782
-0.0197802
0.0828719
-0.0299943
-0.0923128
0.0732931
-0.0303075
0.0635465
-0.030658
0.0536223
-0.031019
0.043531
-0.0313804
0.0333351
-0.0316682
0.0232015
-0.0315817
0.0134764
-0.0302887
0.00495003
-0.0260518
-0.0148302
0.0858485
-0.0202136
-0.0956292
0.0759059
-0.0203649
0.0657796
-0.0205317
0.055462
-0.0207015
0.0449646
-0.0208829
0.0343537
-0.0210573
0.0238244
-0.0210524
0.0137971
-0.0202615
0.00510604
-0.0173608
-0.00972413
0.0888227
-0.0100805
-0.0989557
0.0785075
-0.0100498
0.0679857
-0.0100098
0.0572416
-0.00995742
0.0462765
-0.00991776
0.0351521
-0.009933
0.0241006
-0.0100009
0.0136935
-0.00985437
0.00497067
-0.0086379
-0.00475346
0.0917104
0.000391562
-0.102183
0.0810462
0.000614451
0.070154
0.000882366
0.0590066
0.00118993
0.047585
0.00150385
0.03592
0.001732
0.024225
0.00169414
0.0131931
0.00117758
0.00431424
0.000240919
-0.000439223
0.094481
0.011109
-0.105198
0.0835639
0.0115315
0.0724277
0.0120186
0.0610506
0.0125671
0.0494152
0.0131392
0.0375378
0.0136094
0.0255745
0.0136574
0.0141044
0.0126476
0.00462734
0.00971803
0.00418811
0.0968311
-0.107731
0.0857523
0.0744761
0.0629952
0.0513072
0.0394361
0.0275043
0.0159231
0.00580726
0.014389
-0.136691
-0.0162231
0.0110786
-0.145667
0.00720028
-0.15086
0.00317311
-0.153906