/*--------------------------------*- C++ -*----------------------------------*\
| =========                 |                                                 |
| \\      /  F ield         | OpenFOAM: The Open Source CFD Toolbox           |
|  \\    /   O peration     | Version:  2406                                  |
|   \\  /    A nd           | Website:  www.openfoam.com                      |
|    \\/     M anipulation  |                                                 |
\*---------------------------------------------------------------------------*/
FoamFile
{
    version     2.0;
    format      ascii;
    arch        "LSB;label=32;scalar=64";
    class       volVectorField;
    location    "1.5";
    object      U;
}
// * * * * * * * * * * * * * * * * * * * * * * * * * * * * * * * * * * * * * //

dimensions      [0 1 -1 0 0 0 0];

internalField   nonuniform List<vector> 
1800
(
(-0.00124555 -0.0057017 0)
(-0.00536255 -0.0148477 5.69002e-23)
(-0.00987649 -0.0199076 -6.31272e-20)
(-0.0102105 -0.0214427 8.71676e-20)
(-0.00511614 -0.022666 1.05779e-19)
(0.0274159 -0.0168046 3.09544e-20)
(0.0830938 -0.0106576 -3.89458e-20)
(0.163632 -0.00248056 -1.81543e-19)
(0.26541 0.0127231 0)
(0.347765 0.0329069 1.50204e-20)
(-0.0127699 0.00480284 1.43959e-20)
(-0.0172251 0.00197344 1.69092e-20)
(-0.013679 -0.00587419 6.43445e-20)
(-0.000780589 -0.014485 9.78017e-20)
(0.041608 -0.0281084 -9.36768e-21)
(0.126024 -0.0403322 -1.52418e-19)
(0.242955 -0.0504643 5.20477e-20)
(0.386374 -0.0552652 2.7403e-19)
(0.55702 -0.0422641 -7.80704e-21)
(0.666392 -0.0405764 -2.27845e-20)
(-0.017579 0.0102214 1.30222e-20)
(-0.0163475 0.00914657 -5.57968e-20)
(-0.0040604 0.00253487 -4.94132e-20)
(0.0513865 -0.00936056 2.32204e-20)
(0.164271 -0.0262863 -1.79837e-20)
(0.325791 -0.0412077 4.49391e-20)
(0.519264 -0.0498356 -3.43447e-20)
(0.72868 -0.0511798 -2.74529e-19)
(0.958462 -0.0332088 1.10354e-19)
(1.10395 -0.0281524 1.39305e-19)
(-0.0146139 0.0102951 1.41974e-20)
(-0.00840277 0.0126057 7.63773e-20)
(0.0456709 -0.000775575 -6.2345e-20)
(0.178913 -0.0178991 -4.82848e-22)
(0.380457 -0.0334431 1.21889e-19)
(0.62573 -0.0415599 -3.62748e-20)
(0.887716 -0.0394167 -1.19545e-19)
(1.14298 -0.0279208 -9.30672e-20)
(1.38726 -0.00558871 -1.38919e-20)
(1.56039 0.0134637 8.99567e-20)
(-0.00593189 0.00393237 4.36736e-21)
(0.0207676 -0.00282262 5.61574e-20)
(0.154444 -0.0166751 3.60587e-20)
(0.38698 -0.0306892 -8.82039e-20)
(0.683881 -0.0346971 -4.09454e-20)
(0.999956 -0.0257803 6.29834e-20)
(1.29773 -0.0061572 5.47217e-20)
(1.55591 0.0200856 1.06215e-19)
(1.76794 0.0497845 -2.41559e-19)
(1.92194 0.0731572 -1.99044e-19)
(-0.000412732 0.00125361 4.02726e-22)
(0.0937484 -0.0179315 1.43376e-19)
(0.336692 -0.0286131 1.05312e-19)
(0.681349 -0.0271873 -1.35178e-19)
(1.05605 -0.00956132 1.30557e-19)
(1.39879 0.019502 -1.08561e-20)
(1.67785 0.0526475 1.39752e-19)
(1.88768 0.0842292 2.31221e-19)
(2.03733 0.110642 -3.20365e-19)
(2.13859 0.1301 -2.53213e-19)
(0.0203694 -0.00166404 -4.18718e-20)
(0.223079 -0.0278955 -2.65838e-19)
(0.595437 -0.0220568 3.06381e-20)
(1.03442 0.00653243 3.56349e-19)
(1.43354 0.047305 -2.16819e-20)
(1.74107 0.0887838 -2.61281e-19)
(1.9541 0.123895 -1.72494e-19)
(2.09294 0.150384 5.00975e-19)
(2.18248 0.168907 5.62711e-19)
(2.24089 0.179312 5.37327e-20)
(0.0675397 -0.00423445 4.39583e-20)
(0.411473 -0.024814 2.67129e-20)
(0.908779 0.0133739 -1.53154e-19)
(1.38625 0.0707511 8.14955e-20)
(1.74438 0.124111 -4.36545e-21)
(1.97655 0.164952 -8.37057e-19)
(2.11688 0.192707 -4.41761e-21)
(2.20255 0.210469 5.98374e-19)
(2.259 0.221041 -3.63173e-19)
(2.29903 0.22701 -3.66384e-19)
(0.140865 -0.00271269 1.72846e-19)
(0.648045 0.00219437 1.58637e-19)
(1.2264 0.0804325 -3.86106e-19)
(1.67527 0.155604 -9.33378e-20)
(1.95701 0.208297 4.86807e-21)
(2.11664 0.241096 3.12446e-19)
(2.20749 0.260194 -5.732e-19)
(2.26371 0.271382 -2.93681e-19)
(2.3014 0.277064 6.56909e-19)
(2.32634 0.279561 1.45568e-19)
(0.239118 0.00918811 5.39306e-21)
(0.902002 0.0613761 4.2044e-19)
(1.49656 0.172285 -3.60274e-19)
(1.87937 0.250932 -1.69122e-19)
(2.08781 0.295506 1.8358e-19)
(2.19483 0.31825 -1.92381e-19)
(2.25297 0.329399 3.70654e-19)
(2.28766 0.335768 2.49114e-20)
(2.31226 0.336826 -2.50691e-19)
(2.33211 0.335694 -7.93793e-20)
(-0.00662027 0.138135 6.10073e-21)
(-0.0200325 0.339974 -2.69954e-22)
(-0.0401433 0.458794 -1.05352e-20)
(-0.0597941 0.523941 1.36672e-20)
(-0.0782069 0.560829 -1.12684e-25)
(-0.0954061 0.582575 -5.12643e-21)
(-0.110989 0.595241 -4.68089e-21)
(-0.124407 0.601991 1.08729e-20)
(-0.135784 0.604422 -6.1292e-23)
(-0.146375 0.602944 -1.10719e-20)
(-0.0143416 0.138989 -4.90357e-21)
(-0.038651 0.354986 -1.42984e-23)
(-0.060518 0.485263 -3.30912e-21)
(-0.0794726 0.555694 2.39492e-20)
(-0.0960839 0.594211 3.91147e-20)
(-0.11097 0.615916 9.27324e-21)
(-0.124315 0.627464 -3.61167e-20)
(-0.135936 0.632162 0)
(-0.146031 0.632 9.32474e-22)
(-0.155689 0.628188 -5.4414e-21)
(-0.0194931 0.12634 6.84027e-23)
(-0.053757 0.347604 4.50219e-20)
(-0.0761013 0.49165 4.19505e-20)
(-0.0929513 0.57158 -2.89723e-20)
(-0.105977 0.614735 3.78785e-20)
(-0.116346 0.638514 2.26997e-21)
(-0.124736 0.6511 3.84879e-20)
(-0.131403 0.656309 2.23924e-20)
(-0.136589 0.656284 8.65622e-20)
(-0.141044 0.652498 1.07161e-19)
(-0.0197503 0.100498 2.42594e-21)
(-0.0610622 0.313387 7.47259e-20)
(-0.0822961 0.471338 -1.28312e-20)
(-0.0950124 0.565358 -2.33955e-20)
(-0.102197 0.617086 -4.05577e-21)
(-0.105773 0.645177 -3.74253e-20)
(-0.106977 0.659935 8.56796e-21)
(-0.10642 0.666464 0)
(-0.104429 0.667457 -1.44344e-19)
(-0.101136 0.664655 -1.30725e-19)
(-0.0140985 0.0646041 4.17586e-20)
(-0.057058 0.250096 -1.64335e-20)
(-0.0765171 0.416897 -7.16151e-20)
(-0.0848938 0.528362 7.82852e-21)
(-0.0856294 0.594425 -1.11924e-20)
(-0.0815521 0.632142 -5.5021e-20)
(-0.0746206 0.653179 3.26423e-20)
(-0.0657375 0.663946 5.33558e-20)
(-0.055024 0.667776 -1.60836e-19)
(-0.0417277 0.666219 -1.81822e-19)
(-0.00452572 0.0263816 2.18151e-20)
(-0.0418729 0.164198 -2.87892e-20)
(-0.0596001 0.326137 6.48104e-20)
(-0.0654638 0.452274 3.69276e-21)
(-0.0610574 0.536282 -6.58978e-20)
(-0.0494419 0.588779 -5.88551e-20)
(-0.033434 0.620364 -4.99908e-20)
(-0.0145982 0.638192 1.45025e-19)
(0.00684375 0.646408 -1.55628e-19)
(0.0325674 0.646336 -1.89095e-19)
(0.00294307 0.000129722 -3.06506e-20)
(-0.0190149 0.0741968 5.74958e-20)
(-0.0348117 0.209147 2.14743e-21)
(-0.0408704 0.336268 -1.53024e-19)
(-0.0348264 0.43364 4.64451e-20)
(-0.0185526 0.501957 8.87472e-20)
(0.00484185 0.547383 -6.36041e-20)
(0.0331154 0.575851 5.88064e-20)
(0.0656798 0.591323 1.27158e-19)
(0.105007 0.592837 6.5464e-20)
(0.00866792 -0.00901106 -6.4103e-22)
(0.0037592 0.0102726 -2.17933e-20)
(-0.00767727 0.0943628 -8.16285e-20)
(-0.0153455 0.199707 8.41384e-20)
(-0.0117552 0.294606 1.60369e-19)
(0.0039923 0.369456 -3.52853e-20)
(0.0298699 0.42454 -1.83507e-20)
(0.0637567 0.462851 -5.2432e-20)
(0.10515 0.486925 -1.15383e-19)
(0.156185 0.48863 2.80452e-20)
(0.0172925 -0.018621 -2.69617e-21)
(0.018852 -0.0172858 -1.09053e-20)
(0.0156511 0.00939423 3.76553e-20)
(0.00265678 0.0728809 9.83613e-21)
(0.000861281 0.146567 3.689e-21)
(0.0117182 0.211319 -1.71276e-19)
(0.0355704 0.263168 -7.42274e-20)
(0.071477 0.302506 -1.08134e-19)
(0.120133 0.329889 1.33325e-21)
(0.18247 0.327708 1.55451e-19)
(0.0102021 -0.0188725 -4.82039e-21)
(0.00828295 -0.0219634 -7.46192e-21)
(0.00207667 -0.0165217 1.13099e-19)
(-0.00500769 -0.00556775 8.91233e-20)
(-0.00388829 0.0279218 -6.93978e-20)
(0.00615598 0.0656835 -3.6861e-19)
(0.0328304 0.0995641 -2.15615e-20)
(0.0779149 0.127332 2.17569e-19)
(0.142054 0.147708 2.34872e-19)
(0.221348 0.146708 1.75271e-19)
(-0.195781 0.576458 -1.50169e-19)
(-0.212629 0.444546 -7.01903e-19)
(-0.212463 0.16911 -7.26872e-19)
(-0.140606 -0.110598 9.28083e-19)
(0.0590014 -0.318237 -3.55946e-19)
(0.261289 -0.397095 1.84669e-20)
(0.441027 -0.390969 -5.37366e-20)
(0.577896 -0.325404 5.16814e-20)
(0.668793 -0.265549 -3.82254e-20)
(0.74714 -0.144751 -3.09023e-20)
(-0.202127 0.593813 -2.0012e-19)
(-0.24921 0.454717 -1.60102e-21)
(-0.251559 0.161762 -2.92843e-20)
(-0.146664 -0.151579 -5.02125e-19)
(0.0773011 -0.378038 -6.35527e-20)
(0.290563 -0.454228 1.35004e-19)
(0.470322 -0.43755 2.96359e-20)
(0.603377 -0.35767 5.00432e-21)
(0.691333 -0.28917 -6.77098e-20)
(0.768685 -0.156527 5.89639e-20)
(-0.170397 0.616067 -6.54948e-20)
(-0.244293 0.476547 8.04092e-19)
(-0.238974 0.154463 1.8095e-19)
(-0.0979973 -0.195592 -8.34123e-19)
(0.148589 -0.439084 3.03432e-19)
(0.365957 -0.510739 3.48639e-21)
(0.533342 -0.482095 2.90019e-20)
(0.648943 -0.387855 -4.43925e-20)
(0.725499 -0.311685 6.45295e-21)
(0.796046 -0.168127 1.84262e-22)
(-0.104068 0.637199 9.18237e-20)
(-0.171804 0.499338 -1.13485e-20)
(-0.169848 0.150019 1.84902e-19)
(0.0108594 -0.242321 5.45868e-19)
(0.275725 -0.500763 -7.40126e-20)
(0.495791 -0.564903 -2.30165e-20)
(0.644223 -0.521337 -8.9031e-21)
(0.727214 -0.412675 0)
(0.780715 -0.330646 0)
(0.834048 -0.17861 -1.5442e-22)
(-0.00751542 0.649051 1.7858e-19)
(-0.0709433 0.527469 -3.72052e-19)
(-0.0356131 0.146589 -3.28039e-21)
(0.168677 -0.286684 -3.91109e-19)
(0.43968 -0.562896 -1.57389e-19)
(0.665053 -0.617602 -2.3301e-19)
(0.803296 -0.553982 1.29272e-20)
(0.847956 -0.429042 -1.2081e-20)
(0.8682 -0.342809 -6.27171e-20)
(0.889493 -0.186441 -2.53605e-21)
(0.111699 0.647546 1.72676e-19)
(0.0693064 0.554981 -1.39253e-19)
(0.148434 0.144459 -9.92381e-19)
(0.361108 -0.324761 1.0587e-20)
(0.625093 -0.624092 5.18072e-19)
(0.844779 -0.67188 -8.99283e-20)
(0.987495 -0.583316 -4.40672e-20)
(1.00671 -0.436809 -5.91761e-20)
(0.994676 -0.34531 1.24589e-21)
(0.969832 -0.189676 -2.82958e-20)
(0.240385 0.627001 -1.12218e-19)
(0.254103 0.57734 -4.92492e-20)
(0.36187 0.146711 2.81282e-19)
(0.592078 -0.35418 -8.86248e-20)
(0.848223 -0.678796 -6.55597e-20)
(1.03196 -0.725913 2.22138e-19)
(1.16944 -0.613731 -3.32313e-20)
(1.18137 -0.440417 -1.36771e-22)
(1.15319 -0.338183 1.82028e-20)
(1.07892 -0.186908 5.70398e-21)
(0.355952 0.570876 -2.52569e-19)
(0.462229 0.591495 -6.91645e-19)
(0.591851 0.158658 3.87798e-19)
(0.862212 -0.374294 3.17582e-20)
(1.12317 -0.720485 -3.55822e-19)
(1.25166 -0.770722 -3.29851e-19)
(1.34706 -0.642928 1.09074e-19)
(1.34914 -0.444431 -2.85487e-20)
(1.32245 -0.325121 1.84452e-21)
(1.21143 -0.17853 -3.68166e-21)
(0.444631 0.481487 -7.899e-19)
(0.683335 0.59546 -3.46133e-19)
(0.831241 0.164457 -8.10308e-20)
(1.14706 -0.38699 4.86778e-19)
(1.42043 -0.748627 -3.67837e-19)
(1.50739 -0.799784 -1.21735e-19)
(1.53573 -0.66348 -1.87783e-19)
(1.50466 -0.448355 1.57164e-20)
(1.48039 -0.310386 1.91113e-20)
(1.35233 -0.166684 1.12347e-20)
(0.483351 0.316062 -1.54257e-19)
(0.823888 0.56824 1.17039e-18)
(1.04589 0.197451 2.04025e-19)
(1.42327 -0.388785 2.26916e-19)
(1.69895 -0.767544 -3.09829e-19)
(1.76526 -0.814599 1.02632e-19)
(1.73645 -0.670451 -3.75516e-19)
(1.65454 -0.447911 -2.69676e-20)
(1.61747 -0.295586 -1.01699e-20)
(1.48457 -0.153746 -2.31363e-20)
(0.682487 0.1519 2.73237e-19)
(1.09471 0.488134 2.09416e-19)
(1.38858 0.155469 -4.29799e-20)
(1.81763 -0.435908 7.5429e-20)
(2.05482 -0.796133 3.71982e-20)
(2.07834 -0.823629 -5.79832e-20)
(1.9914 -0.661204 -1.66639e-20)
(1.84207 -0.433792 4.99162e-20)
(1.76698 -0.272268 -1.25322e-19)
(1.62757 -0.136728 1.54354e-20)
(1.24063 0.156104 8.81221e-20)
(1.5124 0.337922 -2.87493e-19)
(1.9948 -0.0263916 -5.30116e-19)
(2.41106 -0.576303 1.08399e-19)
(2.4958 -0.856481 -3.78337e-19)
(2.38722 -0.808166 -3.55015e-20)
(2.22832 -0.5961 1.53408e-19)
(2.02286 -0.365661 -3.82323e-20)
(1.89823 -0.216792 1.54822e-19)
(1.74417 -0.107529 2.91904e-20)
(1.8826 0.194053 4.89032e-20)
(2.08802 0.225847 6.40348e-20)
(2.56596 -0.159272 -4.39421e-20)
(2.81972 -0.616139 1.41908e-35)
(2.77256 -0.814822 -7.52501e-20)
(2.55766 -0.737079 -7.05823e-35)
(2.33431 -0.52238 5.81575e-20)
(2.11028 -0.301516 1.43747e-33)
(1.96992 -0.162002 -4.07346e-21)
(1.80671 -0.0772386 4.95898e-21)
(2.32098 0.171121 1.1179e-19)
(2.57907 0.124882 3.06096e-19)
(2.93508 -0.25551 5.42107e-19)
(3.07936 -0.645426 0)
(2.99266 -0.781659 1.95624e-19)
(2.72802 -0.655903 -5.56471e-20)
(2.42283 -0.426175 -1.87749e-19)
(2.14116 -0.222532 3.58309e-33)
(1.97711 -0.101047 -9.47734e-20)
(1.81242 -0.0466736 -8.15892e-21)
(2.60514 0.104983 1.2167e-19)
(2.85783 0.0261505 -2.08336e-20)
(3.12716 -0.319053 0)
(3.22686 -0.641019 0)
(3.07544 -0.706285 0)
(2.74713 -0.540051 0)
(2.41244 -0.307162 1.31592e-20)
(2.11306 -0.130128 3.93564e-33)
(1.93999 -0.0349288 -6.19721e-21)
(1.7822 -0.015309 -1.30752e-33)
(2.77442 0.0317377 3.39506e-20)
(2.97457 -0.0546733 0)
(3.21868 -0.36797 0)
(3.27435 -0.626048 0)
(3.02448 -0.615042 0)
(2.60423 -0.412459 0)
(2.23018 -0.19036 -2.48398e-20)
(1.95071 -0.0460497 1.47254e-19)
(1.81415 0.0214036 -7.41511e-21)
(1.69775 0.0122223 6.19137e-21)
(2.82854 -0.0281348 0)
(3.00199 -0.124676 2.20964e-19)
(3.22431 -0.402322 2.93506e-19)
(3.11516 -0.575611 0)
(2.69981 -0.479631 1.42596e-20)
(2.23757 -0.253193 -9.59053e-20)
(1.89123 -0.0659426 -1.27198e-19)
(1.66989 0.0285556 -7.01734e-20)
(1.59144 0.0606308 5.92811e-20)
(1.5361 0.0294345 -2.33293e-20)
(2.75462 -0.078894 5.24543e-20)
(2.91805 -0.190554 -2.33384e-20)
(2.96395 -0.382284 2.21643e-20)
(2.55447 -0.435722 -5.28573e-35)
(1.96263 -0.291212 4.49228e-21)
(1.51859 -0.0987894 -4.20003e-34)
(1.30181 0.0233937 -2.62271e-20)
(1.21866 0.0671223 -7.08157e-20)
(1.23242 0.0710268 -8.49496e-21)
(1.2495 0.0322074 1.73821e-20)
(2.37343 -0.106797 0)
(2.39689 -0.217313 -9.13275e-20)
(2.06858 -0.254954 -6.5346e-20)
(1.36919 -0.166226 0)
(0.827303 -0.064465 -3.09034e-20)
(0.607472 0.000879721 -1.05169e-20)
(0.591054 0.038664 -2.50782e-20)
(0.648933 0.0512255 7.68647e-21)
(0.73704 0.0461176 -2.43431e-20)
(0.803624 0.0201262 -1.54532e-20)
(1.14895 -0.0824239 1.76168e-20)
(0.813473 -0.0618122 0)
(0.42208 -0.00776078 0)
(0.165366 0.000772685 0)
(0.0210674 -0.0048464 0)
(-0.0222211 -0.00521881 0)
(0.00741446 0.00483894 -2.50704e-20)
(0.0840541 0.0123075 1.03088e-34)
(0.166531 0.0115344 -9.31357e-21)
(0.228982 0.00486603 -1.82292e-20)
(2.35556 0.328986 3.73509e-19)
(2.36253 0.282257 1.54117e-19)
(2.35346 0.235414 3.0523e-19)
(2.33172 0.196083 -3.15326e-19)
(2.27545 0.157454 7.37693e-20)
(2.19485 0.13424 3.94387e-20)
(2.00888 0.0795987 4.71922e-20)
(1.7219 0.0635684 2.4086e-20)
(1.33375 -0.0292861 4.56498e-20)
(0.726794 -0.0310035 -1.75499e-20)
(2.35569 0.287923 -1.79773e-19)
(2.38381 0.267772 3.8697e-20)
(2.39862 0.234927 1.27181e-19)
(2.39408 0.209313 1.11239e-19)
(2.38369 0.169351 -1.84887e-19)
(2.32701 0.16068 1.04632e-19)
(2.30053 0.125491 8.41769e-21)
(2.10745 0.110314 -5.65691e-21)
(2.03858 0.0989785 -5.20067e-21)
(1.57949 0.0289302 1.65498e-20)
(2.39902 0.256131 2.50238e-20)
(2.41794 0.237435 -1.17987e-19)
(2.45122 0.21257 -1.58402e-19)
(2.44238 0.194939 3.40843e-19)
(2.47029 0.171376 -1.59855e-20)
(2.41098 0.149724 2.54094e-20)
(2.44689 0.150895 -6.77352e-20)
(2.31681 0.113052 -4.86223e-20)
(2.34397 0.149917 -4.85485e-21)
(2.10739 0.0816658 -8.49706e-21)
(2.46642 0.225397 4.40046e-20)
(2.48062 0.203427 -1.43567e-19)
(2.52344 0.188301 2.58544e-20)
(2.51615 0.163125 -1.08689e-19)
(2.55594 0.159248 1.62621e-19)
(2.51641 0.123533 -5.28049e-20)
(2.55383 0.142943 2.83859e-20)
(2.48365 0.0985247 -3.44796e-20)
(2.50848 0.136518 -6.26007e-20)
(2.40603 0.0944702 -3.27765e-20)
(2.51638 0.190493 8.37281e-20)
(2.53814 0.166472 -2.27629e-19)
(2.58129 0.159549 -2.04074e-20)
(2.58967 0.129953 -1.29446e-20)
(2.62718 0.133402 -5.00263e-21)
(2.61833 0.0962304 -1.36895e-21)
(2.64823 0.111441 2.33243e-20)
(2.6229 0.0752668 -3.23133e-20)
(2.64289 0.094538 -5.07224e-20)
(2.6023 0.0723508 -6.7582e-20)
(2.52581 0.15135 1.50878e-19)
(2.55488 0.129228 2.61621e-20)
(2.59866 0.124832 -1.58806e-19)
(2.62145 0.0988772 9.54633e-20)
(2.6596 0.0994611 7.37028e-20)
(2.67458 0.0705314 -5.84938e-20)
(2.70497 0.0738726 8.17228e-20)
(2.71127 0.0485185 4.08394e-20)
(2.73497 0.0509028 -1.0344e-19)
(2.7323 0.0357625 -1.27212e-19)
(2.48 0.109176 1.72966e-20)
(2.51373 0.0906105 4.7816e-20)
(2.55845 0.0865339 -6.18135e-20)
(2.59156 0.0655515 -3.50714e-20)
(2.63247 0.0628152 7.35594e-20)
(2.66453 0.0404478 3.59343e-20)
(2.69929 0.0369534 7.11974e-20)
(2.73022 0.0167178 5.34635e-20)
(2.75669 0.0108473 7.06627e-21)
(2.78861 -0.00439224 4.27949e-20)
(2.3454 0.0702424 2.10796e-20)
(2.38805 0.0559115 7.92971e-23)
(2.42661 0.0517053 -7.11655e-20)
(2.4742 0.0353413 -6.16975e-20)
(2.50874 0.0305861 3.40523e-20)
(2.56298 0.0124972 -3.15299e-20)
(2.59033 0.00576244 -2.91013e-20)
(2.65239 -0.0125648 9.01728e-20)
(2.66919 -0.0227349 -7.84311e-20)
(2.74117 -0.0403239 -9.26321e-20)
(2.02114 0.0192743 5.69049e-20)
(2.07762 0.0151658 -2.81607e-20)
(2.09439 0.00808883 -2.62105e-20)
(2.15759 0.00249547 2.98078e-20)
(2.16942 -0.00511624 -1.76844e-20)
(2.24258 -0.0127051 -4.47745e-21)
(2.24554 -0.0224315 -2.96329e-20)
(2.33004 -0.0321535 2.06517e-20)
(2.32128 -0.0456564 1.87155e-20)
(2.41543 -0.0582968 -2.11566e-20)
(1.18333 -0.00207833 0)
(1.20929 -0.00413877 2.72911e-21)
(1.20037 -0.00676354 -3.75686e-20)
(1.23364 -0.00959714 -5.76346e-20)
(1.21582 -0.0134073 3.29403e-20)
(1.25736 -0.016208 1.36254e-19)
(1.22709 -0.0215635 -9.53536e-21)
(1.27683 -0.022824 -8.12357e-20)
(1.23126 -0.0337487 -1.10472e-20)
(1.28614 -0.0316479 3.80754e-21)
(1.40844 0.833399 -4.62093e-20)
(1.39379 0.876268 -9.61932e-20)
(1.39411 0.922417 -6.85366e-19)
(1.398 0.973915 2.16692e-19)
(1.39941 1.02752 1.06406e-18)
(1.39177 1.07789 1.48827e-19)
(1.36293 1.11037 -7.89123e-20)
(1.28937 1.10042 -3.31163e-19)
(1.09871 0.981774 -3.31743e-19)
(0.585238 0.543321 -4.52266e-20)
(1.56245 0.806 -3.94744e-19)
(1.55101 0.847638 1.13807e-18)
(1.54636 0.891303 5.09222e-19)
(1.54754 0.940785 -7.59754e-19)
(1.55005 0.993568 2.5332e-19)
(1.54468 1.04319 2.43212e-19)
(1.51562 1.07341 7.99934e-19)
(1.43591 1.0614 -1.16938e-18)
(1.22308 0.941293 -5.13471e-20)
(0.644689 0.512614 2.07172e-19)
(1.70769 0.775127 1.09626e-19)
(1.70172 0.815601 8.90828e-19)
(1.6963 0.856863 1.72494e-20)
(1.69576 0.902392 -4.44907e-19)
(1.69795 0.950886 1.30164e-19)
(1.69241 0.995823 -6.77678e-20)
(1.66066 1.0204 -4.75655e-20)
(1.57243 1.00459 -4.05577e-19)
(1.33429 0.882189 2.4611e-20)
(0.692381 0.469341 -2.17158e-19)
(1.83893 0.736588 -4.5079e-19)
(1.83858 0.775378 4.13409e-19)
(1.83633 0.813826 -6.33945e-19)
(1.83681 0.854391 -2.35963e-19)
(1.83867 0.896801 1.38234e-18)
(1.83127 0.934812 -8.72413e-19)
(1.79446 0.951909 -9.8805e-19)
(1.69593 0.930937 4.27325e-19)
(1.42741 0.806401 -1.24998e-19)
(0.723254 0.416321 -6.35832e-20)
(1.95671 0.69188 5.61795e-19)
(1.95925 0.726759 4.51877e-19)
(1.95802 0.760724 -2.13189e-19)
(1.95806 0.796498 8.3504e-19)
(1.95917 0.833049 1.65425e-19)
(1.9484 0.862773 -3.76298e-19)
(1.90482 0.869803 5.48912e-19)
(1.79412 0.843006 -6.57522e-19)
(1.48917 0.716108 -7.4753e-19)
(0.73008 0.353623 -4.62297e-21)
(2.05849 0.635378 7.45202e-19)
(2.06552 0.66647 9.31589e-19)
(2.07033 0.696421 -9.47043e-19)
(2.07348 0.725768 -9.67825e-19)
(2.07063 0.754271 2.34489e-19)
(2.05147 0.773427 -7.02654e-19)
(1.99488 0.772361 -4.55904e-19)
(1.86529 0.740564 3.91085e-19)
(1.51793 0.610607 7.03388e-20)
(0.710253 0.28332 -1.3021e-20)
(2.14877 0.581561 6.92303e-19)
(2.1541 0.607387 -9.25703e-19)
(2.15306 0.631163 -8.14843e-19)
(2.15072 0.655147 6.2875e-19)
(2.14718 0.675147 -5.59104e-19)
(2.11797 0.681095 1.65908e-18)
(2.05294 0.671409 -2.47272e-19)
(1.89799 0.632365 -1.3416e-18)
(1.50167 0.496531 5.87375e-19)
(0.658715 0.210619 3.26067e-20)
(2.22204 0.514586 -4.5337e-19)
(2.22681 0.534738 -6.38625e-19)
(2.23124 0.554285 -8.73558e-19)
(2.23168 0.571278 3.07876e-20)
(2.20686 0.580323 2.8358e-19)
(2.1597 0.576225 2.94316e-19)
(2.08007 0.562221 6.81287e-19)
(1.88674 0.51462 -3.54732e-19)
(1.43519 0.376439 1.99267e-20)
(0.57735 0.140946 6.31616e-20)
(2.2794 0.456158 2.28321e-19)
(2.28574 0.473279 -7.47049e-20)
(2.28198 0.484856 4.14444e-19)
(2.25825 0.486808 1.10167e-18)
(2.22282 0.483747 -4.02075e-19)
(2.17512 0.477124 -1.43341e-18)
(2.06924 0.45487 1.02926e-18)
(1.8235 0.395566 9.24634e-19)
(1.31317 0.258378 -4.70281e-19)
(0.472032 0.0811357 -9.36268e-21)
(2.32453 0.398723 -4.58081e-19)
(2.31426 0.406169 -4.78181e-21)
(2.29141 0.406393 5.81467e-19)
(2.2624 0.404554 6.01781e-19)
(2.22533 0.398395 4.36e-19)
(2.1562 0.385149 -6.96021e-19)
(2.00673 0.351764 3.53197e-20)
(1.69588 0.279854 -3.5193e-19)
(1.13259 0.150115 -5.29844e-19)
(0.354132 0.0365942 -1.25344e-20)
(0.493978 0.324485 3.29326e-20)
(0.456765 0.334705 -1.5979e-19)
(0.415456 0.346044 -2.90571e-20)
(0.370572 0.358462 1.13475e-19)
(0.321862 0.371408 -2.83753e-20)
(0.268705 0.382887 -3.28298e-20)
(0.210402 0.387183 -3.77688e-20)
(0.145517 0.371269 -2.87918e-20)
(0.0757133 0.31128 1.02397e-19)
(0.0284766 0.163117 7.59648e-21)
(0.537431 0.421988 2.19005e-21)
(0.500487 0.437569 2.93881e-20)
(0.460058 0.454502 -1.27298e-20)
(0.416319 0.472757 1.09333e-20)
(0.368802 0.491787 5.20549e-20)
(0.316655 0.509432 3.11708e-20)
(0.258626 0.519158 8.94947e-20)
(0.192473 0.505414 -6.34229e-20)
(0.116392 0.436381 7.10749e-20)
(0.0499541 0.239583 -4.35687e-21)
(0.597429 0.513782 -9.37108e-20)
(0.561727 0.534528 4.94533e-21)
(0.523178 0.556795 4.16322e-20)
(0.481543 0.580673 -2.1287e-20)
(0.436109 0.605689 9.52561e-22)
(0.385747 0.629598 1.35989e-19)
(0.32853 0.64515 -2.86569e-20)
(0.261109 0.634404 -4.71504e-20)
(0.177061 0.557811 -1.56054e-22)
(0.083466 0.31388 1.59158e-20)
(0.669057 0.60037 -8.0888e-21)
(0.635229 0.626405 -7.45304e-20)
(0.599626 0.653865 -8.66983e-20)
(0.561252 0.683037 -1.93561e-20)
(0.518987 0.713533 -1.04442e-19)
(0.471422 0.742992 -7.76265e-20)
(0.415929 0.763473 -2.21833e-19)
(0.347747 0.754931 7.51909e-20)
(0.254841 0.670974 -5.4017e-20)
(0.127424 0.382709 -9.41502e-20)
(0.751522 0.675304 5.16558e-20)
(0.720136 0.705887 -1.12024e-19)
(0.688488 0.737937 4.55034e-20)
(0.654843 0.772162 -5.41481e-20)
(0.617529 0.808269 -9.38132e-20)
(0.574555 0.843693 1.32273e-19)
(0.522255 0.869703 8.26945e-20)
(0.453957 0.864131 -1.27403e-19)
(0.350913 0.774146 -2.56954e-19)
(0.181838 0.444756 4.97317e-20)
(0.843406 0.744841 1.78388e-20)
(0.813766 0.779696 1.28604e-20)
(0.785209 0.815129 4.86874e-20)
(0.755382 0.852792 4.96263e-20)
(0.722582 0.892931 1.95723e-19)
(0.684655 0.93278 -1.85786e-19)
(0.63686 0.962445 -1.33411e-19)
(0.569987 0.957806 -4.40887e-20)
(0.457228 0.861022 1.09032e-19)
(0.24222 0.495031 1.53831e-19)
(0.946251 0.796354 -8.84115e-20)
(0.921601 0.83505 4.72927e-20)
(0.899208 0.873808 2.38326e-19)
(0.875328 0.914619 -1.47647e-19)
(0.847761 0.958053 -3.87399e-19)
(0.81434 1.00146 1.89833e-19)
(0.769807 1.03408 6.06437e-19)
(0.702706 1.03008 1.57334e-19)
(0.577132 0.928186 -4.02071e-20)
(0.309015 0.532771 2.19218e-19)
(1.04984 0.841759 -2.50843e-19)
(1.02717 0.88219 -8.51248e-20)
(1.00996 0.922213 2.57448e-19)
(0.993336 0.964953 -1.11049e-19)
(0.973852 1.01066 8.93925e-20)
(0.947955 1.05585 3.97594e-19)
(0.908781 1.08878 -4.36674e-19)
(0.842134 1.08311 -3.99017e-19)
(0.703215 0.975129 3.41627e-19)
(0.378597 0.556769 -5.53468e-22)
(1.16305 0.860545 -1.55886e-20)
(1.14964 0.903449 4.16044e-20)
(1.13987 0.944043 -2.18585e-19)
(1.12894 0.987689 -7.85564e-20)
(1.1147 1.03553 4.84252e-19)
(1.09389 1.08334 1.45122e-19)
(1.05814 1.11759 -1.25524e-19)
(0.989953 1.11121 0)
(0.835382 0.998968 -2.21385e-19)
(0.449808 0.566094 -1.13318e-19)
(1.25488 0.865818 0)
(1.24989 0.910076 0)
(1.25478 0.953058 6.3597e-19)
(1.25731 0.998106 1.47182e-19)
(1.25377 1.04627 -2.2839e-19)
(1.24098 1.09372 4.17548e-19)
(1.2098 1.12639 -3.02625e-19)
(1.13997 1.11781 -8.20304e-19)
(0.968524 1.00158 4.17314e-19)
(0.519635 0.561654 2.15475e-19)
(0.987753 -0.011737 -1.03759e-20)
(1.02487 -0.000311161 -1.09327e-20)
(1.03494 0.103759 7.0392e-21)
(1.02621 0.197455 2.77309e-21)
(1.00049 0.229321 1.1752e-20)
(0.961701 0.237079 2.24684e-20)
(0.929089 0.223031 -1.16682e-20)
(0.864622 0.230239 -1.40036e-20)
(0.806302 0.244875 -7.41585e-20)
(0.658769 0.274196 4.86061e-20)
(0.987412 -0.0139257 -3.68827e-22)
(1.02555 -0.00553497 8.30042e-21)
(1.03423 0.103271 1.29295e-22)
(1.02469 0.203547 5.99163e-21)
(1.00016 0.238132 8.83523e-21)
(0.961725 0.24739 -3.39205e-20)
(0.932602 0.236236 -1.35428e-20)
(0.875269 0.247369 3.77307e-22)
(0.823612 0.276916 1.89877e-19)
(0.697553 0.339711 3.62049e-21)
(0.986744 -0.0162535 8.22841e-22)
(1.02676 -0.010289 1.55452e-20)
(1.03412 0.103612 -7.29047e-21)
(1.0241 0.210161 -8.00531e-22)
(1.00023 0.246916 -1.04402e-20)
(0.961603 0.257355 2.19291e-21)
(0.935024 0.247723 1.75825e-20)
(0.88657 0.263029 -1.65421e-20)
(0.840256 0.30601 1.06385e-19)
(0.746095 0.401714 -2.46275e-19)
(0.985701 -0.0187304 2.48588e-21)
(1.02837 -0.0146598 -1.14957e-21)
(1.0347 0.104775 -8.70957e-21)
(1.02428 0.217381 -1.36839e-20)
(1.00043 0.255785 2.2758e-20)
(0.961472 0.267114 2.30625e-20)
(0.937103 0.257359 -2.30126e-20)
(0.898558 0.277557 8.44468e-20)
(0.856843 0.331413 -9.71474e-20)
(0.803162 0.459786 -2.66617e-19)
(0.984247 -0.021358 4.60929e-22)
(1.03038 -0.0187626 -1.68202e-20)
(1.03612 0.106758 3.09271e-21)
(1.025 0.225323 2.3692e-20)
(1.00076 0.264775 8.83691e-21)
(0.961831 0.276586 5.16643e-20)
(0.939631 0.265034 2.75585e-20)
(0.911297 0.291338 7.08436e-20)
(0.873292 0.352755 -1.96582e-21)
(0.868232 0.512056 2.01742e-19)
(0.982364 -0.0241373 -5.70881e-22)
(1.0328 -0.0227228 2.55212e-22)
(1.03832 0.109585 -5.2815e-22)
(1.02605 0.234072 6.70397e-21)
(1.0016 0.273772 -3.09516e-20)
(0.963449 0.28558 7.8193e-21)
(0.943247 0.270882 -4.40255e-21)
(0.924411 0.304761 -2.0929e-19)
(0.890393 0.369309 0)
(0.942701 0.561363 -2.55062e-20)
(0.980127 -0.0270468 6.3977e-23)
(1.03539 -0.026663 8.03771e-21)
(1.0409 0.113276 7.81328e-22)
(1.02739 0.243565 -3.33795e-20)
(1.0037 0.282504 -1.13923e-20)
(0.967032 0.293982 -6.44993e-20)
(0.948624 0.275325 4.69461e-21)
(0.93748 0.31794 5.34285e-21)
(0.911031 0.381789 -2.17314e-21)
(1.0178 0.600909 7.63683e-19)
(0.977792 -0.0299924 -7.595e-21)
(1.03738 -0.0306761 9.85208e-21)
(1.0433 0.117693 9.70948e-22)
(1.02931 0.253446 1.6414e-20)
(1.00792 0.290639 -4.80602e-20)
(0.972943 0.30166 1.46417e-20)
(0.956836 0.278733 -3.10035e-21)
(0.951048 0.330644 2.50152e-20)
(0.936541 0.388835 1.32876e-19)
(1.10592 0.645966 -3.70087e-20)
(0.975824 -0.0327906 2.82511e-21)
(1.0374 -0.0345074 -5.82807e-21)
(1.04518 0.122693 6.35759e-22)
(1.03259 0.263262 2.86165e-20)
(1.01513 0.297844 4.84807e-21)
(0.981375 0.308134 2.41066e-20)
(0.969463 0.281212 -4.85996e-20)
(0.966411 0.341787 6.40047e-20)
(0.972 0.387399 2.64953e-19)
(1.1729 0.66615 -6.36317e-19)
(0.974798 -0.0352771 6.94895e-21)
(1.03434 -0.0376034 -1.21652e-20)
(1.04659 0.129255 4.54482e-22)
(1.03798 0.273687 -9.14008e-21)
(1.02624 0.303964 5.30025e-20)
(0.993748 0.313214 -3.25135e-20)
(0.988725 0.283356 -1.63078e-20)
(0.988625 0.352387 3.59463e-20)
(1.01686 0.401468 -1.35029e-19)
(1.28635 0.720661 3.54781e-19)
(0.975127 -0.0376783 -1.65903e-21)
(1.02542 -0.0433905 5.9821e-22)
(1.04834 0.128902 -4.09763e-21)
(1.04978 0.280948 -2.84243e-20)
(1.05072 0.308928 -3.1138e-20)
(1.02284 0.321403 -4.46006e-20)
(1.03164 0.279768 1.56926e-20)
(1.0395 0.360466 -1.36444e-19)
(1.06652 0.344085 -4.73381e-19)
(1.28589 0.710463 -1.17908e-19)
(0.977154 -0.0389214 -1.11364e-20)
(1.00784 -0.0520587 -3.14234e-21)
(1.04758 0.114514 1.64077e-21)
(1.06778 0.280075 3.48909e-21)
(1.11512 0.305835 1.44537e-20)
(1.08974 0.328102 6.15143e-20)
(1.16931 0.265856 1.59829e-20)
(1.14672 0.360603 1.03847e-19)
(1.23671 0.308495 1.9609e-19)
(1.29127 0.603076 2.65927e-19)
(0.979284 -0.0377603 -1.96821e-21)
(0.98934 -0.0586334 -2.33785e-21)
(1.04754 0.0933454 2.36193e-21)
(1.08292 0.265456 5.2898e-21)
(1.23077 0.291659 3.97253e-35)
(1.15422 0.316934 -8.09792e-21)
(1.39897 0.24603 -4.39005e-34)
(1.24635 0.350152 1.64924e-20)
(1.50371 0.28838 -4.26389e-20)
(1.39157 0.51175 -2.13666e-19)
(0.981463 -0.0335652 2.0872e-20)
(0.975263 -0.0642487 -2.22834e-35)
(1.04493 0.0659219 -2.46544e-21)
(1.09228 0.224863 1.47069e-21)
(1.35676 0.267531 -1.17186e-20)
(1.20606 0.282444 4.84596e-21)
(1.61568 0.217667 -5.31023e-34)
(1.34943 0.333855 -4.70204e-20)
(1.72443 0.258454 -1.06251e-19)
(1.5827 0.437885 2.36649e-19)
(0.983467 -0.0279693 0)
(0.972999 -0.0676455 -8.08145e-35)
(1.03665 0.0344272 0)
(1.10807 0.160393 0)
(1.42368 0.235667 0)
(1.28334 0.233551 0)
(1.70986 0.181311 -3.39308e-34)
(1.47803 0.310971 0)
(1.83057 0.215705 -1.65279e-20)
(1.76346 0.374968 1.40626e-19)
(0.98448 -0.0243816 2.71772e-21)
(0.986171 -0.0694233 -7.29755e-21)
(1.03362 0.000643924 -3.4031e-21)
(1.12575 0.0865366 0)
(1.42421 0.194866 0)
(1.37036 0.17971 6.91775e-21)
(1.705 0.143169 3.05035e-20)
(1.60472 0.279125 -1.21859e-20)
(1.85766 0.175262 -2.53499e-20)
(1.88383 0.3116 9.64131e-20)
(0.983434 -0.0250679 -6.06645e-20)
(1.01521 -0.0721975 6.49367e-21)
(1.03949 -0.0346715 -4.64882e-21)
(1.13289 0.0197102 -2.45802e-20)
(1.3648 0.140219 -1.86995e-20)
(1.42044 0.124592 4.92621e-21)
(1.63087 0.10337 -3.05087e-20)
(1.66944 0.236735 -1.44907e-20)
(1.82949 0.138629 -3.36652e-20)
(1.94684 0.244849 1.12717e-19)
(0.979101 -0.0292187 -4.98418e-21)
(1.04325 -0.0729985 -1.1098e-20)
(1.03123 -0.0587623 -5.7499e-21)
(1.10842 -0.0216482 -4.88207e-21)
(1.22378 0.0839522 -3.55076e-35)
(1.40395 0.0712008 7.5534e-21)
(1.44704 0.0663835 -8.70716e-34)
(1.63443 0.187087 -1.09962e-20)
(1.72285 0.0980469 1.71247e-20)
(1.93266 0.174361 2.27481e-20)
(0.963046 -0.048163 1.33997e-19)
(1.04789 -0.0734428 -4.2636e-21)
(0.957459 -0.0720151 -6.70664e-21)
(0.969138 -0.0384642 9.87494e-21)
(0.973243 0.0278445 7.9353e-21)
(1.1995 0.0240045 1.08447e-20)
(1.0813 0.0411189 1.36142e-20)
(1.42521 0.102268 -2.78503e-20)
(1.43748 0.0486753 -2.85424e-20)
(1.7182 0.093119 7.46324e-20)
(0.872298 -0.0320966 6.4237e-21)
(0.857765 -0.0551009 -5.16829e-35)
(0.59554 -0.0485012 -7.05811e-21)
(0.501973 -0.017034 0)
(0.47725 0.00425403 0)
(0.585871 0.00858602 7.86343e-21)
(0.526135 0.0161619 -6.91111e-36)
(0.790674 0.0278131 -1.01679e-20)
(0.794875 0.0149554 -2.63057e-20)
(1.01458 0.034258 -3.77392e-20)
(1.49565 0.727152 1.47338e-19)
(1.60256 0.710838 -5.40242e-20)
(1.72473 0.686004 -3.22221e-21)
(1.84252 0.652309 5.4706e-20)
(1.95124 0.613607 -2.235e-19)
(2.04782 0.566397 -4.21071e-19)
(2.13299 0.519638 -1.97129e-19)