/*--------------------------------*- C++ -*----------------------------------*\
| =========                 |                                                 |
| \\      /  F ield         | OpenFOAM: The Open Source CFD Toolbox           |
|  \\    /   O peration     | Version:  2406                                  |
|   \\  /    A nd           | Website:  www.openfoam.com                      |
|    \\/     M anipulation  |                                                 |
\*---------------------------------------------------------------------------*/
FoamFile
{
    version     2.0;
    format      ascii;
    arch        "LSB;label=32;scalar=64";
    class       volVectorField;
    location    "1.65";
    object      flux;
}
// * * * * * * * * * * * * * * * * * * * * * * * * * * * * * * * * * * * * * //

dimensions      [0 1 -1 1 0 0 0];

internalField   nonuniform List<vector> 
2500
(
(0.000735775 0.000735775 0)
(0.00220479 0.000741125 0)
(0.0036707 0.000752015 0)
(0.00513301 0.000768333 0)
(0.00658815 0.000790113 0)
(0.00803389 0.000817389 0)
(0.00946782 0.000850194 0)
(0.0108873 0.000888566 0)
(0.0122895 0.000932545 0)
(0.0136713 0.000982168 0)
(0.0150294 0.00103747 0)
(0.01636 0.00109849 0)
(0.0176591 0.00116524 0)
(0.0189225 0.00123775 0)
(0.0201456 0.00131601 0)
(0.0213233 0.0014 0)
(0.0224504 0.00148968 0)
(0.0235213 0.00158501 0)
(0.0245302 0.00168588 0)
(0.025471 0.00179218 0)
(0.0263375 0.00190375 0)
(0.0271232 0.0020204 0)
(0.0278215 0.00214188 0)
(0.0284261 0.00226791 0)
(0.0289302 0.00239816 0)
(0.0293276 0.00253225 0)
(0.029612 0.00266973 0)
(0.0297776 0.00281011 0)
(0.0298189 0.00295284 0)
(0.0297309 0.00309731 0)
(0.0295092 0.00324287 0)
(0.0291502 0.00338881 0)
(0.0286509 0.00353436 0)
(0.0280094 0.00367872 0)
(0.0272247 0.00382105 0)
(0.0262968 0.00396047 0)
(0.0252269 0.00409608 0)
(0.0240175 0.00422698 0)
(0.0226721 0.00435224 0)
(0.0211956 0.00447095 0)
(0.0195941 0.00458223 0)
(0.0178751 0.00468521 0)
(0.016047 0.00477907 0)
(0.0141197 0.00486305 0)
(0.0121039 0.00493645 0)
(0.0100114 0.00499867 0)
(0.00785471 0.00504921 0)
(0.00564714 0.00508762 0)
(0.00340263 0.00511339 0)
(0.00113647 0.00512518 0)
(0.000741125 0.00220479 0)
(0.00222103 0.00222103 0)
(0.00369791 0.00225366 0)
(0.0051711 0.0023026 0)
(0.00663721 0.00236794 0)
(0.00809397 0.00244978 0)
(0.009539 0.00254821 0)
(0.0109697 0.00266336 0)
(0.0123831 0.00279534 0)
(0.0137762 0.00294426 0)
(0.0151457 0.00311024 0)
(0.0164877 0.00329337 0)
(0.0177984 0.00349373 0)
(0.0190733 0.00371137 0)
(0.0203078 0.00394629 0)
(0.0214969 0.00419844 0)
(0.0226354 0.00446771 0)
(0.0237175 0.00475393 0)
(0.0247374 0.00505683 0)
(0.0256889 0.00537605 0)
(0.0265657 0.00571112 0)
(0.0273613 0.00606147 0)
(0.0280691 0.00642638 0)
(0.0286823 0.00680499 0)
(0.0291945 0.00719631 0)
(0.0295991 0.00759919 0)
(0.0298898 0.0080123 0)
(0.0300607 0.00843418 0)
(0.0301061 0.00886315 0)
(0.0300209 0.00929742 0)
(0.0298007 0.00973499 0)
(0.0294417 0.0101737 0)
(0.0289408 0.0106114 0)
(0.0282961 0.0110455 0)
(0.0275064 0.0114735 0)
(0.0265718 0.0118928 0)
(0.0254935 0.0123007 0)
(0.0242737 0.0126945 0)
(0.0229161 0.0130713 0)
(0.0214256 0.0134284 0)
(0.0198084 0.0137633 0)
(0.0180719 0.0140731 0)
(0.0162249 0.0143556 0)
(0.0142771 0.0146083 0)
(0.0122395 0.0148292 0)
(0.0101241 0.0150164 0)
(0.00794365 0.0151685 0)
(0.00571132 0.0152842 0)
(0.00344019 0.0153624 0)
(0.00114826 0.0154002 0)
(0.000752015 0.0036707 0)
(0.00225366 0.00369791 0)
(0.00375227 0.00375227 0)
(0.00524729 0.00383389 0)
(0.00673533 0.00394288 0)
(0.00821417 0.00407941 0)
(0.0096814 0.00424363 0)
(0.0111344 0.00443574 0)
(0.0125704 0.00465595 0)
(0.0139862 0.00490445 0)
(0.0153785 0.00518144 0)
(0.0167435 0.00548708 0)
(0.0180771 0.00582152 0)
(0.0193751 0.00618483 0)
(0.0206326 0.00657703 0)
(0.0218447 0.00699805 0)
(0.0230058 0.00744772 0)
(0.0241104 0.00792575 0)
(0.0251523 0.00843171 0)
(0.0261253 0.00896502 0)
(0.0270229 0.0095249 0)
(0.0278384 0.0101104 0)
(0.0285651 0.0107203 0)
(0.029196 0.0113533 0)
(0.0297244 0.0120076 0)
(0.0301435 0.0126813 0)
(0.030447 0.0133724 0)
(0.0306284 0.0140781 0)
(0.0306821 0.0147959 0)
(0.0306027 0.0155227 0)
(0.0303855 0.0162552 0)
(0.0300266 0.0169898 0)
(0.0295226 0.0177226 0)
(0.0288715 0.0184497 0)
(0.028072 0.0191667 0)
(0.027124 0.0198692 0)
(0.0260286 0.0205528 0)
(0.0247881 0.0212128 0)
(0.0234061 0.0218444 0)
(0.0218876 0.0224433 0)
(0.0202388 0.0230047 0)
(0.0184674 0.0235243 0)
(0.0165822 0.023998 0)
(0.0145933 0.0244219 0)
(0.0125121 0.0247925 0)
(0.0103507 0.0251065 0)
(0.00812242 0.0253614 0)
(0.00584105 0.0255551 0)
(0.0035187 0.025686 0)
(0.00117429 0.0257514 0)
(0.000768333 0.00513301 0)
(0.0023026 0.0051711 0)
(0.00383389 0.00524729 0)
(0.00536172 0.00536172 0)
(0.00688272 0.00551455 0)
(0.00839472 0.00570599 0)
(0.00989533 0.00593629 0)
(0.011382 0.00620572 0)
(0.0128518 0.00651459 0)
(0.0143017 0.00686318 0)
(0.0157283 0.00725178 0)
(0.0171278 0.00768064 0)
(0.0184961 0.00814997 0)
(0.0198288 0.0086599 0)
(0.021121 0.00921046 0)
(0.0223676 0.00980159 0)
(0.0235631 0.0104331 0)
(0.0247015 0.0111045 0)
(0.0257766 0.0118153 0)
(0.0267821 0.0125647 0)
(0.0277111 0.0133517 0)
(0.0285567 0.0141748 0)
(0.0293119 0.0150325 0)
(0.0299696 0.0159228 0)
(0.0305226 0.0168434 0)
(0.0309639 0.0177916 0)
(0.0312866 0.0187643 0)
(0.0314843 0.0197581 0)
(0.0315507 0.0207691 0)
(0.0314802 0.0217931 0)
(0.0312677 0.0228254 0)
(0.0309091 0.0238609 0)
(0.0304007 0.0248942 0)
(0.0297402 0.0259197 0)
(0.028926 0.0269313 0)
(0.027958 0.0279228 0)
(0.026837 0.0288877 0)
(0.0255653 0.0298195 0)
(0.0241466 0.0307117 0)
(0.0225858 0.0315576 0)
(0.0208894 0.0323508 0)
(0.0190653 0.0330852 0)
(0.0171225 0.0337547 0)
(0.0150715 0.0343539 0)
(0.0129241 0.0348777 0)
(0.0106931 0.0353217 0)
(0.00839224 0.0356819 0)
(0.00603588 0.0359552 0)
(0.00363644 0.036139 0)
(0.00121363 0.0362313 0)
(0.000790113 0.00658815 0)
(0.00236794 0.00663721 0)
(0.00394288 0.00673533 0)
(0.00551455 0.00688272 0)
(0.0070796 0.0070796 0)
(0.00863591 0.00732624 0)
(0.0101811 0.00762297 0)
(0.0117127 0.00797017 0)
(0.0132279 0.00836823 0)
(0.0147234 0.00881756 0)
(0.0161959 0.00931853 0)
(0.0176416 0.00987151 0)
(0.0190564 0.0104768 0)
(0.0204356 0.0111346 0)
(0.0217743 0.0118449 0)
(0.0230673 0.0126078 0)
(0.0243088 0.0134229 0)
(0.0254927 0.0142899 0)
(0.0266125 0.015208 0)
(0.0276616 0.0161762 0)
(0.028633 0.0171932 0)
(0.0295192 0.0182573 0)
(0.030313 0.0193665 0)
(0.0310069 0.0205182 0)
(0.0315932 0.0217096 0)
(0.0320645 0.0229371 0)
(0.0324135 0.0241968 0)
(0.0326333 0.0254843 0)
(0.0327171 0.0267946 0)
(0.032659 0.0281222 0)
(0.0324533 0.029461 0)
(0.0320954 0.0308046 0)
(0.0315815 0.0321459 0)
(0.0309086 0.0334774 0)
(0.0300751 0.0347915 0)
(0.0290804 0.0360798 0)
(0.0279253 0.0373341 0)
(0.026612 0.0385457 0)
(0.0251441 0.0397061 0)
(0.0235267 0.0408067 0)
(0.0217664 0.0418391 0)
(0.0198713 0.0427951 0)
(0.0178509 0.0436669 0)
(0.0157164 0.0444473 0)
(0.0134798 0.0451296 0)
(0.0111548 0.0457079 0)
(0.0087559 0.046177 0)
(0.00629818 0.0465328 0)
(0.00379485 0.046772 0)
(0.00126659 0.0468921 0)
(0.000817389 0.00803389 0)
(0.00244978 0.00809397 0)
(0.00407941 0.00821417 0)
(0.00570599 0.00839472 0)
(0.00732624 0.00863591 0)
(0.00893809 0.00893809 0)
(0.0105393 0.0093017 0)
(0.0121272 0.0097272 0)
(0.0136992 0.0102151 0)
(0.015252 0.010766 0)
(0.0167823 0.0113803 0)
(0.0182861 0.0120585 0)
(0.0197592 0.012801 0)
(0.0211969 0.0136082 0)
(0.0225943 0.0144801 0)
(0.0239457 0.0154168 0)
(0.0252452 0.016418 0)
(0.0264865 0.0174832 0)
(0.0276629 0.0186116 0)
(0.0287673 0.019802 0)
(0.0297922 0.0210529 0)
(0.03073 0.0223623 0)
(0.0315728 0.0237277 0)
(0.0323127 0.0251461 0)
(0.0329414 0.0266139 0)
(0.0334511 0.028127 0)
(0.0338339 0.0296805 0)
(0.0340821 0.031269 0)
(0.0341886 0.0328864 0)
(0.0341466 0.0345259 0)
(0.0339502 0.0361801 0)
(0.0335939 0.0378409 0)
(0.0330736 0.0394997 0)
(0.0323858 0.0411472 0)
(0.0315284 0.0427738 0)
(0.0305006 0.0443693 0)
(0.0293029 0.0459233 0)
(0.0279373 0.0474251 0)
(0.0264076 0.048864 0)
(0.0247188 0.0502293 0)
(0.0228778 0.0515104 0)
(0.0208931 0.0526971 0)
(0.0187747 0.0537796 0)
(0.0165342 0.0547489 0)
(0.0141847 0.0555965 0)
(0.0117405 0.056315 0)
(0.00921719 0.0568979 0)
(0.00663081 0.05734 0)
(0.00399569 0.0576371 0)
(0.00133374 0.0577863 0)
(0.000850194 0.00946782 0)
(0.00254821 0.009539 0)
(0.00424363 0.0096814 0)
(0.00593629 0.00989533 0)
(0.00762297 0.0101811 0)
(0.0093017 0.0105393 0)
(0.0109702 0.0109702 0)
(0.0126262 0.0114747 0)
(0.0142666 0.0120532 0)
(0.0158886 0.0127065 0)
(0.0174885 0.0134353 0)
(0.0190624 0.0142401 0)
(0.0206061 0.0151214 0)
(0.0221147 0.0160798 0)
(0.0235829 0.0171154 0)
(0.0250052 0.0182283 0)
(0.0263751 0.0194183 0)
(0.0276862 0.020685 0)
(0.0289314 0.0220273 0)
(0.030103 0.0234441 0)
(0.0311933 0.0249336 0)
(0.032194 0.0264934 0)
(0.0330968 0.0281208 0)
(0.0338931 0.0298122 0)
(0.034574 0.0315635 0)
(0.035131 0.0333697 0)
(0.0355555 0.0352253 0)
(0.0358391 0.0371237 0)
(0.035974 0.0390577 0)
(0.0359527 0.0410193 0)
(0.0357683 0.0429996 0)
(0.035415 0.0449891 0)
(0.0348878 0.0469772 0)
(0.0341827 0.0489529 0)
(0.0332972 0.0509046 0)
(0.0322299 0.0528201 0)
(0.0309812 0.0546867 0)
(0.0295528 0.0564916 0)
(0.0279483 0.0582217 0)
(0.0261731 0.0598641 0)
(0.0242342 0.0614058 0)
(0.0221405 0.0628346 0)
(0.0199028 0.0641384 0)
(0.0175332 0.0653061 0)
(0.0150459 0.0663276 0)
(0.0124563 0.0671937 0)
(0.0097809 0.0678964 0)
(0.00703731 0.0684294 0)
(0.00424112 0.0687876 0)
(0.00141579 0.0689675 0)
(0.000888566 0.0108873 0)
(0.00266336 0.0109697 0)
(0.00443574 0.0111344 0)
(0.00620572 0.011382 0)
(0.00797017 0.0117127 0)
(0.0097272 0.0121272 0)
(0.0114747 0.0126262 0)
(0.0132102 0.0132102 0)
(0.0149311 0.0138802 0)
(0.0166341 0.014637 0)
(0.0183158 0.0154815 0)
(0.0199722 0.0164143 0)
(0.0215989 0.0174362 0)
(0.0231909 0.0185478 0)
(0.0247428 0.0197495 0)
(0.0262486 0.0210415 0)
(0.0277019 0.0224236 0)
(0.0290955 0.0238953 0)
(0.0304221 0.0254558 0)
(0.0316735 0.0271037 0)
(0.0328415 0.0288371 0)
(0.0339173 0.0306534 0)
(0.0348916 0.0325495 0)
(0.0357553 0.0345214 0)
(0.0364989 0.0365643 0)
(0.0371129 0.0386727 0)
(0.0375878 0.04084 0)
(0.0379145 0.0430589 0)
(0.0380842 0.0453209 0)
(0.0380885 0.0476167 0)
(0.0379199 0.049936 0)
(0.0375714 0.0522675 0)
(0.0370374 0.0545991 0)
(0.0363132 0.0569177 0)
(0.0353956 0.0592096 0)
(0.0342827 0.0614604 0)
(0.0329744 0.0636552 0)
(0.0314724 0.0657786 0)
(0.02978 0.0678153 0)
(0.0279029 0.0697498 0)
(0.0258483 0.0715667 0)
(0.0236256 0.0732512 0)
(0.0212463 0.074789 0)
(0.0187235 0.076167 0)
(0.0160723 0.0773727 0)
(0.0133094 0.0783953 0)
(0.0104529 0.0792253 0)
(0.00752197 0.0798549 0)
(0.00453377 0.080278 0)
(0.00151363 0.0804905 0)
(0.000932545 0.0122895 0)
(0.00279534 0.0123831 0)
(0.00465595 0.0125704 0)
(0.00651459 0.0128518 0)
(0.00836823 0.0132279 0)
(0.0102151 0.0136992 0)
(0.0120532 0.0142666 0)
(0.0138802 0.0149311 0)
(0.0156935 0.0156935 0)
(0.0174898 0.0165548 0)
(0.0192657 0.0175163 0)
(0.0210172 0.0185787 0)
(0.0227396 0.0197431 0)
(0.024428 0.0210103 0)
(0.0260766 0.0223807 0)
(0.0276792 0.0238548 0)
(0.029229 0.0254326 0)
(0.0307185 0.0271136 0)
(0.0321398 0.0288969 0)
(0.0334843 0.0307813 0)
(0.034743 0.0327647 0)
(0.0359064 0.0348443 0)
(0.0369648 0.0370167 0)
(0.0379079 0.0392775 0)
(0.0387253 0.0416214 0)
(0.0394067 0.0440422 0)
(0.0399417 0.0465325 0)
(0.04032 0.049084 0)
(0.0405318 0.0516871 0)
(0.0405678 0.0543311 0)
(0.0404191 0.0570043 0)
(0.0400781 0.0596937 0)
(0.039538 0.0623852 0)
(0.0387933 0.0650638 0)
(0.0378399 0.0677136 0)
(0.0366755 0.0703178 0)
(0.0352994 0.0728591 0)
(0.0337129 0.0753195 0)
(0.0319194 0.0776809 0)
(0.0299244 0.0799252 0)
(0.0277356 0.0820344 0)
(0.0253629 0.083991 0)
(0.0228186 0.0857782 0)
(0.0201169 0.0873803 0)
(0.0172743 0.0887827 0)
(0.0143088 0.0899726 0)
(0.0112404 0.0909385 0)
(0.00808998 0.0916714 0)
(0.00487677 0.092164 0)
(0.00162832 0.0924115 0)
(0.000982168 0.0136713 0)
(0.00294426 0.0137762 0)
(0.00490445 0.0139862 0)
(0.00686318 0.0143017 0)
(0.00881756 0.0147234 0)
(0.010766 0.015252 0)
(0.0127065 0.0158886 0)
(0.014637 0.0166341 0)
(0.0165548 0.0174898 0)
(0.0184569 0.0184569 0)
(0.0203397 0.0195367 0)
(0.0221991 0.0207305 0)
(0.0240304 0.0220394 0)
(0.0258285 0.0234645 0)
(0.0275873 0.0250065 0)
(0.0293004 0.0266661 0)
(0.0309606 0.0284433 0)
(0.0325599 0.030338 0)
(0.0340898 0.0323494 0)
(0.0355413 0.0344762 0)
(0.0369045 0.0367163 0)
(0.0381693 0.0390667 0)
(0.0393248 0.0415239 0)
(0.04036 0.0440831 0)
(0.0412636 0.0467385 0)
(0.042024 0.0494832 0)
(0.0426296 0.0523092 0)
(0.0430691 0.0552071 0)
(0.0433314 0.0581662 0)
(0.0434058 0.0611744 0)
(0.0432824 0.0642186 0)
(0.0429523 0.0672838 0)
(0.0424076 0.0703542 0)
(0.0416416 0.0734127 0)
(0.0406496 0.0764408 0)
(0.0394281 0.0794193 0)
(0.037976 0.0823283 0)
(0.0362942 0.085147 0)
(0.0343858 0.0878543 0)
(0.0322564 0.0904293 0)
(0.0299141 0.0928509 0)
(0.0273695 0.0950988 0)
(0.0246356 0.0971532 0)
(0.021728 0.0989958 0)
(0.0186645 0.10061 0)
(0.0154652 0.101979 0)
(0.0121518 0.103092 0)
(0.00874746 0.103936 0)
(0.00527386 0.104503 0)
(0.0017611 0.104788 0)
(0.00103747 0.0150294 0)
(0.00311024 0.0151457 0)
(0.00518144 0.0153785 0)
(0.00725178 0.0157283 0)
(0.00931853 0.0161959 0)
(0.0113803 0.0167823 0)
(0.0134353 0.0174885 0)
(0.0154815 0.0183158 0)
(0.0175163 0.0192657 0)
(0.0195367 0.0203397 0)
(0.0215393 0.0215393 0)
(0.0235198 0.0228661 0)
(0.0254736 0.0243216 0)
(0.0273951 0.025907 0)
(0.0292782 0.0276236 0)
(0.031116 0.0294721 0)
(0.032901 0.0314529 0)
(0.0346246 0.0335662 0)
(0.036278 0.0358111 0)
(0.0378511 0.0381866 0)
(0.0393335 0.0406906 0)
(0.0407141 0.0433201 0)
(0.0419811 0.0460714 0)
(0.0431224 0.0489393 0)
(0.0441255 0.0519178 0)
(0.0449775 0.0549993 0)
(0.0456656 0.058175 0)
(0.046177 0.0614346 0)
(0.0464992 0.0647664 0)
(0.0466201 0.0681569 0)
(0.0465285 0.0715911 0)
(0.0462138 0.0750527 0)
(0.0456668 0.0785236 0)
(0.0448798 0.0819843 0)
(0.0438466 0.0854141 0)
(0.042563 0.088791 0)
(0.041027 0.0920921 0)
(0.039239 0.0952936 0)
(0.0372017 0.0983713 0)
(0.034921 0.101301 0)
(0.032405 0.104058 0)
(0.0296652 0.10662 0)
(0.0267157 0.108962 0)
(0.0235733 0.111065 0)
(0.0202577 0.112907 0)
(0.0167908 0.114471 0)
(0.0131968 0.115742 0)
(0.00950161 0.116706 0)
(0.0057294 0.117355 0)
(0.00191343 0.117681 0)
(0.00109849 0.01636 0)
(0.00329337 0.0164877 0)
(0.00548708 0.0167435 0)
(0.00768064 0.0171278 0)
(0.00987151 0.0176416 0)
(0.0120585 0.0182861 0)
(0.0142401 0.0190624 0)
(0.0164143 0.0199722 0)
(0.0185787 0.0210172 0)
(0.0207305 0.0221991 0)
(0.0228661 0.0235198 0)
(0.0249814 0.0249814 0)
(0.0270714 0.0265854 0)
(0.0291305 0.0283338 0)
(0.0311524 0.0302278 0)
(0.0331298 0.0322688 0)
(0.0350546 0.0344575 0)
(0.0369181 0.0367942 0)
(0.0387103 0.0392786 0)
(0.0404207 0.0419095 0)
(0.042038 0.0446851 0)
(0.04355 0.0476025 0)
(0.044944 0.0506578 0)
(0.0462064 0.0538457 0)
(0.0473236 0.0571598 0)
(0.0482812 0.0605921 0)
(0.049065 0.064133 0)
(0.0496605 0.0677713 0)
(0.0500536 0.0714942 0)
(0.0502305 0.0752868 0)
(0.0501783 0.0791327 0)
(0.0498848 0.0830135 0)
(0.0493392 0.0869091 0)
(0.0485322 0.0907975 0)
(0.0474562 0.0946554 0)
(0.046106 0.0984578 0)
(0.0444786 0.102179 0)
(0.0425734 0.105791 0)
(0.0403932 0.109267 0)
(0.0379434 0.112579 0)
(0.0352328 0.115699 0)
(0.0322734 0.1186 0)
(0.0290804 0.121255 0)
(0.0256724 0.123639 0)
(0.0220708 0.125729 0)
(0.0183001 0.127505 0)
(0.0143872 0.128948 0)
(0.0103608 0.130044 0)
(0.00624851 0.130781 0)
(0.00208704 0.131152 0)
(0.00116524 0.0176591 0)
(0.00349373 0.0177984 0)
(0.00582152 0.0180771 0)
(0.00814997 0.0184961 0)
(0.0104768 0.0190564 0)
(0.012801 0.0197592 0)
(0.0151214 0.0206061 0)
(0.0174362 0.0215989 0)
(0.0197431 0.0227396 0)
(0.0220394 0.0240304 0)
(0.0243216 0.0254736 0)
(0.0265854 0.0270714 0)
(0.028826 0.028826 0)
(0.0310375 0.0307396 0)
(0.0332133 0.0328142 0)
(0.0353457 0.0350513 0)
(0.0374263 0.0374521 0)
(0.0394456 0.0400173 0)
(0.0413932 0.042747 0)
(0.0432576 0.0456403 0)
(0.0450265 0.0486956 0)
(0.0466868 0.0519101 0)
(0.0482243 0.05528 0)
(0.0496245 0.0588 0)
(0.0508718 0.0624632 0)
(0.0519506 0.0662613 0)
(0.0528448 0.0701841 0)
(0.0535382 0.0742196 0)
(0.0540147 0.0783538 0)
(0.0542587 0.0825707 0)
(0.0542552 0.0868519 0)
(0.0539901 0.0911773 0)
(0.0534508 0.0955245 0)
(0.0526261 0.0998691 0)
(0.0515069 0.104185 0)
(0.0500864 0.108444 0)
(0.0483604 0.112616 0)
(0.0463275 0.116671 0)
(0.0439899 0.120578 0)
(0.0413529 0.124303 0)
(0.0384255 0.127817 0)
(0.0352205 0.131086 0)
(0.0317545 0.13408 0)
(0.0280476 0.136772 0)
(0.0241238 0.139133 0)
(0.0200099 0.14114 0)
(0.0157362 0.142773 0)
(0.0113349 0.144013 0)
(0.00683709 0.144847 0)
(0.0022839 0.145266 0)
(0.00123775 0.0189225 0)
(0.00371137 0.0190733 0)
(0.00618483 0.0193751 0)
(0.0086599 0.0198288 0)
(0.0111346 0.0204356 0)
(0.0136082 0.0211969 0)
(0.0160798 0.0221147 0)
(0.0185478 0.0231909 0)
(0.0210103 0.024428 0)
(0.0234645 0.0258285 0)
(0.025907 0.0273951 0)
(0.0283338 0.0291305 0)
(0.0307396 0.0310375 0)
(0.0331187 0.0331187 0)
(0.035464 0.0353765 0)
(0.0377677 0.0378132 0)
(0.0400207 0.0404303 0)
(0.0422129 0.0432291 0)
(0.0443332 0.0462101 0)
(0.0463693 0.0493729 0)
(0.0483079 0.0527162 0)
(0.0501345 0.0562375 0)
(0.0518338 0.0599331 0)
(0.0533896 0.0637977 0)
(0.0547849 0.0678244 0)
(0.0560022 0.0720044 0)
(0.0570234 0.0763272 0)
(0.0578302 0.0807798 0)
(0.0584046 0.0853474 0)
(0.0587286 0.0900123 0)
(0.058785 0.094755 0)
(0.0585574 0.0995531 0)
(0.058031 0.104382 0)
(0.0571924 0.109214 0)
(0.0560307 0.114021 0)
(0.0545371 0.11877 0)
(0.0527061 0.123429 0)
(0.0505351 0.127963 0)
(0.0480256 0.132336 0)
(0.0451825 0.136512 0)
(0.0420152 0.140454 0)
(0.0385372 0.144125 0)
(0.0347665 0.147492 0)
(0.0307251 0.15052 0)
(0.0264394 0.153179 0)
(0.0219396 0.15544 0)
(0.0172594 0.15728 0)
(0.012435 0.158678 0)
(0.00750204 0.15962 0)
(0.00250633 0.160093 0)
(0.00131601 0.0201456 0)
(0.00394629 0.0203078 0)
(0.00657703 0.0206326 0)
(0.00921046 0.021121 0)
(0.0118449 0.0217743 0)
(0.0144801 0.0225943 0)
(0.0171154 0.0235829 0)
(0.0197495 0.0247428 0)
(0.0223807 0.0260766 0)
(0.0250065 0.0275873 0)
(0.0276236 0.0292782 0)
(0.0302278 0.0311524 0)
(0.0328142 0.0332133 0)
(0.0353765 0.035464 0)
(0.0379077 0.0379077 0)
(0.0403995 0.0405472 0)
(0.0428423 0.0433847 0)
(0.0452254 0.046422 0)
(0.047537 0.0496602 0)
(0.0497637 0.0530996 0)
(0.0518911 0.0567393 0)
(0.0539037 0.0605772 0)
(0.0557845 0.0646099 0)
(0.0575157 0.0688322 0)
(0.0590786 0.0732374 0)
(0.0604535 0.0778164 0)
(0.0616202 0.0825582 0)
(0.0625584 0.0874494 0)
(0.0632472 0.0924739 0)
(0.0636663 0.0976131 0)
(0.0637959 0.102845 0)
(0.0636169 0.108147 0)
(0.0631119 0.11349 0)
(0.0622651 0.118845 0)
(0.0610631 0.12418 0)
(0.059495 0.129459 0)
(0.0575535 0.134644 0)
(0.0552346 0.139698 0)
(0.0525386 0.144578 0)
(0.0494702 0.149245 0)
(0.0460387 0.153655 0)
(0.0422585 0.157767 0)
(0.038149 0.161542 0)
(0.0337344 0.16494 0)
(0.029044 0.167927 0)
(0.0241115 0.170469 0)
(0.0189746 0.172538 0)
(0.0136743 0.174112 0)
(0.00825131 0.175171 0)
(0.00275701 0.175704 0)
(0.0014 0.0213233 0)
(0.00419844 0.0214969 0)
(0.00699805 0.0218447 0)
(0.00980159 0.0223676 0)
(0.0126078 0.0230673 0)
(0.0154168 0.0239457 0)
(0.0182283 0.0250052 0)
(0.0210415 0.0262486 0)
(0.0238548 0.0276792 0)
(0.0266661 0.0293004 0)
(0.0294721 0.031116 0)
(0.0322688 0.0331298 0)
(0.0350513 0.0353457 0)
(0.0378132 0.0377677 0)
(0.0405472 0.0403995 0)
(0.0432446 0.0432446 0)
(0.0458955 0.0463061 0)
(0.0484885 0.0495866 0)
(0.0510109 0.0530878 0)
(0.0534484 0.0568107 0)
(0.0557855 0.0607551 0)
(0.0580051 0.0649195 0)
(0.0600888 0.0693008 0)
(0.0620171 0.0738944 0)
(0.0637691 0.0786935 0)
(0.065323 0.0836893 0)
(0.0666563 0.0888703 0)
(0.0677459 0.0942227 0)
(0.0685683 0.0997295 0)
(0.0691002 0.105371 0)
(0.0693188 0.111124 0)
(0.069202 0.116962 0)
(0.0687294 0.122856 0)
(0.0678821 0.128772 0)
(0.0666439 0.134676 0)
(0.0650015 0.140527 0)
(0.0629452 0.146283 0)
(0.0604691 0.151902 0)
(0.0575723 0.157336 0)
(0.0542588 0.162539 0)
(0.0505378 0.167463 0)
(0.0464245 0.172061 0)
(0.0419396 0.176286 0)
(0.03711 0.180093 0)
(0.031968 0.183442 0)
(0.0265513 0.186295 0)
(0.0209025 0.18862 0)
(0.0150679 0.190388 0)
(0.00909411 0.191579 0)
(0.00303901 0.192178 0)
(0.00148968 0.0224504 0)
(0.00446771 0.0226354 0)
(0.00744772 0.0230058 0)
(0.0104331 0.0235631 0)
(0.0134229 0.0243088 0)
(0.016418 0.0252452 0)
(0.0194183 0.0263751 0)
(0.0224236 0.0277019 0)
(0.0254326 0.029229 0)
(0.0284433 0.0309606 0)
(0.0314529 0.032901 0)
(0.0344575 0.0350546 0)
(0.0374521 0.0374263 0)
(0.0404303 0.0400207 0)
(0.0433847 0.0428423 0)
(0.0463061 0.0458955 0)
(0.0491843 0.0491843 0)
(0.0520071 0.0527121 0)
(0.0547611 0.0564816 0)
(0.057431 0.0604946 0)
(0.0599999 0.0647517 0)
(0.0624494 0.0692522 0)
(0.0647594 0.0739938 0)
(0.0669084 0.0789723 0)
(0.0688734 0.0841813 0)
(0.0706303 0.0896122 0)
(0.0721536 0.0952534 0)
(0.0734175 0.101091 0)
(0.0743954 0.107107 0)
(0.0750607 0.11328 0)
(0.075387 0.119587 0)
(0.075349 0.125998 0)
(0.0749224 0.132482 0)
(0.0740851 0.139002 0)
(0.0728173 0.145519 0)
(0.0711027 0.15199 0)
(0.0689288 0.158368 0)
(0.0662874 0.164603 0)
(0.0631759 0.170643 0)
(0.0595971 0.176435 0)
(0.0555602 0.181925 0)
(0.0510808 0.187057 0)
(0.0461814 0.19178 0)
(0.0408912 0.196041 0)
(0.0352463 0.199793 0)
(0.0292889 0.202993 0)
(0.023067 0.205601 0)
(0.0166333 0.207586 0)
(0.0100411 0.208924 0)
(0.00335595 0.209597 0)
(0.00158501 0.0235213 0)
(0.00475393 0.0237175 0)
(0.00792575 0.0241104 0)
(0.0111045 0.0247015 0)
(0.0142899 0.0254927 0)
(0.0174832 0.0264865 0)
(0.020685 0.0276862 0)
(0.0238953 0.0290955 0)
(0.0271136 0.0307185 0)
(0.030338 0.0325599 0)
(0.0335662 0.0346246 0)
(0.0367942 0.0369181 0)
(0.0400173 0.0394456 0)
(0.0432291 0.0422129 0)
(0.046422 0.0452254 0)
(0.0495866 0.0484885 0)
(0.0527121 0.0520071 0)
(0.0557858 0.0557858 0)
(0.0587934 0.0598283 0)
(0.0617185 0.0641374 0)
(0.0645431 0.0687148 0)
(0.0672472 0.0735608 0)
(0.0698089 0.078674 0)
(0.0722046 0.0840509 0)
(0.074409 0.0896858 0)
(0.0763951 0.0955705 0)
(0.078135 0.101694 0)
(0.0795991 0.108041 0)
(0.0807577 0.114594 0)
(0.0815802 0.121331 0)
(0.0820366 0.128227 0)
(0.0820971 0.13525 0)
(0.0817337 0.142367 0)
(0.0809198 0.149538 0)
(0.0796319 0.156718 0)
(0.0778498 0.163862 0)
(0.0755575 0.170915 0)
(0.0727442 0.177824 0)
(0.0694047 0.184529 0)
(0.0655405 0.190969 0)
(0.0611602 0.197083 0)
(0.0562798 0.202809 0)
(0.0509235 0.208084 0)
(0.0451234 0.21285 0)
(0.0389193 0.217052 0)
(0.0323587 0.220638 0)
(0.025496 0.223564 0)
(0.0183909 0.225792 0)
(0.0111047 0.227294 0)
(0.00371197 0.22805 0)
(0.00168588 0.0245302 0)
(0.00505683 0.0247374 0)
(0.00843171 0.0251523 0)
(0.0118153 0.0257766 0)
(0.015208 0.0266125 0)
(0.0186116 0.0276629 0)
(0.0220273 0.0289314 0)
(0.0254558 0.0304221 0)
(0.0288969 0.0321398 0)
(0.0323494 0.0340898 0)
(0.0358111 0.036278 0)
(0.0392786 0.0387103 0)
(0.042747 0.0413932 0)
(0.0462101 0.0443332 0)
(0.0496602 0.047537 0)
(0.0530878 0.0510109 0)
(0.0564816 0.0547611 0)
(0.0598283 0.0587934 0)
(0.0631127 0.0631127 0)
(0.0663175 0.0677232 0)
(0.0694233 0.0726278 0)
(0.0724086 0.0778279 0)
(0.0752495 0.0833235 0)
(0.0779203 0.089112 0)
(0.0803931 0.0951887 0)
(0.0826381 0.101546 0)
(0.084624 0.108173 0)
(0.0863179 0.115056 0)
(0.0876859 0.122176 0)
(0.0886935 0.12951 0)
(0.0893059 0.137033 0)
(0.089489 0.14471 0)
(0.0892096 0.152506 0)
(0.0884366 0.160377 0)
(0.0871415 0.168276 0)
(0.0852997 0.17615 0)
(0.082891 0.183942 0)
(0.0799009 0.191588 0)
(0.0763213 0.199024 0)
(0.0721517 0.20618 0)
(0.0673997 0.212985 0)
(0.0620815 0.219369 0)
(0.0562229 0.22526 0)
(0.0498588 0.23059 0)
(0.0430337 0.235295 0)
(0.0358007 0.239314 0)
(0.0282214 0.242597 0)
(0.0203641 0.245099 0)
(0.0122994 0.246787 0)
(0.00411193 0.247636 0)
(0.00179218 0.025471 0)
(0.00537605 0.0256889 0)
(0.00896502 0.0261253 0)
(0.0125647 0.0267821 0)
(0.0161762 0.0276616 0)
(0.019802 0.0287673 0)
(0.0234441 0.030103 0)
(0.0271037 0.0316735 0)
(0.0307813 0.0334843 0)
(0.0344762 0.0355413 0)
(0.0381866 0.0378511 0)
(0.0419095 0.0404207 0)
(0.0456403 0.0432576 0)
(0.0493729 0.0463693 0)
(0.0530996 0.0497637 0)
(0.0568107 0.0534484 0)
(0.0604946 0.057431 0)
(0.0641374 0.0617185 0)
(0.0677232 0.0663175 0)
(0.0712336 0.0712336 0)
(0.0746479 0.0764712 0)
(0.0779429 0.0820334 0)
(0.0810929 0.0879212 0)
(0.0840698 0.0941339 0)
(0.086843 0.100668 0)
(0.0893797 0.107516 0)
(0.0916448 0.11467 0)
(0.0936018 0.122114 0)
(0.0952122 0.129831 0)
(0.0964369 0.137798 0)
(0.0972361 0.145986 0)
(0.0975702 0.154363 0)
(0.0974005 0.162887 0)
(0.0966902 0.171514 0)
(0.0954053 0.180191 0)
(0.0935154 0.18886 0)
(0.0909955 0.197458 0)
(0.0878264 0.205914 0)
(0.0839964 0.214155 0)
(0.079502 0.222102 0)
(0.0743493 0.229675 0)
(0.0685545 0.236792 0)
(0.0621447 0.243372 0)
(0.0551579 0.249334 0)
(0.0476434 0.254603 0)
(0.0396612 0.259111 0)
(0.0312809 0.262797 0)
(0.0225807 0.265608 0)
(0.0136419 0.267505 0)
(0.00456151 0.268461 0)
(0.00190375 0.0263375 0)
(0.00571112 0.0265657 0)
(0.0095249 0.0270229 0)
(0.0133517 0.0277111 0)
(0.0171932 0.028633 0)
(0.0210529 0.0297922 0)
(0.0249336 0.0311933 0)
(0.0288371 0.0328415 0)
(0.0327647 0.034743 0)
(0.0367163 0.0369045 0)
(0.0406906 0.0393335 0)
(0.0446851 0.042038 0)
(0.0486956 0.0450265 0)
(0.0527162 0.0483079 0)
(0.0567393 0.0518911 0)
(0.0607551 0.0557855 0)
(0.0647517 0.0599999 0)
(0.0687148 0.0645431 0)
(0.0726278 0.0694233 0)
(0.0764712 0.0746479 0)
(0.0802231 0.0802231 0)
(0.0838586 0.0861537 0)
(0.0873501 0.0924428 0)
(0.0906668 0.0990911 0)
(0.0937756 0.106097 0)
(0.0966401 0.113455 0)
(0.0992217 0.121156 0)
(0.101479 0.129188 0)
(0.10337 0.137533 0)
(0.104849 0.146168 0)
(0.105871 0.155065 0)
(0.10639 0.164187 0)
(0.106361 0.173493 0)
(0.10574 0.182935 0)
(0.104488 0.192455 0)
(0.102567 0.20199 0)
(0.099945 0.21147 0)
(0.0965982 0.220817 0)
(0.0925096 0.229947 0)
(0.0876722 0.238771 0)
(0.0820897 0.247199 0)
(0.0757776 0.255135 0)
(0.0687641 0.262486 0)
(0.0610905 0.269159 0)
(0.0528114 0.275066 0)
(0.0439943 0.280126 0)
(0.0347182 0.284268 0)
(0.0250728 0.28743 0)
(0.015152 0.289566 0)
(0.00506736 0.290641 0)
(0.0020204 0.0271232 0)
(0.00606147 0.0273613 0)
(0.0101104 0.0278384 0)
(0.0141748 0.0285567 0)
(0.0182573 0.0295192 0)
(0.0223623 0.03073 0)
(0.0264934 0.032194 0)
(0.0306534 0.0339173 0)
(0.0348443 0.0359064 0)
(0.0390667 0.0381693 0)
(0.0433201 0.0407141 0)
(0.0476025 0.04355 0)
(0.0519101 0.0466868 0)
(0.0562375 0.0501345 0)
(0.0605772 0.0539037 0)
(0.0649195 0.0580051 0)
(0.0692522 0.0624494 0)
(0.0735608 0.0672472 0)
(0.0778279 0.0724086 0)
(0.0820334 0.0779429 0)
(0.0861537 0.0838586 0)
(0.0901626 0.0901626 0)
(0.0940303 0.0968602 0)
(0.0977238 0.103954 0)
(0.101207 0.111445 0)
(0.104439 0.119329 0)
(0.107378 0.1276 0)
(0.109979 0.136246 0)
(0.112192 0.14525 0)
(0.113968 0.15459 0)
(0.115255 0.164238 0)
(0.115999 0.174156 0)
(0.116148 0.184301 0)
(0.115652 0.194621 0)
(0.114461 0.205055 0)
(0.11253 0.215534 0)
(0.109822 0.22598 0)
(0.106303 0.236306 0)
(0.101951 0.24642 0)
(0.0967546 0.25622 0)
(0.0907133 0.265601 0)
(0.0838415 0.274456 0)
(0.0761682 0.282674 0)
(0.0677379 0.290149 0)
(0.0586109 0.296778 0)
(0.0488631 0.302466 0)
(0.0385846 0.307126 0)
(0.0278782 0.310688 0)
(0.016853 0.313095 0)
(0.00563728 0.314308 0)
(0.00214188 0.0278215 0)
(0.00642638 0.0280691 0)
(0.0107203 0.0285651 0)
(0.0150325 0.0293119 0)
(0.0193665 0.030313 0)
(0.0237277 0.0315728 0)
(0.0281208 0.0330968 0)
(0.0325495 0.0348916 0)
(0.0370167 0.0369648 0)
(0.0415239 0.0393248 0)
(0.0460714 0.0419811 0)
(0.0506578 0.044944 0)
(0.05528 0.0482243 0)
(0.0599331 0.0518338 0)
(0.0646099 0.0557845 0)
(0.0693008 0.0600888 0)
(0.0739938 0.0647594 0)
(0.078674 0.0698089 0)
(0.0833235 0.0752495 0)
(0.0879212 0.0810929 0)
(0.0924428 0.0873501 0)
(0.0968602 0.0940303 0)
(0.101142 0.101142 0)
(0.105251 0.108689 0)
(0.10915 0.116677 0)
(0.112795 0.125102 0)
(0.116138 0.133962 0)
(0.11913 0.143247 0)
(0.121714 0.152942 0)
(0.123836 0.163025 0)
(0.125436 0.173467 0)
(0.126453 0.184233 0)
(0.126826 0.195277 0)
(0.126494 0.206543 0)
(0.125401 0.217968 0)
(0.123491 0.229476 0)
(0.120717 0.24098 0)
(0.117038 0.252387 0)
(0.112423 0.26359 0)
(0.106854 0.274476 0)
(0.100326 0.284925 0)
(0.0928508 0.294811 0)
(0.0844579 0.30401 0)
(0.0751946 0.312394 0)
(0.0651275 0.319843 0)
(0.0543419 0.326245 0)
(0.0429406 0.331498 0)
(0.0310417 0.335518 0)
(0.0187723 0.338237 0)
(0.00628054 0.339607 0)
(0.00226791 0.0284261 0)
(0.00680499 0.0286823 0)
(0.0113533 0.029196 0)
(0.0159228 0.0299696 0)
(0.0205182 0.0310069 0)
(0.0251461 0.0323127 0)
(0.0298122 0.0338931 0)
(0.0345214 0.0357553 0)
(0.0392775 0.0379079 0)
(0.0440831 0.04036 0)
(0.0489393 0.0431224 0)
(0.0538457 0.0462064 0)
(0.0588 0.0496245 0)
(0.0637977 0.0533896 0)
(0.0688322 0.0575157 0)
(0.0738944 0.0620171 0)
(0.0789723 0.0669084 0)
(0.0840509 0.0722046 0)
(0.089112 0.0779203 0)
(0.0941339 0.0840698 0)
(0.0990911 0.0906668 0)
(0.103954 0.0977238 0)
(0.108689 0.105251 0)
(0.113259 0.113259 0)
(0.11762 0.121751 0)
(0.121725 0.130732 0)
(0.125523 0.1402 0)
(0.128958 0.150147 0)
(0.13197 0.160561 0)
(0.134494 0.171424 0)
(0.136463 0.182706 0)
(0.137808 0.194373 0)
(0.138459 0.206378 0)
(0.138343 0.218664 0)
(0.137393 0.231162 0)
(0.135543 0.243791 0)
(0.132733 0.256458 0)
(0.128912 0.269056 0)
(0.12404 0.281468 0)
(0.118089 0.293566 0)
(0.111049 0.305212 0)
(0.102927 0.316262 0)
(0.0937506 0.32657 0)
(0.0835714 0.335988 0)
(0.0724621 0.344373 0)
(0.0605184 0.351593 0)
(0.0478577 0.357528 0)
(0.0346163 0.362074 0)
(0.0209424 0.365151 0)
(0.00700814 0.366704 0)
(0.00239816 0.0289302 0)
(0.00719631 0.0291945 0)
(0.0120076 0.0297244 0)
(0.0168434 0.0305226 0)
(0.0217096 0.0315932 0)
(0.0266139 0.0329414 0)
(0.0315635 0.034574 0)
(0.0365643 0.0364989 0)
(0.0416214 0.0387253 0)
(0.0467385 0.0412636 0)
(0.0519178 0.0441255 0)
(0.0571598 0.0473236 0)
(0.0624632 0.0508718 0)
(0.0678244 0.0547849 0)
(0.0732374 0.0590786 0)
(0.0786935 0.0637691 0)
(0.0841813 0.0688734 0)
(0.0896858 0.074409 0)
(0.0951887 0.0803931 0)
(0.100668 0.086843 0)
(0.106097 0.0937756 0)
(0.111445 0.101207 0)
(0.116677 0.10915 0)
(0.121751 0.11762 0)
(0.126624 0.126624 0)
(0.131243 0.13617 0)