/*--------------------------------*- C++ -*----------------------------------*\
| =========                 |                                                 |
| \\      /  F ield         | OpenFOAM: The Open Source CFD Toolbox           |
|  \\    /   O peration     | Version:  2406                                  |
|   \\  /    A nd           | Website:  www.openfoam.com                      |
|    \\/     M anipulation  |                                                 |
\*---------------------------------------------------------------------------*/
FoamFile
{
    version     2.0;
    format      ascii;
    arch        "LSB;label=32;scalar=64";
    class       volScalarField;
    location    "1.65";
    object      gradTy;
}
// * * * * * * * * * * * * * * * * * * * * * * * * * * * * * * * * * * * * * //

dimensions      [0 -1 0 1 0 0 0];

internalField   nonuniform List<scalar> 
2500
(
0.00735775
0.00741125
0.00752015
0.00768333
0.00790113
0.00817389
0.00850194
0.00888566
0.00932545
0.00982168
0.0103747
0.0109849
0.0116524
0.0123775
0.0131601
0.014
0.0148968
0.0158501
0.0168588
0.0179218
0.0190375
0.020204
0.0214188
0.0226791
0.0239816
0.0253225
0.0266973
0.0281011
0.0295284
0.0309731
0.0324287
0.0338881
0.0353436
0.0367872
0.0382105
0.0396047
0.0409608
0.0422698
0.0435224
0.0447095
0.0458223
0.0468521
0.0477907
0.0486305
0.0493645
0.0499867
0.0504921
0.0508762
0.0511339
0.0512518
0.0220479
0.0222103
0.0225366
0.023026
0.0236794
0.0244978
0.0254821
0.0266336
0.0279534
0.0294426
0.0311024
0.0329337
0.0349373
0.0371137
0.0394629
0.0419844
0.0446771
0.0475393
0.0505683
0.0537605
0.0571112
0.0606147
0.0642638
0.0680499
0.0719631
0.0759919
0.080123
0.0843418
0.0886315
0.0929742
0.0973499
0.101737
0.106114
0.110455
0.114735
0.118928
0.123007
0.126945
0.130713
0.134284
0.137633
0.140731
0.143556
0.146083
0.148292
0.150164
0.151685
0.152842
0.153624
0.154002
0.036707
0.0369791
0.0375227
0.0383389
0.0394288
0.0407941
0.0424363
0.0443574
0.0465595
0.0490445
0.0518144
0.0548708
0.0582152
0.0618483
0.0657703
0.0699805
0.0744772
0.0792575
0.0843171
0.0896502
0.095249
0.101104
0.107203
0.113533
0.120076
0.126813
0.133724
0.140781
0.147959
0.155227
0.162552
0.169898
0.177226
0.184497
0.191667
0.198692
0.205528
0.212128
0.218444
0.224433
0.230047
0.235243
0.23998
0.244219
0.247925
0.251065
0.253614
0.255551
0.25686
0.257514
0.0513301
0.051711
0.0524729
0.0536172
0.0551455
0.0570599
0.0593629
0.0620572
0.0651459
0.0686318
0.0725178
0.0768064
0.0814997
0.086599
0.0921046
0.0980159
0.104331
0.111045
0.118153
0.125647
0.133517
0.141748
0.150325
0.159228
0.168434
0.177916
0.187643
0.197581
0.207691
0.217931
0.228254
0.238609
0.248942
0.259197
0.269313
0.279228
0.288877
0.298195
0.307117
0.315576
0.323508
0.330852
0.337547
0.343539
0.348777
0.353217
0.356819
0.359552
0.36139
0.362313
0.0658815
0.0663721
0.0673533
0.0688272
0.070796
0.0732624
0.0762297
0.0797017
0.0836823
0.0881756
0.0931853
0.0987151
0.104768
0.111346
0.118449
0.126078
0.134229
0.142899
0.15208
0.161762
0.171932
0.182573
0.193665
0.205182
0.217096
0.229371
0.241968
0.254843
0.267946
0.281222
0.29461
0.308046
0.321459
0.334774
0.347915
0.360798
0.373341
0.385457
0.397061
0.408067
0.418391
0.427951
0.436669
0.444473
0.451296
0.457079
0.46177
0.465328
0.46772
0.468921
0.0803389
0.0809397
0.0821417
0.0839472
0.0863591
0.0893809
0.093017
0.097272
0.102151
0.10766
0.113803
0.120585
0.12801
0.136082
0.144801
0.154168
0.16418
0.174832
0.186116
0.19802
0.210529
0.223623
0.237277
0.251461
0.266139
0.28127
0.296805
0.31269
0.328864
0.345259
0.361801
0.378409
0.394997
0.411472
0.427738
0.443693
0.459233
0.474251
0.48864
0.502293
0.515104
0.526971
0.537796
0.547489
0.555965
0.56315
0.568979
0.5734
0.576371
0.577863
0.0946782
0.09539
0.096814
0.0989533
0.101811
0.105393
0.109702
0.114747
0.120532
0.127065
0.134353
0.142401
0.151214
0.160798
0.171154
0.182283
0.194183
0.20685
0.220273
0.234441
0.249336
0.264934
0.281208
0.298122
0.315635
0.333697
0.352253
0.371237
0.390577
0.410193
0.429996
0.449891
0.469772
0.489529
0.509046
0.528201
0.546867
0.564916
0.582217
0.598641
0.614058
0.628346
0.641384
0.653061
0.663276
0.671937
0.678964
0.684294
0.687876
0.689675
0.108873
0.109697
0.111344
0.11382
0.117127
0.121272
0.126262
0.132102
0.138802
0.14637
0.154815
0.164143
0.174362
0.185478
0.197495
0.210415
0.224236
0.238953
0.254558
0.271037
0.288371
0.306534
0.325495
0.345214
0.365643
0.386727
0.4084
0.430589
0.453209
0.476167
0.49936
0.522675
0.545991
0.569177
0.592096
0.614604
0.636552
0.657786
0.678153
0.697498
0.715667
0.732512
0.74789
0.76167
0.773727
0.783953
0.792253
0.798549
0.80278
0.804905
0.122895
0.123831
0.125704
0.128518
0.132279
0.136992
0.142666
0.149311
0.156935
0.165548
0.175163
0.185787
0.197431
0.210103
0.223807
0.238548
0.254326
0.271136
0.288969
0.307813
0.327647
0.348443
0.370167
0.392775
0.416214
0.440422
0.465325
0.49084
0.516871
0.543311
0.570043
0.596937
0.623852
0.650638
0.677136
0.703178
0.728591
0.753195
0.776809
0.799252
0.820344
0.83991
0.857782
0.873803
0.887827
0.899726
0.909385
0.916714
0.92164
0.924115
0.136713
0.137762
0.139862
0.143017
0.147234
0.15252
0.158886
0.166341
0.174898
0.184569
0.195367
0.207305
0.220394
0.234645
0.250065
0.266661
0.284433
0.30338
0.323494
0.344762
0.367163
0.390667
0.415239
0.440831
0.467385
0.494832
0.523092
0.552071
0.581662
0.611744
0.642186
0.672838
0.703542
0.734127
0.764408
0.794193
0.823283
0.85147
0.878543
0.904293
0.928509
0.950988
0.971532
0.989958
1.0061
1.01979
1.03092
1.03936
1.04503
1.04788
0.150294
0.151457
0.153785
0.157283
0.161959
0.167823
0.174885
0.183158
0.192657
0.203397
0.215393
0.228661
0.243216
0.25907
0.276236
0.294721
0.314529
0.335662
0.358111
0.381866
0.406906
0.433201
0.460714
0.489393
0.519178
0.549993
0.58175
0.614346
0.647664
0.681569
0.715911
0.750527
0.785236
0.819843
0.854141
0.88791
0.920921
0.952936
0.983713
1.01301
1.04058
1.0662
1.08962
1.11065
1.12907
1.14471
1.15742
1.16706
1.17355
1.17681
0.1636
0.164877
0.167435
0.171278
0.176416
0.182861
0.190624
0.199722
0.210172
0.221991
0.235198
0.249814
0.265854
0.283338
0.302278
0.322688
0.344575
0.367942
0.392786
0.419095
0.446851
0.476025
0.506578
0.538457
0.571598
0.605921
0.64133
0.677713
0.714942
0.752868
0.791327
0.830135
0.869091
0.907975
0.946554
0.984578
1.02179
1.05791
1.09267
1.12579
1.15699
1.186
1.21255
1.23639
1.25729
1.27505
1.28948
1.30044
1.30781
1.31152
0.176591
0.177984
0.180771
0.184961
0.190564
0.197592
0.206061
0.215989
0.227396
0.240304
0.254736
0.270714
0.28826
0.307396
0.328142
0.350513
0.374521
0.400173
0.42747
0.456403
0.486956
0.519101
0.5528
0.588
0.624632
0.662613
0.701841
0.742196
0.783538
0.825707
0.868519
0.911773
0.955245
0.998691
1.04185
1.08444
1.12616
1.16671
1.20578
1.24303
1.27817
1.31086
1.3408
1.36772
1.39133
1.4114
1.42773
1.44013
1.44847
1.45266
0.189225
0.190733
0.193751
0.198288
0.204356
0.211969
0.221147
0.231909
0.24428
0.258285
0.273951
0.291305
0.310375
0.331187
0.353765
0.378132
0.404303
0.432291
0.462101
0.493729
0.527162
0.562375
0.599331
0.637977
0.678244
0.720044
0.763272
0.807798
0.853474
0.900123
0.94755
0.995531
1.04382
1.09214
1.14021
1.1877
1.23429
1.27963
1.32336
1.36512
1.40454
1.44125
1.47492
1.5052
1.53179
1.5544
1.5728
1.58678
1.5962
1.60093
0.201456
0.203078
0.206326
0.21121
0.217743
0.225943
0.235829
0.247428
0.260766
0.275873
0.292782
0.311524
0.332133
0.35464
0.379077
0.405472
0.433847
0.46422
0.496602
0.530996
0.567393
0.605772
0.646099
0.688322
0.732374
0.778164
0.825582
0.874494
0.924739
0.976131
1.02845
1.08147
1.1349
1.18845
1.2418
1.29459
1.34644
1.39698
1.44578
1.49245
1.53655
1.57767
1.61542
1.6494
1.67927
1.70469
1.72538
1.74112
1.75171
1.75704
0.213233
0.214969
0.218447
0.223676
0.230673
0.239457
0.250052
0.262486
0.276792
0.293004
0.31116
0.331298
0.353457
0.377677
0.403995
0.432446
0.463061
0.495866
0.530878
0.568107
0.607551
0.649195
0.693008
0.738944
0.786935
0.836893
0.888703
0.942227
0.997295
1.05371
1.11124
1.16962
1.22856
1.28772
1.34676
1.40527
1.46283
1.51902
1.57336
1.62539
1.67463
1.72061
1.76286
1.80093
1.83442
1.86295
1.8862
1.90388
1.91579
1.92178
0.224504
0.226354
0.230058
0.235631
0.243088
0.252452
0.263751
0.277019
0.29229
0.309606
0.32901
0.350546
0.374263
0.400207
0.428423
0.458955
0.491843
0.527121
0.564816
0.604946
0.647517
0.692522
0.739938
0.789723
0.841813
0.896122
0.952534
1.01091
1.07107
1.1328
1.19587
1.25998
1.32482
1.39002
1.45519
1.5199
1.58368
1.64603
1.70643
1.76435
1.81925
1.87057
1.9178
1.96041
1.99793
2.02993
2.05601
2.07586
2.08924
2.09597
0.235213
0.237175
0.241104
0.247015
0.254927
0.264865
0.276862
0.290955
0.307185
0.325599
0.346246
0.369181
0.394456
0.422129
0.452254
0.484885
0.520071
0.557858
0.598283
0.641374
0.687148
0.735608
0.78674
0.840509
0.896858
0.955705
1.01694
1.08041
1.14594
1.21331
1.28227
1.3525
1.42367
1.49538
1.56718
1.63862
1.70915
1.77824
1.84529
1.90969
1.97083
2.02809
2.08084
2.1285
2.17052
2.20638
2.23564
2.25792
2.27294
2.2805
0.245302
0.247374
0.251523
0.257766
0.266125
0.276629
0.289314
0.304221
0.321398
0.340898
0.36278
0.387103
0.413932
0.443332
0.47537
0.510109
0.547611
0.587934
0.631127
0.677232
0.726278
0.778279
0.833235
0.89112
0.951887
1.01546
1.08173
1.15056
1.22176
1.2951
1.37033
1.4471
1.52506
1.60377
1.68276
1.7615
1.83942
1.91588
1.99024
2.0618
2.12985
2.19369
2.2526
2.3059
2.35295
2.39314
2.42597
2.45099
2.46787
2.47636
0.25471
0.256889
0.261253
0.267821
0.276616
0.287673
0.30103
0.316735
0.334843
0.355413
0.378511
0.404207
0.432576
0.463693
0.497637
0.534484
0.57431
0.617185
0.663175
0.712336
0.764712
0.820334
0.879212
0.941339
1.00668
1.07516
1.1467
1.22114
1.29831
1.37798
1.45986
1.54363
1.62887
1.71514
1.80191
1.8886
1.97458
2.05914
2.14155
2.22102
2.29675
2.36792
2.43372
2.49334
2.54603
2.59111
2.62797
2.65608
2.67505
2.68461
0.263375
0.265657
0.270229
0.277111
0.28633
0.297922
0.311933
0.328415
0.34743
0.369045
0.393335
0.42038
0.450265
0.483079
0.518911
0.557855
0.599999
0.645431
0.694233
0.746479
0.802231
0.861537
0.924428
0.990911
1.06097
1.13455
1.21156
1.29188
1.37533
1.46168
1.55065
1.64187
1.73493
1.82935
1.92455
2.0199
2.1147
2.20817
2.29947
2.38771
2.47199
2.55135
2.62486
2.69159
2.75066
2.80126
2.84268
2.8743
2.89566
2.90641
0.271232
0.273613
0.278384
0.285567
0.295192
0.3073
0.32194
0.339173
0.359064
0.381693
0.407141
0.4355
0.466868
0.501345
0.539037
0.580051
0.624494
0.672472
0.724086
0.779429
0.838586
0.901626
0.968602
1.03954
1.11445
1.19329
1.276
1.36246
1.4525
1.5459
1.64238
1.74156
1.84301
1.94621
2.05055
2.15534
2.2598
2.36306
2.4642
2.5622
2.65601
2.74456
2.82674
2.90149
2.96778
3.02466
3.07126
3.10688
3.13095
3.14308
0.278215
0.280691
0.285651
0.293119
0.30313
0.315728
0.330968
0.348916
0.369648
0.393248
0.419811
0.44944
0.482243
0.518338
0.557845
0.600888
0.647594
0.698089
0.752495
0.810929
0.873501
0.940303
1.01142
1.08689
1.16677
1.25102
1.33962
1.43247
1.52942
1.63025
1.73467
1.84233
1.95277
2.06543
2.17968
2.29476
2.4098
2.52387
2.6359
2.74476
2.84925
2.94811
3.0401
3.12394
3.19843
3.26245
3.31498
3.35518
3.38237
3.39607
0.284261
0.286823
0.29196
0.299696
0.310069
0.323127
0.338931
0.357553
0.379079
0.4036
0.431224
0.462064
0.496245
0.533896
0.575157
0.620171
0.669084
0.722046
0.779203
0.840698
0.906668
0.977238
1.05251
1.13259
1.21751
1.30732
1.402
1.50147
1.60561
1.71424
1.82706
1.94373
2.06378
2.18664
2.31162
2.43791
2.56458
2.69056
2.81468
2.93566
3.05212
3.16262
3.2657
3.35988
3.44373
3.51593
3.57528
3.62074
3.65151
3.66704
0.289302
0.291945
0.297244
0.305226
0.315932
0.329414
0.34574
0.364989
0.387253
0.412636
0.441255
0.473236
0.508718
0.547849
0.590786
0.637691
0.688734
0.74409
0.803931
0.86843
0.937756
1.01207
1.0915
1.1762
1.26624
1.3617
1.4626
1.56891
1.68053
1.79731
1.91899
2.04521
2.17553
2.30934
2.44594
2.58445
2.72386
2.863
3.00056
3.13509
3.26501
3.38867
3.50435
3.61033
3.70492
3.78653
3.85373
3.90528
3.94021
3.95784
0.293276
0.295991
0.301435
0.309639
0.320645
0.334511
0.35131
0.371129
0.394067
0.42024
0.449775
0.482812
0.519506
0.560022
0.604535
0.65323
0.706303
0.763951
0.826381
0.893797
0.966401
1.04439
1.12795
1.21725
1.31243
1.41361
1.52085
1.63417
1.75353
1.8788
2.00976
2.14609
2.28733
2.43291
2.58206
2.73388
2.88727
3.04095
3.19346
3.34316
3.48826
3.62684
3.7569
3.87641
3.98335
4.07584
4.15214
4.21077
4.25054
4.27063
0.29612
0.298898
0.30447
0.312866
0.324135
0.338339
0.355555
0.375878
0.399417
0.426296
0.456656
0.49065
0.528448
0.570234
0.616202
0.666563
0.721536
0.78135
0.84624
0.916448
0.992217
1.07378
1.16138
1.25523
1.35553
1.46244
1.57609
1.69656
1.82387
1.95793
2.09858
2.24554
2.39839
2.55655
2.71925
2.88555
3.05427
3.22402
3.39318
3.55991
3.72216
3.87771
4.02422
4.15929
4.28053
4.38565
4.47257
4.53947
4.58491
4.60789
0.297776
0.300607
0.306284
0.314843
0.326333
0.340821
0.358391
0.379145
0.4032
0.430691
0.46177
0.496605
0.535382
0.578302
0.625584
0.677459
0.734175
0.795991
0.863179
0.936018
1.01479
1.09979
1.1913
1.28958
1.39491
1.50752
1.62759
1.75529
1.89069
2.0338
2.18452
2.34262
2.50773
2.67931
2.85659
3.03861
3.22412
3.41163
3.59935
3.7852
3.96687
4.14178
4.30719
4.46025
4.59811
4.71799
4.81736
4.89399
4.94611
4.97249
0.298189
0.301061
0.306821
0.315507
0.327171
0.341886
0.35974
0.380842
0.405318
0.433314
0.464992
0.500536
0.540147
0.584046
0.632472
0.685683
0.743954
0.807577
0.876859
0.952122
1.0337
1.12192
1.21714
1.3197
1.42991
1.5481
1.67454
1.80946
1.95305
2.10539
2.26648
2.43618
2.61418
2.80001
2.99293
3.19197
3.39585
3.60296
3.81136
4.01874
4.22245
4.41951
4.60671
4.78067
4.93793
5.07515
5.1892
5.27735
5.33741
5.36783
0.297309
0.300209
0.306027
0.314802
0.32659
0.341466
0.359527
0.380885
0.405678
0.434058
0.466201
0.502305
0.542587
0.587286
0.636663
0.691002
0.750607
0.815802
0.886935
0.964369
1.04849
1.13968
1.23836
1.34494
1.45981
1.58339
1.71604
1.85811
2.00987
2.17154
2.34322
2.52489
2.71636
2.91723
3.12684
3.34426
3.56818
3.79692
4.02837
4.25998
4.48874
4.71123
4.92365
5.12198
5.30204
5.45974
5.59123
5.69311
5.76265
5.79792
0.295092
0.298007
0.303855
0.312677
0.324533
0.339502
0.357683
0.379199
0.404191
0.432824
0.465285
0.501783
0.542552
0.58785
0.637959
0.693188
0.75387
0.820366
0.893059
0.972361
1.05871
1.15255
1.25436
1.36463
1.48386
1.61254
1.75115
1.90015
2.05997
2.23094
2.41332
2.60724
2.81265
3.02929
3.25662
3.49377
3.73948
3.99202
4.24914
4.50805
4.76534
5.01708
5.25882
5.48571
5.69271
5.87477
6.02711
6.14548
6.22644
6.26754
0.291502
0.294417
0.300266
0.309091
0.320954
0.335939
0.35415
0.375714
0.400781
0.429523
0.462138
0.498848
0.539901
0.585574
0.636169
0.69202
0.75349
0.820971
0.89489
0.975702
1.0639
1.15999
1.26453
1.37808
1.50125
1.63462
1.77882
1.93444
2.10204
2.28214
2.47518
2.68147
2.90116
3.13418
3.38017
3.6384
3.90769
4.18634
4.472
4.76163
5.05146
5.33695
5.61287
5.87343
6.11244
6.32367
6.50112
6.63945
6.73427
6.78248
0.286509
0.289408
0.295226
0.304007
0.315815
0.330736
0.348878
0.370374
0.39538
0.424076
0.456668
0.493392
0.534508
0.58031
0.631119
0.687294
0.749224
0.817337
0.892096
0.974005
1.06361
1.16148
1.26826
1.38459
1.51116
1.64872
1.79798
1.95972
2.13467
2.32355
2.52701
2.7456
2.97972
3.22956
3.49501
3.77556
4.07021
4.37737
4.69465
5.01885
5.34579
5.67032
5.98627
6.28669
6.56399
6.8104
7.01835
7.18103
7.29282
7.34974
0.280094
0.282961
0.288715
0.297402
0.309086
0.323858
0.341827
0.363132
0.387933
0.416416
0.448798
0.485322
0.526261
0.571924
0.622651
0.678821
0.740851
0.809198
0.884366
0.966902
1.0574
1.15652
1.26494
1.38343
1.51278
1.65384
1.80751
1.9747
2.15637
2.35345
2.56685
2.79742
3.04586
3.3127
3.59817
3.90211
4.22381
4.56188
4.91407
5.27706
5.64634
6.01608
6.37908
6.72696
7.05039
7.33956
7.58484
7.77748
7.91024
7.97795
0.272247
0.275064
0.28072
0.28926
0.300751
0.315284
0.332972
0.353956
0.378399
0.406496
0.438466
0.474562
0.515069
0.560307
0.610631
0.666439
0.728173
0.796319
0.871415
0.954053
1.04488
1.14461
1.25401
1.37393
1.50528
1.64904
1.80625
1.97804
2.16555
2.37
2.59258
2.83449
3.0968
3.38048
3.68621
4.01429
4.36449
4.73581
5.12626
5.53261
5.95011
6.37227
6.79077
7.19549
7.57485
7.91643
8.20785
8.43771
8.59658
8.67776
0.262968
0.265718
0.27124
0.27958
0.290804
0.305006
0.322299
0.342827
0.366755
0.394281
0.42563
0.46106
0.500864
0.545371
0.59495
0.650015
0.711027
0.778498
0.852997
0.935154
1.02567
1.1253
1.23491
1.35543
1.48787
1.63335
1.79308
1.96837
2.16061
2.37129
2.60194
2.85415
3.12947
3.42936
3.7551
4.10764
4.48739
4.89399
5.32599
5.7805
6.25275
6.73572
7.21986
7.69302
8.14076
8.54719
8.89614
9.17266
9.36438
9.4625
0.252269
0.254935
0.260286
0.26837
0.279253
0.293029
0.309812
0.329744
0.352994
0.37976
0.41027
0.444786
0.483604
0.527061
0.575535
0.629452
0.689288
0.755575
0.82891
0.909955
0.99945
1.09822
1.20717
1.32733
1.45982
1.60588
1.76689
1.94436
2.13992
2.35535
2.59258
2.8536
3.14051
3.45541
3.80029
4.17692
4.58664
5.03002
5.50653
6.01401
6.54807
7.10144
7.66341
8.21946
8.75152
9.23897
9.66042
9.996
10.2293
10.349
0.240175
0.242737
0.247881
0.255653
0.26612
0.279373
0.295528
0.314724
0.337129
0.362942
0.39239
0.425734
0.463275
0.505351
0.552346
0.604691
0.662874
0.727442
0.799009
0.878264
0.965982
1.06303
1.17038
1.28912
1.42048
1.56583
1.72668
1.90474
2.1019
2.32025
2.56209
2.82992
3.1264
3.45435
3.81666
4.21612
4.65526
5.13601
5.65924
6.22413
6.8273
7.46184
8.11618
8.77322
9.41027
10.0001
10.514
10.925
11.2115
11.3585
0.226721
0.229161
0.234061
0.241466
0.251441
0.264076
0.279483
0.2978
0.319194
0.343858
0.372017
0.403932
0.439899
0.480256
0.525386
0.575723
0.631759
0.694047
0.763213
0.839964
0.925096
1.01951
1.12423
1.2404
1.36933
1.51249
1.67154
1.84837
2.04511
2.26415
2.50818
2.78018
3.08347
3.42166
3.79864
4.21846
4.68516
5.20246
5.77328
6.39897
7.07823
7.80555
8.56936
9.35014
10.1194
10.8405
11.4736
11.9817
12.3363
12.5182
0.211956
0.214256
0.218876
0.225858
0.235267
0.247188
0.261731
0.279029
0.299244
0.322564
0.34921
0.379434
0.413529
0.451825
0.494702
0.542588
0.595971
0.655405
0.721517
0.79502
0.876722
0.967546
1.06854
1.18089
1.30597
1.44534
1.60077
1.77432
1.9683
2.1854
2.42867
2.70159
3.00813
3.35274
3.7404
4.17659
4.66716
5.21813
5.83522
6.52309
7.28397
8.11566
9.00849
9.94159
10.8795
11.772
12.561
13.1951
13.6368
13.863
0.195941
0.198084
0.202388
0.208894
0.217664
0.228778
0.242342
0.258483
0.277356
0.299141
0.32405
0.352328
0.384255
0.420152
0.460387
0.505378
0.555602
0.611602
0.673997
0.743493
0.820897
0.907133
1.00326
1.11049
1.23022
1.36407
1.5139
1.68187
1.87048
2.08264
2.32172
2.59167
2.89704
3.24314
3.63606
4.0828
4.59128
5.17024
5.829
6.57681
7.42157
8.36733
9.41007
10.531
11.6879
12.8098
13.8062
14.6038
15.1556
15.4367
0.178751
0.180719
0.184674
0.190653
0.198713
0.208931
0.221405
0.236256
0.253629
0.273695
0.296652
0.322734
0.352205
0.385372
0.422585
0.464245
0.510808
0.562798
0.620815
0.685545
0.757776
0.838415
0.928508
1.02927
1.14209
1.26861
1.41073
1.57067
1.75105
1.95494
2.18596
2.44841
2.74738
3.08889
3.48012
3.92955
4.44722
5.04489
5.7361
6.53601
7.46061
8.52451
9.73601
11.0868
12.5338
13.9755
15.253
16.2607
16.9477
17.2942
0.16047
0.162249
0.165822
0.171225
0.178509
0.187747
0.199028
0.212463
0.228186
0.246356
0.267157
0.290804
0.317545
0.347665
0.38149
0.419396
0.461814
0.509235
0.562229
0.621447
0.687641
0.761682
0.844579
0.937506
1.04183
1.15917
1.2914
1.44075
1.60987
1.80191
2.02062
2.27054
2.5571
2.88691
3.26799
3.71012
4.22528
4.82813
5.53666
6.37273
7.36258
8.53635
9.92489
11.5488
13.3875
15.3076
16.9717
18.2408
19.0828
19.5004
0.141197
0.142771
0.145933
0.150715
0.157164
0.165342
0.175332
0.187235
0.201169
0.21728
0.235733
0.256724
0.280476
0.307251
0.337344
0.3711
0.408912
0.451234
0.498588
0.551579
0.610905
0.677379
0.751946
0.835714
0.929983
1.03628
1.15643
1.2926
1.44735
1.62381
1.82574
2.05771
2.32531
2.63543
2.99661
3.4195
3.91751
4.50762
5.2116
6.05763
7.08263
8.33544
9.88045
11.798
14.1617
16.8979
19.0876
20.6502
21.6442
22.1264
0.121039
0.122395
0.125121
0.129241
0.134798
0.141847
0.150459
0.160723
0.172743
0.186645
0.202577
0.220708
0.241238
0.264394
0.29044
0.31968
0.352463
0.389193
0.430337
0.476434
0.528114
0.586109
0.651275
0.724621
0.807333
0.900823
1.00677
1.12719
1.26451
1.42167
1.60227
1.81073
2.05251
2.33444
2.66511
3.05539
3.51927
4.0749
4.74618
5.56527
6.57661
7.84408
9.46525
11.6029
14.5652
19.0366
21.8326
23.6298
24.7194
25.2365
0.100114
0.101241
0.103507
0.106931
0.111548
0.117405
0.124563
0.133094
0.143088
0.154652
0.167908
0.183001
0.200099
0.219396
0.241115
0.265513
0.292889
0.323587
0.358007
0.396612
0.439943
0.488631
0.543419
0.605184
0.674962
0.753991
0.843752
0.946033
1.063
1.1973
1.35219
1.5317
1.74087
1.98605
2.27533
2.61906
3.0307
3.52795
4.13441
4.88215
5.81593
7.00052
8.53507
10.5848
13.461
17.8522
20.5779
22.3185
23.3685
23.8653
0.0785471
0.0794365
0.0812242
0.0839224
0.087559
0.0921719
0.097809
0.104529
0.112404
0.121518
0.131968
0.143872
0.157362
0.172594
0.189746
0.209025
0.23067
0.25496
0.282214
0.312809
0.347182
0.385846
0.429406
0.478577
0.534209
0.597321
0.669135
0.751136
0.84513
0.953335
1.0785
1.22404
1.39428
1.59467
1.83221
2.11595
2.45768
2.87298
3.38254
4.01421
4.80568
5.80824
7.09096
8.74144
10.8432
13.3346
15.3095
16.6992
17.5722
17.9922
0.0564714
0.0571132
0.0584105
0.0603588
0.0629818
0.0663081
0.0703731
0.0752197
0.0808998
0.0874746
0.0950161
0.103608
0.113349
0.12435
0.136743
0.150679
0.166333
0.183909
0.203641
0.225807
0.250728
0.278782
0.310417
0.346163
0.386651
0.432641
0.485046
0.544979
0.613801
0.693187
0.785221
0.892515
1.01837
1.16698
1.34376
1.55571
1.812
2.12464
2.5095
2.98739
3.58527
4.33677
5.28006
6.44781
7.83664
9.33461
10.6273
11.5974
12.2301
12.5401
0.0340263
0.0344019
0.035187
0.0363644
0.0379485
0.0399569
0.0424112
0.0453377
0.0487677
0.0527386
0.057294
0.0624851
0.0683709
0.0750204
0.0825131
0.0909411
0.100411
0.111047
0.122994
0.136419
0.15152
0.16853
0.187723
0.209424
0.234023
0.261988
0.293885
0.330403
0.372387
0.420882
0.477189
0.542944
0.620218
0.71166
0.820682
0.951711
1.11052
1.30468
1.54402
1.84118
2.21186
2.67412
3.2453
3.93372
4.72159
5.54049
6.26842
6.83357
7.21117
7.39871
0.0113647
0.0114826
0.0117429
0.0121363
0.0126659
0.0133374
0.0141579
0.0151363
0.0162832
0.017611
0.0191343
0.0208704
0.022839
0.0250633
0.0275701
0.0303901
0.0335595
0.0371197
0.0411193
0.0456151
0.0506736
0.0563728
0.0628054
0.0700814
0.0783322
0.0877162
0.0984248
0.110691
0.124803
0.141114
0.160067
0.182219
0.208277
0.239145
0.275988
0.32032
0.374114
0.439939
0.521121
0.621875
0.747298
0.902985
1.09374
1.32064
1.57596
1.83779
2.07275
2.25778
2.3828
2.44531
)
;

boundaryField
{
    walls
    {
        type            calculated;
        value           nonuniform List<scalar> 
200
(
0
0
0
0
0
0
0
0
0
0
0
0
0
0
0
0
0
0
0
0
0
0
0
0
0
0
0
0
0
0
0
0
0
0
0
0
0
0
0
0
0
0
0
0
0
0
0
0
0
0
0.00735775
0.0220479
0.036707
0.0513301
0.0658815
0.0803389
0.0946782
0.108873
0.122895
0.136713
0.150294
0.1636
0.176591
0.189225
0.201456
0.213233
0.224504
0.235213
0.245302
0.25471
0.263375
0.271232
0.278215
0.284261
0.289302
0.293276
0.29612
0.297776
0.298189
0.297309
0.295092
0.291502
0.286509
0.280094
0.272247
0.262968
0.252269
0.240175
0.226721
0.211956
0.195941
0.178751
0.16047
0.141197
0.121039
0.100114
0.0785471
0.0564714
0.0340263
0.0113647
0.0512518
0.154002
0.257514
0.362313
0.468921
0.577863
0.689675
0.804905
0.924115
1.04788
1.17681
1.31152
1.45266
1.60093
1.75704
1.92178
2.09597
2.2805
2.47636
2.68461
2.90641
3.14308
3.39607
3.66704
3.95784
4.27063
4.60789
4.97249
5.36783
5.79792
6.26754
6.78248
7.34974
7.97795
8.67776
9.4625
10.349
11.3585
12.5182
13.863
15.4367
17.2942
19.5004
22.1264
25.2365
23.8653
17.9922
12.5401
7.39871
2.44531
0
0
0
0
0
0
0
0
0
0
0
0
0
0
0
0
0
0
0
0
0
0
0
0
0
0
0
0
0
0
0
0
0
0
0
0
0
0
0
0
0
0
0
0
0
0
0
0
0
0
)
;
    }
    frontAndBack
    {
        type            empty;
    }
}


// ************************************************************************* //
