/*--------------------------------*- C++ -*----------------------------------*\
| =========                 |                                                 |
| \\      /  F ield         | OpenFOAM: The Open Source CFD Toolbox           |
|  \\    /   O peration     | Version:  2406                                  |
|   \\  /    A nd           | Website:  www.openfoam.com                      |
|    \\/     M anipulation  |                                                 |
\*---------------------------------------------------------------------------*/
FoamFile
{
    version     2.0;
    format      ascii;
    arch        "LSB;label=32;scalar=64";
    class       volScalarField;
    location    "1.65";
    object      T;
}
// * * * * * * * * * * * * * * * * * * * * * * * * * * * * * * * * * * * * * //

dimensions      [0 0 0 1 0 0 0];

internalField   nonuniform List<scalar> 
2500
(
0.242765
0.243059
0.243647
0.244527
0.2457
0.247162
0.248913
0.25095
0.253268
0.255865
0.258737
0.261877
0.265281
0.268941
0.27285
0.276999
0.281379
0.285979
0.290788
0.295791
0.300976
0.306326
0.311825
0.317455
0.323196
0.329027
0.334927
0.340872
0.346838
0.352799
0.35873
0.364603
0.37039
0.376063
0.381594
0.386953
0.392113
0.397044
0.40172
0.406113
0.410198
0.41395
0.417348
0.420369
0.422996
0.425211
0.427
0.428353
0.429259
0.429714
0.243059
0.243355
0.243947
0.244835
0.246016
0.247489
0.249253
0.251305
0.253641
0.256258
0.259152
0.262317
0.265747
0.269436
0.273376
0.277559
0.281975
0.286613
0.291462
0.296508
0.301737
0.307134
0.312682
0.318362
0.324155
0.33004
0.335995
0.341996
0.348019
0.354038
0.360027
0.365958
0.371804
0.377535
0.383122
0.388537
0.393751
0.398735
0.403461
0.407901
0.412031
0.415825
0.41926
0.422314
0.42497
0.42721
0.42902
0.430388
0.431305
0.431764
0.243647
0.243947
0.244548
0.245448
0.246647
0.248142
0.249933
0.252015
0.254386
0.257043
0.259981
0.263194
0.266678
0.270425
0.274428
0.278678
0.283166
0.287881
0.29281
0.297942
0.30326
0.308751
0.314396
0.320177
0.326074
0.332067
0.338132
0.344245
0.350383
0.356518
0.362624
0.368672
0.374635
0.380481
0.386183
0.39171
0.397033
0.402122
0.406948
0.411484
0.415703
0.41958
0.42309
0.426213
0.428927
0.431217
0.433068
0.434466
0.435404
0.435874
0.244527
0.244835
0.245448
0.246368
0.247593
0.249121
0.250951
0.253079
0.255504
0.25822
0.261224
0.264511
0.268075
0.27191
0.276007
0.280358
0.284954
0.289783
0.294835
0.300094
0.305547
0.311179
0.31697
0.322903
0.328958
0.335112
0.341343
0.347627
0.353937
0.360247
0.366529
0.372754
0.378893
0.384915
0.390789
0.396485
0.401972
0.40722
0.412198
0.416878
0.421233
0.425234
0.428859
0.432083
0.434887
0.437253
0.439165
0.44061
0.441579
0.442064
0.2457
0.246016
0.246647
0.247593
0.248853
0.250425
0.252307
0.254497
0.256992
0.259788
0.262882
0.266267
0.269938
0.273889
0.278112
0.282599
0.287339
0.292323
0.297536
0.302968
0.308601
0.314421
0.320409
0.326546
0.332812
0.339183
0.345637
0.352149
0.358691
0.365235
0.371754
0.378217
0.384592
0.390849
0.396956
0.402879
0.408588
0.41405
0.419233
0.424107
0.428643
0.432814
0.436592
0.439954
0.442879
0.445346
0.44734
0.448848
0.44986
0.450366
0.247162
0.247489
0.248142
0.249121
0.250425
0.252052
0.254
0.256267
0.258851
0.261747
0.264952
0.26846
0.272266
0.276364
0.280745
0.285401
0.290323
0.295499
0.300918
0.306565
0.312425
0.318481
0.324717
0.331111
0.337642
0.344287
0.351022
0.357821
0.364655
0.371496
0.378314
0.385076
0.391751
0.398306
0.404706
0.410917
0.416906
0.422638
0.428081
0.433201
0.437968
0.442352
0.446325
0.449862
0.452939
0.455536
0.457635
0.459223
0.460288
0.460821
0.248913
0.249253
0.249933
0.250951
0.252307
0.254
0.256028
0.258388
0.261078
0.264095
0.267434
0.27109
0.275059
0.279333
0.283904
0.288766
0.293907
0.299316
0.304981
0.310888
0.317022
0.323366
0.3299
0.336604
0.343457
0.350434
0.35751
0.364656
0.371845
0.379046
0.386226
0.393353
0.400392
0.407308
0.414065
0.420627
0.426957
0.43302
0.438778
0.444199
0.449248
0.453893
0.458104
0.461854
0.465117
0.467872
0.4701
0.471784
0.472915
0.473481
0.25095
0.251305
0.252015
0.253079
0.254497
0.256267
0.258388
0.260857
0.263672
0.26683
0.270326
0.274156
0.278315
0.282796
0.287591
0.292693
0.298091
0.303773
0.309729
0.315942
0.322398
0.329079
0.335965
0.343035
0.350267
0.357635
0.365112
0.37267
0.380278
0.387904
0.395514
0.403072
0.410542
0.417887
0.425067
0.432045
0.43878
0.445235
0.451369
0.457147
0.462531
0.467486
0.471981
0.475985
0.47947
0.482414
0.484794
0.486595
0.487803
0.488408
0.253268
0.253641
0.254386
0.255504
0.256992
0.258851
0.261078
0.263672
0.26663
0.26995
0.273626
0.277656
0.282033
0.286752
0.291804
0.297182
0.302876
0.308874
0.315163
0.32173
0.328557
0.335627
0.34292
0.350413
0.358083
0.365903
0.373846
0.38188
0.389974
0.398092
0.406201
0.41426
0.422232
0.430075
0.437749
0.445211
0.452419
0.459331
0.465905
0.472099
0.477874
0.483193
0.488019
0.49232
0.496066
0.49923
0.50179
0.503726
0.505026
0.505677
0.255865
0.256258
0.257043
0.25822
0.259788
0.261747
0.264095
0.26683
0.26995
0.273452
0.277332
0.281587
0.286212
0.2912
0.296543
0.302235
0.308264
0.314619
0.321287
0.328255
0.335504
0.343017
0.350772
0.358746
0.366916
0.375252
0.383725
0.392304
0.400953
0.409636
0.418315
0.426949
0.435496
0.443912
0.452153
0.460172
0.467924
0.475363
0.482442
0.489117
0.495344
0.501083
0.506292
0.510937
0.514983
0.518403
0.521169
0.523263
0.524668
0.525373
0.258737
0.259152
0.259981
0.261224
0.262882
0.264952
0.267434
0.270326
0.273626
0.277332
0.281441
0.285948
0.290849
0.296137
0.301807
0.307849
0.314253
0.321009
0.328103
0.33552
0.343244
0.351254
0.359529
0.368046
0.376778
0.385696
0.394769
0.403963
0.41324
0.422562
0.431888
0.441174
0.450374
0.45944
0.468325
0.476979
0.485351
0.49339
0.501046
0.508271
0.515015
0.521233
0.526881
0.531919
0.53631
0.540022
0.543026
0.545301
0.546827
0.547592
0.261877
0.262317
0.263194
0.264511
0.266267
0.26846
0.27109
0.274156
0.277656
0.281587
0.285948
0.290734
0.295941
0.301562
0.307593
0.314023
0.320845
0.328045
0.335612
0.343529
0.35178
0.360345
0.3692
0.378322
0.387683
0.397252
0.406995
0.416878
0.42686
0.436899
0.446952
0.45697
0.466906
0.476706
0.486319
0.495689
0.504761
0.51348
0.52179
0.529637
0.536968
0.54373
0.549877
0.555363
0.560146
0.564191
0.567466
0.569946
0.57161
0.572445
0.265281
0.265747
0.266678
0.268075
0.269938
0.272266
0.275059
0.278315
0.282033
0.286212
0.290849
0.295941
0.301483
0.307471
0.313898
0.320756
0.328036
0.335727
0.343815
0.352284
0.361118
0.370295
0.379792
0.389584
0.399642
0.409933
0.420422
0.431071
0.441838
0.452677
0.463541
0.474379
0.485137
0.495759
0.506188
0.516362
0.526222
0.535706
0.544753
0.553302
0.561294
0.568672
0.575383
0.581374
0.586602
0.591024
0.594606
0.597318
0.59914
0.600053
0.268941
0.269436
0.270425
0.27191
0.273889
0.276364
0.279333
0.282796
0.286752
0.2912
0.296137
0.301562
0.307471
0.313858
0.320718
0.328044
0.335826
0.344052
0.352711
0.361786
0.371258
0.381109
0.391312
0.401842
0.412668
0.423756
0.435069
0.446565
0.458201
0.469927
0.481693
0.493441
0.505115
0.516654
0.527992
0.539066
0.549807
0.560148
0.570021
0.579359
0.588094
0.596165
0.603509
0.610071
0.615799
0.620647
0.624575
0.627551
0.629549
0.630552
0.27285
0.273376
0.274428
0.276007
0.278112
0.280745
0.283904
0.287591
0.291804
0.296543
0.301807
0.307593
0.313898
0.320718
0.328049
0.335882
0.344208
0.353018
0.362299
0.372033
0.382204
0.39279
0.403766
0.415104
0.426772
0.438735
0.450953
0.463383
0.475977
0.488682
0.501443
0.5142
0.52689
0.539445
0.551796
0.56387
0.575594
0.586892
0.597688
0.607907
0.617476
0.626323
0.634379
0.641582
0.647873
0.6532
0.657518
0.66079
0.662987
0.66409
0.276999
0.277559
0.278678
0.280358
0.282599
0.285401
0.288766
0.292693
0.297182
0.302235
0.307849
0.314023
0.320756
0.328044
0.335882
0.344263
0.353179
0.362621
0.372575
0.383025
0.393954
0.40534
0.417156
0.429375
0.441963
0.454883
0.468092
0.481545
0.495191
0.508973
0.522831
0.5367
0.550512
0.564192
0.577664
0.590849
0.603665
0.616027
0.627853
0.639056
0.649556
0.659272
0.668126
0.676047
0.68297
0.688835
0.69359
0.697196
0.699618
0.700833
0.281379
0.281975
0.283166
0.284954
0.287339
0.290323
0.293907
0.298091
0.302876
0.308264
0.314253
0.320845
0.328036
0.335826
0.344208
0.353179
0.362731
0.372853
0.383534
0.394758
0.406506
0.418758
0.431486
0.444661
0.458249
0.472211
0.486501
0.501072
0.515868
0.53083
0.545893
0.560985
0.576032
0.590954
0.605666
0.620081
0.634107
0.647652
0.660622
0.672923
0.684461
0.695147
0.704893
0.713619
0.72125
0.727718
0.732966
0.736945
0.739619
0.740961
0.285979
0.286613
0.287881
0.289783
0.292323
0.295499
0.299316
0.303773
0.308874
0.314619
0.321009
0.328045
0.335727
0.344052
0.353018
0.362621
0.372853
0.383706
0.395167
0.407223
0.419855
0.43304
0.446754
0.460964
0.475636
0.490728
0.506194
0.521982
0.538033
0.554285
0.570665
0.587099
0.603504
0.619793
0.635872
0.651645
0.667012
0.681869
0.69611
0.70963
0.722326
0.734094
0.744838
0.754464
0.762887
0.770032
0.775831
0.78023
0.783187
0.784672
0.290788
0.291462
0.29281
0.294835
0.297536
0.300918
0.304981
0.309729
0.315163
0.321287
0.328103
0.335612
0.343815
0.352711
0.362299
0.372575
0.383534
0.395167
0.407465
0.420413
0.433992
0.448182
0.462955
0.478282
0.494124
0.510439
0.527179
0.544288
0.561706
0.579363
0.597183
0.615085
0.632979
0.650769
0.668354
0.685626
0.702474
0.718782
0.734434
0.749311
0.763295
0.77627
0.788127
0.79876
0.808071
0.815973
0.822391
0.827262
0.830537
0.832181
0.295791
0.296508
0.297942
0.300094
0.302968
0.306565
0.310888
0.315942
0.32173
0.328255
0.33552
0.343529
0.352284
0.361786
0.372033
0.383025
0.394758
0.407223
0.420413
0.434312
0.448906
0.464172
0.480083
0.496609
0.513711
0.531346
0.549463
0.568004
0.586904
0.606089
0.625478
0.644983
0.664506
0.683943
0.703183
0.722106
0.740589
0.758504
0.775719
0.792102
0.80752
0.821842
0.834942
0.8467
0.857005
0.865757
0.87287
0.87827
0.881902
0.883726
0.300976
0.301737
0.30326
0.305547
0.308601
0.312425
0.317022
0.322398
0.328557
0.335504
0.343244
0.35178
0.361118
0.371258
0.382204
0.393954
0.406506
0.419855
0.433992
0.448906
0.464581
0.480995
0.498124
0.515935
0.534391
0.553445
0.573047
0.593134
0.613638
0.634482
0.655578
0.67683
0.698134
0.719374
0.74043
0.76117
0.781457
0.801148
0.820096
0.838152
0.855165
0.870987
0.885476
0.898493
0.909912
0.919618
0.92751
0.933505
0.937539
0.939566
0.306326
0.307134
0.308751
0.311179
0.314421
0.318481
0.323366
0.329079
0.335627
0.343017
0.351254
0.360345
0.370295
0.381109
0.39279
0.40534
0.418758
0.43304
0.448182
0.464172
0.480995
0.498633
0.51706
0.536245
0.55615
0.576728
0.597925
0.619679
0.641917
0.664556
0.687504
0.710658
0.733904
0.757117
0.780165
0.802902
0.825177
0.84683
0.867698
0.887611
0.9064
0.923896
0.939936
0.954364
0.967032
0.977808
0.986577
0.993242
0.997728
0.999983
0.311825
0.312682
0.314396
0.31697
0.320409
0.324717
0.3299
0.335965
0.34292
0.350772
0.359529
0.3692
0.379792
0.391312
0.403766
0.417156
0.431486
0.446754
0.462955
0.480083
0.498124
0.51706
0.536868
0.557517
0.578969
0.601177
0.624087
0.647632
0.671738
0.696318
0.721273
0.746493
0.771854
0.797223
0.822452
0.847383
0.871848
0.89567
0.918664
0.940639
0.961405
0.98077
0.998546
1.01455
1.02862
1.0406
1.05036
1.05778
1.06278
1.06529
0.317455
0.318362
0.320177
0.322903
0.326546
0.331111
0.336604
0.343035
0.350413
0.358746
0.368046
0.378322
0.389584
0.401842
0.415104
0.429375
0.444661
0.460964
0.478282
0.496609
0.515935
0.536245
0.557517
0.579721
0.60282
0.626769
0.65151
0.676978
0.703094
0.729766
0.756891
0.784351
0.812015
0.839735
0.867352
0.894692
0.921569
0.947785
0.973134
0.997401
1.02037
1.04182
1.06154
1.07932
1.09497
1.10831
1.11918
1.12745
1.13302
1.13583
0.323196
0.324155
0.326074
0.328958
0.332812
0.337642
0.343457
0.350267
0.358083
0.366916
0.376778
0.387683
0.399642
0.412668
0.426772
0.441963
0.458249
0.475636
0.494124
0.513711
0.534391
0.55615
0.578969
0.60282
0.627669
0.65347
0.680167
0.707691
0.735963
0.764888
0.794356
0.824242
0.854405
0.884688
0.914917
0.9449
0.974432
1.00329
1.03125
1.05807
1.08349
1.10727
1.12917
1.14895
1.16637
1.18124
1.19337
1.20261
1.20884
1.21197
0.329027
0.33004
0.332067
0.335112
0.339183
0.344287
0.350434
0.357635
0.365903
0.375252
0.385696
0.397252
0.409933
0.423756
0.438735
0.454883
0.472211
0.490728
0.510439
0.531346
0.553445
0.576728
0.601177
0.626769
0.65347
0.681237
0.710014
0.739734
0.770315
0.801658
0.833651
0.86616
0.899036
0.932108
0.965189
0.99807
1.03052
1.06231
1.09316
1.1228
1.15097
1.17737
1.20171
1.22373
1.24317
1.25977
1.27333
1.28366
1.29063
1.29414
0.334927
0.335995
0.338132
0.341343
0.345637
0.351022
0.35751
0.365112
0.373846
0.383725
0.394769
0.406995
0.420422
0.435069
0.450953
0.468092
0.486501
0.506194
0.527179
0.549463
0.573047
0.597925
0.624087
0.65151
0.680167
0.710014
0.741
0.773058
0.806104
0.840039
0.874746
0.910085
0.945899
0.982005
1.0182
1.05425
1.08992
1.12493
1.15899
1.19179
1.22302
1.25235
1.27945
1.304
1.32571
1.34427
1.35946
1.37104
1.37886
1.3828
0.340872
0.341996
0.344245
0.347627
0.352149
0.357821
0.364656
0.37267
0.38188
0.392304
0.403963
0.416878
0.431071
0.446565
0.463383
0.481545
0.501072
0.521982
0.544288
0.568004
0.593134
0.619679
0.647632
0.676978
0.707691
0.739734
0.773058
0.807597
0.84327
0.879975
0.917594
0.955982
0.994971
1.03437
1.07396
1.11349
1.15269
1.19127
1.22888
1.2652
1.29986
1.33248
1.36268
1.39011
1.41439
1.43519
1.45223
1.46524
1.47403
1.47845
0.346838
0.348019
0.350383
0.353937
0.358691
0.364655
0.371845
0.380278
0.389974
0.400953
0.41324
0.42686
0.441838
0.458201
0.475977
0.495191
0.515868
0.538033
0.561706
0.586904
0.613638
0.641917
0.671738
0.703094
0.735963
0.770315
0.806104
0.84327
0.881732
0.921392
0.962127
1.00379
1.04621
1.08918
1.13246
1.1758
1.21889
1.2614
1.30296
1.3432
1.3817
1.41802
1.45174
1.48241
1.50963
1.53299
1.55215
1.5668
1.5767
1.5817
0.352799
0.354038
0.356518
0.360247
0.365235
0.371496
0.379046
0.387904
0.398092
0.409636
0.422562
0.436899
0.452677
0.469927
0.488682
0.508973
0.53083
0.554285
0.579363
0.606089
0.634482
0.664556
0.696318
0.729766
0.764888
0.801658
0.840039
0.879975
0.921392
0.964191
1.00825
1.05343
1.09954
1.14637
1.19368
1.24117
1.28853
1.33538
1.38134
1.42595
1.46875
1.50926
1.54695
1.58133
1.6119
1.6382
1.6598
1.67633
1.68752
1.69317
0.35873
0.360027
0.362624
0.366529
0.371754
0.378314
0.386226
0.395514
0.406201
0.418315
0.431888
0.446952
0.463541
0.481693
0.501443
0.522831
0.545893
0.570665
0.597183
0.625478
0.655578
0.687504
0.721273
0.756891
0.794356
0.833651
0.874746
0.917594
0.962127
1.00825
1.05586
1.10479
1.15486
1.20587
1.25754
1.30957
1.36161
1.41327
1.4641
1.5136
1.56124
1.60647
1.64868
1.68729
1.72171
1.75138
1.7758
1.79452
1.80721
1.81361
0.364603
0.365958
0.368672
0.372754
0.378217
0.385076
0.393353
0.403072
0.41426
0.426949
0.441174
0.45697
0.474379
0.493441
0.5142
0.5367
0.560985
0.587099
0.615085
0.644983
0.67683
0.710658
0.746493
0.784351
0.824242
0.86616
0.910085
0.955982
1.00379
1.05343
1.10479
1.15772
1.21204
1.26754
1.32394
1.38092
1.43811
1.49507
1.5513
1.60627
1.65937
1.70994
1.7573
1.80076
1.83961
1.87319
1.90088
1.92215
1.93658
1.94387
0.37039
0.371804
0.374635
0.378893
0.384592
0.391751
0.400392
0.410542
0.422232
0.435496
0.450374
0.466906
0.485137
0.505115
0.52689
0.550512
0.576032
0.603504
0.632979
0.664506
0.698134
0.733904
0.771854
0.812015
0.854405
0.899036
0.945899
0.994971
1.04621
1.09954
1.15486
1.21204
1.27091
1.33123
1.39274
1.45511
1.51792
1.58073
1.64298
1.70406
1.7633
1.81995
1.8732
1.92223
1.96621
2.00433
2.03585
2.0601
2.07658
2.08491
0.376063
0.377535
0.380481
0.384915
0.390849
0.398306
0.407308
0.417887
0.430075
0.443912
0.45944
0.476706
0.495759
0.516654
0.539445
0.564192
0.590954
0.619793
0.650769
0.683943
0.719374
0.757117
0.797223
0.839735
0.884688
0.932108
0.982005
1.03437
1.08918
1.14637
1.20587
1.26754
1.33123
1.39672
1.46374
1.53194
1.60092
1.67016
1.73909
1.80703
1.8732
1.93675
1.99676
2.05223
2.10217
2.14561
2.18161
2.20939
2.22829
2.23786
0.381594
0.383122
0.386183
0.390789
0.396956
0.404706
0.414065
0.425067
0.437749
0.452153
0.468325
0.486319
0.506188
0.527992
0.551796
0.577664
0.605666
0.635872
0.668354
0.703183
0.74043
0.780165
0.822452
0.867352
0.914917
0.965189
1.0182
1.07396
1.13246
1.19368
1.25754
1.32394
1.39274
1.46374
1.53667
1.61119
1.68687
1.7632
1.83954
1.91515
1.98916
2.06059
2.12836
2.19131
2.24823
2.29791
2.33924
2.3712
2.39299
2.40403
0.386953
0.388537
0.39171
0.396485
0.402879
0.410917
0.420627
0.432045
0.445211
0.460172
0.476979
0.495689
0.516362
0.539066
0.56387
0.590849
0.620081
0.651645
0.685626
0.722106
0.76117
0.802902
0.847383
0.894692
0.9449
0.99807
1.05425
1.11349
1.1758
1.24117
1.30957
1.38092
1.45511
1.53194
1.61119
1.69252
1.7755
1.85959
1.94414
2.02833
2.1112
2.19164
2.26839
2.34005
2.40517
2.46226
2.50993
2.5469
2.57216
2.58497
0.392113
0.393751
0.397033
0.401972
0.408588
0.416906
0.426957
0.43878
0.452419
0.467924
0.485351
0.504761
0.526222
0.549807
0.575594
0.603665
0.634107
0.667012
0.702474
0.740589
0.781457
0.825177
0.871848
0.921569
0.974432
1.03052
1.08992
1.15269
1.21889
1.28853
1.36161
1.43811
1.51792
1.60092
1.68687
1.7755
1.86637
1.95896
2.05258
2.14637
2.23927
2.33002
2.41716
2.49903
2.57386
2.6398
2.69508
2.73811
2.76756
2.78253
0.397044
0.398735
0.402122
0.40722
0.41405
0.422638
0.43302
0.445235
0.459331
0.475363
0.49339
0.51348
0.535706
0.560148
0.586892
0.616027
0.647652
0.681869
0.718782
0.758504
0.801148
0.84683
0.89567
0.947785
1.00329
1.06231
1.12493
1.19127
1.2614
1.33538
1.41327
1.49507
1.58073
1.67016
1.7632
1.85959
1.95896
2.06079
2.1644
2.26889
2.37313
2.4757
2.57492
2.66883
2.75523
2.83182
2.89635
2.94674
2.98133
2.99893
0.40172
0.403461
0.406948
0.412198
0.419233
0.428081
0.438778
0.451369
0.465905
0.482442
0.501046
0.52179
0.544753
0.570021
0.597688
0.627853
0.660622
0.69611
0.734434
0.775719
0.820096
0.867698
0.918664
0.973134
1.03125
1.09316
1.15899
1.22888
1.30296
1.38134
1.4641
1.5513
1.64298
1.73909
1.83954
1.94414
2.05258
2.1644
2.27895
2.39533
2.51236
2.62849
2.7418
2.84996
2.95027
3.03981
3.11564
3.17511
3.21602
3.23687
0.406113
0.407901
0.411484
0.416878
0.424107
0.433201
0.444199
0.457147
0.472099
0.489117
0.508271
0.529637
0.553302
0.579359
0.607907
0.639056
0.672923
0.70963
0.749311
0.792102
0.838152
0.887611
0.940639
0.997401
1.05807
1.1228
1.19179
1.2652
1.3432
1.42595
1.5136
1.60627
1.70406
1.80703
1.91515
2.02833
2.14637
2.26889
2.39533
2.52485
2.65626
2.78792
2.9177
3.04283
3.16
3.26544
3.35529
3.42601
3.47478
3.49966
0.410198
0.412031
0.415703
0.421233
0.428643
0.437968
0.449248
0.462531
0.477874
0.495344
0.515015
0.536968
0.561294
0.588094
0.617476
0.649556
0.684461
0.722326
0.763295
0.80752
0.855165
0.9064
0.961405
1.02037
1.08349
1.15097
1.22302
1.29986
1.3817
1.46875
1.56124
1.65937
1.7633
1.8732
1.98916
2.1112
2.23927
2.37313
2.51236
2.65626
2.80372
2.95312
3.10214
3.24762
3.38545
3.51069
3.61808
3.70291
3.7615
3.79139
0.41395
0.415825
0.41958
0.425234
0.432814
0.442352
0.453893
0.467486
0.483193
0.501083
0.521233
0.54373
0.568672
0.596165
0.626323
0.659272
0.695147
0.734094
0.77627
0.821842
0.870987
0.923896
0.98077
1.04182
1.10727
1.17737
1.25235
1.33248
1.41802
1.50926
1.60647
1.70994
1.81995
1.93675
2.06059
2.19164
2.33002
2.4757
2.62849
2.78792
2.95312
3.12262
3.2941
3.46407
3.62752
3.77783
3.90754
4.01016
4.08101
4.11713
0.417348
0.41926
0.42309
0.428859
0.436592
0.446325
0.458104
0.471981
0.488019
0.506292
0.526881
0.549877
0.575383
0.603509
0.634379
0.668126
0.704893
0.744838
0.788127
0.834942
0.885476
0.939936
0.998546
1.06154
1.12917
1.20171
1.27945
1.36268
1.45174
1.54695
1.64868
1.7573
1.8732
1.99676
2.12836
2.26839
2.41716
2.57492
2.7418
2.9177
3.10214
3.2941
3.49158
3.69109
3.8868
4.0697
4.2282
4.35334
4.43941
4.48316
0.420369
0.422314
0.426213
0.432083
0.439954
0.449862
0.461854
0.475985
0.49232
0.510937
0.531919
0.555363
0.581374
0.610071
0.641582
0.676047
0.713619
0.754464
0.79876
0.8467
0.898493
0.954364
1.01455
1.07932
1.14895
1.22373
1.304
1.39011
1.48241
1.58133
1.68729
1.80076
1.92223
2.05223
2.19131
2.34005
2.49903
2.66883
2.84996
3.04283
3.24762
3.46407
3.69109
3.92602
4.16302
4.39014
4.58641
4.7398
4.84432
4.89715
0.422996
0.42497
0.428927
0.434887
0.442879
0.452939
0.465117
0.47947
0.496066
0.514983
0.53631
0.560146
0.586602
0.615799
0.647873
0.68297
0.72125
0.762887
0.808071
0.857005
0.909912
0.967032
1.02862
1.09497
1.16637
1.24317
1.32571
1.41439
1.50963
1.6119
1.72171
1.83961
1.96621
2.10217
2.24823
2.40517
2.57386
2.75523
2.95027
3.16
3.38545
3.62752
3.8868
4.16302
4.45327
4.74562
4.99171
5.17935
5.30517
5.36821
0.425211
0.42721
0.431217
0.437253
0.445346
0.455536
0.467872
0.482414
0.49923
0.518403
0.540022
0.564191
0.591024
0.620647
0.6532
0.688835
0.727718
0.770032
0.815973
0.865757
0.919618
0.977808
1.0406
1.10831
1.18124
1.25977
1.34427
1.43519
1.53299
1.6382
1.75138
1.87319
2.00433
2.14561
2.29791
2.46226
2.6398
2.83182
3.03981
3.26544
3.51069
3.77783
4.0697
4.39014
4.74562
5.1516
5.45971
5.68499
5.83309
5.90661
0.427
0.42902
0.433068
0.439165
0.44734
0.457635
0.4701
0.484794
0.50179
0.521169
0.543026
0.567466
0.594606
0.624575
0.657518
0.69359
0.732966
0.775831
0.822391
0.87287
0.92751
0.986577
1.05036
1.11918
1.19337
1.27333
1.35946
1.45223
1.55215
1.6598
1.7758
1.90088
2.03585
2.18161
2.33924
2.50993
2.69508
2.89635
3.11564
3.35529
3.61808
3.90754
4.2282
4.58641
4.99171
5.45971
5.81482
6.07209
6.23992
6.32283
0.428353
0.430388
0.434466
0.44061
0.448848
0.459223
0.471784
0.486595
0.503726
0.523263
0.545301
0.569946
0.597318
0.627551
0.66079
0.697196
0.736945
0.78023
0.827262
0.87827
0.933505
0.993242
1.05778
1.12745
1.20261
1.28366
1.37104
1.46524
1.5668
1.67633
1.79452
1.92215
2.0601
2.20939
2.3712
2.5469
2.73811
2.94674
3.17511
3.42601
3.70291
4.01016
4.35334
4.7398
5.17935
5.68499
6.07209
6.35295
6.53598
6.6263
0.429259
0.431305
0.435404
0.441579
0.44986
0.460288
0.472915
0.487803
0.505026
0.524668
0.546827
0.57161
0.59914
0.629549
0.662987
0.699618
0.739619
0.783187
0.830537
0.881902
0.937539
0.997728
1.06278
1.13302
1.20884
1.29063
1.37886
1.47403
1.5767
1.68752
1.80721
1.93658
2.07658
2.22829
2.39299
2.57216
2.76756
2.98133
3.21602
3.47478
3.7615
4.08101
4.43941
4.84432
5.30517
5.83309
6.23992
6.53598
6.72912
6.82443
0.429714
0.431764
0.435874
0.442064
0.450366
0.460821
0.473481
0.488408
0.505677
0.525373
0.547592
0.572445
0.600053
0.630552
0.66409
0.700833
0.740961
0.784672
0.832181
0.883726
0.939566
0.999983
1.06529
1.13583
1.21197
1.29414
1.3828
1.47845
1.5817
1.69317
1.81361
1.94387
2.08491
2.23786
2.40403
2.58497
2.78253
2.99893
3.23687
3.49966
3.79139
4.11713
4.48316
4.89715
5.36821
5.90661
6.32283
6.6263
6.82443
6.92224
)
;

boundaryField
{
    walls
    {
        type            zeroGradient;
    }
    frontAndBack
    {
        type            empty;
    }
}


// ************************************************************************* //
