/*--------------------------------*- C++ -*----------------------------------*\
| =========                 |                                                 |
| \\      /  F ield         | OpenFOAM: The Open Source CFD Toolbox           |
|  \\    /   O peration     | Version:  2406                                  |
|   \\  /    A nd           | Website:  www.openfoam.com                      |
|    \\/     M anipulation  |                                                 |
\*---------------------------------------------------------------------------*/
FoamFile
{
    version     2.0;
    format      ascii;
    arch        "LSB;label=32;scalar=64";
    class       volScalarField;
    location    "1.65";
    object      nu;
}
// * * * * * * * * * * * * * * * * * * * * * * * * * * * * * * * * * * * * * //

dimensions      [0 2 -1 0 0 0 0];

internalField   nonuniform List<scalar> 
1800
(
0.0221598
0.0208644
0.0271688
0.0564427
0.0239125
0.0135731
0.0108104
0.00953074
0.00913249
0.00831974
0.0185459
0.0378268
0.0484568
0.0226018
0.0128867
0.010121
0.0089976
0.00828228
0.00824672
0.00744381
0.0181506
0.0900025
0.0182018
0.0112821
0.00921019
0.00833183
0.0079214
0.00765465
0.00778796
0.00743196
0.019371
0.0185547
0.0108063
0.00866362
0.00785776
0.00751709
0.00741763
0.00745286
0.00771447
0.00781304
0.0360383
0.0114216
0.00847573
0.00755727
0.00722236
0.00717831
0.00733008
0.00764948
0.00819899
0.00882859
0.0153884
0.00880071
0.00741347
0.00700614
0.00698046
0.00721237
0.00768922
0.00846337
0.00967581
0.0114847
0.0100287
0.00753131
0.00686729
0.00679394
0.00706438
0.00766378
0.00868673
0.0103181
0.0127956
0.0159938
0.00801172
0.00687212
0.00662165
0.00685157
0.00749295
0.00865953
0.0105809
0.0135488
0.0177648
0.025211
0.00703355
0.00652408
0.00658802
0.00715242
0.00831228
0.010398
0.0140737
0.0211442
0.0398119
0.0837199
0.00649197
0.00636003
0.00671007
0.00767486
0.00966194
0.0138709
0.0246053
0.0557905
0.0531284
0.0259284
0.00887883
0.00953187
0.0110326
0.0132358
0.0157121
0.0181164
0.0204591
0.0229342
0.0259097
0.0297882
0.0087932
0.00931034
0.0107483
0.0130535
0.0158294
0.0185397
0.0210562
0.0235502
0.026249
0.0296196
0.00895085
0.00915848
0.0103264
0.0124455
0.0153172
0.0184706
0.0215417
0.0244395
0.0269859
0.0283711
0.00947573
0.00912893
0.009861
0.0115141
0.0139339
0.0167576
0.0194485
0.0215677
0.0228014
0.0228239
0.010788
0.00932582
0.00950224
0.0105838
0.0122618
0.0142345
0.0160885
0.0174599
0.0180794
0.018048
0.0146369
0.0100151
0.00941921
0.00994359
0.0109488
0.012163
0.013337
0.0142471
0.014663
0.0147227
0.0280801
0.0119374
0.00997407
0.00986752
0.0103283
0.0109826
0.011621
0.0121085
0.0123284
0.0122699
0.0194311
0.0184887
0.0121994
0.0106433
0.0105608
0.0107675
0.0109547
0.0110207
0.0109671
0.0106685
0.0192332
0.122617
0.0241842
0.0145954
0.0125473
0.0116873
0.011198
0.0107397
0.0103602
0.0099447
0.0200634
0.0267475
0.036635
0.114913
0.0206176
0.0139954
0.0119395
0.0107394
0.0101366
0.00993873
0.0336455
0.0187763
0.0144949
0.0152426
0.0149421
0.0150535
0.015447
0.0170319
0.017865
0.0220811
0.0406383
0.021803
0.0168192
0.0170058
0.0149132
0.0142352
0.0143751
0.0158463
0.016696
0.0205567
0.0262082
0.031654
0.0251314
0.0175568
0.0138964
0.0129424
0.0129551
0.0142532
0.0152063
0.0187617
0.0190173
0.0251606
0.0444136
0.0156506
0.0127456
0.0119562
0.0118227
0.0127331
0.0135932
0.016797
0.0153702
0.0181359
0.0205712
0.0138144
0.011914
0.0113862
0.0112426
0.0117619
0.012287
0.0149567
0.013306
0.0145648
0.0150625
0.0125456
0.0111386
0.0108919
0.0109877
0.0113612
0.0115273
0.01356
0.0119652
0.0125515
0.0131503
0.0115248
0.0104773
0.0103555
0.0107292
0.01128
0.0112943
0.0127503
0.0110249
0.0111503
0.0120829
0.0108855
0.010199
0.0100472
0.0104229
0.0112272
0.0114369
0.0125078
0.0100689
0.0107228
0.0120552
0.0106921
0.0102536
0.0101362
0.0102996
0.0111232
0.0117495
0.0127471
0.0094446
0.0100105
0.011091
0.0101222
0.0102427
0.0104285
0.0104846
0.0111415
0.0121047
0.0133784
0.00910611
0.00980938
0.0104395
0.0101358
0.010578
0.0108811
0.0110032
0.0115025
0.0126316
0.0146346
0.00852373
0.00968677
0.00950282
0.0101385
0.0113494
0.0114861
0.0117406
0.0125095
0.0138114
0.0172706
0.00934414
0.00967335
0.00994429
0.0121323
0.0137338
0.0121416
0.0120368
0.0133736
0.0152445
0.0210642
0.01132
0.0106024
0.011884
0.016832
0.0170962
0.0131232
0.0122999
0.0134296
0.0154369
0.0220942
0.013253
0.0126146
0.0147042
0.0263733
0.0188004
0.013001
0.0123468
0.0133574
0.0148417
0.0192164
0.0161119
0.0152727
0.0155031
0.0198072
0.0126886
0.0109283
0.0109031
0.0118269
0.0129888
0.0154308
0.0208594
0.0152281
0.0140741
0.0108818
0.00916481
0.00895314
0.00939093
0.0102594
0.0111228
0.0124635
0.0127714
0.0114139
0.0095027
0.00802928
0.00774437
0.00806642
0.00864088
0.00934625
0.00989401
0.0105477
0.00838622
0.00783847
0.00732411
0.00728716
0.00768919
0.0083462
0.00886977
0.00923201
0.00939036
0.00956082
0.00676546
0.00688424
0.00718241
0.00799264
0.00973505
0.0122001
0.0131113
0.0118716
0.0105864
0.00989305
0.0190468
0.0315419
0.157653
0.0295102
0.0174279
0.0125337
0.00957344
0.0086316
0.00793409
0.00836359
0.0198036
0.0239331
0.0320505
0.0628249
0.0272152
0.0280579
0.01403
0.0124078
0.00966177
0.0086357
0.0212365
0.0227311
0.0247442
0.0254625
0.0305568
0.0241279
0.0210928
0.0153715
0.0140742
0.0107546
0.0206791
0.0206557
0.0234471
0.0206387
0.0251921
0.019536
0.0240639
0.0166172
0.0183655
0.0136295
0.0202344
0.0204833
0.0228755
0.0212587
0.0236289
0.0204305
0.0223013
0.0184979
0.0189557
0.0160564
0.0185852
0.0196054
0.0205076
0.022178
0.0226759
0.0239773
0.0241409
0.0225314
0.0222946
0.0191728
0.0151882
0.015797
0.0158782
0.0170194
0.0171877
0.0190001
0.0192359
0.0217573
0.0218273
0.0230366
0.0112051
0.0114609
0.0113142
0.0117409
0.0115997
0.0122279
0.0120562
0.0129466
0.0126925
0.0138298
0.0083239
0.00831597
0.00827152
0.00830312
0.00828673
0.00835222
0.00835368
0.00844329
0.00845474
0.00855322
0.00650916
0.00648805
0.00650395
0.00649373
0.00653252
0.00652941
0.00659067
0.00659189
0.00667298
0.0066787
0.0103221
0.0106172
0.0104046
0.0101909
0.010089
0.0102901
0.0110746
0.0100792
0.00703295
0.00578986
0.0106576
0.0106497
0.0104244
0.0101857
0.0100909
0.0103854
0.0113719
0.00993007
0.00691719
0.00575247
0.0108959
0.0108617
0.010631
0.0103664
0.0102716
0.0106924
0.0119389
0.00970086
0.00680735
0.0057268
0.0111576
0.0111265
0.0109116
0.0106692
0.0106289
0.0112594
0.012815
0.00937488
0.00669872
0.0057116
0.011415
0.011477
0.011314
0.0110772
0.0111476
0.012304
0.0142653
0.00897611
0.00659776
0.00571308
0.0117975
0.0118227
0.0116737
0.0115951
0.0120512
0.0142654
0.0146465
0.00853014
0.00650564
0.00573306
0.0122524
0.0124241
0.0124676
0.0124607
0.0136257
0.01971
0.0133968
0.00808824
0.00642238
0.00577699
0.0132138
0.0134276
0.0132975
0.0143047
0.0199053
0.023157
0.0112488
0.00764332
0.00635252
0.00585267
0.0140059
0.0142432
0.0158648
0.0253476
0.191099
0.0179991
0.00961101
0.00725069
0.00630684
0.00597548
0.0159288
0.0196502
0.0326316
0.0713406
0.0260663
0.0122471
0.00845731
0.00694134
0.00630272
0.00617243
0.0119611
0.0115041
0.0110983
0.0107408
0.0104092
0.0101119
0.00984971
0.00959344
0.00930425
0.00808275
0.0118161
0.0113999
0.0110248
0.0106814
0.0103604
0.0100787
0.00984594
0.00956809
0.00890478
0.00733895
0.0116639
0.011288
0.0109399
0.0106064
0.0102942
0.010031
0.00984153
0.00956458
0.00856483
0.00688426
0.0115338
0.0112125
0.0108955
0.0105639
0.0102513
0.0100034
0.00986081
0.00958494
0.00827462
0.00658017
0.0114239
0.0111653
0.0108881
0.0105639
0.0102483
0.0100059
0.00989996
0.00960942
0.0080126
0.00635679
0.0113052
0.0111066
0.0108724
0.0105594
0.0102587
0.0100548
0.0100259
0.00971035
0.00779384
0.00619236
0.0112674
0.0111263
0.0109126
0.0105796
0.0102603
0.0100767
0.0101371
0.00979615
0.00760195
0.00606662
0.0112636
0.0111348
0.0109458
0.0106182
0.0103172
0.0101885
0.01037
0.00993501
0.00743547
0.00597031
0.0114852
0.0113192
0.0110263
0.010602
0.0102736
0.0102029
0.0105439
0.010024
0.00728826
0.00589565
0.0113998
0.0111148
0.0109032
0.0105903
0.0103237
0.010334
0.0108479
0.0100922
0.0071526
0.00583585
0.148785
0.0482213
0.0353689
0.0414623
0.044386
0.0405152
0.0326943
0.0271962
0.0200594
0.0140308
0.11938
0.0481238
0.0339579
0.038244
0.0431759
0.0415701
0.0348988
0.0279209
0.0207163
0.0138475
0.100037
0.0479159
0.0326355
0.0358784
0.0419838
0.0419336
0.0378005
0.0283857
0.0216
0.0136666
0.0870161
0.0473298
0.0313499
0.0340752
0.0409184
0.0419823
0.0416309
0.0285354
0.0225827
0.0134641
0.0776107
0.046325
0.0301438
0.0326948
0.0399828
0.0419964
0.0463127
0.0284506
0.0233653
0.0132195
0.0707777
0.0451336
0.0291357
0.0316685
0.0391511
0.0419699
0.0503162
0.0284308
0.0230562
0.0130226
0.0663447
0.044295
0.0284306
0.0309232
0.0383446
0.0418438
0.0502974
0.0286835
0.0215523
0.0127778
0.064488
0.0445297
0.0280874
0.0303051
0.0373297
0.0419014
0.0453275
0.0292203
0.0189818
0.012862
0.0654218
0.0460902
0.0280723
0.0296105
0.0357637
0.0415959
0.0386878
0.0288737
0.0178576
0.01252
0.0689735
0.0480651
0.0276185
0.0290265
0.0333286
0.0378327
0.0317175
0.0254151
0.0154459
0.0139514
0.073934
0.0555056
0.0275645
0.0286062
0.0281402
0.0333648
0.0215679
0.0215569
0.0140121
0.0144927
0.0714411
0.0655925
0.0264037
0.0286225
0.0206405
0.0315214
0.0152218
0.0194805
0.0126038
0.0138928
0.065241
0.0778223
0.0262161
0.0244321
0.0171402
0.026826
0.0134082
0.0184886
0.0123578
0.0134302
0.0608617
0.0890747
0.0283595
0.0187768
0.0176397
0.0203432
0.0147078
0.0172625
0.0141962
0.0127886
0.0598571
0.0763176
0.0312234
0.0164513
0.0208668
0.0176528
0.018877
0.016522
0.0175994
0.0134898
0.0576364
0.0534668
0.0322403
0.0162894
0.0203514
0.0173305
0.0200519
0.0176885
0.0203252
0.0153158
0.049498
0.0509598
0.0387968
0.0187628
0.0172003
0.0184162
0.0166903
0.0206453
0.0185666
0.0171603
0.0359682
0.0811142
0.037558
0.0261248
0.0140117
0.0166495
0.0125761
0.0153307
0.0134107
0.0150035
0.0221857
0.0199231
0.0138214
0.0122724
0.0109747
0.0105611
0.0100776
0.0101614
0.00989881
0.00991705
0.00792922
0.00788434
0.00832501
0.00853706
0.00865038
0.00804705
0.00831095
0.00760981
0.00757255
0.00719537
0.0114715
0.0113033
0.0111851
0.0113962
0.0116641
0.0121134
0.0126426
0.0134213
0.0144521
0.0158238
0.0121026
0.0118719
0.0118627
0.0121831
0.0126498
0.0132904
0.0140796
0.015039
0.0161994
0.0180686
0.0126207
0.0125568
0.0128012
0.0133241
0.0139822
0.0147742
0.0156354
0.0166036
0.0178808
0.0191485
0.0133384
0.0135113
0.0139554
0.0145259
0.0151839
0.0157744
0.0165074
0.0170667
0.0182457
0.0187231
0.0146125
0.0148565
0.0153116
0.0157105
0.0161614
0.0164433
0.0169765
0.0173038
0.0182645
0.0186822
0.016043
0.0160766
0.0162896
0.0164696
0.0166209
0.0167
0.0168838
0.0170767
0.0174729
0.0179505
0.0166224
0.0162888
0.0160214
0.015893
0.0155777
0.0154461
0.0151278
0.0151306
0.0149592
0.0152248
0.0137906
0.0133084
0.0127977
0.0125088
0.0121005
0.011963
0.0116038
0.0115877
0.0112979
0.0114054
0.00966927
0.00945532
0.00925529
0.00908249
0.00892583
0.00879451
0.00866036
0.0085667
0.00845523
0.00840356
0.00708479
0.00698504
0.00689787
0.00681263
0.00674504
0.00667611
0.00662847
0.00657625
0.00654949
0.00651455
0.0058037
0.0065582
0.00841559
0.0145219
0.0365687
0.0161849
0.0125446
0.0111184
0.00968252
0.00818122
0.00588282
0.00648739
0.00794058
0.0122507
0.0384474
0.0223233
0.0141008
0.0113449
0.00962447
0.00811761
0.00600763
0.0064516
0.00754478
0.0102854
0.0178481
0.0212723
0.0154728
0.0119082
0.00982774
0.00826597
0.00619408
0.00646189
0.00724221
0.00904516
0.012874
0.0170138
0.0158345
0.0127461
0.0103579
0.00858925
0.0064667
0.00653424
0.0070423
0.00825164
0.0106018
0.0138267
0.0150479
0.0134891
0.0112045
0.00917596
0.00686165
0.00668869
0.00695416
0.00775406
0.00928128
0.0116321
0.013725
0.013843
0.0122976
0.00994668
0.00743584
0.00695077
0.00698533
0.00747826
0.00848213
0.0101082
0.0120901
0.0133047
0.0131952
0.0111423
0.00828402
0.00735429
0.00714584
0.00738407
0.00802798
0.0091454
0.0107378
0.012347
0.0134047
0.0120278
0.0095787
0.00794755
0.00745742
0.00745921
0.00781813
0.00854566
0.00967384
0.0110661
0.0127303
0.0119902
0.0116579
0.00879568
0.00795651
0.00772549
0.00784118
0.0082686
0.00902735
0.0101068
0.0116952
0.0125898
0.015251
0.00997669
0.0086723
0.00821247
0.00810873
0.00828062
0.00871594
0.00941583
0.0102574
0.0119734
0.0213799
0.011621
0.00963887
0.00897794
0.00869233
0.00865107
0.00883976
0.00924336
0.00960213
0.0109394
0.0316123
0.0134538
0.0108168
0.0100906
0.00973495
0.0095257
0.00950039
0.00966578
0.00970459
0.0105802
0.0356541
0.0142296
0.0116771
0.0113237
0.0112991
0.0111249
0.0108758
0.0107276
0.0104502
0.0108834
0.0246641
0.0132805
0.0117397
0.0120225
0.012783
0.0134019
0.0132964
0.0126939
0.0119165
0.0118533
0.016913
0.0119974
0.0115308
0.0122456
0.0135522
0.0154585
0.0171688
0.0166563
0.0147393
0.0137949
0.0128475
0.0111476
0.0113747
0.0124543
0.0141205
0.0168584
0.0218948
0.0266861
0.0220658
0.018089
0.0108513
0.0105506
0.0112664
0.0126826
0.0146879
0.0178039
0.0246314
0.044542
0.0563013
0.0287347
0.00977603
0.0101241
0.0112156
0.012923
0.0152214
0.018568
0.0244084
0.0382088
0.0845888
0.0448678
0.00918661
0.00980323
0.0111752
0.0131496
0.0155018
0.0182475
0.021654
0.0261863
0.0317092
0.0348007
0.0113156
0.0116261
0.0133654
0.0190002
0.0440895
0.0409854
0.0260256
0.0243887
0.0235015
0.0284692
0.0110295
0.0116515
0.013678
0.019153
0.0322909
0.032398
0.025004
0.0240866
0.0235896
0.0297241
0.0109034
0.0117187
0.0138392
0.0182344
0.0249891
0.0271129
0.0239765
0.023654
0.0233422
0.0295592
0.0112251
0.0119327
0.0140732
0.0174049
0.0217549
0.0235836
0.0227123
0.0230344
0.02288
0.0287908
0.0119183
0.0123593
0.014423
0.0168035
0.0197285
0.0211552
0.0213966
0.0222931
0.0223087
0.0278401
0.0128296
0.0130971
0.0146848
0.0161781
0.0180373
0.0193066
0.0201285
0.021488
0.02171
0.0269274
0.0141716
0.014202
0.0146662
0.0154364
0.0166041
0.0177975
0.0189189
0.0206215
0.0210898
0.0261027
0.0161358
0.0155392
0.0144105
0.0147126
0.0155006
0.0166042
0.0178096
0.019706
0.0204132
0.0252982
0.018914
0.0168221
0.0140818
0.0142411
0.0148311
0.0157846
0.0168754
0.018792
0.0196564
0.0244094
0.0233968
0.0178651
0.0139501
0.0143073
0.0146753
0.0153557
0.016145
0.0179244
0.0188156
0.0233533
0.0106869
0.0171868
0.022526
0.0419465
0.1466
0.253496
0.033023
0.0201118
0.0158895
0.0136519
0.00887024
0.0111998
0.0142482
0.0186238
0.0220384
0.020182
0.0166477
0.0144585
0.0135571
0.0127747
0.0088721
0.0104674
0.0131681
0.0165719
0.0184713
0.0183932
0.016967
0.0159493
0.0153485
0.0147234
0.00967277
0.010551
0.0131105
0.018442
0.0268078
0.0269939
0.0217615
0.0201356
0.019113
0.0190548
0.0115552
0.0116642
0.0134536
0.0192443
0.053015
0.0390798
0.0250468
0.023233
0.022167
0.0245109
0.00584381
0.00594624
0.00609025
0.00629385
0.00653143
0.00683334
0.00718876
0.00754568
0.00810186
0.00839342
0.00606046
0.0061402
0.00626569
0.00644037
0.00663321
0.00685759
0.00712242
0.00732911
0.00773317
0.00784245
0.00635572
0.0064098
0.00652905
0.00669696
0.00688744
0.00712526
0.00734179
0.00763498
0.00790279
0.00821517
0.00676266
0.0067872
0.00691746
0.00710739
0.00736105
0.00770108
0.00796364
0.00864882
0.00873839
0.0099897
0.00729917
0.00728732
0.00744017
0.00768625
0.00808558
0.00857226
0.00919428
0.010277
0.0104335
0.013549
0.0123899
0.0121159
0.0118534
0.0114489
0.0110707
0.0108499
0.010851
0.0104124
0.00812973
0.00634693
0.0126472
0.0123818
0.011961
0.01144
0.0110173
0.0107689
0.0107207
0.0103701
0.0083747
0.0065062
0.0123296
0.0121211
0.011833
0.011448
0.0110938
0.0108365
0.0107095
0.010361
0.00865449
0.00670644
0.0124274
0.0121877
0.0118601
0.0114544
0.0110635
0.0107442
0.0105308
0.0102259
0.00895631
0.00697386
0.0124239
0.0121021
0.0117307
0.0113299
0.0109537
0.0106376
0.0104067
0.0101709
0.00933968
0.00736186
0.0124275
0.012037
0.0116314
0.0112326
0.0108591
0.0105318
0.0102735
0.0100919
0.00974744
0.0079517
0.0123844
0.0119355
0.0115008
0.0110984
0.0107207
0.0103799
0.0101014
0.00998268
0.0101812
0.00903104
0.0122966
0.0118096
0.0113587
0.0109552
0.0105738
0.0102211
0.00992377
0.00983652
0.0105032
0.0114578
0.0121889
0.0116911
0.011243
0.0108502
0.0104796
0.0101354
0.00983494
0.00969636
0.0103067
0.0128757
0.0120792
0.0115967
0.011169
0.0107969
0.0104503
0.0101333
0.00984766
0.00963796
0.00978842
0.009593
0.00847867
0.0099101
0.0110522
0.0118383
0.0128649
0.0159019
0.0151403
0.00889523
0.00665079
0.00575852
0.00903218
0.0101797
0.0108494
0.0112618
0.0117414
0.0128412
0.0140999
0.00936705
0.00675743
0.00573952
0.0096361
0.0103191
0.0106171
0.0107572
0.01095
0.011538
0.0124544
0.00968755
0.00687556
0.00574383
0.00998173
0.0102865
0.0104105
0.0104697
0.0105447
0.0108602
0.0115653
0.00991978
0.00700255
0.00576611
0.0101274
0.0102832
0.0103281
0.0103213
0.0103309
0.0105353
0.0110773
0.0100055
0.0071276
0.00580507
0.0102944
0.0104002
0.0103981
0.0103371
0.0102784
0.0103837
0.0108087
0.0100756
0.00726204
0.00585877
0.0105905
0.0106552
0.0105771
0.010434
0.0103119
0.0103572
0.0106983
0.0101185
0.00740126
0.00592604
0.0109932
0.0109658
0.010775
0.0105453
0.0103702
0.0103699
0.0106512
0.0101803
0.00755606
0.00600805
0.0113182
0.0111422
0.0108669
0.01061
0.0104346
0.0104282
0.0106776
0.0102764
0.00772767
0.00610454
0.0111636
0.0112296
0.0110198
0.0107926
0.0106247
0.0105927
0.0107755
0.0103848
0.00792088
0.00621677
0.0379726
0.0369013
0.140282
0.0378541
0.0260873
0.0252215
0.0282533
0.042711
0.0261875
0.0176264
0.0429235
0.0382379
0.0895804
0.051372
0.0292916
0.0258671
0.0271566
0.0298959
0.0261424
0.0152986
0.0495041
0.0403977
0.0650144
0.070596
0.0325043
0.0267728
0.0273508
0.0265619
0.0248245
0.0145128
0.058304
0.0424182
0.055332
0.0974514
0.0351242
0.0274205
0.0271509
0.0244955
0.0226559
0.0144958
0.0701029
0.0441146
0.0501816
0.121564
0.0373778
0.0281919
0.0270274
0.0235819
0.0210985
0.0145829
0.0861363
0.045648
0.046506
0.107665
0.039709
0.0294441
0.0272528
0.023497
0.0202135
0.01464
0.109111
0.0471266
0.0435128
0.081313
0.0422103
0.0312693
0.0277989
0.0239003
0.0197126
0.0146135
0.143013
0.0483367
0.0409855
0.0636351
0.044336
0.0335823
0.0286031
0.0245873
0.0194717
0.014505
0.180151
0.0487981
0.0388235
0.052896
0.0454151
0.036163
0.0296535
0.0254298
0.0194528
0.0143538
0.181434
0.0485279
0.0369651
0.0460515
0.0453
0.0386276
0.0309897
0.0263305
0.0196447
0.014189
0.00725176
0.00742402
0.00821041
0.00884993
0.00949376
0.00968098
0.00982178
0.0093564
0.00933378
0.00782629
0.0149818
0.0108265
0.00970002
0.0099106
0.0103836
0.0107966
0.0112821
0.0114806
0.0115603
0.0114108
0.0254324
0.0237195
0.0131763
0.0120643
0.012138
0.0127414
0.0135905
0.0153988
0.0156025
0.0143876
0.0308764
0.0432764
0.0222506
0.0163478
0.0153858
0.0161581
0.0176931
0.0247209
0.0270844
0.0152971
0.0343608
0.037101
0.0544761
0.0240971
0.0200647
0.0205531
0.0232555
0.0446863
0.0345219
0.0171189
0.00732132
0.00699351
0.00668148
0.00640772
0.00618483
0.00601203
0.00588704
0.0058094
0.00577691
0.00578838
0.0104325
0.00958451
0.00876204
0.00804981
0.00742073
0.00689635
0.00650486
0.00624587
0.00609914
0.00604347
0.0121867
0.0112697
0.0104254
0.00971272
0.00897978
0.0081865
0.00744967
0.00689974
0.00656115
0.00639466
0.0123958
0.0115139
0.0108715
0.0104356
0.0100042
0.00941833
0.0085985
0.00776999
0.0071886
0.00687434
0.0123447
0.0115133
0.0108595
0.0104285
0.0101004
0.00980869
0.00938071
0.00868919
0.00798
0.00750644
)
;

boundaryField
{
    left
    {
        type            calculated;
        value           nonuniform List<scalar> 
35
(
0.049352
0.0542581
0.0589312
0.0634208
0.0671445
0.0616835
0.0481629
0.0333281
0.0195788
0.00789373
0.0913658
0.0831748
0.0740874
0.0658776
0.0589041
0.053238
0.0490054
0.0463644
0.045432
0.0462791
0.0348899
0.0395689
0.04552
0.0529989
0.0619559
0.0720289
0.0824176
0.0910349
0.0955183
0.0957033
0.0072144
0.0136705
0.021832
0.0271458
0.0312371
)
;
    }
    right
    {
        type            calculated;
        value           nonuniform List<scalar> 
35
(
0.0136589
0.0128002
0.0148372
0.0195859
0.0264673
0.0327358
0.035625
0.0362565
0.0358322
0.0350532
0.0343219
0.0337426
0.0331792
0.032395
0.0311728
0.0293408
0.0267395
0.0233858
0.0198162
0.0168173
0.0147847
0.0136935
0.0133812
0.0136983
0.0145436
0.0163303
0.0202962
0.0267746
0.0258733
0.0202957
0.0156845
0.0126004
0.0106317
0.00959846
0.00990618
)
;
    }
    down
    {
        type            calculated;
        value           nonuniform List<scalar> 
40
(
0.00638395
0.00675164
0.0077915
0.00852696
0.00921273
0.00929204
0.0092914
0.00869142
0.00859254
0.00701224
0.00661207
0.00637944
0.00616097
0.00597612
0.00583927
0.00574623
0.0056874
0.00565807
0.00565733
0.00568812
0.00575656
0.00586926
0.00602485
0.00624756
0.00651716
0.0068802
0.00730639
0.00780754
0.00849167
0.00904948
0.0144143
0.0665161
0.101681
0.147132
0.041328
0.0356956
0.0433806
0.076447
0.0224831
0.0158012
)
;
    }
    up
    {
        type            calculated;
        value           nonuniform List<scalar> 
40
(
0.00635471
0.00673335
0.00773256
0.00970283
0.0165472
0.0231674
0.0210635
0.0274298
0.0133214
0.0107741
0.00605081
0.00603717
0.00605866
0.00605246
0.0060937
0.00609154
0.00615345
0.00615381
0.0062357
0.00624017
0.00648476
0.00640573
0.00633536
0.00626868
0.00621426
0.00616208
0.00612637
0.00608876
0.00607233
0.00604805
0.00678722
0.00682003
0.00737758
0.00777511
0.00796061
0.00745348
0.00771076
0.00697169
0.00693439
0.00657986
)
;
    }
    cylinder
    {
        type            calculated;
        value           nonuniform List<scalar> 
80
(
0.00879868
0.00880214
0.00917971
0.0102345
0.0133443
0.028671
0.0254867
0.014618
0.013622
0.0166479
0.0215195
0.0142303
0.0130429
0.0142218
0.0211213
0.0301564
0.0158251
0.00965894
0.00769941
0.00676751
0.00550443
0.00548154
0.00547059
0.00547149
0.0054912
0.00553411
0.00560973
0.00573196
0.00592786
0.00624439
0.00746298
0.00677704
0.00638068
0.00612402
0.00593991
0.00580731
0.00570781
0.00563353
0.00557785
0.0055352
0.00592614
0.00605196
0.0062109
0.00642566
0.00674098
0.00723477
0.00818395
0.0106389
0.0135955
0.00903143
0.00552949
0.00548856
0.0054741
0.00547942
0.00550287
0.00554098
0.00559211
0.00565646
0.00573342
0.00582292
0.00560328
0.00572201
0.00590356
0.00617185
0.00656311
0.00713806
0.00801481
0.00944864
0.0120933
0.0182287
0.0433824
0.0905313
0.0524647
0.0446361
0.0603358
0.033797
0.015617
0.0114952
0.00985868
0.00911341
)
;
    }
    defaultFaces
    {
        type            empty;
    }
}


// ************************************************************************* //
