/*--------------------------------*- C++ -*----------------------------------*\
| =========                 |                                                 |
| \\      /  F ield         | OpenFOAM: The Open Source CFD Toolbox           |
|  \\    /   O peration     | Version:  2406                                  |
|   \\  /    A nd           | Website:  www.openfoam.com                      |
|    \\/     M anipulation  |                                                 |
\*---------------------------------------------------------------------------*/
FoamFile
{
    version     2.0;
    format      ascii;
    arch        "LSB;label=32;scalar=64";
    class       volScalarField;
    location    "1.65";
    object      p;
}
// * * * * * * * * * * * * * * * * * * * * * * * * * * * * * * * * * * * * * //

dimensions      [0 2 -2 0 0 0 0];

internalField   nonuniform List<scalar> 
1800
(
-0.557229
-0.561384
-0.559691
-0.549622
-0.536556
-0.528516
-0.518186
-0.50439
-0.490283
-0.491559
-0.585583
-0.590938
-0.59064
-0.583284
-0.575187
-0.56707
-0.556986
-0.544921
-0.529834
-0.543395
-0.627741
-0.626926
-0.626417
-0.621483
-0.613254
-0.60364
-0.592097
-0.578733
-0.562374
-0.560493
-0.67681
-0.66898
-0.660102
-0.653926
-0.646031
-0.635396
-0.621834
-0.605891
-0.588458
-0.573874
-0.710363
-0.707009
-0.701354
-0.69288
-0.681778
-0.667397
-0.649681
-0.629568
-0.608375
-0.587929
-0.76928
-0.755958
-0.747514
-0.735797
-0.719605
-0.698798
-0.674278
-0.647376
-0.619395
-0.591697
-0.829035
-0.81069
-0.798673
-0.781556
-0.757509
-0.727836
-0.694825
-0.660314
-0.625733
-0.591779
-0.893427
-0.870769
-0.853827
-0.827881
-0.792473
-0.751648
-0.70912
-0.66697
-0.62584
-0.584433
-0.9617
-0.933847
-0.9088
-0.869901
-0.820052
-0.766401
-0.712766
-0.659447
-0.6063
-0.557003
-1.02476
-0.991778
-0.95378
-0.898494
-0.833298
-0.766806
-0.700901
-0.634904
-0.57366
-0.520118
-0.927108
-0.929726
-0.930837
-0.931991
-0.933416
-0.935196
-0.937438
-0.940162
-0.943051
-0.945259
-0.89795
-0.897562
-0.898014
-0.899136
-0.901007
-0.903629
-0.907046
-0.911354
-0.916637
-0.922605
-0.863584
-0.859667
-0.859046
-0.859715
-0.861554
-0.864623
-0.868909
-0.874467
-0.881373
-0.889492
-0.822766
-0.814943
-0.812921
-0.812444
-0.813364
-0.815954
-0.820227
-0.826191
-0.8339
-0.843068
-0.776171
-0.76454
-0.760692
-0.758127
-0.756873
-0.757554
-0.76028
-0.765003
-0.771607
-0.779473
-0.724361
-0.712051
-0.70617
-0.700562
-0.695777
-0.692748
-0.691727
-0.692714
-0.695562
-0.699555
-0.666633
-0.660136
-0.653372
-0.645002
-0.636384
-0.628452
-0.621744
-0.616501
-0.612862
-0.61079
-0.633119
-0.622927
-0.609813
-0.598155
-0.586703
-0.574
-0.560886
-0.54795
-0.535943
-0.526675
-0.585122
-0.58607
-0.585794
-0.574582
-0.5566
-0.539479
-0.520829
-0.500987
-0.48156
-0.465927
-0.555231
-0.558836
-0.55676
-0.542608
-0.529723
-0.520317
-0.501979
-0.480692
-0.458977
-0.438689
-0.954881
-1.10011
-1.17382
-1.1222
-0.897894
-0.595008
-0.341172
-0.166402
-0.0607265
-0.00677885
-0.959853
-1.17463
-1.2932
-1.25094
-0.987517
-0.635162
-0.346653
-0.157312
-0.0499582
-0.00120672
-0.953982
-1.24927
-1.42462
-1.39734
-1.08879
-0.68118
-0.353041
-0.147245
-0.0380392
0.00525589
-0.930147
-1.31425
-1.5602
-1.55212
-1.19843
-0.732184
-0.360866
-0.137063
-0.0255642
0.0122025
-0.879269
-1.3582
-1.68312
-1.7078
-1.31385
-0.787645
-0.371315
-0.128368
-0.013837
0.0186982
-0.799022
-1.37108
-1.7829
-1.85393
-1.43125
-0.847132
-0.385631
-0.122823
-0.00460413
0.023483
-0.692105
-1.34513
-1.852
-1.9806
-1.54439
-0.909018
-0.404651
-0.121643
0.000607388
0.0255788
-0.56667
-1.2781
-1.88119
-2.07702
-1.64409
-0.970167
-0.428956
-0.126019
0.000926004
0.0247717
-0.439585
-1.16986
-1.86602
-2.13485
-1.72289
-1.0272
-0.458401
-0.137368
-0.00418418
0.0213695
-0.338972
-1.03157
-1.81072
-2.14963
-1.78185
-1.07935
-0.49185
-0.156047
-0.0150355
0.0156485
-0.240003
-0.91161
-1.76324
-2.15714
-1.79612
-1.09862
-0.515542
-0.1803
-0.0342375
0.00569113
-0.270287
-0.863555
-1.69651
-2.06455
-1.70816
-1.06656
-0.532074
-0.219346
-0.0668854
-0.00892382
-0.325306
-0.836001
-1.58387
-1.90287
-1.58741
-1.03382
-0.558847
-0.265223
-0.103321
-0.0233617
-0.369893
-0.787935
-1.3954
-1.68907
-1.45321
-1.01463
-0.606052
-0.322846
-0.143087
-0.0377675
-0.383621
-0.711224
-1.20705
-1.46972
-1.33062
-1.01553
-0.674018
-0.39378
-0.186598
-0.0515246
-0.368208
-0.625446
-1.02475
-1.26854
-1.23418
-1.03929
-0.751437
-0.465216
-0.229191
-0.0633359
-0.329264
-0.534834
-0.853973
-1.09485
-1.1656
-1.08286
-0.829751
-0.526639
-0.260258
-0.0698631
-0.277646
-0.444787
-0.705367
-0.958029
-1.11906
-1.10728
-0.870128
-0.559294
-0.27777
-0.0730438
-0.210992
-0.383298
-0.633689
-0.864896
-1.06636
-1.10129
-0.875181
-0.568893
-0.285008
-0.0751558
-0.177925
-0.348941
-0.630759
-0.896969
-1.06152
-1.07505
-0.848456
-0.55968
-0.283186
-0.0757821
-0.430386
-0.472588
-0.505256
-0.529604
-0.54397
-0.552059
-0.550177
-0.531599
-0.477456
-0.456654
-0.317698
-0.368745
-0.408679
-0.443853
-0.466296
-0.479258
-0.476083
-0.46565
-0.442543
-0.442126
-0.221969
-0.275914
-0.318099
-0.356272
-0.385205
-0.40749
-0.412956
-0.419669
-0.412172
-0.412227
-0.138512
-0.193182
-0.238795
-0.278992
-0.312129
-0.342046
-0.358819
-0.377217
-0.380952
-0.390242
-0.0671866
-0.122034
-0.169594
-0.21228
-0.247835
-0.281677
-0.305518
-0.329898
-0.344512
-0.364013
-0.00744368
-0.061864
-0.1097
-0.153138
-0.18983
-0.224396
-0.251762
-0.27916
-0.301118
-0.326864
0.0414206
-0.0120115
-0.0593487
-0.101923
-0.138572
-0.171884
-0.20041
-0.227761
-0.252531
-0.278855
0.0801689
0.027661
-0.0192524
-0.0603156
-0.0960851
-0.127037
-0.154308
-0.178879
-0.201938
-0.224374
0.104118
0.0524186
0.00544164
-0.0344549
-0.0692012
-0.0973669
-0.121708
-0.141357
-0.158307
-0.172456
0.115421
0.0629586
0.0157347
-0.0250215
-0.0605814
-0.0893043
-0.113649
-0.131608
-0.145725
-0.154797
0.768071
0.710769
0.644826
0.575123
0.500503
0.418399
0.328995
0.237821
0.154791
0.101186
0.602365
0.541535
0.473742
0.400015
0.318637
0.227658
0.128224
0.0271595
-0.064132
-0.12447
0.4196
0.357516
0.288871
0.2128
0.127363
0.0309328
-0.0747047
-0.182125
-0.278766
-0.343748
0.243258
0.179417
0.108525
0.0294249
-0.0595986
-0.159966
-0.269674
-0.381575
-0.481782
-0.546671
0.0827988
0.0163536
-0.0577183
-0.140328
-0.233027
-0.336855
-0.448387
-0.563604
-0.662313
-0.726591
-0.0622161
-0.131071
-0.207482
-0.292167
-0.386442
-0.491525
-0.603373
-0.715533
-0.812712
-0.874653
-0.190177
-0.260037
-0.337022
-0.42228
-0.51735
-0.620684
-0.729072
-0.83627
-0.928142
-0.984876
-0.303257
-0.372364
-0.448381
-0.5306
-0.617276
-0.714162
-0.818397
-0.918976
-1.00177
-1.05243
-0.394889
-0.458584
-0.528361
-0.606108
-0.691532
-0.786322
-0.880373
-0.967372
-1.03601
-1.0799
-0.467917
-0.527512
-0.593787
-0.667983
-0.74474
-0.823882
-0.904148
-0.976734
-1.03065
-1.06855
1.73489
1.74669
1.75911
1.77112
1.78205
1.79146
1.79882
1.80357
1.8076
1.82411
1.69439
1.70418
1.71397
1.72289
1.73039
1.736
1.73922
1.74003
1.74096
1.75481
1.63502
1.64201
1.64824
1.65305
1.656
1.65658
1.65429
1.6496
1.64573
1.65525
1.55797
1.56161
1.5634
1.56299
1.56018
1.55432
1.54493
1.53298
1.52247
1.52623
1.464
1.46347
1.45988
1.45333
1.44382
1.43061
1.41316
1.39285
1.37447
1.37161
1.35655
1.35154
1.34173
1.32781
1.31017
1.28802
1.26091
1.23072
1.20292
1.19254
1.2368
1.22673
1.21032
1.18874
1.16252
1.13074
1.09298
1.05173
1.01309
0.995017
1.11152
1.09572
1.07109
1.03995
1.00341
0.960562
0.91114
0.858273
0.808602
0.781603
0.985445
0.963079
0.929392
0.887893
0.840075
0.784908
0.722345
0.656459
0.595063
0.558671
0.870597
0.833928
0.785308
0.730196
0.669708
0.601925
0.526575
0.448301
0.375956
0.330652
1.62715
1.61422
1.60629
1.58771
1.5787
1.57067
1.56919
1.57978
1.60844
1.68236
1.62508
1.61154
1.60432
1.58621
1.5766
1.56647
1.56387
1.57085
1.59447
1.65845
1.62342
1.60894
1.60243
1.58453
1.5742
1.56137
1.55736
1.5591
1.57538
1.62377
1.62217
1.60642
1.60065
1.58268
1.5715
1.55541
1.54974
1.5445
1.55158
1.57789
1.62133
1.60399
1.599
1.58068
1.56846
1.54861
1.54097
1.52701
1.52355
1.52032
1.62088
1.60158
1.59753
1.57853
1.56504
1.54097
1.53092
1.50658
1.49181
1.45089
1.62081
1.59916
1.59628
1.57621
1.5612
1.53252
1.5195
1.48328
1.45689
1.36909
1.62109
1.59677
1.59531
1.57366
1.55689
1.52327
1.50684
1.45732
1.41858
1.27613
1.62168
1.59462
1.59488
1.57099
1.55217
1.51303
1.49306
1.42897
1.37628
1.17143
1.62248
1.59276
1.5953
1.56866
1.54727
1.50191
1.47823
1.39941
1.33269
1.06418
1.62408
1.59077
1.59437
1.5649
1.54123
1.4894
1.46059
1.3666
1.27795
0.961173
1.62763
1.59057
1.5978
1.56347
1.53827
1.47726
1.4429
1.34107
1.23075
0.96093
1.63245
1.59185
1.60092
1.56236
1.53596
1.4684
1.42589
1.32289
1.19263
0.962303
1.63831
1.59473
1.60339
1.56234
1.5324
1.46604
1.40953
1.30998
1.16161
0.957048
1.64563
1.59862
1.60452
1.56196
1.52569
1.46829
1.39305
1.29962
1.13638
0.946714
1.65504
1.60152
1.60156
1.5553
1.51579
1.46991
1.37646
1.29096
1.11904
0.935678
1.6679
1.60444
1.59573
1.53912
1.50322
1.47004
1.36002
1.28484
1.1111
0.92872
1.68729
1.60968
1.59281
1.52809
1.49057
1.46978
1.34343
1.28505
1.11155
0.927741
1.70156
1.61307
1.59214
1.52351
1.47993
1.46906
1.32989
1.29124
1.11335
0.931662
1.74708
1.61276
1.58843
1.51774
1.47965
1.46835
1.32757
1.30427
1.11621
0.945838
0.754909
0.617907
0.45413
0.295335
0.151028
0.0205536
-0.0968905
-0.202057
-0.292628
-0.368854
0.714434
0.602323
0.472597
0.342241
0.220542
0.108408
0.00453115
-0.0915028
-0.177983
-0.254041
0.702188
0.599733
0.489569
0.379486
0.274216
0.17504
0.0812794
-0.00637375
-0.0867572
-0.158878
0.703617
0.60679
0.508362
0.413242
0.321915
0.234198
0.149506
0.0689996
-0.00686527
-0.0761811
0.711726
0.621847
0.532348
0.44767
0.366426
0.287066
0.208948
0.133326
0.0610424
-0.00608353
0.72355
0.641413
0.55925
0.481277
0.406231
0.332073
0.258342
0.186208
0.117019
0.0520912
0.738369
0.663262
0.586976
0.513216
0.441655
0.370489
0.299597
0.229839
0.162596
0.0996894
0.754792
0.685278
0.613439
0.54235
0.472516
0.402853
0.334199
0.266571
0.201223
0.138444
0.766745
0.699751
0.630496
0.560803
0.491035
0.421081
0.352514
0.285239
0.221007
0.160862
0.783975
0.717908
0.649631
0.579351
0.507905
0.436953
0.367376
0.299824
0.234928
0.173185
-1.49337
-1.43937
-1.3605
-1.2719
-1.18561
-1.1074
-1.03869
-0.980723
-0.933228
-0.896691
-1.59555
-1.54681
-1.47456
-1.38887
-1.30396
-1.22715
-1.16001
-1.10183
-1.05346
-1.01634
-1.65086
-1.60773
-1.54394
-1.46417
-1.38372
-1.30859
-1.24143
-1.18282
-1.13277
-1.0928
-1.66429
-1.62716
-1.57377
-1.503
-1.42713
-1.35395
-1.28717
-1.22823
-1.17682
-1.13383
-1.64494
-1.61392
-1.57211
-1.51244
-1.44336
-1.3735
-1.3077
-1.24832
-1.19559
-1.1498
-1.60408
-1.57886
-1.54797
-1.50005
-1.43982
-1.37517
-1.31139
-1.25185
-1.19801
-1.15042
-1.55244
-1.53237
-1.51026
-1.47359
-1.42368
-1.36636
-1.30673
-1.24865
-1.19489
-1.14766
-1.49761
-1.48174
-1.46605
-1.43894
-1.39932
-1.35024
-1.29592
-1.24019
-1.18673
-1.13916
-1.44395
-1.43143
-1.42019
-1.40062
-1.37031
-1.33008
-1.28274
-1.23149
-1.18047
-1.13673
-1.3935
-1.38362
-1.37536
-1.36115
-1.33816
-1.30562
-1.26464
-1.21713
-1.16553
-1.11815
-1.34675
-1.33888
-1.33275
-1.32234
-1.30503
-1.27932
-1.24533
-1.20467
-1.15883
-1.10819
-1.30116
-1.29531
-1.2917
-1.28453
-1.27168
-1.25146
-1.22322
-1.18791
-1.14645
-1.0959
-1.25191
-1.25025
-1.24909
-1.24484
-1.23545
-1.21928
-1.19549
-1.16446
-1.12634
-1.07686
-1.19958
-1.20169
-1.2017
-1.19973
-1.19281
-1.17941
-1.15912
-1.13234
-1.09867
-1.05444
-1.14405
-1.15008
-1.15144
-1.15074
-1.14593
-1.13506
-1.11778
-1.09498
-1.06756
-1.03248
-1.09425
-1.10165
-1.10391
-1.10394
-1.10085
-1.09293
-1.07913
-1.06055
-1.03928
-1.01402
-1.05133
-1.05949
-1.06182
-1.06221
-1.06053
-1.05589
-1.04686
-1.03288
-1.01672
-0.999544
-1.01369
-1.02155
-1.02377
-1.02433
-1.02346
-1.02102
-1.01662
-1.00865
-0.99688
-0.985008
-0.981631
-0.988285
-0.99011
-0.990667
-0.990312
-0.989128
-0.98768
-0.986189
-0.98164
-0.97335
-0.953926
-0.958815
-0.960319
-0.96118
-0.961789
-0.962283
-0.962913
-0.963585
-0.963045
-0.960357
-0.943329
-0.731145
-0.686423
-0.663482
-0.605295
-0.493301
-0.361076
-0.232224
-0.12532
-0.0347718
-0.922294
-0.72475
-0.69333
-0.671641
-0.607898
-0.488461
-0.354719
-0.226441
-0.120933
-0.033079
-0.907021
-0.729043
-0.707571
-0.684721
-0.613436
-0.485621
-0.348871
-0.220472
-0.116116
-0.0310637
-0.900129
-0.745504
-0.729942
-0.703543
-0.622375
-0.485495
-0.343801
-0.214439
-0.110984
-0.0288771
-0.900383
-0.772757
-0.760469
-0.72903
-0.635995
-0.488098
-0.339576
-0.208312
-0.10552
-0.0265698
-0.904942
-0.809167
-0.799728
-0.7624
-0.655079
-0.493682
-0.336306
-0.20205
-0.099676
-0.0241353
-0.912092
-0.853778
-0.848867
-0.805122
-0.68098
-0.502828
-0.334146
-0.195599
-0.0933633
-0.0215233
-0.921677
-0.905348
-0.908919
-0.859368
-0.715704
-0.516432
-0.333329
-0.188899
-0.0864562
-0.0186351
-0.93208
-0.963781
-0.981922
-0.92772
-0.762155
-0.53568
-0.334153
-0.181892
-0.0788136
-0.01533
-0.943827
-1.02905
-1.06979
-1.01443
-0.822434
-0.561712
-0.336828
-0.174479
-0.0702915
-0.0114381
-0.936063
-0.765071
-0.707926
-0.658953
-0.592087
-0.47973
-0.340727
-0.225908
-0.124246
-0.0341048
-0.92461
-0.758903
-0.700122
-0.653783
-0.588287
-0.480222
-0.357061
-0.229487
-0.126378
-0.0352641
-0.922564
-0.751289
-0.695072
-0.655773
-0.593593
-0.477704
-0.355912
-0.230862
-0.126787
-0.0353407
-0.923523
-0.742642
-0.688596
-0.655378
-0.595812
-0.483917
-0.35915
-0.233058
-0.12758
-0.0356519
-0.935755
-0.731943
-0.680246
-0.654496
-0.59753
-0.490793
-0.362548
-0.234671
-0.127779
-0.0357822
-0.860799
-0.974397
-1.0461
-1.08364
-1.09037
-1.08175
-1.05892
-1.036
-1.00843
-0.986276
-0.858206
-0.972034
-1.04157
-1.07567
-1.07877
-1.06577
-1.04099
-1.01382
-0.986192
-0.960166
-0.860884
-0.975301
-1.04446
-1.07758
-1.08066
-1.0669
-1.04582
-1.01858
-0.997615
-0.975252
-0.867125
-0.98331
-1.05354
-1.08731
-1.09265
-1.08123
-1.06596
-1.04234
-1.02895
-1.00982
-0.877541
-0.996171
-1.06869
-1.10476
-1.11441
-1.10861
-1.10032
-1.08478
-1.07692
-1.06094
1.21076
1.19859
1.18037
1.15966
1.13739
1.1126
1.08505
1.05705
1.0336
1.0255
1.31538
1.31161
1.30279
1.29116
1.2775
1.26121
1.24217
1.22232
1.2061
1.20351
1.41635
1.41695
1.41396
1.40884
1.4021
1.39327
1.38214
1.36995
1.36034
1.36303
1.50801
1.51219
1.51423
1.51489
1.51431
1.51198
1.50749
1.50149
1.49715
1.50467
1.58851
1.59582
1.60197
1.60721
1.61143
1.61415
1.61486
1.61371
1.61342
1.62482
1.65539
1.66523
1.67476
1.68379
1.69201
1.69893
1.70394
1.70659
1.70908
1.72325
1.70711
1.71893
1.73112
1.74312
1.75443
1.76459
1.77286
1.77824
1.78233
1.79743
1.7421
1.75524
1.76926
1.78333
1.79683
1.80936
1.82017
1.82792
1.83332
1.84618
1.75887
1.77246
1.78715
1.80193
1.81615
1.82943
1.84116
1.85005
1.85614
1.8676
1.75653
1.76966
1.78373
1.7977
1.81085
1.82278
1.83288
1.84018
1.84582
1.86219
-0.732695
-0.770769
-0.819059
-0.877482
-0.946377
-1.02485
-1.1129
-1.20451
-1.28645
-1.34396
-0.528562
-0.569441
-0.619223
-0.678359
-0.747773
-0.827871
-0.916014
-1.00853
-1.09161
-1.15049
-0.295937
-0.340336
-0.392369
-0.452671
-0.522153
-0.60142
-0.688939
-0.779454
-0.862062
-0.921492
-0.0503611
-0.0978498
-0.151876
-0.212907
-0.281838
-0.35941
-0.444306
-0.53102
-0.610317
-0.666353
0.189963
0.141062
0.0867752
0.0269167
-0.0393826
-0.112992
-0.192987
-0.274269
-0.348432
-0.397909
0.411824
0.364516
0.312874
0.256801
0.195426
0.127815
0.0546643
-0.0192968
-0.0862408
-0.128133
0.609884
0.567193
0.521056
0.471272
0.41694
0.357132
0.292433
0.227223
0.168781
0.134796
0.78834
0.751806
0.712594
0.670261
0.623822
0.572402
0.516572
0.460438
0.410838
0.384419
0.955785
0.924764
0.891098
0.855049
0.81569
0.772119
0.724846
0.677586
0.636657
0.617014
1.10863
1.08244
1.05213
1.02085
0.98808
0.952549
0.914309
0.876306
0.844162
0.830303
1.70449
1.64562
1.62264
1.58896
1.57115
1.55764
1.53937
1.51876
1.45623
1.35442
1.69037
1.64299
1.62118
1.59125
1.57531
1.56385
1.54885
1.53231
1.48927
1.4274
1.67811
1.63974
1.62057
1.59356
1.57834
1.56878
1.55721
1.54745
1.5224
1.49679
1.66754
1.63624
1.61963
1.59521
1.58063
1.57271
1.56437
1.56122
1.55138
1.55588
1.65846
1.63273
1.61825
1.59547
1.58222
1.57557
1.56996
1.57251
1.57543
1.60476
1.65065
1.6293
1.61669
1.59446
1.58309
1.57729
1.57389
1.58107
1.59459
1.64343
1.64391
1.62595
1.61486
1.59298
1.58328
1.57795
1.57615
1.58673
1.60857
1.67199
1.63813
1.62272
1.61275
1.59159
1.58287
1.5776
1.57676
1.58941
1.61705
1.69033
1.63342
1.61972
1.61051
1.59033
1.58192
1.57627
1.57575
1.5891
1.61986
1.69826
1.62983
1.61693
1.60834
1.58907
1.5805
1.57395
1.57319
1.58587
1.61696
1.69562
1.82491
1.65693
1.61448
1.5703
1.54789
1.53062
1.50316
1.46543
1.3686
1.26487
1.78596
1.66029
1.62243
1.57686
1.55135
1.53247
1.50368
1.46591
1.36762
1.24982
1.76357
1.65804
1.62277
1.57956
1.55438
1.5359
1.50778
1.47149
1.37686
1.25131
1.74091
1.6525
1.62375
1.58323
1.55946
1.54186
1.51536
1.48211
1.39194
1.26204
1.72111
1.64843
1.62424
1.58628
1.56514
1.54914
1.52592
1.49651
1.41357
1.2825
1.01289
0.904659
0.768919
0.600197
0.400954
0.177061
-0.0600029
-0.295278
-0.514251
-0.705636
1.00041
0.893846
0.760733
0.59655
0.403352
0.184716
-0.0501956
-0.286589
-0.508479
-0.70246
1.01333
0.904824
0.769144
0.604721
0.412907
0.195132
-0.0406233
-0.279687
-0.505074
-0.70241
1.04063
0.922776
0.780224
0.614328
0.422783
0.204586
-0.0329581
-0.275311
-0.504685
-0.705833
1.08758
0.950657
0.794254
0.623299
0.43019
0.210968
-0.0284145
-0.274055
-0.507643
-0.713008
)
;

boundaryField
{
    left
    {
        type            zeroGradient;
    }
    right
    {
        type            fixedValue;
        value           uniform 0;
    }
    down
    {
        type            zeroGradient;
    }
    up
    {
        type            zeroGradient;
    }
    cylinder
    {
        type            zeroGradient;
    }
    defaultFaces
    {
        type            empty;
    }
}


// ************************************************************************* //
