/*--------------------------------*- C++ -*----------------------------------*\
| =========                 |                                                 |
| \\      /  F ield         | OpenFOAM: The Open Source CFD Toolbox           |
|  \\    /   O peration     | Version:  2406                                  |
|   \\  /    A nd           | Website:  www.openfoam.com                      |
|    \\/     M anipulation  |                                                 |
\*---------------------------------------------------------------------------*/
FoamFile
{
    version     2.0;
    format      ascii;
    arch        "LSB;label=32;scalar=64";
    class       surfaceScalarField;
    location    "1.65";
    object      phi;
}
// * * * * * * * * * * * * * * * * * * * * * * * * * * * * * * * * * * * * * //

dimensions      [0 3 -1 0 0 0 0];

oriented        oriented;

internalField   nonuniform List<scalar> 
3485
(
-0.00158737
0.00123893
0.000348444
-0.00374284
0.00160769
0.000547778
-0.00528313
0.00124837
0.000291921
-0.00577675
0.000446574
4.70493e-05
-0.00430285
-0.00128651
-0.000187394
0.000571351
-0.00498407
0.000109872
0.00987741
-0.0105792
0.00127318
0.0239021
-0.017631
0.00360627
0.0425681
-0.0257006
0.00703464
-0.0309575
0.0107969
0.0627287
-0.00097242
0.00221135
-0.00175251
0.00238777
-0.00219456
0.00169043
-0.000909551
-0.000838439
0.00421222
-0.00640828
0.0145282
-0.0153
0.0305025
-0.0265536
0.0520441
-0.0391726
0.0790011
-0.0526576
-0.0612982
0.109342
-8.556e-05
0.00229691
2.09053e-05
0.00228131
0.00186579
-0.00015445
0.00810025
-0.0070729
0.0203873
-0.0186953
0.0389265
-0.0338392
0.0631523
-0.0507795
0.0918896
-0.0679099
0.123845
-0.0846125
-0.0962161
0.158762
0.00098747
0.00130944
0.00263312
0.000635656
0.00848237
-0.0060037
0.0211007
-0.0196912
0.041091
-0.0386857
0.0673638
-0.060112
0.0978608
-0.0812764
0.130273
-0.100322
0.162231
-0.116571
-0.128292
0.194307
0.000680803
0.000628634
0.00484957
-0.00353311
0.0164269
-0.0175811
0.0365551
-0.0398193
0.0637939
-0.0659245
0.0950545
-0.0913726
0.127008
-0.11323
0.157095
-0.130409
0.183603
-0.143078
-0.151682
0.206993
0.00121296
-0.000584329
0.00942883
-0.011749
0.0274033
-0.0355555
0.0539801
-0.0663962
0.0848213
-0.0967657
0.11528
-0.121831
0.142235
-0.140186
0.164402
-0.152575
0.181882
-0.160558
-0.165528
0.195728
0.00265017
-0.0032345
0.0156505
-0.0247493
0.0393276
-0.0592326
0.0685948
-0.0956634
0.0971835
-0.125354
0.12126
-0.145908
0.139844
-0.158769
0.153741
-0.166472
0.164333
-0.171151
-0.174181
0.172985
0.00478217
-0.00801667
0.0222498
-0.0422169
0.0484585
-0.0854413
0.0751385
-0.122343
0.0970756
-0.147291
0.113207
-0.162039
0.124755
-0.170317
0.133416
-0.175133
0.140373
-0.178108
-0.180056
0.146248
0.00692571
-0.0149424
0.0271419
-0.062433
0.0516087
-0.109908
0.0723077
-0.143042
0.0870666
-0.16205
0.0970299
-0.172002
0.103978
-0.177265
0.109194
-0.180349
0.113412
-0.182326
-0.183651
0.117006
0.00876938
-0.0237118
0.0289168
-0.0825805
0.0487223
-0.129714
0.0631063
-0.157426
0.0723017
-0.171246
0.0780478
-0.177748
0.0819626
-0.18118
0.085075
-0.183462
0.0876509
-0.184902
0.089399
-0.185399
-0.000368533
0.00709136
-0.00672283
-0.00181656
0.0208295
-0.0193815
-0.00405103
0.0305662
-0.0283318
-0.00663582
0.036592
-0.0340072
-0.0093012
0.0402998
-0.0376344
-0.0119197
0.0427013
-0.0400828
-0.0144305
0.044335
-0.0418243
-0.0167952
0.0454791
-0.0431143
-0.0189814
0.0462913
-0.0441051
0.0468777
-0.0209538
-0.0449052
0.000475388
0.00661598
0.000490672
0.0208142
-0.000343699
0.0314006
-0.00177786
0.0380261
-0.00350402
0.042026
-0.00533211
0.0445294
-0.00715805
0.046161
-0.0089163
0.0472373
-0.0105591
0.0479341
0.0483788
-0.0120602
0.00133879
0.00527718
0.00317417
0.0189788
0.00426162
0.0303132
0.00453323
0.0377545
0.00430666
0.0422525
0.00386135
0.0449747
0.00336264
0.0466597
0.00289835
0.0477016
0.00251576
0.0483167
0.0486776
0.00221695
0.0020107
0.00326648
0.00582251
0.015167
0.0093566
0.0267791
0.0120044
0.0351068
0.0139321
0.0403248
0.0154599
0.0434469
0.0168338
0.0452858
0.0182078
0.0463275
0.0196873
0.0468371
0.0469767
0.0213881
0.00210948
0.001157
0.00748316
0.00979334
0.0135646
0.0206976
0.0190503
0.0296211
0.0237037
0.0356714
0.0277411
0.0394095
0.0314606
0.0415663
0.0351149
0.0426733
0.0389113
0.0430407
0.0427919
0.0430961
0.00142296
-0.000265954
0.00713191
0.00408438
0.0150217
0.0128079
0.0232009
0.0214418
0.0308418
0.0280305
0.0378333
0.032418
0.0443687
0.0350309
0.0507202
0.0363218
0.0571747
0.0365862
0.0358205
0.0641461
0.000838815
-0.00110477
0.00509852
-0.000175322
0.012815
0.00509139
0.022202
0.0120548
0.0319319
0.0183006
0.0414663
0.0228835
0.0507076
0.0257897
0.059779
0.0272504
0.0689268
0.0274384
0.0260476
0.0786998
0.00102737
-0.00213214
0.00293781
-0.00208577
0.00784019
0.000189018
0.0157925
0.00410251
0.0252464
0.0088467
0.035362
0.012768
0.0457661
0.0153855
0.0563916
0.0166249
0.0673737
0.0164563
0.0142256
0.0791957
-0.000398154
-0.00173399
-0.000527044
-0.00195688
0.000981519
-0.00131955
0.00508543
-1.39937e-06
0.0115996
0.00233252
0.019717
0.00465056
0.0290253
0.00607726
0.0393752
0.006275
0.0507846
0.00504689
0.00179312
0.063217
-0.00138554
-0.00279464
-0.00382226
-0.00377661
-0.00163149
0.00312895
0.0104794
0.0203607
0.0324422
0.0450322
-0.0263686
0.431654
-0.42624
-0.0350449
0.398827
-0.390151
-0.0420929
0.226081
-0.219033
-0.0273977
0.0102786
-0.0249737
0.0096938
-0.196092
0.159
0.0511599
-0.299859
0.258393
0.0884119
-0.323713
0.286461
0.115284
-0.27972
0.252848
0.135421
-0.236341
0.216204
-0.130465
0.12089
-0.0206671
0.440261
-0.0357133
0.413873
-0.0443988
0.234766
-0.02697
-0.00715018
0.013232
-0.236294
0.0568016
-0.343429
0.0944502
-0.361362
0.120821
-0.306091
0.140761
-0.25628
-0.14029
-0.00729659
0.449775
-0.0260477
0.432624
-0.0355634
0.244282
-0.0158047
-0.026909
0.0264393
-0.278538
0.0713969
-0.388386
0.107492
-0.397457
0.130963
-0.329562
0.148711
-0.274028
-0.149587
0.0159726
0.45519
-0.00496636
0.453563
-0.0153166
0.254632
0.00536796
-0.0475935
0.0483862
-0.321556
0.0950087
-0.435009
0.129252
-0.4317
0.148004
-0.348314
0.161014
-0.287038
-0.157038
0.0467093
0.451577
0.0252929
0.47498
0.0143315
0.265593
0.0328069
-0.0660688
0.075024
-0.363773
0.123479
-0.483464
0.157988
-0.466208
0.172815
-0.363142
0.179308
-0.293531
-0.161101
0.0813868
0.434337
0.0634312
0.492935
0.0519185
0.277106
0.0664461
-0.0805964
0.105189
-0.402516
0.152806
-0.531082
0.188871
-0.502273
0.203163
-0.377433
0.203888
-0.294257
-0.160971
0.116946
0.396091
0.106497
0.503383
0.0945639
0.28904
0.106738
-0.0927705
0.141981
-0.437759
0.184386
-0.573487
0.218819
-0.536705
0.234691
-0.393306
0.232732
-0.292298
-0.157477
0.146948
0.328339
0.149624
0.500707
0.138641
0.300022
0.150267
-0.104397
0.184035
-0.471526
0.220459
-0.609911
0.248762
-0.565008
0.264341
-0.408884
0.262337
-0.290295
-0.152665
0.168025
0.223531
0.191396
0.477336
0.180115
0.311304
0.190432
-0.114714
0.223494
-0.504588
0.257262
-0.64368
0.279472
-0.587218
0.291654
-0.421066
0.289796
-0.288437
-0.14828
0.164571
0.103991
0.216766
0.425142
0.215392
0.312677
0.224741
-0.124063
0.255411
-0.535258
0.289008
-0.677277
0.308677
-0.606887
0.316749
-0.429138
0.313787
-0.285475
-0.144983
0.275441
0.0545283
-0.225978
0.368272
0.332311
0.458921
0.222029
0.560372
-0.225514
0.625094
-0.59998
0.641377
-0.69356
0.617042
-0.582552
0.578729
-0.390825
0.538471
-0.245217
-0.121036
0.432461
0.0967532
-0.474686
0.502402
0.26237
0.62191
0.102521
0.72373
-0.327334
0.75359
-0.62984
0.730691
-0.670661
0.680417
-0.532278
0.626314
-0.336722
0.575219
-0.194123
-0.0923216
0.603968
0.11734
-0.624555
0.667739
0.198599
0.775848
-0.00558732
0.840819
-0.392306
0.838053
-0.627074
0.786456
-0.619064
0.713499
-0.45932
0.647844
-0.271067
0.591819
-0.138098
-0.0616494
0.726402
0.09567
-0.704732
0.800562
0.124439
0.882886
-0.0879113
0.918841
-0.42826
0.900212
-0.608445
0.832177
-0.551029
0.739027
-0.36617
0.656181
-0.188222
0.592217
-0.0741331
-0.0293728
0.802272
0.0522081
-0.758811
0.876783
0.0499279
0.940342
-0.15147
0.960395
-0.448314
0.919417
-0.567467
0.827889
-0.459501
0.724697
-0.262978
0.639831
-0.103356
0.577286
-0.0115876
0.00140399
0.843795
0.00645608
-0.798043
0.90901
-0.0152876
0.964513
-0.206972
0.967467
-0.451268
0.894326
-0.494325
0.775096
-0.340272
0.662716
-0.150598
0.584446
-0.0250858
0.535853
0.0370054
0.0237085
0.854463
-0.0311232
-0.816884
0.914375
-0.0751994
0.95515
-0.247748
0.907949
-0.404067
0.783601
-0.369977
0.648172
-0.204843
0.548675
-0.0511007
0.491813
0.0317767
0.466163
0.0626548
0.0332462
0.832104
-0.0581534
-0.805073
0.877672
-0.120767
0.86045
-0.230526
0.725807
-0.269424
0.550148
-0.194318
0.423367
-0.0780625
0.365448
0.0068184
0.351115
0.0461099
0.357835
0.0559351
0.0276872
0.716658
-0.0616027
-0.713209
0.699446
-0.103556
0.571723
-0.102803
0.372634
-0.0703346
0.219573
-0.0412576
0.157928
-0.0164173
0.157132
0.00761428
0.181282
0.0219606
0.21124
0.0259762
0.0127648
0.322401
-0.384003
0.218845
0.116042
0.0457075
0.00444997
-0.0119674
-0.00435309
0.0176076
0.0435837
0.516996
0.0802454
-0.507843
0.525442
0.108561
0.534001
0.137689
0.541595
0.165392
0.547459
0.189863
0.540779
0.213672
0.509139
0.225948
0.440841
0.22706
0.325606
0.224576
0.162357
0.516936
0.0701963
-0.506887
0.528693
0.0968033
0.541924
0.124458
0.555687
0.151629
0.568215
0.177336
0.58184
0.200047
0.581597
0.226191
0.576013
0.232644
0.543129
0.25746
0.2308
0.523927
0.0613657
-0.515097
0.535436
0.0852947
0.549232
0.110662
0.566068
0.134793
0.581834
0.16157
0.6013
0.180581
0.617567
0.209924
0.631492
0.218719
0.640545
0.248407
0.24679
0.535435
0.0526794
-0.526749
0.547577
0.0731523
0.561605
0.096634
0.579674
0.116724
0.599009
0.142235
0.620443
0.159148
0.644904
0.185463
0.66547
0.198153
0.690804
0.223073
0.232863
0.545178
0.0431698
-0.535668
0.558277
0.0600528
0.574254
0.0806575
0.593575
0.0974023
0.616592
0.119218
0.640785
0.134954
0.669956
0.156292
0.697172
0.170937
0.729907
0.190337
0.203959
0.547979
0.0329354
-0.537744
0.561815
0.0462165
0.579696
0.0627768
0.600668
0.0764301
0.626429
0.0934573
0.654142
0.107241
0.686949
0.123484
0.72072
0.137166
0.759294
0.151764
0.165211
0.539795
0.0224954
-0.529355
0.554036
0.0319762
0.572911
0.0439012
0.595366
0.0539753
0.622846
0.0659767
0.653515
0.0765727
0.689274
0.0877258
0.727837
0.0986028
0.771251
0.108349
0.119578
0.512876
0.0121364
-0.502517
0.526963
0.0178892
0.546088
0.0247755
0.569044
0.03102
0.597271
0.0377493
0.629371
0.0444728
0.666775
0.0503211
0.708054
0.0573241
0.754595
0.0618085
0.0690993
0.444082
0.00298173
-0.434927
0.456674
0.00529668
0.473877
0.00757235
0.494845
0.0100521
0.520482
0.0121123
0.550156
0.0147996
0.5844
0.0160762
0.622772
0.0189529
0.665693
0.0188873
0.0215833
0.258671
-0.255689
0.263967
0.27154
0.281592
0.293704
0.308504
0.32458
0.343533
0.36242
0.0697516
0.131624
-0.121097
-0.0802789
0.0599263
0.133713
-0.123888
0.0507855
0.135931
-0.12679
0.0419282
0.138787
-0.12993
0.0331215
0.141848
-0.133042
0.0243958
0.144331
-0.135606
0.0160177
0.144523
-0.136145
0.00834815
0.139559
-0.131889
0.00231141
0.121285
-0.115248
0.0653102
-0.0629988
0.0670226
0.141374
-0.0767724
0.0574035
0.143332
0.0480646
0.14527
0.0390774
0.147775
0.0303359
0.15059
0.0218718
0.152795
0.0139476
0.152447
0.00688185
0.146624
0.00165019
0.126516
0.0669604
0.0601733
0.150399
-0.0691986
0.0510549
0.15245
0.0420829
0.154242
0.0334383
0.156419
0.0251774
0.158851
0.0174065
0.160566
0.0103608
0.159493
0.00433133
0.152654
0.00037186
0.130476
0.0673323
0.0506058
0.158565
-0.0587723
0.0424022
0.160654
0.0342952
0.162349
0.0264446
0.16427
0.0189604
0.166335
0.0120739
0.167453
0.00611911
0.165447
0.00124855
0.157524
-0.000938306
0.132663
0.0663939
0.0372801
0.165963
-0.0446772
0.0300186
0.167916
0.0228966
0.169471
0.0160539
0.171112
0.00971922
0.17267
0.00422229
0.17295
-0.000157111
0.169827
-0.00298773
0.160355
-0.00285024
0.132525
0.0635437
0.0225958
0.172296
-0.028929
0.0164204
0.174091
0.0104206
0.17547
0.00477399
0.176759
-0.000293748
0.177737
-0.00417015
0.176826
-0.00677561
0.172432
-0.00759868
0.161178
-0.00481286
0.129739
0.0587308
0.00477968
0.177715
-0.0101986
-0.000246922
0.179118
-0.00499192
0.180215
-0.00939827
0.181165
-0.0127649
0.181104
-0.0144607
0.178522
-0.015005
0.172977
-0.0129532
0.159126
-0.00686084
0.123647
0.05187
-0.0149003
0.181578
0.0110373
-0.0183545
0.182572
-0.0214344
0.183295
-0.0237312
0.183462
-0.0246179
0.181991
-0.0247291
0.178633
-0.0233807
0.171628
-0.0181774
0.153923
-0.00853628
0.114006
0.0433337
-0.0382495
0.184459
0.0353679
-0.0407565
0.185079
-0.042323
0.184862
-0.0422116
0.183351
-0.0407809
0.18056
-0.0384688
0.176321
-0.0333197
0.166479
-0.0235791
0.144182
-0.00977364
0.1002
0.0335601
-0.0626251
0.0616856
-0.0624478
-0.0610477
-0.0588769
-0.0560649
-0.0509896
-0.0419371
-0.0274682
-0.00984833
0.100782
0.0316516
-0.111906
-0.0205272
0.0894406
0.0323412
-0.0209998
0.0778853
0.0331121
-0.0215568
0.0661053
0.0339713
-0.0221913
0.0540943
0.0348865
-0.0228755
0.0418661
0.0357096
-0.0234814
0.0295166
0.0359703
-0.0236209
0.0173883
0.0345287
-0.0224004
0.00650487
0.0291922
-0.0183087
0.0156647
-0.00915979
0.101196
0.0428695
-0.112414
0.0898073
0.0437302
0.0782113
0.0447081
0.0664033
0.0457793
0.0543778
0.046912
0.0421453
0.0479421
0.0297901
0.0483255
0.0176165
0.0467022
0.00660236
0.0402064
0.022267
0.101046
0.0540473
-0.112224
0.089669
0.0551072
0.0780846
0.0562925
0.0662884
0.0575754
0.0542784
0.058922
0.0420673
0.0601532
0.0297411
0.0606517
0.0175938
0.0588495
0.00657886
0.0512214
0.0288459
0.0997132
0.0651472
-0.110813
0.0884589
0.0663615
0.0769891
0.0677623
0.0652964
0.0692681
0.0533839
0.0708346
0.0412816
0.0722554
0.0290969
0.0728364
0.0171303
0.0708161
0.00632929
0.0620224
0.0351752
0.0976043
0.0759796
-0.108437
0.0866158
0.0773499
0.0754507
0.0789275
0.064074
0.0806448
0.0524528
0.0824558
0.0405908
0.0841174
0.0286015
0.0848258
0.0168068
0.0826108
0.00615985
0.0726694
0.041335
0.0935684
0.086702
-0.104291
0.0827989
0.0881194
0.0718751
0.0898513
0.0608035
0.0917163
0.0495729
0.0936864
0.0381821
0.0955082
0.0267325
0.0962754
0.0155406
0.0938027
0.00553926
0.0826707
0.0468743
0.0894421
0.096868
-0.099608
0.0792176
0.0983439
0.0688213
0.100248
0.0581922
0.102345
0.0473215
0.104557
0.0362672
0.106563
0.0252109
0.107332
0.0145117
0.104502
0.00510059
0.0920818
0.0519749
0.0825294
0.106646
-0.092307
0.0728097
0.108063
0.0630307
0.110027
0.0531455
0.112231
0.0430882
0.114614
0.0328631
0.116788
0.0226475
0.117547
0.0128171
0.114332
0.00431516
0.100584
0.05629
0.077262
0.114909
-0.0855252
0.0686935
0.116632
0.0595756
0.119144
0.0500455
0.121761
0.0402615
0.124399
0.0303759
0.126673
0.0206457
0.127278
0.0114471
0.123531
0.00368563
0.108345
0.0599757
0.0677971
-0.0739848
0.0605415
0.052896
0.0447266
0.0360836
0.0271511
0.0182841
0.00992591
0.00302313
0.201222
-0.00523666
0.00200421
0.207393
-0.0126041
0.00643376
0.212084
0.0447341
-0.0494254
0.211483
0.118719
-0.118118
0.207742
0.156506
-0.152765
0.201953
0.172731
-0.166942
0.193214
0.166961
-0.158222
0.181202
0.171555
-0.159543
0.158332
0.185563
-0.162693
0.211876
-0.165451
0.201212
-0.00845879
0.207061
-0.0184529
0.210856
0.0409389
0.20928
0.120295
0.2049
0.160886
0.198765
0.178867
0.190571
0.175154
0.179064
0.183062
0.157648
0.206979
0.257111
0.20108
-0.0115493
0.206558
-0.0239308
0.209357
0.0381405
0.20663
0.123022
0.201382
0.166134
0.194533
0.185715
0.186786
0.182902
0.175398
0.194449
0.155599
0.226778
0.300486
0.200815
-0.014375
0.205874
-0.0289889
0.207579
0.0364355
0.203499
0.127102
0.197169
0.172463
0.189378
0.193507
0.182003
0.190277
0.170301
0.20615
0.152328
0.244751
0.342001
0.200421
-0.0168063
0.205013
-0.0335808
0.205516
0.0359322
0.199864
0.132754
0.192287
0.18004
0.183463
0.20233
0.176365
0.197376
0.163895
0.21862
0.147939
0.260708
0.381503
0.199899
-0.0187159
0.20397
-0.0376509
0.203144
0.036758
0.195724
0.140174
0.186821
0.188943
0.176969
0.212182
0.169957
0.204388
0.156421
0.232155
0.142693
0.274437
0.419905
0.199239
-0.019965
0.20269
-0.0411017
0.200409
0.0390386
0.19111
0.149473
0.1809
0.199154
0.170057
0.223024
0.162824
0.211621
0.148147
0.246832
0.136465
0.286119
0.456762
0.1984
-0.0203756
0.201063
-0.0437646
0.197265
0.0428368
0.186104
0.160634
0.174663
0.210595
0.162875
0.234812
0.15509
0.219406
0.139459
0.262464
0.129924
0.295653
0.494379
0.197328
-0.0197138
0.198946
-0.0453829
0.193704
0.0480787
0.180842
0.173497
0.168262
0.223175
0.155559
0.247515
0.147001
0.227963
0.131109
0.278356
0.1227
0.304062
0.531554
0.196076
-0.0178002
0.196212
-0.0455186
0.189782
0.0545091
0.175421
0.187857
0.161916
0.236681
0.148257
0.261173
0.139034
0.237186
0.122182
0.295209
0.116362
0.309882
0.573931
0.303515
-0.0193045
0.309035
-0.0510392
0.318761
0.0447829
0.318087
0.188532
0.317769
0.236999
0.309381
0.269561
0.315828
0.230739
0.312929
0.298108
0.358564
0.264246
0.506588
0.425907
0.302219
-0.0195137
0.305827
-0.0546471
0.319427
0.031183
0.325733
0.182225
0.332753
0.22998
0.332458
0.269856
0.346245
0.216951
0.350892
0.293461
0.375675
0.239463
0.440341
0.441922
0.300931
-0.0184347
0.303035
-0.0567504
0.318431
0.0157869
0.338949
0.161707
0.353818
0.215111
0.369697
0.253977
0.390712
0.195936
0.403996
0.280178
0.420847
0.222612
0.379549
0.481639
0.300279
-0.0167035
0.301102
-0.0575733
0.315647
0.00124193
0.354219
0.123135
0.375794
0.193535
0.406887
0.222884
0.43641
0.166413
0.453617
0.262971
0.478061
0.198168
0.325557
0.532053
0.300885
-0.0155785
0.300243
-0.0569312
0.314343
-0.0128575
0.364288
0.0731899
0.393627
0.164196
0.433103
0.183408
0.467682
0.131834
0.491343
0.23931
0.522727
0.166783
0.273196
0.575088
0.303227
-0.0167951
0.302233
-0.0559375
0.317039
-0.0276633
0.366785
0.0234436
0.404242
0.126739
0.448822
0.138829
0.484438
0.096218
0.516162
0.207586
0.548493
0.134452
0.22093
0.600759
0.307046
-0.0218308
0.307388
-0.0562795
0.321635
-0.0419108
0.360254
-0.0151752
0.402408
0.0845854
0.449774
0.0914625
0.482646
0.0633468
0.523117
0.167115
0.555917
0.101652
0.166501
0.610345
0.309803
-0.0296232
0.309571
-0.0560475
0.320112
-0.0524521
0.338599
-0.0336621
0.380243
0.0429407
0.425836
0.04587
0.451164
0.0380188
0.503039
0.11524
0.539342
0.0653482
0.108024
0.59782
0.307969
-0.035582
0.299716
-0.0477942
0.293796
-0.0465326
0.286175
-0.0260406
0.318011
0.0111048
0.348325
0.0155561
0.36734
0.0190038
0.431345
0.0512346
0.468896
0.0277978
0.047527
0.529392
0.266428
0.218634
0.172101
0.146061
0.157165
0.172722
0.191725
0.24296
0.270758
0.318285
0.4392
-0.0935715
0.446426
-0.0839979
0.453448
-0.0762213
0.460621
-0.0659452
0.46847
-0.052526
0.475903
-0.0363621
0.483426
-0.0177218
0.490854
0.00360983
0.499036
0.0271852
0.0528792
0.449584
-0.101233
0.457334
-0.091748
0.463991
-0.0828787
0.469741
-0.0716947
0.475377
-0.0581624
0.480655
-0.0416401
0.486133
-0.0231997
0.492044
-0.00230127
0.499
0.0202295
0.0449922
0.484964
-0.104558
0.488878
-0.0956622
0.492042
-0.0860428
0.494014
-0.0736663
0.495652
-0.0598001
0.497374
-0.0433622
0.499794
-0.0256199
0.503097
-0.00560365
0.508079
0.0152472
0.0379743
0.529203
-0.101708
0.526093
-0.092553
0.522717
-0.0826662
0.519342
-0.0702919
0.516414
-0.0568719
0.514668
-0.0416159
0.514316
-0.0252678
0.516208
-0.00749597
0.519943
0.011512
0.0311689
0.564545
-0.0911652
0.554475
-0.0824824
0.545148
-0.0733399
0.537225
-0.0623688
0.530846
-0.0504927
0.526645
-0.0374145
0.524584
-0.0232069
0.5255
-0.00841227
0.528847
0.00816538
0.0243475
0.584957
-0.0753633
0.570192
-0.0677168
0.557069
-0.0602175
0.546099
-0.0513982
0.537448
-0.0418422
0.531448
-0.0314141
0.528162
-0.0199216
0.528071
-0.00832065
0.531101
0.00513503
0.0177041
0.590722
-0.0557402
0.573013
-0.0500072
0.557337
-0.0445419
0.54409
-0.0381512
0.533605
-0.031357
0.52602
-0.0238289
0.521641
-0.0155432
0.520534
-0.00721289
0.523043
0.00262584
0.0113916
0.575089
-0.0330089
0.555196
-0.0301143
0.537556
-0.0269022
0.522643
-0.0232381
0.510683
-0.0193969
0.501795
-0.0149412
0.496446
-0.0101942
0.494483
-0.00524983
0.496854
0.000254761
0.0057295
0.507951
-0.0115677
0.488449
-0.0106123
0.471336
-0.00978874
0.456878
-0.00878073
0.445173
-0.00769161
0.43648
-0.00624794
0.431015
-0.00472941
0.428721
-0.0029553
0.430066
-0.00109017
0.000868056
0.306717
0.296105
0.286316
0.277535
0.269844
0.263596
0.258866
0.255911
0.254821
0.00674085
0.052444
-0.0591848
0.0126858
0.11824
-0.124185
0.0149508
0.149488
-0.151753
0.015178
0.161544
-0.161771
0.0149814
0.165925
-0.165728
0.013565
0.16813
-0.166714
0.0111875
0.167496
-0.165118
0.00865025
0.164226
-0.161689
0.0064169
0.158077
-0.155844
0.146809
0.00493123
-0.145323
0.00832734
0.0441166
0.017879
0.108688
0.0238103
0.143557
0.0267621
0.158592
0.028486
0.164201
0.0296247
0.166992
0.0297015
0.167419
0.0290258
0.164902
0.0280289
0.159074
0.148105
0.0267332
0.00905371
0.0350629
0.0218534
0.0958885
0.0315106
0.1339
0.0375873
0.152516
0.0415093
0.160279
0.0447322
0.163769
0.0471647
0.164987
0.0485091
0.163557
0.0487992
0.158784
0.149183
0.0477206
0.0087788
0.0262841
0.0240341
0.0806332
0.0373528
0.120581
0.0467834
0.143085
0.0533323
0.15373
0.0585198
0.158581
0.062899
0.160607
0.0661761
0.16028
0.0679613
0.156999
0.149496
0.0676483
0.00771315
0.018571
0.0240551
0.0642913
0.040525
0.104111
0.053454
0.130156
0.062908
0.144276
0.0702605
0.151229
0.0764516
0.154416
0.0815582
0.155174
0.0851052
0.153452
0.148342
0.0862591
0.0062424
0.0123286
0.0220255
0.0485082
0.0404677
0.0856686
0.0565998
0.114024
0.0691269
0.131749
0.078836
0.14152
0.0867829
0.146469
0.0934374
0.148519
0.0985767
0.148313
0.145549
0.10137
0.00473267
0.00759589
0.0186165
0.0346243
0.0373672
0.0669179
0.0558136
0.0955778
0.0713374
0.116225
0.0837391
0.129118
0.0938211
0.136387
0.102295
0.140046
0.109327
0.14128
0.140329
0.114547
0.00336393
0.00423196
0.0145898
0.0233984
0.031906
0.0496018
0.0511353
0.0763485
0.0688799
0.0984806
0.0837846
0.114213
0.0959782
0.124194
0.1061
0.129924
0.114566
0.132814
0.133678
0.121216
0.0022192
0.00201276
0.0106537
0.0149639
0.0252407
0.0350148
0.0435541
0.0580351
0.0623603
0.0796743
0.0794483
0.0971252
0.0940519
0.10959
0.106374
0.117602
0.117019
0.122169
0.124061
0.126637
0.00131194
0.000700819
0.00723519
0.00904069
0.0184569
0.023793
0.0341955
0.0422965
0.0522346
0.0616352
0.0701987
0.0791611
0.0865044
0.0932845
0.100502
0.103604
0.112223
0.110448
0.114108
0.122176
0.000615616
8.5203e-05
0.00453727
0.00511903
0.012475
0.0158553
0.024631
0.0301405
0.0401234
0.0461428
0.0572667
0.0620177
0.0743868
0.0761645
0.0903541
0.0876363
0.104566
0.0962363
0.102399
0.116276
0.00023808
-0.000152877
0.00257634
0.00278077
0.00762157
0.0108101
0.0159362
0.0218258
0.0276323
0.0344468
0.0420139
0.0476361
0.0578805
0.0602979
0.074031
0.0714858
0.0894961
0.0807711
0.0883184
0.103576
0.000117334
-0.000270211
0.00106126
0.00183685
0.00341736
0.00845403
0.00791207
0.0173311
0.0151454
0.0272134
0.0252118
0.0375698
0.0375684
0.0479413
0.0513166
0.0577375
0.0655832
0.0665046
0.0738459
0.0800557
-3.02043e-05
-0.000240007
-0.000424957
0.0022316
-0.000540838
0.00856991
0.000546072
0.0162442
0.00355971
0.0241998
0.00893159
0.0321979
0.0167021
0.0401707
0.026462
0.0479776
0.0376708
0.0552959
0.0612927
0.050224
-0.000301248
6.12413e-05
-0.0020192
0.00394955
-0.00400585
0.0105566
-0.00531041
0.0175488
-0.00535897
0.0242483
-0.00370267
0.0305416
-1.28131e-06
0.0364694
0.00582004
0.0421563
0.0135588
0.0475571
0.0519409
0.0229106
-0.000847702
0.000908943
-0.00356842
0.00667026
-0.00667341
0.0136616
-0.00930917
0.0201846
-0.0110443
0.0259834
-0.0116077
0.0311051
-0.0106939
0.0355555
-0.00800136
0.0394638
-0.00350965
0.0430654
0.0461237
0.00230755
-0.00146064
0.00236958
-0.00479182
0.0100015
-0.00849576
0.0173655
-0.0117693
0.0234581
-0.0142489
0.0284631
-0.0158111
0.0326672
-0.016401
0.0361454
-0.015846
0.0389088
-0.0140234
0.0412428
0.043242
-0.0111417
-0.00173952
0.0041091
-0.00532105
0.013583
-0.00931267
0.0213571
-0.0129509
0.0270963
-0.0158834
0.0313956
-0.0179859
0.0347698
-0.0192977
0.0374571
-0.0199416
0.0395528
-0.019961
0.0412622
0.0426795
-0.0193985
-0.00156298
0.00567208
-0.00484165
0.0168617
-0.00864098
0.0251564
-0.0122815
0.0307368
-0.0154334
0.0345475
-0.0179585
0.0372949
-0.0198604
0.039359
-0.0212511
0.0409435
-0.0222058
0.0422168
0.0432951
-0.0228214
-0.00105075
-0.00357056
-0.00674588
-0.0100162
-0.0131032
-0.0158911
-0.0183564
-0.0205272
-0.0224155
-0.0240256
0.103878
0.443955
-0.431557
0.0736247
0.285853
-0.2556
0.0450209
0.181877
-0.153273
0.0342591
0.0896504
-0.0788886
0.0372368
0.0158227
-0.0188004
0.048583
-0.0395049
0.0281587
0.0645878
-0.0717276
0.0557228
0.0807121
-0.0782737
0.0621494
0.0961863
-0.0736265
0.0581522
-0.0454954
0.0354924
0.0933366
0.454195
0.0634835
0.315706
0.0397062
0.205654
0.0338149
0.0955417
0.0398729
0.00976473
0.0529794
-0.0526114
0.0695634
-0.0883116
0.0856934
-0.0944038
0.100775
-0.0887083
-0.0548343
0.0756657
0.458585
0.0498566
0.341515
0.0325614
0.22295
0.03159
0.0965132
0.0410589
0.000295832
0.0564533
-0.0680058
0.0738899
-0.105748
0.0901369
-0.110651
0.104856
-0.103428
-0.0636042
0.0541668
0.454642
0.0343065
0.361375
0.0242911
0.232965
0.0280172
0.092787
0.0410875
-0.0127744
0.0590378
-0.0859561
0.0777286
-0.124439
0.0943086
-0.127231
0.108807
-0.117926
-0.0719142
0.0328734
0.444679
0.0186557
0.375593
0.0159876
0.235633
0.0237162
0.0850584
0.04023
-0.0292882
0.060783
-0.106509
0.0810947
-0.144751
0.0982891
-0.144425
0.112783
-0.13242
-0.0798815
0.0132665
0.43372
0.0044253
0.384434
0.00805416
0.232004
0.0185364
0.0745761
0.0381842
-0.0489359
0.0614658
-0.129791
0.0838043
-0.167089
0.101974
-0.162595
0.116767
-0.147213
-0.0876577
-0.00365125
0.42623
-0.0067996
0.387582
-0.000302609
0.225507
0.0118
0.0624736
0.0343702
-0.0715061
0.0607258
-0.156146
0.0856088
-0.191972
0.10519
-0.182176
0.120649
-0.162673
-0.0954369
-0.015774
0.422605
-0.0156773
0.387486
-0.00938708
0.219217
0.00294343
0.050143
0.0284166
-0.0969792
0.0583905
-0.18612
0.0863982
-0.21998
0.107835
-0.203613
0.124338
-0.179176
-0.10344
-0.0234387
0.423223
-0.0232134
0.38726
-0.020471
0.216475
-0.00814668
0.0378187
0.0207916
-0.125918
0.0548824
-0.220211
0.086429
-0.251526
0.110021
-0.227205
0.127852
-0.197007
-0.111876
-0.0270424
-0.0299329
-0.032491
-0.019646
0.0134368
0.0516184
0.0865532
0.112196
0.131393
0.00530755
0.02757
-0.0328775
0.000398319
0.00490923
0.00014726
0.000251059
-0.00110607
0.00125333
-0.0023398
0.00123374
-0.00229511
-4.46972e-05
-0.000688233
-0.00160687
0.00295545
-0.00364368
0.00765157
-0.00469612
-0.00302623
0.060411
0.110105
-0.142946
0.0290196
0.0363006
0.0147442
0.0145265
0.00476192
0.0112356
0.00203118
0.00396447
0.00799923
-0.00601275
0.0189637
-0.0125713
0.0308313
-0.0155113
0.0409985
-0.0148632
-0.00918748
0.131071
0.226645
-0.247612
0.0714696
0.0959024
0.0404017
0.0455944
0.0246167
0.0270205
0.0212968
0.00728435
0.0288602
-0.0135761
0.0420385
-0.0257496
0.0563729
-0.0298458
0.0692205
-0.0277108
-0.0171219
0.184885
0.34425
-0.30249
0.107686
0.173101
0.0612838
0.091997
0.0390488
0.0492555
0.0338341
0.012499
0.0409339
-0.0206758
0.0553417
-0.0401574
0.0710092
-0.0455133
0.0856898
-0.0423914
-0.0261116
0.218853
-0.30616
0.136354
0.0750779
0.0454448
0.0391434
0.0466263
0.0621917
0.0788278
0.0945886
0.0120073
0.000231237
-0.0122386
0.0131053
-0.00109803
0.0152506
-0.0021453
0.0180472
-0.00279659
0.0214212
-0.00337401
0.0244731
-0.00305184
0.0280481
-0.00357499
0.0301506
-0.00210252
0.033065
-0.00291443
0.000187485
0.0317103
0.000202131
-0.0316812
0.0351683
-0.00455604
0.0417065
-0.00868349
0.0509195
-0.0120095
0.0628483
-0.0153029
0.076106
-0.0163095
0.092153
-0.019622
0.107573
-0.0175225
0.126069
-0.0214107
-0.0166889
0.0473239
-0.000563723
-0.046558
0.0530236
-0.0102558
0.0634286
-0.0190886
0.0784078
-0.0269886
0.097959
-0.0348541
0.121167
-0.0395173
0.148964
-0.0474195
0.178565
-0.0471234
0.213124
-0.0559697
-0.0511764
0.0591001
-0.00227395
-0.0573898
0.0666342
-0.0177899
0.079957
-0.0324114
0.0990962
-0.0461278
0.123598
-0.0593557
0.153542
-0.0694615
0.18706
-0.0809372
0.224733
-0.0847964
0.26439
-0.0956274
-0.0892764
0.0676356
-0.0649783
0.0765789
0.0918882
0.113409
0.140312
0.172221
0.205831
0.242251
0.27326
0.0718387
-0.0686297
0.0751064
-0.0783154
0.064518
-0.0697893
0.07711
0.0568068
-0.0713142
0.0790254
0.0486399
-0.0728738
0.0810407
0.0399894
-0.074363
0.0830135
0.0309328
-0.0755368
0.0845934
0.0216883
-0.0756875
0.084932
0.0126162
-0.0732111
0.0822832
0.00452656
-0.0641708
0.0722605
-0.036723
0.0412495
0.0776225
-0.0605944
-0.0856578
0.0692932
-0.06146
0.0605019
-0.062523
0.0512891
-0.0636609
0.0417594
-0.0648332
0.0320506
-0.065828
0.022357
-0.065994
0.0129815
-0.0638356
0.00467947
-0.0558688
-0.0320435
0.0793353
-0.0515667
-0.088363
0.0702067
-0.0523314
0.060934
-0.0532503
0.0515218
-0.0542488
0.0419653
-0.0552767
0.03228
-0.0561427
0.0225724
-0.0562863
0.0131275
-0.0543907
0.00474058
-0.0474819
-0.0273029
0.0831365
-0.0422492
-0.0924539
0.0737156
-0.0429105
0.0641363
-0.043671
0.0543598
-0.0444723
0.0443608
-0.0452777
0.0341677
-0.0459497
0.0239252
-0.0460438
0.0139666
-0.0444321
0.00511851
-0.0386338
-0.0221844
0.0861091
-0.032539
-0.0958194
0.0762548
-0.0330562
0.0662171
-0.0336333
0.0559815
-0.0342366
0.0455516
-0.0348479
0.0349806
-0.0353786
0.0244263
-0.0354894
0.0142357
-0.0342415
0.00523956
-0.0296377
-0.0169449
0.0891116
-0.0225058
-0.0991448
0.0789074
-0.022852
0.0685063
-0.0232322
0.057896
-0.0236263
0.0470803
-0.0240322
0.0361127
-0.0244111
0.0251698
-0.0245465
0.0146574
-0.0237291
0.00544386
-0.0204242
-0.011501
0.0919713
-0.0121407
-0.102336
0.0814139
-0.0122946
0.0706368
-0.0124551
0.0596222
-0.0126117
0.0483666
-0.0127766
0.0369226
-0.0129671
0.0255018
-0.0131256
0.0146419
-0.0128693
0.00538132
-0.0111636
-0.00611969
0.0946381
-0.00145467
-0.105324
0.0837472
-0.00140375
0.0726106
-0.00131845
0.0611983
-0.00119936
0.0494879
-0.00106624
0.0375066
-0.000985781
0.0254664
-0.00108545
0.014058
-0.00146078
0.0047489
-0.00185453
-0.00137079
0.0971258
0.00946078
-0.108041
0.0859908
0.0097312
0.0746088
0.0100636
0.0629495
0.0104599
0.0509864
0.0108968
0.0387274
0.0112733
0.0263326
0.0113093
0.0144328
0.0104391
0.00465697
0.00792127
0.00328618
0.0992139
-0.11028
0.0879453
0.0764521
0.0647207
0.052742
0.040534
0.0282224
0.0162611
0.00587361
0.0149174
-0.143176
-0.0170652
0.0112472
-0.152174
0.00702735