/*--------------------------------*- C++ -*----------------------------------*\
| =========                 |                                                 |
| \\      /  F ield         | OpenFOAM: The Open Source CFD Toolbox           |
|  \\    /   O peration     | Version:  2406                                  |
|   \\  /    A nd           | Website:  www.openfoam.com                      |
|    \\/     M anipulation  |                                                 |
\*---------------------------------------------------------------------------*/
FoamFile
{
    version     2.0;
    format      ascii;
    arch        "LSB;label=32;scalar=64";
    class       volVectorField;
    location    "1.65";
    object      U;
}
// * * * * * * * * * * * * * * * * * * * * * * * * * * * * * * * * * * * * * //

dimensions      [0 1 -1 0 0 0 0];

internalField   nonuniform List<vector> 
1800
(
(-0.00760555 0.000168825 0)
(-0.017381 -0.00615919 9.62266e-21)
(-0.0242209 -0.0164181 -2.7442e-20)
(-0.0225151 -0.020896 9.9831e-20)
(-0.0180093 -0.0263591 1.31632e-19)
(0.00754628 -0.028416 3.04841e-20)
(0.0604376 -0.0264219 -2.23464e-20)
(0.138429 -0.0208587 -1.59566e-19)
(0.24071 -0.00532238 0)
(0.326824 0.00526909 3.54728e-20)
(-0.0218616 0.0110345 1.4277e-20)
(-0.0284375 0.0113985 3.08401e-20)
(-0.02512 0.00405086 4.0208e-20)
(-0.0125043 -0.00463575 5.99606e-20)
(0.0257031 -0.0181497 2.18963e-21)
(0.110014 -0.0329933 -1.18905e-19)
(0.232651 -0.0463184 4.66877e-20)
(0.385419 -0.0544473 2.40982e-19)
(0.572325 -0.0403496 1.9257e-20)
(0.689119 -0.0453095 -6.25738e-21)
(-0.0255791 0.0162797 1.45896e-20)
(-0.0250518 0.0164273 -5.56622e-20)
(-0.0156488 0.0108714 -5.38837e-20)
(0.0370904 0.000857907 1.81844e-20)
(0.14902 -0.0169575 -1.8684e-20)
(0.316726 -0.033826 3.21598e-20)
(0.523507 -0.0454804 -3.65518e-20)
(0.750741 -0.0507129 -2.57874e-19)
(1.00135 -0.0370957 1.1201e-19)
(1.16509 -0.0354064 1.46751e-19)
(-0.019732 0.0153856 2.11145e-20)
(-0.0176274 0.0210396 8.31099e-20)
(0.0312316 0.00837799 -5.4806e-20)
(0.162545 -0.00834796 -2.22681e-22)
(0.370238 -0.0250254 1.03838e-19)
(0.630901 -0.035112 -3.04705e-20)
(0.91402 -0.0353167 -1.08601e-19)
(1.19148 -0.0259431 -9.00571e-20)
(1.45206 -0.00736814 -1.27432e-20)
(1.64529 0.010424 9.73376e-20)
(-0.00928695 0.00658241 5.64297e-21)
(0.0102568 0.00255586 5.44429e-20)
(0.13812 -0.00819746 2.51988e-20)
(0.375626 -0.0220733 -7.43194e-20)
(0.689534 -0.0268498 -3.61693e-20)
(1.02917 -0.0188583 5.82002e-20)
(1.3495 -0.000510941 5.33865e-20)
(1.62398 0.0236877 1.09941e-19)
(1.84264 0.0502355 -2.49442e-19)
(2.00015 0.0709107 -2.15927e-19)
(-0.00203814 0.00274564 3.89511e-22)
(0.0822619 -0.0135779 1.3484e-19)
(0.325485 -0.0219828 9.95463e-20)
(0.685925 -0.0194568 -1.25696e-19)
(1.08479 -0.0010506 1.25003e-19)
(1.44913 0.0279649 -9.88601e-21)
(1.7406 0.0597043 1.40018e-19)
(1.95212 0.0884337 2.35145e-19)
(2.09531 0.1109 -3.31889e-19)
(2.18461 0.126389 -2.57887e-19)
(0.0174413 -0.00105855 -4.12232e-20)
(0.214707 -0.0255184 -2.66546e-19)
(0.597805 -0.0173007 2.96097e-20)
(1.05974 0.0135769 3.46957e-19)
(1.4792 0.0554442 -2.02664e-20)
(1.79607 0.0958485 -2.61181e-19)
(2.00728 0.128015 -1.7694e-19)
(2.13742 0.150451 5.07263e-19)
(2.21543 0.164056 5.81133e-19)
(2.26419 0.171596 5.48128e-20)
(0.0648511 -0.00383034 4.4984e-20)
(0.411415 -0.0237036 2.89383e-20)
(0.928072 0.0175129 -1.53306e-19)
(1.42506 0.0767834 8.14074e-20)
(1.79133 0.129359 -4.60354e-21)
(2.02089 0.166897 -8.3373e-19)
(2.15327 0.190575 -3.00266e-21)
(2.23008 0.204093 5.90445e-19)
(2.27799 0.210845 -3.67726e-19)
(2.3094 0.217401 -3.69884e-19)
(0.139614 -0.00260274 1.7896e-19)
(0.658323 0.00300729 1.62738e-19)
(1.25643 0.0842176 -3.91309e-19)
(1.71438 0.158876 -9.42084e-20)
(1.99426 0.208227 4.96778e-21)
(2.14687 0.235843 3.14899e-19)
(2.22927 0.250535 -5.81169e-19)
(2.27679 0.257955 -3.00879e-19)
(2.30421 0.26167 6.48355e-19)
(2.3227 0.260225 1.36021e-19)
(0.239999 0.00923086 4.05987e-21)
(0.919807 0.0630869 4.31968e-19)
(1.5272 0.175161 -3.67647e-19)
(1.91043 0.25089 -1.72824e-19)
(2.11268 0.291346 1.86912e-19)
(2.21185 0.308541 -1.9482e-19)
(2.26188 0.317786 3.74115e-19)
(2.29147 0.320556 2.38343e-20)
(2.314 0.320597 -2.56983e-19)
(2.3288 0.317873 -7.98618e-20)
(-0.00421511 0.0881483 1.27087e-20)
(-0.0145273 0.25419 -2.38829e-20)
(-0.0307815 0.370163 -2.67499e-20)
(-0.047138 0.442011 4.02525e-20)
(-0.0622638 0.486674 -3.03964e-21)
(-0.0759072 0.515973 -1.00235e-20)
(-0.0880034 0.536222 -6.67231e-21)
(-0.0985322 0.550762 1.47506e-20)
(-0.107503 0.561497 -5.6628e-23)
(-0.114733 0.569367 -8.44895e-22)
(-0.00839148 0.0876593 -1.16378e-20)
(-0.0269018 0.263554 -7.56476e-24)
(-0.0445134 0.389342 3.26894e-21)
(-0.060647 0.466259 5.05844e-20)
(-0.0748425 0.512426 3.8438e-20)
(-0.0873054 0.541426 2.08228e-20)
(-0.0982198 0.560442 -3.29085e-20)
(-0.107632 0.573114 0)
(-0.115689 0.581507 4.29715e-21)
(-0.122411 0.586934 -1.57384e-20)
(-0.0105175 0.0762103 7.59255e-23)
(-0.0362505 0.252428 6.63066e-20)
(-0.0540561 0.389251 7.13068e-20)
(-0.068479 0.475297 -4.39452e-20)
(-0.0799349 0.526343 1.92189e-20)
(-0.0889716 0.557305 1.70613e-20)
(-0.0961037 0.576723 2.78001e-20)
(-0.101603 0.588939 1.66625e-20)
(-0.105669 0.596333 6.44167e-20)
(-0.10845 0.600589 9.09393e-20)
(-0.00904616 0.0547851 1.6316e-22)
(-0.0388793 0.217506 8.1556e-20)
(-0.0556022 0.363858 -2.14858e-20)
(-0.0669301 0.462863 -7.2944e-20)
(-0.0738699 0.522963 6.89845e-21)
(-0.0775022 0.558866 -3.25472e-20)
(-0.0788083 0.58066 1.1357e-20)
(-0.0783362 0.593941 0)
(-0.0763688 0.601732 -9.11498e-20)
(-0.0726927 0.60595 -4.64493e-20)
(-0.00403824 0.0272398 4.4065e-20)
(-0.0330407 0.159146 -1.73126e-20)
(-0.0479944 0.307743 -7.58151e-20)
(-0.0562004 0.421074 2.57079e-20)
(-0.0581779 0.495009 -1.28435e-20)
(-0.0555134 0.540626 -4.39728e-20)
(-0.0498195 0.568368 3.74236e-20)
(-0.0419584 0.584968 1.019e-20)
(-0.0321255 0.594252 -7.93726e-20)
(-0.0192772 0.598344 -9.60557e-20)
(0.00113564 0.00265451 2.42406e-20)
(-0.0191911 0.0854486 -2.60943e-20)
(-0.0322992 0.220827 6.21457e-20)
(-0.0388853 0.343006 -1.51389e-20)
(-0.0371866 0.432664 -1.03236e-19)
(-0.0285928 0.492729 3.05861e-20)
(-0.0153331 0.531037 -2.67694e-20)
(0.00113762 0.554315 6.79843e-20)
(0.0205101 0.566956 -2.37875e-20)
(0.0447202 0.570914 -1.07846e-19)
(0.00478944 -0.00556709 -2.07209e-20)
(-0.000790806 0.022238 3.72584e-20)
(-0.0106588 0.119054 5.95472e-21)
(-0.0178732 0.232174 -1.99502e-19)
(-0.0160192 0.329408 2.73e-20)
(-0.00484681 0.402625 1.50181e-19)
(0.0136536 0.453859 2.70252e-20)
(0.0376711 0.487455 1.00141e-19)
(0.0665841 0.506876 -4.97999e-20)
(0.102524 0.511472 -6.08928e-20)
(0.015083 -0.0180561 -6.2607e-22)
(0.0236294 -0.0142245 -3.18732e-20)
(0.00862369 0.03135 -9.07349e-20)
(-6.94751e-05 0.11403 9.96518e-20)
(-0.000879818 0.199913 1.80236e-19)
(0.00786479 0.273312 -6.70985e-20)
(0.0262882 0.330217 3.00023e-20)
(0.0533782 0.371233 -4.15225e-20)
(0.0889551 0.397485 -2.07016e-19)
(0.133914 0.401325 2.22516e-20)
(0.0148174 -0.0225974 6.3237e-22)
(0.013763 -0.021564 -8.72509e-21)
(0.00667907 -0.0157889 1.47342e-20)
(0.00905968 0.0140873 -7.07471e-21)
(-0.000306862 0.0690186 -4.96706e-22)
(0.00188913 0.127637 -2.06065e-19)
(0.01636 0.177197 -7.2898e-20)
(0.0434136 0.215295 -1.30313e-19)
(0.084207 0.240617 2.60782e-21)
(0.13814 0.239762 3.1503e-19)
(0.00579001 -0.0149798 -1.32108e-21)
(0.00552633 -0.0247438 1.61028e-21)
(-0.00618899 -0.0244109 8.36611e-20)
(-0.0129011 -0.0166981 1.201e-19)
(-0.0215421 -0.00685618 -6.31439e-20)
(-0.0143591 0.0179334 -2.81657e-19)
(0.00373199 0.0434281 -5.13206e-20)
(0.039235 0.0658535 2.5573e-19)
(0.0937685 0.0820479 2.96513e-19)
(0.164117 0.0829743 2.76929e-19)
(-0.142061 0.59378 -3.35912e-20)
(-0.154137 0.544924 -5.22696e-19)
(-0.20507 0.308212 -6.93519e-19)
(-0.202223 0.0257436 1.06963e-18)
(-0.0444103 -0.246057 -5.30369e-19)
(0.156389 -0.387534 2.15447e-20)
(0.354909 -0.424113 5.38282e-21)
(0.514983 -0.370601 5.07295e-20)
(0.626335 -0.31509 -4.16551e-20)
(0.728581 -0.17553 -3.86619e-20)
(-0.14826 0.601894 -6.27176e-20)
(-0.1808 0.560193 -6.21728e-21)
(-0.243235 0.318534 1.54706e-20)
(-0.206108 0.00326946 -5.58225e-19)
(-0.0189522 -0.299652 -1.42461e-19)
(0.19992 -0.446481 2.99831e-19)
(0.400369 -0.476719 -8.9611e-21)
(0.552411 -0.40882 7.01874e-21)
(0.657661 -0.344523 -7.14666e-20)
(0.756287 -0.190947 7.20706e-20)
(-0.122836 0.61156 -2.01443e-19)
(-0.169836 0.581248 5.57994e-19)
(-0.229058 0.32896 1.50561e-19)
(-0.156732 -0.0227179 -9.3767e-19)
(0.0607603 -0.355683 4.67939e-19)
(0.295329 -0.506218 3.20371e-21)
(0.490676 -0.526923 2.07471e-20)
(0.619966 -0.443556 -3.67182e-20)
(0.708119 -0.371516 9.66806e-21)
(0.793093 -0.205713 7.53266e-22)
(-0.0646108 0.619242 -1.00716e-19)
(-0.109686 0.603528 -6.1596e-21)
(-0.157576 0.339437 1.65778e-19)
(-0.0520053 -0.0525058 5.96383e-19)
(0.191507 -0.413058 -1.13704e-19)
(0.439239 -0.566466 -5.09714e-20)
(0.631893 -0.572839 2.50305e-20)
(0.729202 -0.471574 0)
(0.789064 -0.392756 0)
(0.845076 -0.218273 -2.01611e-22)
(0.0240298 0.616282 1.51011e-19)
(-0.0112461 0.626829 -1.26843e-19)
(-0.0406919 0.351376 2.28403e-21)
(0.105643 -0.0816393 -4.12938e-19)
(0.359725 -0.47018 -1.91462e-19)
(0.60993 -0.628244 -3.81161e-19)
(0.80843 -0.615862 1.6887e-20)
(0.880476 -0.491699 -4.31459e-21)
(0.909503 -0.404876 -5.41257e-20)
(0.919511 -0.226514 -2.12373e-21)
(0.135629 0.597156 1.77406e-19)
(0.121728 0.646341 -2.48502e-20)
(0.130298 0.359065 -6.49978e-19)
(0.303184 -0.105732 4.92052e-21)
(0.567264 -0.523967 6.06319e-19)
(0.798357 -0.690317 -1.49812e-19)
(0.993758 -0.65932 -7.47439e-20)
(1.05549 -0.507097 -4.11115e-20)
(1.06687 -0.406787 1.34283e-21)
(1.02178 -0.228506 -2.36295e-20)
(0.256299 0.558284 -8.14812e-20)
(0.289757 0.657788 -4.2383e-20)
(0.33748 0.367495 1.27292e-19)
(0.539351 -0.124335 -3.48372e-20)
(0.827671 -0.570083 -6.36611e-20)
(1.02528 -0.745422 3.07011e-19)
(1.18305 -0.70116 -4.46078e-20)
(1.23068 -0.522114 -8.7421e-21)
(1.24282 -0.401281 1.75173e-20)
(1.15014 -0.22391 2.03475e-21)
(0.362683 0.484715 -2.21433e-19)
(0.478122 0.652841 -1.17088e-18)
(0.560932 0.37813 1.4944e-19)
(0.804482 -0.139333 9.58513e-21)
(1.12404 -0.607238 -3.70882e-19)
(1.2975 -0.7869 -4.11009e-19)
(1.39279 -0.73352 1.75833e-19)
(1.39943 -0.536035 -5.89965e-20)
(1.41416 -0.392384 3.28936e-21)
(1.2931 -0.214416 -2.77672e-21)
(0.428162 0.374039 -6.67049e-19)
(0.690474 0.638642 -5.23375e-19)
(0.792105 0.385043 2.7596e-19)
(1.07539 -0.149597 2.47137e-19)
(1.41485 -0.635503 -3.37239e-19)
(1.5781 -0.815405 -1.37268e-19)
(1.62276 -0.751738 -2.50337e-19)
(1.56946 -0.544004 2.38874e-20)
(1.56857 -0.381605 2.63069e-20)
(1.43444 -0.202292 1.52383e-20)
(0.447169 0.189094 -1.63306e-19)
(0.827999 0.573616 1.49939e-18)
(0.97697 0.404839 4.74764e-19)
(1.33277 -0.141833 4.15815e-20)
(1.68456 -0.655257 -2.48838e-19)
(1.83142 -0.835156 1.08786e-19)
(1.84686 -0.757666 -4.46618e-19)
(1.74174 -0.542498 -4.08396e-20)
(1.7061 -0.367827 -9.62874e-21)
(1.56154 -0.188928 -2.68522e-20)
(0.65901 0.0363718 1.87994e-19)
(1.09132 0.474334 2.39148e-19)
(1.28314 0.361537 -4.24831e-20)
(1.7206 -0.192354 1.53281e-19)
(2.05379 -0.692733 -3.45295e-20)
(2.14195 -0.855478 -7.90513e-20)
(2.1083 -0.753934 -5.23433e-20)
(1.95151 -0.525945 5.22987e-20)
(1.86176 -0.341329 -1.46629e-19)
(1.69728 -0.169992 1.81446e-20)
(1.3228 0.0882718 -1.24614e-20)
(1.45272 0.355683 -2.00225e-19)
(1.80184 0.200087 -4.74987e-19)
(2.32038 -0.355692 1.1506e-19)
(2.55331 -0.782826 -5.5241e-19)
(2.49248 -0.866528 -1.71528e-19)
(2.34542 -0.704712 7.52175e-20)
(2.13407 -0.456404 -3.84115e-20)
(1.9955 -0.274693 1.77668e-19)
(1.80464 -0.13336 3.38072e-20)
(1.9472 0.145712 2.18018e-20)
(1.96533 0.28673 5.96985e-20)
(2.37863 0.0519168 -7.54189e-20)
(2.7735 -0.448205 -1.0181e-37)
(2.87387 -0.775091 -6.13807e-20)
(2.72335 -0.7987 3.71788e-34)
(2.48298 -0.621069 7.28754e-20)
(2.21902 -0.384561 2.08847e-33)
(2.05685 -0.210739 -5.83777e-21)
(1.8539 -0.0965615 8.10791e-21)
(2.30294 0.144418 6.11561e-20)
(2.42941 0.208956 1.65164e-19)
(2.8004 -0.0615949 4.98614e-19)
(3.05955 -0.512619 0)
(3.09411 -0.776483 3.39423e-19)
(2.90573 -0.740441 2.41989e-20)
(2.60613 -0.522857 -1.84565e-19)
(2.27125 -0.291195 4.63716e-33)
(2.06393 -0.134529 -1.16988e-19)
(1.85022 -0.0574449 -1.19861e-20)
(2.53056 0.0980324 7.4952e-20)
(2.71896 0.107867 -1.91435e-20)
(3.02218 -0.15074 0)
(3.21649 -0.54408 0)
(3.19767 -0.734211 0)
(2.91972 -0.635995 0)
(2.56951 -0.396677 1.50185e-20)
(2.22224 -0.182253 4.94152e-33)
(2.00973 -0.0508332 -8.2619e-21)
(1.80544 -0.0159754 -1.86714e-33)
(2.6878 0.0349351 2.30082e-20)
(2.8518 0.0182546 0)
(3.11205 -0.222697 0)
(3.28663 -0.567664 0)
(3.16113 -0.676948 0)
(2.78194 -0.513035 0)
(2.36875 -0.26454 -2.67052e-20)
(2.02325 -0.0796164 1.7582e-19)
(1.84564 0.0204908 -9.70516e-21)
(1.69545 0.0191966 4.4931e-21)
(2.75059 -0.0176182 0)
(2.87168 -0.0546422 1.57244e-19)
(3.13843 -0.28629 2.78073e-19)
(3.19333 -0.557341 0)
(2.8438 -0.564946 1.00321e-19)
(2.36 -0.350361 -5.92596e-20)
(1.96237 -0.120595 -1.29319e-19)
(1.68389 0.0143814 -8.19687e-20)
(1.57482 0.0717488 7.35981e-20)
(1.50541 0.0406864 -3.07729e-20)
(2.68417 -0.0596909 3.8475e-20)
(2.79896 -0.125808 -1.98945e-20)
(2.97751 -0.315716 2.38808e-20)
(2.71135 -0.455814 -6.27139e-35)
(2.097 -0.371619 -6.94791e-21)
(1.56032 -0.166307 -1.48089e-34)
(1.27548 -0.00591077 -2.55049e-20)
(1.16006 0.0665332 -8.26968e-20)
(1.16851 0.0862065 -1.08734e-20)
(1.19562 0.0431128 2.33319e-20)
(2.3324 -0.0780355 0)
(2.37943 -0.179488 -8.35505e-20)
(2.22366 -0.255403 -6.50474e-20)
(1.55807 -0.195854 0)
(0.890221 -0.0999521 -5.01632e-20)
(0.567511 -0.0262242 -2.80863e-20)
(0.501824 0.0238625 -4.36594e-20)
(0.552336 0.0494604 3.36367e-22)
(0.652871 0.0539359 -2.13716e-20)
(0.741509 0.0256625 -2.15346e-20)
(1.20135 -0.0717194 1.19714e-20)
(0.910745 -0.0746981 0)
(0.516478 -0.012764 0)
(0.239953 0.00527925 0)
(0.0578454 -0.00763819 0)
(-0.0307737 -0.0106018 0)
(-0.0422996 -0.00157783 -2.38918e-20)
(0.0154468 0.00901216 1.13605e-34)
(0.104744 0.0129789 -1.16732e-20)
(0.182295 0.00614041 -2.40222e-20)
(2.32865 0.303651 3.60595e-19)
(2.34997 0.257802 1.42484e-19)
(2.34408 0.21852 2.99529e-19)
(2.33479 0.178811 -3.19571e-19)
(2.29287 0.143134 8.60826e-20)
(2.23386 0.122668 4.95978e-20)
(2.07749 0.0651415 2.93212e-20)
(1.81362 0.0501015 2.39245e-20)
(1.45578 -0.0319859 5.61692e-20)
(0.794909 -0.0623071 -4.16293e-20)
(2.32367 0.264833 -1.74856e-19)
(2.35347 0.235887 3.7917e-20)
(2.37189 0.214421 1.17273e-19)
(2.37434 0.189296 1.0951e-19)
(2.37207 0.153092 -1.92984e-19)
(2.32492 0.139706 1.15839e-19)
(2.3174 0.102363 1.8499e-20)
(2.13426 0.0770672 -4.90274e-21)
(2.09989 0.0686603 5.25251e-21)
(1.65914 0.00418867 3.60455e-20)
(2.36055 0.234682 2.40694e-20)
(2.3796 0.211323 -1.12874e-19)
(2.40801 0.18811 -1.49012e-19)
(2.40332 0.174656 3.3024e-19)
(2.43139 0.155419 -1.96969e-20)
(2.37883 0.133099 3.69471e-20)
(2.4211 0.129509 -7.38726e-20)
(2.29281 0.0894172 -5.82869e-20)
(2.33537 0.114693 -2.74367e-20)
(2.11609 0.0618646 -1.29143e-20)
(2.41487 0.205952 4.20216e-20)
(2.4304 0.183115 -1.38978e-19)
(2.46521 0.168178 2.9838e-20)
(2.45797 0.147087 -1.0547e-19)
(2.49496 0.144106 1.50409e-19)
(2.45706 0.116121 -5.57679e-20)
(2.49581 0.126632 1.91752e-20)
(2.42489 0.0927314 -2.11925e-20)
(2.45204 0.113631 -1.96034e-20)
(2.35308 0.0875211 1.00811e-21)
(2.4559 0.1741 7.96491e-20)
(2.47784 0.151033 -2.13787e-19)
(2.51452 0.144156 -1.75837e-20)
(2.52053 0.119874 -1.52761e-20)
(2.55445 0.121479 -5.81667e-21)
(2.54365 0.0959825 -1.18677e-21)
(2.5724 0.102253 2.95319e-20)
(2.54351 0.0811269 -2.55285e-20)
(2.56282 0.0874067 -3.88982e-20)
(2.51643 0.0789431 -4.89192e-20)
(2.46531 0.137865 1.4309e-19)
(2.49372 0.117736 2.41691e-20)
(2.53185 0.113388 -1.45992e-19)
(2.55203 0.0931842 8.5979e-20)
(2.58557 0.0917149 6.62185e-20)
(2.59716 0.0736939 -4.74021e-20)
(2.62532 0.0712838 6.6657e-20)
(2.62557 0.05897 2.44936e-20)
(2.64936 0.0539628 -7.86077e-20)
(2.63682 0.0511633 -9.59253e-20)
(2.42636 0.0991014 1.77023e-20)
(2.45897 0.0829057 4.37004e-20)
(2.49809 0.0789772 -5.68708e-20)
(2.52842 0.0636026 -3.23806e-20)
(2.56499 0.0595695 6.53419e-20)
(2.59223 0.0464427 2.9463e-20)
(2.62507 0.0398148 5.98641e-20)
(2.64845 0.0301085 4.67612e-20)
(2.67594 0.0203596 8.55118e-21)
(2.69636 0.015852 3.65777e-20)
(2.30115 0.0636928 2.16049e-20)
(2.34109 0.0510973 1.36552e-22)
(2.37443 0.0479134 -6.70559e-20)
(2.41909 0.0361785 -5.69839e-20)
(2.44973 0.0318481 3.16366e-20)
(2.49934 0.0212938 -2.70957e-20)
(2.52518 0.0132439 -2.33838e-20)
(2.58048 0.00377002 7.26829e-20)
(2.59844 -0.00849035 -6.06081e-20)
(2.66089 -0.017305 -7.09745e-20)
(1.98471 0.0186252 5.47493e-20)
(2.03526 0.0135945 -2.76265e-20)
(2.05055 0.00989094 -2.58454e-20)
(2.11233 0.0050433 2.79792e-20)
(2.12123 0.000685391 -1.63114e-20)
(2.19542 -0.00421804 -3.79619e-21)
(2.19606 -0.0113037 -2.57494e-20)
(2.28233 -0.0174963 1.59586e-20)
(2.27351 -0.0287428 1.57588e-20)
(2.36895 -0.0380208 -1.77021e-20)
(1.15952 -0.00168054 0)
(1.18376 -0.00278937 2.48808e-21)
(1.17717 -0.00447834 -3.5787e-20)
(1.21022 -0.00584775 -5.40467e-20)
(1.1977 -0.00883336 2.99413e-20)
(1.24088 -0.00997003 1.19037e-19)
(1.21953 -0.0161387 -7.90452e-21)
(1.27097 -0.0152555 -6.33771e-20)
(1.23883 -0.027094 -7.812e-21)
(1.29323 -0.0237384 2.71736e-21)
(1.39931 0.824165 -4.57878e-20)
(1.38676 0.867703 -9.55694e-20)
(1.38814 0.914403 -6.60885e-19)
(1.39309 0.966837 2.07153e-19)
(1.39614 1.02226 1.04376e-18)
(1.39082 1.07543 1.46449e-19)
(1.36446 1.11112 -7.86981e-20)
(1.29299 1.10361 -3.33352e-19)
(1.1038 0.986639 -3.3336e-19)
(0.588552 0.546684 -4.57724e-20)
(1.54732 0.796154 -3.79252e-19)
(1.53976 0.838721 1.10037e-18)
(1.53832 0.883533 4.96644e-19)
(1.5424 0.934295 -7.40903e-19)
(1.54783 0.988814 2.49243e-19)
(1.54556 1.04096 2.41165e-19)
(1.51938 1.07417 8.002e-19)
(1.44187 1.06453 -1.17497e-18)
(1.23035 0.946292 -5.091e-20)
(0.648892 0.515984 2.10379e-19)
(1.68663 0.766306 1.07051e-19)
(1.68526 0.807852 8.67015e-19)
(1.68386 0.850165 1.68649e-20)
(1.68693 0.896845 -4.37589e-19)
(1.693 0.947159 1.28327e-19)
(1.69179 0.994765 -6.90716e-20)
(1.66389 1.0221 -4.70695e-20)
(1.57842 1.00836 -4.06971e-19)
(1.34176 0.887275 2.03764e-20)
(0.696478 0.472327 -2.17332e-19)
(1.81323 0.724652 -4.39635e-19)
(1.81791 0.764197 4.04425e-19)
(1.82113 0.804085 -6.22415e-19)
(1.82698 0.846615 -2.33028e-19)
(1.83404 0.891426 1.37558e-18)
(1.8317 0.932541 -8.73931e-19)
(1.7991 0.952646 -9.95542e-19)
(1.70353 0.933965 4.3035e-19)
(1.43662 0.811127 -1.24031e-19)
(0.727972 0.418953 -6.44112e-20)
(1.92729 0.679139 5.50138e-19)
(1.9353 0.715778 4.4349e-19)
(1.94043 0.75152 -2.10381e-19)
(1.94701 0.788831 8.27654e-19)
(1.95448 0.827739 1.66668e-19)
(1.95007 0.860713 -3.76478e-19)
(1.91146 0.87023 5.57859e-19)
(1.80403 0.845622 -6.66576e-19)
(1.5002 0.720787 -7.56719e-19)
(0.735236 0.35596 -3.14715e-21)
(2.02955 0.621421 7.30833e-19)
(2.04015 0.653718 9.19031e-19)
(2.0489 0.685637 -9.40888e-19)
(2.0579 0.718214 -9.67705e-19)
(2.06379 0.749675 2.36645e-19)
(2.05237 0.772695 -7.07854e-19)
(2.00136 0.773903 -4.65947e-19)
(1.87616 0.743727 4.02997e-19)
(1.52972 0.615132 6.94744e-20)
(0.715601 0.285298 -1.45358e-20)
(2.11995 0.562221 6.7883e-19)
(2.13222 0.590381 -9.11015e-19)
(2.14057 0.616843 -8.06703e-19)
(2.14567 0.643008 6.30883e-19)
(2.14543 0.668457 -5.67371e-19)
(2.12259 0.677702 1.6931e-18)
(2.06067 0.670079 -2.54914e-19)
(1.91129 0.633641 -1.3695e-18)
(1.51584 0.499966 5.99024e-19)
(0.664844 0.212187 3.19199e-20)
(2.19555 0.497924 -4.46968e-19)
(2.2045 0.519324 -6.38951e-19)
(2.21227 0.54034 -8.84009e-19)
(2.22141 0.560198 3.06009e-20)
(2.21528 0.568985 2.74717e-19)
(2.17048 0.570911 2.96839e-19)
(2.09392 0.558844 7.05892e-19)
(1.90527 0.514967 -3.69362e-19)
(1.45281 0.379411 1.95051e-20)
(0.584278 0.142338 6.36764e-20)
(2.25462 0.437643 2.22366e-19)
(2.2643 0.457147 -7.42452e-20)
(2.2705 0.474426 4.29981e-19)
(2.25917 0.486057 1.05797e-18)
(2.22569 0.481374 -3.47777e-19)
(2.18413 0.477465 -1.35525e-18)
(2.08694 0.455357 1.0481e-18)
(1.84536 0.39888 9.36253e-19)
(1.33253 0.262651 -4.77343e-19)
(0.477947 0.0823715 -9.07735e-21)
(2.30734 0.378184 -4.59398e-19)
(2.30972 0.389289 -4.97669e-21)
(2.29588 0.394513 6.19691e-19)
(2.2684 0.394019 6.07071e-19)
(2.23301 0.388059 4.23978e-19)
(2.1705 0.380778 -7.07515e-19)
(2.02888 0.35043 3.29741e-20)
(1.72183 0.282304 -3.58526e-19)
(1.15268 0.15328 -5.40105e-19)
(0.35757 0.0370683 -1.31356e-20)
(0.503326 0.306496 3.70996e-20)
(0.465883 0.315265 -1.88126e-19)
(0.424047 0.325188 -3.41161e-20)
(0.378421 0.336327 1.393e-19)
(0.328795 0.348313 -2.77754e-20)
(0.274535 0.359441 -2.60984e-20)
(0.2149 0.364354 -5.12864e-20)
(0.148285 0.350285 -2.81381e-20)
(0.0766327 0.293836 1.05093e-19)
(0.0288279 0.153532 6.23871e-21)
(0.544847 0.404679 7.24296e-21)
(0.507752 0.419065 3.39178e-20)
(0.466908 0.434935 -9.61126e-22)
(0.42258 0.45236 1.08856e-20)
(0.374342 0.47096 5.74725e-20)
(0.321325 0.488848 3.08984e-20)
(0.262214 0.499786 7.38142e-20)
(0.194581 0.488318 -6.65342e-20)
(0.116867 0.422783 7.33992e-20)
(0.0500646 0.232674 -2.27815e-21)
(0.602012 0.497375 -1.07297e-19)
(0.56601 0.51715 -1.00121e-20)
(0.526997 0.538611 3.59211e-20)
(0.484813 0.561974 -4.41354e-20)
(0.438802 0.586963 -5.49177e-21)
(0.387852 0.611625 1.29049e-19)
(0.329986 0.62896 -1.94023e-20)
(0.261689 0.62094 -3.70149e-20)
(0.176703 0.54787 -2.42781e-22)
(0.0832871 0.309476 1.75144e-20)
(0.671944 0.584905 -4.89687e-20)
(0.6377 0.610285 -1.16027e-19)
(0.601552 0.637277 -5.33622e-20)
(0.562573 0.666278 2.55143e-21)
(0.519716 0.69709 -1.3247e-19)
(0.471646 0.727629 -7.76727e-20)
(0.415755 0.750151 -2.08762e-19)
(0.347195 0.744406 7.17207e-20)
(0.253985 0.663771 -5.16853e-20)
(0.127174 0.380021 -9.28991e-20)
(0.753825 0.660601 7.30515e-20)
(0.722208 0.690758 -8.98742e-20)
(0.6902 0.722582 1.16286e-20)
(0.656106 0.756875 -4.7642e-20)
(0.618318 0.793512 -7.65991e-20)
(0.574941 0.830186 1.02554e-19)
(0.522332 0.858375 7.41427e-20)
(0.453788 0.855684 -1.27638e-19)
(0.350566 0.769035 -2.50731e-19)
(0.182011 0.443495 5.17871e-20)
(0.844232 0.730415 2.27472e-20)
(0.814759 0.765119 1.80857e-20)
(0.786444 0.800684 6.60118e-20)
(0.756835 0.838819 4.40628e-20)
(0.724164 0.879884 1.91315e-19)
(0.686298 0.921353 -1.75466e-19)
(0.638464 0.953581 -1.2914e-19)
(0.571426 0.952165 -4.09397e-20)
(0.458392 0.85886 1.03339e-19)
(0.243326 0.49581 1.532e-19)
(0.944269 0.782476 -6.87822e-20)
(0.919448 0.821093 3.6717e-20)
(0.897278 0.860113 2.17741e-19)
(0.873973 0.901703 -1.27152e-19)
(0.84724 0.946564 -3.65997e-19)
(0.814804 0.992216 1.90196e-19)
(0.771184 1.02803 5.91301e-19)
(0.704733 1.02768 1.57922e-19)
(0.579386 0.929247 -3.70615e-20)
(0.310927 0.53554 2.20494e-19)
(1.04701 0.828612 -2.28156e-19)
(1.02432 0.869191 -7.48328e-20)
(1.00717 0.909583 2.35866e-19)
(0.990834 0.953178 -1.11174e-19)
(0.972071 1.00055 8.42206e-20)
(0.947416 1.04848 3.89183e-19)
(0.909755 1.08515 -4.28018e-19)
(0.844535 1.08334 -3.96825e-19)
(0.706514 0.978603 3.40765e-19)
(0.381234 0.560716 -1.03983e-21)
(1.15794 0.848751 -1.62821e-20)
(1.14453 0.891978 4.17165e-20)
(1.13517 0.933218 -2.0873e-19)
(1.12493 0.977952 -7.33574e-20)
(1.11177 1.0276 4.70761e-19)
(1.09257 1.07823 1.41239e-19)
(1.05877 1.11615 -1.23375e-19)
(0.992474 1.11321 0)
(0.839246 1.0036 -2.22379e-19)
(0.452777 0.57021 -1.14065e-19)
(1.2497 0.855311 0)
(1.24469 0.899904 0)
(1.2497 0.943544 6.12837e-19)
(1.25295 0.989796 1.41068e-19)
(1.25077 1.03988 -2.20814e-19)
(1.23998 1.0902 4.11379e-19)
(1.21109 1.12639 -2.99881e-19)
(1.14342 1.12085 -8.21319e-19)
(0.973504 1.0068 4.19953e-19)
(0.523023 0.565593 2.17213e-19)
(0.992489 -0.00347308 -1.31735e-20)
(1.01649 -0.0117706 -1.08227e-20)
(1.03693 0.0666878 7.72743e-21)
(1.03703 0.165761 2.50847e-21)
(1.01747 0.216136 1.04803e-20)
(0.980012 0.237328 2.06233e-20)
(0.945012 0.227425 -1.08034e-20)
(0.87919 0.231493 -1.22764e-20)
(0.8136 0.243409 -7.28395e-20)
(0.668596 0.26337 4.56042e-20)
(0.992059 -0.00505384 -3.75959e-22)
(1.01753 -0.0170781 8.36049e-21)
(1.03649 0.0636717 1.21525e-22)
(1.03539 0.169872 5.93087e-21)
(1.01661 0.22418 7.9694e-21)
(0.97964 0.247773 -3.15486e-20)
(0.947743 0.241385 -1.32051e-20)
(0.888429 0.249765 4.40958e-22)
(0.829108 0.275932 1.86809e-19)
(0.705394 0.32853 4.34054e-21)
(0.991253 -0.00680113 6.49602e-22)
(1.01888 -0.0221004 1.62971e-20)
(1.03662 0.061547 -9.50481e-21)
(1.03471 0.174719 -7.71905e-22)
(1.01661 0.232392 -9.14883e-21)
(0.979608 0.258056 1.71324e-21)
(0.949778 0.253774 1.69683e-20)
(0.898801 0.266671 -1.63818e-20)
(0.844336 0.305393 1.06479e-19)
(0.752185 0.39029 -2.42289e-19)
(0.990123 -0.008693 3.41759e-21)
(1.02038 -0.0269319 -9.7717e-22)
(1.03736 0.0602643 -1.10574e-20)
(1.0349 0.180339 -1.45532e-20)
(1.0172 0.240842 2.05395e-20)
(0.979876 0.26836 2.23183e-20)
(0.951733 0.264458 -2.25126e-20)
(0.910361 0.282528 8.40538e-20)
(0.859765 0.331116 -9.75588e-20)
(0.807986 0.447906 -2.64273e-19)
(0.988696 -0.010721 3.73118e-22)
(1.02202 -0.0316669 -1.91815e-20)
(1.03884 0.0597716 4.52255e-21)
(1.03582 0.186798 2.40602e-20)
(1.01823 0.249577 8.08076e-21)
(0.980662 0.278651 4.95847e-20)
(0.954291 0.27328 2.67691e-20)
(0.923179 0.297688 7.14228e-20)
(0.875548 0.352625 -1.08765e-21)
(0.871777 0.499972 1.98142e-19)
(0.987001 -0.0128745 -1.14726e-21)
(1.02377 -0.0364011 2.55168e-22)
(1.041 0.0600359 -2.17661e-21)
(1.03727 0.194161 6.88648e-21)
(1.01976 0.258549 -2.83825e-20)
(0.982481 0.288749 7.82052e-21)
(0.958022 0.280237 -3.96287e-21)
(0.936945 0.312447 -2.09951e-19)
(0.892221 0.369337 0)
(0.944471 0.548589 -2.53641e-20)
(0.985164 -0.0151237 5.08395e-22)
(1.02539 -0.0412232 1.0482e-20)
(1.04348 0.0610081 8.5307e-22)
(1.03905 0.202404 -3.48315e-20)
(1.02213 0.26757 -1.05716e-20)
(0.985948 0.298465 -6.1713e-20)
(0.963508 0.285637 4.69275e-21)
(0.951018 0.32686 5.13976e-21)
(0.912297 0.381916 -2.05454e-21)
(1.01882 0.588235 7.54538e-19)
(0.983486 -0.0173875 -5.31496e-21)
(1.02623 -0.0461041 1.36049e-20)
(1.04566 0.0625367 4.86834e-21)
(1.04113 0.21126 1.62485e-20)
(1.0259 0.276331 -4.43168e-20)
(0.991442 0.30755 1.38494e-20)
(0.971605 0.289847 -2.9999e-21)
(0.965338 0.340653 2.56769e-20)
(0.937597 0.388948 1.33689e-19)
(1.10466 0.632592 -3.15838e-20)
(0.982425 -0.0195371 2.2015e-21)
(1.02537 -0.0507226 -7.95606e-21)
(1.04688 0.0646887 -3.12734e-22)
(1.04386 0.220426 2.85221e-20)
(1.03179 0.284528 4.31766e-21)
(0.999063 0.315475 2.23027e-20)
(0.983354 0.293061 -4.79274e-20)
(0.980599 0.352565 6.47317e-20)
(0.972401 0.388 2.68961e-19)
(1.17091 0.653834 -6.37108e-19)
(0.982423 -0.0214849 5.8065e-21)
(1.02226 -0.0548482 -1.98548e-20)
(1.04696 0.0683237 4.00004e-22)
(1.04769 0.23101 -1.07199e-20)
(1.04048 0.292472 4.83712e-20)
(1.0096 0.322191 -3.00218e-20)
(0.999674 0.295834 -1.60992e-20)
(1.00083 0.363344 3.49166e-20)
(1.01515 0.401041 -1.41264e-19)
(1.27791 0.707724 3.52533e-19)
(0.983965 -0.0234235 -1.54375e-21)
(1.01473 -0.0603875 2.82024e-21)
(1.04565 0.0648296 -1.5708e-21)
(1.05545 0.237138 -2.95552e-20)
(1.05985 0.297542 -2.95984e-20)
(1.03297 0.331109 -4.19959e-20)
(1.03315 0.293227 1.5188e-20)
(1.04396 0.37244 -1.39489e-19)
(1.06239 0.34601 -4.80721e-19)
(1.28516 0.69779 -1.2935e-19)
(0.987529 -0.0244772 -8.88619e-21)
(1.00104 -0.0664127 -1.40277e-21)
(1.03992 0.0487893 1.04379e-21)
(1.06228 0.233839 6.69877e-21)
(1.1068 0.294194 1.39189e-20)
(1.08098 0.339162 5.97316e-20)
(1.14146 0.280906 1.56779e-20)
(1.13553 0.372841 1.05627e-19)
(1.21702 0.308781 1.98901e-19)
(1.28372 0.596769 2.56355e-19)
(0.991093 -0.0240576 -1.83207e-21)
(0.98795 -0.0699368 -2.13761e-21)
(1.03548 0.0297375 2.07503e-21)
(1.05819 0.220511 4.57617e-21)
(1.20057 0.281116 4.50143e-35)
(1.12518 0.332341 -7.75122e-21)
(1.34436 0.26092 -4.46044e-34)
(1.23097 0.359957 1.64579e-20)
(1.46427 0.289182 -4.22389e-20)
(1.35765 0.511495 -2.08045e-19)
(0.993854 -0.022061 1.87327e-20)
(0.980037 -0.0714879 -2.03455e-35)
(1.031 0.0104545 -2.27825e-21)
(1.04367 0.184864 -5.34075e-22)
(1.31561 0.257418 -1.35673e-20)
(1.15825 0.302883 5.54985e-21)
(1.55386 0.228685 -5.30616e-34)
(1.33403 0.339999 -4.22784e-20)
(1.67478 0.264686 -9.93146e-20)
(1.53484 0.437972 2.31381e-19)
(0.995481 -0.0197364 0)
(0.981417 -0.0714696 -8.43437e-35)
(1.02423 -0.00696172 0)
(1.0426 0.125642 0)
(1.37958 0.224926 0)
(1.22095 0.256248 0)
(1.65489 0.185846 -3.30396e-34)
(1.45603 0.31474 0)
(1.78323 0.227112 -1.63906e-20)
(1.72422 0.371556 1.384e-19)
(0.99543 -0.0194841 2.48386e-21)
(0.995305 -0.0705325 -7.61819e-21)
(1.02426 -0.0250452 -3.24814e-21)
(1.06016 0.0583272 0)
(1.37697 0.183968 0)
(1.30611 0.201876 6.47022e-21)
(1.65712 0.141931 2.87202e-20)
(1.57478 0.280226 -1.19532e-20)
(1.82103 0.18755 -2.50607e-20)
(1.85435 0.307069 9.70766e-20)
(0.992885 -0.0232034 -6.5826e-20)
(1.02142 -0.0700155 7.30511e-21)
(1.03218 -0.0454199 -4.58673e-21)
(1.08118 -0.00250389 -2.36547e-20)
(1.315 0.130827 -2.19352e-20)
(1.36442 0.142929 6.53812e-21)
(1.59083 0.0980171 -2.87329e-20)
(1.63611 0.234885 -1.66987e-20)
(1.8021 0.149037 -3.164e-20)
(1.91747 0.242058 1.06643e-19)
(0.987422 -0.0293294 -4.76504e-21)
(1.04211 -0.0691971 -1.07745e-20)
(1.02647 -0.0596145 -5.58851e-21)
(1.07579 -0.0359181 -4.74374e-21)
(1.1773 0.0786136 -6.34724e-35)
(1.36302 0.0849913 6.83689e-21)
(1.42375 0.0582048 -8.81353e-34)
(1.60148 0.183966 -1.07753e-20)
(1.69985 0.10777 1.66094e-20)
(1.90486 0.174041 2.27321e-20)
(0.968446 -0.0488524 1.32553e-19)
(1.04365 -0.0692562 -2.77028e-21)
(0.963097 -0.0692951 -6.31908e-21)
(0.963987 -0.0461505 9.00879e-21)
(0.93974 0.0258189 9.51533e-21)
(1.19308 0.029391 8.2293e-21)
(1.07659 0.0340521 1.38211e-20)
(1.39663 0.103012 -2.68168e-20)
(1.42656 0.055084 -2.94805e-20)
(1.70912 0.0916398 7.70766e-20)
(0.871636 -0.0320061 6.30454e-21)
(0.856877 -0.051647 -4.98014e-35)
(0.615365 -0.0491376 -6.7141e-21)
(0.508924 -0.0206425 0)
(0.465897 0.00338044 0)
(0.594327 0.00875574 7.07322e-21)
(0.521829 0.0151676 -6.60497e-36)
(0.779901 0.0296177 -9.83205e-21)
(0.799999 0.015694 -2.53348e-20)
(1.01867 0.0322876 -3.79822e-20)
(1.47841 0.717622 1.47992e-19)
(1.57873 0.700922 -4.98141e-20)
(1.69469 0.675825 -3.17576e-21)
(1.80859 0.639885 5.30933e-20)
(1.9143 0.598409 -2.17337e-19)
(2.01205 0.549973 -4.081e-19)
(2.09809 0.498677 -1.92949e-19)