/*--------------------------------*- C++ -*----------------------------------*\
| =========                 |                                                 |
| \\      /  F ield         | OpenFOAM: The Open Source CFD Toolbox           |
|  \\    /   O peration     | Version:  2406                                  |
|   \\  /    A nd           | Website:  www.openfoam.com                      |
|    \\/     M anipulation  |                                                 |
\*---------------------------------------------------------------------------*/
FoamFile
{
    version     2.0;
    format      ascii;
    arch        "LSB;label=32;scalar=64";
    class       volScalarField;
    location    "0.8";
    object      nu;
}
// * * * * * * * * * * * * * * * * * * * * * * * * * * * * * * * * * * * * * //

dimensions      [0 2 -1 0 0 0 0];

internalField   nonuniform List<scalar> 
1800
(
0.0149062
0.0125608
0.0111922
0.0101831
0.00942042
0.00893278
0.00863007
0.0084044
0.00831427
0.00856084
0.0297473
0.0174855
0.0119232
0.00994262
0.00907525
0.00866158
0.00846424
0.00834882
0.00847031
0.00846521
0.0904683
0.0160119
0.0106608
0.00923699
0.00867334
0.00845947
0.00841956
0.00843651
0.00875099
0.00863545
0.0225671
0.0114501
0.00921341
0.00853829
0.00831514
0.00830669
0.00841286
0.00853463
0.0089462
0.00867872
0.0133886
0.00934039
0.00831253
0.00805657
0.00809239
0.00827925
0.00853227
0.00875182
0.00919919
0.00860668
0.0100873
0.00824973
0.00777243
0.0077955
0.00805354
0.00842755
0.00880186
0.00904993
0.00929508
0.00859114
0.00848666
0.00760673
0.00747642
0.00774283
0.00822397
0.00876682
0.0091754
0.0093015
0.00923496
0.00867276
0.0075726
0.00721715
0.00735898
0.00786574
0.00856572
0.00920492
0.00950238
0.00941548
0.00920386
0.00904525
0.00700435
0.00698741
0.0073713
0.00812057
0.00901722
0.00967076
0.00980498
0.00960445
0.00950465
0.0098213
0.00663234
0.00685813
0.0074683
0.00846661
0.00956279
0.0102383
0.0102712
0.0100673
0.0101745
0.0109733
0.0073109
0.00973193
0.0132683
0.0148566
0.0148589
0.0146441
0.0143768
0.0140421
0.0137025
0.0134811
0.00714817
0.00946689
0.0135966
0.0160851
0.0158925
0.0153797
0.0148642
0.014328
0.0138546
0.0135312
0.00705136
0.00925602
0.014019
0.0195942
0.0194837
0.0174544
0.0161288
0.0152054
0.0144523
0.0138963
0.00700415
0.0090663
0.0143754
0.0305221
0.0440481
0.0275776
0.0198391
0.0168702
0.0154561
0.0145828
0.00703449
0.00893077
0.0136961
0.0277666
0.0594311
0.0595936
0.0327539
0.0213967
0.0173025
0.0156271
0.00717934
0.0088242
0.0120938
0.017178
0.0218153
0.0238688
0.0231465
0.0209072
0.0180243
0.0164133
0.00746917
0.00881002
0.0109302
0.0131938
0.0146209
0.01537
0.0158028
0.0159334
0.0152471
0.0152357
0.00797548
0.00894583
0.0102168
0.0113313
0.0119099
0.0121668
0.0123697
0.0126121
0.0125586
0.0132501
0.00889958
0.00937684
0.00997766
0.0104283
0.0105258
0.0104704
0.0104429
0.0105236
0.0105113
0.0112433
0.0107114
0.0103756
0.0103037
0.0101773
0.00984759
0.00952976
0.00931537
0.00920252
0.00901678
0.00973725
0.0145751
0.0129194
0.0142225
0.0161417
0.0185481
0.0224368
0.0270839
0.0325984
0.0355677
0.0459738
0.0148071
0.0132678
0.0140503
0.0157141
0.0178423
0.0215684
0.0262646
0.0319791
0.0352152
0.0455865
0.0152929
0.0141732
0.0139846
0.0153024
0.0170869
0.0204688
0.0248905
0.0303523
0.0336201
0.043028
0.0163303
0.0154752
0.0135071
0.0143315
0.015821
0.0186816
0.0225321
0.0272836
0.0303736
0.0378493
0.0173628
0.0150558
0.0122606
0.0126711
0.0138576
0.0160272
0.0190632
0.0228183
0.0256142
0.0309141
0.0162631
0.0128307
0.0111493
0.0112938
0.012074
0.0135081
0.0156084
0.0182699
0.0205248
0.0240855
0.0139206
0.0114578
0.0107047
0.0106488
0.0110569
0.0119095
0.0132347
0.0149706
0.0165328
0.0188651
0.0117341
0.0110375
0.0108196
0.0106194
0.0107471
0.0111933
0.0119916
0.0130992
0.0140911
0.0156057
0.0108956
0.0110889
0.0110247
0.0108812
0.0109209
0.0111203
0.0115792
0.0123006
0.0129186
0.0139359
0.00986339
0.0102744
0.0106987
0.01092
0.0112514
0.0115089
0.0118137
0.0123038
0.0126735
0.0133935
0.00979813
0.0101365
0.0101425
0.0104724
0.0113223
0.0121727
0.0127336
0.013237
0.0134875
0.0140392
0.00890834
0.00952237
0.00988048
0.0101056
0.0109759
0.0124299
0.0138908
0.0150234
0.0155335
0.0161113
0.00935458
0.0112614
0.0118368
0.0115412
0.0119763
0.0134025
0.015508
0.0178272
0.0195107
0.0211259
0.0119225
0.0177217
0.0133461
0.0125036
0.0130672
0.0149227
0.01816
0.0230418
0.0279641
0.0374985
0.0184373
0.0209037
0.0136404
0.0129036
0.013602
0.0156733
0.0195307
0.0259264
0.0326785
0.0541071
0.027108
0.0179383
0.0133509
0.0129101
0.0136547
0.015256
0.0177513
0.0207116
0.0233363
0.0263245
0.0155672
0.0125157
0.0109561
0.0107275
0.0112594
0.0121545
0.0131808
0.0140859
0.0148219
0.0153977
0.00963336
0.00882249
0.00854802
0.0087729
0.00931583
0.00990208
0.0104076
0.0108024
0.0110782
0.0113106
0.00740766
0.00737597
0.00761644
0.00805486
0.00853386
0.00890667
0.0091625
0.00934082
0.00943733
0.00953891
0.00693207
0.00742572
0.00813558
0.00885826
0.00920721
0.00919929
0.00906687
0.00895136
0.00885289
0.00883656
0.0141538
0.0120442
0.0105878
0.00949409
0.00897401
0.0086898
0.00853585
0.00866764
0.00815593
0.008963
0.0171889
0.0184916
0.0138232
0.0129121
0.0104179
0.0100547
0.00873959
0.00892637
0.00810107
0.0086054
0.0178088
0.0210026
0.0153822
0.0172249
0.0122954
0.012931
0.0103479
0.010306
0.00930195
0.00877138
0.0196384
0.0181517
0.019562
0.0163854
0.0163113
0.0138822
0.0143853
0.0119015
0.0127508
0.0103517
0.0184288
0.0172935
0.0223972
0.0167408
0.0230521
0.0148682
0.021221
0.0139661
0.019272
0.013582
0.0156314
0.0161856
0.0175548
0.0179535
0.0209747
0.0186607
0.0242228
0.0184792
0.0265255
0.0199767
0.0126866
0.0130821
0.0130766
0.0138406
0.014035
0.0152909
0.0152382
0.0168174
0.0164383
0.0183776
0.00971256
0.00979407
0.00960766
0.00981216
0.00968439
0.0100036
0.00985343
0.0102676
0.0100473
0.010458
0.0077282
0.00766651
0.00763515
0.00761147
0.00760361
0.00760225
0.00760886
0.00762098
0.00761662
0.00765476
0.00641699
0.00641218
0.00643815
0.00644561
0.00649227
0.00650508
0.00657775
0.00658485
0.00669307
0.00669323
0.0104405
0.0115615
0.0117788
0.0117984
0.0118435
0.0121121
0.0125254
0.0103395
0.00730634
0.00594833
0.0112747
0.0117897
0.0119345
0.011948
0.0119866
0.0122901
0.0126649
0.0101211
0.00719354
0.00590957
0.0120533
0.0124581
0.0125985
0.0126435
0.0126603
0.0129672
0.0130071
0.00982367
0.00707766
0.00588041
0.0125798
0.0130679
0.0134031
0.0137231
0.0139861
0.0145291
0.0137133
0.00950365
0.00696735
0.00586666
0.0125845
0.0131219
0.0138382
0.0150094
0.016367
0.0174725
0.0140628
0.00913903
0.00687321
0.00587519
0.0126221
0.0129957
0.0139099
0.0161322
0.0194017
0.0197765
0.0131613
0.00873937
0.0068039
0.00591013
0.0127587
0.0128209
0.0135592
0.0158476
0.0187944
0.0167868
0.0116101
0.00836048
0.00676186
0.00597385
0.0129736
0.0124846
0.0128026
0.0142094
0.0152765
0.0134516
0.010355
0.00804941
0.00674651
0.00606832
0.0129105
0.0119192
0.0118467
0.0124465
0.0126717
0.011471
0.00949849
0.00780745
0.0067551
0.00619892
0.0121294
0.0110742
0.0108633
0.0111148
0.0111354
0.0103075
0.00890661
0.00761738
0.00678885
0.00637861
0.0122803
0.012017
0.0117899
0.0115806
0.011371
0.011173
0.0109806
0.0106333
0.00967204
0.00779482
0.0121742
0.0119116
0.0116838
0.0114701
0.0112588
0.0110673
0.0108956
0.0105068
0.00923356
0.00731266
0.0121408
0.0119015
0.0116951
0.0114836
0.0112597
0.011052
0.0108732
0.0104043
0.00884361
0.00695948
0.0120117
0.0117987
0.0116201
0.0114272
0.0112306
0.0110685
0.0109532
0.0104328
0.00856836
0.00671287
0.0120196
0.0117942
0.0116011
0.0113788
0.0111472
0.0109606
0.0108459
0.0102805
0.00827941
0.00651135
0.0120761
0.0119286
0.0118075
0.0116165
0.0114023
0.0112377
0.011138
0.010366
0.00805868
0.00635737
0.0119126
0.0118067
0.0117186
0.0115351
0.011334
0.0112199
0.011221
0.0103838
0.00787606
0.00623762
0.0121058
0.0119697
0.0119192
0.0117248
0.011496
0.0113738
0.0113805
0.0103355
0.00769944
0.00613885
0.0127298
0.0125919
0.0123868
0.0120416
0.0117452
0.0116363
0.0116748
0.0103175
0.00754533
0.00605847
0.0122728
0.012464
0.0126058
0.0123937
0.0121301
0.0121026
0.0122381
0.0103749
0.00741766
0.00599616
0.0323627
0.0274706
0.0340863
0.044545
0.0474758
0.0524603
0.034961
0.0269678
0.0175949
0.0132295
0.0322573
0.0264392
0.0339232
0.0434213
0.0464924
0.0598915
0.0393911
0.027427
0.0177608
0.0131127
0.0321351
0.0254988
0.033477
0.0411055
0.0448108
0.0693379
0.0454526
0.0278767
0.0180315
0.0130284
0.0319679
0.0245644
0.0325608
0.038204
0.0445175
0.0842579
0.0521709
0.0283157
0.0183655
0.0128115
0.0317059
0.0236096
0.0311868
0.0364275
0.0482426
0.105168
0.056104
0.0287652
0.0186614
0.0128384
0.0313255
0.0227246
0.0298404
0.0384636
0.0573804
0.112534
0.0533539
0.0286374
0.0184309
0.0127306
0.0309247
0.0220687
0.0290557
0.0468581
0.0648459
0.0849312
0.0428786
0.0271621
0.0178552
0.0122443
0.0310541
0.0216532
0.0286064
0.0586483
0.0547219
0.0475618
0.029997
0.0238925
0.0159791
0.0126268
0.0330161
0.0211544
0.0278661
0.051906
0.0329048
0.0266395
0.0213644
0.0204051
0.0150623
0.0120184
0.037139
0.020479
0.0256179
0.0300261
0.0208995
0.0180755
0.0163552
0.0160255
0.01332
0.0129601
0.0426741
0.0198042
0.022222
0.0208822
0.0164753
0.0153714
0.013439
0.0143685
0.0113445
0.0136183
0.0528882
0.0184432
0.019083
0.0181514
0.0153254
0.0151571
0.0122692
0.0147246
0.0104554
0.0136619
0.0667376
0.0169029
0.0177007
0.0181522
0.0165492
0.0159825
0.0129047
0.014834
0.0111324
0.0122672
0.0676733
0.0159468
0.0166779
0.0185058
0.0205506
0.0170901
0.0160047
0.0147332
0.0136793
0.0114783
0.0641342
0.0157944
0.0158303
0.0183063
0.0268631
0.018544
0.0265615
0.0153845
0.0159875
0.0120796
0.0739977
0.0161655
0.0155725
0.0179831
0.0243303
0.0218097
0.0287455
0.0172555
0.0165686
0.013899
0.12392
0.0174067
0.0161572
0.0171081
0.0171702
0.0216301
0.0164106
0.019948
0.015886
0.0154677
0.0613574
0.0217024
0.0154941
0.0136618
0.0124407
0.0130669
0.0118658
0.0136882
0.0118429
0.0126045
0.0289038
0.0156061
0.0112797
0.0104366
0.00994349
0.0097362
0.00970995
0.00946182
0.0094201
0.00927524
0.00800436
0.00789945
0.00868632
0.00851181
0.00840584
0.00816764
0.00808606
0.00755476
0.00766342
0.00713131
0.011851
0.012266
0.01237
0.0125652
0.0125891
0.0128555
0.0131603
0.0142118
0.0153064
0.0156129
0.0117544
0.0115079
0.011494
0.0116339
0.0118322
0.0122902
0.0126483
0.0137798
0.0146896
0.018054
0.0117496
0.0116336
0.0118352
0.0121384
0.0126604
0.0132507
0.0139915
0.0149229
0.0157733
0.0179905
0.0121574
0.0123205
0.0127902
0.0132464
0.0139898
0.0143168
0.015301
0.0152756
0.0167972
0.0166059
0.0133315
0.0136277
0.0141907
0.0145858
0.0149927
0.0148847
0.0152751
0.0151122
0.0162206
0.0159879
0.0145956
0.014392
0.0143986
0.0143823
0.0143552
0.0142107
0.0141042
0.014168
0.014497
0.0148951
0.0141053
0.0134797
0.0131441
0.0130052
0.012873
0.0127864
0.0124994
0.0125626
0.0124275
0.0127322
0.0116759
0.0112922
0.0109896
0.0108123
0.0106115
0.0104413
0.0102019
0.0101352
0.00992149
0.00994348
0.0090546
0.00886947
0.00868832
0.00853623
0.00839009
0.00824958
0.00812224
0.00799969
0.00789777
0.00779277
0.00698122
0.00687432
0.00677463
0.00668322
0.00660473
0.00654183
0.00649849
0.0064599
0.0064374
0.00641401
0.00615547
0.00708593
0.00909224
0.0140565
0.0276487
0.0231162
0.0161133
0.0126036
0.0101952
0.00851606
0.00622147
0.00699696
0.00866129
0.0132192
0.0393822
0.037537
0.0172553
0.0122773
0.0099493
0.00846099
0.00633941
0.00694342
0.00822848
0.0114779
0.0226746
0.0346314
0.0183156
0.0124421
0.00997962
0.00858329
0.00653067
0.00694732
0.00785697
0.00998367
0.0152517
0.0233812
0.018914
0.0131782
0.0103495
0.00885827
0.00682166
0.00703699
0.00761189
0.00895799
0.0118084
0.0165779
0.0181203
0.0144031
0.0112054
0.00935828
0.00724632
0.00724481
0.00753589
0.00835821
0.00999797
0.0127483
0.015454
0.0150438
0.0124991
0.0102038
0.00784453
0.00760022
0.0076526
0.00812196
0.00909837
0.0106993
0.0127098
0.0139437
0.0133535
0.0113985
0.0086529
0.00812831
0.00798137
0.00820348
0.00878634
0.00973554
0.0109521
0.012072
0.0126588
0.0118315
0.00963073
0.00883242
0.00854527
0.00859054
0.00891389
0.00947417
0.0101757
0.0108586
0.0115601
0.0113159
0.0105009
0.00964457
0.00935775
0.00929464
0.00940643
0.0096655
0.0099971
0.0102895
0.0106146
0.0108344
0.0108178
0.0103888
0.0104003
0.0103748
0.0102909
0.0102515
0.0102681
0.0102929
0.0102887
0.0111127
0.010593
0.0109422
0.0116168
0.0119571
0.0117272
0.0113588
0.0110841
0.0108968
0.0107097
0.0112768
0.010204
0.0113368
0.0129811
0.014364
0.0140493
0.0133254
0.0127697
0.0123492
0.0119127
0.0121179
0.00990928
0.011729
0.0149226
0.0204598
0.0210638
0.0187593
0.0163764
0.0148801
0.0137161
0.0132973
0.00955709
0.0117833
0.0158174
0.0272705
0.120154
0.0369149
0.0214075
0.0175621
0.0156567
0.0145518
0.00906987
0.01167
0.0165264
0.0270433
0.0380545
0.0336964
0.0228548
0.0187131
0.01686
0.0154857
0.00859215
0.0113868
0.0156225
0.0193435
0.0210147
0.0211587
0.0191701
0.0172931
0.0161636
0.0152275
0.00818246
0.0109647
0.0144621
0.0162232
0.0168281
0.0170562
0.0165621
0.0157483
0.0150874
0.0145464
0.00783053
0.0104959
0.0136628
0.0149333
0.0152296
0.0153384
0.0151537
0.0147475
0.0143293
0.0140088
0.0075382
0.0100745
0.0132799
0.0145336
0.0146686
0.0146455
0.0144885
0.0141967
0.0138726
0.0136533
0.0124479
0.0143984
0.020194
0.0376433
0.0398867
0.0315632
0.0304579
0.0323709
0.0339034
0.0433271
0.0123162
0.0142321
0.0193336
0.0271799
0.032124
0.0301401
0.0302153
0.0327923
0.0355495
0.0493791
0.0123667
0.0145836
0.0189041
0.0249592
0.0286054
0.0289245
0.0296906
0.0325279
0.0357021
0.0501219
0.0126833
0.0151519
0.0184955
0.0236084
0.0262557
0.0275081
0.0288295
0.0318594
0.0350519
0.048384
0.0130889
0.0153086
0.0177369
0.0220912
0.0243838
0.0262162
0.027989
0.0311381
0.034093
0.0459921
0.013474
0.0148739
0.0168416
0.0205969
0.0229572
0.0253306
0.0275372
0.0308066
0.0334169
0.0441099
0.0137585
0.0141913
0.0160298
0.0193086
0.0218628
0.0247725
0.0274837
0.0309929
0.0333307
0.0432472
0.0139997
0.0135669
0.0153978
0.0182578
0.0209416
0.0243147
0.0276005
0.0315178
0.0337659
0.0433627
0.0142173
0.0131276
0.0149213
0.0174097
0.0201017
0.0238044
0.0276603
0.0321163
0.0344737
0.0441483
0.0144024
0.0129063
0.0145333
0.0167126
0.0193062
0.0231836
0.0275204
0.0325539
0.0351793
0.0452049
0.00956056
0.0117487
0.0133767
0.0143983
0.01361
0.012575
0.0118091
0.0112014
0.0108782
0.0106704
0.0099356
0.0112479
0.0127317
0.0132961
0.0131896
0.0127233
0.0123312
0.0119516
0.0117597
0.0115442
0.0117989
0.0130064
0.0158649
0.0171446
0.0168996
0.0160249
0.0153928
0.0148808
0.0145624
0.0141364
0.0133082
0.0153607
0.0220422
0.0341
0.0280589
0.0234683
0.0217685
0.0211182
0.0204552
0.0199844
0.0130554
0.0151394
0.0220999
0.0887314
0.0406135
0.0297494
0.0278781
0.0284919
0.0284599
0.0309446
0.00625846
0.00639569
0.00659269
0.00684907
0.00715873
0.00751746
0.00788448
0.00824646
0.00865012
0.00876958
0.00652152
0.00665148
0.00685111
0.00710663
0.00739352
0.00770898
0.0080086
0.00840075
0.0087897
0.00925768
0.00682994
0.00694248
0.00713587
0.00738269
0.0076537
0.00795888
0.00828293
0.00883853
0.00925565
0.0102612
0.0072087
0.00729125
0.00747638
0.00772459
0.00801905
0.00836835
0.00886685
0.00959969
0.0100971
0.0111946
0.00767617
0.00771289
0.0078933
0.00817104
0.00855337
0.00906719
0.0098873
0.0106522
0.0109429
0.012014
0.0134389
0.0136279
0.0139919
0.0138409
0.0134205
0.0129524
0.01245
0.0115034
0.00951211
0.00736367
0.0144762
0.0141137
0.0136721
0.0130824
0.0125926
0.0122403
0.0119431
0.0113953
0.00991821
0.00771384
0.0136167
0.0132787
0.0130618
0.0127723
0.0125078
0.0122915
0.012073
0.0116585
0.0105002
0.00820539
0.0135779
0.0132859
0.0130656
0.0127748
0.0124821
0.0122215
0.0119772
0.011691
0.0110704
0.00890787
0.0134077
0.0130665
0.0127895
0.0124898
0.0122027
0.0119608
0.0117789
0.0117193
0.0118212
0.0101548
0.0132107
0.0128572
0.0125558
0.0122521
0.0119569
0.011705
0.0115437
0.0116609
0.0126096
0.0128068
0.0129744
0.0126257
0.0123224
0.0120315
0.0117448
0.0114928
0.0113232
0.0114198
0.0126838
0.0174754
0.0127525
0.0124311
0.0121526
0.0118978
0.0116498
0.0114264
0.0112443
0.0112002
0.0118139
0.0128735
0.0125619
0.0122676
0.0120137
0.0117876
0.0115698
0.0113714
0.0111853
0.0110005
0.010923
0.00985378
0.0124031
0.0121247
0.0118842
0.0116689
0.0114592
0.0112639
0.0110715
0.0107942
0.0102274
0.0085447
0.00882741
0.0107001
0.0131251
0.0156682
0.0178457
0.0185669
0.0140563
0.00945907
0.00719244
0.00612715
0.00944873
0.0113702
0.0133202
0.0147297
0.0153731
0.0152048
0.0132765
0.00971262
0.00731631
0.00613043
0.0102784
0.0119265
0.0132167
0.0138731
0.0139436
0.0136179
0.0125265
0.00987253
0.00745523
0.0061608
0.0110455
0.01224
0.0130693
0.0134156
0.0132734
0.0128183
0.0119718
0.00994924
0.00760099
0.00621508
0.0116866
0.0125875
0.0131144
0.0131329
0.0127134
0.0121394
0.0114543
0.00996382
0.00776593
0.0062959
0.0123431
0.0130102
0.0131421
0.0127341
0.0121115
0.0115829
0.0111201
0.0100402
0.00797266
0.00640606
0.0129949
0.013253
0.0128009
0.0121075
0.0115657
0.0112537
0.0110278
0.0102225
0.00821761
0.00654228
0.0133097
0.0128834
0.0120527
0.0114851
0.0112413
0.0112
0.0111935
0.0105618
0.00852076
0.00670857
0.0126106
0.0118865
0.0113725
0.0112485
0.0113549
0.0115456
0.0116793
0.0110502
0.0088596
0.00689733
0.0112282
0.0114754
0.0116706
0.0119163
0.01216
0.0123375
0.0123285
0.0114796
0.00920125
0.00711119
0.0307982
0.0769639
0.0321723
0.0289372
0.0274364
0.0284321
0.0322224
0.0354205
0.026508
0.0191603
0.0315881
0.0599766
0.0328038
0.0287344
0.0277358
0.0281653
0.0300619
0.0279427
0.0251172
0.0159687
0.0320195
0.0505184
0.0326424
0.0291284
0.0284693
0.0285782
0.0292836
0.0262323
0.0248024
0.0151938
0.0321645
0.0446687
0.0328223
0.0305127
0.0298548
0.0293812
0.0287673
0.0257201
0.0233553
0.0150983
0.03226
0.0404492
0.0332003
0.0327248
0.0318279
0.0304485
0.0283594
0.0256096
0.0217361
0.0149797
0.0323689
0.037105
0.033546
0.0354481
0.0343252
0.0318675
0.0280943
0.0256228
0.0202408
0.0147153
0.0324625
0.034349
0.0337985
0.0383527
0.0373476
0.0338882
0.0281431
0.0256924
0.0190521
0.0143422
0.0325106
0.0320636
0.0339655
0.0410698
0.0407902
0.0367825
0.0287048
0.0258362
0.0182497
0.0139578
0.0325036
0.0301962
0.034066
0.043203
0.0441929
0.0407792
0.029917
0.0261016
0.0177841
0.0136392
0.0324493
0.0286917
0.0341113
0.04443
0.0466926
0.0460279
0.0319232
0.026499
0.017586
0.0134067
0.00726993
0.00753172
0.00894606
0.00914155
0.00971711
0.00983262
0.0100776
0.00985935
0.0098223
0.00835784
0.0147464
0.0106018
0.010141
0.0105425
0.0108178
0.0111985
0.0116927
0.0118916
0.0123251
0.0116875
0.0268223
0.0175321
0.0127508
0.0131166
0.0131055
0.0138133
0.0147435
0.0165722
0.0172151
0.0164726
0.0301446
0.0403297
0.0181876
0.0183389
0.0177006
0.0190357
0.0210955
0.030708
0.0341061
0.0156856
0.0303834
0.104221
0.0263808
0.0250378
0.0234946
0.0249694
0.0286057
0.0446205
0.0403617
0.0170315
0.00794351
0.00759536
0.00724795
0.00693331
0.00666402
0.00644693
0.00628865
0.00619311
0.00615793
0.00617912
0.0106617
0.0098151
0.00904497
0.00838006
0.00779301
0.00729415
0.00690834
0.0066493
0.00650914
0.00647061
0.0134878
0.0121226
0.0109699
0.0100381
0.00919844
0.00843093
0.00776406
0.0072651
0.00696125
0.00682638
0.0139163
0.0129617
0.012167
0.0114089
0.0105557
0.00968228
0.00881142
0.00805227
0.00753971
0.00727448
0.0143257
0.0137019
0.0128802
0.0121528
0.0113949
0.0106405
0.00984562
0.00899517
0.00828541
0.00784748
)
;

boundaryField
{
    left
    {
        type            calculated;
        value           nonuniform List<scalar> 
35
(
0.0203411
0.017546
0.0160972
0.0155253
0.0155929
0.0161808
0.0171634
0.0181584
0.0179239
0.00795503
0.0265437
0.0265015
0.0264205
0.026305
0.0261727
0.0260538
0.0259646
0.0257971
0.0250637
0.0231137
0.0243834
0.0248842
0.0251717
0.0254085
0.0256834
0.0259694
0.0262153
0.0263932
0.0264997
0.0265456
0.00723145
0.0134407
0.0209177
0.023089
0.0238108
)
;
    }
    right
    {
        type            calculated;
        value           nonuniform List<scalar> 
35
(
0.0106719
0.0115516
0.0141783
0.0202487
0.0326564
0.0498867
0.0611634
0.0642537
0.0627181
0.0596645
0.0573625
0.0569401
0.0585507
0.0619008
0.0664512
0.0709325
0.0724347
0.0670688
0.0543153
0.0394702
0.0277965
0.0204358
0.0163622
0.0143943
0.0137524
0.0144169
0.0166275
0.022199
0.0435136
0.0639614
0.0266352
0.0154752
0.0113388
0.00954909
0.00883851
)
;
    }
    down
    {
        type            calculated;
        value           nonuniform List<scalar> 
40
(
0.00640194
0.00684255
0.00859717
0.00867646
0.00937001
0.0093693
0.00952849
0.00923363
0.00901261
0.00756074
0.00723363
0.00698073
0.00672228
0.00649239
0.00630596
0.00616598
0.00607197
0.00602343
0.00601869
0.00605685
0.00614471
0.00628437
0.00647954
0.00673446
0.00705266
0.00743814
0.00785639
0.00826445
0.00870209
0.00872384
0.00981606
0.0131847
0.0156348
0.0179214
0.015576
0.0134642
0.0121528
0.0112592
0.0107904
0.0105388
)
;
    }
    up
    {
        type            calculated;
        value           nonuniform List<scalar> 
40
(
0.00699492
0.00810589
0.0096531
0.0108759
0.0106961
0.00995723
0.00935195
0.00898126
0.00875065
0.00867034
0.00603518
0.00605227
0.00608464
0.00611181
0.00616383
0.00619544
0.00627714
0.00630351
0.00644177
0.00644668
0.00643172
0.00634319
0.0062612
0.00618813
0.00612762
0.00608414
0.00605378
0.00603446
0.00602421
0.0060235
0.0068089
0.00691465
0.00801855
0.00793543
0.00789686
0.00767261
0.00751343
0.00702337
0.00708647
0.00656532
)
;
    }
    cylinder
    {
        type            calculated;
        value           nonuniform List<scalar> 
80
(
0.00672048
0.00659489
0.00652911
0.00651076
0.00656496
0.00673763
0.00707018
0.00765478
0.00875117
0.0110189
0.0166899
0.0350436
0.135915
0.0626365
0.0257023
0.0131739
0.00963651
0.00804316
0.00716554
0.00662825
0.00562981
0.0056045
0.00558966
0.00559113
0.00561579
0.00566817
0.00575172
0.00587166
0.00603947
0.006278
0.00715486
0.00673724
0.00643977
0.00623348
0.00606888
0.00594445
0.00584876
0.00577139
0.00570964
0.00566344
0.00676895
0.00705337
0.00745406
0.00804636
0.00913326
0.0116423
0.0182725
0.0125474
0.00908889
0.00782716
0.00584202
0.00582079
0.00582844
0.00586122
0.00591916
0.00600252
0.006109
0.00624036
0.006391
0.00656343
0.00589885
0.00600145
0.00616727
0.00642036
0.00679004
0.00731801
0.00806721
0.0091221
0.0104611
0.0115395
0.0114693
0.0106309
0.00983438
0.00933474
0.00888676
0.00833478
0.00783992
0.0074563
0.00714942
0.00690463
)
;
    }
    defaultFaces
    {
        type            empty;
    }
}


// ************************************************************************* //
