/*--------------------------------*- C++ -*----------------------------------*\
| =========                 |                                                 |
| \\      /  F ield         | OpenFOAM: The Open Source CFD Toolbox           |
|  \\    /   O peration     | Version:  2406                                  |
|   \\  /    A nd           | Website:  www.openfoam.com                      |
|    \\/     M anipulation  |                                                 |
\*---------------------------------------------------------------------------*/
FoamFile
{
    version     2.0;
    format      ascii;
    arch        "LSB;label=32;scalar=64";
    class       volScalarField;
    location    "0.8";
    object      p;
}
// * * * * * * * * * * * * * * * * * * * * * * * * * * * * * * * * * * * * * //

dimensions      [0 2 -2 0 0 0 0];

internalField   nonuniform List<scalar> 
1800
(
-1.51732
-1.50083
-1.49297
-1.48619
-1.48147
-1.48198
-1.49082
-1.51043
-1.54275
-1.58877
-1.49799
-1.48875
-1.48184
-1.47231
-1.46231
-1.45622
-1.45647
-1.46427
-1.47981
-1.50426
-1.49623
-1.49985
-1.49546
-1.48464
-1.47354
-1.46543
-1.46198
-1.46372
-1.46984
-1.48465
-1.54608
-1.53309
-1.52527
-1.51511
-1.50408
-1.49432
-1.48713
-1.48283
-1.48069
-1.48624
-1.59152
-1.57792
-1.56901
-1.55833
-1.54615
-1.53399
-1.52298
-1.51349
-1.50539
-1.50367
-1.64334
-1.62858
-1.61878
-1.60653
-1.59176
-1.57598
-1.5604
-1.54549
-1.53157
-1.52121
-1.69892
-1.68239
-1.67087
-1.65567
-1.63684
-1.61638
-1.5956
-1.57485
-1.55416
-1.5339
-1.7526
-1.73404
-1.71939
-1.69945
-1.67498
-1.6487
-1.6219
-1.59449
-1.56577
-1.53519
-1.7972
-1.77647
-1.75685
-1.73029
-1.69885
-1.66584
-1.63225
-1.59727
-1.5596
-1.51871
-1.82464
-1.80133
-1.77478
-1.73981
-1.70024
-1.65973
-1.61875
-1.57585
-1.5296
-1.47969
-1.17344
-1.17681
-1.17394
-1.16809
-1.1605
-1.15237
-1.14415
-1.1358
-1.12723
-1.11864
-1.26652
-1.26805
-1.26493
-1.26002
-1.25444
-1.24919
-1.24467
-1.24071
-1.23703
-1.23355
-1.35961
-1.35892
-1.35549
-1.35118
-1.34781
-1.34695
-1.34786
-1.34978
-1.35242
-1.35576
-1.44534
-1.44232
-1.43933
-1.43736
-1.43635
-1.43893
-1.44556
-1.45466
-1.46488
-1.47606
-1.51912
-1.51325
-1.51088
-1.5116
-1.51504
-1.52227
-1.53418
-1.54938
-1.56665
-1.58559
-1.57038
-1.56099
-1.55903
-1.56316
-1.57278
-1.58602
-1.6024
-1.62308
-1.64767
-1.67469
-1.59454
-1.58213
-1.58013
-1.58519
-1.59678
-1.6142
-1.63675
-1.66411
-1.69543
-1.72909
-1.5937
-1.57867
-1.57604
-1.58075
-1.59241
-1.61101
-1.63618
-1.66758
-1.70404
-1.74251
-1.57441
-1.5574
-1.55309
-1.55531
-1.56404
-1.58
-1.60351
-1.63477
-1.67296
-1.7137
-1.54514
-1.52744
-1.52089
-1.5186
-1.52106
-1.53018
-1.54758
-1.57464
-1.61167
-1.65513
-1.06691
-0.805746
-0.570186
-0.34369
-0.206823
-0.115065
-0.0595052
-0.0278154
-0.0092004
-0.000903617
-1.19036
-0.905916
-0.613957
-0.354426
-0.201266
-0.104423
-0.0491532
-0.0199195
-0.00405951
0.000629234
-1.33253
-1.02556
-0.668329
-0.368953
-0.195609
-0.0927227
-0.0376699
-0.0111256
0.0017499
0.00247049
-1.4879
-1.16235
-0.733484
-0.387089
-0.189488
-0.0796434
-0.0248207
-0.00129351
0.00830737
0.00474584
-1.64516
-1.31118
-0.80947
-0.409547
-0.183523
-0.0656102
-0.0108497
0.00943085
0.0155233
0.00749927
-1.78737
-1.46394
-0.898468
-0.438477
-0.179839
-0.0522488
0.00314832
0.0203756
0.0229981
0.0106066
-1.90021
-1.61587
-0.997477
-0.47703
-0.181904
-0.0422372
0.0152891
0.0303415
0.0299845
0.0137385
-1.97365
-1.75893
-1.1025
-0.526663
-0.193053
-0.0386283
0.0232224
0.0377556
0.0354525
0.0163804
-2.00376
-1.8796
-1.20806
-0.585271
-0.213496
-0.0429704
0.0249872
0.0410226
0.0382341
0.0179271
-1.9866
-1.97027
-1.31468
-0.650987
-0.241249
-0.0542651
0.0205069
0.0396305
0.0377256
0.0179831
-1.98731
-2.0648
-1.38754
-0.690611
-0.259192
-0.0670884
0.0102989
0.0327889
0.033102
0.0161326
-1.97305
-2.04759
-1.35873
-0.683625
-0.270273
-0.0887998
-0.0128853
0.0146662
0.020756
0.0107339
-1.92744
-1.9231
-1.28293
-0.675704
-0.296282
-0.120082
-0.0399672
-0.0045683
0.00870016
0.00585329
-1.75801
-1.71862
-1.19168
-0.675079
-0.339357
-0.166309
-0.0749999
-0.0265471
-0.00305703
0.00236597
-1.57314
-1.52635
-1.11632
-0.686384
-0.386934
-0.212961
-0.109684
-0.0488435
-0.0149555
-0.00129256
-1.39086
-1.35738
-1.04974
-0.704768
-0.441939
-0.264456
-0.146178
-0.0725077
-0.0287375
-0.00720382
-1.209
-1.22032
-1.01366
-0.741042
-0.503285
-0.315845
-0.180463
-0.0936728
-0.0398087
-0.0108047
-1.04335
-1.12357
-1.00201
-0.779124
-0.552711
-0.35356
-0.20353
-0.106591
-0.0457343
-0.0118947
-0.931238
-1.07409
-0.995519
-0.79997
-0.579745
-0.374053
-0.216455
-0.11422
-0.0494878
-0.0128964
-0.877112
-1.07915
-1.00903
-0.80932
-0.583532
-0.377948
-0.220921
-0.117319
-0.0512921
-0.0137258
-1.37842
-1.43381
-1.46869
-1.48647
-1.49056
-1.48793
-1.48728
-1.50914
-1.56007
-1.67816
-1.22963
-1.29781
-1.34887
-1.3903
-1.42021
-1.45486
-1.49151
-1.54781
-1.6032
-1.70183
-1.09286
-1.17037
-1.2311
-1.29178
-1.33786
-1.39819
-1.45263
-1.52552
-1.60049
-1.70104
-0.96666
-1.04906
-1.11663
-1.18711
-1.24229
-1.30779
-1.36764
-1.44076
-1.51999
-1.61157
-0.853454
-0.934216
-1.00592
-1.07556
-1.13556
-1.19704
-1.25573
-1.32032
-1.38874
-1.4664
-0.753451
-0.830714
-0.902024
-0.967388
-1.0275
-1.08279
-1.13601
-1.19084
-1.24592
-1.30939
-0.669046
-0.743007
-0.811228
-0.872387
-0.928093
-0.976784
-1.02111
-1.06464
-1.10669
-1.15382
-0.601282
-0.673483
-0.739429
-0.79655
-0.848273
-0.887953
-0.921932
-0.950614
-0.976836
-1.00368
-0.562399
-0.632437
-0.695506
-0.748918
-0.79555
-0.82602
-0.852727
-0.86818
-0.88243
-0.893487
-0.546839
-0.619133
-0.683119
-0.736862
-0.779343
-0.808811
-0.829832
-0.838746
-0.846532
-0.84409
0.0794381
0.0126052
-0.0571968
-0.125532
-0.193772
-0.263583
-0.334061
-0.401484
-0.460612
-0.497887
-0.109317
-0.177875
-0.247802
-0.317893
-0.389756
-0.464485
-0.540538
-0.613499
-0.677384
-0.719224
-0.315223
-0.383075
-0.451675
-0.521559
-0.594262
-0.670519
-0.748634
-0.824302
-0.890901
-0.936054
-0.51487
-0.582633
-0.651293
-0.721836
-0.79542
-0.872463
-0.951327
-1.02802
-1.0962
-1.14261
-0.701078
-0.769766
-0.839384
-0.911091
-0.985651
-1.06281
-1.14115
-1.21812
-1.28579
-1.33273
-0.875356
-0.945572
-1.01572
-1.08776
-1.16168
-1.23662
-1.31227
-1.3875
-1.45335
-1.49906
-1.03784
-1.10873
-1.17857
-1.24838
-1.31823
-1.38839
-1.46002
-1.53155
-1.59256
-1.6346
-1.18572
-1.25494
-1.32167
-1.38659
-1.45025
-1.51426
-1.57995
-1.64462
-1.69791
-1.73483
-1.31301
-1.37755
-1.43867
-1.49693
-1.55335
-1.61003
-1.66769
-1.72289
-1.76696
-1.79852
-1.41154
-1.46952
-1.52378
-1.57464
-1.62341
-1.67203
-1.72058
-1.76538
-1.8003
-1.82715
1.17394
1.17141
1.16892
1.16606
1.16272
1.15894
1.15484
1.15108
1.15024
1.16122
1.12072
1.11537
1.10985
1.1038
1.09714
1.08985
1.08215
1.07502
1.0714
1.07995
1.05131
1.04271
1.03365
1.02388
1.01333
1.00196
0.989996
0.97874
0.971437
0.976657
0.966274
0.953674
0.940105
0.925536
0.909994
0.89339
0.876047
0.859638
0.847715
0.848836
0.865007
0.848348
0.830395
0.811103
0.790497
0.768418
0.745188
0.722822
0.705465
0.702304
0.750404
0.728823
0.705059
0.679622
0.65277
0.624324
0.594681
0.566041
0.542607
0.534203
0.622126
0.595961
0.567
0.535758
0.502482
0.466958
0.429777
0.393637
0.363141
0.349736
0.483954
0.45295
0.417638
0.379388
0.338933
0.296046
0.251341
0.207789
0.170129
0.151427
0.340523
0.304574
0.262657
0.216859
0.168393
0.117198
0.0641389
0.0125192
-0.0326965
-0.057694
0.201276
0.15442
0.101
0.045169
-0.0121392
-0.0717207
-0.132838
-0.192075
-0.244392
-0.27583
1.31683
1.2476
1.26693
1.22869
1.209
1.18681
1.17621
1.16334
1.174
1.19037
1.31496
1.24544
1.26498
1.22521
1.2049
1.18071
1.16972
1.15177
1.15591
1.15959
1.31393
1.24358
1.26314
1.22118
1.2
1.17405
1.16241
1.13773
1.13331
1.1188
1.31366
1.24206
1.2614
1.21656
1.19438
1.16702
1.15425
1.12129
1.10675
1.06829
1.31409
1.24095
1.25971
1.21143
1.18838
1.15973
1.14513
1.10267
1.07654
1.00653
1.31513
1.24035
1.25797
1.20613
1.18252
1.15186
1.135
1.08206
1.04345
0.933808
1.31671
1.24033
1.25601
1.20093
1.17669
1.14249
1.12385
1.06001
1.00831
0.849324
1.3188
1.24091
1.25385
1.19536
1.16942
1.13118
1.11193
1.03669
0.970182
0.751101
1.3216
1.24201
1.25176
1.1881
1.15975
1.11912
1.09966
1.01203
0.928445
0.63881
1.32488
1.24398
1.25018
1.179
1.14874
1.1075
1.08741
0.987217
0.886427
0.519636
1.32736
1.24767
1.25026
1.17185
1.1381
1.09546
1.07435
0.960231
0.84107
0.417083
1.33346
1.25518
1.25576
1.16957
1.13
1.08301
1.06052
0.936626
0.80832
0.435996
1.34211
1.26338
1.26472
1.17271
1.12473
1.07095
1.04408
0.912717
0.777735
0.449599
1.35314
1.27147
1.27405
1.17826
1.12053
1.05868
1.02455
0.89048
0.742986
0.45392
1.36488
1.2774
1.2788
1.18133
1.1156
1.047
1.00132
0.869295
0.705864
0.451752
1.377
1.27975
1.27559
1.17716
1.11012
1.0363
0.977023
0.853373
0.669498
0.44397
1.38979
1.27631
1.26326
1.16516
1.10396
1.02724
0.956952
0.845841
0.639039
0.436903
1.40418
1.27361
1.24813
1.15147
1.097
1.02115
0.941361
0.845978
0.617202
0.439084
1.42261
1.27642
1.23606
1.13839
1.09122
1.01709
0.929122
0.847919
0.603399
0.449552
1.46386
1.28106
1.23206
1.13693
1.09134
1.01632
0.931972
0.850139
0.602043
0.473555
0.0857962
-0.080211
-0.268553
-0.451909
-0.622696
-0.782102
-0.931319
-1.0705
-1.1956
-1.29954
0.062833
-0.0803756
-0.232467
-0.382234
-0.525107
-0.661947
-0.792697
-0.921211
-1.03976
-1.1447
0.0740792
-0.0598284
-0.192681
-0.319885
-0.44302
-0.565422
-0.685603
-0.80198
-0.909045
-1.00797
0.10129
-0.024858
-0.147706
-0.259992
-0.366181
-0.472321
-0.579307
-0.685519
-0.78634
-0.881894
0.135901
0.0188661
-0.0947348
-0.195528
-0.288363
-0.381364
-0.478773
-0.578364
-0.676207
-0.768597
0.173011
0.0690912
-0.0340478
-0.127252
-0.213312
-0.299449
-0.390287
-0.485179
-0.580035
-0.669831
0.21278
0.12349
0.0292806
-0.0604667
-0.145344
-0.229092
-0.315619
-0.406595
-0.498692
-0.58657
0.252791
0.17442
0.086657
-0.00126385
-0.087023
-0.170078
-0.254339
-0.341906
-0.430981
-0.519371
0.278701
0.204635
0.120794
0.0337268
-0.0524365
-0.13462
-0.218621
-0.307188
-0.39765
-0.484881
0.301294
0.226162
0.143795
0.0576744
-0.0285174
-0.115167
-0.204314
-0.29475
-0.383364
-0.467658
-0.711991
-0.68579
-0.64823
-0.605738
-0.562602
-0.522862
-0.487808
-0.456893
-0.431741
-0.411536
-0.802383
-0.775873
-0.739809
-0.697652
-0.654981
-0.615643
-0.581397
-0.551699
-0.527608
-0.510503
-0.86534
-0.839394
-0.80615
-0.765993
-0.72538
-0.687239
-0.653922
-0.626096
-0.603241
-0.586714
-0.902428
-0.877864
-0.848832
-0.812588
-0.774249
-0.737765
-0.70585
-0.679574
-0.65803
-0.641744
-0.918025
-0.895702
-0.871836
-0.840599
-0.805486
-0.770921
-0.739986
-0.714366
-0.693713
-0.677659
-0.918518
-0.899284
-0.880444
-0.854487
-0.823284
-0.790913
-0.760545
-0.734495
-0.713565
-0.697341
-0.909879
-0.894292
-0.87972
-0.858435
-0.830937
-0.800582
-0.770514
-0.743216
-0.720469
-0.70297
-0.895597
-0.883956
-0.87275
-0.85518
-0.830861
-0.802308
-0.772632
-0.744329
-0.719613
-0.700497
-0.876507
-0.868757
-0.859844
-0.844841
-0.823079
-0.796298
-0.767283
-0.738412
-0.712162
-0.692651
-0.853611
-0.849156
-0.841341
-0.827616
-0.807708
-0.782921
-0.755463
-0.72735
-0.700447
-0.679872
-0.831131
-0.829137
-0.821692
-0.80836
-0.789848
-0.767432
-0.742742
-0.717553
-0.69255
-0.666778
-0.815615
-0.815224
-0.808196
-0.795118
-0.777925
-0.758217
-0.736924
-0.715178
-0.693161
-0.668557
-0.811287
-0.811842
-0.805758
-0.793729
-0.777003
-0.760227
-0.742734
-0.724511
-0.705294
-0.683105
-0.818281
-0.819771
-0.816006
-0.807106
-0.790984
-0.774446
-0.759994
-0.744351
-0.726963
-0.706672
-0.830551
-0.832728
-0.829606
-0.823261
-0.811868
-0.798005
-0.785368
-0.770559
-0.753534
-0.7335
-0.853313
-0.856948
-0.854993
-0.850137
-0.841221
-0.827341
-0.812796
-0.798397
-0.783164
-0.766416
-0.891837
-0.896852
-0.895987
-0.891646
-0.882852
-0.869489
-0.854394
-0.839305
-0.823986
-0.808259
-0.944197
-0.94979
-0.948749
-0.943531
-0.934398
-0.922066
-0.907885
-0.892938
-0.877603
-0.862295
-1.00923
-1.01469
-1.01296
-1.00695
-0.997711
-0.986318
-0.973508
-0.95979
-0.945545
-0.931373
-1.08631
-1.09102
-1.08865
-1.0824
-1.07364
-1.06353
-1.05261
-1.04103
-1.029
-1.01696
-0.632827
-0.529471
-0.463099
-0.379601
-0.290075
-0.206959
-0.138078
-0.0847276
-0.0449097
-0.01259
-0.645329
-0.527098
-0.458453
-0.365422
-0.278523
-0.197837
-0.131358
-0.0804307
-0.0425197
-0.0118828
-0.662055
-0.527606
-0.456739
-0.357767
-0.2682
-0.188667
-0.124244
-0.0755568
-0.0395176
-0.0107846
-0.682358
-0.532293
-0.458013
-0.350635
-0.258726
-0.179577
-0.116916
-0.0703556
-0.0362002
-0.00951584
-0.705909
-0.541793
-0.461613
-0.34407
-0.249716
-0.170523
-0.10942
-0.0649288
-0.0327119
-0.00822319
-0.733343
-0.557194
-0.467568
-0.33848
-0.241176
-0.16154
-0.101814
-0.059361
-0.0291497
-0.0069749
-0.768511
-0.580946
-0.477004
-0.334444
-0.233185
-0.152609
-0.094086
-0.0536727
-0.0255485
-0.00578786
-0.816857
-0.614743
-0.490774
-0.332511
-0.225782
-0.143633
-0.0861348
-0.047795
-0.0218588
-0.00463599
-0.881237
-0.661738
-0.510034
-0.333142
-0.218958
-0.134481
-0.0778207
-0.0416113
-0.0179799
-0.00347141
-0.964023
-0.724812
-0.536036
-0.336728
-0.212666
-0.125012
-0.0689966
-0.0349954
-0.0137991
-0.00224486
-0.606766
-0.532824
-0.467617
-0.384161
-0.292916
-0.209599
-0.140901
-0.0858043
-0.044472
-0.0125456
-0.599123
-0.52648
-0.465363
-0.384573
-0.294139
-0.210888
-0.141936
-0.08661
-0.0448659
-0.0125703
-0.596918
-0.522541
-0.462708
-0.384591
-0.294151
-0.211056
-0.14198
-0.0866368
-0.0449473
-0.0124265
-0.598641
-0.519504
-0.458192
-0.382053
-0.295059
-0.211861
-0.142361
-0.0870659
-0.0455171
-0.0125237
-0.60961
-0.521344
-0.4574
-0.377599
-0.295307
-0.21187
-0.142028
-0.087138
-0.0460104
-0.0127914
-0.397292
-0.492192
-0.56596
-0.619333
-0.65494
-0.67561
-0.683442
-0.681326
-0.670715
-0.649319
-0.394905
-0.490385
-0.563428
-0.615343
-0.649292
-0.668997
-0.676534
-0.674438
-0.665581
-0.644124
-0.395669
-0.491896
-0.56514
-0.616971
-0.650643
-0.670002
-0.67608
-0.673112
-0.662228
-0.642686
-0.398266
-0.49586
-0.569901
-0.62229
-0.656156
-0.675002
-0.679393
-0.674678
-0.661876
-0.646395
-0.403086
-0.502266
-0.57751
-0.630938
-0.665454
-0.684
-0.687672
-0.68159
-0.668749
-0.659496
0.942409
0.936777
0.928311
0.919542
0.911157
0.90284
0.894695
0.887717
0.884113
0.889718
1.01131
1.00994
1.00603
1.00128
0.996353
0.991149
0.985817
0.981271
0.979864
0.987893
1.0727
1.073
1.07158
1.06959
1.06749
1.06521
1.06278
1.06075
1.06126
1.0711
1.1276
1.1294
1.13009
1.13035
1.13046
1.13032
1.12984
1.12921
1.13053
1.1416
1.17266
1.17532
1.17743
1.17927
1.18095
1.18239
1.18335
1.18367
1.18524
1.19672
1.20716
1.21038
1.21347
1.21643
1.21928
1.22195
1.22414
1.22536
1.22693
1.23679
1.22941
1.23263
1.23604
1.23944
1.24277
1.24605
1.24913
1.25141
1.25315
1.26011
1.23801
1.24059
1.24347
1.24629
1.24895
1.25149
1.25378
1.25549
1.25775
1.26888
1.23208
1.23347
1.23514
1.23664
1.23787
1.23884
1.23951
1.23981
1.24156
1.25467
1.2109
1.21057
1.21044
1.21005
1.2093
1.2082
1.20683
1.20547
1.20637
1.219
-0.292443
-0.313929
-0.341249
-0.373247
-0.409068
-0.448391
-0.490307
-0.533492
-0.570746
-0.595422
-0.154181
-0.178638
-0.207635
-0.240282
-0.276216
-0.315175
-0.356088
-0.396787
-0.433318
-0.455855
-0.00371625
-0.0309819
-0.0614282
-0.0944844
-0.129988
-0.167757
-0.206789
-0.244923
-0.278905
-0.29829
0.148759
0.119854
0.0888904
0.0563558
0.0223373
-0.0130975
-0.0492024
-0.0840205
-0.114407
-0.129404
0.29492
0.266171
0.236329
0.205868
0.174674
0.14256
0.110057
0.0791212
0.053234
0.0421702
0.430461
0.403922
0.377097
0.350177
0.32272
0.294439
0.265905
0.239211
0.217924
0.210499
0.554169
0.531483
0.508975
0.486305
0.462844
0.438485
0.414006
0.391612
0.374747
0.370787
0.668347
0.64997
0.631799
0.613075
0.593268
0.572547
0.551878
0.533504
0.52058
0.519468
0.778143
0.762603
0.746756
0.730437
0.7134
0.695873
0.678807
0.664202
0.654685
0.655798
0.880525
0.866476
0.850652
0.835421
0.820859
0.806747
0.793537
0.78258
0.775999
0.779146
1.39198
1.28054
1.28155
1.23133
1.21695
1.19883
1.17542
1.15162
1.1123
1.03756
1.37874
1.27614
1.28206
1.23435
1.2191
1.20216
1.18119
1.15981
1.13227
1.08127
1.36692
1.27243
1.28173
1.23631
1.22031
1.20434
1.18589
1.16841
1.15342
1.12334
1.35658
1.26882
1.28087
1.23766
1.22093
1.20564
1.18957
1.17585
1.17091
1.15908
1.34761
1.26526
1.27951
1.2383
1.22094
1.20593
1.19187
1.18116
1.18415
1.18747
1.33987
1.2618
1.27771
1.23821
1.2203
1.20513
1.19264
1.18416
1.19334
1.20847
1.33327
1.25853
1.27562
1.23744
1.21907
1.20329
1.19192
1.18483
1.19845
1.22176
1.32772
1.25547
1.2734
1.23606
1.21733
1.20047
1.18981
1.18313
1.1993
1.22699
1.32316
1.25262
1.27117
1.23413
1.21511
1.19675
1.1864
1.17901
1.19567
1.22376
1.31955
1.25
1.269
1.23166
1.21237
1.19217
1.18182
1.17242
1.18727
1.21167
1.5104
1.29061
1.26536
1.21041
1.20211
1.18092
1.15064
1.11624
1.05447
0.96643
1.4727
1.29427
1.27165
1.21351
1.20439
1.18285
1.15186
1.11702
1.05323
0.958504
1.44879
1.2929
1.27486
1.21669
1.20632
1.1854
1.15482
1.12121
1.05882
0.961713
1.4256
1.29115
1.27833
1.22187
1.2098
1.18976
1.16099
1.13007
1.06855
0.971793
1.40695
1.28705
1.2803
1.22685
1.21348
1.19429
1.16784
1.13846
1.08369
0.986131
0.802533
0.732479
0.646807
0.544089
0.425058
0.290705
0.145237
-0.00434919
-0.149439
-0.281964
0.795775
0.726277
0.64159
0.540908
0.425089
0.294033
0.150569
0.00116484
-0.145238
-0.27921
0.805732
0.734506
0.647758
0.546208
0.430371
0.299561
0.156036
0.00574996
-0.142299
-0.278166
0.827276
0.748307
0.656454
0.55295
0.436062
0.304563
0.16037
0.00883932
-0.141094
-0.279045
0.864086
0.770054
0.667854
0.559862
0.440657
0.3078
0.162676
0.0098829
-0.141967
-0.282098
)
;

boundaryField
{
    left
    {
        type            zeroGradient;
    }
    right
    {
        type            fixedValue;
        value           uniform 0;
    }
    down
    {
        type            zeroGradient;
    }
    up
    {
        type            zeroGradient;
    }
    cylinder
    {
        type            zeroGradient;
    }
    defaultFaces
    {
        type            empty;
    }
}


// ************************************************************************* //
