/*--------------------------------*- C++ -*----------------------------------*\
| =========                 |                                                 |
| \\      /  F ield         | OpenFOAM: The Open Source CFD Toolbox           |
|  \\    /   O peration     | Version:  2406                                  |
|   \\  /    A nd           | Website:  www.openfoam.com                      |
|    \\/     M anipulation  |                                                 |
\*---------------------------------------------------------------------------*/
FoamFile
{
    version     2.0;
    format      ascii;
    arch        "LSB;label=32;scalar=64";
    class       surfaceScalarField;
    location    "0.8";
    object      phi;
}
// * * * * * * * * * * * * * * * * * * * * * * * * * * * * * * * * * * * * * //

dimensions      [0 3 -1 0 0 0 0];

oriented        oriented;

internalField   nonuniform List<scalar> 
3485
(
0.00159963
0.000727892
-0.00232753
0.00657873
0.00342581
-0.0084049
0.0143668
0.00505757
-0.0128456
0.024882
0.0041068
-0.014622
0.0382165
0.000615805
-0.0139503
0.0545021
-0.00481949
-0.0114661
0.0736912
-0.0112975
-0.00789162
0.0957795
-0.0182803
-0.003808
0.121043
-0.026065
0.000801438
-0.0300782
0.00426653
0.146855
0.000587283
0.000140609
0.00343036
0.00058273
0.00966564
-0.0011777
0.0197312
-0.00595873
0.0334586
-0.0131116
0.0502237
-0.0215845
0.0694174
-0.0304912
0.0904762
-0.0393391
0.112699
-0.0482879
-0.0536896
0.13631
1.43261e-05
0.000126283
0.00236103
-0.00176398
0.00919401
-0.00801068
0.0206129
-0.0173776
0.035879
-0.0283778
0.0539977
-0.0397032
0.0740232
-0.0505168
0.095196
-0.0605118
0.116788
-0.0698799
-0.0758202
0.138919
0.0003666
-0.000240317
0.00437836
-0.00577573
0.0133093
-0.0169416
0.0268621
-0.0309304
0.0438385
-0.0453542
0.0629209
-0.0587855
0.0830704
-0.0706663
0.103639
-0.0810802
0.124248
-0.0904892
-0.0966833
0.145111
0.00114716
-0.00138748
0.00751462
-0.0121432
0.0192437
-0.0286707
0.0350794
-0.0467661
0.0533014
-0.0635762
0.0724885
-0.0779726
0.0918302
-0.090008
0.111089
-0.100339
0.130346
-0.109746
-0.117185
0.150848
0.00233006
-0.00371754
0.0110277
-0.0208408
0.0250697
-0.0427128
0.0421402
-0.0638365
0.0601359
-0.0815719
0.077884
-0.0957206
0.0951241
-0.107248
0.112209
-0.117425
0.129772
-0.127309
-0.13691
0.149497
0.00358142
-0.00729896
0.0143617
-0.0316211
0.0297162
-0.0580673
0.0464803
-0.0806006
0.0627463
-0.097838
0.0780239
-0.110998
0.0927226
-0.121947
0.107637
-0.132339
0.123568
-0.14324
-0.154756
0.141415
0.00480307
-0.012102
0.0169953
-0.0438133
0.0322747
-0.0733468
0.0473571
-0.095683
0.0611015
-0.111582
0.0737609
-0.123658
0.0861288
-0.134315
0.0990189
-0.145229
0.112851
-0.157072
-0.169238
0.127333
0.00583779
-0.0179398
0.0184776
-0.0564531
0.0325455
-0.0874146
0.0453968
-0.108534
0.0567104
-0.122896
0.0670889
-0.134036
0.0772495
-0.144475
0.0876484
-0.155628
0.0981314
-0.167555
-0.178935
0.107828
0.00652589
-0.0244657
0.0187305
-0.0686577
0.0310904
-0.0997746
0.0418194
-0.119263
0.0510325
-0.132109
0.0592739
-0.142278
0.066965
-0.152166
0.0742176
-0.162881
0.0807074
-0.174044
0.0859427
-0.18417
-0.00211083
0.0210052
-0.0188944
-0.00599331
0.0379918
-0.0341093
-0.0104056
0.0441398
-0.0397275
-0.0149729
0.0463492
-0.041782
-0.0195461
0.0467512
-0.042178
-0.0240086
0.0460016
-0.0415391
-0.0282731
0.044394
-0.0401295
-0.0322678
0.0420438
-0.0380491
-0.0359195
0.039011
-0.0353593
0.0354238
-0.039165
-0.0321783
-0.00150095
0.0225061
-0.00461622
0.0411071
-0.00825187
0.0477754
-0.0120651
0.0501625
-0.0160107
0.0506967
-0.0199819
0.0499728
-0.0238918
0.0483039
-0.0276731
0.0458251
-0.0312515
0.0425894
0.0387277
-0.0345555
-0.000650636
0.0231568
-0.00264071
0.0430971
-0.00512736
0.0502621
-0.0076024
0.0526376
-0.0101988
0.0532931
-0.013089
0.052863
-0.0161667
0.0513816
-0.019265
0.0489234
-0.0222852
0.0456097
0.0415923
-0.0251498
0.000266601
0.0228902
-0.000289989
0.0436537
-0.00117646
0.0511486
-0.00188587
0.053347
-0.00257063
0.0539779
-0.0036121
0.0539045
-0.0051721
0.0529416
-0.00707412
0.0508254
-0.00906277
0.0475983
0.0434777
-0.0109482
0.00187325
0.0210169
0.00379647
0.0417305
0.00516018
0.0497849
0.00603651
0.0524706
0.0066758
0.0533386
0.00724178
0.0533385
0.00761007
0.0525733
0.00764169
0.0507938
0.0073987
0.0478413
0.0437914
0.007085
0.003342
0.0176749
0.00767808
0.0373944
0.0113828
0.0460801
0.0143063
0.0495472
0.0168119
0.050833
0.0192322
0.0509182
0.0217121
0.0500934
0.0241636
0.0483423
0.0265013
0.0455036
0.0413707
0.028922
0.00418741
0.0134875
0.0105084
0.0310734
0.0165845
0.040004
0.0220686
0.0440631
0.0272418
0.0456598
0.0323334
0.0458266
0.037451
0.0449759
0.042576
0.0432172
0.047684
0.0403956
0.0360478
0.0530069
0.00438629
0.00910122
0.012047
0.0234128
0.0202748
0.0317761
0.0284135
0.0359244
0.0365419
0.0375314
0.0448074
0.037561
0.0532537
0.0365296
0.0617936
0.0346774
0.0702827
0.0319065
0.0273113
0.0790193
0.00393902
0.0051622
0.0119684
0.0153834
0.0215699
0.0221746
0.0318847
0.0256096
0.0428398
0.0265764
0.0545375
0.0258633
0.0669772
0.02409
0.0799552
0.0216993
0.0930472
0.0188145
0.0142054
0.106153
0.00283468
0.00981313
0.0191421
0.0301297
0.0427557
0.0571529
0.0733512
0.0912425
0.110858
0.12933
-0.033128
0.127185
-0.133222
0.0135734
-0.155759
0.109058
0.0580877
-0.233503
0.188989
0.0952161
-0.25353
0.216401
0.121785
-0.229397
0.202828
0.139002
-0.18982
0.172602
0.149244
-0.148291
0.138049
0.154713
-0.109322
0.103853
0.157348
-0.0776351
0.075
-0.0372167
0.0371866
-0.0376854
0.130315
0.0019641
-0.195409
0.0492294
-0.280768
0.0895
-0.2938
0.118915
-0.258812
0.138001
-0.208906
0.149394
-0.159684
0.155545
-0.115473
0.158727
-0.080817
-0.0375031
-0.0382934
0.143458
-0.00731806
-0.226384
0.0415856
-0.329672
0.0841895
-0.336404
0.115927
-0.290549
0.136649
-0.229628
0.149181
-0.172216
0.156087
-0.122379
0.159968
-0.0846986
-0.0382114
-0.031737
0.164247
-0.00899457
-0.249127
0.0394245
-0.378091
0.0824736
-0.379453
0.114891
-0.322967
0.136224
-0.250962
0.149404
-0.185396
0.156873
-0.129848
0.161459
-0.0892841
-0.0394645
-0.0156788
0.187011
0.00141134
-0.266217
0.0473612
-0.424041
0.0885329
-0.420625
0.119018
-0.353451
0.13896
-0.270904
0.151551
-0.197987
0.158916
-0.137213
0.163927
-0.0942953
-0.0412886
0.00886193
0.207071
0.0226863
-0.280041
0.0670267
-0.468381
0.105418
-0.459017
0.131811
-0.379844
0.147959
-0.287052
0.158005
-0.208034
0.16398
-0.143188
0.168683
-0.0989983
-0.0435255
0.0376563
0.222422
0.0512718
-0.293657
0.0933835
-0.510493
0.131014
-0.496647
0.154107
-0.402937
0.165582
-0.298528
0.171432
-0.213883
0.174513
-0.146269
0.177755
-0.102241
-0.0457923
0.0684227
0.233018
0.0782775
-0.303511
0.117202
-0.549417
0.157389
-0.536833
0.181386
-0.426934
0.190537
-0.307678
0.1926
-0.215946
0.192304
-0.145974
0.193205
-0.103141
-0.0477188
0.0981138
0.241057
0.100123
-0.30552
0.1337
-0.582995
0.177215
-0.580348
0.20638
-0.456099
0.217531
-0.318829
0.218543
-0.216959
0.216251
-0.143681
0.215197
-0.102087
-0.0494446
0.127673
0.242715
0.120488
-0.298335
0.145293
-0.6078
0.18948
-0.624535
0.224398
-0.491018
0.240651
-0.335083
0.243925
-0.220233
0.242119
-0.141875
0.240806
-0.100774
-0.0517811
0.345765
0.132173
-0.235223
0.434902
-0.387472
0.478808
-0.651707
0.496738
-0.642464
0.498028
-0.492308
0.486418
-0.323472
0.466374
-0.200189
0.445858
-0.121359
0.42954
-0.0844559
-0.0447815
0.541436
-0.00483372
-0.40443
0.625485
-0.471521
0.632343
-0.658565
0.600294
-0.610415
0.56452
-0.456533
0.536279
-0.295231
0.512755
-0.176665
0.493423
-0.102027
0.478235
-0.0692683
-0.0376804
0.746489
-0.116655
-0.634668
0.781951
-0.506983
0.750918
-0.627532
0.691948
-0.551446
0.631743
-0.396328
0.58425
-0.247738
0.550851
-0.143266
0.528402
-0.0795788
0.512296
-0.0531618
-0.0301873
0.869703
-0.186813
-0.799545
0.853078
-0.490358
0.790143
-0.564597
0.719123
-0.480425
0.653879
-0.331084
0.602329
-0.196189
0.566243
-0.107179
0.542726
-0.0560625
0.525995
-0.036431
-0.0226435
0.930894
-0.223352
-0.894356
0.902003
-0.461466
0.833873
-0.496467
0.751602
-0.398155
0.672344
-0.251826
0.610433
-0.134277
0.569264
-0.0660098
0.544024
-0.030823
0.526861
-0.0192679
-0.0150439
0.963704
-0.242482
-0.944574
0.915247
-0.41301
0.826684
-0.407903
0.732835
-0.304306
0.652452
-0.171443
0.593307
-0.075132
0.555418
-0.0281208
0.533135
-0.00853983
0.518821
-0.00495466
-0.00809573
0.966595
-0.246192
-0.962886
0.897701
-0.344116
0.788153
-0.298355
0.679203
-0.195356
0.59703
-0.0892695
0.545125
-0.0232273
0.515706
0.00129856
0.499956
0.00720951
0.490166
0.00483594
-0.00242041
0.90033
-0.219908
-0.926614
0.791793
-0.235579
0.657449
-0.164011
0.545803
-0.0837106
0.477714
-0.02118
0.444455
0.0100319
0.429577
0.0161766
0.423228
0.0135582
0.419435
0.00862884
0.00092603
0.663627
-0.125729
-0.757806
0.51338
-0.0853314
0.387026
-0.0376577
0.312006
-0.0086904
0.283304
0.00752202
0.279533
0.0138032
0.282949
0.0127603
0.287221
0.00928665
0.290011
0.00583847
0.00139641
0.186049
-0.311778
0.100718
0.0630601
0.0543697
0.0618917
0.0756949
0.0884552
0.0977418
0.10358
0.549587
0.0833221
-0.546966
0.547429
0.109986
0.53854
0.136222
0.517574
0.162381
0.484709
0.182363
0.436848
0.198708
0.380587
0.201373
0.320329
0.199176
0.267351
0.189288
0.178983
0.582407
0.0751718
-0.574256
0.58814
0.104253
0.595521
0.12884
0.597055
0.160847
0.594126
0.185292
0.580736
0.212098
0.55391
0.228199
0.515332
0.237755
0.456986
0.247634
0.23154
0.607198
0.0659815
-0.598008
0.617164
0.0942865
0.629883
0.116121
0.64406
0.14667
0.658488
0.170864
0.670698
0.199889
0.676078
0.222819
0.673316
0.240516
0.662023
0.258927
0.258895
0.627595
0.0562097
-0.617824
0.641096
0.0807854
0.656407
0.10081
0.676032
0.127045
0.698457
0.148438
0.72229
0.176056
0.747821
0.197288
0.768296
0.220042
0.790231
0.236992
0.249581
0.640773
0.0447662
-0.629329
0.657009
0.064549
0.67531
0.0825095
0.698564
0.103792
0.724985
0.122017
0.755606
0.145434
0.789528
0.163366
0.823973
0.185597
0.860974
0.199991
0.216199
0.644513
0.0316643
-0.631411
0.662575
0.0464869
0.683679
0.0614053
0.709844
0.0776268
0.739195
0.0926662
0.773864
0.110765
0.811841
0.125389
0.853885
0.143553
0.898868
0.155008
0.170493
0.633339
0.0180731
-0.619748
0.651997
0.0278287
0.674511
0.0388918
0.702485
0.0496524
0.733897
0.0612542
0.771113
0.073549
0.812387
0.0841157
0.858623
0.0973172
0.909672
0.103959
0.117279
0.592964
0.00582323
-0.580714
0.609979
0.0108144
0.631667
0.017203
0.658108
0.0232117
0.688925
0.0304369
0.725556
0.0369186
0.76689
0.0427817
0.814758
0.0494492
0.867509
0.0512075
0.0581744
0.490439
-0.00174171
-0.482874
0.501468
-0.000215146
0.51667
0.00200088
0.536027
0.0038553
0.560383
0.00608056
0.589927
0.00737503
0.624092
0.008616
0.664497
0.00904474
0.707587
0.00811776
0.00795465
0.258948
-0.26069
0.258733
0.260734
0.264589
0.27067
0.278045
0.286661
0.295705
0.303823
0.0606574
0.134438
-0.12219
-0.0729052
0.0504642
0.132213
-0.12202
0.0416883
0.130637
-0.121861
0.0337361
0.129622
-0.12167
0.026283
0.128758
-0.121305
0.0192433
0.127525
-0.120486
0.012665
0.12489
-0.118311
0.00669509
0.118727
-0.112757
0.0019807
0.102139
-0.0974247
0.0555154
-0.0535347
0.0581967
0.144847
-0.0686052
0.0484942
0.141916
0.0396931
0.139438
0.0316937
0.137621
0.0242969
0.136155
0.0174275
0.134395
0.0111296
0.131188
0.00556481
0.124291
0.00145522
0.106249
0.0569706
0.0504142
0.153904
-0.059472
0.0418451
0.150485
0.0339709
0.147312
0.0267493
0.144843
0.0200624
0.142841
0.0139004
0.140557
0.00833635
0.136752
0.0035911
0.129037
0.000474975
0.109365
0.0574456
0.0375903
0.16181
-0.0454955
0.030278
0.157797
0.0236616
0.153929
0.0176822
0.150822
0.0122929
0.148231
0.00753433
0.145315
0.00341738
0.140869
0.000189654
0.132264
-0.000944772
0.110499
0.0565008
0.022139
0.169082
-0.0294114
0.01567
0.164266
0.0101458
0.159453
0.00554734
0.155421
0.00184404
0.151934
-0.00101546
0.148175
-0.00312652
0.14298
-0.00396777
0.133106
-0.0026466
0.109178
0.0538542
0.00494826
0.175518
-0.0113846
-0.000522634
0.169737
-0.00481225
0.163742
-0.00782357
0.158432
-0.0096712
0.153782
-0.010527
0.14903
-0.0103262
0.142779
-0.008385
0.131164
-0.00424382
0.105037
0.0496104
-0.0120227
0.180802
0.00673909
-0.0162529
0.173967
-0.0191214
0.166611
-0.0205276
0.159838
-0.0206104
0.153865
-0.019459
0.147879
-0.0167944
0.140114
-0.012068
0.126438
-0.00544574
0.0984147
0.0441646
-0.0283522
0.184379
0.0247746
-0.0308886
0.176504
-0.032077
0.167799
-0.0317779
0.159539
-0.0300274
0.152114
-0.0268039
0.144656
-0.0218203
0.135131
-0.0147589
0.119377
-0.00622825
0.089884
0.0379364
-0.044961
0.185663
0.0436777
-0.0451983
0.176741
-0.0441632
0.166764
-0.0417477
0.157123
-0.0379341
0.1483
-0.0326477
0.139369
-0.0256307
0.128114
-0.0166721
0.110418
-0.00667478
0.0798867
0.0312616
-0.0623389
0.0638312
-0.0596422
-0.0557588
-0.0508017
-0.0447787
-0.0375186
-0.0286684
-0.0180249
-0.00679589
0.0783012
0.0391651
-0.0880703
-0.029396
0.0686055
0.0396537
-0.0299579
0.0589901
0.0400625
-0.0304471
0.0494619
0.0403865
-0.0308583
0.0400169
0.0406122
-0.0311672
0.030656
0.0406115
-0.0312506
0.0214295
0.0399681
-0.0307416
0.0125368
0.0377221
-0.0288293
0.00464774
0.0318444
-0.0239553
0.0173647
-0.0127169
0.0795739
0.049045
-0.0894539
0.069734
0.0494936
0.0599635
0.0498329
0.0502735
0.0500766
0.0406676
0.0502181
0.0311516
0.0501275
0.0217746
0.0493451
0.012729
0.0467676
0.004698
0.0398754
0.0220627
0.080352
0.0589812
-0.0902882
0.070509
0.0593366
0.0607373
0.0596046
0.0510344
0.0597794
0.0413847
0.0598678
0.0317823
0.0597299
0.0222805
0.0588469
0.0130777
0.0559704
0.0048529
0.0481002
0.0269156
0.0786433
0.0689007
-0.0885628
0.0687697
0.0692103
0.0590125
0.0693619
0.0493854
0.0694065
0.0398862
0.069367
0.0305087
0.0691074
0.0212864
0.0680691
0.0123929
0.0648639
0.00450856
0.0559846
0.0314241
0.0805725
0.0788229
-0.0904948
0.070728
0.0790548
0.0609008
0.079189
0.0510964
0.0792109
0.0413263
0.0791371
0.0316232
0.0788105
0.0220751
0.0776172
0.0128864
0.0740527
0.00472353
0.0641474
0.0361477
0.0750691
0.0884342
-0.0846804
0.0655703
0.0885537
0.0562357
0.0885236
0.0470623
0.0883842
0.0380117
0.0881877
0.0290494
0.0877729
0.0202091
0.0864575
0.011677
0.0825848
0.00415315
0.0716712
0.0403008
0.0742862
0.0980423
-0.0838944
0.0648445
0.0979954
0.0555023
0.0978658
0.0462551
0.0976315
0.0371297
0.0973131
0.028171
0.0967315
0.0194625
0.095166
0.0111822
0.0908652
0.00395119
0.0789022
0.044252
0.0704447
0.107352
-0.0797544
0.0613558
0.107084
0.0524861
0.106736
0.0437819
0.106336
0.0351753
0.10592
0.0266608
0.105246
0.0183318
0.103495
0.0104106
0.0987863
0.00360051
0.0857123
0.0478525
0.0657243
0.115355
-0.0737272
0.0577078
0.115101
0.0494686
0.114975
0.0411597
0.114645
0.0329067
0.114173
0.0247893
0.113363
0.0169134
0.111371
0.00947514
0.106225
0.00317533
0.0920122
0.0510279
0.0564768
-0.0633122
0.0495575
0.042671
0.035646
0.0285141
0.0213919
0.0144516
0.00791941
0.00250682
0.202581
0.00248389
-0.00707512
0.20049
0.140541
-0.13845
0.194822
0.193498
-0.187831
0.19011
0.175718
-0.171007
0.186546
0.15211
-0.148546
0.182851
0.147358
-0.143663
0.176625
0.149274
-0.143048
0.165996
0.17406
-0.163431
0.139588
0.209174
-0.182767
0.28801
-0.236492
0.202295
-0.00182173
0.199304
0.143533
0.192941
0.199861
0.187764
0.180895
0.183996
0.155879
0.180644
0.15071
0.175359
0.154559
0.165162
0.184257
0.139684
0.234653
0.33824
0.201919
-0.00575073
0.197815
0.147637
0.190454
0.207222
0.184471
0.186879
0.180304
0.160046
0.177127
0.153886
0.172567
0.159119
0.162505
0.194319
0.138373
0.258785
0.386325
0.201473
-0.00923431
0.196046
0.153065
0.187276
0.215991
0.18023
0.193925
0.175705
0.164571
0.172608
0.156983
0.168387
0.163341
0.158183
0.204523
0.135145
0.281824
0.432906
0.201004
-0.012248
0.194026
0.160043
0.18334
0.226677
0.175294
0.20197
0.170651
0.169214
0.16737
0.160264
0.16297
0.16774
0.152131
0.215363
0.13214
0.301814
0.474552
0.200549
-0.0148069
0.19176
0.168831
0.178841
0.239597
0.170341
0.21047
0.165638
0.173917
0.161567
0.164335
0.156527
0.172781
0.145055
0.226834
0.126217
0.320653
0.516088
0.200084
-0.0169009
0.189306
0.179608
0.174463
0.254441
0.166146
0.218787
0.160898
0.179164
0.155373
0.169861
0.149536
0.178617
0.13671
0.23966
0.120783
0.33658
0.552977
0.199501
-0.0184122
0.186963
0.192146
0.170998
0.270406
0.162891
0.226894
0.156598
0.185457
0.149425
0.177034
0.142749
0.185293
0.128474
0.253935
0.115696
0.349358
0.588919
0.198648
-0.0190707
0.185198
0.205596
0.169032
0.286572
0.160632
0.235294
0.153704
0.192385
0.145515
0.185223
0.137849
0.192959
0.122263
0.26952
0.108861
0.36276
0.624053
0.197506
-0.0185868
0.184333
0.218769
0.169109
0.301797
0.16109
0.243312
0.154845
0.19863
0.145729
0.194339
0.135252
0.203436
0.115754
0.289018
0.105252
0.373262
0.665992
0.310227
-0.0268032
0.31553
0.213465
0.316576
0.300751
0.318221
0.241667
0.323894
0.192958
0.322808
0.195425
0.328486
0.197759
0.328325
0.289179
0.376
0.325587
0.591905
0.450087
0.308683
-0.033476
0.331247
0.190901
0.351224
0.280775
0.364714
0.228177
0.375709
0.181963
0.383804
0.187329
0.388808
0.192755
0.399134
0.278853
0.42466
0.300061
0.53675
0.479815
0.305822
-0.0372881
0.345602
0.151121
0.38501
0.241367
0.410082
0.203104
0.424306
0.167739
0.444448
0.167187
0.446614
0.19059
0.471284
0.254183
0.493529
0.277817
0.489451
0.540827
0.302748
-0.0380261
0.353573
0.100297
0.408298
0.186642
0.442905
0.168497
0.459757
0.150887
0.488902
0.138041
0.494281
0.185211
0.523421
0.225043
0.559822
0.241415
0.438967
0.610307
0.300646
-0.0366617
0.354845
0.0460974
0.419281
0.122206
0.46017
0.127608
0.481156
0.1299
0.512935
0.106262
0.525795
0.172352
0.554442
0.196395
0.605301
0.190557
0.377624
0.666643
0.300491
-0.0351425
0.352434
-0.00584585
0.41959
0.055051
0.463012
0.0841854
0.489735
0.103178
0.519238
0.0767596
0.541508
0.150081
0.57307
0.164834
0.626531
0.137096
0.311317
0.692838
0.302521
-0.035653
0.346768
-0.0500933
0.407723
-0.00590343
0.448867
0.0430408
0.481175
0.0708695
0.506887
0.0510484
0.539164
0.117804
0.578014
0.125983
0.62228
0.0928302
0.241019
0.692578
0.307816
-0.041459
0.33573
-0.0780074
0.374732
-0.0449055
0.405597
0.0121762
0.439704
0.0367626
0.460096
0.0306566
0.500848
0.0770517
0.549595
0.0772361
0.581589
0.0608364
0.162212
0.660396
0.305509
-0.0449581
0.298329
-0.0708271
0.297417
-0.0439936
0.310306
-0.000712217
0.335693
0.0113749
0.352764
0.0135857
0.398408
0.0314082
0.443797
0.0318472
0.47497
0.0296633
0.0704843
0.566697
0.257052
0.186225
0.142231
0.141519
0.152894
0.16648
0.197888
0.229735
0.259398
0.329883
0.464846
-0.087664
0.473018
-0.0767773
0.481082
-0.067536
0.489854
-0.0542673
0.500903
-0.0404611
0.512443
-0.0229243
0.524488
-0.00530578
0.53433
0.014933
0.542248
0.0357598
0.0591125
0.489551
-0.0974004
0.499857
-0.0870829
0.509665
-0.0773442
0.519351
-0.0639536
0.529611
-0.0507207
0.539229
-0.032543
0.549931
-0.0160072
0.558761
0.00610286
0.567827
0.0266939
0.0526828
0.54476
-0.101333
0.551716
-0.0940395
0.557935
-0.0835626
0.563498
-0.0695172
0.568264
-0.0554862
0.573158
-0.0374375
0.578365
-0.0212137
0.583405
0.00106329
0.590679
0.0194192
0.0453547
0.608573
-0.0995991
0.606557
-0.0920236
0.604282
-0.0812874
0.602587
-0.0678221
0.600737
-0.0536362
0.600391
-0.0370917
0.600636
-0.0214584
0.604317
-0.00261794
0.60918
0.014556
0.0367111
0.655854
-0.0888097
0.644493
-0.0806624
0.633916
-0.0707113
0.625276
-0.0591813
0.61835
-0.0467104
0.61443
-0.0331715
0.612617
-0.0196455
0.615213
-0.00521438
0.619764
0.0100053
0.0271455
0.675374
-0.071346
0.657792
-0.0630802
0.642451
-0.0553701
0.630265
-0.046996
0.621268
-0.0377134
0.615973
-0.027876
0.614033
-0.017705
0.616202
-0.0073839
0.621447
0.00476031
0.0171817
0.67001
-0.0487783
0.650384
-0.0434538
0.633665
-0.0386512
0.620546
-0.0338769
0.611015
-0.0281822
0.6053
-0.022161
0.603367
-0.0157721
0.605027
-0.00904416
0.6102
-0.000412178
0.00763353
0.63781
-0.0261918
0.618704
-0.0243481
0.602311
-0.0222577
0.588913
-0.020479
0.5788
-0.0180696
0.572401
-0.0157617
0.569242
-0.0126138
0.569223
-0.00902506
0.573041
-0.00422958
-4.02025e-05
0.548705
-0.00819936
0.532422
-0.00806574
0.518109
-0.00794389
0.505458
-0.00782828
0.495064
-0.00767611
0.4871
-0.00779727
0.481652
-0.00716577
0.478865
-0.00623827
0.479382
-0.00474655
-0.00353192
0.321683
0.313618
0.305674
0.297845
0.290169
0.282372
0.275206
0.268968
0.264222
0.00328754
0.0380881
-0.0413756
0.00561312
0.0838112
-0.0861368
0.0056944
0.106595
-0.106676
0.00466411
0.116451
-0.11542
0.00368254
0.120339
-0.119357
0.00253985
0.122323
-0.12118
0.00119173
0.122659
-0.12131
0.000212257
0.120485
-0.119506
3.33023e-05
0.115045
-0.114866
0.104474
0.000884894
-0.105325
0.00465076
0.0334373
0.00967022
0.0787917
0.0122928
0.103972
0.0132192
0.115524
0.0137832
0.119774
0.0142423
0.121864
0.0143421
0.122559
0.0144056
0.120422
0.0148535
0.114597
0.103768
0.0155592
0.00562729
0.02781
0.0135153
0.0709037
0.0192423
0.0982451
0.0226004
0.112166
0.0246023
0.117773
0.0262958
0.12017
0.0278272
0.121027
0.0289173
0.119332
0.0296593
0.113855
0.103628
0.0297997
0.00594254
0.0218675
0.0162635
0.0605827
0.0253742
0.0891344
0.0316655
0.105875
0.0357099
0.113728
0.0388318
0.117048
0.0416633
0.118196
0.0438165
0.117178
0.0448723
0.112799
0.104046
0.0444543
0.00555265
0.0163148
0.0171346
0.0490008
0.0292572
0.0770119
0.0388942
0.0962377
0.0456831
0.106939
0.0507254
0.112006
0.0549562
0.113965
0.0583701
0.113765
0.0602937
0.110876
0.104316
0.060023
0.00470418
0.0116106
0.01605
0.0376549
0.0299001
0.0631618
0.0426197
0.0835181
0.0526613
0.0968978
0.0603075
0.10436
0.0664218
0.107851
0.071447
0.108739
0.0750105
0.107312
0.103062
0.0762651
0.00366903
0.00794161
0.013474
0.0278499
0.0271082
0.0495277
0.0414791
0.0691471
0.054345
0.0840319
0.0649572
0.0937476
0.0735659
0.099242
0.0806395
0.101666
0.0862499
0.101702
0.0993739
0.0899377
0.00259965
0.00534196
0.0100958
0.0203538
0.0217294
0.0378941
0.035648
0.0552286
0.0497752
0.0699046
0.0627465
0.0807763
0.0740672
0.0879213
0.0837841
0.0919489
0.0920175
0.0934685
0.0927273
0.0986641
0.00150968
0.00383227
0.0064059
0.0154575
0.0149781
0.0293219
0.0265929
0.0436138
0.0398773
0.0566202
0.0534603
0.0671933
0.066425
0.0749566
0.0783382
0.0800358
0.0891328
0.0826739
0.0827605
0.0990996
0.000466699
0.00336557
0.00291821
0.013006
0.00829399
0.0239461
0.0167892
0.0351186
0.0277723
0.0456371
0.0402497
0.0547159
0.0533216
0.0618847
0.066351
0.0670064
0.0789724
0.0700525
0.0708075
0.0909253
-0.000380314
0.00374589
0.000198855
0.0124269
0.00298522
0.0211597
0.00857915
0.0295247
0.0168497
0.0373666
0.0272432
0.0443224
0.0391084
0.0500195
0.0518468
0.054268
0.0647755
0.0571239
0.0590925
0.0764905
-0.000869851
0.00461574
-0.00135903
0.012916
-0.000214335
0.0200151
0.00320757
0.0261028
0.00906493
0.0315092
0.0170269
0.0363604
0.0266406
0.0404058
0.0373949
0.0435137
0.0486844
0.0458344
0.0478559
0.059921
-0.00097318
0.00558892
-0.00187081
0.0138137
-0.00165004
0.0197943
0.000278336
0.0241744
0.0042046
0.0275829
0.009723
0.030842
0.0165022
0.0336266
0.024239
0.0357769
0.032621
0.0374524
0.0389192
0.0415577
-0.000830237
0.00641915
-0.00179532
0.0147788
-0.00211532
0.0201143
-0.00149093
0.02355
0.000303078
0.0257889
0.00310956
0.0280356
0.00690822
0.0298279
0.0116447
0.0310404
0.0171792
0.0319179
0.0325567
0.0235417
-0.00128066
0.00769982
-0.00302115
0.0165192
-0.00435204
0.0214452
-0.00504336
0.0242413
-0.00516706
0.0259126
-0.00450733
0.0273758
-0.00293631
0.0282569
-0.000494354
0.0285985
0.00272474
0.0286988
0.0286098
0.00667164
-0.00189785
0.00959767
-0.00448042
0.0191018
-0.006625
0.0235898
-0.00815242
0.0257687
-0.00929227
0.0270525
-0.00993876
0.0280223
-0.010088
0.0284061
-0.00963954
0.02815
-0.0084827
0.027542
0.0267005
-0.00657343
-0.00213395
0.0117316
-0.00524459
0.0222124
-0.00827466
0.0266198
-0.0110704
0.0285644
-0.0135419
0.029524
-0.0154802
0.0299606
-0.0168965
0.0298225
-0.0178191
0.0290726
-0.0181521
0.027875
0.026356
-0.0178076
-0.00230213
0.0140337
-0.00594632
0.0258566
-0.00985161
0.0305251
-0.0137198
0.0324326
-0.0173186
0.0331228
-0.0204423
0.0330842
-0.0230536
0.0324338
-0.0251736
0.0311926
-0.0267529
0.0294544
0.0273343
-0.0277313
-0.0024452
0.0164789
-0.00651303
0.0299245
-0.0110184
0.0350305
-0.0155683
0.0369825
-0.0199241
0.0374787
-0.0239197
0.0370799
-0.0274825
0.0359965
-0.0305876
0.0342977
-0.0331857
0.0320525
0.0293723
-0.0352236
-0.00241543
-0.00660025
-0.0112973
-0.0160968
-0.0207961
-0.0252552
-0.0293882
-0.0331397
-0.0364465
-0.0392524
0.0702732
0.225105
-0.218887
0.0633261
0.164343
-0.157396
0.0672785
0.0700606
-0.074013
0.0770184
-0.000563227
-0.00917669
0.0884807
-0.0407301
0.0292678
0.100609
-0.0547624
0.0426342
0.11212
-0.0539077
0.0423962
0.122263
-0.0463094
0.0361673
0.131161
-0.0356733
0.0267751
-0.0197949
0.0138406
0.0582678
0.226758
0.0573646
0.165246
0.0674324
0.0599928
0.0809727
-0.0141035
0.093822
-0.0535793
0.10595
-0.06689
0.11691
-0.0648678
0.126255
-0.0556549
0.134182
-0.0436006
-0.0247529
0.0441785
0.224137
0.0511565
0.158268
0.0675993
0.0435499
0.0843134
-0.0308176
0.0987934
-0.0680593
0.111029
-0.0791252
0.121436
-0.0752753
0.129912
-0.0641311
0.13681
-0.050498
-0.0287847
0.0302721
0.217407
0.0463706
0.14217
0.0686318
0.0212887
0.0880726
-0.0502584
0.103824
-0.0838109
0.11619
-0.0914915
0.126034
-0.0851193
0.133589
-0.0716854
0.139427
-0.0563366
-0.0319504
0.0178945
0.206184
0.0433068
0.116758
0.0704436
-0.00584809
0.0922988
-0.0721135
0.109093
-0.100605
0.121554
-0.103953
0.130823
-0.0943885
0.137446
-0.078308
0.142222
-0.0611134
-0.034287
0.00717611
0.192434
0.0412756
0.0826581
0.0723856
-0.0369581
0.0965071
-0.0962349
0.114257
-0.118355
0.126838
-0.116533
0.135606
-0.103157
0.141397
-0.0840987
0.145196
-0.0649121
-0.035851
-0.00238231
0.177009
0.0392875
0.0409884
0.0735807
-0.0712513
0.099929
-0.122583
0.118703
-0.137129
0.131552
-0.129382
0.14001
-0.111615
0.145182
-0.0892707
0.148196
-0.0679262
-0.0367514
-0.011756
0.161034
0.036323
-0.00709063
0.07319
-0.108118
0.101845
-0.151239
0.121895
-0.157179
0.135282
-0.142769
0.143702
-0.120035
0.148529
-0.094097
0.151023
-0.0704208
-0.0371482
-0.0197808
0.145591
0.0314329
-0.0583043
0.0706189
-0.147304
0.101789
-0.182409
0.123523
-0.178913
0.137798
-0.157044
0.146499
-0.128735
0.151266
-0.0988644
0.153529
-0.0726839
-0.0372282
-0.0268832
0.0238703
0.0655547
0.0995469
0.123463
0.139021
0.148335
0.153324
0.15564
0.0237069
0.0179358
-0.0416427
0.0133249
0.010382
0.00927268
0.00405218
0.00930121
-2.85245e-05
0.0126114
-0.00331019
0.016744
-0.00413264
0.0206117
-0.00386762
0.0240071
-0.00339547
0.026122
-0.00211484
-0.000912433
0.0863906
0.0550813
-0.123536
0.0580161
0.0387565
0.0457395
0.0163288
0.044665
0.00104597
0.0503619
-0.0090071
0.0579554
-0.0117261
0.0652303
-0.0111426
0.0714553
-0.00962046
0.0755069
-0.00616644
-0.00278046
0.128531
0.105072
-0.178522
0.0912408
0.0760467
0.0736713
0.0338983
0.0710644
0.00365291
0.0771211
-0.0150638
0.0862234
-0.0208283
0.0954622
-0.0203814
0.103347
-0.0175048
0.109052
-0.0118717
-0.00576378
0.146386
0.163198
-0.204512
0.10573
0.116703
0.0855778
0.05405
0.0822899
0.00694081
0.0889665
-0.0217404
0.0993874
-0.0312492
0.11003
-0.0310242
0.11908
-0.0265549
0.126217
-0.0190083
-0.00967897
0.148929
-0.204617
0.108235
0.088272
0.0860361
0.0935635
0.104948
0.11632
0.125933
0.1337
0.00811064
0.000148846
-0.00825949
0.00888276
-0.000772124
0.0104166
-0.00153384
0.0125713
-0.00215466
0.015182
-0.00261078
0.0182238
-0.00304171
0.0220259
-0.00380216
0.0267174
-0.00469143
0.0334936
-0.00677625
-0.00814909
0.0211959
0.000337934
-0.021385
0.0232687
-0.00284495
0.0273676
-0.00563275
0.0333658
-0.00815281
0.0412559
-0.0105009
0.0514501
-0.013236
0.0645975
-0.0169495
0.0806962
-0.0207901
0.101106
-0.0271862
-0.0305791
0.0317718
0.000340498
-0.0317743
0.0350093
-0.00608245
0.0413103
-0.0119337
0.0507281
-0.0175706
0.0635348
-0.0233076
0.0804357
-0.0301368
0.101429
-0.0379433
0.125981
-0.0453418
0.153503
-0.0547077
-0.0555984
0.0402053
-2.61705e-05
-0.0398386
0.0444799
-0.0103571
0.0526459
-0.0200997
0.0649631
-0.0298878
0.0819031
-0.0402476
0.1038
-0.0520341
0.129449
-0.0635921
0.157565
-0.0734576
0.184109
-0.0812514
-0.0760014
0.0468183
-0.0459596
0.0520205
0.0617204
0.076287
0.0960624
0.120293
0.146639
0.171845
0.189694
0.0543575
-0.0466874
0.0537385
-0.0614086
0.0475317
-0.0458828
0.0527085
0.0411003
-0.0453058
0.0517373
0.0347958
-0.0447084
0.0510129
0.028401
-0.043999
0.0503938
0.0218459
-0.0430199
0.049575
0.0152171
-0.0414081
0.048037
0.00876168
-0.0383872
0.0448426
0.00311356
-0.0321707
0.0378188
-0.017775
0.0208886
0.0604503
-0.039661
-0.0674767
0.0534434
-0.0388759
0.046205
-0.0380673
0.038755
-0.0372584
0.0311908
-0.0364349
0.0236457
-0.0354748
0.0162795
-0.0340419
0.00932797
-0.0314357
0.00335106
-0.0261938
-0.014424
0.060878
-0.0319417
-0.0685974
0.0531127
-0.0311106
0.0453795
-0.0303342
0.0377226
-0.0296015
0.0301846
-0.0288968
0.0228096
-0.0280999
0.0156757
-0.026908
0.00896646
-0.0247264
0.00321099
-0.0204383
-0.011213
0.0620915
-0.0239913
-0.0700419
0.0542133
-0.0232323
0.0463904
-0.0225113
0.0386323
-0.0218435
0.030953
-0.0212175
0.0233966
-0.0205434
0.0160734
-0.0195848
0.00921422
-0.0178672
0.00334777
-0.0145718
-0.00786522
0.0638307
-0.0158236
-0.0719984
0.0556796
-0.0150811
0.0475552
-0.014387
0.0394688
-0.0137571
0.0314475
-0.0131962
0.0235638
-0.0126597
0.0159857
-0.0120067
0.00903226
-0.0109138
0.00326418
-0.00880377
-0.00460104
0.0657711
-0.00736141
-0.0742333
0.0573237
-0.00663373
0.0488845
-0.00594778
0.0404538
-0.0053263
0.0320471
-0.00478947
0.0237399
-0.00435251
0.0157534
-0.00402022
0.00856165
-0.00372207
0.00291758
-0.00315969
-0.00168347
0.0682412
0.00141367
-0.0770163
0.0594828
0.00212463
0.0507333
0.00280175
0.0419848
0.00342218
0.0332383
0.0039571
0.0245444
0.00434134
0.0160972
0.00442703
0.00841309
0.00396199
0.00253786
0.00271554
0.000854395
0.0710661
0.0104795
-0.0801319
0.0620347
0.011156
0.0530462
0.0117902
0.0441029
0.0123655
0.0352102
0.0128498
0.0264054
0.0131461
0.0178277
0.0130047
0.00985643
0.0119333
0.00333508
0.00923689
0.00418948
0.0738688
0.0198194
-0.0832087
0.0645838
0.020441
0.0553675
0.0210066
0.0462291
0.0215039
0.0371767
0.0219022
0.028236
0.0220868
0.0194988
0.0217419
0.0112246
0.0202075
0.0040906
0.0163709
0.00828008
0.0763834
-0.0859601
0.0668665
0.057426
0.0480716
0.0388066
0.0296428
0.0206431
0.0120213
0.00443686
0.0147981
-0.105647
-0.0144763
0.0134391
-0.113507
0.0111802
-0.117247