/*--------------------------------*- C++ -*----------------------------------*\
| =========                 |                                                 |
| \\      /  F ield         | OpenFOAM: The Open Source CFD Toolbox           |
|  \\    /   O peration     | Version:  2406                                  |
|   \\  /    A nd           | Website:  www.openfoam.com                      |
|    \\/     M anipulation  |                                                 |
\*---------------------------------------------------------------------------*/
FoamFile
{
    version     2.0;
    format      ascii;
    arch        "LSB;label=32;scalar=64";
    class       volVectorField;
    location    "0.8";
    object      U;
}
// * * * * * * * * * * * * * * * * * * * * * * * * * * * * * * * * * * * * * //

dimensions      [0 1 -1 0 0 0 0];

internalField   nonuniform List<vector> 
1800
(
(-0.00792325 0.0146022 0)
(-0.0378293 0.0595916 -1.09026e-20)
(-0.040554 0.114793 -8.06877e-20)
(-0.0127297 0.157933 2.87553e-20)
(0.0450696 0.187394 -3.84725e-21)
(0.127903 0.208629 -2.60536e-20)
(0.228512 0.227412 2.12977e-20)
(0.340511 0.247815 2.9722e-19)
(0.466518 0.26706 0)
(0.560399 0.323615 -3.1569e-20)
(-0.0012556 0.00395685 -2.41222e-20)
(-0.0115743 0.0171759 -1.09261e-19)
(0.00296217 0.039033 7.5511e-20)
(0.0570639 0.0552611 1.16671e-19)
(0.147162 0.0632888 -2.65262e-20)
(0.26286 0.0681109 -4.35847e-20)
(0.392853 0.0730667 -1.70914e-20)
(0.529582 0.0794322 -2.05435e-19)
(0.674326 0.0842523 9.26486e-20)
(0.774704 0.117554 1.55658e-19)
(-0.000625851 0.000685521 5.65269e-21)
(0.00381724 -0.00301552 -3.47564e-20)
(0.0592064 -0.00562517 -3.43638e-20)
(0.160845 -0.0120533 3.08575e-20)
(0.295075 -0.017298 -1.19817e-20)
(0.445867 -0.0179196 1.75112e-20)
(0.599991 -0.0131854 -1.75624e-20)
(0.750219 -0.00384461 6.74387e-20)
(0.898463 0.0110901 -1.18821e-19)
(0.998251 0.0298497 -3.41401e-19)
(-0.000553959 0.00135634 3.11556e-20)
(0.0382091 -0.0156089 9.61214e-20)
(0.151795 -0.0340681 -6.42496e-20)
(0.311851 -0.0505647 -6.49423e-22)
(0.492541 -0.0595237 1.14854e-19)
(0.674307 -0.059035 -1.87273e-20)
(0.845316 -0.0507324 -2.715e-20)
(1.00201 -0.0369502 -1.74602e-20)
(1.14956 -0.0166268 -1.13829e-20)
(1.24574 -0.000417629 -1.25309e-20)
(0.0066121 -0.00145732 -2.00352e-20)
(0.102138 -0.030146 6.1461e-20)
(0.28233 -0.0523826 4.64239e-20)
(0.499693 -0.0663905 -8.71106e-20)
(0.718251 -0.0689195 -3.42596e-20)
(0.918055 -0.0608244 4.56999e-20)
(1.09274 -0.0455964 2.47348e-20)
(1.24563 -0.0260396 3.11699e-20)
(1.38554 -0.00171003 -7.87208e-20)
(1.48367 0.0135145 -4.91703e-20)
(0.0284599 -0.00556318 4.57998e-22)
(0.197683 -0.0429755 1.58686e-19)
(0.448833 -0.0605075 1.05457e-19)
(0.714058 -0.06403 -1.21224e-19)
(0.952821 -0.0555926 8.95273e-20)
(1.15268 -0.0391466 -1.11909e-20)
(1.3183 -0.0189371 8.26629e-20)
(1.46213 0.00271769 1.31361e-19)
(1.59692 0.0257587 -1.54731e-19)
(1.71635 0.0399172 -1.38883e-19)
(0.0655684 -0.010115 -3.70254e-20)
(0.32306 -0.0482172 -2.45677e-19)
(0.640395 -0.0518255 2.7981e-20)
(0.933273 -0.0399668 2.82917e-19)
(1.1697 -0.0203549 -2.18906e-20)
(1.35426 0.00219062 -1.63158e-19)
(1.50545 0.0246892 -8.98568e-20)
(1.64327 0.0463461 3.18132e-19)
(1.78283 0.0674035 3.58874e-19)
(1.92824 0.0843265 4.1008e-20)
(0.118931 -0.0118911 3.51646e-20)
(0.472437 -0.0390883 2.99812e-20)
(0.83858 -0.0219303 -1.20748e-19)
(1.13429 0.00538258 5.85891e-20)
(1.35202 0.0331557 -7.93819e-22)
(1.51709 0.0589358 -5.29693e-19)
(1.65827 0.0822678 -1.1798e-20)
(1.79812 0.103938 4.07999e-19)
(1.949 0.124791 -2.68534e-19)
(2.11002 0.143868 -3.06748e-19)
(0.18706 -0.00724296 1.23878e-19)
(0.632892 -0.0105465 1.19559e-19)
(1.02342 0.0298641 -2.80983e-19)
(1.3034 0.0700336 -6.34963e-20)
(1.49736 0.10353 3.05755e-21)
(1.64619 0.131715 1.96423e-19)
(1.7822 0.156208 -3.80008e-19)
(1.92546 0.178436 -2.15937e-19)
(2.08056 0.198828 5.58628e-19)
(2.23378 0.216748 1.38138e-19)
(0.265678 0.00701182 2.75099e-20)
(0.789399 0.0389996 2.87534e-19)
(1.18314 0.101992 -2.56613e-19)
(1.4394 0.152386 -1.065e-19)
(1.61078 0.190351 1.07009e-19)
(1.74569 0.220541 -1.31843e-19)
(1.87533 0.245798 2.48745e-19)
(2.0152 0.267514 2.82374e-20)
(2.16207 0.28516 -2.35581e-19)
(2.29705 0.2975 -8.54458e-20)
(-0.0160418 0.249665 -3.07204e-20)
(-0.0399452 0.450473 1.14252e-19)
(-0.0677398 0.523211 7.52375e-20)
(-0.092307 0.548811 -9.7824e-20)
(-0.115041 0.552575 9.53132e-22)
(-0.135519 0.542677 3.70147e-20)
(-0.153296 0.522676 2.26586e-20)
(-0.168381 0.493975 -4.57649e-20)
(-0.18064 0.457336 1.98421e-22)
(-0.19027 0.414132 -5.33883e-21)
(-0.0359258 0.271057 3.59682e-20)
(-0.0745787 0.491315 9.75976e-23)
(-0.104517 0.568616 3.09797e-20)
(-0.127216 0.594754 -1.23239e-19)
(-0.146917 0.59774 -9.12743e-20)
(-0.164201 0.586056 -5.81978e-20)
(-0.178707 0.56337 3.66893e-20)
(-0.190494 0.531094 0)
(-0.199438 0.490037 -1.66208e-20)
(-0.205673 0.441634 5.89739e-20)
(-0.0566805 0.281377 1.23584e-23)
(-0.110938 0.517235 -1.39114e-19)
(-0.142231 0.599946 -8.31329e-20)
(-0.160805 0.62837 8.77661e-20)
(-0.174815 0.633579 -3.42018e-21)
(-0.185658 0.62212 -5.8131e-20)
(-0.194565 0.598692 8.19728e-21)
(-0.201181 0.565309 6.28021e-21)
(-0.204876 0.522442 2.66399e-20)
(-0.205833 0.471182 -3.47261e-20)
(-0.0766703 0.28029 3.26953e-20)
(-0.147094 0.527153 4.94491e-20)
(-0.178096 0.614251 8.01495e-21)
(-0.189386 0.640063 9.13875e-20)
(-0.194647 0.64749 -2.03258e-20)
(-0.198082 0.644598 2.22324e-20)
(-0.19962 0.627072 -1.84617e-20)
(-0.199002 0.595294 0)
(-0.195742 0.552502 -1.18006e-19)
(-0.189509 0.500488 -2.51914e-19)
(-0.0893877 0.263548 -3.86824e-20)
(-0.170057 0.513135 1.89055e-20)
(-0.19521 0.606577 8.28005e-20)
(-0.200041 0.634544 -2.72656e-20)
(-0.200091 0.642375 1.3903e-20)
(-0.198333 0.642754 1.73924e-20)
(-0.194142 0.635442 -4.48338e-20)
(-0.186331 0.614074 1.22585e-19)
(-0.174636 0.57686 -1.98268e-19)
(-0.158434 0.52689 -2.08015e-19)
(-0.0918589 0.227654 -3.4705e-20)
(-0.179454 0.469273 -1.59584e-20)
(-0.202331 0.574642 -3.98121e-20)
(-0.204422 0.616455 2.92963e-20)
(-0.199551 0.633848 1.40281e-19)
(-0.190037 0.637944 -2.10975e-19)
(-0.177089 0.63168 -3.65582e-20)
(-0.159914 0.615104 1.66496e-19)
(-0.13769 0.586052 -3.87092e-19)
(-0.108806 0.542272 -1.77918e-19)
(-0.0838841 0.178872 -7.61277e-21)
(-0.17457 0.399546 3.99667e-20)
(-0.197042 0.515017 -1.92653e-21)
(-0.194975 0.570871 1.74033e-19)
(-0.182413 0.59873 3.00505e-20)
(-0.16366 0.610969 -2.46763e-19)
(-0.140176 0.611706 -2.62851e-19)
(-0.112316 0.601552 -1.87398e-19)
(-0.0789057 0.579134 5.6118e-19)
(-0.0358944 0.541075 4.30722e-19)
(-0.0669949 0.126112 -3.89307e-22)
(-0.153586 0.312593 -2.48052e-20)
(-0.175321 0.431484 -1.11691e-21)
(-0.169137 0.499208 -7.03038e-20)
(-0.148445 0.538144 -1.63919e-19)
(-0.118827 0.560232 1.31483e-19)
(-0.0829961 0.570652 -1.58853e-19)
(-0.0426346 0.57061 -4.40062e-21)
(0.00325174 0.558453 4.16305e-19)
(0.0630476 0.529017 2.02037e-21)
(-0.0445875 0.0767415 -1.54533e-20)
(-0.117478 0.217372 -7.69468e-21)
(-0.13584 0.327592 2.5101e-21)
(-0.125065 0.399985 5.83651e-20)
(-0.0956082 0.446731 1.45191e-20)
(-0.0531999 0.477523 2.12687e-19)
(-0.0019084 0.498203 3.79937e-20)
(0.0546174 0.511133 1.58038e-19)
(0.115166 0.514839 -5.85507e-21)
(0.195515 0.500705 -7.11301e-19)
(-0.0233972 0.0382956 -2.70304e-20)
(-0.0757687 0.128252 -3.5282e-20)
(-0.0882156 0.215405 4.40874e-20)
(-0.0721149 0.279383 -3.60162e-20)
(-0.0328429 0.323799 6.74112e-20)
(0.0247515 0.355689 2.72286e-19)
(0.0952292 0.381266 1.44155e-19)
(0.172856 0.404522 -3.816e-19)
(0.253757 0.426542 -5.12546e-19)
(0.356264 0.440591 -5.93966e-19)
(-0.228493 0.178702 -5.35463e-19)
(-0.0615252 -0.185493 -6.80902e-19)
(0.197696 -0.292537 -2.33849e-19)
(0.374893 -0.325866 7.56569e-20)
(0.534297 -0.300152 3.89945e-20)
(0.641224 -0.252146 5.47315e-21)
(0.709169 -0.199633 -7.47898e-20)
(0.75315 -0.149029 2.68346e-20)
(0.778109 -0.107064 -1.70458e-20)
(0.79444 -0.0528381 -9.79815e-21)
(-0.226806 0.175739 -5.40704e-19)
(-0.0979993 -0.245744 1.93329e-20)
(0.173152 -0.356249 -1.11913e-19)
(0.362678 -0.380047 -6.56463e-20)
(0.532514 -0.33995 5.5691e-20)
(0.645188 -0.278673 -1.02408e-19)
(0.715813 -0.216267 4.59236e-20)
(0.760472 -0.158948 9.30008e-22)
(0.785946 -0.113113 -3.20833e-20)
(0.802743 -0.0552708 1.99609e-20)
(-0.205896 0.185888 7.97803e-19)
(-0.114907 -0.294041 8.75747e-19)
(0.164676 -0.422002 9.94838e-20)
(0.361627 -0.436884 -7.47866e-20)
(0.536468 -0.38232 -6.47716e-20)
(0.651588 -0.306748 1.80631e-21)
(0.723096 -0.233751 2.05523e-20)
(0.767868 -0.169268 -2.8685e-20)
(0.793526 -0.119548 8.51381e-22)
(0.811162 -0.0578439 -4.72236e-22)
(-0.16349 0.208081 8.77288e-19)
(-0.0894294 -0.328103 -1.7772e-20)
(0.195265 -0.486505 6.636e-20)
(0.39001 -0.493651 5.95897e-20)
(0.558503 -0.425165 1.90657e-20)
(0.668124 -0.335098 2.00765e-20)
(0.735749 -0.251458 -3.64873e-20)
(0.778461 -0.179702 0)
(0.803071 -0.126296 0)
(0.821407 -0.0605915 -3.44489e-23)
(-0.0955331 0.236539 -5.07966e-21)
(-0.00424828 -0.350738 -8.11884e-19)
(0.288997 -0.546954 -1.36308e-20)
(0.470698 -0.547353 -5.5941e-20)
(0.617031 -0.465475 -6.05937e-21)
(0.70798 -0.361679 7.24582e-20)
(0.762575 -0.268215 2.34498e-21)
(0.798156 -0.189618 -1.50169e-20)
(0.818823 -0.133074 -4.45387e-20)
(0.836632 -0.0635012 -1.77129e-21)
(-0.00456625 0.263868 -1.42797e-19)
(0.14907 -0.369071 -3.65084e-19)
(0.453684 -0.603 -8.6643e-19)
(0.618342 -0.595565 1.04016e-20)
(0.730551 -0.499738 2.87932e-20)
(0.78867 -0.383457 3.82528e-20)
(0.817494 -0.281931 1.33208e-20)
(0.837134 -0.197747 -6.48205e-20)
(0.848476 -0.139196 7.41737e-22)
(0.862492 -0.0664197 -2.12806e-20)
(0.110869 0.282017 -4.46562e-20)
(0.360076 -0.388168 -1.25043e-21)
(0.663332 -0.656299 3.87865e-19)
(0.818336 -0.639375 -9.78796e-20)
(0.900229 -0.526443 -1.85047e-20)
(0.92137 -0.397421 -2.55529e-20)
(0.914932 -0.289638 -4.15265e-21)
(0.908774 -0.201946 1.39461e-20)
(0.903719 -0.143283 1.73013e-20)
(0.908095 -0.0688974 9.34776e-21)
(0.251007 0.299916 4.54304e-20)
(0.5892 -0.40277 1.6764e-18)
(0.874204 -0.703975 5.97409e-19)
(1.02827 -0.683217 4.06311e-20)
(1.09853 -0.549868 -5.48356e-20)
(1.09549 -0.404649 -7.62962e-21)
(1.05682 -0.290066 -3.15658e-20)
(1.02128 -0.200368 3.35512e-20)
(0.99546 -0.143537 -1.67153e-22)
(0.983986 -0.0701448 -3.34655e-21)
(0.433016 0.292356 1.11796e-19)
(0.806988 -0.400596 5.04563e-19)
(1.06531 -0.735455 -9.47822e-19)
(1.21394 -0.725509 4.48933e-19)
(1.28755 -0.574315 -1.14234e-19)
(1.28095 -0.409698 -2.16741e-20)
(1.22487 -0.285684 -1.52253e-20)
(1.16653 -0.193669 7.33994e-22)
(1.12267 -0.139328 -3.66142e-21)
(1.0937 -0.0695017 -2.59112e-21)
(0.602711 0.325796 1.49946e-19)
(1.02196 -0.366058 -1.06238e-18)
(1.25799 -0.751213 -7.30829e-19)
(1.37924 -0.763113 3.44641e-19)
(1.44797 -0.599799 -1.43398e-19)
(1.44902 -0.41508 2.71723e-20)
(1.39165 -0.279211 -8.66012e-20)
(1.3223 -0.183932 -1.21811e-21)
(1.26824 -0.131821 -3.95864e-21)
(1.22589 -0.067056 -5.61414e-21)
(0.939014 0.259014 -6.32678e-21)
(1.36916 -0.413425 -1.24104e-19)
(1.57485 -0.788085 -7.87756e-20)
(1.62579 -0.806789 -1.49456e-19)
(1.64126 -0.630679 8.96697e-20)
(1.63253 -0.421338 1.90068e-21)
(1.57821 -0.267229 2.40859e-20)
(1.50633 -0.166491 2.19799e-20)
(1.44889 -0.117012 -4.76898e-20)
(1.39663 -0.0611726 6.04322e-21)
(1.56557 0.0649699 2.26206e-19)
(2.06131 -0.561212 -3.7519e-19)
(2.16428 -0.840755 -2.76976e-19)
(2.04749 -0.797902 6.74553e-21)
(1.90266 -0.602554 9.81797e-20)
(1.80748 -0.391998 1.40232e-19)
(1.72986 -0.237894 1.2816e-19)
(1.65877 -0.140512 -1.68856e-20)
(1.60855 -0.0966698 6.46136e-20)
(1.55804 -0.0518394 1.6005e-20)
(2.33057 -0.0816364 4.65786e-20)
(2.66321 -0.601331 -3.05534e-20)
(2.59687 -0.784753 8.81502e-20)
(2.39216 -0.714011 2.83504e-35)
(2.16569 -0.528597 -3.92612e-20)
(1.9912 -0.33926 -6.06403e-34)
(1.8654 -0.200625 1.09425e-20)
(1.77699 -0.113771 8.80796e-35)
(1.72123 -0.0767645 -2.51207e-22)
(1.67013 -0.0427044 -1.22754e-21)
(2.84374 -0.193877 6.88895e-20)
(2.96011 -0.63348 5.24412e-19)
(2.75746 -0.766501 2.20414e-19)
(2.49311 -0.667249 0)
(2.24892 -0.468772 -1.1993e-19)
(2.05894 -0.284999 -1.22823e-19)
(1.91978 -0.159842 -9.86104e-20)
(1.82576 -0.0854224 8.07712e-34)
(1.76683 -0.0555322 -3.18805e-20)
(1.7155 -0.0320627 1.88276e-22)
(3.08461 -0.265012 5.69044e-20)
(3.11557 -0.59448 1.06034e-20)
(2.91353 -0.649687 0)
(2.62761 -0.533857 0)
(2.33516 -0.355269 0)
(2.09964 -0.202843 0)
(1.93467 -0.106813 3.95752e-21)
(1.83133 -0.0536963 9.53999e-34)
(1.76999 -0.0343597 -1.14347e-21)
(1.71816 -0.0236853 -6.48128e-35)
(3.21884 -0.292094 1.57523e-19)
(3.1903 -0.546255 0)
(2.91526 -0.575736 0)
(2.57534 -0.453249 0)
(2.27007 -0.27327 0)
(2.03911 -0.133809 0)
(1.88365 -0.0592611 -8.91539e-21)
(1.79016 -0.0244352 5.91989e-20)
(1.73863 -0.0148768 -1.57293e-21)
(1.6941 -0.014796 1.01212e-20)
(3.2565 -0.307656 0)
(3.15895 -0.482925 2.03579e-19)
(2.82057 -0.4489 4.15814e-20)
(2.41566 -0.314315 0)
(2.08352 -0.161201 -9.64908e-20)
(1.86536 -0.0576142 -7.75971e-20)
(1.73942 -0.0130111 -6.02591e-20)
(1.67013 0.00213081 -2.96637e-20)
(1.63821 0.00198722 2.75781e-20)
(1.60331 -0.00553843 -7.60092e-21)
(3.09384 -0.297551 2.53569e-20)
(2.86167 -0.376732 1.92366e-21)
(2.41113 -0.304057 -1.60316e-20)
(1.96215 -0.180081 -1.02513e-35)
(1.66101 -0.0652262 1.98035e-20)
(1.50415 -0.00152783 -4.61185e-34)
(1.43482 0.0163529 -1.14893e-20)
(1.40327 0.0163967 -2.20201e-20)
(1.3964 0.0105268 -2.1168e-21)
(1.37632 -0.000155741 3.81995e-21)
(2.39879 -0.246412 0)
(1.96427 -0.205313 -3.87283e-20)
(1.46546 -0.0993285 6.11541e-21)
(1.11587 -0.02607 0)
(0.960913 0.0128942 2.68649e-20)
(0.920763 0.0270235 2.12561e-20)
(0.92672 0.0246366 3.06414e-21)
(0.940207 0.0177884 9.34931e-21)
(0.958584 0.0110784 -1.21355e-20)
(0.956964 0.00247013 -2.49149e-21)
(0.761132 -0.0668137 1.49186e-20)
(0.435359 -0.0172898 0)
(0.248694 0.00033964 0)
(0.179294 0.00397783 0)
(0.186941 0.00748071 0)
(0.226865 0.00899177 0)
(0.272466 0.00758111 -1.2117e-20)
(0.308799 0.00528755 3.74042e-35)
(0.33562 0.00326636 -2.50188e-21)
(0.346117 0.000863633 -4.35118e-21)
(2.49356 0.313746 4.35374e-19)
(2.47925 0.245001 1.69463e-19)
(2.41764 0.195426 3.14298e-19)
(2.3085 0.142043 -2.88698e-19)
(2.12474 0.103815 4.88183e-20)
(1.90038 0.0654786 1.89481e-20)
(1.60596 0.0392976 -3.60761e-20)
(1.31635 0.0462671 -2.43075e-20)
(1.05572 0.0652776 1.00446e-19)
(0.767688 0.304923 1.4812e-19)
(2.62686 0.277107 -2.40302e-19)
(2.64001 0.232741 5.18759e-20)
(2.62405 0.182471 1.48899e-19)
(2.59555 0.163773 1.30709e-19)
(2.52215 0.125301 -2.00626e-19)
(2.39169 0.127492 4.86047e-20)
(2.25978 0.0805962 -1.28436e-19)
(1.95983 0.124691 -3.64536e-20)
(1.84946 0.0506955 -1.21104e-19)
(1.30103 0.208614 -1.72451e-19)
(2.75295 0.247449 3.25403e-20)
(2.73557 0.22146 -1.60977e-19)
(2.79114 0.157898 -2.12501e-19)
(2.72521 0.160962 4.35882e-19)
(2.79636 0.1046 5.31629e-21)
(2.63947 0.1425 -4.57491e-20)
(2.73141 0.068096 -8.37141e-20)
(2.42094 0.137266 -6.58666e-20)
(2.53258 0.0336391 1.23264e-19)
(2.05674 0.138213 -1.46547e-22)
(2.8532 0.214803 6.51598e-20)
(2.82099 0.195854 -2.14921e-19)
(2.91935 0.134157 3.78605e-20)
(2.82999 0.139245 -1.53526e-19)
(2.9629 0.0746553 2.51394e-19)
(2.80778 0.117165 -6.99326e-20)
(2.96976 0.0365714 8.22446e-20)
(2.74004 0.0986513 -1.31789e-19)
(2.89106 -0.00310093 -3.36139e-19)
(2.6055 0.0544205 -1.71169e-19)
(2.89962 0.178399 1.14361e-19)
(2.8984 0.154696 -3.38573e-19)
(2.98012 0.107844 -2.35251e-20)
(2.94232 0.0977544 -3.38359e-20)
(3.03714 0.0451566 -1.03619e-20)
(2.96489 0.0617111 -2.42616e-21)
(3.0711 0.00163498 4.32571e-20)
(2.9688 0.0325721 -7.78728e-20)
(3.06194 -0.043787 -1.46452e-19)
(2.93384 -0.02513 -2.20588e-19)
(2.90315 0.13249 2.11887e-19)
(2.93142 0.106696 4.25076e-20)
(2.9954 0.0741678 -2.34224e-19)
(3.00609 0.0541486 1.35673e-19)
(3.06692 0.0179357 1.26759e-19)
(3.06037 0.0119396 -7.19033e-20)
(3.11906 -0.0262402 1.32631e-19)
(3.0975 -0.0233353 4.05178e-20)
(3.15222 -0.0743492 -2.04322e-19)
(3.10845 -0.0761328 -2.75683e-19)
(2.84594 0.0796052 1.69418e-20)
(2.88886 0.0551918 7.71088e-20)
(2.94472 0.0316279 -9.06283e-20)
(2.97916 0.010874 -3.95857e-20)
(3.03243 -0.0143692 1.3495e-19)
(3.05478 -0.0259697 2.4345e-20)
(3.10463 -0.0540856 1.05395e-19)
(3.11943 -0.0597396 1.13297e-19)
(3.16444 -0.10321 4.3025e-20)
(3.17397 -0.108425 1.09218e-19)
(2.65804 0.0317553 2.45087e-20)
(2.71258 0.00891458 -2.42605e-22)
(2.74688 -0.00453145 -9.41197e-20)
(2.80286 -0.0262847 -8.06173e-20)
(2.83052 -0.035886 1.85102e-20)
(2.88851 -0.0516556 -3.58629e-20)
(2.90693 -0.0663411 -1.32694e-20)
(2.97363 -0.0772508 9.85433e-20)
(2.98754 -0.112041 -7.36801e-20)
(3.06066 -0.122711 -8.47154e-20)
(2.19715 -0.0171419 7.63862e-20)
(2.24541 -0.0280826 -3.54837e-20)
(2.24261 -0.0349008 -3.19596e-20)
(2.29824 -0.0427983 3.73362e-20)
(2.29057 -0.0452065 -1.45519e-20)
(2.36497 -0.0576244 1.17333e-20)
(2.34436 -0.0659012 -8.24326e-20)
(2.44861 -0.0868402 1.28473e-20)
(2.40952 -0.11013 3.66268e-20)
(2.52944 -0.137125 -3.9385e-20)
(1.17733 -0.0156545 0)
(1.16723 -0.0186764 3.17401e-21)
(1.14864 -0.019775 -4.76353e-20)
(1.14421 -0.024387 -6.80934e-20)
(1.12178 -0.0271565 3.54711e-20)
(1.1279 -0.0339689 1.12134e-19)
(1.09171 -0.0370558 -1.58437e-20)
(1.11341 -0.0457977 -3.34553e-20)
(1.04214 -0.0499445 1.45912e-21)
(1.08835 -0.0593164 4.29981e-21)
(1.38876 0.871069 -5.11424e-20)
(1.34103 0.886093 -1.08174e-19)
(1.3098 0.904301 -6.59478e-19)
(1.28233 0.925183 1.65976e-19)
(1.25432 0.945973 9.0586e-19)
(1.22169 0.963441 8.78832e-20)
(1.17667 0.968432 -8.67345e-20)
(1.10028 0.943572 -2.08275e-19)
(0.931235 0.832749 -2.73073e-19)
(0.501073 0.463758 -3.10671e-20)
(1.55215 0.853689 -4.40617e-19)
(1.50132 0.863083 1.18065e-18)
(1.45909 0.875582 5.0339e-19)
(1.42357 0.892367 -6.50671e-19)
(1.391 0.910779 2.1134e-19)
(1.35517 0.926694 1.78518e-19)
(1.30615 0.9304 5.64719e-19)
(1.22242 0.905219 -8.5211e-19)
(1.0342 0.79524 -5.57009e-20)
(0.552268 0.437746 1.22102e-19)
(1.69517 0.829719 1.18527e-19)
(1.64391 0.83551 9.08771e-19)
(1.59593 0.843146 1.60365e-20)
(1.5554 0.854795 -3.83456e-19)
(1.51972 0.868948 1.3409e-19)
(1.48138 0.881249 5.47432e-24)
(1.42853 0.881878 -4.98926e-20)
(1.33665 0.85499 -3.21078e-19)
(1.12735 0.744385 9.77625e-20)
(0.594507 0.402114 -1.98371e-19)
(1.81639 0.799405 -4.81448e-19)
(1.76222 0.80242 4.07023e-19)
(1.71007 0.806499 -6.06972e-19)
(1.66649 0.813927 -2.0549e-19)
(1.62905 0.823456 1.07156e-18)
(1.58887 0.830073 -6.42312e-19)
(1.53269 0.825007 -7.12803e-19)
(1.43354 0.793589 3.31009e-19)
(1.20073 0.680003 -1.26732e-19)
(0.62047 0.357337 -4.60367e-20)
(1.92931 0.760575 5.86654e-19)
(1.86758 0.762577 4.51939e-19)
(1.80782 0.764435 -1.88148e-19)
(1.75837 0.768022 7.00355e-19)
(1.71627 0.771323 9.15323e-20)
(1.67179 0.7695 -2.96982e-19)
(1.61157 0.757138 3.46573e-19)
(1.50275 0.720341 -4.69875e-19)
(1.24327 0.60099 -5.51803e-19)
(0.624547 0.30251 -2.36439e-20)
(2.03531 0.713006 7.87822e-19)
(1.96445 0.714267 9.02567e-19)
(1.89333 0.713706 -8.38865e-19)
(1.8328 0.71202 -7.67733e-19)
(1.78118 0.707398 1.47917e-19)
(1.72909 0.697147 -5.12922e-19)
(1.66164 0.677557 -2.31795e-19)
(1.53669 0.631637 1.79649e-19)
(1.2486 0.506212 8.68048e-20)
(0.604312 0.240793 9.61688e-21)
(2.13424 0.649558 7.28623e-19)
(2.05275 0.649623 -8.96119e-19)
(1.96717 0.646424 -7.24553e-19)
(1.89114 0.639445 4.41348e-19)
(1.82618 0.627973 -3.9661e-19)
(1.76238 0.610879 1.07889e-18)
(1.68047 0.583094 -1.22593e-19)
(1.53262 0.526804 -8.94255e-19)
(1.21533 0.400876 3.97117e-19)
(0.561835 0.177965 4.2614e-20)
(2.21941 0.569385 -4.81754e-19)
(2.12629 0.5676 -6.21072e-19)
(2.025 0.561823 -7.20966e-19)
(1.93154 0.550498 4.43676e-20)
(1.8499 0.533754 2.45559e-19)
(1.76946 0.510499 2.21558e-19)
(1.66684 0.474849 3.39377e-19)
(1.4918 0.412175 -1.29722e-19)
(1.14758 0.294113 3.09115e-20)
(0.501801 0.119885 6.35635e-20)
(2.27985 0.478589 2.27558e-19)
(2.17529 0.474579 -8.85922e-20)
(2.05881 0.465837 3.55129e-19)
(1.94761 0.450552 8.99943e-19)
(1.8474 0.429398 -2.5934e-19)
(1.74731 0.40118 -8.89073e-19)
(1.62121 0.360849 6.45225e-19)
(1.41801 0.29781 6.19884e-19)
(1.05126 0.194637 -3.33808e-19)
(0.42911 0.070734 -3.68779e-20)
(2.30861 0.385014 -4.67129e-19)
(2.19059 0.377946 -4.6112e-21)
(2.05864 0.365218 5.18034e-19)
(1.9308 0.346246 4.43554e-19)
(1.81333 0.322077 2.85035e-19)
(1.69428 0.291531 -4.44703e-19)
(1.54498 0.25078 6.71392e-20)
(1.31464 0.192442 -2.77032e-19)
(0.930749 0.108322 -3.73188e-19)
(0.348532 0.0328337 1.80552e-21)
(0.400467 0.413083 -1.10764e-21)
(0.366391 0.421109 6.8721e-20)
(0.329992 0.428208 7.64445e-21)
(0.291704 0.43435 -6.31047e-20)
(0.251382 0.439287 -3.70522e-20)
(0.208563 0.44146 -7.99052e-20)
(0.162729 0.435995 3.43261e-20)
(0.113272 0.411836 -3.56318e-20)
(0.0608375 0.346498 9.14738e-20)
(0.023147 0.187112 1.71785e-20)
(0.452292 0.501445 -4.35618e-20)
(0.418278 0.511256 -5.07677e-21)
(0.381856 0.520085 -1.02744e-19)
(0.343397 0.528058 1.25591e-20)
(0.302756 0.535093 2.5078e-20)
(0.259323 0.539626 3.54927e-20)
(0.212145 0.536216 1.68342e-19)
(0.159849 0.51201 -5.4877e-20)
(0.10019 0.438721 6.33559e-20)
(0.0441727 0.242569 -1.50844e-20)
(0.518349 0.586063 1.41411e-20)
(0.484995 0.598367 1.23995e-19)
(0.449411 0.609652 8.47796e-20)
(0.41174 0.620031 1.17535e-19)
(0.371651 0.629502 3.53854e-20)
(0.328258 0.63657 1.74568e-19)
(0.280078 0.635419 -6.33661e-20)
(0.224699 0.611561 -7.66228e-20)
(0.156076 0.53083 1.14104e-22)
(0.0747591 0.297869 9.44842e-21)
(0.588729 0.663408 3.26782e-19)
(0.555201 0.67691 2.34608e-19)
(0.51983 0.689212 -3.10863e-19)
(0.482641 0.700974 -1.45297e-19)
(0.44342 0.712506 2.85879e-20)
(0.401165 0.722172 -7.91716e-20)
(0.35376 0.723354 -2.61047e-19)
(0.297312 0.69994 8.02342e-20)
(0.220991 0.612816 -5.65998e-20)
(0.111673 0.347114 -9.46561e-20)
(0.69137 0.731121 -1.0771e-19)
(0.659384 0.747304 -2.71215e-19)
(0.625157 0.762069 2.3921e-19)
(0.588432 0.775921 -8.74824e-20)
(0.548861 0.789272 -1.64283e-19)
(0.505421 0.800821 2.23368e-19)
(0.455688 0.803933 9.73094e-20)
(0.394477 0.781247 -1.236e-19)
(0.305659 0.688787 -2.40032e-19)
(0.15883 0.392473 4.74803e-20)
(0.773371 0.793453 -1.90855e-20)
(0.741787 0.810779 -2.1522e-20)
(0.709482 0.826422 -3.67197e-20)
(0.675781 0.841691 7.27086e-20)
(0.64008 0.857112 2.12272e-19)
(0.600765 0.870859 -2.00429e-19)
(0.554271 0.875429 -1.29586e-19)
(0.493059 0.852489 -3.34169e-20)
(0.394771 0.754052 7.94569e-20)
(0.209516 0.430241 1.40755e-19)
(0.88946 0.837625 -2.43109e-19)
(0.85902 0.85702 1.18268e-19)
(0.82733 0.873878 3.44329e-19)
(0.793416 0.889744 -2.13597e-19)
(0.757079 0.905723 -4.27832e-19)
(0.717185 0.920512 1.89872e-19)
(0.669951 0.926297 5.54221e-19)
(0.605917 0.903783 1.51703e-19)
(0.495384 0.802034 -6.81789e-21)
(0.265926 0.457621 2.05105e-19)
(1.00396 0.873469 -4.27363e-19)
(0.972418 0.892289 -1.43768e-19)
(0.942172 0.90893 3.33091e-19)
(0.911279 0.925481 -1.17209e-19)
(0.87822 0.942631 8.86123e-20)
(0.840801 0.958414 3.75537e-19)
(0.794268 0.964549 -3.68356e-19)
(0.72716 0.941505 -3.33681e-19)
(0.602531 0.83631 2.50501e-19)
(0.325185 0.47612 -1.97733e-20)
(1.11945 0.894159 -1.56284e-20)
(1.09416 0.914097 4.71275e-20)
(1.067 0.929813 -2.4258e-19)
(1.03735 0.945448 -7.57605e-20)
(1.0054 0.962562 4.56974e-19)
(0.969381 0.978895 1.19532e-19)
(0.923518 0.985313 -9.03992e-20)
(0.85346 0.961983 0)
(0.714281 0.854135 -1.77164e-19)
(0.38627 0.48416 -9.90779e-20)
(1.21034 0.894761 0)
(1.18802 0.916471 0)
(1.1709 0.934552 6.42089e-19)
(1.14996 0.95136 1.30532e-19)
(1.12415 0.968506 -1.84089e-19)
(1.09236 0.984049 3.44718e-19)
(1.04883 0.9889 -2.00603e-19)
(0.97707 0.964143 -5.92901e-19)
(0.824096 0.853645 3.1692e-19)
(0.445385 0.480063 1.73078e-19)
(0.951093 0.008018 -1.21828e-20)
(1.04981 0.195072 -7.05964e-21)
(0.957604 0.266088 7.22775e-21)
(0.941878 0.242126 5.92832e-21)
(0.909111 0.210192 2.00537e-20)
(0.884494 0.203581 3.30543e-20)
(0.860212 0.2046 -1.56832e-20)
(0.804826 0.235725 -2.71027e-20)
(0.761189 0.273376 -9.42292e-20)
(0.556094 0.365156 9.95116e-20)
(0.950635 0.00462472 -1.02712e-21)
(1.05035 0.201165 7.55044e-21)
(0.956548 0.276553 9.1716e-23)
(0.941489 0.251081 1.37139e-20)
(0.907909 0.217328 1.57081e-20)
(0.884722 0.210501 -4.48868e-20)
(0.867762 0.214652 -1.48478e-20)
(0.81951 0.251869 5.25293e-23)
(0.785575 0.310869 2.41243e-19)
(0.601492 0.437155 -3.44186e-21)
(0.950092 0.00142387 3.04743e-21)
(1.05141 0.207842 1.32562e-20)
(0.955226 0.287148 -9.34034e-21)
(0.939861 0.259968 -1.74689e-21)
(0.904472 0.224071 -1.878e-20)
(0.883044 0.216331 3.32725e-21)
(0.872406 0.222709 2.01049e-20)
(0.832771 0.266783 -1.96466e-20)
(0.809088 0.345882 1.16426e-19)
(0.65721 0.504124 -3.25464e-19)
(0.949458 -0.00160916 1.90997e-21)
(1.05322 0.215156 -2.1482e-21)
(0.953606 0.298106 -1.11342e-20)
(0.936124 0.268933 -3.72646e-20)
(0.899187 0.230339 4.14152e-20)
(0.880842 0.221021 2.35378e-20)
(0.874932 0.228919 -2.48745e-20)
(0.844474 0.280533 9.4694e-20)
(0.832669 0.37795 -1.04142e-19)
(0.717793 0.569916 -3.20699e-19)
(0.948779 -0.00455053 1.50546e-21)
(1.05619 0.223163 -8.17833e-21)
(0.951469 0.30986 4.90754e-21)
(0.929899 0.277972 5.94022e-20)
(0.894337 0.2359 1.48504e-20)
(0.879463 0.224553 4.99969e-20)
(0.876263 0.233784 3.08286e-20)
(0.854524 0.293513 7.05622e-20)
(0.85444 0.405153 -1.24599e-20)
(0.800543 0.622941 2.56185e-19)
(0.948163 -0.0075674 2.10722e-21)
(1.06065 0.231965 3.15709e-22)
(0.948332 0.322775 -2.66837e-21)
(0.923968 0.286952 1.6068e-20)
(0.893485 0.240402 -4.50441e-20)
(0.879542 0.227374 7.15018e-21)
(0.877427 0.237937 -7.27472e-21)
(0.862927 0.305633 -2.06075e-19)
(0.880321 0.428112 0)
(0.87254 0.677909 -2.85133e-20)
(0.947718 -0.0108258 -2.80244e-21)
(1.06632 0.241669 -3.3282e-21)
(0.944808 0.336578 1.50642e-21)
(0.924508 0.294729 -7.61318e-20)
(0.898073 0.243533 -1.69249e-20)
(0.881538 0.23015 -7.04628e-20)
(0.880293 0.241754 4.20164e-21)
(0.87231 0.317717 7.05728e-21)
(0.903888 0.445123 -3.76046e-21)
(0.963856 0.714947 8.84154e-19)
(0.947278 -0.0144172 -3.0108e-20)
(1.07225 0.251853 -6.89149e-21)
(0.944841 0.350606 1.68278e-20)
(0.933811 0.299542 3.88944e-20)
(0.907762 0.245708 -8.30027e-20)
(0.887854 0.233575 1.65224e-20)
(0.889741 0.245292 -3.63004e-21)
(0.885697 0.329892 1.85983e-20)
(0.936223 0.458534 1.42745e-19)
(1.07375 0.758634 -9.58798e-20)
(0.945436 -0.0181403 9.82262e-21)
(1.07817 0.261495 9.72595e-22)
(0.953738 0.363489 -7.16287e-21)
(0.950766 0.302185 9.7378e-20)
(0.925711 0.247769 7.80385e-21)
(0.907403 0.237976 2.43739e-20)
(0.915654 0.247985 -4.20754e-20)
(0.91125 0.339582 6.04956e-20)
(0.982953 0.457835 2.60872e-19)
(1.14472 0.774933 -6.41253e-19)
(0.939189 -0.0209681 1.57156e-20)
(1.08615 0.270929 2.32953e-20)
(0.972913 0.372935 1.15834e-21)
(0.98005 0.302819 -3.54334e-20)
(0.967166 0.248762 8.75677e-20)
(0.95629 0.241962 -3.11124e-20)
(0.967965 0.253192 -1.16832e-20)
(0.954245 0.357365 4.9188e-20)
(1.04404 0.481827 -8.47725e-20)
(1.28854 0.825129 4.03284e-19)
(0.923269 -0.0276164 -3.72145e-21)
(1.10136 0.27538 -1.48752e-20)
(1.01816 0.381624 -4.32762e-21)
(1.05376 0.305808 -5.74281e-20)
(1.06947 0.247064 -5.04533e-20)
(1.07449 0.243396 -4.0375e-20)
(1.08466 0.252028 8.21397e-21)
(1.07106 0.359336 -1.35683e-19)
(1.14455 0.421514 -4.29108e-19)
(1.32018 0.802351 -5.89644e-20)
(0.896643 -0.0386195 -1.51364e-20)
(1.11763 0.258973 -2.07622e-20)
(1.10858 0.37049 4.89977e-22)
(1.1885 0.297887 -2.27046e-21)
(1.24326 0.234868 3.53415e-20)
(1.2453 0.243047 6.8037e-20)
(1.32303 0.240285 1.36909e-20)
(1.22766 0.360928 1.13955e-19)
(1.45878 0.388032 1.32281e-19)
(1.34224 0.708039 3.8888e-19)
(0.872187 -0.0452282 -3.55994e-21)
(1.12391 0.219645 -5.32002e-21)
(1.19901 0.333381 6.39813e-21)
(1.31994 0.273851 9.87671e-21)
(1.41068 0.219472 7.39828e-35)
(1.40007 0.223553 -5.69311e-21)
(1.57222 0.238805 -4.85113e-34)
(1.3585 0.334659 1.88085e-20)
(1.80493 0.36077 -5.4267e-20)
(1.47668 0.643508 -2.99606e-19)
(0.857931 -0.047671 3.26888e-20)
(1.11815 0.160225 -4.70683e-35)
(1.25868 0.272607 -6.57889e-21)
(1.41374 0.235712 1.13972e-20)
(1.53181 0.199254 -1.20503e-20)
(1.51314 0.191484 -2.71884e-20)
(1.75397 0.235956 -5.89581e-34)
(1.49261 0.296594 -7.05035e-20)
(2.01154 0.329435 -1.25906e-19)
(1.72859 0.583423 3.22106e-19)
(0.856519 -0.0468653 0)
(1.10557 0.091611 -1.04243e-34)
(1.28011 0.195514 0)
(1.46529 0.187113 0)
(1.59247 0.176236 0)
(1.59462 0.151457 0)
(1.82878 0.223223 -4.1188e-34)
(1.63071 0.261184 0)
(2.07083 0.271377 -1.94017e-20)
(1.97905 0.510062 1.8552e-19)
(0.865826 -0.0447441 4.4931e-21)
(1.0958 0.0247958 1.43728e-21)
(1.27357 0.109788 -7.24177e-21)
(1.47446 0.131533 0)
(1.60298 0.147597 0)
(1.64132 0.112522 6.17541e-21)
(1.8195 0.203345 3.85174e-20)
(1.75208 0.226199 -1.42814e-20)
(2.06005 0.199994 -2.88987e-20)
(2.13334 0.430458 1.26359e-19)
(0.880623 -0.0433762 -5.21852e-20)
(1.09351 -0.0400464 -5.54048e-21)
(1.23777 0.0251738 -7.84622e-21)
(1.43231 0.0758641 -2.23518e-20)
(1.55518 0.109676 -1.14115e-20)
(1.63257 0.0785113 -6.34734e-21)
(1.74252 0.171348 -3.10096e-20)
(1.82549 0.186141 -2.11946e-20)
(1.99827 0.138682 -7.43822e-20)
(2.16923 0.347787 1.1801e-19)
(0.894278 -0.0454887 -7.96605e-21)
(1.1104 -0.0864562 -1.7965e-20)
(1.14652 -0.0406199 -8.40412e-21)
(1.30699 0.0300533 -7.02547e-21)
(1.39732 0.065803 5.80208e-35)
(1.51685 0.0498149 7.23418e-21)
(1.5419 0.122992 -8.32187e-34)
(1.79274 0.130695 -1.50679e-20)
(1.81488 0.0923484 1.89219e-20)
(2.08621 0.259095 2.38265e-20)
(0.907467 -0.0612273 1.34759e-19)
(1.07685 -0.107972 -6.73353e-21)
(0.929885 -0.0734007 -9.7539e-21)
(1.0149 -0.00148827 1.26712e-20)
(1.05983 0.0241442 4.92746e-21)
(1.16477 0.0256547 1.1748e-20)
(1.17444 0.0652692 8.18157e-21)
(1.49199 0.0622499 -1.87813e-20)
(1.40423 0.0567219 -1.49558e-20)
(1.79146 0.141466 9.75716e-20)
(0.855519 -0.0428653 8.57742e-21)
(0.804951 -0.0650758 -7.80769e-35)
(0.453612 -0.0346867 -1.01835e-20)
(0.472716 3.39427e-05 0)
(0.477985 0.00541243 0)
(0.531602 0.00909191 7.41235e-21)
(0.574572 0.0163616 -9.49904e-36)
(0.757483 0.0184353 -1.53483e-20)
(0.730018 0.0199024 -2.66177e-20)
(1.02773 0.0424581 -3.70294e-20)
(1.56347 0.828447 1.56761e-19)
(1.6757 0.821663 -8.37099e-20)
(1.80082 0.8033 -3.064e-21)
(1.92132 0.777093 6.78814e-20)
(2.04453 0.73825 -2.68201e-19)
(2.15956 0.690965 -4.90135e-19)
(2.2689 0.628904 -2.44329e-19)