/*--------------------------------*- C++ -*----------------------------------*\
| =========                 |                                                 |
| \\      /  F ield         | OpenFOAM: The Open Source CFD Toolbox           |
|  \\    /   O peration     | Version:  2406                                  |
|   \\  /    A nd           | Website:  www.openfoam.com                      |
|    \\/     M anipulation  |                                                 |
\*---------------------------------------------------------------------------*/
FoamFile
{
    version     2.0;
    format      ascii;
    arch        "LSB;label=32;scalar=64";
    class       volVectorField;
    location    "0.15";
    object      flux;
}
// * * * * * * * * * * * * * * * * * * * * * * * * * * * * * * * * * * * * * //

dimensions      [0 1 -1 1 0 0 0];

internalField   nonuniform List<vector> 
2500
(
(0.00110544 0.00110544 0)
(0.00331738 0.00115538 0)
(0.00553759 0.00125531 0)
(0.00776919 0.00140496 0)
(0.0100049 0.00160395 0)
(0.0122315 0.00185155 0)
(0.0144267 0.00214653 0)
(0.0165586 0.00248698 0)
(0.0185855 0.00287018 0)
(0.0204578 0.00329243 0)
(0.0221195 0.00374901 0)
(0.0235107 0.00423407 0)
(0.024571 0.0047407 0)
(0.0252426 0.005261 0)
(0.0254741 0.00578617 0)
(0.0252238 0.00630678 0)
(0.0244626 0.00681294 0)
(0.0231769 0.00729463 0)
(0.0213702 0.00774196 0)
(0.0190638 0.00814547 0)
(0.0162972 0.00849645 0)
(0.013127 0.00878718 0)
(0.00962526 0.00901118 0)
(0.00587696 0.00916341 0)
(0.00197667 0.00924042 0)
(-0.001975 0.00924047 0)
(-0.00587538 0.00916354 0)
(-0.00962387 0.00901138 0)
(-0.0131258 0.00878745 0)
(-0.0162964 0.00849678 0)
(-0.0190634 0.00814586 0)
(-0.0213702 0.00774238 0)
(-0.0231774 0.00729508 0)
(-0.0244634 0.0068134 0)
(-0.0252249 0.00630724 0)
(-0.0254756 0.00578662 0)
(-0.0252443 0.00526141 0)
(-0.0245728 0.00474108 0)
(-0.0235126 0.0042344 0)
(-0.0221213 0.0037493 0)
(-0.0204596 0.00329267 0)
(-0.0185871 0.00287038 0)
(-0.0165601 0.00248714 0)
(-0.0144281 0.00214667 0)
(-0.0122328 0.00185169 0)
(-0.0100062 0.00160411 0)
(-0.00777076 0.00140519 0)
(-0.00553976 0.00125568 0)
(-0.00331837 0.00115589 0)
(-0.00110513 0.00110543 0)
(0.00115538 0.00331738 0)
(0.00346725 0.00346725 0)
(0.00578716 0.00376666 0)
(0.00811783 0.00421512 0)
(0.0104515 0.00481146 0)
(0.0127741 0.00555343 0)
(0.0150622 0.0064373 0)
(0.0172822 0.00745731 0)
(0.0193909 0.00860523 0)
(0.0213366 0.00986998 0)
(0.0230611 0.0112373 0)
(0.0245024 0.0126897 0)
(0.0255979 0.0142065 0)
(0.0262881 0.0157639 0)
(0.0265199 0.0173356 0)
(0.0262505 0.0188934 0)
(0.0254504 0.0204077 0)
(0.024106 0.0218487 0)
(0.022221 0.0231866 0)
(0.0198183 0.0243933 0)
(0.0169389 0.0254429 0)
(0.0136417 0.0263122 0)
(0.0100015 0.0269819 0)
(0.0061062 0.027437 0)
(0.00205372 0.0276673 0)
(-0.00205189 0.0276675 0)
(-0.00610447 0.0274376 0)
(-0.00999995 0.0269827 0)
(-0.0136404 0.0263133 0)
(-0.016938 0.0254443 0)
(-0.0198178 0.0243951 0)
(-0.022221 0.0231885 0)
(-0.0241064 0.0218508 0)
(-0.0254513 0.02041 0)
(-0.0262517 0.0188958 0)
(-0.0265214 0.017338 0)
(-0.0262898 0.0157663 0)
(-0.0255998 0.0142089 0)
(-0.0245044 0.012692 0)
(-0.0230631 0.0112395 0)
(-0.0213385 0.00987202 0)
(-0.0193927 0.00860711 0)
(-0.0172838 0.00745902 0)
(-0.0150636 0.00643884 0)
(-0.0127753 0.00555483 0)
(-0.0104527 0.00481277 0)
(-0.00811919 0.00421646 0)
(-0.00578906 0.00376824 0)
(-0.00346862 0.00346933 0)
(-0.00115559 0.00331907 0)
(0.00125531 0.00553759 0)
(0.00376666 0.00578716 0)
(0.00628545 0.00628545 0)
(0.00881399 0.00703182 0)
(0.0113432 0.00802417 0)
(0.0138573 0.00925862 0)
(0.0163306 0.0107288 0)
(0.0187265 0.0124249 0)
(0.0209981 0.0143331 0)
(0.0230898 0.0164348 0)
(0.0249392 0.0187063 0)
(0.0264798 0.0211181 0)
(0.0276451 0.023636 0)
(0.0283717 0.0262203 0)
(0.0286036 0.0288275 0)
(0.0282959 0.0314107 0)
(0.0274179 0.033921 0)
(0.0259558 0.0363088 0)
(0.0239149 0.0385254 0)
(0.0213201 0.0405241 0)
(0.018216 0.0422619 0)
(0.014666 0.0437011 0)
(0.0107501 0.0448097 0)
(0.00656236 0.045563 0)
(0.00220711 0.0459441 0)
(-0.00220475 0.0459444 0)
(-0.00656011 0.0455639 0)
(-0.0107481 0.0448111 0)
(-0.0146643 0.0437031 0)
(-0.0182146 0.0422644 0)
(-0.0213192 0.040527 0)
(-0.0239145 0.0385287 0)
(-0.0259559 0.0363126 0)
(-0.0274184 0.033925 0)
(-0.0282969 0.0314149 0)
(-0.0286051 0.0288318 0)
(-0.0283735 0.0262247 0)
(-0.0276471 0.0236403 0)
(-0.026482 0.0211224 0)
(-0.0249413 0.0187103 0)
(-0.023092 0.0164387 0)
(-0.0210001 0.0143367 0)
(-0.0187283 0.0124282 0)
(-0.0163323 0.0107317 0)
(-0.0138589 0.00926127 0)
(-0.0113446 0.00802658 0)
(-0.00881529 0.00703411 0)
(-0.0062869 0.00628783 0)
(-0.00376754 0.00578994 0)
(-0.00125539 0.00554061 0)
(0.00140496 0.00776919 0)
(0.00421512 0.00811783 0)
(0.00703182 0.00881399 0)
(0.00985655 0.00985655 0)
(0.0126783 0.0112423 0)
(0.0154787 0.0129656 0)
(0.0182284 0.0150171 0)
(0.0208865 0.0173829 0)
(0.0234009 0.0200433 0)
(0.0257097 0.022972 0)
(0.0277444 0.0261354 0)
(0.0294321 0.0294927 0)
(0.0307001 0.0329956 0)
(0.0314796 0.036589 0)
(0.0317103 0.0402122 0)
(0.031344 0.0438003 0)
(0.0303486 0.0472853 0)
(0.0287103 0.0505987 0)
(0.0264362 0.0536731 0)
(0.0235548 0.0564442 0)
(0.0201159 0.0588529 0)
(0.0161895 0.060847 0)
(0.0118634 0.0623827 0)
(0.0072406 0.063426 0)
(0.00243511 0.0639537 0)
(-0.0024321 0.0639541 0)
(-0.00723772 0.063427 0)
(-0.0118608 0.0623844 0)
(-0.0161872 0.0608493 0)
(-0.0201141 0.0588558 0)
(-0.0235535 0.0564476 0)
(-0.0264354 0.053677 0)
(-0.0287101 0.050603 0)
(-0.0303489 0.0472899 0)
(-0.0313449 0.0438051 0)
(-0.0317116 0.0402172 0)
(-0.0314814 0.036594 0)
(-0.0307021 0.0330005 0)
(-0.0294344 0.0294975 0)
(-0.0277468 0.02614 0)
(-0.0257121 0.0229763 0)
(-0.0234032 0.0200472 0)
(-0.0208887 0.0173865 0)
(-0.0182305 0.0150203 0)
(-0.0154805 0.0129685 0)
(-0.0126798 0.0112449 0)
(-0.00985794 0.00985896 0)
(-0.00703323 0.00881632 0)
(-0.00421584 0.00812014 0)
(-0.00140493 0.00777167 0)
(0.00160395 0.0100049 0)
(0.00481146 0.0104515 0)
(0.00802417 0.0113432 0)
(0.0112423 0.0126783 0)
(0.0144522 0.0144522 0)
(0.0176321 0.0166573 0)
(0.0207479 0.0192811 0)
(0.0237527 0.0223052 0)
(0.0265872 0.0257037 0)
(0.029182 0.0294426 0)
(0.03146 0.0334785 0)
(0.03334 0.0377586 0)
(0.0347414 0.0422212 0)
(0.0355884 0.0467958 0)
(0.0358149 0.0514053 0)
(0.0353689 0.0559668 0)
(0.0342163 0.0603945 0)
(0.0323436 0.0646015 0)
(0.0297604 0.0685029 0)
(0.0264999 0.0720176 0)
(0.0226188 0.0750712 0)
(0.0181958 0.0775982 0)
(0.0133291 0.0795438 0)
(0.00813341 0.0808652 0)
(0.00273517 0.0815335 0)
(-0.00273145 0.0815339 0)
(-0.00812982 0.0808663 0)
(-0.0133258 0.0795456 0)
(-0.0181928 0.0776007 0)
(-0.0226163 0.0750744 0)
(-0.026498 0.0720213 0)
(-0.0297591 0.0685071 0)
(-0.032343 0.0646062 0)
(-0.0342163 0.0603995 0)
(-0.0353696 0.0559721 0)
(-0.0358162 0.0514107 0)
(-0.0355901 0.0468013 0)
(-0.0347435 0.0422265 0)
(-0.0333425 0.0377638 0)
(-0.0314626 0.0334834 0)
(-0.0291847 0.0294472 0)
(-0.0265899 0.025708 0)
(-0.0237552 0.0223091 0)
(-0.0207503 0.0192846 0)
(-0.0176343 0.0166604 0)
(-0.0144541 0.014455 0)
(-0.0112439 0.0126808 0)
(-0.00802572 0.0113455 0)
(-0.00481219 0.0104536 0)
(-0.00160386 0.0100071 0)
(0.00185155 0.0122315 0)
(0.00555343 0.0127741 0)
(0.00925862 0.0138573 0)
(0.0129656 0.0154787 0)
(0.0166573 0.0176321 0)
(0.0203076 0.0203076 0)
(0.0238763 0.0234891 0)
(0.0273092 0.0271536 0)
(0.0305383 0.0312689 0)
(0.0334845 0.0357927 0)
(0.0360604 0.0406718 0)
(0.0381748 0.0458419 0)
(0.0397373 0.0512277 0)
(0.0406637 0.0567441 0)
(0.0408813 0.0622976 0)
(0.0403332 0.0677889 0)
(0.0389833 0.0731148 0)
(0.0368187 0.0781716 0)
(0.0338523 0.0828576 0)
(0.0301232 0.0870766 0)
(0.0256966 0.0907401 0)
(0.020662 0.0937704 0)
(0.0151304 0.0961025 0)
(0.00923033 0.097686 0)
(0.00310376 0.0984867 0)
(-0.00309928 0.0984871 0)
(-0.009226 0.0976872 0)
(-0.0151263 0.0961043 0)
(-0.0206584 0.0937729 0)
(-0.0256935 0.0907433 0)
(-0.0301207 0.0870804 0)
(-0.0338505 0.082862 0)
(-0.0368177 0.0781764 0)
(-0.0389831 0.07312 0)
(-0.0403337 0.0677944 0)
(-0.0408824 0.0623033 0)
(-0.0406655 0.0567497 0)
(-0.0397396 0.0512333 0)
(-0.0381775 0.0458474 0)
(-0.0360634 0.040677 0)
(-0.0334876 0.0357976 0)
(-0.0305414 0.0312734 0)
(-0.0273121 0.0271577 0)
(-0.0238791 0.0234929 0)
(-0.0203101 0.0203109 0)
(-0.0166595 0.0176351 0)
(-0.0129674 0.0154813 0)
(-0.00926039 0.0138598 0)
(-0.00555425 0.0127763 0)
(-0.00185144 0.0122337 0)
(0.00214653 0.0144267 0)
(0.0064373 0.0150622 0)
(0.0107288 0.0163306 0)
(0.0150171 0.0182284 0)
(0.0192811 0.0207479 0)
(0.0234891 0.0238763 0)
(0.027594 0.027594 0)
(0.0315324 0.0318726 0)
(0.0352263 0.0366736 0)
(0.038585 0.0419464 0)
(0.0415092 0.047628 0)
(0.0438959 0.0536425 0)
(0.0456435 0.0599017 0)
(0.0466583 0.0663063 0)
(0.0468598 0.0727477 0)
(0.0461861 0.0791108 0)
(0.044599 0.0852765 0)
(0.0420864 0.0911254 0)
(0.0386654 0.0965412 0)
(0.0343823 0.101414 0)
(0.0293126 0.105642 0)
(0.0235582 0.109137 0)
(0.0172448 0.111826 0)
(0.0105177 0.113651 0)
(0.00353623 0.114574 0)
(-0.003531 0.114574 0)
(-0.0105126 0.113652 0)
(-0.0172401 0.111828 0)
(-0.0235539 0.10914 0)
(-0.0293088 0.105645 0)
(-0.0343793 0.101417 0)
(-0.0386631 0.0965455 0)
(-0.0420849 0.0911302 0)
(-0.0445984 0.0852816 0)
(-0.0461864 0.0791162 0)
(-0.0468608 0.0727534 0)
(-0.0466601 0.0663121 0)
(-0.0456459 0.0599074 0)
(-0.0438987 0.0536481 0)
(-0.0415124 0.0476333 0)
(-0.0385884 0.0419514 0)
(-0.0352297 0.0366783 0)
(-0.0315358 0.0318769 0)
(-0.0275972 0.0275979 0)
(-0.023492 0.0238798 0)
(-0.0192836 0.0207511 0)
(-0.0150192 0.0182312 0)
(-0.0107308 0.0163332 0)
(-0.00643824 0.0150645 0)
(-0.00214641 0.014429 0)
(0.00248698 0.0165586 0)
(0.00745731 0.0172822 0)
(0.0124249 0.0187265 0)
(0.0173829 0.0208865 0)
(0.0223052 0.0237527 0)
(0.0271536 0.0273092 0)
(0.0318726 0.0315324 0)
(0.0363888 0.0363888 0)
(0.0406121 0.0418328 0)
(0.0444389 0.047806 0)
(0.0477566 0.0542354 0)
(0.0504485 0.0610342 0)
(0.0524011 0.0681017 0)
(0.0535097 0.0753252 0)
(0.0536857 0.0825822 0)
(0.052862 0.0897431 0)
(0.050998 0.0966747 0)
(0.0480835 0.103244 0)
(0.0441404 0.109321 0)
(0.0392237 0.114783 0)
(0.0334202 0.11952 0)
(0.0268464 0.123434 0)
(0.0196445 0.126443 0)
(0.0119782 0.128484 0)
(0.00402678 0.129516 0)
(-0.00402084 0.129516 0)
(-0.0119724 0.128485 0)
(-0.0196391 0.126444 0)
(-0.0268414 0.123436 0)
(-0.0334158 0.119523 0)
(-0.0392201 0.114787 0)
(-0.0441376 0.109325 0)
(-0.0480816 0.103248 0)
(-0.0509971 0.0966796 0)
(-0.052862 0.0897484 0)
(-0.0536866 0.0825877 0)
(-0.0535115 0.0753308 0)
(-0.0524035 0.0681073 0)
(-0.0504516 0.0610397 0)
(-0.04776 0.0542408 0)
(-0.0444426 0.0478111 0)
(-0.0406159 0.0418376 0)
(-0.0363925 0.0363931 0)
(-0.0318762 0.0315364 0)
(-0.0271569 0.0273128 0)
(-0.022308 0.0237559 0)
(-0.0173853 0.0208895 0)
(-0.0124272 0.0187291 0)
(-0.00745838 0.0172846 0)
(-0.00248687 0.0165609 0)
(0.00287018 0.0185855 0)
(0.00860523 0.0193909 0)
(0.0143331 0.0209981 0)
(0.0200433 0.0234009 0)
(0.0257037 0.0265872 0)
(0.0312689 0.0305383 0)
(0.0366736 0.0352263 0)
(0.0418328 0.0406121 0)
(0.0466435 0.0466435 0)
(0.0509876 0.0532539 0)
(0.0547374 0.0603611 0)
(0.0577621 0.0678675 0)
(0.0599345 0.0756612 0)
(0.0611388 0.0836172 0)
(0.0612777 0.0916003 0)
(0.0602786 0.0994683 0)
(0.0580995 0.107076 0)
(0.0547322 0.114277 0)
(0.0502048 0.120932 0)
(0.0445817 0.126909 0)
(0.0379629 0.132088 0)
(0.0304807 0.136363 0)
(0.0222956 0.139649 0)
(0.0135913 0.141877 0)
(0.00456842 0.143003 0)
(-0.00456185 0.143004 0)
(-0.0135849 0.141878 0)
(-0.0222895 0.13965 0)
(-0.0304751 0.136365 0)
(-0.037958 0.13209 0)
(-0.0445776 0.126912 0)
(-0.0502015 0.120936 0)
(-0.0547299 0.114281 0)
(-0.0580982 0.10708 0)
(-0.0602784 0.0994732 0)
(-0.0612784 0.0916054 0)
(-0.0611405 0.0836224 0)
(-0.059937 0.0756665 0)
(-0.0577653 0.0678728 0)
(-0.0547411 0.0603662 0)
(-0.0509916 0.0532588 0)
(-0.0466477 0.0466482 0)
(-0.041837 0.0406164 0)
(-0.0366775 0.0352303 0)
(-0.0312725 0.0305419 0)
(-0.0257069 0.0265905 0)
(-0.020046 0.0234039 0)
(-0.0143357 0.0210009 0)
(-0.00860644 0.0193935 0)
(-0.00287009 0.018588 0)
(0.00329243 0.0204578 0)
(0.00986998 0.0213366 0)
(0.0164348 0.0230898 0)
(0.022972 0.0257097 0)
(0.0294426 0.029182 0)
(0.0357927 0.0334845 0)
(0.0419464 0.038585 0)
(0.047806 0.0444389 0)
(0.0532539 0.0509876 0)
(0.0581565 0.0581565 0)
(0.0623702 0.0658547 0)
(0.0657487 0.0739751 0)
(0.0681508 0.0823953 0)
(0.0694488 0.0909794 0)
(0.0695368 0.0995816 0)
(0.0683372 0.108049 0)
(0.0658067 0.116225 0)
(0.0619401 0.123956 0)
(0.0567725 0.131093 0)
(0.0503792 0.137496 0)
(0.0428744 0.143039 0)
(0.0344075 0.147612 0)
(0.0251585 0.151124 0)
(0.0153326 0.153505 0)
(0.00515297 0.154707 0)
(-0.00514588 0.154707 0)
(-0.0153257 0.153505 0)
(-0.0251519 0.151125 0)
(-0.0344014 0.147613 0)
(-0.0428689 0.143041 0)
(-0.0503745 0.137499 0)
(-0.0567687 0.131096 0)
(-0.0619374 0.12396 0)
(-0.065805 0.116229 0)
(-0.0683367 0.108053 0)
(-0.0695373 0.099586 0)
(-0.0694503 0.0909841 0)
(-0.0681532 0.0824 0)
(-0.0657519 0.07398 0)
(-0.062374 0.0658595 0)
(-0.0581607 0.0581611 0)
(-0.0532583 0.050992 0)
(-0.0478104 0.0444431 0)
(-0.0419506 0.0385888 0)
(-0.0357966 0.0334881 0)
(-0.0294461 0.0291853 0)
(-0.0229749 0.0257128 0)
(-0.0164376 0.0230927 0)
(-0.0098713 0.0213393 0)
(-0.00329236 0.0204604 0)
(0.00374901 0.0221195 0)
(0.0112373 0.0230611 0)
(0.0187063 0.0249392 0)
(0.0261354 0.0277444 0)
(0.0334785 0.03146 0)
(0.0406718 0.0360604 0)
(0.047628 0.0415092 0)
(0.0542354 0.0477566 0)
(0.0603611 0.0547374 0)
(0.0658547 0.0623702 0)
(0.0705561 0.0705561 0)
(0.0743026 0.0791793 0)
(0.0769388 0.0881085 0)
(0.0783251 0.0971991 0)
(0.078347 0.106296 0)
(0.0769222 0.115238 0)
(0.074007 0.123862 0)
(0.0696001 0.132005 0)
(0.0637445 0.139514 0)
(0.0565276 0.146243 0)
(0.0480787 0.152063 0)
(0.0385654 0.156861 0)
(0.0281884 0.160543 0)
(0.0171748 0.163038 0)
(0.0057712 0.164298 0)
(-0.00576372 0.164298 0)
(-0.0171674 0.163039 0)
(-0.0281814 0.160544 0)
(-0.0385589 0.156862 0)
(-0.0480728 0.152065 0)
(-0.0565225 0.146245 0)
(-0.0637403 0.139516 0)
(-0.069597 0.132008 0)
(-0.074005 0.123865 0)
(-0.0769214 0.115241 0)
(-0.0783473 0.1063 0)
(-0.0783265 0.097203 0)
(-0.0769411 0.0881126 0)
(-0.0743058 0.0791835 0)
(-0.0705599 0.0705603 0)
(-0.0658591 0.0623744 0)
(-0.0603657 0.0547414 0)
(-0.0542401 0.0477604 0)
(-0.0476325 0.0415128 0)
(-0.040676 0.0360638 0)
(-0.0334822 0.0314632 0)
(-0.0261386 0.0277474 0)
(-0.0187092 0.0249421 0)
(-0.0112387 0.0230639 0)
(-0.00374896 0.0221222 0)
(0.00423407 0.0235107 0)
(0.0126897 0.0245024 0)
(0.0211181 0.0264798 0)
(0.0294927 0.0294321 0)
(0.0377586 0.03334 0)
(0.0458419 0.0381748 0)
(0.0536425 0.0438959 0)
(0.0610342 0.0504485 0)
(0.0678675 0.0577621 0)
(0.0739751 0.0657487 0)
(0.0791793 0.0743026 0)
(0.0833011 0.0833011 0)
(0.0861705 0.0926057 0)
(0.0876364 0.102065 0)
(0.0875759 0.111517 0)
(0.0859028 0.120795 0)
(0.0825739 0.12973 0)
(0.0775924 0.138156 0)
(0.0710106 0.145916 0)
(0.0629286 0.152863 0)
(0.0534919 0.158865 0)
(0.0428871 0.163808 0)
(0.0313357 0.167599 0)
(0.0190876 0.170167 0)
(0.00641295 0.171463 0)
(-0.00640523 0.171463 0)
(-0.01908 0.170167 0)
(-0.0313285 0.1676 0)
(-0.0428803 0.163809 0)
(-0.0534857 0.158866 0)
(-0.0629232 0.152864 0)
(-0.0710061 0.145917 0)
(-0.0775889 0.138158 0)
(-0.0825715 0.129732 0)
(-0.0859016 0.120797 0)
(-0.0875758 0.111519 0)
(-0.0876375 0.102068 0)
(-0.0861727 0.0926089 0)
(-0.0833042 0.0833045 0)
(-0.0791831 0.0743061 0)
(-0.0739795 0.0657522 0)
(-0.0678723 0.0577656 0)
(-0.061039 0.0504519 0)
(-0.0536472 0.0438991 0)
(-0.0458463 0.0381779 0)
(-0.0377625 0.033343 0)
(-0.029496 0.029435 0)
(-0.0211211 0.0264827 0)
(-0.0126912 0.0245051 0)
(-0.00423405 0.0235134 0)
(0.0047407 0.024571 0)
(0.0142065 0.0255979 0)
(0.023636 0.0276451 0)
(0.0329956 0.0307001 0)
(0.0422212 0.0347414 0)
(0.0512277 0.0397373 0)
(0.0599017 0.0456435 0)
(0.0681017 0.0524011 0)
(0.0756612 0.0599345 0)
(0.0823953 0.0681508 0)
(0.0881085 0.0769388 0)
(0.0926057 0.0861705 0)
(0.0957024 0.0957024 0)
(0.0972362 0.105378 0)
(0.0970769 0.115032 0)
(0.095135 0.124495 0)
(0.0913686 0.133594 0)
(0.0857866 0.142165 0)
(0.0784513 0.150047 0)
(0.0694762 0.157094 0)
(0.0590239 0.163177 0)
(0.0473001 0.168183 0)
(0.0345476 0.172019 0)
(0.0210387 0.174616 0)
(0.00706738 0.175926 0)
(-0.0070596 0.175926 0)
(-0.0210311 0.174616 0)
(-0.0345402 0.172019 0)
(-0.0472931 0.168183 0)
(-0.0590175 0.163177 0)
(-0.0694706 0.157095 0)
(-0.0784465 0.150047 0)
(-0.0857828 0.142165 0)
(-0.0913659 0.133595 0)
(-0.0951335 0.124496 0)
(-0.0970765 0.115034 0)
(-0.097237 0.10538 0)
(-0.0957043 0.0957045 0)
(-0.0926086 0.0861729 0)
(-0.0881122 0.0769413 0)
(-0.0823996 0.0681534 0)
(-0.0756659 0.0599373 0)
(-0.0681066 0.0524038 0)
(-0.0599065 0.0456463 0)
(-0.0512322 0.03974 0)
(-0.0422251 0.034744 0)
(-0.0329989 0.0307027 0)
(-0.023639 0.0276478 0)
(-0.014208 0.0256006 0)
(-0.0047407 0.0245736 0)
(0.005261 0.0252426 0)
(0.0157639 0.0262881 0)
(0.0262203 0.0283717 0)
(0.036589 0.0314796 0)
(0.0467958 0.0355884 0)
(0.0567441 0.0406637 0)
(0.0663063 0.0466583 0)
(0.0753252 0.0535097 0)
(0.0836172 0.0611388 0)
(0.0909794 0.0694488 0)
(0.0971991 0.0783251 0)
(0.102065 0.0876364 0)
(0.105378 0.0972362 0)
(0.106966 0.106966 0)
(0.106693 0.11666 0)
(0.104465 0.126147 0)
(0.100244 0.135258 0)
(0.0940447 0.143826 0)
(0.0859405 0.151695 0)
(0.0760592 0.158724 0)
(0.0645803 0.164783 0)
(0.0517289 0.169765 0)
(0.0377688 0.17358 0)
(0.0229947 0.176161 0)
(0.00772325 0.177463 0)
(-0.00771556 0.177463 0)
(-0.0229872 0.176161 0)
(-0.0377615 0.17358 0)
(-0.0517219 0.169764 0)
(-0.0645739 0.164783 0)
(-0.0760535 0.158723 0)
(-0.0859355 0.151695 0)
(-0.0940406 0.143825 0)
(-0.100241 0.135257 0)
(-0.104463 0.126148 0)
(-0.106692 0.116661 0)
(-0.106967 0.106967 0)
(-0.10538 0.0972372 0)
(-0.102067 0.0876376 0)
(-0.0972026 0.0783266 0)
(-0.0909836 0.0694505 0)
(-0.0836218 0.0611407 0)
(-0.07533 0.0535117 0)
(-0.0663111 0.0466604 0)
(-0.0567485 0.0406659 0)
(-0.0467998 0.0355906 0)
(-0.0365923 0.0314819 0)
(-0.0262233 0.0283741 0)
(-0.0157654 0.0262905 0)
(-0.00526101 0.0252451 0)
(0.00578617 0.0254741 0)
(0.0173356 0.0265199 0)
(0.0288275 0.0286036 0)
(0.0402122 0.0317103 0)
(0.0514053 0.0358149 0)
(0.0622976 0.0408813 0)
(0.0727477 0.0468598 0)
(0.0825822 0.0536857 0)
(0.0916003 0.0612777 0)
(0.0995816 0.0695368 0)
(0.106296 0.078347 0)
(0.111517 0.0875759 0)
(0.115032 0.0970769 0)
(0.11666 0.106693 0)
(0.116258 0.116258 0)
(0.113732 0.125605 0)
(0.109047 0.134568 0)
(0.102224 0.142986 0)
(0.0933493 0.150707 0)
(0.082564 0.157594 0)
(0.0700651 0.163525 0)
(0.056097 0.168397 0)
(0.0409439 0.172126 0)
(0.0249218 0.174647 0)
(0.00836921 0.175918 0)
(-0.00836179 0.175917 0)
(-0.0249145 0.174646 0)
(-0.0409368 0.172125 0)
(-0.0560902 0.168396 0)
(-0.0700588 0.163524 0)
(-0.0825582 0.157593 0)
(-0.0933443 0.150706 0)
(-0.10222 0.142984 0)
(-0.109044 0.134567 0)
(-0.11373 0.125604 0)
(-0.116257 0.116257 0)
(-0.116661 0.106692 0)
(-0.115034 0.0970767 0)
(-0.111519 0.087576 0)
(-0.106299 0.0783474 0)
(-0.0995855 0.0695375 0)
(-0.0916048 0.0612786 0)
(-0.0825869 0.0536868 0)
(-0.0727523 0.0468611 0)
(-0.062302 0.0408828 0)
(-0.0514091 0.0358166 0)
(-0.0402154 0.0317122 0)
(-0.0288304 0.0286057 0)
(-0.0173371 0.0265221 0)
(-0.00578619 0.0254763 0)
(0.00630678 0.0252238 0)
(0.0188934 0.0262505 0)
(0.0314107 0.0282959 0)
(0.0438003 0.031344 0)
(0.0559668 0.0353689 0)
(0.0677889 0.0403332 0)
(0.0791108 0.0461861 0)
(0.0897431 0.052862 0)
(0.0994683 0.0602786 0)
(0.108049 0.0683372 0)
(0.115238 0.0769222 0)
(0.120795 0.0859028 0)
(0.124495 0.095135 0)
(0.126147 0.104465 0)
(0.125605 0.113732 0)
(0.122775 0.122775 0)
(0.117624 0.131433 0)
(0.110183 0.139553 0)
(0.100549 0.146992 0)
(0.0888778 0.153619 0)
(0.0753835 0.15932 0)
(0.060329 0.163998 0)
(0.044018 0.167575 0)
(0.0267868 0.169993 0)
(0.00899415 0.171211 0)
(-0.00898713 0.171211 0)
(-0.0267798 0.169992 0)
(-0.0440113 0.167574 0)
(-0.0603225 0.163996 0)
(-0.0753774 0.159318 0)
(-0.0888722 0.153617 0)
(-0.100544 0.146989 0)
(-0.110179 0.139551 0)
(-0.117621 0.131431 0)
(-0.122773 0.122773 0)
(-0.125604 0.11373 0)
(-0.126147 0.104463 0)
(-0.124496 0.0951336 0)
(-0.120797 0.0859017 0)
(-0.115241 0.0769215 0)
(-0.108052 0.0683368 0)
(-0.0994725 0.0602785 0)
(-0.0897475 0.0528622 0)
(-0.0791151 0.0461867 0)
(-0.067793 0.040334 0)
(-0.0559704 0.03537 0)
(-0.0438032 0.0313454 0)
(-0.0314134 0.0282975 0)
(-0.0188948 0.0262523 0)
(-0.00630679 0.0252256 0)
(0.00681294 0.0244626 0)
(0.0204077 0.0254504 0)
(0.033921 0.0274179 0)
(0.0472853 0.0303486 0)
(0.0603945 0.0342163 0)
(0.0731148 0.0389833 0)
(0.0852765 0.044599 0)
(0.0966747 0.050998 0)
(0.107076 0.0580995 0)
(0.116225 0.0658067 0)
(0.123862 0.074007 0)
(0.12973 0.0825739 0)
(0.133594 0.0913686 0)
(0.135258 0.100244 0)
(0.134568 0.109047 0)
(0.131433 0.117624 0)
(0.125825 0.125825 0)
(0.117783 0.133505 0)
(0.107415 0.140532 0)
(0.0948918 0.146785 0)
(0.0804443 0.152158 0)
(0.0643525 0.156564 0)
(0.0469388 0.15993 0)
(0.0285579 0.162203 0)
(0.00958746 0.163349 0)
(-0.00958098 0.163348 0)
(-0.0285514 0.162202 0)
(-0.0469325 0.159928 0)
(-0.0643464 0.156562 0)
(-0.0804385 0.152156 0)
(-0.0948865 0.146782 0)
(-0.10741 0.140529 0)
(-0.117779 0.133502 0)
(-0.125822 0.125822 0)
(-0.131431 0.117621 0)
(-0.134567 0.109044 0)
(-0.135257 0.100241 0)
(-0.133595 0.0913659 0)
(-0.129731 0.0825716 0)
(-0.123864 0.0740051 0)
(-0.116228 0.0658052 0)
(-0.107079 0.0580984 0)
(-0.0966787 0.0509972 0)
(-0.0852805 0.0445986 0)
(-0.0731186 0.0389834 0)
(-0.0603977 0.0342167 0)
(-0.0472879 0.0303494 0)
(-0.0339234 0.027419 0)
(-0.020409 0.0254518 0)
(-0.00681294 0.024464 0)
(0.00729463 0.0231769 0)
(0.0218487 0.024106 0)
(0.0363088 0.0259558 0)
(0.0505987 0.0287103 0)
(0.0646015 0.0323436 0)
(0.0781716 0.0368187 0)
(0.0911254 0.0420864 0)
(0.103244 0.0480835 0)
(0.114277 0.0547322 0)
(0.123956 0.0619401 0)
(0.132005 0.0696001 0)
(0.138156 0.0775924 0)
(0.142165 0.0857866 0)
(0.143826 0.0940447 0)
(0.142986 0.102224 0)
(0.139553 0.110183 0)
(0.133505 0.117783 0)
(0.124891 0.124891 0)
(0.113829 0.131386 0)
(0.100504 0.137158 0)
(0.0851621 0.142114 0)
(0.0681003 0.146173 0)
(0.0496576 0.149273 0)
(0.0302058 0.151365 0)
(0.0101393 0.152419 0)
(-0.0101335 0.152419 0)
(-0.0302 0.151364 0)
(-0.0496519 0.149271 0)
(-0.0680947 0.146171 0)
(-0.0851567 0.142111 0)
(-0.100499 0.137155 0)
(-0.113824 0.131382 0)
(-0.124887 0.124887 0)
(-0.133502 0.117779 0)
(-0.139551 0.110179 0)
(-0.142984 0.10222 0)
(-0.143825 0.0940407 0)
(-0.142165 0.0857829 0)
(-0.138157 0.077589 0)
(-0.132007 0.069597 0)
(-0.123959 0.0619375 0)
(-0.11428 0.0547301 0)
(-0.103247 0.0480818 0)
(-0.091129 0.0420852 0)
(-0.0781749 0.036818 0)
(-0.0646044 0.0323433 0)
(-0.0506009 0.0287105 0)
(-0.0363109 0.0259564 0)
(-0.0218497 0.0241069 0)
(-0.0072946 0.0231779 0)
(0.00774196 0.0213702 0)
(0.0231866 0.022221 0)
(0.0385254 0.0239149 0)
(0.0536731 0.0264362 0)
(0.0685029 0.0297604 0)
(0.0828576 0.0338523 0)
(0.0965412 0.0386654 0)
(0.109321 0.0441404 0)
(0.120932 0.0502048 0)
(0.131093 0.0567725 0)
(0.139514 0.0637445 0)
(0.145916 0.0710106 0)
(0.150047 0.0784513 0)
(0.151695 0.0859405 0)
(0.150707 0.0933493 0)
(0.146992 0.100549 0)
(0.140532 0.107415 0)
(0.131386 0.113829 0)
(0.119682 0.119682 0)
(0.10562 0.124879 0)
(0.0894592 0.129337 0)
(0.0715112 0.132985 0)
(0.0521305 0.135768 0)
(0.031704 0.137646 0)
(0.0106409 0.138592 0)
(-0.0106358 0.138591 0)
(-0.0316989 0.137645 0)
(-0.0521255 0.135766 0)
(-0.0715062 0.132982 0)
(-0.0894544 0.129334 0)
(-0.105616 0.124876 0)
(-0.119678 0.119678 0)
(-0.131382 0.113824 0)
(-0.140529 0.10741 0)
(-0.146989 0.100544 0)
(-0.150705 0.0933443 0)
(-0.151695 0.0859356 0)
(-0.150047 0.0784465 0)
(-0.145917 0.0710062 0)
(-0.139516 0.0637404 0)
(-0.131095 0.0567688 0)
(-0.120935 0.0502016 0)
(-0.109324 0.0441378 0)
(-0.0965442 0.0386633 0)
(-0.0828604 0.0338508 0)
(-0.0685052 0.0297594 0)
(-0.0536749 0.0264358 0)
(-0.0385271 0.0239149 0)
(-0.0231875 0.0222214 0)
(-0.00774188 0.0213707 0)
(0.00814547 0.0190638 0)
(0.0243933 0.0198183 0)
(0.0405241 0.0213201 0)
(0.0564442 0.0235548 0)
(0.0720176 0.0264999 0)
(0.0870766 0.0301232 0)
(0.101414 0.0343823 0)
(0.114783 0.0392237 0)
(0.126909 0.0445817 0)
(0.137496 0.0503792 0)
(0.146243 0.0565276 0)
(0.152863 0.0629286 0)
(0.157094 0.0694762 0)
(0.158724 0.0760592 0)
(0.157594 0.082564 0)
(0.153619 0.0888778 0)
(0.146785 0.0948918 0)
(0.137158 0.100504 0)
(0.124879 0.10562 0)
(0.110158 0.110158 0)
(0.0932672 0.114047 0)
(0.0745316 0.117226 0)
(0.0543191 0.119651 0)
(0.0330293 0.121287 0)
(0.0110845 0.12211 0)
(-0.0110801 0.122109 0)
(-0.033025 0.121285 0)
(-0.0543148 0.119649 0)
(-0.0745274 0.117224 0)
(-0.093263 0.114043 0)
(-0.110154 0.110154 0)
(-0.124876 0.105616 0)
(-0.137155 0.100499 0)
(-0.146782 0.0948865 0)
(-0.153616 0.0888722 0)
(-0.157593 0.0825583 0)
(-0.158723 0.0760535 0)
(-0.157095 0.0694706 0)
(-0.152864 0.0629232 0)
(-0.146245 0.0565225 0)
(-0.137498 0.0503746 0)
(-0.126911 0.0445777 0)
(-0.114786 0.0392202 0)
(-0.101416 0.0343795 0)
(-0.0870788 0.0301209 0)
(-0.0720193 0.0264982 0)
(-0.0564454 0.0235538 0)
(-0.0405253 0.0213195 0)
(-0.024394 0.0198182 0)
(-0.00814534 0.0190638 0)
(0.00849645 0.0162972 0)
(0.0254429 0.0169389 0)
(0.0422619 0.018216 0)
(0.0588529 0.0201159 0)
(0.0750712 0.0226188 0)
(0.0907401 0.0256966 0)
(0.105642 0.0293126 0)
(0.11952 0.0334202 0)
(0.132088 0.0379629 0)
(0.143039 0.0428744 0)
(0.152063 0.0480787 0)
(0.158865 0.0534919 0)
(0.163177 0.0590239 0)
(0.164783 0.0645803 0)
(0.163525 0.0700651 0)
(0.15932 0.0753835 0)
(0.152158 0.0804443 0)
(0.142114 0.0851621 0)
(0.129337 0.0894592 0)
(0.114047 0.0932672 0)
(0.0965275 0.0965275 0)
(0.077116 0.099192 0)
(0.0561907 0.101223 0)
(0.0341623 0.102591 0)
(0.0114636 0.10328 0)
(-0.01146 0.10328 0)
(-0.0341588 0.10259 0)
(-0.0561871 0.101221 0)
(-0.0771124 0.0991892 0)
(-0.096524 0.0965241 0)
(-0.114043 0.093263 0)
(-0.129333 0.0894544 0)
(-0.142111 0.0851567 0)
(-0.152156 0.0804385 0)
(-0.159318 0.0753774 0)
(-0.163524 0.0700588 0)
(-0.164782 0.0645739 0)
(-0.163177 0.0590176 0)
(-0.158865 0.0534858 0)
(-0.152064 0.0480728 0)
(-0.14304 0.042869 0)
(-0.132089 0.0379581 0)
(-0.119522 0.0334159 0)
(-0.105644 0.029309 0)
(-0.0907416 0.0256937 0)
(-0.0750724 0.0226165 0)
(-0.0588536 0.0201143 0)
(-0.0422627 0.018215 0)
(-0.0254432 0.0169383 0)
(-0.00849626 0.0162967 0)
(0.00878718 0.013127 0)
(0.0263122 0.0136417 0)
(0.0437011 0.014666 0)
(0.060847 0.0161895 0)
(0.0775982 0.0181958 0)
(0.0937704 0.020662 0)
(0.109137 0.0235582 0)
(0.123434 0.0268464 0)
(0.136363 0.0304807 0)
(0.147612 0.0344075 0)
(0.156861 0.0385654 0)
(0.163808 0.0428871 0)
(0.168183 0.0473001 0)
(0.169765 0.0517289 0)
(0.168397 0.056097 0)
(0.163998 0.060329 0)
(0.156564 0.0643525 0)
(0.146173 0.0681003 0)
(0.132985 0.0715112 0)
(0.117226 0.0745316 0)
(0.099192 0.077116 0)
(0.0792267 0.0792267 0)
(0.0577186 0.0808346 0)
(0.035087 0.0819181 0)
(0.0117729 0.0824631 0)
(-0.0117701 0.0824627 0)
(-0.0350842 0.0819169 0)
(-0.0577158 0.0808326 0)
(-0.0792239 0.079224 0)
(-0.0991892 0.0771124 0)
(-0.117224 0.0745274 0)
(-0.132982 0.0715063 0)
(-0.146171 0.0680947 0)
(-0.156562 0.0643464 0)
(-0.163996 0.0603225 0)
(-0.168396 0.0560902 0)
(-0.169764 0.0517219 0)
(-0.168183 0.0472932 0)
(-0.163808 0.0428803 0)
(-0.156862 0.038559 0)
(-0.147613 0.0344014 0)
(-0.136364 0.0304752 0)
(-0.123435 0.0268415 0)
(-0.109138 0.023554 0)
(-0.0937712 0.0206585 0)
(-0.0775987 0.018193 0)
(-0.060847 0.0161874 0)
(-0.0437013 0.0146645 0)
(-0.0263122 0.0136407 0)
(-0.00878692 0.0131261 0)
(0.00901118 0.00962526 0)
(0.0269819 0.0100015 0)
(0.0448097 0.0107501 0)
(0.0623827 0.0118634 0)
(0.0795438 0.0133291 0)
(0.0961025 0.0151304 0)
(0.111826 0.0172448 0)
(0.126443 0.0196445 0)
(0.139649 0.0222956 0)
(0.151124 0.0251585 0)
(0.160543 0.0281884 0)
(0.167599 0.0313357 0)
(0.172019 0.0345476 0)
(0.17358 0.0377688 0)
(0.172126 0.0409439 0)
(0.167575 0.044018 0)
(0.15993 0.0469388 0)
(0.149273 0.0496576 0)
(0.135768 0.0521305 0)
(0.119651 0.0543191 0)
(0.101223 0.0561907 0)
(0.0808346 0.0577186 0)
(0.058882 0.058882 0)
(0.0357908 0.0596658 0)
(0.0120082 0.0600599 0)
(-0.0120062 0.0600595 0)
(-0.0357888 0.0596646 0)
(-0.0588801 0.0588801 0)
(-0.0808326 0.0577158 0)
(-0.101221 0.0561871 0)
(-0.119649 0.0543148 0)
(-0.135766 0.0521255 0)
(-0.149271 0.0496519 0)
(-0.159928 0.0469325 0)
(-0.167574 0.0440113 0)
(-0.172125 0.0409368 0)
(-0.173579 0.0377615 0)
(-0.172019 0.0345402 0)
(-0.167599 0.0313285 0)
(-0.160543 0.0281814 0)
(-0.151124 0.025152 0)
(-0.139649 0.0222896 0)
(-0.126443 0.0196391 0)
(-0.111826 0.0172401 0)
(-0.0961026 0.0151264 0)
(-0.0795435 0.0133259 0)
(-0.062382 0.0118609 0)
(-0.0448093 0.0107483 0)
(-0.0269816 0.0100001 0)
(-0.00901084 0.00962406 0)
(0.00916341 0.00587696 0)
(0.027437 0.0061062 0)
(0.045563 0.00656236 0)
(0.063426 0.0072406 0)
(0.0808652 0.00813341 0)
(0.097686 0.00923033 0)
(0.113651 0.0105177 0)
(0.128484 0.0119782 0)
(0.141877 0.0135913 0)
(0.153505 0.0153326 0)
(0.163038 0.0171748 0)
(0.170167 0.0190876 0)
(0.174616 0.0210387 0)
(0.176161 0.0229947 0)
(0.174647 0.0249218 0)
(0.169993 0.0267868 0)
(0.162203 0.0285579 0)
(0.151365 0.0302058 0)
(0.137646 0.031704 0)
(0.121287 0.0330293 0)
(0.102591 0.0341623 0)
(0.0819181 0.035087 0)
(0.0596658 0.0357908 0)
(0.0362648 0.0362648 0)
(0.0121666 0.0365031 0)
(-0.0121654 0.0365027 0)
(-0.0362637 0.0362637 0)
(-0.0596646 0.0357888 0)
(-0.0819169 0.0350842 0)
(-0.10259 0.0341588 0)
(-0.121285 0.033025 0)
(-0.137645 0.0316989 0)
(-0.151364 0.0302 0)
(-0.162202 0.0285515 0)
(-0.169992 0.0267798 0)
(-0.174646 0.0249145 0)
(-0.176161 0.0229872 0)
(-0.174616 0.0210311 0)
(-0.170167 0.01908 0)
(-0.163038 0.0171675 0)
(-0.153505 0.0153257 0)
(-0.141877 0.0135849 0)
(-0.128484 0.0119725 0)
(-0.113651 0.0105126 0)
(-0.0976854 0.00922606 0)
(-0.0808643 0.0081299 0)
(-0.0634247 0.00723781 0)
(-0.0455621 0.00656022 0)
(-0.0274364 0.00610457 0)
(-0.00916299 0.00587549 0)
(0.00924042 0.00197667 0)
(0.0276673 0.00205372 0)
(0.0459441 0.00220711 0)
(0.0639537 0.00243511 0)
(0.0815335 0.00273517 0)
(0.0984867 0.00310376 0)
(0.114574 0.00353623 0)
(0.129516 0.00402678 0)
(0.143003 0.00456842 0)
(0.154707 0.00515297 0)
(0.164298 0.0057712 0)