/*--------------------------------*- C++ -*----------------------------------*\
| =========                 |                                                 |
| \\      /  F ield         | OpenFOAM: The Open Source CFD Toolbox           |
|  \\    /   O peration     | Version:  2406                                  |
|   \\  /    A nd           | Website:  www.openfoam.com                      |
|    \\/     M anipulation  |                                                 |
\*---------------------------------------------------------------------------*/
FoamFile
{
    version     2.0;
    format      ascii;
    arch        "LSB;label=32;scalar=64";
    class       volScalarField;
    location    "0.15";
    object      gradTx;
}
// * * * * * * * * * * * * * * * * * * * * * * * * * * * * * * * * * * * * * //

dimensions      [0 -1 0 1 0 0 0];

internalField   nonuniform List<scalar> 
2500
(
0.0110544
0.0331738
0.0553759
0.0776919
0.100049
0.122315
0.144267
0.165586
0.185855
0.204578
0.221195
0.235107
0.24571
0.252426
0.254741
0.252238
0.244626
0.231769
0.213702
0.190638
0.162972
0.13127
0.0962526
0.0587696
0.0197667
-0.01975
-0.0587538
-0.0962387
-0.131258
-0.162964
-0.190634
-0.213702
-0.231774
-0.244634
-0.252249
-0.254756
-0.252443
-0.245728
-0.235126
-0.221213
-0.204596
-0.185871
-0.165601
-0.144281
-0.122328
-0.100062
-0.0777076
-0.0553976
-0.0331837
-0.0110513
0.0115538
0.0346725
0.0578716
0.0811783
0.104515
0.127741
0.150622
0.172822
0.193909
0.213366
0.230611
0.245024
0.255979
0.262881
0.265199
0.262505
0.254504
0.24106
0.22221
0.198183
0.169389
0.136417
0.100015
0.061062
0.0205372
-0.0205189
-0.0610447
-0.0999995
-0.136404
-0.16938
-0.198178
-0.22221
-0.241064
-0.254513
-0.262517
-0.265214
-0.262898
-0.255998
-0.245044
-0.230631
-0.213385
-0.193927
-0.172838
-0.150636
-0.127753
-0.104527
-0.0811919
-0.0578906
-0.0346862
-0.0115559
0.0125531
0.0376666
0.0628545
0.0881399
0.113432
0.138573
0.163306
0.187265
0.209981
0.230898
0.249392
0.264798
0.276451
0.283717
0.286036
0.282959
0.274179
0.259558
0.239149
0.213201
0.18216
0.14666
0.107501
0.0656236
0.0220711
-0.0220475
-0.0656011
-0.107481
-0.146643
-0.182146
-0.213192
-0.239145
-0.259559
-0.274184
-0.282969
-0.286051
-0.283735
-0.276471
-0.26482
-0.249413
-0.23092
-0.210001
-0.187283
-0.163323
-0.138589
-0.113446
-0.0881529
-0.062869
-0.0376754
-0.0125539
0.0140496
0.0421512
0.0703182
0.0985655
0.126783
0.154787
0.182284
0.208865
0.234009
0.257097
0.277444
0.294321
0.307001
0.314796
0.317103
0.31344
0.303486
0.287103
0.264362
0.235548
0.201159
0.161895
0.118634
0.072406
0.0243511
-0.024321
-0.0723772
-0.118608
-0.161872
-0.201141
-0.235535
-0.264354
-0.287101
-0.303489
-0.313449
-0.317116
-0.314814
-0.307021
-0.294344
-0.277468
-0.257121
-0.234032
-0.208887
-0.182305
-0.154805
-0.126798
-0.0985794
-0.0703323
-0.0421584
-0.0140493
0.0160395
0.0481146
0.0802417
0.112423
0.144522
0.176321
0.207479
0.237527
0.265872
0.29182
0.3146
0.3334
0.347414
0.355884
0.358149
0.353689
0.342163
0.323436
0.297604
0.264999
0.226188
0.181958
0.133291
0.0813341
0.0273517
-0.0273145
-0.0812982
-0.133258
-0.181928
-0.226163
-0.26498
-0.297591
-0.32343
-0.342163
-0.353696
-0.358162
-0.355901
-0.347435
-0.333425
-0.314626
-0.291847
-0.265899
-0.237552
-0.207503
-0.176343
-0.144541
-0.112439
-0.0802572
-0.0481219
-0.0160386
0.0185155
0.0555343
0.0925862
0.129656
0.166573
0.203076
0.238763
0.273092
0.305383
0.334845
0.360604
0.381748
0.397373
0.406637
0.408813
0.403332
0.389833
0.368187
0.338523
0.301232
0.256966
0.20662
0.151304
0.0923033
0.0310376
-0.0309928
-0.09226
-0.151263
-0.206584
-0.256935
-0.301207
-0.338505
-0.368177
-0.389831
-0.403337
-0.408824
-0.406655
-0.397396
-0.381775
-0.360634
-0.334876
-0.305414
-0.273121
-0.238791
-0.203101
-0.166595
-0.129674
-0.0926039
-0.0555425
-0.0185144
0.0214653
0.064373
0.107288
0.150171
0.192811
0.234891
0.27594
0.315324
0.352263
0.38585
0.415092
0.438959
0.456435
0.466583
0.468598
0.461861
0.44599
0.420864
0.386654
0.343823
0.293126
0.235582
0.172448
0.105177
0.0353623
-0.03531
-0.105126
-0.172401
-0.235539
-0.293088
-0.343793
-0.386631
-0.420849
-0.445984
-0.461864
-0.468608
-0.466601
-0.456459
-0.438987
-0.415124
-0.385884
-0.352297
-0.315358
-0.275972
-0.23492
-0.192836
-0.150192
-0.107308
-0.0643824
-0.0214641
0.0248698
0.0745731
0.124249
0.173829
0.223052
0.271536
0.318726
0.363888
0.406121
0.444389
0.477566
0.504485
0.524011
0.535097
0.536857
0.52862
0.50998
0.480835
0.441404
0.392237
0.334202
0.268464
0.196445
0.119782
0.0402678
-0.0402084
-0.119724
-0.196391
-0.268414
-0.334158
-0.392201
-0.441376
-0.480816
-0.509971
-0.52862
-0.536866
-0.535115
-0.524035
-0.504516
-0.4776
-0.444426
-0.406159
-0.363925
-0.318762
-0.271569
-0.22308
-0.173853
-0.124272
-0.0745838
-0.0248687
0.0287018
0.0860523
0.143331
0.200433
0.257037
0.312689
0.366736
0.418328
0.466435
0.509876
0.547374
0.577621
0.599345
0.611388
0.612777
0.602786
0.580995
0.547322
0.502048
0.445817
0.379629
0.304807
0.222956
0.135913
0.0456842
-0.0456185
-0.135849
-0.222895
-0.304751
-0.37958
-0.445776
-0.502015
-0.547299
-0.580982
-0.602784
-0.612784
-0.611405
-0.59937
-0.577653
-0.547411
-0.509916
-0.466477
-0.41837
-0.366775
-0.312725
-0.257069
-0.20046
-0.143357
-0.0860644
-0.0287009
0.0329243
0.0986998
0.164348
0.22972
0.294426
0.357927
0.419464
0.47806
0.532539
0.581565
0.623702
0.657487
0.681508
0.694488
0.695368
0.683372
0.658067
0.619401
0.567725
0.503792
0.428744
0.344075
0.251585
0.153326
0.0515297
-0.0514588
-0.153257
-0.251519
-0.344014
-0.428689
-0.503745
-0.567687
-0.619374
-0.65805
-0.683367
-0.695373
-0.694503
-0.681532
-0.657519
-0.62374
-0.581607
-0.532583
-0.478104
-0.419506
-0.357966
-0.294461
-0.229749
-0.164376
-0.098713
-0.0329236
0.0374901
0.112373
0.187063
0.261354
0.334785
0.406718
0.47628
0.542354
0.603611
0.658547
0.705561
0.743026
0.769388
0.783251
0.78347
0.769222
0.74007
0.696001
0.637445
0.565276
0.480787
0.385654
0.281884
0.171748
0.057712
-0.0576372
-0.171674
-0.281814
-0.385589
-0.480728
-0.565225
-0.637403
-0.69597
-0.74005
-0.769214
-0.783473
-0.783265
-0.769411
-0.743058
-0.705599
-0.658591
-0.603657
-0.542401
-0.476325
-0.40676
-0.334822
-0.261386
-0.187092
-0.112387
-0.0374896
0.0423407
0.126897
0.211181
0.294927
0.377586
0.458419
0.536425
0.610342
0.678675
0.739751
0.791793
0.833011
0.861705
0.876364
0.875759
0.859028
0.825739
0.775924
0.710106
0.629286
0.534919
0.428871
0.313357
0.190876
0.0641295
-0.0640523
-0.1908
-0.313285
-0.428803
-0.534857
-0.629232
-0.710061
-0.775889
-0.825715
-0.859016
-0.875758
-0.876375
-0.861727
-0.833042
-0.791831
-0.739795
-0.678723
-0.61039
-0.536472
-0.458463
-0.377625
-0.29496
-0.211211
-0.126912
-0.0423405
0.047407
0.142065
0.23636
0.329956
0.422212
0.512277
0.599017
0.681017
0.756612
0.823953
0.881085
0.926057
0.957024
0.972362
0.970769
0.95135
0.913686
0.857866
0.784513
0.694762
0.590239
0.473001
0.345476
0.210387
0.0706738
-0.070596
-0.210311
-0.345402
-0.472931
-0.590175
-0.694706
-0.784465
-0.857828
-0.913659
-0.951335
-0.970765
-0.97237
-0.957043
-0.926086
-0.881122
-0.823996
-0.756659
-0.681066
-0.599065
-0.512322
-0.422251
-0.329989
-0.23639
-0.14208
-0.047407
0.05261
0.157639
0.262203
0.36589
0.467958
0.567441
0.663063
0.753252
0.836172
0.909794
0.971991
1.02065
1.05378
1.06966
1.06693
1.04465
1.00244
0.940447
0.859405
0.760592
0.645803
0.517289
0.377688
0.229947
0.0772325
-0.0771556
-0.229872
-0.377615
-0.517219
-0.645739
-0.760535
-0.859355
-0.940406
-1.00241
-1.04463
-1.06692
-1.06967
-1.0538
-1.02067
-0.972026
-0.909836
-0.836218
-0.7533
-0.663111
-0.567485
-0.467998
-0.365923
-0.262233
-0.157654
-0.0526101
0.0578617
0.173356
0.288275
0.402122
0.514053
0.622976
0.727477
0.825822
0.916003
0.995816
1.06296
1.11517
1.15032
1.1666
1.16258
1.13732
1.09047
1.02224
0.933493
0.82564
0.700651
0.56097
0.409439
0.249218
0.0836921
-0.0836179
-0.249145
-0.409368
-0.560902
-0.700588
-0.825582
-0.933443
-1.0222
-1.09044
-1.1373
-1.16257
-1.16661
-1.15034
-1.11519
-1.06299
-0.995855
-0.916048
-0.825869
-0.727523
-0.62302
-0.514091
-0.402154
-0.288304
-0.173371
-0.0578619
0.0630678
0.188934
0.314107
0.438003
0.559668
0.677889
0.791108
0.897431
0.994683
1.08049
1.15238
1.20795
1.24495
1.26147
1.25605
1.22775
1.17624
1.10183
1.00549
0.888778
0.753835
0.60329
0.44018
0.267868
0.0899415
-0.0898713
-0.267798
-0.440113
-0.603225
-0.753774
-0.888722
-1.00544
-1.10179
-1.17621
-1.22773
-1.25604
-1.26147
-1.24496
-1.20797
-1.15241
-1.08052
-0.994725
-0.897475
-0.791151
-0.67793
-0.559704
-0.438032
-0.314134
-0.188948
-0.0630679
0.0681294
0.204077
0.33921
0.472853
0.603945
0.731148
0.852765
0.966747
1.07076
1.16225
1.23862
1.2973
1.33594
1.35258
1.34568
1.31433
1.25825
1.17783
1.07415
0.948918
0.804443
0.643525
0.469388
0.285579
0.0958746
-0.0958098
-0.285514
-0.469325
-0.643464
-0.804385
-0.948865
-1.0741
-1.17779
-1.25822
-1.31431
-1.34567
-1.35257
-1.33595
-1.29731
-1.23864
-1.16228
-1.07079
-0.966787
-0.852805
-0.731186
-0.603977
-0.472879
-0.339234
-0.20409
-0.0681294
0.0729463
0.218487
0.363088
0.505987
0.646015
0.781716
0.911254
1.03244
1.14277
1.23956
1.32005
1.38156
1.42165
1.43826
1.42986
1.39553
1.33505
1.24891
1.13829
1.00504
0.851621
0.681003
0.496576
0.302058
0.101393
-0.101335
-0.302
-0.496519
-0.680947
-0.851567
-1.00499
-1.13824
-1.24887
-1.33502
-1.39551
-1.42984
-1.43825
-1.42165
-1.38157
-1.32007
-1.23959
-1.1428
-1.03247
-0.91129
-0.781749
-0.646044
-0.506009
-0.363109
-0.218497
-0.072946
0.0774196
0.231866
0.385254
0.536731
0.685029
0.828576
0.965412
1.09321
1.20932
1.31093
1.39514
1.45916
1.50047
1.51695
1.50707
1.46992
1.40532
1.31386
1.19682
1.0562
0.894592
0.715112
0.521305
0.31704
0.106409
-0.106358
-0.316989
-0.521255
-0.715062
-0.894544
-1.05616
-1.19678
-1.31382
-1.40529
-1.46989
-1.50705
-1.51695
-1.50047
-1.45917
-1.39516
-1.31095
-1.20935
-1.09324
-0.965442
-0.828604
-0.685052
-0.536749
-0.385271
-0.231875
-0.0774188
0.0814547
0.243933
0.405241
0.564442
0.720176
0.870766
1.01414
1.14783
1.26909
1.37496
1.46243
1.52863
1.57094
1.58724
1.57594
1.53619
1.46785
1.37158
1.24879
1.10158
0.932672
0.745316
0.543191
0.330293
0.110845
-0.110801
-0.33025
-0.543148
-0.745274
-0.93263
-1.10154
-1.24876
-1.37155
-1.46782
-1.53616
-1.57593
-1.58723
-1.57095
-1.52864
-1.46245
-1.37498
-1.26911
-1.14786
-1.01416
-0.870788
-0.720193
-0.564454
-0.405253
-0.24394
-0.0814534
0.0849645
0.254429
0.422619
0.588529
0.750712
0.907401
1.05642
1.1952
1.32088
1.43039
1.52063
1.58865
1.63177
1.64783
1.63525
1.5932
1.52158
1.42114
1.29337
1.14047
0.965275
0.77116
0.561907
0.341623
0.114636
-0.1146
-0.341588
-0.561871
-0.771124
-0.96524
-1.14043
-1.29333
-1.42111
-1.52156
-1.59318
-1.63524
-1.64782
-1.63177
-1.58865
-1.52064
-1.4304
-1.32089
-1.19522
-1.05644
-0.907416
-0.750724
-0.588536
-0.422627
-0.254432
-0.0849626
0.0878718
0.263122
0.437011
0.60847
0.775982
0.937704
1.09137
1.23434
1.36363
1.47612
1.56861
1.63808
1.68183
1.69765
1.68397
1.63998
1.56564
1.46173
1.32985
1.17226
0.99192
0.792267
0.577186
0.35087
0.117729
-0.117701
-0.350842
-0.577158
-0.792239
-0.991892
-1.17224
-1.32982
-1.46171
-1.56562
-1.63996
-1.68396
-1.69764
-1.68183
-1.63808
-1.56862
-1.47613
-1.36364
-1.23435
-1.09138
-0.937712
-0.775987
-0.60847
-0.437013
-0.263122
-0.0878692
0.0901118
0.269819
0.448097
0.623827
0.795438
0.961025
1.11826
1.26443
1.39649
1.51124
1.60543
1.67599
1.72019
1.7358
1.72126
1.67575
1.5993
1.49273
1.35768
1.19651
1.01223
0.808346
0.58882
0.357908
0.120082
-0.120062
-0.357888
-0.588801
-0.808326
-1.01221
-1.19649
-1.35766
-1.49271
-1.59928
-1.67574
-1.72125
-1.73579
-1.72019
-1.67599
-1.60543
-1.51124
-1.39649
-1.26443
-1.11826
-0.961026
-0.795435
-0.62382
-0.448093
-0.269816
-0.0901084
0.0916341
0.27437
0.45563
0.63426
0.808652
0.97686
1.13651
1.28484
1.41877
1.53505
1.63038
1.70167
1.74616
1.76161
1.74647
1.69993
1.62203
1.51365
1.37646
1.21287
1.02591
0.819181
0.596658
0.362648
0.121666
-0.121654
-0.362637
-0.596646
-0.819169
-1.0259
-1.21285
-1.37645
-1.51364
-1.62202
-1.69992
-1.74646
-1.76161
-1.74616
-1.70167
-1.63038
-1.53505
-1.41877
-1.28484
-1.13651
-0.976854
-0.808643
-0.634247
-0.455621
-0.274364
-0.0916299
0.0924042
0.276673
0.459441
0.639537
0.815335
0.984867
1.14574
1.29516
1.43003
1.54707
1.64298
1.71463
1.75926
1.77463
1.75918
1.71211
1.63349
1.52419
1.38592
1.2211
1.0328
0.824631
0.600599
0.365031
0.122461
-0.122457
-0.365027
-0.600595
-0.824627
-1.0328
-1.22109
-1.38591
-1.52418
-1.63348
-1.71211
-1.75917
-1.77463
-1.75926
-1.71463
-1.64298
-1.54707
-1.43003
-1.29515
-1.14573
-0.984853
-0.815318
-0.639517
-0.459426
-0.276663
-0.0923992
0.0924047
0.276675
0.459444
0.639541
0.815339
0.984871
1.14574
1.29516
1.43004
1.54707
1.64298
1.71463
1.75926
1.77463
1.75917
1.71211
1.63348
1.52419
1.38591
1.22109
1.0328
0.824627
0.600595
0.365027
0.122457
-0.122461
-0.365031
-0.600599
-0.824631
-1.0328
-1.2211
-1.38592
-1.52419
-1.63349
-1.71211
-1.75917
-1.77463
-1.75926
-1.71463
-1.64297
-1.54706
-1.43002
-1.29515
-1.14572
-0.98485
-0.815314
-0.639514
-0.459423
-0.276662
-0.0923988
0.0916354
0.274376
0.455639
0.63427
0.808663
0.976872
1.13652
1.28485
1.41878
1.53505
1.63039
1.70167
1.74616
1.76161
1.74646
1.69992
1.62202
1.51364
1.37645
1.21285
1.0259
0.819169
0.596646
0.362637
0.121654
-0.121666
-0.362648
-0.596658
-0.819181
-1.02591
-1.21287
-1.37646
-1.51365
-1.62203
-1.69993
-1.74646
-1.76161
-1.74616
-1.70167
-1.63038
-1.53504
-1.41876
-1.28483
-1.1365
-0.976843
-0.808631
-0.634237
-0.455612
-0.274359
-0.0916287
0.0901138
0.269827
0.448111
0.623844
0.795456
0.961043
1.11828
1.26444
1.3965
1.51125
1.60544
1.676
1.72019
1.7358
1.72125
1.67574
1.59928
1.49271
1.35766
1.19649
1.01221
0.808326
0.588801
0.357888
0.120062
-0.120082
-0.357908
-0.58882
-0.808346
-1.01223
-1.19651
-1.35768
-1.49273
-1.5993
-1.67575
-1.72125
-1.7358
-1.72019
-1.67599
-1.60543
-1.51123
-1.39648
-1.26441
-1.11825
-0.961007
-0.795417
-0.623804
-0.448079
-0.269808
-0.0901064
0.0878745
0.263133
0.437031
0.608493
0.776007
0.937729
1.0914
1.23436
1.36365
1.47613
1.56862
1.63809
1.68183
1.69764
1.68396
1.63996
1.56562
1.46171
1.32982
1.17224
0.991892
0.79224
0.577158
0.350842
0.117701
-0.117729
-0.35087
-0.577186
-0.792267
-0.99192
-1.17226
-1.32984
-1.46173
-1.56563
-1.63998
-1.68397
-1.69765
-1.68183
-1.63808
-1.5686
-1.47611
-1.36362
-1.23432
-1.09136
-0.937687
-0.775962
-0.608447
-0.436994
-0.263111
-0.0878665
0.0849678
0.254443
0.422644
0.588558
0.750744
0.907433
1.05645
1.19523
1.3209
1.43041
1.52065
1.58866
1.63177
1.64783
1.63524
1.59318
1.52156
1.42111
1.29334
1.14043
0.965241
0.771124
0.561871
0.341588
0.1146
-0.114636
-0.341623
-0.561907
-0.77116
-0.965275
-1.14047
-1.29337
-1.42114
-1.52158
-1.59319
-1.63525
-1.64783
-1.63177
-1.58864
-1.52063
-1.43038
-1.32087
-1.19519
-1.0564
-0.907384
-0.750692
-0.588507
-0.422602
-0.254418
-0.0849593
0.0814586
0.243951
0.40527
0.564476
0.720213
0.870804
1.01417
1.14787
1.26912
1.37499
1.46245
1.52864
1.57095
1.58723
1.57593
1.53617
1.46782
1.37155
1.24876
1.10154
0.93263
0.745274
0.543148
0.33025
0.110801
-0.110845
-0.330293
-0.543191
-0.745316
-0.932672
-1.10158
-1.24879
-1.37158
-1.46785
-1.53619
-1.57594
-1.58723
-1.57094
-1.52862
-1.46243
-1.37495
-1.26908
-1.14782
-1.01412
-0.870749
-0.720156
-0.56442
-0.405224
-0.243923
-0.0814496
0.0774238
0.231885
0.385287
0.53677
0.685071
0.82862
0.965455
1.09325
1.20936
1.31096
1.39516
1.45917
1.50047
1.51695
1.50706
1.46989
1.40529
1.31382
1.19678
1.05616
0.894544
0.715063
0.521255
0.316989
0.106358
-0.106409
-0.31704
-0.521305
-0.715112
-0.894592
-1.0562
-1.19682
-1.31386
-1.40532
-1.46992
-1.50707
-1.51695
-1.50046
-1.45916
-1.39514
-1.31092
-1.20931
-1.0932
-0.965399
-0.828561
-0.68501
-0.53671
-0.385238
-0.231856
-0.0774146
0.0729508
0.218508
0.363126
0.50603
0.646062
0.781764
0.911302
1.03248
1.14281
1.2396
1.32008
1.38158
1.42165
1.43825
1.42984
1.39551
1.33502
1.24887
1.13824
1.00499
0.851567
0.680947
0.496519
0.302
0.101335
-0.101393
-0.302058
-0.496576
-0.681003
-0.85162
-1.00504
-1.13828
-1.24891
-1.33505
-1.39553
-1.42986
-1.43825
-1.42164
-1.38156
-1.32005
-1.23956
-1.14276
-1.03243
-0.911242
-0.781701
-0.645997
-0.505967
-0.363073
-0.218477
-0.0729415
0.068134
0.2041
0.33925
0.472899
0.603995
0.7312
0.852816
0.966796
1.0708
1.16229
1.23865
1.29732
1.33595
1.35257
1.34567
1.31431
1.25822
1.17779
1.0741
0.948865
0.804385
0.643464
0.469325
0.285515
0.0958098
-0.0958745
-0.285579
-0.469388
-0.643525
-0.804443
-0.948918
-1.07415
-1.17783
-1.25825
-1.31433
-1.34568
-1.35257
-1.33594
-1.29729
-1.23861
-1.16225
-1.07075
-0.966738
-0.852753
-0.731134
-0.603927
-0.472833
-0.339195
-0.204068
-0.0681248
0.0630724
0.188958
0.314149
0.438051
0.559721
0.677944
0.791162
0.897484
0.994732
1.08053
1.15241
1.20797
1.24496
1.26148
1.25604
1.22773
1.17621
1.10179
1.00544
0.888722
0.753774
0.603225
0.440113
0.267798
0.0898714
-0.0899414
-0.267868
-0.44018
-0.60329
-0.753835
-0.888778
-1.00549
-1.10183
-1.17624
-1.22775
-1.25605
-1.26147
-1.24495
-1.20794
-1.15238
-1.08048
-0.994677
-0.897423
-0.791097
-0.677876
-0.559651
-0.437984
-0.314093
-0.188925
-0.0630634
0.0578662
0.17338
0.288318
0.402172
0.514107
0.623033
0.727534
0.825877
0.916054
0.99586
1.063
1.11519
1.15034
1.16661
1.16257
1.1373
1.09044
1.0222
0.933443
0.825583
0.700588
0.560902
0.409368
0.249145
0.0836179
-0.0836921
-0.249218
-0.409439
-0.56097
-0.700651
-0.82564
-0.933493
-1.02224
-1.09047
-1.13732
-1.16258
-1.1666
-1.15032
-1.11516
-1.06296
-0.995811
-0.915997
-0.825814
-0.727467
-0.622964
-0.514037
-0.402105
-0.288262
-0.173348
-0.0578576
0.0526141
0.157663
0.262247
0.36594
0.468013
0.567497
0.663121
0.753308
0.836224
0.909841
0.97203
1.02068
1.0538
1.06967
1.06692
1.04463
1.00241
0.940407
0.859356
0.760535
0.645739
0.517219
0.377615
0.229872
0.0771557
-0.0772325
-0.229947
-0.377688
-0.517289
-0.645803
-0.760592
-0.859405
-0.940447
-1.00244
-1.04465
-1.06692
-1.06966
-1.05378
-1.02064
-0.971988
-0.90979
-0.836167
-0.753245
-0.663054
-0.567429
-0.467944
-0.365873
-0.262191
-0.157631
-0.0526061
0.0474108
0.142089
0.236403
0.330005
0.422265
0.512333
0.599074
0.681073
0.756665
0.824
0.881126
0.926089
0.957045
0.972372
0.970767
0.951336
0.913659
0.857829
0.784465
0.694706
0.590176
0.472932
0.345402
0.210311
0.070596
-0.0706738
-0.210387
-0.345476
-0.473001
-0.590239
-0.694763
-0.784513
-0.857866
-0.913686
-0.95135
-0.970768
-0.972361
-0.957022
-0.926055
-0.881083
-0.823949
-0.756607
-0.68101
-0.599009
-0.512266
-0.422198
-0.32994
-0.236348
-0.142058
-0.0474034
0.042344
0.12692
0.211224
0.294975
0.377638
0.458474
0.536481
0.610397
0.678728
0.7398
0.791835
0.833045
0.861729
0.876376
0.87576
0.859017
0.825716
0.77589
0.710062
0.629232
0.534858
0.428803
0.313285
0.1908
0.0640524
-0.0641296
-0.190876
-0.313357
-0.428871
-0.53492
-0.629286
-0.710106
-0.775924
-0.825739
-0.859028
-0.875758
-0.876363
-0.861704
-0.83301
-0.791791
-0.739748
-0.678671
-0.610336
-0.536417
-0.458409
-0.377574
-0.294913
-0.211171
-0.126891
-0.0423373
0.037493
0.112395
0.187103
0.2614
0.334834
0.40677
0.476333
0.542408
0.603662
0.658595
0.705603
0.743061
0.769413
0.783266
0.783474
0.769215
0.740051
0.69597
0.637404
0.565225
0.480728
0.38559
0.281814
0.171675
0.0576372
-0.0577121
-0.171748
-0.281884
-0.385655
-0.480787
-0.565276
-0.637445
-0.696001
-0.740071
-0.769223
-0.78347
-0.783251
-0.769387
-0.743025
-0.705559
-0.658545
-0.603607
-0.542349
-0.476273
-0.406709
-0.334773
-0.261341
-0.187053
-0.112367
-0.0374869
0.0329267
0.0987202
0.164387
0.229763
0.294472
0.357976
0.419514
0.478111
0.532588
0.581611
0.623744
0.657522
0.681534
0.694505
0.695375
0.683368
0.658052
0.619375
0.567688
0.503746
0.42869
0.344014
0.25152
0.153257
0.0514589
-0.0515298
-0.153326
-0.251586
-0.344075
-0.428744
-0.503792
-0.567725
-0.619402
-0.658068
-0.683373
-0.695369
-0.694489
-0.681507
-0.657486
-0.623701
-0.581563
-0.532536
-0.478055
-0.419457
-0.357918
-0.294416
-0.229708
-0.16434
-0.0986945
-0.0329214
0.0287038
0.0860711
0.143367
0.200472
0.25708
0.312734
0.366783
0.418376
0.466482
0.50992
0.547414
0.577656
0.599373
0.611407
0.612786
0.602785
0.580984
0.547301
0.502016
0.445777
0.379581
0.304752
0.222896
0.135849
0.0456186
-0.0456843
-0.135913
-0.222956
-0.304808
-0.37963
-0.445818
-0.502049
-0.547323
-0.580996
-0.602787
-0.612778
-0.611389
-0.599346
-0.577621
-0.547374
-0.509874
-0.466433
-0.418325
-0.36673
-0.312681
-0.257028
-0.200422
-0.143323
-0.0860477
-0.0286992
0.0248714
0.0745902
0.124282
0.173865
0.223091
0.271577
0.318769
0.363931
0.406164
0.444431
0.477604
0.504519
0.524038
0.535117
0.536868
0.528622
0.509972
0.480818
0.441378
0.392202
0.334159
0.268415
0.196391
0.119725
0.0402086
-0.0402679
-0.119783
-0.196446
-0.268464
-0.334203
-0.392238
-0.441405
-0.480836
-0.509981
-0.528621
-0.536858
-0.535098
-0.524012
-0.504486
-0.477566
-0.444388
-0.406119
-0.363885
-0.318722
-0.27153
-0.223044
-0.173819
-0.124242
-0.074569
-0.0248675
0.0214667
0.0643884
0.107317
0.150203
0.192846
0.234929
0.275979
0.315364
0.352303
0.385888
0.415128
0.438991
0.456463
0.466604
0.468611
0.461867
0.445986
0.420852
0.386633
0.343795
0.29309
0.23554
0.172401
0.105126
0.0353102
-0.0353624
-0.105177
-0.172449
-0.235583
-0.293127
-0.343825
-0.386655
-0.420866
-0.445992
-0.461863
-0.4686
-0.466585
-0.456437
-0.43896
-0.415093
-0.38585
-0.352262
-0.315322
-0.275937
-0.234886
-0.192804
-0.150163
-0.107282
-0.0643696
-0.0214633
0.0185169
0.0555483
0.0926127
0.129685
0.166604
0.203109
0.238798
0.273128
0.305419
0.334881
0.360638
0.381779
0.3974
0.406659
0.408828
0.40334
0.389834
0.36818
0.338508
0.301209
0.256937
0.206585
0.151264
0.0922606
0.030993
-0.0310378
-0.0923039
-0.151305
-0.206622
-0.256968
-0.301234
-0.338525
-0.36819
-0.389836
-0.403335
-0.408815
-0.40664
-0.397375
-0.38175
-0.360606
-0.334846
-0.305383
-0.273091
-0.238761
-0.203072
-0.166568
-0.129649
-0.0925813
-0.0555315
-0.0185138
0.0160411
0.0481277
0.0802658
0.112449
0.14455
0.176351
0.207511
0.237559
0.265905
0.291853
0.314632
0.33343
0.34744
0.355906
0.358166
0.3537
0.342167
0.323433
0.297594
0.264982
0.226165
0.18193
0.133259
0.081299
0.0273148
-0.0273519
-0.0813348
-0.133293
-0.181959
-0.22619
-0.265001
-0.297607
-0.323439
-0.342166
-0.353693
-0.358153
-0.355887
-0.347417
-0.333403
-0.314602
-0.291822
-0.265874
-0.237527
-0.207479
-0.176319
-0.144518
-0.112418
-0.0802379
-0.0481124
-0.016038
0.0140519
0.0421646
0.0703411
0.0985896
0.126808
0.154813
0.182312
0.208895
0.234039
0.257128
0.277474
0.29435
0.307027
0.314819
0.317122
0.313454
0.303494
0.287105
0.264358
0.235538
0.201143
0.161874
0.118609
0.0723781
0.0243214
-0.0243513
-0.0724068
-0.118635
-0.161897
-0.201162
-0.235551
-0.264366
-0.287107
-0.30349
-0.313445
-0.317108
-0.314801
-0.307005
-0.294325
-0.277448
-0.257101
-0.234011
-0.208867
-0.182285
-0.154786
-0.12678
-0.0985615
-0.0703156
-0.0421499
-0.0140485
0.0125568
0.0376824
0.0628783
0.0881632
0.113455
0.138598
0.163332
0.187291
0.210009
0.230927
0.249421
0.264827
0.276478
0.283741
0.286057
0.282975
0.27419
0.259564
0.239149
0.213195
0.18215
0.146645
0.107483
0.0656022
0.0220478
-0.0220714
-0.0656247
-0.107503
-0.146662
-0.182163
-0.213204
-0.239153
-0.259563
-0.274184
-0.282965
-0.286042
-0.283723
-0.276457
-0.264804
-0.249397
-0.230903
-0.209985
-0.187268
-0.163308
-0.138574
-0.113431
-0.0881375
-0.0628534
-0.0376665
-0.0125527
0.0115589
0.0346933
0.0578994
0.0812014
0.104536
0.127763
0.150645
0.172846
0.193935
0.213393
0.230639
0.245051
0.256006
0.262905
0.265221
0.262523
0.254518
0.241069
0.222214
0.198182
0.169383
0.136407
0.100001
0.0610457
0.0205191
-0.0205377
-0.0610632
-0.100017
-0.13642
-0.169392
-0.198187
-0.222215
-0.241065
-0.25451
-0.262511
-0.265205
-0.262887
-0.255985
-0.24503
-0.230617
-0.213371
-0.193914
-0.172826
-0.150624
-0.127742
-0.104514
-0.081177
-0.0578719
-0.0346745
-0.0115546
0.0110543
0.0331907
0.0554061
0.0777167
0.100071
0.122337
0.14429
0.165609
0.18588
0.204604
0.221222
0.235134
0.245736
0.252451
0.254763
0.252256
0.24464
0.231779
0.213707
0.190638
0.162967
0.131261
0.0962406
0.0587549
0.0197503
-0.0197672
-0.0587709
-0.0962547
-0.131273
-0.162975
-0.190642
-0.213707
-0.231775
-0.244632
-0.252244
-0.254748
-0.252433
-0.245717
-0.235114
-0.221201
-0.204584
-0.18586
-0.16559
-0.144271
-0.122317
-0.100049
-0.0776916
-0.055378
-0.0331773
-0.0110556
)
;

boundaryField
{
    walls
    {
        type            calculated;
        value           nonuniform List<scalar> 
200
(
0.0110543
0.0331907
0.0554061
0.0777167
0.100071
0.122337
0.14429
0.165609
0.18588
0.204604
0.221222
0.235134
0.245736
0.252451
0.254763
0.252256
0.24464
0.231779
0.213707
0.190638
0.162967
0.131261
0.0962406
0.0587549
0.0197503
-0.0197672
-0.0587709
-0.0962547
-0.131273
-0.162975
-0.190642
-0.213707
-0.231775
-0.244632
-0.252244
-0.254748
-0.252433
-0.245717
-0.235114
-0.221201
-0.204584
-0.18586
-0.16559
-0.144271
-0.122317
-0.100049
-0.0776916
-0.055378
-0.0331773
-0.0110556
0
0
0
0
0
0
0
0
0
0
0
0
0
0
0
0
0
0
0
0
0
0
0
0
0
0
0
0
0
0
0
0
0
0
0
0
0
0
0
0
0
0
0
0
0
0
0
0
0
0
0
0
0
0
0
0
0
0
0
0
0
0
0
0
0
0
0
0
0
0
0
0
0
0
0
0
0
0
0
0
0
0
0
0
0
0
0
0
0
0
0
0
0
0
0
0
0
0
0
0
0.0110544
0.0331738
0.0553759
0.0776919
0.100049
0.122315
0.144267
0.165586
0.185855
0.204578
0.221195
0.235107
0.24571
0.252426
0.254741
0.252238
0.244626
0.231769
0.213702
0.190638
0.162972
0.13127
0.0962526
0.0587696
0.0197667
-0.01975
-0.0587538
-0.0962387
-0.131258
-0.162964
-0.190634
-0.213702
-0.231774
-0.244634
-0.252249
-0.254756
-0.252443
-0.245728
-0.235126
-0.221213
-0.204596
-0.185871
-0.165601
-0.144281
-0.122328
-0.100062
-0.0777076
-0.0553976
-0.0331837
-0.0110513
)
;
    }
    frontAndBack
    {
        type            empty;
    }
}


// ************************************************************************* //
