/*--------------------------------*- C++ -*----------------------------------*\
| =========                 |                                                 |
| \\      /  F ield         | OpenFOAM: The Open Source CFD Toolbox           |
|  \\    /   O peration     | Version:  2406                                  |
|   \\  /    A nd           | Website:  www.openfoam.com                      |
|    \\/     M anipulation  |                                                 |
\*---------------------------------------------------------------------------*/
FoamFile
{
    version     2.0;
    format      ascii;
    arch        "LSB;label=32;scalar=64";
    class       volScalarField;
    location    "0.15";
    object      T;
}
// * * * * * * * * * * * * * * * * * * * * * * * * * * * * * * * * * * * * * //

dimensions      [0 0 0 1 0 0 0];

internalField   nonuniform List<scalar> 
2500
(
0.00911653
0.00955871
0.0104435
0.0117737
0.0135512
0.0157757
0.0184438
0.0215464
0.0250672
0.0289806
0.0332503
0.0378284
0.0426546
0.0476567
0.0527516
0.0578464
0.0628411
0.0676314
0.0721119
0.0761795
0.0797374
0.0826984
0.0849882
0.0865485
0.087339
0.0873391
0.086549
0.084989
0.0826994
0.0797386
0.0761809
0.0721133
0.0676328
0.0628423
0.0578474
0.0527524
0.0476572
0.0426546
0.037828
0.0332496
0.0289795
0.0250658
0.0215447
0.0184417
0.0157734
0.0135486
0.0117709
0.0104403
0.00955503
0.00911298
0.00955871
0.0100209
0.0109456
0.0123357
0.0141927
0.0165163
0.0193024
0.0225412
0.0262153
0.0302975
0.0347499
0.039522
0.0445508
0.0497611
0.0550661
0.0603691
0.0655663
0.0705493
0.0752087
0.0794377
0.083136
0.0862132
0.0885927
0.0902138
0.0910351
0.0910353
0.0902144
0.0885935
0.0862144
0.0831374
0.0794392
0.0752102
0.0705508
0.0655677
0.0603703
0.055067
0.0497617
0.0445511
0.0395218
0.0347493
0.0302966
0.0262139
0.0225395
0.0193004
0.0165141
0.0141903
0.012333
0.0109426
0.0100174
0.00955515
0.0104435
0.0109456
0.0119501
0.0134598
0.0154757
0.0179971
0.0210187
0.0245293
0.0285093
0.0329286
0.0377452
0.0429042
0.0483372
0.0539623
0.0596858
0.0654037
0.0710042
0.0763709
0.0813865
0.0859368
0.0899145
0.0932232
0.0957809
0.0975233
0.0984059
0.0984061
0.097524
0.0957821
0.0932247
0.0899164
0.0859389
0.0813887
0.0763731
0.0710063
0.0654057
0.0596876
0.0539637
0.0483382
0.0429049
0.0377454
0.0329283
0.0285086
0.0245283
0.0210173
0.0179953
0.0154737
0.0134575
0.0119476
0.0109428
0.0104406
0.0117737
0.0123357
0.0134598
0.0151485
0.0174024
0.0202198
0.0235939
0.0275111
0.0319485
0.0368715
0.0422324
0.0479692
0.0540052
0.0602493
0.0665971
0.0729334
0.0791347
0.0850728
0.0906188
0.0956473
0.100041
0.103694
0.106517
0.108439
0.109413
0.109413
0.10844
0.106518
0.103696
0.100043
0.09565
0.0906217
0.0850758
0.0791377
0.0729363
0.0665997
0.0602516
0.0540072
0.0479708
0.0422334
0.036872
0.0319486
0.0275108
0.0235931
0.0202186
0.0174009
0.0151467
0.0134577
0.0123334
0.0117714
0.0135512
0.0141927
0.0154757
0.0174024
0.0199727
0.0231833
0.0270255
0.0314825
0.0365266
0.0421173
0.0481994
0.0547013
0.0615354
0.0685979
0.0757707
0.0829238
0.0899183
0.0966104
0.102856
0.108515
0.113456
0.117562
0.120734
0.122894
0.123987
0.123988
0.122895
0.120736
0.117564
0.113459
0.108518
0.102859
0.0966143
0.0899223
0.0829278
0.0757744
0.0686013
0.0615384
0.0547039
0.0482014
0.0421188
0.0365275
0.0314829
0.0270254
0.0231827
0.0199717
0.0174011
0.0154741
0.0141908
0.0135493
0.0157757
0.0165163
0.0179971
0.0202198
0.0231833
0.0268827
0.0313063
0.0364332
0.04223
0.0486485
0.0556238
0.0630727
0.0708937
0.0789676
0.0871592
0.0953201
0.103292
0.110913
0.11802
0.124454
0.130069
0.134733
0.138334
0.140785
0.142026
0.142027
0.140786
0.138336
0.134736
0.130073
0.124459
0.118025
0.110918
0.103297
0.0953251
0.087164
0.0789721
0.0708978
0.0630763
0.0556268
0.0486509
0.0422318
0.0364344
0.0313069
0.0268828
0.0231829
0.020219
0.0179959
0.0165148
0.0157742
0.0184438
0.0193024
0.0210187
0.0235939
0.0270255
0.0313063
0.0364212
0.0423439
0.0490341
0.0564344
0.0644681
0.0730381
0.0820265
0.0912955
0.10069
0.110039
0.119164
0.127879
0.135999
0.143345
0.149752
0.15507
0.159175
0.161968
0.163382
0.163383
0.16197
0.159178
0.155074
0.149756
0.14335
0.136004
0.127885
0.11917
0.110046
0.100696
0.0913012
0.0820317
0.0730428
0.0644722
0.0564378
0.0490369
0.042346
0.0364226
0.0313071
0.0270257
0.0235936
0.021018
0.0193013
0.0184428
0.0215464
0.0225412
0.0245293
0.0275111
0.0314825
0.0364332
0.0423439
0.0491822
0.0568994
0.0654271
0.074675
0.0845297
0.0948544
0.10549
0.116258
0.126964
0.137403
0.147364
0.156636
0.16502
0.172326
0.178388
0.183064
0.186246
0.187856
0.187856
0.186247
0.183067
0.178392
0.172331
0.165025
0.156643
0.14737
0.13741
0.126972
0.116265
0.105497
0.0948608
0.0845355
0.0746802
0.0654315
0.0569031
0.0491852
0.0423461
0.0364347
0.0314833
0.0275115
0.0245292
0.0225406
0.0215458
0.0250672
0.0262153
0.0285093
0.0319485
0.0365266
0.04223
0.0490341
0.0568994
0.0657673
0.0755568
0.0861623
0.0974518
0.109267
0.121426
0.133723
0.145937
0.157834
0.169176
0.179727
0.189258
0.19756
0.204444
0.209752
0.213362
0.215189
0.215189
0.213364
0.209755
0.204448
0.197565
0.189265
0.179734
0.169184
0.157842
0.145945
0.133731
0.121434
0.109275
0.0974587
0.0861685
0.0755623
0.0657719
0.0569032
0.0490371
0.0422322
0.0365281
0.0319494
0.0285097
0.0262152
0.0250671
0.0289806
0.0302975
0.0329286
0.0368715
0.0421173
0.0486485
0.0564344
0.0654271
0.0755568
0.0867286
0.0988194
0.111677
0.125119
0.138937
0.152898
0.166752
0.180233
0.193074
0.205009
0.215783
0.225161
0.232933
0.238924
0.242997
0.245057
0.245058
0.242999
0.238927
0.232938
0.225167
0.21579
0.205017
0.193083
0.180242
0.166761
0.152908
0.138946
0.125127
0.111685
0.0988266
0.086735
0.0755624
0.0654317
0.0564382
0.0486515
0.0421195
0.036873
0.0329296
0.030298
0.028981
0.0332503
0.0347499
0.0377452
0.0422324
0.0481994
0.0556238
0.0644681
0.074675
0.0861623
0.0988194
0.112504
0.127042
0.142225
0.157817
0.173555
0.189156
0.204324
0.218759
0.232164
0.244257
0.254775
0.263488
0.270201
0.274764
0.277071
0.277072
0.274766
0.270205
0.263493
0.254782
0.244264
0.232173
0.218768
0.204334
0.189166
0.173565
0.157827
0.142235
0.127051
0.112512
0.0988267
0.0861687
0.0746804
0.0644726
0.0556274
0.0482022
0.0422346
0.0377468
0.0347509
0.0332513
0.0378284
0.039522
0.0429042
0.0479692
0.0547013
0.0630727
0.0730381
0.0845297
0.0974518
0.111677
0.127042
0.143348
0.160362
0.177817
0.195417
0.212847
0.229778
0.245877
0.260815
0.274281
0.285986
0.295678
0.303141
0.308212
0.310776
0.310777
0.308214
0.303145
0.295683
0.285993
0.274288
0.260824
0.245886
0.229788
0.212857
0.195427
0.177827
0.160372
0.143358
0.127051
0.111685
0.0974589
0.0845359
0.0730433
0.063077
0.0547048
0.047972
0.0429064
0.0395235
0.0378299
0.0426546
0.0445508
0.0483372
0.0540052
0.0615354
0.0708937
0.0820265
0.0948544
0.109267
0.125119
0.142225
0.160362
0.179268
0.198643
0.218162
0.237474
0.256216
0.274021
0.290531
0.305402
0.318321
0.329011
0.337241
0.342831
0.345657
0.345657
0.342833
0.337245
0.329017
0.318328
0.30541
0.29054
0.274031
0.256226
0.237485
0.218173
0.198654
0.179278
0.160372
0.142235
0.125128
0.109275
0.0948612
0.0820323
0.0708986
0.0615394
0.0540085
0.0483399
0.0445529
0.0426567
0.0476567
0.0497611
0.0539623
0.0602493
0.0685979
0.0789676
0.0912955
0.10549
0.121426
0.138937
0.157817
0.177817
0.198643
0.219968
0.24143
0.262645
0.283216
0.302742
0.320834
0.337119
0.351257
0.362951
0.371949
0.378058
0.381147
0.381148
0.378061
0.371953
0.362956
0.351264
0.337126
0.320842
0.302752
0.283226
0.262656
0.241441
0.219979
0.198654
0.177827
0.157827
0.138946
0.121434
0.105497
0.0913018
0.078973
0.0686024
0.0602531
0.0539655
0.0497638
0.0476594
0.0527516
0.0550661
0.0596858
0.0665971
0.0757707
0.0871592
0.10069
0.116258
0.133723
0.152898
0.173555
0.195417
0.218162
0.24143
0.264826
0.287933
0.310319
0.331552
0.351209
0.368891
0.384234
0.396917
0.406673
0.413295
0.416642
0.416643
0.413297
0.406677
0.396922
0.384241
0.368899
0.351218
0.331561
0.310329
0.287944
0.264837
0.241441
0.218173
0.195428
0.173565
0.152908
0.133731
0.116266
0.100696
0.087165
0.0757757
0.0666013
0.0596895
0.0550692
0.0527547
0.0578464
0.0603691
0.0654037
0.0729334
0.0829238
0.0953201
0.110039
0.126964
0.145937
0.166752
0.189156
0.212847
0.237474
0.262645
0.287933
0.312887
0.337043
0.359937
0.381116
0.400156
0.416667
0.43031
0.440799
0.447917
0.451514
0.451514
0.447919
0.440803
0.430314
0.416674
0.400163
0.381125
0.359946
0.337053
0.312898
0.287944
0.262656
0.237485
0.212858
0.189166
0.166761
0.145945
0.126972
0.110046
0.0953261
0.0829291
0.0729379
0.0654078
0.0603726
0.0578499
0.0628411
0.0655663
0.0710042
0.0791347
0.0899183
0.103292
0.119164
0.137403
0.157834
0.180233
0.204324
0.229778
0.256216
0.283216
0.310319
0.337043
0.362892
0.387373
0.410005
0.430339
0.447962
0.462517
0.473703
0.481292
0.485126
0.485127
0.481294
0.473706
0.462521
0.447968
0.430346
0.410013
0.387382
0.362902
0.337053
0.310329
0.283226
0.256227
0.229788
0.204334
0.180243
0.157843
0.137411
0.119171
0.103299
0.0899237
0.0791395
0.0710085
0.0655701
0.0628449
0.0676314
0.0705493
0.0763709
0.0850728
0.0966104
0.110913
0.127879
0.147364
0.169176
0.193074
0.218759
0.245877
0.274021
0.302742
0.331552
0.359937
0.387373
0.413339
0.437329
0.45887
0.477531
0.492935
0.504771
0.512798
0.516853
0.516854
0.5128
0.504774
0.492939
0.477536
0.458876
0.437336
0.413347
0.387382
0.359946
0.331561
0.302752
0.274031
0.245886
0.218768
0.193083
0.169185
0.147371
0.127886
0.110919
0.0966158
0.0850777
0.0763754
0.0705533
0.0676355
0.0721119
0.0752087
0.0813865
0.0906188
0.102856
0.11802
0.135999
0.156636
0.179727
0.205009
0.232164
0.260815
0.290531
0.320834
0.351209
0.381116
0.410005
0.437329
0.46256
0.485202
0.504808
0.520986
0.533412
0.541838
0.546094
0.546094
0.54184
0.533415
0.520989
0.504812
0.485208
0.462566
0.437336
0.410013
0.381125
0.351218
0.320843
0.29054
0.260824
0.232173
0.205018
0.179735
0.156643
0.136005
0.118026
0.102861
0.0906237
0.0813911
0.0752129
0.0721161
0.0761795
0.0794377
0.0859368
0.0956473
0.108515
0.124454
0.143345
0.16502
0.189258
0.215783
0.244257
0.274281
0.305402
0.337119
0.368891
0.400156
0.430339
0.45887
0.485202
0.508822
0.529265
0.546129
0.559078
0.567856
0.57229
0.57229
0.567858
0.55908
0.546132
0.529269
0.508827
0.485208
0.458876
0.430346
0.400164
0.368899
0.337126
0.30541
0.274289
0.244264
0.215791
0.189265
0.165026
0.143351
0.12446
0.10852
0.095652
0.0859413
0.0794419
0.0761838
0.0797374
0.083136
0.0899145
0.100041
0.113456
0.130069
0.149752
0.172326
0.19756
0.225161
0.254775
0.285986
0.318321
0.351257
0.384234
0.416667
0.447962
0.477531
0.504808
0.529265
0.550426
0.567876
0.581273
0.590353
0.594938
0.594938
0.590354
0.581275
0.567879
0.55043
0.529269
0.504812
0.477536
0.447968
0.416674
0.384241
0.351264
0.318328
0.285993
0.254782
0.225167
0.197566
0.172332
0.149757
0.130074
0.11346
0.100045
0.0899189
0.0831401
0.0797416
0.0826984
0.0862132
0.0932232
0.103694
0.117562
0.134733
0.15507
0.178388
0.204444
0.232933
0.263488
0.295678
0.329011
0.362951
0.396917
0.43031
0.462517
0.492935
0.520986
0.546129
0.567876
0.585806
0.599567
0.608893
0.613602
0.613602
0.608894
0.599569
0.585808
0.567879
0.546132
0.520989
0.492939
0.462521
0.430314
0.396923
0.362956
0.329017
0.295683
0.263494
0.232938
0.204449
0.178393
0.155075
0.134737
0.117566
0.103698
0.0932273
0.0862172
0.0827025
0.0849882
0.0885927
0.0957809
0.106517
0.120734
0.138334
0.159175
0.183064
0.209752
0.238924
0.270201
0.303141
0.337241
0.371949
0.406673
0.440799
0.473703
0.504771
0.533412
0.559078
0.581273
0.599567
0.613607
0.62312
0.627923
0.627923
0.623121
0.613608
0.599569
0.581275
0.55908
0.533415
0.504774
0.473706
0.440803
0.406677
0.371953
0.337245
0.303145
0.270205
0.238928
0.209756
0.183068
0.159179
0.138338
0.120738
0.10652
0.0957847
0.0885964
0.0849921
0.0865485
0.0902138
0.0975233
0.108439
0.122894
0.140785
0.161968
0.186246
0.213362
0.242997
0.274764
0.308212
0.342831
0.378058
0.413295
0.447917
0.481292
0.512798
0.541838
0.567856
0.590353
0.608893
0.62312
0.632759
0.637626
0.637626
0.63276
0.623121
0.608894
0.590354
0.567858
0.54184
0.5128
0.481294
0.447919
0.413297
0.378061
0.342833
0.308214
0.274766
0.242999
0.213364
0.186248
0.161971
0.140788
0.122897
0.108442
0.0975266
0.0902173
0.0865521
0.087339
0.0910351
0.0984059
0.109413
0.123987
0.142026
0.163382
0.187856
0.215189
0.245057
0.277071
0.310776
0.345657
0.381147
0.416642
0.451514
0.485126
0.516853
0.546094
0.57229
0.594938
0.613602
0.627923
0.637626
0.642524
0.642524
0.637626
0.627923
0.613602
0.594938
0.57229
0.546094
0.516854
0.485127
0.451515
0.416643
0.381148
0.345658
0.310777
0.277072
0.245058
0.21519
0.187857
0.163384
0.142028
0.123989
0.109415
0.0984088
0.0910382
0.0873423
0.0873391
0.0910353
0.0984061
0.109413
0.123988
0.142027
0.163383
0.187856
0.215189
0.245058
0.277072
0.310777
0.345657
0.381148
0.416643
0.451514
0.485127
0.516854
0.546094
0.57229
0.594938
0.613602
0.627923
0.637626
0.642524
0.642524
0.637626
0.627923
0.613602
0.594938
0.57229
0.546094
0.516853
0.485126
0.451514
0.416642
0.381147
0.345657
0.310776
0.277072
0.245057
0.215189
0.187857
0.163383
0.142028
0.123989
0.109415
0.0984086
0.091038
0.0873421
0.086549
0.0902144
0.097524
0.10844
0.122895
0.140786
0.16197
0.186247
0.213364
0.242999
0.274766
0.308214
0.342833
0.378061
0.413297
0.447919
0.481294
0.5128
0.54184
0.567858
0.590354
0.608894
0.623121
0.63276
0.637626
0.637626
0.632759
0.62312
0.608893
0.590353
0.567856
0.541838
0.512798
0.481292
0.447917
0.413295
0.378058
0.342831
0.308212
0.274764
0.242997
0.213362
0.186246
0.161969
0.140786
0.122895
0.108441
0.0975259
0.0902167
0.0865516
0.084989
0.0885935
0.0957821
0.106518
0.120736
0.138336
0.159178
0.183067
0.209755
0.238927
0.270205
0.303145
0.337245
0.371953
0.406677
0.440803
0.473706
0.504774
0.533415
0.55908
0.581275
0.599569
0.613608
0.623121
0.627923
0.627923
0.62312
0.613607
0.599567
0.581273
0.559078
0.533412
0.504771
0.473703
0.440799
0.406673
0.371949
0.337241
0.303141
0.270202
0.238924
0.209753
0.183065
0.159176
0.138335
0.120736
0.106519
0.0957836
0.0885955
0.0849913
0.0826994
0.0862144
0.0932247
0.103696
0.117564
0.134736
0.155074
0.178392
0.204448
0.232938
0.263493
0.295683
0.329017
0.362956
0.396922
0.430314
0.462521
0.492939
0.520989
0.546132
0.567879
0.585808
0.599569
0.608894
0.613602
0.613602
0.608893
0.599567
0.585806
0.567876
0.546129
0.520986
0.492935
0.462517
0.43031
0.396917
0.362951
0.329012
0.295678
0.263489
0.232934
0.204444
0.178389
0.155071
0.134734
0.117564
0.103696
0.0932258
0.086216
0.0827014
0.0797386
0.0831374
0.0899164
0.100043
0.113459
0.130073
0.149756
0.172331
0.197565
0.225167
0.254782
0.285993
0.318328
0.351264
0.384241
0.416674
0.447968
0.477536
0.504812
0.529269
0.55043
0.567879
0.581275
0.590354
0.594938
0.594938
0.590353
0.581273
0.567876
0.550427
0.529265
0.504808
0.477531
0.447962
0.416668
0.384234
0.351257
0.318321
0.285987
0.254776
0.225161
0.19756
0.172327
0.149753
0.130071
0.113457
0.100043
0.0899171
0.0831387
0.0797403
0.0761809
0.0794392
0.0859389
0.09565
0.108518
0.124459
0.14335
0.165025
0.189265
0.21579
0.244264
0.274288
0.30541
0.337126
0.368899
0.400163
0.430346
0.458876
0.485208
0.508827
0.529269
0.546132
0.55908
0.567858
0.57229
0.57229
0.567856
0.559078
0.546129
0.529265
0.508822
0.485202
0.45887
0.430339
0.400156
0.368891
0.337119
0.305402
0.274281
0.244257
0.215784
0.189259
0.16502
0.143346
0.124456
0.108516
0.0956493
0.0859393
0.0794404
0.0761824
0.0721133
0.0752102
0.0813887
0.0906217
0.102859
0.118025
0.136004
0.156643
0.179734
0.205017
0.232173
0.260824
0.29054
0.320842
0.351218
0.381125
0.410013
0.437336
0.462566
0.485208
0.504812
0.520989
0.533415
0.54184
0.546094
0.546094
0.541838
0.533412
0.520986
0.504808
0.485202
0.46256
0.437329
0.410006
0.381116
0.351209
0.320834
0.290531
0.260815
0.232165
0.20501
0.179728
0.156637
0.136
0.118021
0.102857
0.0906208
0.0813889
0.0752112
0.0721147
0.0676328
0.0705508
0.0763731
0.0850758
0.0966143
0.110918
0.127885
0.14737
0.169184
0.193083
0.218768
0.245886
0.274031
0.302752
0.331561
0.359946
0.387382
0.413347
0.437336
0.458876
0.477536
0.492939
0.504774
0.5128
0.516854
0.516853
0.512798
0.504771
0.492935
0.477531
0.45887
0.437329
0.413339
0.387373
0.359937
0.331552
0.302742
0.274022
0.245877
0.218759
0.193075
0.169177
0.147364
0.12788
0.110915
0.0966118
0.0850747
0.0763732
0.0705518
0.0676341
0.0628423
0.0655677
0.0710063
0.0791377
0.0899223
0.103297
0.11917
0.13741
0.157842
0.180242
0.204334
0.229788
0.256226
0.283226
0.310329
0.337053
0.362902
0.387382
0.410013
0.430346
0.447968
0.462521
0.473706
0.481294
0.485127
0.485126
0.481292
0.473703
0.462517
0.447962
0.430339
0.410006
0.387373
0.362892
0.337043
0.310319
0.283216
0.256216
0.229778
0.204324
0.180234
0.157835
0.137404
0.119165
0.103294
0.0899197
0.0791365
0.0710064
0.0655687
0.0628437
0.0578474
0.0603703
0.0654057
0.0729363
0.0829278
0.0953251
0.110046
0.126972
0.145945
0.166761
0.189166
0.212857
0.237485
0.262656
0.287944
0.312898
0.337053
0.359946
0.381125
0.400164
0.416674
0.430314
0.440803
0.447919
0.451515
0.451514
0.447917
0.440799
0.43031
0.416668
0.400156
0.381116
0.359937
0.337043
0.312887
0.287933
0.262645
0.237474
0.212847
0.189156
0.166752
0.145937
0.126965
0.11004
0.0953211
0.0829252
0.0729351
0.0654058
0.0603714
0.0578488
0.0527524
0.055067
0.0596876
0.0665997
0.0757744
0.087164
0.100696
0.116265
0.133731
0.152908
0.173565
0.195427
0.218173
0.241441
0.264837
0.287944
0.310329
0.331561
0.351218
0.368899
0.384241
0.396923
0.406677
0.413297
0.416643
0.416642
0.413295
0.406673
0.396917
0.384234
0.368891
0.351209
0.331552
0.310319
0.287933
0.264826
0.24143
0.218162
0.195417
0.173556
0.152899
0.133723
0.116259
0.100691
0.0871602
0.075772
0.0665987
0.0596878
0.0550682
0.0527539
0.0476572
0.0497617
0.0539637
0.0602516
0.0686013
0.0789721
0.0913012
0.105497
0.121434
0.138946
0.157827
0.177827
0.198654
0.219979
0.241441
0.262656
0.283226
0.302752
0.320843
0.337126
0.351264
0.362956
0.371953
0.378061
0.381148
0.381147
0.378058
0.371949
0.362951
0.351257
0.337119
0.320834
0.302742
0.283216
0.262645
0.24143
0.219968
0.198643
0.177817
0.157818
0.138937
0.121426
0.105491
0.0912962
0.0789685
0.0685991
0.0602508
0.0539641
0.0497631
0.0476589
0.0426546
0.0445511
0.0483382
0.0540072
0.0615384
0.0708978
0.0820317
0.0948608
0.109275
0.125127
0.142235
0.160372
0.179278
0.198654
0.218173
0.237485
0.256227
0.274031
0.29054
0.30541
0.318328
0.329017
0.337245
0.342833
0.345658
0.345657
0.342831
0.337241
0.329012
0.318321
0.305402
0.290531
0.274022
0.256216
0.237474
0.218162
0.198643
0.179268
0.160363
0.142226
0.125119
0.109268
0.0948549
0.0820271
0.0708946
0.0615365
0.0540067
0.0483389
0.0445527
0.0426566
0.037828
0.0395218
0.0429049
0.0479708
0.0547039
0.0630763
0.0730428
0.0845355
0.0974587
0.111685
0.127051
0.143358
0.160372
0.177827
0.195428
0.212858
0.229788
0.245886
0.260824
0.274289
0.285993
0.295683
0.303145
0.308214
0.310777
0.310776
0.308212
0.303141
0.295678
0.285987
0.274281
0.260815
0.245877
0.229778
0.212847
0.195417
0.177817
0.160363
0.143349
0.127042
0.111677
0.0974522
0.0845302
0.0730387
0.0630735
0.0547024
0.0479706
0.0429059
0.0395237
0.0378302
0.0332496
0.0347493
0.0377454
0.0422334
0.0482014
0.0556268
0.0644722
0.0746802
0.0861685
0.0988266
0.112512
0.127051
0.142235
0.157827
0.173565
0.189166
0.204334
0.218768
0.232173
0.244264
0.254782
0.263494
0.270205
0.274766
0.277072
0.277072
0.274764
0.270202
0.263489
0.254776
0.244257
0.232165
0.218759
0.204324
0.189156
0.173556
0.157818
0.142226
0.127042
0.112504
0.0988197
0.0861627
0.0746755
0.0644687
0.0556246
0.0482004
0.0422336
0.0377467
0.0347515
0.033252
0.0289795
0.0302966
0.0329283
0.036872
0.0421188
0.0486509
0.0564378
0.0654315
0.0755623
0.086735
0.0988267
0.111685
0.125128
0.138946
0.152908
0.166761
0.180243
0.193083
0.205018
0.215791
0.225167
0.232938
0.238928
0.242999
0.245058
0.245057
0.242997
0.238924
0.232934
0.225161
0.215784
0.20501
0.193075
0.180234
0.166752
0.152899
0.138937
0.125119
0.111677
0.0988197
0.086729
0.0755572
0.0654276
0.056435
0.0486493
0.0421183
0.0368726
0.03293
0.0302991
0.0289822
0.0250658
0.0262139
0.0285086
0.0319486
0.0365275
0.0422318
0.0490369
0.0569031
0.0657719
0.0755624
0.0861687
0.0974589
0.109275
0.121434
0.133731
0.145945
0.157843
0.169185
0.179735
0.189265
0.197566
0.204449
0.209756
0.213364
0.21519
0.215189
0.213362
0.209753
0.204444
0.19756
0.189259
0.179728
0.169177
0.157835
0.145937
0.133723
0.121426
0.109268
0.0974522
0.0861627
0.0755572
0.0657677
0.0568999
0.0490347
0.0422307
0.0365275
0.0319496
0.0285106
0.0262167
0.0250687
0.0215447
0.0225395
0.0245283
0.0275108
0.0314829
0.0364344
0.042346
0.0491852
0.0569032
0.0654317
0.0746804
0.0845359
0.0948612
0.105497
0.116266
0.126972
0.137411
0.147371
0.156643
0.165026
0.172332
0.178393
0.183068
0.186248
0.187857
0.187857
0.186246
0.183065
0.178389
0.172327
0.16502
0.156637
0.147364
0.137404
0.126965
0.116259
0.105491
0.0948549
0.0845302
0.0746755
0.0654276
0.0568999
0.0491828
0.0423445
0.0364339
0.0314833
0.0275122
0.0245306
0.0225425
0.0215478
0.0184417
0.0193004
0.0210173
0.0235931
0.0270254
0.0313069
0.0364226
0.0423461
0.0490371
0.0564382
0.0644726
0.0730433
0.0820323
0.0913018
0.100696
0.110046
0.119171
0.127886
0.136005
0.143351
0.149757
0.155075
0.159179
0.161971
0.163384
0.163383
0.161969
0.159176
0.155071
0.149753
0.143346
0.136
0.12788
0.119165
0.11004
0.100691
0.0912962
0.0820271
0.0730387
0.0644687
0.056435
0.0490347
0.0423445
0.0364219
0.0313071
0.0270264
0.0235949
0.0210199
0.0193036
0.0184451
0.0157734
0.0165141
0.0179953
0.0202186
0.0231827
0.0268828
0.0313071
0.0364347
0.0422322
0.0486515
0.0556274
0.063077
0.0708986
0.078973
0.087165
0.0953261
0.103299
0.110919
0.118026
0.12446
0.130074
0.134737
0.138338
0.140788
0.142028
0.142028
0.140786
0.138335
0.134734
0.130071
0.124456
0.118021
0.110915
0.103294
0.0953211
0.0871602
0.0789685
0.0708946
0.0630735
0.0556246
0.0486493
0.0422307
0.0364339
0.0313071
0.0268835
0.0231842
0.0202208
0.0179982
0.0165175
0.015777
0.0135486
0.0141903
0.0154737
0.0174009
0.0199717
0.0231829
0.0270257
0.0314833
0.0365281
0.0421195
0.0482022
0.0547048
0.0615394
0.0686024
0.0757757
0.0829291
0.0899237
0.0966158
0.102861
0.10852
0.11346
0.117566
0.120738
0.122897
0.123989
0.123989
0.122895
0.120736
0.117564
0.113457
0.108516
0.102857
0.0966118
0.0899197
0.0829252
0.075772
0.0685991
0.0615365
0.0547024
0.0482004
0.0421183
0.0365275
0.0314833
0.0270264
0.0231842
0.0199736
0.0174035
0.0154769
0.014194
0.0135524
0.0117709
0.012333
0.0134575
0.0151467
0.0174011
0.020219
0.0235936
0.0275115
0.0319494
0.036873
0.0422346
0.047972
0.0540085
0.0602531
0.0666013
0.0729379
0.0791395
0.0850777
0.0906237
0.095652
0.100045
0.103698
0.10652
0.108442
0.109415
0.109415
0.108441
0.106519
0.103696
0.100043
0.0956493
0.0906208
0.0850747
0.0791365
0.0729351
0.0665987
0.0602508
0.0540067
0.0479706
0.0422336
0.0368726
0.0319496
0.0275122
0.0235949
0.0202208
0.0174035
0.0151496
0.013461
0.012337
0.011775
0.0104403
0.0109426
0.0119476
0.0134577
0.0154741
0.0179959
0.021018
0.0245292
0.0285097
0.0329296
0.0377468
0.0429064
0.0483399
0.0539655
0.0596895
0.0654078
0.0710085
0.0763754
0.0813911
0.0859413
0.0899189
0.0932273
0.0957847
0.0975266
0.0984088
0.0984086
0.0975259
0.0957836
0.0932258
0.0899171
0.0859393
0.0813889
0.0763732
0.0710064
0.0654058
0.0596878
0.0539641
0.0483389
0.0429059
0.0377467
0.03293
0.0285106
0.0245306
0.0210199
0.0179982
0.0154769
0.013461
0.0119514
0.0109469
0.0104448
0.00955503
0.0100174
0.0109428
0.0123334
0.0141908
0.0165148
0.0193013
0.0225406
0.0262152
0.030298
0.0347509
0.0395235
0.0445529
0.0497638
0.0550692
0.0603726
0.0655701
0.0705533
0.0752129
0.0794419
0.0831401
0.0862172
0.0885964
0.0902173
0.0910382
0.091038
0.0902167
0.0885955
0.086216
0.0831387
0.0794404
0.0752112
0.0705518
0.0655687
0.0603714
0.0550682
0.0497631
0.0445527
0.0395237
0.0347515
0.0302991
0.0262167
0.0225425
0.0193036
0.0165175
0.014194
0.012337
0.0109469
0.0100221
0.00955991
0.00911298
0.00955515
0.0104406
0.0117714
0.0135493
0.0157742
0.0184428
0.0215458
0.0250671
0.028981
0.0332513
0.0378299
0.0426567
0.0476594
0.0527547
0.0578499
0.0628449
0.0676355
0.0721161
0.0761838
0.0797416
0.0827025
0.0849921
0.0865521
0.0873423
0.0873421
0.0865516
0.0849913
0.0827014
0.0797403
0.0761824
0.0721147
0.0676341
0.0628437
0.0578488
0.0527539
0.0476589
0.0426566
0.0378302
0.033252
0.0289822
0.0250687
0.0215478
0.0184451
0.015777
0.0135524
0.011775
0.0104448
0.00955991
0.00911768
)
;

boundaryField
{
    walls
    {
        type            zeroGradient;
    }
    frontAndBack
    {
        type            empty;
    }
}


// ************************************************************************* //
