/*--------------------------------*- C++ -*----------------------------------*\
| =========                 |                                                 |
| \\      /  F ield         | OpenFOAM: The Open Source CFD Toolbox           |
|  \\    /   O peration     | Version:  2406                                  |
|   \\  /    A nd           | Website:  www.openfoam.com                      |
|    \\/     M anipulation  |                                                 |
\*---------------------------------------------------------------------------*/
FoamFile
{
    version     2.0;
    format      ascii;
    arch        "LSB;label=32;scalar=64";
    class       volVectorField;
    location    "1.35";
    object      flux;
}
// * * * * * * * * * * * * * * * * * * * * * * * * * * * * * * * * * * * * * //

dimensions      [0 1 -1 1 0 0 0];

internalField   nonuniform List<vector> 
2500
(
(0.000431424 0.000431424 0)
(0.00129276 0.000435344 0)
(0.00215224 0.000443302 0)
(0.00300956 0.000455247 0)
(0.00386264 0.000471222 0)
(0.00471018 0.000491272 0)
(0.00555082 0.000515453 0)
(0.0063831 0.000543826 0)
(0.00720545 0.000576459 0)
(0.00801619 0.000613424 0)
(0.0088135 0.000654795 0)
(0.0095954 0.000700644 0)
(0.0103598 0.000751044 0)
(0.0111043 0.000806058 0)
(0.0118265 0.000865743 0)
(0.0125237 0.000930141 0)
(0.0131929 0.00099928 0)
(0.0138313 0.00107317 0)
(0.0144353 0.00115179 0)
(0.0150017 0.00123509 0)
(0.0155268 0.00132301 0)
(0.0160068 0.00141544 0)
(0.0164378 0.00151221 0)
(0.0168158 0.00161315 0)
(0.0171368 0.00171801 0)
(0.0173968 0.00182651 0)
(0.0175916 0.00193831 0)
(0.0177174 0.00205301 0)
(0.0177705 0.00217018 0)
(0.0177473 0.00228931 0)
(0.0176447 0.00240984 0)
(0.0174597 0.00253119 0)
(0.01719 0.00265268 0)
(0.0168338 0.00277363 0)
(0.0163898 0.0028933 0)
(0.0158575 0.0030109 0)
(0.0152369 0.00312565 0)
(0.014529 0.00323672 0)
(0.0137355 0.0033433 0)
(0.0128592 0.00344455 0)
(0.0119033 0.00353967 0)
(0.0108723 0.00362787 0)
(0.00977124 0.00370841 0)
(0.00860624 0.00378058 0)
(0.00738401 0.00384376 0)
(0.00611199 0.00389737 0)
(0.00479821 0.00394094 0)
(0.0034512 0.00397409 0)
(0.00208002 0.00399634 0)
(0.000694778 0.00400655 0)
(0.000435344 0.00129276 0)
(0.00130464 0.00130464 0)
(0.00217214 0.0013285 0)
(0.00303748 0.00136435 0)
(0.00389866 0.0014123 0)
(0.00475441 0.00147249 0)
(0.00560338 0.00154508 0)
(0.00644411 0.00163026 0)
(0.00727505 0.00172824 0)
(0.00809453 0.00183923 0)
(0.00890072 0.00196346 0)
(0.00969165 0.00210114 0)
(0.0104652 0.00225249 0)
(0.011219 0.00241772 0)
(0.0119506 0.00259698 0)
(0.0126572 0.00279041 0)
(0.013336 0.0029981 0)
(0.0139838 0.00322007 0)
(0.0145973 0.00345628 0)
(0.0151729 0.00370659 0)
(0.0157071 0.00397079 0)
(0.016196 0.00424854 0)
(0.0166355 0.0045394 0)
(0.0170216 0.0048428 0)
(0.0173502 0.00515803 0)
(0.0176171 0.00548422 0)
(0.0178181 0.00582035 0)
(0.0179493 0.00616527 0)
(0.0180068 0.00651762 0)
(0.017987 0.00687592 0)
(0.0178865 0.00723849 0)
(0.0177025 0.00760352 0)
(0.0174325 0.00796905 0)
(0.0170744 0.00833297 0)
(0.0166271 0.00869306 0)
(0.0160898 0.00904698 0)
(0.0154627 0.00939234 0)
(0.0147466 0.00972667 0)
(0.0139434 0.0100475 0)
(0.0130555 0.0103523 0)
(0.0120866 0.0106387 0)
(0.011041 0.0109043 0)
(0.00992395 0.0111468 0)
(0.00874159 0.0113641 0)
(0.00750079 0.0115544 0)
(0.00620918 0.0117158 0)
(0.00487493 0.011847 0)
(0.0035066 0.0119469 0)
(0.00211249 0.0120145 0)
(0.00070499 0.0120472 0)
(0.000443302 0.00215224 0)
(0.0013285 0.00217214 0)
(0.00221195 0.00221195 0)
(0.00309336 0.00227179 0)
(0.00397078 0.00235186 0)
(0.00484296 0.00245237 0)
(0.0057086 0.00257361 0)
(0.00656626 0.00271588 0)
(0.00741442 0.00287954 0)
(0.00825141 0.00306494 0)
(0.00907541 0.00327247 0)
(0.00988444 0.00350251 0)
(0.0106764 0.00375542 0)
(0.0114488 0.00403154 0)
(0.0121992 0.00433115 0)
(0.0129248 0.0046545 0)
(0.0136226 0.00500172 0)
(0.0142894 0.00537287 0)
(0.0149218 0.00576789 0)
(0.0155162 0.00618657 0)
(0.0160687 0.00662854 0)
(0.0165754 0.00709328 0)
(0.0170321 0.00758004 0)
(0.0174344 0.00808787 0)
(0.0177782 0.00861559 0)
(0.0180591 0.00916177 0)
(0.0182727 0.00972472 0)
(0.0184147 0.0103025 0)
(0.0184812 0.0108928 0)
(0.0184682 0.0114932 0)
(0.0183723 0.0121009 0)
(0.0181902 0.0127129 0)
(0.0179195 0.0133258 0)
(0.0175578 0.0139361 0)
(0.0171038 0.0145401 0)
(0.0165567 0.0151339 0)
(0.0159166 0.0157134 0)
(0.0151841 0.0162745 0)
(0.0143612 0.016813 0)
(0.0134504 0.0173247 0)
(0.0124552 0.0178056 0)
(0.0113803 0.0182516 0)
(0.0102311 0.0186589 0)
(0.00901381 0.0190239 0)
(0.00773568 0.0193434 0)
(0.00640464 0.0196146 0)
(0.00502929 0.0198348 0)
(0.00361865 0.0200023 0)
(0.00218032 0.0201155 0)
(0.000727494 0.0201721 0)
(0.000455247 0.00300956 0)
(0.00136435 0.00303748 0)
(0.00227179 0.00309336 0)
(0.00317739 0.00317739 0)
(0.00407924 0.00328983 0)
(0.00497616 0.003431 0)
(0.00586688 0.00360128 0)
(0.00675003 0.00380113 0)
(0.00762411 0.00403104 0)
(0.00848746 0.00429154 0)
(0.00933829 0.00458316 0)
(0.0101746 0.00490647 0)
(0.0109942 0.00526197 0)
(0.0117947 0.00565016 0)
(0.0125735 0.00607147 0)
(0.0133278 0.00652623 0)
(0.0140543 0.00701468 0)
(0.0147499 0.00753691 0)
(0.015411 0.00809285 0)
(0.0160336 0.00868222 0)
(0.0166138 0.00930455 0)
(0.0171475 0.00995909 0)
(0.0176301 0.0106448 0)
(0.0180572 0.0113604 0)
(0.0184241 0.0121043 0)
(0.0187262 0.0128744 0)
(0.0189588 0.0136683 0)
(0.0191174 0.0144834 0)
(0.0191976 0.0153165 0)
(0.0191951 0.016164 0)
(0.0191062 0.0170221 0)
(0.0189274 0.0178865 0)
(0.0186557 0.0187524 0)
(0.0182887 0.0196149 0)
(0.0178249 0.0204688 0)
(0.0172631 0.0213084 0)
(0.0166033 0.022128 0)
(0.0158462 0.0229219 0)
(0.0149936 0.0236839 0)
(0.0140481 0.0244083 0)
(0.0130134 0.025089 0)
(0.0118943 0.0257205 0)
(0.0106963 0.0262974 0)
(0.00942616 0.0268144 0)
(0.00809146 0.0272671 0)
(0.00670059 0.0276511 0)
(0.00526269 0.027963 0)
(0.00378728 0.0281998 0)
(0.00228226 0.0283592 0)
(0.00076156 0.0284393 0)
(0.000471222 0.00386264 0)
(0.0014123 0.00389866 0)
(0.00235186 0.00397078 0)
(0.00328983 0.00407924 0)
(0.00422438 0.00422438 0)
(0.00515441 0.00440662 0)
(0.00607873 0.00462648 0)
(0.00699602 0.00488454 0)
(0.00790483 0.00518147 0)
(0.00880353 0.00551794 0)
(0.00969034 0.0058947 0)
(0.0105632 0.00631247 0)
(0.01142 0.00677194 0)
(0.0122583 0.00727378 0)
(0.0130753 0.00781856 0)
(0.013868 0.00840677 0)
(0.0146333 0.00903871 0)
(0.0153676 0.00971456 0)
(0.0160672 0.0104343 0)
(0.0167279 0.0111975 0)
(0.0173456 0.0120036 0)
(0.0179157 0.0128518 0)
(0.0184334 0.0137407 0)
(0.0188939 0.0146687 0)
(0.0192922 0.0156337 0)
(0.0196231 0.0166331 0)
(0.0198817 0.0176638 0)
(0.0200629 0.0187224 0)
(0.0201618 0.0198048 0)
(0.0201738 0.0209064 0)
(0.0200947 0.0220222 0)
(0.0199205 0.0231465 0)
(0.0196479 0.0242733 0)
(0.0192742 0.0253961 0)
(0.0187973 0.0265081 0)
(0.018216 0.0276019 0)
(0.0175301 0.0286702 0)
(0.01674 0.0297051 0)
(0.0158476 0.0306989 0)
(0.0148555 0.0316438 0)
(0.0137675 0.0325321 0)
(0.0125887 0.0333564 0)
(0.011325 0.0341095 0)
(0.00998351 0.0347846 0)
(0.00857238 0.0353758 0)
(0.0071006 0.0358774 0)
(0.00557801 0.0362847 0)
(0.00401486 0.0365939 0)
(0.00241975 0.0368018 0)
(0.000807533 0.0369062 0)
(0.000491272 0.00471018 0)
(0.00147249 0.00475441 0)
(0.00245237 0.00484296 0)
(0.003431 0.00497616 0)
(0.00440662 0.00515441 0)
(0.00537826 0.00537826 0)
(0.0063448 0.00564834 0)
(0.00730502 0.00596542 0)
(0.00825751 0.0063303 0)
(0.0092007 0.00674388 0)
(0.0101328 0.00720707 0)
(0.0110518 0.0077208 0)
(0.0119555 0.00828597 0)
(0.0128414 0.00890344 0)
(0.0137065 0.00957396 0)
(0.0145479 0.0102982 0)
(0.0153621 0.0110765 0)
(0.0161455 0.0119092 0)
(0.0168939 0.0127962 0)
(0.017603 0.0137373 0)
(0.0182682 0.0147317 0)
(0.0188846 0.0157785 0)
(0.019447 0.016876 0)
(0.0199501 0.0180222 0)
(0.0203884 0.0192147 0)
(0.0207563 0.0204502 0)
(0.0210482 0.0217252 0)
(0.0212584 0.0230353 0)
(0.0213815 0.0243754 0)
(0.0214125 0.02574 0)
(0.0213463 0.0271229 0)
(0.0211785 0.028517 0)
(0.0209053 0.0299149 0)
(0.0205235 0.0313086 0)
(0.0200307 0.0326894 0)
(0.0194251 0.0340483 0)
(0.0187064 0.035376 0)
(0.017875 0.0366629 0)
(0.0169323 0.0378991 0)
(0.0158814 0.039075 0)
(0.014726 0.0401809 0)
(0.0134716 0.0412074 0)
(0.0121245 0.0421455 0)
(0.0106925 0.0429868 0)
(0.00918421 0.0437236 0)
(0.00760954 0.0443488 0)
(0.00597917 0.0448566 0)
(0.00430432 0.0452419 0)
(0.00259459 0.045501 0)
(0.000865996 0.0456312 0)
(0.000515453 0.00555082 0)
(0.00154508 0.00560338 0)
(0.00257361 0.0057086 0)
(0.00360128 0.00586688 0)
(0.00462648 0.00607873 0)
(0.00564834 0.0063448 0)
(0.00666589 0.00666589 0)
(0.00767798 0.00704291 0)
(0.00868329 0.00747687 0)
(0.0096803 0.00796886 0)
(0.0106673 0.00852003 0)
(0.0116422 0.00913152 0)
(0.0126027 0.00980446 0)
(0.0135463 0.0105399 0)
(0.01447 0.0113389 0)
(0.0153705 0.0122021 0)
(0.0162443 0.0131302 0)
(0.0170873 0.0141237 0)
(0.0178953 0.0151824 0)
(0.0186635 0.0163062 0)
(0.0193868 0.0174943 0)
(0.0200599 0.0187455 0)
(0.0206771 0.0200581 0)
(0.0212326 0.0214297 0)
(0.0217202 0.0228574 0)
(0.0221337 0.0243376 0)
(0.0224667 0.0258659 0)
(0.0227131 0.0274371 0)
(0.0228665 0.0290454 0)
(0.0229213 0.030684 0)
(0.0228716 0.0323455 0)
(0.0227126 0.0340215 0)
(0.0224395 0.0357031 0)
(0.0220486 0.0373806 0)
(0.021537 0.0390435 0)
(0.0209027 0.040681 0)
(0.0201446 0.0422817 0)
(0.0192631 0.043834 0)
(0.0182597 0.0453261 0)
(0.0171373 0.0467459 0)
(0.0158999 0.0480818 0)
(0.0145533 0.0493223 0)
(0.0131044 0.0504564 0)
(0.0115615 0.0514739 0)
(0.00993436 0.0523651 0)
(0.00823363 0.0531216 0)
(0.00647114 0.0537361 0)
(0.00465932 0.0542025 0)
(0.00280902 0.0545161 0)
(0.000937691 0.0546736 0)
(0.000543826 0.0063831 0)
(0.00163026 0.00644411 0)
(0.00271588 0.00656626 0)
(0.00380113 0.00675003 0)
(0.00488454 0.00699602 0)
(0.00596542 0.00730502 0)
(0.00704291 0.00767798 0)
(0.008116 0.008116 0)
(0.00918347 0.0086203 0)
(0.0102439 0.00919222 0)
(0.0112955 0.00983311 0)
(0.0123363 0.0105444 0)
(0.0133639 0.0113275 0)
(0.0143758 0.0121836 0)
(0.0153687 0.0131141 0)
(0.0163393 0.0141199 0)
(0.0172837 0.0152018 0)
(0.0181976 0.0163604 0)
(0.0190764 0.0175959 0)
(0.0199149 0.018908 0)
(0.0207075 0.020296 0)
(0.0214484 0.0217586 0)
(0.0221312 0.0232939 0)
(0.0227495 0.0248992 0)
(0.0232963 0.0265714 0)
(0.0237648 0.0283061 0)
(0.0241476 0.0300983 0)
(0.0244379 0.0319422 0)
(0.0246285 0.0338309 0)
(0.0247126 0.0357566 0)
(0.0246838 0.0377105 0)
(0.0245362 0.0396829 0)
(0.0242644 0.0416632 0)
(0.0238639 0.0436399 0)
(0.0233311 0.0456009 0)
(0.0226634 0.0475332 0)
(0.0218595 0.0494232 0)
(0.0209193 0.0512573 0)
(0.0198442 0.0530211 0)
(0.0186371 0.0547006 0)
(0.0173025 0.0562816 0)
(0.0158462 0.0577504 0)
(0.0142761 0.0590938 0)
(0.0126011 0.0602995 0)
(0.0108319 0.061356 0)
(0.00898054 0.062253 0)
(0.00706003 0.0629819 0)
(0.0050843 0.0635351 0)
(0.00306573 0.0639072 0)
(0.00102353 0.0640941 0)
(0.000576459 0.00720545 0)
(0.00172824 0.00727505 0)
(0.00287954 0.00741442 0)
(0.00403104 0.00762411 0)
(0.00518147 0.00790483 0)
(0.0063303 0.00825751 0)
(0.00747687 0.00868329 0)
(0.0086203 0.00918347 0)
(0.00975951 0.00975951 0)
(0.0108931 0.010413 0)
(0.0120194 0.0111455 0)
(0.0131365 0.0119589 0)
(0.0142419 0.0128546 0)
(0.0153329 0.0138345 0)
(0.0164062 0.0148999 0)
(0.0174583 0.0160522 0)
(0.0184849 0.0172924 0)
(0.0194815 0.0186213 0)
(0.0204429 0.0200392 0)
(0.0213635 0.0215459 0)
(0.0222373 0.0231409 0)
(0.0230578 0.0248227 0)
(0.0238178 0.0265894 0)
(0.0245101 0.028438 0)
(0.025127 0.030365 0)
(0.0256606 0.0323656 0)
(0.0261029 0.0344342 0)
(0.0264457 0.036564 0)
(0.0266809 0.0387473 0)
(0.0268008 0.0409752 0)
(0.0267979 0.0432375 0)
(0.0266653 0.045523 0)
(0.0263965 0.0478196 0)
(0.0259863 0.0501138 0)
(0.0254302 0.0523915 0)
(0.024725 0.0546375 0)
(0.0238687 0.0568362 0)
(0.022861 0.0589711 0)
(0.021703 0.0610257 0)
(0.0203977 0.0629834 0)
(0.0189497 0.0648273 0)
(0.0173655 0.0665414 0)
(0.0156535 0.06811 0)
(0.0138237 0.0695184 0)
(0.0118879 0.070753 0)
(0.00985951 0.0718017 0)
(0.0077532 0.0726539 0)
(0.00558462 0.073301 0)
(0.00336797 0.0737362 0)
(0.00112459 0.0739548 0)
(0.000613424 0.00801619 0)
(0.00183923 0.00809453 0)
(0.00306494 0.00825141 0)
(0.00429154 0.00848746 0)
(0.00551794 0.00880353 0)
(0.00674388 0.0092007 0)
(0.00796886 0.0096803 0)
(0.00919222 0.0102439 0)
(0.010413 0.0108931 0)
(0.0116299 0.0116299 0)
(0.0128414 0.0124562 0)
(0.0140454 0.013374 0)
(0.0152396 0.0143853 0)
(0.016421 0.0154921 0)
(0.0175864 0.0166962 0)
(0.0187318 0.0179992 0)
(0.0198528 0.0194026 0)
(0.0209444 0.0209072 0)
(0.0220011 0.0225137 0)
(0.0230166 0.0242222 0)
(0.0239843 0.026032 0)
(0.0248968 0.0279418 0)
(0.0257465 0.0299495 0)
(0.0265251 0.0320522 0)
(0.0272239 0.0342457 0)
(0.0278339 0.036525 0)
(0.0283461 0.0388838 0)
(0.0287511 0.0413146 0)
(0.0290396 0.0438087 0)
(0.0292027 0.046356 0)
(0.0292316 0.048945 0)
(0.0291183 0.0515629 0)
(0.0288552 0.0541959 0)
(0.0284358 0.0568285 0)
(0.0278548 0.0594445 0)
(0.0271081 0.0620263 0)
(0.0261931 0.0645557 0)
(0.0251089 0.0670139 0)
(0.0238565 0.0693815 0)
(0.0224387 0.0716389 0)
(0.0208605 0.0737667 0)
(0.0191289 0.0757459 0)
(0.0172531 0.0775583 0)
(0.0152441 0.0791863 0)
(0.0131152 0.0806142 0)
(0.0108815 0.0818275 0)
(0.00855933 0.0828139 0)
(0.00616659 0.083563 0)
(0.00371959 0.0840669 0)
(0.00124218 0.0843201 0)
(0.000654795 0.0088135 0)
(0.00196346 0.00890072 0)
(0.00327247 0.00907541 0)
(0.00458316 0.00933829 0)
(0.0058947 0.00969034 0)
(0.00720707 0.0101328 0)
(0.00852003 0.0106673 0)
(0.00983311 0.0112955 0)
(0.0111455 0.0120194 0)
(0.0124562 0.0128414 0)
(0.0137635 0.0137635 0)
(0.0150656 0.0147883 0)
(0.01636 0.0159181 0)
(0.0176438 0.0171553 0)
(0.0189134 0.018502 0)
(0.0201646 0.0199604 0)
(0.0213929 0.0215321 0)
(0.0225926 0.0232185 0)
(0.0237579 0.0250204 0)
(0.0248818 0.0269381 0)
(0.025957 0.0289713 0)
(0.0269753 0.0311186 0)
(0.0279282 0.0333781 0)
(0.0288063 0.0357465 0)
(0.0295998 0.0382195 0)
(0.0302988 0.0407917 0)
(0.0308925 0.0434562 0)
(0.0313706 0.0462048 0)
(0.0317222 0.0490278 0)
(0.0319371 0.0519138 0)
(0.0320049 0.0548501 0)
(0.0319162 0.0578223 0)
(0.0316621 0.0608145 0)
(0.0312349 0.0638093 0)
(0.030628 0.0667881 0)
(0.0298363 0.0697309 0)
(0.0288564 0.0726167 0)
(0.0276867 0.0754238 0)
(0.026328 0.0781298 0)
(0.024783 0.080712 0)
(0.0230568 0.0831479 0)
(0.0211571 0.0854154 0)
(0.0190939 0.087493 0)
(0.0168796 0.0893605 0)
(0.0145291 0.0909993 0)
(0.0120592 0.0923924 0)
(0.00948865 0.0935254 0)
(0.00683765 0.0943861 0)
(0.00412511 0.0949653 0)
(0.0013778 0.0952563 0)
(0.000700644 0.0095954 0)
(0.00210114 0.00969165 0)
(0.00350251 0.00988444 0)
(0.00490647 0.0101746 0)
(0.00631247 0.0105632 0)
(0.0077208 0.0110518 0)
(0.00913152 0.0116422 0)
(0.0105444 0.0123363 0)
(0.0119589 0.0131365 0)
(0.013374 0.0140454 0)
(0.0147883 0.0150656 0)
(0.0162 0.0162 0)
(0.0176065 0.0174513 0)
(0.0190049 0.0188224 0)
(0.0203915 0.0203159 0)
(0.0217618 0.0219344 0)
(0.0231109 0.0236799 0)
(0.0244327 0.0255543 0)
(0.0257207 0.0275587 0)
(0.0269675 0.0296938 0)
(0.0281648 0.0319595 0)
(0.0293037 0.0343547 0)
(0.0303744 0.0368773 0)
(0.0313665 0.0395242 0)
(0.0322691 0.0422909 0)
(0.0330707 0.0451716 0)
(0.0337592 0.0481588 0)
(0.0343226 0.0512437 0)
(0.0347486 0.0544155 0)
(0.035025 0.0576618 0)
(0.0351401 0.0609684 0)
(0.0350827 0.0643192 0)
(0.0348422 0.0676963 0)
(0.0344094 0.0710802 0)
(0.0337764 0.0744497 0)
(0.0329367 0.077782 0)
(0.031886 0.0810533 0)
(0.0306219 0.0842386 0)
(0.0291446 0.0873121 0)
(0.0274568 0.0902478 0)
(0.0255639 0.0930196 0)
(0.023474 0.0956019 0)
(0.0211982 0.0979697 0)
(0.0187504 0.1001 0)
(0.0161472 0.10197 0)
(0.0134076 0.10356 0)
(0.010553 0.104854 0)
(0.00760644 0.105838 0)
(0.00458976 0.1065 0)
(0.00153321 0.106832 0)
(0.000751044 0.0103598 0)
(0.00225249 0.0104652 0)
(0.00375542 0.0106764 0)
(0.00526197 0.0109942 0)
(0.00677194 0.01142 0)
(0.00828597 0.0119555 0)
(0.00980446 0.0126027 0)
(0.0113275 0.0133639 0)
(0.0128546 0.0142419 0)
(0.0143853 0.0152396 0)
(0.0159181 0.01636 0)
(0.0174513 0.0176065 0)
(0.0189824 0.0189824 0)
(0.0205084 0.0204911 0)
(0.0220253 0.0221356 0)
(0.0235286 0.023919 0)
(0.0250128 0.025844 0)
(0.0264715 0.0279128 0)
(0.0278974 0.0301273 0)
(0.0292826 0.0324883 0)
(0.0306178 0.0349961 0)
(0.0318931 0.03765 0)
(0.0330977 0.0404481 0)
(0.0342199 0.0433871 0)
(0.0352472 0.0464627 0)
(0.0361667 0.0496686 0)
(0.0369647 0.0529971 0)
(0.0376273 0.0564384 0)
(0.0381404 0.0599811 0)
(0.0384899 0.0636114 0)
(0.0386622 0.0673136 0)
(0.0386441 0.0710701 0)
(0.0384231 0.0748607 0)
(0.0379883 0.0786637 0)
(0.0373298 0.082455 0)
(0.0364399 0.0862091 0)
(0.0353129 0.0898987 0)
(0.0339455 0.0934954 0)
(0.0323373 0.0969697 0)
(0.0304905 0.100292 0)
(0.0284109 0.103431 0)
(0.0261072 0.106359 0)
(0.0235916 0.109045 0)
(0.0208796 0.111464 0)
(0.0179898 0.113589 0)
(0.0149439 0.115397 0)
(0.0117662 0.116869 0)
(0.008483 0.117988 0)
(0.00511966 0.118742 0)
(0.00171047 0.119121 0)
(0.000806058 0.0111043 0)
(0.00241772 0.011219 0)
(0.00403154 0.0114488 0)
(0.00565016 0.0117947 0)
(0.00727378 0.0122583 0)
(0.00890344 0.0128414 0)
(0.0105399 0.0135463 0)
(0.0121836 0.0143758 0)
(0.0138345 0.0153329 0)
(0.0154921 0.016421 0)
(0.0171553 0.0176438 0)
(0.0188224 0.0190049 0)
(0.0204911 0.0205084 0)
(0.0221581 0.0221581 0)
(0.0238194 0.0239577 0)
(0.0254703 0.025911 0)
(0.0271047 0.0280212 0)
(0.028716 0.0302912 0)
(0.0302962 0.0327232 0)
(0.0318363 0.0353189 0)
(0.0333265 0.0380789 0)
(0.0347556 0.0410029 0)
(0.0361115 0.0440892 0)
(0.0373812 0.047335 0)
(0.0385506 0.0507356 0)
(0.0396051 0.0542847 0)
(0.040529 0.0579743 0)
(0.0413065 0.0617939 0)
(0.0419215 0.0657312 0)
(0.0423576 0.0697714 0)
(0.0425988 0.0738972 0)
(0.0426298 0.0780891 0)
(0.0424358 0.082325 0)
(0.0420037 0.0865804 0)
(0.0413218 0.0908285 0)
(0.0403804 0.0950404 0)
(0.0391722 0.0991853 0)
(0.0376929 0.103231 0)
(0.0359409 0.107143 0)
(0.0339184 0.110889 0)
(0.031631 0.114432 0)
(0.0290882 0.11774 0)
(0.0263034 0.120778 0)
(0.0232938 0.123516 0)
(0.0200806 0.125923 0)
(0.0166881 0.127973 0)
(0.0131442 0.129642 0)
(0.00947892 0.130912 0)
(0.00572186 0.131766 0)
(0.00191194 0.132196 0)
(0.000865743 0.0118265 0)
(0.00259698 0.0119506 0)
(0.00433115 0.0121992 0)
(0.00607147 0.0125735 0)
(0.00781856 0.0130753 0)
(0.00957396 0.0137065 0)
(0.0113389 0.01447 0)
(0.0131141 0.0153687 0)
(0.0148999 0.0164062 0)
(0.0166962 0.0175864 0)
(0.018502 0.0189134 0)
(0.0203159 0.0203915 0)
(0.0221356 0.0220253 0)
(0.0239577 0.0238194 0)
(0.0257783 0.0257783 0)
(0.0275921 0.0279062 0)
(0.0293929 0.0302072 0)
(0.0311735 0.0326849 0)
(0.0329252 0.0353423 0)
(0.0346383 0.0381816 0)
(0.0363018 0.041204 0)
(0.0379034 0.0444098 0)
(0.0394298 0.0477978 0)
(0.0408662 0.0513654 0)
(0.042197 0.055108 0)
(0.0434054 0.0590195 0)
(0.0444738 0.0630913 0)
(0.0453842 0.0673126 0)
(0.0461178 0.0716703 0)
(0.046656 0.0761483 0)
(0.04698 0.0807281 0)
(0.0470719 0.0853882 0)
(0.0469144 0.0901041 0)
(0.0464917 0.0948488 0)
(0.0457898 0.0995924 0)
(0.0447967 0.104302 0)
(0.0435034 0.108944 0)
(0.0419037 0.113481 0)
(0.0399953 0.117874 0)
(0.0377795 0.122085 0)
(0.0352621 0.126074 0)
(0.0324531 0.129801 0)
(0.0293673 0.133229 0)
(0.0260239 0.13632 0)
(0.0224465 0.13904 0)
(0.018663 0.141358 0)
(0.0147052 0.143247 0)
(0.0106076 0.144684 0)
(0.00640452 0.145653 0)
(0.00214035 0.14614 0)
(0.000930141 0.0125237 0)
(0.00279041 0.0126572 0)
(0.0046545 0.0129248 0)
(0.00652623 0.0133278 0)
(0.00840677 0.013868 0)
(0.0102982 0.0145479 0)
(0.0122021 0.0153705 0)
(0.0141199 0.0163393 0)
(0.0160522 0.0174583 0)
(0.0179992 0.0187318 0)
(0.0199604 0.0201646 0)
(0.0219344 0.0217618 0)
(0.023919 0.0235286 0)
(0.025911 0.0254703 0)
(0.0279062 0.0275921 0)
(0.0298992 0.0298992 0)
(0.0318834 0.0323965 0)
(0.0338511 0.0350884 0)
(0.0357928 0.0379787 0)
(0.0376981 0.0410704 0)
(0.0395548 0.0443656 0)
(0.0413494 0.0478652 0)
(0.0430671 0.0515686 0)
(0.0446914 0.0554735 0)
(0.0462047 0.0595759 0)
(0.0475883 0.0638696 0)
(0.0488221 0.068346 0)
(0.0498856 0.0729939 0)
(0.0507572 0.0777994 0)
(0.0514154 0.0827456 0)
(0.0518387 0.0878122 0)
(0.0520058 0.0929759 0)
(0.0518965 0.0982101 0)
(0.051492 0.103485 0)
(0.0507753 0.108767 0)
(0.049732 0.114019 0)
(0.0483505 0.119204 0)
(0.0466229 0.124279 0)
(0.0445453 0.129201 0)
(0.0421183 0.133925 0)
(0.0393474 0.138407 0)
(0.0362432 0.142599 0)
(0.0328219 0.146459 0)
(0.0291048 0.149943 0)
(0.0251187 0.153012 0)
(0.0208952 0.15563 0)
(0.0164706 0.157764 0)
(0.0118846 0.159389 0)
(0.00717707 0.160484 0)
(0.00239889 0.161035 0)
(0.00099928 0.0131929 0)
(0.0029981 0.013336 0)
(0.00500172 0.0136226 0)
(0.00701468 0.0140543 0)
(0.00903871 0.0146333 0)
(0.0110765 0.0153621 0)
(0.0131302 0.0162443 0)
(0.0152018 0.0172837 0)
(0.0172924 0.0184849 0)
(0.0194026 0.0198528 0)
(0.0215321 0.0213929 0)
(0.0236799 0.0231109 0)
(0.025844 0.0250128 0)
(0.0280212 0.0271047 0)
(0.0302072 0.0293929 0)
(0.0323965 0.0318834 0)
(0.0345821 0.0345821 0)
(0.0367557 0.0374943 0)
(0.0389072 0.0406248 0)
(0.0410252 0.0439777 0)
(0.0430966 0.0475559 0)
(0.0451064 0.0513612 0)
(0.0470381 0.0553937 0)
(0.0488736 0.059652 0)
(0.0505931 0.0641324 0)
(0.0521755 0.068829 0)
(0.0535982 0.0737334 0)
(0.0548376 0.0788341 0)
(0.0558694 0.0841166 0)
(0.0566687 0.089563 0)
(0.0572104 0.0951518 0)
(0.0574698 0.100858 0)
(0.0574232 0.106652 0)
(0.0570482 0.112501 0)
(0.0563244 0.118368 0)
(0.0552342 0.124213 0)
(0.0537631 0.129993 0)
(0.0519008 0.135659 0)
(0.0496416 0.141164 0)
(0.0469849 0.146455 0)
(0.0439358 0.151482 0)
(0.0405055 0.156191 0)
(0.0367113 0.160532 0)
(0.0325771 0.164455 0)
(0.0281331 0.167915 0)
(0.0234151 0.170867 0)
(0.0184647 0.173277 0)
(0.0133276 0.175113 0)
(0.00805042 0.17635 0)
(0.00269121 0.176973 0)
(0.00107317 0.0138313 0)
(0.00322007 0.0139838 0)
(0.00537287 0.0142894 0)
(0.00753691 0.0147499 0)
(0.00971456 0.0153676 0)
(0.0119092 0.0161455 0)
(0.0141237 0.0170873 0)
(0.0163604 0.0181976 0)
(0.0186213 0.0194815 0)
(0.0209072 0.0209444 0)
(0.0232185 0.0225926 0)
(0.0255543 0.0244327 0)
(0.0279128 0.0264715 0)
(0.0302912 0.028716 0)
(0.0326849 0.0311735 0)
(0.0350884 0.0338511 0)
(0.0374943 0.0367557 0)
(0.0398938 0.0398938 0)
(0.0422762 0.0432714 0)
(0.0446292 0.0468937 0)
(0.0469382 0.0507648 0)
(0.0491872 0.0548874 0)
(0.0513578 0.0592628 0)
(0.05343 0.0638904 0)
(0.0553818 0.0687672 0)
(0.0571893 0.073888 0)
(0.0588272 0.0792445 0)
(0.0602688 0.0848253 0)
(0.0614861 0.0906155 0)
(0.0624506 0.0965964 0)
(0.0631334 0.102745 0)
(0.0635057 0.109035 0)
(0.0635396 0.115434 0)
(0.0632084 0.121906 0)
(0.0624879 0.128411 0)
(0.0613565 0.134903 0)
(0.0597963 0.141335 0)
(0.057794 0.147652 0)
(0.0553414 0.1538 0)
(0.0524364 0.15972 0)
(0.0490833 0.165352 0)
(0.0452935 0.170637 0)
(0.041086 0.175515 0)
(0.0364872 0.17993 0)
(0.0315308 0.183826 0)
(0.0262578 0.187156 0)
(0.0207158 0.189875 0)
(0.0149576 0.191948 0)
(0.00903722 0.193346 0)
(0.00302156 0.19405 0)
(0.00115179 0.0144353 0)
(0.00345628 0.0145973 0)
(0.00576789 0.0149218 0)
(0.00809285 0.015411 0)
(0.0104343 0.0160672 0)
(0.0127962 0.0168939 0)
(0.0151824 0.0178953 0)
(0.0175959 0.0190764 0)
(0.0200392 0.0204429 0)
(0.0225137 0.0220011 0)
(0.0250204 0.0237579 0)
(0.0275587 0.0257207 0)
(0.0301273 0.0278974 0)
(0.0327232 0.0302962 0)
(0.0353423 0.0329252 0)
(0.0379787 0.0357928 0)
(0.0406248 0.0389072 0)
(0.0432714 0.0422762 0)
(0.0459071 0.0459071 0)
(0.0485186 0.0498065 0)
(0.0510903 0.0539797 0)
(0.0536044 0.0584308 0)
(0.0560411 0.0631625 0)
(0.058378 0.0681751 0)
(0.0605907 0.0734669 0)
(0.0626527 0.0790333 0)
(0.0645355 0.0848667 0)
(0.0662086 0.0909559 0)
(0.0676405 0.0972859 0)
(0.0687984 0.103837 0)
(0.0696488 0.110586 0)
(0.0701584 0.117504 0)
(0.0702943 0.124557 0)
(0.0700252 0.131705 0)
(0.0693218 0.138904 0)
(0.0681581 0.146105 0)
(0.0665118 0.153252 0)
(0.0643658 0.160286 0)
(0.0617091 0.167145 0)
(0.0585371 0.173762 0)
(0.0548531 0.180069 0)
(0.0506687 0.185996 0)
(0.0460041 0.191476 0)
(0.0408883 0.196442 0)
(0.0353595 0.200831 0)
(0.0294642 0.204586 0)
(0.0232569 0.207655 0)
(0.0167985 0.209996 0)
(0.0101522 0.211575 0)
(0.00339489 0.212371 0)
(0.00123509 0.0150017 0)
(0.00370659 0.0151729 0)
(0.00618657 0.0155162 0)
(0.00868222 0.0160336 0)
(0.0111975 0.0167279 0)
(0.0137373 0.017603 0)
(0.0163062 0.0186635 0)
(0.018908 0.0199149 0)
(0.0215459 0.0213635 0)
(0.0242222 0.0230166 0)
(0.0269381 0.0248818 0)
(0.0296938 0.0269675 0)
(0.0324883 0.0292826 0)
(0.0353189 0.0318363 0)
(0.0381816 0.0346383 0)
(0.0410704 0.0376981 0)
(0.0439777 0.0410252 0)
(0.0468937 0.0446292 0)
(0.0498065 0.0485186 0)
(0.0527017 0.0527017 0)
(0.0555626 0.0571854 0)
(0.05837 0.0619755 0)
(0.0611021 0.0670761 0)
(0.0637345 0.0724891 0)
(0.06624 0.078214 0)
(0.0685891 0.0842474 0)
(0.0707498 0.0905827 0)
(0.0726879 0.0972091 0)
(0.0743675 0.104112 0)
(0.0757511 0.111272 0)
(0.0768002 0.118663 0)
(0.0774761 0.126257 0)
(0.0777403 0.134015 0)
(0.0775558 0.141897 0)
(0.0768876 0.149852 0)
(0.0757041 0.157828 0)
(0.0739779 0.165761 0)
(0.0716873 0.173587 0)
(0.0688171 0.181233 0)
(0.06536 0.188625 0)
(0.0613177 0.195684 0)
(0.0567012 0.202331 0)
(0.051532 0.208487 0)
(0.0458421 0.214074 0)
(0.0396742 0.219018 0)
(0.0330813 0.223253 0)
(0.0261259 0.226718 0)
(0.0188783 0.229363 0)
(0.0114124 0.231149 0)
(0.00381696 0.232049 0)
(0.00132301 0.0155268 0)
(0.00397079 0.0157071 0)
(0.00662854 0.0160687 0)
(0.00930455 0.0166138 0)
(0.0120036 0.0173456 0)
(0.0147317 0.0182682 0)
(0.0174943 0.0193868 0)
(0.020296 0.0207075 0)
(0.0231409 0.0222373 0)
(0.026032 0.0239843 0)
(0.0289713 0.025957 0)
(0.0319595 0.0281648 0)
(0.0349961 0.0306178 0)
(0.0380789 0.0333265 0)
(0.041204 0.0363018 0)
(0.0443656 0.0395548 0)
(0.0475559 0.0430966 0)
(0.0507648 0.0469382 0)
(0.0539797 0.0510903 0)
(0.0571854 0.0555626 0)
(0.0603641 0.0603641 0)
(0.0634951 0.0655025 0)
(0.0665546 0.0709836 0)
(0.0695159 0.0768113 0)
(0.0723491 0.0829868 0)
(0.0750214 0.0895082 0)
(0.0774972 0.0963701 0)
(0.079738 0.103563 0)
(0.081703 0.111073 0)
(0.0833497 0.11888 0)
(0.0846337 0.126958 0)
(0.0855103 0.135277 0)
(0.0859345 0.143798 0)
(0.0858625 0.152475 0)
(0.0852527 0.161255 0)
(0.0840667 0.170078 0)
(0.082271 0.178876 0)
(0.0798378 0.187575 0)
(0.0767473 0.196095 0)
(0.0729881 0.20435 0)
(0.0685594 0.21225 0)
(0.0634713 0.219705 0)
(0.0577464 0.226621 0)
(0.0514196 0.232909 0)
(0.0445388 0.238482 0)
(0.0371641 0.243262 0)
(0.0293673 0.247178 0)
(0.0212298 0.250169 0)
(0.0128378 0.252191 0)
(0.00429451 0.253209 0)
(0.00141544 0.0160068 0)
(0.00424854 0.016196 0)
(0.00709328 0.0165754 0)
(0.00995909 0.0171475 0)
(0.0128518 0.0179157 0)
(0.0157785 0.0188846 0)
(0.0187455 0.0200599 0)
(0.0217586 0.0214484 0)
(0.0248227 0.0230578 0)
(0.0279418 0.0248968 0)
(0.0311186 0.0269753 0)
(0.0343547 0.0293037 0)
(0.03765 0.0318931 0)
(0.0410029 0.0347556 0)
(0.0444098 0.0379034 0)
(0.0478652 0.0413494 0)
(0.0513612 0.0451064 0)
(0.0548874 0.0491872 0)
(0.0584308 0.0536044 0)
(0.0619755 0.05837 0)
(0.0655025 0.0634951 0)
(0.0689895 0.0689895 0)
(0.0724109 0.0748614 0)
(0.0757376 0.0811168 0)
(0.0789368 0.0877591 0)
(0.0819724 0.0947886 0)
(0.0848046 0.102201 0)
(0.0873905 0.10999 0)
(0.089684 0.118141 0)
(0.0916367 0.126635 0)
(0.0931978 0.135446 0)
(0.0943156 0.144544 0)
(0.0949377 0.153886 0)
(0.0950126 0.163424 0)
(0.0944906 0.173102 0)
(0.0933254 0.182853 0)
(0.0914756 0.192603 0)
(0.0889066 0.202268 0)
(0.0855919 0.211758 0)
(0.0815153 0.220976 0)
(0.0766723 0.229819 0)
(0.0710715 0.238181 0)
(0.0647359 0.245955 0)
(0.0577035 0.253037 0)
(0.0500276 0.259325 0)
(0.0417767 0.264726 0)
(0.0330331 0.269155 0)
(0.0238913 0.272543 0)
(0.0144521 0.274834 0)
(0.00483546 0.275988 0)
(0.00151221 0.0164378 0)
(0.0045394 0.0166355 0)
(0.00758004 0.0170321 0)
(0.0106448 0.0176301 0)
(0.0137407 0.0184334 0)
(0.016876 0.019447 0)
(0.0200581 0.0206771 0)
(0.0232939 0.0221312 0)
(0.0265894 0.0238178 0)
(0.0299495 0.0257465 0)
(0.0333781 0.0279282 0)
(0.0368773 0.0303744 0)
(0.0404481 0.0330977 0)
(0.0440892 0.0361115 0)
(0.0477978 0.0394298 0)
(0.0515686 0.0430671 0)
(0.0553937 0.0470381 0)
(0.0592628 0.0513578 0)
(0.0631625 0.0560411 0)
(0.0670761 0.0611021 0)
(0.0709836 0.0665546 0)
(0.0748614 0.0724109 0)
(0.0786819 0.0786819 0)
(0.0824136 0.0853763 0)
(0.0860208 0.0925001 0)
(0.0894637 0.100056 0)
(0.0926985 0.108043 0)
(0.095677 0.116455 0)
(0.0983477 0.125281 0)
(0.100656 0.134503 0)
(0.102543 0.144095 0)
(0.10395 0.154026 0)
(0.104815 0.164252 0)
(0.105079 0.174724 0)
(0.104682 0.185379 0)
(0.103567 0.196146 0)
(0.101686 0.206942 0)
(0.0989931 0.217676 0)
(0.0954549 0.228245 0)
(0.0910484 0.238538 0)
(0.0857641 0.248438 0)
(0.0796079 0.257824 0)
(0.0726028 0.26657 0)
(0.0647896 0.274554 0)
(0.0562275 0.281657 0)
(0.0469943 0.287767 0)
(0.0371846 0.292786 0)
(0.0269081 0.296628 0)
(0.016283 0.299228 0)
(0.00544919 0.300539 0)
(0.00161315 0.0168158 0)
(0.0048428 0.0170216 0)
(0.00808787 0.0174344 0)
(0.0113604 0.0180572 0)
(0.0146687 0.0188939 0)
(0.0180222 0.0199501 0)
(0.0214297 0.0212326 0)
(0.0248992 0.0227495 0)
(0.028438 0.0245101 0)
(0.0320522 0.0265251 0)
(0.0357465 0.0288063 0)
(0.0395242 0.0313665 0)
(0.0433871 0.0342199 0)
(0.047335 0.0373812 0)
(0.0513654 0.0408662 0)
(0.0554735 0.0446914 0)
(0.059652 0.0488736 0)
(0.0638904 0.05343 0)
(0.0681751 0.058378 0)
(0.0724891 0.0637345 0)
(0.0768113 0.0695159 0)
(0.0811168 0.0757376 0)
(0.0853763 0.0824136 0)
(0.0895558 0.0895558 0)
(0.0936166 0.0971734 0)
(0.0975154 0.105272 0)
(0.101204 0.113855 0)
(0.104628 0.122918 0)
(0.107731 0.132451 0)
(0.110451 0.142441 0)
(0.112721 0.152862 0)
(0.114473 0.163682 0)
(0.115636 0.174859 0)
(0.116139 0.186339 0)
(0.115913 0.198057 0)
(0.114889 0.209936 0)
(0.113006 0.221884 0)
(0.110209 0.2338 0)
(0.106454 0.24557 0)
(0.101709 0.257067 0)
(0.0959583 0.268157 0)
(0.0892034 0.2787 0)
(0.0814662 0.288549 0)
(0.07279 0.297562 0)
(0.0632405 0.305596 0)
(0.0529054 0.31252 0)
(0.041894 0.318217 0)
(0.0303336 0.322583 0)
(0.0183634 0.32554 0)
(0.0061468 0.327033 0)
(0.00171801 0.0171368 0)
(0.00515803 0.0173502 0)
(0.00861559 0.0177782 0)
(0.0121043 0.0184241 0)
(0.0156337 0.0192922 0)
(0.0192147 0.0203884 0)
(0.0228574 0.0217202 0)
(0.0265714 0.0232963 0)
(0.030365 0.025127 0)
(0.0342457 0.0272239 0)
(0.0382195 0.0295998 0)
(0.0422909 0.0322691 0)