/*--------------------------------*- C++ -*----------------------------------*\
| =========                 |                                                 |
| \\      /  F ield         | OpenFOAM: The Open Source CFD Toolbox           |
|  \\    /   O peration     | Version:  2406                                  |
|   \\  /    A nd           | Website:  www.openfoam.com                      |
|    \\/     M anipulation  |                                                 |
\*---------------------------------------------------------------------------*/
FoamFile
{
    version     2.0;
    format      ascii;
    arch        "LSB;label=32;scalar=64";
    class       volScalarField;
    location    "1.35";
    object      gradTy;
}
// * * * * * * * * * * * * * * * * * * * * * * * * * * * * * * * * * * * * * //

dimensions      [0 -1 0 1 0 0 0];

internalField   nonuniform List<scalar> 
2500
(
0.00431424
0.00435344
0.00443302
0.00455247
0.00471222
0.00491272
0.00515453
0.00543826
0.00576459
0.00613424
0.00654795
0.00700644
0.00751044
0.00806058
0.00865743
0.00930141
0.0099928
0.0107317
0.0115179
0.0123509
0.0132301
0.0141544
0.0151221
0.0161315
0.0171801
0.0182651
0.0193831
0.0205301
0.0217018
0.0228931
0.0240984
0.0253119
0.0265268
0.0277363
0.028933
0.030109
0.0312565
0.0323672
0.033433
0.0344455
0.0353967
0.0362787
0.0370841
0.0378058
0.0384376
0.0389737
0.0394094
0.0397409
0.0399634
0.0400655
0.0129276
0.0130464
0.013285
0.0136435
0.014123
0.0147249
0.0154508
0.0163026
0.0172824
0.0183923
0.0196346
0.0210114
0.0225249
0.0241772
0.0259698
0.0279041
0.029981
0.0322007
0.0345628
0.0370659
0.0397079
0.0424854
0.045394
0.048428
0.0515803
0.0548422
0.0582035
0.0616527
0.0651762
0.0687592
0.0723849
0.0760352
0.0796905
0.0833297
0.0869306
0.0904698
0.0939234
0.0972667
0.100475
0.103523
0.106387
0.109043
0.111468
0.113641
0.115544
0.117158
0.11847
0.119469
0.120145
0.120472
0.0215224
0.0217214
0.0221195
0.0227179
0.0235186
0.0245237
0.0257361
0.0271588
0.0287954
0.0306494
0.0327247
0.0350251
0.0375542
0.0403154
0.0433115
0.046545
0.0500172
0.0537287
0.0576789
0.0618657
0.0662854
0.0709328
0.0758004
0.0808787
0.0861559
0.0916177
0.0972472
0.103025
0.108928
0.114932
0.121009
0.127129
0.133258
0.139361
0.145401
0.151339
0.157134
0.162745
0.16813
0.173247
0.178056
0.182516
0.186589
0.190239
0.193434
0.196146
0.198348
0.200023
0.201155
0.201721
0.0300956
0.0303748
0.0309336
0.0317739
0.0328983
0.03431
0.0360128
0.0380113
0.0403104
0.0429154
0.0458316
0.0490647
0.0526197
0.0565016
0.0607147
0.0652623
0.0701468
0.0753691
0.0809285
0.0868222
0.0930455
0.0995909
0.106448
0.113604
0.121043
0.128744
0.136683
0.144834
0.153165
0.16164
0.170221
0.178865
0.187524
0.196149
0.204688
0.213084
0.22128
0.229219
0.236839
0.244083
0.25089
0.257205
0.262974
0.268144
0.272671
0.276511
0.27963
0.281998
0.283592
0.284393
0.0386264
0.0389866
0.0397078
0.0407924
0.0422438
0.0440662
0.0462648
0.0488454
0.0518147
0.0551794
0.058947
0.0631247
0.0677194
0.0727378
0.0781856
0.0840677
0.0903871
0.0971456
0.104343
0.111975
0.120036
0.128518
0.137407
0.146687
0.156337
0.166331
0.176638
0.187224
0.198048
0.209064
0.220222
0.231465
0.242733
0.253961
0.265081
0.276019
0.286702
0.297051
0.306989
0.316438
0.325321
0.333564
0.341095
0.347846
0.353758
0.358774
0.362847
0.365939
0.368018
0.369062
0.0471018
0.0475441
0.0484296
0.0497616
0.0515441
0.0537826
0.0564834
0.0596542
0.063303
0.0674388
0.0720707
0.077208
0.0828597
0.0890344
0.0957396
0.102982
0.110765
0.119092
0.127962
0.137373
0.147317
0.157785
0.16876
0.180222
0.192147
0.204502
0.217252
0.230353
0.243754
0.2574
0.271229
0.28517
0.299149
0.313086
0.326894
0.340483
0.35376
0.366629
0.378991
0.39075
0.401809
0.412074
0.421455
0.429868
0.437236
0.443488
0.448566
0.452419
0.45501
0.456312
0.0555082
0.0560338
0.057086
0.0586688
0.0607873
0.063448
0.0666589
0.0704291
0.0747687
0.0796886
0.0852003
0.0913152
0.0980446
0.105399
0.113389
0.122021
0.131302
0.141237
0.151824
0.163062
0.174943
0.187455
0.200581
0.214297
0.228574
0.243376
0.258659
0.274371
0.290454
0.30684
0.323455
0.340215
0.357031
0.373806
0.390435
0.40681
0.422817
0.43834
0.453261
0.467459
0.480818
0.493223
0.504564
0.514739
0.523651
0.531216
0.537361
0.542025
0.545161
0.546736
0.063831
0.0644411
0.0656626
0.0675003
0.0699602
0.0730502
0.0767798
0.08116
0.086203
0.0919222
0.0983311
0.105444
0.113275
0.121836
0.131141
0.141199
0.152018
0.163604
0.175959
0.18908
0.20296
0.217586
0.232939
0.248992
0.265714
0.283061
0.300983
0.319422
0.338309
0.357566
0.377105
0.396829
0.416632
0.436399
0.456009
0.475332
0.494232
0.512573
0.530211
0.547006
0.562816
0.577504
0.590938
0.602995
0.61356
0.62253
0.629819
0.635351
0.639072
0.640941
0.0720545
0.0727505
0.0741442
0.0762411
0.0790483
0.0825751
0.0868329
0.0918347
0.0975951
0.10413
0.111455
0.119589
0.128546
0.138345
0.148999
0.160522
0.172924
0.186213
0.200392
0.215459
0.231409
0.248227
0.265894
0.28438
0.30365
0.323656
0.344342
0.36564
0.387473
0.409752
0.432375
0.45523
0.478196
0.501138
0.523915
0.546375
0.568362
0.589711
0.610257
0.629834
0.648273
0.665414
0.6811
0.695184
0.70753
0.718017
0.726539
0.73301
0.737362
0.739548
0.0801619
0.0809453
0.0825141
0.0848746
0.0880353
0.092007
0.096803
0.102439
0.108931
0.116299
0.124562
0.13374
0.143853
0.154921
0.166962
0.179992
0.194026
0.209072
0.225137
0.242222
0.26032
0.279418
0.299495
0.320522
0.342457
0.36525
0.388838
0.413146
0.438087
0.46356
0.48945
0.515629
0.541959
0.568285
0.594445
0.620263
0.645557
0.670139
0.693815
0.716389
0.737667
0.757459
0.775583
0.791863
0.806142
0.818275
0.828139
0.83563
0.840669
0.843201
0.088135
0.0890072
0.0907541
0.0933829
0.0969034
0.101328
0.106673
0.112955
0.120194
0.128414
0.137635
0.147883
0.159181
0.171553
0.18502
0.199604
0.215321
0.232185
0.250204
0.269381
0.289713
0.311186
0.333781
0.357465
0.382195
0.407917
0.434562
0.462048
0.490278
0.519138
0.548501
0.578223
0.608145
0.638093
0.667881
0.697309
0.726167
0.754238
0.781298
0.80712
0.831479
0.854154
0.87493
0.893605
0.909993
0.923924
0.935254
0.943861
0.949653
0.952563
0.095954
0.0969165
0.0988444
0.101746
0.105632
0.110518
0.116422
0.123363
0.131365
0.140454
0.150656
0.162
0.174513
0.188224
0.203159
0.219344
0.236799
0.255543
0.275587
0.296938
0.319595
0.343547
0.368773
0.395242
0.422909
0.451716
0.481588
0.512437
0.544155
0.576618
0.609684
0.643192
0.676963
0.710802
0.744497
0.77782
0.810533
0.842386
0.873121
0.902478
0.930196
0.956019
0.979697
1.001
1.0197
1.0356
1.04854
1.05838
1.065
1.06832
0.103598
0.104652
0.106764
0.109942
0.1142
0.119555
0.126027
0.133639
0.142419
0.152396
0.1636
0.176065
0.189824
0.204911
0.221356
0.23919
0.25844
0.279128
0.301273
0.324883
0.349961
0.3765
0.404481
0.433871
0.464627
0.496686
0.529971
0.564384
0.599811
0.636114
0.673136
0.710701
0.748607
0.786637
0.82455
0.862091
0.898987
0.934954
0.969697
1.00292
1.03431
1.06359
1.09045
1.11464
1.13589
1.15397
1.16869
1.17988
1.18742
1.19121
0.111043
0.11219
0.114488
0.117947
0.122583
0.128414
0.135463
0.143758
0.153329
0.16421
0.176438
0.190049
0.205084
0.221581
0.239577
0.25911
0.280212
0.302912
0.327232
0.353189
0.380789
0.410029
0.440892
0.47335
0.507356
0.542847
0.579743
0.617939
0.657312
0.697714
0.738972
0.780891
0.82325
0.865804
0.908285
0.950404
0.991853
1.03231
1.07143
1.10889
1.14432
1.1774
1.20778
1.23516
1.25923
1.27973
1.29642
1.30912
1.31766
1.32196
0.118265
0.119506
0.121992
0.125735
0.130753
0.137065
0.1447
0.153687
0.164062
0.175864
0.189134
0.203915
0.220253
0.238194
0.257783
0.279062
0.302072
0.326849
0.353423
0.381816
0.41204
0.444098
0.477978
0.513654
0.55108
0.590195
0.630913
0.673126
0.716703
0.761483
0.807281
0.853882
0.901041
0.948488
0.995924
1.04302
1.08944
1.13481
1.17874
1.22085
1.26074
1.29801
1.33229
1.3632
1.3904
1.41358
1.43247
1.44684
1.45653
1.4614
0.125237
0.126572
0.129248
0.133278
0.13868
0.145479
0.153705
0.163393
0.174583
0.187318
0.201646
0.217618
0.235286
0.254703
0.275921
0.298992
0.323965
0.350884
0.379787
0.410704
0.443656
0.478652
0.515686
0.554735
0.595759
0.638696
0.68346
0.729939
0.777994
0.827456
0.878122
0.929759
0.982101
1.03485
1.08767
1.14019
1.19204
1.24279
1.29201
1.33925
1.38407
1.42599
1.46459
1.49943
1.53012
1.5563
1.57764
1.59389
1.60484
1.61035
0.131929
0.13336
0.136226
0.140543
0.146333
0.153621
0.162443
0.172837
0.184849
0.198528
0.213929
0.231109
0.250128
0.271047
0.293929
0.318834
0.345821
0.374943
0.406248
0.439777
0.475559
0.513612
0.553937
0.59652
0.641324
0.68829
0.737334
0.788341
0.841166
0.89563
0.951518
1.00858
1.06652
1.12501
1.18368
1.24213
1.29993
1.35659
1.41164
1.46455
1.51482
1.56191
1.60532
1.64455
1.67915
1.70867
1.73277
1.75113
1.7635
1.76973
0.138313
0.139838
0.142894
0.147499
0.153676
0.161455
0.170873
0.181976
0.194815
0.209444
0.225926
0.244327
0.264715
0.28716
0.311735
0.338511
0.367557
0.398938
0.432714
0.468937
0.507648
0.548874
0.592628
0.638904
0.687672
0.73888
0.792445
0.848253
0.906155
0.965964
1.02745
1.09035
1.15434
1.21906
1.28411
1.34903
1.41335
1.47652
1.538
1.5972
1.65352
1.70637
1.75515
1.7993
1.83826
1.87156
1.89875
1.91948
1.93346
1.9405
0.144353
0.145973
0.149218
0.15411
0.160672
0.168939
0.178953
0.190764
0.204429
0.220011
0.237579
0.257207
0.278974
0.302962
0.329252
0.357928
0.389072
0.422762
0.459071
0.498065
0.539797
0.584308
0.631625
0.681751
0.734669
0.790333
0.848667
0.909559
0.972859
1.03837
1.10586
1.17504
1.24557
1.31705
1.38904
1.46105
1.53252
1.60286
1.67145
1.73762
1.80069
1.85996
1.91476
1.96442
2.00831
2.04586
2.07655
2.09996
2.11575
2.12371
0.150017
0.151729
0.155162
0.160336
0.167279
0.17603
0.186635
0.199149
0.213635
0.230166
0.248818
0.269675
0.292826
0.318363
0.346383
0.376981
0.410252
0.446292
0.485186
0.527017
0.571854
0.619755
0.670761
0.724891
0.78214
0.842474
0.905827
0.972091
1.04112
1.11272
1.18663
1.26257
1.34015
1.41897
1.49852
1.57828
1.65761
1.73587
1.81233
1.88625
1.95684
2.02331
2.08487
2.14074
2.19018
2.23253
2.26718
2.29363
2.31149
2.32049
0.155268
0.157071
0.160687
0.166138
0.173456
0.182682
0.193868
0.207075
0.222373
0.239843
0.25957
0.281648
0.306178
0.333265
0.363018
0.395548
0.430966
0.469382
0.510903
0.555626
0.603641
0.655025
0.709836
0.768113
0.829868
0.895082
0.963701
1.03563
1.11073
1.1888
1.26958
1.35277
1.43798
1.52475
1.61255
1.70078
1.78876
1.87575
1.96095
2.0435
2.1225
2.19705
2.26621
2.32909
2.38482
2.43262
2.47178
2.50169
2.52191
2.53209
0.160068
0.16196
0.165754
0.171475
0.179157
0.188846
0.200599
0.214484
0.230578
0.248968
0.269753
0.293037
0.318931
0.347556
0.379034
0.413494
0.451064
0.491872
0.536044
0.5837
0.634951
0.689895
0.748614
0.811168
0.877591
0.947886
1.02201
1.0999
1.18141
1.26635
1.35446
1.44544
1.53886
1.63424
1.73102
1.82853
1.92603
2.02268
2.11758
2.20976
2.29819
2.38181
2.45955
2.53037
2.59325
2.64726
2.69155
2.72543
2.74834
2.75988
0.164378
0.166355
0.170321
0.176301
0.184334
0.19447
0.206771
0.221312
0.238178
0.257465
0.279282
0.303744
0.330977
0.361115
0.394298
0.430671
0.470381
0.513578
0.560411
0.611021
0.665546
0.724109
0.786819
0.853763
0.925001
1.00056
1.08043
1.16455
1.25281
1.34503
1.44095
1.54026
1.64252
1.74724
1.85379
1.96146
2.06942
2.17676
2.28245
2.38538
2.48438
2.57824
2.6657
2.74554
2.81657
2.87767
2.92786
2.96628
2.99228
3.00539
0.168158
0.170216
0.174344
0.180572
0.188939
0.199501
0.212326
0.227495
0.245101
0.265251
0.288063
0.313665
0.342199
0.373812
0.408662
0.446914
0.488736
0.5343
0.58378
0.637345
0.695159
0.757376
0.824136
0.895558
0.971734
1.05272
1.13855
1.22918
1.32451
1.42441
1.52862
1.63682
1.74859
1.86339
1.98057
2.09936
2.21884
2.338
2.4557
2.57067
2.68157
2.787
2.88549
2.97562
3.05596
3.1252
3.18217
3.22583
3.2554
3.27033
0.171368
0.173502
0.177782
0.184241
0.192922
0.203884
0.217202
0.232963
0.25127
0.272239
0.295998
0.322691
0.352472
0.385506
0.42197
0.462047
0.505931
0.553818
0.605907
0.6624
0.723491
0.789368
0.860208
0.936166
1.01738
1.10393
1.1959
1.29328
1.39601
1.50398
1.61696
1.73463
1.85659
1.98227
2.11099
2.24193
2.37409
2.50635
2.63742
2.76588
2.89019
3.00873
3.11979
3.22167
3.31271
3.39134
3.45613
3.50587
3.53959
3.55661
0.173968
0.176171
0.180591
0.187262
0.196231
0.207563
0.221337
0.237648
0.256606
0.278339
0.302988
0.330707
0.361667
0.396051
0.434054
0.475883
0.521755
0.571893
0.626527
0.685891
0.750214
0.819724
0.894637
0.975154
1.06145
1.15368
1.25193
1.35628
1.4667
1.5831
1.70532
1.83305
1.96589
2.10329
2.24452
2.38872
2.53483
2.68159
2.82757
2.97118
3.11064
3.24406
3.36947
3.48486
3.58824
3.67773
3.75162
3.80842
3.84697
3.86645
0.175916
0.178181
0.182727
0.189588
0.198817
0.210482
0.224667
0.241476
0.261029
0.283461
0.308925
0.337592
0.369647
0.40529
0.444738
0.488221
0.535982
0.588272
0.645355
0.707498
0.774972
0.848046
0.926985
1.01204
1.10343
1.20138
1.30604
1.41751
1.53586
1.66105
1.79295
1.9313
2.07573
2.2257
2.38047
2.53914
2.70056
2.86338
3.02601
3.18663
3.34323
3.49362
3.63547
3.76642
3.88409
3.98621
4.07071
4.13578
4.18
4.20236
0.177174
0.179493
0.184147
0.191174
0.200629
0.212584
0.227131
0.244379
0.264457
0.287511
0.313706
0.343226
0.376273
0.413065
0.453842
0.498856
0.548376
0.602688
0.662086
0.726879
0.79738
0.873905
0.95677
1.04628
1.14274
1.2464
1.3575
1.47622
1.6027
1.73695
1.87893
2.02845
2.18517
2.34857
2.51795
2.69235
2.87059
3.05118
3.23238
3.41215
3.58818
3.75794
3.91871
4.06766
4.20196
4.31884
4.41579
4.4906
4.54151
4.56728
0.177705
0.180068
0.184812
0.191976
0.201618
0.213815
0.228665
0.246285
0.266809
0.290396
0.317222
0.347486
0.381404
0.419215
0.461178
0.507572
0.558694
0.614861
0.676405
0.743675
0.81703
0.89684
0.983477
1.07731
1.17871
1.28801
1.40554
1.53155
1.66627
1.80981
1.96222
2.12339
2.29306
2.47076
2.65583
2.84731
3.04396
3.24421
3.44614
3.64747
3.84558
4.03752
4.22012
4.38999
4.54371
4.67795
4.78961
4.87595
4.9348
4.96461
0.177473
0.17987
0.184682
0.191951
0.201738
0.214125
0.229213
0.247126
0.268008
0.292027
0.319371
0.35025
0.384899
0.423576
0.46656
0.514154
0.566687
0.624506
0.687984
0.757511
0.833497
0.916367
1.00656
1.10451
1.21066
1.32545
1.44928
1.58253
1.72552
1.87849
2.04159
2.21482
2.39804
2.59088
2.79273
3.00266
3.21943
3.44138
3.66643
3.89206
4.11528
4.33271
4.54058
4.73486
4.91143
5.06618
5.1953
5.29539
5.36374
5.3984
0.176447
0.178865
0.183723
0.191062
0.200947
0.213463
0.228716
0.246838
0.267979
0.292316
0.320049
0.351401
0.386622
0.425988
0.4698
0.518387
0.572104
0.631334
0.696488
0.768002
0.846337
0.931978
1.02543
1.12721
1.23784
1.35787
1.48779
1.62812
1.77929
1.94169
2.11562
2.30123
2.49852
2.70725
2.92693
3.15672
3.39539
3.64124
3.89206
4.14507
4.39691
4.64367
4.88091
5.10383
5.30738
5.48655
5.63655
5.75316
5.83294
5.87345
0.174597
0.177025
0.181902
0.189274
0.199205
0.211785
0.227126
0.245362
0.266653
0.291183
0.319162
0.350827
0.386441
0.426298
0.470719
0.520058
0.574698
0.635057
0.701584
0.774761
0.855103
0.943156
1.0395
1.14473
1.25947
1.38436
1.52004
1.66715
1.82628
1.99798
2.18273
2.38088
2.59261
2.81788
3.05637
3.30738
3.56977
3.84186
4.12133
4.40519
4.68968
4.97029
5.24181
5.49846
5.7341
5.94249
6.11765
6.25425
6.34792
6.39555
0.1719
0.174325
0.179195
0.186557
0.196479
0.209053
0.224395
0.242644
0.263965
0.288552
0.316621
0.348422
0.384231
0.424358
0.469144
0.518965
0.574232
0.635396
0.702943
0.777403
0.859345
0.949377
1.04815
1.15636
1.27472
1.404
1.54496
1.69839
1.86508
2.04576
2.24113
2.45178
2.67814
2.92042
3.17854
3.45205
3.73998
4.04073
4.35199
4.67055
4.99229
5.31204
5.62371
5.92032
6.19433
6.43797
6.64369
6.80468
6.91534
6.9717
0.168338
0.170744
0.175578
0.182887
0.192742
0.205235
0.220486
0.238639
0.259863
0.284358
0.312349
0.344094
0.379883
0.420037
0.464917
0.51492
0.570482
0.632084
0.700252
0.775558
0.858625
0.950126
1.05079
1.16139
1.28277
1.4158
1.5614
1.72053
1.89418
2.08331
2.28886
2.51172
2.75262
3.01213
3.2905
3.5876
3.90276
4.23463
4.58097
4.93849
5.30272
5.66783
6.02666
6.37085
6.69108
6.97756
7.22068
7.41169
7.54335
7.61051
0.163898
0.166271
0.171038
0.178249
0.187973
0.200307
0.21537
0.233311
0.254302
0.278548
0.30628
0.337764
0.373298
0.413218
0.457898
0.507753
0.563244
0.624879
0.693218
0.768876
0.852527
0.944906
1.04682
1.15913
1.28278
1.41878
1.56822
1.73222
1.912
2.10877
2.32378
2.55824
2.81328
3.08987
3.38875
3.71024
4.05413
4.41945
4.80426
5.20533
5.61795
6.03565
6.45013
6.85128
7.22755
7.56655
7.85587
8.08416
8.24198
8.32262
0.158575
0.160898
0.165567
0.172631
0.18216
0.194251
0.209027
0.226634
0.24725
0.271081
0.298363
0.329367
0.364399
0.403804
0.447967
0.49732
0.552342
0.613565
0.681581
0.757041
0.840667
0.933254
1.03567
1.14889
1.27394
1.41198
1.56425
1.73207
1.91689
2.1202
2.34359
2.58866
2.85699
3.15009
3.46926
3.81547
4.18916
4.59002
5.0166
5.46605
5.93362
6.41231
6.89259
7.36233
7.80711
8.21105
8.55799
8.833
9.02371
9.12132
0.152369
0.154627
0.159166
0.166033
0.175301
0.187064
0.201446
0.218595
0.238687
0.261931
0.288564
0.31886
0.353129
0.391722
0.435034
0.483505
0.537631
0.597963
0.665118
0.739779
0.82271
0.914756
1.01686
1.13006
1.25551
1.39448
1.54837
1.71872
1.9072
2.11562
2.34592
2.60014
2.88039
3.18881
3.52742
3.89803
4.30197
4.73987
5.21122
5.71388
6.24348
6.79277
7.35106
7.90385
8.43309
8.91817
9.33771
9.67185
9.90423
10.0234
0.14529
0.147466
0.151841
0.158462
0.1674
0.17875
0.192631
0.209193
0.22861
0.251089
0.276867
0.306219
0.339455
0.376929
0.419037
0.466229
0.519008
0.57794
0.643658
0.716873
0.798378
0.889066
0.989931
1.10209
1.22679
1.36542
1.51953
1.69087
1.88133
2.09304
2.32833
2.58971
2.87989
3.20172
3.55809
3.95185
4.38553
4.8611
5.37944
5.93977
6.53872
7.1694
7.82025
8.47422
9.10859
9.69621
10.2082
10.6179
10.9035
11.05
0.137355
0.139434
0.143612
0.149936
0.158476
0.169323
0.182597
0.198442
0.21703
0.238565
0.26328
0.291446
0.323373
0.359409
0.399953
0.445453
0.496416
0.553414
0.617091
0.688171
0.767473
0.855919
0.954549
1.06454
1.18721
1.32407
1.47681
1.64732
1.83777
2.05058
2.28845
2.55441
2.85179
3.18423
3.55565
3.97011
4.43169
4.94412
5.51035
6.13176
6.80706
7.53075
8.2913
9.06919
9.83591
10.555
11.1863
11.6932
12.0469
12.2284
0.128592
0.130555
0.134504
0.140481
0.148555
0.158814
0.171373
0.186371
0.203977
0.224387
0.24783
0.274568
0.304905
0.339184
0.377795
0.421183
0.469849
0.524364
0.585371
0.6536
0.729881
0.815153
0.910484
1.01709
1.13636
1.26987
1.41942
1.58709
1.77523
1.98653
2.22408
2.49139
2.79243
3.13169
3.51418
3.94538
4.43119
4.97764
5.59047
6.27435
7.03154
7.85987
8.74966
9.68007
10.6157
11.5062
12.2937
12.9266
13.3674
13.5932
0.119033
0.120866
0.124552
0.130134
0.137675
0.14726
0.158999
0.173025
0.189497
0.208605
0.230568
0.255639
0.284109
0.31631
0.352621
0.393474
0.439358
0.490833
0.548531
0.613177
0.685594
0.766723
0.857641
0.959583
1.07397
1.20243
1.34685
1.50942
1.69265
1.89947
2.1333
2.39808
2.6984
3.03957
3.42773
3.86989
4.37399
4.94879
5.60362
6.34778
7.18914
8.13181
9.17175
10.2902
11.4449
12.565
13.5601
14.3565
14.9076
15.1884
0.108723
0.11041
0.113803
0.118943
0.125887
0.134716
0.145533
0.158462
0.173655
0.191289
0.211571
0.23474
0.261072
0.290882
0.324531
0.362432
0.405055
0.452935
0.506687
0.567012
0.634713
0.710715
0.796079
0.892034
1
1.12163
1.25883
1.41387
1.58936
1.78841
2.01466
2.27242
2.56679
2.90383
3.29074
3.73601
4.24971
4.8436
5.53124
6.32783
7.24935
8.31044
9.5194
10.868
12.313
13.753
15.0292
16.036
16.7223
17.0684
0.0977124
0.0992395
0.102311
0.106963
0.11325
0.121245
0.131044
0.142761
0.156535
0.172531
0.190939
0.211982
0.235916
0.263034
0.293673
0.328219
0.367113
0.41086
0.460041
0.51532
0.577464
0.647359
0.726028
0.814662
0.914647
1.02761
1.15545
1.30041
1.46516
1.65287
1.86732
2.11303
2.39549
2.72131
3.09852
3.53694
4.04854
4.64801
5.35335
6.18645
7.17356
8.34481
9.73108
11.353
13.1899
15.1086
16.7715
18.0397
18.8811
19.2985
0.0860624
0.0874159
0.0901381
0.0942616
0.0998351
0.106925
0.115615
0.126011
0.138237
0.152441
0.168796
0.187504
0.208796
0.232938
0.260239
0.291048
0.325771
0.364872
0.408883
0.458421
0.514196
0.577035
0.647896
0.7279
0.818362
0.920828
1.03713
1.16944
1.32037
1.49304
1.69122
1.91951
2.18351
2.49013
2.84793
3.26756
3.76244
4.34959
5.05078
5.8942
6.91679
8.1674
9.71043
11.6262
13.9884
16.7233
18.912
20.4737
21.4673
21.9493
0.0738401
0.0750079
0.0773568
0.0809146
0.0857238
0.0918421
0.0993436
0.108319
0.118879
0.131152
0.145291
0.161472
0.179898
0.200806
0.224465
0.251187
0.281331
0.315308
0.353595
0.396742
0.445388
0.500276
0.562275
0.632405
0.711864
0.802077
0.904736
1.02187
1.15592
1.30984
1.48724
1.69255
1.93126
2.2102
2.53797
2.92547
3.38669
3.93978
4.60868
5.42554
6.43481
7.7004
9.31988
11.456
14.417
18.8873
21.6824
23.4789
24.5681
25.085
0.0611199
0.0620918
0.0640464
0.0670059
0.071006
0.0760954
0.0823363
0.0898054
0.0985951
0.108815
0.120592
0.134076
0.149439
0.166881
0.18663
0.208952
0.234151
0.262578
0.294642
0.330813
0.371641
0.417767
0.469943
0.529054
0.596149
0.672475
0.759524
0.859094
0.973363
1.10499
1.25724
1.43415
1.64079
1.88351
2.17039
2.51183
2.92127
3.41644
4.02093
4.76683
5.69891
6.88195
8.41509
10.4636
13.3387
17.729
20.4539
22.194
23.2437
23.7403
0.0479821
0.0487493
0.0502929
0.0526269
0.0557801
0.0597917
0.0647114
0.0706003
0.077532
0.0855933
0.0948865
0.10553
0.117662
0.131442
0.147052
0.164706
0.184647
0.207158
0.232569
0.261259
0.293673
0.330331
0.371846
0.41894
0.472472
0.533467
0.603159
0.683038
0.77492
0.881032
1.00413
1.14765
1.3159
1.51435
1.75003
2.03196
2.37198
2.78564
3.29367
3.92389
4.71403
5.71538
6.997
8.64652
10.7474
13.2381
15.2124
16.6017
17.4745
17.8943
0.034512
0.035066
0.0361865
0.0378728
0.0401486
0.0430432
0.0465932
0.050843
0.0558462
0.0616659
0.0683765
0.0760644
0.08483
0.0947892
0.106076
0.118846
0.133276
0.149576
0.167985
0.188783
0.212298
0.238913
0.269081
0.303336
0.342318
0.386789
0.437671
0.496081
0.563387
0.641271
0.731823
0.83766
0.962087
1.10931
1.28475
1.49542
1.75047
2.06194
2.4457
2.92255
3.51948
4.2701
5.2126
6.37966
7.76789
9.26535
10.5576
11.5274
12.1599
12.4698
0.0208002
0.0211249
0.0218032
0.0228226
0.0241975
0.0259459
0.0280902
0.0306573
0.0336797
0.0371959
0.0412511
0.0458976
0.0511966
0.0572186
0.0640452
0.0717707
0.0805042
0.0903722
0.101522
0.114124
0.128378
0.144521
0.16283
0.183634
0.207326
0.234376
0.265356
0.300957
0.342029
0.389619
0.445033
0.509911
0.586328
0.676936
0.785149
0.915401
1.07347
1.26692
1.50559
1.80213
2.17224
2.63397
3.20468
3.89268
4.68019
5.49878
6.22646
6.79143
7.16891
7.35638
0.00694778
0.0070499
0.00727494
0.0076156
0.00807533
0.00865996
0.00937691
0.0102353
0.0112459
0.0124218
0.013778
0.0153321
0.0171047
0.0191194
0.0214035
0.0239889
0.0269121
0.0302156
0.0339489
0.0381696
0.0429451
0.0483546
0.0544919
0.061468
0.0694155
0.0784939
0.0888958
0.100856
0.114662
0.130671
0.149325
0.171184
0.196956
0.227545
0.264118
0.30819
0.361735
0.427324
0.508285
0.60883
0.734061
0.889572
1.08017
1.30692
1.56212
1.82386
2.05873
2.2437
2.36868
2.43117
)
;

boundaryField
{
    walls
    {
        type            calculated;
        value           nonuniform List<scalar> 
200
(
0
0
0
0
0
0
0
0
0
0
0
0
0
0
0
0
0
0
0
0
0
0
0
0
0
0
0
0
0
0
0
0
0
0
0
0
0
0
0
0
0
0
0
0
0
0
0
0
0
0
0.00431424
0.0129276
0.0215224
0.0300956
0.0386264
0.0471018
0.0555082
0.063831
0.0720545
0.0801619
0.088135
0.095954
0.103598
0.111043
0.118265
0.125237
0.131929
0.138313
0.144353
0.150017
0.155268
0.160068
0.164378
0.168158
0.171368
0.173968
0.175916
0.177174
0.177705
0.177473
0.176447
0.174597
0.1719
0.168338
0.163898
0.158575
0.152369
0.14529
0.137355
0.128592
0.119033
0.108723
0.0977124
0.0860624
0.0738401
0.0611199
0.0479821
0.034512
0.0208002
0.00694778
0.0400655
0.120472
0.201721
0.284393
0.369062
0.456312
0.546736
0.640941
0.739548
0.843201
0.952563
1.06832
1.19121
1.32196
1.4614
1.61035
1.76973
1.9405
2.12371
2.32049
2.53209
2.75988
3.00539
3.27033
3.55661
3.86645
4.20236
4.56728
4.96461
5.3984
5.87345
6.39555
6.9717
7.61051
8.32262
9.12132
10.0234
11.05
12.2284
13.5932
15.1884
17.0684
19.2985
21.9493
25.085
23.7403
17.8943
12.4698
7.35638
2.43117
0
0
0
0
0
0
0
0
0
0
0
0
0
0
0
0
0
0
0
0
0
0
0
0
0
0
0
0
0
0
0
0
0
0
0
0
0
0
0
0
0
0
0
0
0
0
0
0
0
0
)
;
    }
    frontAndBack
    {
        type            empty;
    }
}


// ************************************************************************* //
