/*--------------------------------*- C++ -*----------------------------------*\
| =========                 |                                                 |
| \\      /  F ield         | OpenFOAM: The Open Source CFD Toolbox           |
|  \\    /   O peration     | Version:  2406                                  |
|   \\  /    A nd           | Website:  www.openfoam.com                      |
|    \\/     M anipulation  |                                                 |
\*---------------------------------------------------------------------------*/
FoamFile
{
    version     2.0;
    format      ascii;
    arch        "LSB;label=32;scalar=64";
    class       volScalarField;
    location    "1.35";
    object      T;
}
// * * * * * * * * * * * * * * * * * * * * * * * * * * * * * * * * * * * * * //

dimensions      [0 0 0 1 0 0 0];

internalField   nonuniform List<scalar> 
2500
(
0.208122
0.208295
0.208639
0.209156
0.209843
0.210701
0.211727
0.212921
0.214281
0.215803
0.217487
0.219329
0.221325
0.223473
0.225767
0.228203
0.230776
0.23348
0.236309
0.239255
0.24231
0.245465
0.248712
0.25204
0.255439
0.258895
0.262397
0.265932
0.269484
0.27304
0.276583
0.280098
0.283567
0.286974
0.290301
0.29353
0.296644
0.299624
0.302455
0.305119
0.307599
0.30988
0.311948
0.313789
0.31539
0.316742
0.317835
0.318661
0.319215
0.319493
0.208295
0.208469
0.208817
0.209338
0.210032
0.210897
0.211933
0.213139
0.214511
0.216049
0.217749
0.219609
0.221626
0.223795
0.226113
0.228575
0.231176
0.23391
0.23677
0.239749
0.242839
0.246031
0.249317
0.252686
0.256126
0.259626
0.263173
0.266753
0.270352
0.273956
0.277547
0.28111
0.284628
0.288083
0.291458
0.294734
0.297894
0.300919
0.303792
0.306497
0.309015
0.311331
0.313431
0.315301
0.316928
0.318301
0.319411
0.320251
0.320814
0.321096
0.208639
0.208817
0.209171
0.209701
0.210408
0.21129
0.212345
0.213573
0.214972
0.216539
0.218272
0.220169
0.222226
0.22444
0.226806
0.229319
0.231976
0.234768
0.237691
0.240737
0.243898
0.247165
0.250528
0.253977
0.257502
0.261089
0.264725
0.268398
0.272091
0.27579
0.279479
0.283139
0.286755
0.290307
0.293778
0.297149
0.3004
0.303515
0.306474
0.30926
0.311854
0.314242
0.316406
0.318334
0.320012
0.321428
0.322574
0.32344
0.324021
0.324312
0.209156
0.209338
0.209701
0.210247
0.210972
0.211878
0.212963
0.214225
0.215663
0.217275
0.219058
0.22101
0.223128
0.225408
0.227846
0.230437
0.233177
0.236059
0.239077
0.242223
0.24549
0.248869
0.252349
0.255921
0.259572
0.26329
0.267062
0.270874
0.274709
0.278553
0.282387
0.286195
0.289958
0.293658
0.297274
0.300788
0.304179
0.307429
0.310518
0.313426
0.316137
0.318632
0.320895
0.32291
0.324665
0.326147
0.327345
0.328252
0.32886
0.329165
0.209843
0.210032
0.210408
0.210972
0.211724
0.212662
0.213786
0.215094
0.216584
0.218256
0.220106
0.222132
0.224331
0.2267
0.229234
0.23193
0.234781
0.237783
0.240928
0.24421
0.24762
0.251148
0.254786
0.258522
0.262344
0.266239
0.270193
0.274191
0.278218
0.282256
0.286287
0.290294
0.294256
0.298153
0.301965
0.305672
0.309252
0.312684
0.315948
0.319023
0.32189
0.32453
0.326925
0.32906
0.330919
0.332489
0.333759
0.33472
0.335365
0.335688
0.210701
0.210897
0.21129
0.211878
0.212662
0.213641
0.214813
0.216179
0.217736
0.219482
0.221416
0.223535
0.225837
0.228317
0.230973
0.2338
0.236792
0.239945
0.24325
0.246702
0.250292
0.254009
0.257845
0.261788
0.265826
0.269944
0.274128
0.278363
0.282631
0.286916
0.291196
0.295454
0.299668
0.303816
0.307877
0.311828
0.315647
0.319311
0.322797
0.326084
0.32915
0.331974
0.334538
0.336824
0.338815
0.340498
0.341859
0.34289
0.343581
0.343927
0.211727
0.211933
0.212345
0.212963
0.213786
0.214813
0.216045
0.21748
0.219116
0.220953
0.222988
0.22522
0.227645
0.230261
0.233064
0.236049
0.239212
0.242547
0.246047
0.249705
0.253512
0.25746
0.261536
0.265731
0.270029
0.274419
0.278883
0.283405
0.287968
0.292552
0.297137
0.301701
0.306222
0.310676
0.315041
0.319291
0.323402
0.327349
0.331107
0.334653
0.337962
0.341013
0.343784
0.346255
0.348408
0.350228
0.351702
0.352817
0.353565
0.35394
0.212921
0.213139
0.213573
0.214225
0.215094
0.216179
0.21748
0.218996
0.220726
0.222669
0.224824
0.227188
0.229758
0.232533
0.235509
0.238681
0.242044
0.245594
0.249323
0.253225
0.257289
0.261508
0.265869
0.27036
0.274968
0.279679
0.284474
0.289338
0.29425
0.299189
0.304135
0.309063
0.313949
0.318768
0.323495
0.328101
0.33256
0.336845
0.340928
0.344782
0.348382
0.351703
0.354721
0.357414
0.359761
0.361746
0.363354
0.36457
0.365387
0.365797
0.214281
0.214511
0.214972
0.215663
0.216584
0.217736
0.219116
0.220726
0.222564
0.22463
0.226922
0.229438
0.232176
0.235135
0.238309
0.241697
0.245293
0.249091
0.253085
0.257268
0.261631
0.266163
0.270854
0.27569
0.280658
0.285741
0.290922
0.296182
0.3015
0.306855
0.312221
0.317574
0.322887
0.328132
0.333281
0.338304
0.343171
0.347852
0.352316
0.356533
0.360475
0.364113
0.367421
0.370374
0.372951
0.37513
0.376894
0.378231
0.379128
0.379578
0.215803
0.216049
0.216539
0.217275
0.218256
0.219482
0.220953
0.222669
0.22463
0.226835
0.229282
0.231971
0.2349
0.238067
0.241469
0.245101
0.248961
0.253043
0.257339
0.261843
0.266546
0.271437
0.276504
0.281735
0.287114
0.292625
0.298248
0.303963
0.309748
0.315579
0.32143
0.327272
0.333077
0.338814
0.344451
0.349956
0.355294
0.360433
0.365338
0.369976
0.374313
0.37832
0.381965
0.385221
0.388063
0.390467
0.392415
0.393891
0.394882
0.395379
0.217487
0.217749
0.218272
0.219058
0.220106
0.221416
0.222988
0.224824
0.226922
0.229282
0.231904
0.234787
0.23793
0.241331
0.244988
0.248897
0.253054
0.257454
0.262091
0.266957
0.272044
0.27734
0.282834
0.288511
0.294356
0.300351
0.306476
0.312708
0.319024
0.325397
0.331799
0.338199
0.344565
0.350864
0.357059
0.363115
0.368994
0.374658
0.380068
0.385189
0.389982
0.394411
0.398444
0.402049
0.405196
0.407861
0.41002
0.411656
0.412755
0.413306
0.219329
0.219609
0.220169
0.22101
0.222132
0.223535
0.22522
0.227188
0.229438
0.231971
0.234787
0.237886
0.241267
0.244929
0.248869
0.253086
0.257574
0.26233
0.267347
0.272618
0.278134
0.283884
0.289856
0.296034
0.302402
0.308942
0.315631
0.322445
0.32936
0.336345
0.34337
0.350401
0.357403
0.364338
0.371166
0.377848
0.384341
0.390603
0.39659
0.40226
0.407573
0.412486
0.416962
0.420965
0.424462
0.427424
0.429825
0.431645
0.432868
0.433481
0.221325
0.221626
0.222226
0.223128
0.224331
0.225837
0.227645
0.229758
0.232176
0.2349
0.23793
0.241267
0.244911
0.24886
0.253114
0.257671
0.262526
0.267676
0.273114
0.278835
0.284827
0.291082
0.297585
0.304321
0.311273
0.31842
0.325739
0.333206
0.34079
0.348462
0.356186
0.363927
0.371644
0.379296
0.386839
0.394228
0.401415
0.408353
0.414993
0.421288
0.427189
0.432652
0.437632
0.442089
0.445984
0.449285
0.451962
0.453991
0.455355
0.456039
0.223473
0.223795
0.22444
0.225408
0.2267
0.228317
0.230261
0.232533
0.235135
0.238067
0.241331
0.244929
0.24886
0.253125
0.257724
0.262653
0.267912
0.273495
0.279398
0.285614
0.292133
0.298944
0.306035
0.313389
0.320987
0.328809
0.336829
0.345021
0.353352
0.361789
0.370295
0.378829
0.387347
0.395803
0.404148
0.412332
0.420301
0.428001
0.435378
0.442377
0.448945
0.455029
0.46058
0.465551
0.469898
0.473583
0.476573
0.478841
0.480365
0.481129
0.225767
0.226113
0.226806
0.227846
0.229234
0.230973
0.233064
0.235509
0.238309
0.241469
0.244988
0.248869
0.253114
0.257724
0.262697
0.268035
0.273734
0.279792
0.286204
0.292962
0.300059
0.307483
0.31522
0.323255
0.331567
0.340134
0.348929
0.357923
0.367083
0.37637
0.385745
0.395162
0.404574
0.413928
0.42317
0.432244
0.441089
0.449645
0.457851
0.465643
0.472962
0.479748
0.485944
0.491495
0.496353
0.500474
0.503818
0.506356
0.508061
0.508918
0.228203
0.228575
0.229319
0.230437
0.23193
0.2338
0.236049
0.238681
0.241697
0.245101
0.248897
0.253086
0.257671
0.262653
0.268035
0.273816
0.279995
0.286569
0.293535
0.300886
0.308614
0.316708
0.325154
0.333935
0.343031
0.352417
0.362066
0.371946
0.38202
0.392249
0.402586
0.412984
0.423389
0.433743
0.443985
0.454053
0.463878
0.473393
0.482527
0.491211
0.499375
0.50695
0.513872
0.520079
0.525514
0.530126
0.533872
0.536715
0.538626
0.539585
0.230776
0.231176
0.231976
0.233177
0.234781
0.236792
0.239212
0.242044
0.245293
0.248961
0.253054
0.257574
0.262526
0.267912
0.273734
0.279995
0.286693
0.293827
0.301395
0.30939
0.317805
0.326629
0.335848
0.345444
0.355397
0.365681
0.376267
0.387121
0.398202
0.409468
0.42087
0.432353
0.443858
0.455322
0.466677
0.477852
0.488771
0.499357
0.509531
0.519214
0.528325
0.536788
0.544527
0.551472
0.557558
0.562726
0.566924
0.570112
0.572255
0.573332
0.23348
0.23391
0.234768
0.236059
0.237783
0.239945
0.242547
0.245594
0.249091
0.253043
0.257454
0.26233
0.267676
0.273495
0.279792
0.286569
0.293827
0.301567
0.309785
0.318477
0.327637
0.337253
0.347311
0.357796
0.368684
0.379948
0.391559
0.403479
0.415667
0.428074
0.440647
0.453327
0.466049
0.478743
0.491333
0.503738
0.515875
0.527657
0.538993
0.549793
0.559967
0.569427
0.578085
0.585861
0.59268
0.598473
0.603183
0.60676
0.609166
0.610374
0.236309
0.23677
0.237691
0.239077
0.240928
0.24325
0.246047
0.249323
0.253085
0.257339
0.262091
0.267347
0.273114
0.279398
0.286204
0.293535
0.301395
0.309785
0.318704
0.328148
0.338111
0.348584
0.359553
0.371
0.382904
0.395237
0.407965
0.421051
0.434449
0.448107
0.461968
0.475967
0.490031
0.504084
0.518041
0.531813
0.545305
0.558418
0.571051
0.583101
0.594466
0.605043
0.614733
0.623444
0.631089
0.637588
0.642874
0.646891
0.649594
0.650952
0.239255
0.239749
0.240737
0.242223
0.24421
0.246702
0.249705
0.253225
0.257268
0.261843
0.266957
0.272618
0.278835
0.285614
0.292962
0.300886
0.30939
0.318477
0.328148
0.3384
0.349228
0.360625
0.372576
0.385066
0.39807
0.411562
0.425506
0.439862
0.454581
0.469609
0.484882
0.500329
0.515872
0.531425
0.546894
0.56218
0.577176
0.591771
0.605851
0.619298
0.631995
0.643825
0.654675
0.664438
0.673012
0.680307
0.686245
0.690758
0.693796
0.695323
0.24231
0.242839
0.243898
0.24549
0.24762
0.250292
0.253512
0.257289
0.261631
0.266546
0.272044
0.278134
0.284827
0.292133
0.300059
0.308614
0.317805
0.327637
0.338111
0.349228
0.360985
0.373374
0.386383
0.399996
0.41419
0.428936
0.444198
0.459934
0.476093
0.492616
0.509433
0.526469
0.543637
0.560843
0.577982
0.594944
0.611609
0.627852
0.643544
0.658551
0.672739
0.685975
0.698128
0.709074
0.718696
0.726889
0.733561
0.738636
0.742053
0.743771
0.245465
0.246031
0.247165
0.248869
0.251148
0.254009
0.25746
0.261508
0.266163
0.271437
0.27734
0.283884
0.291082
0.298944
0.307483
0.316708
0.326629
0.337253
0.348584
0.360625
0.373374
0.386826
0.40097
0.41579
0.431265
0.447365
0.464054
0.481287
0.49901
0.517161
0.535665
0.55444
0.573391
0.592415
0.611396
0.630211
0.648726
0.666801
0.684289
0.701038
0.716895
0.731707
0.745324
0.757601
0.768405
0.777612
0.785116
0.790826
0.794672
0.796606
0.248712
0.249317
0.250528
0.252349
0.254786
0.257845
0.261536
0.265869
0.270854
0.276504
0.282834
0.289856
0.297585
0.306035
0.31522
0.325154
0.335848
0.347311
0.359553
0.372576
0.386383
0.40097
0.416328
0.432443
0.449293
0.466851
0.485079
0.50393
0.52335
0.54327
0.563612
0.584287
0.605192
0.626213
0.647223
0.668085
0.68865
0.70876
0.728248
0.746942
0.764667
0.781247
0.79651
0.810288
0.822426
0.832779
0.841224
0.847653
0.851987
0.854167
0.25204
0.252686
0.253977
0.255921
0.258522
0.261788
0.265731
0.27036
0.27569
0.281735
0.288511
0.296034
0.304321
0.313389
0.323255
0.333935
0.345444
0.357796
0.371
0.385066
0.399996
0.41579
0.432443
0.449941
0.468265
0.487387
0.507271
0.527869
0.549123
0.570962
0.593303
0.61605
0.639092
0.662304
0.685548
0.708669
0.731503
0.753872
0.775587
0.796453
0.81627
0.834836
0.851952
0.867423
0.881068
0.892719
0.90223
0.909477
0.914363
0.916822
0.255439
0.256126
0.257502
0.259572
0.262344
0.265826
0.270029
0.274968
0.280658
0.287114
0.294356
0.302402
0.311273
0.320987
0.331567
0.343031
0.355397
0.368684
0.382904
0.39807
0.41419
0.431265
0.449293
0.468265
0.488163
0.50896
0.530621
0.553097
0.57633
0.600246
0.624757
0.64976
0.675135
0.700749
0.726446
0.75206
0.777404
0.80228
0.826475
0.849768
0.87193
0.892727
0.91193
0.929313
0.944664
0.957788
0.96851
0.976687
0.982203
0.98498
0.258895
0.259626
0.261089
0.26329
0.266239
0.269944
0.274419
0.279679
0.285741
0.292625
0.300351
0.308942
0.31842
0.328809
0.340134
0.352417
0.365681
0.379948
0.395237
0.411562
0.428936
0.447365
0.466851
0.487387
0.50896
0.531545
0.555107
0.5796
0.604963
0.631121
0.657981
0.685435
0.713356
0.741595
0.769987
0.798346
0.826467
0.854125
0.881083
0.907088
0.931878
0.955185
0.976743
0.99629
1.01358
1.02837
1.04048
1.04971
1.05595
1.05909
0.262397
0.263173
0.264725
0.267062
0.270193
0.274128
0.278883
0.284474
0.290922
0.298248
0.306476
0.315631
0.325739
0.336829
0.348929
0.362066
0.376267
0.391559
0.407965
0.425506
0.444198
0.464054
0.485079
0.507271
0.530621
0.555107
0.580698
0.607349
0.634998
0.66357
0.692969
0.723082
0.753771
0.78488
0.816227
0.847609
0.878797
0.909543
0.939578
0.968616
0.996355
1.02249
1.04671
1.06871
1.08819
1.1049
1.11857
1.12902
1.13608
1.13964
0.265932
0.266753
0.268398
0.270874
0.274191
0.278363
0.283405
0.289338
0.296182
0.303963
0.312708
0.322445
0.333206
0.345021
0.357923
0.371946
0.387121
0.403479
0.421051
0.439862
0.459934
0.481287
0.50393
0.527869
0.553097
0.5796
0.607349
0.636301
0.666398
0.697563
0.729699
0.762687
0.796385
0.830623
0.865206
0.899912
0.934489
0.968661
1.00212
1.03455
1.06561
1.09493
1.12216
1.14695
1.16894
1.18782
1.2033
1.21514
1.22315
1.22718
0.269484
0.270352
0.272091
0.274709
0.278218
0.282631
0.287968
0.29425
0.3015
0.309748
0.319024
0.32936
0.34079
0.353352
0.367083
0.38202
0.398202
0.415667
0.434449
0.454581
0.476093
0.49901
0.52335
0.549123
0.57633
0.604963
0.634998
0.666398
0.699106
0.733048
0.768127
0.80422
0.841178
0.878823
0.916945
0.955303
0.993621
1.03159
1.06887
1.1051
1.13988
1.17281
1.20346
1.23141
1.25627
1.27765
1.29521
1.30865
1.31774
1.32233
0.27304
0.273956
0.27579
0.278553
0.282256
0.286916
0.292552
0.299189
0.306855
0.315579
0.325397
0.336345
0.348462
0.361789
0.37637
0.392249
0.409468
0.428074
0.448107
0.469609
0.492616
0.517161
0.54327
0.570962
0.600246
0.631121
0.66357
0.697563
0.733048
0.769955
0.808188
0.847623
0.888107
0.929453
0.971439
1.0138
1.05625
1.09843
1.13997
1.18045
1.21943
1.25643
1.29097
1.32255
1.35069
1.37494
1.39489
1.41018
1.42054
1.42577
0.276583
0.277547
0.279479
0.282387
0.286287
0.291196
0.297137
0.304135
0.312221
0.32143
0.331799
0.34337
0.356186
0.370295
0.385745
0.402586
0.42087
0.440647
0.461968
0.484882
0.509433
0.535665
0.563612
0.593303
0.624757
0.657981
0.692969
0.729699
0.768127
0.808188
0.84979
0.892813
0.9371
0.982458
1.02865
1.07541
1.1224
1.16925
1.21553
1.26078
1.30449
1.34612
1.38508
1.42081
1.45273
1.4803
1.50302
1.52046
1.53229
1.53826
0.280098
0.28111
0.283139
0.286195
0.290294
0.295454
0.301701
0.309063
0.317574
0.327272
0.338199
0.350401
0.363927
0.378829
0.395162
0.412984
0.432353
0.453327
0.475967
0.500329
0.526469
0.55444
0.584287
0.61605
0.64976
0.685435
0.723082
0.762687
0.80422
0.847623
0.892813
0.939672
0.988048
1.03774
1.08852
1.14007
1.19206
1.24408
1.29565
1.34625
1.39531
1.44218
1.4862
1.5267
1.56298
1.5944
1.62035
1.64031
1.65386
1.6607
0.283567
0.284628
0.286755
0.289958
0.294256
0.299668
0.306222
0.313949
0.322887
0.333077
0.344565
0.357403
0.371644
0.387347
0.404574
0.423389
0.443858
0.466049
0.490031
0.515872
0.543637
0.573391
0.605192
0.639092
0.675135
0.713356
0.753771
0.796385
0.841178
0.888107
0.9371
0.988048
1.0408
1.09517
1.15091
1.2077
1.26519
1.32292
1.38038
1.43699
1.49208
1.54493
1.59475
1.64075
1.68209
1.718
1.74772
1.77063
1.78621
1.79409
0.286974
0.288083
0.290307
0.293658
0.298153
0.303816
0.310676
0.318768
0.328132
0.338814
0.350864
0.364338
0.379296
0.395803
0.413928
0.433743
0.455322
0.478743
0.504084
0.531425
0.560843
0.592415
0.626213
0.662304
0.700749
0.741595
0.78488
0.830623
0.878823
0.929453
0.982458
1.03774
1.09517
1.15456
1.21566
1.27816
1.34166
1.40571
1.46973
1.53308
1.595
1.65466
1.71115
1.76351
1.81076
1.85192
1.8861
1.91249
1.93047
1.93957
0.290301
0.291458
0.293778
0.297274
0.301965
0.307877
0.315041
0.323495
0.333281
0.344451
0.357059
0.371166
0.386839
0.404148
0.42317
0.443985
0.466677
0.491333
0.518041
0.546894
0.577982
0.611396
0.647223
0.685548
0.726446
0.769987
0.816227
0.865206
0.916945
0.971439
1.02865
1.08852
1.15091
1.21566
1.28253
1.35121
1.4213
1.49231
1.56362
1.63453
1.70419
1.77164
1.83582
1.89558
1.94974
1.9971
2.03655
2.0671
2.08794
2.09851
0.29353
0.294734
0.297149
0.300788
0.305672
0.311828
0.319291
0.328101
0.338304
0.349956
0.363115
0.377848
0.394228
0.412332
0.432244
0.454053
0.477852
0.503738
0.531813
0.56218
0.594944
0.630211
0.668085
0.708669
0.75206
0.798346
0.847609
0.899912
0.955303
1.0138
1.07541
1.14007
1.2077
1.27816
1.35121
1.42656
1.50383
1.58249
1.6619
1.74129
1.81972
1.89609
1.96916
2.03756
2.09986
2.15458
2.20033
2.23586
2.26015
2.27248
0.296644
0.297894
0.3004
0.304179
0.309252
0.315647
0.323402
0.33256
0.343171
0.355294
0.368994
0.384341
0.401415
0.420301
0.441089
0.463878
0.488771
0.515875
0.545305
0.577176
0.611609
0.648726
0.68865
0.731503
0.777404
0.826467
0.878797
0.934489
0.993621
1.05625
1.1224
1.19206
1.26519
1.34166
1.4213
1.50383
1.58887
1.67591
1.76429
1.85317
1.94153
2.02813
2.11152
2.19007
2.26202
2.32554
2.37887
2.42042
2.44889
2.46336
0.299624
0.300919
0.303515
0.307429
0.312684
0.319311
0.327349
0.336845
0.347852
0.360433
0.374658
0.390603
0.408353
0.428001
0.449645
0.473393
0.499357
0.527657
0.558418
0.591771
0.627852
0.666801
0.70876
0.753872
0.80228
0.854125
0.909543
0.968661
1.03159
1.09843
1.16925
1.24408
1.32292
1.40571
1.49231
1.58249
1.67591
1.77208
1.87035
1.96985
2.06946
2.1678
2.2632
2.35372
2.43718
2.51131
2.57384
2.62273
2.65632
2.67341
0.302455
0.303792
0.306474
0.310518
0.315948
0.322797
0.331107
0.340928
0.352316
0.365338
0.380068
0.39659
0.414993
0.435378
0.457851
0.482527
0.509531
0.538993
0.571051
0.605851
0.643544
0.684289
0.728248
0.775587
0.826475
0.881083
0.939578
1.00212
1.06887
1.13997
1.21553
1.29565
1.38038
1.46973
1.56362
1.6619
1.76429
1.87035
1.97946
2.09076
2.20308
2.31491
2.42433
2.52904
2.62636
2.71339
2.7872
2.84514
2.88503
2.90536
0.305119
0.306497
0.30926
0.313426
0.319023
0.326084
0.334653
0.344782
0.356533
0.369976
0.385189
0.40226
0.421288
0.442377
0.465643
0.491211
0.519214
0.549793
0.583101
0.619298
0.658551
0.701038
0.746942
0.796453
0.849768
0.907088
0.968616
1.03455
1.1051
1.18045
1.26078
1.34625
1.43699
1.53308
1.63453
1.74129
1.85317
1.96985
2.09076
2.21512
2.34174
2.46903
2.59485
2.71648
2.83062
2.93351
3.02129
3.09046
3.13819
3.16255
0.307599
0.309015
0.311854
0.316137
0.32189
0.32915
0.337962
0.348382
0.360475
0.374313
0.389982
0.407573
0.427189
0.448945
0.472962
0.499375
0.528325
0.559967
0.594466
0.631995
0.672739
0.716895
0.764667
0.81627
0.87193
0.931878
0.996355
1.06561
1.13988
1.21943
1.30449
1.39531
1.49208
1.595
1.70419
1.81972
1.94153
2.06946
2.20308
2.34174
2.48435
2.6293
2.77432
2.91625
3.05099
3.17364
3.27895
3.3622
3.41973
3.44909
0.30988
0.311331
0.314242
0.318632
0.32453
0.331974
0.341013
0.351703
0.364113
0.37832
0.394411
0.412486
0.432652
0.455029
0.479748
0.50695
0.536788
0.569427
0.605043
0.643825
0.685975
0.731707
0.781247
0.834836
0.892727
0.955185
1.02249
1.09493
1.17281
1.25643
1.34612
1.44218
1.54493
1.65466
1.77164
1.89609
2.02813
2.1678
2.31491
2.46903
2.6293
2.7943
2.96172
3.12809
3.28842
3.43611
3.56369
3.66472
3.7345
3.77008
0.311948
0.313431
0.316406
0.320895
0.326925
0.334538
0.343784
0.354721
0.367421
0.381965
0.398444
0.416962
0.437632
0.46058
0.485944
0.513872
0.544527
0.578085
0.614733
0.654675
0.698128
0.745324
0.79651
0.851952
0.91193
0.976743
1.04671
1.12216
1.20346
1.29097
1.38508
1.4862
1.59475
1.71115
1.83582
1.96916
2.11152
2.2632
2.42433
2.59485
2.77432
2.96172
3.1551
3.35096
3.54351
3.72376
3.88012
4.00364
4.08862
4.13183
0.313789
0.315301
0.318334
0.32291
0.32906
0.336824
0.346255
0.357414
0.370374
0.385221
0.402049
0.420965
0.442089
0.465551
0.491495
0.520079
0.551472
0.585861
0.623444
0.664438
0.709074
0.757601
0.810288
0.867423
0.929313
0.99629
1.06871
1.14695
1.23141
1.32255
1.42081
1.5267
1.64075
1.76351
1.89558
2.03756
2.19007
2.35372
2.52904
2.71648
2.91625
3.12809
3.35096
3.58221
3.81601
4.04045
4.23456
4.38631
4.48974
4.54202
0.31539
0.316928
0.320012
0.324665
0.330919
0.338815
0.348408
0.359761
0.372951
0.388063
0.405196
0.424462
0.445984
0.469898
0.496353
0.525514
0.557558
0.59268
0.631089
0.673012
0.718696
0.768405
0.822426
0.881068
0.944664
1.01358
1.08819
1.16894
1.25627
1.35069
1.45273
1.56298
1.68209
1.81076
1.94974
2.09986
2.26202
2.43718
2.62636
2.83062
3.05099
3.28842
3.54351
3.81601
4.10305
4.39269
4.6366
4.82259
4.94731
5.0098
0.316742
0.318301
0.321428
0.326147
0.332489
0.340498
0.350228
0.361746
0.37513
0.390467
0.407861
0.427424
0.449285
0.473583
0.500474
0.530126
0.562726
0.598473
0.637588
0.680307
0.726889
0.777612
0.832779
0.892719
0.957788
1.02837
1.1049
1.18782
1.27765
1.37494
1.4803
1.5944
1.718
1.85192
1.9971
2.15458
2.32554
2.51131
2.71339
2.93351
3.17364
3.43611
3.72376
4.04045
4.39269
4.79594
5.10185
5.32547
5.47247
5.54542
0.317835
0.319411
0.322574
0.327345
0.333759
0.341859
0.351702
0.363354
0.376894
0.392415
0.41002
0.429825
0.451962
0.476573
0.503818
0.533872
0.566924
0.603183
0.642874
0.686245
0.733561
0.785116
0.841224
0.90223
0.96851
1.04048
1.11857
1.2033
1.29521
1.39489
1.50302
1.62035
1.74772
1.8861
2.03655
2.20033
2.37887
2.57384
2.7872
3.02129
3.27895
3.56369
3.88012
4.23456
4.6366
5.10185
5.45475
5.71035
5.87706
5.95941
0.318661
0.320251
0.32344
0.328252
0.33472
0.34289
0.352817
0.36457
0.378231
0.393891
0.411656
0.431645
0.453991
0.478841
0.506356
0.536715
0.570112
0.60676
0.646891
0.690758
0.738636
0.790826
0.847653
0.909477
0.976687
1.04971
1.12902
1.21514
1.30865
1.41018
1.52046
1.64031
1.77063
1.91249
2.0671
2.23586
2.42042
2.62273
2.84514
3.09046
3.3622
3.66472
4.00364
4.38631
4.82259
5.32547
5.71035
5.98954
6.17145
6.26119
0.319215
0.320814
0.324021
0.32886
0.335365
0.343581
0.353565
0.365387
0.379128
0.394882
0.412755
0.432868
0.455355
0.480365
0.508061
0.538626
0.572255
0.609166
0.649594
0.693796
0.742053
0.794672
0.851987
0.914363
0.982203
1.05595
1.13608
1.22315
1.31774
1.42054
1.53229
1.65386
1.78621
1.93047
2.08794
2.26015
2.44889
2.65632
2.88503
3.13819
3.41973
3.7345
4.08862
4.48974
4.94731
5.47247
5.87706
6.17145
6.36346
6.4582
0.319493
0.321096
0.324312
0.329165
0.335688
0.343927
0.35394
0.365797
0.379578
0.395379
0.413306
0.433481
0.456039
0.481129
0.508918
0.539585
0.573332
0.610374
0.650952
0.695323
0.743771
0.796606
0.854167
0.916822
0.98498
1.05909
1.13964
1.22718
1.32233
1.42577
1.53826
1.6607
1.79409
1.93957
2.09851
2.27248
2.46336
2.67341
2.90536
3.16255
3.44909
3.77008
4.13183
4.54202
5.0098
5.54542
5.95941
6.26119
6.4582
6.55545
)
;

boundaryField
{
    walls
    {
        type            zeroGradient;
    }
    frontAndBack
    {
        type            empty;
    }
}


// ************************************************************************* //
