/*--------------------------------*- C++ -*----------------------------------*\
| =========                 |                                                 |
| \\      /  F ield         | OpenFOAM: The Open Source CFD Toolbox           |
|  \\    /   O peration     | Version:  2406                                  |
|   \\  /    A nd           | Website:  www.openfoam.com                      |
|    \\/     M anipulation  |                                                 |
\*---------------------------------------------------------------------------*/
FoamFile
{
    version     2.0;
    format      ascii;
    arch        "LSB;label=32;scalar=64";
    class       volVectorField;
    location    "0.95";
    object      flux;
}
// * * * * * * * * * * * * * * * * * * * * * * * * * * * * * * * * * * * * * //

dimensions      [0 1 -1 1 0 0 0];

internalField   nonuniform List<vector> 
2500
(
(0.000316544 0.000316544 0)
(0.00094543 0.000317939 0)
(0.00156371 0.000320831 0)
(0.00216521 0.000325178 0)
(0.00274276 0.000331015 0)
(0.00329019 0.000338387 0)
(0.00380178 0.000347344 0)
(0.00427236 0.000357945 0)
(0.00469743 0.000370258 0)
(0.00507315 0.000384356 0)
(0.00539643 0.000400322 0)
(0.005665 0.000418241 0)
(0.00587738 0.000438202 0)
(0.00603291 0.000460298 0)
(0.00613173 0.000484619 0)
(0.00617481 0.000511255 0)
(0.00616384 0.000540293 0)
(0.00610125 0.00057181 0)
(0.00599011 0.000605876 0)
(0.00583406 0.000642548 0)
(0.00563726 0.000681867 0)
(0.00540428 0.000723854 0)
(0.00514001 0.000768509 0)
(0.00484958 0.000815807 0)
(0.00453824 0.000865693 0)
(0.00421128 0.000918081 0)
(0.00387396 0.000972849 0)
(0.00353136 0.00102984 0)
(0.00318836 0.00108886 0)
(0.00284954 0.00114966 0)
(0.00251912 0.00121198 0)
(0.0022009 0.00127548 0)
(0.00189822 0.00133981 0)
(0.00161392 0.00140457 0)
(0.00135033 0.00146931 0)
(0.00110927 0.00153359 0)
(0.000892025 0.00159689 0)
(0.000699348 0.0016587 0)
(0.00053151 0.00171849 0)
(0.000388299 0.00177573 0)
(0.00026906 0.00182987 0)
(0.000172723 0.00188039 0)
(9.78487e-05 0.00192677 0)
(4.26577e-05 0.00196854 0)
(5.07542e-06 0.00200527 0)
(-1.72353e-05 0.00203655 0)
(-2.68424e-05 0.00206205 0)
(-2.65067e-05 0.0020815 0)
(-1.90604e-05 0.00209457 0)
(-6.956e-06 0.00210054 0)
(0.000317939 0.00094543 0)
(0.000949717 0.000949717 0)
(0.00157095 0.000958404 0)
(0.00217539 0.000971479 0)
(0.00275597 0.000989045 0)
(0.00330652 0.00101123 0)
(0.00382133 0.00103818 0)
(0.00429528 0.00107008 0)
(0.00472384 0.00110714 0)
(0.00510321 0.00114957 0)
(0.00543032 0.00119762 0)
(0.00570288 0.00125155 0)
(0.00591944 0.00131163 0)
(0.00607932 0.00137814 0)
(0.00618269 0.00145135 0)
(0.00623048 0.00153154 0)
(0.0062244 0.00161897 0)
(0.00616684 0.00171387 0)
(0.00606085 0.00181646 0)
(0.00591005 0.00192691 0)
(0.00571857 0.00204534 0)
(0.00549092 0.00217182 0)
(0.00523196 0.00230635 0)
(0.00494676 0.00244887 0)
(0.00464051 0.0025992 0)
(0.00431844 0.00275708 0)
(0.00398572 0.00292217 0)
(0.00364737 0.00309397 0)
(0.00330818 0.00327191 0)
(0.00297266 0.00345525 0)
(0.00264494 0.00364317 0)
(0.00232873 0.0038347 0)
(0.0020273 0.00402874 0)
(0.00174342 0.0042241 0)
(0.00147935 0.00441945 0)
(0.00123685 0.00461339 0)
(0.00101714 0.00480442 0)
(0.000820955 0.00499098 0)
(0.000648539 0.00517147 0)
(0.000499674 0.00534425 0)
(0.000373716 0.0055077 0)
(0.000269625 0.00566022 0)
(0.000186008 0.00580028 0)
(0.000121154 0.00592643 0)
(7.30772e-05 0.00603732 0)
(3.95475e-05 0.00613178 0)
(1.81089e-05 0.00620879 0)
(6.01842e-06 0.00626756 0)
(-1.76651e-08 0.00630742 0)
(-9.90483e-07 0.00632668 0)
(0.000320831 0.00156371 0)
(0.000958404 0.00157095 0)
(0.00158547 0.00158547 0)
(0.00219585 0.00160737 0)
(0.00278251 0.00163679 0)
(0.00333933 0.00167396 0)
(0.00386063 0.00171912 0)
(0.00434132 0.00177258 0)
(0.00477691 0.00183469 0)
(0.00516363 0.00190582 0)
(0.00549841 0.00198638 0)
(0.00577902 0.00207683 0)
(0.00600397 0.00217761 0)
(0.00617263 0.0022892 0)
(0.00628514 0.00241207 0)
(0.00634243 0.00254667 0)
(0.00634617 0.00269347 0)
(0.00629875 0.00285285 0)
(0.00620314 0.00302518 0)
(0.00606294 0.00321076 0)
(0.00588217 0.00340981 0)
(0.0056653 0.00362244 0)
(0.00541706 0.00384868 0)
(0.00514242 0.00408839 0)
(0.00484645 0.00434132 0)
(0.00453425 0.00460704 0)
(0.00421084 0.00488494 0)
(0.00388109 0.00517423 0)
(0.00354964 0.00547391 0)
(0.00322081 0.0057828 0)
(0.00289857 0.00609946 0)
(0.00258647 0.00642229 0)
(0.00228762 0.00674944 0)
(0.00200463 0.00707888 0)
(0.00173963 0.00740839 0)
(0.00149425 0.00773559 0)
(0.00126962 0.00805794 0)
(0.00106639 0.00837282 0)
(0.000884773 0.0086775 0)
(0.000724529 0.00896923 0)
(0.000585034 0.00924525 0)
(0.000465309 0.00950286 0)
(0.000364055 0.00973945 0)
(0.000279698 0.00995256 0)
(0.000210426 0.0101399 0)
(0.000154232 0.0102995 0)
(0.00010894 0.0104295 0)
(7.21216e-05 0.0105286 0)
(4.0059e-05 0.0105958 0)
(1.23061e-05 0.0106293 0)
(0.000325178 0.00216521 0)
(0.000971479 0.00217539 0)
(0.00160737 0.00219585 0)
(0.00222671 0.00222671 0)
(0.00282256 0.0022682 0)
(0.00338885 0.00232062 0)
(0.00391996 0.00238433 0)
(0.00441085 0.00245978 0)
(0.00485708 0.00254744 0)
(0.00525491 0.00264787 0)
(0.00560133 0.00276166 0)
(0.00589411 0.00288944 0)
(0.00613181 0.00303188 0)
(0.00631378 0.00318965 0)
(0.00644017 0.00336344 0)
(0.00651188 0.0035539 0)
(0.00653057 0.00376168 0)
(0.00649855 0.00398737 0)
(0.00641876 0.0042315 0)
(0.00629468 0.00449451 0)
(0.00613025 0.00477671 0)
(0.00592979 0.0050783 0)
(0.00569791 0.00539931 0)
(0.0054394 0.00573959 0)
(0.00515915 0.00609877 0)
(0.00486205 0.00647626 0)
(0.00455291 0.00687122 0)
(0.00423634 0.00728252 0)
(0.00391675 0.00770878 0)
(0.00359821 0.00814828 0)
(0.00328443 0.00859903 0)
(0.00297871 0.00905872 0)
(0.00268389 0.00952473 0)
(0.00240237 0.00999416 0)
(0.00213606 0.0104639 0)
(0.0018864 0.0109304 0)
(0.00165437 0.0113902 0)
(0.00144051 0.0118395 0)
(0.00124495 0.0122743 0)
(0.00106742 0.0126908 0)
(0.000907348 0.0130849 0)
(0.000763826 0.0134529 0)
(0.000635705 0.0137908 0)
(0.000521609 0.0140953 0)
(0.000419988 0.014363 0)
(0.000329145 0.014591 0)
(0.00024726 0.0147767 0)
(0.000172273 0.014918 0)
(0.000100688 0.0150133 0)
(3.25763e-05 0.0150612 0)
(0.000331015 0.00274276 0)
(0.000989045 0.00275597 0)
(0.00163679 0.00278251 0)
(0.0022682 0.00282256 0)
(0.00287642 0.00287642 0)
(0.00345546 0.00294448 0)
(0.00399979 0.00302724 0)
(0.00450442 0.00312525 0)
(0.004965 0.00323918 0)
(0.00537785 0.00336976 0)
(0.00573999 0.00351777 0)
(0.00604924 0.00368405 0)
(0.00630418 0.00386948 0)
(0.00650418 0.00407497 0)
(0.00664938 0.00430142 0)
(0.00674067 0.00454973 0)
(0.00677965 0.00482075 0)
(0.00676857 0.0051153 0)
(0.00671028 0.00543407 0)
(0.00660814 0.00577766 0)
(0.00646597 0.00614654 0)
(0.0062879 0.00654096 0)
(0.00607834 0.00696101 0)
(0.00584187 0.0074065 0)
(0.00558312 0.00787698 0)
(0.0053067 0.00837172 0)
(0.00501711 0.00888961 0)
(0.00471866 0.00942923 0)
(0.0044154 0.00998875 0)
(0.00411106 0.0105659 0)
(0.003809 0.0111582 0)
(0.00351217 0.0117625 0)
(0.00322307 0.0123754 0)
(0.00294377 0.0129931 0)
(0.00267588 0.0136114 0)
(0.0024206 0.0142259 0)
(0.00217868 0.0148317 0)
(0.0019505 0.0154239 0)
(0.00173608 0.0159972 0)
(0.00153513 0.0165466 0)
(0.0013471 0.0170666 0)
(0.00117121 0.0175522 0)
(0.0010065 0.0179984 0)
(0.000851862 0.0184005 0)
(0.000706096 0.018754 0)
(0.000567924 0.0190551 0)
(0.000436001 0.0193004 0)
(0.000308778 0.019487 0)
(0.000183265 0.0196127 0)
(6.02015e-05 0.0196759 0)
(0.000338387 0.00329019 0)
(0.00101123 0.00330652 0)
(0.00167396 0.00333933 0)
(0.00232062 0.00338885 0)
(0.00294448 0.00345546 0)
(0.00353966 0.00353966 0)
(0.00410073 0.00364207 0)
(0.00462279 0.00376342 0)
(0.00510158 0.00390453 0)
(0.00553349 0.00406632 0)
(0.00591562 0.00424981 0)
(0.00624583 0.00445606 0)
(0.00652273 0.00468619 0)
(0.00674572 0.00494135 0)
(0.00691493 0.00522271 0)
(0.00703122 0.00553142 0)
(0.00709614 0.00586857 0)
(0.00711186 0.00623521 0)
(0.00708113 0.00663227 0)
(0.00700715 0.00706051 0)
(0.00689355 0.00752056 0)
(0.00674426 0.0080128 0)
(0.00656345 0.00853736 0)
(0.00635538 0.00909405 0)
(0.00612438 0.00968236 0)
(0.00587468 0.0103014 0)
(0.00561042 0.0109498 0)
(0.00533547 0.0116259 0)
(0.00505347 0.0123273 0)
(0.00476767 0.0130514 0)
(0.00448099 0.0137948 0)
(0.0041959 0.0145537 0)
(0.00391449 0.015324 0)
(0.00363839 0.0161007 0)
(0.00336884 0.0168786 0)
(0.00310666 0.0176521 0)
(0.00285235 0.018415 0)
(0.00260605 0.0191612 0)
(0.00236765 0.0198841 0)
(0.00213681 0.0205769 0)
(0.00191302 0.0212331 0)
(0.00169564 0.021846 0)
(0.00148396 0.0224094 0)
(0.00127721 0.0229172 0)
(0.00107465 0.0233639 0)
(0.000875533 0.0237443 0)
(0.00067913 0.0240543 0)
(0.000484579 0.02429 0)
(0.00028959 0.0244488 0)
(9.57698e-05 0.0245287 0)
(0.000347344 0.00380178 0)
(0.00103818 0.00382133 0)
(0.00171912 0.00386063 0)
(0.00238433 0.00391996 0)
(0.00302724 0.00399979 0)
(0.00364207 0.00410073 0)
(0.00422354 0.00422354 0)
(0.00476688 0.00436913 0)
(0.00526791 0.00453851 0)
(0.00572313 0.00473283 0)
(0.00612973 0.00495332 0)
(0.00648562 0.00520131 0)
(0.00678948 0.00547819 0)
(0.00704071 0.0057854 0)
(0.00723945 0.00612439 0)
(0.00738653 0.00649658 0)
(0.00748345 0.00690336 0)
(0.00753226 0.00734605 0)
(0.00753558 0.00782581 0)
(0.00749644 0.00834365 0)
(0.00741826 0.00890037 0)
(0.00730469 0.00949651 0)
(0.00715959 0.0101323 0)
(0.00698688 0.0108075 0)
(0.00679047 0.0115216 0)
(0.00657416 0.0122736 0)
(0.00634159 0.0130619 0)
(0.00609614 0.0138844 0)
(0.00584088 0.0147384 0)
(0.00557851 0.0156206 0)
(0.00531137 0.016527 0)
(0.00504136 0.017453 0)
(0.00477 0.0183935 0)
(0.0044984 0.0193425 0)
(0.00422728 0.0202937 0)
(0.00395706 0.02124 0)
(0.00368784 0.0221741 0)
(0.0034195 0.0230881 0)
(0.00315174 0.023974 0)
(0.00288414 0.0248236 0)
(0.00261623 0.0256287 0)
(0.00234756 0.026381 0)
(0.00207769 0.0270728 0)
(0.00180631 0.0276966 0)
(0.00153321 0.0282454 0)
(0.00125832 0.028713 0)
(0.000981714 0.029094 0)
(0.000703375 0.0293839 0)
(0.000421915 0.0295792 0)
(0.000140034 0.0296773 0)
(0.000357945 0.00427236 0)
(0.00107008 0.00429528 0)
(0.00177258 0.00434132 0)
(0.00245978 0.00441085 0)
(0.00312525 0.00450442 0)
(0.00376342 0.00462279 0)
(0.00436913 0.00476688 0)
(0.00493776 0.00493776 0)
(0.00546528 0.00513668 0)
(0.0059483 0.00536503 0)
(0.0063841 0.00562429 0)
(0.0067707 0.0059161 0)
(0.00710682 0.00624214 0)
(0.00739191 0.00660416 0)
(0.0076261 0.00700393 0)
(0.00781019 0.00744321 0)
(0.00794561 0.00792372 0)
(0.00803431 0.00844708 0)
(0.00807873 0.00901474 0)
(0.00808171 0.009628 0)
(0.0080464 0.0102879 0)
(0.00797615 0.010995 0)
(0.00787442 0.0117499 0)
(0.00774472 0.0125523 0)
(0.00759048 0.0134017 0)
(0.00741495 0.0142969 0)
(0.0072212 0.0152361 0)
(0.00701197 0.0162169 0)
(0.00678966 0.0172362 0)
(0.00655629 0.01829 0)
(0.00631348 0.0193737 0)
(0.00606244 0.0204817 0)
(0.00580399 0.0216079 0)
(0.00553857 0.0227453 0)
(0.0052663 0.023886 0)
(0.00498704 0.0250219 0)
(0.00470043 0.0261438 0)
(0.00440599 0.0272423 0)
(0.00410317 0.0283078 0)
(0.00379146 0.0293303 0)
(0.00347043 0.0302997 0)
(0.00313981 0.0312061 0)
(0.00279953 0.03204 0)
(0.0024498 0.0327922 0)
(0.00209108 0.0334542 0)
(0.00172414 0.0340185 0)
(0.00134999 0.0344783 0)
(0.000969708 0.0348283 0)
(0.000583 0.035064 0)
(0.00019392 0.0351825 0)
(0.000370258 0.00469743 0)
(0.00110714 0.00472384 0)
(0.00183469 0.00477691 0)
(0.00254744 0.00485708 0)
(0.00323918 0.004965 0)
(0.00390453 0.00510158 0)
(0.00453851 0.00526791 0)
(0.00513668 0.00546528 0)
(0.00569518 0.00569518 0)
(0.00621074 0.00595925 0)
(0.0066808 0.00625929 0)
(0.00710346 0.00659725 0)
(0.00747753 0.00697516 0)
(0.0078025 0.00739513 0)
(0.00807851 0.00785929 0)
(0.00830633 0.00836978 0)
(0.00848731 0.00892869 0)
(0.00862328 0.00953799 0)
(0.0087165 0.0101995 0)
(0.00876956 0.0109148 0)
(0.00878531 0.0116853 0)
(0.00876673 0.0125117 0)
(0.00871685 0.0133948 0)
(0.00863867 0.0143344 0)
(0.00853503 0.0153299 0)
(0.00840858 0.0163802 0)
(0.00826165 0.0174832 0)
(0.00809624 0.0186362 0)
(0.00791396 0.0198355 0)
(0.00771599 0.0210767 0)
(0.00750309 0.0223542 0)
(0.00727562 0.0236617 0)
(0.00703355 0.0249918 0)
(0.00677651 0.0263363 0)
(0.00650386 0.0276859 0)
(0.00621478 0.0290309 0)
(0.00590833 0.0303605 0)
(0.00558359 0.0316634 0)
(0.0052397 0.032928 0)
(0.00487599 0.0341424 0)
(0.00449205 0.0352946 0)
(0.00408785 0.0363725 0)
(0.00366374 0.0373647 0)
(0.00322053 0.0382601 0)
(0.00275951 0.0390486 0)
(0.00228244 0.0397209 0)
(0.00179149 0.0402689 0)
(0.00128905 0.040686 0)
(0.000776166 0.0409671 0)
(0.000258541 0.0411084 0)
(0.000384356 0.00507315 0)
(0.00114957 0.00510321 0)
(0.00190582 0.00516363 0)
(0.00264787 0.00525491 0)
(0.00336976 0.00537785 0)
(0.00406632 0.00553349 0)
(0.00473283 0.00572313 0)
(0.00536503 0.0059483 0)
(0.00595925 0.00621074 0)
(0.00651242 0.00651242 0)
(0.00702211 0.00685546 0)
(0.00748657 0.00724217 0)
(0.00790469 0.00767496 0)
(0.00827603 0.00815635 0)
(0.00860075 0.0086889 0)
(0.0088796 0.00927518 0)
(0.00911382 0.0099177 0)
(0.00930513 0.0106189 0)
(0.00945557 0.0113809 0)
(0.00956746 0.0122057 0)
(0.00964331 0.0130951 0)
(0.00968566 0.0140501 0)
(0.00969705 0.0150716 0)
(0.00967987 0.0161597 0)
(0.00963631 0.0173138 0)
(0.00956825 0.0185327 0)
(0.00947721 0.0198141 0)
(0.00936429 0.0211551 0)
(0.00923014 0.0225514 0)
(0.00907496 0.0239979 0)
(0.00889849 0.0254884 0)
(0.00870004 0.0270154 0)
(0.00847857 0.0285704 0)
(0.00823272 0.0301438 0)
(0.00796093 0.0317247 0)
(0.00766156 0.0333017 0)
(0.00733294 0.034862 0)
(0.00697358 0.0363924 0)
(0.00658222 0.037879 0)
(0.00615799 0.0393077 0)
(0.0057005 0.0406641 0)
(0.00520995 0.0419341 0)
(0.00468717 0.0431037 0)
(0.00413371 0.0441599 0)
(0.00355182 0.0450904 0)
(0.00294444 0.045884 0)
(0.00231515 0.0465313 0)
(0.00166789 0.047024 0)
(0.00100536 0.0473561 0)
(0.000335219 0.0475231 0)
(0.000400322 0.00539643 0)
(0.00119762 0.00543032 0)
(0.00198638 0.00549841 0)
(0.00276166 0.00560133 0)
(0.00351777 0.00573999 0)
(0.00424981 0.00591562 0)
(0.00495332 0.00612973 0)
(0.00562429 0.0063841 0)
(0.00625929 0.0066808 0)
(0.00685546 0.00702211 0)
(0.00741055 0.00741055 0)
(0.00792296 0.00784882 0)
(0.00839171 0.00833977 0)
(0.00881644 0.00888639 0)
(0.00919734 0.00949171 0)
(0.00953513 0.0101588 0)
(0.00983099 0.0108906 0)
(0.0100865 0.0116901 0)
(0.0103034 0.01256 0)
(0.0104838 0.0135027 0)
(0.0106297 0.0145201 0)
(0.0107433 0.0156141 0)
(0.0108264 0.0167854 0)
(0.0108809 0.0180346 0)
(0.010908 0.0193611 0)
(0.0109089 0.0207637 0)
(0.010884 0.0222401 0)
(0.0108335 0.0237867 0)
(0.0107568 0.0253991 0)
(0.010653 0.0270715 0)
(0.0105206 0.0287966 0)
(0.0103576 0.0305659 0)
(0.0101619 0.0323698 0)
(0.00993083 0.0341969 0)
(0.00966176 0.0360348 0)
(0.009352 0.0378699 0)
(0.00899903 0.0396876 0)
(0.00860063 0.0414721 0)
(0.00815504 0.0432071 0)
(0.0076611 0.044876 0)
(0.00711843 0.0464618 0)
(0.00652746 0.0479476 0)
(0.00588958 0.049317 0)
(0.00520718 0.0505543 0)
(0.00448364 0.051645 0)
(0.00372332 0.0525757 0)
(0.00293146 0.053335 0)
(0.00211388 0.0539133 0)
(0.00127521 0.054303 0)
(0.000425509 0.054499 0)
(0.000418241 0.005665 0)
(0.00125155 0.00570288 0)
(0.00207683 0.00577902 0)
(0.00288944 0.00589411 0)
(0.00368405 0.00604924 0)
(0.00445606 0.00624583 0)
(0.00520131 0.00648562 0)
(0.0059161 0.0067707 0)
(0.00659725 0.00710346 0)
(0.00724217 0.00748657 0)
(0.00784882 0.00792296 0)
(0.00841579 0.00841579 0)
(0.00894227 0.00896842 0)
(0.00942797 0.00958433 0)
(0.00987315 0.0102671 0)
(0.0102785 0.0110204 0)
(0.0106452 0.0118477 0)
(0.0109745 0.0127526 0)
(0.0112681 0.0137383 0)
(0.0115276 0.0148077 0)
(0.0117547 0.0159634 0)
(0.0119509 0.0172075 0)
(0.0121176 0.0185413 0)
(0.0122556 0.0199654 0)
(0.0123654 0.0214796 0)
(0.0124472 0.0230827 0)
(0.0125002 0.0247721 0)
(0.0125234 0.0265443 0)
(0.0125149 0.0283941 0)
(0.0124724 0.0303151 0)
(0.012393 0.0322992 0)
(0.0122733 0.0343367 0)
(0.0121095 0.0364164 0)
(0.0118978 0.0385255 0)
(0.011634 0.0406495 0)
(0.0113143 0.0427727 0)
(0.010935 0.044878 0)
(0.0104931 0.0469471 0)
(0.00998619 0.0489609 0)
(0.00941266 0.0508998 0)
(0.00877208 0.0527438 0)
(0.00806516 0.054473 0)
(0.00729391 0.056068 0)
(0.00646169 0.0575101 0)
(0.00557319 0.058782 0)
(0.00463445 0.0598681 0)
(0.00365268 0.0607544 0)
(0.00263592 0.0614296 0)
(0.00159115 0.0618849 0)
(0.000531228 0.0621139 0)
(0.000438202 0.00587738 0)
(0.00131163 0.00591944 0)
(0.00217761 0.00600397 0)
(0.00303188 0.00613181 0)
(0.00386948 0.00630418 0)
(0.00468619 0.00652273 0)
(0.00547819 0.00678948 0)
(0.00624214 0.00710682 0)
(0.00697516 0.00747753 0)
(0.00767496 0.00790469 0)
(0.00833977 0.00839171 0)
(0.00896842 0.00894227 0)
(0.00956025 0.00956025 0)
(0.0101151 0.0102497 0)
(0.0106334 0.011015 0)
(0.0111157 0.0118602 0)
(0.0115632 0.0127896 0)
(0.011977 0.0138073 0)
(0.0123585 0.0149173 0)
(0.0127089 0.0161232 0)
(0.0130295 0.017428 0)
(0.0133211 0.0188343 0)
(0.0135843 0.0203441 0)
(0.0138192 0.0219583 0)
(0.0140253 0.0236769 0)
(0.0142014 0.0254988 0)
(0.0143457 0.0274214 0)
(0.0144555 0.0294409 0)
(0.0145276 0.0315517 0)
(0.014558 0.0337467 0)
(0.0145421 0.0360168 0)
(0.0144748 0.0383512 0)
(0.0143507 0.0407371 0)
(0.0141639 0.0431598 0)
(0.013909 0.0456028 0)
(0.0135805 0.0480479 0)
(0.0131734 0.0504753 0)
(0.0126836 0.0528637 0)
(0.0121078 0.055191 0)
(0.011444 0.057434 0)
(0.0106916 0.0595693 0)
(0.00985161 0.0615736 0)
(0.00892666 0.0634238 0)
(0.00792123 0.065098 0)
(0.00684157 0.0665756 0)
(0.00569566 0.0678379 0)
(0.00449303 0.0688687 0)
(0.00324438 0.0696542 0)
(0.00195945 0.070184 0)
(0.000654488 0.0704505 0)
(0.000460298 0.00603291 0)
(0.00137814 0.00607932 0)
(0.0022892 0.00617263 0)
(0.00318965 0.00631378 0)
(0.00407497 0.00650418 0)
(0.00494135 0.00674572 0)
(0.0057854 0.00704071 0)
(0.00660416 0.00739191 0)
(0.00739513 0.0078025 0)
(0.00815635 0.00827603 0)
(0.00888639 0.00881644 0)
(0.00958433 0.00942797 0)
(0.0102497 0.0101151 0)
(0.0108827 0.0108827 0)
(0.0114836 0.0117355 0)
(0.0120531 0.0126787 0)
(0.0125923 0.013717 0)
(0.0131022 0.0148556 0)
(0.0135839 0.0160989 0)
(0.0140382 0.0174514 0)
(0.0144659 0.0189168 0)
(0.0148671 0.0204985 0)
(0.0152415 0.0221988 0)
(0.0155884 0.0240193 0)
(0.0159059 0.0259603 0)
(0.0161916 0.0280208 0)
(0.0164423 0.0301984 0)
(0.0166537 0.032489 0)
(0.0168207 0.0348868 0)
(0.0169375 0.0373837 0)
(0.0169975 0.0399698 0)
(0.0169935 0.042633 0)
(0.0169181 0.0453587 0)
(0.0167635 0.0481305 0)
(0.0165221 0.0509293 0)
(0.0161868 0.0537343 0)
(0.0157509 0.0565227 0)
(0.0152088 0.0592698 0)
(0.0145565 0.0619498 0)
(0.013791 0.0645357 0)
(0.0129117 0.0670002 0)
(0.0119196 0.0693158 0)
(0.0108183 0.0714554 0)
(0.00961349 0.073393 0)
(0.00831315 0.0751045 0)
(0.00692755 0.0765675 0)
(0.00546898 0.0777627 0)
(0.00395125 0.078674 0)
(0.00238744 0.0792887 0)
(0.000797737 0.0795981 0)
(0.000484619 0.00613173 0)
(0.00145135 0.00618269 0)
(0.00241207 0.00628514 0)
(0.00336344 0.00644017 0)
(0.00430142 0.00664938 0)
(0.00522271 0.00691493 0)
(0.00612439 0.00723945 0)
(0.00700393 0.0076261 0)
(0.00785929 0.00807851 0)
(0.0086889 0.00860075 0)
(0.00949171 0.00919734 0)
(0.0102671 0.00987315 0)
(0.011015 0.0106334 0)
(0.0117355 0.0114836 0)
(0.0124294 0.0124294 0)
(0.0130973 0.0134766 0)
(0.0137401 0.0146311 0)
(0.0143589 0.0158986 0)
(0.0149543 0.0172846 0)
(0.0155268 0.0187945 0)
(0.0160766 0.0204327 0)
(0.0166031 0.0222034 0)
(0.0171051 0.0241097 0)
(0.0175807 0.0261538 0)
(0.0180268 0.0283364 0)
(0.0184396 0.0306569 0)
(0.0188139 0.0331131 0)
(0.0191439 0.0357007 0)
(0.0194223 0.0384134 0)
(0.0196411 0.0412428 0)
(0.0197914 0.0441777 0)
(0.0198638 0.0472048 0)
(0.0198482 0.0503078 0)
(0.0197345 0.0534679 0)
(0.0195129 0.0566637 0)
(0.0191738 0.0598712 0)
(0.0187088 0.0630642 0)
(0.0181107 0.0662144 0)
(0.0173737 0.0692917 0)
(0.0164945 0.0722647 0)
(0.0154717 0.0751015 0)
(0.0143068 0.0777698 0)
(0.0130039 0.0802379 0)
(0.0115703 0.082475 0)
(0.010016 0.0844526 0)
(0.00835392 0.0861443 0)
(0.00659955 0.0875272 0)
(0.00477042 0.0885821 0)
(0.00288353 0.0892939 0)
(0.00096381 0.0896521 0)
(0.000511255 0.00617481 0)
(0.00153154 0.00623048 0)
(0.00254667 0.00634243 0)
(0.0035539 0.00651188 0)
(0.00454973 0.00674067 0)
(0.00553142 0.00703122 0)
(0.00649658 0.00738653 0)
(0.00744321 0.00781019 0)
(0.00836978 0.00830633 0)
(0.00927518 0.0088796 0)
(0.0101588 0.00953513 0)
(0.0110204 0.0102785 0)
(0.0118602 0.0111157 0)
(0.0126787 0.0120531 0)
(0.0134766 0.0130973 0)
(0.0142548 0.0142548 0)
(0.0150143 0.0155327 0)
(0.0157558 0.0169376 0)
(0.0164798 0.0184761 0)
(0.0171863 0.0201543 0)
(0.0178749 0.021978 0)
(0.0185441 0.0239521 0)
(0.0191919 0.0260806 0)
(0.019815 0.0283664 0)
(0.020409 0.030811 0)
(0.0209683 0.0334143 0)
(0.0214861 0.0361742 0)
(0.021954 0.0390865 0)
(0.0223628 0.0421446 0)
(0.0227018 0.0453395 0)
(0.0229595 0.0486592 0)
(0.0231236 0.0520887 0)
(0.0231812 0.05561 0)
(0.0231194 0.059202 0)
(0.0229255 0.0628404 0)
(0.0225873 0.066498 0)
(0.022094 0.0701446 0)
(0.0214363 0.0737478 0)
(0.0206068 0.0772726 0)
(0.0196009 0.0806828 0)
(0.0184168 0.0839409 0)
(0.017056 0.0870092 0)
(0.0155236 0.0898504 0)
(0.0138282 0.0924285 0)
(0.0119825 0.0947095 0)
(0.0100022 0.0966622 0)
(0.00790671 0.0982595 0)
(0.00571792 0.0994785 0)
(0.00345752 0.100301 0)
(0.00115599 0.100716 0)
(0.000540293 0.00616384 0)
(0.00161897 0.0062244 0)
(0.00269347 0.00634617 0)
(0.00376168 0.00653057 0)
(0.00482075 0.00677965 0)
(0.00586857 0.00709614 0)
(0.00690336 0.00748345 0)
(0.00792372 0.00794561 0)
(0.00892869 0.00848731 0)
(0.0099177 0.00911382 0)
(0.0108906 0.00983099 0)
(0.0118477 0.0106452 0)
(0.0127896 0.0115632 0)
(0.013717 0.0125923 0)
(0.0146311 0.0137401 0)
(0.0155327 0.0150143 0)
(0.0164229 0.0164229 0)
(0.0173022 0.0179736 0)
(0.018171 0.0196743 0)
(0.0190288 0.0215323 0)
(0.0198744 0.0235543 0)
(0.0207057 0.0257466 0)
(0.0215195 0.0281141 0)
(0.0223111 0.0306607 0)
(0.0230747 0.0333887 0)
(0.0238027 0.0362987 0)
(0.0244861 0.039389 0)
(0.0251143 0.0426555 0)
(0.0256753 0.0460917 0)
(0.0261556 0.0496879 0)
(0.0265405 0.053431 0)
(0.0268146 0.0573049 0)
(0.0269615 0.0612895 0)
(0.0269649 0.0653613 0)
(0.0268089 0.0694929 0)
(0.0264781 0.0736534 0)
(0.0259586 0.0778085 0)
(0.0252386 0.0819206 0)
(0.0243088 0.0859497 0)
(0.0231628 0.0898537 0)
(0.0217981 0.0935888 0)
(0.0202163 0.0971111 0)
(0.0184232 0.100377 0)
(0.0164293 0.103343 0)
(0.0142497 0.10597 0)
(0.011904 0.108221 0)
(0.00941584 0.110064 0)
(0.00681231 0.111471 0)
(0.00412069 0.112421 0)
(0.00137806 0.1129 0)
(0.00057181 0.00610125 0)
(0.00171387 0.00616684 0)
(0.00285285 0.00629875 0)
(0.00398737 0.00649855 0)
(0.0051153 0.00676857 0)
(0.00623521 0.00711186 0)
(0.00734605 0.00753226 0)
(0.00844708 0.00803431 0)
(0.00953799 0.00862328 0)
(0.0106189 0.00930513 0)
(0.0116901 0.0100865 0)
(0.0127526 0.0109745 0)
(0.0138073 0.011977 0)
(0.0148556 0.0131022 0)
(0.0158986 0.0143589 0)
(0.0169376 0.0157558 0)
(0.0179736 0.0173022 0)
(0.0190072 0.0190072 0)
(0.0200384 0.0208799 0)
(0.0210663 0.0229289 0)
(0.0220892 0.0251625 0)
(0.0231039 0.0275879 0)
(0.024106 0.0302117 0)
(0.0250896 0.0330387 0)
(0.026047 0.0360723 0)
(0.0269686 0.039314 0)
(0.0278429 0.0427627 0)
(0.0286568 0.0464148 0)
(0.0293951 0.0502637 0)
(0.0300411 0.0542993 0)
(0.0305766 0.0585078 0)
(0.0309821 0.0628716 0)
(0.0312376 0.0673686 0)
(0.0313228 0.0719727 0)
(0.0312176 0.0766533 0)
(0.0309028 0.0813753 0)
(0.0303612 0.0860997 0)
(0.0295775 0.0907837 0)
(0.0285398 0.0953809 0)
(0.02724 0.0998427 0)
(0.0256742 0.104118 0)
(0.0238438 0.108156 0)
(0.0217556 0.111904 0)
(0.0194218 0.115314 0)
(0.0168606 0.118336 0)
(0.0140958 0.120929 0)
(0.0111563 0.123052 0)
(0.00807507 0.124675 0)
(0.00488616 0.125771 0)
(0.00163445 0.126323 0)
(0.000605876 0.00599011 0)
(0.00181646 0.00606085 0)
(0.00302518 0.00620314 0)
(0.0042315 0.00641876 0)
(0.00543407 0.00671028 0)
(0.00663227 0.00708113 0)
(0.00782581 0.00753558 0)
(0.00901474 0.00807873 0)
(0.0101995 0.0087165 0)
(0.0113809 0.00945557 0)
(0.01256 0.0103034 0)
(0.0137383 0.0112681 0)
(0.0149173 0.0123585 0)
(0.0160989 0.0135839 0)
(0.0172846 0.0149543 0)
(0.0184761 0.0164798 0)
(0.0196743 0.018171 0)
(0.0208799 0.0200384 0)
(0.0220927 0.0220927 0)
(0.0233113 0.0243439 0)
(0.0245334 0.026802 0)
(0.0257549 0.0294757 0)
(0.0269702 0.032373 0)
(0.0281718 0.0355004 0)
(0.02935 0.0388624 0)
(0.0304931 0.0424616 0)
(0.031587 0.046298 0)
(0.0326154 0.0503685 0)
(0.0335598 0.0546667 0)
(0.0343997 0.0591824 0)
(0.0351128 0.0639011 0)
(0.0356754 0.0688038 0)
(0.0360626 0.0738665 0)
(0.0362496 0.0790603 0)
(0.0362115 0.0843511 0)
(0.0359245 0.0896994 0)
(0.035367 0.0950611 0)
(0.0345198 0.100387 0)
(0.0333678 0.105624 0)
(0.0319 0.110716 0)
(0.0301114 0.115604 0)
(0.0280025 0.120227 0)
(0.025581 0.124526 0)
(0.0228612 0.128441 0)
(0.0198647 0.131916 0)
(0.01662 0.134899 0)
(0.013162 0.137345 0)
(0.00953112 0.139215 0)
(0.00576913 0.140479 0)
(0.00193025 0.141116 0)
(0.000642548 0.00583406 0)
(0.00192691 0.00591005 0)
(0.00321076 0.00606294 0)
(0.00449451 0.00629468 0)
(0.00577766 0.00660814 0)
(0.00706051 0.00700715 0)
(0.00834365 0.00749644 0)
(0.009628 0.00808171 0)
(0.0109148 0.00876956 0)
(0.0122057 0.00956746 0)
(0.0135027 0.0104838 0)
(0.0148077 0.0115276 0)
(0.0161232 0.0127089 0)
(0.0174514 0.0140382 0)
(0.0187945 0.0155268 0)
(0.0201543 0.0171863 0)
(0.0215323 0.0190288 0)
(0.0229289 0.0210663 0)
(0.0243439 0.0233113 0)
(0.0257757 0.0257757 0)
(0.027221 0.0284709 0)
(0.0286749 0.0314078 0)
(0.0301307 0.034596 0)
(0.031579 0.0380437 0)
(0.0330082 0.0417571 0)
(0.0344041 0.0457403 0)
(0.0357498 0.0499944 0)
(0.0370255 0.0545173 0)
(0.038209 0.0593032 0)
(0.0392755 0.0643419 0)
(0.0401979 0.0696184 0)
(0.0409475 0.0751125 0)
(0.0414942 0.0807984 0)
(0.0418074 0.0866443 0)
(0.0418567 0.0926124 0)
(0.0416129 0.0986587 0)
(0.0410488 0.104733 0)
(0.0401407 0.110779 0)
(0.038869 0.116737 0)
(0.0372197 0.122541 0)
(0.0351853 0.128123 0)
(0.0327657 0.133412 0)
(0.0299689 0.138338 0)
(0.0268115 0.14283 0)
(0.023319 0.146823 0)
(0.0195253 0.150255 0)
(0.0154725 0.153072 0)
(0.0112094 0.155227 0)
(0.00678731 0.156684 0)
(0.00227143 0.157419 0)
(0.000681867 0.00563726 0)
(0.00204534 0.00571857 0)
(0.00340981 0.00588217 0)
(0.00477671 0.00613025 0)
(0.00614654 0.00646597 0)
(0.00752056 0.00689355 0)
(0.00890037 0.00741826 0)
(0.0102879 0.0080464 0)
(0.0116853 0.00878531 0)
(0.0130951 0.00964331 0)
(0.0145201 0.0106297 0)
(0.0159634 0.0117547 0)
(0.017428 0.0130295 0)
(0.0189168 0.0144659 0)
(0.0204327 0.0160766 0)
(0.021978 0.0178749 0)
(0.0235543 0.0198744 0)
(0.0251625 0.0220892 0)
(0.026802 0.0245334 0)
(0.0284709 0.027221 0)
(0.0301655 0.0301655 0)
(0.03188 0.0333799 0)
(0.0336061 0.0368758 0)
(0.0353329 0.0406635 0)
(0.0370466 0.0447513 0)
(0.0387303 0.0491451 0)
(0.040364 0.0538475 0)
(0.0419242 0.0588578 0)
(0.0433844 0.0641711 0)
(0.0447149 0.0697776 0)
(0.0458834 0.0756622 0)
(0.0468554 0.0818037 0)
(0.0475945 0.0881746 0)
(0.0480637 0.0947402 0)
(0.0482258 0.101459 0)
(0.048045 0.108282 0)
(0.0474878 0.115152 0)
(0.0465242 0.122007 0)
(0.0451297 0.128776 0)
(0.0432858 0.135384 0)
(0.0409821 0.141753 0)
(0.038217 0.147799 0)
(0.0349989 0.15344 0)
(0.0313466 0.158593 0)
(0.0272897 0.163181 0)
(0.0228687 0.167128 0)
(0.0181338 0.170372 0)
(0.0131438 0.172855 0)
(0.0079614 0.174536 0)
(0.00266495 0.175384 0)
(0.000723854 0.00540428 0)
(0.00217182 0.00549092 0)
(0.00362244 0.0056653 0)
(0.0050783 0.00592979 0)
(0.00654096 0.0062879 0)
(0.0080128 0.00674426 0)
(0.00949651 0.00730469 0)
(0.010995 0.00797615 0)
(0.0125117 0.00876673 0)
(0.0140501 0.00968566 0)
(0.0156141 0.0107433 0)
(0.0172075 0.0119509 0)
(0.0188343 0.0133211 0)
(0.0204985 0.0148671 0)
(0.0222034 0.0166031 0)
(0.0239521 0.0185441 0)
(0.0257466 0.0207057 0)
(0.0275879 0.0231039 0)
(0.0294757 0.0257549 0)
(0.0314078 0.0286749 0)
(0.0333799 0.03188 0)
(0.0353852 0.0353852 0)
(0.0374143 0.0392049 0)
(0.0394545 0.0433518 0)
(0.0414897 0.0478364 0)
(0.0435003 0.0526669 0)
(0.0454626 0.0578483 0)
(0.0473492 0.0633815 0)
(0.0491289 0.069263 0)
(0.0507666 0.0754838 0)
(0.052224 0.0820292 0)
(0.0534598 0.0888773 0)
(0.0544307 0.095999 0)
(0.0550918 0.103357 0)
(0.0553981 0.110906 0)
(0.0553059 0.118592 0)
(0.0547738 0.12635 0)
(0.0537645 0.134111 0)
(0.0522468 0.141793 0)
(0.0501969 0.149311 0)
(0.0476001 0.156572 0)
(0.0444528 0.163481 0)
(0.040763 0.169939 0)
(0.036552 0.175849 0)
(0.0318539 0.181119 0)
(0.0267164 0.185661 0)
(0.0211995 0.189396 0)
(0.0153739 0.192259 0)
(0.00931564 0.194199 0)
(0.00311898 0.195177 0)
(0.000768509 0.00514001 0)
(0.00230635 0.00523196 0)
(0.00384868 0.00541706 0)
(0.00539931 0.00569791 0)
(0.00696101 0.00607834 0)
(0.00853736 0.00656345 0)
(0.0101323 0.00715959 0)
(0.0117499 0.00787442 0)
(0.0133948 0.00871685 0)
(0.0150716 0.00969705 0)
(0.0167854 0.0108264 0)
(0.0185413 0.0121176 0)
(0.0203441 0.0135843 0)
(0.0221988 0.0152415 0)
(0.0241097 0.0171051 0)
(0.0260806 0.0191919 0)
(0.0281141 0.0215195 0)
(0.0302117 0.024106 0)
(0.032373 0.0269702 0)
(0.034596 0.0301307 0)
(0.0368758 0.0336061 0)
(0.0392049 0.0374143 0)
(0.0415726 0.0415726 0)
(0.0439643 0.0460964 0)
(0.0463618 0.0509993 0)
(0.0487422 0.0562922 0)
(0.0510785 0.0619826 0)
(0.0533389 0.0680741 0)
(0.0554867 0.0745649 0)
(0.0574811 0.0814478 0)
(0.0592769 0.0887084 0)
(0.0608252 0.0963252 0)
(0.0620744 0.104268 0)
(0.0629709 0.112497 0)
(0.0634603 0.120962 0)
(0.0634892 0.129605 0)
(0.0630068 0.138354 0)
(0.061967 0.147128 0)
(0.0603299 0.155838 0)
(0.0580648 0.164384 0)
(0.0551517 0.172658 0)
(0.0515835 0.180549 0)
(0.0473675 0.187942 0)
(0.042527 0.194721 0)
(0.0371012 0.200777 0)
(0.031146 0.206004 0)
(0.0247327 0.210309 0)
(0.0179461 0.213612 0)
(0.0108786 0.215851 0)
(0.00364315 0.216981 0)
(0.000815807 0.00484958 0)
(0.00244887 0.00494676 0)
(0.00408839 0.00514242 0)
(0.00573959 0.0054394 0)
(0.0074065 0.00584187 0)
(0.00909405 0.00635538 0)
(0.0108075 0.00698688 0)
(0.0125523 0.00774472 0)
(0.0143344 0.00863867 0)
(0.0161597 0.00967987 0)
(0.0180346 0.0108809 0)
(0.0199654 0.0122556 0)
(0.0219583 0.0138192 0)
(0.0240193 0.0155884 0)
(0.0261538 0.0175807 0)
(0.0283664 0.019815 0)
(0.0306607 0.0223111 0)
(0.0330387 0.0250896 0)
(0.0355004 0.0281718 0)
(0.0380437 0.031579 0)
(0.0406635 0.0353329 0)
(0.0433518 0.0394545 0)