/*--------------------------------*- C++ -*----------------------------------*\
| =========                 |                                                 |
| \\      /  F ield         | OpenFOAM: The Open Source CFD Toolbox           |
|  \\    /   O peration     | Version:  2406                                  |
|   \\  /    A nd           | Website:  www.openfoam.com                      |
|    \\/     M anipulation  |                                                 |
\*---------------------------------------------------------------------------*/
FoamFile
{
    version     2.0;
    format      ascii;
    arch        "LSB;label=32;scalar=64";
    class       volScalarField;
    location    "0.95";
    object      gradTy;
}
// * * * * * * * * * * * * * * * * * * * * * * * * * * * * * * * * * * * * * //

dimensions      [0 -1 0 1 0 0 0];

internalField   nonuniform List<scalar> 
2500
(
0.00316544
0.00317939
0.00320831
0.00325178
0.00331015
0.00338387
0.00347344
0.00357945
0.00370258
0.00384356
0.00400322
0.00418241
0.00438202
0.00460298
0.00484619
0.00511255
0.00540293
0.0057181
0.00605876
0.00642548
0.00681867
0.00723854
0.00768509
0.00815807
0.00865693
0.00918081
0.00972849
0.0102984
0.0108886
0.0114966
0.0121198
0.0127548
0.0133981
0.0140457
0.0146931
0.0153359
0.0159689
0.016587
0.0171849
0.0177573
0.0182987
0.0188039
0.0192677
0.0196854
0.0200527
0.0203655
0.0206205
0.020815
0.0209457
0.0210054
0.0094543
0.00949717
0.00958404
0.00971479
0.00989045
0.0101123
0.0103818
0.0107008
0.0110714
0.0114957
0.0119762
0.0125155
0.0131163
0.0137814
0.0145135
0.0153154
0.0161897
0.0171387
0.0181646
0.0192691
0.0204534
0.0217182
0.0230635
0.0244887
0.025992
0.0275708
0.0292217
0.0309397
0.0327191
0.0345525
0.0364317
0.038347
0.0402874
0.042241
0.0441945
0.0461339
0.0480442
0.0499098
0.0517147
0.0534425
0.055077
0.0566022
0.0580028
0.0592643
0.0603732
0.0613178
0.0620879
0.0626756
0.0630742
0.0632668
0.0156371
0.0157095
0.0158547
0.0160737
0.0163679
0.0167396
0.0171912
0.0177258
0.0183469
0.0190582
0.0198638
0.0207683
0.0217761
0.022892
0.0241207
0.0254667
0.0269347
0.0285285
0.0302518
0.0321076
0.0340981
0.0362244
0.0384868
0.0408839
0.0434132
0.0460704
0.0488494
0.0517423
0.0547391
0.057828
0.0609946
0.0642229
0.0674944
0.0707888
0.0740839
0.0773559
0.0805794
0.0837282
0.086775
0.0896923
0.0924525
0.0950286
0.0973945
0.0995256
0.101399
0.102995
0.104295
0.105286
0.105958
0.106293
0.0216521
0.0217539
0.0219585
0.0222671
0.022682
0.0232062
0.0238433
0.0245978
0.0254744
0.0264787
0.0276166
0.0288944
0.0303188
0.0318965
0.0336344
0.035539
0.0376168
0.0398737
0.042315
0.0449451
0.0477671
0.050783
0.0539931
0.0573959
0.0609877
0.0647626
0.0687122
0.0728252
0.0770878
0.0814828
0.0859903
0.0905872
0.0952473
0.0999416
0.104639
0.109304
0.113902
0.118395
0.122743
0.126908
0.130849
0.134529
0.137908
0.140953
0.14363
0.14591
0.147767
0.14918
0.150133
0.150612
0.0274276
0.0275597
0.0278251
0.0282256
0.0287642
0.0294448
0.0302724
0.0312525
0.0323918
0.0336976
0.0351777
0.0368405
0.0386948
0.0407497
0.0430142
0.0454973
0.0482075
0.051153
0.0543407
0.0577766
0.0614654
0.0654096
0.0696101
0.074065
0.0787698
0.0837172
0.0888961
0.0942923
0.0998875
0.105659
0.111582
0.117625
0.123754
0.129931
0.136114
0.142259
0.148317
0.154239
0.159972
0.165466
0.170666
0.175522
0.179984
0.184005
0.18754
0.190551
0.193004
0.19487
0.196127
0.196759
0.0329019
0.0330652
0.0333933
0.0338885
0.0345546
0.0353966
0.0364207
0.0376342
0.0390453
0.0406632
0.0424981
0.0445606
0.0468619
0.0494135
0.0522271
0.0553142
0.0586857
0.0623521
0.0663227
0.0706051
0.0752056
0.080128
0.0853736
0.0909405
0.0968236
0.103014
0.109498
0.116259
0.123273
0.130514
0.137948
0.145537
0.15324
0.161007
0.168786
0.176521
0.18415
0.191612
0.198841
0.205769
0.212331
0.21846
0.224094
0.229172
0.233639
0.237443
0.240543
0.2429
0.244488
0.245287
0.0380178
0.0382133
0.0386063
0.0391996
0.0399979
0.0410073
0.0422354
0.0436913
0.0453851
0.0473283
0.0495332
0.0520131
0.0547819
0.057854
0.0612439
0.0649658
0.0690336
0.0734605
0.0782581
0.0834365
0.0890037
0.0949651
0.101323
0.108075
0.115216
0.122736
0.130619
0.138844
0.147384
0.156206
0.16527
0.17453
0.183935
0.193425
0.202937
0.2124
0.221741
0.230881
0.23974
0.248236
0.256287
0.26381
0.270728
0.276966
0.282454
0.28713
0.29094
0.293839
0.295792
0.296773
0.0427236
0.0429528
0.0434132
0.0441085
0.0450442
0.0462279
0.0476688
0.0493776
0.0513668
0.0536503
0.0562429
0.059161
0.0624214
0.0660416
0.0700393
0.0744321
0.0792372
0.0844708
0.0901474
0.09628
0.102879
0.10995
0.117499
0.125523
0.134017
0.142969
0.152361
0.162169
0.172362
0.1829
0.193737
0.204817
0.216079
0.227453
0.23886
0.250219
0.261438
0.272423
0.283078
0.293303
0.302997
0.312061
0.3204
0.327922
0.334542
0.340185
0.344783
0.348283
0.35064
0.351825
0.0469743
0.0472384
0.0477691
0.0485708
0.04965
0.0510158
0.0526791
0.0546528
0.0569518
0.0595925
0.0625929
0.0659725
0.0697516
0.0739513
0.0785929
0.0836978
0.0892869
0.0953799
0.101995
0.109148
0.116853
0.125117
0.133948
0.143344
0.153299
0.163802
0.174832
0.186362
0.198355
0.210767
0.223542
0.236617
0.249918
0.263363
0.276859
0.290309
0.303605
0.316634
0.32928
0.341424
0.352946
0.363725
0.373647
0.382601
0.390486
0.397209
0.402689
0.40686
0.409671
0.411084
0.0507315
0.0510321
0.0516363
0.0525491
0.0537785
0.0553349
0.0572313
0.059483
0.0621074
0.0651242
0.0685546
0.0724217
0.0767496
0.0815635
0.086889
0.0927518
0.099177
0.106189
0.113809
0.122057
0.130951
0.140501
0.150716
0.161597
0.173138
0.185327
0.198141
0.211551
0.225514
0.239979
0.254884
0.270154
0.285704
0.301438
0.317247
0.333017
0.34862
0.363924
0.37879
0.393077
0.406641
0.419341
0.431037
0.441599
0.450904
0.45884
0.465313
0.47024
0.473561
0.475231
0.0539643
0.0543032
0.0549841
0.0560133
0.0573999
0.0591562
0.0612973
0.063841
0.066808
0.0702211
0.0741055
0.0784882
0.0833977
0.0888639
0.0949171
0.101588
0.108906
0.116901
0.1256
0.135027
0.145201
0.156141
0.167854
0.180346
0.193611
0.207637
0.222401
0.237867
0.253991
0.270715
0.287966
0.305659
0.323698
0.341969
0.360348
0.378699
0.396876
0.414721
0.432071
0.44876
0.464618
0.479476
0.49317
0.505543
0.51645
0.525757
0.53335
0.539133
0.54303
0.54499
0.05665
0.0570288
0.0577902
0.0589411
0.0604924
0.0624583
0.0648562
0.067707
0.0710346
0.0748657
0.0792296
0.0841579
0.0896842
0.0958433
0.102671
0.110204
0.118477
0.127526
0.137383
0.148077
0.159634
0.172075
0.185413
0.199654
0.214796
0.230827
0.247721
0.265443
0.283941
0.303151
0.322992
0.343367
0.364164
0.385255
0.406495
0.427727
0.44878
0.469471
0.489609
0.508998
0.527438
0.54473
0.56068
0.575101
0.58782
0.598681
0.607544
0.614296
0.618849
0.621139
0.0587738
0.0591944
0.0600397
0.0613181
0.0630418
0.0652273
0.0678948
0.0710682
0.0747753
0.0790469
0.0839171
0.0894227
0.0956025
0.102497
0.11015
0.118602
0.127896
0.138073
0.149173
0.161232
0.17428
0.188343
0.203441
0.219583
0.236769
0.254988
0.274214
0.294409
0.315517
0.337467
0.360168
0.383512
0.407371
0.431598
0.456028
0.480479
0.504753
0.528637
0.55191
0.57434
0.595693
0.615736
0.634238
0.65098
0.665756
0.678379
0.688687
0.696542
0.70184
0.704505
0.0603291
0.0607932
0.0617263
0.0631378
0.0650418
0.0674572
0.0704071
0.0739191
0.078025
0.0827603
0.0881644
0.0942797
0.101151
0.108827
0.117355
0.126787
0.13717
0.148556
0.160989
0.174514
0.189168
0.204985
0.221988
0.240193
0.259603
0.280208
0.301984
0.32489
0.348868
0.373837
0.399698
0.42633
0.453587
0.481305
0.509293
0.537343
0.565227
0.592698
0.619498
0.645357
0.670002
0.693158
0.714554
0.73393
0.751045
0.765675
0.777627
0.78674
0.792887
0.795981
0.0613173
0.0618269
0.0628514
0.0644017
0.0664938
0.0691493
0.0723945
0.076261
0.0807851
0.0860075
0.0919734
0.0987315
0.106334
0.114836
0.124294
0.134766
0.146311
0.158986
0.172846
0.187945
0.204327
0.222034
0.241097
0.261538
0.283364
0.306569
0.331131
0.357007
0.384134
0.412428
0.441777
0.472048
0.503078
0.534679
0.566637
0.598712
0.630642
0.662144
0.692917
0.722647
0.751015
0.777698
0.802379
0.82475
0.844526
0.861443
0.875272
0.885821
0.892939
0.896521
0.0617481
0.0623048
0.0634243
0.0651188
0.0674067
0.0703122
0.0738653
0.0781019
0.0830633
0.088796
0.0953513
0.102785
0.111157
0.120531
0.130973
0.142548
0.155327
0.169376
0.184761
0.201543
0.21978
0.239521
0.260806
0.283664
0.30811
0.334143
0.361742
0.390865
0.421446
0.453395
0.486592
0.520887
0.5561
0.59202
0.628404
0.66498
0.701446
0.737478
0.772726
0.806828
0.839409
0.870092
0.898504
0.924285
0.947095
0.966622
0.982595
0.994785
1.00301
1.00716
0.0616384
0.062244
0.0634617
0.0653057
0.0677965
0.0709614
0.0748345
0.0794561
0.0848731
0.0911382
0.0983099
0.106452
0.115632
0.125923
0.137401
0.150143
0.164229
0.179736
0.196743
0.215323
0.235543
0.257466
0.281141
0.306607
0.333887
0.362987
0.39389
0.426555
0.460917
0.496879
0.53431
0.573049
0.612895
0.653613
0.694929
0.736534
0.778085
0.819206
0.859497
0.898537
0.935888
0.971111
1.00377
1.03343
1.0597
1.08221
1.10064
1.11471
1.12421
1.129
0.0610125
0.0616684
0.0629875
0.0649855
0.0676857
0.0711186
0.0753226
0.0803431
0.0862328
0.0930513
0.100865
0.109745
0.11977
0.131022
0.143589
0.157558
0.173022
0.190072
0.208799
0.229289
0.251625
0.275879
0.302117
0.330387
0.360723
0.39314
0.427627
0.464148
0.502637
0.542993
0.585078
0.628716
0.673686
0.719727
0.766533
0.813753
0.860997
0.907837
0.953809
0.998427
1.04118
1.08156
1.11904
1.15314
1.18336
1.20929
1.23052
1.24675
1.25771
1.26323
0.0599011
0.0606085
0.0620314
0.0641876
0.0671028
0.0708113
0.0753558
0.0807873
0.087165
0.0945557
0.103034
0.112681
0.123585
0.135839
0.149543
0.164798
0.18171
0.200384
0.220927
0.243439
0.26802
0.294757
0.32373
0.355004
0.388624
0.424616
0.46298
0.503685
0.546667
0.591824
0.639011
0.688038
0.738665
0.790603
0.843511
0.896994
0.950611
1.00387
1.05624
1.10716
1.15604
1.20227
1.24526
1.28441
1.31916
1.34899
1.37345
1.39215
1.40479
1.41116
0.0583406
0.0591005
0.0606294
0.0629468
0.0660814
0.0700715
0.0749644
0.0808171
0.0876956
0.0956746
0.104838
0.115276
0.127089
0.140382
0.155268
0.171863
0.190288
0.210663
0.233113
0.257757
0.284709
0.314078
0.34596
0.380437
0.417571
0.457403
0.499944
0.545173
0.593032
0.643419
0.696184
0.751125
0.807984
0.866443
0.926124
0.986587
1.04733
1.10779
1.16737
1.22541
1.28123
1.33412
1.38338
1.4283
1.46823
1.50255
1.53072
1.55227
1.56684
1.57419
0.0563726
0.0571857
0.0588217
0.0613025
0.0646597
0.0689355
0.0741826
0.080464
0.0878531
0.0964331
0.106297
0.117547
0.130295
0.144659
0.160766
0.178749
0.198744
0.220892
0.245334
0.27221
0.301655
0.333799
0.368758
0.406635
0.447513
0.491451
0.538475
0.588578
0.641711
0.697776
0.756622
0.818037
0.881746
0.947402
1.01459
1.08282
1.15152
1.22007
1.28776
1.35384
1.41753
1.47799
1.5344
1.58593
1.63181
1.67128
1.70372
1.72855
1.74536
1.75384
0.0540428
0.0549092
0.056653
0.0592979
0.062879
0.0674426
0.0730469
0.0797615
0.0876673
0.0968566
0.107433
0.119509
0.133211
0.148671
0.166031
0.185441
0.207057
0.231039
0.257549
0.286749
0.3188
0.353852
0.392049
0.433518
0.478364
0.526669
0.578483
0.633815
0.69263
0.754838
0.820292
0.888773
0.95999
1.03357
1.10906
1.18592
1.2635
1.34111
1.41793
1.49311
1.56572
1.63481
1.69939
1.75849
1.81119
1.85661
1.89396
1.92259
1.94199
1.95177
0.0514001
0.0523196
0.0541706
0.0569791
0.0607834
0.0656345
0.0715959
0.0787442
0.0871685
0.0969705
0.108264
0.121176
0.135843
0.152415
0.171051
0.191919
0.215195
0.24106
0.269702
0.301307
0.336061
0.374143
0.415726
0.460964
0.509993
0.562922
0.619826
0.680741
0.745649
0.814478
0.887084
0.963252
1.04268
1.12497
1.20962
1.29605
1.38354
1.47128
1.55838
1.64384
1.72658
1.80549
1.87942
1.94721
2.00777
2.06004
2.10309
2.13612
2.15851
2.16981
0.0484958
0.0494676
0.0514242
0.054394
0.0584187
0.0635538
0.0698688
0.0774472
0.0863867
0.0967987
0.108809
0.122556
0.138192
0.155884
0.175807
0.19815
0.223111
0.250896
0.281718
0.31579
0.353329
0.394545
0.439643
0.488812
0.542222
0.600016
0.662302
0.729145
0.800557
0.876486
0.956806
1.04131
1.12967
1.2215
1.31625
1.41327
1.51179
1.61089
1.70954
1.80661
1.90086
1.99098
2.07561
2.15341
2.22303
2.28323
2.33289
2.37103
2.3969
2.40997
0.0453824
0.0464051
0.0484645
0.0515915
0.0558312
0.0612438
0.0679047
0.0759048
0.0853503
0.0963631
0.10908
0.123654
0.140253
0.159059
0.180268
0.20409
0.230747
0.26047
0.2935
0.330082
0.370466
0.414897
0.463618
0.516856
0.574821
0.637699
0.705637
0.77874
0.857056
0.940564
1.02916
1.12265
1.22073
1.32297
1.42881
1.53755
1.64832
1.76011
1.87176
1.98197
2.08929
2.19222
2.28914
2.37845
2.45856
2.52796
2.5853
2.62941
2.65935
2.67449
0.0421128
0.0431844
0.0453425
0.0486205
0.053067
0.0587468
0.0657416
0.0741495
0.0840858
0.0956825
0.109089
0.124472
0.142014
0.161916
0.184396
0.209683
0.238027
0.269686
0.304931
0.344041
0.387303
0.435003
0.487422
0.544837
0.607502
0.675652
0.749485
0.829154
0.914752
1.0063
1.10374
1.20689
1.31547
1.42905
1.54704
1.66868
1.79305
1.91902
2.04528
2.17034
2.29255
2.41011
2.52116
2.62378
2.71605
2.79618
2.8625
2.91358
2.9483
2.96586
0.0387396
0.0398572
0.0421084
0.0455291
0.0501711
0.0561042
0.0634159
0.072212
0.0826165
0.0947721
0.10884
0.125002
0.143457
0.164423
0.188139
0.214861
0.244861
0.278429
0.31587
0.357498
0.40364
0.454626
0.510785
0.572445
0.639915
0.713486
0.793416
0.879917
0.973143
1.07317
1.17999
1.29347
1.41335
1.53922
1.67047
1.80631
1.94575
2.08753
2.2302
2.37206
2.51121
2.64556
2.77289
2.89091
2.99735
3.09
3.16684
3.22613
3.26648
3.28689
0.0353136
0.0364737
0.0388109
0.0423634
0.0471866
0.0533547
0.0609614
0.0701197
0.0809624
0.0936429
0.108335
0.125234
0.144555
0.166537
0.191439
0.21954
0.251143
0.286568
0.326154
0.370255
0.419242
0.473492
0.533389
0.599315
0.671644
0.750734
0.83691
0.93046
1.03161
1.14051
1.25722
1.38167
1.51365
1.65277
1.79845
1.94986
2.10594
2.26534
2.42644
2.58731
2.74576
2.89937
3.0455
3.18144
3.30442
3.41176
3.50101
3.56999
3.617
3.6408
0.0318836
0.0330818
0.0354964
0.0391675
0.044154
0.0505347
0.0584088
0.0678966
0.0791396
0.0923014
0.107568
0.125149
0.145276
0.168207
0.194223
0.223628
0.256753
0.293951
0.335598
0.38209
0.433844
0.491289
0.554867
0.625025
0.702208
0.786849
0.879357
0.980104
1.08941
1.20752
1.33457
1.47059
1.61543
1.76878
1.93007
2.09849
2.27291
2.45191
2.63367
2.81604
2.99652
3.17226
3.34018
3.497
3.63938
3.76405
3.86798
3.94848
4.00341
4.03126
0.0284954
0.0297266
0.0322081
0.0359821
0.0411106
0.0476767
0.0557851
0.0655629
0.0771599
0.0907496
0.10653
0.124724
0.14558
0.169375
0.196411
0.227018
0.261556
0.300411
0.343997
0.392755
0.447149
0.507666
0.574811
0.649101
0.73106
0.821207
0.920047
1.02806
1.14566
1.27321
1.41098
1.5591
1.71753
1.88604
2.06414
2.25105
2.44562
2.64635
2.85126
3.05796
3.26358
3.46483
3.65805
3.8393
4.00454
4.14974
4.27114
4.36541
4.42984
4.46254
0.0251912
0.0264494
0.0289857
0.0328443
0.03809
0.0448099
0.0531137
0.0631348
0.0750309
0.0889849
0.105206
0.12393
0.145421
0.169975
0.197914
0.229595
0.265405
0.305766
0.351128
0.401979
0.458834
0.52224
0.592769
0.671014
0.757587
0.853104
0.958178
1.0734
1.19934
1.33647
1.48522
1.64586
1.81851
2.00306
2.19913
2.40603
2.62264
2.8474
3.0782
3.3124
3.54675
3.77743
4.00012
4.21009
4.40238
4.57205
4.71439
4.82521
4.9011
4.93967
0.022009
0.0232873
0.0258647
0.0297871
0.0351217
0.041959
0.0504136
0.0606244
0.0727562
0.0870004
0.103576
0.122733
0.144748
0.169935
0.198638
0.231236
0.268146
0.309821
0.356754
0.409475
0.468554
0.534598
0.608252
0.690191
0.78112
0.881763
0.992854
1.11512
1.24928
1.39599
1.55583
1.72927
1.91663
2.11798
2.33312
2.56149
2.80207
3.05329
3.31298
3.57823
3.84542
4.11013
4.36725
4.6111
4.83561
5.03461
5.20219
5.33306
5.42289
5.46859
0.0189822
0.020273
0.0228762
0.0268389
0.0322307
0.0391449
0.0477
0.0580399
0.0703355
0.0847857
0.101619
0.121095
0.143507
0.169181
0.198482
0.231812
0.269615
0.312376
0.360626
0.414942
0.475945
0.544307
0.620744
0.70602
0.800939
0.906341
1.0231
1.15209
1.29419
1.45028
1.62113
1.80747
2.00984
2.22858
2.46373
2.71496
2.98142
3.26165
3.55344
3.8537
4.15841
4.46253
4.76003
5.04404
5.30711
5.54151
5.73977
5.89512
6.00201
6.05647
0.0161392
0.0174342
0.0200463
0.0240237
0.0294377
0.0363839
0.044984
0.0553857
0.0677651
0.0823272
0.0993083
0.118978
0.141639
0.167635
0.197345
0.231194
0.269649
0.313228
0.362496
0.418074
0.480637
0.550918
0.629709
0.717861
0.816284
0.925942
1.04785
1.18306
1.33264
1.49769
1.67925
1.87832
2.09575
2.33221
2.5881
2.8634
3.15757
3.46935
3.79663
4.13625
4.48382
4.83362
5.17861
5.51047
5.81999
6.09743
6.33326
6.51875
6.64672
6.71202
0.0135033
0.0147935
0.0173963
0.0213606
0.0267588
0.0336884
0.0422728
0.052663
0.0650386
0.0796093
0.0966176
0.11634
0.13909
0.165221
0.195129
0.229255
0.268089
0.312176
0.362115
0.418567
0.482258
0.553981
0.634603
0.725062
0.826375
0.939635
1.06601
1.20673
1.3631
1.53644
1.7281
1.93942
2.17162
2.4258
2.70281
3.00309
3.32655
3.67234
4.03861
4.42227
4.81869
5.2215
5.6225
6.01167
6.37752
6.70773
6.98996
7.21288
7.3671
7.44594
0.0110927
0.0123685
0.0149425
0.018864
0.024206
0.0310666
0.0395706
0.0498704
0.0621478
0.0766156
0.09352
0.113143
0.135805
0.161868
0.191738
0.225873
0.264781
0.309028
0.359245
0.416129
0.48045
0.553059
0.634892
0.726974
0.830428
0.946476
1.07644
1.22176
1.38394
1.5646
1.76542
1.98811
2.23437
2.5058
2.80383
3.12954
3.48349
3.86546
4.27414
4.70675
5.15866
5.62296
6.09022
6.54837
6.98308
7.37853
7.71861
7.98844
8.17568
8.27155
0.00892025
0.0101714
0.0126962
0.0165437
0.0217868
0.0285235
0.0368784
0.0470043
0.0590833
0.0733294
0.0899903
0.10935
0.131734
0.157509
0.187088
0.22094
0.259586
0.303612
0.35367
0.410488
0.474878
0.547738
0.630068
0.722975
0.827682
0.945536
1.07802
1.22675
1.39351
1.58018
1.78881
2.02154
2.28061
2.56823
2.88655
3.23748
3.62247
4.04225
4.49641
4.9829
5.49747
6.03296
6.57875
7.12042
7.64
8.11693
8.52988
8.85905
9.0881
9.20556
0.00699348
0.00820955
0.0106639
0.0144051
0.019505
0.0260605
0.034195
0.0440599
0.0558359
0.0697358
0.0860063
0.104931
0.126836
0.152088
0.181107
0.214363
0.252386
0.295775
0.345198
0.401407
0.465242
0.537645
0.61967
0.712491
0.817425
0.935935
1.06965
1.22039
1.39015
1.58115
1.79579
2.03671
2.3067
2.60872
2.94577
3.32078
3.73641
4.19472
4.69669
5.24162
5.82626
6.44379
7.08274
7.72611
8.35128
8.93114
9.43691
9.84183
10.1242
10.2692
0.0053151
0.00648539
0.00884773
0.0124495
0.0173608
0.0236765
0.0315174
0.0410317
0.052397
0.0658222
0.0815504
0.0998619
0.121078
0.145565
0.173737
0.206068
0.243088
0.285398
0.333678
0.38869
0.451297
0.522468
0.603299
0.695021
0.799025
0.916878
1.05034
1.20141
1.37231
1.56555
1.78392
2.03055
2.30886
2.6226
2.97577
3.37253
3.81706
4.31319
4.86396
5.47084
6.13262
6.8439
7.5932
8.3611
9.11912
9.83084
10.4563
10.9587
11.3094
11.4894
0.00388299
0.00499674
0.00724529
0.0106742
0.0153513
0.0213681
0.0288414
0.0379146
0.0487599
0.0615799
0.076611
0.0941266
0.11444
0.13791
0.164945
0.196009
0.231628
0.2724
0.319
0.372197
0.432858
0.501969
0.580648
0.670166
0.771968
0.887699
1.01923
1.16871
1.33855
1.53156
1.75087
2.0001
2.28331
2.60508
2.9705
3.38516
3.85502
4.38622
4.98459
5.65489
6.39945
7.21616
8.09544
9.0165
9.94398
10.8277
11.6096
12.2383
12.6764
12.9007
0.0026906
0.00373716
0.00585034
0.00907348
0.013471
0.0191302
0.0261623
0.0347043
0.0449205
0.057005
0.0711843
0.0877208
0.106916
0.129117
0.154717
0.184168
0.217981
0.256742
0.301114
0.351853
0.409821
0.476001
0.551517
0.637653
0.735884
0.847903
0.975658
1.1214
1.28771
1.47762
1.69458
1.94265
2.22648
2.55147
2.92385
3.35071
3.84007
4.40077
5.04224
5.77383
6.60351
7.53544
8.56567
9.67544
10.8227
11.9365
12.9264
13.719
14.2675
14.5469
0.00172723
0.00269625
0.00465309
0.00763826
0.0117121
0.0169564
0.0234756
0.0313981
0.0408785
0.0520995
0.0652746
0.0806516
0.0985161
0.119196
0.143068
0.17056
0.202163
0.238438
0.280025
0.327657
0.38217
0.444528
0.515835
0.597364
0.690588
0.797209
0.919207
1.05889
1.21895
1.40255
1.61341
1.85592
2.13525
2.45753
2.83004
3.26135
3.7616
4.34263
5.01808
5.8032
6.71407
7.76536
8.96545
10.3061
11.7443
13.1786
14.4501
15.4533
16.1373
16.4822
0.000978487
0.00186008
0.00364055
0.00635705
0.010065
0.0148396
0.0207769
0.0279953
0.0366374
0.0468717
0.0588958
0.0729391
0.0892666
0.108183
0.130039
0.155236
0.184232
0.217556
0.25581
0.299689
0.349989
0.40763
0.473675
0.549355
0.636102
0.735587
0.849767
0.980945
1.13184
1.30568
1.50631
1.73834
2.00729
2.31985
2.68414
3.11001
3.60954
4.19748
4.89187
5.71468
6.69221
7.85467
9.23298
10.8478
12.6786
14.5921
16.2508
17.5159
18.3551
18.7714
0.000426577
0.00121154
0.00279698
0.00521609
0.00851862
0.0127721
0.0180631
0.024498
0.0322053
0.0413371
0.0520718
0.0646169
0.0792123
0.0961349
0.115703
0.138282
0.164293
0.194218
0.228612
0.268115
0.313466
0.36552
0.42527
0.493873
0.572683
0.663291
0.767573
0.887754
1.02649
1.18695
1.37298
1.58922
1.84133
2.13629
2.48271
2.89131
3.37558
3.95257
4.64412
5.47849
6.49266
7.73553
9.27156
11.1811
13.5379
16.2683
18.4533
20.0122
21.0039
21.4849
5.07542e-05
0.000730772
0.00210426
0.00419988
0.00706096
0.0107465
0.0153321
0.0209108
0.0275951
0.0355182
0.0448364
0.0557319
0.0684157
0.0831315
0.10016
0.119825
0.142497
0.168606
0.198647
0.23319
0.272897
0.318539
0.371012
0.431366
0.500837
0.580883
0.673237
0.779968
0.903561
1.04702
1.214
1.40899
1.63751
1.90645
2.22447
2.60251
3.05462
3.59901
4.25965
5.06876
6.07081
7.32977
8.94324
11.0741
14.0304
18.4968
21.2887
23.0829
24.1704
24.6866
-0.000172353
0.000395475
0.00154232
0.00329145
0.00567924
0.00875533
0.0125832
0.0172414
0.0228244
0.0294444
0.0372332
0.0463445
0.0569566
0.0692755
0.0835392
0.100022
0.11904
0.140958
0.1662
0.195253
0.228687
0.267164
0.31146
0.362486
0.421318
0.489235
0.56776
0.658727
0.764349
0.887322
1.03095
1.19933
1.39754
1.63199
1.91081
2.24442
2.64634
3.1343
3.73196
4.47145
5.39756
6.57512
8.1033
10.1474
13.0187
17.4057
20.1281
21.8662
22.9145
23.4105
-0.000268424
0.000181089
0.0010894
0.0024726
0.00436001
0.0067913
0.00981714
0.0134999
0.0179149
0.0231515
0.0293146
0.0365268
0.0449303
0.0546898
0.0659955
0.0790671
0.0941584
0.111563
0.13162
0.154725
0.181338
0.211995
0.247327
0.288077
0.335127
0.389525
0.45253
0.52566
0.610758
0.710083
0.826421
0.963235
1.12488
1.31685
1.5462
1.822
2.15611
2.56412
3.06679
3.69199
4.47744
5.47449
6.75222
8.39827
10.4962
12.9844
14.9566
16.3443
17.2161
17.6354
-0.000265067
6.01842e-05
0.000721216
0.00172273
0.00308778
0.00484579
0.00703375
0.00969708
0.0128905
0.0166789
0.0211388
0.0263592
0.0324438
0.0395125
0.0477042
0.0571792
0.0681231
0.0807507
0.0953112
0.112094
0.131438
0.153739
0.179461
0.209156
0.243478
0.283206
0.329282
0.382841
0.44527
0.518276
0.603968
0.704989
0.824665
0.967231
1.13812
1.34438
1.59519
1.9026
2.2825
2.75574
3.34931
4.09684
5.03654
6.20111
7.58718
9.08282
10.3736
11.3423
11.974
12.2836
-0.000190604
-1.76651e-07
0.00040059
0.00100688
0.00183265
0.0028959
0.00421915
0.00583
0.00776166
0.0100536
0.0127521
0.0159115
0.0195945
0.0238744
0.0288353
0.0345752
0.0412069
0.0488616
0.0576913
0.0678731
0.079614
0.0931564
0.108786
0.126841
0.147724
0.171916
0.199998
0.232675
0.270807
0.315456
0.367942
0.429916
0.503469
0.591267
0.69674
0.824334
0.979845
1.17085
1.4072
1.70156
2.06964
2.52951
3.09853
3.78503
4.57123
5.38873
6.11552
6.67981
7.05684
7.24408
-6.956e-05
-9.90483e-06
0.000123061
0.000325763
0.000602015
0.000957698
0.00140034
0.0019392
0.00258541
0.00335219
0.00425509
0.00531228
0.00654488
0.00797737
0.0096381
0.0115599
0.0137806
0.0163445
0.0193025
0.0227143
0.0266495
0.0311898
0.0364315
0.0424886
0.0494971
0.0576198
0.067053
0.0780354
0.090859
0.105884
0.123559
0.144447
0.169261
0.19891
0.234567
0.277751
0.330439
0.39521
0.475394
0.57521
0.699763
0.85465
1.04468
1.27094
1.5257
1.78706
2.02164
2.20638
2.33121
2.39362
)
;

boundaryField
{
    walls
    {
        type            calculated;
        value           nonuniform List<scalar> 
200
(
0
0
0
0
0
0
0
0
0
0
0
0
0
0
0
0
0
0
0
0
0
0
0
0
0
0
0
0
0
0
0
0
0
0
0
0
0
0
0
0
0
0
0
0
0
0
0
0
0
0
0.00316544
0.0094543
0.0156371
0.0216521
0.0274276
0.0329019
0.0380178
0.0427236
0.0469743
0.0507315
0.0539643
0.05665
0.0587738
0.0603291
0.0613173
0.0617481
0.0616384
0.0610125
0.0599011
0.0583406
0.0563726
0.0540428
0.0514001
0.0484958
0.0453824
0.0421128
0.0387396
0.0353136
0.0318836
0.0284954
0.0251912
0.022009
0.0189822
0.0161392
0.0135033
0.0110927
0.00892025
0.00699348
0.0053151
0.00388299
0.0026906
0.00172723
0.000978487
0.000426577
5.07542e-05
-0.000172353
-0.000268424
-0.000265067
-0.000190604
-6.956e-05
0.0210054
0.0632668
0.106293
0.150612
0.196759
0.245287
0.296773
0.351825
0.411084
0.475231
0.54499
0.621139
0.704505
0.795981
0.896521
1.00716
1.129
1.26323
1.41116
1.57419
1.75384
1.95177
2.16981
2.40997
2.67449
2.96586
3.28689
3.6408
4.03126
4.46254
4.93967
5.46859
6.05647
6.71202
7.44594
8.27155
9.20556
10.2692
11.4894
12.9007
14.5469
16.4822
18.7714
21.4849
24.6866
23.4105
17.6354
12.2836
7.24408
2.39362
0
0
0
0
0
0
0
0
0
0
0
0
0
0
0
0
0
0
0
0
0
0
0
0
0
0
0
0
0
0
0
0
0
0
0
0
0
0
0
0
0
0
0
0
0
0
0
0
0
0
)
;
    }
    frontAndBack
    {
        type            empty;
    }
}


// ************************************************************************* //
