/*--------------------------------*- C++ -*----------------------------------*\
| =========                 |                                                 |
| \\      /  F ield         | OpenFOAM: The Open Source CFD Toolbox           |
|  \\    /   O peration     | Version:  2406                                  |
|   \\  /    A nd           | Website:  www.openfoam.com                      |
|    \\/     M anipulation  |                                                 |
\*---------------------------------------------------------------------------*/
FoamFile
{
    version     2.0;
    format      ascii;
    arch        "LSB;label=32;scalar=64";
    class       volScalarField;
    location    "0.95";
    object      T;
}
// * * * * * * * * * * * * * * * * * * * * * * * * * * * * * * * * * * * * * //

dimensions      [0 0 0 1 0 0 0];

internalField   nonuniform List<scalar> 
2500
(
0.181815
0.181941
0.182193
0.182567
0.183059
0.183664
0.184375
0.185184
0.186084
0.187063
0.188113
0.189222
0.190379
0.191573
0.192792
0.194026
0.195262
0.196491
0.197703
0.198887
0.200036
0.201142
0.202198
0.203198
0.204138
0.205013
0.205822
0.206563
0.207235
0.207838
0.208375
0.208846
0.209255
0.209605
0.209901
0.210145
0.210344
0.210502
0.210624
0.210715
0.210779
0.210822
0.210848
0.210862
0.210866
0.210864
0.210859
0.210853
0.210848
0.210845
0.181941
0.182068
0.182321
0.182697
0.183191
0.183799
0.184514
0.185328
0.186232
0.187217
0.188273
0.189389
0.190554
0.191757
0.192986
0.19423
0.195478
0.19672
0.197945
0.199144
0.200309
0.201432
0.202505
0.203524
0.204484
0.205381
0.206211
0.206975
0.20767
0.208298
0.208859
0.209356
0.209791
0.210167
0.210488
0.210759
0.210983
0.211166
0.211311
0.211425
0.211511
0.211575
0.211619
0.211649
0.211668
0.211678
0.211683
0.211685
0.211686
0.211685
0.182193
0.182321
0.182576
0.182955
0.183454
0.184068
0.18479
0.185612
0.186527
0.187523
0.188592
0.189723
0.190904
0.192124
0.193373
0.194638
0.19591
0.197177
0.198429
0.199658
0.200854
0.202011
0.203121
0.204178
0.205177
0.206116
0.206991
0.207801
0.208544
0.20922
0.209832
0.21038
0.210867
0.211295
0.211668
0.211991
0.212266
0.212499
0.212693
0.212853
0.212982
0.213087
0.213169
0.213232
0.21328
0.213316
0.213342
0.21336
0.213371
0.213376
0.182567
0.182697
0.182955
0.18334
0.183846
0.184469
0.185201
0.186037
0.186966
0.187979
0.189068
0.19022
0.191425
0.192673
0.193951
0.195249
0.196556
0.197861
0.199155
0.200429
0.201673
0.202881
0.204045
0.20516
0.206221
0.207223
0.208165
0.209045
0.20986
0.210611
0.211299
0.211925
0.212491
0.212999
0.213452
0.213853
0.214206
0.214515
0.214782
0.215013
0.215209
0.215376
0.215515
0.21563
0.215724
0.215798
0.215855
0.215897
0.215924
0.215937
0.183059
0.183191
0.183454
0.183846
0.184362
0.184996
0.185744
0.186596
0.187546
0.188582
0.189697
0.190878
0.192116
0.1934
0.194718
0.19606
0.197414
0.198772
0.200122
0.201456
0.202765
0.204042
0.20528
0.206473
0.207617
0.208707
0.20974
0.210714
0.211627
0.21248
0.213272
0.214003
0.214676
0.215293
0.215854
0.216363
0.216822
0.217234
0.217602
0.217929
0.218216
0.218468
0.218685
0.21887
0.219026
0.219153
0.219253
0.219327
0.219376
0.2194
0.183664
0.183799
0.184068
0.184469
0.184996
0.185646
0.186412
0.187287
0.188261
0.189327
0.190475
0.191694
0.192973
0.194303
0.195671
0.197069
0.198484
0.199907
0.201329
0.20274
0.204132
0.205497
0.206829
0.208122
0.209371
0.210572
0.211721
0.212816
0.213855
0.214838
0.215763
0.21663
0.217441
0.218196
0.218896
0.219543
0.220139
0.220684
0.221181
0.221631
0.222036
0.222397
0.222714
0.22299
0.223225
0.22342
0.223575
0.223692
0.223769
0.223808
0.184375
0.184514
0.18479
0.185201
0.185744
0.186412
0.187201
0.188102
0.189107
0.190209
0.191397
0.192661
0.193991
0.195377
0.196807
0.198272
0.199762
0.201266
0.202775
0.20428
0.205773
0.207247
0.208695
0.210111
0.21149
0.212827
0.21412
0.215364
0.216558
0.2177
0.218789
0.219825
0.220806
0.221733
0.222605
0.223424
0.224188
0.224899
0.225556
0.22616
0.22671
0.227206
0.227649
0.228037
0.228371
0.22865
0.228875
0.229043
0.229156
0.229212
0.185184
0.185328
0.185612
0.186037
0.186596
0.187287
0.188102
0.189034
0.190077
0.191221
0.192456
0.193774
0.195164
0.196617
0.198121
0.199667
0.201245
0.202846
0.204459
0.206077
0.207692
0.209296
0.210882
0.212445
0.21398
0.215482
0.216946
0.21837
0.219751
0.221086
0.222373
0.223611
0.224798
0.225933
0.227014
0.228039
0.229009
0.22992
0.230771
0.231561
0.232288
0.232949
0.233543
0.234069
0.234523
0.234905
0.235213
0.235445
0.235601
0.235678
0.186084
0.186232
0.186527
0.186966
0.187546
0.188261
0.189107
0.190077
0.191162
0.192355
0.193646
0.195027
0.196488
0.198018
0.199609
0.20125
0.202931
0.204645
0.206381
0.208131
0.209888
0.211645
0.213395
0.215132
0.216851
0.218546
0.220214
0.221851
0.223453
0.225016
0.226539
0.228018
0.229449
0.230831
0.23216
0.233432
0.234646
0.235796
0.236879
0.237892
0.23883
0.239689
0.240465
0.241154
0.241753
0.242258
0.242666
0.242974
0.243181
0.243285
0.187063
0.187217
0.187523
0.187979
0.188582
0.189327
0.190209
0.191221
0.192355
0.193604
0.19496
0.196413
0.197955
0.199575
0.201265
0.203015
0.204817
0.206661
0.208539
0.210443
0.212366
0.2143
0.21624
0.218179
0.220112
0.222034
0.223939
0.225825
0.227685
0.229517
0.231315
0.233076
0.234795
0.236467
0.238088
0.239652
0.241153
0.242585
0.243942
0.245218
0.246405
0.247498
0.248489
0.249373
0.250143
0.250794
0.251321
0.25172
0.251988
0.252122
0.188113
0.188273
0.188592
0.189068
0.189697
0.190475
0.191397
0.192456
0.193646
0.19496
0.196389
0.197924
0.199558
0.201281
0.203084
0.20496
0.206898
0.208892
0.210933
0.213013
0.215126
0.217265
0.219424
0.221596
0.223776
0.225959
0.22814
0.230313
0.232473
0.234615
0.236734
0.238824
0.240877
0.242888
0.24485
0.246753
0.24859
0.250353
0.252031
0.253615
0.255095
0.256462
0.257706
0.258818
0.259789
0.260611
0.261278
0.261784
0.262124
0.262294
0.189222
0.189389
0.189723
0.19022
0.190878
0.191694
0.192661
0.193774
0.195027
0.196413
0.197924
0.199553
0.20129
0.203129
0.205062
0.207079
0.209173
0.211337
0.213563
0.215844
0.218174
0.220546
0.222954
0.225393
0.227856
0.230339
0.232835
0.235339
0.237845
0.240345
0.242834
0.245302
0.247743
0.250146
0.252502
0.2548
0.257028
0.259174
0.261225
0.263168
0.26499
0.266677
0.268216
0.269595
0.270801
0.271824
0.272655
0.273285
0.273709
0.273921
0.190379
0.190554
0.190904
0.191425
0.192116
0.192973
0.193991
0.195164
0.196488
0.197955
0.199558
0.20129
0.203145
0.205115
0.207191
0.209368
0.211637
0.213993
0.216428
0.218937
0.221512
0.224148
0.22684
0.229582
0.232368
0.235192
0.238049
0.24093
0.243831
0.246742
0.249654
0.252558
0.255444
0.258299
0.261109
0.263862
0.266542
0.269132
0.271615
0.273975
0.276193
0.278251
0.280133
0.281822
0.283302
0.284559
0.28558
0.286356
0.286878
0.28714
0.191573
0.191757
0.192124
0.192673
0.1934
0.194303
0.195377
0.196617
0.198018
0.199575
0.201281
0.203129
0.205115
0.207229
0.209468
0.211823
0.214289
0.21686
0.21953
0.222293
0.225145
0.22808
0.231092
0.234176
0.237327
0.240539
0.243804
0.247116
0.250465
0.253844
0.25724
0.260643
0.264038
0.26741
0.270743
0.274019
0.277218
0.280319
0.283301
0.286142
0.288818
0.291307
0.293586
0.295634
0.297431
0.298959
0.300202
0.301147
0.301783
0.302102
0.192792
0.192986
0.193373
0.193951
0.194718
0.195671
0.196807
0.198121
0.199609
0.201265
0.203084
0.205062
0.207191
0.209468
0.211885
0.214439
0.217124
0.219935
0.222868
0.225917
0.229079
0.232348
0.23572
0.23919
0.242752
0.246401
0.250128
0.253926
0.257785
0.261695
0.265642
0.269612
0.273587
0.277551
0.281481
0.285356
0.289151
0.29284
0.296395
0.299789
0.302993
0.305978
0.308716
0.311179
0.313344
0.315186
0.316685
0.317825
0.318593
0.318979
0.194026
0.19423
0.194638
0.195249
0.19606
0.197069
0.198272
0.199667
0.20125
0.203015
0.20496
0.207079
0.209368
0.211823
0.214439
0.217213
0.220141
0.223219
0.226444
0.229811
0.233318
0.236961
0.240736
0.244638
0.248662
0.252801
0.257049
0.261396
0.265831
0.270341
0.274911
0.279525
0.284161
0.288797
0.293409
0.297967
0.302444
0.306805
0.311018
0.315048
0.318858
0.322414
0.325681
0.328624
0.331212
0.333417
0.335213
0.33658
0.3375
0.337963
0.195262
0.195478
0.19591
0.196556
0.197414
0.198484
0.199762
0.201245
0.202931
0.204817
0.206898
0.209173
0.211637
0.214289
0.217124
0.220141
0.223337
0.22671
0.230258
0.233979
0.23787
0.241929
0.246152
0.250536
0.255077
0.259766
0.264598
0.269561
0.274643
0.279831
0.285106
0.290447
0.295831
0.301232
0.306617
0.311955
0.317209
0.322339
0.327304
0.332062
0.336569
0.340781
0.344656
0.348151
0.351227
0.353851
0.355989
0.357617
0.358714
0.359265
0.196491
0.19672
0.197177
0.197861
0.198772
0.199907
0.201266
0.202846
0.204645
0.206661
0.208892
0.211337
0.213993
0.21686
0.219935
0.223219
0.22671
0.230409
0.234313
0.238424
0.24274
0.24726
0.251981
0.256902
0.262017
0.267321
0.272805
0.278458
0.284267
0.290216
0.296284
0.302447
0.308677
0.314942
0.321206
0.327429
0.333567
0.339573
0.345398
0.350989
0.356294
0.361259
0.365831
0.369961
0.3736
0.376705
0.379239
0.381168
0.382469
0.383122
0.197703
0.197945
0.198429
0.199155
0.200122
0.201329
0.202775
0.204459
0.206381
0.208539
0.210933
0.213563
0.216428
0.21953
0.222868
0.226444
0.230258
0.234313
0.23861
0.24315
0.247935
0.252964
0.258237
0.263752
0.269505
0.275492
0.281703
0.288127
0.294749
0.301551
0.308509
0.315596
0.322779
0.330021
0.337279
0.344505
0.351648
0.358652
0.365456
0.371999
0.378216
0.384044
0.389417
0.394276
0.398562
0.402222
0.40521
0.407487
0.409022
0.409794
0.198887
0.199144
0.199658
0.200429
0.201456
0.20274
0.20428
0.206077
0.208131
0.210443
0.213013
0.215844
0.218937
0.222293
0.225917
0.229811
0.233979
0.238424
0.24315
0.248162
0.253461
0.25905
0.264931
0.271102
0.277562
0.284306
0.291324
0.298605
0.306134
0.313889
0.321844
0.329968
0.338223
0.346566
0.354946
0.363309
0.371591
0.379728
0.387648
0.395276
0.402536
0.40935
0.415642
0.421337
0.426366
0.430665
0.434177
0.436854
0.43866
0.439569
0.200036
0.200309
0.200854
0.201673
0.202765
0.204132
0.205773
0.207692
0.209888
0.212366
0.215126
0.218174
0.221512
0.225145
0.229079
0.233318
0.23787
0.24274
0.247935
0.253461
0.259323
0.265527
0.272075
0.278969
0.286208
0.293788
0.3017
0.309934
0.31847
0.327287
0.336356
0.345641
0.355098
0.364678
0.374324
0.383969
0.393542
0.402964
0.412151
0.421016
0.429466
0.437409
0.444752
0.451408
0.457291
0.462324
0.466439
0.469578
0.471696
0.472762
0.201142
0.201432
0.202011
0.202881
0.204042
0.205497
0.207247
0.209296
0.211645
0.2143
0.217265
0.220546
0.224148
0.22808
0.232348
0.236961
0.241929
0.24726
0.252964
0.25905
0.265527
0.272402
0.279681
0.287368
0.295463
0.303964
0.312863
0.322149
0.331803
0.3418
0.352109
0.36269
0.373493
0.384462
0.39553
0.406621
0.417652
0.428531
0.439158
0.449429
0.459237
0.46847
0.477018
0.484775
0.491639
0.497516
0.502325
0.505996
0.508475
0.509722
0.202198
0.202505
0.203121
0.204045
0.20528
0.206829
0.208695
0.210882
0.213395
0.21624
0.219424
0.222954
0.22684
0.231092
0.23572
0.240736
0.246152
0.251981
0.258237
0.264931
0.272075
0.279681
0.287757
0.29631
0.305343
0.314855
0.32484
0.335286
0.346175
0.357481
0.369168
0.381192
0.393498
0.406021
0.418686
0.431405
0.444082
0.456608
0.468869
0.48074
0.492094
0.502801
0.512728
0.521748
0.529739
0.536588
0.542197
0.546481
0.549375
0.550833
0.203198
0.203524
0.204178
0.20516
0.206473
0.208122
0.210111
0.212445
0.215132
0.218179
0.221596
0.225393
0.229582
0.234176
0.23919
0.244638
0.250536
0.256902
0.263752
0.271102
0.278969
0.287368
0.29631
0.305806
0.315862
0.32648
0.337656
0.349378
0.361629
0.374379
0.387593
0.40122
0.4152
0.429461
0.443915
0.458463
0.472994
0.487382
0.501493
0.515183
0.5283
0.540689
0.552194
0.562663
0.571949
0.579918
0.586449
0.591441
0.594815
0.596515
0.204138
0.204484
0.205177
0.206221
0.207617
0.209371
0.21149
0.21398
0.216851
0.220112
0.223776
0.227856
0.232368
0.237327
0.242752
0.248662
0.255077
0.262017
0.269505
0.277562
0.286208
0.295463
0.305343
0.315862
0.327032
0.338855
0.351332
0.364452
0.378198
0.39254
0.40744
0.422844
0.438685
0.454881
0.471336
0.487936
0.504553
0.521044
0.53725
0.553005
0.568129
0.58244
0.595752
0.607884
0.61866
0.627917
0.635513
0.641323
0.645252
0.647232
0.205013
0.205381
0.206116
0.207223
0.208707
0.210572
0.212827
0.215482
0.218546
0.222034
0.225959
0.230339
0.235192
0.240539
0.246401
0.252801
0.259766
0.267321
0.275492
0.284306
0.293788
0.303964
0.314855
0.32648
0.338855
0.351988
0.365881
0.380528
0.395911
0.412002
0.428759
0.446126
0.46403
0.48238
0.501067
0.519965
0.538926
0.557786
0.576364
0.594462
0.611872
0.628378
0.64376
0.657801
0.670292
0.681036
0.689861
0.696617
0.701189
0.703494
0.205822
0.206211
0.206991
0.208165
0.20974
0.211721
0.21412
0.216946
0.220214
0.223939
0.22814
0.232835
0.238049
0.243804
0.250128
0.257049
0.264598
0.272805
0.281703
0.291324
0.3017
0.312863
0.32484
0.337656
0.351332
0.365881
0.381311
0.397618
0.414788
0.432792
0.45159
0.471119
0.491304
0.512043
0.533218
0.554684
0.576275
0.597804
0.619061
0.639818
0.659831
0.678844
0.696599
0.712835
0.727302
0.739765
0.750012
0.757866
0.763184
0.765866
0.206563
0.206975
0.207801
0.209045
0.210714
0.212816
0.215364
0.21837
0.221851
0.225825
0.230313
0.235339
0.24093
0.247116
0.253926
0.261396
0.269561
0.278458
0.288127
0.298605
0.309934
0.322149
0.335286
0.349378
0.364452
0.380528
0.397618
0.415724
0.434836
0.454929
0.475959
0.497865
0.520564
0.543948
0.567886
0.592218
0.616756
0.641288
0.665572
0.689344
0.71232
0.7342
0.754675
0.773438
0.790186
0.804636
0.816535
0.825663
0.831848
0.83497
0.207235
0.20767
0.208544
0.20986
0.211627
0.213855
0.216558
0.219751
0.223453
0.227685
0.232473
0.237845
0.243831
0.250465
0.257785
0.265831
0.274643
0.284267
0.294749
0.306134
0.31847
0.331803
0.346175
0.361629
0.378198
0.395911
0.414788
0.434836
0.456052
0.478413
0.501878
0.526386
0.55185
0.578154
0.605155
0.632678
0.660513
0.688418
0.716119
0.74331
0.769661
0.794819
0.818419
0.840093
0.859479
0.876235
0.890053
0.900665
0.907863
0.911498
0.207838
0.208298
0.20922
0.210611
0.21248
0.214838
0.2177
0.221086
0.225016
0.229517
0.234615
0.240345
0.246742
0.253844
0.261695
0.270341
0.279831
0.290216
0.301551
0.313889
0.327287
0.3418
0.357481
0.374379
0.39254
0.412002
0.432792
0.454929
0.478413
0.503229
0.529341
0.556688
0.585181
0.614699
0.645089
0.676157
0.707673
0.739364
0.770919
0.801986
0.832181
0.86109
0.888283
0.913318
0.935761
0.955199
0.971254
0.983602
0.991985
0.99622
0.208375
0.208859
0.209832
0.211299
0.213272
0.215763
0.218789
0.222373
0.226539
0.231315
0.236734
0.242834
0.249654
0.25724
0.265642
0.274911
0.285106
0.296284
0.308509
0.321844
0.336356
0.352109
0.369168
0.387593
0.40744
0.428759
0.45159
0.475959
0.501878
0.529341
0.558318
0.58875
0.620551
0.653596
0.687721
0.72272
0.758338
0.794272
0.83017
0.865629
0.900205
0.933412
0.964741
0.993665
1.01966
1.04222
1.0609
1.07528
1.08506
1.09
0.208846
0.209356
0.21038
0.211925
0.214003
0.21663
0.219825
0.223611
0.228018
0.233076
0.238824
0.245302
0.252558
0.260643
0.269612
0.279525
0.290447
0.302447
0.315596
0.329968
0.345641
0.36269
0.381192
0.40122
0.422844
0.446126
0.471119
0.497865
0.526386
0.556688
0.58875
0.622523
0.657921
0.694822
0.733054
0.772398
0.812578
0.85326
0.894047
0.934482
0.974051
1.01219
1.04829
1.08172
1.11186
1.13808
1.15983
1.17661
1.18803
1.19381
0.209255
0.209791
0.210867
0.212491
0.214676
0.217441
0.220806
0.224798
0.229449
0.234795
0.240877
0.247743
0.255444
0.264038
0.273587
0.284161
0.295831
0.308677
0.322779
0.338223
0.355098
0.373493
0.393498
0.4152
0.438685
0.46403
0.491304
0.520564
0.55185
0.585181
0.620551
0.657921
0.697216
0.738315
0.781046
0.825179
0.870421
0.916404
0.962689
1.00876
1.05402
1.09782
1.13943
1.17811
1.21308
1.24361
1.26899
1.2886
1.30197
1.30874
0.209605
0.210167
0.211295
0.212999
0.215293
0.218196
0.221733
0.225933
0.230831
0.236467
0.242888
0.250146
0.258299
0.26741
0.277551
0.288797
0.301232
0.314942
0.330021
0.346566
0.364678
0.384462
0.406021
0.429461
0.454881
0.48238
0.512043
0.543948
0.578154
0.614699
0.653596
0.694822
0.738315
0.783965
0.831603
0.880997
0.931835
0.983726
1.03618
1.08863
1.14039
1.19069
1.23869
1.28348
1.32414
1.35974
1.38942
1.41242
1.42811
1.43607
0.209901
0.210488
0.211668
0.213452
0.215854
0.218896
0.222605
0.227014
0.23216
0.238088
0.24485
0.252502
0.261109
0.270743
0.281481
0.293409
0.306617
0.321206
0.337279
0.354946
0.374324
0.39553
0.418686
0.443915
0.471336
0.501067
0.533218
0.567886
0.605155
0.645089
0.687721
0.733054
0.781046
0.831603
0.88457
0.939716
0.996723
1.05518
1.11455
1.17421
1.23337
1.29116
1.34658
1.39853
1.44588
1.48751
1.52232
1.54935
1.56784
1.57722
0.210145
0.210759
0.211991
0.213853
0.216363
0.219543
0.223424
0.228039
0.233432
0.239652
0.246753
0.2548
0.263862
0.274019
0.285356
0.297967
0.311955
0.327429
0.344505
0.363309
0.383969
0.406621
0.431405
0.458463
0.487936
0.519965
0.554684
0.592218
0.632678
0.676157
0.72272
0.772398
0.825179
0.880997
0.939716
1.00112
1.0649
1.13062
1.19773
1.26552
1.33313
1.39955
1.46359
1.52395
1.57924
1.62805
1.66902
1.70093
1.72279
1.7339
0.210344
0.210983
0.212266
0.214206
0.216822
0.220139
0.224188
0.229009
0.234646
0.241153
0.24859
0.257028
0.266542
0.277218
0.289151
0.302444
0.317209
0.333567
0.351648
0.371591
0.393542
0.417652
0.444082
0.472994
0.504553
0.538926
0.576275
0.616756
0.660513
0.707673
0.758338
0.812578
0.870421
0.931835
0.996723
1.0649
1.13606
1.2098
1.28552
1.36248
1.43972
1.51608
1.59018
1.66046
1.72521
1.78265
1.83106
1.86889
1.89487
1.90809
0.210502
0.211166
0.212499
0.214515
0.217234
0.220684
0.224899
0.22992
0.235796
0.242585
0.250353
0.259174
0.269132
0.280319
0.29284
0.306805
0.322339
0.339573
0.358652
0.379728
0.402964
0.428531
0.456608
0.487382
0.521044
0.557786
0.597804
0.641288
0.688418
0.739364
0.794272
0.85326
0.916404
0.983726
1.05518
1.13062
1.2098
1.29231
1.37758
1.46484
1.55303
1.64087
1.72674
1.80877
1.88484
1.95273
2.01021
2.05529
2.08632
2.10213
0.210624
0.211311
0.212693
0.214782
0.217602
0.221181
0.225556
0.230771
0.236879
0.243942
0.252031
0.261225
0.271615
0.283301
0.296395
0.311018
0.327304
0.345398
0.365456
0.387648
0.412151
0.439158
0.468869
0.501493
0.53725
0.576364
0.619061
0.665572
0.716119
0.770919
0.83017
0.894047
0.962689
1.03618
1.11455
1.19773
1.28552
1.37758
1.47339
1.57214
1.67277
1.77383
1.87349
1.96951
2.05926
2.13989
2.20854
2.26257
2.29984
2.31885
0.210715
0.211425
0.212853
0.215013
0.217929
0.221631
0.22616
0.231561
0.237892
0.245218
0.253615
0.263168
0.273975
0.286142
0.299789
0.315048
0.332062
0.350989
0.371999
0.395276
0.421016
0.449429
0.48074
0.515183
0.553005
0.594462
0.639818
0.689344
0.74331
0.801986
0.865629
0.934482
1.00876
1.08863
1.17421
1.26552
1.36248
1.46484
1.57214
1.68367
1.79834
1.91462
2.03047
2.14321
2.24961
2.34596
2.42846
2.49364
2.53869
2.5617
0.210779
0.211511
0.212982
0.215209
0.218216
0.222036
0.22671
0.232288
0.23883
0.246405
0.255095
0.26499
0.276193
0.288818
0.302993
0.318858
0.336569
0.356294
0.378216
0.402536
0.429466
0.459237
0.492094
0.5283
0.568129
0.611872
0.659831
0.71232
0.769661
0.832181
0.900205
0.974051
1.05402
1.14039
1.23337
1.33313
1.43972
1.55303
1.67277
1.79834
1.92875
2.06248
2.19731
2.33017
2.45702
2.573
2.67292
2.7521
2.80689
2.83488
0.210822
0.211575
0.213087
0.215376
0.218468
0.222397
0.227206
0.232949
0.239689
0.247498
0.256462
0.266677
0.278251
0.291307
0.305978
0.322414
0.340781
0.361259
0.384044
0.40935
0.437409
0.46847
0.502801
0.540689
0.58244
0.628378
0.678844
0.7342
0.794819
0.86109
0.933412
1.01219
1.09782
1.19069
1.29116
1.39955
1.51608
1.64087
1.77383
1.91462
2.06248
2.21604
2.37309
2.53023
2.68251
2.82342
2.94552
3.0424
3.10939
3.14358
0.210848
0.211619
0.213169
0.215515
0.218685
0.222714
0.227649
0.233543
0.240465
0.248489
0.257706
0.268216
0.280133
0.293586
0.308716
0.325681
0.344656
0.365831
0.389417
0.415642
0.444752
0.477018
0.512728
0.552194
0.595752
0.64376
0.696599
0.754675
0.818419
0.888283
0.964741
1.04829
1.13943
1.23869
1.34658
1.46359
1.59018
1.72674
1.87349
2.03047
2.19731
2.37309
2.55593
2.74241
2.92679
3.10014
3.25092
3.37023
3.45239
3.49417
0.210862
0.211649
0.213232
0.21563
0.21887
0.22299
0.228037
0.234069
0.241154
0.249373
0.258818
0.269595
0.281822
0.295634
0.311179
0.328624
0.348151
0.369961
0.394276
0.421337
0.451408
0.484775
0.521748
0.562663
0.607884
0.657801
0.712835
0.773438
0.840093
0.913318
0.993665
1.08172
1.17811
1.28348
1.39853
1.52395
1.66046
1.80877
1.96951
2.14321
2.33017
2.53023
2.74241
2.96414
3.18966
3.4071
3.59555
3.74303
3.8436
3.89443
0.210866
0.211668
0.21328
0.215724
0.219026
0.223225
0.228371
0.234523
0.241753
0.250143
0.259789
0.270801
0.283302
0.297431
0.313344
0.331212
0.351227
0.3736
0.398562
0.426366
0.457291
0.491639
0.529739
0.571949
0.61866
0.670292
0.727302
0.790186
0.859479
0.935761
1.01966
1.11186
1.21308
1.32414
1.44588
1.57924
1.72521
1.88484
2.05926
2.24961
2.45702
2.68251
2.92679
3.18966
3.46831
3.75087
3.98905
4.17072
4.29254
4.35357
0.210864
0.211678
0.213316
0.215798
0.219153
0.22342
0.22865
0.234905
0.242258
0.250794
0.260611
0.271824
0.284559
0.298959
0.315186
0.333417
0.353851
0.376705
0.402222
0.430665
0.462324
0.497516
0.536588
0.579918
0.627917
0.681036
0.739765
0.804636
0.876235
0.955199
1.04222
1.13808
1.24361
1.35974
1.48751
1.62805
1.78265
1.95273
2.13989
2.34596
2.573
2.82342
3.10014
3.4071
3.75087
4.14697
4.4471
4.66635
4.81041
4.8819
0.210859
0.211683
0.213342
0.215855
0.219253
0.223575
0.228875
0.235213
0.242666
0.251321
0.261278
0.272655
0.28558
0.300202
0.316685
0.335213
0.355989
0.379239
0.40521
0.434177
0.466439
0.502325
0.542197
0.586449
0.635513
0.689861
0.750012
0.816535
0.890053
0.971254
1.0609
1.15983
1.26899
1.38942
1.52232
1.66902
1.83106
2.01021
2.20854
2.42846
2.67292
2.94552
3.25092
3.59555
3.98905
4.4471
4.79418
5.04537
5.20912
5.28999
0.210853
0.211685
0.21336
0.215897
0.219327
0.223692
0.229043
0.235445
0.242974
0.25172
0.261784
0.273285
0.286356
0.301147
0.317825
0.33658
0.357617
0.381168
0.407487
0.436854
0.469578
0.505996
0.546481
0.591441
0.641323
0.696617
0.757866
0.825663
0.900665
0.983602
1.07528
1.17661
1.2886
1.41242
1.54935
1.70093
1.86889
2.05529
2.26257
2.49364
2.7521
3.0424
3.37023
3.74303
4.17072
4.66635
5.04537
5.32012
5.49906
5.58731
0.210848
0.211686
0.213371
0.215924
0.219376
0.223769
0.229156
0.235601
0.243181
0.251988
0.262124
0.273709
0.286878
0.301783
0.318593
0.3375
0.358714
0.382469
0.409022
0.43866
0.471696
0.508475
0.549375
0.594815
0.645252
0.701189
0.763184
0.831848
0.907863
0.991985
1.08506
1.18803
1.30197
1.42811
1.56784
1.72279
1.89487
2.08632
2.29984
2.53869
2.80689
3.10939
3.45239
3.8436
4.29254
4.81041
5.20912
5.49906
5.68808
5.78133
0.210845
0.211685
0.213376
0.215937
0.2194
0.223808
0.229212
0.235678
0.243285
0.252122
0.262294
0.273921
0.28714
0.302102
0.318979
0.337963
0.359265
0.383122
0.409794
0.439569
0.472762
0.509722
0.550833
0.596515
0.647232
0.703494
0.765866
0.83497
0.911498
0.99622
1.09
1.19381
1.30874
1.43607
1.57722
1.7339
1.90809
2.10213
2.31885
2.5617
2.83488
3.14358
3.49417
3.89443
4.35357
4.8819
5.28999
5.58731
5.78133
5.87708
)
;

boundaryField
{
    walls
    {
        type            zeroGradient;
    }
    frontAndBack
    {
        type            empty;
    }
}


// ************************************************************************* //
