/*--------------------------------*- C++ -*----------------------------------*\
| =========                 |                                                 |
| \\      /  F ield         | OpenFOAM: The Open Source CFD Toolbox           |
|  \\    /   O peration     | Version:  2406                                  |
|   \\  /    A nd           | Website:  www.openfoam.com                      |
|    \\/     M anipulation  |                                                 |
\*---------------------------------------------------------------------------*/
FoamFile
{
    version     2.0;
    format      ascii;
    arch        "LSB;label=32;scalar=64";
    class       volScalarField;
    location    "100";
    object      epsilon;
}
// * * * * * * * * * * * * * * * * * * * * * * * * * * * * * * * * * * * * * //

dimensions      [0 2 -3 0 0 0 0];

internalField   nonuniform List<scalar> 
12225
(
1085.6
2467.87
3645.42
4414.9
4812.3
4980.97
4975.9
4927.29
4841.79
4730.65
4622.45
4519.56
4428.15
4343.08
4272.82
4203.83
4156.29
4094.04
81.207
262.679
438.371
584.61
690.879
762.848
804.62
829.576
846.329
856.6
865.918
873.132
882.012
889.945
898.999
908.642
914.845
930.971
20.5547
51.215
83.4042
112.588
136.833
156.223
170.057
179.88
186.259
190.721
193.347
195.482
196.677
198.135
199.109
200.354
202.211
205.33
14.7501
21.8697
30.0047
38.5201
46.1921
53.0463
58.5966
63.2555
66.7266
69.6203
71.5769
73.2856
74.2706
75.2662
75.6677
76.2913
76.4804
77.1873
14.3591
16.3321
18.4501
21.4932
24.4318
27.2633
29.7293
31.9786
33.8101
35.4682
36.7329
37.9088
38.727
39.547
40.0332
40.5902
40.9173
41.2584
14.6442
14.9535
15.4256
16.4577
17.6065
18.8286
19.9674
21.0745
22.0303
22.9433
23.6842
24.4077
24.9478
25.5156
25.8804
26.3284
26.5618
26.9338
14.7183
14.6385
14.6734
14.8755
15.2169
15.6831
16.1619
16.6712
17.1368
17.6086
18.0078
18.4171
18.7343
19.0822
19.3152
19.6132
19.7671
20.0532
14.7545
14.5907
14.4691
14.4209
14.4417
14.5151
14.6473
14.8241
15.0016
15.2014
15.3781
15.5744
15.7307
15.9122
16.0372
16.2029
16.2911
16.4639
14.7641
14.5919
14.4345
14.3029
14.2031
14.1371
14.0972
14.0986
14.1106
14.1412
14.1779
14.2341
14.2786
14.3415
14.3842
14.4473
14.484
14.5535
14.7656
14.5942
14.432
14.2829
14.1466
14.0296
13.9257
13.8438
13.7745
13.7225
13.6772
13.6482
13.6203
13.6061
13.5889
13.583
13.5723
13.5808
14.7657
14.5945
14.4323
14.2806
14.137
14.0052
13.8817
13.7707
13.6681
13.5779
13.4941
13.4221
13.354
13.2974
13.2408
13.1974
13.1474
13.1178
14.7657
14.5943
14.4323
14.2801
14.1358
14.0008
13.8729
13.7541
13.6419
13.5388
13.4412
13.3526
13.268
13.1926
13.1189
13.0553
12.9899
12.9372
14.7657
14.5941
14.4321
14.2797
14.1353
13.9995
13.8708
13.7498
13.6349
13.5273
13.425
13.3297
13.2387
13.1546
13.0735
12.9995
12.9271
12.862
14.7657
14.594
14.4319
14.2792
14.1349
13.9988
13.8699
13.7482
13.6328
13.5238
13.4203
13.3226
13.2297
13.1421
13.0585
12.9799
12.9047
12.8341
14.7657
14.5938
14.4317
14.2789
14.1345
13.9981
13.8692
13.7472
13.6317
13.5223
13.4185
13.3202
13.2267
13.1382
13.0539
12.974
12.8978
12.8256
14.7657
14.5937
14.4316
14.2786
14.1341
13.9976
13.8685
13.7464
13.6307
13.5212
13.4172
13.3187
13.2251
13.1362
13.0517
12.9715
12.895
12.8224
14.7657
14.5937
14.4315
14.2784
14.1338
13.9972
13.868
13.7458
13.63
13.5203
13.4162
13.3175
13.2238
13.1348
13.0502
12.9697
12.8932
12.8203
14.7657
14.5937
14.4314
14.2783
14.1336
13.9969
13.8677
13.7453
13.6294
13.5196
13.4155
13.3167
13.2228
13.1337
13.049
12.9685
12.8918
12.8189
14.7657
14.5937
14.4314
14.2782
14.1336
13.9968
13.8675
13.7451
13.6292
13.5193
13.4151
13.3162
13.2224
13.1332
13.0484
12.9678
12.8912
12.8182
14.7657
14.5937
14.4315
14.2783
14.1337
13.997
13.8677
13.7453
13.6294
13.5195
13.4153
13.3164
13.2226
13.1334
13.0487
12.9681
12.8915
12.8186
14.7657
14.5937
14.4316
14.2785
14.1339
13.9972
13.868
13.7457
13.6299
13.5201
13.4161
13.3175
13.2239
13.135
13.0508
12.9706
12.8946
12.8222
14.7657
14.5938
14.4317
14.2786
14.1343
13.9977
13.869
13.7472
13.6325
13.5239
13.4218
13.325
13.2342
13.1481
13.0674
12.9905
12.919
12.8502
14.7657
14.5937
14.4319
14.2789
14.1361
14.002
13.8782
13.7628
13.6572
13.5594
13.4706
13.3882
13.314
13.2445
13.1828
13.1236
13.0728
13.0212
14.7644
14.5922
14.4335
14.2871
14.1628
14.0551
13.9689
13.8978
13.8459
13.8049
13.7783
13.7582
13.7484
13.7419
13.7424
13.7442
13.7516
13.7507
14.7478
14.5944
14.4764
14.4102
14.4235
14.4614
14.5555
14.6709
14.8173
14.9618
15.1244
15.2721
15.433
15.5696
15.7211
15.839
15.9798
16.0738
14.6504
14.7821
14.9369
15.3418
15.9229
16.5513
17.2346
17.8791
18.5393
19.1236
19.7152
20.2125
20.7235
21.1287
21.5631
21.8803
22.2502
22.4856
14.5719
16.1273
17.9726
20.4204
22.9246
25.2675
27.5497
29.5567
31.4962
33.1094
34.694
35.9235
37.1869
38.0779
39.0742
39.6865
40.4755
40.8672
16.544
25.88
36.7212
46.5575
55.8704
64.2818
72.1137
78.7579
84.8243
89.6171
94.0454
97.211
100.354
102.235
104.5
105.466
107.187
107.545
45.7965
105.215
164.45
217.257
267.882
313.505
353.737
386.197
413.34
433.786
450.75
462.873
473.079
479.98
487.036
490.548
496.4
497.758
632.343
1081.16
1534.75
1880.97
2183.45
2431.66
2631.41
2772.74
2875.85
2931.67
2968.55
2969.32
2962.23
2945.15
2917.13
2883.73
2847.85
2810.39
1.42148
1.99126
3.65978
5.31643
6.81041
8.10322
9.19189
10.0783
10.9384
11.7301
12.4874
13.2693
14.1556
15.2138
16.5359
18.2131
20.289
22.7275
25.5385
28.7342
32.3688
36.488
41.1919
46.508
52.4695
59.0919
66.4212
74.441
83.1578
92.5302
102.547
113.141
124.292
135.924
148.01
160.473
173.291
186.391
199.76
213.335
227.113
241.038
255.117
269.303
283.608
297.994
312.479
327.037
341.684
356.394
371.185
386.033
400.952
415.922
430.955
446.031
461.158
476.32
491.521
506.746
521.994
537.256
552.519
567.782
583.022
598.242
613.397
628.505
643.519
658.472
673.314
688.088
702.738
717.322
731.768
746.149
760.378
774.534
788.514
802.388
816.013
829.471
842.675
855.952
869.744
885.027
897.44
910.956
924.438
937.659
951.723
966.117
981.804
995.929
1012.82
1025.98
1041.04
1055.23
1068.87
1082.58
1095.55
1107.88
1119.48
1129.7
1138.65
1145.07
1156.55
1167.17
1176.36
1184.57
1186.11
1194.23
1214.55
1215.91
1219.93
1218.55
1229.9
1224.47
1227.66
1233.4
1231.26
1227.04
1221.42
1213.63
1204.28
1193.21
1180.43
1165.98
1149.75
1131.73
1111.96
1090.53
1067.51
1043.04
1017.06
989.458
960.694
930.888
900.249
869.009
837.312
805.209
773.369
742.091
710.002
682.785
662.465
643.281
624.316
605.532
587.033
568.857
551.156
533.8
516.632
499.944
484.041
468.685
453.734
439.269
425.388
412.169
399.63
387.704
376.367
365.621
355.458
345.842
336.755
328.17
320.063
312.382
305.131
298.123
291.635
284.728
279.047
270.773
264.548
243.481
7.04205
4.42401
4.23043
4.50076
4.95924
5.49463
6.07881
6.71367
7.41925
8.1923
9.04615
10.0065
11.1077
12.3856
13.8746
15.6014
17.5801
19.8119
22.2985
25.0411
28.0449
31.3133
34.8503
38.6492
42.702
46.9968
51.5236
56.2652
61.2084
66.3148
71.5666
76.9432
82.4315
88.0145
93.6833
99.4253
105.236
111.106
117.034
123.012
129.041
135.116
141.238
147.403
153.616
159.874
166.184
172.55
178.962
185.411
191.899
198.422
204.981
211.571
218.191
224.837
231.509
238.201
244.912
251.636
258.371
265.112
271.855
278.594
285.325
292.042
298.736
305.404
312.037
318.635
325.189
331.7
338.16
344.569
350.918
357.209
363.43
369.585
375.658
381.656
387.567
393.413
399.211
405.021
410.869
416.69
422.181
427.791
433.359
438.925
444.586
450.264
455.951
461.426
466.962
471.97
477.072
481.873
486.46
490.863
494.973
498.796
502.311
505.478
508.422
511.289
514.756
518.172
520.975
523.11
523.464
529.449
531.902
531.873
535.19
534.657
536.463
537.916
538.627
538.297
538.523
536.966
535.187
532.627
529.549
525.878
521.617
516.753
511.264
505.115
498.318
490.832
482.673
473.865
464.411
454.31
443.665
432.525
420.954
409.022
396.79
384.301
371.682
359.04
346.183
333.926
322.924
312.431
302.156
292.059
282.165
272.5
263.1
253.967
244.966
236.084
227.525
219.274
211.305
203.629
196.26
189.225
182.538
176.185
170.152
164.436
159.03
153.922
149.1
144.554
140.273
136.238
132.455
128.861
125.563
122.311
119.532
117.017
115.996
116.704
14.5807
7.52846
6.33443
6.17314
6.36155
6.7348
7.23262
7.83604
8.54884
9.38087
10.3481
11.4706
12.7702
14.2664
15.9741
17.901
20.0478
22.4089
24.9764
27.7416
30.6968
33.8341
37.1458
40.6227
44.2563
48.0387
51.9656
55.9822
60.055
64.2162
68.4694
72.8095
77.2304
81.7245
86.2867
90.9121
95.5996
100.348
105.154
110.012
114.922
119.88
124.887
129.941
135.042
140.188
145.38
150.616
155.894
161.211
166.567
171.96
177.389
182.851
188.346
193.87
199.422
204.999
210.599
216.217
221.851
227.497
233.152
238.809
244.465
250.115
255.753
261.373
266.97
272.538
278.073
283.568
289.017
294.416
299.757
305.035
310.243
315.379
320.436
325.413
330.311
335.134
339.887
344.578
349.196
353.718
358.119
362.465
366.738
370.945
375.092
379.151
383.097
386.897
390.563
394.03
397.381
400.555
403.569
406.424
409.107
411.624
413.988
416.218
418.372
420.512
422.713
424.755
426.559
428.147
429.636
431.89
433.237
434.156
435.565
435.99
436.595
436.915
436.906
436.619
436.16
435.084
433.708
431.868
429.613
426.908
423.736
420.076
415.905
411.201
405.957
400.16
393.817
386.939
379.539
371.635
363.276
354.503
345.361
335.9
326.164
316.196
306.061
295.832
285.558
275.535
266.011
256.818
247.838
239.044
230.448
222.07
213.932
206.041
198.364
190.896
183.69
176.691
169.911
163.383
157.096
151.077
145.337
139.869
134.671
129.737
125.064
120.643
116.466
112.526
108.813
105.318
102.039
98.9488
96.0915
93.3747
90.9905
88.751
87.2853
87.3186
22.804
10.7501
8.70205
8.22702
8.26853
8.57538
9.06057
9.69355
10.4687
11.3925
12.4779
13.7405
15.1947
16.8512
18.7147
20.7828
23.048
25.4984
28.1207
30.9021
33.8313
36.8985
40.0952
43.4131
46.844
50.3776
54.0001
57.7244
61.5628
65.498
69.5247
73.6413
77.8414
82.1143
86.4534
90.8516
95.2984
99.8148
104.396
109.039
113.742
118.503
123.321
128.195
133.122
138.102
143.133
148.214
153.344
158.52
163.742
169.008
174.318
179.668
185.059
190.487
195.952
201.45
206.978
212.535
218.116
223.719
229.338
234.969
240.608
246.249
251.887
257.514
263.125
268.714
274.272
279.794
285.27
290.694
296.057
301.351
306.57
311.705
316.752
321.706
326.565
331.327
335.991
340.553
345.004
349.333
353.536
357.626
361.6
365.456
369.19
372.785
376.229
379.509
382.622
385.562
388.346
390.967
393.431
395.745
397.911
399.939
401.842
403.638
405.353
407.013
408.61
410.076
411.388
412.571
413.691
414.855
415.702
416.36
416.963
417.109
417.058
416.929
416.61
416.028
415.188
413.98
412.455
410.558
408.279
405.592
402.472
398.896
394.842
390.29
385.229
379.65
373.547
366.935
359.833
352.263
344.261
335.864
327.112
318.048
308.717
299.174
289.492
279.749
270.025
260.461
251.17
242.127
233.292
224.657
216.236
208.044
200.101
192.413
184.975
177.787
170.865
164.196
157.778
151.613
145.648
139.921
134.441
129.205
124.214
119.468
114.963
110.693
106.653
102.836
99.2367
95.8468
92.6625
89.6718
86.8926
84.2898
81.9569
79.8245
78.1586
77.5317
31.1142
14.1428
11.2285
10.461
10.3797
10.6404
11.1261
11.79
12.6177
13.6098
14.774
16.1206
17.6587
19.3934
21.3247
23.4467
25.7494
28.2196
30.8439
33.6097
36.5066
39.526
42.6616
45.9082
49.2615
52.718
56.2756
59.9356
63.6989
67.561
71.5175
75.5628
79.6946
83.9127
88.2151
92.6002
97.0688
101.618
106.243
110.944
115.716
120.559
125.471
130.449
135.491
140.597
145.765
150.993
156.28
161.624
167.024
172.479
177.988
183.548
189.16
194.82
200.528
206.28
212.075
217.909
223.78
229.683
235.614
241.568
247.54
253.524
259.514
265.503
271.483
277.446
283.383
289.286
295.144
300.948
306.688
312.353
317.934
323.422
328.808
334.086
339.249
344.293
349.211
353.996
358.639
363.132
367.471
371.657
375.686
379.554
383.258
386.785
390.128
393.281
396.245
399.018
401.612
404.027
406.273
408.355
410.28
412.055
413.691
415.198
416.586
417.863
419.021
420.041
420.917
421.66
422.282
422.825
423.172
423.263
423.128
422.819
422.371
421.761
420.95
419.902
418.594
416.987
415.07
412.815
410.197
407.193
403.774
399.917
395.599
390.802
385.512
379.721
373.426
366.638
359.372
351.65
343.501
334.958
326.062
316.857
307.4
297.758
288.003
278.211
268.457
258.833
249.408
240.192
231.183
222.387
213.819
205.495
197.431
189.638
182.118
174.873
167.909
161.221
154.806
148.659
142.758
137.108
131.686
126.485
121.514
116.775
112.267
107.984
103.924
100.083
96.4558
93.0374
89.8209
86.8019
83.9891
81.3705
78.994
76.847
75.0574
73.9443
38.9979
17.505
13.7792
12.7415
12.5535
12.7745
13.2599
13.9463
14.8098
15.8442
17.052
18.4386
20.0093
21.7661
23.7076
25.8276
28.117
30.5645
33.1588
35.8894
38.7477
41.7271
44.8233
48.0329
51.354
54.7855
58.327
61.9784
65.7394
69.6085
73.5837
77.6628
81.8444
86.1272
90.51
94.9915
99.5705
104.245
109.011
113.868
118.813
123.844
128.958
134.154
139.429
144.781
150.209
155.711
161.286
166.932
172.648
178.433
184.285
190.203
196.186
202.232
208.339
214.506
220.73
227.008
233.336
239.712
246.129
252.584
259.07
265.582
272.11
278.648
285.187
291.717
298.227
304.708
311.146
317.531
323.849
330.089
336.237
342.281
348.211
354.015
359.685
365.212
370.585
375.796
380.835
385.691
390.36
394.836
399.113
403.19
407.059
410.713
414.148
417.359
420.349
423.12
425.678
428.029
430.18
432.138
433.91
435.502
436.921
438.173
439.266
440.202
440.983
441.592
442.052
442.365
442.455
442.328
442.08
441.631
441.011
440.199
439.213
438.039
436.657
435.04
433.169
431.017
428.566
425.791
422.668
419.17
415.272
410.949
406.179
400.942
395.225
389.017
382.318
375.133
367.474
359.362
350.823
341.891
332.612
323.04
313.238
303.274
293.218
283.142
273.114
263.204
253.463
243.919
234.584
225.476
216.61
208.006
199.678
191.638
183.892
176.442
169.292
162.438
155.877
149.601
143.599
137.865
132.385
127.148
122.127
117.324
112.742
108.378
104.232
100.304
96.5906
93.0876
89.7887
86.6946
83.8075
81.1248
78.6733
76.461
74.561
73.0954
46.2646
20.7197
16.2567
14.9707
14.6852
14.8676
15.3479
16.0464
16.9298
17.9854
19.2105
20.6069
22.177
23.9218
25.8395
27.9258
30.1737
32.5749
35.1209
37.804
40.6177
43.5572
46.6194
49.8023
53.1052
56.5277
60.0702
63.7328
67.5159
71.4189
75.4415
79.5827
83.8421
88.2186
92.7113
97.3191
102.041
106.874
111.817
116.868
122.023
127.282
132.642
138.1
143.654
149.303
155.044
160.876
166.797
172.805
178.901
185.081
191.346
197.694
204.124
210.635
217.224
223.891
230.632
237.445
244.327
251.273
258.28
265.34
272.449
279.599
286.781
293.987
301.206
308.427
315.639
322.828
329.981
337.082
344.118
351.073
357.932
364.678
371.298
377.778
384.104
390.263
396.244
402.033
407.618
412.988
418.134
423.048
427.723
432.153
436.334
440.259
443.923
447.326
450.467
453.351
455.981
458.365
460.508
462.418
464.101
465.562
466.807
467.841
468.668
469.289
469.722
469.909
469.856
469.649
469.214
468.587
467.769
466.748
465.53
464.108
462.483
460.646
458.586
456.285
453.727
450.893
447.765
444.321
440.539
436.396
431.866
426.926
421.555
415.732
409.444
402.68
395.436
387.716
379.531
370.898
361.849
352.421
342.666
332.639
322.403
312.026
301.576
291.119
280.719
270.436
260.315
250.388
240.678
231.207
221.993
213.056
204.411
196.071
188.042
180.329
172.933
165.85
159.077
152.607
146.43
140.538
134.918
129.558
124.442
119.551
114.865
110.389
106.128
102.083
98.2539
94.6394
91.2356
88.0402
85.055
82.2812
79.7348
77.4289
75.4126
73.6781
53.3373
23.8287
18.626
17.0856
16.6977
16.8359
17.3038
18.005
18.8963
19.9588
21.1852
22.5739
24.1256
25.8407
27.7181
29.7554
31.9482
34.2914
36.7793
39.4068
42.1696
45.0645
48.0895
51.2436
54.5266
57.939
61.4815
65.1549
68.96
72.8975
76.9677
81.1709
85.5071
89.9761
94.5774
99.3104
104.174
109.167
114.288
119.534
124.904
130.396
136.007
141.736
147.58
153.538
159.607
165.786
172.074
178.469
184.97
191.575
198.285
205.099
212.014
219.031
226.147
233.362
240.672
248.076
255.57
263.15
270.811
278.547
286.352
294.217
302.134
310.092
318.08
326.086
334.094
342.091
350.061
357.986
365.849
373.632
381.315
388.881
396.311
403.588
410.693
417.61
424.323
430.816
437.074
443.083
448.831
454.307
459.502
464.409
469.021
473.332
477.337
481.036
484.427
487.515
490.302
492.795
494.999
496.921
498.566
499.94
501.051
501.902
502.493
502.779
502.795
502.569
502.103
501.398
500.442
499.248
497.819
496.156
494.259
492.128
489.76
487.151
484.296
481.182
477.801
474.139
470.183
465.915
461.318
456.372
451.056
445.349
439.231
432.684
425.693
418.248
410.345
401.985
393.182
383.956
374.34
364.375
354.109
343.598
332.903
322.087
311.217
300.355
289.561
278.888
268.38
258.071
247.988
238.154
228.592
219.319
210.353
201.706
193.385
185.396
177.738
170.409
163.404
156.716
150.336
144.256
138.462
132.944
127.686
122.674
117.878
113.278
108.888
104.714
100.759
97.0227
93.5019
90.1949
87.1022
84.226
81.576
79.1641
77.0259
75.0797
62.0545
27.0982
20.9211
19.0574
18.5402
18.62
19.0656
19.761
20.6524
21.7139
22.9339
24.3078
25.8346
27.5142
29.3465
31.3305
33.4644
35.7454
38.1708
40.7376
43.4437
46.2872
49.2673
52.384
55.6377
59.0295
62.5607
66.2328
70.0473
74.0056
78.109
82.3586
86.7552
91.2993
95.9912
100.831
105.818
110.952
116.232
121.657
127.225
132.934
138.784
144.771
150.895
157.153
163.544
170.067
176.72
183.502
190.413
197.452
204.618
211.91
219.328
226.871
234.538
242.327
250.238
258.266
266.41
274.665
283.026
291.487
300.04
308.678
317.39
326.165
334.99
343.85
352.731
361.615
370.484
379.318
388.097
396.799
405.403
413.885
422.225
430.399
438.386
446.166
453.718
461.022
468.06
474.815
481.271
487.414
493.233
498.718
503.861
508.654
513.093
517.174
520.899
524.267
527.282
529.949
532.272
534.258
535.912
537.242
538.255
538.939
539.265
539.241
538.934
538.323
537.412
536.204
534.696
532.896
530.808
528.436
525.782
522.848
519.635
516.142
512.367
508.308
503.959
499.316
494.371
489.115
483.535
477.618
471.35
464.715
457.695
450.278
442.45
434.204
425.536
416.453
406.968
397.105
386.895
376.378
365.598
354.608
343.463
332.224
320.95
309.702
298.536
287.503
276.643
265.99
255.572
245.413
235.536
225.96
216.702
207.773
199.184
190.937
183.034
175.469
168.24
161.339
154.758
148.488
142.515
136.829
131.416
126.261
121.342
116.617
112.097
107.795
103.714
99.8554
96.217
92.7972
89.5956
86.6141
83.8583
81.3372
79.0762
76.9547
70.3465
30.1302
22.9989
20.8084
20.1551
20.1706
20.5879
21.2727
22.1603
23.2182
24.4303
25.7893
27.2922
28.9384
30.7282
32.6617
34.7388
36.959
39.3214
41.8253
44.4702
47.2558
50.1825
53.2511
56.463
59.82
63.3242
66.9778
70.7831
74.7425
78.8581
83.1318
87.5651
92.1594
96.9158
101.835
106.918
112.166
117.577
123.153
128.891
134.793
140.856
147.079
153.461
160.001
166.697
173.549
180.556
187.717
195.032
202.5
210.121
217.895
225.821
233.9
242.13
250.51
259.04
267.716
276.536
285.495
294.589
303.811
313.153
322.607
332.161
341.802
351.517
361.29
371.103
380.937
390.771
400.583
410.349
420.045
429.644
439.122
448.45
457.604
466.557
475.283
483.759
491.96
499.864
507.45
514.699
521.593
528.118
534.262
540.014
545.365
550.31
554.844
558.966
562.676
565.976
568.869
571.36
573.454
575.156
576.475
577.415
577.925
578.032
577.769
577.139
576.142
574.78
573.054
570.967
568.523
565.728
562.585
559.1
555.276
551.117
546.628
541.81
536.668
531.204
525.421
519.321
512.902
506.161
499.095
491.697
483.961
475.877
467.438
458.636
449.472
439.946
430.067
419.849
409.317
398.5
387.434
376.156
364.711
353.151
341.53
329.9
318.317
306.837
295.504
284.358
273.428
262.742
252.324
242.196
232.375
222.879
213.721
204.91
196.45
188.339
180.574
173.151
166.063
159.303
152.86
146.722
140.879
135.316
130.019
124.97
120.122
115.479
111.057
106.859
102.887
99.1382
95.6118
92.3065
89.2233
86.365
83.7371
81.3575
79.0879
77.5649
32.7496
24.7717
22.2843
21.5014
21.4575
21.8431
22.5154
23.3986
24.4538
25.6605
27.0085
28.493
30.1125
31.8671
33.7574
35.7844
37.9489
40.2518
42.6939
45.2762
47.9998
50.8664
53.8779
57.0367
60.3456
63.8075
67.4258
71.2038
75.1448
79.2519
83.5277
87.9746
92.5941
97.3881
102.359
107.508
112.838
118.351
124.048
129.929
135.995
142.245
148.68
155.298
162.099
169.082
176.248
183.596
191.125
198.836
206.728
214.803
223.06
231.498
240.12
248.923
257.908
267.073
276.415
285.933
295.622
305.477
315.491
325.655
335.96
346.394
356.943
367.591
378.322
389.114
399.947
410.797
421.639
432.447
443.191
453.843
464.372
474.748
484.94
494.918
504.651
514.111
523.269
532.099
540.574
548.674
556.376
563.663
570.519
576.933
582.892
588.39
593.422
597.983
602.075
605.696
608.85
611.54
613.769
615.544
616.871
617.739
618.124
618.054
617.542
616.592
615.204
613.379
611.118
608.423
605.297
601.745
597.771
593.382
588.583
583.382
577.785
571.801
565.44
558.713
551.631
544.206
536.446
528.362
519.962
511.253
502.239
492.923
483.309
473.402
463.208
452.734
441.99
430.993
419.765
408.335
396.735
384.989
373.133
361.213
349.273
337.359
325.516
313.804
302.262
290.92
279.806
268.945
258.358
248.064
238.082
228.424
219.11
210.146
201.535
193.276
185.364
177.794
170.563
163.661
157.08
150.807
144.831
139.139
133.717
128.544
123.58
118.829
114.303
110.004
105.934
102.089
98.4681
95.0699
91.894
88.9412
86.214
83.7244
81.3296
83.4538
34.8757
26.1929
23.4519
22.5534
22.4565
22.8166
23.479
24.3601
25.4158
26.6219
27.9654
29.4397
31.0419
32.7714
34.629
36.616
38.7339
40.9848
43.3706
45.8936
48.5561
51.3612
54.3118
57.4115
60.6644
64.0745
67.6465
71.385
75.2947
79.3797
83.6443
88.0926
92.7204
97.5316
102.53
107.716
113.102
118.692
124.487
130.489
136.7
143.119
149.748
156.588
163.638
170.899
178.372
186.055
193.951
202.059
210.38
218.914
227.662
236.626
245.804
255.198
264.806
274.628
284.661
294.903
305.349
315.993
326.829
337.848
349.038
360.386
371.877
383.494
395.217
407.025
418.893
430.795
442.702
454.585
466.412
478.15
489.764
501.219
512.48
523.513
534.282
544.754
554.895
564.676
574.066
583.04
591.571
599.64
607.229
614.321
620.904
626.97
632.511
637.523
642.005
645.956
649.377
652.271
654.64
656.489
657.82
658.625
658.897
658.644
657.871
656.585
654.788
652.476
649.649
646.308
642.454
638.091
633.223
627.856
621.997
615.656
608.842
601.571
593.856
585.719
577.18
568.261
558.985
549.376
539.458
529.255
518.789
508.082
497.147
486.003
474.674
463.166
451.494
439.675
427.731
415.688
403.569
391.387
379.178
366.973
354.807
342.71
330.715
318.88
307.241
295.819
284.637
273.713
263.068
252.716
242.673
232.95
223.57
214.54
205.86
197.527
189.537
181.884
174.566
167.576
160.904
154.538
148.466
142.677
137.155
131.879
126.819
121.984
117.377
113
108.852
104.93
101.233
97.7574
94.5026
91.4676
88.6529
86.0652
83.5671
87.8584
36.466
27.2438
24.3034
23.3115
23.172
23.5128
24.1694
25.0525
26.1135
27.3254
28.6725
30.1464
31.7428
33.4602
35.2988
37.2597
39.3449
41.5569
43.8984
46.3726
48.983
51.7337
54.629
57.6737
60.8733
64.2332
67.7595
71.4592
75.3384
79.4012
83.6513
88.0937
92.7195
97.54
102.559
107.778
113.217
118.878
124.765
130.882
137.234
143.823
150.65
157.715
165.022
172.57
180.362
188.397
196.677
205.203
213.976
222.996
232.264
241.782
251.55
261.568
271.835
282.35
293.111
304.114
315.356
326.828
338.523
350.432
362.541
374.837
387.301
399.916
412.659
425.505
438.428
451.399
464.386
477.356
490.273
503.1
515.799
528.331
540.656
552.734
564.527
575.997
587.105
597.818
608.103
617.927
627.265
636.091
644.384
652.127
659.306
665.909
671.929
677.36
682.202
686.451
690.109
693.176
695.656
697.549
698.86
699.584
699.711
699.238
698.161
696.5
694.249
691.404
687.96
683.916
679.271
674.027
668.187
661.757
654.744
647.157
639.013
630.328
621.125
611.429
601.276
590.698
579.733
568.423
556.816
544.949
532.868
520.62
508.228
495.727
483.092
470.392
457.669
444.95
432.254
419.611
407.05
394.547
382.097
369.723
357.446
345.285
333.25
321.442
309.862
298.516
287.419
276.584
266.026
255.757
245.786
236.118
226.782
217.789
209.136
200.818
192.832
185.17
177.836
170.822
164.117
157.711
151.592
145.746
140.16
134.811
129.692
124.805
120.149
115.722
111.523
107.549
103.797
100.264
96.9479
93.8469
90.9599
88.2896
85.7096
90.7341
37.5119
27.9268
24.8481
23.7901
23.6212
23.9512
24.6085
25.4995
26.5729
27.7992
29.1607
30.6471
32.2528
33.9751
35.8134
37.7684
39.8419
42.0366
44.3555
46.8025
49.3821
52.0992
54.9597
57.9697
61.1367
64.4668
67.9659
71.6414
75.5005
79.5482
83.7886
88.2247
92.8631
97.711
102.776
108.064
113.586
119.349
125.362
131.63
138.157
144.948
152.005
159.334
166.937
174.817
182.976
191.414
200.132
209.131
218.413
227.979
237.829
247.964
258.384
269.088
280.077
291.347
302.895
314.718
326.81
339.162
351.765
364.607
377.675
390.95
404.415
418.048
431.823
445.715
459.692
473.724
487.775
501.809
515.785
529.665
543.405
556.963
570.295
583.358
596.108
608.504
620.505
632.072
643.169
653.762
663.82
673.317
682.23
690.537
698.224
705.278
711.69
717.456
722.573
727.039
730.853
734.016
736.529
738.395
739.614
740.185
740.097
739.323
737.871
735.759
732.977
729.517
725.372
720.537
715.008
708.786
701.871
694.268
685.985
677.033
667.429
657.195
646.359
634.959
623.038
610.646
597.833
584.66
571.21
557.53
543.673
529.612
515.5
501.424
487.526
473.792
460.181
446.716
433.413
420.294
407.41
394.628
382.005
369.554
357.281
345.185
333.242
321.569
310.141
298.963
288.042
277.388
267.01
256.917
247.113
237.589
228.424
219.594
211.086
202.895
195.014
187.434
180.164
173.2
166.532
160.147
154.034
148.181
142.571
137.204
132.074
127.176
122.507
118.065
113.846
109.849
106.068
102.5
99.1447
95.9973
93.0566
90.3218
87.6817
91.9741
37.9992
28.2531
25.1087
24.0184
23.8363
24.1676
24.8359
25.7456
26.8436
28.0983
29.4908
31.0093
32.6468
34.3995
36.266
38.2464
40.342
42.5553
44.8896
47.349
49.9385
52.6645
55.534
58.5526
61.7268
65.064
68.5723
72.26
76.1353
80.2062
84.48
88.9649
93.6696
98.6035
103.776
109.197
114.875
120.82
127.041
133.544
140.337
147.426
154.814
162.507
170.508
178.821
187.449
196.396
205.66
215.243
225.145
235.367
245.909
256.77
267.95
279.447
291.259
303.381
315.81
328.539
341.56
354.862
368.433
382.26
396.325
410.609
425.089
439.742
454.54
469.454
484.449
499.492
514.544
529.565
544.514
559.347
574.018
588.482
602.691
616.599
630.161
643.332
656.069
668.33
680.076
691.272
701.886
711.888
721.253
729.961
737.993
745.336
751.983
757.928
763.168
767.701
771.526
774.644
777.054
778.76
779.759
780.046
779.624
778.41
776.463
773.776
770.337
766.136
761.16
755.403
748.857
741.522
733.395
724.48
714.785
704.324
693.112
681.182
668.564
655.304
641.469
627.118
612.315
597.094
581.501
565.716
549.857
534.185
518.614
503.231
488.171
473.27
458.655
444.365
430.412
416.806
403.541
390.582
377.917
365.535
353.424
341.57
329.962
318.62
307.539
296.72
286.162
275.868
265.843
256.091
246.61
237.384
228.48
219.885
211.593
203.599
195.894
188.462
181.346
174.519
167.966
161.675
155.634
149.83
144.269
138.947
133.858
128.996
124.357
119.938
115.736
111.747
107.966
104.391
101.02
97.8489
94.8755
92.0966
89.4191
91.9155
37.984
28.2459
25.1075
24.027
23.8636
24.2241
24.9247
25.8753
27.0227
28.3344
29.7901
31.377
33.0871
34.9157
36.8608
38.9221
41.1004
43.3976
45.8168
48.3621
51.0383
53.851
56.8065
59.9125
63.1773
66.6099
70.22
74.0178
78.0137
82.2184
86.6428
91.2982
96.1962
101.349
106.767
112.464
118.45
124.735
131.33
138.242
145.481
153.054
160.965
169.222
177.825
186.779
196.085
205.749
215.769
226.145
236.876
247.961
259.397
271.184
283.317
295.791
308.603
321.744
335.206
348.98
363.053
377.412
392.041
406.921
422.032
437.35
452.85
468.505
484.284
500.154
516.081
532.026
547.95
563.81
579.562
595.162
610.561
625.713
640.569
655.081
669.202
682.888
696.093
708.776
720.899
732.423
743.317
753.55
763.097
771.935
780.047
787.42
794.044
799.915
805.031
809.39
812.991
815.833
817.916
819.244
819.811
819.616
818.609
816.764
814.113
810.643
806.338
801.183
795.165
788.273
780.499
771.836
762.283
751.842
740.521
728.336
715.306
701.473
686.873
671.552
655.495
638.811
621.651
604.23
586.718
569.131
551.681
534.2
516.92
499.967
483.438
467.36
451.788
436.75
422.256
408.297
394.85
381.878
369.346
357.219
345.461
334.041
322.93
312.115
301.581
291.315
281.309
271.56
262.065
252.823
243.832
235.09
226.616
218.413
210.48
202.812
195.403
188.238
181.344
174.712
168.327
162.181
156.272
150.588
145.15
139.943
134.957
130.187
125.625
121.271
117.123
113.177
109.428
105.875
102.515
99.3437
96.3606
93.5591
90.8669
90.5135
37.5481
27.9827
24.9211
23.901
23.8032
24.2371
25.0172
26.0594
27.3102
28.7378
30.3217
32.049
33.911
35.9025
38.0207
40.2642
42.6335
45.1306
47.7585
50.5214
53.4243
56.4735
59.676
63.0405
66.5763
70.2942
74.2055
78.3223
82.6574
87.2241
92.0361
97.1075
102.453
108.086
114.023
120.275
126.858
133.781
141.056
148.691
156.695
165.077
173.843
182.996
192.537
202.468
212.787
223.491
234.58
246.052
257.904
270.131
282.727
295.686
309
322.66
336.655
350.972
365.599
380.52
395.716
411.169
426.857
442.756
458.842
475.086
491.462
507.938
524.482
541.06
557.636
574.171
590.627
606.961
623.131
639.09
654.793
670.194
685.245
699.901
714.117
727.849
741.054
753.694
765.73
777.127
787.854
797.883
807.187
815.744
823.536
830.55
836.776
842.211
846.854
850.702
853.755
856.007
857.465
858.127
857.986
857.019
855.155
852.423
848.813
844.304
838.882
832.527
825.223
816.956
807.716
797.495
786.29
774.101
760.945
746.833
731.782
715.75
698.828
681.121
662.849
644.107
624.955
605.63
585.993
566.308
546.751
527.423
508.477
490.051
472.253
455.149
438.789
423.197
408.369
394.28
380.887
368.136
355.967
344.322
333.142
322.373
311.967
301.887
292.102
282.588
273.326
264.303
255.513
246.949
238.605
230.479
222.579
214.907
207.464
200.244
193.249
186.474
179.915
173.58
167.469
161.575
155.897
150.424
145.171
140.129
135.294
130.659
126.218
121.977
117.927
114.064
110.385
106.886
103.567
100.424
97.4574
94.6579
91.9762
87.8459
36.6282
27.4436
24.5733
23.702
23.7503
24.3305
25.263
26.4727
27.9102
29.5451
31.358
33.3361
35.4713
37.7586
40.195
42.7795
45.5126
48.3963
51.4337
54.6293
57.9885
61.5178
65.2251
69.1196
73.212
77.514
82.0385
86.7993
91.8108
97.0883
102.648
108.505
114.676
121.179
128.029
135.243
142.834
150.813
159.186
167.963
177.148
186.746
196.756
207.18
218.019
229.271
240.931
252.993
265.45
278.294
291.517
305.108
319.055
333.345
347.965
362.898
378.126
393.631
409.391
425.384
441.587
457.973
474.515
491.186
507.956
524.796
541.675
558.563
575.43
592.242
608.967
625.568
642.011
658.257
674.266
689.999
705.413
720.467
735.118
749.326
763.05
776.251
788.891
800.935
812.349
823.1
833.161
842.505
851.107