/*--------------------------------*- C++ -*----------------------------------*\
| =========                 |                                                 |
| \\      /  F ield         | OpenFOAM: The Open Source CFD Toolbox           |
|  \\    /   O peration     | Version:  2406                                  |
|   \\  /    A nd           | Website:  www.openfoam.com                      |
|    \\/     M anipulation  |                                                 |
\*---------------------------------------------------------------------------*/
FoamFile
{
    version     2.0;
    format      ascii;
    arch        "LSB;label=32;scalar=64";
    class       volScalarField;
    location    "100";
    object      nut;
}
// * * * * * * * * * * * * * * * * * * * * * * * * * * * * * * * * * * * * * //

dimensions      [0 2 -1 0 0 0 0];

internalField   nonuniform List<scalar> 
12225
(
1.42141e-05
2.01967e-05
2.38588e-05
2.57609e-05
2.66781e-05
2.68194e-05
2.67099e-05
2.64356e-05
2.60129e-05
2.55592e-05
2.51194e-05
2.46884e-05
2.43136e-05
2.39357e-05
2.36545e-05
2.33206e-05
2.31553e-05
2.28392e-05
0.000183669
9.60972e-05
7.24581e-05
6.07782e-05
5.40874e-05
4.99298e-05
4.72926e-05
4.56507e-05
4.45602e-05
4.39773e-05
4.35857e-05
4.35462e-05
4.35203e-05
4.37961e-05
4.39793e-05
4.44537e-05
4.48004e-05
4.53899e-05
0.000648621
0.00037668
0.00027296
0.000214413
0.000179934
0.00015399
0.000137008
0.000122878
0.000113376
0.000104671
9.89095e-05
9.31379e-05
8.95212e-05
8.55186e-05
8.32556e-05
8.04253e-05
7.90481e-05
7.7117e-05
0.000843698
0.000690288
0.000566607
0.000470952
0.000409346
0.000358135
0.000324031
0.000292171
0.000271278
0.000249838
0.000236107
0.000220723
0.000211271
0.000199747
0.000193051
0.000184224
0.000179401
0.000172014
0.000861953
0.000813833
0.000767404
0.000696293
0.000641499
0.000585931
0.000546412
0.00050539
0.00047747
0.000446964
0.000426938
0.000403574
0.000388968
0.00037055
0.000359799
0.000344966
0.000336908
0.000323873
0.000854412
0.000844204
0.000832933
0.0008055
0.000778571
0.000742745
0.000714704
0.000681369
0.000657003
0.000628444
0.000608545
0.000584526
0.000568694
0.000548426
0.000536072
0.000518809
0.000509236
0.000493514
0.000852037
0.000850723
0.00084667
0.000838966
0.000830582
0.000815459
0.000802174
0.000783469
0.000768808
0.000749866
0.000735801
0.000717905
0.000705373
0.000688946
0.000678309
0.000663369
0.000654616
0.000640362
0.000851534
0.00085065
0.000849473
0.000847199
0.000844333
0.000839486
0.000834576
0.00082701
0.000820497
0.000811121
0.000803627
0.000793556
0.000786
0.000775844
0.000768735
0.000758842
0.000752428
0.000742442
0.000851491
0.000850413
0.000849602
0.000848401
0.000847355
0.000845529
0.000843812
0.000841067
0.000838412
0.000834897
0.00083115
0.000827126
0.000823163
0.000818446
0.000814421
0.00080941
0.000805398
0.000799949
0.00085149
0.000850377
0.000849516
0.000848485
0.00084769
0.000846626
0.000845737
0.0008445
0.000843367
0.000841861
0.000840433
0.000838582
0.000836944
0.000834808
0.000832987
0.000830663
0.000828714
0.000826082
0.000851476
0.000850391
0.000849471
0.000848487
0.000847663
0.000846755
0.00084599
0.000845112
0.00084436
0.000843456
0.000842681
0.000841707
0.000840885
0.000839828
0.000838963
0.000837814
0.000836933
0.000835677
0.000851464
0.000850402
0.000849451
0.000848489
0.000847633
0.000846759
0.000845985
0.000845181
0.000844472
0.000843715
0.000843053
0.000842323
0.000841688
0.000840968
0.000840351
0.000839631
0.000839026
0.000838302
0.000851456
0.000850408
0.000849438
0.00084849
0.000847614
0.000846754
0.000845962
0.000845179
0.00084446
0.000843745
0.000843088
0.000842429
0.000841824
0.000841212
0.000840649
0.000840075
0.000839545
0.000839005
0.000851451
0.00085041
0.000849429
0.000848487
0.0008476
0.000846746
0.000845942
0.000845167
0.000844436
0.000843731
0.000843065
0.000842423
0.000841814
0.000841227
0.000840668
0.00084013
0.000839615
0.00083912
0.000851449
0.00085041
0.000849424
0.000848483
0.00084759
0.000846737
0.000845927
0.000845153
0.000844415
0.000843711
0.000843039
0.000842398
0.000841784
0.000841198
0.000840637
0.000840101
0.000839587
0.000839096
0.000851448
0.000850409
0.00084942
0.000848479
0.000847583
0.000846729
0.000845915
0.000845139
0.000844399
0.000843693
0.000843018
0.000842373
0.000841757
0.000841169
0.000840605
0.000840066
0.00083955
0.000839057
0.000851447
0.000850408
0.000849418
0.000848476
0.000847578
0.000846722
0.000845906
0.000845128
0.000844386
0.000843677
0.000843
0.000842354
0.000841735
0.000841144
0.000840578
0.000840037
0.000839519
0.000839023
0.000851447
0.000850408
0.000849417
0.000848473
0.000847575
0.000846717
0.0008459
0.000845121
0.000844377
0.000843666
0.000842987
0.000842339
0.000841719
0.000841126
0.000840558
0.000840016
0.000839496
0.000838999
0.000851447
0.000850407
0.000849417
0.000848473
0.000847574
0.000846716
0.000845898
0.000845118
0.000844373
0.000843661
0.000842981
0.000842331
0.00084171
0.000841116
0.000840547
0.000840004
0.000839483
0.000838985
0.000851447
0.000850408
0.000849418
0.000848474
0.000847575
0.000846718
0.0008459
0.00084512
0.000844375
0.000843663
0.000842983
0.000842333
0.000841712
0.000841117
0.000840548
0.000840004
0.000839483
0.000838985
0.000851447
0.00085041
0.000849419
0.000848477
0.000847578
0.000846723
0.000845905
0.000845126
0.00084438
0.00084367
0.000842989
0.00084234
0.000841717
0.000841122
0.000840551
0.000840006
0.000839482
0.000838981
0.000851445
0.000850413
0.000849419
0.000848484
0.000847582
0.000846732
0.00084591
0.000845134
0.000844381
0.000843669
0.000842973
0.000842316
0.000841669
0.000841058
0.000840451
0.000839881
0.000839309
0.000838775
0.000851436
0.000850423
0.00084942
0.000848502
0.000847581
0.000846735
0.000845866
0.000845056
0.000844208
0.000843404
0.00084255
0.000841733
0.000840854
0.000840021
0.000839109
0.000838265
0.000837314
0.000836473
0.000851408
0.000850468
0.000849436
0.000848496
0.000847405
0.000846307
0.000844913
0.000843551
0.000841815
0.000840079
0.000838009
0.000835936
0.000833603
0.000831263
0.000828767
0.000826229
0.000823581
0.000821142
0.000851418
0.000850596
0.00084905
0.000847152
0.000844085
0.000839892
0.000835063
0.000829722
0.000822894
0.000816424
0.000808773
0.0008018
0.000793836
0.000786828
0.00077888
0.000772154
0.000764395
0.00075816
0.000851997
0.000847642
0.000841094
0.000829641
0.00081333
0.000795788
0.000774944
0.000756012
0.000735254
0.000717274
0.000698133
0.00068204
0.000664945
0.000650941
0.000635831
0.000623825
0.000610457
0.000600276
0.000841963
0.00082117
0.000771195
0.000718672
0.000665182
0.000621264
0.00057925
0.000546
0.000514079
0.000489206
0.000464687
0.000445802
0.000426549
0.000411942
0.000396466
0.000384978
0.000372257
0.000363101
0.000776054
0.000611492
0.000490156
0.000410357
0.000353361
0.000313185
0.000280336
0.000256702
0.000235979
0.000220821
0.000206636
0.000196264
0.000185983
0.000178548
0.000170782
0.000165267
0.000159215
0.000155009
0.000316293
0.000180143
0.000135167
0.000112031
9.72578e-05
8.76034e-05
8.0691e-05
7.61548e-05
7.24866e-05
7.0101e-05
6.79555e-05
6.6641e-05
6.53145e-05
6.45947e-05
6.37499e-05
6.33827e-05
6.2838e-05
6.26837e-05
1.98427e-05
2.50683e-05
2.89146e-05
3.15903e-05
3.33985e-05
3.45513e-05
3.52712e-05
3.56478e-05
3.58386e-05
3.58242e-05
3.57785e-05
3.56413e-05
3.54681e-05
3.52689e-05
3.50596e-05
3.48458e-05
3.46344e-05
3.44273e-05
3.72537e-09
1.23918e-07
2.59727e-07
4.20234e-07
7.47704e-07
1.45575e-06
2.36773e-06
3.38491e-06
4.31494e-06
5.18878e-06
5.86948e-06
6.38778e-06
6.67811e-06
6.52562e-06
6.37183e-06
6.40467e-06
5.97862e-06
5.91588e-06
5.57522e-06
5.00452e-06
4.19543e-06
3.13707e-06
1.95644e-06
8.94243e-07
2.64903e-07
8.14087e-08
7.12782e-08
1.25555e-07
2.39512e-07
4.81465e-07
9.87094e-07
1.33102e-06
1.35871e-06
1.30217e-06
1.1866e-06
1.10383e-06
1.13702e-06
1.29261e-06
1.7399e-06
3.95307e-06
1.02596e-05
1.70121e-05
2.29862e-05
2.81413e-05
3.25992e-05
3.6542e-05
4.0022e-05
4.30702e-05
4.57771e-05
4.81877e-05
5.03538e-05
5.23005e-05
5.40541e-05
5.56145e-05
5.69664e-05
5.80624e-05
5.87939e-05
5.89428e-05
5.83127e-05
6.01249e-05
6.36067e-05
6.4711e-05
6.60772e-05
6.76786e-05
6.85214e-05
6.99442e-05
7.09359e-05
7.19485e-05
7.31756e-05
7.41313e-05
7.52335e-05
7.62315e-05
7.72555e-05
7.82098e-05
7.91576e-05
7.99215e-05
8.04463e-05
8.03003e-05
7.90097e-05
8.00192e-05
8.17607e-05
8.51134e-05
8.55026e-05
8.69776e-05
8.80951e-05
8.88126e-05
8.98352e-05
9.12728e-05
9.24081e-05
9.34959e-05
9.43765e-05
9.51093e-05
9.59164e-05
9.64781e-05
9.70656e-05
9.7184e-05
9.6745e-05
9.64974e-05
9.76969e-05
9.98433e-05
9.88489e-05
0.00010087
0.000100665
0.000101149
0.000100385
0.000100942
0.000100859
0.000101375
0.000102305
0.000101595
0.000102197
0.000101708
0.000101547
0.000101686
0.000101168
0.000100748
0.00010028
9.96767e-05
9.89683e-05
9.81974e-05
9.73562e-05
9.64445e-05
9.54672e-05
9.44259e-05
9.33253e-05
9.21689e-05
9.09612e-05
8.97048e-05
8.8404e-05
8.70545e-05
8.56698e-05
8.42508e-05
8.27683e-05
8.12684e-05
7.97495e-05
7.82165e-05
7.66748e-05
7.51221e-05
7.35731e-05
7.20291e-05
7.04955e-05
6.89505e-05
6.77051e-05
6.67602e-05
6.58253e-05
6.48982e-05
6.39534e-05
6.30008e-05
6.20408e-05
6.10775e-05
6.01199e-05
5.91648e-05
5.82152e-05
5.72714e-05
5.63338e-05
5.5407e-05
5.44745e-05
5.35464e-05
5.26275e-05
5.17182e-05
5.08201e-05
4.99324e-05
4.90564e-05
4.81916e-05
4.73398e-05
4.64998e-05
4.56758e-05
4.48608e-05
4.40694e-05
4.32741e-05
4.25222e-05
4.173e-05
4.10246e-05
4.02035e-05
3.95348e-05
3.86484e-05
3.78538e-05
3.69746e-05
3.52552e-05
3.33367e-05
1.25555e-08
6.17407e-08
3.66992e-07
1.48617e-06
4.46822e-06
1.09962e-05
2.00599e-05
3.12607e-05
4.22473e-05
5.33318e-05
5.99294e-05
6.3618e-05
6.64527e-05
6.75106e-05
6.33149e-05
5.95773e-05
5.0104e-05
4.17425e-05
3.2618e-05
2.43454e-05
1.77238e-05
1.2107e-05
8.0614e-06
5.15259e-06
3.16059e-06
2.06681e-06
1.63889e-06
2.11816e-06
3.74923e-06
8.56554e-06
1.90042e-05
2.42952e-05
2.2795e-05
2.09047e-05
1.53327e-05
1.18745e-05
1.37993e-05
1.93718e-05
2.70616e-05
3.69157e-05
4.90198e-05
6.12944e-05
7.56563e-05
9.07895e-05
0.000107817
0.000125422
0.000144341
0.000163624
0.000183497
0.00020314
0.000222606
0.000241392
0.000259466
0.000276548
0.000291612
0.000304251
0.000317716
0.000327353
0.000339518
0.000350223
0.000359056
0.000367364
0.000374673
0.000381035
0.000388332
0.000395297
0.000402549
0.000410125
0.000417704
0.000425498
0.000433614
0.000442037
0.00045079
0.000460246
0.00047048
0.000482346
0.000496051
0.000505367
0.000511233
0.000525143
0.000532019
0.000546069
0.000551569
0.000562112
0.000572525
0.00058036
0.00058249
0.00059885
0.000616525
0.000630389
0.000643253
0.000656623
0.000670037
0.000684258
0.000697976
0.000711868
0.00072558
0.000735341
0.000748985
0.000759389
0.000766949
0.000779272
0.000790124
0.000799364
0.000807646
0.0008161
0.000823206
0.000829769
0.000834288
0.000849193
0.000853605
0.000862692
0.000869568
0.000874823
0.00087728
0.000882215
0.000886453
0.000891497
0.000892296
0.000892846
0.000892339
0.000890949
0.00088865
0.000885481
0.000881473
0.000876671
0.000871127
0.000864893
0.00085802
0.000850508
0.000842463
0.00083405
0.000825216
0.000816011
0.000806492
0.000796717
0.000786741
0.000776593
0.000766292
0.000755856
0.000745272
0.000734429
0.000722325
0.000709527
0.000696401
0.000683213
0.000669986
0.000656768
0.000643586
0.000630501
0.000617582
0.000604794
0.000592166
0.000579713
0.000567416
0.000555326
0.000543438
0.000531745
0.000520248
0.000508942
0.000497824
0.000486892
0.000476147
0.000465594
0.000455232
0.000445079
0.000435111
0.000425374
0.000415801
0.000406466
0.000397278
0.000388237
0.000379446
0.000370365
0.000362005
0.000352276
0.000343056
0.000327991
0.000315973
0.000257868
1.38087e-08
8.77852e-08
7.8941e-07
3.43398e-06
1.11998e-05
2.44949e-05
4.14945e-05
6.09136e-05
8.06163e-05
9.92462e-05
0.000112772
0.000124357
0.000128392
0.000132818
0.000132931
0.000129407
0.000122468
0.000111778
9.68836e-05
7.93649e-05
6.22038e-05
4.64792e-05
3.36596e-05
2.33325e-05
1.63832e-05
1.24276e-05
9.29769e-06
1.11218e-05
1.95058e-05
4.06713e-05
6.02227e-05
5.50539e-05
4.2707e-05
4.28255e-05
4.97735e-05
6.19411e-05
7.80274e-05
9.72371e-05
0.000119917
0.000147674
0.000179948
0.000214514
0.00025336
0.000295225
0.000340418
0.000386806
0.000433987
0.000480366
0.000525665
0.000568987
0.000610183
0.000647682
0.000680679
0.000712016
0.000738329
0.000763911
0.000787227
0.000809889
0.000831769
0.000851625
0.000870314
0.000887988
0.000904766
0.00092118
0.000937904
0.00095457
0.000971444
0.000988536
0.00100581
0.00102343
0.00104148
0.00106004
0.0010792
0.0010992
0.00112013
0.00114221
0.0011656
0.00118264
0.00120268
0.00122352
0.00124495
0.00126649
0.00128602
0.00130809
0.00132926
0.00135146
0.00137374
0.00139983
0.0014248
0.00144984
0.00147589
0.00150313
0.001529
0.00155717
0.00158383
0.00161184
0.00163867
0.00166401
0.00169062
0.00171695
0.00174063
0.00176758
0.00179311
0.00181771
0.00184157
0.00186496
0.00188715
0.00190842
0.00192864
0.00194994
0.00196746
0.0019847
0.00200067
0.00201206
0.00202319
0.00203339
0.00204209
0.00204884
0.00205247
0.00205425
0.00205364
0.00205075
0.00204558
0.0020382
0.0020287
0.0020172
0.00200383
0.00198873
0.00197206
0.001954
0.0019347
0.00191433
0.00189298
0.00187078
0.00184785
0.0018243
0.00180029
0.00177588
0.00175114
0.0017261
0.0017008
0.00167523
0.00164864
0.0016213
0.00159356
0.00156568
0.00153796
0.00151052
0.00148311
0.00145584
0.0014289
0.00140213
0.00137565
0.00134947
0.00132357
0.00129801
0.00127279
0.00124793
0.00122343
0.00119927
0.00117545
0.00115197
0.00112883
0.00110606
0.00108366
0.00106167
0.00104005
0.00101888
0.000998049
0.000977703
0.000957606
0.000937925
0.000918451
0.000898976
0.000879758
0.000859844
0.000838565
0.000808419
0.000794475
0.000695955
8.76404e-09
2.59951e-07
2.26475e-06
1.04705e-05
2.96758e-05
5.84127e-05
9.2475e-05
0.00012449
0.000149473
0.000167685
0.000178564
0.000184269
0.000185975
0.00018493
0.000181722
0.000176166
0.000168689
0.000158733
0.000145478
0.000127826
0.000107428
8.5716e-05
6.58841e-05
4.92761e-05
3.79733e-05
2.75114e-05
2.88081e-05
4.80402e-05
8.83615e-05
0.000104454
0.0001031
0.000102309
0.000108849
0.000122323
0.000138807
0.000159921
0.000193396
0.00023174
0.000274787
0.000325405
0.000381338
0.000441779
0.000506888
0.000574529
0.000643321
0.000711573
0.000778522
0.000842993
0.000904601
0.000962586
0.0010159
0.001066
0.00111243
0.00115583
0.00119569
0.00123356
0.00126922
0.00130322
0.00133555
0.00136607
0.00139531
0.00142352
0.00145103
0.00147816
0.00150513
0.00153198
0.00155883
0.00158576
0.00161285
0.00164022
0.00166794
0.0016961
0.00172478
0.00175403
0.00178383
0.00181412
0.00184438
0.00187329
0.0019039
0.00193483
0.00196614
0.00199755
0.00202893
0.00206185
0.00209486
0.00212855
0.00216271
0.00219796
0.00223314
0.00226912
0.00230599
0.00234387
0.00238207
0.00242177
0.00246039
0.00249987
0.00253903
0.00257788
0.00261712
0.00265609
0.00269464
0.00273423
0.00277291
0.00281076
0.00284791
0.0028841
0.00291899
0.00295252
0.00298469
0.00301573
0.00304425
0.00307111
0.00309563
0.00311595
0.00313241
0.00314754
0.00316033
0.00317001
0.00317609
0.00317888
0.00317822
0.00317415
0.00316669
0.00315592
0.00314196
0.00312496
0.00310514
0.00308268
0.00305781
0.00303074
0.00300171
0.00297093
0.00293861
0.00290491
0.00287006
0.00283423
0.00279763
0.00276042
0.00272271
0.00268458
0.00264608
0.00260721
0.0025676
0.00252734
0.00248671
0.00244594
0.00240534
0.00236506
0.00232517
0.00228567
0.00224671
0.00220779
0.00216924
0.00213108
0.00209326
0.00205584
0.00201884
0.00198228
0.00194615
0.00191045
0.00187516
0.0018403
0.00180589
0.00177196
0.00173853
0.00170566
0.00167333
0.00164161
0.00161042
0.00157987
0.00154976
0.00152021
0.00149098
0.00146195
0.00143304
0.00140339
0.00137421
0.00133195
0.00130948
0.00120181
3.56058e-08
7.96825e-07
6.85662e-06
3.12563e-05
7.30533e-05
0.000116895
0.0001536
0.00018036
0.000198645
0.000208965
0.000214239
0.000216043
0.000215548
0.000213172
0.000209068
0.000202882
0.000195252
0.000185705
0.000173385
0.000157356
0.000138335
0.000115814
9.1653e-05
6.81232e-05
5.36509e-05
5.42234e-05
8.83148e-05
0.000135412
0.000157542
0.000163356
0.000165858
0.00017333
0.000188942
0.000212572
0.000250574
0.000296298
0.00034837
0.000407396
0.000473539
0.000546324
0.000624085
0.000705953
0.000790148
0.000875069
0.000959606
0.00104268
0.00112344
0.00120056
0.00127349
0.00134487
0.00141314
0.00147572
0.00153419
0.00158938
0.00164141
0.00169093
0.00173803
0.00178302
0.00182608
0.00186733
0.00190714
0.0019458
0.0019836
0.00202081
0.00205759
0.00209407
0.00213037
0.00216659
0.00220284
0.00223923
0.00227583
0.00231272
0.00234997
0.00238762
0.00242563
0.00246398
0.00250235
0.00254076
0.00258007
0.0026197
0.00265961
0.0026997
0.00274027
0.0027817
0.00282345
0.00286562
0.00290813
0.00295106
0.00299433
0.00303824
0.00308283
0.00312827
0.00317463
0.00322188
0.00326894
0.00331614
0.00336353
0.00341112
0.00345874
0.00350603
0.00355307
0.00360025
0.00364684
0.00369268
0.00373773
0.00378169
0.0038243
0.00386539
0.0039048
0.00394238
0.00397761
0.00401053
0.00404066
0.00406675
0.00408782
0.00410697
0.0041231
0.0041355
0.00414384
0.00414811
0.00414819
0.00414403
0.00413566
0.00412315
0.00410665
0.00408633
0.00406242
0.00403518
0.00400481
0.00397157
0.00393573
0.00389756
0.00385732
0.00381526
0.00377164
0.00372674
0.00368078
0.00363395
0.00358642
0.0035383
0.00348968
0.00344061
0.00339097
0.0033408
0.00329031
0.00323971
0.00318924
0.00313906
0.0030893
0.00304001
0.00299129
0.00294303
0.00289531
0.00284803
0.00280099
0.00275437
0.00270815
0.00266235
0.00261697
0.002572
0.00252743
0.0024833
0.00243964
0.00239652
0.00235397
0.00231207
0.00227081
0.00223028
0.00219042
0.00215131
0.00211282
0.002075
0.00203767
0.00200068
0.00196393
0.00192643
0.00189035
0.00184205
0.00181022
0.00170458
3.08492e-07
2.5317e-06
2.20133e-05
7.17001e-05
0.000128073
0.000174963
0.000207592
0.000228727
0.000237739
0.000239679
0.000237823
0.00023441
0.000230337
0.000225962
0.000221074
0.000214683
0.00020685
0.000196461
0.000182858
0.000165044
0.000143009
0.000119464
9.7657e-05
8.38762e-05
9.2592e-05
0.000132294
0.000177155
0.000201308
0.000211516
0.000217122
0.000228816
0.000252367
0.000291978
0.000338677
0.000395359
0.000459471
0.000531287
0.000610349
0.000696241
0.000787884
0.000883395
0.000981657
0.00108026
0.00117805
0.00127412
0.0013671
0.00145831
0.00154563
0.00163103
0.00171167
0.00178814
0.00186062
0.00192943
0.00199493
0.00205736
0.0021171
0.00217434
0.00222933
0.00228227
0.00233339
0.00238295
0.00243121
0.00247845
0.00252489
0.00257068
0.002616
0.00266094
0.00270564
0.0027502
0.0027947
0.00283923
0.00288386
0.00292867
0.00297368
0.00301891
0.00306436
0.00310991
0.00315566
0.00320188
0.00324836
0.00329501
0.00334179
0.00338888
0.00343634
0.003484
0.00353182
0.00357976
0.00362783
0.0036761
0.00372475
0.00377385
0.00382353
0.00387375
0.00392412
0.00397441
0.00402464
0.00407529
0.0041266
0.00417793
0.00422849
0.00427874
0.00432876
0.00437831
0.00442727
0.00447546
0.00452257
0.00456845
0.00461285
0.00465558
0.0046964
0.00473501
0.00477119
0.00480454
0.00483419
0.00485878
0.00488102
0.00489996
0.00491496
0.00492569
0.00493201
0.00493379
0.00493094
0.00492342
0.00491122
0.00489448
0.00487336
0.004848
0.00481864
0.00478559
0.00474912
0.00470954
0.00466715
0.00462224
0.00457514
0.00452613
0.00447554
0.00442364
0.0043706
0.00431662
0.00426188
0.00420651
0.00415061
0.00409417
0.00403729
0.00398011
0.00392281
0.00386559
0.00380861
0.00375197
0.00369577
0.00364009
0.00358494
0.00353037
0.00347638
0.0034229
0.00336989
0.00331712
0.00326468
0.00321256
0.00316072
0.00310919
0.00305803
0.0030073
0.0029571
0.0029075
0.00285856
0.00281033
0.00276287
0.00271619
0.00267032
0.00262519
0.00258083
0.00253709
0.00249386
0.00245101
0.00240769
0.00236576
0.00231492
0.00227357
0.00217737
8.48851e-07
7.02922e-06
4.96063e-05
0.000114599
0.000172489
0.000214057
0.000239562
0.000249771
0.000250768
0.000247182
0.000242125
0.000236927
0.000232061
0.00022726
0.000221846
0.0002152
0.000206925
0.000196075
0.000181827
0.000163891
0.000143814
0.000125929
0.000119137
0.000131582
0.000172056
0.000209905
0.000235349
0.000248921
0.000260508
0.000281079
0.000316781
0.00036281
0.000419415
0.000484433
0.000558899
0.000641225
0.000731531
0.000829193
0.000932159
0.00103813
0.00114562
0.00125343
0.00136038
0.00146534
0.00156891
0.00166961
0.00176894
0.00186391
0.00195522
0.00204285
0.00212683
0.00220729
0.00228441
0.00235841
0.0024295
0.00249791
0.00256385
0.00262753
0.00268917
0.00274896
0.00280714
0.00286393
0.00291956
0.00297422
0.00302809
0.0030813
0.00313398
0.00318623
0.00323816
0.00328984
0.00334135
0.00339275
0.0034441
0.00349544
0.00354678
0.00359815
0.0036495
0.00370088
0.00375237
0.0038039
0.00385538
0.00390679
0.00395815
0.00400948
0.00406068
0.00411171
0.00416254
0.00421316
0.00426364
0.00431407
0.00436454
0.00441509
0.00446566
0.00451613
0.00456644
0.00461663
0.00466697
0.00471726
0.00476718
0.00481669
0.0048658
0.00491443
0.0049627
0.0050107
0.00505827
0.00510479
0.0051504
0.00519473
0.00523765
0.00527893
0.00531833
0.00535558
0.00539035
0.00542176
0.00544877
0.00547329
0.0054946
0.00551205
0.00552533
0.00553418
0.00553844
0.00553798
0.0055327
0.00552243
0.0055073
0.00548743
0.00546297
0.00543413
0.00540116
0.00536437
0.00532405
0.00528052
0.0052341
0.00518514
0.00513396
0.00508087
0.00502603
0.00496977
0.00491233
0.00485396
0.00479483
0.00473507
0.00467476
0.00461401
0.00455295
0.00449175
0.00443058
0.00436956
0.00430877
0.00424832
0.00418829
0.00412874
0.00406971
0.00401124
0.00395333
0.00389599
0.00383913
0.00378251
0.003726
0.00366954
0.00361321
0.00355714
0.00350142
0.00344617
0.00339148
0.00333743
0.00328411
0.00323156
0.00317983
0.00312894
0.00307888
0.00302964
0.00298114
0.00293327
0.00288595
0.00283848
0.00279217
0.00274089
0.00269514
0.0026056
1.34745e-06
1.62454e-05
8.16534e-05
0.000158116
0.000216006
0.000250154
0.000265089
0.000267039
0.000260894
0.000251233
0.000241697
0.000233893
0.000227816
0.000222307
0.000216799
0.000209686
0.000199652
0.00018703
0.000172971
0.000158695
0.000147332
0.00014851
0.000174324
0.000209451
0.000239574
0.000262728
0.000280966
0.000300056
0.000331524
0.000372723
0.00042573
0.000488947
0.000562224
0.000644638
0.00073634
0.000836229
0.00094197
0.00105179
0.00116412
0.00127757
0.00139111
0.00150393
0.00161502
0.00172541
0.00183502
0.00194096
0.00204378
0.00214332
0.00223956
0.00233252
0.00242223
0.0025088
0.00259234
0.002673
0.00275095
0.00282636
0.00289941
0.00297028
0.00303916
0.00310623
0.0031717
0.00323576
0.00329858
0.00336034
0.00342119
0.00348126
0.00354066
0.0035995
0.00365784
0.00371576
0.00377331
0.00383055
0.00388751
0.00394421
0.00400067
0.00405689
0.00411285
0.00416855
0.00422399
0.00427914
0.00433392
0.0043883
0.00444224
0.00449572
0.00454866
0.00460102
0.00465276
0.00470386
0.00475437
0.00480433
0.00485381
0.00490283
0.00495139
0.00499943
0.00504697
0.00509403
0.00514069
0.00518694
0.00523271
0.00527801
0.00532288
0.00536735
0.00541156
0.0054555
0.00549897
0.00554231
0.00558534
0.00562736
0.00566837
0.00570822
0.00574668
0.0057835
0.00581837
0.00585032
0.00587879
0.00590489
0.00592801
0.00594756
0.00596316
0.00597452
0.0059814
0.00598363
0.00598123
0.00597403
0.00596184
0.00594471
0.00592277
0.00589619
0.00586521
0.00583008
0.00579112
0.00574864
0.00570297
0.00565446
0.00560347
0.00555037
0.00549533
0.0054386
0.00538047
0.00532123
0.00526107
0.00520018
0.00513867
0.00507666
0.00501428
0.00495163
0.00488884
0.0048261
0.00476347
0.00470104
0.0046389
0.00457713
0.00451579
0.00445491
0.00439453
0.00433471
0.00427539
0.00421648
0.00415766
0.00409854
0.00403934
0.00398024
0.00392138
0.0038629
0.00380492
0.00374753
0.00369083
0.00363489
0.00357975
0.00352546
0.00347202
0.00341943
0.00336766
0.00331661
0.00326627
0.00321606
0.00316697
0.00311441
0.00307004
0.00298393
1.66078e-06
2.73639e-05
0.000106769
0.000188567
0.000245522
0.000275952
0.000283695
0.000277322
0.000264124
0.000249667
0.00023711
0.000227633
0.000220457
0.000215405
0.000210753
0.000202955
0.000193238
0.000181642
0.000172616
0.00017321
0.000189392
0.000214653
0.000240001
0.00026666
0.000287837
0.000310094
0.00033859
0.000375026
0.000422187
0.00048003
0.000549114
0.000628566
0.000718264
0.000816096
0.00092132
0.00103151
0.00114506
0.00126069
0.00137731
0.00149401
0.00160992
0.00172515
0.00183996
0.00195409
0.00206503
0.00217319
0.00227851
0.00238091
0.00248038
0.00257693
0.00267058
0.00276141
0.0028495
0.00293497
0.00301794
0.00309857
0.00317699
0.00325339
0.0033279
0.00340072
0.00347199
0.00354188
0.00361055
0.00367815
0.00374479
0.00381059
0.00387564
0.00394003
0.00400382
0.00406705
0.00412975
0.00419195
0.00425366
0.0043149
0.00437565
0.00443589
0.00449557
0.00455467
0.00461314
0.00467093
0.00472797
0.00478422
0.00483963
0.00489411
0.0049476
0.00500005
0.0050514
0.00510164
0.00515076
0.0051988
0.00524579
0.00529178
0.00533677
0.00538079
0.00542384
0.00546597
0.00550734
0.00554802
0.00558808
0.00562762
0.00566672
0.0057055
0.00574407
0.00578251
0.00582066
0.0058587
0.00589696
0.00593509
0.00597265
0.00600962
0.00604585
0.0060811
0.00611509
0.00614685
0.00617621
0.00620354
0.00622836
0.00625011
0.00626835
0.0062827
0.00629285
0.00629855
0.00629974
0.00629576
0.00628674
0.0062727
0.00625372
0.00622994
0.00620158
0.00616888
0.00613212
0.00609161
0.00604769
0.00600071
0.00595106
0.00589919
0.00584565
0.00579027
0.00573331
0.00567508
0.00561582
0.00555571
0.00549491
0.00543355
0.00537175
0.00530961
0.00524728
0.00518493
0.00512252
0.00506016
0.00499795
0.00493596
0.00487425
0.00481287
0.00475186
0.00469122
0.00463098
0.00457113
0.00451154
0.00445137
0.0043909
0.00433037
0.00426998
0.00420987
0.00415017
0.00409099
0.00403245
0.00397461
0.00391753
0.00386126
0.00380583
0.00375126
0.00369754
0.00364462
0.0035925
0.00354076
0.00349018
0.00343707
0.00339236
0.00331275
1.85013e-06
3.92566e-05
0.000133662
0.000218924
0.00027417
0.000298499
0.000299716
0.000287326
0.000269428
0.00025141
0.000235966
0.00022336
0.000215545
0.000208718
0.000200725
0.000195166
0.00019441
0.000199553
0.000211161
0.000228284
0.000247856
0.000270495
0.000291794
0.000313913
0.000340279
0.000374217
0.000415146
0.000466286
0.00052869
0.000602237
0.000686166
0.000778991
0.000879783
0.000986878
0.00109847
0.00121305
0.00132951
0.00144692
0.00156452
0.00168161
0.00179869
0.00191594
0.00203128
0.00214469
0.00225581
0.00236448
0.00247063
0.00257421
0.00267519
0.00277356
0.00286933
0.00296256
0.00305332
0.0031417
0.00322782
0.0033118
0.00339378
0.0034739
0.00355231
0.00362916
0.00370462
0.0037788
0.00385186
0.00392389
0.00399502
0.00406533
0.00413489
0.00420377
0.004272
0.00433961
0.00440659
0.00447295
0.00453867
0.00460376
0.00466816
0.00473181
0.00479464
0.00485658
0.00491754
0.00497745
0.0050362
0.00509379
0.00515011
0.00520507
0.00525858
0.00531056
0.00536094
0.0054097
0.00545681
0.00550229
0.00554616
0.00558851
0.0056293
0.00566855
0.00570636
0.00574283
0.00577813
0.0058124
0.00584579
0.00587845
0.00591057
0.00594231
0.00597385
0.00600532
0.00603686
0.00606856
0.0061007
0.00613337
0.00616629
0.00619924
0.00623219
0.0062649
0.00629711
0.00632801
0.00635757
0.00638565
0.00641181
0.00643554
0.00645633
0.00647373
0.0064873
0.00649669
0.00650159
0.0065017
0.00649687
0.00648705
0.00647227
0.00645261
0.00642823
0.00639936
0.00636624
0.00632918
0.00628848
0.00624452
0.00619769
0.00614846
0.00609736
0.006044
0.00598897
0.00593259
0.00587509
0.00581669
0.00575755
0.00569781
0.00563758
0.00557698
0.00551614
0.00545544
0.00539467
0.00533383
0.005273
0.00521226
0.00515165
0.00509122
0.00503101
0.00497105
0.00491137
0.00485195
0.00479272
0.00473288
0.00467254
0.00461202
0.00455153
0.00449121
0.0044312
0.00437162
0.00431256
0.00425412
0.00419637
0.00413938
0.00408318
0.00402782
0.00397331
0.00391963
0.00386681
0.00381456
0.00376349
0.00371068
0.0036654
0.00359256
1.95706e-06
4.51603e-05
0.000150549
0.000242952
0.000298878
0.000320586
0.00031782
0.000302145
0.000282271
0.000263425
0.000248544
0.000239507
0.000231767
0.000226243
0.000226082
0.000230054
0.000237176
0.000247995
0.000262431
0.000279956
0.000298719
0.000317895
0.000341835
0.000372375
0.000408807
0.00045376
0.00050827
0.000573894
0.000649591
0.000734562
0.000827867
0.00092854
0.00103483
0.00114518
0.00125837
0.00137339
0.00148942
0.00160571
0.00172198
0.00183862
0.00195541
0.00207054
0.00218408
0.00229579
0.00240545
0.00251295
0.00261823
0.00272124
0.00282197
0.00292039
0.00301645
0.00311018
0.00320166
0.003291
0.0033783
0.00346369
0.0035473
0.00362925
0.00370968
0.00378873
0.0038666
0.00394341
0.00401925
0.00409421
0.0041684
0.0042419
0.00431475
0.004387
0.00445865
0.0045297
0.00460012
0.00466987
0.00473889
0.00480725
0.00487483
0.00494152
0.00500719
0.00507173
0.00513503
0.00519696
0.00525738
0.00531645
0.00537386
0.00542947
0.00548316
0.00553484
0.00558442
0.00563184
0.00567705
0.00572004
0.00576081
0.00579943
0.00583594
0.00587043
0.00590301
0.00593382
0.00596302
0.00599079
0.00601734
0.0060429
0.00606772
0.00609204
0.00611613
0.00614023
0.00616458
0.00618941
0.00621491
0.00624142
0.00626878
0.006297
0.00632598
0.00635551
0.00638527
0.00641484
0.00644395
0.00647227
0.00649936
0.00652477
0.00654791
0.00656823
0.00658519
0.00659835
0.00660731
0.00661173
0.0066114
0.00660618
0.006596
0.00658093
0.00656107
0.00653661
0.00650776
0.00647478
0.00643799
0.00639776
0.00635448
0.00630859
0.00626044
0.00621027
0.0061584
0.0061051
0.00605062
0.00599517
0.00593893
0.00588204
0.00582461
0.00576676
0.0057086
0.00565058
0.00559213
0.00553351
0.00547482
0.00541611
0.00535741
0.00529876
0.0052402
0.00518178
0.00512349
0.00506532
0.00500737
0.00494872
0.00488958
0.00483019
0.00477074
0.00471137
0.00465222
0.00459339
0.00453499
0.00447712
0.00441985
0.00436326
0.0043074
0.00425231
0.00419805
0.00414461
0.00409205
0.00404018
0.0039895
0.00393771
0.00389225
0.00382571
1.99111e-06
5.1901e-05
0.000167714
0.000266307
0.00032316
0.000343721
0.000339246
0.000322482
0.00030299
0.000286746
0.000275905
0.00026763
0.000261577
0.000261718
0.000265836
0.000272851
0.000282731
0.000295547
0.000311154
0.000328041
0.000346871
0.000373503
0.000406835
0.000445882
0.000493543
0.000550462
0.000616599
0.000691895
0.000775554
0.000866879
0.000964859