/*--------------------------------*- C++ -*----------------------------------*\
| =========                 |                                                 |
| \\      /  F ield         | OpenFOAM: The Open Source CFD Toolbox           |
|  \\    /   O peration     | Version:  2406                                  |
|   \\  /    A nd           | Website:  www.openfoam.com                      |
|    \\/     M anipulation  |                                                 |
\*---------------------------------------------------------------------------*/
FoamFile
{
    version     2.0;
    format      ascii;
    arch        "LSB;label=32;scalar=64";
    class       volScalarField;
    location    "100";
    object      p;
}
// * * * * * * * * * * * * * * * * * * * * * * * * * * * * * * * * * * * * * //

dimensions      [0 2 -2 0 0 0 0];

internalField   nonuniform List<scalar> 
12225
(
-2.90821
-5.03746
-6.14324
-6.46926
-6.65293
-6.83705
-6.99042
-7.1073
-7.20462
-7.29375
-7.37774
-7.458
-7.53644
-7.61569
-7.69883
-7.79006
-7.89722
-8.01486
-6.09025
-6.90059
-7.09843
-6.99527
-6.95919
-7.01688
-7.09694
-7.17117
-7.24291
-7.31591
-7.38942
-7.46257
-7.53594
-7.61107
-7.68997
-7.77632
-7.86953
-7.98383
-6.45674
-6.3841
-6.50361
-6.58889
-6.69449
-6.83541
-6.96953
-7.08122
-7.17797
-7.26754
-7.35205
-7.43255
-7.5105
-7.58797
-7.66685
-7.74926
-7.83341
-7.91535
-6.31323
-6.21581
-6.47584
-6.66409
-6.78376
-6.90603
-7.02242
-7.12088
-7.20719
-7.28815
-7.36585
-7.44074
-7.51386
-7.58658
-7.65995
-7.73444
-7.80639
-7.86856
-6.29946
-6.30917
-6.55843
-6.7229
-6.81679
-6.91829
-7.02357
-7.11702
-7.20073
-7.27994
-7.35636
-7.43007
-7.50178
-7.57235
-7.64225
-7.71087
-7.77445
-7.82691
-6.36009
-6.40294
-6.59145
-6.73215
-6.82317
-6.92102
-7.02324
-7.11557
-7.19866
-7.27699
-7.35223
-7.42449
-7.49428
-7.56216
-7.62815
-7.69115
-7.74802
-7.794
-6.42298
-6.46381
-6.60883
-6.73974
-6.8342
-6.92916
-7.02676
-7.11645
-7.1978
-7.27438
-7.34772
-7.41799
-7.48545
-7.55036
-7.61247
-7.67055
-7.72214
-7.76372
-6.47878
-6.51494
-6.63284
-6.75413
-6.84802
-6.93819
-7.03023
-7.11667
-7.19592
-7.27051
-7.3418
-7.40996
-7.47503
-7.53704
-7.59557
-7.64953
-7.69706
-7.73577
-6.53086
-6.564
-6.66171
-6.77095
-6.86143
-6.9469
-7.03371
-7.11669
-7.19359
-7.26599
-7.33507
-7.40097
-7.46354
-7.52268
-7.57793
-7.62839
-7.67277
-7.70945
-6.58031
-6.61047
-6.69187
-6.7888
-6.87475
-6.95592
-7.03777
-7.11699
-7.1912
-7.26119
-7.32788
-7.39135
-7.45135
-7.50767
-7.55993
-7.60741
-7.64927
-7.68444
-6.62692
-6.65377
-6.72216
-6.80773
-6.88842
-6.96529
-7.04234
-7.1176
-7.18885
-7.25625
-7.32041
-7.38134
-7.43874
-7.49236
-7.54189
-7.58681
-7.62661
-7.66057
-6.66686
-6.69071
-6.74958
-6.82582
-6.90117
-6.97398
-7.04679
-7.11837
-7.18674
-7.25161
-7.31335
-7.37191
-7.42698
-7.47826
-7.52551
-7.56837
-7.60656
-7.63959
-6.70364
-6.72489
-6.77594
-6.84385
-6.91381
-6.98253
-7.05129
-7.11923
-7.18466
-7.24696
-7.30625
-7.36245
-7.41525
-7.46436
-7.50953
-7.55058
-7.58735
-7.61956
-6.74196
-6.76063
-6.80439
-6.86406
-6.92797
-6.99204
-7.05635
-7.12023
-7.18226
-7.24159
-7.29808
-7.3516
-7.40192
-7.44872
-7.49179
-7.531
-7.56637
-7.59772
-6.78038
-6.7965
-6.83372
-6.8856
-6.94312
-7.00208
-7.06165
-7.12113
-7.17935
-7.23537
-7.28878
-7.33938
-7.38701
-7.43141
-7.47241
-7.50985
-7.54383
-7.57431
-6.81662
-6.8304
-6.86202
-6.9069
-6.95811
-7.01178
-7.06651
-7.12146
-7.17561
-7.22809
-7.27828
-7.32588
-7.37071
-7.4127
-7.45165
-7.48747
-7.52015
-7.54979
-6.84742
-6.85923
-6.88633
-6.92539
-6.97093
-7.01955
-7.06969
-7.12029
-7.17044
-7.21935
-7.26637
-7.31105
-7.35321
-7.39286
-7.42992
-7.46423
-7.49579
-7.52464
-6.86798
-6.87834
-6.90224
-6.93708
-6.97829
-7.02283
-7.06916
-7.11613
-7.16283
-7.20857
-7.25276
-7.29488
-7.33475
-7.37236
-7.40776
-7.44079
-7.4714
-7.49961
-6.87091
-6.88058
-6.903
-6.9359
-6.97503
-7.01743
-7.06156
-7.10631
-7.15083
-7.19445
-7.23666
-7.27699
-7.31524
-7.35143
-7.38565
-7.41778
-7.44777
-7.47564
-6.84986
-6.86002
-6.88357
-6.9181
-6.95887
-7.00237
-7.04701
-7.09195
-7.13647
-7.17988
-7.22173
-7.2616
-7.29942
-7.33517
-7.36898
-7.40073
-7.43047
-7.45823
-6.81858
-6.82963
-6.85566
-6.89407
-6.93861
-6.9849
-7.03156
-7.07815
-7.12388
-7.16805
-7.21026
-7.25039
-7.28836
-7.32428
-7.35809
-7.38987
-7.41958
-7.44749
-6.77922
-6.79099
-6.82087
-6.86607
-6.91642
-6.96617
-7.01547
-7.06463
-7.1125
-7.15807
-7.20113
-7.2418
-7.28022
-7.31642
-7.35041
-7.38224
-7.412
-7.43996
-6.73509
-6.74614
-6.78064
-6.83626
-6.89461
-6.94841
-7.00064
-7.05254
-7.10256
-7.14963
-7.1938
-7.23533
-7.27439
-7.31102
-7.34532
-7.37735
-7.40737
-7.43561
-6.68867
-6.69725
-6.73834
-6.80599
-6.87164
-6.93044
-6.98781
-7.04355
-7.09552
-7.14361
-7.18857
-7.23072
-7.27014
-7.30691
-7.3412
-7.37324
-7.40323
-7.43144
-6.63987
-6.64016
-6.70336
-6.78646
-6.85073
-6.90976
-6.97286
-7.03408
-7.08917
-7.13918
-7.18569
-7.22907
-7.26927
-7.30646
-7.34095
-7.3731
-7.4032
-7.43175
-6.59602
-6.54474
-6.66104
-6.78478
-6.84967
-6.90266
-6.96427
-7.02522
-7.0798
-7.12959
-7.17633
-7.22012
-7.26071
-7.29824
-7.33303
-7.36547
-7.39584
-7.42444
-6.61796
-6.4144
-6.54828
-6.72678
-6.83101
-6.90846
-6.98197
-7.04663
-7.1016
-7.15074
-7.19623
-7.23838
-7.27713
-7.3128
-7.34575
-7.37641
-7.40533
-7.43342
-6.76862
-6.51662
-6.49822
-6.56132
-6.64917
-6.75581
-6.8591
-6.94593
-7.01909
-7.08382
-7.14215
-7.19453
-7.24149
-7.28372
-7.3218
-7.35637
-7.3883
-7.41892
-6.50133
-7.14799
-7.26875
-7.12766
-7.03956
-7.04135
-7.07293
-7.10567
-7.13923
-7.17575
-7.21347
-7.25042
-7.28572
-7.31903
-7.35007
-7.37872
-7.40545
-7.43197
-3.39754
-5.16686
-6.19363
-6.49329
-6.63435
-6.77902
-6.90118
-6.99031
-7.06036
-7.12146
-7.17622
-7.22494
-7.26847
-7.3076
-7.34269
-7.37383
-7.40111
-7.42309
-8.61283
-8.61476
-8.61796
-8.61594
-8.60606
-8.5931
-8.58348
-8.58206
-8.5891
-8.60244
-8.61918
-8.63657
-8.65197
-8.66321
-8.66873
-8.66877
-8.66471
-8.65778
-8.64923
-8.64057
-8.63331
-8.62844
-8.62613
-8.62568
-8.6259
-8.62579
-8.62464
-8.6216
-8.61669
-8.61237
-8.61157
-8.6144
-8.61873
-8.62263
-8.6254
-8.62788
-8.62995
-8.63005
-8.62709
-8.62285
-8.6224
-8.63356
-8.66126
-8.70773
-8.77233
-8.85235
-8.9436
-9.04175
-9.14231
-9.24169
-9.33675
-9.42561
-9.50677
-9.57979
-9.6443
-9.70076
-9.74937
-9.79097
-9.82587
-9.85508
-9.87891
-9.89826
-9.91323
-9.92461
-9.93235
-9.93717
-9.93898
-9.93838
-9.93514
-9.92983
-9.92212
-9.91243
-9.90033
-9.88615
-9.86943
-9.85043
-9.8285
-9.8037
-9.77524
-9.74316
-9.70644
-9.66491
-9.61757
-9.56443
-9.5045
-9.4378
-9.3632
-9.28029
-9.18739
-9.08333
-8.96788
-8.83989
-8.69804
-8.5408
-8.36671
-8.17447
-7.9631
-7.73163
-7.47942
-7.20567
-6.90985
-6.59137
-6.24985
-5.88502
-5.49675
-5.08526
-4.65091
-4.19452
-3.71705
-3.22
-2.70489
-2.17373
-1.62852
-1.07152
-0.504968
0.068589
0.646637
1.22651
1.80564
2.38155
2.95191
3.51452
4.06736
4.60857
5.13648
5.6497
6.14703
6.62754
7.0905
7.53544
7.96204
8.37021
8.75993
9.1314
9.48488
9.82078
10.1395
10.4418
10.728
10.999
11.2556
11.4988
11.7292
11.9471
12.1527
12.3465
12.529
12.7008
12.8626
13.0148
13.1581
13.2929
13.4197
13.539
13.6513
13.7569
13.8563
13.9498
14.0378
14.1205
14.1982
14.2713
14.34
14.4045
14.4651
14.522
14.5755
14.6257
14.673
14.7176
14.76
14.8005
14.8399
14.879
14.9195
14.9635
15.0165
15.0826
15.1809
15.2921
-8.62075
-8.62266
-8.62447
-8.62284
-8.61705
-8.61147
-8.61051
-8.61595
-8.62731
-8.64286
-8.66038
-8.67766
-8.6927
-8.70417
-8.71107
-8.71224
-8.70685
-8.69567
-8.68059
-8.66415
-8.64909
-8.63757
-8.63047
-8.62711
-8.62571
-8.62444
-8.62237
-8.61984
-8.61779
-8.61785
-8.62099
-8.6252
-8.62736
-8.62524
-8.61965
-8.61561
-8.61762
-8.62364
-8.62706
-8.62643
-8.62942
-8.64623
-8.68257
-8.73976
-8.81529
-8.90461
-9.00237
-9.1036
-9.20392
-9.30019
-9.39009
-9.47238
-9.54636
-9.61201
-9.66952
-9.71953
-9.76251
-9.79917
-9.83002
-9.85578
-9.87675
-9.89344
-9.90608
-9.91522
-9.92107
-9.92422
-9.92461
-9.92261
-9.91826
-9.91184
-9.90323
-9.89266
-9.87994
-9.86511
-9.84798
-9.82867
-9.80676
-9.78214
-9.75443
-9.72344
-9.68842
-9.64884
-9.60378
-9.553
-9.49558
-9.43116
-9.35895
-9.27811
-9.18697
-9.08477
-8.97074
-8.84406
-8.70341
-8.54761
-8.37558
-8.18631
-7.97881
-7.75208
-7.50517
-7.23714
-6.94719
-6.63479
-6.29959
-5.94114
-5.55931
-5.15421
-4.72631
-4.27629
-3.80519
-3.3142
-2.80497
-2.27929
-1.73916
-1.18674
-0.624299
-0.0542488
0.5209
1.09856
1.67617
2.25125
2.82145
3.38453
3.93844
4.48127
5.01134
5.52714
6.02748
6.51133
6.97794
7.42673
7.85738
8.26969
8.66367
9.03944
9.39725
9.73746
10.0605
10.3669
10.6572
10.9318
11.1916
11.4371
11.6693
11.8889
12.0964
12.2921
12.4767
12.6506
12.8145
12.9688
13.1141
13.2509
13.3797
13.5009
13.615
13.7224
13.8235
13.9186
14.0081
14.0923
14.1715
14.2459
14.3159
14.3816
14.4434
14.5014
14.5558
14.6071
14.6553
14.7008
14.744
14.7854
14.8256
14.8655
14.9066
14.9509
15.0026
15.0645
15.153
15.2486
-8.62551
-8.62431
-8.62412
-8.62559
-8.62977
-8.63791
-8.65003
-8.66524
-8.68241
-8.70034
-8.71764
-8.73297
-8.74518
-8.75358
-8.75773
-8.75726
-8.75184
-8.7415
-8.72646
-8.70731
-8.68516
-8.66174
-8.6392
-8.61957
-8.60426
-8.59364
-8.58767
-8.58669
-8.59094
-8.59903
-8.60714
-8.61207
-8.61459
-8.61536
-8.61386
-8.61439
-8.62393
-8.64279
-8.66701
-8.69451
-8.72739
-8.76952
-8.82298
-8.88755
-8.96116
-9.04106
-9.12425
-9.20802
-9.28999
-9.36843
-9.44199
-9.50988
-9.57155
-9.62694
-9.67608
-9.71923
-9.75664
-9.78872
-9.8158
-9.83833
-9.85661
-9.87101
-9.88179
-9.88931
-9.89383
-9.89568
-9.89499
-9.89199
-9.88675
-9.87943
-9.87005
-9.8587
-9.84534
-9.82996
-9.81246
-9.79282
-9.77081
-9.74625
-9.71885
-9.68829
-9.65403
-9.61556
-9.57223
-9.52347
-9.46852
-9.40688
-9.3378
-9.26011
-9.17263
-9.0745
-8.96514
-8.84343
-8.70794
-8.55762
-8.39148
-8.20863
-8.00794
-7.78858
-7.54941
-7.28955
-7.00816
-6.70464
-6.37845
-6.0291
-5.6565
-5.26059
-4.84182
-4.40082
-3.93856
-3.45614
-2.95516
-2.43721
-1.90423
-1.35832
-0.801728
-0.236793
0.334021
0.908204
1.48323
2.0566
2.62593
3.18895
3.74358
4.28782
4.81997
5.33842
5.84193
6.32936
6.79993
7.25295
7.68807
8.10501
8.50378
8.88443
9.24724
9.59252
9.92071
10.2323
10.5278
10.8079
11.0732
11.3243
11.5621
11.7871
11.9997
12.2004
12.3897
12.5682
12.7364
12.8948
13.0441
13.1846
13.317
13.4416
13.5589
13.6694
13.7733
13.8712
13.9632
14.0499
14.1313
14.2079
14.2799
14.3475
14.4111
14.4708
14.5268
14.5795
14.6292
14.676
14.7205
14.763
14.8042
14.845
14.8867
14.9311
14.9814
15.0389
15.1151
15.1857
-8.63081
-8.62765
-8.63152
-8.64275
-8.65864
-8.67765
-8.69792
-8.71795
-8.737
-8.75467
-8.77037
-8.78342
-8.7931
-8.79888
-8.80033
-8.79721
-8.78935
-8.77676
-8.75941
-8.73725
-8.71031
-8.67914
-8.64524
-8.61139
-8.5814
-8.55933
-8.54869
-8.55043
-8.56016
-8.57025
-8.57706
-8.58271
-8.59016
-8.60056
-8.61432
-8.63366
-8.66104
-8.69644
-8.73799
-8.78379
-8.83315
-8.88665
-8.94479
-9.00749
-9.074
-9.1432
-9.21364
-9.28389
-9.35252
-9.41835
-9.48041
-9.53809
-9.59089
-9.63859
-9.6811
-9.71853
-9.75104
-9.77893
-9.80242
-9.82186
-9.83746
-9.84956
-9.85839
-9.86425
-9.86732
-9.86785
-9.86605
-9.8621
-9.85607
-9.84808
-9.83817
-9.82641
-9.81278
-9.79733
-9.77995
-9.76054
-9.73895
-9.71494
-9.68818
-9.65836
-9.62507
-9.58784
-9.54613
-9.49922
-9.44646
-9.38726
-9.32091
-9.2464
-9.16248
-9.06869
-8.96397
-8.84721
-8.71722
-8.57281
-8.4131
-8.23702
-8.04355
-7.83169
-7.60042
-7.34877
-7.07591
-6.78115
-6.46383
-6.12349
-5.7599
-5.37306
-4.96326
-4.5311
-4.07742
-3.6033
-3.11016
-2.59961
-2.07345
-1.53373
-0.982673
-0.422555
0.144192
0.715085
1.28762
1.8593
2.42774
2.99064
3.54585
4.09135
4.62537
5.14626
5.65267
6.14345
6.61772
7.07476
7.51416
7.93562
8.33911
8.72468
9.09257
9.44305
9.77655
10.0935
10.3946
10.6803
10.9512
11.208
11.4512
11.6814
11.899
12.1045
12.2985
12.4814
12.6539
12.8165
12.9697
13.114
13.2499
13.378
13.4986
13.6121
13.719
13.8197
13.9144
14.0036
14.0874
14.1663
14.2404
14.31
14.3754
14.4369
14.4946
14.5489
14.6
14.6482
14.6939
14.7375
14.7796
14.8211
14.863
14.9068
14.9547
15.0067
15.0704
15.118
-8.63892
-8.63825
-8.65264
-8.67308
-8.69499
-8.71749
-8.73937
-8.75999
-8.77907
-8.79628
-8.81109
-8.82292
-8.83118
-8.83536
-8.83506
-8.83006
-8.82025
-8.80558
-8.78597
-8.76128
-8.73131
-8.69616
-8.65694
-8.61678
-8.58129
-8.55711
-8.54747
-8.54848
-8.55211
-8.55633
-8.56388
-8.57736
-8.59773
-8.62433
-8.65598
-8.69225
-8.7331
-8.77816
-8.82664
-8.87772
-8.93095
-8.98636
-9.04396
-9.10355
-9.16462
-9.22649
-9.28824
-9.34898
-9.40783
-9.46405
-9.51696
-9.56613
-9.61118
-9.65196
-9.68836
-9.72046
-9.74831
-9.77214
-9.79209
-9.80843
-9.82131
-9.83103
-9.83775
-9.84175
-9.84317
-9.84225
-9.83916
-9.8341
-9.82714
-9.81841
-9.80796
-9.79583
-9.78205
-9.76662
-9.74946
-9.73046
-9.70946
-9.68622
-9.66042
-9.63176
-9.59985
-9.56426
-9.52445
-9.47975
-9.42953
-9.37316
-9.30995
-9.23893
-9.15918
-9.06959
-8.96975
-8.85812
-8.7337
-8.59524
-8.44188
-8.27239
-8.08583
-7.88103
-7.65705
-7.41287
-7.14763
-6.86055
-6.55087
-6.21821
-5.86215
-5.48282
-5.08031
-4.65528
-4.20838
-3.74074
-3.25359
-2.74859
-2.22743
-1.69218
-1.14495
-0.588061
-0.0239156
0.544977
1.11612
1.68704
2.25529
2.81859
3.37469
3.92162
4.45746
4.98065
5.48967
5.98344
6.46094
6.92157
7.36476
7.79031
8.19801
8.58798
8.96029
9.3153
9.65333
9.97488
10.2805
10.5706
10.846
11.1071
11.3546
11.5889
11.8105
12.0199
12.2176
12.4042
12.5802
12.7462
12.9026
13.0501
13.1891
13.32
13.4434
13.5596
13.6691
13.7721
13.8692
13.9606
14.0465
14.1273
14.2033
14.2747
14.3418
14.4048
14.464
14.5197
14.572
14.6214
14.6681
14.7125
14.7553
14.797
14.8386
14.8809
14.9257
14.9715
15.0239
15.0523
-8.64836
-8.65638
-8.67852
-8.70177
-8.72433
-8.74646
-8.76784
-8.78815
-8.80705
-8.82401
-8.83846
-8.84977
-8.85736
-8.86074
-8.85959
-8.85372
-8.84306
-8.82754
-8.80701
-8.78126
-8.75009
-8.71399
-8.67495
-8.63753
-8.60805
-8.59021
-8.58087
-8.57518
-8.57304
-8.57761
-8.59155
-8.61497
-8.64616
-8.68312
-8.72431
-8.76873
-8.81572
-8.86476
-8.9154
-8.96733
-9.02032
-9.07431
-9.12913
-9.18454
-9.24011
-9.29537
-9.34972
-9.40261
-9.45346
-9.50184
-9.54729
-9.58948
-9.62811
-9.66307
-9.69424
-9.72169
-9.74544
-9.76563
-9.78237
-9.79587
-9.80625
-9.81375
-9.8185
-9.82074
-9.82061
-9.81833
-9.81405
-9.80795
-9.80012
-9.7907
-9.77974
-9.76731
-9.75341
-9.73806
-9.72117
-9.70266
-9.68236
-9.66007
-9.63549
-9.60831
-9.57817
-9.54463
-9.50716
-9.46516
-9.41798
-9.36497
-9.30545
-9.23852
-9.16294
-9.07837
-8.98344
-8.87726
-8.75849
-8.62611
-8.47897
-8.316
-8.13604
-7.938
-7.72082
-7.48347
-7.22502
-6.94459
-6.64148
-6.31511
-5.96523
-5.59175
-5.19489
-4.77512
-4.33315
-3.86999
-3.38691
-2.88545
-2.36737
-1.83465
-1.28942
-0.734024
-0.170897
0.397433
0.968443
1.53962
2.10853
2.67282
3.23027
3.77882
4.31657
4.84189
5.35333
5.84973
6.33013
6.79386
7.24037
7.66936
8.08063
8.47421
8.85021
9.20891
9.55066
9.87588
10.1851
10.4789
10.7577
11.0223
11.273
11.5105
11.7352
11.9476
12.1483
12.3379
12.5167
12.6855
12.8446
12.9946
13.1361
13.2694
13.395
13.5134
13.625
13.7301
13.8291
13.9223
14.01
14.0925
14.1701
14.243
14.3115
14.3759
14.4363
14.4931
14.5465
14.5967
14.6442
14.6892
14.7322
14.7738
14.8146
14.855
14.8961
14.9355
14.9779
14.9903
-8.66332
-8.67788
-8.6993
-8.72004
-8.74064
-8.76131
-8.78168
-8.80134
-8.81984
-8.83658
-8.8509
-8.8621
-8.86959
-8.87284
-8.87163
-8.86574
-8.85512
-8.83963
-8.81916
-8.79368
-8.7636
-8.73052
-8.69781
-8.66966
-8.64841
-8.63286
-8.62127
-8.61463
-8.61556
-8.62591
-8.64589
-8.6744
-8.70979
-8.75034
-8.79459
-8.8414
-8.88998
-8.93979
-8.99043
-9.04163
-9.09319
-9.14494
-9.19665
-9.24807
-9.29886
-9.34869
-9.39717
-9.44398
-9.48872
-9.53107
-9.57067
-9.60731
-9.64075
-9.67093
-9.69776
-9.72128
-9.74149
-9.75853
-9.77246
-9.78346
-9.79161
-9.79714
-9.80015
-9.80085
-9.79937
-9.79592
-9.79063
-9.78367
-9.77515
-9.7652
-9.75388
-9.74127
-9.72738
-9.71222
-9.69574
-9.67786
-9.65844
-9.63729
-9.61414
-9.58869
-9.5606
-9.52943
-9.49467
-9.45572
-9.41195
-9.36269
-9.30723
-9.24456
-9.17387
-9.09409
-9.00453
-8.90391
-8.7909
-8.66453
-8.52354
-8.36687
-8.19325
-8.00158
-7.79073
-7.55957
-7.30716
-7.03249
-6.7349
-6.41371
-6.06876
-5.69977
-5.30709
-4.89098
-4.45231
-3.99191
-3.51117
-3.01151
-2.49479
-1.96291
-1.41809
-0.862676
-0.299188
0.269829
0.841804
1.41417
1.98449
2.55033
3.10952
3.65988
4.19964
4.72703
5.24076
5.73954
6.22252
6.68885
7.13811
7.56984
7.98397
8.38039
8.75929
9.12089
9.46555
9.79369
10.1058
10.4024
10.684
10.9512
11.2045
11.4444
11.6716
11.8865
12.0896
12.2814
12.4626
12.6336
12.7948
12.947
13.0904
13.2257
13.3532
13.4734
13.5867
13.6934
13.794
13.8888
13.9779
14.0618
14.1407
14.2149
14.2846
14.3501
14.4116
14.4693
14.5235
14.5745
14.6224
14.6678
14.7108
14.7519
14.7914
14.8297
14.8669
14.9002
14.9337
14.9328
-8.67123
-8.68492
-8.70277
-8.72108
-8.73988
-8.75924
-8.77865
-8.79765
-8.81577
-8.83239
-8.84683
-8.85831
-8.86624
-8.87011
-8.86966
-8.8646
-8.85477
-8.84005
-8.82059
-8.79702
-8.7709
-8.74448
-8.72002
-8.69885
-8.68132
-8.66785
-8.65964
-8.65834
-8.66514
-8.68046
-8.70394
-8.73463
-8.77112
-8.81204
-8.85616
-8.90255
-8.95049
-8.99945
-9.049
-9.09881
-9.14858
-9.19805
-9.24693
-9.29499
-9.34197
-9.38765
-9.43174
-9.47399
-9.51408
-9.55178
-9.58684
-9.61912
-9.64845
-9.6748
-9.69808
-9.71837
-9.73564
-9.75002
-9.76156
-9.77041
-9.77666
-9.7805
-9.78201
-9.78141
-9.7788
-9.77438
-9.76828
-9.76067
-9.75166
-9.74137
-9.72988
-9.71728
-9.7036
-9.68885
-9.673
-9.65599
-9.63768
-9.61792
-9.59647
-9.57304
-9.54728
-9.51877
-9.48701
-9.45142
-9.41134
-9.3661
-9.31495
-9.25696
-9.19105
-9.11661
-9.03247
-8.9374
-8.83023
-8.70974
-8.57481
-8.42416
-8.25659
-8.07088
-7.86582
-7.64027
-7.39309
-7.12339
-6.83032
-6.51335
-6.1721
-5.80649
-5.41661
-5.00288
-4.56601
-4.10696
-3.62702
-3.12771
-2.61084
-2.0784
-1.53263
-0.975962
-0.410964
0.159769
0.733613
1.30798
1.88035
2.4483
3.00958
3.56209
4.10397
4.63355
5.14945
5.65044
6.13559
6.60413
7.05556
7.4895
7.9058
8.30441
8.68546
9.04923
9.39606
9.72637
10.0406
10.3393
10.623
10.8922
11.1475
11.3894
11.6185
11.8352
12.0401
12.2338
12.4167
12.5895
12.7525
12.9063
13.0514
13.1883
13.3173
13.439
13.5537
13.6618
13.7636
13.8596
13.95
14.035
14.115
14.1902
14.2609
14.3273
14.3896
14.4481
14.503
14.5544
14.6027
14.6481
14.6909
14.7313
14.7694
14.8053
14.8386
14.8662
14.8919
14.8799
-8.65618
-8.66631
-8.68335
-8.70172
-8.72013
-8.73883
-8.75751
-8.77589
-8.79364
-8.8102
-8.82485
-8.83677
-8.84536
-8.85013
-8.85064
-8.84654
-8.83782
-8.82476
-8.80812
-8.78894
-8.76856
-8.74832
-8.72943
-8.713
-8.70014
-8.69207
-8.68986
-8.69439
-8.70618
-8.7253
-8.75122
-8.78304
-8.81967
-8.86007
-8.90332
-8.94867
-8.99546
-9.04318
-9.09136
-9.13961
-9.18757
-9.23492
-9.28139
-9.32679
-9.37089
-9.41348
-9.45429
-9.49311
-9.52971
-9.56392
-9.59554
-9.6245
-9.65067
-9.67403
-9.69454
-9.71225
-9.72716
-9.73939
-9.74897
-9.75607
-9.76075
-9.76318
-9.76346
-9.76177
-9.75824
-9.75305
-9.74633
-9.73824
-9.7289
-9.71846
-9.70699
-9.6946
-9.68134
-9.66722
-9.65225
-9.63635
-9.61944
-9.60135
-9.58188
-9.56075
-9.53761
-9.51206
-9.48359
-9.45162
-9.4155
-9.37452
-9.32793
-9.27475
-9.2141
-9.14483
-9.06627
-8.97685
-8.87547
-8.76081
-8.63174
-8.4869
-8.32506
-8.1449
-7.94513
-7.72458
-7.48198
-7.21648
-6.92709
-6.6134
-6.27486
-5.91151
-5.52329
-5.11075
-4.67443
-4.21546
-3.73502
-3.23479
-2.71653
-2.18238
-1.63457
-1.07568
-0.508293
0.0649435
0.64135
1.21832
1.79324
2.36374
2.92745
3.48235
4.02647
4.55827
5.07621
5.57922
6.06624
6.53664
6.9898
7.42547
7.84342
8.24368
8.62634
8.99171
9.34013
9.67202
9.98786
10.2881
10.5733
10.844
11.1008
11.3441
11.5746
11.7927
11.999
12.1941
12.3784
12.5525
12.7169
12.872
13.0184
13.1566
13.2868
13.4097
13.5255
13.6347
13.7376
13.8345
13.9258
14.0118
14.0927
14.1687
14.2402
14.3074
14.3704
14.4294
14.4848
14.5366
14.5851
14.6304
14.6727
14.7121
14.7487
14.782
14.8117
14.834
14.8531
14.8317
-8.61337
-8.62214
-8.64171
-8.66246
-8.68165
-8.70008
-8.71803
-8.73557
-8.75267
-8.76885
-8.78338
-8.79545
-8.80448
-8.80991
-8.81135
-8.80866
-8.80203
-8.79187
-8.77897
-8.76428
-8.74892
-8.734
-8.72068
-8.71011
-8.70338
-8.70139
-8.70493
-8.71459
-8.7306
-8.75282
-8.7807
-8.8135
-8.85038
-8.89056
-8.93328
-8.9779
-9.02382
-9.07054
-9.11757
-9.1645
-9.21095
-9.25664
-9.30133
-9.34481
-9.38682
-9.42717
-9.46561
-9.50197
-9.53606
-9.56774
-9.59687
-9.6234
-9.64722
-9.66836
-9.68677
-9.70252
-9.71561
-9.72617
-9.73422
-9.73993
-9.74335
-9.74465
-9.74393
-9.74137
-9.7371
-9.7313
-9.72411
-9.7157
-9.70619
-9.69574
-9.68445
-9.67244
-9.65977
-9.64648
-9.63258
-9.61803
-9.60274
-9.58658
-9.56935
-9.55079
-9.53054
-9.50821
-9.48329
-9.45519
-9.42326
-9.38677
-9.34494
-9.29683
-9.24126
-9.17764
-9.10453
-9.02084
-8.92516
-8.81629
-8.69289
-8.55364
-8.3972
-8.22219
-8.02728
-7.81112
-7.57255
-7.31047
-7.02409
-6.71275
-6.37608
-6.01392
-5.62638
-5.21387
-4.77708
-4.31703
-3.83506
-3.33282
-2.81222
-2.27541
-1.72478
-1.16292
-0.592505
-0.0162155
0.563258
1.14323
1.72108
2.29434
2.86068
3.418
3.96439
4.49824
5.01809
5.52283
6.01145
6.48331
6.93784
7.37479
7.79398
8.19542
8.57925
8.94575
9.29529
9.62829
9.94524
10.2466
10.5329
10.8047
11.0625
11.3069
11.5384
11.7576
11.9649
12.161
12.3464
12.5216
12.687
12.8432
12.9906
13.1297
13.2609
13.3847
13.5015
13.6115
13.7152
13.813
13.9051
13.9918
14.0734
14.1501
14.2223
14.29
14.3535
14.413
14.4687
14.5208
14.5692
14.6143
14.6561
14.6945
14.7294
14.7602
14.7863
14.8039
14.8173
14.7881
-8.54818
-8.55847
-8.58248
-8.60685
-8.62729
-8.64535
-8.66219
-8.67841
-8.69431
-8.70957
-8.72355
-8.73543
-8.74468
-8.75076
-8.7534
-8.75249
-8.74831
-8.74138
-8.7325
-8.72251
-8.7124
-8.70315
-8.69579
-8.69124
-8.69041
-8.69406
-8.7028
-8.71698
-8.73668
-8.76166
-8.79144
-8.82543
-8.86297
-8.9034
-8.94608
-8.99045
-9.03595
-9.08208
-9.12836
-9.1744
-9.21988
-9.26453
-9.30808
-9.35028
-9.39091
-9.42976
-9.46663
-9.50136
-9.53377
-9.56376
-9.59118
-9.61604
-9.63823
-9.65781
-9.67472
-9.68905
-9.70081
-9.71011
-9.71701
-9.72164
-9.72407
-9.72448
-9.72296
-9.7197
-9.71483
-9.70855
-9.701
-9.69236
-9.68278
-9.67242
-9.66142
-9.6499
-9.63795
-9.62563
-9.61295
-9.5999
-9.58642
-9.57239
-9.5576
-9.54182
-9.52468
-9.50579
-9.48465
-9.46064
-9.43311
-9.4013
-9.36441
-9.32139
-9.2713
-9.21302
-9.14556
-9.06754
-8.9775
-8.87423
-8.75632
-8.6224
-8.47105
-8.3008
-8.11028
-7.898
-7.66285
-7.40357
-7.11949
-6.80976
-6.47415
-6.11234
-5.72462
-5.31126
-4.87311
-4.41113
-3.92682
-3.42181
-2.89819
-2.35812
-1.80411
-1.23876
-0.664817
-0.0850299
0.49788
1.08113
1.66212
2.23825
2.80726
3.36692
3.91547
4.45114
4.97268
5.47881
5.96873
6.44164
6.89719
7.335
7.75503
8.15724
8.54182
8.90906
9.25933
9.59309
9.91077
10.2129
10.4999
10.7725
11.0311
11.2762
11.5085
11.7285
11.9366
12.1335
12.3197
12.4956
12.6618
12.8188
12.967
13.1069
13.2389
13.3635
13.481
13.5917
13.6961
13.7945
13.8872
13.9745
14.0567
14.134
14.2067
14.2749
14.3389
14.3987
14.4547
14.5068
14.5552
14.5999
14.641
14.6783
14.7115
14.7399
14.7627
14.776
14.7846
14.7489
-8.47145
-8.48417
-8.51291
-8.54123
-8.56302
-8.58054
-8.59599
-8.61058
-8.62495
-8.63897
-8.65207
-8.66354
-8.67285
-8.67959
-8.68351
-8.68455
-8.68305
-8.67953
-8.67471
-8.6693
-8.66415
-8.66007
-8.658
-8.65877
-8.66317
-8.67179
-8.68508
-8.70322
-8.72618
-8.7537
-8.78538
-8.82074
-8.8592
-8.90023
-8.94326
-8.98777
-9.03323
-9.07916
-9.12514
-9.17081
-9.21587
-9.26002
-9.30297
-9.3445
-9.38437
-9.4224
-9.45839
-9.49218
-9.52361
-9.55259
-9.57901
-9.60285
-9.62404
-9.64262
-9.65856
-9.67194
-9.68277
-9.69119
-9.69722
-9.70103
-9.70269
-9.70236
-9.70017
-9.69632
-9.69093
-9.68423
-9.67636
-9.66752
-9.65789
-9.64765
-9.63695
-9.62595
-9.61474
-9.60342
-9.59204
-9.58059
-9.56905
-9.55729
-9.54512
-9.53227
-9.51842
-9.50315
-9.48594
-9.46619
-9.44318
-9.41615
-9.38425
-9.34644
-9.30164
-9.24891
-9.18698
-9.11444
-9.02993
-8.93205
-8.8194
-8.69054
-8.54393
-8.37809
-8.19147
-7.98268
-7.75036
-7.49347
-7.21105
-6.90247
-6.5673
-6.20539
-5.81688
-5.40218
-4.96208
-4.49767
-4.01045
-3.5022
-2.97502
-2.43123
-1.87336
-1.3041
-0.726248
-0.142628
0.443928
1.03063
1.61477
2.19378
2.76531
3.3272
3.87762
4.41492
4.93777
5.44501
5.93581
6.40947
6.86561
7.30395
7.72442
8.12704
8.51201
8.87966
9.23036
9.56455
9.88268
10.1853
10.4728
10.7459
11.005
11.2507
11.4835
11.704
11.9128
12.1103
12.297
12.4736
12.6404
12.798
12.9469
13.0874
13.22
13.3452
13.4633
13.5746
13.6796
13.7785
13.8717
13.9596
14.0423
14.1201
14.1932
14.2618
14.3261
14.3862
14.4423
14.4944
14.5427
14.587
14.6274
14.6636
14.6951
14.7211
14.7408
14.7503
14.7547
14.7138
-8.39456
-8.40944
-8.4421
-8.47402
-8.49716
-8.51419
-8.52833
-8.5414
-8.55432
-8.56709
-8.57923
-8.59014
-8.59938
-8.60657
-8.61154
-8.61425
-8.61503
-8.6143
-8.6127
-8.61083
-8.60949
-8.60949
-8.61171
-8.61685
-8.62554
-8.63824
-8.65523
-8.67659
-8.70225
-8.73197
-8.76537
-8.80206
-8.84154
-8.88334
-8.92694
-8.97184
-9.01755
-9.06363
-9.10971
-9.15545
-9.20052
-9.24463
-9.2875
-9.32889
-9.36856
-9.40633
-9.442
-9.47542
-9.50645
-9.535
-9.56098
-9.58436
-9.60506
-9.62313
-9.63853
-9.65135
-9.66159
-9.66939
-9.67478
-9.67793
-9.67892
-9.67795
-9.67513
-9.67068
-9.66473
-9.65754
-9.64925
-9.64013
-9.63035
-9.62014
-9.60966
-9.5991
-9.58857
-9.57823
-9.56813
-9.55831
-9.54872
-9.53927
-9.52976
-9.51994
-9.50946
-9.49788
-9.48469
-9.46923
-9.45078
-9.42857
-9.40166
-9.36907
-9.32965
-9.28224
-9.2258
-9.15867
-9.07953
-8.98691
-8.87936
-8.75537
-8.61329
-8.45163
-8.26867
-8.06309
-7.83336
-7.57855
-7.29753
-6.9898
-6.65471
-6.29232
-5.90257
-5.48608
-5.04352
-4.57621
-4.08559
-3.57365
-3.04248
-2.49457
-1.93248
-1.35902
-0.777061
-0.189489
0.40074
0.990839
1.57799
2.15969
2.73346
3.2973
3.84923
4.3878
4.91154
5.41953
5.91079
6.38483
6.84115
7.27965
7.7002
8.10292
8.48798
8.85576
9.20664
9.54102
9.85938
10.1622
10.4501
10.7234
10.9829
11.229
11.4622
11.6832
11.8924
12.0903
12.2775
12.4546
12.6219
12.78
12.9294
13.0704
13.2036
13.3292
13.4478
13.5596
13.6651
13.7645
13.8582
13.9465
14.0296
14.1078
14.1813
14.2503
14.3149
14.3752
14.4314
14.4835
14.5316
14.5755
14.6151
14.6501
14.6801
14.7039
14.7208
14.7268
14.7276
14.6824
-8.32767
-8.34389
-8.37907
-8.41378
-8.43818
-8.45499
-8.46822
-8.48015
-8.49188
-8.50347
-8.51459
-8.52473
-8.53351
-8.5406
-8.54587
-8.54931
-8.55122
-8.55197
-8.55217
-8.55248
-8.55372
-8.55662
-8.56191
-8.57019
-8.58196
-8.59756
-8.61719
-8.64087
-8.66849
-8.69984
-8.73459
-8.77236
-8.81273
-8.85525
-8.89945
-8.94484
-8.99096
-9.03744
-9.08387
-9.12995
-9.17533
-9.21975
-9.26292
-9.3046
-9.34454
-9.38254
-9.41839
-9.45194
-9.48305
-9.51166
-9.53765
-9.56099
-9.58159
-9.59949
-9.61465
-9.62715
-9.63699
-9.64431
-9.64915
-9.65169
-9.65201
-9.65033
-9.64678
-9.64159
-9.63493
-9.62704
-9.61815
-9.60852
-9.59837
-9.58796
-9.57748
-9.56714
-9.55714
-9.54762
-9.53867
-9.53037
-9.52265
-9.51547
-9.50859
-9.50181
-9.49469
-9.48688
-9.47773
-9.46665
-9.45286
-9.43547
-9.41367
-9.38628
-9.3521
-9.31026
-9.25915
-9.19747
-9.12365
-9.03625
-8.93375
-8.81452
-8.67693
-8.51924
-8.33988
-8.13725
-7.91002
-7.65697
-7.37717
-7.06984
-6.73457
-6.37118
-5.97985
-5.56107
-5.11572
-4.64508
-4.15079
-3.63483
-3.09948
-2.54724
-1.98084
-1.40313
-0.817085
-0.225716
0.368
0.961165
1.551
2.13492
2.71055
3.27579
3.82881
4.36809
4.89231
5.4005
5.89182
6.36576
6.82193
7.26018
7.68051
8.08301
8.46795
8.83565
9.1865
9.52089
9.83931
10.1423
10.4303
10.7039
10.9636
11.21
11.4435
11.6648
11.8743
12.0726
12.2603
12.4377
12.6055
12.764
12.9138
13.0553
13.1888
13.315
13.434
13.5462
13.6521
13.752
13.8462
13.9349
14.0184
14.097
14.1709
14.2402
14.305
14.3655
14.4218
14.4739
14.5217
14.5652
14.6041
14.638
14.6664
14.6882
14.7026
14.7056
14.7031
14.6546
-8.27853
-8.29493
-8.33096
-8.3673
-8.39266
-8.40946
-8.42213
-8.43324
-8.44396
-8.45437
-8.46422
-8.47309
-8.4807
-8.48676
-8.4912
-8.49408
-8.49575
-8.49662
-8.49736
-8.49862
-8.50116
-8.50561
-8.51261
-8.52265
-8.53616
-8.55339
-8.57449
-8.59944
-8.62815
-8.66041
-8.69591
-8.73433
-8.77526
-8.81829
-8.86294
-8.90876
-8.95533
-9.00225
-9.04915
-9.09572
-9.14167
-9.18668
-9.23047
-9.27276
-9.31329
-9.35185
-9.38823
-9.42229
-9.45386
-9.48286
-9.50918
-9.53275
-9.5535
-9.57144
-9.58654
-9.59885
-9.60841
-9.61529
-9.61961
-9.62148
-9.62105
-9.61852
-9.61406
-9.6079
-9.60027
-9.59141
-9.58161
-9.57113
-9.56027
-9.5493
-9.53846
-9.52803
-9.51823
-9.50922
-9.50121
-9.49415
-9.48817
-9.48305
-9.47876
-9.47486
-9.47115
-9.46699
-9.46193
-9.45519
-9.44597
-9.43346
-9.41666
-9.39439
-9.36565
-9.32902
-9.28333
-9.22695
-9.15835
-9.07606
-8.97847
-8.86385
-8.73055
-8.57668
-8.40072
-8.20086
-7.97592
-7.72442
-7.44557
-7.13841
-6.80267
-6.43804
-6.04489
-5.62362
-5.17532
-4.70124
-4.20321
-3.68324
-3.14375
-2.58733
-2.01682
-1.43519
-0.84548
-0.250822
0.345796
0.941379
1.53322
2.11865
2.69542
3.26134
3.81477
4.35409
4.87819
5.38599
5.87687
6.35022
6.80582
7.24347
7.66323
8.06529
8.44991
8.81739
9.16806
9.50237
9.82076
10.1238
10.4119
10.6857
10.9456
11.1922
11.4261
11.6477
11.8575
12.0562
12.2442
12.422
12.5902
12.7491
12.8993
13.0412
13.1752
13.3017
13.4212
13.5339
13.6402
13.7406
13.8352
13.9243
14.0083
14.0873
14.1615
14.2311
14.2962
14.3569
14.4133
14.4654
14.513
14.556
14.5942
14.6271
14.6541
14.6741
14.6861
14.6865
14.6812
14.6299
-8.24985
-8.26573
-8.30118
-8.33776
-8.36345
-8.38016
-8.39234
-8.40265
-8.41222
-8.42116
-8.42925
-8.43617
-8.44172
-8.44571
-8.44822
-8.44939
-8.44968
-8.44954
-8.44962
-8.45054
-8.45302
-8.45762
-8.46493
-8.47539
-8.48934
-8.50699
-8.52844
-8.55365
-8.58254
-8.61492
-8.65051
-8.689
-8.73
-8.77309
-8.81785
-8.86386
-8.91072
-8.95806
-9.00551
-9.05275
-9.09945
-9.14526
-9.18987
-9.23298
-9.27434
-9.31372
-9.3509
-9.38572
-9.41801
-9.44767
-9.47452
-9.49856
-9.51963
-9.53779
-9.55293
-9.56516
-9.57443
-9.58091
-9.58461
-9.58574
-9.58439
-9.5808
-9.57515
-9.56771
-9.5587
-9.54849
-9.5373
-9.52556
-9.5135
-9.50151
-9.48985
-9.47889
-9.46883
-9.46002
-9.45247
-9.44642
-9.44182
-9.43857
-9.43652
-9.43538
-9.43476
-9.43415
-9.43293
-9.43034
-9.42558
-9.41779
-9.4058
-9.3886
-9.36483
-9.33341
-9.29284
-9.24151
-9.17793
-9.10053
-9.00762
-8.89748
-8.76822
-8.6181
-8.44527
-8.24816
-8.02525
-7.77526
-7.49714
-7.19014
-6.85378
-6.48794
-6.09288
-5.66923
-5.21805
-4.74078
-4.23927
-3.71569
-3.17254
-2.61255
-2.03863
-1.45385
-0.861367
-0.264336
0.334163
0.931185
1.52396
2.10993
2.68679
3.25252
3.80542
4.34403
4.86721
5.37403
5.86385
6.33617