/*--------------------------------*- C++ -*----------------------------------*\
| =========                 |                                                 |
| \\      /  F ield         | OpenFOAM: The Open Source CFD Toolbox           |
|  \\    /   O peration     | Version:  2406                                  |
|   \\  /    A nd           | Website:  www.openfoam.com                      |
|    \\/     M anipulation  |                                                 |
\*---------------------------------------------------------------------------*/
FoamFile
{
    version     2.0;
    format      ascii;
    arch        "LSB;label=32;scalar=64";
    class       volVectorField;
    location    "0.75";
    object      flux;
}
// * * * * * * * * * * * * * * * * * * * * * * * * * * * * * * * * * * * * * //

dimensions      [0 1 -1 1 0 0 0];

internalField   nonuniform List<vector> 
2500
(
(0.000543806 0.000543806 0)
(0.00162201 0.000544714 0)
(0.00267543 0.000546694 0)
(0.00368917 0.000549619 0)
(0.00464686 0.00055349 0)
(0.00553404 0.000558296 0)
(0.00633737 0.000564019 0)
(0.00704486 0.00057064 0)
(0.00764602 0.00057814 0)
(0.00813208 0.000586496 0)
(0.00849608 0.000595689 0)
(0.00873301 0.000605699 0)
(0.00883987 0.000616508 0)
(0.00881572 0.000628103 0)
(0.0086617 0.000640472 0)
(0.00838097 0.000653607 0)
(0.0079787 0.000667506 0)
(0.00746195 0.000682168 0)
(0.00683955 0.000697597 0)
(0.00612196 0.0007138 0)
(0.00532111 0.000730785 0)
(0.00445015 0.00074856 0)
(0.00352328 0.000767135 0)
(0.00255551 0.000786515 0)
(0.00156239 0.000806701 0)
(0.000559767 0.000827688 0)
(-0.000436461 0.000849461 0)
(-0.00141061 0.000871996 0)
(-0.00234747 0.000895253 0)
(-0.00323252 0.000919179 0)
(-0.00405218 0.0009437 0)
(-0.004794 0.000968728 0)
(-0.00544687 0.000994151 0)
(-0.00600116 0.00101984 0)
(-0.00644889 0.00104564 0)
(-0.00678381 0.00107138 0)
(-0.0070015 0.00109687 0)
(-0.00709943 0.0011219 0)
(-0.00707696 0.00114626 0)
(-0.00693536 0.00116972 0)
(-0.00667774 0.00119203 0)
(-0.00630904 0.00121296 0)
(-0.0058359 0.00123228 0)
(-0.00526654 0.00124976 0)
(-0.00461069 0.0012652 0)
(-0.00387936 0.00127841 0)
(-0.00308473 0.00128922 0)
(-0.00223995 0.00129752 0)
(-0.00135888 0.0013031 0)
(-0.000455519 0.0013054 0)
(0.000544714 0.00162201 0)
(0.0016249 0.0016249 0)
(0.00268034 0.00163082 0)
(0.00369597 0.00163961 0)
(0.00465554 0.00165125 0)
(0.00554457 0.00166569 0)
(0.00634972 0.0016829 0)
(0.00705898 0.0017028 0)
(0.00766188 0.00172534 0)
(0.00814963 0.00175047 0)
(0.00851528 0.00177811 0)
(0.00875383 0.00180822 0)
(0.00886227 0.00184073 0)
(0.00883969 0.00187563 0)
(0.0086872 0.00191286 0)
(0.008408 0.00195241 0)
(0.00800726 0.00199428 0)
(0.00749204 0.00203847 0)
(0.00687118 0.00208499 0)
(0.00615515 0.00213387 0)
(0.00535587 0.00218512 0)
(0.0044865 0.00223879 0)
(0.00356124 0.0022949 0)
(0.00259508 0.00235348 0)
(0.00160356 0.00241451 0)
(0.000602528 0.002478 0)
(-0.000392152 0.0025439 0)
(-0.00136482 0.00261213 0)
(-0.00230029 0.00268258 0)
(-0.00318407 0.00275509 0)
(-0.00400263 0.00282943 0)
(-0.00474355 0.00290533 0)
(-0.00539576 0.00298245 0)
(-0.00594967 0.0030604 0)
(-0.00639735 0.00313872 0)
(-0.00673258 0.00321688 0)
(-0.00695098 0.0032943 0)
(-0.00705004 0.00337035 0)
(-0.00702915 0.00344437 0)
(-0.00688959 0.00351565 0)
(-0.0066345 0.00358348 0)
(-0.00626879 0.00364712 0)
(-0.0057991 0.00370586 0)
(-0.00523363 0.00375903 0)
(-0.00458205 0.00380598 0)
(-0.00385534 0.00384614 0)
(-0.00306562 0.00387903 0)
(-0.00222608 0.00390429 0)
(-0.001351 0.00392157 0)
(-0.000453218 0.00392962 0)
(0.000546694 0.00267543 0)
(0.00163082 0.00268034 0)
(0.00269014 0.00269014 0)
(0.0037096 0.00270475 0)
(0.00467294 0.00272411 0)
(0.00556568 0.00274815 0)
(0.00637448 0.0027768 0)
(0.00708731 0.00280996 0)
(0.00769369 0.00284754 0)
(0.00818485 0.00288944 0)
(0.00855383 0.00293557 0)
(0.00879563 0.00298585 0)
(0.00890728 0.00304021 0)
(0.00888785 0.00309858 0)
(0.00873849 0.00316093 0)
(0.0084624 0.00322724 0)
(0.00806476 0.00329751 0)
(0.00755266 0.00337175 0)
(0.00693494 0.00345 0)
(0.0062221 0.00353231 0)
(0.00542604 0.00361874 0)
(0.00455993 0.00370935 0)
(0.00363797 0.00380419 0)
(0.00267512 0.00390331 0)
(0.00168692 0.00400672 0)
(0.000689155 0.00411441 0)
(-0.000302329 0.0042263 0)
(-0.00127193 0.00434228 0)
(-0.00220452 0.00446213 0)
(-0.00308568 0.00458559 0)
(-0.00390194 0.00471229 0)
(-0.00464097 0.00484174 0)
(-0.00529179 0.00497337 0)
(-0.00584489 0.00510651 0)
(-0.00629241 0.00524034 0)
(-0.00662823 0.00537398 0)
(-0.00684803 0.00550642 0)
(-0.00694936 0.00563659 0)
(-0.00693166 0.00576332 0)
(-0.00679625 0.00588541 0)
(-0.00654628 0.00600161 0)
(-0.00618666 0.00611068 0)
(-0.00572399 0.00621138 0)
(-0.00516643 0.00630253 0)
(-0.00452358 0.00638303 0)
(-0.0038063 0.00645187 0)
(-0.00302658 0.00650821 0)
(-0.00219742 0.00655135 0)
(-0.00133356 0.0065808 0)
(-0.000447471 0.00659546 0)
(0.000549619 0.00368917 0)
(0.00163961 0.00369597 0)
(0.00270475 0.0037096 0)
(0.00372994 0.00372994 0)
(0.00469894 0.00375692 0)
(0.00559725 0.00379045 0)
(0.00641152 0.00383043 0)
(0.00712972 0.00387675 0)
(0.00774136 0.00392929 0)
(0.00823766 0.00398793 0)
(0.0086117 0.00405256 0)
(0.00885847 0.0041231 0)
(0.008975 0.00419945 0)
(0.00896041 0.00428157 0)
(0.00881586 0.00436943 0)
(0.00854458 0.00446301 0)
(0.00815177 0.00456235 0)
(0.00764453 0.0046675 0)
(0.00703174 0.00477854 0)
(0.00632389 0.00489555 0)
(0.00553291 0.00501866 0)
(0.00467195 0.00514796 0)
(0.0037552 0.00528355 0)
(0.00279761 0.00542552 0)
(0.00181466 0.00557389 0)
(0.000822107 0.00572866 0)
(-0.000164286 0.00588974 0)
(-0.00112899 0.00605694 0)
(-0.00205697 0.00622998 0)
(-0.00293392 0.00640846 0)
(-0.00374648 0.00659184 0)
(-0.00448246 0.00677943 0)
(-0.00513099 0.00697038 0)
(-0.0056827 0.00716369 0)
(-0.00612987 0.00735818 0)
(-0.00646649 0.00755255 0)
(-0.00668836 0.00774531 0)
(-0.00679314 0.00793488 0)
(-0.00678033 0.00811956 0)
(-0.0066513 0.00829756 0)
(-0.00640923 0.00846705 0)
(-0.00605902 0.0086262 0)
(-0.00560724 0.00877318 0)
(-0.00506198 0.00890626 0)
(-0.00443271 0.0090238 0)
(-0.00373016 0.0091243 0)
(-0.00296614 0.00920647 0)
(-0.00215349 0.00926921 0)
(-0.00130689 0.00931165 0)
(-0.000438556 0.009333 0)
(0.00055349 0.00464686 0)
(0.00165125 0.00465554 0)
(0.00272411 0.00467294 0)
(0.00375692 0.00469894 0)
(0.00473345 0.00473345 0)
(0.0056392 0.00477638 0)
(0.00646078 0.00482761 0)
(0.00718616 0.00488702 0)
(0.00780487 0.00495449 0)
(0.00830812 0.00502989 0)
(0.008689 0.00511313 0)
(0.00894252 0.0052041 0)
(0.00906576 0.00530276 0)
(0.00905782 0.00540906 0)
(0.00891993 0.00552302 0)
(0.00865532 0.00564467 0)
(0.00826925 0.00577409 0)
(0.00776884 0.0059114 0)
(0.00716299 0.00605673 0)
(0.00646222 0.00621026 0)
(0.00567844 0.00637217 0)
(0.00482482 0.00654264 0)
(0.00391553 0.00672182 0)
(0.00296546 0.00690986 0)
(0.00199006 0.00710682 0)
(0.001005 0.00731271 0)
(2.59433e-05 0.00752741 0)
(-0.000931686 0.0077507 0)
(-0.00185299 0.00798221 0)
(-0.00272381 0.0082214 0)
(-0.00353097 0.00846753 0)
(-0.00426243 0.00871966 0)
(-0.00490753 0.00897664 0)
(-0.00545709 0.00923711 0)
(-0.00590355 0.00949947 0)
(-0.0062411 0.00976191 0)
(-0.00646569 0.0100224 0)
(-0.00657511 0.0102788 0)
(-0.00656899 0.0105288 0)
(-0.00644876 0.0107699 0)
(-0.00621764 0.0109996 0)
(-0.00588052 0.0112154 0)
(-0.00544392 0.0114148 0)
(-0.00491582 0.0115954 0)
(-0.00430554 0.0117549 0)
(-0.00362363 0.0118913 0)
(-0.00288167 0.0120028 0)
(-0.00209223 0.0120879 0)
(-0.00126977 0.0121453 0)
(-0.000426127 0.0121742 0)
(0.000558296 0.00553404 0)
(0.00166569 0.00554457 0)
(0.00274815 0.00556568 0)
(0.00379045 0.00559725 0)
(0.00477638 0.0056392 0)
(0.00569141 0.00569141 0)
(0.00652216 0.0057538 0)
(0.00725659 0.00582623 0)
(0.00788423 0.0059086 0)
(0.0083963 0.00600081 0)
(0.0087859 0.00610278 0)
(0.0090481 0.00621445 0)
(0.00917996 0.00633581 0)
(0.00918067 0.00646688 0)
(0.00905147 0.00660773 0)
(0.00879565 0.00675849 0)
(0.0084185 0.00691931 0)
(0.00792717 0.0070904 0)
(0.00733061 0.00727201 0)
(0.00663933 0.00746442 0)
(0.00586528 0.00766791 0)
(0.0050216 0.00788277 0)
(0.00412242 0.00810925 0)
(0.00318261 0.00834755 0)
(0.00221751 0.00859782 0)
(0.00124269 0.00886008 0)
(0.000273712 0.00913422 0)
(-0.000674184 0.00941996 0)
(-0.00158628 0.00971683 0)
(-0.00244861 0.0100241 0)
(-0.00324823 0.0103409 0)
(-0.00397334 0.010666 0)
(-0.00461353 0.0109978 0)
(-0.00515988 0.0113346 0)
(-0.00560508 0.0116742 0)
(-0.00594354 0.0120144 0)
(-0.00617144 0.0123524 0)
(-0.00628676 0.0126854 0)
(-0.00628927 0.0130104 0)
(-0.00618051 0.013324 0)
(-0.00596374 0.013623 0)
(-0.00564385 0.0139041 0)
(-0.00522728 0.0141639 0)
(-0.00472187 0.0143993 0)
(-0.00413677 0.0146074 0)
(-0.00348225 0.0147853 0)
(-0.00276957 0.0149308 0)
(-0.00201098 0.0150418 0)
(-0.00122055 0.0151166 0)
(-0.00040965 0.0151543 0)
(0.000564019 0.00633737 0)
(0.0016829 0.00634972 0)
(0.0027768 0.00637448 0)
(0.00383043 0.00641152 0)
(0.00482761 0.00646078 0)
(0.0057538 0.00652216 0)
(0.00659559 0.00659559 0)
(0.00734096 0.00668098 0)
(0.00797945 0.00677824 0)
(0.0085023 0.00688733 0)
(0.00890264 0.00700822 0)
(0.00917556 0.00714092 0)
(0.00931819 0.00728551 0)
(0.00932975 0.00744209 0)
(0.00921153 0.00761084 0)
(0.00896689 0.007792 0)
(0.00860116 0.00798587 0)
(0.00812155 0.00819278 0)
(0.00753702 0.00841314 0)
(0.00685812 0.00864736 0)
(0.00609679 0.00889588 0)
(0.00526616 0.00915913 0)
(0.00438031 0.00943749 0)
(0.00345404 0.00973129 0)
(0.00250259 0.0100407 0)
(0.00154139 0.0103659 0)
(0.00058582 0.0107067 0)
(-0.000349076 0.0110628 0)
(-0.00124882 0.0114336 0)
(-0.00209972 0.0118182 0)
(-0.00288913 0.0122155 0)
(-0.00360556 0.012624 0)
(-0.00423893 0.0130416 0)
(-0.00478065 0.0134661 0)
(-0.00522374 0.0138949 0)
(-0.00556292 0.0143249 0)
(-0.00579466 0.0147526 0)
(-0.00591718 0.0151745 0)
(-0.00593044 0.0155865 0)
(-0.00583612 0.0159845 0)
(-0.00563755 0.0163643 0)
(-0.00533961 0.0167216 0)
(-0.00494864 0.017052 0)
(-0.00447233 0.0173516 0)
(-0.00391955 0.0176164 0)
(-0.00330023 0.017843 0)
(-0.00262526 0.0180283 0)
(-0.00190638 0.0181696 0)
(-0.00115719 0.018265 0)
(-0.000388441 0.018313 0)
(0.00057064 0.00704486 0)
(0.0017028 0.00705898 0)
(0.00280996 0.00708731 0)
(0.00387675 0.00712972 0)
(0.00488702 0.00718616 0)
(0.00582623 0.00725659 0)
(0.00668098 0.00734096 0)
(0.00743924 0.00743924 0)
(0.00809058 0.00755141 0)
(0.00862628 0.0076775 0)
(0.0090395 0.00781757 0)
(0.00932539 0.00797174 0)
(0.00948113 0.0081402 0)
(0.00950601 0.00832321 0)
(0.00940138 0.00852108 0)
(0.00917067 0.00873424 0)
(0.00881927 0.00896314 0)
(0.00835444 0.00920833 0)
(0.00778519 0.0094704 0)
(0.00712208 0.00974997 0)
(0.00637705 0.0100477 0)
(0.00556321 0.0103641 0)
(0.00469458 0.0106999 0)
(0.00378584 0.0110555 0)
(0.00285211 0.0114311 0)
(0.00190864 0.011827 0)
(0.000970578 0.0122432 0)
(5.27051e-05 0.0126791 0)
(-0.000830809 0.0131342 0)
(-0.00166663 0.0136074 0)
(-0.00244247 0.0140972 0)
(-0.00314727 0.0146016 0)
(-0.00377136 0.0151184 0)
(-0.00430657 0.0156446 0)
(-0.00474635 0.0161768 0)
(-0.00508583 0.0167112 0)
(-0.00532183 0.0172436 0)
(-0.00545288 0.0177693 0)
(-0.00547922 0.0182832 0)
(-0.00540269 0.0187801 0)
(-0.00522671 0.0192547 0)
(-0.00495615 0.0197014 0)
(-0.00459725 0.0201149 0)
(-0.00415747 0.02049 0)
(-0.00364536 0.0208217 0)
(-0.00307042 0.0211057 0)
(-0.002443 0.0213379 0)
(-0.00177426 0.0215151 0)
(-0.00107716 0.0216347 0)
(-0.000361651 0.0216949 0)
(0.00057814 0.00764602 0)
(0.00172534 0.00766188 0)
(0.00284754 0.00769369 0)
(0.00392929 0.00774136 0)
(0.00495449 0.00780487 0)
(0.0059086 0.00788423 0)
(0.00677824 0.00797945 0)
(0.00755141 0.00809058 0)
(0.00821771 0.00821771 0)
(0.00876845 0.00836096 0)
(0.00919688 0.00852054 0)
(0.00949819 0.00869673 0)
(0.00966965 0.00888986 0)
(0.00971063 0.0091004 0)
(0.00962256 0.00932887 0)
(0.00940895 0.00957589 0)
(0.00907525 0.0098422 0)
(0.00862881 0.0101286 0)
(0.00807866 0.0104358 0)
(0.0074354 0.0107649 0)
(0.00671095 0.0111167 0)
(0.00591838 0.011492 0)
(0.00507163 0.0118917 0)
(0.00418525 0.0123164 0)
(0.00327418 0.0127666 0)
(0.00235344 0.0132425 0)
(0.00143789 0.0137442 0)
(0.000541966 0.0142713 0)
(-0.000320548 0.0148229 0)
(-0.00113676 0.0153978 0)
(-0.00189487 0.0159941 0)
(-0.00258433 0.0166096 0)
(-0.00319599 0.0172413 0)
(-0.00372225 0.0178856 0)
(-0.00415708 0.0185384 0)
(-0.00449611 0.0191948 0)
(-0.00473664 0.0198496 0)
(-0.00487761 0.0204969 0)
(-0.00491957 0.0211304 0)
(-0.00486461 0.0217436 0)
(-0.00471625 0.0223298 0)
(-0.00447937 0.022882 0)
(-0.00416006 0.0233935 0)
(-0.00376552 0.0238578 0)
(-0.00330387 0.0242686 0)
(-0.00278409 0.0246204 0)
(-0.00221586 0.0249082 0)
(-0.00160957 0.0251279 0)
(-0.000977383 0.0252762 0)
(-0.000328251 0.0253509 0)
(0.000586496 0.00813208 0)
(0.00175047 0.00814963 0)
(0.00288944 0.00818485 0)
(0.00398793 0.00823766 0)
(0.00502989 0.00830812 0)
(0.00600081 0.0083963 0)
(0.00688733 0.0085023 0)
(0.0076775 0.00862628 0)
(0.00836096 0.00876845 0)
(0.00892912 0.00892912 0)
(0.00937527 0.00910864 0)
(0.00969471 0.0093075 0)
(0.0098848 0.00952627 0)
(0.00994501 0.00976564 0)
(0.00987688 0.0100264 0)
(0.00968401 0.0103095 0)
(0.00937194 0.010616 0)
(0.00894809 0.0109469 0)
(0.00842155 0.0113034 0)
(0.00780293 0.0116868 0)
(0.00710415 0.0120983 0)
(0.00633821 0.012539 0)
(0.00551893 0.0130101 0)
(0.00466071 0.0135125 0)
(0.00377826 0.0140468 0)
(0.00288629 0.0146135 0)
(0.00199932 0.0152126 0)
(0.00113136 0.0158438 0)
(0.000295679 0.0165061 0)
(-0.000495369 0.0171981 0)
(-0.00123059 0.0179175 0)
(-0.00190007 0.0186616 0)
(-0.00249536 0.0194267 0)
(-0.00300951 0.0202084 0)
(-0.00343718 0.0210018 0)
(-0.00377464 0.0218007 0)
(-0.00401978 0.0225988 0)
(-0.00417206 0.0233888 0)
(-0.00423244 0.0241629 0)
(-0.0042033 0.0249129 0)
(-0.00408833 0.0256306 0)
(-0.00389242 0.0263072 0)
(-0.00362148 0.0269345 0)
(-0.00328236 0.0275042 0)
(-0.00288271 0.0280087 0)
(-0.00243081 0.0284409 0)
(-0.00193552 0.0287945 0)
(-0.00140626 0.0290646 0)
(-0.000854192 0.029247 0)
(-0.000287009 0.0293388 0)
(0.000595689 0.00849608 0)
(0.00177811 0.00851528 0)
(0.00293557 0.00855383 0)
(0.00405256 0.0086117 0)
(0.00511313 0.008689 0)
(0.00610278 0.0087859 0)
(0.00700822 0.00890264 0)
(0.00781757 0.0090395 0)
(0.00852054 0.00919688 0)
(0.00910864 0.00937527 0)
(0.00957526 0.00957526 0)
(0.00991582 0.00979759 0)
(0.0101278 0.0100431 0)
(0.0102108 0.0103129 0)
(0.0101664 0.0106079 0)
(0.0099985 0.0109297 0)
(0.00971261 0.0112794 0)
(0.00931626 0.0116587 0)
(0.00881861 0.0120691 0)
(0.00823028 0.0125123 0)
(0.00756316 0.01299 0)
(0.00683019 0.0135035 0)
(0.00604504 0.0140546 0)
(0.00522191 0.0146443 0)
(0.0043752 0.0152737 0)
(0.00351929 0.0159434 0)
(0.00266822 0.0166536 0)
(0.00183547 0.0174038 0)
(0.00103372 0.0181932 0)
(0.000274623 0.0190199 0)
(-0.000431372 0.0198813 0)
(-0.00107517 0.0207741 0)
(-0.00164913 0.021694 0)
(-0.00214717 0.0226356 0)
(-0.00256479 0.0235927 0)
(-0.00289906 0.0245582 0)
(-0.00314862 0.0255239 0)
(-0.00331357 0.0264811 0)
(-0.00339541 0.0274202 0)
(-0.0033969 0.0283312 0)
(-0.00332194 0.0292036 0)
(-0.00317542 0.030027 0)
(-0.00296307 0.030791 0)
(-0.00269135 0.0314853 0)
(-0.00236725 0.0321004 0)
(-0.00199823 0.0326277 0)
(-0.00159212 0.0330595 0)
(-0.00115715 0.0333892 0)
(-0.000703224 0.0336119 0)
(-0.000236462 0.033724 0)
(0.000605699 0.00873301 0)
(0.00180822 0.00875383 0)
(0.00298585 0.00879563 0)
(0.0041231 0.00885847 0)
(0.0052041 0.00894252 0)
(0.00621445 0.0090481 0)
(0.00714092 0.00917556 0)
(0.00797174 0.00932539 0)
(0.00869673 0.00949819 0)
(0.0093075 0.00969471 0)
(0.00979759 0.00991582 0)
(0.0101626 0.0101626 0)
(0.0104001 0.0104362 0)
(0.0105098 0.010738 0)
(0.0104937 0.0110697 0)
(0.0103555 0.0114329 0)
(0.010101 0.0118295 0)
(0.00973782 0.0122615 0)
(0.00927519 0.012731 0)
(0.00872375 0.0132402 0)
(0.00809536 0.0137912 0)
(0.00740283 0.014386 0)
(0.00665968 0.0150266 0)
(0.00587984 0.0157147 0)
(0.00507737 0.0164516 0)
(0.00426617 0.0172381 0)
(0.00345976 0.0180747 0)
(0.00267096 0.018961 0)
(0.00191169 0.0198959 0)
(0.00119276 0.0208773 0)
(0.000523697 0.0219025 0)
(-8.73824e-05 0.0229671 0)
(-0.000633886 0.0240662 0)
(-0.00111078 0.0251934 0)
(-0.00151461 0.026341 0)
(-0.00184345 0.0275005 0)
(-0.00209687 0.0286621 0)
(-0.00227579 0.0298149 0)
(-0.00238237 0.0309474 0)
(-0.00241987 0.0320473 0)
(-0.00239247 0.0331017 0)
(-0.00230508 0.0340979 0)
(-0.00216324 0.0350228 0)
(-0.00197288 0.0358642 0)
(-0.00174026 0.0366101 0)
(-0.0014718 0.0372498 0)
(-0.00117405 0.0377738 0)
(-0.000853796 0.0381742 0)
(-0.000519342 0.0384447 0)
(-0.000174889 0.0385809 0)
(0.000616508 0.00883987 0)
(0.00184073 0.00886227 0)
(0.00304021 0.00890728 0)
(0.00419945 0.008975 0)
(0.00530276 0.00906576 0)
(0.00633581 0.00917996 0)
(0.00728551 0.00931819 0)
(0.0081402 0.00948113 0)
(0.00888986 0.00966965 0)
(0.00952627 0.0098848 0)
(0.0100431 0.0101278 0)
(0.0104362 0.0104001 0)
(0.0107033 0.0107033 0)
(0.0108443 0.0110392 0)
(0.0108613 0.01141 0)
(0.0107583 0.0118179 0)
(0.0105412 0.0122653 0)
(0.0102178 0.0127549 0)
(0.00979731 0.0132893 0)
(0.00929044 0.0138713 0)
(0.00870898 0.0145037 0)
(0.00806565 0.0151892 0)
(0.00737373 0.0159301 0)
(0.00664684 0.0167287 0)
(0.00589861 0.0175869 0)
(0.00514242 0.0185058 0)
(0.00439107 0.019486 0)
(0.00365663 0.0205273 0)
(0.00295008 0.0216286 0)
(0.00228121 0.0227875 0)
(0.00165842 0.0240008 0)
(0.00108861 0.0252635 0)
(0.000577107 0.0265696 0)
(0.000127642 0.0279116 0)
(-0.000257618 0.0292804 0)
(-0.000578004 0.0306655 0)
(-0.000834231 0.0320552 0)
(-0.00102825 0.0334364 0)
(-0.00116308 0.034795 0)
(-0.00124259 0.0361161 0)
(-0.00127134 0.037384 0)
(-0.00125431 0.0385831 0)
(-0.00119677 0.0396975 0)
(-0.0011041 0.0407119 0)
(-0.000981614 0.041612 0)
(-0.000834494 0.0423843 0)
(-0.000667729 0.0430173 0)
(-0.000486277 0.0435011 0)
(-0.000296521 0.0438281 0)
(-0.000100268 0.0439928 0)
(0.000628103 0.00881572 0)
(0.00187563 0.00883969 0)
(0.00309858 0.00888785 0)
(0.00428157 0.00896041 0)
(0.00540906 0.00905782 0)
(0.00646688 0.00918067 0)
(0.00744209 0.00932975 0)
(0.00832321 0.00950601 0)
(0.0091004 0.00971063 0)
(0.00976564 0.00994501 0)
(0.0103129 0.0102108 0)
(0.010738 0.0105098 0)
(0.0110392 0.0108443 0)
(0.0112166 0.0112166 0)
(0.0112724 0.0116294 0)
(0.0112108 0.0120855 0)
(0.011038 0.0125881 0)
(0.0107618 0.0131406 0)
(0.0103916 0.0137463 0)
(0.00993817 0.0144087 0)
(0.00941317 0.0151314 0)
(0.00882919 0.0159177 0)
(0.00819927 0.0167708 0)
(0.00753663 0.0176935 0)
(0.00685439 0.0186882 0)
(0.00616528 0.0197566 0)
(0.00548131 0.0208996 0)
(0.00481355 0.0221172 0)
(0.00417192 0.0234082 0)
(0.00356495 0.02477 0)
(0.00299966 0.0261989 0)
(0.00248149 0.0276892 0)
(0.0020142 0.0292337 0)
(0.00159995 0.0308237 0)
(0.00123929 0.0324483 0)
(0.000931377 0.034095 0)
(0.000674039 0.0357498 0)
(0.000464043 0.0373969 0)
(0.000297307 0.0390192 0)
(0.000169148 0.0405987 0)
(7.45408e-05 0.0421165 0)
(8.36143e-06 0.0435534 0)
(-3.43878e-05 0.0448901 0)
(-5.83875e-05 0.046108 0)
(-6.78545e-05 0.0471894 0)
(-6.6449e-05 0.0481179 0)
(-5.72592e-05 0.0488793 0)
(-4.3015e-05 0.0494615 0)
(-2.77156e-05 0.0498551 0)
(-1.02354e-05 0.0500533 0)
(0.000640472 0.0086617 0)
(0.00191286 0.0086872 0)
(0.00316093 0.00873849 0)
(0.00436943 0.00881586 0)
(0.00552302 0.00891993 0)
(0.00660773 0.00905147 0)
(0.00761084 0.00921153 0)
(0.00852108 0.00940138 0)
(0.00932887 0.00962256 0)
(0.0100264 0.00987688 0)
(0.0106079 0.0101664 0)
(0.0110697 0.0104937 0)
(0.01141 0.0108613 0)
(0.0116294 0.0112724 0)
(0.0117302 0.0117302 0)
(0.0117171 0.0122385 0)
(0.0115963 0.0128011 0)
(0.0113759 0.0134223 0)
(0.0110654 0.0141062 0)
(0.0106755 0.0148572 0)
(0.0102179 0.0156798 0)
(0.00970504 0.0165782 0)
(0.00914957 0.0175564 0)
(0.0085643 0.018618 0)
(0.00796175 0.0197661 0)
(0.00735385 0.0210029 0)
(0.00675168 0.0223299 0)
(0.00616516 0.0237472 0)
(0.00560289 0.0252537 0)
(0.00507189 0.0268467 0)
(0.00457754 0.0285217 0)
(0.0041235 0.0302726 0)
(0.00371164 0.0320909 0)
(0.00334217 0.0339662 0)
(0.00301371 0.0358859 0)
(0.00272351 0.037835 0)
(0.00246761 0.0397969 0)
(0.00224118 0.0417526 0)
(0.00203879 0.0436817 0)
(0.00185473 0.0455625 0)
(0.00168334 0.047372 0)
(0.00151928 0.0490869 0)
(0.00135784 0.050684 0)
(0.00119515 0.0521405 0)
(0.0010283 0.0534347 0)
(0.000855461 0.0545468 0)
(0.000675865 0.0554593 0)
(0.0004895 0.0561573 0)
(0.000295297 0.0566293 0)
(9.79687e-05 0.0568671 0)
(0.000653607 0.00838097 0)
(0.00195241 0.008408 0)
(0.00322724 0.0084624 0)
(0.00446301 0.00854458 0)
(0.00564467 0.00865532 0)
(0.00675849 0.00879565 0)
(0.007792 0.00896689 0)
(0.00873424 0.00917067 0)
(0.00957589 0.00940895 0)
(0.0103095 0.00968401 0)
(0.0109297 0.0099985 0)
(0.0114329 0.0103555 0)
(0.0118179 0.0107583 0)
(0.0120855 0.0112108 0)
(0.0122385 0.0117171 0)
(0.0122817 0.0122817 0)
(0.0122217 0.0129095 0)
(0.0120668 0.0136055 0)
(0.0118266 0.0143751 0)
(0.0115118 0.0152237 0)
(0.0111342 0.0161566 0)
(0.0107058 0.0171792 0)
(0.0102391 0.0182965 0)
(0.00974632 0.0195131 0)
(0.00923932 0.0208328 0)
(0.00872908 0.0222587 0)
(0.00822555 0.0237927 0)
(0.00773732 0.0254354 0)
(0.00727139 0.0271858 0)
(0.00683303 0.0290412 0)
(0.00642563 0.0309965 0)
(0.00605069 0.0330448 0)
(0.00570783 0.0351762 0)
(0.00539488 0.0373788 0)
(0.0051081 0.0396376 0)
(0.00484239 0.0419353 0)
(0.0045916 0.0442519 0)
(0.0043489 0.0465649 0)
(0.00410716 0.0488499 0)
(0.00385937 0.0510808 0)
(0.00359899 0.05323 0)
(0.0033204 0.0552694 0)
(0.00301916 0.0571708 0)
(0.00269231 0.0589065 0)
(0.0023385 0.0604502 0)
(0.00195813 0.0617777 0)
(0.00155319 0.0628675 0)
(0.00112701 0.0637016 0)
(0.000682103 0.0642659 0)
(0.000227563 0.0645502 0)
(0.000667506 0.0079787 0)
(0.00199428 0.00800726 0)
(0.00329751 0.00806476 0)
(0.00456235 0.00815177 0)
(0.00577409 0.00826925 0)
(0.00691931 0.0084185 0)
(0.00798587 0.00860116 0)
(0.00896314 0.00881927 0)
(0.0098422 0.00907525 0)
(0.010616 0.00937194 0)
(0.0112794 0.00971261 0)
(0.0118295 0.010101 0)
(0.0122653 0.0105412 0)
(0.0125881 0.011038 0)
(0.0128011 0.0115963 0)
(0.0129095 0.0122217 0)
(0.0129201 0.0129201 0)
(0.0128416 0.0136977 0)
(0.0126836 0.0145609 0)
(0.012457 0.0155164 0)
(0.0121735 0.0165708 0)
(0.011845 0.0177306 0)
(0.0114834 0.019002 0)
(0.0111005 0.0203907 0)
(0.0107073 0.0219017 0)
(0.0103137 0.0235389 0)
(0.00992841 0.0253051 0)
(0.00955834 0.0272013 0)
(0.00920868 0.0292268 0)
(0.0088826 0.0313788 0)
(0.00858112 0.0336519 0)
(0.00830319 0.0360381 0)
(0.00804567 0.0385266 0)
(0.00780357 0.0411031 0)
(0.00757024 0.0437507 0)
(0.00733772 0.0464487 0)
(0.00709716 0.0491738 0)
(0.00683924 0.0518993 0)
(0.0065547 0.0545961 0)
(0.00623482 0.057233 0)
(0.00587198 0.0597771 0)
(0.00546007 0.0621943 0)
(0.0049949 0.0644506 0)
(0.00447455 0.0665126 0)
(0.00389951 0.0683482 0)
(0.0032728 0.069928 0)
(0.0025998 0.0712259 0)
(0.00188785 0.0722197 0)
(0.00114388 0.0728923 0)
(0.000382302 0.0732313 0)
(0.000682168 0.00746195 0)
(0.00203847 0.00749204 0)
(0.00337175 0.00755266 0)
(0.0046675 0.00764453 0)
(0.0059114 0.00776884 0)
(0.0070904 0.00792717 0)
(0.00819278 0.00812155 0)
(0.00920833 0.00835444 0)
(0.0101286 0.00862881 0)
(0.0109469 0.00894809 0)
(0.0116587 0.00931626 0)
(0.0122615 0.00973782 0)
(0.0127549 0.0102178 0)
(0.0131406 0.0107618 0)
(0.0134223 0.0113759 0)
(0.0136055 0.0120668 0)
(0.0136977 0.0128416 0)
(0.0137076 0.0137076 0)
(0.0136453 0.0146728 0)
(0.0135217 0.0157452 0)
(0.0133483 0.0169327 0)
(0.013137 0.0182434 0)
(0.0128992 0.0196848 0)
(0.012646 0.021264 0)
(0.0123875 0.0229873 0)
(0.0121324 0.0248598 0)
(0.0118879 0.026885 0)
(0.011659 0.029065 0)
(0.0114489 0.0313993 0)
(0.0112581 0.0338853 0)
(0.011085 0.0365172 0)
(0.0109254 0.0392863 0)
(0.0107728 0.0421801 0)
(0.010619 0.0451827 0)
(0.0104537 0.0482741 0)
(0.0102655 0.0514307 0)
(0.0100421 0.0546248 0)
(0.00977127 0.0578253 0)
(0.00944095 0.0609975 0)
(0.00904032 0.0641043 0)
(0.00856025 0.0671062 0)
(0.00799394 0.0699625 0)
(0.00733741 0.0726322 0)
(0.00658986 0.0750747 0)
(0.00575395 0.0772515 0)
(0.00483581 0.0791265 0)
(0.00384489 0.0806681 0)
(0.00279341 0.0818492 0)
(0.00169367 0.0826489 0)
(0.000566568 0.083052 0)
(0.000697597 0.00683955 0)
(0.00208499 0.00687118 0)
(0.00345 0.00693494 0)
(0.00477854 0.00703174 0)
(0.00605673 0.00716299 0)
(0.00727201 0.00733061 0)
(0.00841314 0.00753702 0)
(0.0094704 0.00778519 0)
(0.0104358 0.00807866 0)
(0.0113034 0.00842155 0)
(0.0120691 0.00881861 0)
(0.012731 0.00927519 0)
(0.0132893 0.00979731 0)
(0.0137463 0.0103916 0)
(0.0141062 0.0110654 0)
(0.0143751 0.0118266 0)
(0.0145609 0.0126836 0)
(0.0146728 0.0136453 0)
(0.0147211 0.0147211 0)
(0.0147169 0.0159206 0)
(0.0146717 0.0172535 0)
(0.014597 0.0187293 0)
(0.0145041 0.0203574 0)
(0.0144031 0.0221464 0)
(0.0143031 0.0241042 0)
(0.0142115 0.0262372 0)
(0.0141336 0.0285504 0)
(0.0140727 0.0310466 0)
(0.014029 0.0337262 0)
(0.0140005 0.0365866 0)
(0.0139821 0.0396221 0)
(0.013966 0.0428229 0)
(0.0139421 0.0461754 0)
(0.0138976 0.0496614 0)
(0.0138183 0.0532582 0)
(0.0136884 0.0569383 0)
(0.0134917 0.0606696 0)
(0.0132119 0.0644154 0)
(0.0128337 0.0681351 0)
(0.0123435 0.0717844 0)
(0.0117302 0.0753164 0)
(0.0109861 0.0786823 0)
(0.0101071 0.0818326 0)
(0.00909382 0.0847187 0)
(0.00795131 0.0872936 0)
(0.00668942 0.0895138 0)
(0.00532249 0.0913407 0)
(0.00386863 0.0927413 0)
(0.0023467 0.0936899 0)
(0.00078548 0.0941684 0)
(0.0007138 0.00612196 0)
(0.00213387 0.00615515 0)
(0.00353231 0.0062221 0)
(0.00489555 0.00632389 0)
(0.00621026 0.00646222 0)
(0.00746442 0.00663933 0)
(0.00864736 0.00685812 0)
(0.00974997 0.00712208 0)
(0.0107649 0.0074354 0)
(0.0116868 0.00780293 0)
(0.0125123 0.00823028 0)
(0.0132402 0.00872375 0)
(0.0138713 0.00929044 0)
(0.0144087 0.00993817 0)
(0.0148572 0.0106755 0)
(0.0152237 0.0115118 0)
(0.0155164 0.012457 0)
(0.0157452 0.0135217 0)
(0.0159206 0.0147169 0)
(0.016054 0.016054 0)
(0.016157 0.0175447 0)
(0.0162409 0.0192004 0)
(0.0163163 0.0210324 0)
(0.0163929 0.0230513 0)
(0.0164783 0.0252668 0)
(0.0165787 0.027687 0)
(0.0166973 0.0303185 0)
(0.0168348 0.0331654 0)
(0.0169889 0.0362291 0)
(0.017154 0.0395075 0)
(0.0173212 0.0429947 0)
(0.0174787 0.0466806 0)
(0.0176113 0.0505501 0)
(0.0177018 0.0545828 0)
(0.0177306 0.058753 0)
(0.0176769 0.063029 0)
(0.0175193 0.0673738 0)
(0.0172368 0.0717444 0)
(0.0168099 0.0760932 0)
(0.0162216 0.0803677 0)
(0.0154581 0.0845123 0)
(0.0145102 0.0884686 0)
(0.0133738 0.0921774 0)
(0.0120508 0.0955798 0)
(0.0105491 0.0986192 0)
(0.00888288 0.101243 0)
(0.00707232 0.103403 0)
(0.00514268 0.105061 0)
(0.00312079 0.106184 0)
(0.00104503 0.106751 0)
(0.000730785 0.00532111 0)
(0.00218512 0.00535587 0)
(0.00361874 0.00542604 0)
(0.00501866 0.00553291 0)
(0.00637217 0.00567844 0)
(0.00766791 0.00586528 0)
(0.00889588 0.00609679 0)
(0.0100477 0.00637705 0)
(0.0111167 0.00671095 0)
(0.0120983 0.00710415 0)
(0.01299 0.00756316 0)
(0.0137912 0.00809536 0)
(0.0145037 0.00870898 0)
(0.0151314 0.00941317 0)
(0.0156798 0.0102179 0)
(0.0161566 0.0111342 0)
(0.0165708 0.0121735 0)
(0.0169327 0.0133483 0)
(0.0172535 0.0146717 0)
(0.0175447 0.016157 0)
(0.0178181 0.0178181 0)
(0.0180848 0.0196686 0)
(0.018355 0.0217221 0)
(0.0186374 0.0239914 0)
(0.0189388 0.0264884 0)
(0.0192632 0.0292235 0)
(0.0196121 0.0322051 0)
(0.0199832 0.035439 0)
(0.020371 0.0389278 0)
(0.0207661 0.0426705 0)
(0.0211552 0.0466614 0)
(0.0215214 0.05089 0)
(0.0218443 0.0553399 0)
(0.0221005 0.0599886 0)
(0.0222645 0.0648071 0)
(0.0223092 0.0697595 0)
(0.0222071 0.0748029 0)
(0.0219313 0.0798876 0)
(0.021457 0.0849578 0)
(0.0207626 0.0899517 0)
(0.0198311 0.0948033 0)
(0.0186512 0.0994431 0)
(0.0172183 0.1038 0)
(0.0155356 0.107803 0)
(0.0136143 0.111384 0)
(0.0114737 0.114479 0)
(0.00914084 0.11703 0)
(0.00664971 0.118989 0)
(0.00403685 0.120317 0)
(0.00135226 0.120988 0)
(0.00074856 0.00445015 0)
(0.00223879 0.0044865 0)
(0.00370935 0.00455993 0)
(0.00514796 0.00467195 0)
(0.00654264 0.00482482 0)
(0.00788277 0.0050216 0)
(0.00915913 0.00526616 0)
(0.0103641 0.00556321 0)
(0.011492 0.00591838 0)
(0.012539 0.00633821 0)
(0.0135035 0.00683019 0)
(0.014386 0.00740283 0)
(0.0151892 0.00806565 0)
(0.0159177 0.00882919 0)
(0.0165782 0.00970504 0)
(0.0171792 0.0107058 0)
(0.0177306 0.011845 0)
(0.0182434 0.013137 0)
(0.0187293 0.014597 0)
(0.0192004 0.0162409 0)
(0.0196686 0.0180848 0)
(0.0201449 0.0201449 0)
(0.0206392 0.0224375 0)
(0.0211592 0.0249779 0)
(0.0217105 0.0277808 0)
(0.0222954 0.0308591 0)
(0.0229127 0.0342235 0)
(0.0235575 0.037882 0)
(0.0242204 0.0418392 0)
(0.0248876 0.046095 0)
(0.0255407 0.0506448 0)
(0.0261571 0.0554778 0)
(0.02671 0.0605767 0)
(0.0271691 0.0659169 0)
(0.0275015 0.0714661 0)
(0.0276726 0.0771837 0)
(0.0276474 0.0830207 0)
(0.0273917 0.0889197 0)
(0.0268741 0.0948155 0)
(0.0260671 0.100636 0)
(0.0249494 0.106302 0)
(0.0235068 0.111733 0)
(0.0217339 0.116841 0)
(0.019635 0.121543 0)
(0.017225 0.125756 0)
(0.014529 0.129401 0)
(0.0115825 0.13241 0)
(0.00842988 0.134722 0)
(0.00511946 0.136291 0)
(0.00171545 0.137083 0)
(0.000767135 0.00352328 0)
(0.0022949 0.00356124 0)
(0.00380419 0.00363797 0)
(0.00528355 0.0037552 0)
(0.00672182 0.00391553 0)
(0.00810925 0.00412242 0)
(0.00943749 0.00438031 0)
(0.0106999 0.00469458 0)
(0.0118917 0.00507163 0)
(0.0130101 0.00551893 0)
(0.0140546 0.00604504 0)
(0.0150266 0.00665968 0)
(0.0159301 0.00737373 0)
(0.0167708 0.00819927 0)
(0.0175564 0.00914957 0)
(0.0182965 0.0102391 0)
(0.019002 0.0114834 0)
(0.0196848 0.0128992 0)
(0.0203574 0.0145041 0)
(0.0210324 0.0163163 0)
(0.0217221 0.018355 0)
(0.0224375 0.0206392 0)
(0.023188 0.023188 0)
(0.0239808 0.0260201 0)
(0.0248199 0.0291531 0)
(0.0257059 0.032603 0)
(0.026635 0.0363835 0)
(0.0275989 0.0405054 0)
(0.0285841 0.0449754 0)
(0.0295718 0.0497956 0)
(0.030538 0.0549624 0)
(0.0314532 0.0604655 0)
(0.0322834 0.066287 0)
(0.03299 0.0724005 0)
(0.0335313 0.0787704 0)
(0.0338638 0.0853511 0)
(0.0339431 0.0920871 0)
(0.0337262 0.0989125 0)
(0.0331732 0.105752 0)
(0.0322496 0.11252 0)
(0.0309278 0.119125 0)
(0.02919 0.125469 0)
(0.027029 0.131449 0)
(0.0244503 0.136964 0)
(0.0214724 0.141914 0)
(0.0181278 0.146203 0)
(0.0144615 0.149748 0)
(0.0105305 0.152474 0)
(0.00639766 0.154326 0)
(0.00214438 0.155261 0)
(0.000786515 0.00255551 0)