/*--------------------------------*- C++ -*----------------------------------*\
| =========                 |                                                 |
| \\      /  F ield         | OpenFOAM: The Open Source CFD Toolbox           |
|  \\    /   O peration     | Version:  2406                                  |
|   \\  /    A nd           | Website:  www.openfoam.com                      |
|    \\/     M anipulation  |                                                 |
\*---------------------------------------------------------------------------*/
FoamFile
{
    version     2.0;
    format      ascii;
    arch        "LSB;label=32;scalar=64";
    class       volScalarField;
    location    "0.75";
    object      gradTy;
}
// * * * * * * * * * * * * * * * * * * * * * * * * * * * * * * * * * * * * * //

dimensions      [0 -1 0 1 0 0 0];

internalField   nonuniform List<scalar> 
2500
(
0.00543806
0.00544714
0.00546694
0.00549619
0.0055349
0.00558296
0.00564019
0.0057064
0.0057814
0.00586496
0.00595689
0.00605699
0.00616508
0.00628103
0.00640472
0.00653607
0.00667506
0.00682168
0.00697597
0.007138
0.00730785
0.0074856
0.00767135
0.00786515
0.00806701
0.00827688
0.00849461
0.00871996
0.00895253
0.00919179
0.009437
0.00968728
0.00994151
0.0101984
0.0104564
0.0107138
0.0109687
0.011219
0.0114626
0.0116972
0.0119203
0.0121296
0.0123228
0.0124976
0.012652
0.0127841
0.0128922
0.0129752
0.013031
0.013054
0.0162201
0.016249
0.0163082
0.0163961
0.0165125
0.0166569
0.016829
0.017028
0.0172534
0.0175047
0.0177811
0.0180822
0.0184073
0.0187563
0.0191286
0.0195241
0.0199428
0.0203847
0.0208499
0.0213387
0.0218512
0.0223879
0.022949
0.0235348
0.0241451
0.02478
0.025439
0.0261213
0.0268258
0.0275509
0.0282943
0.0290533
0.0298245
0.030604
0.0313872
0.0321688
0.032943
0.0337035
0.0344437
0.0351565
0.0358348
0.0364712
0.0370586
0.0375903
0.0380598
0.0384614
0.0387903
0.0390429
0.0392157
0.0392962
0.0267543
0.0268034
0.0269014
0.0270475
0.0272411
0.0274815
0.027768
0.0280996
0.0284754
0.0288944
0.0293557
0.0298585
0.0304021
0.0309858
0.0316093
0.0322724
0.0329751
0.0337175
0.0345
0.0353231
0.0361874
0.0370935
0.0380419
0.0390331
0.0400672
0.0411441
0.042263
0.0434228
0.0446213
0.0458559
0.0471229
0.0484174
0.0497337
0.0510651
0.0524034
0.0537398
0.0550642
0.0563659
0.0576332
0.0588541
0.0600161
0.0611068
0.0621138
0.0630253
0.0638303
0.0645187
0.0650821
0.0655135
0.065808
0.0659546
0.0368917
0.0369597
0.037096
0.0372994
0.0375692
0.0379045
0.0383043
0.0387675
0.0392929
0.0398793
0.0405256
0.041231
0.0419945
0.0428157
0.0436943
0.0446301
0.0456235
0.046675
0.0477854
0.0489555
0.0501866
0.0514796
0.0528355
0.0542552
0.0557389
0.0572866
0.0588974
0.0605694
0.0622998
0.0640846
0.0659184
0.0677943
0.0697038
0.0716369
0.0735818
0.0755255
0.0774531
0.0793488
0.0811956
0.0829756
0.0846705
0.086262
0.0877318
0.0890626
0.090238
0.091243
0.0920647
0.0926921
0.0931165
0.09333
0.0464686
0.0465554
0.0467294
0.0469894
0.0473345
0.0477638
0.0482761
0.0488702
0.0495449
0.0502989
0.0511313
0.052041
0.0530276
0.0540906
0.0552302
0.0564467
0.0577409
0.059114
0.0605673
0.0621026
0.0637217
0.0654264
0.0672182
0.0690986
0.0710682
0.0731271
0.0752741
0.077507
0.0798221
0.082214
0.0846753
0.0871966
0.0897664
0.0923711
0.0949947
0.0976191
0.100224
0.102788
0.105288
0.107699
0.109996
0.112154
0.114148
0.115954
0.117549
0.118913
0.120028
0.120879
0.121453
0.121742
0.0553404
0.0554457
0.0556568
0.0559725
0.056392
0.0569141
0.057538
0.0582623
0.059086
0.0600081
0.0610278
0.0621445
0.0633581
0.0646688
0.0660773
0.0675849
0.0691931
0.070904
0.0727201
0.0746442
0.0766791
0.0788277
0.0810925
0.0834755
0.0859782
0.0886008
0.0913422
0.0941996
0.0971683
0.100241
0.103409
0.10666
0.109978
0.113346
0.116742
0.120144
0.123524
0.126854
0.130104
0.13324
0.13623
0.139041
0.141639
0.143993
0.146074
0.147853
0.149308
0.150418
0.151166
0.151543
0.0633737
0.0634972
0.0637448
0.0641152
0.0646078
0.0652216
0.0659559
0.0668098
0.0677824
0.0688733
0.0700822
0.0714092
0.0728551
0.0744209
0.0761084
0.07792
0.0798587
0.0819278
0.0841314
0.0864736
0.0889588
0.0915913
0.0943749
0.0973129
0.100407
0.103659
0.107067
0.110628
0.114336
0.118182
0.122155
0.12624
0.130416
0.134661
0.138949
0.143249
0.147526
0.151745
0.155865
0.159845
0.163643
0.167216
0.17052
0.173516
0.176164
0.17843
0.180283
0.181696
0.18265
0.18313
0.0704486
0.0705898
0.0708731
0.0712972
0.0718616
0.0725659
0.0734096
0.0743924
0.0755141
0.076775
0.0781757
0.0797174
0.081402
0.0832321
0.0852108
0.0873424
0.0896314
0.0920833
0.094704
0.0974997
0.100477
0.103641
0.106999
0.110555
0.114311
0.11827
0.122432
0.126791
0.131342
0.136074
0.140972
0.146016
0.151184
0.156446
0.161768
0.167112
0.172436
0.177693
0.182832
0.187801
0.192547
0.197014
0.201149
0.2049
0.208217
0.211057
0.213379
0.215151
0.216347
0.216949
0.0764602
0.0766188
0.0769369
0.0774136
0.0780487
0.0788423
0.0797945
0.0809058
0.0821771
0.0836096
0.0852054
0.0869673
0.0888986
0.091004
0.0932887
0.0957589
0.098422
0.101286
0.104358
0.107649
0.111167
0.11492
0.118917
0.123164
0.127666
0.132425
0.137442
0.142713
0.148229
0.153978
0.159941
0.166096
0.172413
0.178856
0.185384
0.191948
0.198496
0.204969
0.211304
0.217436
0.223298
0.22882
0.233935
0.238578
0.242686
0.246204
0.249082
0.251279
0.252762
0.253509
0.0813208
0.0814963
0.0818485
0.0823766
0.0830812
0.083963
0.085023
0.0862628
0.0876845
0.0892912
0.0910864
0.093075
0.0952627
0.0976564
0.100264
0.103095
0.10616
0.109469
0.113034
0.116868
0.120983
0.12539
0.130101
0.135125
0.140468
0.146135
0.152126
0.158438
0.165061
0.171981
0.179175
0.186616
0.194267
0.202084
0.210018
0.218007
0.225988
0.233888
0.241629
0.249129
0.256306
0.263072
0.269345
0.275042
0.280087
0.284409
0.287945
0.290646
0.29247
0.293388
0.0849608
0.0851528
0.0855383
0.086117
0.08689
0.087859
0.0890264
0.090395
0.0919688
0.0937527
0.0957526
0.0979759
0.100431
0.103129
0.106079
0.109297
0.112794
0.116587
0.120691
0.125123
0.1299
0.135035
0.140546
0.146443
0.152737
0.159434
0.166536
0.174038
0.181932
0.190199
0.198813
0.207741
0.21694
0.226356
0.235927
0.245582
0.255239
0.264811
0.274202
0.283312
0.292036
0.30027
0.30791
0.314853
0.321004
0.326277
0.330595
0.333892
0.336119
0.33724
0.0873301
0.0875383
0.0879563
0.0885847
0.0894252
0.090481
0.0917556
0.0932539
0.0949819
0.0969471
0.0991582
0.101626
0.104362
0.10738
0.110697
0.114329
0.118295
0.122615
0.12731
0.132402
0.137912
0.14386
0.150266
0.157147
0.164516
0.172381
0.180747
0.18961
0.198959
0.208773
0.219025
0.229671
0.240662
0.251934
0.26341
0.275005
0.286621
0.298149
0.309474
0.320473
0.331017
0.340979
0.350228
0.358642
0.366101
0.372498
0.377738
0.381742
0.384447
0.385809
0.0883987
0.0886227
0.0890728
0.08975
0.0906576
0.0917996
0.0931819
0.0948113
0.0966965
0.098848
0.101278
0.104001
0.107033
0.110392
0.1141
0.118179
0.122653
0.127549
0.132893
0.138713
0.145037
0.151892
0.159301
0.167287
0.175869
0.185058
0.19486
0.205273
0.216286
0.227875
0.240008
0.252635
0.265696
0.279116
0.292804
0.306655
0.320552
0.334364
0.34795
0.361161
0.37384
0.385831
0.396975
0.407119
0.41612
0.423843
0.430173
0.435011
0.438281
0.439928
0.0881572
0.0883969
0.0888785
0.0896041
0.0905782
0.0918067
0.0932975
0.0950601
0.0971063
0.0994501
0.102108
0.105098
0.108443
0.112166
0.116294
0.120855
0.125881
0.131406
0.137463
0.144087
0.151314
0.159177
0.167708
0.176935
0.186882
0.197566
0.208996
0.221172
0.234082
0.2477
0.261989
0.276892
0.292337
0.308237
0.324483
0.34095
0.357498
0.373969
0.390192
0.405987
0.421165
0.435534
0.448901
0.46108
0.471894
0.481179
0.488793
0.494615
0.498551
0.500533
0.086617
0.086872
0.0873849
0.0881586
0.0891993
0.0905147
0.0921153
0.0940138
0.0962256
0.0987688
0.101664
0.104937
0.108613
0.112724
0.117302
0.122385
0.128011
0.134223
0.141062
0.148572
0.156798
0.165782
0.175564
0.18618
0.197661
0.210029
0.223299
0.237472
0.252537
0.268467
0.285217
0.302726
0.320909
0.339662
0.358859
0.37835
0.397969
0.417526
0.436817
0.455625
0.47372
0.490869
0.50684
0.521405
0.534347
0.545468
0.554593
0.561573
0.566293
0.568671
0.0838097
0.08408
0.084624
0.0854458
0.0865532
0.0879565
0.0896689
0.0917067
0.0940895
0.0968401
0.099985
0.103555
0.107583
0.112108
0.117171
0.122817
0.129095
0.136055
0.143751
0.152237
0.161566
0.171792
0.182965
0.195131
0.208328
0.222587
0.237927
0.254354
0.271858
0.290412
0.309965
0.330448
0.351762
0.373788
0.396376
0.419353
0.442519
0.465649
0.488499
0.510808
0.5323
0.552694
0.571708
0.589065
0.604502
0.617777
0.628675
0.637016
0.642659
0.645502
0.079787
0.0800726
0.0806476
0.0815177
0.0826925
0.084185
0.0860116
0.0881927
0.0907525
0.0937194
0.0971261
0.10101
0.105412
0.11038
0.115963
0.122217
0.129201
0.136977
0.145609
0.155164
0.165708
0.177306
0.19002
0.203907
0.219017
0.235389
0.253051
0.272013
0.292268
0.313788
0.336519
0.360381
0.385266
0.411031
0.437507
0.464487
0.491738
0.518993
0.545961
0.57233
0.597771
0.621943
0.644506
0.665126
0.683482
0.69928
0.712259
0.722197
0.728923
0.732313
0.0746195
0.0749204
0.0755266
0.0764453
0.0776884
0.0792717
0.0812155
0.0835444
0.0862881
0.0894809
0.0931626
0.0973782
0.102178
0.107618
0.113759
0.120668
0.128416
0.137076
0.146728
0.157452
0.169327
0.182434
0.196848
0.21264
0.229873
0.248598
0.26885
0.29065
0.313993
0.338853
0.365172
0.392863
0.421801
0.451827
0.482741
0.514307
0.546248
0.578253
0.609975
0.641043
0.671062
0.699625
0.726322
0.750747
0.772515
0.791265
0.806681
0.818492
0.826489
0.83052
0.0683955
0.0687118
0.0693494
0.0703174
0.0716299
0.0733061
0.0753702
0.0778519
0.0807866
0.0842155
0.0881861
0.0927519
0.0979731
0.103916
0.110654
0.118266
0.126836
0.136453
0.147211
0.159206
0.172535
0.187293
0.203574
0.221464
0.241042
0.262372
0.285504
0.310466
0.337262
0.365866
0.396221
0.428229
0.461754
0.496614
0.532582
0.569383
0.606696
0.644154
0.681351
0.717844
0.753164
0.786823
0.818326
0.847187
0.872936
0.895138
0.913407
0.927413
0.936899
0.941684
0.0612196
0.0615515
0.062221
0.0632389
0.0646222
0.0663933
0.0685812
0.0712208
0.074354
0.0780293
0.0823028
0.0872375
0.0929044
0.0993817
0.106755
0.115118
0.12457
0.135217
0.147169
0.16054
0.175447
0.192004
0.210324
0.230513
0.252668
0.27687
0.303185
0.331654
0.362291
0.395075
0.429947
0.466806
0.505501
0.545828
0.58753
0.63029
0.673738
0.717444
0.760932
0.803677
0.845123
0.884686
0.921774
0.955798
0.986192
1.01243
1.03403
1.05061
1.06184
1.06751
0.0532111
0.0535587
0.0542604
0.0553291
0.0567844
0.0586528
0.0609679
0.0637705
0.0671095
0.0710415
0.0756316
0.0809536
0.0870898
0.0941317
0.102179
0.111342
0.121735
0.133483
0.146717
0.16157
0.178181
0.196686
0.217221
0.239914
0.264884
0.292235
0.322051
0.35439
0.389278
0.426705
0.466614
0.5089
0.553399
0.599886
0.648071
0.697595
0.748029
0.798876
0.849578
0.899517
0.948033
0.994431
1.038
1.07803
1.11384
1.14479
1.1703
1.18989
1.20317
1.20988
0.0445015
0.044865
0.0455993
0.0467195
0.0482482
0.050216
0.0526616
0.0556321
0.0591838
0.0633821
0.0683019
0.0740283
0.0806565
0.0882919
0.0970504
0.107058
0.11845
0.13137
0.14597
0.162409
0.180848
0.201449
0.224375
0.249779
0.277808
0.308591
0.342235
0.37882
0.418392
0.46095
0.506448
0.554778
0.605767
0.659169
0.714661
0.771837
0.830207
0.889197
0.948155
1.00636
1.06302
1.11733
1.16841
1.21543
1.25756
1.29401
1.3241
1.34722
1.36291
1.37083
0.0352328
0.0356124
0.0363797
0.037552
0.0391553
0.0412242
0.0438031
0.0469458
0.0507163
0.0551893
0.0604504
0.0665968
0.0737373
0.0819927
0.0914957
0.102391
0.114834
0.128992
0.145041
0.163163
0.18355
0.206392
0.23188
0.260201
0.291531
0.32603
0.363835
0.405054
0.449754
0.497956
0.549624
0.604655
0.66287
0.724005
0.787704
0.853511
0.920871
0.989125
1.05752
1.1252
1.19125
1.25469
1.31449
1.36964
1.41914
1.46203
1.49748
1.52474
1.54326
1.55261
0.0255551
0.0259508
0.0267512
0.0279761
0.0296546
0.0318261
0.0345404
0.0378584
0.0418525
0.0466071
0.0522191
0.0587984
0.0664684
0.0753663
0.085643
0.0974632
0.111005
0.12646
0.144031
0.163929
0.186374
0.211592
0.239808
0.271243
0.306111
0.344608
0.386906
0.433148
0.483432
0.537804
0.596249
0.658674
0.724899
0.794646
0.867528
0.943041
1.02056
1.09933
1.17848
1.25702
1.33388
1.40787
1.47779
1.5424
1.60049
1.65093
1.69266
1.7248
1.74663
1.75767
0.0156239
0.0160356
0.0168692
0.0181466
0.0199006
0.0221751
0.0250259
0.0285211
0.0327418
0.0377826
0.043752
0.0507737
0.0589861
0.0685439
0.0796175
0.0923932
0.107073
0.123875
0.143031
0.164783
0.189388
0.217105
0.248199
0.282934
0.321563
0.364328
0.411444
0.463095
0.519419
0.580498
0.646344
0.716884
0.791945
0.871242
0.954362
1.04075
1.12972
1.2204
1.3118
1.40277
1.49204
1.57823
1.65988
1.73551
1.80366
1.86294
1.91206
1.94993
1.97569
1.98871
0.00559767
0.00602528
0.00689155
0.00822107
0.01005
0.0124269
0.0154139
0.0190864
0.0235344
0.0288629
0.0351929
0.0426617
0.0514242
0.0616528
0.0735385
0.0872908
0.103137
0.121324
0.142115
0.165787
0.192632
0.222954
0.257059
0.295258
0.337854
0.385139
0.43738
0.494812
0.557624
0.625944
0.699822
0.779218
0.863977
0.953816
1.0483
1.14684
1.24867
1.35281
1.45814
1.56332
1.66687
1.76714
1.86241
1.9509
2.03082
2.10047
2.1583
2.20295
2.23334
2.24872
-0.00436461
-0.00392152
-0.00302329
-0.00164286
0.000259433
0.00273712
0.0058582
0.00970578
0.0143789
0.0199932
0.0266822
0.0345976
0.0439107
0.0548131
0.0675168
0.0822555
0.0992841
0.118879
0.141336
0.166973
0.196121
0.229127
0.26635
0.308151
0.35489
0.406918
0.464564
0.528125
0.597851
0.673931
0.756469
0.84547
0.940812
1.04223
1.14928
1.26134
1.37757
1.49689
1.61803
1.73943
1.85938
1.97594
2.08704
2.19053
2.28426
2.36614
2.43425
2.48692
2.52282
2.541
-0.0141061
-0.0136482
-0.0127193
-0.0112899
-0.00931686
-0.00674184
-0.00349076
0.000527051
0.00541966
0.0113136
0.0183547
0.0267096
0.0365663
0.0481355
0.0616516
0.0773732
0.0955834
0.11659
0.140727
0.168348
0.199832
0.235575
0.275989
0.321494
0.372514
0.429468
0.492758
0.562756
0.639788
0.724117
0.81592
0.915266
1.02208
1.13615
1.25702
1.38406
1.51636
1.65276
1.7918
1.93172
2.07051
2.2059
2.33542
2.45647
2.56644
2.66277
2.74307
2.80528
2.84773
2.86925
-0.0234747
-0.0230029
-0.0220452
-0.0205697
-0.0185299
-0.0158628
-0.0124882
-0.00830809
-0.00320548
0.00295679
0.0103372
0.0191169
0.0295008
0.0417192
0.0560289
0.0727139
0.0920868
0.114489
0.14029
0.169889
0.20371
0.242204
0.285841
0.335106
0.390497
0.45251
0.521629
0.598316
0.68299
0.776007
0.877637
0.988037
1.10721
1.235
1.37099
1.51455
1.66474
1.82028
1.97955
2.14058
2.30101
2.45819
2.60918
2.75084
2.87996
2.9934
3.08821
3.16181
3.21211
3.23763
-0.0323252
-0.0318407
-0.0308568
-0.0293392
-0.0272381
-0.0244861
-0.0209972
-0.0166663
-0.0113676
-0.00495369
0.00274623
0.0119276
0.0228121
0.0356495
0.0507189
0.0683303
0.088826
0.112581
0.140005
0.17154
0.207661
0.248876
0.295718
0.348746
0.408536
0.475671
0.550734
0.634289
0.726866
0.828937
0.940889
1.06299
1.19537
1.33793
1.49036
1.65205
1.82203
1.99897
2.18107
2.36612
2.55142
2.73384
2.90988
3.07577
3.22757
3.36138
3.47355
3.56081
3.62055
3.65089
-0.0405218
-0.0400263
-0.0390194
-0.0374648
-0.0353097
-0.0324823
-0.0288913
-0.0244247
-0.0189487
-0.0123059
-0.00431372
0.00523697
0.0165842
0.0299966
0.0457754
0.0642563
0.0858112
0.11085
0.139821
0.173212
0.211552
0.255407
0.30538
0.362106
0.426249
0.498492
0.579524
0.670031
0.770672
0.882061
1.00473
1.1391
1.28543
1.44379
1.61395
1.7954
1.98719
2.18793
2.39572
2.60808
2.82192
3.03362
3.23898
3.43344
3.61219
3.77037
3.90339
4.00715
4.07831
4.11449
-0.04794
-0.0474355
-0.0464097
-0.0448246
-0.0426243
-0.0397334
-0.0360556
-0.0314727
-0.0258433
-0.0190007
-0.0107517
-0.000873824
0.0108861
0.0248149
0.041235
0.0605069
0.0830319
0.109254
0.13966
0.174787
0.215214
0.261571
0.314532
0.374817
0.443182
0.520418
0.607337
0.704761
0.813501
0.934337
1.06798
1.21504
1.37597
1.55102
1.74015
1.94297
2.15864
2.38577
2.62236
2.86569
3.11231
3.35796
3.59771
3.82601
4.03691
4.22439
4.38264
4.50643
4.5915
4.63481
-0.0544687
-0.0539576
-0.0529179
-0.0513099
-0.0490753
-0.0461353
-0.0423893
-0.0377136
-0.0319599
-0.0249536
-0.0164913
-0.00633886
0.00577107
0.020142
0.0371164
0.0570783
0.0804567
0.107728
0.139421
0.176113
0.218443
0.2671
0.322834
0.38645
0.458805
0.540808
0.633403
0.737567
0.854283
0.984526
1.12922
1.28921
1.4652
1.65769
1.86688
2.09262
2.33422
2.5904
2.85914
3.13754
3.42173
3.70684
3.98701
4.25551
4.50501
4.72792
4.91687
5.06516
5.16731
5.21939
-0.0600116
-0.0594967
-0.0584489
-0.056827
-0.0545709
-0.0515988
-0.0478065
-0.0430657
-0.0372225
-0.0300951
-0.0214717
-0.0111078
0.00127642
0.0159995
0.0334217
0.0539488
0.0780357
0.10619
0.138976
0.177018
0.221005
0.271691
0.3299
0.396524
0.472528
0.558941
0.656855
0.767411
0.89179
1.03119
1.18679
1.35971
1.55097
1.76139
1.99153
2.24154
2.51105
2.79899
3.10342
3.42136
3.74858
4.07954
4.40734
4.72383
5.01989
5.28595
5.51254
5.69104
5.8143
5.87725
-0.0644889
-0.0639735
-0.0629241
-0.0612987
-0.0590355
-0.0560508
-0.0522374
-0.0474635
-0.0415708
-0.0343718
-0.0256479
-0.0151461
-0.00257618
0.0123929
0.0301371
0.051081
0.0757024
0.104537
0.138183
0.177306
0.222645
0.275015
0.335313
0.404521
0.483709
0.574033
0.676737
0.793145
0.924652
1.0727
1.23877
1.42431
1.63072
1.85924
2.11087
2.38623
2.6854
3.0077
3.35146
3.71376
4.09014
4.4744
4.85847
5.23249
5.5851
5.90409
6.17723
6.39325
6.54285
6.61937
-0.0678381
-0.0673258
-0.0662823
-0.0646649
-0.062411
-0.0594354
-0.0556292
-0.0508583
-0.0449611
-0.0377464
-0.0289906
-0.0184345
-0.00578004
0.00931377
0.0272351
0.0484239
0.0733772
0.102655
0.136884
0.176769
0.223092
0.276726
0.338638
0.409894
0.491669
0.585249
0.692033
0.813534
0.951377
1.10728
1.28305
1.48052
1.70153
1.94785
2.22105
2.52238
2.85256
3.21156
3.59821
4.00994
4.44224
4.8884
5.3391
5.78244
6.2042
6.58868
6.91987
7.18296
7.36567
7.45927
-0.070015
-0.0695098
-0.0684803
-0.0668836
-0.0646569
-0.0617144
-0.0579466
-0.0532183
-0.0473664
-0.0401978
-0.0314862
-0.0209687
-0.00834231
0.00674039
0.0246761
0.045916
0.0709716
0.100421
0.134917
0.175193
0.222071
0.276474
0.339431
0.412088
0.49572
0.591735
0.70169
0.827289
0.970392
1.13301
1.31731
1.52555
1.7601
2.02334
2.31755
2.64481
3.00673
3.4042
3.83699
4.30321
4.79875
5.31662
5.84635
6.37364
6.88066
7.34694
7.75126
8.07389
8.29855
8.4138
-0.0709943
-0.0705004
-0.0694936
-0.0679314
-0.0657511
-0.0628676
-0.0591718
-0.0545288
-0.0487761
-0.0417206
-0.0331357
-0.0227579
-0.0102825
0.00464043
0.0224118
0.043489
0.0683924
0.0977127
0.132119
0.172368
0.219313
0.273917
0.337262
0.410563
0.495184
0.592649
0.704659
0.833107
0.98009
1.14792
1.33913
1.55646
1.80285
2.08138
2.39522
2.74745
3.14087
3.57771
4.05911
4.58452
5.15085
5.75143
6.37491
7.00445
7.61753
8.18714
8.6846
9.08323
9.3614
9.50423
-0.0707696
-0.0702915
-0.0693166
-0.0678033
-0.0656899
-0.0628927
-0.0593044
-0.0547922
-0.0491957
-0.0423244
-0.0339541
-0.0238237
-0.0116308
0.00297307
0.0203879
0.0410716
0.065547
0.0944095
0.128337
0.168099
0.21457
0.268741
0.331732
0.404816
0.489427
0.58719
0.699936
0.829729
0.978892
1.15003
1.34604
1.57017
1.82597
2.11731
2.44834
2.82337
3.24672
3.72238
4.25353
4.8418
5.48612
6.18123
6.91579
7.6705
8.417
9.11895
9.73646
10.2329
10.5796
10.7575
-0.0693536
-0.0688959
-0.0679625
-0.066513
-0.0644876
-0.0618051
-0.0583612
-0.0540269
-0.0486461
-0.042033
-0.033969
-0.0241987
-0.0124259
0.00169148
0.0185473
0.0385937
0.0623482
0.0904032
0.123435
0.162216
0.207626
0.260671
0.322496
0.394405
0.47789
0.574647
0.686614
0.816001
0.965327
1.13746
1.33567
1.56366
1.82562
2.12625
2.47078
2.86493
3.31481
3.82669
4.40655
5.05928
5.78737
6.58883
7.4542
8.36282
9.27942
10.1539
10.9283
11.5514
11.9857
12.2081
-0.0667774
-0.066345
-0.0654628
-0.0640923
-0.0621764
-0.0596374
-0.0563755
-0.0522671
-0.0471625
-0.0408833
-0.0332194
-0.0239247
-0.0127134
0.000745408
0.0168334
0.0359899
0.0587198
0.0856025
0.117302
0.154581
0.198311
0.249494
0.309278
0.378982
0.46012
0.554436
0.663938
0.790939
0.938115
1.10856
1.30584
1.53409
1.79811
2.10339
2.45629
2.86403
3.33476
3.87745
4.50166
5.21688
6.03121
6.94892
7.96618
9.06435
10.2015
11.3066
12.2896
13.0769
13.6219
13.8995
-0.0630904
-0.0626879
-0.0618666
-0.0605902
-0.0588052
-0.0564385
-0.0533961
-0.0495615
-0.0447937
-0.0389242
-0.0317542
-0.0230508
-0.0125431
8.36143e-05
0.0151928
0.033204
0.0546007
0.0799394
0.109861
0.145102
0.186512
0.235068
0.2919
0.358311
0.43581
0.526147
0.631356
0.753805
0.896263
1.06197
1.25473
1.47903
1.74014
2.0443
2.3989
2.81263
3.29575
3.86023
4.51982
5.2899
6.18665
7.22487
8.41304
9.74307
11.172
12.5983
13.8634
14.8618
15.5425
15.8858
-0.058359
-0.057991
-0.0572399
-0.0560724
-0.0544392
-0.0522728
-0.0494864
-0.0459725
-0.0416006
-0.0362148
-0.0296307
-0.0216324
-0.0119677
-0.000343878
0.0135784
0.0301916
0.049949
0.0733741
0.101071
0.133738
0.172183
0.217339
0.27029
0.332295
0.404821
0.48958
0.588578
0.704175
0.839156
0.996817
1.18108
1.39665
1.64913
1.94531
2.29341
2.7034
3.18745
3.76042
4.44048
5.24969
6.21447
7.36512
8.73267
10.3378
12.1602
14.0666
15.7196
16.9802
17.8165
18.2313
-0.0526654
-0.0523363
-0.0516643
-0.0506198
-0.0491582
-0.0472187
-0.0447233
-0.0415747
-0.0376552
-0.0328236
-0.0269135
-0.0197288
-0.011041
-0.000583875
0.0119515
0.0269231
0.0447455
0.0658986
0.0909382
0.120508
0.155356
0.19635
0.244503
0.300995
0.367211
0.444779
0.535618
0.642004
0.766646
0.912787
1.08433
1.28599
1.52353
1.804
2.13609
2.53063
3.00119
3.56494
4.24381
5.06614
6.06903
7.30144
8.82794
10.729
13.0783
15.8024
17.9822
19.5373
20.5264
21.0061
-0.0461069
-0.0458205
-0.0452358
-0.0443271
-0.0430554
-0.0413677
-0.0391955
-0.0364536
-0.0330387
-0.0288271
-0.0236725
-0.0174026
-0.00981614
-0.000678545
0.010283
0.023385
0.0389951
0.0575395
0.0795131
0.105491
0.136143
0.17225
0.214724
0.264639
0.323254
0.392061
0.472829
0.567672
0.679121
0.810238
0.964737
1.14717
1.36313
1.61958
1.92525
2.29118
2.73149
3.26448
3.91419
4.71292
5.70525
6.95521
8.56047
10.684
13.6338
18.0948
20.8824
22.6732
23.7585
24.2735
-0.0387936
-0.0385534
-0.038063
-0.0373016
-0.0362363
-0.0348225
-0.0330023
-0.0307042
-0.0278409
-0.0243081
-0.0199823
-0.014718
-0.00834494
-0.00066449
0.00855461
0.0195813
0.032728
0.0483581
0.0668942
0.0888288
0.114737
0.14529
0.181278
0.223629
0.273442
0.332021
0.400921
0.482011
0.577546
0.690266
0.823528
0.981472
1.16925
1.39333
1.6619
1.98545
2.37757
2.85606
3.44464
4.17552
5.09356
6.26363
7.785
9.82298
12.689
17.0715
19.7902
21.5255
22.572
23.067
-0.0308473
-0.0306562
-0.0302658
-0.0296614
-0.0288167
-0.0276957
-0.0262526
-0.02443
-0.0221586
-0.0193552
-0.0159212
-0.0117405
-0.00667729
-0.000572592
0.00675865
0.0155319
0.025998
0.0384489
0.0532249
0.0707232
0.0914084
0.115825
0.144615
0.178535
0.218483
0.265529
0.320956
0.38631
0.463468
0.554722
0.662898
0.791503
0.944932
1.12874
1.35002
1.6179
1.9443
2.34486
2.84038
3.4588
4.2379
5.22907
6.50144
8.14269
10.2364
12.721
14.6904
16.0759
16.9462
17.3648
-0.0223995
-0.0222608
-0.0219742
-0.0215349
-0.0209223
-0.0201098
-0.0190638
-0.0177426
-0.0160957
-0.0140626
-0.0115715
-0.00853796
-0.00486277
-0.00043015
0.004895
0.0112701
0.0188785
0.0279341
0.0386863
0.0514268
0.0664971
0.0842988
0.105305
0.130076
0.159278
0.193708
0.234321
0.282275
0.338982
0.40617
0.485981
0.581085
0.694844
0.831526
0.996604
1.19715
1.4424
1.74444
2.1192
2.58756
3.17655
3.91984
4.85568
6.01679
7.39984
8.89291
10.1817
11.1487
11.7794
12.0885
-0.0135888
-0.01351
-0.0133356
-0.0130689
-0.0126977
-0.0122055
-0.0115719
-0.0107716
-0.00977383
-0.00854192
-0.00703224
-0.00519342
-0.00296521
-0.000277156
0.00295297
0.00682103
0.0114388
0.0169367
0.023467
0.0312079
0.0403685
0.0511946
0.0639766
0.0790586
0.0968504
0.117843
0.142627
0.17192
0.206597
0.247734
0.296668
0.35507
0.425049
0.509295
0.611257
0.735406
0.887561
1.07532
1.30856
1.59998
1.96529
2.4226
2.98929
3.6737
4.45808
5.27403
5.99957
6.56291
6.9393
7.12621
-0.00455519
-0.00453218
-0.00447471
-0.00438556
-0.00426127
-0.0040965
-0.00388441
-0.00361651
-0.00328251
-0.00287009
-0.00236462
-0.00174889
-0.00100268
-0.000102354
0.000979687
0.00227563
0.00382302
0.00566568
0.0078548
0.0104503
0.0135226
0.0171545
0.0214438
0.0265066
0.0324812
0.0395335
0.0478635
0.0577138
0.0693813
0.0832314
0.0997182
0.119411
0.143029
0.171489
0.205971
0.248001
0.299567
0.363252
0.442395
0.541224
0.664852
0.818882
1.00813
1.23369
1.48784
1.74869
1.98284
2.16726
2.29188
2.35418
)
;

boundaryField
{
    walls
    {
        type            calculated;
        value           nonuniform List<scalar> 
200
(
0
0
0
0
0
0
0
0
0
0
0
0
0
0
0
0
0
0
0
0
0
0
0
0
0
0
0
0
0
0
0
0
0
0
0
0
0
0
0
0
0
0
0
0
0
0
0
0
0
0
0.00543806
0.0162201
0.0267543
0.0368917
0.0464686
0.0553404
0.0633737
0.0704486
0.0764602
0.0813208
0.0849608
0.0873301
0.0883987
0.0881572
0.086617
0.0838097
0.079787
0.0746195
0.0683955
0.0612196
0.0532111
0.0445015
0.0352328
0.0255551
0.0156239
0.00559767
-0.00436461
-0.0141061
-0.0234747
-0.0323252
-0.0405218
-0.04794
-0.0544687
-0.0600116
-0.0644889
-0.0678381
-0.070015
-0.0709943
-0.0707696
-0.0693536
-0.0667774
-0.0630904
-0.058359
-0.0526654
-0.0461069
-0.0387936
-0.0308473
-0.0223995
-0.0135888
-0.00455519
0.013054
0.0392962
0.0659546
0.09333
0.121742
0.151543
0.18313
0.216949
0.253509
0.293388
0.33724
0.385809
0.439928
0.500533
0.568671
0.645502
0.732313
0.83052
0.941684
1.06751
1.20988
1.37083
1.55261
1.75767
1.98871
2.24872
2.541
2.86925
3.23763
3.65089
4.11449
4.63481
5.21939
5.87725
6.61937
7.45927
8.4138
9.50423
10.7575
12.2081
13.8995
15.8858
18.2313
21.0061
24.2735
23.067
17.3648
12.0885
7.12621
2.35418
0
0
0
0
0
0
0
0
0
0
0
0
0
0
0
0
0
0
0
0
0
0
0
0
0
0
0
0
0
0
0
0
0
0
0
0
0
0
0
0
0
0
0
0
0
0
0
0
0
0
)
;
    }
    frontAndBack
    {
        type            empty;
    }
}


// ************************************************************************* //
