/*--------------------------------*- C++ -*----------------------------------*\
| =========                 |                                                 |
| \\      /  F ield         | OpenFOAM: The Open Source CFD Toolbox           |
|  \\    /   O peration     | Version:  2406                                  |
|   \\  /    A nd           | Website:  www.openfoam.com                      |
|    \\/     M anipulation  |                                                 |
\*---------------------------------------------------------------------------*/
FoamFile
{
    version     2.0;
    format      ascii;
    arch        "LSB;label=32;scalar=64";
    class       volScalarField;
    location    "0.75";
    object      T;
}
// * * * * * * * * * * * * * * * * * * * * * * * * * * * * * * * * * * * * * //

dimensions      [0 0 0 1 0 0 0];

internalField   nonuniform List<scalar> 
2500
(
0.165503
0.16572
0.166152
0.166791
0.167627
0.168649
0.169841
0.171184
0.172659
0.174243
0.175912
0.177641
0.179405
0.181177
0.182931
0.184642
0.186284
0.187833
0.189268
0.190569
0.191717
0.192698
0.193497
0.194107
0.19452
0.194732
0.194743
0.194557
0.194179
0.193618
0.192886
0.191997
0.190969
0.189819
0.188568
0.187239
0.185855
0.184438
0.183015
0.181608
0.180241
0.178937
0.177717
0.176602
0.17561
0.174758
0.174059
0.173524
0.173163
0.17298
0.16572
0.165938
0.16637
0.16701
0.167849
0.168873
0.170067
0.171413
0.17289
0.174477
0.17615
0.177883
0.179652
0.181428
0.183187
0.184903
0.186551
0.188106
0.189547
0.190855
0.19201
0.192997
0.193804
0.194421
0.194842
0.195063
0.195083
0.194906
0.194537
0.193986
0.193264
0.192385
0.191366
0.190227
0.188986
0.187668
0.186293
0.184887
0.183473
0.182076
0.180717
0.179422
0.17821
0.177102
0.176117
0.175269
0.174574
0.174043
0.173684
0.173503
0.166152
0.16637
0.166804
0.167446
0.168288
0.169316
0.170514
0.171865
0.173349
0.174943
0.176623
0.178364
0.180141
0.181927
0.183696
0.185423
0.187081
0.188649
0.190102
0.191423
0.192591
0.193593
0.194415
0.195048
0.195485
0.195723
0.195761
0.195602
0.195252
0.19472
0.194018
0.193159
0.192162
0.191043
0.189824
0.188526
0.187172
0.185787
0.184393
0.183014
0.181674
0.180395
0.179199
0.178106
0.177133
0.176296
0.17561
0.175086
0.174731
0.174552
0.166791
0.16701
0.167446
0.168092
0.168938
0.169972
0.171177
0.172537
0.174029
0.175633
0.177324
0.179078
0.180868
0.182668
0.184452
0.186194
0.18787
0.189455
0.190927
0.192268
0.193457
0.194481
0.195326
0.195983
0.196445
0.196709
0.196774
0.196643
0.196322
0.19582
0.195149
0.194322
0.193356
0.192269
0.191082
0.189817
0.188496
0.187142
0.185779
0.18443
0.183118
0.181866
0.180695
0.179623
0.17867
0.17785
0.177178
0.176664
0.176316
0.176141
0.167627
0.167849
0.168288
0.168938
0.169791
0.170832
0.172046
0.173416
0.174921
0.176538
0.178244
0.180014
0.181821
0.18364
0.185444
0.187208
0.188906
0.190516
0.192014
0.193381
0.194599
0.195652
0.196529
0.197218
0.197715
0.198014
0.198117
0.198025
0.197744
0.197284
0.196655
0.195871
0.19495
0.193908
0.192767
0.191547
0.19027
0.188961
0.18764
0.186333
0.185061
0.183846
0.182709
0.181668
0.180742
0.179946
0.179293
0.178793
0.178456
0.178286
0.168649
0.168873
0.169316
0.169972
0.170832
0.171883
0.173108
0.174491
0.176011
0.177645
0.17937
0.181159
0.182989
0.184831
0.186661
0.188452
0.190179
0.191819
0.19335
0.194752
0.196006
0.197098
0.198015
0.198747
0.199288
0.199634
0.199785
0.199743
0.199515
0.199109
0.198536
0.197809
0.196946
0.195964
0.194882
0.193722
0.192505
0.191253
0.18999
0.188738
0.187518
0.186352
0.18526
0.184261
0.183372
0.182607
0.181979
0.181499
0.181174
0.181011
0.169841
0.170067
0.170514
0.171177
0.172046
0.173108
0.174348
0.175747
0.177284
0.178938
0.180685
0.182499
0.184355
0.186227
0.188087
0.189911
0.191674
0.193352
0.194923
0.196367
0.197666
0.198805
0.199772
0.200557
0.201154
0.201558
0.201771
0.201793
0.201631
0.201293
0.200791
0.200138
0.199349
0.198442
0.197437
0.196353
0.195211
0.194035
0.192845
0.191663
0.19051
0.189408
0.188374
0.187428
0.186585
0.18586
0.185265
0.18481
0.184503
0.184347
0.171184
0.171413
0.171865
0.172537
0.173416
0.174491
0.175747
0.177164
0.178722
0.1804
0.182173
0.184016
0.185903
0.187808
0.189705
0.191569
0.193374
0.195097
0.196715
0.198211
0.199564
0.200761
0.20179
0.202639
0.203304
0.20378
0.204067
0.204168
0.204088
0.203836
0.203422
0.202859
0.202163
0.20135
0.20044
0.199452
0.198406
0.197323
0.196225
0.195131
0.194064
0.193041
0.192081
0.191202
0.190418
0.189744
0.18919
0.188767
0.18848
0.188336
0.172659
0.17289
0.173349
0.174029
0.174921
0.176011
0.177284
0.178722
0.180305
0.182009
0.183812
0.185688
0.187611
0.189556
0.191496
0.193405
0.195259
0.197035
0.198711
0.200267
0.201685
0.202951
0.204052
0.20498
0.205726
0.206289
0.206668
0.206864
0.206885
0.206736
0.20643
0.205978
0.205396
0.2047
0.203907
0.203037
0.202109
0.201142
0.200158
0.199175
0.198212
0.197288
0.19642
0.195624
0.194914
0.194303
0.1938
0.193416
0.193157
0.193025
0.174243
0.174477
0.174943
0.175633
0.176538
0.177645
0.178938
0.1804
0.182009
0.183744
0.185581
0.187494
0.189459
0.191448
0.193437
0.195399
0.197311
0.199148
0.20089
0.202517
0.204011
0.205358
0.206546
0.207566
0.208411
0.209077
0.209565
0.209877
0.210018
0.209995
0.209819
0.209503
0.209059
0.208505
0.207856
0.20713
0.206346
0.205522
0.204677
0.203829
0.202996
0.202194
0.201439
0.200745
0.200126
0.199592
0.199153
0.198818
0.198591
0.198476
0.175912
0.17615
0.176623
0.177324
0.178244
0.17937
0.180685
0.182173
0.183812
0.185581
0.187456
0.189411
0.191422
0.193462
0.195506
0.197529
0.199506
0.201414
0.203232
0.204941
0.206524
0.207967
0.209256
0.210385
0.211345
0.212135
0.212753
0.213202
0.213487
0.213615
0.213597
0.213443
0.213167
0.212783
0.212308
0.211757
0.211148
0.210498
0.209823
0.20914
0.208464
0.207811
0.207194
0.206626
0.206117
0.205679
0.205318
0.205042
0.204855
0.204761
0.177641
0.177883
0.178364
0.179078
0.180014
0.181159
0.182499
0.184016
0.185688
0.187494
0.189411
0.191414
0.193476
0.195574
0.19768
0.199771
0.201822
0.203811
0.205717
0.207521
0.209207
0.21076
0.212168
0.213424
0.21452
0.215454
0.216226
0.216838
0.217295
0.217603
0.217772
0.217813
0.217737
0.217559
0.217293
0.216953
0.216555
0.216114
0.215645
0.215161
0.214677
0.214204
0.213755
0.213339
0.212966
0.212643
0.212377
0.212173
0.212036
0.211966
0.179405
0.179652
0.180141
0.180868
0.181821
0.182989
0.184355
0.185903
0.187611
0.189459
0.191422
0.193476
0.195596
0.197757
0.199934
0.202102
0.204238
0.206319
0.208325
0.210237
0.212041
0.213721
0.215267
0.216671
0.217926
0.21903
0.219983
0.220786
0.221445
0.221966
0.222358
0.22263
0.222793
0.222861
0.222844
0.222758
0.222613
0.222424
0.222202
0.221959
0.221705
0.22145
0.221203
0.220971
0.220761
0.220579
0.220428
0.220312
0.220233
0.220193
0.181177
0.181428
0.181927
0.182668
0.18364
0.184831
0.186227
0.187808
0.189556
0.191448
0.193462
0.195574
0.197757
0.199989
0.202244
0.204498
0.206728
0.208913
0.211033
0.21307
0.215008
0.216835
0.21854
0.220115
0.221555
0.222857
0.224021
0.225049
0.225946
0.226718
0.227372
0.227918
0.228365
0.228724
0.229005
0.229219
0.229377
0.229489
0.229563
0.229608
0.229631
0.229638
0.229634
0.229624
0.229611
0.229597
0.229584
0.229574
0.229567
0.229563
0.182931
0.183187
0.183696
0.184452
0.185444
0.186661
0.188087
0.189705
0.191496
0.193437
0.195506
0.19768
0.199934
0.202244
0.204586
0.206936
0.209273
0.211575
0.213823
0.216001
0.218093
0.220088
0.221975
0.223748
0.225401
0.226933
0.228343
0.229633
0.230809
0.231874
0.232837
0.233705
0.234487
0.23519
0.235824
0.236396
0.236913
0.237383
0.23781
0.238198
0.238551
0.238871
0.239159
0.239415
0.239637
0.239826
0.239979
0.240096
0.240175
0.240214
0.184642
0.184903
0.185423
0.186194
0.187208
0.188452
0.189911
0.191569
0.193405
0.195399
0.197529
0.199771
0.202102
0.204498
0.206936
0.209394
0.211849
0.214282
0.216676
0.219013
0.22128
0.223467
0.225563
0.227562
0.229461
0.231258
0.232953
0.234548
0.236048
0.237457
0.238781
0.240027
0.241201
0.24231
0.243359
0.244353
0.245296
0.24619
0.247036
0.247833
0.248579
0.249272
0.249908
0.25048
0.250985
0.251416
0.251768
0.252037
0.252219
0.25231
0.186284
0.186551
0.187081
0.18787
0.188906
0.190179
0.191674
0.193374
0.195259
0.197311
0.199506
0.201822
0.204238
0.206728
0.209273
0.211849
0.214437
0.217017
0.219573
0.22209
0.224556
0.22696
0.229294
0.231553
0.233734
0.235836
0.23786
0.239807
0.241683
0.243491
0.245236
0.246923
0.248557
0.250142
0.251679
0.25317
0.254614
0.256009
0.25735
0.25863
0.259843
0.260979
0.262027
0.262977
0.263817
0.264537
0.265126
0.265577
0.265882
0.266034
0.187833
0.188106
0.188649
0.189455
0.190516
0.191819
0.193352
0.195097
0.197035
0.199148
0.201414
0.203811
0.206319
0.208913
0.211575
0.214282
0.217017
0.219761
0.2225
0.225219
0.227909
0.230559
0.233163
0.235719
0.238222
0.240674
0.243075
0.245429
0.247738
0.250008
0.252242
0.254442
0.256612
0.258751
0.260859
0.262933
0.264966
0.26695
0.268874
0.270726
0.27249
0.27415
0.275688
0.277085
0.278324
0.279387
0.280258
0.280925
0.281376
0.281602
0.189268
0.189547
0.190102
0.190927
0.192014
0.19335
0.194923
0.196715
0.198711
0.20089
0.203232
0.205717
0.208325
0.211033
0.213823
0.216676
0.219573
0.2225
0.225442
0.228388
0.231329
0.234257
0.237168
0.240059
0.242929
0.24578
0.248614
0.251433
0.254243
0.257045
0.259843
0.262638
0.265429
0.268215
0.270988
0.273742
0.276464
0.279139
0.281749
0.284272
0.286686
0.288964
0.29108
0.293007
0.294718
0.296188
0.297394
0.298317
0.298941
0.299255
0.190569
0.190855
0.191423
0.192268
0.193381
0.194752
0.196367
0.198211
0.200267
0.202517
0.204941
0.207521
0.210237
0.21307
0.216001
0.219013
0.22209
0.225219
0.228388
0.231588
0.23481
0.238051
0.241306
0.244577
0.247864
0.251168
0.254495
0.257847
0.261229
0.264643
0.268091
0.271571
0.275082
0.278616
0.282163
0.285708
0.289233
0.292716
0.296128
0.29944
0.302617
0.305623
0.308421
0.310973
0.313241
0.315192
0.316794
0.318021
0.318851
0.319269
0.191717
0.19201
0.192591
0.193457
0.194599
0.196006
0.197666
0.199564
0.201685
0.204011
0.206524
0.209207
0.212041
0.215008
0.218093
0.22128
0.224556
0.227909
0.231329
0.23481
0.238347
0.241937
0.245581
0.249279
0.253036
0.256855
0.260741
0.2647
0.268734
0.272848
0.277041
0.28131
0.285649
0.290048
0.29449
0.298954
0.303413
0.307836
0.312186
0.316419
0.320491
0.324352
0.327951
0.331239
0.334166
0.336685
0.338755
0.340341
0.341415
0.341956
0.192698
0.192997
0.193593
0.194481
0.195652
0.197098
0.198805
0.200761
0.202951
0.205358
0.207967
0.21076
0.213721
0.216835
0.220088
0.223467
0.22696
0.230559
0.234257
0.238051
0.241937
0.245918
0.249995
0.254174
0.258459
0.262858
0.267377
0.272023
0.2768
0.281711
0.286755
0.291927
0.297218
0.302611
0.308086
0.313612
0.319155
0.324671
0.330111
0.335421
0.340538
0.3454
0.349941
0.354094
0.357795
0.360984
0.363607
0.365617
0.366978
0.367665
0.193497
0.193804
0.194415
0.195326
0.196529
0.198015
0.199772
0.20179
0.204052
0.206546
0.209256
0.212168
0.215267
0.21854
0.221975
0.225563
0.229294
0.233163
0.237168
0.241306
0.245581
0.249995
0.254556
0.25927
0.264148
0.269198
0.274431
0.279852
0.28547
0.291286
0.297299
0.303501
0.30988
0.316415
0.323076
0.329827
0.336622
0.343404
0.350112
0.356674
0.363012
0.369045
0.374688
0.379856
0.384468
0.388445
0.391719
0.39423
0.395931
0.396789
0.194107
0.194421
0.195048
0.195983
0.197218
0.198747
0.200557
0.202639
0.20498
0.207566
0.210385
0.213424
0.216671
0.220115
0.223748
0.227562
0.231553
0.235719
0.240059
0.244577
0.249279
0.254174
0.25927
0.264582
0.27012
0.275899
0.28193
0.288225
0.29479
0.301629
0.30874
0.316114
0.323733
0.331572
0.339594
0.347752
0.355989
0.364236
0.372412
0.380429
0.388188
0.395588
0.402521
0.40888
0.41456
0.419465
0.423506
0.426607
0.428709
0.429769
0.19452
0.194842
0.195485
0.196445
0.197715
0.199288
0.201154
0.203304
0.205726
0.208411
0.211345
0.21452
0.217926
0.221555
0.225401
0.229461
0.233734
0.238222
0.242929
0.247864
0.253036
0.258459
0.264148
0.27012
0.276393
0.282983
0.289907
0.297178
0.304807
0.312798
0.321149
0.329848
0.338876
0.3482
0.357777
0.367549
0.377444
0.387378
0.397251
0.406955
0.416367
0.425359
0.433799
0.441552
0.448488
0.454482
0.459425
0.463222
0.465797
0.467096
0.194732
0.195063
0.195723
0.196709
0.198014
0.199634
0.201558
0.20378
0.206289
0.209077
0.212135
0.215454
0.21903
0.222857
0.226933
0.231258
0.235836
0.240674
0.24578
0.251168
0.256855
0.262858
0.269198
0.275899
0.282983
0.290472
0.298388
0.306749
0.315567
0.324849
0.334594
0.344789
0.355411
0.366421
0.377768
0.389383
0.401178
0.413052
0.424884
0.43654
0.44787
0.458717
0.468916
0.4783
0.486707
0.493983
0.499988
0.504604
0.507736
0.509317
0.194743
0.195083
0.195761
0.196774
0.198117
0.199785
0.201771
0.204067
0.206668
0.209565
0.212753
0.216226
0.219983
0.224021
0.228343
0.232953
0.23786
0.243075
0.248614
0.254495
0.260741
0.267377
0.274431
0.28193
0.289907
0.298388
0.307402
0.316971
0.327112
0.337836
0.349142
0.361017
0.373435
0.386353
0.399709
0.413423
0.427391
0.44149
0.455577
0.469488
0.483042
0.496045
0.508296
0.519588
0.52972
0.538501
0.545757
0.55134
0.55513
0.557045
0.194557
0.194906
0.195602
0.196643
0.198025
0.199743
0.201793
0.204168
0.206864
0.209877
0.213202
0.216838
0.220786
0.225049
0.229633
0.234548
0.239807
0.245429
0.251433
0.257847
0.2647
0.272023
0.279852
0.288225
0.297178
0.306749
0.316971
0.327874
0.339481
0.351806
0.364853
0.378608
0.393043
0.40811
0.423739
0.439836
0.456281
0.472928
0.489605
0.506117
0.522245
0.537754
0.552397
0.565921
0.578078
0.588628
0.597358
0.604081
0.608649
0.610958
0.194179
0.194537
0.195252
0.196322
0.197744
0.199515
0.201631
0.204088
0.206885
0.210018
0.213487
0.217295
0.221445
0.225946
0.230809
0.236048
0.241683
0.247738
0.254243
0.261229
0.268734
0.2768
0.28547
0.29479
0.304807
0.315567
0.327112
0.339481
0.352704
0.366801
0.381778
0.397628
0.414318
0.431799
0.44999
0.468785
0.488045
0.507601
0.527249
0.546756
0.565862
0.584281
0.601712
0.617847
0.632378
0.645012
0.65548
0.663551
0.669039
0.671815
0.193618
0.193986
0.19472
0.19582
0.197284
0.199109
0.201293
0.203836
0.206736
0.209995
0.213615
0.217603
0.221966
0.226718
0.231874
0.237457
0.243491
0.250008
0.257045
0.264643
0.272848
0.281711
0.291286
0.301629
0.312798
0.324849
0.337836
0.351806
0.366801
0.382847
0.399958
0.418129
0.437332
0.45751
0.478579
0.500418
0.52287
0.545739
0.568787
0.59174
0.614286
0.636082
0.656764
0.675955
0.693276
0.708364
0.720887
0.730553
0.737133
0.740463
0.192886
0.193264
0.194018
0.195149
0.196655
0.198536
0.200791
0.203422
0.20643
0.209819
0.213597
0.217772
0.222358
0.227372
0.232837
0.238781
0.245236
0.252242
0.259843
0.268091
0.277041
0.286755
0.297299
0.30874
0.321149
0.334594
0.349142
0.364853
0.381778
0.399958
0.419414
0.440147
0.462133
0.485316
0.509605
0.534867
0.560927
0.587559
0.614492
0.641401
0.667919
0.693634
0.718108
0.740878
0.761481
0.779467
0.794422
0.805983
0.813861
0.81785
0.191997
0.192385
0.193159
0.194322
0.195871
0.197809
0.200138
0.202859
0.205978
0.209503
0.213443
0.217813
0.22263
0.227918
0.233705
0.240027
0.246923
0.254442
0.262638
0.271571
0.28131
0.291927
0.303501
0.316114
0.329848
0.344789
0.361017
0.378608
0.397628
0.418129
0.440147
0.463693
0.488749
0.515262
0.543137
0.572234
0.602358
0.633256
0.664616
0.696063
0.727163
0.757427
0.786324
0.813293
0.837763
0.859179
0.877022
0.890839
0.900266
0.905042
0.190969
0.191366
0.192162
0.193356
0.19495
0.196946
0.199349
0.202163
0.205396
0.209059
0.213167
0.217737
0.222793
0.228365
0.234487
0.241201
0.248557
0.256612
0.265429
0.275082
0.285649
0.297218
0.30988
0.323733
0.338876
0.355411
0.373435
0.393043
0.414318
0.437332
0.462133
0.488749
0.517172
0.547357
0.579211
0.612586
0.647272
0.68299
0.719386
0.756029
0.792411
0.827953
0.862016
0.893918
0.922957
0.948443
0.969727
0.98624
0.997521
1.00324
0.189819
0.190227
0.191043
0.192269
0.193908
0.195964
0.198442
0.20135
0.2047
0.208505
0.212783
0.217559
0.222861
0.228724
0.23519
0.24231
0.250142
0.258751
0.268215
0.278616
0.290048
0.302611
0.316415
0.331572
0.3482
0.366421
0.386353
0.40811
0.431799
0.45751
0.485316
0.515262
0.547357
0.581569
0.617813
0.655939
0.695727
0.736872
0.778982
0.821565
0.864032
0.9057
0.945804
0.983513
1.01796
1.0483
1.0737
1.09345
1.10696
1.11382
0.188568
0.188986
0.189824
0.191082
0.192767
0.194882
0.197437
0.20044
0.203907
0.207856
0.212308
0.217293
0.222844
0.229005
0.235824
0.243359
0.251679
0.260859
0.270988
0.282163
0.29449
0.308086
0.323076
0.339594
0.357777
0.377768
0.399709
0.423739
0.44999
0.478579
0.509605
0.543137
0.579211
0.617813
0.658872
0.702247
0.747714
0.794949
0.843523
0.892883
0.942354
0.991135
1.03831
1.08287
1.12375
1.15988
1.19023
1.21388
1.23009
1.23833
0.187239
0.187668
0.188526
0.189817
0.191547
0.193722
0.196353
0.199452
0.203037
0.20713
0.211757
0.216953
0.222758
0.229219
0.236396
0.244353
0.25317
0.262933
0.273742
0.285708
0.298954
0.313612
0.329827
0.347752
0.367549
0.389383
0.413423
0.439836
0.468785
0.500418
0.534867
0.572234
0.612586
0.655939
0.702247
0.751388
0.803142
0.85718
0.91304
0.970115
1.02764
1.08468
1.14014
1.19281
1.24137
1.28446
1.32079
1.34918
1.36867
1.37859
0.185855
0.186293
0.187172
0.188496
0.19027
0.192505
0.195211
0.198406
0.202109
0.206346
0.211148
0.216555
0.222613
0.229377
0.236913
0.245296
0.254614
0.264966
0.276464
0.289233
0.303413
0.319155
0.336622
0.355989
0.377444
0.401178
0.427391
0.456281
0.488045
0.52287
0.560927
0.602358
0.647272
0.695727
0.747714
0.803142
0.861816
0.923412
0.987451
1.05328
1.12004
1.18667
1.25187
1.31417
1.37192
1.42343
1.46702
1.5012
1.52472
1.5367
0.184438
0.184887
0.185787
0.187142
0.188961
0.191253
0.194035
0.197323
0.201142
0.205522
0.210498
0.216114
0.222424
0.229489
0.237383
0.24619
0.256009
0.26695
0.279139
0.292716
0.307836
0.324671
0.343404
0.364236
0.387378
0.413052
0.44149
0.472928
0.507601
0.545739
0.587559
0.633256
0.68299
0.736872
0.794949
0.85718
0.923412
0.993348
1.06652
1.14224
1.21959
1.29734
1.374
1.44776
1.51659
1.57834
1.63084
1.67213
1.70061
1.71514
0.183015
0.183473
0.184393
0.185779
0.18764
0.18999
0.192845
0.196225
0.200158
0.204677
0.209823
0.215645
0.222202
0.229563
0.23781
0.247036
0.25735
0.268874
0.281749
0.296128
0.312186
0.330111
0.350112
0.372412
0.397251
0.424884
0.455577
0.489605
0.527249
0.568787
0.614492
0.664616
0.719386
0.778982
0.843523
0.91304
0.987451
1.06652
1.14982
1.23666
1.32608
1.41673
1.50687
1.59435
1.67662
1.75091
1.81441
1.86453
1.89918
1.91687
0.181608
0.182076
0.183014
0.18443
0.186333
0.188738
0.191663
0.195131
0.199175
0.203829
0.20914
0.215161
0.221959
0.229608
0.238198
0.247833
0.25863
0.270726
0.284272
0.29944
0.316419
0.335421
0.356674
0.380429
0.406955
0.43654
0.469488
0.506117
0.546756
0.59174
0.641401
0.696063
0.756029
0.821565
0.892883
0.970115
1.05328
1.14224
1.23666
1.33592
1.43903
1.54459
1.65063
1.75458
1.85327
1.9431
2.02029
2.08145
2.1238
2.14545
0.180241
0.180717
0.181674
0.183118
0.185061
0.187518
0.19051
0.194064
0.198212
0.202996
0.208464
0.214677
0.221705
0.229631
0.238551
0.248579
0.259843
0.27249
0.286686
0.302617
0.320491
0.340538
0.363012
0.388188
0.416367
0.44787
0.483042
0.522245
0.565862
0.614286
0.667919
0.727163
0.792411
0.864032
0.942354
1.02764
1.12004
1.21959
1.32608
1.43903
1.55757
1.68028
1.80504
1.92886
2.0478
2.15707
2.25154
2.32659
2.3786
2.4052
0.178937
0.179422
0.180395
0.181866
0.183846
0.186352
0.189408
0.193041
0.197288
0.202194
0.207811
0.214204
0.22145
0.229638
0.238871
0.249272
0.260979
0.27415
0.288964
0.305623
0.324352
0.3454
0.369045
0.395588
0.425359
0.458717
0.496045
0.537754
0.584281
0.636082
0.693634
0.757427
0.827953
0.9057
0.991135
1.08468
1.18667
1.29734
1.41673
1.54459
1.68028
1.82255
1.96928
2.11715
2.26133
2.39536
2.51188
2.60452
2.66867
2.70143
0.177717
0.17821
0.179199
0.180695
0.182709
0.18526
0.188374
0.192081
0.19642
0.201439
0.207194
0.213755
0.221203
0.229634
0.239159
0.249908
0.262027
0.275688
0.29108
0.308421
0.327951
0.349941
0.374688
0.402521
0.433799
0.468916
0.508296
0.552397
0.601712
0.656764
0.718108
0.786324
0.862016
0.945804
1.03831
1.14014
1.25187
1.374
1.50687
1.65063
1.80504
1.96928
2.14156
2.31858
2.49468
2.661
2.80608
2.92106
3.0003
3.04063
0.176602
0.177102
0.178106
0.179623
0.181668
0.184261
0.187428
0.191202
0.195624
0.200745
0.206626
0.213339
0.220971
0.229624
0.239415
0.25048
0.262977
0.277085
0.293007
0.310973
0.331239
0.354094
0.379856
0.40888
0.441552
0.4783
0.519588
0.565921
0.617847
0.675955
0.740878
0.813293
0.893918
0.983513
1.08287
1.19281
1.31417
1.44776
1.59435
1.75458
1.92886
2.11715
2.31858
2.53067
2.74774
2.95802
3.14066
3.28373
3.38133
3.43068
0.17561
0.176117
0.177133
0.17867
0.180742
0.183372
0.186585
0.190418
0.194914
0.200126
0.206117
0.212966
0.220761
0.229611
0.239637
0.250985
0.263817
0.278324
0.294718
0.313241
0.334166
0.357795
0.384468
0.41456
0.448488
0.486707
0.52972
0.578078
0.632378
0.693276
0.761481
0.837763
0.922957
1.01796
1.12375
1.24137
1.37192
1.51659
1.67662
1.85327
2.0478
2.26133
2.49468
2.74774
3.01781
3.2931
3.52537
3.70255
3.82136
3.88087
0.174758
0.175269
0.176296
0.17785
0.179946
0.182607
0.18586
0.189744
0.194303
0.199592
0.205679
0.212643
0.220579
0.229597
0.239826
0.251416
0.264537
0.279387
0.296188
0.315192
0.336685
0.360984
0.388445
0.419465
0.454482
0.493983
0.538501
0.588628
0.645012
0.708364
0.779467
0.859179
0.948443
1.0483
1.15988
1.28446
1.42343
1.57834
1.75091
1.9431
2.15707
2.39536
2.661
2.95802
3.2931
3.68182
3.97596
4.19066
4.33167
4.40162
0.174059
0.174574
0.17561
0.177178
0.179293
0.181979
0.185265
0.18919
0.1938
0.199153
0.205318
0.212377
0.220428
0.229584
0.239979
0.251768
0.265126
0.280258
0.297394
0.316794
0.338755
0.363607
0.391719
0.423506
0.459425
0.499988
0.545757
0.597358
0.65548
0.720887
0.794422
0.877022
0.969727
1.0737
1.19023
1.32079
1.46702
1.63084
1.81441
2.02029
2.25154
2.51188
2.80608
3.14066
3.52537
3.97596
4.31697
4.56357
4.72424
4.80355
0.173524
0.174043
0.175086
0.176664
0.178793
0.181499
0.18481
0.188767
0.193416
0.198818
0.205042
0.212173
0.220312
0.229574
0.240096
0.252037
0.265577
0.280925
0.298317
0.318021
0.340341
0.365617
0.39423
0.426607
0.463222
0.504604
0.55134
0.604081
0.663551
0.730553
0.805983
0.890839
0.98624
1.09345
1.21388
1.34918
1.5012
1.67213
1.86453
2.08145
2.32659
2.60452
2.92106
3.28373
3.70255
4.19066
4.56357
4.83369
5.00952
5.09621
0.173163
0.173684
0.174731
0.176316
0.178456
0.181174
0.184503
0.18848
0.193157
0.198591
0.204855
0.212036
0.220233
0.229567
0.240175
0.252219
0.265882
0.281376
0.298941
0.318851
0.341415
0.366978
0.395931
0.428709
0.465797
0.507736
0.55513
0.608649
0.669039
0.737133
0.813861
0.900266
0.997521
1.10696
1.23009
1.36867
1.52472
1.70061
1.89918
2.1238
2.3786
2.66867
3.0003
3.38133
3.82136
4.33167
4.72424
5.00952
5.19542
5.28709
0.17298
0.173503
0.174552
0.176141
0.178286
0.181011
0.184347
0.188336
0.193025
0.198476
0.204761
0.211966
0.220193
0.229563
0.240214
0.25231
0.266034
0.281602
0.299255
0.319269
0.341956
0.367665
0.396789
0.429769
0.467096
0.509317
0.557045
0.610958
0.671815
0.740463
0.81785
0.905042
1.00324
1.11382
1.23833
1.37859
1.5367
1.71514
1.91687
2.14545
2.4052
2.70143
3.04063
3.43068
3.88087
4.40162
4.80355
5.09621
5.28709
5.38126
)
;

boundaryField
{
    walls
    {
        type            zeroGradient;
    }
    frontAndBack
    {
        type            empty;
    }
}


// ************************************************************************* //
