/*--------------------------------*- C++ -*----------------------------------*\
| =========                 |                                                 |
| \\      /  F ield         | OpenFOAM: The Open Source CFD Toolbox           |
|  \\    /   O peration     | Version:  2406                                  |
|   \\  /    A nd           | Website:  www.openfoam.com                      |
|    \\/     M anipulation  |                                                 |
\*---------------------------------------------------------------------------*/
FoamFile
{
    version     2.0;
    format      ascii;
    arch        "LSB;label=32;scalar=64";
    class       volVectorField;
    location    "0.25";
    object      flux;
}
// * * * * * * * * * * * * * * * * * * * * * * * * * * * * * * * * * * * * * //

dimensions      [0 1 -1 1 0 0 0];

internalField   nonuniform List<vector> 
2500
(
(0.00185025 0.00185025 0)
(0.00552836 0.00188139 0)
(0.00913922 0.00194336 0)
(0.0126379 0.00203528 0)
(0.0159792 0.0021559 0)
(0.0191176 0.00230358 0)
(0.0220077 0.00247624 0)
(0.0246045 0.00267148 0)
(0.0268645 0.00288647 0)
(0.0287461 0.0031181 0)
(0.0302108 0.00336293 0)
(0.0312245 0.00361724 0)
(0.0317587 0.00387714 0)
(0.0317914 0.00413854 0)
(0.031309 0.00439727 0)
(0.0303067 0.00464914 0)
(0.0287894 0.00489002 0)
(0.0267728 0.00511587 0)
(0.0242832 0.00532289 0)
(0.0213575 0.00550753 0)
(0.0180427 0.00566662 0)
(0.0143954 0.00579738 0)
(0.0104803 0.00589753 0)
(0.00636874 0.0059653 0)
(0.00213733 0.00599949 0)
(-0.00213443 0.00599951 0)
(-0.00636592 0.00596534 0)
(-0.0104776 0.0058976 0)
(-0.0143929 0.00579748 0)
(-0.0180405 0.00566674 0)
(-0.0213556 0.00550768 0)
(-0.0242817 0.00532306 0)
(-0.0267717 0.00511606 0)
(-0.0287887 0.00489022 0)
(-0.0303063 0.00464936 0)
(-0.0313091 0.0043975 0)
(-0.0317919 0.00413878 0)
(-0.0317594 0.00387739 0)
(-0.0312256 0.0036175 0)
(-0.0302121 0.00336319 0)
(-0.0287476 0.00311837 0)
(-0.0268661 0.00288674 0)
(-0.0246061 0.00267174 0)
(-0.0220093 0.00247651 0)
(-0.0191191 0.00230384 0)
(-0.0159806 0.00215617 0)
(-0.0126391 0.00203555 0)
(-0.00914001 0.00194362 0)
(-0.00552877 0.00188164 0)
(-0.00185037 0.00185045 0)
(0.00188139 0.00552836 0)
(0.00562147 0.00562147 0)
(0.00929311 0.00580655 0)
(0.0128505 0.00608109 0)
(0.0162475 0.00644134 0)
(0.019438 0.00688237 0)
(0.0223756 0.00739804 0)
(0.0250148 0.00798109 0)
(0.0273111 0.00862315 0)
(0.0292225 0.00931488 0)
(0.0307099 0.010046 0)
(0.0317387 0.0108054 0)
(0.03228 0.0115815 0)
(0.0323116 0.0123621 0)
(0.0318196 0.0131347 0)
(0.0307994 0.0138868 0)
(0.0292561 0.014606 0)
(0.0272057 0.0152804 0)
(0.0246749 0.0158985 0)
(0.0217012 0.0164498 0)
(0.0183325 0.0169248 0)
(0.0146263 0.0173153 0)
(0.0106482 0.0176143 0)
(0.0064707 0.0178166 0)
(0.00217153 0.0179187 0)
(-0.00216858 0.0179187 0)
(-0.00646783 0.0178167 0)
(-0.0106454 0.0176145 0)
(-0.0146238 0.0173155 0)
(-0.0183303 0.0169252 0)
(-0.0216993 0.0164503 0)
(-0.0246733 0.015899 0)
(-0.0272045 0.0152809 0)
(-0.0292554 0.0146066 0)
(-0.0307991 0.0138874 0)
(-0.0318197 0.0131354 0)
(-0.032312 0.0123628 0)
(-0.0322807 0.0115823 0)
(-0.0317398 0.0108062 0)
(-0.0307112 0.0100468 0)
(-0.029224 0.00931566 0)
(-0.0273127 0.00862394 0)
(-0.0250164 0.00798187 0)
(-0.0223772 0.00739883 0)
(-0.0194395 0.00688316 0)
(-0.0162489 0.00644213 0)
(-0.0128516 0.00608188 0)
(-0.00929392 0.00580733 0)
(-0.00562194 0.00562219 0)
(-0.00188156 0.00552902 0)
(0.00194336 0.00913922 0)
(0.00580655 0.00929311 0)
(0.00959884 0.00959884 0)
(0.0132727 0.0100523 0)
(0.0167805 0.0106473 0)
(0.0200743 0.0113757 0)
(0.0231064 0.0122274 0)
(0.0258296 0.0131903 0)
(0.0281983 0.0142507 0)
(0.0301689 0.0153931 0)
(0.0317014 0.0166004 0)
(0.0327601 0.0178545 0)
(0.0333153 0.019136 0)
(0.0333446 0.0204249 0)
(0.0328337 0.0217005 0)
(0.031778 0.0229423 0)
(0.030183 0.0241298 0)
(0.0280653 0.0252431 0)
(0.0254526 0.0262636 0)
(0.0223838 0.0271738 0)
(0.0189081 0.0279579 0)
(0.0150848 0.0286024 0)
(0.0109816 0.029096 0)
(0.00667317 0.02943 0)
(0.00223946 0.0295985 0)
(-0.0022364 0.0295986 0)
(-0.00667019 0.0294302 0)
(-0.0109788 0.0290963 0)
(-0.0150822 0.0286028 0)
(-0.0189058 0.0279585 0)
(-0.0223818 0.0271744 0)
(-0.025451 0.0262644 0)
(-0.0280641 0.025244 0)
(-0.0301822 0.0241307 0)
(-0.0317776 0.0229433 0)
(-0.0328337 0.0217016 0)
(-0.033345 0.020426 0)
(-0.0333161 0.0191372 0)
(-0.0327611 0.0178557 0)
(-0.0317026 0.0166016 0)
(-0.0301704 0.0153943 0)
(-0.0281999 0.014252 0)
(-0.0258313 0.0131916 0)
(-0.023108 0.0122287 0)
(-0.0200758 0.011377 0)
(-0.0167819 0.0106486 0)
(-0.0132739 0.0100536 0)
(-0.0095997 0.00960013 0)
(-0.00580708 0.00929435 0)
(-0.00194354 0.00914044 0)
(0.00203528 0.0126379 0)
(0.00608109 0.0128505 0)
(0.0100523 0.0132727 0)
(0.0138989 0.0138989 0)
(0.017571 0.0147207 0)
(0.0210181 0.0157266 0)
(0.0241902 0.0169026 0)
(0.0270381 0.0182323 0)
(0.0295139 0.0196964 0)
(0.0315722 0.0212736 0)
(0.0331714 0.0229405 0)
(0.0342743 0.0246718 0)
(0.0348503 0.0264409 0)
(0.0348761 0.02822 0)
(0.0343371 0.0299808 0)
(0.0332286 0.0316948 0)
(0.031557 0.0333337 0)
(0.0293395 0.0348702 0)
(0.0266055 0.0362785 0)
(0.0233955 0.0375345 0)
(0.0197612 0.0386165 0)
(0.0157644 0.0395059 0)
(0.0114758 0.040187 0)
(0.00697324 0.0406478 0)
(0.00234013 0.0408804 0)
(-0.00233691 0.0408805 0)
(-0.0069701 0.0406481 0)
(-0.0114728 0.0401874 0)
(-0.0157616 0.0395065 0)
(-0.0197587 0.0386173 0)
(-0.0233933 0.0375354 0)
(-0.0266037 0.0362795 0)
(-0.0293382 0.0348714 0)
(-0.0315561 0.0333349 0)
(-0.0332282 0.0316961 0)
(-0.034337 0.0299823 0)
(-0.0348764 0.0282216 0)
(-0.034851 0.0264425 0)
(-0.0342753 0.0246734 0)
(-0.0331726 0.0229421 0)
(-0.0315737 0.0212753 0)
(-0.0295154 0.0196981 0)
(-0.0270397 0.0182339 0)
(-0.0241918 0.0169043 0)
(-0.0210196 0.0157282 0)
(-0.0175723 0.0147224 0)
(-0.0139001 0.0139006 0)
(-0.0100532 0.0132744 0)
(-0.00608163 0.0128522 0)
(-0.00203547 0.0126396 0)
(0.0021559 0.0159792 0)
(0.00644134 0.0162475 0)
(0.0106473 0.0167805 0)
(0.0147207 0.017571 0)
(0.0186081 0.0186081 0)
(0.0222563 0.0198777 0)
(0.0256121 0.021362 0)
(0.0286234 0.02304 0)
(0.0312396 0.0248876 0)
(0.033413 0.0268778 0)
(0.0350996 0.028981 0)
(0.0362605 0.0311653 0)
(0.0368635 0.0333971 0)
(0.0368845 0.0356415 0)
(0.0363085 0.0378625 0)
(0.0351308 0.0400243 0)
(0.0333585 0.0420913 0)
(0.0310102 0.0440291 0)
(0.0281169 0.045805 0)
(0.0247218 0.0473888 0)
(0.0208795 0.0487531 0)
(0.0166552 0.0498745 0)
(0.0121236 0.0507332 0)
(0.00736658 0.0513143 0)
(0.00247208 0.0516075 0)
(-0.00246868 0.0516076 0)
(-0.00736326 0.0513146 0)
(-0.0121204 0.0507337 0)
(-0.0166523 0.0498752 0)
(-0.0208769 0.048754 0)
(-0.0247195 0.0473898 0)
(-0.028115 0.0458062 0)
(-0.0310087 0.0440304 0)
(-0.0333574 0.0420928 0)
(-0.0351303 0.0400259 0)
(-0.0363083 0.0378642 0)
(-0.0368848 0.0356433 0)
(-0.0368642 0.033399 0)
(-0.0362614 0.0311672 0)
(-0.0351008 0.0289829 0)
(-0.0334145 0.0268798 0)
(-0.0312412 0.0248896 0)
(-0.028625 0.023042 0)
(-0.0256137 0.021364 0)
(-0.0222578 0.0198797 0)
(-0.0186095 0.0186101 0)
(-0.0147218 0.017573 0)
(-0.0106482 0.0167826 0)
(-0.00644188 0.0162496 0)
(-0.0021561 0.0159813 0)
(0.00230358 0.0191176 0)
(0.00688237 0.019438 0)
(0.0113757 0.0200743 0)
(0.0157266 0.0210181 0)
(0.0198777 0.0222563 0)
(0.0237719 0.0237719 0)
(0.0273525 0.0255438 0)
(0.0305637 0.0275467 0)
(0.0333517 0.029752 0)
(0.0356656 0.0321272 0)
(0.0374589 0.0346371 0)
(0.0386905 0.0372436 0)
(0.0393265 0.0399066 0)
(0.0393414 0.0425842 0)
(0.0387199 0.0452338 0)
(0.0374574 0.0478124 0)
(0.0355618 0.0502778 0)
(0.0330532 0.052589 0)
(0.0299652 0.0547069 0)
(0.0263436 0.0565955 0)
(0.0222469 0.0582224 0)
(0.0177445 0.0595595 0)
(0.0129156 0.0605834 0)
(0.00784749 0.0612762 0)
(0.0026334 0.0616257 0)
(-0.00262978 0.0616259 0)
(-0.00784395 0.0612765 0)
(-0.0129122 0.060584 0)
(-0.0177414 0.0595603 0)
(-0.0222441 0.0582234 0)
(-0.0263412 0.0565967 0)
(-0.0299631 0.0547082 0)
(-0.0330516 0.0525905 0)
(-0.0355606 0.0502795 0)
(-0.0374567 0.0478142 0)
(-0.0387196 0.0452357 0)
(-0.0393416 0.0425862 0)
(-0.0393271 0.0399086 0)
(-0.0386914 0.0372458 0)
(-0.0374601 0.0346393 0)
(-0.035667 0.0321294 0)
(-0.0333532 0.0297542 0)
(-0.0305653 0.027549 0)
(-0.0273541 0.025546 0)
(-0.0237734 0.0237742 0)
(-0.019879 0.0222586 0)
(-0.0157277 0.0210203 0)
(-0.0113766 0.0200766 0)
(-0.00688291 0.0194402 0)
(-0.00230377 0.0191199 0)
(0.00247624 0.0220077 0)
(0.00739804 0.0223756 0)
(0.0122274 0.0231064 0)
(0.0169026 0.0241902 0)
(0.021362 0.0256121 0)
(0.0255438 0.0273525 0)
(0.0293869 0.0293869 0)
(0.0328316 0.0316865 0)
(0.0358201 0.0342182 0)
(0.0382982 0.0369448 0)
(0.040216 0.0398256 0)
(0.0415299 0.0428171 0)
(0.0422041 0.0458729 0)
(0.0422117 0.0489453 0)
(0.0415367 0.0519853 0)
(0.0401749 0.0549435 0)
(0.038135 0.0577716 0)
(0.0354392 0.0604224 0)
(0.0321235 0.0628515 0)
(0.0282374 0.0650174 0)
(0.0238435 0.0668831 0)
(0.0190162 0.0684162 0)
(0.0138403 0.0695903 0)
(0.00840892 0.0703846 0)
(0.00282173 0.0707854 0)
(-0.00281788 0.0707855 0)
(-0.00840515 0.070385 0)
(-0.0138367 0.0695908 0)
(-0.0190129 0.068417 0)
(-0.0238405 0.066884 0)
(-0.0282347 0.0650186 0)
(-0.0321212 0.0628528 0)
(-0.0354374 0.060424 0)
(-0.0381337 0.0577733 0)
(-0.0401741 0.0549454 0)
(-0.0415364 0.0519872 0)
(-0.0422118 0.0489474 0)
(-0.0422046 0.0458751 0)
(-0.0415308 0.0428193 0)
(-0.0402171 0.0398279 0)
(-0.0382996 0.0369471 0)
(-0.0358217 0.0342205 0)
(-0.0328332 0.0316889 0)
(-0.0293885 0.0293893 0)
(-0.0255453 0.0273549 0)
(-0.0213633 0.0256145 0)
(-0.0169037 0.0241926 0)
(-0.0122283 0.0231088 0)
(-0.00739858 0.022378 0)
(-0.00247644 0.0220101 0)
(0.00267148 0.0246045 0)
(0.00798109 0.0250148 0)
(0.0131903 0.0258296 0)
(0.0182323 0.0270381 0)
(0.02304 0.0286234 0)
(0.0275467 0.0305637 0)
(0.0316865 0.0328316 0)
(0.0353949 0.0353949 0)
(0.0386099 0.0382166 0)
(0.0412731 0.0412553 0)
(0.0433312 0.0444655 0)
(0.0447378 0.0477986 0)
(0.0454548 0.051203 0)
(0.0454538 0.0546255 0)
(0.0447181 0.0580114 0)
(0.0432438 0.061306 0)
(0.0410407 0.0644553 0)
(0.0381331 0.0674069 0)
(0.0345601 0.0701112 0)
(0.0303752 0.0725224 0)
(0.0256458 0.0745993 0)
(0.0204517 0.0763059 0)
(0.014884 0.0776126 0)
(0.00904259 0.0784967 0)
(0.00303427 0.0789427 0)
(-0.00303019 0.0789429 0)
(-0.0090386 0.0784971 0)
(-0.0148801 0.0776132 0)
(-0.0204481 0.0763066 0)
(-0.0256425 0.0746002 0)
(-0.0303724 0.0725236 0)
(-0.0345577 0.0701126 0)
(-0.0381312 0.0674084 0)
(-0.0410392 0.0644569 0)
(-0.0432428 0.0613078 0)
(-0.0447176 0.0580134 0)
(-0.0454538 0.0546276 0)
(-0.0454552 0.0512052 0)
(-0.0447386 0.0478008 0)
(-0.0433323 0.0444678 0)
(-0.0412744 0.0412576 0)
(-0.0386114 0.038219 0)
(-0.0353965 0.0353973 0)
(-0.0316881 0.032834 0)
(-0.0275482 0.0305661 0)
(-0.0230413 0.0286258 0)
(-0.0182334 0.0270405 0)
(-0.0131912 0.0258321 0)
(-0.00798162 0.0250172 0)
(-0.00267167 0.024607 0)
(0.00288647 0.0268645 0)
(0.00862315 0.0273111 0)
(0.0142507 0.0281983 0)
(0.0196964 0.0295139 0)
(0.0248876 0.0312396 0)
(0.029752 0.0333517 0)
(0.0342182 0.0358201 0)
(0.0382166 0.0386099 0)
(0.0416805 0.0416805 0)
(0.044547 0.0449868 0)
(0.0467593 0.0484793 0)
(0.0482675 0.0521051 0)
(0.049031 0.0558081 0)
(0.0490201 0.0595302 0)
(0.0482172 0.063212 0)
(0.0466188 0.0667941 0)
(0.0442358 0.0702178 0)
(0.0410951 0.0734263 0)
(0.037239 0.0763657 0)
(0.0327254 0.0789862 0)
(0.0276269 0.0812432 0)
(0.0220295 0.0830976 0)
(0.0160311 0.0845175 0)
(0.00973906 0.0854781 0)
(0.00326786 0.0859627 0)
(-0.00326357 0.0859628 0)
(-0.00973486 0.0854784 0)
(-0.0160271 0.084518 0)
(-0.0220258 0.0830983 0)
(-0.0276235 0.081244 0)
(-0.0327224 0.0789873 0)
(-0.0372365 0.0763669 0)
(-0.041093 0.0734277 0)
(-0.0442342 0.0702194 0)
(-0.0466177 0.0667958 0)
(-0.0482166 0.0632138 0)
(-0.04902 0.0595321 0)
(-0.0490314 0.0558101 0)
(-0.0482682 0.0521072 0)
(-0.0467603 0.0484815 0)
(-0.0445483 0.044989 0)
(-0.0416819 0.0416827 0)
(-0.0382182 0.0386122 0)
(-0.0342197 0.0358225 0)
(-0.0297534 0.033354 0)
(-0.0248889 0.031242 0)
(-0.0196975 0.0295162 0)
(-0.0142516 0.0282007 0)
(-0.00862368 0.0273136 0)
(-0.00288666 0.0268669 0)
(0.0031181 0.0287461 0)
(0.00931488 0.0292225 0)
(0.0153931 0.0301689 0)
(0.0212736 0.0315722 0)
(0.0268778 0.033413 0)
(0.0321272 0.0356656 0)
(0.0369448 0.0382982 0)
(0.0412553 0.0412731 0)
(0.0449868 0.044547 0)
(0.0480719 0.0480719 0)
(0.0504496 0.0517949 0)
(0.0520666 0.0556594 0)
(0.0528798 0.0596056 0)
(0.0528577 0.0635716 0)
(0.051982 0.0674942 0)
(0.0502496 0.0713101 0)
(0.0476728 0.0749568 0)
(0.0442809 0.0783737 0)
(0.0401201 0.0815039 0)
(0.0352527 0.0842942 0)
(0.0297572 0.0866971 0)
(0.023726 0.0886713 0)
(0.0172645 0.0901829 0)
(0.0104878 0.0912055 0)
(0.00351897 0.0917213 0)
(-0.00351449 0.0917214 0)
(-0.0104834 0.0912057 0)
(-0.0172603 0.0901833 0)
(-0.0237221 0.0886719 0)
(-0.0297536 0.0866978 0)
(-0.0352495 0.0842951 0)
(-0.0401173 0.0815049 0)
(-0.0442787 0.0783749 0)
(-0.0476711 0.0749581 0)
(-0.0502483 0.0713116 0)
(-0.0519814 0.0674958 0)
(-0.0528575 0.0635733 0)
(-0.0528801 0.0596074 0)
(-0.0520672 0.0556612 0)
(-0.0504505 0.0517968 0)
(-0.0480731 0.0480739 0)
(-0.0449882 0.0445491 0)
(-0.0412568 0.0412752 0)
(-0.0369463 0.0383003 0)
(-0.0321287 0.0356678 0)
(-0.0268791 0.0334153 0)
(-0.0212747 0.0315745 0)
(-0.0153939 0.0301712 0)
(-0.0093154 0.0292248 0)
(-0.00311829 0.0287484 0)
(0.00336293 0.0302108 0)
(0.010046 0.0307099 0)
(0.0166004 0.0317014 0)
(0.0229405 0.0331714 0)
(0.028981 0.0350996 0)
(0.0346371 0.0374589 0)
(0.0398256 0.040216 0)
(0.0444655 0.0433312 0)
(0.0484793 0.0467593 0)
(0.0517949 0.0504496 0)
(0.0543467 0.0543467 0)
(0.0560782 0.0583914 0)
(0.0569433 0.0625211 0)
(0.0569087 0.0666709 0)
(0.0559557 0.0707748 0)
(0.0540813 0.0747663 0)
(0.0512995 0.0785804 0)
(0.0476422 0.0821538 0)
(0.0431595 0.0854269 0)
(0.0379187 0.0883443 0)
(0.0320041 0.0908564 0)
(0.0255154 0.0929203 0)
(0.0185652 0.0945003 0)
(0.0112775 0.0955691 0)
(0.00378377 0.0961083 0)
(-0.00377914 0.0961084 0)
(-0.0112729 0.0955693 0)
(-0.0185609 0.0945006 0)
(-0.0255113 0.0929207 0)
(-0.0320004 0.090857 0)
(-0.0379153 0.088345 0)
(-0.0431566 0.0854277 0)
(-0.0476399 0.0821548 0)
(-0.0512976 0.0785815 0)
(-0.0540799 0.0747675 0)
(-0.0559549 0.070776 0)
(-0.0569084 0.0666723 0)
(-0.0569434 0.0625226 0)
(-0.0560787 0.058393 0)
(-0.0543476 0.0543483 0)
(-0.0517961 0.0504513 0)
(-0.0484807 0.046761 0)
(-0.0444669 0.043333 0)
(-0.0398271 0.0402179 0)
(-0.0346385 0.0374609 0)
(-0.0289822 0.0351016 0)
(-0.0229415 0.0331734 0)
(-0.0166012 0.0317034 0)
(-0.0100465 0.030712 0)
(-0.00336311 0.0302129 0)
(0.00361724 0.0312245 0)
(0.0108054 0.0317387 0)
(0.0178545 0.0327601 0)
(0.0246718 0.0342743 0)
(0.0311653 0.0362605 0)
(0.0372436 0.0386905 0)
(0.0428171 0.0415299 0)
(0.0477986 0.0447378 0)
(0.0521051 0.0482675 0)
(0.0556594 0.0520666 0)
(0.0583914 0.0560782 0)
(0.060241 0.060241 0)
(0.0611593 0.0644906 0)
(0.0611113 0.0687604 0)
(0.0600775 0.0729822 0)
(0.0580552 0.077088 0)
(0.0550603 0.0810106 0)
(0.0511274 0.0846853 0)
(0.0463105 0.0880507 0)
(0.0406823 0.0910501 0)
(0.0343332 0.0936326 0)
(0.0273699 0.0957541 0)
(0.0199134 0.0973781 0)
(0.0120958 0.0984767 0)
(0.00405818 0.0990308 0)
(-0.00405345 0.0990308 0)
(-0.0120912 0.0984768 0)
(-0.0199089 0.0973783 0)
(-0.0273657 0.0957543 0)
(-0.0343293 0.0936329 0)
(-0.0406788 0.0910505 0)
(-0.0463075 0.0880512 0)
(-0.0511249 0.0846859 0)
(-0.0550583 0.0810113 0)
(-0.0580538 0.0770888 0)
(-0.0600766 0.0729831 0)
(-0.0611109 0.0687613 0)
(-0.0611594 0.0644917 0)
(-0.0602414 0.0602421 0)
(-0.0583922 0.0560794 0)
(-0.0556604 0.0520679 0)
(-0.0521064 0.0482689 0)
(-0.0477999 0.0447393 0)
(-0.0428185 0.0415315 0)
(-0.037245 0.0386921 0)
(-0.0311665 0.0362622 0)
(-0.0246728 0.0342761 0)
(-0.0178553 0.0327618 0)
(-0.0108059 0.0317405 0)
(-0.00361742 0.0312263 0)
(0.00387714 0.0317587 0)
(0.0115815 0.03228 0)
(0.019136 0.0333153 0)
(0.0264409 0.0348503 0)
(0.0333971 0.0368635 0)
(0.0399066 0.0393265 0)
(0.0458729 0.0422041 0)
(0.051203 0.0454548 0)
(0.0558081 0.049031 0)
(0.0596056 0.0528798 0)
(0.0625211 0.0569433 0)
(0.0644906 0.0611593 0)
(0.0654627 0.0654627 0)
(0.0654003 0.0697857 0)
(0.0642833 0.0740596 0)
(0.0621097 0.0782155 0)
(0.0588968 0.0821854 0)
(0.0546823 0.0859038 0)
(0.0495242 0.0893089 0)
(0.0435005 0.0923433 0)
(0.0367081 0.0949558 0)
(0.0292609 0.0971017 0)
(0.0212878 0.0987443 0)
(0.0129301 0.0998554 0)
(0.00433791 0.100416 0)
(-0.00433313 0.100416 0)
(-0.0129254 0.0998554 0)
(-0.0212833 0.0987443 0)
(-0.0292566 0.0971017 0)
(-0.0367042 0.0949559 0)
(-0.043497 0.0923435 0)
(-0.0495212 0.0893091 0)
(-0.0546797 0.085904 0)
(-0.0588947 0.0821856 0)
(-0.0621082 0.0782158 0)
(-0.0642824 0.07406 0)
(-0.0653998 0.0697862 0)
(-0.0654626 0.0654632 0)
(-0.064491 0.06116 0)
(-0.0625218 0.056944 0)
(-0.0596066 0.0528807 0)
(-0.0558093 0.049032 0)
(-0.0512043 0.0454558 0)
(-0.0458743 0.0422052 0)
(-0.0399078 0.0393277 0)
(-0.0333983 0.0368648 0)
(-0.0264419 0.0348517 0)
(-0.0191368 0.0333167 0)
(-0.011582 0.0322814 0)
(-0.00387731 0.0317601 0)
(0.00413854 0.0317914 0)
(0.0123621 0.0323116 0)
(0.0204249 0.0333446 0)
(0.02822 0.0348761 0)
(0.0356415 0.0368845 0)
(0.0425842 0.0393414 0)
(0.0489453 0.0422117 0)
(0.0546255 0.0454538 0)
(0.0595302 0.0490201 0)
(0.0635716 0.0528577 0)
(0.0666709 0.0569087 0)
(0.0687604 0.0611113 0)
(0.0697857 0.0654003 0)
(0.0697083 0.0697083 0)
(0.0685072 0.0739667 0)
(0.0661809 0.0781068 0)
(0.0627486 0.0820612 0)
(0.0582509 0.0857646 0)
(0.05275 0.0891555 0)
(0.0463291 0.092177 0)
(0.0390915 0.094778 0)
(0.0311584 0.0969143 0)
(0.022667 0.0985495 0)
(0.0137673 0.0996555 0)
(0.00461857 0.100213 0)
(-0.00461381 0.100213 0)
(-0.0137626 0.0996554 0)
(-0.0226625 0.0985494 0)
(-0.0311542 0.0969142 0)
(-0.0390876 0.0947778 0)
(-0.0463256 0.0921767 0)
(-0.0527469 0.0891553 0)
(-0.0582484 0.0857644 0)
(-0.0627466 0.082061 0)
(-0.0661794 0.0781066 0)
(-0.0685062 0.0739666 0)
(-0.0697077 0.0697083 0)
(-0.0697856 0.0654004 0)
(-0.0687607 0.0611115 0)
(-0.0666715 0.056909 0)
(-0.0635725 0.052858 0)
(-0.0595313 0.0490205 0)
(-0.0546267 0.0454543 0)
(-0.0489465 0.0422124 0)
(-0.0425853 0.0393422 0)
(-0.0356425 0.0368854 0)
(-0.0282209 0.034877 0)
(-0.0204256 0.0333456 0)
(-0.0123625 0.0323126 0)
(-0.0041387 0.0317925 0)
(0.00439727 0.031309 0)
(0.0131347 0.0318196 0)
(0.0217005 0.0328337 0)
(0.0299808 0.0343371 0)
(0.0378625 0.0363085 0)
(0.0452338 0.0387199 0)
(0.0519853 0.0415367 0)
(0.0580114 0.0447181 0)
(0.063212 0.0482172 0)
(0.0674942 0.051982 0)
(0.0707748 0.0559557 0)
(0.0729822 0.0600775 0)
(0.0740596 0.0642833 0)
(0.0739667 0.0685072 0)
(0.0726818 0.0726818 0)
(0.0702042 0.07674 0)
(0.0665546 0.0806155 0)
(0.0617766 0.0842446 0)
(0.0559366 0.0875671 0)
(0.049123 0.0905273 0)
(0.0414455 0.0930753 0)
(0.0330324 0.095168 0)
(0.024029 0.0967696 0)
(0.0145939 0.0978528 0)
(0.00489567 0.0983991 0)
(-0.004891 0.098399 0)
(-0.0145893 0.0978526 0)
(-0.0240246 0.0967693 0)
(-0.0330282 0.0951675 0)
(-0.0414416 0.0930748 0)
(-0.0491196 0.0905267 0)
(-0.0559335 0.0875664 0)
(-0.061774 0.0842439 0)
(-0.0665525 0.0806148 0)
(-0.0702026 0.0767393 0)
(-0.0726807 0.0726812 0)
(-0.073966 0.0685066 0)
(-0.0740594 0.0642828 0)
(-0.0729824 0.060077 0)
(-0.0707753 0.0559554 0)
(-0.067495 0.0519818 0)
(-0.063213 0.0482171 0)
(-0.0580125 0.0447181 0)
(-0.0519864 0.0415369 0)
(-0.0452348 0.0387202 0)
(-0.0378635 0.0363089 0)
(-0.0299816 0.0343376 0)
(-0.0217012 0.0328343 0)
(-0.0131351 0.0318203 0)
(-0.00439742 0.0313097 0)
(0.00464914 0.0303067 0)
(0.0138868 0.0307994 0)
(0.0229423 0.031778 0)
(0.0316948 0.0332286 0)
(0.0400243 0.0351308 0)
(0.0478124 0.0374574 0)
(0.0549435 0.0401749 0)
(0.061306 0.0432438 0)
(0.0667941 0.0466188 0)
(0.0713101 0.0502496 0)
(0.0747663 0.0540813 0)
(0.077088 0.0580552 0)
(0.0782155 0.0621097 0)
(0.0781068 0.0661809 0)
(0.07674 0.0702042 0)
(0.0741146 0.0741146 0)
(0.0702533 0.0778485 0)
(0.0652025 0.0813447 0)
(0.0590327 0.084545 0)
(0.0518374 0.0873961 0)
(0.0437322 0.08985 0)
(0.0348527 0.0918652 0)
(0.0253519 0.0934074 0)
(0.0153968 0.0944505 0)
(0.00516478 0.0949764 0)
(-0.00516027 0.0949763 0)
(-0.0153924 0.0944502 0)
(-0.0253477 0.093407 0)
(-0.0348487 0.0918645 0)
(-0.0437284 0.0898492 0)
(-0.051834 0.0873952 0)
(-0.0590297 0.084544 0)
(-0.0652 0.0813435 0)
(-0.0702512 0.0778474 0)
(-0.074113 0.0741134 0)
(-0.0767388 0.070203 0)
(-0.0781061 0.0661798 0)
(-0.0782152 0.0621086 0)
(-0.0770881 0.0580542 0)
(-0.0747667 0.0540804 0)
(-0.0713108 0.0502488 0)
(-0.066795 0.0466181 0)
(-0.0613069 0.0432433 0)
(-0.0549445 0.0401746 0)
(-0.0478134 0.0374572 0)
(-0.0400251 0.0351308 0)
(-0.0316955 0.0332287 0)
(-0.0229429 0.0317781 0)
(-0.0138871 0.0307996 0)
(-0.00464928 0.0303069 0)
(0.00489002 0.0287894 0)
(0.014606 0.0292561 0)
(0.0241298 0.030183 0)
(0.0333337 0.031557 0)
(0.0420913 0.0333585 0)
(0.0502778 0.0355618 0)
(0.0577716 0.038135 0)
(0.0644553 0.0410407 0)
(0.0702178 0.0442358 0)
(0.0749568 0.0476728 0)
(0.0785804 0.0512995 0)
(0.0810106 0.0550603 0)
(0.0821854 0.0588968 0)
(0.0820612 0.0627486 0)
(0.0806155 0.0665546 0)
(0.0778485 0.0702533 0)
(0.0737847 0.0737847 0)
(0.0684731 0.0770907 0)
(0.061988 0.0801168 0)
(0.054428 0.0828123 0)
(0.0459145 0.0851321 0)
(0.0365898 0.087037 0)
(0.0266143 0.0884948 0)
(0.0161629 0.0894806 0)
(0.00542153 0.0899777 0)
(-0.00541725 0.0899775 0)
(-0.0161587 0.0894802 0)
(-0.0266102 0.0884941 0)
(-0.036586 0.0870361 0)
(-0.045911 0.085131 0)
(-0.0544248 0.082811 0)
(-0.0619852 0.0801153 0)
(-0.0684706 0.0770891 0)
(-0.0737826 0.073783 0)
(-0.077847 0.0702515 0)
(-0.0806143 0.0665528 0)
(-0.0820604 0.0627469 0)
(-0.082185 0.0588951 0)
(-0.0810106 0.0550587 0)
(-0.0785807 0.051298 0)
(-0.0749573 0.0476714 0)
(-0.0702185 0.0442346 0)
(-0.064456 0.0410396 0)
(-0.0577724 0.0381341 0)
(-0.0502786 0.0355611 0)
(-0.042092 0.0333579 0)
(-0.0333343 0.0315566 0)
(-0.0241302 0.0301827 0)
(-0.0146063 0.0292559 0)
(-0.00489013 0.0287892 0)
(0.00511587 0.0267728 0)
(0.0152804 0.0272057 0)
(0.0252431 0.0280653 0)
(0.0348702 0.0293395 0)
(0.0440291 0.0310102 0)
(0.052589 0.0330532 0)
(0.0604224 0.0354392 0)
(0.0674069 0.0381331 0)
(0.0734263 0.0410951 0)
(0.0783737 0.0442809 0)
(0.0821538 0.0476422 0)
(0.0846853 0.0511274 0)
(0.0859038 0.0546823 0)
(0.0857646 0.0582509 0)
(0.0842446 0.0617766 0)
(0.0813447 0.0652025 0)
(0.0770907 0.0684731 0)
(0.0715346 0.0715346 0)
(0.0647542 0.0743366 0)
(0.0568527 0.0768322 0)
(0.0479569 0.0789799 0)
(0.0382154 0.0807433 0)
(0.0277955 0.0820927 0)
(0.0168797 0.0830052 0)
(0.00566173 0.0834652 0)
(-0.00565776 0.0834651 0)
(-0.0168758 0.0830046 0)
(-0.0277917 0.0820918 0)
(-0.0382118 0.0807421 0)
(-0.0479536 0.0789785 0)
(-0.0568496 0.0768306 0)
(-0.0647516 0.0743347 0)
(-0.0715323 0.0715326 0)
(-0.0770888 0.0684709 0)
(-0.0813432 0.0652003 0)
(-0.0842435 0.0617743 0)
(-0.0857638 0.0582486 0)
(-0.0859034 0.05468 0)
(-0.0846852 0.0511252 0)
(-0.082154 0.0476402 0)
(-0.0783741 0.0442791 0)
(-0.0734268 0.0410934 0)
(-0.0674074 0.0381316 0)
(-0.0604231 0.0354379 0)
(-0.0525896 0.0330521 0)
(-0.0440296 0.0310092 0)
(-0.0348707 0.0293387 0)
(-0.0252435 0.0280647 0)
(-0.0152806 0.0272051 0)
(-0.00511597 0.0267723 0)
(0.00532289 0.0242832 0)
(0.0158985 0.0246749 0)
(0.0262636 0.0254526 0)
(0.0362785 0.0266055 0)
(0.045805 0.0281169 0)
(0.0547069 0.0299652 0)
(0.0628515 0.0321235 0)
(0.0701112 0.0345601 0)
(0.0763657 0.037239 0)
(0.0815039 0.0401201 0)
(0.0854269 0.0431595 0)
(0.0880507 0.0463105 0)
(0.0893089 0.0495242 0)
(0.0891555 0.05275 0)
(0.0875671 0.0559366 0)
(0.084545 0.0590327 0)
(0.0801168 0.061988 0)
(0.0743366 0.0647542 0)
(0.0672856 0.0672856 0)
(0.0590713 0.0695402 0)
(0.0498256 0.0714801 0)
(0.0397026 0.0730729 0)
(0.0288762 0.0742917 0)
(0.0175355 0.0751158 0)
(0.00588144 0.0755312 0)
(-0.00587783 0.075531 0)
(-0.0175319 0.0751152 0)
(-0.0288727 0.0742907 0)
(-0.0396994 0.0730716 0)
(-0.0498225 0.0714784 0)
(-0.0590686 0.0695382 0)
(-0.0672832 0.0672834 0)
(-0.0743344 0.0647518 0)
(-0.080115 0.0619854 0)
(-0.0845436 0.0590299 0)
(-0.087566 0.0559338 0)
(-0.0891547 0.0527472 0)
(-0.0893084 0.0495214 0)
(-0.0880505 0.0463078 0)
(-0.0854269 0.0431569 0)
(-0.081504 0.0401177 0)
(-0.076366 0.0372369 0)
(-0.0701116 0.0345582 0)
(-0.0628519 0.0321218 0)
(-0.0547073 0.0299637 0)
(-0.0458054 0.0281157 0)
(-0.0362788 0.0266044 0)
(-0.0262639 0.0254517 0)
(-0.0158987 0.0246741 0)
(-0.00532296 0.0242825 0)
(0.00550753 0.0213575 0)
(0.0164498 0.0217012 0)
(0.0271738 0.0223838 0)
(0.0375345 0.0233955 0)
(0.0473888 0.0247218 0)
(0.0565955 0.0263436 0)
(0.0650174 0.0282374 0)
(0.0725224 0.0303752 0)
(0.0789862 0.0327254 0)
(0.0842942 0.0352527 0)
(0.0883443 0.0379187 0)
(0.0910501 0.0406823 0)
(0.0923433 0.0435005 0)
(0.092177 0.0463291 0)
(0.0905273 0.049123 0)
(0.0873961 0.0518374 0)
(0.0828123 0.054428 0)
(0.0768322 0.0568527 0)
(0.0695402 0.0590713 0)
(0.0610471 0.0610471 0)
(0.0514896 0.0627472 0)
(0.0410269 0.0641429 0)
(0.0298384 0.0652108 0)
(0.0181193 0.0659328 0)
(0.00607701 0.0662968 0)
(-0.00607383 0.0662966 0)
(-0.0181162 0.0659321 0)
(-0.0298353 0.0652096 0)
(-0.0410241 0.0641413 0)
(-0.0514869 0.0627452 0)
(-0.0610447 0.0610449 0)
(-0.069538 0.0590687 0)
(-0.0768303 0.0568498 0)
(-0.0828106 0.054425 0)
(-0.0873948 0.0518342 0)
(-0.0905262 0.0491198 0)
(-0.0921762 0.0463259 0)
(-0.0923428 0.0434973 0)
(-0.0910497 0.0406792 0)
(-0.0883441 0.0379157 0)
(-0.0842941 0.03525 0)
(-0.0789863 0.032723 0)
(-0.0725226 0.0303731 0)
(-0.0650175 0.0282355 0)
(-0.0565957 0.0263421 0)
(-0.0473889 0.0247205 0)
(-0.0375346 0.0233944 0)
(-0.0271739 0.0223829 0)
(-0.0164499 0.0217005 0)
(-0.00550757 0.0213568 0)
(0.00566662 0.0180427 0)
(0.0169248 0.0183325 0)
(0.0279579 0.0189081 0)
(0.0386165 0.0197612 0)
(0.0487531 0.0208795 0)
(0.0582224 0.0222469 0)
(0.0668831 0.0238435 0)
(0.0745993 0.0256458 0)
(0.0812432 0.0276269 0)
(0.0866971 0.0297572 0)
(0.0908564 0.0320041 0)
(0.0936326 0.0343332 0)
(0.0949558 0.0367081 0)
(0.094778 0.0390915 0)
(0.0930753 0.0414455 0)
(0.08985 0.0437322 0)
(0.0851321 0.0459145 0)
(0.0789799 0.0479569 0)
(0.0714801 0.0498256 0)
(0.0627472 0.0514896 0)
(0.0529213 0.0529213 0)
(0.0421662 0.0540966 0)
(0.0306661 0.0549959 0)
(0.0186215 0.0556038 0)
(0.00624521 0.0559103 0)
(-0.00624251 0.05591 0)
(-0.0186188 0.0556031 0)
(-0.0306635 0.0549946 0)
(-0.0421638 0.0540949 0)
(-0.052919 0.0529192 0)
(-0.062745 0.0514871 0)
(-0.0714782 0.0498227 0)
(-0.0789782 0.0479537 0)
(-0.0851306 0.0459112 0)
(-0.0898488 0.0437287 0)
(-0.0930743 0.0414419 0)
(-0.0947772 0.0390879 0)
(-0.0949551 0.0367046 0)
(-0.0936321 0.0343298 0)
(-0.090856 0.032001 0)
(-0.0866968 0.0297543 0)
(-0.0812429 0.0276245 0)
(-0.0745991 0.0256437 0)
(-0.0668829 0.0238419 0)
(-0.0582223 0.0222457 0)
(-0.048753 0.0208787 0)
(-0.0386164 0.0197607 0)
(-0.0279578 0.018908 0)
(-0.0169248 0.0183326 0)
(-0.00566662 0.0180429 0)
(0.00579738 0.0143954 0)
(0.0173153 0.0146263 0)
(0.0286024 0.0150848 0)
(0.0395059 0.0157644 0)
(0.0498745 0.0166552 0)
(0.0595595 0.0177445 0)
(0.0684162 0.0190162 0)
(0.0763059 0.0204517 0)
(0.0830976 0.0220295 0)
(0.0886713 0.023726 0)
(0.0929203 0.0255154 0)
(0.0957541 0.0273699 0)
(0.0971017 0.0292609 0)
(0.0969143 0.0311584 0)
(0.095168 0.0330324 0)
(0.0918652 0.0348527 0)
(0.087037 0.0365898 0)
(0.0807433 0.0382154 0)
(0.0730729 0.0397026 0)
(0.0641429 0.0410269 0)
(0.0540966 0.0421662 0)
(0.0431015 0.0431015 0)
(0.0313456 0.043817 0)
(0.0190337 0.0443007 0)
(0.00638321 0.0445445 0)
(-0.00638104 0.0445443 0)
(-0.0190316 0.0442999 0)
(-0.0313435 0.0438157 0)
(-0.0430995 0.0430997 0)
(-0.0540948 0.0421639 0)
(-0.0641411 0.0410242 0)
(-0.0730713 0.0396995 0)
(-0.0807418 0.038212 0)
(-0.0870357 0.0365862 0)
(-0.0918641 0.034849 0)
(-0.095167 0.0330286 0)
(-0.0969135 0.0311547 0)
(-0.0971009 0.0292573 0)
(-0.0957533 0.0273666 0)
(-0.0929196 0.0255124 0)
(-0.0886707 0.0237236 0)
(-0.0830969 0.0220277 0)
(-0.0763052 0.0204505 0)
(-0.0684155 0.0190157 0)
(-0.0595588 0.0177447 0)
(-0.0498739 0.0166561 0)
(-0.0395054 0.0157658 0)
(-0.028602 0.0150867 0)
(-0.017315 0.0146286 0)
(-0.00579731 0.0143978 0)
(0.00589753 0.0104803 0)
(0.0176143 0.0106482 0)
(0.029096 0.0109816 0)
(0.040187 0.0114758 0)
(0.0507332 0.0121236 0)
(0.0605834 0.0129156 0)
(0.0695903 0.0138403 0)
(0.0776126 0.014884 0)
(0.0845175 0.0160311 0)
(0.0901829 0.0172645 0)
(0.0945003 0.0185652 0)
(0.0973781 0.0199134 0)
(0.0987443 0.0212878 0)
(0.0985495 0.022667 0)
(0.0967696 0.024029 0)
(0.0934074 0.0253519 0)
(0.0884948 0.0266143 0)
(0.0820927 0.0277955 0)
(0.0742917 0.0288762 0)
(0.0652108 0.0298384 0)
(0.0549959 0.0306661 0)
(0.043817 0.0313456 0)
(0.0318654 0.0318654 0)
(0.019349 0.0322167 0)
(0.00648871 0.0323937 0)
(-0.00648711 0.0323935 0)
(-0.0193474 0.0322159 0)
(-0.0318638 0.0318639 0)
(-0.0438155 0.0313436 0)
(-0.0549944 0.0306637 0)
(-0.0652094 0.0298355 0)
(-0.0742904 0.0288729 0)
(-0.0820915 0.027792 0)
(-0.0884937 0.0266105 0)
(-0.0934064 0.0253481 0)
(-0.0967686 0.0240252 0)
(-0.0985485 0.0226634 0)
(-0.0987432 0.0212846 0)
(-0.0973769 0.0199106 0)
(-0.094499 0.0185632 0)
(-0.0901815 0.0172633 0)
(-0.084516 0.016031 0)
(-0.0776111 0.014885 0)
(-0.0695887 0.0138426 0)
(-0.0605819 0.0129192 0)
(-0.0507318 0.0121284 0)
(-0.0401857 0.0114817 0)
(-0.0290951 0.0109885 0)
(-0.0176137 0.0106557 0)
(-0.00589735 0.0104881 0)
(0.0059653 0.00636874 0)
(0.0178166 0.0064707 0)
(0.02943 0.00667317 0)
(0.0406478 0.00697324 0)
(0.0513143 0.00736658 0)
(0.0612762 0.00784749 0)
(0.0703846 0.00840892 0)
(0.0784967 0.00904259 0)
(0.0854781 0.00973906 0)
(0.0912055 0.0104878 0)
(0.0955691 0.0112775 0)
(0.0984767 0.0120958 0)
(0.0998554 0.0129301 0)
(0.0996555 0.0137673 0)
(0.0978528 0.0145939 0)
(0.0944505 0.0153968 0)
(0.0894806 0.0161629 0)
(0.0830052 0.0168797 0)
(0.0751158 0.0175355 0)
(0.0659328 0.0181193 0)
(0.0556038 0.0186215 0)
(0.0443007 0.0190337 0)
(0.0322167 0.019349 0)
(0.0195621 0.0195621 0)
(0.00655995 0.0196694 0)
(-0.00655894 0.0196691 0)
(-0.0195611 0.0195612 0)
(-0.0322157 0.0193475 0)
(-0.0442998 0.0190317 0)
(-0.0556029 0.018619 0)
(-0.0659319 0.0181163 0)
(-0.0751148 0.0175322 0)
(-0.0830042 0.0168762 0)
(-0.0894796 0.0161592 0)
(-0.0944494 0.0153932 0)
(-0.0978516 0.0145905 0)
(-0.0996541 0.0137643 0)
(-0.0998537 0.0129279 0)
(-0.0984747 0.0120946 0)