/*--------------------------------*- C++ -*----------------------------------*\
| =========                 |                                                 |
| \\      /  F ield         | OpenFOAM: The Open Source CFD Toolbox           |
|  \\    /   O peration     | Version:  2406                                  |
|   \\  /    A nd           | Website:  www.openfoam.com                      |
|    \\/     M anipulation  |                                                 |
\*---------------------------------------------------------------------------*/
FoamFile
{
    version     2.0;
    format      ascii;
    arch        "LSB;label=32;scalar=64";
    class       volScalarField;
    location    "0.25";
    object      gradTx;
}
// * * * * * * * * * * * * * * * * * * * * * * * * * * * * * * * * * * * * * //

dimensions      [0 -1 0 1 0 0 0];

internalField   nonuniform List<scalar> 
2500
(
0.0185025
0.0552836
0.0913922
0.126379
0.159792
0.191176
0.220077
0.246045
0.268645
0.287461
0.302108
0.312245
0.317587
0.317914
0.31309
0.303067
0.287894
0.267728
0.242832
0.213575
0.180427
0.143954
0.104803
0.0636874
0.0213733
-0.0213443
-0.0636592
-0.104776
-0.143929
-0.180405
-0.213556
-0.242817
-0.267717
-0.287887
-0.303063
-0.313091
-0.317919
-0.317594
-0.312256
-0.302121
-0.287476
-0.268661
-0.246061
-0.220093
-0.191191
-0.159806
-0.126391
-0.0914001
-0.0552877
-0.0185037
0.0188139
0.0562147
0.0929311
0.128505
0.162475
0.19438
0.223756
0.250148
0.273111
0.292225
0.307099
0.317387
0.3228
0.323116
0.318196
0.307994
0.292561
0.272057
0.246749
0.217012
0.183325
0.146263
0.106482
0.064707
0.0217153
-0.0216858
-0.0646783
-0.106454
-0.146238
-0.183303
-0.216993
-0.246733
-0.272045
-0.292554
-0.307991
-0.318197
-0.32312
-0.322807
-0.317398
-0.307112
-0.29224
-0.273127
-0.250164
-0.223772
-0.194395
-0.162489
-0.128516
-0.0929392
-0.0562194
-0.0188156
0.0194336
0.0580655
0.0959884
0.132727
0.167805
0.200743
0.231064
0.258296
0.281983
0.301689
0.317014
0.327601
0.333153
0.333446
0.328337
0.31778
0.30183
0.280653
0.254526
0.223838
0.189081
0.150848
0.109816
0.0667317
0.0223946
-0.022364
-0.0667019
-0.109788
-0.150822
-0.189058
-0.223818
-0.25451
-0.280641
-0.301822
-0.317776
-0.328337
-0.33345
-0.333161
-0.327611
-0.317026
-0.301704
-0.281999
-0.258313
-0.23108
-0.200758
-0.167819
-0.132739
-0.095997
-0.0580708
-0.0194354
0.0203528
0.0608109
0.100523
0.138989
0.17571
0.210181
0.241902
0.270381
0.295139
0.315722
0.331714
0.342743
0.348503
0.348761
0.343371
0.332286
0.31557
0.293395
0.266055
0.233955
0.197612
0.157644
0.114758
0.0697324
0.0234013
-0.0233691
-0.069701
-0.114728
-0.157616
-0.197587
-0.233933
-0.266037
-0.293382
-0.315561
-0.332282
-0.34337
-0.348764
-0.34851
-0.342753
-0.331726
-0.315737
-0.295154
-0.270397
-0.241918
-0.210196
-0.175723
-0.139001
-0.100532
-0.0608163
-0.0203547
0.021559
0.0644134
0.106473
0.147207
0.186081
0.222563
0.256121
0.286234
0.312396
0.33413
0.350996
0.362605
0.368635
0.368845
0.363085
0.351308
0.333585
0.310102
0.281169
0.247218
0.208795
0.166552
0.121236
0.0736658
0.0247208
-0.0246868
-0.0736326
-0.121204
-0.166523
-0.208769
-0.247195
-0.28115
-0.310087
-0.333574
-0.351303
-0.363083
-0.368848
-0.368642
-0.362614
-0.351008
-0.334145
-0.312412
-0.28625
-0.256137
-0.222578
-0.186095
-0.147218
-0.106482
-0.0644188
-0.021561
0.0230358
0.0688237
0.113757
0.157266
0.198777
0.237719
0.273525
0.305637
0.333517
0.356656
0.374589
0.386905
0.393265
0.393414
0.387199
0.374574
0.355618
0.330532
0.299652
0.263436
0.222469
0.177445
0.129156
0.0784749
0.026334
-0.0262978
-0.0784395
-0.129122
-0.177414
-0.222441
-0.263412
-0.299631
-0.330516
-0.355606
-0.374567
-0.387196
-0.393416
-0.393271
-0.386914
-0.374601
-0.35667
-0.333532
-0.305653
-0.273541
-0.237734
-0.19879
-0.157277
-0.113766
-0.0688291
-0.0230377
0.0247624
0.0739804
0.122274
0.169026
0.21362
0.255438
0.293869
0.328316
0.358201
0.382982
0.40216
0.415299
0.422041
0.422117
0.415367
0.401749
0.38135
0.354392
0.321235
0.282374
0.238435
0.190162
0.138403
0.0840892
0.0282173
-0.0281788
-0.0840515
-0.138367
-0.190129
-0.238405
-0.282347
-0.321212
-0.354374
-0.381337
-0.401741
-0.415364
-0.422118
-0.422046
-0.415308
-0.402171
-0.382996
-0.358217
-0.328332
-0.293885
-0.255453
-0.213633
-0.169037
-0.122283
-0.0739858
-0.0247644
0.0267148
0.0798109
0.131903
0.182323
0.2304
0.275467
0.316865
0.353949
0.386099
0.412731
0.433312
0.447378
0.454548
0.454538
0.447181
0.432438
0.410407
0.381331
0.345601
0.303752
0.256458
0.204517
0.14884
0.0904259
0.0303427
-0.0303019
-0.090386
-0.148801
-0.204481
-0.256425
-0.303724
-0.345577
-0.381312
-0.410392
-0.432428
-0.447176
-0.454538
-0.454552
-0.447386
-0.433323
-0.412744
-0.386114
-0.353965
-0.316881
-0.275482
-0.230413
-0.182334
-0.131912
-0.0798162
-0.0267167
0.0288647
0.0862315
0.142507
0.196964
0.248876
0.29752
0.342182
0.382166
0.416805
0.44547
0.467593
0.482675
0.49031
0.490201
0.482172
0.466188
0.442358
0.410951
0.37239
0.327254
0.276269
0.220295
0.160311
0.0973906
0.0326786
-0.0326357
-0.0973486
-0.160271
-0.220258
-0.276235
-0.327224
-0.372365
-0.41093
-0.442342
-0.466177
-0.482166
-0.4902
-0.490314
-0.482682
-0.467603
-0.445483
-0.416819
-0.382182
-0.342197
-0.297534
-0.248889
-0.196975
-0.142516
-0.0862368
-0.0288666
0.031181
0.0931488
0.153931
0.212736
0.268778
0.321272
0.369448
0.412553
0.449868
0.480719
0.504496
0.520666
0.528798
0.528577
0.51982
0.502496
0.476728
0.442809
0.401201
0.352527
0.297572
0.23726
0.172645
0.104878
0.0351897
-0.0351449
-0.104834
-0.172603
-0.237221
-0.297536
-0.352495
-0.401173
-0.442787
-0.476711
-0.502483
-0.519814
-0.528575
-0.528801
-0.520672
-0.504505
-0.480731
-0.449882
-0.412568
-0.369463
-0.321287
-0.268791
-0.212747
-0.153939
-0.093154
-0.0311829
0.0336293
0.10046
0.166004
0.229405
0.28981
0.346371
0.398256
0.444655
0.484793
0.517949
0.543467
0.560782
0.569433
0.569087
0.559557
0.540813
0.512995
0.476422
0.431595
0.379187
0.320041
0.255154
0.185652
0.112775
0.0378377
-0.0377914
-0.112729
-0.185609
-0.255113
-0.320004
-0.379153
-0.431566
-0.476399
-0.512976
-0.540799
-0.559549
-0.569084
-0.569434
-0.560787
-0.543476
-0.517961
-0.484807
-0.444669
-0.398271
-0.346385
-0.289822
-0.229415
-0.166012
-0.100465
-0.0336311
0.0361724
0.108054
0.178545
0.246718
0.311653
0.372436
0.428171
0.477986
0.521051
0.556594
0.583914
0.60241
0.611593
0.611113
0.600775
0.580552
0.550603
0.511274
0.463105
0.406823
0.343332
0.273699
0.199134
0.120958
0.0405818
-0.0405345
-0.120912
-0.199089
-0.273657
-0.343293
-0.406788
-0.463075
-0.511249
-0.550583
-0.580538
-0.600766
-0.611109
-0.611594
-0.602414
-0.583922
-0.556604
-0.521064
-0.477999
-0.428185
-0.37245
-0.311665
-0.246728
-0.178553
-0.108059
-0.0361742
0.0387714
0.115815
0.19136
0.264409
0.333971
0.399066
0.458729
0.51203
0.558081
0.596056
0.625211
0.644906
0.654627
0.654003
0.642833
0.621097
0.588968
0.546823
0.495242
0.435005
0.367081
0.292609
0.212878
0.129301
0.0433791
-0.0433313
-0.129254
-0.212833
-0.292566
-0.367042
-0.43497
-0.495212
-0.546797
-0.588947
-0.621082
-0.642824
-0.653998
-0.654626
-0.64491
-0.625218
-0.596066
-0.558093
-0.512043
-0.458743
-0.399078
-0.333983
-0.264419
-0.191368
-0.11582
-0.0387731
0.0413854
0.123621
0.204249
0.2822
0.356415
0.425842
0.489453
0.546255
0.595302
0.635716
0.666709
0.687604
0.697857
0.697083
0.685072
0.661809
0.627486
0.582509
0.5275
0.463291
0.390915
0.311584
0.22667
0.137673
0.0461857
-0.0461381
-0.137626
-0.226625
-0.311542
-0.390876
-0.463256
-0.527469
-0.582484
-0.627466
-0.661794
-0.685062
-0.697077
-0.697856
-0.687607
-0.666715
-0.635725
-0.595313
-0.546267
-0.489465
-0.425853
-0.356425
-0.282209
-0.204256
-0.123625
-0.041387
0.0439727
0.131347
0.217005
0.299808
0.378625
0.452338
0.519853
0.580114
0.63212
0.674942
0.707748
0.729822
0.740596
0.739667
0.726818
0.702042
0.665546
0.617766
0.559366
0.49123
0.414455
0.330324
0.24029
0.145939
0.0489567
-0.04891
-0.145893
-0.240246
-0.330282
-0.414416
-0.491196
-0.559335
-0.61774
-0.665525
-0.702026
-0.726807
-0.73966
-0.740594
-0.729824
-0.707753
-0.67495
-0.63213
-0.580125
-0.519864
-0.452348
-0.378635
-0.299816
-0.217012
-0.131351
-0.0439742
0.0464914
0.138868
0.229423
0.316948
0.400243
0.478124
0.549435
0.61306
0.667941
0.713101
0.747663
0.77088
0.782155
0.781068
0.7674
0.741146
0.702533
0.652025
0.590327
0.518374
0.437322
0.348527
0.253519
0.153968
0.0516478
-0.0516027
-0.153924
-0.253477
-0.348487
-0.437284
-0.51834
-0.590297
-0.652
-0.702512
-0.74113
-0.767388
-0.781061
-0.782152
-0.770881
-0.747667
-0.713108
-0.66795
-0.613069
-0.549445
-0.478134
-0.400251
-0.316955
-0.229429
-0.138871
-0.0464928
0.0489002
0.14606
0.241298
0.333337
0.420913
0.502778
0.577716
0.644553
0.702178
0.749568
0.785804
0.810106
0.821854
0.820612
0.806155
0.778485
0.737847
0.684731
0.61988
0.54428
0.459145
0.365898
0.266143
0.161629
0.0542153
-0.0541725
-0.161587
-0.266102
-0.36586
-0.45911
-0.544248
-0.619852
-0.684706
-0.737826
-0.77847
-0.806143
-0.820604
-0.82185
-0.810106
-0.785807
-0.749573
-0.702185
-0.64456
-0.577724
-0.502786
-0.42092
-0.333343
-0.241302
-0.146063
-0.0489013
0.0511587
0.152804
0.252431
0.348702
0.440291
0.52589
0.604224
0.674069
0.734263
0.783737
0.821538
0.846853
0.859038
0.857646
0.842446
0.813447
0.770907
0.715346
0.647542
0.568527
0.479569
0.382154
0.277955
0.168797
0.0566173
-0.0565776
-0.168758
-0.277917
-0.382118
-0.479536
-0.568496
-0.647516
-0.715323
-0.770888
-0.813432
-0.842435
-0.857638
-0.859034
-0.846852
-0.82154
-0.783741
-0.734268
-0.674074
-0.604231
-0.525896
-0.440296
-0.348707
-0.252435
-0.152806
-0.0511597
0.0532289
0.158985
0.262636
0.362785
0.45805
0.547069
0.628515
0.701112
0.763657
0.815039
0.854269
0.880507
0.893089
0.891555
0.875671
0.84545
0.801168
0.743366
0.672856
0.590713
0.498256
0.397026
0.288762
0.175355
0.0588144
-0.0587783
-0.175319
-0.288727
-0.396994
-0.498225
-0.590686
-0.672832
-0.743344
-0.80115
-0.845436
-0.87566
-0.891547
-0.893084
-0.880505
-0.854269
-0.81504
-0.76366
-0.701116
-0.628519
-0.547073
-0.458054
-0.362788
-0.262639
-0.158987
-0.0532296
0.0550753
0.164498
0.271738
0.375345
0.473888
0.565955
0.650174
0.725224
0.789862
0.842942
0.883443
0.910501
0.923433
0.92177
0.905273
0.873961
0.828123
0.768322
0.695402
0.610471
0.514896
0.410269
0.298384
0.181193
0.0607701
-0.0607383
-0.181162
-0.298353
-0.410241
-0.514869
-0.610447
-0.69538
-0.768303
-0.828106
-0.873948
-0.905262
-0.921762
-0.923428
-0.910497
-0.883441
-0.842941
-0.789863
-0.725226
-0.650175
-0.565957
-0.473889
-0.375346
-0.271739
-0.164499
-0.0550757
0.0566662
0.169248
0.279579
0.386165
0.487531
0.582224
0.668831
0.745993
0.812432
0.866971
0.908564
0.936326
0.949558
0.94778
0.930753
0.8985
0.851321
0.789799
0.714801
0.627472
0.529213
0.421662
0.306661
0.186215
0.0624521
-0.0624251
-0.186188
-0.306635
-0.421638
-0.52919
-0.62745
-0.714782
-0.789782
-0.851306
-0.898488
-0.930743
-0.947772
-0.949551
-0.936321
-0.90856
-0.866968
-0.812429
-0.745991
-0.668829
-0.582223
-0.48753
-0.386164
-0.279578
-0.169248
-0.0566662
0.0579738
0.173153
0.286024
0.395059
0.498745
0.595595
0.684162
0.763059
0.830976
0.886713
0.929203
0.957541
0.971017
0.969143
0.95168
0.918652
0.87037
0.807433
0.730729
0.641429
0.540966
0.431015
0.313456
0.190337
0.0638321
-0.0638104
-0.190316
-0.313435
-0.430995
-0.540948
-0.641411
-0.730713
-0.807418
-0.870357
-0.918641
-0.95167
-0.969135
-0.971009
-0.957533
-0.929196
-0.886707
-0.830969
-0.763052
-0.684155
-0.595588
-0.498739
-0.395054
-0.28602
-0.17315
-0.0579731
0.0589753
0.176143
0.29096
0.40187
0.507332
0.605834
0.695903
0.776126
0.845175
0.901829
0.945003
0.973781
0.987443
0.985495
0.967696
0.934074
0.884948
0.820927
0.742917
0.652108
0.549959
0.43817
0.318654
0.19349
0.0648871
-0.0648711
-0.193474
-0.318638
-0.438155
-0.549944
-0.652094
-0.742904
-0.820915
-0.884937
-0.934064
-0.967686
-0.985485
-0.987432
-0.973769
-0.94499
-0.901815
-0.84516
-0.776111
-0.695887
-0.605819
-0.507318
-0.401857
-0.290951
-0.176137
-0.0589735
0.059653
0.178166
0.2943
0.406478
0.513143
0.612762
0.703846
0.784967
0.854781
0.912055
0.955691
0.984767
0.998554
0.996555
0.978528
0.944505
0.894806
0.830052
0.751158
0.659328
0.556038
0.443007
0.322167
0.195621
0.0655995
-0.0655894
-0.195611
-0.322157
-0.442998
-0.556029
-0.659319
-0.751148
-0.830042
-0.894796
-0.944494
-0.978516
-0.996541
-0.998537
-0.984747
-0.955669
-0.912028
-0.854752
-0.784936
-0.703814
-0.61273
-0.513113
-0.406453
-0.29428
-0.178154
-0.0596489
0.0599949
0.179187
0.295985
0.408804
0.516075
0.616257
0.707854
0.789427
0.859627
0.917213
0.961083
0.990308
1.00416
1.00213
0.983991
0.949764
0.899777
0.834652
0.755312
0.662968
0.559103
0.445445
0.323937
0.196694
0.0659571
-0.0659531
-0.19669
-0.323933
-0.445441
-0.559098
-0.662963
-0.755306
-0.834644
-0.899767
-0.949751
-0.983974
-1.00211
-1.00413
-0.990272
-0.96104
-0.917162
-0.859569
-0.789364
-0.707788
-0.616192
-0.516014
-0.408751
-0.295945
-0.179162
-0.0599863
0.0599951
0.179187
0.295986
0.408805
0.516076
0.616259
0.707855
0.789429
0.859628
0.917214
0.961084
0.990308
1.00416
1.00213
0.98399
0.949763
0.899775
0.834651
0.75531
0.662966
0.5591
0.445443
0.323935
0.196691
0.0659541
-0.0659561
-0.196693
-0.323936
-0.445443
-0.5591
-0.662963
-0.755305
-0.834642
-0.899762
-0.949743
-0.983962
-1.00209
-1.0041
-0.990239
-0.960999
-0.917112
-0.859512
-0.7893
-0.70772
-0.616125
-0.515951
-0.408696
-0.295902
-0.179135
-0.0599772
0.0596534
0.178167
0.294302
0.406481
0.513146
0.612765
0.70385
0.784971
0.854784
0.912057
0.955693
0.984768
0.998554
0.996554
0.978526
0.944502
0.894802
0.830046
0.751152
0.659321
0.556031
0.442999
0.322159
0.195612
0.0655904
-0.0655983
-0.19562
-0.322165
-0.443004
-0.556033
-0.659321
-0.751146
-0.830034
-0.894779
-0.944466
-0.978473
-0.996478
-0.99845
-0.984633
-0.955524
-0.911853
-0.854549
-0.78471
-0.703575
-0.612492
-0.51289
-0.406259
-0.29413
-0.178059
-0.0596164
0.058976
0.176145
0.290963
0.401874
0.507337
0.60584
0.695908
0.776132
0.84518
0.901833
0.945006
0.973783
0.987443
0.985494
0.967693
0.93407
0.884941
0.820918
0.742907
0.652096
0.549946
0.438157
0.318639
0.193475
0.0648723
-0.0648857
-0.193488
-0.31865
-0.438165
-0.54995
-0.652095
-0.742896
-0.820894
-0.884898
-0.934001
-0.967589
-0.985346
-0.98724
-0.973516
-0.944669
-0.901424
-0.844706
-0.775605
-0.695352
-0.605283
-0.506814
-0.40142
-0.290612
-0.175922
-0.0589
0.0579748
0.173155
0.286028
0.395065
0.498752
0.595603
0.68417
0.763066
0.830983
0.886719
0.929207
0.957543
0.971017
0.969142
0.951675
0.918645
0.870361
0.807421
0.730716
0.641413
0.540949
0.430997
0.313436
0.190317
0.0638118
-0.0638301
-0.190334
-0.313451
-0.431007
-0.540952
-0.641405
-0.730691
-0.807372
-0.870277
-0.918511
-0.951474
-0.968853
-0.97062
-0.957018
-0.928541
-0.885908
-0.830037
-0.762012
-0.683052
-0.594481
-0.497696
-0.394148
-0.285318
-0.172706
-0.0578209
0.0566674
0.169252
0.279585
0.386173
0.48754
0.582234
0.66884
0.746002
0.81244
0.866978
0.90857
0.936329
0.949559
0.947778
0.930748
0.898492
0.85131
0.789785
0.714784
0.627452
0.529192
0.421639
0.306637
0.18619
0.062427
-0.0624491
-0.18621
-0.306653
-0.421648
-0.529188
-0.62743
-0.714732
-0.789687
-0.851146
-0.898235
-0.930362
-0.947223
-0.948792
-0.935312
-0.907272
-0.86539
-0.81058
-0.743922
-0.666628
-0.580009
-0.485442
-0.384348
-0.278169
-0.168355
-0.0563605
0.0550768
0.164503
0.271744
0.375354
0.473898
0.565967
0.650186
0.725236
0.789873
0.842951
0.88345
0.910505
0.923435
0.921767
0.905267
0.873952
0.82811
0.768306
0.695382
0.610449
0.514871
0.410242
0.298355
0.181163
0.060741
-0.0607656
-0.181185
-0.29837
-0.410244
-0.514852
-0.610396
-0.695276
-0.768118
-0.827801
-0.873468
-0.904541
-0.920721
-0.921983
-0.908567
-0.880965
-0.839895
-0.786278
-0.7212
-0.64588
-0.561626
-0.469798
-0.371784
-0.268974
-0.162747
-0.0544755
0.0532306
0.15899
0.262644
0.362795
0.458062
0.547082
0.628528
0.701126
0.763669
0.815049
0.854277
0.880512
0.893091
0.891553
0.875664
0.84544
0.801153
0.743347
0.672834
0.590687
0.498227
0.396995
0.288729
0.175322
0.0587824
-0.0588072
-0.175341
-0.288738
-0.396983
-0.498179
-0.59058
-0.672633
-0.743
-0.800586
-0.844553
-0.874331
-0.889621
-0.890396
-0.876895
-0.849614
-0.809286
-0.756856
-0.693447
-0.620309
-0.538773
-0.4502
-0.355942
-0.257321
-0.155615
-0.0520747
0.0511606
0.152809
0.25244
0.348714
0.440304
0.525905
0.60424
0.674084
0.734277
0.783749
0.821548
0.846859
0.85904
0.857644
0.842439
0.813435
0.770891
0.715326
0.647518
0.568498
0.479537
0.38212
0.27792
0.168762
0.0565839
-0.0566057
-0.168775
-0.277915
-0.38208
-0.479437
-0.568297
-0.647153
-0.714705
-0.769879
-0.81185
-0.840046
-0.854159
-0.854151
-0.840257
-0.812985
-0.773106
-0.721631
-0.659768
-0.58886
-0.510315
-0.425525
-0.335816
-0.242415
-0.146452
-0.0489827
0.0489022
0.146066
0.241307
0.333349
0.420928
0.502795
0.577733
0.644569
0.702194
0.749581
0.785815
0.810113
0.821856
0.82061
0.806148
0.778474
0.73783
0.684709
0.619854
0.54425
0.459112
0.365862
0.266105
0.161592
0.0541823
-0.0541967
-0.161593
-0.266076
-0.365776
-0.458925
-0.543893
-0.619219
-0.683633
-0.736075
-0.775715
-0.801961
-0.814476
-0.813193
-0.798338
-0.770443
-0.730357
-0.679224
-0.618439
-0.549549
-0.47414
-0.393706
-0.309565
-0.22281
-0.134334
-0.0448832
0.0464936
0.138874
0.229433
0.316961
0.400259
0.478142
0.549454
0.613078
0.667958
0.713116
0.747675
0.770888
0.782158
0.781066
0.767393
0.741134
0.702515
0.652003
0.590299
0.518342
0.437287
0.34849
0.253481
0.153932
0.0516179
-0.0516184
-0.153911
-0.253412
-0.348328
-0.436961
-0.517737
-0.589232
-0.650194
-0.699559
-0.736462
-0.760257
-0.770541
-0.767186
-0.75039
-0.720727
-0.679183
-0.62716
-0.56641
-0.498892
-0.426562
-0.351154
-0.274006
-0.196014
-0.117678
-0.0392328
0.043975
0.131354
0.217016
0.299823
0.378642
0.452357
0.519872
0.580134
0.632138
0.674958
0.70776
0.729831
0.7406
0.739666
0.726812
0.70203
0.665528
0.617743
0.559338
0.491198
0.414419
0.330286
0.240252
0.145905
0.0489331
-0.0489114
-0.145851
-0.240122
-0.33001
-0.413881
-0.490211
-0.557602
-0.614795
-0.660687
-0.694333
-0.714976
-0.722077
-0.715388
-0.695041
-0.661662
-0.61647
-0.561318
-0.498615
-0.431098
-0.361453
-0.291897
-0.22386
-0.157906
-0.0938717
-0.0311386
0.0413878
0.123628
0.20426
0.282216
0.356433
0.425862
0.489474
0.546276
0.595321
0.635733
0.666723
0.687613
0.697862
0.697083
0.685066
0.661798
0.627469
0.582486
0.527472
0.463259
0.390879
0.311547
0.226634
0.137643
0.0461724
-0.0461174
-0.137539
-0.226413
-0.311101
-0.390028
-0.461706
-0.524737
-0.577825
-0.61977
-0.649476
-0.665977
-0.66849
-0.656534
-0.630095
-0.589845
-0.537357
-0.475235
-0.407045
-0.336943
-0.268996
-0.206365
-0.150682
-0.101925
-0.0587766
-0.0191885
0.0387739
0.115823
0.191372
0.264425
0.33399
0.399086
0.458751
0.512052
0.558101
0.596074
0.625226
0.644917
0.654632
0.654004
0.642828
0.621086
0.588951
0.5468
0.495214
0.434973
0.367046
0.292573
0.212846
0.129279
0.0433813
-0.0432789
-0.129104
-0.212497
-0.291887
-0.365749
-0.432609
-0.49104
-0.53965
-0.577069
-0.601935
-0.612925
-0.608836
-0.588763
-0.552384
-0.500352
-0.434728
-0.3593
-0.279585
-0.202266
-0.133973
-0.079675
-0.041384
-0.0179733
-0.0060679
-0.00123434
0.036175
0.108062
0.178557
0.246734
0.311672
0.372458
0.428193
0.478008
0.521072
0.556612
0.58393
0.602421
0.6116
0.611115
0.60077
0.580542
0.550587
0.511252
0.463078
0.406792
0.343298
0.273666
0.199106
0.120946
0.0406052
-0.0404389
-0.120675
-0.198583
-0.272653
-0.341391
-0.403309
-0.456905
-0.500622
-0.532805
-0.551671
-0.555325
-0.541865
-0.509648
-0.45774
-0.386585
-0.298807
-0.199932
-0.0986357
-0.00600163
0.0666008
0.110744
0.123754
0.108981
0.073559
0.0258614
0.0336319
0.100468
0.166016
0.229421
0.289829
0.346393
0.398279
0.444678
0.484815
0.517968
0.543483
0.560794
0.56944
0.56909
0.559554
0.540804
0.51298
0.476402
0.431569
0.379157
0.32001
0.255124
0.185632
0.112777
0.0378889
-0.0376398
-0.11238
-0.184882
-0.253683
-0.317298
-0.374193
-0.422729
-0.461093
-0.487202
-0.498638
-0.49263
-0.466179
-0.416408
-0.341234
-0.24044
-0.117083
0.0210187
0.160342
0.282315
0.366778
0.398488
0.373708
0.300554
0.193213
0.0664659
0.0311837
0.0931566
0.153943
0.212753
0.268798
0.321294
0.369471
0.412576
0.44989
0.480739
0.504513
0.520679
0.528807
0.52858
0.519818
0.502488
0.476714
0.442791
0.401177
0.3525
0.297543
0.237236
0.172633
0.104897
0.0352754
-0.0349236
-0.104345
-0.1716
-0.235256
-0.293815
-0.345651
-0.388925
-0.421451
-0.440547
-0.44289
-0.424443
-0.380555
-0.306388
-0.197828
-0.0530773
0.125032
0.326193
0.53004
0.705686
0.816514
0.833103
0.750093
0.586599
0.370363
0.126278
0.0288674
0.0862394
0.14252
0.196981
0.248896
0.297542
0.342205
0.38219
0.416827
0.445491
0.46761
0.482689
0.49032
0.490205
0.482171
0.466181
0.442346
0.410934
0.372369
0.32723
0.276245
0.220277
0.16031
0.0974301
0.0328052
-0.0323313
-0.0966925
-0.158937
-0.217648
-0.271285
-0.318089
-0.35594
-0.382164
-0.393279
-0.384751
-0.350803
-0.284437
-0.177858
-0.0235893
0.183399
0.442215
0.741088
1.05145
1.32345
1.48947
1.48801
1.31137
1.00611
0.626401
0.21202
0.0267174
0.0798187
0.131916
0.182339
0.23042
0.27549
0.316889
0.353973
0.386122
0.412752
0.43333
0.447393
0.454558
0.454543
0.447181
0.432433
0.410396
0.381316
0.345582
0.303731
0.256437
0.204505
0.14885
0.0904884
0.0305158
-0.0299031
-0.0895392
-0.147088
-0.20113
-0.250056
-0.291928
-0.324278
-0.343819
-0.346077
-0.324983
-0.272517
-0.178538
-0.0310854
0.182491
0.473048
0.845102
1.28929
1.77092
2.21517
2.49749
2.47513
2.13727
1.60532
0.983671
0.330191
0.0247651
0.0739883
0.122287
0.169043
0.21364
0.25546
0.293893
0.32834
0.358225
0.383003
0.402179
0.415315
0.422052
0.422124
0.415369
0.401746
0.381341
0.354379
0.321218
0.282355
0.238419
0.190157
0.138426
0.0841765
0.0284406
-0.0276774
-0.0829972
-0.136239
-0.185965
-0.230474
-0.267614
-0.294508
-0.307156
-0.299922
-0.264927
-0.191438
-0.0654067
0.130551
0.416338
0.812075
1.33332
1.98197
2.72891
3.48082
4.02195
3.97639
3.32942
2.4275
1.45711
0.48412
0.0230384
0.0688316
0.11377
0.157282
0.198797
0.237742
0.273549
0.305661
0.33354
0.356678
0.374609
0.386921
0.393277
0.393422
0.387202
0.374572
0.355611
0.330521
0.299637
0.263421
0.222457
0.177447
0.129192
0.0785876
0.026609
-0.0256908
-0.0771706
-0.126565
-0.172406
-0.212884
-0.245609
-0.267258
-0.273059
-0.256108
-0.206532
-0.110568
0.0502947
0.299856
0.667071
1.18474
1.88623
2.79877
3.92829
5.21724
6.39308
6.3231
4.98815
3.48201
2.03688
0.668786
0.0215617
0.0644213
0.106486
0.147224
0.186101
0.222586
0.256145
0.286258
0.31242
0.334153
0.351016
0.362622
0.368648
0.368854
0.363089
0.351308
0.333579
0.310092
0.281157
0.247205
0.208787
0.166561
0.121284
0.0738031
0.0250459
-0.0239771
-0.072155
-0.118228
-0.160691
-0.197618
-0.226378
-0.243197
-0.242522
-0.216169
-0.15224
-0.033871
0.162073
0.466148
0.917089
1.56199
2.45602
3.66294
5.26139
7.37641
10.3198
10.2258
7.07049
4.67102
2.66338
0.865283
0.0203555
0.0608188
0.100536
0.139006
0.17573
0.210203
0.241926
0.270405
0.295162
0.315745
0.331734
0.342761
0.348517
0.34877
0.343376
0.332287
0.315566
0.293387
0.266044
0.233944
0.197607
0.157658
0.114817
0.0698919
0.0237716
-0.0225666
-0.0680341
-0.111372
-0.151034
-0.184985
-0.210367
-0.222985
-0.216565
-0.181737
-0.104722
0.0342208
0.262516
0.616964
1.14523
1.9071
2.97575
4.4408
6.41668
9.06522
12.6425
12.5265
8.68919
5.6946
3.22364
1.04329
0.0194362
0.0580733
0.0960013
0.132744
0.167826
0.200766
0.231088
0.258321
0.282007
0.301712
0.317034
0.327618
0.333167
0.333456
0.328343
0.317781
0.301827
0.280647
0.254517
0.223829
0.18908
0.150867
0.109885
0.0669094
0.0228022
-0.0214848
-0.0648787
-0.106117
-0.143619
-0.175254
-0.197973
-0.207228
-0.196144
-0.15436
-0.066536
0.0894528
0.344549
0.740584
1.33218
2.18833
3.39368
5.05012
7.27945
10.2273
14.0609
13.9268
9.79347
6.44891
3.65435
1.18265
0.0188164
0.0562219
0.0929435
0.128522
0.162496
0.194402
0.22378
0.250172
0.273136
0.292248
0.30712
0.317405
0.322814
0.323126
0.318203
0.307996
0.292559
0.272051
0.246741
0.217005
0.183326
0.146286
0.106557
0.0648977
0.0221495
-0.020752
-0.0627435
-0.10256
-0.138592
-0.168641
-0.189518
-0.196426
-0.182055
-0.135336
-0.0398179
0.12831
0.402449
0.82787
1.46376
2.38471
3.68131
5.45951
7.83806
10.9419
14.886
14.7391
10.4671
6.93076
3.93792
1.27572
0.0185045
0.0552902
0.0914044
0.126396
0.159813
0.191199
0.220101
0.24607
0.268669
0.287484
0.302129
0.312263
0.317601
0.317925
0.313097
0.303069
0.287892
0.267723
0.242825
0.213568
0.180429
0.143978
0.104881
0.0638848
0.0218212
-0.020382
-0.0616664
-0.100764
-0.136052
-0.165295
-0.185233
-0.190934
-0.174863
-0.125586
-0.0260733
0.148354
0.432353
0.87292
1.53146
2.48513
3.82687
5.66343
8.11016
11.2805
15.2672
15.1136
10.7844
7.16319
4.07705
1.32178
)
;

boundaryField
{
    walls
    {
        type            calculated;
        value           nonuniform List<scalar> 
200
(
0.0185045
0.0552902
0.0914044
0.126396
0.159813
0.191199
0.220101
0.24607
0.268669
0.287484
0.302129
0.312263
0.317601
0.317925
0.313097
0.303069
0.287892
0.267723
0.242825
0.213568
0.180429
0.143978
0.104881
0.0638848
0.0218212
-0.020382
-0.0616664
-0.100764
-0.136052
-0.165295
-0.185233
-0.190934
-0.174863
-0.125586
-0.0260733
0.148354
0.432353
0.87292
1.53146
2.48513
3.82687
5.66343
8.11016
11.2805
15.2672
15.1136
10.7844
7.16319
4.07705
1.32178
0
0
0
0
0
0
0
0
0
0
0
0
0
0
0
0
0
0
0
0
0
0
0
0
0
0
0
0
0
0
0
0
0
0
0
0
0
0
0
0
0
0
0
0
0
0
0
0
0
0
0
0
0
0
0
0
0
0
0
0
0
0
0
0
0
0
0
0
0
0
0
0
0
0
0
0
0
0
0
0
0
0
0
0
0
0
0
0
0
0
0
0
0
0
0
0
0
0
0
0
0.0185025
0.0552836
0.0913922
0.126379
0.159792
0.191176
0.220077
0.246045
0.268645
0.287461
0.302108
0.312245
0.317587
0.317914
0.31309
0.303067
0.287894
0.267728
0.242832
0.213575
0.180427
0.143954
0.104803
0.0636874
0.0213733
-0.0213443
-0.0636592
-0.104776
-0.143929
-0.180405
-0.213556
-0.242817
-0.267717
-0.287887
-0.303063
-0.313091
-0.317919
-0.317594
-0.312256
-0.302121
-0.287476
-0.268661
-0.246061
-0.220093
-0.191191
-0.159806
-0.126391
-0.0914001
-0.0552877
-0.0185037
)
;
    }
    frontAndBack
    {
        type            empty;
    }
}


// ************************************************************************* //
