/*--------------------------------*- C++ -*----------------------------------*\
| =========                 |                                                 |
| \\      /  F ield         | OpenFOAM: The Open Source CFD Toolbox           |
|  \\    /   O peration     | Version:  2406                                  |
|   \\  /    A nd           | Website:  www.openfoam.com                      |
|    \\/     M anipulation  |                                                 |
\*---------------------------------------------------------------------------*/
FoamFile
{
    version     2.0;
    format      ascii;
    arch        "LSB;label=32;scalar=64";
    class       volScalarField;
    location    "0.25";
    object      T;
}
// * * * * * * * * * * * * * * * * * * * * * * * * * * * * * * * * * * * * * //

dimensions      [0 0 0 1 0 0 0];

internalField   nonuniform List<scalar> 
2500
(
0.0406534
0.0413935
0.0428648
0.0450492
0.0479199
0.0514409
0.055567
0.060244
0.0654088
0.0709898
0.0769072
0.0830741
0.089397
0.0957776
0.102114
0.108301
0.114236
0.119817
0.124945
0.12953
0.133488
0.136747
0.139247
0.140939
0.141794
0.141794
0.14094
0.139248
0.136749
0.133491
0.129533
0.124949
0.11982
0.11424
0.108305
0.102117
0.0957812
0.0894006
0.0830774
0.0769103
0.0709926
0.0654113
0.0602462
0.0555689
0.0514425
0.0479212
0.0450502
0.0428656
0.0413942
0.0406541
0.0413935
0.0421461
0.0436421
0.0458633
0.0487823
0.0523623
0.0565575
0.0613126
0.0665634
0.072237
0.0782524
0.084521
0.0909479
0.097433
0.103873
0.110161
0.116192
0.121863
0.127075
0.131733
0.135755
0.139066
0.141606
0.143326
0.144194
0.144194
0.143326
0.141607
0.139068
0.135757
0.131736
0.127078
0.121867
0.116196
0.110165
0.103876
0.0974367
0.0909515
0.0845245
0.0782556
0.07224
0.066566
0.0613149
0.0565595
0.052364
0.0487837
0.0458644
0.043643
0.0421469
0.0413943
0.0428648
0.0436421
0.0451874
0.0474816
0.0504965
0.0541938
0.0585262
0.0634364
0.068858
0.0747157
0.0809256
0.0873963
0.0940296
0.100722
0.107367
0.113856
0.120079
0.125929
0.131305
0.13611
0.140258
0.143673
0.146292
0.148066
0.148962
0.148962
0.148067
0.146294
0.143675
0.140261
0.136113
0.131308
0.125933
0.120083
0.11386
0.107371
0.100726
0.0940335
0.0873999
0.080929
0.0747189
0.0688609
0.0634389
0.0585284
0.0541957
0.0504981
0.047483
0.0451885
0.0436431
0.0428657
0.0450492
0.0458633
0.0474816
0.0498842
0.0530412
0.0569126
0.0614484
0.0665887
0.0722637
0.0783942
0.0848926
0.0916628
0.0986023
0.105603
0.112553
0.119338
0.125844
0.131961
0.13758
0.142603
0.146938
0.150507
0.153244
0.155098
0.156033
0.156034
0.155098
0.153246
0.150509
0.146941
0.142606
0.137584
0.131964
0.125848
0.119342
0.112557
0.105607
0.0986064
0.0916667
0.0848963
0.0783977
0.0722668
0.0665915
0.0614509
0.0569148
0.0530431
0.0498859
0.0474831
0.0458646
0.0450504
0.0479199
0.0487823
0.0504965
0.0530412
0.0563847
0.0604845
0.0652872
0.0707293
0.0767366
0.0832252
0.0901018
0.097265
0.104606
0.11201
0.11936
0.126534
0.133412
0.139877
0.145816
0.151124
0.155705
0.159476
0.162367
0.164325
0.165314
0.165314
0.164326
0.162369
0.159478
0.155708
0.151127
0.14582
0.139881
0.133416
0.126538
0.119364
0.112015
0.10461
0.0972693
0.0901059
0.083229
0.0767401
0.0707325
0.0652901
0.060487
0.056387
0.0530432
0.0504983
0.048784
0.0479215
0.0514409
0.0523623
0.0541938
0.0569126
0.0604845
0.0648637
0.0699932
0.0758047
0.0822187
0.0891453
0.0964849
0.104129
0.111961
0.11986
0.127698
0.135347
0.142681
0.149572
0.155902
0.161558
0.166439
0.170457
0.173537
0.175623
0.176676
0.176677
0.175624
0.173539
0.170459
0.166442
0.161562
0.155906
0.149577
0.142685
0.135352
0.127703
0.119864
0.111966
0.104134
0.0964894
0.0891496
0.0822226
0.0758083
0.0699965
0.0648667
0.0604872
0.0569151
0.0541961
0.0523644
0.0514429
0.055567
0.0565575
0.0585262
0.0614484
0.0652872
0.0699932
0.0755047
0.081748
0.0886374
0.0960761
0.103957
0.112162
0.120569
0.129044
0.137453
0.145659
0.153523
0.160913
0.167699
0.173762
0.178994
0.1833
0.1866
0.188836
0.189964
0.189964
0.188837
0.186602
0.183302
0.178997
0.173766
0.167703
0.160917
0.153528
0.145664
0.137459
0.129049
0.120574
0.112168
0.103962
0.0960808
0.0886418
0.0817521
0.0755085
0.0699967
0.0652904
0.0614514
0.0585289
0.0565601
0.0555695
0.060244
0.0613126
0.0634364
0.0665887
0.0707293
0.0758047
0.081748
0.0884793
0.095906
0.103923
0.112415
0.121256
0.13031
0.139438
0.148492
0.157325
0.165789
0.173741
0.181043
0.187565
0.193193
0.197823
0.201373
0.203777
0.20499
0.204991
0.203778
0.201375
0.197826
0.193196
0.187569
0.181047
0.173746
0.165795
0.15733
0.148498
0.139443
0.130316
0.121261
0.112421
0.103928
0.0959109
0.0884839
0.0817523
0.0758086
0.070733
0.0665921
0.0634396
0.0613156
0.060247
0.0654088
0.0665634
0.068858
0.0722637
0.0767366
0.0822187
0.0886374
0.095906
0.103924
0.112578
0.121743
0.131282
0.14105
0.150894
0.160658
0.170181
0.179305
0.187876
0.195743
0.202771
0.208834
0.213822
0.217645
0.220234
0.221541
0.221541
0.220236
0.217648
0.213825
0.208837
0.202775
0.195748
0.187881
0.179311
0.170187
0.160664
0.1509
0.141056
0.131288
0.121749
0.112584
0.103929
0.095911
0.0886421
0.0822231
0.0767407
0.0722676
0.0688618
0.0665669
0.0654123
0.0709898
0.072237
0.0747157
0.0783942
0.0832252
0.0891453
0.0960761
0.103923
0.112578
0.121918
0.131807
0.142098
0.152634
0.16325
0.173777
0.184043
0.193876
0.203112
0.211589
0.21916
0.22569
0.231063
0.23518
0.237968
0.239375
0.239376
0.23797
0.235183
0.231066
0.225694
0.219164
0.211594
0.203117
0.193882
0.184049
0.173783
0.163256
0.15264
0.142104
0.131813
0.121924
0.112584
0.103929
0.0960812
0.0891502
0.0832298
0.0783986
0.0747199
0.0722411
0.0709937
0.0769072
0.0782524
0.0809256
0.0848926
0.0901018
0.0964849
0.103957
0.112415
0.121743
0.131807
0.142461
0.153546
0.164892
0.176323
0.187656
0.198705
0.209288
0.219225
0.228345
0.236489
0.243512
0.24929
0.253719
0.256717
0.25823
0.25823
0.256718
0.253721
0.249294
0.243516
0.236493
0.22835
0.219231
0.209294
0.198712
0.187662
0.17633
0.164899
0.153552
0.142467
0.131813
0.121749
0.112421
0.103962
0.0964902
0.0901069
0.0848974
0.0809302
0.0782569
0.0769116
0.0830741
0.084521
0.0873963
0.0916628
0.097265
0.104129
0.112162
0.121256
0.131282
0.142098
0.153546
0.165454
0.177642
0.189918
0.202087
0.213949
0.225309
0.235973
0.24576
0.254497
0.262032
0.268231
0.27298
0.276196
0.277819
0.277819
0.276197
0.272983
0.268234
0.262037
0.254502
0.245765
0.235979
0.225315
0.213956
0.202093
0.189925
0.177649
0.165461
0.153553
0.142105
0.131288
0.121262
0.112168
0.104135
0.0972704
0.091668
0.0874013
0.0845259
0.0830789
0.089397
0.0909479
0.0940296
0.0986023
0.104606
0.111961
0.120569
0.13031
0.14105
0.152634
0.164892
0.177642
0.190688
0.203827
0.216848
0.22954
0.241692
0.253099
0.263565
0.272909
0.280965
0.287592
0.29267
0.296107
0.297842
0.297842
0.296109
0.292672
0.287595
0.28097
0.272914
0.263571
0.253105
0.241699
0.229547
0.216856
0.203834
0.190696
0.177649
0.164899
0.152641
0.141057
0.130317
0.120575
0.111967
0.104612
0.0986078
0.094035
0.0909531
0.0894022
0.0957776
0.097433
0.100722
0.105603
0.11201
0.11986
0.129044
0.139438
0.150894
0.16325
0.176323
0.189918
0.203827
0.217832
0.23171
0.245235
0.258183
0.270335
0.281483
0.291435
0.300015
0.307071
0.312478
0.316138
0.317985
0.317986
0.31614
0.312481
0.307075
0.300019
0.29144
0.281489
0.270341
0.258189
0.245242
0.231718
0.21784
0.203834
0.189925
0.17633
0.163257
0.150901
0.139444
0.12905
0.119866
0.112016
0.105609
0.100728
0.0974384
0.095783
0.102114
0.103873
0.107367
0.112553
0.11936
0.127698
0.137453
0.148492
0.160658
0.173777
0.187656
0.202087
0.216848
0.23171
0.246435
0.260783
0.274517
0.287405
0.299227
0.30978
0.318877
0.326358
0.33209
0.335969
0.337927
0.337928
0.335971
0.332092
0.326361
0.318881
0.309784
0.299233
0.287411
0.274523
0.26079
0.246442
0.231718
0.216856
0.202094
0.187663
0.173784
0.160665
0.148499
0.13746
0.127704
0.119366
0.112559
0.107373
0.103878
0.102119
0.108301
0.110161
0.113856
0.119338
0.126534
0.135347
0.145659
0.157325
0.170181
0.184043
0.198705
0.213949
0.22954
0.245235
0.260783
0.275931
0.290429
0.304033
0.31651
0.327646
0.337245
0.345139
0.351186
0.355279
0.357345
0.357345
0.355281
0.351188
0.345142
0.337249
0.32765
0.316515
0.304038
0.290435
0.275938
0.26079
0.245242
0.229548
0.213956
0.198712
0.18405
0.170188
0.157332
0.145665
0.135354
0.12654
0.119344
0.113862
0.110167
0.108307
0.114236
0.116192
0.120079
0.125844
0.133412
0.142681
0.153523
0.165789
0.179305
0.193876
0.209288
0.225309
0.241692
0.258183
0.274517
0.290429
0.305656
0.319943
0.333045
0.344738
0.354817
0.363104
0.369453
0.37375
0.375918
0.375918
0.373751
0.369455
0.363107
0.35482
0.344742
0.33305
0.319948
0.305662
0.290435
0.274523
0.25819
0.241699
0.225316
0.209295
0.193883
0.179312
0.165796
0.15353
0.142687
0.133418
0.12585
0.120084
0.116198
0.114242
0.119817
0.121863
0.125929
0.131961
0.139877
0.149572
0.160913
0.173741
0.187876
0.203112
0.219225
0.235973
0.253099
0.270335
0.287405
0.304033
0.319943
0.334869
0.348557
0.360771
0.371298
0.379953
0.386584
0.391072
0.393336
0.393336
0.391073
0.386586
0.379956
0.371301
0.360775
0.348561
0.334874
0.319948
0.304038
0.287411
0.270341
0.253106
0.23598
0.219232
0.203118
0.187882
0.173747
0.160919
0.149578
0.139883
0.131966
0.125935
0.121869
0.119823
0.124945
0.127075
0.131305
0.13758
0.145816
0.155902
0.167699
0.181043
0.195743
0.211589
0.228345
0.24576
0.263565
0.281483
0.299227
0.31651
0.333045
0.348557
0.36278
0.375471
0.386409
0.395401
0.40229
0.406952
0.409304
0.409304
0.406953
0.402291
0.395404
0.386412
0.375475
0.362784
0.348561
0.333051
0.316515
0.299233
0.281489
0.263571
0.245766
0.228351
0.211595
0.195749
0.181048
0.167705
0.155908
0.145822
0.137586
0.13131
0.12708
0.124951
0.12953
0.131733
0.13611
0.142603
0.151124
0.161558
0.173762
0.187565
0.202771
0.21916
0.236489
0.254497
0.272909
0.291435
0.30978
0.327646
0.344738
0.360771
0.375471
0.388587
0.39989
0.409182
0.416301
0.421118
0.423548
0.423549
0.421119
0.416302
0.409185
0.399893
0.38859
0.375475
0.360775
0.344743
0.32765
0.309785
0.29144
0.272914
0.254503
0.236494
0.219165
0.202777
0.187571
0.173768
0.161564
0.151129
0.142608
0.136115
0.131739
0.129536
0.133488
0.135755
0.140258
0.146938
0.155705
0.166439
0.178994
0.193193
0.208834
0.22569
0.243512
0.262032
0.280965
0.300015
0.318877
0.337245
0.354817
0.371298
0.386409
0.39989
0.411507
0.421058
0.428374
0.433325
0.435823
0.435823
0.433326
0.428375
0.42106
0.41151
0.399893
0.386412
0.371301
0.354821
0.337249
0.318881
0.300019
0.28097
0.262037
0.243517
0.225695
0.208839
0.193198
0.178999
0.166445
0.15571
0.146943
0.140263
0.13576
0.133494
0.136747
0.139066
0.143673
0.150507
0.159476
0.170457
0.1833
0.197823
0.213822
0.231063
0.24929
0.268231
0.287592
0.307071
0.326358
0.345139
0.363104
0.379953
0.395401
0.409182
0.421058
0.430821
0.438299
0.443359
0.445912
0.445913
0.44336
0.4383
0.430823
0.42106
0.409185
0.395404
0.379956
0.363107
0.345142
0.326361
0.307075
0.287596
0.268235
0.249295
0.231067
0.213826
0.197828
0.183304
0.170462
0.159481
0.150512
0.143679
0.139072
0.136753
0.139247
0.141606
0.146292
0.153244
0.162367
0.173537
0.1866
0.201373
0.217645
0.23518
0.253719
0.27298
0.29267
0.312478
0.33209
0.351186
0.369453
0.386584
0.40229
0.416301
0.428374
0.438299
0.445901
0.451045
0.45364
0.453641
0.451046
0.445902
0.4383
0.428375
0.416302
0.402292
0.386586
0.369455
0.351189
0.332092
0.312481
0.292673
0.272984
0.253722
0.235184
0.21765
0.201378
0.186605
0.173542
0.162372
0.15325
0.146298
0.141612
0.139253
0.140939
0.143326
0.148066
0.155098
0.164325
0.175623
0.188836
0.203777
0.220234
0.237968
0.256717
0.276196
0.296107
0.316138
0.335969
0.355279
0.37375
0.391072
0.406952
0.421118
0.433325
0.443359
0.451045
0.456246
0.45887
0.45887
0.456246
0.451046
0.44336
0.433326
0.421119
0.406953
0.391073
0.373751
0.355281
0.335971
0.31614
0.29611
0.276199
0.25672
0.237972
0.220239
0.203782
0.188841
0.17563
0.164332
0.155105
0.148074
0.143334
0.140948
0.141794
0.144194
0.148962
0.156033
0.165314
0.176676
0.189964
0.20499
0.221541
0.239375
0.25823
0.277819
0.297842
0.317985
0.337927
0.357345
0.375918
0.393336
0.409304
0.423548
0.435823
0.445912
0.45364
0.45887
0.461508
0.461508
0.45887
0.453641
0.445913
0.435823
0.423549
0.409304
0.393337
0.375919
0.357346
0.337929
0.317987
0.297844
0.277822
0.258233
0.23938
0.221547
0.204997
0.189972
0.176686
0.165325
0.156045
0.148975
0.144208
0.141808
0.141794
0.144194
0.148962
0.156034
0.165314
0.176677
0.189964
0.204991
0.221541
0.239376
0.25823
0.277819
0.297842
0.317986
0.337928
0.357345
0.375918
0.393336
0.409304
0.423549
0.435823
0.445913
0.453641
0.45887
0.461508
0.461508
0.45887
0.45364
0.445913
0.435823
0.423549
0.409304
0.393336
0.375919
0.357346
0.337929
0.317987
0.297845
0.277823
0.258235
0.239383
0.221551
0.205003
0.189979
0.176694
0.165334
0.156056
0.148986
0.14422
0.141821
0.14094
0.143326
0.148067
0.155098
0.164326
0.175624
0.188837
0.203778
0.220236
0.23797
0.256718
0.276197
0.296109
0.31614
0.335971
0.355281
0.373751
0.391073
0.406953
0.421119
0.433326
0.44336
0.451046
0.456246
0.45887
0.45887
0.456246
0.451045
0.443359
0.433325
0.421118
0.406952
0.391072
0.373751
0.355281
0.335972
0.316142
0.296113
0.276204
0.256728
0.237983
0.220254
0.203801
0.188865
0.175658
0.164366
0.155143
0.148115
0.143377
0.140993
0.139248
0.141607
0.146294
0.153246
0.162369
0.173539
0.186602
0.201375
0.217648
0.235183
0.253721
0.272983
0.292672
0.312481
0.332092
0.351188
0.369455
0.386586
0.402291
0.416302
0.428375
0.4383
0.445902
0.451046
0.453641
0.45364
0.451045
0.445901
0.438299
0.428374
0.416301
0.402291
0.386585
0.369455
0.351189
0.332095
0.312486
0.292681
0.272996
0.25374
0.235209
0.217683
0.201421
0.186659
0.173607
0.162448
0.153335
0.146391
0.14171
0.139354
0.136749
0.139068
0.143675
0.150509
0.159478
0.170459
0.183302
0.197826
0.213825
0.231066
0.249294
0.268234
0.287595
0.307075
0.326361
0.345142
0.363107
0.379956
0.395404
0.409185
0.42106
0.430823
0.4383
0.44336
0.445913
0.445913
0.443359
0.438299
0.430821
0.421059
0.409183
0.395403
0.379956
0.363108
0.345145
0.326367
0.307086
0.287613
0.268261
0.249332
0.231119
0.213896
0.197918
0.183416
0.170596
0.159636
0.150688
0.14387
0.139275
0.136962
0.133491
0.135757
0.140261
0.146941
0.155708
0.166442
0.178997
0.193196
0.208837
0.225694
0.243516
0.262037
0.28097
0.300019
0.318881
0.337249
0.35482
0.371301
0.386412
0.399893
0.41151
0.42106
0.428375
0.433326
0.435823
0.435823
0.433325
0.428374
0.421059
0.411508
0.399891
0.386411
0.371302
0.354824
0.337256
0.318894
0.300042
0.281005
0.26209
0.243593
0.225799
0.208977
0.193376
0.179221
0.166711
0.15602
0.147293
0.140646
0.136166
0.133912
0.129533
0.131736
0.136113
0.142606
0.151127
0.161562
0.173766
0.187569
0.202775
0.219164
0.236493
0.254502
0.272914
0.29144
0.309784
0.32765
0.344742
0.360775
0.375475
0.38859
0.399893
0.409185
0.416302
0.421119
0.423549
0.423549
0.421118
0.416301
0.409183
0.399891
0.388589
0.375476
0.360778
0.344751
0.327666
0.309812
0.291485
0.272983
0.254605
0.236641
0.219367
0.203045
0.187916
0.174197
0.16208
0.151732
0.143288
0.13686
0.132529
0.13035
0.124949
0.127078
0.131308
0.137584
0.14582
0.155906
0.167703
0.181047
0.195748
0.211594
0.22835
0.245765
0.263571
0.281489
0.299233
0.316515
0.33305
0.348561
0.362784
0.375475
0.386412
0.395404
0.402292
0.406953
0.409304
0.409304
0.406952
0.402291
0.395403
0.386411
0.375476
0.362788
0.34857
0.333068
0.316547
0.299286
0.281574
0.263701
0.245958
0.228625
0.211973
0.196254
0.181699
0.168516
0.156887
0.146965
0.138879
0.132727
0.128586
0.126503
0.11982
0.121867
0.125933
0.131964
0.139881
0.149577
0.160917
0.173746
0.187881
0.203117
0.219231
0.235979
0.253105
0.270341
0.287411
0.304038
0.319948
0.334874
0.348561
0.360775
0.371301
0.379956
0.386586
0.391073
0.393337
0.393336
0.391072
0.386585
0.379956
0.371302
0.360778
0.34857
0.334892
0.319982
0.304097
0.287508
0.270495
0.253342
0.236329
0.219731
0.20381
0.188807
0.174944
0.162416
0.15139
0.142004
0.134369
0.128571
0.124672
0.122713
0.11424
0.116196
0.120083
0.125848
0.133416
0.142685
0.153528
0.165795
0.179311
0.193882
0.209294
0.225315
0.241699
0.258189
0.274523
0.290435
0.305662
0.319948
0.333051
0.344743
0.354821
0.363107
0.369455
0.373751
0.375919
0.375919
0.373751
0.369455
0.363108
0.354824
0.344751
0.333068
0.319982
0.305723
0.290539
0.274694
0.258461
0.242115
0.225933
0.210182
0.195115
0.180967
0.167946
0.15623
0.145964
0.137264
0.130216
0.124882
0.121304
0.119508
0.108305
0.110165
0.11386
0.119342
0.126538
0.135352
0.145664
0.15733
0.170187
0.184049
0.198712
0.213956
0.229547
0.245242
0.26079
0.275938
0.290435
0.304038
0.316515
0.32765
0.337249
0.345142
0.351189
0.355281
0.357346
0.357346
0.355281
0.351189
0.345145
0.337256
0.327666
0.316547
0.304097
0.290539
0.276115
0.261081
0.245704
0.230259
0.215017
0.200243
0.186188
0.173076
0.161101
0.15042
0.141146
0.133357
0.1271
0.122397
0.119259
0.11769
0.102117
0.103876
0.107371
0.112557
0.119364
0.127703
0.137459
0.148498
0.160664
0.173783
0.187662
0.202093
0.216856
0.231718
0.246442
0.26079
0.274523
0.287411
0.299233
0.309785
0.318881
0.326361
0.332092
0.335971
0.337929
0.337929
0.335972
0.332095
0.326367
0.318894
0.309812
0.299286
0.287508
0.274694
0.261081
0.246921
0.232482
0.218038
0.203866
0.190236
0.1774
0.165577
0.154947
0.145633
0.137703
0.131175
0.126027
0.12222
0.119711
0.118465
0.0957812
0.0974367
0.100726
0.105607
0.112015
0.119864
0.129049
0.139443
0.1509
0.163256
0.17633
0.189925
0.203834
0.21784
0.231718
0.245242
0.25819
0.270341
0.281489
0.29144
0.300019
0.307075
0.312481
0.31614
0.317987
0.317987
0.316142
0.312486
0.307086
0.300042
0.291485
0.281574
0.270495
0.258461
0.245704
0.232482
0.219065
0.205742
0.192804
0.180538
0.16921
0.159044
0.150201
0.142762
0.136723
0.132002
0.128468
0.125975
0.124391
0.123624
0.0894006
0.0909515
0.0940335
0.0986064
0.10461
0.111966
0.120574
0.130316
0.141056
0.15264
0.164899
0.177649
0.190696
0.203834
0.216856
0.229548
0.241699
0.253106
0.263571
0.272914
0.28097
0.287596
0.292673
0.29611
0.297844
0.297845
0.296113
0.292681
0.287613
0.281005
0.272983
0.263701
0.253342
0.242115
0.230259
0.218038
0.205742
0.193684
0.182191
0.171589
0.162177
0.1542
0.147805
0.143016
0.139715
0.137657
0.136528
0.136002
0.135809
0.135759
0.0830774
0.0845245
0.0873999
0.0916667
0.0972693
0.104134
0.112168
0.121261
0.131288
0.142104
0.153552
0.165461
0.177649
0.189925
0.202094
0.213956
0.225316
0.23598
0.245766
0.254503
0.262037
0.268235
0.272984
0.276199
0.277822
0.277823
0.276204
0.272996
0.268261
0.26209
0.254605
0.245958
0.236329
0.225933
0.215017
0.203866
0.192804
0.182191
0.172418
0.163882
0.156955
0.151929
0.148957
0.147984
0.148717
0.150648
0.153147
0.155598
0.157506
0.158541
0.0769103
0.0782556
0.080929
0.0848963
0.0901059
0.0964894
0.103962
0.112421
0.121749
0.131813
0.142467
0.153553
0.164899
0.17633
0.187663
0.198712
0.209295
0.219232
0.228351
0.236494
0.243517
0.249295
0.253722
0.25672
0.258233
0.258235
0.256728
0.25374
0.249332
0.243593
0.236641
0.228625
0.219731
0.210182
0.200243
0.190236
0.180538
0.171589
0.163882
0.15794
0.154264
0.153256
0.155105
0.15967
0.166398
0.174341
0.182337
0.189289
0.194359
0.197018
0.0709926
0.07224
0.0747189
0.0783977
0.083229
0.0891496
0.0960808
0.103928
0.112584
0.121924
0.131813
0.142105
0.152641
0.163257
0.173784
0.18405
0.193883
0.203118
0.211595
0.219165
0.225695
0.231067
0.235184
0.237972
0.23938
0.239383
0.237983
0.235209
0.231119
0.225799
0.219367
0.211973
0.20381
0.195115
0.186188
0.1774
0.16921
0.162177
0.156955
0.154264
0.154831
0.159265
0.167879
0.180467
0.196107
0.213128
0.229431
0.243131
0.252895
0.257946
0.0654113
0.066566
0.0688609
0.0722668
0.0767401
0.0822226
0.0886418
0.0959109
0.103929
0.112584
0.121749
0.131288
0.141057
0.150901
0.160665
0.170188
0.179312
0.187882
0.195749
0.202777
0.208839
0.213826
0.21765
0.220239
0.221547
0.221551
0.220254
0.217683
0.213896
0.208977
0.203045
0.196254
0.188807
0.180967
0.173076
0.165577
0.159044
0.1542
0.151929
0.153256
0.159265
0.170945
0.188909
0.213003
0.241847
0.272582
0.301367
0.325037
0.341612
0.350093
0.0602462
0.0613149
0.0634389
0.0665915
0.0707325
0.0758083
0.0817521
0.0884839
0.095911
0.103929
0.112421
0.121262
0.130317
0.139444
0.148499
0.157332
0.165796
0.173747
0.181048
0.187571
0.193198
0.197828
0.201378
0.203782
0.204997
0.205003
0.203801
0.201421
0.197918
0.193376
0.187916
0.181699
0.174944
0.167946
0.161101
0.154947
0.150201
0.147805
0.148957
0.155105
0.167879
0.188909
0.219451
0.259746
0.308058
0.359645
0.407063
0.445136
0.471275
0.484483
0.0555689
0.0565595
0.0585284
0.0614509
0.0652901
0.0699965
0.0755085
0.0817523
0.0886421
0.0960812
0.103962
0.112168
0.120575
0.12905
0.13746
0.145665
0.15353
0.160919
0.167705
0.173768
0.178999
0.183304
0.186605
0.188841
0.189972
0.189979
0.188865
0.186659
0.183416
0.179221
0.174197
0.168516
0.162416
0.15623
0.15042
0.145633
0.142762
0.143016
0.147984
0.15967
0.180467
0.213003
0.259746
0.322159
0.398979
0.483037
0.558034
0.616214
0.655134
0.674499
0.0514425
0.052364
0.0541957
0.0569148
0.060487
0.0648667
0.0699967
0.0758086
0.0822231
0.0891502
0.0964902
0.104135
0.111967
0.119866
0.127704
0.135354
0.142687
0.149578
0.155908
0.161564
0.166445
0.170462
0.173542
0.17563
0.176686
0.176694
0.175658
0.173607
0.170596
0.166711
0.16208
0.156887
0.15139
0.145964
0.141146
0.137703
0.136723
0.139715
0.148717
0.166398
0.196107
0.241847
0.308058
0.398979
0.516747
0.654702
0.769671
0.854228
0.908952
0.935703
0.0479212
0.0487837
0.0504981
0.0530431
0.056387
0.0604872
0.0652904
0.070733
0.0767407
0.0832298
0.0901069
0.0972704
0.104612
0.112016
0.119366
0.12654
0.133418
0.139883
0.145822
0.151129
0.15571
0.159481
0.162372
0.164332
0.165325
0.165334
0.164366
0.162448
0.159636
0.15602
0.151732
0.146965
0.142004
0.137264
0.133357
0.131175
0.132002
0.137657
0.150648
0.174341
0.213128
0.272582
0.359645
0.483037
0.654702
0.895831
1.06373
1.17865
1.25057
1.28519
0.0450502
0.0458644
0.047483
0.0498859
0.0530432
0.0569151
0.0614514
0.0665921
0.0722676
0.0783986
0.0848974
0.091668
0.0986078
0.105609
0.112559
0.119344
0.12585
0.131966
0.137586
0.142608
0.146943
0.150512
0.15325
0.155105
0.156045
0.156056
0.155143
0.153335
0.150688
0.147293
0.143288
0.138879
0.134369
0.130216
0.1271
0.126027
0.128468
0.136528
0.153147
0.182337
0.229431
0.301367
0.407063
0.558034
0.769671
1.06373
1.27073
1.4113
1.49851
1.54025
0.0428656
0.043643
0.0451885
0.0474831
0.0504983
0.0541961
0.0585289
0.0634396
0.0688618
0.0747199
0.0809302
0.0874013
0.094035
0.100728
0.107373
0.113862
0.120084
0.125935
0.13131
0.136115
0.140263
0.143679
0.146298
0.148074
0.148975
0.148986
0.148115
0.146391
0.14387
0.140646
0.13686
0.132727
0.128571
0.124882
0.122397
0.12222
0.125975
0.136002
0.155598
0.189289
0.243131
0.325037
0.445136
0.616214
0.854228
1.17865
1.4113
1.57039
1.66926
1.71656
0.0413942
0.0421469
0.0436431
0.0458646
0.048784
0.0523644
0.0565601
0.0613156
0.0665669
0.0722411
0.0782569
0.0845259
0.0909531
0.0974384
0.103878
0.110167
0.116198
0.121869
0.12708
0.131739
0.13576
0.139072
0.141612
0.143334
0.144208
0.14422
0.143377
0.14171
0.139275
0.136166
0.132529
0.128586
0.124672
0.121304
0.119259
0.119711
0.124391
0.135809
0.157506
0.194359
0.252895
0.341612
0.471275
0.655134
0.908952
1.25057
1.49851
1.66926
1.77575
1.82677
0.0406541
0.0413943
0.0428657
0.0450504
0.0479215
0.0514429
0.0555695
0.060247
0.0654123
0.0709937
0.0769116
0.0830789
0.0894022
0.095783
0.102119
0.108307
0.114242
0.119823
0.124951
0.129536
0.133494
0.136753
0.139253
0.140948
0.141808
0.141821
0.140993
0.139354
0.136962
0.133912
0.13035
0.126503
0.122713
0.119508
0.11769
0.118465
0.123624
0.135759
0.158541
0.197018
0.257946
0.350093
0.484483
0.674499
0.935703
1.28519
1.54025
1.71656
1.82677
1.87965
)
;

boundaryField
{
    walls
    {
        type            zeroGradient;
    }
    frontAndBack
    {
        type            empty;
    }
}


// ************************************************************************* //
