/*--------------------------------*- C++ -*----------------------------------*\
| =========                 |                                                 |
| \\      /  F ield         | OpenFOAM: The Open Source CFD Toolbox           |
|  \\    /   O peration     | Version:  2406                                  |
|   \\  /    A nd           | Website:  www.openfoam.com                      |
|    \\/     M anipulation  |                                                 |
\*---------------------------------------------------------------------------*/
FoamFile
{
    version     2.0;
    format      ascii;
    arch        "LSB;label=32;scalar=64";
    class       volVectorField;
    location    "0.3";
    object      flux;
}
// * * * * * * * * * * * * * * * * * * * * * * * * * * * * * * * * * * * * * //

dimensions      [0 1 -1 1 0 0 0];

internalField   nonuniform List<vector> 
2500
(
(0.00187197 0.00187197 0)
(0.00558636 0.00189374 0)
(0.00922244 0.0019374 0)
(0.012732 0.002002 0)
(0.0160614 0.00208662 0)
(0.0191621 0.00219003 0)
(0.0219875 0.0023107 0)
(0.0244935 0.00244682 0)
(0.0266392 0.00259635 0)
(0.0283879 0.00275701 0)
(0.0297076 0.00292635 0)
(0.0305719 0.00310176 0)
(0.0309607 0.00328049 0)
(0.0308611 0.00345975 0)
(0.0302679 0.0036367 0)
(0.0291841 0.0038085 0)
(0.0276213 0.00397239 0)
(0.0255998 0.0041257 0)
(0.0231486 0.00426594 0)
(0.0203051 0.00439079 0)
(0.0171147 0.00449819 0)
(0.0136298 0.00458634 0)
(0.00990892 0.00465379 0)
(0.00601585 0.0046994 0)
(0.00201791 0.00472241 0)
(-0.00201527 0.00472242 0)
(-0.00601327 0.00469945 0)
(-0.00990644 0.00465387 0)
(-0.0136274 0.00458644 0)
(-0.0171126 0.00449831 0)
(-0.0203033 0.00439093 0)
(-0.023147 0.0042661 0)
(-0.0255985 0.00412588 0)
(-0.0276203 0.00397258 0)
(-0.0291834 0.0038087 0)
(-0.0302675 0.00363691 0)
(-0.030861 0.00345997 0)
(-0.0309609 0.00328071 0)
(-0.0305723 0.00310197 0)
(-0.0297082 0.00292657 0)
(-0.0283887 0.00275722 0)
(-0.0266401 0.00259656 0)
(-0.0244944 0.00244703 0)
(-0.0219884 0.0023109 0)
(-0.0191631 0.00219023 0)
(-0.0160624 0.00208684 0)
(-0.0127334 0.00200228 0)
(-0.00922476 0.00193784 0)
(-0.00558708 0.00189433 0)
(-0.00187118 0.00187143 0)
(0.00189374 0.00558636 0)
(0.00565179 0.00565179 0)
(0.00933071 0.00578205 0)
(0.0128813 0.00597488 0)
(0.0162495 0.00622753 0)
(0.0193862 0.00653627 0)
(0.0222443 0.00689653 0)
(0.0247791 0.00730293 0)
(0.0269494 0.00774935 0)
(0.0287179 0.00822902 0)
(0.0300524 0.00873459 0)
(0.030926 0.00925827 0)
(0.0313187 0.00979189 0)
(0.0312173 0.0103271 0)
(0.0306167 0.0108554 0)
(0.0295198 0.0113683 0)
(0.0279385 0.0118575 0)
(0.0258933 0.0123153 0)
(0.0234137 0.0127339 0)
(0.0205374 0.0131067 0)
(0.0173103 0.0134273 0)
(0.0137854 0.0136904 0)
(0.010022 0.0138918 0)
(0.00608446 0.0140279 0)
(0.00204093 0.0140966 0)
(-0.00203823 0.0140966 0)
(-0.00608182 0.014028 0)
(-0.0100194 0.0138919 0)
(-0.013783 0.0136906 0)
(-0.0173081 0.0134274 0)
(-0.0205355 0.0131069 0)
(-0.023412 0.0127342 0)
(-0.025892 0.0123155 0)
(-0.0279375 0.0118579 0)
(-0.0295191 0.0113686 0)
(-0.0306163 0.0108557 0)
(-0.0312172 0.0103275 0)
(-0.0313189 0.0097923 0)
(-0.0309264 0.00925869 0)
(-0.0300529 0.00873503 0)
(-0.0287187 0.00822946 0)
(-0.0269503 0.00774981 0)
(-0.02478 0.00730339 0)
(-0.0222452 0.006897 0)
(-0.0193871 0.00653676 0)
(-0.0162504 0.00622808 0)
(-0.0128824 0.00597563 0)
(-0.00933271 0.00578328 0)
(-0.00565349 0.00565397 0)
(-0.00189408 0.00558756 0)
(0.0019374 0.00922244 0)
(0.00578205 0.00933071 0)
(0.00954554 0.00954554 0)
(0.0131775 0.00986376 0)
(0.0166228 0.0102807 0)
(0.0198312 0.0107902 0)
(0.0227542 0.0113848 0)
(0.0253463 0.0120555 0)
(0.0275653 0.0127923 0)
(0.0293732 0.0135839 0)
(0.0307369 0.0144182 0)
(0.0316292 0.0152825 0)
(0.0320295 0.0161631 0)
(0.0319246 0.0170463 0)
(0.0313091 0.0179181 0)
(0.0301863 0.0187645 0)
(0.0285683 0.0195719 0)
(0.0264762 0.0203272 0)
(0.02394 0.0210181 0)
(0.0209985 0.0216331 0)
(0.0176985 0.0221622 0)
(0.0140943 0.0225965 0)
(0.0102464 0.0229287 0)
(0.00622066 0.0231534 0)
(0.00208659 0.0232667 0)
(-0.00208387 0.0232667 0)
(-0.00621799 0.0231534 0)
(-0.0102439 0.0229288 0)
(-0.0140919 0.0225966 0)
(-0.0176963 0.0221624 0)
(-0.0209965 0.0216334 0)
(-0.0239383 0.0210184 0)
(-0.0264748 0.0203276 0)
(-0.0285673 0.0195723 0)
(-0.0301856 0.0187649 0)
(-0.0313087 0.0179185 0)
(-0.0319244 0.0170468 0)
(-0.0320296 0.0161636 0)
(-0.0316295 0.015283 0)
(-0.0307374 0.0144188 0)
(-0.0293739 0.0135845 0)
(-0.0275661 0.0127929 0)
(-0.0253472 0.0120562 0)
(-0.0227551 0.0113855 0)
(-0.019832 0.010791 0)
(-0.0166236 0.0102815 0)
(-0.0131782 0.00986475 0)
(-0.00954642 0.00954702 0)
(-0.0057828 0.00933324 0)
(-0.00193758 0.00922523 0)
(0.002002 0.012732 0)
(0.00597488 0.0128813 0)
(0.00986376 0.0131775 0)
(0.0136164 0.0136164 0)
(0.017176 0.0141915 0)
(0.0204903 0.0148944 0)
(0.0235096 0.0157145 0)
(0.0261866 0.0166396 0)
(0.0284778 0.0176558 0)
(0.0303439 0.0187476 0)
(0.0317509 0.0198984 0)
(0.0326709 0.0210903 0)
(0.0330825 0.0223048 0)
(0.0329723 0.0235229 0)
(0.0323349 0.0247252 0)
(0.0311737 0.0258925 0)
(0.0295013 0.027006 0)
(0.0273395 0.0280476 0)
(0.0247196 0.0290004 0)
(0.0216815 0.0298486 0)
(0.0182736 0.0305781 0)
(0.0145519 0.031177 0)
(0.0105789 0.0316352 0)
(0.0064224 0.031945 0)
(0.00215424 0.0321012 0)
(-0.00215145 0.0321012 0)
(-0.00641968 0.0319451 0)
(-0.0105763 0.0316354 0)
(-0.0145494 0.0311773 0)
(-0.0182713 0.0305785 0)
(-0.0216795 0.029849 0)
(-0.0247179 0.0290009 0)
(-0.0273381 0.0280482 0)
(-0.0295001 0.0270066 0)
(-0.0311729 0.0258932 0)
(-0.0323344 0.0247259 0)
(-0.0329721 0.0235237 0)
(-0.0330826 0.0223057 0)
(-0.0326712 0.0210911 0)
(-0.0317515 0.0198992 0)
(-0.0303446 0.0187485 0)
(-0.0284786 0.0176567 0)
(-0.0261874 0.0166405 0)
(-0.0235104 0.0157154 0)
(-0.0204911 0.0148954 0)
(-0.0171766 0.0141926 0)
(-0.0136169 0.0136176 0)
(-0.00986423 0.0131789 0)
(-0.00597527 0.0128829 0)
(-0.00200208 0.0127339 0)
(0.00208662 0.0160614 0)
(0.00622753 0.0162495 0)
(0.0102807 0.0166228 0)
(0.0141915 0.017176 0)
(0.0179008 0.0179008 0)
(0.0213541 0.0187865 0)
(0.0244994 0.01982 0)
(0.0272876 0.0209859 0)
(0.0296733 0.0222665 0)
(0.0316158 0.0236423 0)
(0.0330796 0.0250925 0)
(0.0340357 0.0265944 0)
(0.0344621 0.0281249 0)
(0.034345 0.0296597 0)
(0.0336787 0.0311746 0)
(0.0324671 0.0326454 0)
(0.0307234 0.0340484 0)
(0.0284705 0.0353608 0)
(0.0257409 0.0365611 0)
(0.0225762 0.0376298 0)
(0.019027 0.0385489 0)
(0.0151513 0.0393034 0)
(0.0110144 0.0398807 0)
(0.00668668 0.0402709 0)
(0.00224286 0.0404678 0)
(-0.00223998 0.0404678 0)
(-0.00668386 0.0402711 0)
(-0.0110117 0.0398809 0)
(-0.0151488 0.0393038 0)
(-0.0190246 0.0385494 0)
(-0.0225741 0.0376303 0)
(-0.0257391 0.0365617 0)
(-0.028469 0.0353614 0)
(-0.0307223 0.0340491 0)
(-0.0324663 0.0326462 0)
(-0.0336782 0.0311755 0)
(-0.0343447 0.0296606 0)
(-0.0344622 0.0281259 0)
(-0.034036 0.0265955 0)
(-0.0330801 0.0250935 0)
(-0.0316164 0.0236435 0)
(-0.0296741 0.0222676 0)
(-0.0272884 0.020987 0)
(-0.0245002 0.0198212 0)
(-0.0213549 0.0187877 0)
(-0.0179014 0.017902 0)
(-0.0141919 0.0171773 0)
(-0.010281 0.0166242 0)
(-0.0062278 0.016251 0)
(-0.00208667 0.016063 0)
(0.00219003 0.0191621 0)
(0.00653627 0.0193862 0)
(0.0107902 0.0198312 0)
(0.0148944 0.0204903 0)
(0.0187865 0.0213541 0)
(0.0224096 0.0224096 0)
(0.0257089 0.0236412 0)
(0.028633 0.0250304 0)
(0.0311342 0.0265564 0)
(0.0331699 0.0281959 0)
(0.034703 0.0299238 0)
(0.0357033 0.0317134 0)
(0.0361478 0.0335368 0)
(0.0360221 0.0353655 0)
(0.0353206 0.0371704 0)
(0.0340474 0.0389227 0)
(0.0322166 0.0405941 0)
(0.0298523 0.0421576 0)
(0.0269886 0.0435875 0)
(0.0236693 0.0448605 0)
(0.0199473 0.0459555 0)
(0.0158836 0.0468543 0)
(0.0115464 0.0475419 0)
(0.00700952 0.0480068 0)
(0.00235111 0.0482412 0)
(-0.00234813 0.0482413 0)
(-0.0070066 0.0480069 0)
(-0.0115436 0.0475421 0)
(-0.015881 0.0468546 0)
(-0.0199448 0.045956 0)
(-0.0236671 0.0448611 0)
(-0.0269867 0.0435882 0)
(-0.0298507 0.0421583 0)
(-0.0322154 0.0405949 0)
(-0.0340465 0.0389236 0)
(-0.03532 0.0371714 0)
(-0.0360218 0.0353666 0)
(-0.0361478 0.0335379 0)
(-0.0357035 0.0317145 0)
(-0.0347035 0.029925 0)
(-0.0331705 0.0281971 0)
(-0.031135 0.0265577 0)
(-0.0286338 0.0250318 0)
(-0.0257098 0.0236425 0)
(-0.0224104 0.022411 0)
(-0.0187871 0.0213555 0)
(-0.0148947 0.0204918 0)
(-0.0107905 0.0198326 0)
(-0.00653651 0.0193877 0)
(-0.00219007 0.0191636 0)
(0.0023107 0.0219875 0)
(0.00689653 0.0222443 0)
(0.0113848 0.0227542 0)
(0.0157145 0.0235096 0)
(0.01982 0.0244994 0)
(0.0236412 0.0257089 0)
(0.0271202 0.0271202 0)
(0.0302028 0.0287121 0)
(0.0328387 0.0304606 0)
(0.0349831 0.0323392 0)
(0.0365971 0.034319 0)
(0.0376488 0.0363694 0)
(0.0381143 0.0384585 0)
(0.0379785 0.0405536 0)
(0.0372359 0.0426213 0)
(0.0358908 0.0446287 0)
(0.0339583 0.0465434 0)
(0.031464 0.0483344 0)
(0.0284439 0.0499724 0)
(0.0249442 0.0514306 0)
(0.0210207 0.0526848 0)
(0.0167377 0.0537143 0)
(0.0121669 0.0545018 0)
(0.00738605 0.0550343 0)
(0.00247736 0.0553029 0)
(-0.00247427 0.0553029 0)
(-0.00738302 0.0550345 0)
(-0.012164 0.0545021 0)
(-0.0167349 0.0537147 0)
(-0.0210182 0.0526853 0)
(-0.0249419 0.0514312 0)
(-0.0284419 0.0499731 0)
(-0.0314623 0.0483351 0)
(-0.033957 0.0465442 0)
(-0.0358898 0.0446296 0)
(-0.0372352 0.0426223 0)
(-0.0379781 0.0405547 0)
(-0.0381142 0.0384597 0)
(-0.0376489 0.0363706 0)
(-0.0365975 0.0343202 0)
(-0.0349837 0.0323405 0)
(-0.0328395 0.030462 0)
(-0.0302036 0.0287135 0)
(-0.027121 0.0271217 0)
(-0.0236419 0.0257104 0)
(-0.0198206 0.0245009 0)
(-0.0157148 0.0235111 0)
(-0.0113851 0.0227557 0)
(-0.00689676 0.0222459 0)
(-0.00231074 0.0219891 0)
(0.00244682 0.0244935 0)
(0.00730293 0.0247791 0)
(0.0120555 0.0253463 0)
(0.0166396 0.0261866 0)
(0.0209859 0.0272876 0)
(0.0250304 0.028633 0)
(0.0287121 0.0302028 0)
(0.0319734 0.0319734 0)
(0.0347613 0.0339182 0)
(0.0370282 0.0360075 0)
(0.0387333 0.0382093 0)
(0.0398429 0.0404896 0)
(0.040332 0.0428129 0)
(0.0401848 0.0451427 0)
(0.0393957 0.047442 0)
(0.0379695 0.0496741 0)
(0.0359223 0.0518031 0)
(0.0332813 0.0537945 0)
(0.0300848 0.0556157 0)
(0.0263817 0.0572369 0)
(0.022231 0.0586314 0)
(0.0177006 0.0597759 0)
(0.0128665 0.0606515 0)
(0.00781056 0.0612435 0)
(0.00261969 0.061542 0)
(-0.0026165 0.0615421 0)
(-0.00780742 0.0612436 0)
(-0.0128634 0.0606517 0)
(-0.0176978 0.0597763 0)
(-0.0222283 0.0586318 0)
(-0.0263793 0.0572375 0)
(-0.0300827 0.0556164 0)
(-0.0332796 0.0537952 0)
(-0.0359209 0.0518039 0)
(-0.0379684 0.049675 0)
(-0.0393949 0.047443 0)
(-0.0401844 0.0451437 0)
(-0.0403318 0.0428141 0)
(-0.039843 0.0404908 0)
(-0.0387336 0.0382106 0)
(-0.0370287 0.0360088 0)
(-0.0347619 0.0339196 0)
(-0.0319742 0.0319749 0)
(-0.0287129 0.0302043 0)
(-0.0250311 0.0286346 0)
(-0.0209864 0.0272892 0)
(-0.0166399 0.0261882 0)
(-0.0120558 0.0253479 0)
(-0.00730315 0.0247808 0)
(-0.00244687 0.0244951 0)
(0.00259635 0.0266392 0)
(0.00774935 0.0269494 0)
(0.0127923 0.0275653 0)
(0.0176558 0.0284778 0)
(0.0222665 0.0296733 0)
(0.0265564 0.0311342 0)
(0.0304606 0.0328387 0)
(0.0339182 0.0347613 0)
(0.0368728 0.0368728 0)
(0.0392743 0.0391412 0)
(0.0410792 0.0415316 0)
(0.0422524 0.0440072 0)
(0.0427673 0.0465294 0)
(0.0426076 0.0490584 0)
(0.0417673 0.0515543 0)
(0.0402519 0.0539772 0)
(0.0380787 0.056288 0)
(0.0352766 0.0584494 0)
(0.0318864 0.0604261 0)
(0.0279599 0.0621856 0)
(0.0235597 0.063699 0)
(0.0187578 0.0649411 0)
(0.0136345 0.0658913 0)
(0.00827658 0.0665338 0)
(0.00277594 0.0668577 0)
(-0.00277265 0.0668578 0)
(-0.00827335 0.0665339 0)
(-0.0136313 0.0658915 0)
(-0.0187548 0.0649414 0)
(-0.0235569 0.0636994 0)
(-0.0279574 0.0621861 0)
(-0.0318842 0.0604267 0)
(-0.0352748 0.0584501 0)
(-0.0380772 0.0562888 0)
(-0.0402508 0.053978 0)
(-0.0417664 0.0515552 0)
(-0.042607 0.0490594 0)
(-0.0427671 0.0465305 0)
(-0.0422524 0.0440084 0)
(-0.0410795 0.0415329 0)
(-0.0392747 0.0391425 0)
(-0.0368734 0.0368742 0)
(-0.0339188 0.0347628 0)
(-0.0304613 0.0328403 0)
(-0.0265571 0.0311358 0)
(-0.022267 0.029675 0)
(-0.017656 0.0284795 0)
(-0.0127925 0.027567 0)
(-0.00774956 0.0269512 0)
(-0.0025964 0.026641 0)
(0.00275701 0.0283879 0)
(0.00822902 0.0287179 0)
(0.0135839 0.0293732 0)
(0.0187476 0.0303439 0)
(0.0236423 0.0316158 0)
(0.0281959 0.0331699 0)
(0.0323392 0.0349831 0)
(0.0360075 0.0370282 0)
(0.0391412 0.0392743 0)
(0.0416871 0.0416871 0)
(0.0435993 0.0442296 0)
(0.0448406 0.0468626 0)
(0.0453832 0.049545 0)
(0.0452098 0.0522346 0)
(0.0443144 0.0548889 0)
(0.0427032 0.0574653 0)
(0.0403946 0.0599226 0)
(0.0374194 0.0622208 0)
(0.033821 0.0643226 0)
(0.0296546 0.0661934 0)
(0.0249864 0.0678025 0)
(0.019893 0.0691231 0)
(0.0144591 0.0701333 0)
(0.00877697 0.0708163 0)
(0.0029437 0.0711607 0)
(-0.00294032 0.0711608 0)
(-0.00877365 0.0708164 0)
(-0.0144559 0.0701335 0)
(-0.0198899 0.0691233 0)
(-0.0249836 0.0678028 0)
(-0.029652 0.0661938 0)
(-0.0338187 0.0643231 0)
(-0.0374175 0.0622214 0)
(-0.040393 0.0599233 0)
(-0.042702 0.0574661 0)
(-0.0443135 0.0548897 0)
(-0.0452091 0.0522356 0)
(-0.0453829 0.049546 0)
(-0.0448406 0.0468637 0)
(-0.0435995 0.0442309 0)
(-0.0416874 0.0416884 0)
(-0.0391417 0.0392757 0)
(-0.0360081 0.0370298 0)
(-0.0323398 0.0349848 0)
(-0.0281965 0.0331716 0)
(-0.0236428 0.0316176 0)
(-0.0187478 0.0303457 0)
(-0.0135841 0.0293751 0)
(-0.00822921 0.0287199 0)
(-0.00275707 0.0283899 0)
(0.00292635 0.0297076 0)
(0.00873459 0.0300524 0)
(0.0144182 0.0307369 0)
(0.0198984 0.0317509 0)
(0.0250925 0.0330796 0)
(0.0299238 0.034703 0)
(0.034319 0.0365971 0)
(0.0382093 0.0387333 0)
(0.0415316 0.0410792 0)
(0.0442296 0.0435993 0)
(0.0462548 0.0462548 0)
(0.0475678 0.0490046 0)
(0.0481393 0.0518059 0)
(0.0479514 0.0546146 0)
(0.046998 0.0573862 0)
(0.0452857 0.0600765 0)
(0.0428342 0.0626422 0)
(0.0396766 0.0650418 0)
(0.0358589 0.0672362 0)
(0.0314397 0.0691894 0)
(0.0264893 0.0708692 0)
(0.0210886 0.0722478 0)
(0.0153277 0.0733025 0)
(0.00930401 0.0740155 0)
(0.00312038 0.074375 0)
(-0.00311695 0.074375 0)
(-0.00930063 0.0740156 0)
(-0.0153245 0.0733026 0)
(-0.0210855 0.072248 0)
(-0.0264864 0.0708694 0)
(-0.0314371 0.0691897 0)
(-0.0358566 0.0672366 0)
(-0.0396746 0.0650423 0)
(-0.0428325 0.0626428 0)
(-0.0452843 0.0600771 0)
(-0.0469969 0.0573869 0)
(-0.0479507 0.0546154 0)
(-0.0481389 0.0518069 0)
(-0.0475676 0.0490057 0)
(-0.0462549 0.046256 0)
(-0.0442299 0.0436007 0)
(-0.041532 0.0410808 0)
(-0.0382098 0.0387349 0)
(-0.0343195 0.0365989 0)
(-0.0299243 0.034705 0)
(-0.0250928 0.0330817 0)
(-0.0198985 0.0317531 0)
(-0.0144184 0.0307391 0)
(-0.00873475 0.0300547 0)
(-0.0029264 0.02971 0)
(0.00310176 0.0305719 0)
(0.00925827 0.030926 0)
(0.0152825 0.0316292 0)
(0.0210903 0.0326709 0)
(0.0265944 0.0340357 0)
(0.0317134 0.0357033 0)
(0.0363694 0.0376488 0)
(0.0404896 0.0398429 0)
(0.0440072 0.0422524 0)
(0.0468626 0.0448406 0)
(0.0490046 0.0475678 0)
(0.0503917 0.0503917 0)
(0.0509931 0.0532683 0)
(0.0507901 0.0561524 0)
(0.0497764 0.0589984 0)
(0.0479593 0.0617607 0)
(0.0453599 0.0643949 0)
(0.0420134 0.0668585 0)
(0.0379685 0.0691113 0)
(0.0332876 0.0711165 0)
(0.0280449 0.0728409 0)
(0.0223262 0.0742561 0)
(0.0162268 0.0753387 0)
(0.00984952 0.0760706 0)
(0.00330325 0.0764397 0)
(-0.00329977 0.0764397 0)
(-0.0098461 0.0760707 0)
(-0.0162235 0.0753388 0)
(-0.0223231 0.0742562 0)
(-0.028042 0.072841 0)
(-0.0332849 0.0711166 0)
(-0.0379661 0.0691116 0)
(-0.0420113 0.0668588 0)
(-0.0453581 0.0643953 0)
(-0.0479578 0.0617612 0)
(-0.0497752 0.058999 0)
(-0.0507892 0.0561533 0)
(-0.0509926 0.0532693 0)
(-0.0503914 0.0503929 0)
(-0.0490045 0.0475692 0)
(-0.0468627 0.0448422 0)
(-0.0440074 0.0422542 0)
(-0.0404899 0.0398449 0)
(-0.0363697 0.0376511 0)
(-0.0317137 0.0357058 0)
(-0.0265947 0.0340384 0)
(-0.0210903 0.0326738 0)
(-0.0152825 0.0316322 0)
(-0.00925838 0.0309291 0)
(-0.0031018 0.030575 0)
(0.00328049 0.0309607 0)
(0.00979189 0.0313187 0)
(0.0161631 0.0320295 0)
(0.0223048 0.0330825 0)
(0.0281249 0.0344621 0)
(0.0335368 0.0361478 0)
(0.0384585 0.0381143 0)
(0.0428129 0.040332 0)
(0.0465294 0.0427673 0)
(0.049545 0.0453832 0)
(0.0518059 0.0481393 0)
(0.0532683 0.0509931 0)
(0.0539001 0.0539001 0)
(0.0536815 0.0568145 0)
(0.0526062 0.0596901 0)
(0.0506822 0.0624811 0)
(0.0479321 0.0651426 0)
(0.0443931 0.0676316 0)
(0.0401169 0.0699076 0)
(0.0351693 0.0719332 0)
(0.029629 0.0736753 0)
(0.0235865 0.0751049 0)
(0.0171422 0.0761985 0)
(0.010405 0.0769378 0)
(0.00348943 0.0773106 0)
(-0.00348595 0.0773106 0)
(-0.0104015 0.0769378 0)
(-0.0171389 0.0761985 0)
(-0.0235833 0.0751049 0)
(-0.029626 0.0736753 0)
(-0.0351665 0.0719333 0)
(-0.0401144 0.0699077 0)
(-0.0443909 0.0676318 0)
(-0.0479302 0.065143 0)
(-0.0506806 0.0624816 0)
(-0.0526049 0.0596908 0)
(-0.0536804 0.0568154 0)
(-0.0538993 0.0539013 0)
(-0.0532678 0.0509946 0)
(-0.0518055 0.0481411 0)
(-0.0495448 0.0453853 0)
(-0.0465293 0.0427699 0)
(-0.0428129 0.0403349 0)
(-0.0384586 0.0381176 0)
(-0.0335369 0.0361515 0)
(-0.0281249 0.0344661 0)
(-0.0223047 0.0330868 0)
(-0.016163 0.032034 0)
(-0.00979192 0.0313234 0)
(-0.00328051 0.0309654 0)
(0.00345975 0.0308611 0)
(0.0103271 0.0312173 0)
(0.0170463 0.0319246 0)
(0.0235229 0.0329723 0)
(0.0296597 0.034345 0)
(0.0353655 0.0360221 0)
(0.0405536 0.0379785 0)
(0.0451427 0.0401848 0)
(0.0490584 0.0426076 0)
(0.0522346 0.0452098 0)
(0.0546146 0.0479514 0)
(0.0561524 0.0507901 0)
(0.0568145 0.0536815 0)
(0.0565801 0.0565801 0)
(0.055443 0.0594401 0)
(0.0534118 0.0622157 0)
(0.0505104 0.0648625 0)
(0.0467783 0.0673376 0)
(0.0422701 0.0696008 0)
(0.0370552 0.071615 0)
(0.0312166 0.0733471 0)
(0.0248495 0.0747686 0)
(0.0180597 0.0758559 0)
(0.0109616 0.076591 0)
(0.00367601 0.0769616 0)
(-0.00367255 0.0769616 0)
(-0.0109582 0.076591 0)
(-0.0180564 0.0758559 0)
(-0.0248463 0.0747686 0)
(-0.0312136 0.0733471 0)
(-0.0370525 0.071615 0)
(-0.0422676 0.0696009 0)
(-0.046776 0.0673378 0)
(-0.0505084 0.0648629 0)
(-0.05341 0.0622164 0)
(-0.0554414 0.059441 0)
(-0.0565787 0.0565814 0)
(-0.0568133 0.0536832 0)
(-0.0561515 0.0507923 0)
(-0.0546138 0.0479542 0)
(-0.052234 0.0452131 0)
(-0.0490579 0.0426116 0)
(-0.0451422 0.0401895 0)
(-0.0405532 0.0379838 0)
(-0.0353652 0.036028 0)
(-0.0296593 0.0343515 0)
(-0.0235224 0.0329793 0)
(-0.0170459 0.031932 0)
(-0.010327 0.031225 0)
(-0.00345973 0.0308689 0)
(0.0036367 0.0302679 0)
(0.0108554 0.0306167 0)
(0.0179181 0.0313091 0)
(0.0247252 0.0323349 0)
(0.0311746 0.0336787 0)
(0.0371704 0.0353206 0)
(0.0426213 0.0372359 0)
(0.047442 0.0393957 0)
(0.0515543 0.0417673 0)
(0.0548889 0.0443144 0)
(0.0573862 0.046998 0)
(0.0589984 0.0497764 0)
(0.0596901 0.0526062 0)
(0.0594401 0.055443 0)
(0.0582418 0.0582418 0)
(0.0561047 0.0609581 0)
(0.053054 0.0635481 0)
(0.0491313 0.06597 0)
(0.0443942 0.0681844 0)
(0.0389156 0.0701551 0)
(0.0327826 0.0718499 0)
(0.0260953 0.0732406 0)
(0.0189646 0.0743044 0)
(0.0115107 0.0750235 0)
(0.00386003 0.0753861 0)
(-0.00385661 0.0753861 0)
(-0.0115073 0.0750234 0)
(-0.0189613 0.0743043 0)
(-0.0260921 0.0732405 0)
(-0.0327796 0.0718498 0)
(-0.0389127 0.0701551 0)
(-0.0443915 0.0681845 0)
(-0.0491288 0.0659703 0)
(-0.0530517 0.0635487 0)
(-0.0561026 0.0609591 0)
(-0.0582399 0.0582434 0)
(-0.0594382 0.0554452 0)
(-0.0596884 0.0526091 0)
(-0.0589968 0.0497801 0)
(-0.0573847 0.0470027 0)
(-0.0548874 0.0443202 0)
(-0.0515529 0.0417741 0)
(-0.0474407 0.0394037 0)
(-0.0426201 0.037245 0)
(-0.0371693 0.0353308 0)
(-0.0311736 0.0336899 0)
(-0.0247242 0.032347 0)
(-0.0179173 0.0313219 0)
(-0.010855 0.0306299 0)
(-0.00363659 0.0302814 0)
(0.0038085 0.0291841 0)
(0.0113683 0.0295198 0)
(0.0187645 0.0301863 0)
(0.0258925 0.0311737 0)
(0.0326454 0.0324671 0)
(0.0389227 0.0340474 0)
(0.0446287 0.0358908 0)
(0.0496741 0.0379695 0)
(0.0539772 0.0402519 0)
(0.0574653 0.0427032 0)
(0.0600765 0.0452857 0)
(0.0617607 0.0479593 0)
(0.0624811 0.0506822 0)
(0.0622157 0.0534118 0)
(0.0609581 0.0561047 0)
(0.058718 0.058718 0)
(0.0555223 0.0612098 0)
(0.0514146 0.0635397 0)
(0.0464553 0.06567 0)
(0.0407207 0.0675658 0)
(0.0343021 0.069196 0)
(0.027304 0.0705337 0)
(0.0198426 0.071557 0)
(0.0120433 0.0722487 0)
(0.00403856 0.0725974 0)
(-0.0040352 0.0725974 0)
(-0.01204 0.0722486 0)
(-0.0198393 0.0715569 0)
(-0.0273008 0.0705337 0)
(-0.034299 0.069196 0)
(-0.0407177 0.0675659 0)
(-0.0464524 0.0656704 0)
(-0.0514118 0.0635405 0)
(-0.0555196 0.0612111 0)
(-0.0587153 0.05872 0)
(-0.0609554 0.0561076 0)
(-0.062213 0.0534157 0)
(-0.0624784 0.0506875 0)
(-0.0617579 0.0479659 0)
(-0.0600737 0.045294 0)
(-0.0574625 0.0427134 0)
(-0.0539744 0.040264 0)
(-0.0496713 0.0379836 0)
(-0.044626 0.0359069 0)
(-0.0389202 0.0340655 0)
(-0.0326432 0.0324869 0)
(-0.0258905 0.031195 0)
(-0.018763 0.0302088 0)
(-0.0113674 0.0295432 0)
(-0.00380823 0.0292079 0)
(0.00397239 0.0276213 0)
(0.0118575 0.0279385 0)
(0.0195719 0.0285683 0)
(0.027006 0.0295013 0)
(0.0340484 0.0307234 0)
(0.0405941 0.0322166 0)
(0.0465434 0.0339583 0)
(0.0518031 0.0359223 0)
(0.056288 0.0380787 0)
(0.0599226 0.0403946 0)
(0.0626422 0.0428342 0)
(0.0643949 0.0453599 0)
(0.0651426 0.0479321 0)
(0.0648625 0.0505104 0)
(0.0635481 0.053054 0)
(0.0612098 0.0555223 0)
(0.0578757 0.0578757 0)
(0.0535915 0.0600762 0)
(0.0484203 0.062088 0)
(0.0424416 0.0638783 0)
(0.0357506 0.0654178 0)
(0.0284563 0.0666811 0)
(0.0206796 0.0676473 0)
(0.0125511 0.0683005 0)
(0.00420875 0.0686299 0)
(-0.00420543 0.0686298 0)
(-0.0125478 0.0683005 0)
(-0.0206763 0.0676473 0)
(-0.028453 0.0666812 0)
(-0.0357473 0.0654181 0)
(-0.0424383 0.0638789 0)
(-0.048417 0.0620891 0)
(-0.0535881 0.0600779 0)
(-0.0578722 0.0578784 0)
(-0.0612061 0.0555262 0)
(-0.0635442 0.0530594 0)
(-0.0648584 0.0505177 0)
(-0.0651382 0.0479416 0)
(-0.0643902 0.0453719 0)
(-0.0626372 0.0428492 0)
(-0.0599174 0.0404127 0)
(-0.0562827 0.0381002 0)
(-0.0517978 0.0359473 0)
(-0.0465383 0.0339868 0)
(-0.0405893 0.0322485 0)
(-0.034044 0.0307584 0)
(-0.0270022 0.0295389 0)
(-0.0195691 0.0286081 0)
(-0.0118559 0.0279797 0)
(-0.00397185 0.0276633 0)
(0.0041257 0.0255998 0)
(0.0123153 0.0258933 0)
(0.0203272 0.0264762 0)
(0.0280476 0.0273395 0)
(0.0353608 0.0284705 0)
(0.0421576 0.0298523 0)
(0.0483344 0.031464 0)
(0.0537945 0.0332813 0)
(0.0584494 0.0352766 0)
(0.0622208 0.0374194 0)
(0.0650418 0.0396766 0)
(0.0668585 0.0420134 0)
(0.0676316 0.0443931 0)
(0.0673376 0.0467783 0)
(0.06597 0.0491313 0)
(0.0635397 0.0514146 0)
(0.0600762 0.0535915 0)
(0.0556269 0.0556269 0)
(0.0502575 0.0574878 0)
(0.0440505 0.0591437 0)
(0.0371048 0.0605675 0)
(0.0295335 0.0617359 0)
(0.021462 0.0626296 0)
(0.0130258 0.0632337 0)
(0.00436787 0.0635383 0)
(-0.00436455 0.0635383 0)
(-0.0130225 0.0632338 0)
(-0.0214586 0.0626298 0)
(-0.02953 0.0617364 0)
(-0.0371012 0.0605684 0)
(-0.0440467 0.0591451 0)
(-0.0502534 0.0574901 0)
(-0.0556225 0.0556305 0)
(-0.0600713 0.0535967 0)
(-0.0635343 0.0514219 0)
(-0.0659639 0.0491413 0)
(-0.0673309 0.0467915 0)
(-0.0676241 0.0444101 0)
(-0.0668503 0.0420348 0)
(-0.065033 0.0397031 0)
(-0.0622115 0.0374514 0)
(-0.0584397 0.0353145 0)
(-0.0537847 0.0333253 0)
(-0.0483249 0.031514 0)
(-0.0421487 0.0299082 0)
(-0.0353528 0.0285318 0)
(-0.0280408 0.0274055 0)
(-0.0203221 0.0265458 0)
(-0.0123122 0.0259656 0)
(-0.00412467 0.0256734 0)
(0.00426594 0.0231486 0)
(0.0127339 0.0234137 0)
(0.0210181 0.02394 0)
(0.0290004 0.0247196 0)
(0.0365611 0.0257409 0)
(0.0435875 0.0269886 0)
(0.0499724 0.0284439 0)
(0.0556157 0.0300848 0)
(0.0604261 0.0318864 0)
(0.0643226 0.033821 0)
(0.0672362 0.0358589 0)
(0.0691113 0.0379685 0)
(0.0699076 0.0401169 0)
(0.0696008 0.0422701 0)
(0.0681844 0.0443942 0)
(0.06567 0.0464553 0)
(0.062088 0.0484203 0)
(0.0574878 0.0502575 0)
(0.051937 0.051937 0)
(0.0455214 0.0534316 0)
(0.0383429 0.0547167 0)
(0.0305183 0.0557712 0)
(0.0221773 0.0565777 0)
(0.0134598 0.057123 0)
(0.00451336 0.0573979 0)
(-0.00450993 0.057398 0)
(-0.0134563 0.0571233 0)
(-0.0221736 0.0565784 0)
(-0.0305144 0.0557724 0)
(-0.0383386 0.0547186 0)
(-0.0455166 0.0534346 0)
(-0.0519316 0.0519416 0)
(-0.0574815 0.0502642 0)
(-0.0620807 0.0484299 0)
(-0.0656615 0.0464685 0)
(-0.0681746 0.044412 0)
(-0.0695896 0.0422935 0)
(-0.0698948 0.0401468 0)
(-0.0690971 0.0380061 0)
(-0.0672207 0.0359051 0)
(-0.064306 0.0338766 0)
(-0.0604088 0.0319521 0)
(-0.0555983 0.030161 0)
(-0.0499554 0.0285306 0)
(-0.0435715 0.0270854 0)
(-0.0365468 0.025847 0)
(-0.0289882 0.0248338 0)
(-0.0210089 0.0240606 0)
(-0.0127283 0.0235388 0)
(-0.00426406 0.023276 0)
(0.00439079 0.0203051 0)
(0.0131067 0.0205374 0)
(0.0216331 0.0209985 0)
(0.0298486 0.0216815 0)
(0.0376298 0.0225762 0)
(0.0448605 0.0236693 0)
(0.0514306 0.0249442 0)
(0.0572369 0.0263817 0)
(0.0621856 0.0279599 0)
(0.0661934 0.0296546 0)
(0.0691894 0.0314397 0)
(0.0711165 0.0332876 0)
(0.0719332 0.0351693 0)
(0.071615 0.0370552 0)
(0.0701551 0.0389156 0)
(0.0675658 0.0407207 0)
(0.0638783 0.0424416 0)
(0.0591437 0.0440505 0)
(0.0534316 0.0455214 0)
(0.0468302 0.0468302 0)
(0.0394445 0.0479556 0)
(0.0313946 0.048879 0)
(0.0228138 0.0495853 0)
(0.013846 0.0500628 0)
(0.00464289 0.0503036 0)
(-0.00463916 0.0503038 0)
(-0.0138421 0.0500635 0)
(-0.0228096 0.0495867 0)
(-0.0313898 0.0488814 0)
(-0.039439 0.0479593 0)
(-0.0468237 0.046836 0)
(-0.0534238 0.0455299 0)
(-0.0591342 0.0440627 0)
(-0.063867 0.0424586 0)
(-0.0675521 0.0407439 0)
(-0.070139 0.0389465 0)
(-0.0715961 0.0370955 0)
(-0.0719115 0.0352207 0)
(-0.071092 0.033352 0)
(-0.0691624 0.0315187 0)
(-0.0661645 0.0297497 0)
(-0.0621554 0.0280722 0)
(-0.0572062 0.0265119 0)
(-0.0514005 0.0250924 0)
(-0.0448322 0.0238347 0)
(-0.0376044 0.0227576 0)
(-0.0298272 0.0218767 0)
(-0.0216171 0.0212047 0)
(-0.0130968 0.0207513 0)
(-0.00438744 0.020523 0)
(0.00449819 0.0171147 0)
(0.0134273 0.0173103 0)
(0.0221622 0.0176985 0)
(0.0305781 0.0182736 0)
(0.0385489 0.019027 0)
(0.0459555 0.0199473 0)
(0.0526848 0.0210207 0)
(0.0586314 0.022231 0)
(0.063699 0.0235597 0)
(0.0678025 0.0249864 0)
(0.0708692 0.0264893 0)
(0.0728409 0.0280449 0)
(0.0736753 0.029629 0)
(0.0733471 0.0312166 0)
(0.0718499 0.0327826 0)
(0.069196 0.0343021 0)
(0.0654178 0.0357506 0)
(0.0605675 0.0371048 0)
(0.0547167 0.0383429 0)
(0.0479556 0.0394445 0)
(0.0403916 0.0403916 0)
(0.032148 0.0411689 0)
(0.0233611 0.0417633 0)
(0.0141781 0.0421653 0)
(0.00475441 0.0423682 0)
(-0.00475003 0.0423686 0)
(-0.0141735 0.0421667 0)
(-0.0233558 0.041766 0)
(-0.0321417 0.0411733 0)
(-0.040384 0.0403985 0)
(-0.0479461 0.0394547 0)
(-0.0547048 0.0383577 0)
(-0.0605527 0.0371259 0)
(-0.0653995 0.0357797 0)
(-0.0691736 0.0343415 0)
(-0.071823 0.032835 0)
(-0.0733153 0.0312847 0)
(-0.0736384 0.0297157 0)
(-0.0727991 0.0281533 0)
(-0.0708229 0.0266223 0)
(-0.0677525 0.0251465 0)
(-0.0636466 0.0237487 0)
(-0.0585781 0.0224502 0)
(-0.0526325 0.0212702 0)
(-0.0459063 0.020226 0)
(-0.0385048 0.0193326 0)
(-0.0305411 0.0186026 0)
(-0.0221343 0.0180462 0)
(-0.01341 0.0176711 0)
(-0.00449233 0.0174822 0)
(0.00458634 0.0136298 0)
(0.0136904 0.0137854 0)
(0.0225965 0.0140943 0)
(0.031177 0.0145519 0)
(0.0393034 0.0151513 0)
(0.0468543 0.0158836 0)
(0.0537143 0.0167377 0)
(0.0597759 0.0177006 0)
(0.0649411 0.0187578 0)
(0.0691231 0.019893 0)
(0.0722478 0.0210886 0)
(0.0742561 0.0223262 0)
(0.0751049 0.0235865 0)
(0.0747686 0.0248495 0)
(0.0732406 0.0260953 0)
(0.0705337 0.027304 0)
(0.0666811 0.0284563 0)
(0.0617359 0.0295335 0)
(0.0557712 0.0305183 0)
(0.048879 0.0313946 0)
(0.0411689 0.032148 0)
(0.0327663 0.0327663 0)
(0.0238102 0.0332392 0)
(0.0144508 0.0335591 0)
(0.00484619 0.0337207 0)
(-0.00484058 0.0337216 0)
(-0.0144447 0.0335617 0)
(-0.023803 0.033244 0)
(-0.0327573 0.032774 0)
(-0.0411575 0.0321598 0)
(-0.0488645 0.031412 0)
(-0.0557526 0.0305434 0)
(-0.0617122 0.0295688 0)
(-0.0666513 0.0285048 0)
(-0.0704969 0.0273695 0)
(-0.0731959 0.026182 0)
(-0.0747154 0.0249621 0)
(-0.0750428 0.02373 0)
(-0.0741854 0.0225056 0)
(-0.0721693 0.0213087 0)
(-0.069038 0.020158 0)
(-0.0648517 0.0190711 0)
(-0.0596848 0.0180641 0)
(-0.0536247 0.0171517 0)
(-0.0467698 0.0163464 0)
(-0.0392277 0.0156592 0)
(-0.0311136 0.0150989 0)
(-0.0225486 0.0146726 0)
(-0.0136608 0.0143856 0)
(-0.00457626 0.0142413 0)
(0.00465379 0.00990892 0)
(0.0138918 0.010022 0)
(0.0229287 0.0102464 0)
(0.0316352 0.0105789 0)
(0.0398807 0.0110144 0)
(0.0475419 0.0115464 0)
(0.0545018 0.0121669 0)
(0.0606515 0.0128665 0)
(0.0658913 0.0136345 0)
(0.0701333 0.0144591 0)
(0.0733025 0.0153277 0)
(0.0753387 0.0162268 0)
(0.0761985 0.0171422 0)
(0.0758559 0.0180597 0)
(0.0743044 0.0189646 0)
(0.071557 0.0198426 0)
(0.0676473 0.0206796 0)
(0.0626296 0.021462 0)
(0.0565777 0.0221773 0)
(0.0495853 0.0228138 0)
(0.0417633 0.0233611 0)
(0.0332392 0.0238102 0)
(0.0241539 0.0241539 0)
(0.0146597 0.0243866 0)
(0.00491685 0.0245045 0)
(-0.00490911 0.0245058 0)
(-0.0146511 0.0243909 0)
(-0.0241435 0.0241619 0)
(-0.0332259 0.0238231 0)
(-0.041746 0.0233806 0)
(-0.0495625 0.0228424 0)
(-0.056548 0.0222183 0)
(-0.0625913 0.0215195 0)
(-0.0675988 0.0207586 0)
(-0.0714964 0.0199491 0)
(-0.0742304 0.0191056 0)
(-0.0757674 0.0182427 0)
(-0.0760949 0.0173755 0)
(-0.0752204 0.0165186 0)
(-0.0731705 0.0156861 0)
(-0.0699902 0.0148912 0)
(-0.0657405 0.0141458 0)
(-0.0604975 0.0134604 0)
(-0.0543503 0.012844 0)
(-0.0473988 0.012304 0)
(-0.0397523 0.0118464 0)
(-0.0315277 0.0114757 0)
(-0.0228476 0.0111951 0)
(-0.0138414 0.0110069 0)
(-0.00463667 0.0109125 0)
(0.0046994 0.00601585 0)
(0.0140279 0.00608446 0)
(0.0231534 0.00622066 0)
(0.031945 0.0064224 0)
(0.0402709 0.00668668 0)
(0.0480068 0.00700952 0)
(0.0550343 0.00738605 0)
(0.0612435 0.00781056 0)
(0.0665338 0.00827658 0)
(0.0708163 0.00877697 0)
(0.0740155 0.00930401 0)
(0.0760706 0.00984952 0)
(0.0769378 0.010405 0)
(0.076591 0.0109616 0)
(0.0750235 0.0115107 0)
(0.0722487 0.0120433 0)
(0.0683005 0.0125511 0)
(0.0632337 0.0130258 0)
(0.057123 0.0134598 0)
(0.0500628 0.013846 0)
(0.0421653 0.0141781 0)
(0.0335591 0.0144508 0)
(0.0243866 0.0146597 0)
(0.0148014 0.0148014 0)
(0.00496544 0.0148738 0)
(-0.00495417 0.014876 0)
(-0.0147886 0.0148084 0)
(-0.0243709 0.0146725 0)
(-0.0335387 0.0144715 0)
(-0.0421382 0.0142094 0)
(-0.0500267 0.0138918 0)
(-0.0570755 0.0135253 0)
(-0.0631719 0.0131176 0)
(-0.0682217 0.0126771 0)
(-0.07215 0.0122132 0)
(-0.0749023 0.0117355 0)
(-0.0764454 0.0112538 0)
(-0.0767669 0.0107779 0)