/*--------------------------------*- C++ -*----------------------------------*\
| =========                 |                                                 |
| \\      /  F ield         | OpenFOAM: The Open Source CFD Toolbox           |
|  \\    /   O peration     | Version:  2406                                  |
|   \\  /    A nd           | Website:  www.openfoam.com                      |
|    \\/     M anipulation  |                                                 |
\*---------------------------------------------------------------------------*/
FoamFile
{
    version     2.0;
    format      ascii;
    arch        "LSB;label=32;scalar=64";
    class       volScalarField;
    location    "0.3";
    object      gradTx;
}
// * * * * * * * * * * * * * * * * * * * * * * * * * * * * * * * * * * * * * //

dimensions      [0 -1 0 1 0 0 0];

internalField   nonuniform List<scalar> 
2500
(
0.0187197
0.0558636
0.0922244
0.12732
0.160614
0.191621
0.219875
0.244935
0.266392
0.283879
0.297076
0.305719
0.309607
0.308611
0.302679
0.291841
0.276213
0.255998
0.231486
0.203051
0.171147
0.136298
0.0990892
0.0601585
0.0201791
-0.0201527
-0.0601327
-0.0990644
-0.136274
-0.171126
-0.203033
-0.23147
-0.255985
-0.276203
-0.291834
-0.302675
-0.30861
-0.309609
-0.305723
-0.297082
-0.283887
-0.266401
-0.244944
-0.219884
-0.191631
-0.160624
-0.127334
-0.0922476
-0.0558708
-0.0187118
0.0189374
0.0565179
0.0933071
0.128813
0.162495
0.193862
0.222443
0.247791
0.269494
0.287179
0.300524
0.30926
0.313187
0.312173
0.306167
0.295198
0.279385
0.258933
0.234137
0.205374
0.173103
0.137854
0.10022
0.0608446
0.0204093
-0.0203823
-0.0608182
-0.100194
-0.13783
-0.173081
-0.205355
-0.23412
-0.25892
-0.279375
-0.295191
-0.306163
-0.312172
-0.313189
-0.309264
-0.300529
-0.287187
-0.269503
-0.2478
-0.222452
-0.193871
-0.162504
-0.128824
-0.0933271
-0.0565349
-0.0189408
0.019374
0.0578205
0.0954554
0.131775
0.166228
0.198312
0.227542
0.253463
0.275653
0.293732
0.307369
0.316292
0.320295
0.319246
0.313091
0.301863
0.285683
0.264762
0.2394
0.209985
0.176985
0.140943
0.102464
0.0622066
0.0208659
-0.0208387
-0.0621799
-0.102439
-0.140919
-0.176963
-0.209965
-0.239383
-0.264748
-0.285673
-0.301856
-0.313087
-0.319244
-0.320296
-0.316295
-0.307374
-0.293739
-0.275661
-0.253472
-0.227551
-0.19832
-0.166236
-0.131782
-0.0954642
-0.057828
-0.0193758
0.02002
0.0597488
0.0986376
0.136164
0.17176
0.204903
0.235096
0.261866
0.284778
0.303439
0.317509
0.326709
0.330825
0.329723
0.323349
0.311737
0.295013
0.273395
0.247196
0.216815
0.182736
0.145519
0.105789
0.064224
0.0215424
-0.0215145
-0.0641968
-0.105763
-0.145494
-0.182713
-0.216795
-0.247179
-0.273381
-0.295001
-0.311729
-0.323344
-0.329721
-0.330826
-0.326712
-0.317515
-0.303446
-0.284786
-0.261874
-0.235104
-0.204911
-0.171766
-0.136169
-0.0986423
-0.0597527
-0.0200208
0.0208662
0.0622753
0.102807
0.141915
0.179008
0.213541
0.244994
0.272876
0.296733
0.316158
0.330796
0.340357
0.344621
0.34345
0.336787
0.324671
0.307234
0.284705
0.257409
0.225762
0.19027
0.151513
0.110144
0.0668668
0.0224286
-0.0223998
-0.0668386
-0.110117
-0.151488
-0.190246
-0.225741
-0.257391
-0.28469
-0.307223
-0.324663
-0.336782
-0.343447
-0.344622
-0.34036
-0.330801
-0.316164
-0.296741
-0.272884
-0.245002
-0.213549
-0.179014
-0.141919
-0.10281
-0.062278
-0.0208667
0.0219003
0.0653627
0.107902
0.148944
0.187865
0.224096
0.257089
0.28633
0.311342
0.331699
0.34703
0.357033
0.361478
0.360221
0.353206
0.340474
0.322166
0.298523
0.269886
0.236693
0.199473
0.158836
0.115464
0.0700952
0.0235111
-0.0234813
-0.070066
-0.115436
-0.15881
-0.199448
-0.236671
-0.269867
-0.298507
-0.322154
-0.340465
-0.3532
-0.360218
-0.361478
-0.357035
-0.347035
-0.331705
-0.31135
-0.286338
-0.257098
-0.224104
-0.187871
-0.148947
-0.107905
-0.0653651
-0.0219007
0.023107
0.0689653
0.113848
0.157145
0.1982
0.236412
0.271202
0.302028
0.328387
0.349831
0.365971
0.376488
0.381143
0.379785
0.372359
0.358908
0.339583
0.31464
0.284439
0.249442
0.210207
0.167377
0.121669
0.0738605
0.0247736
-0.0247427
-0.0738302
-0.12164
-0.167349
-0.210182
-0.249419
-0.284419
-0.314623
-0.33957
-0.358898
-0.372352
-0.379781
-0.381142
-0.376489
-0.365975
-0.349837
-0.328395
-0.302036
-0.27121
-0.236419
-0.198206
-0.157148
-0.113851
-0.0689676
-0.0231074
0.0244682
0.0730293
0.120555
0.166396
0.209859
0.250304
0.287121
0.319734
0.347613
0.370282
0.387333
0.398429
0.40332
0.401848
0.393957
0.379695
0.359223
0.332813
0.300848
0.263817
0.22231
0.177006
0.128665
0.0781056
0.0261969
-0.026165
-0.0780742
-0.128634
-0.176978
-0.222283
-0.263793
-0.300827
-0.332796
-0.359209
-0.379684
-0.393949
-0.401844
-0.403318
-0.39843
-0.387336
-0.370287
-0.347619
-0.319742
-0.287129
-0.250311
-0.209864
-0.166399
-0.120558
-0.0730315
-0.0244687
0.0259635
0.0774935
0.127923
0.176558
0.222665
0.265564
0.304606
0.339182
0.368728
0.392743
0.410792
0.422524
0.427673
0.426076
0.417673
0.402519
0.380787
0.352766
0.318864
0.279599
0.235597
0.187578
0.136345
0.0827658
0.0277594
-0.0277265
-0.0827335
-0.136313
-0.187548
-0.235569
-0.279574
-0.318842
-0.352748
-0.380772
-0.402508
-0.417664
-0.42607
-0.427671
-0.422524
-0.410795
-0.392747
-0.368734
-0.339188
-0.304613
-0.265571
-0.22267
-0.17656
-0.127925
-0.0774956
-0.025964
0.0275701
0.0822902
0.135839
0.187476
0.236423
0.281959
0.323392
0.360075
0.391412
0.416871
0.435993
0.448406
0.453832
0.452098
0.443144
0.427032
0.403946
0.374194
0.33821
0.296546
0.249864
0.19893
0.144591
0.0877697
0.029437
-0.0294032
-0.0877365
-0.144559
-0.198899
-0.249836
-0.29652
-0.338187
-0.374175
-0.40393
-0.42702
-0.443135
-0.452091
-0.453829
-0.448406
-0.435995
-0.416874
-0.391417
-0.360081
-0.323398
-0.281965
-0.236428
-0.187478
-0.135841
-0.0822921
-0.0275707
0.0292635
0.0873459
0.144182
0.198984
0.250925
0.299238
0.34319
0.382093
0.415316
0.442296
0.462548
0.475678
0.481393
0.479514
0.46998
0.452857
0.428342
0.396766
0.358589
0.314397
0.264893
0.210886
0.153277
0.0930401
0.0312038
-0.0311695
-0.0930063
-0.153245
-0.210855
-0.264864
-0.314371
-0.358566
-0.396746
-0.428325
-0.452843
-0.469969
-0.479507
-0.481389
-0.475676
-0.462549
-0.442299
-0.41532
-0.382098
-0.343195
-0.299243
-0.250928
-0.198985
-0.144184
-0.0873475
-0.029264
0.0310176
0.0925827
0.152825
0.210903
0.265944
0.317134
0.363694
0.404896
0.440072
0.468626
0.490046
0.503917
0.509931
0.507901
0.497764
0.479593
0.453599
0.420134
0.379685
0.332876
0.280449
0.223262
0.162268
0.0984952
0.0330325
-0.0329977
-0.098461
-0.162235
-0.223231
-0.28042
-0.332849
-0.379661
-0.420113
-0.453581
-0.479578
-0.497752
-0.507892
-0.509926
-0.503914
-0.490045
-0.468627
-0.440074
-0.404899
-0.363697
-0.317137
-0.265947
-0.210903
-0.152825
-0.0925838
-0.031018
0.0328049
0.0979189
0.161631
0.223048
0.281249
0.335368
0.384585
0.428129
0.465294
0.49545
0.518059
0.532683
0.539001
0.536815
0.526062
0.506822
0.479321
0.443931
0.401169
0.351693
0.29629
0.235865
0.171422
0.10405
0.0348943
-0.0348595
-0.104015
-0.171389
-0.235833
-0.29626
-0.351665
-0.401144
-0.443909
-0.479302
-0.506806
-0.526049
-0.536804
-0.538993
-0.532678
-0.518055
-0.495448
-0.465293
-0.428129
-0.384586
-0.335369
-0.281249
-0.223047
-0.16163
-0.0979192
-0.0328051
0.0345975
0.103271
0.170463
0.235229
0.296597
0.353655
0.405536
0.451427
0.490584
0.522346
0.546146
0.561524
0.568145
0.565801
0.55443
0.534118
0.505104
0.467783
0.422701
0.370552
0.312166
0.248495
0.180597
0.109616
0.0367601
-0.0367255
-0.109582
-0.180564
-0.248463
-0.312136
-0.370525
-0.422676
-0.46776
-0.505084
-0.5341
-0.554414
-0.565787
-0.568133
-0.561515
-0.546138
-0.52234
-0.490579
-0.451422
-0.405532
-0.353652
-0.296593
-0.235224
-0.170459
-0.10327
-0.0345973
0.036367
0.108554
0.179181
0.247252
0.311746
0.371704
0.426213
0.47442
0.515543
0.548889
0.573862
0.589984
0.596901
0.594401
0.582418
0.561047
0.53054
0.491313
0.443942
0.389156
0.327826
0.260953
0.189646
0.115107
0.0386003
-0.0385661
-0.115073
-0.189613
-0.260921
-0.327796
-0.389127
-0.443915
-0.491288
-0.530517
-0.561026
-0.582399
-0.594382
-0.596884
-0.589968
-0.573847
-0.548874
-0.515529
-0.474407
-0.426201
-0.371693
-0.311736
-0.247242
-0.179173
-0.10855
-0.0363659
0.038085
0.113683
0.187645
0.258925
0.326454
0.389227
0.446287
0.496741
0.539772
0.574653
0.600765
0.617607
0.624811
0.622157
0.609581
0.58718
0.555223
0.514146
0.464553
0.407207
0.343021
0.27304
0.198426
0.120433
0.0403856
-0.040352
-0.1204
-0.198393
-0.273008
-0.34299
-0.407177
-0.464524
-0.514118
-0.555196
-0.587153
-0.609554
-0.62213
-0.624784
-0.617579
-0.600737
-0.574625
-0.539744
-0.496713
-0.44626
-0.389202
-0.326432
-0.258905
-0.18763
-0.113674
-0.0380823
0.0397239
0.118575
0.195719
0.27006
0.340484
0.405941
0.465434
0.518031
0.56288
0.599226
0.626422
0.643949
0.651426
0.648625
0.635481
0.612098
0.578757
0.535915
0.484203
0.424416
0.357506
0.284563
0.206796
0.125511
0.0420875
-0.0420543
-0.125478
-0.206763
-0.28453
-0.357473
-0.424383
-0.48417
-0.535881
-0.578722
-0.612061
-0.635442
-0.648584
-0.651382
-0.643902
-0.626372
-0.599174
-0.562827
-0.517978
-0.465383
-0.405893
-0.34044
-0.270022
-0.195691
-0.118559
-0.0397185
0.041257
0.123153
0.203272
0.280476
0.353608
0.421576
0.483344
0.537945
0.584494
0.622208
0.650418
0.668585
0.676316
0.673376
0.6597
0.635397
0.600762
0.556269
0.502575
0.440505
0.371048
0.295335
0.21462
0.130258
0.0436787
-0.0436455
-0.130225
-0.214586
-0.2953
-0.371012
-0.440467
-0.502534
-0.556225
-0.600713
-0.635343
-0.659639
-0.673309
-0.676241
-0.668503
-0.65033
-0.622115
-0.584397
-0.537847
-0.483249
-0.421487
-0.353528
-0.280408
-0.203221
-0.123122
-0.0412467
0.0426594
0.127339
0.210181
0.290004
0.365611
0.435875
0.499724
0.556157
0.604261
0.643226
0.672362
0.691113
0.699076
0.696008
0.681844
0.6567
0.62088
0.574878
0.51937
0.455214
0.383429
0.305183
0.221773
0.134598
0.0451336
-0.0450993
-0.134563
-0.221736
-0.305144
-0.383386
-0.455166
-0.519316
-0.574815
-0.620807
-0.656615
-0.681746
-0.695896
-0.698948
-0.690971
-0.672207
-0.64306
-0.604088
-0.555983
-0.499554
-0.435715
-0.365468
-0.289882
-0.210089
-0.127283
-0.0426406
0.0439079
0.131067
0.216331
0.298486
0.376298
0.448605
0.514306
0.572369
0.621856
0.661934
0.691894
0.711165
0.719332
0.71615
0.701551
0.675658
0.638783
0.591437
0.534316
0.468302
0.394445
0.313946
0.228138
0.13846
0.0464289
-0.0463916
-0.138421
-0.228096
-0.313898
-0.39439
-0.468237
-0.534238
-0.591342
-0.63867
-0.675521
-0.70139
-0.715961
-0.719115
-0.71092
-0.691624
-0.661645
-0.621554
-0.572062
-0.514005
-0.448322
-0.376044
-0.298272
-0.216171
-0.130968
-0.0438744
0.0449819
0.134273
0.221622
0.305781
0.385489
0.459555
0.526848
0.586314
0.63699
0.678025
0.708692
0.728409
0.736753
0.733471
0.718499
0.69196
0.654178
0.605675
0.547167
0.479556
0.403916
0.32148
0.233611
0.141781
0.0475441
-0.0475003
-0.141735
-0.233558
-0.321417
-0.40384
-0.479461
-0.547048
-0.605527
-0.653995
-0.691736
-0.71823
-0.733153
-0.736384
-0.727991
-0.708229
-0.677525
-0.636466
-0.585781
-0.526325
-0.459063
-0.385048
-0.305411
-0.221343
-0.1341
-0.0449233
0.0458634
0.136904
0.225965
0.31177
0.393034
0.468543
0.537143
0.597759
0.649411
0.691231
0.722478
0.742561
0.751049
0.747686
0.732406
0.705337
0.666811
0.617359
0.557712
0.48879
0.411689
0.327663
0.238102
0.144508
0.0484619
-0.0484058
-0.144447
-0.23803
-0.327573
-0.411575
-0.488645
-0.557526
-0.617122
-0.666513
-0.704969
-0.731959
-0.747154
-0.750428
-0.741854
-0.721693
-0.69038
-0.648517
-0.596848
-0.536247
-0.467698
-0.392277
-0.311136
-0.225486
-0.136608
-0.0457626
0.0465379
0.138918
0.229287
0.316352
0.398807
0.475419
0.545018
0.606515
0.658913
0.701333
0.733025
0.753387
0.761985
0.758559
0.743044
0.71557
0.676473
0.626296
0.565777
0.495853
0.417633
0.332392
0.241539
0.146597
0.0491685
-0.0490911
-0.146511
-0.241435
-0.332259
-0.41746
-0.495625
-0.56548
-0.625913
-0.675988
-0.714964
-0.742304
-0.757674
-0.760949
-0.752204
-0.731705
-0.699902
-0.657405
-0.604975
-0.543503
-0.473988
-0.397523
-0.315277
-0.228476
-0.138414
-0.0463667
0.046994
0.140279
0.231534
0.31945
0.402709
0.480068
0.550343
0.612435
0.665338
0.708163
0.740155
0.760706
0.769378
0.76591
0.750235
0.722487
0.683005
0.632337
0.57123
0.500628
0.421653
0.335591
0.243866
0.148014
0.0496544
-0.0495417
-0.147886
-0.243709
-0.335387
-0.421382
-0.500267
-0.570755
-0.631719
-0.682217
-0.7215
-0.749023
-0.764454
-0.767669
-0.758748
-0.737966
-0.705784
-0.662825
-0.609866
-0.547811
-0.477674
-0.400561
-0.317649
-0.230174
-0.139434
-0.0467067
0.0472241
0.140966
0.232667
0.321012
0.404678
0.482412
0.553029
0.61542
0.668577
0.711607
0.74375
0.764397
0.773106
0.769616
0.753861
0.725974
0.686299
0.635383
0.573979
0.503036
0.423682
0.337207
0.245045
0.148738
0.0499147
-0.0497454
-0.148545
-0.244804
-0.33689
-0.423256
-0.502466
-0.573223
-0.634395
-0.685031
-0.72438
-0.751897
-0.76725
-0.77032
-0.761196
-0.740165
-0.707701
-0.664444
-0.611187
-0.548848
-0.478456
-0.401123
-0.318032
-0.230415
-0.139564
-0.0467478
0.0472242
0.140966
0.232667
0.321012
0.404678
0.482413
0.553029
0.615421
0.668578
0.711608
0.74375
0.764397
0.773106
0.769616
0.753861
0.725974
0.686298
0.635383
0.57398
0.503038
0.423686
0.337216
0.245058
0.14876
0.0499494
-0.0496923
-0.148466
-0.244688
-0.336724
-0.423022
-0.502144
-0.572788
-0.633819
-0.684284
-0.723432
-0.750719
-0.76582
-0.768623
-0.759232
-0.737952
-0.705274
-0.661863
-0.60853
-0.546214
-0.475954
-0.398869
-0.316138
-0.228982
-0.138671
-0.0464444
0.0469945
0.14028
0.231534
0.319451
0.402711
0.480069
0.550345
0.612436
0.665339
0.708164
0.740156
0.760707
0.769378
0.76591
0.750234
0.722486
0.683005
0.632338
0.571233
0.500635
0.421667
0.335617
0.243909
0.148084
0.0497641
-0.0493739
-0.147636
-0.243342
-0.33486
-0.420642
-0.499247
-0.569376
-0.629892
-0.679845
-0.718485
-0.745275
-0.759897
-0.762259
-0.752482
-0.730897
-0.698027
-0.654568
-0.601361
-0.539371
-0.469654
-0.393333
-0.311575
-0.225576
-0.136566
-0.0457327
0.0465387
0.138919
0.229288
0.316354
0.398809
0.475421
0.545021
0.606517
0.658915
0.701335
0.733026
0.753388
0.761985
0.758559
0.743043
0.715569
0.676473
0.626298
0.565784
0.495867
0.41766
0.33244
0.241619
0.146725
0.0493701
-0.0487828
-0.14605
-0.24076
-0.33129
-0.416095
-0.49374
-0.562928
-0.622526
-0.671584
-0.709357
-0.735318
-0.749166
-0.750829
-0.740461
-0.718434
-0.685318
-0.641856
-0.588939
-0.52757
-0.458832
-0.383852
-0.30378
-0.219768
-0.132981
-0.0445213
0.0458644
0.136906
0.225966
0.311773
0.393038
0.468546
0.537147
0.597763
0.649414
0.691233
0.72248
0.742562
0.751049
0.747686
0.732405
0.705337
0.666812
0.617364
0.557724
0.488814
0.411733
0.32774
0.238231
0.144715
0.0487851
-0.0479118
-0.143708
-0.236946
-0.326015
-0.409376
-0.485602
-0.553397
-0.611629
-0.659352
-0.695828
-0.720542
-0.733213
-0.733805
-0.722519
-0.699787
-0.666253
-0.622739
-0.570211
-0.509738
-0.442445
-0.369471
-0.291938
-0.210935
-0.127526
-0.0426772
0.0449831
0.134274
0.221624
0.305785
0.385494
0.45956
0.526853
0.586318
0.636994
0.678028
0.708694
0.72841
0.736753
0.733471
0.718498
0.69196
0.654181
0.605684
0.547186
0.479593
0.403985
0.321598
0.233806
0.142094
0.048033
-0.0467529
-0.140615
-0.231914
-0.319049
-0.400491
-0.474815
-0.540726
-0.597092
-0.642967
-0.677616
-0.700538
-0.711484
-0.710464
-0.697751
-0.67387
-0.639575
-0.595814
-0.543676
-0.484336
-0.41899
-0.348804
-0.274868
-0.198172
-0.119632
-0.0400064
0.0439093
0.131069
0.216334
0.29849
0.376303
0.448611
0.514312
0.572375
0.621861
0.661938
0.691897
0.711166
0.719333
0.71615
0.701551
0.675659
0.638789
0.591451
0.534346
0.46836
0.394547
0.31412
0.228424
0.138918
0.0471444
-0.0452973
-0.13678
-0.225681
-0.310411
-0.389446
-0.461359
-0.524849
-0.578775
-0.622183
-0.654339
-0.674757
-0.683224
-0.679816
-0.66491
-0.639169
-0.60352
-0.559101
-0.5072
-0.449162
-0.386311
-0.319861
-0.250863
-0.18017
-0.108475
-0.036228
0.042661
0.127342
0.210184
0.290009
0.365617
0.435882
0.499731
0.556164
0.604267
0.643231
0.672366
0.691116
0.699077
0.696009
0.681845
0.656704
0.620891
0.574901
0.519416
0.455299
0.383577
0.305434
0.222183
0.135253
0.0461563
-0.0435338
-0.132212
-0.218269
-0.300123
-0.376248
-0.445204
-0.505672
-0.556487
-0.596674
-0.62549
-0.642459
-0.647412
-0.640516
-0.62229
-0.593603
-0.55564
-0.509836
-0.457784
-0.401111
-0.341347
-0.279804
-0.217487
-0.155056
-0.0928756
-0.0309397
0.0412588
0.123155
0.203276
0.280482
0.353614
0.421583
0.483351
0.537952
0.584501
0.622214
0.650423
0.668588
0.676318
0.673378
0.659703
0.635405
0.600779
0.556305
0.502642
0.440627
0.371259
0.295688
0.215195
0.131176
0.0451113
-0.0414498
-0.126921
-0.209702
-0.288209
-0.360898
-0.426304
-0.483067
-0.529976
-0.566014
-0.590406
-0.602678
-0.602709
-0.59078
-0.567611
-0.534364
-0.492604
-0.444219
-0.391278
-0.33585
-0.279809
-0.224638
-0.1713
-0.12018
-0.0711648
-0.0235714
0.0397258
0.118579
0.195723
0.270066
0.340491
0.405949
0.465442
0.518039
0.562888
0.599233
0.626428
0.643953
0.65143
0.648629
0.635487
0.612111
0.578784
0.535967
0.484299
0.424586
0.357797
0.285048
0.207586
0.126771
0.044057
-0.0390311
-0.120919
-0.200006
-0.27469
-0.343394
-0.404598
-0.456873
-0.498928
-0.529666
-0.548252
-0.554188
-0.547397
-0.528305
-0.497897
-0.457745
-0.409969
-0.357129
-0.302024
-0.247425
-0.195756
-0.148804
-0.107499
-0.0718385
-0.0410049
-0.0133245
0.038087
0.113686
0.187649
0.258932
0.326462
0.389236
0.446296
0.49675
0.53978
0.574661
0.600771
0.617612
0.624816
0.622164
0.609591
0.5872
0.555262
0.514219
0.464685
0.407439
0.343415
0.273695
0.199491
0.122132
0.0430441
-0.0362637
-0.11422
-0.189209
-0.259592
-0.323729
-0.380011
-0.426898
-0.462968
-0.486993
-0.498023
-0.495498
-0.479367
-0.450218
-0.409378
-0.358979
-0.301929
-0.241778
-0.182434
-0.127756
-0.0810625
-0.0446504
-0.0194495
-0.00490307
0.000840655
0.000906444
0.0363691
0.108557
0.179185
0.247259
0.311755
0.371714
0.426223
0.47443
0.515552
0.548897
0.573869
0.58999
0.596908
0.59441
0.582434
0.561076
0.530594
0.491413
0.44412
0.389465
0.32835
0.26182
0.191056
0.117355
0.0421244
-0.0331356
-0.106843
-0.177349
-0.242949
-0.301905
-0.352472
-0.39294
-0.421689
-0.437283
-0.438579
-0.424885
-0.396132
-0.353068
-0.297439
-0.232114
-0.161094
-0.0893599
-0.0224847
0.0339787
0.0752796
0.0982597
0.101931
0.0876521
0.0588058
0.0206358
0.0345997
0.103275
0.170468
0.235237
0.296606
0.353666
0.405547
0.451437
0.490594
0.522356
0.546154
0.561533
0.568154
0.565814
0.554452
0.534157
0.505177
0.467915
0.422935
0.370955
0.312847
0.249621
0.182427
0.112538
0.0413479
-0.0296408
-0.0988185
-0.164476
-0.224812
-0.277945
-0.321933
-0.354819
-0.374696
-0.379812
-0.36872
-0.340483
-0.294921
-0.232907
-0.156655
-0.0699598
0.021705
0.111329
0.190863
0.252129
0.288066
0.29407
0.268986
0.215372
0.138903
0.0479141
0.0328071
0.097923
0.161636
0.223057
0.281259
0.335379
0.384597
0.428141
0.465305
0.49546
0.518069
0.532693
0.539013
0.536832
0.526091
0.506875
0.479416
0.444101
0.401468
0.352207
0.297157
0.2373
0.173755
0.107779
0.0407591
-0.0257826
-0.0901895
-0.150665
-0.205267
-0.251916
-0.288401
-0.312425
-0.321674
-0.313941
-0.287314
-0.240439
-0.172871
-0.0854915
0.0190302
0.135812
0.257478
0.374209
0.474321
0.545558
0.5771
0.561884
0.498409
0.391116
0.249194
0.0854817
0.0310197
0.0925869
0.15283
0.210911
0.265955
0.317145
0.363706
0.404908
0.440084
0.468637
0.490057
0.503929
0.509946
0.507923
0.497801
0.479659
0.453719
0.420348
0.380061
0.33352
0.281533
0.225056
0.165186
0.103167
0.0403938
-0.0215792
-0.0810239
-0.136022
-0.184448
-0.223956
-0.251985
-0.265782
-0.262485
-0.23925
-0.193483
-0.123172
-0.0273443
0.0933415
0.235906
0.394324
0.558917
0.716115
0.84898
0.938925
0.968891
0.92753
0.812714
0.632064
0.400334
0.136937
0.0292657
0.0873503
0.144188
0.198992
0.250935
0.29925
0.343202
0.382106
0.415329
0.442309
0.46256
0.475692
0.481411
0.479542
0.470027
0.45294
0.428492
0.397031
0.359051
0.315187
0.266223
0.213087
0.156861
0.0987862
0.0402746
-0.0170682
-0.0714186
-0.120702
-0.162557
-0.194307
-0.21294
-0.215126
-0.197281
-0.155708
-0.0868561
0.0122839
0.143599
0.30707
0.49978
0.71476
0.939816
1.15667
1.341
1.46439
1.49918
1.42619
1.24225
0.960892
0.606104
0.206877
0.0275722
0.0822946
0.135845
0.187485
0.236435
0.281971
0.323405
0.360088
0.391425
0.416884
0.436007
0.448422
0.453853
0.452131
0.443202
0.427134
0.404127
0.374514
0.338766
0.297497
0.251465
0.20158
0.148912
0.0947073
0.0404086
-0.0123108
-0.0615068
-0.104913
-0.139883
-0.163338
-0.171718
-0.160978
-0.126626
-0.0638648
0.0321476
0.165847
0.340581
0.557626
0.814855
1.10503
1.41376
1.71746
1.98202
2.16396
2.21699
2.10658
1.82795
1.40695
0.883659
0.300895
0.0259656
0.0774981
0.127929
0.176567
0.222676
0.265577
0.30462
0.339196
0.368742
0.392757
0.410808
0.422542
0.427699
0.426116
0.417741
0.40264
0.381002
0.353145
0.319521
0.280722
0.237487
0.190711
0.141458
0.0909873
0.0407843
-0.00739463
-0.0514622
-0.0889278
-0.116815
-0.131573
-0.129004
-0.104211
-0.0516098
0.034967
0.162019
0.335918
0.562171
0.844282
1.18212
1.5696
1.99158
2.41982
2.80866
3.09254
3.19175
3.03827
2.62501
2.00674
1.25284
0.425183
0.0244703
0.0730339
0.120562
0.166405
0.20987
0.250318
0.287135
0.319749
0.347628
0.370298
0.387349
0.398449
0.403349
0.401895
0.394037
0.379836
0.359473
0.333253
0.30161
0.265119
0.224502
0.180641
0.134604
0.0876682
0.041371
-0.00243439
-0.0414996
-0.0730839
-0.093842
-0.0997005
-0.0857395
-0.0460955
0.026081
0.138576
0.299916
0.518954
0.80415
1.16241
1.59731
2.10637
2.67691
3.27965
3.85915
4.32149
4.52733
4.3259
3.70696
2.80177
1.73301
0.585231
0.023109
0.06897
0.113855
0.157154
0.198212
0.236425
0.271217
0.302043
0.328403
0.349848
0.365989
0.376511
0.381176
0.379838
0.37245
0.359069
0.339868
0.31514
0.285306
0.250924
0.212702
0.171517
0.12844
0.0847762
0.0421202
0.0024307
-0.0318709
-0.0577778
-0.0715521
-0.0685618
-0.0431118
0.0117108
0.10415
0.24381
0.441558
0.709216
1.05898
1.5024
2.0488
2.70264
3.45924
4.29695
5.16211
5.93872
6.39341
6.14067
5.16632
3.82833
2.33475
0.782875
0.0219023
0.0653676
0.10791
0.148954
0.187877
0.22411
0.257104
0.286346
0.311358
0.331716
0.34705
0.357058
0.361515
0.36028
0.353308
0.340655
0.322485
0.299082
0.270854
0.238347
0.20226
0.163464
0.12304
0.082323
0.0429679
0.00704244
-0.0228561
-0.0434511
-0.0506072
-0.0391242
-0.00251482
0.0672164
0.179767
0.34667
0.58132
0.89884
1.31573
1.84921
2.51615
3.33141
4.30506
5.43718
6.70533
8.02568
9.10527
8.80016
7.09169
5.08683
3.04258
1.01118
0.0208684
0.0622808
0.102815
0.141926
0.17902
0.213555
0.245009
0.272892
0.29675
0.316176
0.330817
0.340384
0.344661
0.343515
0.336899
0.324869
0.307584
0.285318
0.25847
0.227576
0.193326
0.156592
0.118464
0.0803083
0.0438402
0.0112323
-0.0147489
-0.0305686
-0.0317102
-0.0124277
0.034531
0.118213
0.249741
0.442557
0.712594
1.07834
1.5608
2.18322
2.97088
3.95075
5.15181
6.60728
8.36377
10.5167
13.3546
12.9991
9.42659
6.4691
3.79041
1.24902
0.0200228
0.0597563
0.0986475
0.136176
0.171773
0.204918
0.235111
0.261882
0.284795
0.303457
0.317531
0.326738
0.330868
0.329793
0.32347
0.31195
0.295389
0.274055
0.248338
0.218767
0.186026
0.150989
0.114757
0.0787231
0.0446593
0.0148327
-0.0078388
-0.0195887
-0.0155595
0.0104849
0.0664853
0.16244
0.310768
0.526658
0.828383
1.23756
1.77935
2.48267
3.38045
4.51046
5.91714
7.6565
9.80773
12.4999
15.9637
15.5628
11.2696
7.6643
4.45843
1.46374
0.0193784
0.0578328
0.0954702
0.131789
0.166242
0.198326
0.227557
0.253479
0.27567
0.293751
0.307391
0.316322
0.32034
0.31932
0.313219
0.302088
0.286081
0.265458
0.240606
0.212047
0.180462
0.146726
0.111951
0.0775534
0.045351
0.017689
-0.00239052
-0.0109319
-0.00279835
0.0286475
0.0919118
0.197776
0.359729
0.594407
0.922023
1.36678
1.95728
2.72695
3.71472
4.96598
6.53457
8.4863
10.9051
13.9014
17.6149
17.1769
12.5562
8.55821
4.97679
1.63296
0.0189433
0.0565397
0.0933324
0.128829
0.16251
0.193877
0.222459
0.247808
0.269512
0.287199
0.300547
0.309291
0.313234
0.31225
0.306299
0.295432
0.279797
0.259656
0.235388
0.207513
0.176711
0.143856
0.110069
0.0767842
0.0458517
0.0196721
0.00137562
-0.00494791
0.00603616
0.0412501
0.109602
0.222429
0.393985
0.641935
0.987874
1.45784
2.08282
2.89936
3.95023
5.28534
6.96299
9.05132
11.6293
14.785
18.6044
18.1402
13.3587
9.13866
5.32226
1.74711
0.0187143
0.0558756
0.0922523
0.127339
0.16063
0.191636
0.219891
0.244951
0.26641
0.283899
0.2971
0.30575
0.309654
0.308689
0.302814
0.292079
0.276633
0.256734
0.23276
0.20523
0.174822
0.142413
0.109125
0.076403
0.046114
0.0206872
0.00329865
-0.00189245
0.0105511
0.0476993
0.118668
0.235086
0.4116
0.666413
1.02183
1.50484
2.14766
2.98838
4.07162
5.4493
7.1813
9.33565
11.987
15.2109
19.0706
18.5928
13.7426
9.42203
5.4933
1.804
)
;

boundaryField
{
    walls
    {
        type            calculated;
        value           nonuniform List<scalar> 
200
(
0.0187143
0.0558756
0.0922523
0.127339
0.16063
0.191636
0.219891
0.244951
0.26641
0.283899
0.2971
0.30575
0.309654
0.308689
0.302814
0.292079
0.276633
0.256734
0.23276
0.20523
0.174822
0.142413
0.109125
0.076403
0.046114
0.0206872
0.00329865
-0.00189245
0.0105511
0.0476993
0.118668
0.235086
0.4116
0.666413
1.02183
1.50484
2.14766
2.98838
4.07162
5.4493
7.1813
9.33565
11.987
15.2109
19.0706
18.5928
13.7426
9.42203
5.4933
1.804
0
0
0
0
0
0
0
0
0
0
0
0
0
0
0
0
0
0
0
0
0
0
0
0
0
0
0
0
0
0
0
0
0
0
0
0
0
0
0
0
0
0
0
0
0
0
0
0
0
0
0
0
0
0
0
0
0
0
0
0
0
0
0
0
0
0
0
0
0
0
0
0
0
0
0
0
0
0
0
0
0
0
0
0
0
0
0
0
0
0
0
0
0
0
0
0
0
0
0
0
0.0187197
0.0558636
0.0922244
0.12732
0.160614
0.191621
0.219875
0.244935
0.266392
0.283879
0.297076
0.305719
0.309607
0.308611
0.302679
0.291841
0.276213
0.255998
0.231486
0.203051
0.171147
0.136298
0.0990892
0.0601585
0.0201791
-0.0201527
-0.0601327
-0.0990644
-0.136274
-0.171126
-0.203033
-0.23147
-0.255985
-0.276203
-0.291834
-0.302675
-0.30861
-0.309609
-0.305723
-0.297082
-0.283887
-0.266401
-0.244944
-0.219884
-0.191631
-0.160624
-0.127334
-0.0922476
-0.0558708
-0.0187118
)
;
    }
    frontAndBack
    {
        type            empty;
    }
}


// ************************************************************************* //
