/*--------------------------------*- C++ -*----------------------------------*\
| =========                 |                                                 |
| \\      /  F ield         | OpenFOAM: The Open Source CFD Toolbox           |
|  \\    /   O peration     | Version:  2406                                  |
|   \\  /    A nd           | Website:  www.openfoam.com                      |
|    \\/     M anipulation  |                                                 |
\*---------------------------------------------------------------------------*/
FoamFile
{
    version     2.0;
    format      ascii;
    arch        "LSB;label=32;scalar=64";
    class       volScalarField;
    location    "0.3";
    object      T;
}
// * * * * * * * * * * * * * * * * * * * * * * * * * * * * * * * * * * * * * //

dimensions      [0 0 0 1 0 0 0];

internalField   nonuniform List<scalar> 
2500
(
0.0593949
0.0601436
0.0616294
0.0638326
0.0667222
0.0702572
0.0743871
0.0790522
0.0841845
0.0897079
0.0955396
0.101591
0.107768
0.113975
0.120113
0.126082
0.131787
0.137131
0.142026
0.14639
0.150148
0.153236
0.1556
0.1572
0.158007
0.158007
0.157201
0.155602
0.153238
0.150151
0.146393
0.142029
0.137134
0.13179
0.126086
0.120117
0.113979
0.107772
0.101595
0.0955433
0.0897114
0.0841878
0.0790554
0.0743901
0.07026
0.0667249
0.0638351
0.0616315
0.0601452
0.0593967
0.0601436
0.0609011
0.0624044
0.0646334
0.0675569
0.0711332
0.0753114
0.0800309
0.085223
0.0908107
0.0967102
0.102832
0.109081
0.115359
0.121568
0.127606
0.133375
0.138781
0.143733
0.148147
0.151948
0.155071
0.157462
0.15908
0.159896
0.159896
0.15908
0.157463
0.155073
0.15195
0.148149
0.143736
0.138785
0.133379
0.12761
0.121571
0.115363
0.109085
0.102836
0.0967139
0.0908143
0.0852265
0.0800342
0.0753145
0.0711361
0.0675596
0.064636
0.0624066
0.0609029
0.0601453
0.0616294
0.0624044
0.0639422
0.0662226
0.0692132
0.0728717
0.0771457
0.0819734
0.0872842
0.0929995
0.0990335
0.105294
0.111685
0.118106
0.124455
0.13063
0.13653
0.142057
0.14712
0.151633
0.155519
0.158712
0.161157
0.162811
0.163645
0.163646
0.162812
0.161158
0.158714
0.155522
0.151636
0.147123
0.14206
0.136533
0.130634
0.124459
0.11811
0.111689
0.105298
0.0990373
0.0930032
0.0872878
0.0819768
0.0771489
0.0728747
0.0692161
0.0662253
0.0639448
0.0624067
0.0616317
0.0638326
0.0646334
0.0662226
0.0685789
0.0716691
0.0754493
0.0798653
0.0848532
0.0903399
0.0962443
0.102477
0.108945
0.115546
0.122178
0.128735
0.135112
0.141204
0.146912
0.15214
0.1568
0.160813
0.164109
0.166633
0.168341
0.169202
0.169203
0.168342
0.166635
0.164111
0.160815
0.156803
0.152143
0.146916
0.141208
0.135116
0.128739
0.122182
0.11555
0.108949
0.102481
0.0962481
0.0903436
0.0848567
0.0798687
0.0754525
0.0716722
0.0685819
0.0662255
0.0646362
0.0638353
0.0667222
0.0675569
0.0692132
0.0716691
0.0748898
0.0788295
0.0834315
0.0886292
0.0943465
0.100499
0.106993
0.11373
0.120607
0.127515
0.134345
0.140987
0.147332
0.153276
0.15872
0.163572
0.167751
0.171183
0.173811
0.175589
0.176486
0.176486
0.17559
0.173813
0.171185
0.167753
0.163575
0.158723
0.15328
0.147336
0.140991
0.134349
0.12752
0.120611
0.113735
0.106997
0.100503
0.0943504
0.088633
0.0834351
0.0788329
0.0748931
0.0716723
0.0692164
0.0675599
0.0667253
0.0702572
0.0711332
0.0728717
0.0754493
0.0788295
0.0829639
0.0877933
0.0932475
0.0992465
0.105701
0.112514
0.119582
0.126796
0.134042
0.141205
0.14817
0.154824
0.161056
0.166764
0.171852
0.176232
0.179831
0.182586
0.184449
0.185389
0.18539
0.18445
0.182587
0.179833
0.176235
0.171855
0.166768
0.16106
0.154828
0.148174
0.141209
0.134046
0.1268
0.119587
0.112519
0.105706
0.0992507
0.0932515
0.0877972
0.0829676
0.078833
0.0754528
0.0728751
0.0711366
0.0702605
0.0743871
0.0753114
0.0771457
0.0798653
0.0834315
0.0877933
0.092888
0.0986414
0.104969
0.111777
0.118962
0.126416
0.134022
0.141661
0.149213
0.156556
0.16357
0.170139
0.176155
0.181517
0.186133
0.189925
0.192828
0.194792
0.195782
0.195783
0.194793
0.192829
0.189927
0.186135
0.18152
0.176159
0.170143
0.163574
0.15656
0.149218
0.141666
0.134027
0.12642
0.118967
0.111781
0.104974
0.0986457
0.0928921
0.0877973
0.0834353
0.079869
0.0771494
0.075315
0.0743907
0.0790522
0.0800309
0.0819734
0.0848532
0.0886292
0.0932475
0.0986414
0.104732
0.111431
0.118637
0.126242
0.13413
0.142179
0.150263
0.158253
0.166021
0.173441
0.18039
0.186753
0.192424
0.197306
0.201316
0.204386
0.206463
0.207511
0.207511
0.206464
0.204388
0.201319
0.197309
0.192427
0.186757
0.180394
0.173445
0.166026
0.158258
0.150268
0.142184
0.134135
0.126247
0.118642
0.111435
0.104737
0.0986458
0.0932518
0.0886334
0.0848572
0.0819774
0.0800349
0.0790562
0.0841845
0.085223
0.0872842
0.0903399
0.0943465
0.0992465
0.104969
0.111431
0.118536
0.12618
0.134246
0.142612
0.151147
0.159718
0.16819
0.176425
0.184291
0.191657
0.198401
0.204411
0.209585
0.213835
0.217089
0.219289
0.220399
0.220399
0.21929
0.21709
0.213838
0.209588
0.204415
0.198405
0.191661
0.184295
0.17643
0.168195
0.159724
0.151152
0.142617
0.134251
0.126185
0.118541
0.111436
0.104974
0.0992511
0.094351
0.0903443
0.0872886
0.0852273
0.0841888
0.0897079
0.0908107
0.0929995
0.0962443
0.100499
0.105701
0.111777
0.118637
0.12618
0.134293
0.142855
0.151733
0.160791
0.169886
0.178875
0.187612
0.195956
0.20377
0.210924
0.217298
0.222786
0.227293
0.230743
0.233077
0.234254
0.234254
0.233078
0.230745
0.227295
0.222789
0.217302
0.210928
0.203774
0.195961
0.187617
0.17888
0.169892
0.160796
0.151739
0.14286
0.134299
0.126185
0.118642
0.111782
0.105706
0.100503
0.096249
0.0930042
0.0908154
0.0897126
0.0955396
0.0967102
0.0990335
0.102477
0.106993
0.112514
0.118962
0.126242
0.134246
0.142855
0.151938
0.161357
0.170965
0.180612
0.190146
0.199412
0.20826
0.216545
0.22413
0.230889
0.236706
0.241485
0.245142
0.247616
0.248863
0.248864
0.247617
0.245144
0.241487
0.236709
0.230892
0.224134
0.21655
0.208265
0.199417
0.190151
0.180618
0.170971
0.161362
0.151944
0.14286
0.134252
0.126248
0.118968
0.11252
0.106998
0.102483
0.0990386
0.0967153
0.0955447
0.101591
0.102832
0.105294
0.108945
0.11373
0.119582
0.126416
0.13413
0.142612
0.151733
0.161357
0.171335
0.181513
0.191732
0.201829
0.211643
0.221013
0.229787
0.237818
0.244974
0.251133
0.256192
0.260064
0.262683
0.264004
0.264004
0.262684
0.260066
0.256194
0.251136
0.244978
0.237822
0.229791
0.221018
0.211648
0.201835
0.191738
0.181519
0.171341
0.161363
0.151739
0.142617
0.134136
0.126422
0.119588
0.113736
0.10895
0.1053
0.102837
0.101597
0.107768
0.109081
0.111685
0.115546
0.120607
0.126796
0.134022
0.142179
0.151147
0.160791
0.170965
0.181513
0.192272
0.203073
0.213745
0.224116
0.234018
0.243289
0.251775
0.259335
0.265843
0.271187
0.275277
0.278044
0.279439
0.27944
0.278045
0.275279
0.271189
0.265846
0.259339
0.251779
0.243293
0.234023
0.224121
0.213751
0.203079
0.192278
0.181519
0.170971
0.160797
0.151153
0.142186
0.134028
0.126802
0.120613
0.115552
0.111691
0.109087
0.107775
0.113975
0.115359
0.118106
0.122178
0.127515
0.134042
0.141661
0.150263
0.159718
0.169886
0.180612
0.191732
0.203073
0.214458
0.225705
0.236635
0.24707
0.256839
0.265781
0.273747
0.280603
0.286234
0.290543
0.293458
0.294928
0.294928
0.293459
0.290545
0.286236
0.280606
0.273751
0.265785
0.256844
0.247075
0.236641
0.225711
0.214464
0.20308
0.191739
0.180619
0.169893
0.159725
0.15027
0.141669
0.134049
0.127522
0.122185
0.118113
0.115367
0.113983
0.120113
0.121568
0.124455
0.128735
0.134345
0.141205
0.149213
0.158253
0.16819
0.178875
0.190146
0.201829
0.213745
0.225705
0.237521
0.249002
0.259963
0.270224
0.279615
0.287981
0.295182
0.301094
0.30562
0.30868
0.310224
0.310224
0.308681
0.305621
0.301097
0.295185
0.287985
0.279619
0.270228
0.259968
0.249008
0.237527
0.225712
0.213752
0.201836
0.190153
0.178882
0.168198
0.158261
0.149222
0.141213
0.134354
0.128744
0.124464
0.121577
0.120122
0.126082
0.127606
0.13063
0.135112
0.140987
0.14817
0.156556
0.166021
0.176425
0.187612
0.199412
0.211643
0.224116
0.236635
0.249002
0.261018
0.272489
0.283227
0.293055
0.301809
0.309343
0.31553
0.320265
0.323467
0.325082
0.325083
0.323468
0.320267
0.315533
0.309346
0.301813
0.293059
0.283232
0.272495
0.261024
0.249008
0.236642
0.224123
0.211651
0.19942
0.187621
0.176435
0.166031
0.156567
0.148181
0.140998
0.135124
0.130642
0.127619
0.126095
0.131787
0.133375
0.13653
0.141204
0.147332
0.154824
0.16357
0.173441
0.184291
0.195956
0.20826
0.221013
0.234018
0.24707
0.259963
0.272489
0.284447
0.29564
0.305883
0.315008
0.32286
0.329308
0.334242
0.33758
0.339263
0.339263
0.337581
0.334244
0.32931
0.322863
0.315011
0.305888
0.295645
0.284452
0.272496
0.25997
0.247078
0.234027
0.221023
0.208271
0.195968
0.184304
0.173455
0.163584
0.154839
0.147349
0.141222
0.136548
0.133394
0.131805
0.137131
0.138781
0.142057
0.146912
0.153276
0.161056
0.170139
0.18039
0.191657
0.20377
0.216545
0.229787
0.243289
0.256839
0.270224
0.283227
0.29564
0.307258
0.31789
0.327361
0.335511
0.342203
0.347324
0.350787
0.352534
0.352535
0.350788
0.347326
0.342205
0.335514
0.327365
0.317895
0.307263
0.295646
0.283235
0.270232
0.256849
0.2433
0.229799
0.21656
0.203786
0.191675
0.18041
0.170161
0.16108
0.153302
0.146939
0.142085
0.13881
0.137161
0.142026
0.143733
0.14712
0.15214
0.15872
0.166764
0.176155
0.186753
0.198401
0.210924
0.22413
0.237818
0.251775
0.265781
0.279615
0.293055
0.305883
0.31789
0.328878
0.338665
0.347087
0.354002
0.359294
0.362873
0.364678
0.364679
0.362874
0.359296
0.354005
0.34709
0.338669
0.328884
0.317897
0.305891
0.293064
0.279626
0.265795
0.251791
0.237837
0.224152
0.210948
0.198429
0.186785
0.17619
0.166803
0.158761
0.152184
0.147166
0.14378
0.142075
0.14639
0.148147
0.151633
0.1568
0.163572
0.171852
0.181517
0.192424
0.204411
0.217298
0.230889
0.244974
0.259335
0.273747
0.287981
0.301809
0.315008
0.327361
0.338665
0.348733
0.357397
0.364511
0.369955
0.373637
0.375493
0.375494
0.373638
0.369957
0.364514
0.357401
0.348738
0.338672
0.327369
0.315018
0.301822
0.287997
0.273766
0.259359
0.245002
0.230922
0.217337
0.204456
0.192475
0.181574
0.171915
0.163641
0.156873
0.15171
0.148226
0.146471
0.150148
0.151948
0.155519
0.160813
0.167751
0.176232
0.186133
0.197306
0.209585
0.222786
0.236706
0.251133
0.265843
0.280603
0.295182
0.309343
0.32286
0.335511
0.347087
0.357397
0.366269
0.373554
0.379128
0.382898
0.3848
0.3848
0.3829
0.379131
0.373557
0.366274
0.357404
0.347096
0.335522
0.322874
0.309362
0.295205
0.280633
0.265879
0.251177
0.236759
0.222848
0.209658
0.19739
0.186227
0.176337
0.167864
0.160935
0.155648
0.152081
0.150284
0.153236
0.155071
0.158712
0.164109
0.171183
0.179831
0.189925
0.201316
0.213835
0.227293
0.241485
0.256192
0.271187
0.286234
0.301094
0.31553
0.329308
0.342203
0.354002
0.364511
0.373554
0.380979
0.38666
0.390503
0.392441
0.392441
0.390504
0.386663
0.380983
0.37356
0.36452
0.354015
0.342219
0.32933
0.315559
0.301131
0.28628
0.271245
0.256263
0.241571
0.227396
0.213955
0.201455
0.190082
0.180005
0.171374
0.164314
0.158928
0.155294
0.153464
0.1556
0.157462
0.161157
0.166633
0.173811
0.182586
0.192828
0.204386
0.217089
0.230743
0.245142
0.260064
0.275277
0.290543
0.30562
0.320265
0.334242
0.347324
0.359294
0.369955
0.379128
0.38666
0.392424
0.396322
0.398288
0.398289
0.396324
0.392428
0.386667
0.379138
0.369969
0.359313
0.347349
0.334276
0.32031
0.305678
0.290618
0.275371
0.26018
0.245283
0.230911
0.217287
0.204615
0.193088
0.182875
0.174128
0.166974
0.161517
0.157835
0.155981
0.1572
0.15908
0.162811
0.168341
0.175589
0.184449
0.194792
0.206463
0.219289
0.233077
0.247616
0.262683
0.278044
0.293458
0.30868
0.323467
0.33758
0.350787
0.362873
0.373637
0.382898
0.390503
0.396322
0.400257
0.402243
0.402244
0.400261
0.396328
0.390513
0.382913
0.373657
0.362902
0.350827
0.337633
0.323538
0.308773
0.293577
0.278195
0.262871
0.247845
0.233352
0.219614
0.206839
0.195219
0.184927
0.176112
0.168904
0.163406
0.159697
0.157829
0.158007
0.159896
0.163645
0.169202
0.176486
0.185389
0.195782
0.207511
0.220399
0.234254
0.248863
0.264004
0.279439
0.294928
0.310224
0.325082
0.339263
0.352534
0.364678
0.375493
0.3848
0.392441
0.398288
0.402243
0.404237
0.404239
0.402248
0.398297
0.392456
0.384822
0.375525
0.364723
0.352596
0.339347
0.325195
0.310372
0.295119
0.279682
0.264306
0.249234
0.2347
0.220926
0.208122
0.196479
0.186168
0.17734
0.170123
0.164619
0.160907
0.159037
0.158007
0.159896
0.163646
0.169203
0.176486
0.18539
0.195783
0.207511
0.220399
0.234254
0.248864
0.264004
0.27944
0.294928
0.310224
0.325083
0.339263
0.352535
0.364679
0.375494
0.3848
0.392441
0.398289
0.402244
0.404239
0.404242
0.402251
0.398303
0.392464
0.384834
0.375543
0.364748
0.352632
0.339396
0.32526
0.310458
0.295231
0.279825
0.264486
0.249456
0.234968
0.221245
0.208494
0.196904
0.186645
0.177866
0.170691
0.16522
0.161531
0.159673
0.157201
0.15908
0.162812
0.168342
0.17559
0.18445
0.194793
0.206464
0.21929
0.233078
0.247617
0.262684
0.278045
0.293459
0.308681
0.323468
0.337581
0.350788
0.362874
0.373638
0.3829
0.390504
0.396324
0.400261
0.402248
0.402251
0.400273
0.396346
0.390539
0.382952
0.373713
0.362982
0.350938
0.337786
0.323745
0.309047
0.293934
0.278651
0.263443
0.248551
0.234207
0.22063
0.208025
0.196576
0.18645
0.17779
0.170716
0.165327
0.161693
0.159864
0.155602
0.157463
0.161158
0.166635
0.173813
0.182587
0.192829
0.204388
0.21709
0.230745
0.245144
0.260066
0.275279
0.290545
0.305621
0.320267
0.334244
0.347326
0.359296
0.369957
0.379131
0.386663
0.392428
0.396328
0.398297
0.398303
0.396346
0.392461
0.386716
0.379209
0.370072
0.35946
0.347555
0.334559
0.320691
0.306184
0.291279
0.276218
0.261245
0.246599
0.232508
0.219187
0.206834
0.195629
0.185731
0.177276
0.170377
0.165125
0.161586
0.159805
0.153238
0.155073
0.158714
0.164111
0.171185
0.179833
0.189927
0.201319
0.213838
0.227295
0.241487
0.256194
0.271189
0.286236
0.301097
0.315533
0.32931
0.342205
0.354005
0.364514
0.373557
0.380983
0.386667
0.390513
0.392456
0.392464
0.390539
0.386716
0.381061
0.373675
0.364686
0.354251
0.34255
0.329786
0.316176
0.301953
0.287355
0.272624
0.258002
0.243723
0.230011
0.217073
0.205101
0.194265
0.184712
0.176567
0.169933
0.164889
0.161496
0.159788
0.150151
0.15195
0.155522
0.160815
0.167753
0.176235
0.186135
0.197309
0.209588
0.222789
0.236709
0.251136
0.265846
0.280606
0.295185
0.309346
0.322863
0.335514
0.34709
0.357401
0.366274
0.37356
0.379138
0.382913
0.384822
0.384834
0.382952
0.379209
0.373675
0.366447
0.357655
0.347455
0.336026
0.323571
0.310308
0.296467
0.282286
0.268007
0.253868
0.240097
0.226913
0.214514
0.20308
0.192767
0.183707
0.176007
0.169755
0.165013
0.161828
0.160227
0.146393
0.148149
0.151636
0.156803
0.163575
0.171855
0.18152
0.192427
0.204415
0.217302
0.230892
0.244978
0.259339
0.273751
0.287985
0.301813
0.315011
0.327365
0.338669
0.348738
0.357404
0.36452
0.369969
0.373657
0.375525
0.375543
0.373713
0.370072
0.364686
0.357655
0.349108
0.339201
0.328114
0.31605
0.303227
0.289876
0.276237
0.262548
0.249044
0.235951
0.223477
0.21181
0.201113
0.191522
0.183147
0.17607
0.170352
0.166035
0.163146
0.161696
0.142029
0.143736
0.147123
0.152143
0.158723
0.166768
0.176159
0.186757
0.198405
0.210928
0.224134
0.237822
0.251779
0.265785
0.279619
0.293059
0.305888
0.317895
0.328884
0.338672
0.347096
0.354015
0.359313
0.362902
0.364723
0.364748
0.362982
0.35946
0.354251
0.347455
0.339201
0.329647
0.318974
0.307387
0.295107
0.282368
0.269409
0.256471
0.243788
0.23158
0.220044
0.209354
0.199651
0.191043
0.183606
0.177389
0.172414
0.168689
0.166212
0.164974
0.137134
0.138785
0.14206
0.146916
0.15328
0.16106
0.170143
0.180394
0.191661
0.203774
0.21655
0.229791
0.243293
0.256844
0.270228
0.283232
0.295645
0.307263
0.317897
0.327369
0.335522
0.342219
0.347349
0.350827
0.352596
0.352632
0.350938
0.347555
0.34255
0.336026
0.328114
0.318974
0.308792
0.297775
0.286151
0.274159
0.262044
0.250051
0.238413
0.227346
0.217038
0.207642
0.199269
0.191991
0.185835
0.180798
0.17685
0.173946
0.172043
0.1711
0.13179
0.133379
0.136533
0.141208
0.147336
0.154828
0.163574
0.173445
0.184295
0.195961
0.208265
0.221018
0.234023
0.247075
0.259968
0.272495
0.284452
0.295646
0.305891
0.315018
0.322874
0.32933
0.334276
0.337633
0.339347
0.339396
0.337786
0.334559
0.329786
0.323571
0.31605
0.307387
0.297775
0.28743
0.276588
0.2655
0.254421
0.243604
0.233289
0.223688
0.214979
0.20729
0.200694
0.195209
0.190797
0.187378
0.184845
0.183078
0.181971
0.181438
0.126086
0.12761
0.130634
0.135116
0.140991
0.148174
0.15656
0.166026
0.17643
0.187617
0.199417
0.211648
0.224121
0.236641
0.249008
0.261024
0.272496
0.283235
0.293064
0.301822
0.309362
0.315559
0.32031
0.323538
0.325195
0.32526
0.323745
0.320691
0.316176
0.310308
0.303227
0.295107
0.286151
0.276588
0.266671
0.256668
0.246851
0.237493
0.228843
0.221118
0.214484
0.209041
0.204812
0.201743
0.199702
0.198501
0.197916
0.197723
0.19772
0.197756
0.120117
0.121571
0.124459
0.128739
0.134349
0.141209
0.149218
0.158258
0.168195
0.17888
0.190151
0.201835
0.213751
0.225711
0.237527
0.249008
0.25997
0.270232
0.279626
0.287997
0.295205
0.301131
0.305678
0.308773
0.310372
0.310458
0.309047
0.306184
0.301953
0.296467
0.289876
0.282368
0.274159
0.2655
0.256668
0.247957
0.239672
0.232112
0.225549
0.220214
0.216265
0.21377
0.21269
0.212871
0.21405
0.215882
0.21798
0.219959
0.221486
0.222312
0.113979
0.115363
0.11811
0.122182
0.12752
0.134046
0.141666
0.150268
0.159724
0.169892
0.180618
0.191738
0.203079
0.214464
0.225712
0.236642
0.247078
0.256849
0.265795
0.273766
0.280633
0.28628
0.290618
0.293577
0.295119
0.295231
0.293934
0.291279
0.287355
0.282286
0.276237
0.269409
0.262044
0.254421
0.246851
0.239672
0.233232
0.227875
0.223916
0.221609
0.221118
0.222477
0.225571
0.230112
0.235656
0.241634
0.247419
0.252394
0.256033
0.25795
0.107772
0.109085
0.111689
0.11555
0.120611
0.1268
0.134027
0.142184
0.151152
0.160796
0.170971
0.181519
0.192278
0.20308
0.213752
0.224123
0.234027
0.2433
0.251791
0.259359
0.265879
0.271245
0.275371
0.278195
0.279682
0.279825
0.278651
0.276218
0.272624
0.268007
0.262548
0.256471
0.250051
0.243604
0.237493
0.232112
0.227875
0.225197
0.224456
0.225958
0.229888
0.236257
0.244856
0.25523
0.266679
0.278314
0.289154
0.29825
0.304799
0.308218
0.101595
0.102836
0.105298
0.108949
0.113735
0.119587
0.12642
0.134135
0.142617
0.151739
0.161362
0.171341
0.181519
0.191739
0.201836
0.211651
0.221023
0.229799
0.237837
0.245002
0.251177
0.256263
0.26018
0.262871
0.264306
0.264486
0.263443
0.261245
0.258002
0.253868
0.249044
0.243788
0.238413
0.233289
0.228843
0.225549
0.223916
0.224456
0.22765
0.233892
0.243423
0.256249
0.272067
0.290208
0.309624
0.328963
0.346725
0.361472
0.372008
0.377485
0.0955433
0.0967139
0.0990373
0.102481
0.106997
0.112519
0.118967
0.126247
0.134251
0.14286
0.151944
0.161363
0.170971
0.180619
0.190153
0.19942
0.208271
0.21656
0.224152
0.230922
0.236759
0.241571
0.245283
0.247845
0.249234
0.249456
0.248551
0.246599
0.243723
0.240097
0.235951
0.23158
0.227346
0.223688
0.221118
0.220214
0.221609
0.225958
0.233892
0.245949
0.262482
0.283542
0.308749
0.337182
0.367325
0.397149
0.424372
0.446839
0.462808
0.471083
0.0897114
0.0908143
0.0930032
0.0962481
0.100503
0.105706
0.111781
0.118642
0.126185
0.134299
0.14286
0.151739
0.160797
0.169893
0.178882
0.187621
0.195968
0.203786
0.210948
0.217337
0.222848
0.227396
0.230911
0.233352
0.2347
0.234968
0.234207
0.232508
0.230011
0.226913
0.223477
0.220044
0.217038
0.214979
0.214484
0.216265
0.221118
0.229888
0.243423
0.262482
0.287624
0.319033
0.356322
0.398313
0.44288
0.486993
0.527144
0.560111
0.583422
0.595457
0.0841878
0.0852265
0.0872878
0.0903436
0.0943504
0.0992507
0.104974
0.111435
0.118541
0.126185
0.134252
0.142617
0.151153
0.159725
0.168198
0.176435
0.184304
0.191675
0.198429
0.204456
0.209658
0.213955
0.217287
0.219614
0.220926
0.221245
0.22063
0.219187
0.217073
0.214514
0.21181
0.209354
0.207642
0.20729
0.209041
0.21377
0.222477
0.236257
0.256249
0.283542
0.319033
0.363205
0.415826
0.475551
0.539527
0.603221
0.661058
0.708222
0.741328
0.758335
0.0790554
0.0800342
0.0819768
0.0848567
0.088633
0.0932515
0.0986457
0.104737
0.111436
0.118642
0.126248
0.134136
0.142186
0.15027
0.158261
0.166031
0.173455
0.18041
0.186785
0.192475
0.19739
0.201455
0.204615
0.206839
0.208122
0.208494
0.208025
0.206834
0.205101
0.20308
0.201113
0.199651
0.199269
0.200694
0.204812
0.21269
0.225571
0.244856
0.272067
0.308749
0.356322
0.415826
0.487508
0.570191
0.660368
0.751285
0.833404
0.899563
0.945474
0.968884
0.0743901
0.0753145
0.0771489
0.0798687
0.0834351
0.0877972
0.0928921
0.0986458
0.104974
0.111782
0.118968
0.126422
0.134028
0.141669
0.149222
0.156567
0.163584
0.170161
0.17619
0.181574
0.186227
0.190082
0.193088
0.195219
0.196479
0.196904
0.196576
0.195629
0.194265
0.192767
0.191522
0.191043
0.191991
0.195209
0.201743
0.212871
0.230112
0.25523
0.290208
0.337182
0.398313
0.475551
0.570191
0.682036
0.80774
0.937772
1.05337
1.14443
1.2065
1.23782
0.07026
0.0711361
0.0728747
0.0754525
0.0788329
0.0829676
0.0877973
0.0932518
0.0992511
0.105706
0.11252
0.119588
0.126802
0.134049
0.141213
0.148181
0.154839
0.16108
0.166803
0.171915
0.176337
0.180005
0.182875
0.184927
0.186168
0.186645
0.18645
0.185731
0.184712
0.183707
0.183147
0.183606
0.185835
0.190797
0.199702
0.21405
0.235656
0.266679
0.309624
0.367325
0.44288
0.539527
0.660368
0.80774
0.981395
1.17195
1.3334
1.45562
1.53687
1.57732
0.0667249
0.0675596
0.0692161
0.0716722
0.0748931
0.078833
0.0834353
0.0886334
0.094351
0.100503
0.106998
0.113736
0.120613
0.127522
0.134354
0.140998
0.147349
0.153302
0.158761
0.163641
0.167864
0.171374
0.174128
0.176112
0.17734
0.177866
0.17779
0.177276
0.176567
0.176007
0.17607
0.177389
0.180798
0.187378
0.198501
0.215882
0.241634
0.278314
0.328963
0.397149
0.486993
0.603221
0.751285
0.937772
1.17195
1.47196
1.69191
1.84902
1.95068
2.00064
0.0638351
0.064636
0.0662253
0.0685819
0.0716723
0.0754528
0.079869
0.0848572
0.0903443
0.096249
0.102483
0.10895
0.115552
0.122185
0.128744
0.135124
0.141222
0.146939
0.152184
0.156873
0.160935
0.164314
0.166974
0.168904
0.170123
0.170691
0.170716
0.170377
0.169933
0.169755
0.170352
0.172414
0.17685
0.184845
0.197916
0.21798
0.247419
0.289154
0.346725
0.424372
0.527144
0.661058
0.833404
1.05337
1.3334
1.69191
1.95591
2.1427
2.26248
2.32103
0.0616315
0.0624066
0.0639448
0.0662255
0.0692164
0.0728751
0.0771494
0.0819774
0.0872886
0.0930042
0.0990386
0.1053
0.111691
0.118113
0.124464
0.130642
0.136548
0.142085
0.147166
0.15171
0.155648
0.158928
0.161517
0.163406
0.164619
0.16522
0.165327
0.165125
0.164889
0.165013
0.166035
0.168689
0.173946
0.183078
0.197723
0.219959
0.252394
0.29825
0.361472
0.446839
0.560111
0.708222
0.899563
1.14443
1.45562
1.84902
2.1427
2.35127
2.48502
2.55034
0.0601452
0.0609029
0.0624067
0.0646362
0.0675599
0.0711366
0.075315
0.0800349
0.0852273
0.0908154
0.0967153
0.102837
0.109087
0.115367
0.121577
0.127619
0.133394
0.13881
0.14378
0.148226
0.152081
0.155294
0.157835
0.159697
0.160907
0.161531
0.161693
0.161586
0.161496
0.161828
0.163146
0.166212
0.172043
0.181971
0.19772
0.221486
0.256033
0.304799
0.372008
0.462808
0.583422
0.741328
0.945474
1.2065
1.53687
1.95068
2.26248
2.48502
2.62803
2.69791
0.0593967
0.0601453
0.0616317
0.0638353
0.0667253
0.0702605
0.0743907
0.0790562
0.0841888
0.0897126
0.0955447
0.101597
0.107775
0.113983
0.120122
0.126095
0.131805
0.137161
0.142075
0.146471
0.150284
0.153464
0.155981
0.157829
0.159037
0.159673
0.159864
0.159805
0.159788
0.160227
0.161696
0.164974
0.1711
0.181438
0.197756
0.222312
0.25795
0.308218
0.377485
0.471083
0.595457
0.758335
0.968884
1.23782
1.57732
2.00064
2.32103
2.55034
2.69791
2.77008
)
;

boundaryField
{
    walls
    {
        type            zeroGradient;
    }
    frontAndBack
    {
        type            empty;
    }
}


// ************************************************************************* //
