/*--------------------------------*- C++ -*----------------------------------*\
| =========                 |                                                 |
| \\      /  F ield         | OpenFOAM: The Open Source CFD Toolbox           |
|  \\    /   O peration     | Version:  2406                                  |
|   \\  /    A nd           | Website:  www.openfoam.com                      |
|    \\/     M anipulation  |                                                 |
\*---------------------------------------------------------------------------*/
FoamFile
{
    version     2.0;
    format      ascii;
    arch        "LSB;label=32;scalar=64";
    class       volScalarField;
    location    "0.2";
    object      nu;
}
// * * * * * * * * * * * * * * * * * * * * * * * * * * * * * * * * * * * * * //

dimensions      [0 2 -1 0 0 0 0];

internalField   nonuniform List<scalar> 
1800
(
0.0190686
0.0112605
0.0100132
0.010441
0.0106415
0.0105302
0.0103862
0.0101162
0.00993556
0.00903642
0.0231825
0.00986438
0.00935885
0.0100688
0.0106326
0.0108482
0.010806
0.0102523
0.00959089
0.00796448
0.0137095
0.00905242
0.00905084
0.0100062
0.010852
0.0112565
0.0113275
0.0106819
0.00955411
0.00835575
0.0107253
0.00848562
0.0088292
0.00995365
0.010946
0.0113868
0.0114023
0.0105886
0.00929355
0.0080949
0.00916373
0.00812192
0.00868447
0.00994556
0.0110291
0.0114617
0.0114134
0.0104769
0.0091024
0.00811425
0.00824067
0.0078643
0.0085795
0.00994952
0.0111048
0.0115412
0.0114188
0.0103345
0.00892685
0.00797144
0.00764177
0.00767698
0.00852312
0.0100067
0.0112521
0.0116949
0.0114371
0.010165
0.00877246
0.00793306
0.00722702
0.0075428
0.00851688
0.0101548
0.0115789
0.0120599
0.0115273
0.00995024
0.00859493
0.00788098
0.00692993
0.00745337
0.00857296
0.0104566
0.0122138
0.0127126
0.0116336
0.00971595
0.00845158
0.00790645
0.00671575
0.007404
0.00869444
0.0109474
0.0132442
0.0135778
0.0116129
0.00947698
0.00836189
0.00798584
0.0116673
0.0452164
0.0538075
0.0311045
0.0257438
0.0250444
0.0235676
0.0206745
0.0173871
0.0148186
0.0113711
0.0536831
0.0386486
0.0258276
0.0239505
0.0241513
0.0226512
0.0196024
0.0163314
0.0139364
0.011131
0.0689663
0.0300556
0.0222105
0.0224086
0.0231382
0.0216623
0.0185903
0.0154039
0.0131847
0.0109223
0.0885333
0.0246319
0.0199239
0.0212989
0.0222693
0.0208217
0.0177421
0.0146184
0.0125406
0.0107764
0.0689525
0.020857
0.0184901
0.0204732
0.0215989
0.0202482
0.0171646
0.0140393
0.0120544
0.0107276
0.0421967
0.0184112
0.0175714
0.019938
0.0212577
0.0200714
0.0169325
0.0136514
0.0116555
0.0108256
0.028696
0.0166531
0.0169144
0.0197569
0.021585
0.0207705
0.0173483
0.0135308
0.0113816
0.0111789
0.0211009
0.0149516
0.0158597
0.0185803
0.020937
0.0219554
0.0190324
0.0139507
0.0113233
0.0120415
0.0164348
0.0130709
0.0138229
0.0150415
0.016113
0.0182857
0.0200913
0.0148619
0.0113429
0.0138443
0.0135165
0.0114257
0.0118733
0.012147
0.0120394
0.0123035
0.0130248
0.0124112
0.0111933
0.0141455
0.0139444
0.0176597
0.022507
0.0286439
0.0369234
0.0446927
0.0527586
0.0554313
0.0728235
0.0138635
0.0142221
0.0175495
0.0225903
0.0289726
0.0384787
0.0480088
0.0578803
0.0601067
0.0789131
0.013586
0.0147678
0.0175299
0.0227929
0.0291972
0.0398737
0.0509551
0.062862
0.0651852
0.0847209
0.013355
0.0156281
0.0175244
0.0227561
0.0289095
0.0396106
0.0505745
0.0618459
0.0651994
0.0801849
0.0131662
0.0162596
0.0170527
0.0214569
0.0265602
0.0346719
0.042463
0.0493701
0.0524696
0.0588081
0.0127486
0.0151874
0.0153191
0.0181753
0.0215167
0.02591
0.0298741
0.032983
0.0345913
0.0364687
0.0121513
0.0130721
0.0130164
0.0145961
0.0165564
0.0187974
0.020844
0.0224685
0.0234184
0.0242995
0.0110824
0.0114166
0.0113431
0.012179
0.0132094
0.0142999
0.0153156
0.016158
0.0167829
0.0173059
0.010102
0.0103123
0.0106212
0.0112941
0.0120414
0.0127568
0.013399
0.0139238
0.0142682
0.0146816
0.0086357
0.00960935
0.00994944
0.0105864
0.0112906
0.0119142
0.0124506
0.012897
0.013209
0.0136322
0.0098433
0.0107617
0.0105919
0.0109699
0.0115776
0.0121557
0.0126763
0.0131216
0.0134041
0.0138682
0.0120418
0.0112752
0.0113962
0.0119842
0.0127928
0.0135175
0.0141417
0.0146751
0.0149996
0.0154926
0.00988433
0.0111037
0.0117609
0.0128133
0.0142245
0.0155286
0.0166785
0.0176574
0.0183725
0.0189953
0.012341
0.012306
0.0127361
0.0142201
0.0167749
0.0195758
0.0223577
0.0251769
0.0272927
0.0300413
0.0126445
0.0125395
0.0132846
0.0151229
0.0187289
0.0236128
0.0298995
0.0385585
0.0518574
0.0872676
0.015765
0.0137072
0.0142473
0.0162794
0.0200713
0.024405
0.0286201
0.031664
0.0350122
0.0344251
0.0140385
0.0122081
0.0127122
0.0137932
0.0149062
0.0156413
0.0162011
0.0164957
0.0167962
0.0165685
0.00969073
0.00952415
0.00993609
0.0104018
0.0108073
0.0110897
0.0113199
0.011469
0.0115919
0.0115926
0.00768352
0.00804712
0.0084273
0.00876618
0.00903662
0.00922014
0.00936127
0.00945618
0.00952148
0.00956458
0.00710335
0.00757176
0.00792048
0.00823619
0.00840035
0.00848416
0.00854033
0.00857385
0.00859441
0.00863595
0.00840696
0.0082039
0.00807314
0.00804527
0.00801805
0.00809312
0.0080533
0.00814162
0.00791109
0.00805285
0.0102444
0.00991593
0.00960219
0.00931507
0.00903063
0.00892322
0.00872633
0.00887968
0.00881612
0.00887053
0.0140544
0.0160123
0.0180813
0.0167134
0.0147662
0.0129712
0.0115836
0.011094
0.0101376
0.00966846
0.0142746
0.0155606
0.0185068
0.0226996
0.0216503
0.0204946
0.0147652
0.014011
0.0121135
0.0113339
0.0160139
0.016212
0.016365
0.0166684
0.0155899
0.0155447
0.0135679
0.0137189
0.0125961
0.0123247
0.0169257
0.0169726
0.0164161
0.0161821
0.0149931
0.0150706
0.0138752
0.0140719
0.0135737
0.0132671
0.0132503
0.0132519
0.013039
0.0131235
0.0127818
0.0134047
0.0128575
0.0138459
0.0133714
0.0141801
0.00916325
0.00914911
0.00913683
0.00920753
0.00923564
0.00948872
0.0095239
0.00989475
0.00998089
0.0105792
0.0072458
0.00724258
0.00725409
0.00728059
0.00732589
0.00738534
0.00745682
0.00753991
0.00765915
0.00769203
0.00642903
0.00644955
0.0064782
0.00651302
0.00655743
0.00660176
0.00666505
0.00670344
0.0067913
0.00682284
0.0075692
0.00899661
0.0113468
0.0134338
0.0132911
0.0135068
0.0153547
0.0157173
0.00959831
0.00692956
0.00783361
0.00808851
0.00882559
0.0101072
0.0111128
0.0114468
0.0119713
0.0119034
0.00904946
0.00680573
0.00811238
0.00809367
0.00855654
0.00955839
0.0106214
0.0110349
0.0112154
0.0107253
0.00854722
0.00665426
0.00834889
0.00824659
0.00862085
0.00955672
0.0106859
0.0111719
0.0111934
0.0103083
0.00819678
0.0065253
0.00851961
0.00839129
0.00873772
0.00972548
0.0110624
0.0117066
0.011551
0.0101098
0.00794167
0.00643446
0.00858444
0.00846334
0.00884567
0.0100045
0.0117552
0.0127083
0.0121669
0.0099453
0.00774801
0.00638367
0.00856995
0.00846521
0.00893853
0.010363
0.0127441
0.0141948
0.0127592
0.00971667
0.00759954
0.00637199
0.00847268
0.00844854
0.00905373
0.0107658
0.0138419
0.0157112
0.012891
0.00943406
0.0074921
0.00639707
0.00830238
0.00840843
0.00917781
0.0111313
0.0144896
0.0158874
0.0124151
0.0091464
0.00742339
0.006459
0.00813361
0.0083591
0.00929403
0.0114117
0.0143135
0.0146395
0.0116454
0.00888979
0.00739361
0.0065625
0.01496
0.0153942
0.015801
0.0158783
0.0156433
0.0153283
0.0150998
0.0148292
0.0132775
0.00925592
0.0146434
0.0150421
0.0155864
0.0157484
0.0155133
0.0151933
0.0149819
0.0145965
0.0124974
0.00865392
0.0142871
0.0146636
0.0153769
0.0156485
0.0154232
0.0151078
0.0149229
0.0144152
0.0118495
0.00820973
0.0138464
0.014223
0.0151365
0.0155594
0.0153764
0.0150916
0.0149454
0.0142911
0.0113111
0.00786999
0.0134265
0.0138279
0.0149712
0.0156092
0.015488
0.0152294
0.0151032
0.0142271
0.0108581
0.00760433
0.0132562
0.0136017
0.0149314
0.0157411
0.0156976
0.015524
0.0154494
0.014269
0.010496
0.00739797
0.0119872
0.0125417
0.0141617
0.0156277
0.0160827
0.0161005
0.0159895
0.0142644
0.0101623
0.00723362
0.0127822
0.0131412
0.0153822
0.0176005
0.0180758
0.0178127
0.0173659
0.014695
0.00996704
0.00711981
0.0102242
0.010403
0.011806
0.0143984
0.0173373
0.0186814
0.0181067
0.0142844
0.00966562
0.00701873
0.0131037
0.0176667
0.0193055
0.0229016
0.0312121
0.0520667
0.0376924
0.0166115
0.00962499
0.00696741
0.0157147
0.0303985
0.0244154
0.0704025
0.0696217
0.0409017
0.0284255
0.0211061
0.0147306
0.0136005
0.0154901
0.029542
0.0238304
0.0583749
0.0820289
0.0458425
0.0300638
0.0210642
0.0149212
0.013471
0.0152524
0.0287882
0.0230862
0.0490371
0.0890921
0.0519504
0.0324846
0.0211673
0.0152688
0.0133554
0.0149753
0.0280642
0.0222356
0.0443148
0.109418
0.0576026
0.0358102
0.0216881
0.0159192
0.0132167
0.0146677
0.0273438
0.0217086
0.0457396
0.182701
0.0585117
0.0378504
0.0224193
0.016524
0.0133256
0.014422
0.0276565
0.0227693
0.0583738
0.129697
0.0465068
0.0325335
0.0211433
0.0166753
0.0126393
0.0141458
0.0310789
0.0252758
0.0743923
0.0399982
0.0297454
0.0249158
0.0197521
0.0159129
0.0135053
0.0139874
0.0339707
0.0250068
0.0257505
0.0198205
0.0179754
0.0166461
0.0147091
0.0135156
0.01179
0.0138415
0.0249237
0.0202719
0.0175108
0.0154139
0.0145404
0.0138836
0.0129476
0.0124565
0.0113763
0.0138951
0.0187319
0.0169873
0.015266
0.0136964
0.0128973
0.0123496
0.0115768
0.0110847
0.0116878
0.0138818
0.0165714
0.0166186
0.0147271
0.0133154
0.0124869
0.0117514
0.011068
0.0102154
0.0103441
0.0138414
0.0154153
0.0182474
0.0154916
0.0140438
0.0130995
0.0121297
0.0115701
0.0101006
0.0114434
0.0140209
0.0142136
0.0224806
0.0177598
0.0159418
0.0145711
0.0135594
0.0119281
0.011758
0.0113909
0.0144722
0.0134053
0.0254236
0.0218593
0.0197466
0.0176389
0.0159589
0.013307
0.013306
0.0120702
0.0151365
0.0130061
0.0234699
0.0246568
0.0239347
0.0211259
0.0186848
0.0142558
0.0152105
0.0123614
0.0159968
0.0128999
0.0210284
0.0240641
0.0250053
0.0240592
0.0197836
0.0163208
0.0147238
0.0125814
0.0174523
0.0131695
0.016935
0.0171538
0.0167613
0.0168976
0.0157141
0.0161921
0.0130712
0.0125694
0.0189382
0.0131098
0.0122793
0.0119939
0.0116302
0.0115077
0.0113027
0.011213
0.010621
0.0103405
0.0161092
0.0113318
0.00988837
0.00977885
0.00951789
0.00935997
0.00922332
0.00892364
0.00880329
0.00831918
0.00856326
0.00801293
0.00904557
0.00863384
0.00846441
0.00827445
0.00809584
0.00777002
0.00759298
0.00711727
0.00901551
0.0102518
0.0106722
0.010686
0.0105072
0.0101299
0.00976328
0.00940568
0.0090305
0.00869971
0.0118571
0.0119803
0.0121607
0.0123679
0.0123479
0.0119348
0.0113828
0.0109986
0.0107782
0.0105351
0.0112352
0.0112246
0.0113999
0.0118428
0.0125737
0.0132226
0.0132389
0.012935
0.0128908
0.0130831
0.0128099
0.0128852
0.0130042
0.0134749
0.0146895
0.0158124
0.0155684
0.0146612
0.0140564
0.0138754
0.0128272
0.0128892
0.0131066
0.0139524
0.01579
0.0173343
0.0170859
0.0164194
0.0159566
0.0158539
0.0135116
0.0140451
0.0148306
0.016213
0.0174177
0.0167838
0.0159566
0.0158463
0.0161996
0.0166636
0.0124878
0.0127034
0.0133709
0.0135578
0.0129069
0.0123371
0.0122361
0.0124576
0.0128191
0.0131411
0.00995295
0.00986492
0.00988559
0.0096916
0.00935926
0.00915243
0.00911049
0.00914533
0.00917638
0.00918354
0.00814502
0.008001
0.00788261
0.00775685
0.00760511
0.00747163
0.00738351
0.00732845
0.00728936
0.00726127
0.00695683
0.00683741
0.00674446
0.00666704
0.00658506
0.00650991
0.00645697
0.0064271
0.00641538
0.00641676
0.00642473
0.00710126
0.00854719
0.013472
0.193716
0.0191855
0.0117717
0.00978285
0.00882948
0.00822736
0.00651946
0.00707961
0.00832293
0.0119919
0.0331817
0.0199003
0.0123174
0.00991164
0.00884812
0.0082439
0.00665972
0.00710348
0.00815947
0.0107866
0.0172335
0.0172893
0.0126978
0.0103544
0.00918957
0.00852577
0.00685171
0.00717848
0.00807284
0.00999693
0.0131034
0.0142285
0.0126016
0.0109792
0.00990748
0.00918483
0.00709621
0.00731507
0.00808817
0.0095682
0.0113755
0.0121644
0.0118304
0.011226
0.010726
0.0103076
0.00739352
0.00752407
0.0082134
0.00940512
0.0105522
0.0110136
0.0110295
0.0110202
0.0112091
0.0116722
0.00773808
0.00781645
0.00845813
0.00945538
0.0102156
0.0104548
0.0105197
0.0107206
0.0112918
0.0124368
0.00813137
0.00821017
0.0088365
0.00969
0.0101907
0.0102858
0.010342
0.0106196
0.011372
0.012678
0.00857496
0.00872472
0.00936561
0.0100914
0.0103908
0.0103888
0.0104277
0.010713
0.0114703
0.0121852
0.00910154
0.00941868
0.0101297
0.0107232
0.0107825
0.010619
0.0105544
0.0106886
0.0112106
0.0119974
0.00968659
0.010322
0.0112849
0.0119093
0.0118176
0.0115532
0.0115733
0.0120178
0.0126448
0.0147566
0.0103079
0.0113744
0.0126887
0.01345
0.0133621
0.0132039
0.0135964
0.0147528
0.0154984
0.0156255
0.0109984
0.0126715
0.01448
0.0153836
0.015288
0.015226
0.0158091
0.01698
0.0170597
0.0159857
0.0116907
0.0142781
0.0168527
0.0178611
0.0176158
0.0174382
0.0178176
0.0184617
0.0179155
0.0163611
0.012278
0.0162859
0.0202034
0.0211481
0.0203729
0.0197233
0.0196018
0.0196632
0.0187818
0.0170519
0.012657
0.0188445
0.0255476
0.025939
0.023823
0.02223
0.0214273
0.0209135
0.0196881
0.0176856
0.0127848
0.0221182
0.0352785
0.0335054
0.0279553
0.0247305
0.0231165
0.0219696
0.0202679
0.0179338
0.0126944
0.0264766
0.0620979
0.04584
0.03117
0.0262794
0.0241566
0.0224151
0.0201478
0.0175461
0.0124001
0.0313744
0.337947
0.0488358
0.0304186
0.0264951
0.0244862
0.0222527
0.0194573
0.0167291
0.0121058
0.0365979
0.0974708
0.0394861
0.0281238
0.02591
0.0242473
0.0216246
0.018472
0.0157701
0.0135531
0.0173466
0.0226538
0.0339533
0.0361692
0.038911
0.0421342
0.0501436
0.0564782
0.0814571
0.0136906
0.0190164
0.0235059
0.0319172
0.0340001
0.0375589
0.0411113
0.0494388
0.0587515
0.0955438
0.0135504
0.0197295
0.0240404
0.0324569
0.0328106
0.0359115
0.0394937
0.0468986
0.0560584
0.0921514
0.013897
0.0194156
0.0233329
0.0297819
0.0298945
0.0327559
0.0363377
0.0429662
0.0515065
0.0822429
0.0141024
0.0179386
0.0220551
0.0269459
0.0280161
0.0307594
0.0343553
0.0400118
0.0473814
0.071116
0.014403
0.0162514
0.0204175
0.0247518
0.0271161
0.0301678
0.0340024
0.0392434
0.0454302
0.0641935
0.0146487
0.0149658
0.0194294
0.023653
0.0271547
0.0308581
0.0351265
0.0403954
0.0456761
0.0620927
0.0146307
0.0141986
0.0187553
0.0229439
0.0275342
0.0320277
0.0370303
0.0425706
0.0472339
0.0630268
0.0145161
0.0139277
0.0182938
0.0225869
0.02796
0.0334792
0.0392617
0.0453345
0.0494519
0.0653656
0.0143689
0.0138586
0.0179203
0.022493
0.0283333
0.0351794
0.0417758
0.0486493
0.0520528
0.0685384
0.00906173
0.0107758
0.0110484
0.0112055
0.0108493
0.0105456
0.0103183
0.010119
0.0100539
0.0100284
0.00999658
0.011582
0.0121087
0.0122431
0.0120347
0.0117705
0.0115627
0.0113713
0.0113134
0.011189
0.013538
0.0147901
0.0169656
0.0164089
0.0156502
0.0150913
0.0147166
0.0143844
0.0142209
0.013918
0.0213277
0.0201171
0.0424415
0.0344315
0.0264672
0.0242116
0.0231295
0.0223561
0.0215687
0.0207763
0.0152986
0.0172378
0.0304559
0.0540233
0.0399172
0.0379834
0.0380827
0.0399391
0.0388588
0.0405598
0.00702347
0.00715919
0.00731422
0.00743963
0.00752786
0.00758245
0.00766277
0.00777317
0.00797007
0.00822212
0.0072663
0.00736285
0.00750125
0.00763451
0.00780068
0.00801192
0.00830167
0.00871012
0.00904083
0.00959445
0.0074876
0.00755713
0.0077161
0.00794831
0.00834852
0.00899611
0.00997243
0.0114768
0.0124294
0.0167959
0.00769393
0.00774474
0.00794646
0.0083324
0.00908094
0.0105014
0.0131326
0.0181223
0.0215039
0.0252869
0.00789795
0.00794562
0.00821638
0.00878523
0.00984929
0.0116436
0.0137992
0.0165281
0.0160138
0.0157215
0.0127741
0.0136336
0.0152071
0.0155077
0.0148073
0.0141792
0.013773
0.0128187
0.0109866
0.00891223
0.0140749
0.0147494
0.0159077
0.0161073
0.0155238
0.0148015
0.0141874
0.0132425
0.011711
0.00966083
0.0141353
0.0146876
0.0155313
0.0157295
0.015503
0.0151249
0.0146629
0.013878
0.0127147
0.0107885
0.0144224
0.0151068
0.0158029
0.0158905
0.0156918
0.015388
0.0149761
0.0143725
0.0138332
0.0125778
0.0148025
0.0154413
0.0159384
0.0159314
0.0157164
0.0154284
0.0150695
0.0147307
0.0152095
0.016514
0.015162
0.0157639
0.0161006
0.0160116
0.0157363
0.0153916
0.0150473
0.0150278
0.0169163
0.0256244
0.015316
0.015896
0.0161544
0.0160531
0.0157714
0.0154209
0.0151366
0.0154504
0.0177393
0.0197976
0.015363
0.0159302
0.0161724
0.0161014
0.0158476
0.0155341
0.0153204
0.0155958
0.0167216
0.0139191
0.0153279
0.0158583
0.0161154
0.0160824
0.0158486
0.0155551
0.015349
0.0154096
0.015378
0.01146
0.0151796
0.015663
0.0159756
0.0159918
0.0157635
0.015464
0.0152395
0.0151071
0.0142205
0.010117
0.00845927
0.00917349
0.0101039
0.0114449
0.0143518
0.0224788
0.0127373
0.00876797
0.00717241
0.00637459
0.00901133
0.00995081
0.0108295
0.0116408
0.0125993
0.0137824
0.0123157
0.00904093
0.00728318
0.00636091
0.010137
0.011467
0.0119771
0.0118686
0.0118572
0.0120877
0.0115304
0.00923162
0.00742891
0.00638898
0.0124356
0.0139288
0.013112
0.0119739
0.0113622
0.0112137
0.0109424
0.00939501
0.00761523
0.00646401
0.016449
0.01607
0.0136152
0.0119839
0.0111484
0.0108347
0.010644
0.00955322
0.00784493
0.00658939
0.0195325
0.0169372
0.0137725
0.0120455
0.0111484
0.0107543
0.0105661
0.00973421
0.00812037
0.00676725
0.0223919
0.0167635
0.0134987
0.0120721
0.0112632
0.0108419
0.0106432
0.00996743
0.00845702
0.00700904
0.0171721
0.0134411
0.0123236
0.0118199
0.0113463
0.0110121
0.0108401
0.0102799
0.00887034
0.00732567
0.0122864
0.011405
0.0113631
0.0114682
0.0113704
0.011218
0.0111586
0.0107349
0.00940569
0.00774314
0.0101082
0.0107568
0.0115041
0.0119513
0.011951
0.0119037
0.0119876
0.0116122
0.0101547
0.00828691
0.0205909
0.0316319
0.0227654
0.0311347
0.0298251
0.0290701
0.0311448
0.0241271
0.0204855
0.0142251
0.0195543
0.0304335
0.0224374
0.0317912
0.0299144
0.0284468
0.0293406
0.0239574
0.0218004
0.0137401
0.0187216
0.0315761
0.0231366
0.0361683
0.0315132
0.0290613
0.0296637
0.0250058
0.0220499
0.0137254
0.0181254
0.0326245
0.0240027
0.0406906
0.0324491
0.0286367
0.0281985
0.0244763
0.0211558
0.0140469
0.0176277
0.0332511
0.0246461
0.0441056
0.0329505
0.0282739
0.026746
0.0235671
0.0192591
0.0141423
0.0171998
0.0335052
0.0251441
0.0481258
0.0339407
0.0285681
0.0256189
0.0225912
0.0171526
0.0142069
0.0168206
0.0332773
0.0254612
0.0549432
0.0365019
0.0298979
0.0253184
0.0221771
0.0158815
0.0140823
0.0164848
0.0327466
0.0254863
0.0660347
0.0407656
0.0319292
0.0255124
0.0216742
0.0151705
0.0139061
0.0161955
0.0320612
0.0252512
0.0786149
0.0471444
0.0343129
0.0260689
0.0213458
0.0148326
0.0138088
0.0159452
0.0312637
0.0248783
0.0805453
0.0565839
0.0371823
0.027083
0.0212161
0.0147015
0.0137137
0.007762
0.00773589
0.00984034
0.00937732
0.00973506
0.0100687
0.0103726
0.0102667
0.0102022
0.00884903
0.0128466
0.0111126
0.0102022
0.0109153
0.0110057
0.0113978
0.0118222
0.0119109
0.0121465
0.010732
0.0170622
0.0168229
0.012896
0.0137374
0.0137872
0.0144268
0.0153547
0.0166911
0.0164961
0.0147875
0.0194717
0.0320413
0.0198577
0.0211351
0.0207541
0.0222168
0.026293
0.04364
0.0260871
0.0164214
0.0212009
0.0386057
0.0248818
0.0311688
0.0295675
0.0303005
0.0381189
0.0356989
0.0220301
0.0138408
0.00834453
0.00790489
0.00752018
0.00721994
0.00699832
0.0068564
0.00678844
0.00677701
0.00681982
0.00690342
0.00995356
0.00925025
0.00866479
0.00819917
0.00780928
0.00751798
0.00731961
0.00720524
0.0071697
0.00719466
0.0131612
0.011862
0.0107607
0.0099671
0.00914486
0.00846946
0.00798575
0.00767964
0.00752139
0.00746839
0.0186429
0.0167435
0.0154541
0.014013
0.0120317
0.0101793
0.00895268
0.00826298
0.00790372
0.00773907
0.0141882
0.0245787
0.0450605
0.0224095
0.0166542
0.0130443
0.0104732
0.00909607
0.00838223
0.00802848
)
;

boundaryField
{
    left
    {
        type            calculated;
        value           nonuniform List<scalar> 
35
(
0.0104077
0.0109342
0.0115977
0.0121829
0.0125352
0.0126489
0.0125467
0.0119314
0.0108
0.0081748
0.0104353
0.0103599
0.0102851
0.0102096
0.0101389
0.0100943
0.0100441
0.0100385
0.0100529
0.0101742
0.011818
0.0116017
0.0114079
0.0112365
0.0110789
0.0109363
0.0108083
0.0106969
0.0105994
0.010514
0.00758824
0.010374
0.0113776
0.0117887
0.0119695
)
;
    }
    right
    {
        type            calculated;
        value           nonuniform List<scalar> 
35
(
0.0100295
0.011192
0.0139414
0.0209251
0.0426115
0.105274
0.139326
0.137094
0.118361
0.0957603
0.0832449
0.0802966
0.0830056
0.0886157
0.0964609
0.107848
0.126043
0.147351
0.133948
0.0790335
0.0413841
0.0257536
0.0177941
0.0149455
0.0138346
0.0140693
0.0157837
0.0194955
0.0319095
0.118619
0.0332875
0.016503
0.0115885
0.0095655
0.00863638
)
;
    }
    down
    {
        type            calculated;
        value           nonuniform List<scalar> 
40
(
0.00679177
0.00695992
0.0102812
0.00883483
0.00931521
0.00964171
0.00991956
0.00975668
0.00960373
0.00830201
0.00785737
0.00748711
0.00715328
0.0068994
0.00671709
0.00661097
0.00657701
0.00659388
0.00666031
0.00676403
0.00690466
0.00706228
0.00723738
0.00738644
0.00747533
0.00749619
0.00751812
0.00755418
0.00769785
0.00795806
0.00895208
0.010908
0.0109788
0.0111146
0.0105996
0.0102342
0.00997336
0.00975222
0.009677
0.00969597
)
;
    }
    up
    {
        type            calculated;
        value           nonuniform List<scalar> 
40
(
0.00703489
0.00752315
0.0078514
0.00816818
0.00826795
0.0082926
0.00830539
0.00830893
0.00831251
0.00834767
0.00620085
0.00623028
0.00626636
0.00630754
0.00635479
0.00640432
0.00645981
0.00651421
0.00657737
0.00663054
0.00655678
0.00645385
0.00638573
0.00632898
0.00626399
0.00620633
0.0061718
0.00615948
0.00616333
0.00617804
0.00737055
0.0071934
0.00897281
0.00825028
0.00810234
0.00789899
0.0077038
0.00738165
0.00717695
0.00672066
)
;
    }
    cylinder
    {
        type            calculated;
        value           nonuniform List<scalar> 
80
(
0.00931883
0.00905869
0.00885379
0.00868905
0.00859043
0.00855263
0.00859466
0.00877174
0.00917585
0.00986245
0.0110916
0.0130205
0.0170542
0.0238748
0.012277
0.00922724
0.00794708
0.00724154
0.00680035
0.00650682
0.00637029
0.00628552
0.00618023
0.0060918
0.00603478
0.00601308
0.00602741
0.00607767
0.0061673
0.00630492
0.00813518
0.00766946
0.00732756
0.00706685
0.00686373
0.00670633
0.00658296
0.00649822
0.00642758
0.00639565
0.00821871
0.0088941
0.00994508
0.0117576
0.0165132
0.0293775
0.0173233
0.0119198
0.00987897
0.00880831
0.00613624
0.00608886
0.00608557
0.0061299
0.00622343
0.00636678
0.006569
0.00683934
0.00719979
0.00767146
0.00622388
0.00636261
0.0065589
0.00682215
0.00715007
0.00753129
0.00793644
0.00834283
0.00873611
0.00915348
0.00957175
0.00999281
0.0104493
0.010847
0.0110778
0.0110831
0.0108812
0.0105485
0.0101348
0.00975663
)
;
    }
    defaultFaces
    {
        type            empty;
    }
}


// ************************************************************************* //
