/*--------------------------------*- C++ -*----------------------------------*\
| =========                 |                                                 |
| \\      /  F ield         | OpenFOAM: The Open Source CFD Toolbox           |
|  \\    /   O peration     | Version:  2406                                  |
|   \\  /    A nd           | Website:  www.openfoam.com                      |
|    \\/     M anipulation  |                                                 |
\*---------------------------------------------------------------------------*/
FoamFile
{
    version     2.0;
    format      ascii;
    arch        "LSB;label=32;scalar=64";
    class       volScalarField;
    location    "0.2";
    object      p;
}
// * * * * * * * * * * * * * * * * * * * * * * * * * * * * * * * * * * * * * //

dimensions      [0 2 -2 0 0 0 0];

internalField   nonuniform List<scalar> 
1800
(
-1.92164
-1.91944
-1.91549
-1.91143
-1.90928
-1.91087
-1.91643
-1.92539
-1.93706
-1.95088
-2.0468
-2.04138
-2.03874
-2.03385
-2.03037
-2.02998
-2.03281
-2.03837
-2.04616
-2.05555
-2.17974
-2.1688
-2.16596
-2.16242
-2.16058
-2.16252
-2.16868
-2.17862
-2.19071
-2.20351
-2.30046
-2.29145
-2.28721
-2.28353
-2.28241
-2.28612
-2.29522
-2.30909
-2.32537
-2.34133
-2.40554
-2.39664
-2.3924
-2.3888
-2.38829
-2.39357
-2.40536
-2.42291
-2.44324
-2.46238
-2.48856
-2.47997
-2.47514
-2.47056
-2.46926
-2.47428
-2.48636
-2.50448
-2.52512
-2.54346
-2.54754
-2.53822
-2.53159
-2.52466
-2.52101
-2.52386
-2.53388
-2.54969
-2.56734
-2.58136
-2.57911
-2.56847
-2.55899
-2.54842
-2.54085
-2.53953
-2.54493
-2.55509
-2.56576
-2.5712
-2.58133
-2.5691
-2.55618
-2.54125
-2.52898
-2.52248
-2.52178
-2.52433
-2.52591
-2.52109
-2.5533
-2.53942
-2.52291
-2.50362
-2.48661
-2.47463
-2.46709
-2.46109
-2.45275
-2.43715
-0.727813
-0.729903
-0.7247
-0.714865
-0.704731
-0.693659
-0.68096
-0.666906
-0.651407
-0.63308
-0.816421
-0.818278
-0.813427
-0.804042
-0.79416
-0.783232
-0.77087
-0.75729
-0.742313
-0.724191
-0.916117
-0.918137
-0.913911
-0.905082
-0.895933
-0.885581
-0.873989
-0.861355
-0.847371
-0.829909
-1.02645
-1.02891
-1.02495
-1.01731
-1.00912
-0.999729
-0.989417
-0.978321
-0.96593
-0.949731
-1.14863
-1.14968
-1.14452
-1.13941
-1.13231
-1.12424
-1.11573
-1.10681
-1.09674
-1.08257
-1.27919
-1.27812
-1.27245
-1.26857
-1.2632
-1.25712
-1.25114
-1.24528
-1.23857
-1.22739
-1.41332
-1.40999
-1.406
-1.40338
-1.39962
-1.3958
-1.39266
-1.39054
-1.38828
-1.38106
-1.54763
-1.54346
-1.5407
-1.5394
-1.53776
-1.53645
-1.53638
-1.5383
-1.54142
-1.53879
-1.67801
-1.67394
-1.67206
-1.67148
-1.67161
-1.67371
-1.67762
-1.68359
-1.69085
-1.68982
-1.80106
-1.79717
-1.79364
-1.79187
-1.79174
-1.79504
-1.80168
-1.81103
-1.8208
-1.82112
-0.497
-0.296988
-0.183781
-0.0968172
-0.0492316
-0.0169014
-0.000937232
0.0079614
0.010691
0.00211372
-0.565758
-0.324709
-0.190458
-0.0945913
-0.0435563
-0.011189
0.00384776
0.011367
0.0128227
0.00284969
-0.649791
-0.357648
-0.198593
-0.0923043
-0.0375349
-0.0049959
0.00907579
0.0151116
0.0151305
0.00361844
-0.750373
-0.395336
-0.207845
-0.0896002
-0.0308159
0.00193626
0.0149916
0.0194403
0.0177341
0.00447373
-0.867895
-0.437106
-0.217501
-0.0857298
-0.0228476
0.00998555
0.0218805
0.0246013
0.0208488
0.00563653
-1.00301
-0.485963
-0.227703
-0.0803727
-0.0133463
0.0191996
0.0296532
0.0305011
0.0245476
0.00725677
-1.15426
-0.550532
-0.242139
-0.0757397
-0.0036413
0.02853
0.0375319
0.0365433
0.0285232
0.00920722
-1.3147
-0.632195
-0.264297
-0.0746898
0.00412536
0.0364671
0.0444075
0.0418987
0.0322406
0.011176
-1.47261
-0.735762
-0.300876
-0.0820339
0.00673173
0.0408881
0.0488766
0.0456011
0.0350145
0.0128184
-1.61221
-0.845422
-0.347822
-0.0972292
0.00322492
0.0402909
0.0494596
0.0464803
0.0360093
0.0137494
-1.715
-0.877713
-0.355232
-0.0989603
0.00343508
0.0392561
0.0482853
0.0452686
0.0352761
0.0138307
-1.60444
-0.884536
-0.383513
-0.124808
-0.0175037
0.0224758
0.0356868
0.0361774
0.0293113
0.0117551
-1.52972
-0.86301
-0.400548
-0.154508
-0.0444363
0.000390143
0.019419
0.0249828
0.0220791
0.00902141
-1.35353
-0.815615
-0.423357
-0.191045
-0.0759863
-0.024228
0.00191183
0.0134152
0.0147956
0.00632213
-1.25096
-0.787828
-0.4508
-0.233957
-0.111635
-0.0505408
-0.016356
0.00162403
0.00838627
0.00430714
-1.13378
-0.751981
-0.47602
-0.276977
-0.148318
-0.0775961
-0.0356759
-0.0116427
7.35442e-05
0.00082294
-1.0362
-0.735186
-0.508891
-0.322969
-0.187386
-0.105832
-0.0557639
-0.0255385
-0.00856299
-0.0021616
-0.954413
-0.730034
-0.540025
-0.361507
-0.219649
-0.127664
-0.070233
-0.0348254
-0.0138592
-0.00380267
-0.893988
-0.728849
-0.558132
-0.382606
-0.237787
-0.139409
-0.0775895
-0.0393538
-0.0163305
-0.00449152
-0.89933
-0.755119
-0.576882
-0.395952
-0.249758
-0.148165
-0.0834698
-0.0431372
-0.018649
-0.00544119
-2.3798
-2.47781
-2.54259
-2.5705
-2.55192
-2.49309
-2.38386
-2.26788
-2.11491
-2.03365
-2.2014
-2.30471
-2.38032
-2.42715
-2.44004
-2.41445
-2.34288
-2.24234
-2.09699
-1.98155
-1.98452
-2.07358
-2.14007
-2.18974
-2.20928
-2.20138
-2.15006
-2.07807
-1.97474
-1.88795
-1.78166
-1.8586
-1.91637
-1.95651
-1.96823
-1.96359
-1.92028
-1.86389
-1.78586
-1.70991
-1.60878
-1.67576
-1.72566
-1.75787
-1.76301
-1.75169
-1.70922
-1.65891
-1.59772
-1.53601
-1.46405
-1.52333
-1.56671
-1.59333
-1.59477
-1.5795
-1.54149
-1.49882
-1.44686
-1.39068
-1.34115
-1.39723
-1.43775
-1.46088
-1.46169
-1.44532
-1.41341
-1.37216
-1.3218
-1.26494
-1.2434
-1.30045
-1.34034
-1.36158
-1.36297
-1.34667
-1.31739
-1.27158
-1.22105
-1.15824
-1.18794
-1.24332
-1.28101
-1.30109
-1.3022
-1.28537
-1.25469
-1.20359
-1.15054
-1.07836
-1.17303
-1.22787
-1.26553
-1.28483
-1.28584
-1.27089
-1.23693
-1.19173
-1.13258
-1.05281
-0.947821
-0.99125
-1.02015
-1.03586
-1.04901
-1.06684
-1.08592
-1.0984
-1.10615
-1.1093
-1.16133
-1.19887
-1.21736
-1.22596
-1.23504
-1.2474
-1.26221
-1.2753
-1.28337
-1.2844
-1.33798
-1.36827
-1.38533
-1.39577
-1.4064
-1.41916
-1.43403
-1.44867
-1.45925
-1.46096
-1.48405
-1.51429
-1.53526
-1.55154
-1.56763
-1.58471
-1.60281
-1.62054
-1.63477
-1.6394
-1.62667
-1.65982
-1.68517
-1.70652
-1.72755
-1.749
-1.77068
-1.79163
-1.80947
-1.81763
-1.7729
-1.80869
-1.83679
-1.86125
-1.88557
-1.91018
-1.93461
-1.95807
-1.97857
-1.99079
-1.92013
-1.95729
-1.98565
-2.01112
-2.03675
-2.06281
-2.08869
-2.1139
-2.13616
-2.15046
-2.06381
-2.10001
-2.12758
-2.15212
-2.17639
-2.20138
-2.22708
-2.25282
-2.27534
-2.291
-2.20134
-2.23381
-2.25794
-2.2785
-2.29863
-2.32035
-2.34436
-2.36942
-2.39112
-2.40696
-2.32871
-2.3538
-2.37099
-2.38495
-2.39914
-2.41627
-2.43726
-2.46011
-2.47971
-2.49488
0.356637
0.343001
0.33052
0.319517
0.310053
0.301984
0.295214
0.290246
0.289234
0.296871
0.286481
0.271245
0.257201
0.244699
0.233861
0.22449
0.216507
0.210633
0.209012
0.215689
0.202638
0.185807
0.170084
0.155945
0.143614
0.132828
0.123505
0.116559
0.114089
0.11959
0.104985
0.0863975
0.0688117
0.0528901
0.0389618
0.0266712
0.015921
0.00778413
0.00427971
0.0084175
-0.005651
-0.0259584
-0.0456862
-0.0637173
-0.0795317
-0.0935478
-0.105878
-0.115357
-0.120115
-0.117578
-0.134906
-0.157282
-0.178273
-0.197375
-0.214244
-0.229339
-0.242735
-0.253194
-0.259054
-0.258147
-0.267674
-0.290742
-0.314966
-0.337698
-0.35773
-0.375343
-0.39067
-0.402714
-0.410212
-0.411343
-0.450258
-0.473783
-0.493508
-0.511281
-0.527722
-0.543035
-0.5567
-0.567735
-0.575275
-0.577671
-0.58357
-0.605894
-0.632548
-0.658367
-0.681392
-0.70183
-0.720029
-0.734633
-0.74462
-0.748834
-0.832874
-0.853056
-0.867704
-0.877678
-0.88583
-0.89549
-0.90636
-0.915927
-0.925043
-0.931101
0.997648
0.593945
0.879868
0.713525
0.675764
0.662984
0.630278
0.603769
0.557277
0.432583
0.993778
0.590153
0.875468
0.709051
0.674435
0.659769
0.625167
0.592718
0.536523
0.382982
0.991166
0.585733
0.87133
0.703685
0.672744
0.656553
0.619287
0.579144
0.511429
0.322584
0.989985
0.5804
0.867148
0.6975
0.671319
0.653669
0.613109
0.563777
0.482847
0.251895
0.990416
0.573826
0.862533
0.690972
0.670218
0.650785
0.606756
0.54731
0.449679
0.170702
0.992659
0.565864
0.857487
0.686216
0.668498
0.646822
0.60014
0.530664
0.415216
0.0794918
0.996988
0.556181
0.852619
0.684632
0.664721
0.642328
0.593516
0.512788
0.371109
-0.0260392
1.00401
0.543804
0.847862
0.682775
0.660197
0.639255
0.588407
0.495164
0.333364
-0.142455
1.01451
0.529577
0.842752
0.680009
0.656368
0.636439
0.582057
0.473982
0.282544
-0.286929
1.02865
0.516596
0.839294
0.678832
0.653982
0.634089
0.575657
0.450805
0.227499
-0.434534
1.05218
0.508844
0.839264
0.684548
0.650102
0.627902
0.565568
0.425077
0.202215
-0.60412
1.08811
0.513704
0.845636
0.695957
0.643902
0.615198
0.549935
0.389663
0.187365
-0.577701
1.11878
0.52727
0.857672
0.704858
0.634368
0.596192
0.523169
0.353179
0.172421
-0.523304
1.13969
0.543775
0.869987
0.709438
0.622511
0.572972
0.492734
0.313478
0.156821
-0.4554
1.1511
0.557548
0.876957
0.708329
0.609776
0.549844
0.460543
0.28035
0.13843
-0.394902
1.15404
0.565886
0.875742
0.701123
0.598335
0.529782
0.431468
0.255408
0.114284
-0.322479
1.14978
0.568581
0.865272
0.687475
0.588719
0.514548
0.407643
0.239766
0.086935
-0.256031
1.14837
0.572036
0.848578
0.669536
0.581254
0.50346
0.388747
0.232087
0.0599918
-0.202283
1.14498
0.57664
0.831564
0.651753
0.576276
0.495252
0.375301
0.226395
0.0410938
-0.168987
1.18615
0.604579
0.83109
0.644248
0.57775
0.494007
0.374168
0.229057
0.0405421
-0.150185
-0.968792
-1.15285
-1.31669
-1.45174
-1.58517
-1.72204
-1.85471
-1.98905
-2.12567
-2.25954
-0.963505
-1.08678
-1.20475
-1.32727
-1.46007
-1.5944
-1.7192
-1.83687
-1.95736
-2.08194
-0.911133
-1.0079
-1.10605
-1.22224
-1.34825
-1.47038
-1.58057
-1.67975
-1.77668
-1.88065
-0.85824
-0.956869
-1.04152
-1.14046
-1.24781
-1.35102
-1.44472
-1.53041
-1.61306
-1.69759
-0.77975
-0.874336
-0.949306
-1.03563
-1.13001
-1.21979
-1.30279
-1.38234
-1.45975
-1.53542
-0.681433
-0.78373
-0.864988
-0.945616
-1.02802
-1.1049
-1.17724
-1.25033
-1.32446
-1.39688
-0.575345
-0.687845
-0.783711
-0.858475
-0.924275
-0.988536
-1.0552
-1.1266
-1.20122
-1.27442
-0.491514
-0.609174
-0.712834
-0.772604
-0.813283
-0.866502
-0.937083
-1.01564
-1.09615
-1.17393
-0.453355
-0.572094
-0.670937
-0.722224
-0.755657
-0.803649
-0.873517
-0.954583
-1.03811
-1.118
-0.422316
-0.524345
-0.612139
-0.678479
-0.731023
-0.78542
-0.8537
-0.935137
-1.02118
-1.10276
-0.557617
-0.542071
-0.514975
-0.480932
-0.446543
-0.41521
-0.388656
-0.369206
-0.355697
-0.347123
-0.603715
-0.587974
-0.561058
-0.525215
-0.493329
-0.463965
-0.437402
-0.417008
-0.402989
-0.394529
-0.623817
-0.608477
-0.58311
-0.548202
-0.514463
-0.48452
-0.459418
-0.440836
-0.428334
-0.42113
-0.619773
-0.604976
-0.581498
-0.548693
-0.515149
-0.485548
-0.461613
-0.444398
-0.433279
-0.42706
-0.596099
-0.581948
-0.560182
-0.529719
-0.497946
-0.46985
-0.447155
-0.430475
-0.419575
-0.413528
-0.559657
-0.546116
-0.52587
-0.497863
-0.468617
-0.442867
-0.422128
-0.406536
-0.395815
-0.389541
-0.518409
-0.505412
-0.486704
-0.46151
-0.435522
-0.412948
-0.395093
-0.38179
-0.372406
-0.366571
-0.48019
-0.467749
-0.450871
-0.429109
-0.407283
-0.388861
-0.374879
-0.365065
-0.358655
-0.354941
-0.449873
-0.438037
-0.423088
-0.404838
-0.387197
-0.372775
-0.362265
-0.355345
-0.351666
-0.351044
-0.43036
-0.419399
-0.406507
-0.391683
-0.378025
-0.367353
-0.360129
-0.356095
-0.354845
-0.357181
-0.420688
-0.411038
-0.400297
-0.388557
-0.378184
-0.370212
-0.364731
-0.361633
-0.359028
-0.351612
-0.419531
-0.411084
-0.402335
-0.393382
-0.385849
-0.380082
-0.375739
-0.37283
-0.370261
-0.362328
-0.424188
-0.416604
-0.408966
-0.401446
-0.395078
-0.389683
-0.384674
-0.380136
-0.375821
-0.367851
-0.433825
-0.426943
-0.419767
-0.4127
-0.406465
-0.400508
-0.394221
-0.387848
-0.381516
-0.372378
-0.449012
-0.44278
-0.435656
-0.428527
-0.422026
-0.415225
-0.407544
-0.399333
-0.39081
-0.379857
-0.470714
-0.465717
-0.458059
-0.450677
-0.443926
-0.436275
-0.427219
-0.417227
-0.406563
-0.393705
-0.501234
-0.497538
-0.487851
-0.480848
-0.474243
-0.465782
-0.455373
-0.443725
-0.431133
-0.41649
-0.541143
-0.538833
-0.529597
-0.522246
-0.51516
-0.505488
-0.493655
-0.480522
-0.466281
-0.449991
-0.58844
-0.587568
-0.581197
-0.575018
-0.567384
-0.556135
-0.543243
-0.529184
-0.513892
-0.496385
-0.651676
-0.65201
-0.647046
-0.637451
-0.628206
-0.617484
-0.604836
-0.590739
-0.575186
-0.557087
-0.329656
-0.248403
-0.210568
-0.151482
-0.107518
-0.0690404
-0.0412536
-0.0209988
-0.00913877
-0.00384975
-0.324461
-0.242687
-0.201598
-0.143173
-0.100666
-0.0637376
-0.0375947
-0.0188957
-0.00808226
-0.00407114
-0.317227
-0.240745
-0.197428
-0.136085
-0.0941138
-0.0581768
-0.0334573
-0.0160026
-0.00604905
-0.00356801
-0.314893
-0.240671
-0.191365
-0.128774
-0.0875971
-0.0524676
-0.0291405
-0.0127976
-0.00359739
-0.00261615
-0.318472
-0.240377
-0.185305
-0.121232
-0.0811914
-0.046818
-0.0248818
-0.00959149
-0.00111707
-0.00159877
-0.328059
-0.240456
-0.17984
-0.114506
-0.0752726
-0.0415548
-0.0209006
-0.00660504
0.00111374
-0.000783679
-0.343821
-0.241333
-0.176192
-0.109055
-0.0698491
-0.0366364
-0.0171216
-0.00379715
0.00308438
-0.000182077
-0.36638
-0.246786
-0.174914
-0.104916
-0.0647348
-0.0319187
-0.0133586
-0.00103175
0.00493589
0.000329971
-0.398497
-0.258016
-0.175984
-0.101786
-0.0597207
-0.0271837
-0.00946183
0.00180971
0.00679073
0.000859429
-0.441679
-0.274788
-0.178915
-0.0991818
-0.0546009
-0.0222213
-0.00535026
0.00478902
0.00869613
0.00145077
-0.325542
-0.256613
-0.221294
-0.156699
-0.10988
-0.0702754
-0.0414321
-0.01954
-0.00772334
-0.00279081
-0.316041
-0.250721
-0.219926
-0.156822
-0.110213
-0.0706654
-0.0418426
-0.0198371
-0.00759617
-0.00256494
-0.316062
-0.246941
-0.216644
-0.156168
-0.110078
-0.0706355
-0.0417132
-0.0196711
-0.0073434
-0.00239813
-0.315858
-0.242124
-0.21066
-0.156957
-0.1117
-0.0717992
-0.0426521
-0.0205427
-0.00788963
-0.00238353
-0.324711
-0.243275
-0.208122
-0.155105
-0.111552
-0.0720584
-0.0431498
-0.0215735
-0.00894247
-0.00307669
-0.340757
-0.384894
-0.413202
-0.423728
-0.418164
-0.401766
-0.381178
-0.361868
-0.346684
-0.336145
-0.339412
-0.384708
-0.413246
-0.42367
-0.417715
-0.400577
-0.378514
-0.35763
-0.342346
-0.326143
-0.340026
-0.385851
-0.414367
-0.424193
-0.417
-0.398503
-0.375686
-0.356498
-0.342052
-0.331321
-0.341412
-0.387995
-0.416188
-0.42479
-0.415318
-0.394319
-0.370433
-0.353385
-0.34227
-0.343946
-0.343647
-0.390971
-0.418456
-0.425299
-0.412836
-0.388927
-0.364313
-0.349757
-0.344226
-0.357999
0.40589
0.404041
0.402108
0.401508
0.401488
0.400851
0.399738
0.39936
0.40142
0.410359
0.456486
0.454432
0.449089
0.444479
0.44152
0.439317
0.437537
0.436704
0.438331
0.446821
0.483542
0.480011
0.474561
0.470032
0.467028
0.464942
0.46351
0.462991
0.464712
0.473263
0.50457
0.500786
0.495203
0.490347
0.486841
0.484347
0.482684
0.481853
0.483023
0.491391
0.515681
0.511067
0.505274
0.500281
0.49659
0.494017
0.492431
0.491621
0.492421
0.499958
0.517072
0.511419
0.505219
0.499958
0.496031
0.493391
0.49198
0.491389
0.491453
0.495344
0.50807
0.501091
0.494083
0.488114
0.483455
0.480067
0.477732
0.4759
0.475542
0.481262
0.488109
0.479563
0.471413
0.464397
0.458667
0.454154
0.450595
0.447638
0.446926
0.455023
0.456799
0.446558
0.437052
0.428801
0.421881
0.416207
0.411573
0.407943
0.407321
0.415946
0.413276
0.401312
0.390336
0.380738
0.372568
0.365717
0.360047
0.355814
0.355144
0.363485
-0.281382
-0.291964
-0.306806
-0.326187
-0.34987
-0.37734
-0.41218
-0.44502
-0.471851
-0.486309
-0.199407
-0.21186
-0.227202
-0.245478
-0.267638
-0.294379
-0.324501
-0.354608
-0.3805
-0.392508
-0.105486
-0.119965
-0.135342
-0.151635
-0.170796
-0.194335
-0.221177
-0.24833
-0.271237
-0.280925
-0.0108941
-0.0262349
-0.0400939
-0.0534313
-0.0692156
-0.0892102
-0.112659
-0.136328
-0.155608
-0.161749
0.0780142
0.06341
0.0520668
0.0416833
0.0290934
0.012796
-0.00659995
-0.0261671
-0.0414395
-0.0437803
0.155831
0.143515
0.134993
0.12748
0.118239
0.105947
0.0909722
0.0758658
0.0648313
0.0662123
0.222939
0.213562
0.207262
0.202063
0.195913
0.187454
0.176729
0.165904
0.158846
0.163451
0.281166
0.274562
0.269235
0.265296
0.261595
0.256389
0.249333
0.24228
0.238731
0.24594
0.334043
0.326635
0.321653
0.319271
0.317368
0.314264
0.309761
0.305563
0.304752
0.313685
0.385927
0.378463
0.372871
0.369668
0.367167
0.364031
0.360356
0.357737
0.358549
0.367897
1.08729
0.624719
0.92034
0.703375
0.677296
0.661438
0.624663
0.598676
0.546185
0.475698
1.07417
0.620788
0.918394
0.70939
0.678366
0.663965
0.629027
0.604798
0.557366
0.492851
1.06194
0.617708
0.915237
0.714402
0.679531
0.666166
0.633095
0.611653
0.572261
0.510006
1.0508
0.61482
0.911339
0.718125
0.680328
0.667795
0.636221
0.616296
0.582754
0.523403
1.04065
0.611828
0.907003
0.720219
0.680344
0.668675
0.6381
0.619159
0.589732
0.532354
1.03137
0.608818
0.902534
0.721071
0.679874
0.669158
0.639216
0.621048
0.593128
0.535313
1.02291
0.605884
0.898117
0.721152
0.679174
0.669283
0.639523
0.621877
0.593728
0.531237
1.01527
0.603051
0.893752
0.720662
0.678364
0.668951
0.63892
0.621052
0.591025
0.51985
1.00847
0.600239
0.889254
0.719379
0.677495
0.667839
0.637214
0.617848
0.584555
0.500291
1.00258
0.597268
0.88455
0.717003
0.676667
0.665792
0.634318
0.612089
0.573317
0.47149
1.19184
0.64997
0.898389
0.681932
0.673175
0.646706
0.606156
0.577564
0.514263
0.447741
1.1579
0.646722
0.902156
0.684613
0.672792
0.64859
0.607268
0.578042
0.512073
0.439413
1.13835
0.641609
0.907288
0.688232
0.672615
0.650851
0.609205
0.580848
0.513742
0.438235
1.11937
0.636374
0.913377
0.694159
0.674478
0.6553
0.6156
0.586176
0.51804
0.438252
1.10196
0.630134
0.918412
0.698278
0.676156
0.658615
0.619952
0.588983
0.527625
0.441329
0.362476
0.331283
0.289616
0.231935
0.157235
0.0704808
-0.0215563
-0.113868
-0.202502
-0.278221
0.350836
0.321255
0.284344
0.231094
0.160098
0.0757073
-0.0157278
-0.108721
-0.198807
-0.276205
0.352815
0.321148
0.2839
0.233338
0.164073
0.0810903
-0.010157
-0.104201
-0.19604
-0.275312
0.361465
0.320666
0.279197
0.23114
0.165167
0.0849271
-0.00564561
-0.100671
-0.194305
-0.275479
0.38286
0.330874
0.278092
0.225894
0.162273
0.0858745
-0.00298532
-0.0984144
-0.193643
-0.27667
)
;

boundaryField
{
    left
    {
        type            zeroGradient;
    }
    right
    {
        type            fixedValue;
        value           uniform 0;
    }
    down
    {
        type            zeroGradient;
    }
    up
    {
        type            zeroGradient;
    }
    cylinder
    {
        type            zeroGradient;
    }
    defaultFaces
    {
        type            empty;
    }
}


// ************************************************************************* //
