/*--------------------------------*- C++ -*----------------------------------*\
| =========                 |                                                 |
| \\      /  F ield         | OpenFOAM: The Open Source CFD Toolbox           |
|  \\    /   O peration     | Version:  2406                                  |
|   \\  /    A nd           | Website:  www.openfoam.com                      |
|    \\/     M anipulation  |                                                 |
\*---------------------------------------------------------------------------*/
FoamFile
{
    version     2.0;
    format      ascii;
    arch        "LSB;label=32;scalar=64";
    class       surfaceScalarField;
    location    "0.2";
    object      phi;
}
// * * * * * * * * * * * * * * * * * * * * * * * * * * * * * * * * * * * * * //

dimensions      [0 3 -1 0 0 0 0];

oriented        oriented;

internalField   nonuniform List<scalar> 
3485
(
0.00127289
0.00316928
-0.00444217
0.00515497
-0.00152174
-0.00236034
0.0120179
-0.0118183
0.0049554
0.0207005
-0.0196914
0.0110088
0.030688
-0.0246335
0.014646
0.0418141
-0.0277388
0.0166127
0.0540974
-0.0302236
0.0179403
0.0675517
-0.0333627
0.0199083
0.0825231
-0.0389275
0.0239561
-0.0459728
0.0297685
0.0987275
0.00113512
0.00203416
0.00584534
-0.00623196
0.0131553
-0.0191283
0.0218497
-0.0283858
0.0312588
-0.0340426
0.0411358
-0.0376157
0.051536
-0.0406238
0.0627663
-0.044593
0.0753163
-0.0514775
-0.0618125
0.091156
0.00136188
0.000672278
0.00694411
-0.0118142
0.0147049
-0.0268891
0.0234619
-0.0371428
0.0326358
-0.0432166
0.0420648
-0.0470446
0.0518247
-0.0503838
0.0622143
-0.0549826
0.0738368
-0.0631
-0.0762106
0.088235
0.00195961
-0.00128733
0.00819297
-0.0180475
0.0162381
-0.0349341
0.0249754
-0.0458801
0.0339712
-0.0522124
0.0431632
-0.0562366
0.0526562
-0.0598768
0.0627253
-0.0650517
0.0739289
-0.0743035
-0.089271
0.0869892
0.00291583
-0.00420316
0.00964962
-0.0247813
0.0178797
-0.0431642
0.0266218
-0.0546222
0.0355762
-0.0611668
0.04476
-0.0654204
0.054298
-0.0694147
0.0644478
-0.0752016
0.0756809
-0.0855366
-0.101989
0.0883993
0.00367305
-0.00787621
0.0108378
-0.0319461
0.0191768
-0.0515032
0.0278424
-0.0632878
0.0366536
-0.0699781
0.0456727
-0.0744395
0.0550179
-0.07876
0.0649229
-0.0851066
0.0757616
-0.0963752
-0.113967
0.0877388
0.00419425
-0.0120705
0.0115872
-0.0393391
0.019835
-0.0597509
0.0282291
-0.0716819
0.0367017
-0.0784507
0.0453738
-0.0831115
0.0544003
-0.0877866
0.0640752
-0.0947815
0.0747848
-0.107085
-0.125688
0.0865064
0.00449264
-0.0165631
0.0118314
-0.0466778
0.0196757
-0.0675952
0.0274377
-0.0794439
0.0351373
-0.0861503
0.0429579
-0.0909321
0.05113
-0.0959587
0.0600703
-0.103722
0.0701901
-0.117205
-0.136742
0.0812443
0.00452404
-0.0210871
0.0114324
-0.0535862
0.0184705
-0.0746333
0.0251673
-0.0861408
0.0316275
-0.0926105
0.0381211
-0.0974257
0.0450102
-0.102848
0.0528773
-0.111589
0.0620421
-0.126369
-0.146559
0.0718584
0.00432199
-0.0254091
0.010438
-0.0597022
0.016258
-0.0804534
0.0214781
-0.0913608
0.0263181
-0.0974505
0.0311309
-0.102238
0.036364
-0.108081
0.0426232
-0.117848
0.0499527
-0.133699
0.0573644
-0.15397
-0.000679119
0.00636628
-0.00568716
-0.0010499
0.00767124
-0.00730045
-0.00129932
0.00779016
-0.00754075
-0.00113096
0.00718037
-0.00734873
-0.000636334
0.00604161
-0.00653624
4.78926e-05
0.00488718
-0.00557141
0.00090599
0.00368029
-0.00453839
0.00200264
0.00216639
-0.00326304
0.00347445
1.37457e-05
-0.00148556
-0.00316782
0.00553522
0.00110706
-0.000528161
0.00689444
-0.000908257
0.00805133
-0.00116242
0.00804432
-0.000921917
0.00693987
-0.000377473
0.00549717
0.000337056
0.00417266
0.00122298
0.00279436
0.00235157
0.0010378
0.00386804
-0.00150272
-0.005301
0.00600122
-0.000487312
0.00738175
-0.000825327
0.00838935
-0.000971426
0.00819042
-0.000571192
0.00653963
9.61664e-05
0.00482981
0.000918509
0.00335031
0.00190199
0.00181088
0.0031161
-0.000176313
0.00471452
-0.00310114
-0.00752884
0.00694237
-0.000381218
0.00776297
-0.000681306
0.00868944
-0.000600491
0.00810961
-3.84705e-08
0.00593918
0.000832739
0.00399703
0.00181029
0.00237277
0.00293437
0.000686798
0.00426731
-0.00150926
0.00596639
-0.00480022
-0.00986292
0.00830047
-0.000202589
0.00796556
-0.000400827
0.00888768
-1.89857e-05
0.00772777
0.000813507
0.00510669
0.00184695
0.00296359
0.00301345
0.00120626
0.00430057
-0.000600314
0.00575147
-0.00296016
0.0075076
-0.00655635
-0.0122147
0.00985941
1.06026e-05
0.00795495
9.17519e-05
0.00880653
0.000849478
0.00697004
0.00197462
0.00398155
0.00326781
0.00167039
0.00466581
-0.000191738
0.00616519
-0.00209969
0.00777733
-0.0045723
0.00962491
-0.00840393
-0.0146578
0.012068
0.000317677
0.00763728
0.000866297
0.00825791
0.00216984
0.0056665
0.00379452
0.00235686
0.00548456
-1.96402e-05
0.0071893
-0.00189648
0.00894117
-0.00385156
0.0107585
-0.00638962
0.0126884
-0.0103339
-0.0171293
0.0151599
0.000751328
0.00688595
0.00197994
0.00702929
0.00417184
0.00347459
0.0067702
-0.000241494
0.00937833
-0.00262777
0.0117987
-0.00431681
0.0140647
-0.00611764
0.0163181
-0.00864295
0.0186055
-0.0126213
-0.0198399
0.0213161
0.00116115
0.0057248
0.00316118
0.00502927
0.00661392
2.18524e-05
0.0109503
-0.00457792
0.0155969
-0.00727433
0.0200195
-0.00873935
0.0238838
-0.009982
0.0273638
-0.0121229
0.0309298
-0.0161873
-0.0238822
0.0349721
0.00128263
0.00395155
0.00892881
0.0153597
0.0227313
0.0306047
0.038563
0.0463484
0.0541172
0.0600035
0.0512124
-0.213784
0.168107
0.102784
-0.275977
0.224405
0.130832
-0.220143
0.192096
0.148046
-0.17364
0.156425
0.156746
-0.131327
0.122627
0.160985
-0.0981297
0.0938915
0.162158
-0.0706146
0.0694414
0.161533
-0.0474273
0.0480522
0.159959
-0.0286689
0.0302429
-0.0100887
0.0120292
0.0496568
-0.257439
0.0992663
-0.325587
0.128305
-0.249181
0.146286
-0.191621
0.155912
-0.140954
0.16075
-0.102967
0.162397
-0.0722617
0.162124
-0.0471537
0.160795
-0.0273405
-0.00830929
0.0467929
-0.29729
0.0933714
-0.372165
0.123744
-0.279554
0.142663
-0.210539
0.153606
-0.151897
0.159335
-0.108696
0.161753
-0.0746796
0.162091
-0.0474923
0.161254
-0.0265036
-0.00686592
0.0433614
-0.332351
0.0854008
-0.414204
0.11736
-0.311513
0.137544
-0.230724
0.149986
-0.164339
0.15689
-0.115599
0.160345
-0.0781349
0.161537
-0.0486844
0.161445
-0.0264116
-0.00591487
0.0395773
-0.362069
0.077206
-0.451833
0.110056
-0.344363
0.131691
-0.252358
0.145683
-0.178331
0.153949
-0.123865
0.158628
-0.0828136
0.160882
-0.0509388
0.161759
-0.0272882
-0.00559451
0.0378782
-0.387879
0.0721209
-0.486076
0.104885
-0.377127
0.127444
-0.274917
0.142513
-0.1934
0.151913
-0.133266
0.157745
-0.0886449
0.161154
-0.054348
0.163159
-0.0292933
-0.00605277
0.0390698
-0.411789
0.0730983
-0.520104
0.105758
-0.409787
0.128383
-0.297543
0.143661
-0.208678
0.153563
-0.143168
0.160148
-0.0952301
0.164572
-0.0587711
0.167674
-0.0323961
-0.00745024
0.0450469
-0.43552
0.0814311
-0.556488
0.114795
-0.443151
0.13685
-0.319598
0.151543
-0.223371
0.161327
-0.152952
0.168202
-0.102105
0.173289
-0.0638574
0.177211
-0.0363188
-0.00994203
0.0591779
-0.459726
0.0971154
-0.594426
0.132627
-0.478662
0.155529
-0.3425
0.170186
-0.238027
0.179832
-0.162599
0.18675
-0.109023
0.191986
-0.0690938
0.196464
-0.0407963
-0.013651
0.0714021
-0.471124
0.110529
-0.633553
0.146151
-0.514284
0.17037
-0.366719
0.186501
-0.254158
0.197601
-0.173699
0.20589
-0.117312
0.212579
-0.0757821
0.218554
-0.046772
-0.0189857
0.464811
-0.615544
-0.320391
0.465971
-0.634713
0.453225
-0.501538
0.437978
-0.351473
0.42304
-0.239219
0.411806
-0.162465
0.403537
-0.109043
0.398765
-0.0710105
0.396465
-0.0444717
-0.0188208
0.506103
-0.612309
-0.509338
0.523272
-0.651882
0.517284
-0.495551
0.500027
-0.334215
0.482499
-0.221692
0.468575
-0.14854
0.458384
-0.0988517
0.452369
-0.0649961
0.448792
-0.0408944
-0.0174848
0.670965
-0.571091
-0.712183
0.621113
-0.60203
0.587751
-0.462189
0.559338
-0.305802
0.535355
-0.197709
0.517052
-0.130238
0.504017
-0.0858158
0.495321
-0.0563009
0.490134
-0.0357072
-0.0158933
0.74333
-0.487976
-0.826445
0.678747
-0.537446
0.630875
-0.414317
0.591927
-0.266854
0.562016
-0.167798
0.540503
-0.108724
0.525675
-0.070988
0.515855
-0.0464811
0.510219
-0.0300716
-0.0141962
0.807107
-0.416157
-0.878926
0.727573
-0.457912
0.6609
-0.347644
0.61154
-0.217495
0.576096
-0.132354
0.551586
-0.0842149
0.534969
-0.0543709
0.523745
-0.0352564
0.517048
-0.0233747
-0.0120885
0.83382
-0.355807
-0.89417
0.749363
-0.373455
0.671326
-0.269607
0.61463
-0.160798
0.575544
-0.0932681
0.549432
-0.0581027
0.532273
-0.037212
0.520914
-0.0238974
0.514474
-0.0169353
-0.0100326
0.833376
-0.294196
-0.894987
0.734824
-0.274903
0.648184
-0.182966
0.589413
-0.102028
0.551051
-0.0549062
0.526151
-0.033203
0.510032
-0.0210931
0.499541
-0.0134061
0.49299
-0.0103838
-0.00719974
0.772853
-0.201507
-0.865541
0.654098
-0.156148
0.565891
-0.0947597
0.51223
-0.0483668
0.479706
-0.0223816
0.459138
-0.0126354
0.445859
-0.00781423
0.437276
-0.00482303
0.431353
-0.00446065
-0.004024
0.576885
-0.0754116
-0.70298
0.462945
-0.0422079
0.392886
-0.0247012
0.355302
-0.0107824
0.33557
-0.00264938
0.323865
-0.000930105
0.316525
-0.000475185
0.311963
-0.000260276
0.308198
-0.000696346
-0.00122019
0.202488
-0.2779
0.16028
0.135579
0.124796
0.122147
0.121217
0.120742
0.120482
0.119785
0.526544
0.0630188
-0.532199
0.515874
0.0825289
0.499085
0.0980334
0.476164
0.109427
0.447687
0.116215
0.417249
0.118838
0.38585
0.118388
0.359197
0.114887
0.334241
0.116113
0.112577
0.654417
0.0536272
-0.645025
0.660948
0.0759974
0.662337
0.0966444
0.657881
0.113884
0.645943
0.128153
0.628775
0.136006
0.603033
0.14413
0.573794
0.144127
0.5381
0.151806
0.141339
0.708576
0.0381978
-0.693146
0.722486
0.062087
0.734266
0.0848646
0.744429
0.103721
0.750483
0.122099
0.753229
0.13326
0.747379
0.14998
0.741032
0.150474
0.727687
0.165152
0.156843
0.716207
0.0228972
-0.700906
0.733579
0.0447144
0.751475
0.0669688
0.769321
0.0858749
0.786195
0.105225
0.800716
0.118739
0.813478
0.137217
0.821261
0.142691
0.828821
0.157592
0.159218
0.712318
0.0116415
-0.701063
0.726983
0.0300492
0.744572
0.0493799
0.764095
0.0663521
0.784527
0.0847926
0.804518
0.0987488
0.825411
0.116324
0.84381
0.124293
0.864021
0.137381
0.144313
0.706222
0.00384076
-0.698421
0.717787
0.0184844
0.732957
0.03421
0.750924
0.0483846
0.771197
0.0645195
0.793679
0.0762676
0.818299
0.0917033
0.842841
0.0997511
0.870355
0.109867
0.120498
0.693173
-0.00145821
-0.687875
0.702537
0.0091207
0.715837
0.0209097
0.732647
0.031575
0.75298
0.0441868
0.777009
0.0522385
0.803377
0.0653352
0.832594
0.0705342
0.863631
0.0788298
0.0891414
0.649304
-0.00456383
-0.646198
0.656461
0.00196283
0.668334
0.00903682
0.684371
0.0155379
0.705508
0.0230502
0.730111
0.0276351
0.759124
0.0363223
0.791988
0.0376703
0.825823
0.0449947
0.0494235
0.513769
-0.0036203
-0.514712
0.51708
-0.00134819
0.52522
0.000896647
0.537686
0.00307207
0.55546
0.00527569
0.576083
0.00701289
0.602796
0.00960891
0.630882
0.00958457
0.663329
0.0125474
0.00977201
0.221478
-0.225098
0.220129
0.221026
0.224098
0.229374
0.236387
0.245996
0.25558
0.268128
0.0526802
0.106693
-0.0796538
-0.0797196
0.0353105
0.0852071
-0.0678375
0.025065
0.0708258
-0.0605803
0.0189258
0.0629095
-0.0567703
0.0145507
0.0594968
-0.0551217
0.0106873
0.0582898
-0.0544264
0.00701274
0.0570964
-0.0534218
0.00378688
0.0542754
-0.0510496
0.00122947
0.0470543
-0.0444969
0.0271119
-0.0258825
0.0818543
0.125036
-0.100197
0.0638603
0.103201
0.0490262
0.0856599
0.0374799
0.0744558
0.0281988
0.068778
0.0202579
0.0662306
0.0131342
0.0642201
0.00697495
0.0604347
0.00229648
0.0517328
0.0294084
0.0824919
0.136792
-0.0942478
0.0690293
0.116664
0.0558204
0.0988688
0.0439257
0.0863505
0.0334331
0.0792705
0.0240809
0.0755829
0.0156389
0.0726622
0.00824317
0.0678303
0.00261262
0.0573634
0.032021
0.0715074
0.145121
-0.0798364
0.0617407
0.12643
0.0513924
0.109217
0.0412752
0.0964678
0.0317085
0.0888372
0.0228071
0.0844843
0.0146631
0.0808061
0.00754051
0.074953
0.00222548
0.0626784
0.0342465
0.0562561
0.151625
-0.0627597
0.0489175
0.133769
0.0411843
0.11695
0.0333565
0.104296
0.0255915
0.0966022
0.0181412
0.0919346
0.0112872
0.0876601
0.00539601
0.0808441
0.00130948
0.0667649
0.035556
0.0380019
0.15661
-0.042987
0.0329389
0.138832
0.0278429
0.122046
0.022506
0.109633
0.0169507
0.102158
0.011509
0.0973763
0.00653471
0.0926344
0.00244696
0.0849319
0.000103435
0.0691084
0.0356594
0.0185763
0.15974
-0.0217065
0.0160102
0.141398
0.0135339
0.124522
0.0106382
0.112528
0.00738616
0.10541
0.00416433
0.100598
0.00129835
0.0955004
-0.000740773
0.086971
-0.00109687
0.0694645
0.0345626
-0.000840188
0.160186
0.000393575
-0.000657111
0.141215
-0.000653072
0.124518
-0.0012349
0.11311
-0.00221353
0.106388
-0.00319749
0.101582
-0.0038913
0.0961942
-0.00375582
0.0868355
-0.00220343
0.0679121
0.0323591
-0.018591
0.158515
0.020262
-0.0161146
0.138739
-0.0138482
0.122252
-0.0123039
0.111566
-0.0111856
0.10527
-0.0100867
0.100483
-0.00866991
0.0947774
-0.00645174
0.0846173
-0.00312169
0.0645821
0.0292375
-0.0352814
0.0398265
-0.0302418
-0.0258377
-0.0223528
-0.0193215
-0.0162888
-0.0128722
-0.00870825
-0.00382833
0.0389646
0.0265848
-0.0449179
-0.0206314
0.0335051
0.024541
-0.0190816
0.0284273
0.0229583
-0.0178805
0.0236073
0.0219316
-0.0171117
0.0189523
0.0213719
-0.0167168
0.014417
0.021069
-0.0165337
0.0100234
0.0206739
-0.0162803
0.00587254
0.019669
-0.0155181
0.00222688
0.017168
-0.0135224
0.0104181
-0.00819123
0.0397085
0.0326815
-0.0458053
0.034134
0.0301155
0.0289619
0.0281304
0.0240562
0.0268373
0.0193186
0.0261095
0.014702
0.0256856
0.0102265
0.0251494
0.00598981
0.0239057
0.00226281
0.020895
0.0126809
0.0401554
0.0388841
-0.046358
0.0344959
0.035775
0.0292556
0.0333707
0.0242866
0.0318063
0.019489
0.0309071
0.0148193
0.0303553
0.0102996
0.029669
0.00602463
0.0281806
0.00226688
0.0246528
0.0149478
0.0401718
0.0451772
-0.0464649
0.0344461
0.0415008
0.029168
0.0386487
0.0241738
0.0368006
0.0193619
0.035719
0.0146941
0.0350231
0.010194
0.0341691
0.00594972
0.0324249
0.00222883
0.0283737
0.0171766
0.0396078
0.0515142
-0.0459448
0.0339022
0.0472064
0.0286505
0.0439005
0.0236847
0.0417663
0.0189098
0.0404939
0.014302
0.039631
0.0098903
0.0385808
0.00575244
0.0365628
0.00214263
0.0319835
0.0193193
0.0372301
0.0574808
-0.0431967
0.0318417
0.0525949
0.0269097
0.0488324
0.0222183
0.0464578
0.0176913
0.0450209
0.0133366
0.0439857
0.00918935
0.042728
0.00531429
0.0404378
0.00195676
0.035341
0.021276
0.0370108
0.0645003
-0.0440302
0.0310873
0.0585183
0.0258362
0.0540835
0.0210222
0.0512718
0.0165268
0.0495163
0.0123305
0.0481819
0.00842729
0.0466312
0.0048327
0.0440324
0.00175716
0.0384166
0.0230332
0.026603
0.0691289
-0.0312316
0.0225311
0.0625903
0.0191327
0.0574819
0.0159574
0.0544471
0.0128084
0.0526653
0.00967329
0.051317
0.00660259
0.0497019
0.00370047
0.0469346
0.00125701
0.04086
0.0242902
0.0327919
0.0770542
-0.0407173
0.0262508
0.0691314
0.0206888
0.0630439
0.0162359
0.0589
0.0125701
0.0563311
0.00939889
0.0544882
0.00650494
0.0525959
0.00369715
0.0497423
0.00127523
0.0432819
0.0255654
-0.0034933
0.00089374
-0.00219936
0.000264283
0.00239392
0.00360337
0.00366517
0.00283924
0.00153204
0.000317065
0.189172
0.254202
-0.245384
0.180806
0.23838
-0.230013
0.176511
0.156971
-0.152676
0.174893
0.130033
-0.128415
0.172748
0.132003
-0.129857
0.168448
0.140308
-0.136008
0.157864
0.167103
-0.156519
0.140402
0.201986
-0.184524
0.0987522
0.271786
-0.230137
0.313688
-0.259854
0.188109
0.264082
0.178797
0.247691
0.174383
0.161385
0.172405
0.132011
0.170578
0.13383
0.166235
0.144651
0.156057
0.177282
0.138354
0.219689
0.0983339
0.311806
0.366217
0.186728
0.275345
0.176109
0.25831
0.171253
0.166242
0.168796
0.134467
0.167036
0.13559
0.162427
0.14926
0.152551
0.187157
0.134303
0.237937
0.0968513
0.349258
0.41671
0.18515
0.288184
0.17276
0.2707
0.167042
0.171959
0.164268
0.137241
0.16247
0.137388
0.157242
0.154487
0.147405
0.196994
0.12871
0.256633
0.0945974
0.38337
0.464843
0.183538
0.302636
0.168825
0.285413
0.161958
0.178827
0.159453
0.139746
0.157351
0.13949
0.150915
0.160923
0.140573
0.207337
0.121561
0.275645
0.091556
0.413375
0.510454
0.182055
0.318571
0.164868
0.3026
0.157126
0.186569
0.154921
0.141951
0.151756
0.142655
0.143886
0.168794
0.132457
0.218766
0.112482
0.29562
0.0839826
0.441874
0.55124
0.181189
0.335372
0.162982
0.320807
0.154847
0.194704
0.151625
0.145173
0.146923
0.147357
0.138355
0.177361
0.12637
0.230751
0.106528
0.315463
0.0875642
0.460838
0.594774
0.182426
0.350935
0.164202
0.339031
0.156122
0.202784
0.151744
0.14955
0.145666
0.153435
0.135189
0.187839
0.120114
0.245825
0.0980075
0.33757
0.0654999
0.493345
0.629042
0.186384
0.362541
0.17115
0.354265
0.166104
0.20783
0.162098
0.153557
0.155302
0.160232
0.143707
0.199433
0.128453
0.261079
0.103913
0.36211
0.089779
0.507479
0.678104
0.194196
0.366335
0.183423
0.365037
0.180405
0.210849
0.175212
0.158749
0.166008
0.169436
0.151401
0.21404
0.130743
0.281738
0.102938
0.389915
0.0606683
0.549748
0.739666
0.336475
0.33187
0.348689
0.352823
0.356228
0.20331
0.361408
0.153569
0.365776
0.165068
0.369958
0.209858
0.376815
0.27488
0.376195
0.390536
0.394899
0.531044
0.645171
0.489394
0.360286
0.273595
0.394284
0.318825
0.408813
0.188781
0.417803
0.144579
0.426685
0.156186
0.438386
0.198157
0.449667
0.263599
0.479999
0.360205
0.501592
0.50945
0.607075
0.539689
0.373098
0.202507
0.427505
0.264418
0.452196
0.16409
0.466417
0.130357
0.48059
0.142013
0.498519
0.180228
0.519511
0.242606
0.558634
0.321082
0.589471
0.478613
0.56151
0.635036
0.376211
0.128306
0.442925
0.197704
0.475661
0.131355
0.494051
0.111967
0.512282
0.123782
0.535622
0.156887
0.563322
0.214906
0.611628
0.272777
0.658293
0.431947
0.518354
0.701449
0.373693
0.0566239
0.447261
0.124135
0.486659
0.0919567
0.507908
0.0907183
0.529117
0.102574
0.555891
0.130113
0.589575
0.181222
0.639776
0.222576
0.703132
0.368592
0.459517
0.761969
0.368713
-0.0100787
0.44364
0.0492083
0.486777
0.0488193
0.509375
0.0681201
0.53256
0.079389
0.56157
0.101102
0.600938
0.141855
0.649817
0.173696
0.727793
0.290616
0.379482
0.807828
0.359716
-0.0677841
0.427681
-0.0187567
0.469362
0.00713805
0.491737
0.0457445
0.516077
0.0550496
0.546502
0.0706778
0.589408
0.0989486
0.638046
0.125058
0.725657
0.203005
0.27812
0.827019
0.338694
-0.104468
0.384767
-0.0648294
0.414798
-0.022893
0.434185
0.0263568
0.458019
0.0312166
0.488247
0.0404498
0.531802
0.0553927
0.581358
0.075502
0.670216
0.114147
0.168054
0.780282
0.293444
-0.0959019
0.293183
-0.0645683
0.297066
-0.0267759
0.312015
0.0114073
0.332125
0.0111071
0.358088
0.014487
0.39462
0.0188606
0.441738
0.0283837
0.515795
0.0400897
0.0649839
0.618865
0.206108
0.14154
0.114764
0.126171
0.137279
0.151766
0.170626
0.19901
0.2391
0.304083
0.521501
-0.111827
0.526104
-0.104799
0.524587
-0.092731
0.522952
-0.0782008
0.522938
-0.0627458
0.525499
-0.045548
0.529057
-0.0252653
0.532447
-0.00299585
0.533721
0.0189882
0.0413486
0.552295
-0.124434
0.560763
-0.113267
0.568441
-0.100409
0.575745
-0.085505
0.583203
-0.0702035
0.592582
-0.0549272
0.605141
-0.0378247
0.619659
-0.0175135
0.633092
0.00555533
0.029415
0.637768
-0.127166
0.64164
-0.117139
0.644004
-0.102773
0.645567
-0.0870671
0.647086
-0.0717235
0.649838
-0.0576785
0.655676
-0.0436628
0.665502
-0.0273398
0.678445
-0.00738776
0.0147139
0.694527
-0.120244
0.689919
-0.112531
0.68634
-0.0991943
0.6827
-0.0834277
0.678709
-0.0677319
0.675556
-0.054526
0.675284
-0.0433908
0.679447
-0.0315022
0.688318
-0.016259
0.00212573
0.750931
-0.109206
0.740213
-0.101812
0.729258
-0.0882391
0.717783
-0.0719532
0.70676
-0.0567085
0.697621
-0.045387
0.691836
-0.0376061
0.690335
-0.0300014
0.693577
-0.0195001
-0.00536022
0.790431
-0.0918097
0.771917
-0.0832983
0.75378
-0.0701016
0.735972
-0.0541457
0.720122
-0.0408579
0.707694
-0.0329596
0.699181
-0.0290929
0.694734
-0.0255541
0.694506
-0.0192722
-0.00927569
0.799704
-0.0644945
0.774586
-0.0581805
0.752265
-0.0477806
0.732456
-0.0343367
0.715689
-0.0240903
0.702909
-0.0201797
0.693946
-0.0201304
0.688423
-0.0200302
0.686313
-0.0171625
-0.0108373
0.749152
-0.0333647
0.721903
-0.0309314
0.699864
-0.0257417
0.683291
-0.0177636
0.671036
-0.011835
0.662038
-0.0111814
0.655302
-0.0133948
0.650183
-0.0149109
0.646876
-0.0138555
-0.0101596
0.595987
-0.0104864
0.576001
-0.0109458
0.560791
-0.0105313
0.550784
-0.00775605
0.544179
-0.00523064
0.538565
-0.00556684
0.532464
-0.00729363
0.525616
-0.00806362
0.519151
-0.00738984
-0.00572129
0.293597
0.282651
0.27212
0.264364
0.259133
0.253566
0.246273
0.238209
0.230819
0.00285941
0.0278046
-0.0306641
0.00586136
0.0684085
-0.0714104
0.00741733
0.0936264
-0.0951824
0.00784168
0.10542
-0.105845
0.00818647
0.108702
-0.109047
0.00756048
0.110457
-0.109831
0.00583438
0.108598
-0.106872
0.00400384
0.101846
-0.100016
0.00273443
0.0906466
-0.0893772
0.0753346
0.00228202
-0.0748822
0.0035551
0.0242495
0.00842301
0.0635406
0.0124387
0.0896107
0.0151031
0.102756
0.016371
0.107434
0.0176893
0.109139
0.0185649
0.107722
0.0185607
0.10185
0.0176773
0.09153
0.0772145
0.0157974
0.00379227
0.0204573
0.00991093
0.0574219
0.0159865
0.0835351
0.0209762
0.0977664
0.0245486
0.103862
0.0277886
0.105899
0.0306798
0.104831
0.0324905
0.10004
0.0326393
0.0913812
0.0792957
0.0305581
0.00364769
0.0168096
0.0104736
0.050596
0.0181392
0.0758696
0.0253141
0.0905915
0.0315095
0.0976662
0.0371557
0.100253
0.0423619
0.0996251
0.0464882
0.0959133
0.0486612
0.0892082
0.0800552
0.0479016
0.00315681
0.0136528
0.0100812
0.0436716
0.0187506
0.0672001
0.0277058
0.0816363
0.0362512
0.0891208
0.0443609
0.0921435
0.0519724
0.0920136
0.0585837
0.089302
0.0633879
0.084404
0.078033
0.0654102
0.00251398
0.0111388
0.00907451
0.037111
0.0181422
0.0581325
0.0282668
0.0715117
0.0386019
0.0787857
0.0488251
0.0819203
0.0586569
0.0821818
0.0675944
0.0803645
0.0749285
0.0770699
0.0729945
0.0799669
0.00186665
0.00927214
0.00776652
0.0312112
0.0166654
0.0492336
0.0272153
0.0609618
0.0385059
0.067495
0.0500515
0.0703748
0.0614366
0.0707966
0.0721103
0.0696909
0.0813514
0.0678288
0.0656946
0.0886514
0.00138802
0.00788411
0.00660281
0.0259964
0.0150061
0.0408303
0.0253976
0.0505703
0.0368728
0.0560198
0.0488697
0.0583779
0.0609167
0.0587496
0.0724705
0.058137
0.0828279
0.0574714
0.0571177
0.0914048
0.00104549
0.00683862
0.00555842
0.0214835
0.0131744
0.0332144
0.022857
0.0408877
0.0337459
0.0451309
0.0452675
0.0468563
0.0569719
0.0470452
0.068425
0.0466839
0.0791778
0.0467186
0.0474946
0.0888008
0.000891835
0.00594678
0.00479356
0.0175817
0.0114923
0.0265156
0.0201718
0.0322082
0.0301086
0.0351942
0.040817
0.0361479
0.0519558
0.0359063
0.063191
0.0354488
0.0742444
0.0356651
0.0369484
0.0847907
0.00069516
0.00525162
0.00379954
0.0144774
0.00913563
0.0211795
0.0160373
0.0253065
0.0238748
0.0273566
0.0321588
0.0278639
0.0405052
0.0275599
0.0485923
0.0273617
0.0562027
0.0280547
0.0303075
0.0628436
0.000617603
0.00463402
0.00313083
0.0119641
0.0073278
0.0169826
0.0126579
0.0199764
0.0185944
0.0214201
0.0246796
0.0217787
0.0305447
0.0216948
0.0360273
0.021879
0.0413065
0.0227756
0.0246837
0.0469303
0.000489828
0.00414419
0.00245635
0.0099976
0.00568094
0.013758
0.00970055
0.0159568
0.0140912
0.0170294
0.0185132
0.0173568
0.0227751
0.0174329
0.0269298
0.0177243
0.0312387
0.0184667
0.0198437
0.0360787
0.000301178
0.00384302
0.00174382
0.00855496
0.00415099
0.0113508
0.00714663
0.0129612
0.0104168
0.0137592
0.0137568
0.0140168
0.0171122
0.0140776
0.0205957
0.0142407
0.0244138
0.0146486
0.0154202
0.0288373
0.000100999
0.00374202
0.00106962
0.00758634
0.00280078
0.00961964
0.00499615
0.0107658
0.0074331
0.0113223
0.00999982
0.0114501
0.012696
0.0113814
0.0156183
0.0113184
0.0189149
0.011352
0.0115382
0.022797
-9.79521e-05
0.00383997
0.000461777
0.00702661
0.00164094
0.00844048
0.00318338
0.00922338
0.00494471
0.00956092
0.0068728
0.00952199
0.0089784
0.00927584
0.0113341
0.00896277
0.0140613
0.00862471
0.00825048
0.017349
-0.000269637
0.00410961
-2.35993e-05
0.00678057
0.00069706
0.00771982
0.00168045
0.00823999
0.00288057
0.0083608
0.00428358
0.00811898
0.00588607
0.00767334
0.00773851
0.00711034
0.00995204
0.00641118
0.00549402
0.0127085
-0.000399161
0.00450877
-0.000419259
0.00680067
-8.12254e-05
0.00738178
0.000434626
0.00772414
0.00122139
0.00757404
0.00225351
0.00708686
0.00349075
0.0064361
0.00496998
0.0056311
0.00680573
0.00457543
0.00311371
0.00918604
-0.000564287
0.00507305
-0.000765731
0.00700211
-0.000755221
0.00737127
-0.000517219
0.00748613
5.91853e-05
0.00699764
0.000881244
0.0062648
0.0018956
0.00542175
0.00314319
0.00438351
0.00474712
0.0029715
0.000951148
0.00690968
-0.000614104
-0.000912445
-0.00108192
-0.000944515
-0.000483114
0.00021028
0.00109364
0.00221411
0.00370006
0.00575826
0.0668175
0.145064
-0.149038
0.0755246
0.094293
-0.103
0.0890748
0.0127752
-0.0263254
0.100654
-0.0261351
0.0145562
0.111195
-0.039438
0.0288967
0.120636
-0.0392721
0.0298306
0.129244
-0.0338496
0.025242
0.13647
-0.0270723
0.0198466
0.142701
-0.0176083
0.011377
-0.00858997
0.00398585
0.0646001
0.127394
0.0770815
0.0818116
0.0928206
-0.00296388
0.104949
-0.0382635
0.115501
-0.0499903
0.124385
-0.0481558
0.132252
-0.0417169
0.138673
-0.0334931
0.144053
-0.0229882
-0.0122715
0.0601552
0.103317
0.0779582
0.0640086
0.096401
-0.0214068
0.109421
-0.0512838
0.119941
-0.0605104
0.128266
-0.0564803
0.135303
-0.0487538
0.140823
-0.0390136
0.145296
-0.0274607
-0.015051
0.057691
0.0744636
0.081246
0.0404537
0.10204
-0.0422006
0.115476
-0.0647201
0.125692
-0.0707265
0.133172
-0.0639602
0.13911
-0.0546919
0.143443
-0.0433463
0.146813
-0.0308311
-0.0168845
0.0551387
0.0421219
0.0856625
0.0099299
0.108452
-0.0649904
0.122411
-0.0786791
0.132196
-0.0805115
0.138796
-0.0705601
0.14354
-0.0594358
0.146602
-0.0464085
0.148745
-0.032974
-0.0177546
0.0531901
0.00628088
0.0911148
-0.0279948
0.115321
-0.0891968
0.129709
-0.0930671
0.1389
-0.0897026
0.144631
-0.0762912
0.148179
-0.0629831
0.150036
-0.0482658
0.150993
-0.0339313
-0.0177366
0.0522413
-0.0332519
0.0966351
-0.0723887
0.121357
-0.113919
0.136312
-0.108022
0.144955
-0.0983455
0.14995
-0.0812865
0.152478
-0.0655105
0.153318
-0.049106
0.153291
-0.0339046
-0.0169766
0.0524372
-0.0765031
0.101041
-0.120993
0.126155
-0.139033
0.141744
-0.123611
0.149932
-0.106533
0.154394
-0.0857489
0.156121
-0.0672369
0.156196
-0.0491809
0.155404
-0.0331129
-0.0156549
0.0523109
-0.121904
0.103532
-0.172214
0.129515
-0.165016
0.14572
-0.139816
0.153665
-0.114477
0.157794
-0.0898785
0.158987
-0.0684299
0.158545
-0.0487389
0.15724
-0.0318076
-0.0139447
0.0519605
0.104152
0.131231
0.14784
0.15599
0.160003
0.161014
0.160328
0.158763
0.0329167
0.023252
-0.0561687
0.0250547
0.00786201
0.023245
0.00180969
0.0251382
-0.00189312
0.0277518
-0.00261363
0.0302795
-0.00252766
0.0321918
-0.00191234
0.0339
-0.00170822
0.0342158
-0.000315798
0.000459276
0.0980705
0.0703816
-0.1452
0.0751272
0.0308053
0.0688036
0.00813328
0.0710328
-0.00412234
0.0756586
-0.00723944
0.0805585
-0.00742757
0.0845736
-0.00592737
0.0878609
-0.00499552
0.0891412
-0.0015961
0.000487694
0.133366
0.110812
-0.173796
0.105699
0.0584726
0.0983681
0.0154642
0.100682
-0.00643627
0.106581
-0.0131389
0.113046
-0.0138925
0.118537
-0.0114183
0.122754
-0.00921194
0.124983
-0.00382557
-0.000239459
0.141037
0.135422
-0.165647
0.115866
0.0836434
0.108732
0.0225981
0.112312
-0.0100162
0.119757
-0.020584
0.127383
-0.0215179
0.133965
-0.0180006
0.139023
-0.0142699
0.142381
-0.00718377
-0.00187267
0.133153
-0.146769
0.113797
0.110069
0.114609
0.122922
0.131235
0.138476
0.144053
0.148246
0.00459148
8.22562e-05
-0.00467374
0.00523405
-0.000642566
0.00660976
-0.00137571
0.00905777
-0.00244802
0.0131448
-0.00408699
0.0194164
-0.00627167
0.0280508
-0.00863432
0.0383364
-0.0102857
0.0486389
-0.0103025
-0.00752979
0.0125354
2.6981e-05
-0.0124801
0.0145394
-0.00264657
0.0187614
-0.00559774
0.0261096
-0.00979612
0.0376233
-0.0156008
0.0538723
-0.0225206
0.0742665
-0.0290286
0.0973403
-0.0333594
0.122362
-0.0353245
-0.0303676
0.0195749
-0.000321518
-0.0192264
0.0228693
-0.00594098
0.029526
-0.0122544
0.0404876
-0.0207578
0.0562998
-0.0314129
0.0766849
-0.0429057
0.100167
-0.0525103
0.124779
-0.0579722
0.149526
-0.0600714
-0.0546378
0.0259173
-0.00106805
-0.0251708
0.0303563
-0.0103799
0.0388687
-0.0207669
0.0519743
-0.0338634
0.069176
-0.0486147
0.0889227
-0.0626523
0.109151
-0.0727388
0.12891
-0.0777307
0.147077
-0.0782385
-0.0732085
0.0316804
-0.0304665
0.0370979
0.0468891
0.0609274
0.0777229
0.0950375
0.11095
0.124624
0.135187
0.0436166
-0.0327255
0.0411106
-0.0520017
0.0369192
-0.0296281
0.0363255
0.0315507
-0.0272826
0.032651
0.0267764
-0.0256675
0.0304418
0.0220064
-0.0247603
0.0295303
0.0169537
-0.0242233
0.0292761
0.0116801
-0.0233227
0.0285963
0.00653409
-0.0211436
0.0262896
0.00219865
-0.0165979
0.0209334
-0.00796907
0.0101677
0.0417665
-0.0260518
-0.0484401
0.0359669
-0.0238285
0.0307177
-0.0220333
0.0257886
-0.0207384
0.0209115
-0.0198832
0.0159294
-0.0192412
0.0109066
-0.0182999
0.00611383
-0.0163508
0.00209563
-0.0125797
-0.00587344
0.0394659
-0.0198575
-0.0456603
0.0337704
-0.018133
0.0285612
-0.0168241
0.0236934
-0.0158706
0.0190053
-0.0151951
0.0143719
-0.0146079
0.00980216
-0.0137301
0.00548609
-0.0120347
0.0018792
-0.00897283
-0.00399425
0.0382931
-0.0137383
-0.0444123
0.032724
-0.012564
0.0275923
-0.0116924
0.0227723
-0.0110505
0.0181442
-0.0105671
0.0136308
-0.0100945
0.0092522
-0.00935152
0.00516992
-0.00795246
0.00177651
-0.00557942
-0.00221774
0.0372257
-0.00787619
-0.0430878
0.0318397
-0.00717791
0.0268268
-0.00667958
0.0220783
-0.00630193
0.0174984
-0.00598725
0.0130366
-0.00563262
0.00873134
-0.00504625
0.00476423
-0.00398535
0.00156316
-0.00237836
-0.000654576
0.0364366
-0.00220246
-0.0421103
0.0311969
-0.00193823
0.0262833
-0.00176591
0.0215885
-0.00160715
0.017021
-0.00141978
0.0125357
-0.00114735
0.00818414
-0.000694658
0.00421509
-1.62971e-05
0.00121733
0.000619397
0.000562756
0.0362724
0.00342871
-0.0419036
0.0310743
0.00325988
0.0261974
0.00311103
0.021532
0.00305825
0.0169887
0.00312351
0.0125338
0.00330756
0.00825103
0.00358808
0.00441961
0.00381512
0.0014951
0.00354391
0.00205786
0.0365739
0.00908156
-0.0422267
0.0313689
0.00846487
0.0265007
0.00797923
0.0218581
0.00770083
0.0173565
0.00762514
0.0129713
0.00769277
0.00878448
0.00777488
0.00500394