/*--------------------------------*- C++ -*----------------------------------*\
| =========                 |                                                 |
| \\      /  F ield         | OpenFOAM: The Open Source CFD Toolbox           |
|  \\    /   O peration     | Version:  2406                                  |
|   \\  /    A nd           | Website:  www.openfoam.com                      |
|    \\/     M anipulation  |                                                 |
\*---------------------------------------------------------------------------*/
FoamFile
{
    version     2.0;
    format      ascii;
    arch        "LSB;label=32;scalar=64";
    class       volVectorField;
    location    "0.2";
    object      U;
}
// * * * * * * * * * * * * * * * * * * * * * * * * * * * * * * * * * * * * * //

dimensions      [0 1 -1 0 0 0 0];

internalField   nonuniform List<vector> 
1800
(
(-0.0317333 0.0353648 0)
(0.000664565 0.0155843 7.73187e-20)
(0.1058 -0.0323859 1.03951e-19)
(0.199275 -0.0603381 1.23666e-19)
(0.270958 -0.062975 1.15736e-19)
(0.328936 -0.047482 4.02438e-20)
(0.381484 -0.023976 6.2949e-20)
(0.438223 -0.00280267 1.17496e-19)
(0.519807 0.00632842 0)
(0.601526 0.00715961 1.6072e-19)
(-0.0231515 0.0220646 -1.53151e-20)
(0.0446966 -0.0189384 -5.5211e-20)
(0.185754 -0.0780435 6.8532e-20)
(0.298835 -0.110905 -4.67643e-20)
(0.380484 -0.117708 7.90259e-20)
(0.443255 -0.109034 4.14975e-20)
(0.500001 -0.0967252 3.08704e-20)
(0.564976 -0.0914925 -1.16515e-19)
(0.659936 -0.101999 1.28948e-19)
(0.774849 -0.135742 -9.87219e-20)
(-0.0133919 0.0112661 4.28184e-20)
(0.103398 -0.0477093 -2.20292e-19)
(0.274067 -0.108894 -2.11205e-19)
(0.401576 -0.139236 7.3948e-21)
(0.487562 -0.143302 -5.94807e-20)
(0.550201 -0.132969 -1.31013e-19)
(0.606326 -0.120309 -1.49849e-19)
(0.673259 -0.116377 1.90061e-19)
(0.77619 -0.130529 -9.96499e-20)
(0.926694 -0.174725 -3.16071e-19)
(0.00201098 0.00148583 2.42444e-20)
(0.174735 -0.0694797 1.46392e-19)
(0.372706 -0.12807 -5.41011e-20)
(0.511476 -0.153135 1.79767e-21)
(0.600632 -0.153326 6.89451e-20)
(0.664007 -0.140896 4.44531e-20)
(0.721833 -0.127422 1.93686e-19)
(0.794767 -0.123633 8.08648e-20)
(0.911785 -0.139856 -8.117e-20)
(1.09013 -0.191682 7.5304e-20)
(0.032125 -0.00747854 8.41485e-21)
(0.256939 -0.0824496 1.21104e-19)
(0.478013 -0.132339 -4.53112e-20)
(0.624889 -0.149487 7.74265e-21)
(0.71598 -0.144388 8.73633e-21)
(0.780201 -0.128639 -7.1637e-21)
(0.840233 -0.112579 -6.20572e-20)
(0.919028 -0.105974 -1.80567e-19)
(1.04854 -0.119053 1.30557e-19)
(1.24934 -0.164429 1.41107e-19)
(0.0731357 -0.0167896 2.62864e-22)
(0.346673 -0.0859978 4.43222e-20)
(0.586963 -0.123 1.12431e-19)
(0.739455 -0.130841 -2.49799e-20)
(0.831654 -0.120338 -7.85828e-20)
(0.896674 -0.101635 -1.26636e-20)
(0.9589 -0.0835356 -8.202e-20)
(1.04344 -0.0743983 -1.39748e-19)
(1.18463 -0.0836238 2.01755e-19)
(1.40403 -0.121299 4.1533e-20)
(0.122663 -0.0226423 -3.09655e-20)
(0.441777 -0.0789096 -1.51717e-19)
(0.696398 -0.100366 2.33959e-20)
(0.851435 -0.0984872 7.79476e-20)
(0.943374 -0.0830011 -1.69058e-20)
(1.00861 -0.0618624 6.98742e-20)
(1.07265 -0.0417764 1.0139e-19)
(1.16261 -0.0291419 -2.27481e-19)
(1.31464 -0.0315374 -2.6394e-19)
(1.54788 -0.0543204 -8.12905e-21)
(0.178051 -0.0224106 1.61606e-20)
(0.53803 -0.0595705 3.4648e-20)
(0.801653 -0.0643692 -4.80054e-20)
(0.95601 -0.0536506 2.34001e-20)
(1.04602 -0.034803 -4.11125e-22)
(1.11067 -0.013196 4.32787e-20)
(1.17642 0.00693223 3.96495e-21)
(1.27294 0.0215553 -1.55775e-19)
(1.43781 0.0256497 6.4382e-20)
(1.68385 0.0185617 -1.8279e-20)
(0.235879 -0.0145601 4.85986e-20)
(0.630361 -0.0278163 6.23453e-20)
(0.89708 -0.0163892 -1.67482e-19)
(1.04685 0.00133201 -5.42174e-20)
(1.13253 0.0214003 -1.30617e-20)
(1.19544 0.0415056 5.66999e-21)
(1.26315 0.0602793 4.06694e-20)
(1.36817 0.0763962 1.28536e-20)
(1.54716 0.0880574 1.38128e-20)
(1.80133 0.0974205 4.64768e-20)
(0.291982 0.00174485 7.2935e-20)
(0.712504 0.0160631 1.39707e-19)
(0.976341 0.0420706 -1.90745e-19)
(1.11804 0.0640717 -5.11614e-20)
(1.19753 0.0829647 1.43029e-20)
(1.25821 0.100069 -6.84566e-20)
(1.32899 0.116657 1.46446e-20)
(1.44512 0.133925 5.3116e-20)
(1.63834 0.152746 -1.89507e-20)
(1.89466 0.174718 -4.14178e-20)
(-0.00722396 0.0757731 -2.78748e-20)
(-0.00890205 0.0933462 8.31647e-20)
(-0.0104989 0.0955146 6.29272e-20)
(-0.0110697 0.0907295 -6.62989e-20)
(-0.00822425 0.0785185 -7.83204e-21)
(-0.0042308 0.0653008 4.4171e-20)
(0.000184824 0.0514389 3.54934e-20)
(0.00534451 0.0342105 -7.81305e-20)
(0.0117241 0.00991248 3.85979e-22)
(0.021755 -0.0256722 3.24328e-20)
(-0.0128249 0.0820708 3.52817e-20)
(-0.0158991 0.0971837 1.6903e-22)
(-0.0176785 0.0977044 8.42723e-20)
(-0.0168901 0.0872162 -1.11486e-19)
(-0.0122592 0.0713898 -1.71349e-19)
(-0.00690737 0.0563751 -5.54512e-20)
(-0.00108173 0.040772 1.09631e-19)
(0.00585254 0.0209855 0)
(0.0147185 -0.00751515 -1.41308e-20)
(0.0287325 -0.0494875 5.66546e-20)
(-0.0203651 0.0871151 -3.60401e-23)
(-0.0239404 0.100217 -1.46597e-19)
(-0.0252992 0.0989926 -6.38979e-20)
(-0.0214234 0.0821981 1.02906e-19)
(-0.0140916 0.0634025 -8.83662e-20)
(-0.00674933 0.0469369 -3.67928e-20)
(0.00109867 0.0298493 -6.81348e-20)
(0.0104734 0.00777836 -3.61534e-20)
(0.0226771 -0.0246819 -1.39579e-19)
(0.0419076 -0.072716 -2.24693e-19)
(-0.0280688 0.0908408 3.25558e-20)
(-0.0320425 0.101933 1.18822e-20)
(-0.0321321 0.0976929 -1.16332e-21)
(-0.0234102 0.0749854 3.84484e-20)
(-0.0129975 0.0540834 -1.385e-21)
(-0.00326284 0.0366259 7.74363e-20)
(0.00701008 0.0185039 -2.5134e-20)
(0.0192975 -0.00534834 0)
(0.0355465 -0.0412901 1.5812e-19)
(0.0611371 -0.0948968 6.18589e-20)
(-0.035313 0.0921549 -8.47527e-20)
(-0.0399156 0.102893 3.53023e-20)
(-0.0367265 0.0929547 1.62343e-19)
(-0.0222634 0.0660156 3.21423e-21)
(-0.00848748 0.0437568 2.55956e-20)
(0.00394873 0.0257533 1.02553e-19)
(0.0168656 0.00712493 -7.51022e-20)
(0.0322622 -0.0177812 -9.36067e-21)
(0.0528788 -0.0563413 1.34419e-19)
(0.085435 -0.114578 1.85914e-19)
(-0.0419266 0.0908267 -8.91564e-20)
(-0.0466554 0.101393 -9.14486e-21)
(-0.0375784 0.0849601 -1.45196e-19)
(-0.0170777 0.0555746 -5.6325e-20)
(0.000554033 0.0328121 1.03178e-19)
(0.0159658 0.0148084 8.39632e-20)
(0.0316791 -0.00370613 7.0301e-20)
(0.0502741 -0.0286864 -1.52429e-19)
(0.0754797 -0.0685757 8.20114e-20)
(0.11598 -0.130294 2.35975e-19)
(-0.0467767 0.0864513 4.2767e-20)
(-0.0501736 0.0957902 1.98359e-20)
(-0.0328311 0.0740396 4.60772e-20)
(-0.00544656 0.0440178 5.90724e-21)
(0.0165573 0.0222652 -1.31052e-19)
(0.0351261 0.00532556 -1.04678e-19)
(0.0535877 -0.0123428 1.11035e-19)
(0.0751118 -0.0364656 -1.36772e-19)
(0.104717 -0.0763537 -8.25419e-20)
(0.154068 -0.140721 -3.08805e-20)
(-0.0483029 0.0781983 1.42613e-21)
(-0.0483522 0.0849946 -9.53861e-21)
(-0.0197627 0.0591076 6.41479e-20)
(0.0163873 0.0309841 9.71998e-21)
(0.0440038 0.0134298 -1.06006e-19)
(0.066666 0.000672207 -3.04105e-20)
(0.0885184 -0.0140801 9.8446e-20)
(0.113071 -0.0361708 9.79845e-20)
(0.146515 -0.0740281 1.93447e-19)
(0.20657 -0.138259 -4.75698e-20)
(-0.0455448 0.0656699 -3.61829e-21)
(-0.0395846 0.0673437 4.18999e-20)
(0.00495738 0.0367493 4.60596e-21)
(0.0538356 0.0111882 -1.66896e-19)
(0.0905444 0.00108407 -3.11811e-20)
(0.120055 -0.000950327 6.28282e-20)
(0.147747 -0.0061439 1.11687e-19)
(0.177643 -0.0228393 1.26293e-19)
(0.216327 -0.0565678 -4.55524e-22)
(0.291192 -0.114595 -6.56228e-20)
(-0.0399656 0.0510462 3.65589e-20)
(-0.0251678 0.0438834 -1.0716e-20)
(0.0425261 0.00609757 6.64923e-20)
(0.10973 -0.0190705 1.31287e-19)
(0.160173 -0.0227246 -6.88075e-20)
(0.198979 -0.0105848 1.01573e-19)
(0.23313 0.00582398 -1.54732e-19)
(0.272253 0.0103494 -1.12677e-19)
(0.327542 -0.00796076 -1.87614e-19)
(0.421848 -0.0480567 -2.48218e-20)
(0.103772 -0.26482 -3.01035e-19)
(0.387243 -0.347444 -1.94142e-19)
(0.575167 -0.2862 -3.23161e-20)
(0.671717 -0.229661 -2.2463e-20)
(0.73671 -0.177117 3.62989e-20)
(0.771826 -0.134359 1.76063e-21)
(0.788128 -0.0983968 -3.33222e-20)
(0.800441 -0.0675164 1.06834e-20)
(0.797698 -0.0421292 -6.21038e-21)
(0.79862 -0.0165546 -2.77736e-21)
(0.140638 -0.326518 -2.11051e-19)
(0.40032 -0.41735 1.10774e-20)
(0.585698 -0.32628 -4.6515e-20)
(0.679274 -0.255141 3.48537e-21)
(0.743257 -0.191636 2.85947e-20)
(0.777458 -0.142563 -5.1497e-20)
(0.793341 -0.102461 2.0338e-20)
(0.805243 -0.0690621 1.47976e-22)
(0.802876 -0.0423325 -1.22064e-20)
(0.803594 -0.0162656 8.75982e-21)
(0.189255 -0.383494 6.62246e-19)
(0.413227 -0.482685 2.13927e-19)
(0.593455 -0.366491 2.18204e-20)
(0.682632 -0.281272 2.57601e-20)
(0.746 -0.20691 -4.39191e-20)
(0.779616 -0.151382 6.69457e-22)
(0.795673 -0.106867 8.33472e-21)
(0.807715 -0.0708917 -1.20264e-20)
(0.806419 -0.0427233 -7.08519e-22)
(0.807547 -0.0160873 -1.14004e-21)
(0.248397 -0.434961 4.64802e-19)
(0.426437 -0.54078 -5.15126e-21)
(0.5992 -0.408419 3.32315e-21)
(0.683033 -0.3079 -1.94307e-20)
(0.745534 -0.22344 1.26709e-20)
(0.778906 -0.160657 1.01362e-20)
(0.795682 -0.111813 -1.71889e-20)
(0.808545 -0.0731321 0)
(0.808684 -0.0435059 0)
(0.811002 -0.0161054 3.372e-23)
(0.312141 -0.477218 -2.07346e-19)
(0.445913 -0.589024 -2.5438e-19)
(0.606979 -0.449481 -4.80126e-21)
(0.684546 -0.334978 1.78451e-20)
(0.7453 -0.240567 8.31559e-21)
(0.778305 -0.170599 4.81996e-20)
(0.795877 -0.117427 5.75042e-22)
(0.810069 -0.0759263 -7.80104e-21)
(0.811617 -0.0448126 -2.15439e-20)
(0.815872 -0.0163151 -1.6419e-21)
(0.386579 -0.510935 -2.61447e-19)
(0.48879 -0.629229 -1.16663e-19)
(0.633242 -0.488978 -1.37419e-19)
(0.700426 -0.361931 3.08072e-21)
(0.755613 -0.258472 -3.50882e-20)
(0.785897 -0.181534 2.76724e-20)
(0.802744 -0.124036 1.01851e-20)
(0.817736 -0.0795994 -3.58462e-20)
(0.820228 -0.0468698 3.22183e-22)
(0.827042 -0.0168245 -1.26627e-20)
(0.468503 -0.540896 1.21924e-19)
(0.573882 -0.67024 2.21852e-20)
(0.699585 -0.526808 8.29188e-20)
(0.750533 -0.386721 -2.85813e-20)
(0.793538 -0.274613 -2.28651e-21)
(0.816452 -0.191593 -3.77807e-20)
(0.829163 -0.130436 -4.6287e-22)
(0.842839 -0.0836725 9.39412e-21)
(0.845322 -0.0496408 9.56964e-21)
(0.854636 -0.0178369 6.34028e-21)
(0.573766 -0.560491 2.96336e-19)
(0.709467 -0.712873 1.21127e-18)
(0.821958 -0.567126 1.39838e-19)
(0.851401 -0.413957 1.20944e-20)
(0.874776 -0.292924 2.80466e-20)
(0.884493 -0.203484 3.90089e-20)
(0.888419 -0.138324 -3.7009e-20)
(0.897382 -0.0890423 2.89307e-20)
(0.897628 -0.0533638 -4.51541e-22)
(0.908085 -0.0194222 -2.60782e-21)
(0.744254 -0.579792 8.16005e-19)
(0.902507 -0.74385 4.60294e-19)
(0.999838 -0.596732 -3.62633e-19)
(1.01261 -0.429631 8.52244e-20)
(1.01826 -0.301107 7.01108e-22)
(1.01372 -0.207755 1.95348e-21)
(1.00612 -0.141092 1.31181e-20)
(1.00737 -0.0913338 -7.01559e-22)
(1.00166 -0.05569 -6.10443e-21)
(1.01125 -0.021513 -4.22766e-21)
(0.918401 -0.588775 3.63988e-20)
(1.12958 -0.802797 -8.86368e-19)
(1.18272 -0.64692 -3.08171e-19)
(1.17204 -0.461717 8.82067e-20)
(1.16145 -0.321497 -1.37554e-20)
(1.14706 -0.220726 2.91998e-21)
(1.1323 -0.149333 -1.64688e-21)
(1.12925 -0.0962505 1.26688e-21)
(1.123 -0.058934 -1.31631e-21)
(1.13065 -0.0233145 -6.14969e-22)
(1.602 -0.592087 1.97858e-20)
(1.5488 -0.716047 -1.10915e-19)
(1.53685 -0.600805 -4.51513e-20)
(1.47079 -0.435538 -6.77866e-20)
(1.41957 -0.302137 3.63275e-20)
(1.37933 -0.206977 5.71218e-21)
(1.3458 -0.140677 1.26089e-20)
(1.32913 -0.0921596 8.77171e-21)
(1.31203 -0.0580137 -1.80653e-20)
(1.3121 -0.0247023 2.12072e-21)
(1.65654 -0.890985 -3.3768e-19)
(1.74257 -0.8873 -3.89226e-20)
(1.74664 -0.663129 1.19954e-19)
(1.6786 -0.448387 -2.51282e-20)
(1.61848 -0.299702 1.26671e-19)
(1.57026 -0.201989 1.02821e-19)
(1.52929 -0.134505 7.5716e-20)
(1.50641 -0.0873255 -9.16983e-21)
(1.48912 -0.054428 3.54873e-20)
(1.48139 -0.0227142 9.3563e-21)
(2.36488 -0.679676 -1.27555e-19)
(2.11653 -0.739545 -5.35409e-20)
(2.00776 -0.578389 5.00654e-20)
(1.88938 -0.38914 1.02287e-35)
(1.8015 -0.255796 -1.09387e-20)
(1.73696 -0.170297 -3.62562e-34)
(1.6844 -0.113083 2.3287e-21)
(1.65319 -0.0748979 -8.68343e-35)
(1.62672 -0.0477362 3.84827e-22)
(1.6175 -0.0211109 -2.29921e-21)
(2.56918 -0.701839 -2.50617e-19)
(2.32895 -0.742433 9.94859e-20)
(2.177 -0.567542 -6.64872e-20)
(2.01237 -0.369454 0)
(1.89666 -0.235191 -8.88217e-20)
(1.8186 -0.153471 -6.72703e-20)
(1.75865 -0.100524 -4.89604e-20)
(1.72217 -0.0656274 2.00811e-34)
(1.69366 -0.0417486 -1.78649e-20)
(1.6837 -0.0187627 1.57196e-21)
(2.80861 -0.542092 -2.35395e-19)
(2.51427 -0.606533 1.86028e-20)
(2.30006 -0.471421 0)
(2.09224 -0.300582 0)
(1.95004 -0.185846 0)
(1.85889 -0.119024 0)
(1.79204 -0.0770803 1.25505e-21)
(1.75023 -0.050158 2.45912e-34)
(1.71785 -0.0327007 -6.43068e-23)
(1.70492 -0.016262 1.482e-34)
(2.89252 -0.480822 9.27609e-20)
(2.59907 -0.524771 0)
(2.3511 -0.390777 0)
(2.11374 -0.239738 0)
(1.95264 -0.142962 0)
(1.85322 -0.0903012 0)
(1.78352 -0.0582519 -3.05647e-21)
(1.74069 -0.0378824 3.57849e-20)
(1.70862 -0.0259556 -2.99427e-22)
(1.69669 -0.0142481 8.57484e-21)
(2.91548 -0.406 0)
(2.56933 -0.408231 1.91147e-20)
(2.28192 -0.285125 -5.57381e-20)
(2.03229 -0.165214 0)
(1.87038 -0.0928134 -6.20766e-20)
(1.77396 -0.0570335 -4.35567e-20)
(1.70848 -0.0364024 -3.37821e-20)
(1.66811 -0.0230877 -2.0157e-20)
(1.63973 -0.0171801 2.36595e-20)
(1.62297 -0.010972 -4.86158e-21)
(2.76576 -0.323883 -9.05106e-20)
(2.31634 -0.279517 1.92823e-20)
(2.00309 -0.174402 -1.71465e-20)
(1.76741 -0.0921695 -7.52979e-38)
(1.62675 -0.0461101 1.08771e-20)
(1.54612 -0.0267547 -2.65177e-34)
(1.49236 -0.0165404 -4.31765e-21)
(1.459 -0.010169 -7.86499e-21)
(1.4366 -0.00848422 -6.93341e-22)
(1.41769 -0.00689818 1.18521e-21)
(2.12591 -0.16471 0)
(1.65993 -0.101248 2.1868e-20)
(1.39961 -0.0568912 3.21269e-20)
(1.22312 -0.0254536 0)
(1.13313 -0.00784054 2.62412e-20)
(1.08627 -0.00343195 1.78664e-20)
(1.05629 -0.00202252 6.87942e-21)
(1.03828 -0.00124932 7.24325e-21)
(1.02757 -0.00214624 -9.19051e-21)
(1.01107 -0.00283513 7.81739e-23)
(0.750384 -0.0340725 -2.80755e-20)
(0.572298 -0.0112175 0)
(0.486365 -0.0082743 0)
(0.422937 -0.00297096 0)
(0.405465 0.000461826 0)
(0.401259 0.000672646 0)
(0.399297 0.000566518 -4.88417e-21)
(0.398819 0.000433939 1.57e-35)
(0.398271 0.000196512 -9.10497e-22)
(0.392672 -0.000402294 -1.64555e-21)
(2.40673 0.218063 3.57848e-19)
(2.35195 0.12426 1.92863e-19)
(2.26352 0.0180088 2.47859e-19)
(2.12719 -0.0883165 -2.33274e-19)
(1.97819 -0.199986 -5.23397e-20)
(1.77641 -0.27879 -9.30253e-20)
(1.62295 -0.355893 3.69658e-19)
(1.3741 -0.359014 8.64213e-20)
(1.33232 -0.401971 -4.29125e-19)
(0.979622 -0.21188 -2.06978e-19)
(2.95247 0.189224 -3.34164e-19)
(2.96996 0.0879047 8.11527e-20)
(2.95415 -0.0208914 2.00467e-19)
(2.88373 -0.130556 2.05531e-19)
(2.78841 -0.246178 -3.90557e-19)
(2.62088 -0.344599 2.79225e-19)
(2.4714 -0.458393 2.37048e-19)
(2.21304 -0.502523 5.84523e-20)
(2.07068 -0.616884 1.87275e-19)
(1.69379 -0.545188 2.09704e-19)
(3.18602 0.128113 3.18645e-20)
(3.23114 0.0446917 -2.62677e-19)
(3.24703 -0.0466777 -3.45489e-19)
(3.22217 -0.149083 8.29515e-19)
(3.19142 -0.24856 -1.47805e-19)
(3.07886 -0.361404 2.73894e-19)
(3.01053 -0.450686 -2.60112e-19)
(2.77739 -0.556669 -2.57323e-19)
(2.71838 -0.620348 -2.70308e-19)
(2.36411 -0.671281 -6.91738e-20)
(3.21779 0.0545674 1.02605e-19)
(3.27135 -0.00929189 -4.01e-19)
(3.31004 -0.0763662 2.20051e-19)
(3.31243 -0.154137 -3.74414e-19)
(3.31068 -0.233602 2.9281e-19)
(3.24707 -0.324638 -2.84173e-19)
(3.21353 -0.401749 -8.73751e-20)
(3.06148 -0.491336 9.14991e-20)
(3.0055 -0.560284 3.70533e-19)
(2.78641 -0.609794 3.53575e-19)
(3.20923 0.00267558 9.90356e-20)
(3.24554 -0.048206 -4.03672e-19)
(3.27653 -0.0968725 6.01573e-20)
(3.28437 -0.154515 -2.36787e-19)
(3.2909 -0.207377 -9.04342e-20)
(3.24879 -0.277118 -4.05173e-22)
(3.23022 -0.326396 3.95706e-19)
(3.12539 -0.401039 -2.63328e-21)
(3.09295 -0.445424 -4.5508e-20)
(2.94463 -0.495297 -7.18274e-20)
(3.18897 -0.0255423 2.03375e-19)
(3.21013 -0.0667211 6.32888e-20)
(3.22659 -0.102649 -2.1568e-19)
(3.22809 -0.144006 3.44518e-20)
(3.22873 -0.177911 1.91779e-19)
(3.1952 -0.226848 2.0955e-19)
(3.18232 -0.25727 -8.47335e-20)
(3.10839 -0.304665 -2.95403e-19)
(3.09029 -0.344373 9.53578e-20)
(2.98786 -0.362237 4.88517e-20)
(3.13515 -0.0426895 -1.38492e-20)
(3.14585 -0.0733176 1.09646e-19)
(3.15209 -0.0977532 -8.3294e-20)
(3.1501 -0.126342 4.03264e-20)
(3.145 -0.145805 2.24546e-19)
(3.12233 -0.181382 -1.52249e-19)
(3.10948 -0.193925 -1.55014e-20)
(3.06287 -0.228982 1.10792e-19)
(3.04838 -0.260048 1.09135e-19)
(2.98161 -0.26569 8.39055e-20)
(2.94018 -0.0469821 1.24702e-21)
(2.94236 -0.0668314 -1.7361e-21)
(2.94103 -0.0807207 -4.73758e-20)
(2.94137 -0.0989925 -1.53327e-20)
(2.93348 -0.105979 -1.23276e-19)
(2.93499 -0.135363 1.54842e-20)
(2.91232 -0.126939 9.0166e-20)
(2.92236 -0.169533 -9.58605e-20)
(2.88046 -0.177805 1.42001e-19)
(2.88824 -0.183864 1.88245e-19)
(2.33315 -0.0436562 7.17674e-20)
(2.32106 -0.047942 -1.55711e-20)
(2.31128 -0.0517352 -2.32122e-21)
(2.30792 -0.056792 6.85663e-21)
(2.302 -0.0602856 2.24967e-20)
(2.31253 -0.0692572 4.93431e-20)
(2.29544 -0.0660561 -1.21694e-19)
(2.33958 -0.0943724 -4.58958e-20)
(2.27666 -0.0736721 2.49925e-20)
(2.36466 -0.112335 -2.15508e-20)
(1.01209 -0.0095718 0)
(0.993315 -0.0099801 3.46755e-21)
(0.976989 -0.0115614 -2.47257e-20)
(0.9644 -0.0131134 -1.21267e-20)
(0.954218 -0.0146884 -1.06988e-21)
(0.948501 -0.0155924 -1.12712e-19)
(0.943885 -0.0171276 -4.7562e-21)
(0.942739 -0.017891 2.06337e-19)
(0.934535 -0.0265431 5.61947e-20)
(0.946095 -0.0450093 -8.40246e-21)
(1.04495 0.583137 -5.17128e-20)
(0.808469 0.475121 -1.11081e-19)
(0.669557 0.421274 -1.34205e-19)
(0.597803 0.402868 -1.20212e-19)
(0.565282 0.403966 1.7014e-19)
(0.548537 0.416436 -6.59223e-20)
(0.53006 0.424486 -8.69388e-20)
(0.497373 0.417022 5.08335e-20)
(0.424665 0.374436 -1.25713e-19)
(0.243224 0.221335 -7.27537e-22)
(1.40336 0.585957 -2.3711e-19)
(1.15192 0.466957 4.83074e-19)
(0.94248 0.389364 1.97602e-19)
(0.804472 0.358389 3.369e-20)
(0.728989 0.358575 3.32529e-20)
(0.685696 0.375946 4.41376e-22)
(0.647014 0.394279 4.02678e-20)
(0.593701 0.396034 -1.71002e-19)
(0.496593 0.360409 -5.44222e-20)
(0.279763 0.213047 -5.88742e-20)
(1.598 0.583539 9.09876e-20)
(1.36078 0.472113 3.75277e-19)
(1.14165 0.391632 3.22499e-21)
(0.981356 0.353623 -5.70641e-20)
(0.883523 0.348918 1.05612e-19)
(0.823346 0.364719 1.24903e-19)
(0.771882 0.384671 -4.3782e-20)
(0.703399 0.389636 -1.35775e-19)
(0.582138 0.355214 2.06156e-19)
(0.322802 0.208077 -1.30751e-19)
(1.71127 0.562042 -2.70282e-19)
(1.4902 0.467662 1.55616e-19)
(1.27913 0.395267 -2.68079e-19)
(1.11737 0.357302 -6.70177e-20)
(1.01383 0.349901 2.15643e-19)
(0.947484 0.36258 -1.46621e-19)
(0.889658 0.379982 -1.97585e-19)
(0.81093 0.38319 1.4492e-19)
(0.668367 0.346339 -1.10688e-19)
(0.364832 0.199171 -4.5957e-21)
(1.79826 0.530394 3.17662e-19)
(1.58776 0.453897 2.39019e-19)
(1.3835 0.391861 -6.33878e-20)
(1.2246 0.356532 2.467e-19)
(1.1221 0.347837 -4.13604e-20)
(1.0551 0.356721 -1.36757e-19)
(0.994193 0.369099 3.52995e-20)
(0.907294 0.367611 -1.60986e-19)
(0.744465 0.326523 -1.67876e-19)
(0.398729 0.1826 -5.67805e-20)
(1.87176 0.495933 4.80041e-19)
(1.66316 0.43194 4.5428e-19)
(1.46036 0.377563 -3.44934e-19)
(1.30509 0.344934 -2.44889e-19)
(1.20705 0.335388 7.08641e-21)
(1.14218 0.339739 -2.17436e-19)
(1.07964 0.345568 6.30761e-20)
(0.985345 0.338126 -1.03044e-19)
(0.802435 0.29254 1.00093e-19)
(0.419267 0.157379 4.85232e-20)
(1.92948 0.452153 4.46796e-19)
(1.71507 0.396413 -4.70492e-19)
(1.50999 0.348576 -3.43563e-19)
(1.35944 0.318847 9.63829e-20)
(1.26754 0.308507 -1.48987e-19)
(1.20543 0.307843 3.1151e-19)
(1.14149 0.306847 3.12827e-20)
(1.03956 0.293698 -2.88956e-19)
(0.836058 0.245379 1.08243e-19)
(0.423323 0.125734 5.45283e-20)
(1.96311 0.394867 -3.093e-19)
(1.73829 0.348961 -3.33947e-19)
(1.53205 0.307237 -2.61295e-19)
(1.38815 0.279836 5.07733e-20)
(1.3026 0.268094 1.66389e-19)
(1.24266 0.262284 1.24443e-19)
(1.17718 0.255243 -4.29244e-20)
(1.06653 0.237618 1.24451e-19)
(0.843056 0.189204 4.46267e-20)
(0.410903 0.0907885 6.08772e-20)
(1.97206 0.326254 1.05421e-19)
(1.73438 0.286873 -8.23796e-20)
(1.52889 0.252882 1.34113e-19)
(1.39249 0.229853 3.82117e-19)
(1.31242 0.216623 -4.28431e-20)
(1.25348 0.206467 -2.64067e-19)
(1.18537 0.194561 2.59096e-19)
(1.06487 0.173409 3.32838e-19)
(0.823678 0.128643 -1.90798e-19)
(0.383179 0.0563896 -7.76645e-20)
(1.95133 0.252544 -1.96671e-19)
(1.70194 0.22055 -1.75431e-21)
(1.49967 0.193872 1.83091e-19)
(1.3722 0.174074 9.45834e-20)
(1.29713 0.159177 7.75786e-20)
(1.23805 0.145381 -1.86887e-19)
(1.16514 0.129453 1.26802e-19)
(1.034 0.106479 -2.5399e-19)
(0.778971 0.0692244 -2.31506e-19)
(0.342473 0.0258462 2.34109e-20)
(0.204318 0.287193 -2.97446e-20)
(0.182286 0.265622 2.54356e-19)
(0.161347 0.249076 3.25794e-20)
(0.140989 0.238659 -1.62472e-19)
(0.120503 0.233489 -4.47718e-20)
(0.0993427 0.231265 -1.0163e-19)
(0.0771081 0.228057 5.00293e-20)
(0.0537307 0.217889 -3.90326e-20)
(0.0300933 0.190677 8.65862e-20)
(0.0127036 0.115893 2.15939e-20)
(0.238931 0.344642 -8.02379e-20)
(0.213891 0.318622 -2.72812e-20)
(0.190684 0.298966 -1.57648e-19)
(0.168897 0.286967 1.41041e-20)
(0.147498 0.281409 2.08695e-20)
(0.125629 0.279437 3.7671e-20)
(0.102573 0.276316 1.65829e-19)
(0.0778598 0.26509 -5.96148e-20)
(0.0509328 0.233578 6.18633e-20)
(0.0248484 0.14252 -1.72301e-20)
(0.282791 0.399982 7.28358e-20)
(0.253795 0.369545 1.91111e-19)
(0.227763 0.346777 1.05493e-19)
(0.204259 0.333233 1.50731e-19)
(0.181827 0.327321 3.67506e-20)
(0.159235 0.325612 1.67696e-19)
(0.135378 0.322595 -4.38127e-20)
(0.109218 0.310403 -3.94836e-20)
(0.0784416 0.274841 -1.28465e-22)
(0.0411724 0.168035 1.00854e-20)
(0.335074 0.451626 4.72205e-19)
(0.301077 0.416862 3.38724e-19)
(0.271652 0.391135 -3.56925e-19)
(0.246183 0.376237 -1.41225e-19)
(0.222682 0.370078 -1.44482e-20)
(0.199461 0.368609 -7.60756e-20)
(0.174935 0.365602 -1.89295e-19)
(0.147319 0.352438 5.08487e-20)
(0.112246 0.313089 -3.46682e-20)
(0.0614491 0.191561 -7.50584e-20)
(0.395439 0.500789 -1.42807e-19)
(0.355614 0.461719 -3.06486e-19)
(0.322237 0.432604 2.37202e-19)
(0.294453 0.415973 -7.69392e-20)
(0.269727 0.409194 -1.06171e-19)
(0.245832 0.40754 7.13816e-20)
(0.22065 0.404135 3.00889e-20)
(0.191503 0.389802 -1.09187e-19)
(0.151701 0.346879 -1.38102e-19)
(0.0852178 0.212144 5.51103e-20)
(0.452913 0.539008 -1.93374e-20)
(0.408608 0.496236 -1.66354e-20)
(0.372366 0.465366 7.28287e-21)
(0.343453 0.44835 4.93656e-20)
(0.318584 0.441681 1.7711e-19)
(0.29491 0.439974 -1.11379e-19)
(0.269771 0.435979 -7.23658e-20)
(0.239546 0.420391 1.59494e-20)
(0.195076 0.374292 -2.54369e-20)
(0.111526 0.228545 1.01437e-19)
(0.540948 0.582344 -2.0622e-19)
(0.483094 0.534802 8.88866e-20)
(0.438091 0.498831 2.67585e-19)
(0.403807 0.47904 -8.64523e-20)
(0.375994 0.470582 -2.45034e-19)
(0.35063 0.467111 1.78786e-19)
(0.324285 0.461289 2.7411e-19)
(0.29213 0.443843 1.31937e-19)
(0.242111 0.394546 7.68907e-20)
(0.139717 0.240079 1.69997e-19)
(0.563087 0.604669 -3.58541e-19)
(0.50887 0.552166 -7.4057e-20)
(0.467407 0.516503 1.11831e-19)
(0.438809 0.497188 -1.16856e-19)
(0.416616 0.487982 1.23243e-20)
(0.39555 0.48284 1.92438e-19)
(0.37192 0.475219 -1.00954e-19)
(0.34048 0.456311 -1.45309e-19)
(0.286718 0.404795 4.3961e-20)
(0.166828 0.244764 -5.41476e-20)
(0.728334 0.646946 -3.06068e-20)
(0.638369 0.58747 6.10254e-20)
(0.567633 0.536936 -1.46698e-19)
(0.518797 0.508714 -3.8436e-21)
(0.486147 0.495783 2.21512e-19)
(0.460768 0.488949 2.23415e-20)
(0.434828 0.480153 3.33382e-21)
(0.399949 0.459689 0)
(0.337703 0.406375 -8.01853e-20)
(0.195562 0.244092 -6.61208e-20)
(0.601067 0.674886 0)
(0.548372 0.61735 0)
(0.518378 0.567871 1.38887e-19)
(0.500422 0.530135 -3.8468e-20)
(0.490301 0.505207 6.30969e-20)
(0.479613 0.488607 5.14076e-20)
(0.464082 0.473925 7.11881e-20)
(0.438013 0.453983 -5.60367e-20)
(0.375744 0.400717 1.01196e-19)
(0.217713 0.2365 8.30517e-20)
(0.770973 0.347918 -1.7381e-20)
(1.03836 0.326823 -8.44034e-21)
(0.831396 0.216511 5.63094e-21)
(0.855114 0.180712 -1.13359e-21)
(0.846968 0.183387 6.12183e-21)
(0.822642 0.192972 2.00562e-20)
(0.780219 0.225631 -1.38838e-20)
(0.722626 0.268658 -3.85941e-20)
(0.602971 0.348667 -9.75116e-20)
(0.319605 0.398967 1.97855e-19)
(0.770258 0.362679 -5.37957e-21)
(1.03598 0.341538 1.58978e-20)
(0.825983 0.224684 -8.06113e-22)
(0.852123 0.185266 2.34259e-20)
(0.844095 0.187944 3.85448e-21)
(0.825369 0.200707 -2.63742e-20)
(0.787782 0.241257 -1.1223e-20)
(0.738007 0.293891 -6.78334e-22)
(0.627684 0.405529 2.96408e-19)
(0.36466 0.473858 -1.23291e-20)
(0.769068 0.377806 1.76614e-20)
(1.03257 0.356517 3.63777e-20)
(0.817897 0.232321 -3.23852e-20)
(0.845901 0.189677 -4.96567e-21)
(0.838282 0.191605 -9.23067e-21)
(0.824063 0.208022 4.25955e-21)
(0.791501 0.255938 1.81135e-20)
(0.751669 0.318553 -1.98453e-20)
(0.652349 0.458271 1.12444e-19)
(0.422427 0.545648 -5.04628e-19)
(0.768124 0.39346 1.34676e-20)
(1.0285 0.371913 -5.14121e-21)
(0.806754 0.23963 -2.02888e-20)
(0.836397 0.193746 -4.09218e-20)
(0.830893 0.194666 8.76936e-21)
(0.819728 0.215122 6.98056e-21)
(0.791762 0.269294 -2.02559e-20)
(0.763321 0.343552 9.13915e-20)
(0.679098 0.5065 -1.05081e-19)
(0.492742 0.61268 -4.55299e-19)
(0.768536 0.409666 8.74611e-21)
(1.02423 0.388264 -5.99248e-20)
(0.7925 0.246863 1.76096e-20)
(0.826074 0.196691 8.27165e-20)
(0.824858 0.196557 2.94362e-21)
(0.814341 0.222098 2.1509e-20)
(0.788862 0.28124 2.76655e-20)
(0.771489 0.366361 5.32194e-20)
(0.705152 0.54357 -4.82085e-20)
(0.575775 0.673253 3.52068e-19)
(0.771292 0.425934 -4.38959e-23)
(1.02056 0.406019 1.19605e-21)
(0.779623 0.254509 -2.82035e-20)
(0.820658 0.198732 1.17339e-20)
(0.820921 0.19817 -2.10183e-20)
(0.809422 0.229372 -4.63441e-22)
(0.786357 0.293412 -1.14519e-20)
(0.777621 0.390999 -1.70135e-19)
(0.731875 0.58528 0)
(0.638596 0.728324 -3.66474e-20)
(0.774577 0.44171 -7.009e-22)
(1.02409 0.424725 4.74533e-20)
(0.783297 0.262161 -2.08766e-21)
(0.825294 0.19916 -9.64365e-21)
(0.823044 0.19997 -1.06982e-20)
(0.814237 0.236831 -2.4748e-20)
(0.796177 0.303448 1.38343e-21)
(0.79918 0.407763 1.09151e-20)
(0.770628 0.593502 -9.49108e-21)
(0.801911 0.766074 1.09734e-18)
(0.783763 0.455596 -1.10235e-19)
(1.04285 0.440263 8.02363e-20)
(0.807592 0.267955 5.85209e-20)
(0.845005 0.200436 2.39199e-20)
(0.849203 0.205599 -4.12972e-20)
(0.840167 0.248795 4.02403e-21)
(0.822548 0.322121 -4.28417e-21)
(0.823353 0.440054 5.76483e-21)
(0.829386 0.648439 1.89578e-19)
(0.746481 0.830037 -1.3924e-19)
(0.794092 0.463404 4.01606e-20)
(1.08663 0.452779 -5.41295e-20)
(0.871695 0.270889 -1.29219e-20)
(0.918898 0.2016 7.31766e-21)
(0.932777 0.207446 2.96261e-21)
(0.928226 0.253133 1.06647e-20)
(0.915499 0.326672 -2.3852e-20)
(0.935116 0.442318 6.47975e-20)
(0.920431 0.627874 3.26015e-19)
(1.07851 0.815852 -8.24204e-19)
(0.813892 0.465519 9.4687e-20)
(1.16023 0.457726 -1.17293e-19)
(0.965475 0.266917 -2.66903e-21)
(1.01652 0.200967 3.6225e-20)
(1.03421 0.213515 2.83765e-20)
(1.02933 0.269095 -6.5913e-21)
(1.01838 0.354231 -4.69436e-21)
(1.02993 0.49703 8.58481e-20)
(1.06029 0.686437 3.44375e-20)
(0.97088 0.945127 5.60495e-19)
(0.832371 0.448007 -2.54939e-20)
(1.2896 0.458506 3.58887e-21)
(1.12103 0.26136 -1.32548e-20)
(1.17266 0.197417 1.32561e-20)
(1.2111 0.209214 -2.7046e-20)
(1.22516 0.262774 -3.1631e-20)
(1.22391 0.342918 1.64222e-21)
(1.28754 0.469099 -1.73711e-19)
(1.24855 0.674574 -3.96553e-19)
(1.29671 0.804215 -1.333e-19)
(0.84396 0.38541 -5.85999e-20)
(1.42769 0.426573 -2.43635e-20)
(1.29356 0.247718 2.11706e-20)
(1.34705 0.188256 -5.37018e-20)
(1.40391 0.202989 4.16199e-20)
(1.4378 0.258769 8.82673e-20)
(1.4741 0.338852 1.91781e-20)
(1.51818 0.489393 1.73445e-19)
(1.7261 0.634034 1.04996e-20)
(1.50822 0.827533 5.24606e-19)
(0.836299 0.298965 -2.70511e-20)
(1.51662 0.371792 -1.79676e-20)
(1.42948 0.224345 -1.25181e-20)
(1.49902 0.172209 1.57546e-20)
(1.57108 0.185303 1.70759e-34)
(1.62742 0.23382 -7.85176e-21)
(1.68112 0.314364 -7.45398e-34)
(1.77016 0.416184 2.47834e-20)
(1.99719 0.629364 -1.02703e-19)
(1.81518 0.709887 -3.89742e-19)
(0.822304 0.206892 6.94804e-20)
(1.55044 0.291324 -1.64234e-34)
(1.49957 0.187175 1.16715e-20)
(1.58532 0.15238 4.58245e-21)
(1.6676 0.167134 -3.24794e-20)
(1.73949 0.212403 -5.5217e-20)
(1.81468 0.287407 -9.01791e-34)
(1.91979 0.376485 -1.11962e-19)
(2.19986 0.570255 -9.92774e-20)
(2.07495 0.679672 4.34927e-19)
(0.807012 0.11416 0)
(1.54991 0.202332 -2.78807e-34)
(1.52917 0.141728 0)
(1.62885 0.126867 0)
(1.71699 0.1409 0)
(1.80041 0.178264 0)
(1.88549 0.247548 -5.70658e-34)
(2.02234 0.306872 0)
(2.27865 0.504753 -3.13835e-20)
(2.29937 0.61726 2.5967e-19)
(0.796314 0.0268386 2.75893e-20)
(1.52938 0.107211 -1.45943e-20)
(1.52493 0.0882383 9.53589e-21)
(1.63333 0.0994811 0)
(1.72397 0.114169 0)
(1.8151 0.144915 7.74156e-21)
(1.90568 0.202826 4.59959e-20)
(2.07983 0.24678 -1.47368e-20)
(2.27633 0.413379 -4.08097e-20)
(2.47913 0.530447 2.55354e-19)
(0.788428 -0.0533198 3.94418e-20)
(1.48052 0.0135577 5.56303e-21)
(1.46534 0.0325481 8.39149e-21)
(1.5767 0.0702327 -2.74726e-20)
(1.6663 0.0840392 -1.48566e-20)
(1.7627 0.107725 -1.44841e-20)
(1.85515 0.150933 -3.71732e-20)
(2.05927 0.18653 -3.51993e-20)
(2.20136 0.307462 -8.22996e-20)
(2.55918 0.416821 4.0532e-21)
(0.768914 -0.11331 -3.5573e-20)
(1.36569 -0.0604616 -3.45779e-20)
(1.28882 -0.0156261 6.71223e-21)
(1.39303 0.0424192 -1.24303e-20)
(1.47389 0.0526877 9.32897e-35)
(1.56905 0.0683505 8.95232e-21)
(1.66013 0.0949192 -1.23572e-33)
(1.87862 0.125906 -1.52901e-20)
(1.98375 0.193341 2.02072e-20)
(2.44113 0.280496 3.67295e-20)
(0.718888 -0.157191 1.07973e-19)
(1.12515 -0.106431 -2.94489e-20)
(0.90732 -0.04418 5.30996e-21)
(1.0022 0.0210867 2.20347e-20)
(1.064 0.0236294 3.05328e-21)
(1.14253 0.0306585 1.75907e-20)
(1.22362 0.0404513 1.2706e-20)
(1.40771 0.0587484 -1.29126e-20)
(1.51352 0.0858932 -1.10074e-20)
(1.92712 0.130423 1.51378e-19)
(0.597017 -0.0682563 2.73025e-20)
(0.685698 -0.0456327 -1.41255e-34)
(0.312541 -0.0194553 2.80239e-21)
(0.411365 0.00657743 0)
(0.435555 0.00529986 0)
(0.477177 0.00670531 9.46835e-21)
(0.523506 0.00863651 -1.20759e-35)
(0.617239 0.0148083 -1.55193e-20)
(0.691985 0.0180187 -2.6806e-20)
(0.920968 0.0358878 -5.76894e-20)
(1.73781 0.777186 1.86657e-19)