/*--------------------------------*- C++ -*----------------------------------*\
| =========                 |                                                 |
| \\      /  F ield         | OpenFOAM: The Open Source CFD Toolbox           |
|  \\    /   O peration     | Version:  2406                                  |
|   \\  /    A nd           | Website:  www.openfoam.com                      |
|    \\/     M anipulation  |                                                 |
\*---------------------------------------------------------------------------*/
FoamFile
{
    version     2.0;
    format      ascii;
    arch        "LSB;label=32;scalar=64";
    class       volVectorField;
    location    "0.85";
    object      flux;
}
// * * * * * * * * * * * * * * * * * * * * * * * * * * * * * * * * * * * * * //

dimensions      [0 1 -1 1 0 0 0];

internalField   nonuniform List<vector> 
2500
(
(0.000397679 0.000397679 0)
(0.00118668 0.000398656 0)
(0.00195914 0.000400735 0)
(0.00270521 0.000403842 0)
(0.0034139 0.000408003 0)
(0.00407557 0.000413239 0)
(0.00468134 0.000419579 0)
(0.00522322 0.000427055 0)
(0.00569424 0.000435703 0)
(0.00608853 0.000445565 0)
(0.00640147 0.000456688 0)
(0.00662971 0.000469121 0)
(0.00677121 0.000482921 0)
(0.00682531 0.000498145 0)
(0.00679267 0.000514853 0)
(0.00667532 0.000533105 0)
(0.00647652 0.000552963 0)
(0.00620081 0.000574486 0)
(0.00585379 0.000597729 0)
(0.00544215 0.000622742 0)
(0.00497344 0.000649566 0)
(0.00445601 0.000678234 0)
(0.00389879 0.000708763 0)
(0.00331123 0.000741155 0)
(0.00270303 0.000775394 0)
(0.00208408 0.000811442 0)
(0.00146421 0.000849237 0)
(0.00085309 0.000888689 0)
(0.00026004 0.000929682 0)
(-0.000306097 0.000972066 0)
(-0.000837098 0.00101566 0)
(-0.00132548 0.00106026 0)
(-0.00176459 0.0011056 0)
(-0.00214873 0.00115142 0)
(-0.00247319 0.0011974 0)
(-0.00273434 0.00124321 0)
(-0.00292961 0.00128849 0)
(-0.00305758 0.00133286 0)
(-0.00311792 0.00137591 0)
(-0.00311139 0.00141725 0)
(-0.00303985 0.00145647 0)
(-0.00290612 0.00149316 0)
(-0.00271401 0.00152692 0)
(-0.00246821 0.0015574 0)
(-0.00217422 0.00158424 0)
(-0.00183824 0.00160715 0)
(-0.00146712 0.00162586 0)
(-0.00106823 0.00164014 0)
(-0.000649291 0.00164976 0)
(-0.000217894 0.00165405 0)
(0.000398656 0.00118668 0)
(0.00118974 0.00118974 0)
(0.00196433 0.00119598 0)
(0.00271248 0.00120533 0)
(0.00342329 0.00121786 0)
(0.00408715 0.00123363 0)
(0.00469516 0.00125271 0)
(0.00523935 0.00127522 0)
(0.00571275 0.00130126 0)
(0.00610952 0.00133096 0)
(0.00642503 0.00136445 0)
(0.00665594 0.0014019 0)
(0.00680023 0.00144346 0)
(0.00685724 0.00148932 0)
(0.00682763 0.00153966 0)
(0.00671343 0.00159465 0)
(0.00651791 0.0016545 0)
(0.00624557 0.00171937 0)
(0.00590205 0.00178943 0)
(0.00549399 0.00186485 0)
(0.00502894 0.00194574 0)
(0.0045152 0.00203221 0)
(0.00396171 0.0021243 0)
(0.00337786 0.00222203 0)
(0.00277332 0.00232535 0)
(0.00215792 0.00243416 0)
(0.00154146 0.00254825 0)
(0.000933536 0.00266737 0)
(0.000343418 0.00279116 0)
(-0.000220117 0.00291917 0)
(-0.000748909 0.00305087 0)
(-0.00123554 0.0031856 0)
(-0.00167343 0.00332262 0)
(-0.00205693 0.00346109 0)
(-0.0023814 0.00360009 0)
(-0.00264324 0.00373858 0)
(-0.00283996 0.00387549 0)
(-0.00297016 0.00400965 0)
(-0.00303352 0.00413986 0)
(-0.00303084 0.0042649 0)
(-0.00296394 0.00438353 0)
(-0.00283566 0.00449452 0)
(-0.00264976 0.00459669 0)
(-0.00241089 0.00468891 0)
(-0.00212447 0.00477013 0)
(-0.00179663 0.00483944 0)
(-0.00143412 0.00489604 0)
(-0.00104433 0.00493932 0)
(-0.000635382 0.00496874 0)
(-0.000213599 0.00498284 0)
(0.000400735 0.00195914 0)
(0.00119598 0.00196433 0)
(0.00197474 0.00197474 0)
(0.00272709 0.00199038 0)
(0.00344219 0.00201134 0)
(0.00411043 0.00203773 0)
(0.00472294 0.0020697 0)
(0.00527177 0.0021074 0)
(0.00574997 0.00215102 0)
(0.00615172 0.00220079 0)
(0.00647241 0.00225695 0)
(0.00670872 0.00231976 0)
(0.00685863 0.00238951 0)
(0.0069215 0.0024665 0)
(0.006898 0.00255104 0)
(0.00679016 0.00264346 0)
(0.00660124 0.00274406 0)
(0.00633574 0.00285317 0)
(0.00599928 0.00297108 0)
(0.00559846 0.00309804 0)
(0.0051408 0.00323429 0)
(0.00463457 0.00338 0)
(0.00408862 0.00353525 0)
(0.00351228 0.00370009 0)
(0.00291516 0.00387443 0)
(0.00230697 0.00405809 0)
(0.00169742 0.00425076 0)
(0.001096 0.004452 0)
(0.000511845 0.0046612 0)
(-4.6389e-05 0.00487763 0)
(-0.000570674 0.00510035 0)
(-0.00105372 0.00532829 0)
(-0.00148909 0.00556017 0)
(-0.00187126 0.00579459 0)
(-0.0021957 0.00602996 0)
(-0.00245893 0.00626455 0)
(-0.00265855 0.00649651 0)
(-0.00279321 0.00672387 0)
(-0.00286266 0.00694459 0)
(-0.00286773 0.00715659 0)
(-0.00281023 0.00735776 0)
(-0.00269296 0.00754602 0)
(-0.00251962 0.00771933 0)
(-0.00229476 0.00787579 0)
(-0.00202368 0.0080136 0)
(-0.00171233 0.00813118 0)
(-0.00136724 0.00822715 0)
(-0.000995537 0.00830041 0)
(-0.000605768 0.00835014 0)
(-0.000203787 0.00837499 0)
(0.000403842 0.00270521 0)
(0.00120533 0.00271248 0)
(0.00199038 0.00272709 0)
(0.00274908 0.00274908 0)
(0.00347065 0.00277857 0)
(0.0041455 0.00281573 0)
(0.00476482 0.00286074 0)
(0.00532067 0.00291386 0)
(0.00580614 0.00297537 0)
(0.00621545 0.00304559 0)
(0.006544 0.00312487 0)
(0.0067885 0.0032136 0)
(0.00694697 0.0033122 0)
(0.00701877 0.00342112 0)
(0.00700459 0.00354081 0)
(0.00690645 0.00367175 0)
(0.00672762 0.0038144 0)
(0.00647259 0.00396923 0)
(0.00614692 0.00413667 0)
(0.0057572 0.0043171 0)
(0.00531089 0.00451088 0)
(0.00481616 0.00471824 0)
(0.00428181 0.00493936 0)
(0.00371703 0.00517428 0)
(0.00313132 0.00542291 0)
(0.00253425 0.005685 0)
(0.00193537 0.00596012 0)
(0.00134398 0.00624763 0)
(0.000769049 0.00654671 0)
(0.00021903 0.00685627 0)
(-0.000298251 0.00717501 0)
(-0.000775715 0.00750138 0)
(-0.00120712 0.00783356 0)
(-0.00158714 0.00816952 0)
(-0.00191144 0.00850699 0)
(-0.0021767 0.00884348 0)
(-0.00238065 0.00917633 0)
(-0.00252207 0.0095027 0)
(-0.0026008 0.00981966 0)
(-0.00261767 0.0101242 0)
(-0.00257452 0.0104132 0)
(-0.00247409 0.0106838 0)
(-0.00231999 0.0109329 0)
(-0.00211662 0.0111579 0)
(-0.00186908 0.011356 0)
(-0.00158308 0.0115251 0)
(-0.00126489 0.011663 0)
(-0.000921333 0.0117681 0)
(-0.000560809 0.011839 0)
(-0.000188754 0.0118747 0)
(0.000408003 0.0034139 0)
(0.00121786 0.00342329 0)
(0.00201134 0.00344219 0)
(0.00277857 0.00347065 0)
(0.00350883 0.00350883 0)
(0.00419259 0.00355697 0)
(0.00482108 0.00361532 0)
(0.0053864 0.00368422 0)
(0.0058817 0.00376407 0)
(0.00630122 0.00385528 0)
(0.00664042 0.00395835 0)
(0.00689605 0.00407381 0)
(0.00706615 0.00420224 0)
(0.00715011 0.00434423 0)
(0.00714863 0.00450041 0)
(0.00706375 0.00467144 0)
(0.00689872 0.00485795 0)
(0.00665801 0.00506058 0)
(0.00634715 0.00527992 0)
(0.00597267 0.00551652 0)
(0.00554194 0.00577084 0)
(0.00506305 0.00604325 0)
(0.00454466 0.00633399 0)
(0.00399583 0.00664314 0)
(0.00342587 0.00697062 0)
(0.00284418 0.0073161 0)
(0.00226006 0.00767904 0)
(0.00168259 0.00805864 0)
(0.00112048 0.00845378 0)
(0.000581914 0.00886307 0)
(7.44286e-05 0.00928479 0)
(-0.000395178 0.00971687 0)
(-0.000820946 0.0101569 0)
(-0.00119783 0.0106023 0)
(-0.00152174 0.0110499 0)
(-0.0017896 0.0114964 0)
(-0.00199933 0.0119383 0)
(-0.00214988 0.0123718 0)
(-0.00224119 0.0127931 0)
(-0.00227416 0.0131979 0)
(-0.00225062 0.0135824 0)
(-0.00217325 0.0139423 0)
(-0.00204553 0.0142739 0)
(-0.00187166 0.0145733 0)
(-0.00165647 0.0148372 0)
(-0.00140537 0.0150623 0)
(-0.00112423 0.0152459 0)
(-0.000819499 0.0153857 0)
(-0.000499163 0.01548 0)
(-0.000168125 0.0155274 0)
(0.000413239 0.00407557 0)
(0.00123363 0.00408715 0)
(0.00203773 0.00411043 0)
(0.00281573 0.0041455 0)
(0.00355697 0.00419259 0)
(0.00425199 0.00425199 0)
(0.00489208 0.00432404 0)
(0.00546942 0.0044092 0)
(0.0059772 0.00450795 0)
(0.00640973 0.00462087 0)
(0.00676253 0.0047486 0)
(0.00703239 0.00489184 0)
(0.00721738 0.00505133 0)
(0.00731694 0.00522786 0)
(0.0073318 0.00542227 0)
(0.00726399 0.00563541 0)
(0.00711676 0.00586811 0)
(0.00689456 0.00612121 0)
(0.00660286 0.00639551 0)
(0.00624812 0.00669173 0)
(0.00583762 0.0070105 0)
(0.00537931 0.00735232 0)
(0.0048817 0.00771753 0)
(0.00435366 0.00810629 0)
(0.00380428 0.0085185 0)
(0.00324268 0.0089538 0)
(0.0026779 0.00941155 0)
(0.00211872 0.00989074 0)
(0.00157349 0.01039 0)
(0.00105004 0.0109076 0)
(0.000555544 0.0114413 0)
(9.64298e-05 0.0119886 0)
(-0.000321719 0.0125464 0)
(-0.000694216 0.0131114 0)
(-0.00101732 0.0136795 0)
(-0.00128824 0.0142467 0)
(-0.00150519 0.0148084 0)
(-0.00166732 0.0153598 0)
(-0.00177472 0.0158958 0)
(-0.00182838 0.0164112 0)
(-0.00183012 0.0169009 0)
(-0.00178255 0.0173596 0)
(-0.00168897 0.0177823 0)
(-0.00155334 0.0181641 0)
(-0.00138015 0.0185007 0)
(-0.00117438 0.0187878 0)
(-0.000941432 0.0190221 0)
(-0.00068719 0.0192005 0)
(-0.000419091 0.0193208 0)
(-0.000141332 0.0193812 0)
(0.000419579 0.00468134 0)
(0.00125271 0.00469516 0)
(0.0020697 0.00472294 0)
(0.00286074 0.00476482 0)
(0.00361532 0.00482108 0)
(0.00432404 0.00489208 0)
(0.00497829 0.00497829 0)
(0.00557031 0.00508026 0)
(0.00609337 0.00519862 0)
(0.00654187 0.00533413 0)
(0.00691139 0.00548757 0)
(0.00719877 0.00565985 0)
(0.00740217 0.00585192 0)
(0.00752105 0.00606481 0)
(0.00755618 0.00629955 0)
(0.00750958 0.00655725 0)
(0.00738453 0.006839 0)
(0.00718542 0.00714586 0)
(0.00691767 0.00747886 0)
(0.00658766 0.00783894 0)
(0.00620253 0.00822694 0)
(0.00577008 0.00864353 0)
(0.00529863 0.00908918 0)
(0.00479679 0.00956412 0)
(0.00427339 0.0100683 0)
(0.00373723 0.0106014 0)
(0.00319699 0.0111625 0)
(0.00266104 0.0117506 0)
(0.00213733 0.0123639 0)
(0.00163323 0.0130004 0)
(0.00115545 0.0136574 0)
(0.000709936 0.0143316 0)
(0.000301798 0.0150195 0)
(-6.47369e-05 0.0157167 0)
(-0.000386359 0.0164185 0)
(-0.000660688 0.0171196 0)
(-0.000886264 0.0178144 0)
(-0.00106252 0.0184969 0)
(-0.00118975 0.0191609 0)
(-0.00126905 0.0197997 0)
(-0.00130225 0.0204069 0)
(-0.00129187 0.0209761 0)
(-0.00124101 0.0215007 0)
(-0.00115329 0.0219749 0)
(-0.00103278 0.022393 0)
(-0.000883953 0.0227498 0)
(-0.000711566 0.0230409 0)
(-0.000520813 0.0232626 0)
(-0.000318406 0.0234121 0)
(-0.000107643 0.0234873 0)
(0.000427055 0.00522322 0)
(0.00127522 0.00523935 0)
(0.0021074 0.00527177 0)
(0.00291386 0.00532067 0)
(0.00368422 0.0053864 0)
(0.0044092 0.00546942 0)
(0.00508026 0.00557031 0)
(0.00568976 0.00568976 0)
(0.00623107 0.00582858 0)
(0.00669868 0.00598768 0)
(0.00708826 0.00616808 0)
(0.00739674 0.00637091 0)
(0.00762234 0.00659736 0)
(0.00776457 0.0068487 0)
(0.00782425 0.00712628 0)
(0.00780343 0.00743146 0)
(0.00770537 0.00776561 0)
(0.00753442 0.0081301 0)
(0.00729594 0.00852623 0)
(0.0069962 0.00895521 0)
(0.0066422 0.00941811 0)
(0.00624155 0.00991582 0)
(0.0058023 0.010449 0)
(0.0053328 0.011018 0)
(0.00484152 0.0116228 0)
(0.00433688 0.012263 0)
(0.00382712 0.0129379 0)
(0.00332012 0.0136459 0)
(0.0028233 0.0143852 0)
(0.00234347 0.0151533 0)
(0.00188678 0.015947 0)
(0.00145856 0.0167624 0)
(0.00106334 0.017595 0)
(0.000704762 0.0184398 0)
(0.000385596 0.0192909 0)
(0.000107719 0.020142 0)
(-0.000127844 0.0209861 0)
(-0.000320885 0.021816 0)
(-0.000471952 0.0226238 0)
(-0.000582288 0.0234016 0)
(-0.000653754 0.0241414 0)
(-0.000688748 0.0248352 0)
(-0.000690127 0.0254752 0)
(-0.000661132 0.0260538 0)
(-0.000605308 0.0265641 0)
(-0.00052645 0.0269998 0)
(-0.000428558 0.0273554 0)
(-0.000315946 0.0276263 0)
(-0.000194419 0.027809 0)
(-6.61567e-05 0.0279008 0)
(0.000435703 0.00569424 0)
(0.00130126 0.00571275 0)
(0.00215102 0.00574997 0)
(0.00297537 0.00580614 0)
(0.00376407 0.0058817 0)
(0.00450795 0.0059772 0)
(0.00519862 0.00609337 0)
(0.00582858 0.00623107 0)
(0.00639129 0.00639129 0)
(0.00688138 0.00657517 0)
(0.00729462 0.00678397 0)
(0.00762805 0.00701906 0)
(0.00787997 0.00728194 0)
(0.00804998 0.00757419 0)
(0.00813893 0.00789747 0)
(0.00814891 0.00825347 0)
(0.00808317 0.00864391 0)
(0.00794603 0.0090705 0)
(0.00774278 0.00953487 0)
(0.00747953 0.0100385 0)
(0.00716314 0.0105829 0)
(0.00680096 0.0111691 0)
(0.00640079 0.011798 0)
(0.0059706 0.0124702 0)
(0.00551846 0.0131856 0)
(0.00505231 0.0139441 0)
(0.00457986 0.0147446 0)
(0.00410841 0.0155856 0)
(0.00364472 0.0164648 0)
(0.00319495 0.0173794 0)
(0.00276451 0.0183256 0)
(0.00235801 0.0192988 0)
(0.00197925 0.0202937 0)
(0.00163117 0.0213041 0)
(0.00131584 0.0223232 0)
(0.00103452 0.0233432 0)
(0.000787685 0.0243558 0)
(0.000575104 0.0253521 0)
(0.000395893 0.0263228 0)
(0.000248613 0.0272582 0)
(0.000131361 0.0281485 0)
(4.18595e-05 0.028984 0)
(-2.24572e-05 0.029755 0)
(-6.43609e-05 0.0304526 0)
(-8.67595e-05 0.0310681 0)
(-9.26428e-05 0.0315938 0)
(-8.50582e-05 0.032023 0)
(-6.7243e-05 0.03235 0)
(-4.38867e-05 0.0325706 0)
(-1.57854e-05 0.0326815 0)
(0.000445565 0.00608853 0)
(0.00133096 0.00610952 0)
(0.00220079 0.00615172 0)
(0.00304559 0.00621545 0)
(0.00385528 0.00630122 0)
(0.00462087 0.00640973 0)
(0.00533413 0.00654187 0)
(0.00598768 0.00669868 0)
(0.00657517 0.00688138 0)
(0.00709135 0.00709135 0)
(0.00753215 0.00733014 0)
(0.00789471 0.00759944 0)
(0.00817747 0.00790107 0)
(0.0083801 0.00823698 0)
(0.00850353 0.00860918 0)
(0.00854988 0.00901979 0)
(0.0085224 0.0094709 0)
(0.00842537 0.00996464 0)
(0.00826399 0.010503 0)
(0.00804425 0.011088 0)
(0.00777277 0.0117213 0)
(0.00745666 0.0124043 0)
(0.00710335 0.0131383 0)
(0.00672043 0.013924 0)
(0.00631547 0.0147617 0)
(0.00589584 0.0156509 0)
(0.00546861 0.0165909 0)
(0.00504037 0.0175797 0)
(0.00461712 0.018615 0)
(0.00420419 0.0196932 0)
(0.00380612 0.0208101 0)
(0.00342666 0.0219604 0)
(0.00306868 0.0231378 0)
(0.00273427 0.0243349 0)
(0.00242465 0.0255435 0)
(0.00214032 0.0267546 0)
(0.00188108 0.0279581 0)
(0.00164612 0.0291434 0)
(0.00143413 0.0302993 0)
(0.00124343 0.031414 0)
(0.00107203 0.0324759 0)
(0.000917797 0.0334731 0)
(0.000778496 0.0343941 0)
(0.000651912 0.0352277 0)
(0.000535906 0.0359636 0)
(0.000428461 0.0365925 0)
(0.000327688 0.0371061 0)
(0.000231662 0.0374976 0)
(0.000137058 0.0377616 0)
(4.47669e-05 0.0378944 0)
(0.000456688 0.00640147 0)
(0.00136445 0.00642503 0)
(0.00225695 0.00647241 0)
(0.00312487 0.006544 0)
(0.00395835 0.00664042 0)
(0.0047486 0.00676253 0)
(0.00548757 0.00691139 0)
(0.00616808 0.00708826 0)
(0.00678397 0.00729462 0)
(0.00733014 0.00753215 0)
(0.00780271 0.00780271 0)
(0.00819898 0.00810836 0)
(0.0085175 0.0084513 0)
(0.00875809 0.0088339 0)
(0.00892174 0.00925862 0)
(0.00901063 0.00972801 0)
(0.00902803 0.0102447 0)
(0.00897816 0.0108112 0)
(0.00886614 0.01143 0)
(0.00869778 0.0121036 0)
(0.00847948 0.0128342 0)
(0.00821803 0.0136235 0)
(0.00792049 0.0144731 0)
(0.00759393 0.015384 0)
(0.00724536 0.0163567 0)
(0.00688149 0.017391 0)
(0.00650862 0.0184859 0)
(0.00613251 0.0196395 0)
(0.00575824 0.020849 0)
(0.00539013 0.0221105 0)
(0.00503171 0.0234191 0)
(0.00468563 0.0247685 0)
(0.00435372 0.0261514 0)
(0.00403696 0.0275594 0)
(0.00373557 0.0289826 0)
(0.0034491 0.0304103 0)
(0.00317649 0.0318307 0)
(0.00291625 0.033231 0)
(0.00266652 0.0345979 0)
(0.00242529 0.0359174 0)
(0.00219045 0.0371755 0)
(0.00196001 0.0383578 0)
(0.00173211 0.0394505 0)
(0.0015052 0.0404403 0)
(0.00127805 0.0413146 0)
(0.00104981 0.042062 0)
(0.000820003 0.0426727 0)
(0.000588278 0.0431383 0)
(0.000352976 0.0434524 0)
(0.000117029 0.0436104 0)
(0.000469121 0.00662971 0)
(0.0014019 0.00665594 0)
(0.00231976 0.00670872 0)
(0.0032136 0.0067885 0)
(0.00407381 0.00689605 0)
(0.00489184 0.00703239 0)
(0.00565985 0.00719877 0)
(0.00637091 0.00739674 0)
(0.00701906 0.00762805 0)
(0.00759944 0.00789471 0)
(0.00810836 0.00819898 0)
(0.0085433 0.0085433 0)
(0.00890301 0.00893035 0)
(0.00918742 0.00936296 0)
(0.00939764 0.00984411 0)
(0.00953593 0.0103769 0)
(0.00960557 0.0109644 0)
(0.00961074 0.0116099 0)
(0.00955646 0.0123163 0)
(0.00944836 0.0130866 0)
(0.00929259 0.0139235 0)
(0.00909557 0.0148295 0)
(0.00886389 0.0158063 0)
(0.00860409 0.0168554 0)
(0.00832248 0.0179776 0)
(0.00802501 0.0191728 0)
(0.00771709 0.0204401 0)
(0.00740346 0.0217774 0)
(0.00708814 0.0231816 0)
(0.00677425 0.0246484 0)
(0.00646409 0.0261722 0)
(0.00615903 0.0277457 0)
(0.00585958 0.0293606 0)
(0.00556544 0.0310068 0)
(0.00527558 0.0326731 0)
(0.00498838 0.0343467 0)
(0.00470176 0.0360137 0)
(0.00441333 0.037659 0)
(0.00412058 0.0392667 0)
(0.00382102 0.0408204 0)
(0.00351242 0.042303 0)
(0.00319286 0.0436976 0)
(0.00286097 0.0449876 0)
(0.00251593 0.0461568 0)
(0.00215762 0.0471902 0)
(0.00178657 0.0480742 0)
(0.00140397 0.0487968 0)
(0.0010114 0.0493479 0)
(0.000609211 0.0497198 0)
(0.000202794 0.0499069 0)
(0.000482921 0.00677121 0)
(0.00144346 0.00680023 0)
(0.00238951 0.00685863 0)
(0.0033122 0.00694697 0)
(0.00420224 0.00706615 0)
(0.00505133 0.00721738 0)
(0.00585192 0.00740217 0)
(0.00659736 0.00762234 0)
(0.00728194 0.00787997 0)
(0.00790107 0.00817747 0)
(0.0084513 0.0085175 0)
(0.00893035 0.00890301 0)
(0.00933716 0.00933716 0)
(0.00967184 0.00982335 0)
(0.00993566 0.0103651 0)
(0.0101309 0.0109662 0)
(0.010261 0.0116304 0)
(0.01033 0.0123615 0)
(0.0103429 0.0131631 0)
(0.010305 0.014039 0)
(0.0102223 0.0149923 0)
(0.0101008 0.0160262 0)
(0.00994646 0.017143 0)
(0.00976527 0.0183446 0)
(0.00956274 0.0196321 0)
(0.00934391 0.0210057 0)
(0.00911315 0.0224645 0)
(0.00887405 0.0240066 0)
(0.00862931 0.0256284 0)
(0.00838069 0.0273252 0)
(0.008129 0.0290905 0)
(0.00787407 0.0309162 0)
(0.00761485 0.0327927 0)
(0.00734948 0.0347083 0)
(0.00707542 0.0366499 0)
(0.00678964 0.0386026 0)
(0.00648877 0.0405501 0)
(0.00616932 0.0424747 0)
(0.00582793 0.0443575 0)
(0.00546156 0.0461789 0)
(0.00506771 0.0479188 0)
(0.00464458 0.0495571 0)
(0.00419126 0.0510736 0)
(0.00370786 0.0524493 0)
(0.00319549 0.0536661 0)
(0.00265636 0.0547075 0)
(0.00209367 0.0555592 0)
(0.00151129 0.056209 0)
(0.000911995 0.0566476 0)
(0.000304152 0.0568684 0)
(0.000498145 0.00682531 0)
(0.00148932 0.00685724 0)
(0.0024665 0.0069215 0)
(0.00342112 0.00701877 0)
(0.00434423 0.00715011 0)
(0.00522786 0.00731694 0)
(0.00606481 0.00752105 0)
(0.0068487 0.00776457 0)
(0.00757419 0.00804998 0)
(0.00823698 0.0083801 0)
(0.0088339 0.00875809 0)
(0.00936296 0.00918742 0)
(0.00982335 0.00967184 0)
(0.0102154 0.0102154 0)
(0.0105405 0.0108223 0)
(0.0108012 0.011497 0)
(0.0110008 0.0122439 0)
(0.0111435 0.0130677 0)
(0.011234 0.0139729 0)
(0.0112776 0.0149637 0)
(0.0112798 0.0160443 0)
(0.0112462 0.0172183 0)
(0.0111823 0.0184889 0)
(0.0110932 0.0198584 0)
(0.0109836 0.0213285 0)
(0.0108575 0.0228997 0)
(0.010718 0.0245713 0)
(0.0105673 0.0263412 0)
(0.0104067 0.0282058 0)
(0.0102363 0.0301598 0)
(0.0100552 0.032196 0)
(0.00986125 0.0343053 0)
(0.00965166 0.0364766 0)
(0.00942266 0.0386965 0)
(0.00916989 0.0409498 0)
(0.00888858 0.0432192 0)
(0.00857378 0.0454857 0)
(0.00822068 0.0477284 0)
(0.00782481 0.0499252 0)
(0.0073824 0.0520529 0)
(0.00689059 0.0540877 0)
(0.00634766 0.0560056 0)
(0.00575323 0.0577826 0)
(0.00510841 0.059396 0)
(0.00441583 0.0608241 0)
(0.00367964 0.0620471 0)
(0.00290544 0.0630478 0)
(0.00209985 0.0638117 0)
(0.00126857 0.0643274 0)
(0.000423533 0.064587 0)
(0.000514853 0.00679267 0)
(0.00153966 0.00682763 0)
(0.00255104 0.006898 0)
(0.00354081 0.00700459 0)
(0.00450041 0.00714863 0)
(0.00542227 0.0073318 0)
(0.00629955 0.00755618 0)
(0.00712628 0.00782425 0)
(0.00789747 0.00813893 0)
(0.00860918 0.00850353 0)
(0.00925862 0.00892174 0)
(0.00984411 0.00939764 0)
(0.0103651 0.00993566 0)
(0.0108223 0.0105405 0)
(0.0112172 0.0112172 0)
(0.0115526 0.011971 0)
(0.0118318 0.0128073 0)
(0.012059 0.0137314 0)
(0.0122389 0.0147487 0)
(0.0123765 0.0158646 0)
(0.0124769 0.0170839 0)
(0.0125454 0.0184112 0)
(0.0125866 0.0198503 0)
(0.0126049 0.0214045 0)
(0.012604 0.0230758 0)
(0.0125867 0.0248653 0)
(0.0125546 0.0267726 0)
(0.0125086 0.0287957 0)
(0.0124479 0.0309307 0)
(0.0123709 0.033172 0)
(0.0122745 0.0355116 0)
(0.0121546 0.0379391 0)
(0.012006 0.040442 0)
(0.0118227 0.0430052 0)
(0.0115982 0.045611 0)
(0.0113255 0.0482394 0)
(0.0109979 0.0508683 0)
(0.0106089 0.0534733 0)
(0.0101525 0.0560284 0)
(0.00962411 0.0585064 0)
(0.00902033 0.060879 0)
(0.00833947 0.0631177 0)
(0.0075817 0.0651942 0)
(0.00674929 0.0670812 0)
(0.0058466 0.0687528 0)
(0.0048801 0.0701854 0)
(0.00385823 0.0713583 0)
(0.0027909 0.072254 0)
(0.00168736 0.0728589 0)
(0.000563762 0.0731635 0)
(0.000533105 0.00667532 0)
(0.00159465 0.00671343 0)
(0.00264346 0.00679016 0)
(0.00367175 0.00690645 0)
(0.00467144 0.00706375 0)
(0.00563541 0.00726399 0)
(0.00655725 0.00750958 0)
(0.00743146 0.00780343 0)
(0.00825347 0.00814891 0)
(0.00901979 0.00854988 0)
(0.00972801 0.00901063 0)
(0.0103769 0.00953593 0)
(0.0109662 0.0101309 0)
(0.011497 0.0108012 0)
(0.011971 0.0115526 0)
(0.0123912 0.0123912 0)
(0.0127611 0.0133235 0)
(0.0130849 0.0143558 0)
(0.0133672 0.0154945 0)
(0.0136127 0.0167459 0)
(0.0138264 0.018116 0)
(0.0140126 0.0196104 0)
(0.0141756 0.0212339 0)
(0.0143187 0.0229904 0)
(0.0144444 0.024883 0)
(0.0145542 0.0269131 0)
(0.0146483 0.0290809 0)
(0.0147254 0.0313845 0)
(0.0147831 0.0338201 0)
(0.0148171 0.0363815 0)
(0.0148223 0.0390599 0)
(0.0147917 0.041844 0)
(0.0147177 0.0447195 0)
(0.0145916 0.0476693 0)
(0.0144041 0.0506731 0)
(0.0141459 0.0537079 0)
(0.0138076 0.0567481 0)
(0.0133808 0.0597652 0)
(0.0128579 0.0627289 0)
(0.012233 0.0656071 0)
(0.0115019 0.0683665 0)
(0.0106629 0.0709733 0)
(0.00971672 0.073394 0)
(0.00866699 0.0755959 0)
(0.00752006 0.0775483 0)
(0.00628512 0.0792228 0)
(0.00497397 0.0805945 0)
(0.00360048 0.0816426 0)
(0.00217811 0.0823508 0)
(0.000728113 0.0827074 0)
(0.000552963 0.00647652 0)
(0.0016545 0.00651791 0)
(0.00274406 0.00660124 0)
(0.0038144 0.00672762 0)
(0.00485795 0.00689872 0)
(0.00586811 0.00711676 0)
(0.006839 0.00738453 0)
(0.00776561 0.00770537 0)
(0.00864391 0.00808317 0)
(0.0094709 0.0085224 0)
(0.0102447 0.00902803 0)
(0.0109644 0.00960557 0)
(0.0116304 0.010261 0)
(0.0122439 0.0110008 0)
(0.0128073 0.0118318 0)
(0.0133235 0.0127611 0)
(0.0137963 0.0137963 0)
(0.01423 0.0149448 0)
(0.014629 0.0162143 0)
(0.014998 0.0176123 0)
(0.0153414 0.0191459 0)
(0.0156632 0.0208218 0)
(0.0159666 0.0226461 0)
(0.016254 0.0246238 0)
(0.0165267 0.0267587 0)
(0.0167846 0.0290533 0)
(0.017026 0.0315082 0)
(0.0172478 0.0341218 0)
(0.0174449 0.0368904 0)
(0.0176107 0.0398075 0)
(0.0177371 0.0428636 0)
(0.0178142 0.0460462 0)
(0.0178312 0.0493393 0)
(0.0177762 0.0527236 0)
(0.0176368 0.0561761 0)
(0.0174005 0.0596703 0)
(0.0170552 0.0631765 0)
(0.0165897 0.0666619 0)
(0.0159944 0.070091 0)
(0.0152617 0.0734262 0)
(0.0143865 0.0766282 0)
(0.013367 0.0796572 0)
(0.0122043 0.0824733 0)
(0.0109036 0.0850378 0)
(0.00947348 0.0873138 0)
(0.00792638 0.0892676 0)
(0.00627809 0.0908692 0)
(0.00454715 0.0920936 0)
(0.00275213 0.0929212 0)
(0.000920389 0.0933381 0)
(0.000574486 0.00620081 0)
(0.00171937 0.00624557 0)
(0.00285317 0.00633574 0)
(0.00396923 0.00647259 0)
(0.00506058 0.00665801 0)
(0.00612121 0.00689456 0)
(0.00714586 0.00718542 0)
(0.0081301 0.00753442 0)
(0.0090705 0.00794603 0)
(0.00996464 0.00842537 0)
(0.0108112 0.00897816 0)
(0.0116099 0.00961074 0)
(0.0123615 0.01033 0)
(0.0130677 0.0111435 0)
(0.0137314 0.012059 0)
(0.0143558 0.0130849 0)
(0.0149448 0.01423 0)
(0.015503 0.015503 0)
(0.0160347 0.0169129 0)
(0.0165443 0.0184686 0)
(0.0170359 0.0201786 0)
(0.0175128 0.0220511 0)
(0.0179775 0.0240933 0)
(0.0184313 0.0263117 0)
(0.018874 0.0287113 0)
(0.0193037 0.0312954 0)
(0.0197168 0.0340654 0)
(0.0201077 0.0370205 0)
(0.0204687 0.040157 0)
(0.0207904 0.0434682 0)
(0.021061 0.0469441 0)
(0.0212675 0.0505709 0)
(0.0213951 0.0543311 0)
(0.0214283 0.0582027 0)
(0.0213508 0.0621599 0)
(0.0211463 0.0661724 0)
(0.0207993 0.0702061 0)
(0.0202954 0.0742229 0)
(0.0196222 0.0781816 0)
(0.0187702 0.0820381 0)
(0.0177329 0.0857464 0)
(0.016508 0.0892594 0)
(0.0150973 0.0925298 0)
(0.0135075 0.0955115 0)
(0.0117498 0.0981607 0)
(0.00984051 0.100437 0)
(0.0078 0.102304 0)
(0.00565247 0.103733 0)
(0.00342258 0.104699 0)
(0.00114501 0.105185 0)
(0.000597729 0.00585379 0)
(0.00178943 0.00590205 0)
(0.00297108 0.00599928 0)
(0.00413667 0.00614692 0)
(0.00527992 0.00634715 0)
(0.00639551 0.00660286 0)
(0.00747886 0.00691767 0)
(0.00852623 0.00729594 0)
(0.00953487 0.00774278 0)
(0.010503 0.00826399 0)
(0.01143 0.00886614 0)
(0.0123163 0.00955646 0)
(0.0131631 0.0103429 0)
(0.0139729 0.011234 0)
(0.0147487 0.0122389 0)
(0.0154945 0.0133672 0)
(0.0162143 0.014629 0)
(0.0169129 0.0160347 0)
(0.0175946 0.0175946 0)
(0.0182637 0.0193193 0)
(0.0189239 0.0212189 0)
(0.0195779 0.0233032 0)
(0.0202272 0.025581 0)
(0.020872 0.0280603 0)
(0.0215104 0.0307476 0)
(0.0221388 0.0336474 0)
(0.0227512 0.0367622 0)
(0.0233393 0.040092 0)
(0.0238926 0.0436334 0)
(0.0243978 0.0473799 0)
(0.0248398 0.0513209 0)
(0.0252012 0.0554416 0)
(0.025463 0.0597226 0)
(0.025605 0.0641396 0)
(0.0256065 0.0686634 0)
(0.0254467 0.0732596 0)
(0.0251057 0.0778892 0)
(0.0245652 0.0825083 0)
(0.0238096 0.087069 0)
(0.0228265 0.0915199 0)
(0.0216078 0.0958068 0)
(0.0201503 0.0998744 0)
(0.0184565 0.103667 0)
(0.0165345 0.107129 0)
(0.0143989 0.110208 0)
(0.01207 0.112857 0)
(0.0095739 0.115032 0)
(0.00694148 0.116697 0)
(0.00420475 0.117823 0)
(0.00140711 0.11839 0)
(0.000622742 0.00544215 0)
(0.00186485 0.00549399 0)
(0.00309804 0.00559846 0)
(0.0043171 0.0057572 0)
(0.00551652 0.00597267 0)
(0.00669173 0.00624812 0)
(0.00783894 0.00658766 0)
(0.00895521 0.0069962 0)
(0.0100385 0.00747953 0)
(0.011088 0.00804425 0)
(0.0121036 0.00869778 0)
(0.0130866 0.00944836 0)
(0.014039 0.010305 0)
(0.0149637 0.0112776 0)
(0.0158646 0.0123765 0)
(0.0167459 0.0136127 0)
(0.0176123 0.014998 0)
(0.0184686 0.0165443 0)
(0.0193193 0.0182637 0)
(0.0201686 0.0201686 0)
(0.0210198 0.0222709 0)
(0.0218749 0.0245823 0)
(0.0227347 0.0271135 0)
(0.0235979 0.0298743 0)
(0.024461 0.0328729 0)
(0.0253183 0.0361155 0)
(0.0261614 0.0396059 0)
(0.0269789 0.0433451 0)
(0.0277567 0.0473307 0)
(0.0284779 0.0515562 0)
(0.0291227 0.0560109 0)
(0.0296691 0.0606789 0)
(0.0300931 0.0655391 0)
(0.0303691 0.0705648 0)
(0.0304709 0.0757232 0)
(0.0303722 0.0809757 0)
(0.030048 0.0862774 0)
(0.0294752 0.0915782 0)
(0.0286337 0.0968224 0)
(0.027508 0.10195 0)
(0.0260875 0.106898 0)
(0.0243678 0.111601 0)
(0.0223517 0.115993 0)
(0.0200492 0.120008 0)
(0.0174781 0.123585 0)
(0.014664 0.126664 0)
(0.0116395 0.129195 0)
(0.00844336 0.131133 0)
(0.00511647 0.132445 0)
(0.00171269 0.133107 0)
(0.000649566 0.00497344 0)
(0.00194574 0.00502894 0)
(0.00323429 0.0051408 0)
(0.00451088 0.00531089 0)
(0.00577084 0.00554194 0)
(0.0070105 0.00583762 0)
(0.00822694 0.00620253 0)
(0.00941811 0.0066422 0)
(0.0105829 0.00716314 0)
(0.0117213 0.00777277 0)
(0.0128342 0.00847948 0)
(0.0139235 0.00929259 0)
(0.0149923 0.0102223 0)
(0.0160443 0.0112798 0)
(0.0170839 0.0124769 0)
(0.018116 0.0138264 0)
(0.0191459 0.0153414 0)
(0.0201786 0.0170359 0)
(0.0212189 0.0189239 0)
(0.0222709 0.0210198 0)
(0.0233376 0.0233376 0)
(0.0244205 0.0258912 0)
(0.0255193 0.0286935 0)
(0.0266313 0.0317564 0)
(0.0277515 0.0350903 0)
(0.0288718 0.0387032 0)
(0.0299808 0.0426009 0)
(0.0310641 0.0467857 0)
(0.0321037 0.0512564 0)
(0.033078 0.056007 0)
(0.0339624 0.0610268 0)
(0.0347294 0.0662993 0)
(0.0353489 0.0718018 0)
(0.0357892 0.0775051 0)
(0.0360174 0.0833728 0)
(0.0360009 0.0893613 0)
(0.0357082 0.09542 0)
(0.0351102 0.101491 0)
(0.0341817 0.107511 0)
(0.0329025 0.113409 0)
(0.031259 0.119113 0)
(0.0292451 0.124544 0)
(0.0268634 0.129624 0)
(0.024126 0.134277 0)
(0.0210544 0.138426 0)
(0.01768 0.142004 0)
(0.0140432 0.144947 0)
(0.0101922 0.147203 0)
(0.00617857 0.148731 0)
(0.00206877 0.149502 0)
(0.000678234 0.00445601 0)
(0.00203221 0.0045152 0)
(0.00338 0.00463457 0)
(0.00471824 0.00481616 0)
(0.00604325 0.00506305 0)
(0.00735232 0.00537931 0)
(0.00864353 0.00577008 0)
(0.00991582 0.00624155 0)
(0.0111691 0.00680096 0)
(0.0124043 0.00745666 0)
(0.0136235 0.00821803 0)
(0.0148295 0.00909557 0)
(0.0160262 0.0101008 0)
(0.0172183 0.0112462 0)
(0.0184112 0.0125454 0)
(0.0196104 0.0140126 0)
(0.0208218 0.0156632 0)
(0.0220511 0.0175128 0)
(0.0233032 0.0195779 0)
(0.0245823 0.0218749 0)
(0.0258912 0.0244205 0)
(0.0272308 0.0272308 0)
(0.0286 0.0303215 0)
(0.0299946 0.0337068 0)
(0.0314078 0.0373997 0)
(0.032829 0.0414108 0)
(0.0342439 0.0457478 0)
(0.0356343 0.0504152 0)
(0.0369779 0.0554132 0)
(0.0382483 0.060737 0)
(0.039415 0.0663763 0)
(0.0404442 0.0723142 0)
(0.0412989 0.0785267 0)
(0.04194 0.084982 0)
(0.042327 0.0916403 0)
(0.0424194 0.0984528 0)
(0.0421779 0.105362 0)
(0.041566 0.112303 0)
(0.0405519 0.119201 0)
(0.0391098 0.125977 0)
(0.0372218 0.132542 0)
(0.0348793 0.138807 0)
(0.0320846 0.14468 0)
(0.0288513 0.150067 0)
(0.0252053 0.154879 0)
(0.0211848 0.159034 0)
(0.0168391 0.162456 0)
(0.0122279 0.165082 0)
(0.00741554 0.166861 0)
(0.00248358 0.167759 0)
(0.000708763 0.00389879 0)
(0.0021243 0.00396171 0)
(0.00353525 0.00408862 0)
(0.00493936 0.00428181 0)
(0.00633399 0.00454466 0)
(0.00771753 0.0048817 0)
(0.00908918 0.00529863 0)
(0.010449 0.0058023 0)
(0.011798 0.00640079 0)
(0.0131383 0.00710335 0)
(0.0144731 0.00792049 0)
(0.0158063 0.00886389 0)
(0.017143 0.00994646 0)
(0.0184889 0.0111823 0)
(0.0198503 0.0125866 0)
(0.0212339 0.0141756 0)
(0.0226461 0.0159666 0)
(0.0240933 0.0179775 0)
(0.025581 0.0202272 0)
(0.0271135 0.0227347 0)
(0.0286935 0.0255193 0)
(0.0303215 0.0286 0)
(0.0319953 0.0319953 0)
(0.0337096 0.0357226 0)
(0.0354554 0.0397977 0)
(0.0372198 0.0442342 0)
(0.0389853 0.0490426 0)
(0.0407295 0.05423 0)
(0.0424255 0.0597985 0)
(0.0440411 0.0657453 0)
(0.0455396 0.0720607 0)
(0.0468798 0.0787281 0)
(0.0480168 0.0857226 0)
(0.0489028 0.0930102 0)
(0.0494881 0.100547 0)
(0.0497229 0.10828 0)
(0.0495585 0.116144 0)
(0.0489494 0.124065 0)
(0.0478553 0.131959 0)
(0.0462432 0.139731 0)
(0.0440896 0.147281 0)
(0.0413824 0.154502 0)
(0.0381226 0.161285 0)
(0.0343255 0.167519 0)
(0.0300216 0.173099 0)
(0.0252566 0.177923 0)
(0.020091 0.181902 0)
(0.0145975 0.184958 0)
(0.00885619 0.187031 0)
(0.00296685 0.188077 0)
(0.000741155 0.00331123 0)
(0.00222203 0.00337786 0)
(0.00370009 0.00351228 0)
(0.00517428 0.00371703 0)
(0.00664314 0.00399583 0)
(0.00810629 0.00435366 0)
(0.00956412 0.00479679 0)
(0.011018 0.0053328 0)
(0.0124702 0.0059706 0)