/*--------------------------------*- C++ -*----------------------------------*\
| =========                 |                                                 |
| \\      /  F ield         | OpenFOAM: The Open Source CFD Toolbox           |
|  \\    /   O peration     | Version:  2406                                  |
|   \\  /    A nd           | Website:  www.openfoam.com                      |
|    \\/     M anipulation  |                                                 |
\*---------------------------------------------------------------------------*/
FoamFile
{
    version     2.0;
    format      ascii;
    arch        "LSB;label=32;scalar=64";
    class       volScalarField;
    location    "0.85";
    object      gradTx;
}
// * * * * * * * * * * * * * * * * * * * * * * * * * * * * * * * * * * * * * //

dimensions      [0 -1 0 1 0 0 0];

internalField   nonuniform List<scalar> 
2500
(
0.00397679
0.0118668
0.0195914
0.0270521
0.034139
0.0407557
0.0468134
0.0522322
0.0569424
0.0608853
0.0640147
0.0662971
0.0677121
0.0682531
0.0679267
0.0667532
0.0647652
0.0620081
0.0585379
0.0544215
0.0497344
0.0445601
0.0389879
0.0331123
0.0270303
0.0208408
0.0146421
0.0085309
0.0026004
-0.00306097
-0.00837098
-0.0132548
-0.0176459
-0.0214873
-0.0247319
-0.0273434
-0.0292961
-0.0305758
-0.0311792
-0.0311139
-0.0303985
-0.0290612
-0.0271401
-0.0246821
-0.0217422
-0.0183824
-0.0146712
-0.0106823
-0.00649291
-0.00217894
0.00398656
0.0118974
0.0196433
0.0271248
0.0342329
0.0408715
0.0469516
0.0523935
0.0571275
0.0610952
0.0642503
0.0665594
0.0680023
0.0685724
0.0682763
0.0671343
0.0651791
0.0624557
0.0590205
0.0549399
0.0502894
0.045152
0.0396171
0.0337786
0.0277332
0.0215792
0.0154146
0.00933536
0.00343418
-0.00220117
-0.00748909
-0.0123554
-0.0167343
-0.0205693
-0.023814
-0.0264324
-0.0283996
-0.0297016
-0.0303352
-0.0303084
-0.0296394
-0.0283566
-0.0264976
-0.0241089
-0.0212447
-0.0179663
-0.0143412
-0.0104433
-0.00635382
-0.00213599
0.00400735
0.0119598
0.0197474
0.0272709
0.0344219
0.0411043
0.0472294
0.0527177
0.0574997
0.0615172
0.0647241
0.0670872
0.0685863
0.069215
0.06898
0.0679016
0.0660124
0.0633574
0.0599928
0.0559846
0.051408
0.0463457
0.0408862
0.0351228
0.0291516
0.0230697
0.0169742
0.01096
0.00511845
-0.00046389
-0.00570674
-0.0105372
-0.0148909
-0.0187126
-0.021957
-0.0245893
-0.0265855
-0.0279321
-0.0286266
-0.0286773
-0.0281023
-0.0269296
-0.0251962
-0.0229476
-0.0202368
-0.0171233
-0.0136724
-0.00995537
-0.00605768
-0.00203787
0.00403842
0.0120533
0.0199038
0.0274908
0.0347065
0.041455
0.0476482
0.0532067
0.0580614
0.0621545
0.06544
0.067885
0.0694697
0.0701877
0.0700459
0.0690645
0.0672762
0.0647259
0.0614692
0.057572
0.0531089
0.0481616
0.0428181
0.0371703
0.0313132
0.0253425
0.0193537
0.0134398
0.00769049
0.0021903
-0.00298251
-0.00775715
-0.0120712
-0.0158714
-0.0191144
-0.021767
-0.0238065
-0.0252207
-0.026008
-0.0261767
-0.0257452
-0.0247409
-0.0231999
-0.0211662
-0.0186908
-0.0158308
-0.0126489
-0.00921333
-0.00560809
-0.00188754
0.00408003
0.0121786
0.0201134
0.0277857
0.0350883
0.0419259
0.0482108
0.053864
0.058817
0.0630122
0.0664042
0.0689605
0.0706615
0.0715011
0.0714863
0.0706375
0.0689872
0.0665801
0.0634715
0.0597267
0.0554194
0.0506305
0.0454466
0.0399583
0.0342587
0.0284418
0.0226006
0.0168259
0.0112048
0.00581914
0.000744286
-0.00395178
-0.00820946
-0.0119783
-0.0152174
-0.017896
-0.0199933
-0.0214988
-0.0224119
-0.0227416
-0.0225062
-0.0217325
-0.0204553
-0.0187166
-0.0165647
-0.0140537
-0.0112423
-0.00819499
-0.00499163
-0.00168125
0.00413239
0.0123363
0.0203773
0.0281573
0.0355697
0.0425199
0.0489208
0.0546942
0.059772
0.0640973
0.0676253
0.0703239
0.0721738
0.0731694
0.073318
0.0726399
0.0711676
0.0689456
0.0660286
0.0624812
0.0583762
0.0537931
0.048817
0.0435366
0.0380428
0.0324268
0.026779
0.0211872
0.0157349
0.0105004
0.00555544
0.000964298
-0.00321719
-0.00694216
-0.0101732
-0.0128824
-0.0150519
-0.0166732
-0.0177472
-0.0182838
-0.0183012
-0.0178255
-0.0168897
-0.0155334
-0.0138015
-0.0117438
-0.00941432
-0.0068719
-0.00419091
-0.00141332
0.00419579
0.0125271
0.020697
0.0286074
0.0361532
0.0432404
0.0497829
0.0557031
0.0609337
0.0654187
0.0691139
0.0719877
0.0740217
0.0752105
0.0755618
0.0750958
0.0738453
0.0718542
0.0691767
0.0658766
0.0620253
0.0577008
0.0529863
0.0479679
0.0427339
0.0373723
0.0319699
0.0266104
0.0213733
0.0163323
0.0115545
0.00709936
0.00301798
-0.000647369
-0.00386359
-0.00660688
-0.00886264
-0.0106252
-0.0118975
-0.0126905
-0.0130225
-0.0129187
-0.0124101
-0.0115329
-0.0103278
-0.00883953
-0.00711566
-0.00520813
-0.00318406
-0.00107643
0.00427055
0.0127522
0.021074
0.0291386
0.0368422
0.044092
0.0508026
0.0568976
0.0623107
0.0669868
0.0708826
0.0739674
0.0762234
0.0776457
0.0782425
0.0780343
0.0770537
0.0753442
0.0729594
0.069962
0.066422
0.0624155
0.058023
0.053328
0.0484152
0.0433688
0.0382712
0.0332012
0.028233
0.0234347
0.0188678
0.0145856
0.0106334
0.00704762
0.00385596
0.00107719
-0.00127844
-0.00320885
-0.00471952
-0.00582288
-0.00653754
-0.00688748
-0.00690127
-0.00661132
-0.00605308
-0.0052645
-0.00428558
-0.00315946
-0.00194419
-0.000661567
0.00435703
0.0130126
0.0215102
0.0297537
0.0376407
0.0450795
0.0519862
0.0582858
0.0639129
0.0688138
0.0729462
0.0762805
0.0787997
0.0804998
0.0813893
0.0814891
0.0808317
0.0794603
0.0774278
0.0747953
0.0716314
0.0680096
0.0640079
0.059706
0.0551846
0.0505231
0.0457986
0.0410841
0.0364472
0.0319495
0.0276451
0.0235801
0.0197925
0.0163117
0.0131584
0.0103452
0.00787685
0.00575104
0.00395893
0.00248613
0.00131361
0.000418595
-0.000224572
-0.000643609
-0.000867595
-0.000926428
-0.000850582
-0.00067243
-0.000438867
-0.000157854
0.00445565
0.0133096
0.0220079
0.0304559
0.0385528
0.0462087
0.0533413
0.0598768
0.0657517
0.0709135
0.0753215
0.0789471
0.0817747
0.083801
0.0850353
0.0854988
0.085224
0.0842537
0.0826399
0.0804425
0.0777277
0.0745666
0.0710335
0.0672043
0.0631547
0.0589584
0.0546861
0.0504037
0.0461712
0.0420419
0.0380612
0.0342666
0.0306868
0.0273427
0.0242465
0.0214032
0.0188108
0.0164612
0.0143413
0.0124343
0.0107203
0.00917797
0.00778496
0.00651912
0.00535906
0.00428461
0.00327688
0.00231662
0.00137058
0.000447669
0.00456688
0.0136445
0.0225695
0.0312487
0.0395835
0.047486
0.0548757
0.0616808
0.0678397
0.0733014
0.0780271
0.0819898
0.085175
0.0875809
0.0892174
0.0901063
0.0902803
0.0897816
0.0886614
0.0869778
0.0847948
0.0821803
0.0792049
0.0759393
0.0724536
0.0688149
0.0650862
0.0613251
0.0575824
0.0539013
0.0503171
0.0468563
0.0435372
0.0403696
0.0373557
0.034491
0.0317649
0.0291625
0.0266652
0.0242529
0.0219045
0.0196001
0.0173211
0.015052
0.0127805
0.0104981
0.00820003
0.00588278
0.00352976
0.00117029
0.00469121
0.014019
0.0231976
0.032136
0.0407381
0.0489184
0.0565985
0.0637091
0.0701906
0.0759944
0.0810836
0.085433
0.0890301
0.0918742
0.0939764
0.0953593
0.0960557
0.0961074
0.0955646
0.0944836
0.0929259
0.0909557
0.0886389
0.0860409
0.0832248
0.0802501
0.0771709
0.0740346
0.0708814
0.0677425
0.0646409
0.0615903
0.0585958
0.0556544
0.0527558
0.0498838
0.0470176
0.0441333
0.0412058
0.0382102
0.0351242
0.0319286
0.0286097
0.0251593
0.0215762
0.0178657
0.0140397
0.010114
0.00609211
0.00202794
0.00482921
0.0144346
0.0238951
0.033122
0.0420224
0.0505133
0.0585192
0.0659736
0.0728194
0.0790107
0.084513
0.0893035
0.0933716
0.0967184
0.0993566
0.101309
0.10261
0.1033
0.103429
0.10305
0.102223
0.101008
0.0994646
0.0976527
0.0956274
0.0934391
0.0911315
0.0887405
0.0862931
0.0838069
0.08129
0.0787407
0.0761485
0.0734948
0.0707542
0.0678964
0.0648877
0.0616932
0.0582793
0.0546156
0.0506771
0.0464458
0.0419126
0.0370786
0.0319549
0.0265636
0.0209367
0.0151129
0.00911995
0.00304152
0.00498145
0.0148932
0.024665
0.0342112
0.0434423
0.0522786
0.0606481
0.068487
0.0757419
0.0823698
0.088339
0.0936296
0.0982335
0.102154
0.105405
0.108012
0.110008
0.111435
0.11234
0.112776
0.112798
0.112462
0.111823
0.110932
0.109836
0.108575
0.10718
0.105673
0.104067
0.102363
0.100552
0.0986125
0.0965166
0.0942266
0.0916989
0.0888858
0.0857378
0.0822068
0.0782481
0.073824
0.0689059
0.0634766
0.0575323
0.0510841
0.0441583
0.0367964
0.0290544
0.0209985
0.0126857
0.00423533
0.00514853
0.0153966
0.0255104
0.0354081
0.0450041
0.0542227
0.0629955
0.0712628
0.0789747
0.0860918
0.0925862
0.0984411
0.103651
0.108223
0.112172
0.115526
0.118318
0.12059
0.122389
0.123765
0.124769
0.125454
0.125866
0.126049
0.12604
0.125867
0.125546
0.125086
0.124479
0.123709
0.122745
0.121546
0.12006
0.118227
0.115982
0.113255
0.109979
0.106089
0.101525
0.0962411
0.0902033
0.0833947
0.075817
0.0674929
0.058466
0.048801
0.0385823
0.027909
0.0168736
0.00563762
0.00533105
0.0159465
0.0264346
0.0367175
0.0467144
0.0563541
0.0655725
0.0743146
0.0825347
0.0901979
0.0972801
0.103769
0.109662
0.11497
0.11971
0.123912
0.127611
0.130849
0.133672
0.136127
0.138264
0.140126
0.141756
0.143187
0.144444
0.145542
0.146483
0.147254
0.147831
0.148171
0.148223
0.147917
0.147177
0.145916
0.144041
0.141459
0.138076
0.133808
0.128579
0.12233
0.115019
0.106629
0.0971672
0.0866699
0.0752006
0.0628512
0.0497397
0.0360048
0.0217811
0.00728113
0.00552963
0.016545
0.0274406
0.038144
0.0485795
0.0586811
0.06839
0.0776561
0.0864391
0.094709
0.102447
0.109644
0.116304
0.122439
0.128073
0.133235
0.137963
0.1423
0.14629
0.14998
0.153414
0.156632
0.159666
0.16254
0.165267
0.167846
0.17026
0.172478
0.174449
0.176107
0.177371
0.178142
0.178312
0.177762
0.176368
0.174005
0.170552
0.165897
0.159944
0.152617
0.143865
0.13367
0.122043
0.109036
0.0947348
0.0792638
0.0627809
0.0454715
0.0275213
0.00920389
0.00574486
0.0171937
0.0285317
0.0396923
0.0506058
0.0612121
0.0714586
0.081301
0.090705
0.0996464
0.108112
0.116099
0.123615
0.130677
0.137314
0.143558
0.149448
0.15503
0.160347
0.165443
0.170359
0.175128
0.179775
0.184313
0.18874
0.193037
0.197168
0.201077
0.204687
0.207904
0.21061
0.212675
0.213951
0.214283
0.213508
0.211463
0.207993
0.202954
0.196222
0.187702
0.177329
0.16508
0.150973
0.135075
0.117498
0.0984051
0.078
0.0565247
0.0342258
0.0114501
0.00597729
0.0178943
0.0297108
0.0413667
0.0527992
0.0639551
0.0747886
0.0852623
0.0953487
0.10503
0.1143
0.123163
0.131631
0.139729
0.147487
0.154945
0.162143
0.169129
0.175946
0.182637
0.189239
0.195779
0.202272
0.20872
0.215104
0.221388
0.227512
0.233393
0.238926
0.243978
0.248398
0.252012
0.25463
0.25605
0.256065
0.254467
0.251057
0.245652
0.238096
0.228265
0.216078
0.201503
0.184565
0.165345
0.143989
0.1207
0.095739
0.0694148
0.0420475
0.0140711
0.00622742
0.0186485
0.0309804
0.043171
0.0551652
0.0669173
0.0783894
0.0895521
0.100385
0.11088
0.121036
0.130866
0.14039
0.149637
0.158646
0.167459
0.176123
0.184686
0.193193
0.201686
0.210198
0.218749
0.227347
0.235979
0.24461
0.253183
0.261614
0.269789
0.277567
0.284779
0.291227
0.296691
0.300931
0.303691
0.304709
0.303722
0.30048
0.294752
0.286337
0.27508
0.260875
0.243678
0.223517
0.200492
0.174781
0.14664
0.116395
0.0844336
0.0511647
0.0171269
0.00649566
0.0194574
0.0323429
0.0451088
0.0577084
0.070105
0.0822694
0.0941811
0.105829
0.117213
0.128342
0.139235
0.149923
0.160443
0.170839
0.18116
0.191459
0.201786
0.212189
0.222709
0.233376
0.244205
0.255193
0.266313
0.277515
0.288718
0.299808
0.310641
0.321037
0.33078
0.339624
0.347294
0.353489
0.357892
0.360174
0.360009
0.357082
0.351102
0.341817
0.329025
0.31259
0.292451
0.268634
0.24126
0.210544
0.1768
0.140432
0.101922
0.0617857
0.0206877
0.00678234
0.0203221
0.0338
0.0471824
0.0604325
0.0735232
0.0864353
0.0991582
0.111691
0.124043
0.136235
0.148295
0.160262
0.172183
0.184112
0.196104
0.208218
0.220511
0.233032
0.245823
0.258912
0.272308
0.286
0.299946
0.314078
0.32829
0.342439
0.356343
0.369779
0.382483
0.39415
0.404442
0.412989
0.4194
0.42327
0.424194
0.421779
0.41566
0.405519
0.391098
0.372218
0.348793
0.320846
0.288513
0.252053
0.211848
0.168391
0.122279
0.0741554
0.0248358
0.00708763
0.021243
0.0353525
0.0493936
0.0633399
0.0771753
0.0908918
0.10449
0.11798
0.131383
0.144731
0.158063
0.17143
0.184889
0.198503
0.212339
0.226461
0.240933
0.25581
0.271135
0.286935
0.303215
0.319953
0.337096
0.354554
0.372198
0.389853
0.407295
0.424255
0.440411
0.455396
0.468798
0.480168
0.489028
0.494881
0.497229
0.495585
0.489494
0.478553
0.462432
0.440896
0.413824
0.381226
0.343255
0.300216
0.252566
0.20091
0.145975
0.0885619
0.0296685
0.00741155
0.0222203
0.0370009
0.0517428
0.0664314
0.0810629
0.0956412
0.11018
0.124702
0.13924
0.15384
0.168554
0.183446
0.198584
0.214045
0.229904
0.246238
0.263117
0.280603
0.298743
0.317564
0.337068
0.357226
0.377971
0.399194
0.420739
0.442397
0.463902
0.484932
0.505104
0.523978
0.541061
0.55581
0.567648
0.57597
0.580164
0.579631
0.573803
0.562173
0.544318
0.519929
0.488834
0.451021
0.406656
0.356093
0.299877
0.238738
0.173565
0.105347
0.0353009
0.00775394
0.0232535
0.0387443
0.0542291
0.0697062
0.085185
0.100683
0.116228
0.131856
0.147617
0.163567
0.179776
0.196321
0.213285
0.230758
0.24883
0.267587
0.287113
0.307476
0.328729
0.350903
0.373997
0.397977
0.422764
0.44823
0.474193
0.500408
0.526564
0.552283
0.577114
0.600536
0.621963
0.640749
0.656197
0.667579
0.674148
0.675164
0.669925
0.657791
0.638221
0.610809
0.575311
0.531679
0.480084
0.420932
0.354866
0.282765
0.205709
0.124915
0.04187
0.00811442
0.0243416
0.0405809
0.05685
0.073161
0.089538
0.106014
0.12263
0.139441
0.156509
0.17391
0.191728
0.210057
0.228997
0.248653
0.269131
0.290533
0.312954
0.336474
0.361155
0.387032
0.414108
0.442342
0.471646
0.501877
0.532824
0.564207
0.59567
0.626772
0.656991
0.685717
0.712261
0.735856
0.755673
0.770834
0.780432
0.783562
0.779353
0.767001
0.745813
0.715254
0.674981
0.624891
0.565148
0.496207
0.418825
0.33405
0.243196
0.147755
0.0495402
0.00849237
0.0254825
0.0425076
0.0596012
0.0767904
0.0941155
0.111625
0.129379
0.147446
0.165909
0.184859
0.204401
0.224645
0.245713
0.267726
0.290809
0.315082
0.340654
0.367622
0.396059
0.426009
0.457478
0.490426
0.524759
0.560315
0.596863
0.634086
0.671581
0.708845
0.745277
0.780172
0.812726
0.842038
0.867125
0.886936
0.900377
0.906342
0.903752
0.891599
0.868997
0.835239
0.78985
0.732639
0.663745
0.583669
0.493291
0.393862
0.286972
0.174449
0.0585093
0.00888689
0.0266737
0.04452
0.0624763
0.0805864
0.0989074
0.117506
0.136459
0.155856
0.175797
0.196395
0.217774
0.240066
0.263412
0.287957
0.313845
0.341218
0.370205
0.40092
0.433451
0.467857
0.504152
0.5423
0.582202
0.623687
0.666502
0.710299
0.754625
0.798916
0.842489
0.884538
0.924131
0.96022
0.991647
1.01716
1.03545
1.04516
1.04497
1.03361
1.00994
0.973043
0.922251
0.857248
0.77812
0.685405
0.580114
0.463733
0.338184
0.20571
0.0690179
0.00929682
0.0279116
0.046612
0.0654671
0.0845378
0.1039
0.123639
0.143852
0.164648
0.18615
0.20849
0.231816
0.256284
0.282058
0.309307
0.338201
0.368904
0.40157
0.436334
0.473307
0.512564
0.554132
0.597985
0.644028
0.692082
0.741879
0.793042
0.845073
0.897349
0.949101
0.999416
1.04723
1.09133
1.13036
1.16285
1.18721
1.20183
1.20505
1.1953
1.17112
1.1313
1.07491
1.00147
0.910953
0.803921
0.681524
0.545519
0.398228
0.242402
0.08136
0.00972066
0.0291917
0.0487763
0.0685627
0.0886307
0.109076
0.130004
0.151533
0.173794
0.196932
0.221105
0.246484
0.273252
0.301598
0.33172
0.363815
0.398075
0.434682
0.473799
0.515562
0.56007
0.60737
0.657453
0.71023
0.765527
0.823064
0.882443
0.943128
1.00444
1.06552
1.12536
1.18274
1.23628
1.2844
1.32538
1.35733
1.37829
1.38625
1.37921
1.35535
1.31304
1.25103
1.16855
1.06545
0.942245
0.800237
0.641494
0.468821
0.285596
0.0958982
0.0101566
0.0305087
0.0510035
0.0717501
0.0928479
0.114413
0.136574
0.15947
0.183256
0.208101
0.234191
0.261722
0.290905
0.32196
0.355116
0.390599
0.428636
0.469441
0.513209
0.560109
0.610268
0.663763
0.720607
0.78073
0.843969
0.910043
0.97854
1.0489
1.12038
1.19206
1.26282
1.33129
1.39591
1.45487
1.50615
1.54753
1.57665
1.59103
1.58821
1.56583
1.52179
1.45435
1.36239
1.24547
1.10406
0.939579
0.75446
0.552086
0.336616
0.113083
0.0106026
0.031856
0.0532829
0.0750138
0.0971687
0.119886
0.143316
0.167624
0.192988
0.219604
0.247685
0.277457
0.309162
0.343053
0.379391
0.41844
0.460462
0.505709
0.554416
0.606789
0.662993
0.723142
0.787281
0.85537
0.927265
1.0027
1.08126
1.16237
1.24525
1.32892
1.41214
1.49342
1.571
1.64282
1.70655
1.75958
1.79909
1.82206
1.82544
1.80622
1.76162
1.68931
1.5876
1.45569
1.29387
1.10366
0.887899
0.650676
0.397123
0.13348
0.011056
0.0332262
0.0556017
0.0783356
0.101569
0.125464
0.150195
0.17595
0.202937
0.231378
0.261514
0.293606
0.327927
0.364766
0.40442
0.447195
0.493393
0.543311
0.597226
0.655391
0.718018
0.785267
0.857226
0.933895
1.01517
1.10081
1.19041
1.2834
1.37899
1.47612
1.5735
1.6695
1.76216
1.84917
1.92788
1.99524
2.04789
2.08221
2.09439
2.08061
2.03725
1.96112
1.84977
1.70181
1.51723
1.29759
1.04618
0.767931
0.469215
0.157805
0.0115142
0.0346109
0.0579459
0.0816952
0.106023
0.131114
0.157167
0.184398
0.213041
0.243349
0.275594
0.310068
0.347083
0.386965
0.430052
0.476693
0.527236
0.582027
0.641396
0.705648
0.775051
0.84982
0.930102
1.01595
1.10731
1.20399
1.30563
1.41166
1.52131
1.6335
1.74686
1.85967
1.96978
2.07466
2.17129
2.25617
2.32535
2.37447
2.39885
2.39365
2.35413
2.27596
2.15562
1.99084
1.78107
1.52781
1.23482
0.908101
0.555567
0.186971
0.011974
0.0360009
0.0602996
0.0850699
0.110499
0.136795
0.164185
0.192909
0.223232
0.255435
0.289826
0.326731
0.366499
0.409498
0.45611
0.506731
0.561761
0.621599
0.686634
0.757232
0.833728
0.916403
1.00547
1.10107
1.20319
1.31173
1.42638
1.54664
1.67174
1.80063
1.93192
2.0638
2.194
2.31974
2.43768
2.54385
2.63366
2.70192
2.74288
2.75048
2.71852
2.64114
2.51329
2.33142
2.09406
1.80247
1.46089
1.07663
0.659616
0.222151
0.0124321
0.0373858
0.0626455
0.0884348
0.114964
0.142467
0.171196
0.20142
0.233432
0.267546
0.304103
0.343467
0.386026
0.432192
0.482394
0.537079
0.596703
0.661724
0.732596
0.809757
0.893613
0.984528
1.0828
1.18865
1.30218
1.42335
1.55196
1.68758
1.82953
1.97681
2.12804
2.28139
2.43452
2.58447
2.72758
2.85945
2.9748
3.06754
3.13072
3.15673
3.13757
3.06528
2.93271
2.73431
2.4672
2.13201
1.73349
1.28058
0.785819
0.264869
0.0128849
0.0387549
0.0649651
0.0917633
0.119383
0.148084
0.178144
0.209861
0.243558
0.279581
0.318307
0.360137
0.405501
0.454857
0.508683
0.567481
0.631765
0.702061
0.778892
0.862774
0.9542
1.05362
1.16144
1.27798
1.40346
1.53796
1.6814
1.83348
1.99363
2.16095
2.33417
2.5115
2.69058
2.86836
3.04096
3.20357
3.35029
3.47405
3.56657
3.61844
3.61934
3.55857
3.42596
3.21303
2.91455
2.52997
2.0645
1.52915
0.939979
0.317106
0.0133286
0.0400965
0.0672387
0.095027
0.123718
0.153598
0.184969
0.21816
0.253521
0.291434
0.33231
0.37659
0.424747
0.477284
0.534733
0.597652
0.666619
0.742229
0.825083
0.915782
1.01491
1.12303
1.24065
1.36823
1.50611
1.65452
1.81355
1.98306
2.16266
2.35162
2.54883
2.75264
2.96078
3.17024
3.37704
3.57607
3.76091
3.92357
4.05435
4.14178
4.17273
4.1329
4.00785
3.78468
3.45434
3.01413
2.46952
1.83441
1.12968
0.381441
0.0137591
0.0413986
0.0694459
0.0981966
0.127931
0.158958
0.191609
0.226238
0.263228
0.302993
0.345979
0.392667
0.443575
0.499252
0.560284
0.627289
0.70091
0.781816
0.87069
0.968224
1.07511
1.19201
1.31959
1.45841
1.60901
1.77179
1.94702
2.13477
2.3349
2.54693
2.76998
3.00268
3.24299
3.48807
3.73403
3.97571
4.20632
4.41715
4.59715
4.73265
4.80722
4.80195
4.69647
4.47114
4.1106
3.60815
2.96933
2.21226
1.36479
0.461209
0.0141725
0.042649
0.0715659
0.101242
0.131979
0.164112
0.197997
0.234016
0.272582
0.31414
0.359174
0.408204
0.461789
0.520529
0.585064
0.656071
0.734262
0.820381
0.915199
1.0195
1.13409
1.25977
1.39731
1.54746
1.71093
1.88833
2.08016
2.28676
2.50827
2.74454
2.99505
3.25881
3.53419
3.81874
4.10891
4.39976
4.68454
4.95414
5.19648
5.39584
5.53221
5.58103
5.51382
5.30069
4.91555
4.3442
3.59182
2.68355
1.65798
0.560632
0.0145647
0.0438353
0.0735776
0.104132
0.135824
0.169009
0.204069
0.241414
0.281485
0.324759
0.371755
0.42303
0.479188
0.540877
0.60879
0.683665
0.766282
0.857464
0.958068
1.06898
1.19113
1.32542
1.47281
1.6342
1.81051
2.00257
2.21114
2.4369
2.68031
2.94164
3.22085
3.51746
3.83043
4.15793
4.49711
4.84367
5.19137
5.53136
5.8512
6.13376
6.35572
6.48623
6.48625
6.31035
5.91373
5.26709
4.37474
3.27529
2.02496
0.684817
0.0149316
0.0449452
0.0754602
0.106838
0.139423
0.173596
0.209761
0.248352
0.28984
0.334731
0.383578
0.436976
0.495571
0.560056
0.631177
0.709733
0.796572
0.892594
0.998744
1.11601
1.24544
1.38807
1.54502
1.71738
1.90626
2.11276
2.33795
2.58282
2.84826
3.13503
3.44364
3.77428
4.12671
4.5
4.89234
5.30058
5.71971
6.14203
6.55596
6.94434
7.28195
7.53229
7.644
7.54905
7.1691
6.44168
5.36946
4.02115
2.48381
0.839365
0.0152692
0.0459669
0.0771933
0.109329
0.142739
0.177823
0.215007
0.254752
0.29755
0.343941
0.394505
0.449876
0.510736
0.577826
0.651942
0.73394
0.824733
0.925298
1.03667
1.15993
1.29624
1.4468
1.61285
1.79569
1.99665
2.2171
2.45841
2.72196
3.00909
3.32109
3.65913
4.02423
4.41708
4.83795
5.28643
5.76111
6.25899
6.77473
7.29933
7.81804
8.30699
8.72762
9.01802
9.08129
8.77932
7.96716
6.64506
4.95932
3.05191
1.02909
0.015574
0.0468891
0.0787579
0.111579
0.145733
0.181641
0.219749
0.260538
0.304526
0.352277
0.404403
0.461568
0.524493
0.59396
0.670812
0.755959
0.850378
0.955115
1.07129
1.20008
1.34277
1.50067
1.67519
1.86783
2.08013
2.31372
2.57031
2.85165
3.15957
3.49595
3.86268
4.26166
4.69472
5.16353
5.66943
6.21325
6.79485
7.41253
8.06193
8.73412
9.41212
10.0641
10.629
10.9875
10.9072
10.0088
8.28922
6.12252
3.73759
1.25507
0.0158424
0.0477013
0.080136
0.11356
0.148372
0.185007
0.22393
0.265641
0.310681
0.359636
0.413146
0.471902
0.536661
0.608241
0.687528
0.775483
0.873138
0.981607
1.10208
1.23585
1.38426
1.54879
1.73099
1.93252
2.15515
2.40076
2.67139
2.96917
3.29642
3.6556
4.04937
4.48057
4.95223
5.46755
6.0299
6.64272
7.30936
8.03284
8.81534
9.65725
10.5553
11.4986
12.4564
13.3413
13.861
12.878
10.3855
7.5074
4.52307
1.50959
0.0160715
0.0483944
0.0813118
0.115251
0.150623
0.187878
0.227498
0.269998
0.315938
0.365925
0.42062
0.480742
0.547075
0.620471
0.701854
0.792228
0.892676
1.00437
1.12857
1.26664
1.42004
1.59034
1.77923
1.98855
2.22025
2.47646
2.7595
3.0719
3.41641
3.79608
4.2143
4.67484
5.18193
5.74036
6.35556
7.03373
7.782
8.60859
9.52314
10.5373
11.6657
12.9296
14.3671
16.0692
18.3253
17.2633
12.8722
9.00203
5.33996
1.77075
0.0162586
0.0489604
0.0822715
0.11663
0.152459
0.190221
0.230409
0.273554
0.32023
0.371061
0.426727
0.487968
0.555592
0.630478
0.713583
0.805945
0.908692
1.02304
1.15032
1.29195
1.44947
1.62456
1.81902
2.03482
2.2741
2.53919
2.83268
3.1574
3.51654
3.91366
4.3528
4.83859
5.37638
5.97243
6.6341
7.37022
8.19148
9.11102
10.1454
11.3162
12.6528
14.1986
16.0236
18.2521
21.1155
19.9842
14.8434
10.292
6.06626
2.00516
0.0164014
0.0493932
0.0830041
0.117681
0.153857
0.192005
0.232626
0.276263
0.3235
0.374976
0.431383
0.493479
0.56209
0.638117
0.72254
0.816426
0.920936
1.03733
1.16697
1.31133
1.47203
1.65082
1.84958
2.0704
2.31556
2.58756
2.88919
3.22355
3.59417
4.00502
4.46071
4.96656
5.52885
6.15507
6.85423
7.63733
8.51802
9.51342
10.6454
11.9427
13.4433
15.2
17.2869
19.8096
22.9083
21.7212
16.2302
11.26
6.63018
2.18978
0.0164976
0.0496874
0.0835014
0.11839
0.1548
0.193208
0.234121
0.27809
0.325706
0.377616
0.434524
0.497198
0.566476
0.643274
0.728589
0.823508
0.929212
1.04699
1.17823
1.32445
1.48731
1.66861
1.87031
2.09455
2.34373
2.62045
2.92766
3.26866
3.64718
4.06751
4.53465
5.05443
5.63381
6.28113
7.00658
7.82274
8.74531
9.79413
10.9945
12.3792
13.9904
15.8827
18.125
20.8002
23.995
22.7688
17.1014
11.8914
7.00695
2.31453
0.0165405
0.0498284
0.0837499
0.118747
0.155274
0.193812
0.234873
0.279008
0.326815
0.378944
0.436104
0.499069
0.568684
0.64587
0.731635
0.827074
0.933381
1.05185
1.1839
1.33107
1.49502
1.67759
1.88077
2.10675
2.35797
2.63709
2.94714
3.29151
3.67406
4.09924
4.57223
5.09916
5.6873
6.34547
7.08448
7.9177
8.86188
9.93823
11.1737
12.6028
14.2692
16.2269
18.5407
21.2807
24.5107
23.2644
17.5204
12.2007
7.19406
2.37689
)
;

boundaryField
{
    walls
    {
        type            calculated;
        value           nonuniform List<scalar> 
200
(
0.0165405
0.0498284
0.0837499
0.118747
0.155274
0.193812
0.234873
0.279008
0.326815
0.378944
0.436104
0.499069
0.568684
0.64587
0.731635
0.827074
0.933381
1.05185
1.1839
1.33107
1.49502
1.67759
1.88077
2.10675
2.35797
2.63709
2.94714
3.29151
3.67406
4.09924
4.57223
5.09916
5.6873
6.34547
7.08448
7.9177
8.86188
9.93823
11.1737
12.6028
14.2692
16.2269
18.5407
21.2807
24.5107
23.2644
17.5204
12.2007
7.19406
2.37689
0
0
0
0
0
0
0
0
0
0
0
0
0
0
0
0
0
0
0
0
0
0
0
0
0
0
0
0
0
0
0
0
0
0
0
0
0
0
0
0
0
0
0
0
0
0
0
0
0
0
0
0
0
0
0
0
0
0
0
0
0
0
0
0
0
0
0
0
0
0
0
0
0
0
0
0
0
0
0
0
0
0
0
0
0
0
0
0
0
0
0
0
0
0
0
0
0
0
0
0
0.00397679
0.0118668
0.0195914
0.0270521
0.034139
0.0407557
0.0468134
0.0522322
0.0569424
0.0608853
0.0640147
0.0662971
0.0677121
0.0682531
0.0679267
0.0667532
0.0647652
0.0620081
0.0585379
0.0544215
0.0497344
0.0445601
0.0389879
0.0331123
0.0270303
0.0208408
0.0146421
0.0085309
0.0026004
-0.00306097
-0.00837098
-0.0132548
-0.0176459
-0.0214873
-0.0247319
-0.0273434
-0.0292961
-0.0305758
-0.0311792
-0.0311139
-0.0303985
-0.0290612
-0.0271401
-0.0246821
-0.0217422
-0.0183824
-0.0146712
-0.0106823
-0.00649291
-0.00217894
)
;
    }
    frontAndBack
    {
        type            empty;
    }
}


// ************************************************************************* //
