/*--------------------------------*- C++ -*----------------------------------*\
| =========                 |                                                 |
| \\      /  F ield         | OpenFOAM: The Open Source CFD Toolbox           |
|  \\    /   O peration     | Version:  2406                                  |
|   \\  /    A nd           | Website:  www.openfoam.com                      |
|    \\/     M anipulation  |                                                 |
\*---------------------------------------------------------------------------*/
FoamFile
{
    version     2.0;
    format      ascii;
    arch        "LSB;label=32;scalar=64";
    class       volScalarField;
    location    "0.85";
    object      T;
}
// * * * * * * * * * * * * * * * * * * * * * * * * * * * * * * * * * * * * * //

dimensions      [0 0 0 1 0 0 0];

internalField   nonuniform List<scalar> 
2500
(
0.174783
0.174942
0.175257
0.175725
0.17634
0.177091
0.17797
0.178964
0.180059
0.181241
0.182494
0.183802
0.185146
0.18651
0.187876
0.189227
0.190547
0.191818
0.193027
0.19416
0.195204
0.196149
0.196986
0.197708
0.198311
0.19879
0.199144
0.199375
0.199486
0.199479
0.199363
0.199145
0.198833
0.198439
0.197973
0.197449
0.19688
0.196278
0.195657
0.19503
0.194412
0.193814
0.19325
0.192729
0.192262
0.191859
0.191527
0.191272
0.1911
0.191013
0.174942
0.175101
0.175418
0.175887
0.176503
0.177256
0.178138
0.179134
0.180233
0.181419
0.182677
0.18399
0.185339
0.18671
0.188082
0.189441
0.190768
0.192048
0.193266
0.194409
0.195464
0.19642
0.19727
0.198005
0.198621
0.199114
0.199484
0.199731
0.199857
0.199868
0.199769
0.199569
0.199275
0.198899
0.198452
0.197947
0.197395
0.196811
0.196207
0.195597
0.194995
0.194412
0.19386
0.193352
0.192896
0.192502
0.192177
0.191928
0.19176
0.191674
0.175257
0.175418
0.175736
0.176208
0.176827
0.177584
0.178471
0.179474
0.18058
0.181774
0.18304
0.184363
0.185724
0.187106
0.188492
0.189865
0.191208
0.192506
0.193743
0.194905
0.195982
0.196962
0.197836
0.198597
0.199241
0.199763
0.200164
0.200442
0.200602
0.200647
0.200583
0.200419
0.200162
0.199823
0.199413
0.198945
0.19843
0.197881
0.197313
0.196736
0.196165
0.195612
0.195088
0.194604
0.19417
0.193795
0.193485
0.193248
0.193087
0.193006
0.175725
0.175887
0.176208
0.176683
0.177307
0.178071
0.178965
0.179977
0.181094
0.1823
0.18358
0.184917
0.186295
0.187696
0.189103
0.190498
0.191865
0.193189
0.194454
0.195648
0.196757
0.197772
0.198684
0.199485
0.200171
0.200737
0.201184
0.201512
0.201722
0.201819
0.201809
0.2017
0.201499
0.201217
0.200864
0.200452
0.199994
0.1995
0.198985
0.19846
0.197938
0.19743
0.196948
0.196502
0.196101
0.195754
0.195468
0.195249
0.1951
0.195024
0.17634
0.176503
0.176827
0.177307
0.177938
0.178711
0.179615
0.180639
0.18177
0.182992
0.18429
0.185648
0.187049
0.188475
0.189909
0.191334
0.192734
0.194093
0.195397
0.196632
0.197786
0.198849
0.199812
0.200667
0.20141
0.202037
0.202548
0.202941
0.203221
0.20339
0.203453
0.203419
0.203295
0.203091
0.202816
0.202482
0.2021
0.201682
0.20124
0.200786
0.200331
0.199886
0.199461
0.199068
0.198713
0.198405
0.198151
0.197955
0.197823
0.197756
0.177091
0.177256
0.177584
0.178071
0.178711
0.179494
0.180412
0.181451
0.182599
0.183842
0.185163
0.186547
0.187976
0.189434
0.190903
0.192367
0.193809
0.195213
0.196566
0.197854
0.199066
0.20019
0.201217
0.202142
0.202959
0.203664
0.204256
0.204735
0.205103
0.205364
0.205523
0.205587
0.205562
0.205458
0.205284
0.205051
0.204769
0.204449
0.204102
0.203739
0.203371
0.203007
0.202658
0.202331
0.202036
0.201779
0.201567
0.201403
0.201292
0.201235
0.17797
0.178138
0.178471
0.178965
0.179615
0.180412
0.181345
0.182403
0.183573
0.18484
0.18619
0.187605
0.189069
0.190566
0.192078
0.193588
0.195081
0.196542
0.197956
0.199309
0.200591
0.20179
0.202899
0.203909
0.204817
0.205619
0.206312
0.206898
0.207377
0.207753
0.20803
0.208215
0.208314
0.208335
0.208288
0.208181
0.208024
0.207826
0.207599
0.207351
0.207091
0.20683
0.206574
0.206333
0.206113
0.20592
0.205759
0.205635
0.205551
0.205508
0.178964
0.179134
0.179474
0.179977
0.180639
0.181451
0.182403
0.183483
0.184679
0.185976
0.187358
0.188811
0.190317
0.19186
0.193423
0.19499
0.196544
0.198072
0.199558
0.20099
0.202356
0.203647
0.204853
0.205968
0.206986
0.207904
0.208721
0.209435
0.210049
0.210565
0.210986
0.211319
0.21157
0.211745
0.211852
0.211899
0.211895
0.211848
0.211766
0.211659
0.211533
0.211397
0.211258
0.211121
0.210994
0.210879
0.210783
0.210708
0.210657
0.21063
0.180059
0.180233
0.18058
0.181094
0.18177
0.182599
0.183573
0.184679
0.185904
0.187235
0.188657
0.190153
0.191708
0.193305
0.194928
0.196561
0.198188
0.199794
0.201366
0.202891
0.204358
0.205756
0.207078
0.208317
0.209466
0.210524
0.211487
0.212356
0.213131
0.213814
0.214409
0.21492
0.215352
0.215711
0.216004
0.216238
0.216418
0.216553
0.216648
0.216711
0.216748
0.216764
0.216764
0.216755
0.216739
0.21672
0.216702
0.216686
0.216675
0.216668
0.181241
0.181419
0.181774
0.1823
0.182992
0.183842
0.18484
0.185976
0.187235
0.188606
0.190072
0.191618
0.19323
0.194889
0.196582
0.198291
0.200002
0.2017
0.203372
0.205005
0.20659
0.208115
0.209572
0.210956
0.21226
0.213482
0.214619
0.21567
0.216635
0.217516
0.218317
0.219039
0.219687
0.220266
0.220781
0.221236
0.221637
0.221989
0.222296
0.222562
0.222793
0.222991
0.22316
0.223302
0.223421
0.223517
0.223592
0.223648
0.223685
0.223703
0.182494
0.182677
0.18304
0.18358
0.18429
0.185163
0.18619
0.187358
0.188657
0.190072
0.191589
0.193193
0.194868
0.1966
0.198372
0.200169
0.201976
0.20378
0.205567
0.207326
0.209046
0.210718
0.212334
0.213886
0.215371
0.216784
0.218124
0.219388
0.220577
0.221691
0.222733
0.223704
0.224607
0.225445
0.226222
0.22694
0.227601
0.22821
0.228768
0.229277
0.229738
0.230153
0.230522
0.230846
0.231124
0.231357
0.231544
0.231685
0.231779
0.231826
0.183802
0.18399
0.184363
0.184917
0.185648
0.186547
0.187605
0.188811
0.190153
0.191618
0.193193
0.194862
0.19661
0.198423
0.200285
0.202182
0.2041
0.206024
0.207944
0.209847
0.211723
0.213564
0.215361
0.21711
0.218803
0.220438
0.222013
0.223525
0.224974
0.226361
0.227684
0.228946
0.230148
0.23129
0.232374
0.2334
0.234369
0.235281
0.236135
0.236929
0.237663
0.238334
0.23894
0.239479
0.239947
0.240342
0.240661
0.240903
0.241066
0.241147
0.185146
0.185339
0.185724
0.186295
0.187049
0.187976
0.189069
0.190317
0.191708
0.19323
0.194868
0.19661
0.198441
0.200345
0.202309
0.204319
0.206362
0.208424
0.210494
0.212561
0.214616
0.21665
0.218656
0.220628
0.222562
0.224454
0.2263
0.228099
0.229849
0.231551
0.233202
0.234802
0.236351
0.237848
0.239291
0.240678
0.242007
0.243274
0.244475
0.245605
0.246659
0.247632
0.248517
0.249309
0.25
0.250587
0.251063
0.251424
0.251667
0.251789
0.18651
0.18671
0.187106
0.187696
0.188475
0.189434
0.190566
0.19186
0.193305
0.194889
0.1966
0.198423
0.200345
0.202352
0.204431
0.206569
0.208752
0.210969
0.213209
0.215463
0.21772
0.219974
0.222219
0.224447
0.226656
0.228841
0.230999
0.233128
0.235226
0.237291
0.23932
0.241313
0.243265
0.245173
0.247034
0.248841
0.250589
0.252271
0.253878
0.255401
0.256831
0.258157
0.25937
0.260458
0.261413
0.262225
0.262885
0.263387
0.263725
0.263894
0.187876
0.188082
0.188492
0.189103
0.189909
0.190903
0.192078
0.193423
0.194928
0.196582
0.198372
0.200285
0.202309
0.204431
0.206638
0.208918
0.211259
0.213651
0.216083
0.218546
0.221033
0.223537
0.226052
0.228572
0.231094
0.233613
0.236128
0.238635
0.241132
0.243614
0.24608
0.248524
0.250942
0.253327
0.255671
0.257966
0.260201
0.262365
0.264445
0.266426
0.268294
0.270034
0.27163
0.273067
0.27433
0.275406
0.276282
0.276949
0.277398
0.277624
0.189227
0.189441
0.189865
0.190498
0.191334
0.192367
0.193588
0.19499
0.196561
0.198291
0.200169
0.202182
0.204319
0.206569
0.208918
0.211357
0.213875
0.216461
0.219109
0.221808
0.224554
0.227339
0.230159
0.233009
0.235886
0.238787
0.241708
0.244646
0.247598
0.250559
0.253525
0.256488
0.259442
0.262375
0.265278
0.268137
0.270937
0.27366
0.276289
0.278803
0.281182
0.283404
0.285447
0.287291
0.288914
0.290299
0.291428
0.292288
0.292868
0.29316
0.190547
0.190768
0.191208
0.191865
0.192734
0.193809
0.195081
0.196544
0.198188
0.200002
0.201976
0.2041
0.206362
0.208752
0.211259
0.213875
0.216589
0.219393
0.222281
0.225245
0.22828
0.231381
0.234545
0.237768
0.241047
0.244379
0.247761
0.251189
0.25466
0.258167
0.261704
0.265262
0.26883
0.272394
0.27594
0.279449
0.2829
0.286271
0.289536
0.292669
0.295641
0.298424
0.300988
0.303305
0.305349
0.307095
0.30852
0.309606
0.310339
0.310707
0.191818
0.192048
0.192506
0.193189
0.194093
0.195213
0.196542
0.198072
0.199794
0.2017
0.20378
0.206024
0.208424
0.210969
0.213651
0.216461
0.219393
0.222439
0.225594
0.228853
0.232212
0.235668
0.239217
0.242859
0.24659
0.250408
0.254311
0.258295
0.262354
0.266482
0.27067
0.274907
0.279177
0.283465
0.287749
0.292005
0.296207
0.300325
0.304325
0.308174
0.311834
0.315267
0.318437
0.321306
0.32384
0.326006
0.327776
0.329126
0.330037
0.330495
0.193027
0.193266
0.193743
0.194454
0.195397
0.196566
0.197956
0.199558
0.201366
0.203372
0.205567
0.207944
0.210494
0.213209
0.216083
0.219109
0.222281
0.225594
0.229046
0.232632
0.236351
0.240202
0.244183
0.248293
0.252531
0.256897
0.261387
0.265997
0.270723
0.275554
0.280482
0.28549
0.290562
0.295675
0.300804
0.305918
0.310983
0.31596
0.320809
0.325484
0.32994
0.334127
0.338
0.34151
0.344613
0.347269
0.349441
0.351099
0.352218
0.352781
0.19416
0.194409
0.194905
0.195648
0.196632
0.197854
0.199309
0.20099
0.202891
0.205005
0.207326
0.209847
0.212561
0.215463
0.218546
0.221808
0.225245
0.228853
0.232632
0.236581
0.2407
0.244989
0.24945
0.254083
0.258889
0.263867
0.269016
0.274332
0.279808
0.285434
0.291199
0.297083
0.303066
0.309121
0.315214
0.321309
0.327363
0.333328
0.339153
0.344782
0.350156
0.355217
0.359903
0.364157
0.367923
0.371149
0.373789
0.375804
0.377166
0.377851
0.195204
0.195464
0.195982
0.196757
0.197786
0.199066
0.200591
0.202356
0.204358
0.20659
0.209046
0.211723
0.214616
0.21772
0.221033
0.224554
0.22828
0.232212
0.236351
0.2407
0.24526
0.250035
0.255028
0.260242
0.26568
0.271343
0.277229
0.283335
0.289655
0.296177
0.302886
0.309762
0.316778
0.323901
0.331093
0.338308
0.345494
0.352592
0.359538
0.366264
0.372699
0.378768
0.384397
0.389513
0.394047
0.397935
0.401119
0.403552
0.405196
0.406024
0.196149
0.19642
0.196962
0.197772
0.198849
0.20019
0.20179
0.203647
0.205756
0.208115
0.210718
0.213564
0.21665
0.219974
0.223537
0.227339
0.231381
0.235668
0.240202
0.244989
0.250035
0.255345
0.260927
0.266785
0.272925
0.279348
0.286056
0.293046
0.30031
0.307837
0.31561
0.323603
0.331787
0.340123
0.348563
0.357054
0.365531
0.373925
0.382157
0.390145
0.397801
0.405034
0.411753
0.417868
0.423294
0.42795
0.431767
0.434686
0.436659
0.437652
0.196986
0.19727
0.197836
0.198684
0.199812
0.201217
0.202899
0.204853
0.207078
0.209572
0.212334
0.215361
0.218656
0.222219
0.226052
0.230159
0.234545
0.239217
0.244183
0.24945
0.255028
0.260927
0.267157
0.273725
0.28064
0.287907
0.295528
0.303501
0.31182
0.320472
0.329437
0.338687
0.348188
0.357894
0.36775
0.377689
0.387639
0.397513
0.407218
0.416655
0.425716
0.434291
0.442269
0.44954
0.455999
0.461549
0.466102
0.469585
0.471941
0.473127
0.197708
0.198005
0.198597
0.199485
0.200667
0.202142
0.203909
0.205968
0.208317
0.210956
0.213886
0.21711
0.220628
0.224447
0.228572
0.233009
0.237768
0.242859
0.248293
0.254083
0.260242
0.266785
0.273725
0.281074
0.288844
0.297042
0.305674
0.314738
0.32423
0.334135
0.344434
0.355094
0.366076
0.377327
0.388782
0.400366
0.411989
0.423551
0.434941
0.446038
0.456714
0.466835
0.476267
0.484876
0.492533
0.499119
0.504528
0.508669
0.511471
0.512883
0.198311
0.198621
0.199241
0.200171
0.20141
0.202959
0.204817
0.206986
0.209466
0.21226
0.215371
0.218803
0.222562
0.226656
0.231094
0.235886
0.241047
0.24659
0.252531
0.258889
0.26568
0.272925
0.28064
0.288844
0.297551
0.306773
0.316519
0.32679
0.337581
0.348881
0.360666
0.372902
0.385544
0.398532
0.411792
0.425235
0.438758
0.452242
0.465555
0.478554
0.491084
0.502986
0.514096
0.524253
0.5333
0.54109
0.547494
0.552401
0.555723
0.557398
0.19879
0.199114
0.199763
0.200737
0.202037
0.203664
0.205619
0.207904
0.210524
0.213482
0.216784
0.220438
0.224454
0.228841
0.233613
0.238787
0.244379
0.250408
0.256897
0.263867
0.271343
0.279348
0.287907
0.297042
0.306773
0.317117
0.328086
0.339685
0.351913
0.364756
0.378193
0.392185
0.406683
0.421619
0.43691
0.452453
0.468127
0.483795
0.499301
0.514475
0.529134
0.543085
0.556133
0.568081
0.578739
0.587929
0.595492
0.601291
0.60522
0.607201
0.199144
0.199484
0.200164
0.201184
0.202548
0.204256
0.206312
0.208721
0.211487
0.214619
0.218124
0.222013
0.2263
0.230999
0.236128
0.241708
0.247761
0.254311
0.261387
0.269016
0.277229
0.286056
0.295528
0.305674
0.316519
0.328086
0.340393
0.35345
0.367256
0.381803
0.397067
0.41301
0.429576
0.446692
0.464261
0.482169
0.500277
0.518423
0.536427
0.554087
0.571187
0.587496
0.602781
0.616802
0.62933
0.640149
0.649062
0.655903
0.660541
0.662881
0.199375
0.199731
0.200442
0.201512
0.202941
0.204735
0.206898
0.209435
0.212356
0.21567
0.219388
0.223525
0.228099
0.233128
0.238635
0.244646
0.251189
0.258295
0.265997
0.274332
0.283335
0.293046
0.303501
0.314738
0.32679
0.339685
0.35345
0.368097
0.383635
0.400054
0.417334
0.435436
0.454299
0.473844
0.493965
0.514531
0.535383
0.556337
0.577182
0.597682
0.61758
0.636603
0.65447
0.670893
0.685594
0.698309
0.708799
0.716859
0.722326
0.725087
0.199486
0.199857
0.200602
0.201722
0.203221
0.205103
0.207377
0.210049
0.213131
0.216635
0.220577
0.224974
0.229849
0.235226
0.241132
0.247598
0.25466
0.262354
0.270723
0.279808
0.289655
0.30031
0.31182
0.32423
0.337581
0.351913
0.367256
0.383635
0.401059
0.419529
0.439023
0.459505
0.480913
0.503158
0.526127
0.549672
0.573616
0.597745
0.621818
0.645557
0.668662
0.690809
0.711659
0.730868
0.748097
0.763025
0.775358
0.784845
0.791287
0.794541
0.199479
0.199868
0.200647
0.201819
0.20339
0.205364
0.207753
0.210565
0.213814
0.217516
0.221691
0.226361
0.231551
0.237291
0.243614
0.250559
0.258167
0.266482
0.275554
0.285434
0.296177
0.307837
0.320472
0.334135
0.348881
0.364756
0.381803
0.400054
0.419529
0.440232
0.462149
0.485246
0.509459
0.534697
0.560835
0.587712
0.615128
0.642844
0.670578
0.698012
0.724792
0.750534
0.774833
0.797276
0.817451
0.834966
0.849461
0.860625
0.868213
0.872049
0.199363
0.199769
0.200583
0.201809
0.203453
0.205523
0.20803
0.210986
0.214409
0.218317
0.222733
0.227684
0.233202
0.23932
0.24608
0.253525
0.261704
0.27067
0.280482
0.291199
0.302886
0.31561
0.329437
0.344434
0.360666
0.378193
0.397067
0.417334
0.439023
0.462149
0.486706
0.512662
0.539958
0.568498
0.598152
0.628745
0.660054
0.69181
0.723695
0.755339
0.786328
0.81621
0.844502
0.870706
0.894321
0.914868
0.931904
0.945046
0.953988
0.958511
0.199145
0.199569
0.200419
0.2017
0.203419
0.205587
0.208215
0.211319
0.21492
0.219039
0.223704
0.228946
0.234802
0.241313
0.248524
0.256488
0.265262
0.274907
0.28549
0.297083
0.309762
0.323603
0.338687
0.355094
0.372902
0.392185
0.41301
0.435436
0.459505
0.485246
0.512662
0.541731
0.572399
0.604571
0.638112
0.672833
0.708495
0.744797
0.781377
0.817814
0.853626
0.888279
0.921198
0.951783
0.979426
1.00354
1.02357
1.03905
1.0496
1.05494
0.198833
0.199275
0.200162
0.201499
0.203295
0.205562
0.208314
0.21157
0.215352
0.219687
0.224607
0.230148
0.236351
0.243265
0.250942
0.259442
0.26883
0.279177
0.290562
0.303066
0.316778
0.331787
0.348188
0.366076
0.385544
0.406683
0.429576
0.454299
0.480913
0.509459
0.539958
0.572399
0.606737
0.642885
0.680704
0.72
0.760514
0.801916
0.843802
0.885691
0.927027
0.967181
1.00547
1.04117
1.07354
1.10186
1.12545
1.14371
1.15617
1.16248
0.198439
0.198899
0.199823
0.201217
0.203091
0.205458
0.208335
0.211745
0.215711
0.220266
0.225445
0.23129
0.237848
0.245173
0.253327
0.262375
0.272394
0.283465
0.295675
0.309121
0.323901
0.340123
0.357894
0.377327
0.398532
0.421619
0.446692
0.473844
0.503158
0.534697
0.568498
0.604571
0.642885
0.683363
0.725872
0.770214
0.816118
0.863228
0.911097
0.959182
1.00684
1.05335
1.09788
1.13957
1.17752
1.21082
1.23863
1.26021
1.27495
1.28243
0.197973
0.198452
0.199413
0.200864
0.202816
0.205284
0.208288
0.211852
0.216004
0.220781
0.226222
0.232374
0.239291
0.247034
0.255671
0.265278
0.27594
0.287749
0.300804
0.315214
0.331093
0.348563
0.36775
0.388782
0.411792
0.43691
0.464261
0.493965
0.526127
0.560835
0.598152
0.638112
0.680704
0.725872
0.773494
0.823379
0.875248
0.928725
0.983325
1.03844
1.09334
1.14718
1.19899
1.24771
1.29225
1.33148
1.36434
1.38991
1.40741
1.4163
0.197449
0.197947
0.198945
0.200452
0.202482
0.205051
0.208181
0.211899
0.216238
0.221236
0.22694
0.2334
0.240678
0.248841
0.257966
0.268137
0.279449
0.292005
0.305918
0.321309
0.338308
0.357054
0.377689
0.400366
0.425235
0.452453
0.482169
0.514531
0.549672
0.587712
0.628745
0.672833
0.72
0.770214
0.823379
0.879318
0.937757
0.99831
1.06046
1.12354
1.18673
1.24904
1.30934
1.36635
1.41871
1.46504
1.50399
1.53438
1.55522
1.56581
0.19688
0.197395
0.19843
0.199994
0.2021
0.204769
0.208024
0.211895
0.216418
0.221637
0.227601
0.234369
0.242007
0.250589
0.260201
0.270937
0.2829
0.296207
0.310983
0.327363
0.345494
0.365531
0.387639
0.411989
0.438758
0.468127
0.500277
0.535383
0.573616
0.615128
0.660054
0.708495
0.760514
0.816118
0.875248
0.937757
1.00339
1.07177
1.14235
1.21443
1.28709
1.3592
1.42943
1.49624
1.55795
1.61283
1.65915
1.6954
1.72032
1.733
0.196278
0.196811
0.197881
0.1995
0.201682
0.204449
0.207826
0.211848
0.216553
0.221989
0.22821
0.235281
0.243274
0.252271
0.262365
0.27366
0.286271
0.300325
0.31596
0.333328
0.352592
0.373925
0.397513
0.423551
0.452242
0.483795
0.518423
0.556337
0.597745
0.642844
0.69181
0.744797
0.801916
0.863228
0.928725
0.99831
1.07177
1.14875
1.22871
1.31092
1.39438
1.47783
1.5597
1.63814
1.71109
1.77632
1.83165
1.8751
1.90503
1.92028
0.195657
0.196207
0.197313
0.198985
0.20124
0.204102
0.207599
0.211766
0.216648
0.222296
0.228768
0.236135
0.244475
0.253878
0.264445
0.276289
0.289536
0.304325
0.320809
0.339153
0.359538
0.382157
0.407218
0.434941
0.465555
0.499301
0.536427
0.577182
0.621818
0.670578
0.723695
0.781377
0.843802
0.911097
0.983325
1.06046
1.14235
1.22871
1.31904
1.4126
1.50834
1.60489
1.70042
1.79274
1.87927
1.95717
2.02359
2.07594
2.11208
2.13053
0.19503
0.195597
0.196736
0.19846
0.200786
0.203739
0.207351
0.211659
0.216711
0.222562
0.229277
0.236929
0.245605
0.255401
0.266426
0.278803
0.292669
0.308174
0.325484
0.344782
0.366264
0.390145
0.416655
0.446038
0.478554
0.514475
0.554087
0.597682
0.645557
0.698012
0.755339
0.817814
0.885691
0.959182
1.03844
1.12354
1.21443
1.31092
1.4126
1.51878
1.62843
1.74007
1.85167
1.96062
2.0637
2.15724
2.23747
2.30092
2.34481
2.36723
0.194412
0.194995
0.196165
0.197938
0.200331
0.203371
0.207091
0.211533
0.216748
0.222793
0.229738
0.237663
0.246659
0.256831
0.268294
0.281182
0.295641
0.311834
0.32994
0.350156
0.372699
0.397801
0.425716
0.456714
0.491084
0.529134
0.571187
0.61758
0.668662
0.724792
0.786328
0.853626
0.927027
1.00684
1.09334
1.18673
1.28709
1.39438
1.50834
1.62843
1.7537
1.88266
2.01314
2.14211
2.26556
2.37866
2.47624
2.55365
2.60725
2.63465
0.193814
0.194412
0.195612
0.19743
0.199886
0.203007
0.20683
0.211397
0.216764
0.222991
0.230153
0.238334
0.247632
0.258157
0.270034
0.283404
0.298424
0.315267
0.334127
0.355217
0.378768
0.405034
0.434291
0.466835
0.502986
0.543085
0.587496
0.636603
0.690809
0.750534
0.81621
0.888279
0.967181
1.05335
1.14718
1.24904
1.3592
1.47783
1.60489
1.74007
1.88266
2.03135
2.18395
2.33711
2.48591
2.62387
2.74358
2.83865
2.90443
2.938
0.19325
0.19386
0.195088
0.196948
0.199461
0.202658
0.206574
0.211258
0.216764
0.22316
0.230522
0.23894
0.248517
0.25937
0.27163
0.285447
0.300988
0.318437
0.338
0.359903
0.384397
0.411753
0.442269
0.476267
0.514096
0.556133
0.602781
0.65447
0.711659
0.774833
0.844502
0.921198
1.00547
1.09788
1.19899
1.30934
1.42943
1.5597
1.70042
1.85167
2.01314
2.18395
2.36225
2.54467
2.7255
2.89584
3.04419
3.16165
3.24256
3.28372
0.192729
0.193352
0.194604
0.196502
0.199068
0.202331
0.206333
0.211121
0.216755
0.223302
0.230846
0.239479
0.249309
0.260458
0.273067
0.287291
0.303305
0.321306
0.34151
0.364157
0.389513
0.417868
0.44954
0.484876
0.524253
0.568081
0.616802
0.670893
0.730868
0.797276
0.870706
0.951783
1.04117
1.13957
1.24771
1.36635
1.49624
1.63814
1.79274
1.96062
2.14211
2.33711
2.54467
2.76227
2.98417
3.19856
3.38452
3.53012
3.62942
3.67963
0.192262
0.192896
0.19417
0.196101
0.198713
0.202036
0.206113
0.210994
0.216739
0.223421
0.231124
0.239947
0.25
0.261413
0.27433
0.288914
0.305349
0.32384
0.344613
0.367923
0.394047
0.423294
0.455999
0.492533
0.5333
0.578739
0.62933
0.685594
0.748097
0.817451
0.894321
0.979426
1.07354
1.17752
1.29225
1.41871
1.55795
1.71109
1.87927
2.0637
2.26556
2.48591
2.7255
2.98417
3.25915
3.53861
3.77427
3.95403
4.07457
4.13495
0.191859
0.192502
0.193795
0.195754
0.198405
0.201779
0.20592
0.210879
0.21672
0.223517
0.231357
0.240342
0.250587
0.262225
0.275406
0.290299
0.307095
0.326006
0.347269
0.371149
0.397935
0.42795
0.461549
0.499119
0.54109
0.587929
0.640149
0.698309
0.763025
0.834966
0.914868
1.00354
1.10186
1.21082
1.33148
1.46504
1.61283
1.77632
1.95717
2.15724
2.37866
2.62387
2.89584
3.19856
3.53861
3.93157
4.22914
4.44646
4.58922
4.66005
0.191527
0.192177
0.193485
0.195468
0.198151
0.201567
0.205759
0.210783
0.216702
0.223592
0.231544
0.240661
0.251063
0.262885
0.276282
0.291428
0.30852
0.327776
0.349441
0.373789
0.401119
0.431767
0.466102
0.504528
0.547494
0.595492
0.649062
0.708799
0.775358
0.849461
0.931904
1.02357
1.12545
1.23863
1.36434
1.50399
1.65915
1.83165
2.02359
2.23747
2.47624
2.74358
3.04419
3.38452
3.77427
4.22914
4.57364
4.82288
4.98532
5.06553
0.191272
0.191928
0.193248
0.195249
0.197955
0.201403
0.205635
0.210708
0.216686
0.223648
0.231685
0.240903
0.251424
0.263387
0.276949
0.292288
0.309606
0.329126
0.351099
0.375804
0.403552
0.434686
0.469585
0.508669
0.552401
0.601291
0.655903
0.716859
0.784845
0.860625
0.945046
1.03905
1.14371
1.26021
1.38991
1.53438
1.6954
1.8751
2.07594
2.30092
2.55365
2.83865
3.16165
3.53012
3.95403
4.44646
4.82288
5.09566
5.27328
5.36087
0.1911
0.19176
0.193087
0.1951
0.197823
0.201292
0.205551
0.210657
0.216675
0.223685
0.231779
0.241066
0.251667
0.263725
0.277398
0.292868
0.310339
0.330037
0.352218
0.377166
0.405196
0.436659
0.471941
0.511471
0.555723
0.60522
0.660541
0.722326
0.791287
0.868213
0.953988
1.0496
1.15617
1.27495
1.40741
1.55522
1.72032
1.90503
2.11208
2.34481
2.60725
2.90443
3.24256
3.62942
4.07457
4.58922
4.98532
5.27328
5.46098
5.55356
0.191013
0.191674
0.193006
0.195024
0.197756
0.201235
0.205508
0.21063
0.216668
0.223703
0.231826
0.241147
0.251789
0.263894
0.277624
0.29316
0.310707
0.330495
0.352781
0.377851
0.406024
0.437652
0.473127
0.512883
0.557398
0.607201
0.662881
0.725087
0.794541
0.872049
0.958511
1.05494
1.16248
1.28243
1.4163
1.56581
1.733
1.92028
2.13053
2.36723
2.63465
2.938
3.28372
3.67963
4.13495
4.66005
5.06553
5.36087
5.55356
5.64863
)
;

boundaryField
{
    walls
    {
        type            zeroGradient;
    }
    frontAndBack
    {
        type            empty;
    }
}


// ************************************************************************* //
