/*--------------------------------*- C++ -*----------------------------------*\
| =========                 |                                                 |
| \\      /  F ield         | OpenFOAM: The Open Source CFD Toolbox           |
|  \\    /   O peration     | Version:  2406                                  |
|   \\  /    A nd           | Website:  www.openfoam.com                      |
|    \\/     M anipulation  |                                                 |
\*---------------------------------------------------------------------------*/
FoamFile
{
    version     2.0;
    format      ascii;
    arch        "LSB;label=32;scalar=64";
    class       volScalarField;
    location    "300";
    object      k;
}
// * * * * * * * * * * * * * * * * * * * * * * * * * * * * * * * * * * * * * //

dimensions      [0 2 -2 0 0 0 0];

internalField   nonuniform List<scalar> 
12225
(
0.537047
0.802586
0.972039
1.06005
1.09305
1.08912
1.07641
1.05005
1.0206
0.991835
0.965002
0.940048
0.918514
0.89785
0.88234
0.864895
0.85619
0.84062
0.37817
0.388999
0.401828
0.416478
0.430058
0.445363
0.459844
0.478599
0.496741
0.520536
0.537382
0.559791
0.574394
0.595243
0.607233
0.626353
0.635136
0.652075
0.374127
0.373403
0.372009
0.368358
0.364399
0.35912
0.354367
0.349251
0.345356
0.342023
0.339536
0.337484
0.335984
0.334935
0.334122
0.333823
0.333332
0.333774
0.373874
0.371934
0.369937
0.366564
0.36366
0.359759
0.356442
0.352183
0.348625
0.34432
0.34083
0.336706
0.333385
0.329499
0.326366
0.322827
0.319904
0.316761
0.373877
0.371691
0.369702
0.366898
0.364484
0.361583
0.359156
0.356215
0.353705
0.350692
0.34812
0.345057
0.342493
0.339489
0.337028
0.33412
0.331832
0.329032
0.373879
0.371634
0.369649
0.367246
0.365095
0.362719
0.360669
0.358394
0.356387
0.354133
0.352131
0.349875
0.347889
0.345654
0.343737
0.341546
0.339742
0.337604
0.373867
0.371609
0.369592
0.367416
0.365413
0.363329
0.361461
0.359523
0.357764
0.35591
0.354211
0.352401
0.350751
0.348981
0.347397
0.345672
0.344176
0.342493
0.373854
0.371592
0.369531
0.367462
0.365527
0.3636
0.361823
0.360057
0.358421
0.356776
0.355241
0.353678
0.352222
0.350725
0.349345
0.347906
0.346607
0.345215
0.373844
0.37158
0.369483
0.367449
0.365538
0.363682
0.361944
0.360259
0.358678
0.357136
0.355681
0.354249
0.352899
0.351556
0.350296
0.349029
0.347852
0.346646
0.373837
0.371573
0.369451
0.367424
0.365512
0.36368
0.361953
0.360299
0.358737
0.357236
0.355815
0.354442
0.353141
0.351876
0.350678
0.349505
0.348396
0.3473
0.373833
0.371567
0.369431
0.367401
0.365482
0.363655
0.361926
0.360278
0.358718
0.357227
0.355814
0.354461
0.353177
0.351943
0.35077
0.349639
0.348562
0.347522
0.37383
0.371562
0.369419
0.367385
0.36546
0.36363
0.361896
0.360247
0.358682
0.357191
0.355776
0.354425
0.353141
0.351915
0.350746
0.349629
0.348561
0.347539
0.373828
0.371559
0.369411
0.367374
0.365443
0.36361
0.361871
0.360218
0.358648
0.357154
0.355733
0.354381
0.353093
0.351865
0.350695
0.349579
0.348512
0.347495
0.373827
0.371556
0.369404
0.367363
0.365428
0.363592
0.361848
0.360191
0.358616
0.357118
0.355692
0.354335
0.353042
0.35181
0.350635
0.349516
0.348446
0.347427
0.373826
0.371553
0.369398
0.367355
0.365416
0.363576
0.361828
0.360168
0.358588
0.357086
0.355656
0.354294
0.352997
0.351761
0.350581
0.349457
0.348383
0.34736
0.373826
0.371551
0.369394
0.367348
0.365407
0.363564
0.361813
0.360149
0.358566
0.35706
0.355626
0.35426
0.352959
0.351719
0.350536
0.349408
0.348331
0.347304
0.373825
0.37155
0.369391
0.367344
0.3654
0.363555
0.361801
0.360134
0.358548
0.357039
0.355602
0.354234
0.35293
0.351686
0.3505
0.34937
0.34829
0.34726
0.373825
0.371549
0.36939
0.367341
0.365396
0.363549
0.361793
0.360124
0.358537
0.357025
0.355586
0.354216
0.352909
0.351664
0.350475
0.349342
0.34826
0.347228
0.373825
0.371549
0.36939
0.36734
0.365395
0.363547
0.36179
0.36012
0.358531
0.357019
0.355579
0.354206
0.352899
0.351652
0.350462
0.349328
0.348245
0.347211
0.373825
0.37155
0.369391
0.367342
0.365397
0.36355
0.361794
0.360124
0.358535
0.357023
0.355583
0.35421
0.352903
0.351656
0.350466
0.349332
0.348249
0.347215
0.373826
0.371551
0.369394
0.367346
0.365403
0.363556
0.361802
0.360133
0.358545
0.357034
0.355595
0.354223
0.352916
0.35167
0.350482
0.349347
0.348265
0.347232
0.373826
0.371554
0.369398
0.367353
0.365412
0.363568
0.361815
0.360148
0.358562
0.357053
0.355615
0.354245
0.352938
0.351692
0.350503
0.349369
0.348285
0.347251
0.373827
0.371558
0.369405
0.367364
0.365425
0.363585
0.361834
0.360169
0.358583
0.357073
0.355632
0.354258
0.352945
0.351692
0.350492
0.349346
0.348248
0.347199
0.37383
0.371567
0.369413
0.367379
0.365441
0.363602
0.361845
0.360172
0.358569
0.357039
0.35557
0.354164
0.35281
0.351513
0.350261
0.349062
0.347901
0.346793
0.373843
0.371579
0.369402
0.367376
0.365425
0.36357
0.361767
0.36004
0.358354
0.356735
0.355155
0.353634
0.352144
0.350712
0.349306
0.347959
0.346634
0.345373
0.373879
0.37153
0.369274
0.367264
0.365261
0.363343
0.361379
0.359478
0.357553
0.355693
0.353825
0.352019
0.350213
0.348473
0.346738
0.345081
0.343428
0.341869
0.373915
0.371251
0.368916
0.367052
0.364897
0.362814
0.360434
0.358128
0.355633
0.353237
0.35074
0.348349
0.345919
0.3436
0.341291
0.339103
0.336947
0.33492
0.373587
0.370692
0.368994
0.367717
0.365307
0.362974
0.359787
0.356838
0.353376
0.350286
0.347015
0.344139
0.341344
0.338867
0.336701
0.334663
0.333068
0.331436
0.37298
0.374944
0.379227
0.385262
0.390284
0.396483
0.40156
0.40795
0.413619
0.420743
0.427726
0.436111
0.444565
0.45409
0.463781
0.472486
0.481705
0.489693
0.462295
0.611423
0.72767
0.813583
0.871385
0.909559
0.930164
0.942119
0.94289
0.940922
0.936035
0.928042
0.918985
0.909304
0.899619
0.890117
0.880858
0.871974
3.73951e-06
2.91992e-05
7.53146e-05
0.000146753
0.000235016
0.000345724
0.00054676
0.000880926
0.00138261
0.00202281
0.00270706
0.0033742
0.00399336
0.00452768
0.00498436
0.00534321
0.00560967
0.00579413
0.00588507
0.00586905
0.00582998
0.00570007
0.00549168
0.0051456
0.00466509
0.00403759
0.00327299
0.00241306
0.00154359
0.000800429
0.000310608
8.66455e-05
3.34344e-05
3.21629e-05
3.6306e-05
3.96603e-05
4.16464e-05
4.30308e-05
4.74217e-05
6.71609e-05
0.000174766
0.00037687
0.000780837
0.00122388
0.00156016
0.00168659
0.00164952
0.00154548
0.00144263
0.00141204
0.00156244
0.00209287
0.00227081
0.00269541
0.00351864
0.00601982
0.017862
0.0371206
0.0569508
0.075965
0.0938219
0.110625
0.126501
0.141666
0.156304
0.170177
0.183184
0.195535
0.207248
0.218447
0.22918
0.239528
0.249537
0.259263
0.268735
0.277988
0.28704
0.295928
0.304653
0.313233
0.321675
0.32998
0.338156
0.346197
0.354107
0.361878
0.369507
0.376988
0.384312
0.391473
0.398461
0.405265
0.411876
0.418285
0.424484
0.430469
0.436243
0.441819
0.44723
0.452528
0.45765
0.462581
0.467318
0.471861
0.476199
0.48033
0.484246
0.487942
0.491411
0.49465
0.497654
0.500418
0.502939
0.505216
0.50725
0.509042
0.510599
0.51193
0.513053
0.513986
0.514746
0.515233
0.515379
0.514389
0.513988
0.513502
0.511019
0.509773
0.507795
0.505741
0.503334
0.500654
0.497941
0.494822
0.491554
0.488016
0.484297
0.480347
0.476208
0.471845
0.467309
0.462564
0.457686
0.452612
0.447413
0.442062
0.436591
0.430998
0.425308
0.419516
0.413649
0.407704
0.401703
0.395612
0.389497
0.383368
0.377273
0.371204
0.365182
0.359226
0.353348
0.347562
0.341874
0.336303
0.330855
0.325543
0.32037
0.315352
0.310494
0.305804
0.301271
0.296894
0.292669
0.288575
0.284531
0.280503
0.276468
0.272684
0.270496
0.257554
1.88327e-05
1.25668e-05
4.44514e-05
0.000121252
0.00033487
0.000918344
0.00219476
0.0040806
0.00631021
0.00862449
0.010775
0.0125798
0.0139669
0.0148938
0.0154709
0.0156158
0.0155438
0.015321
0.0148996
0.0143425
0.0136111
0.0126887
0.0116065
0.01035
0.00900614
0.00752693
0.00611411
0.00477879
0.00354892
0.00245594
0.00157564
0.000945858
0.000548595
0.000322931
0.000203577
0.000144573
0.000129946
0.000157399
0.000265576
0.000395534
0.00134362
0.00255032
0.00494656
0.00725467
0.00876943
0.00924114
0.00901213
0.00840289
0.00843121
0.00925209
0.0119429
0.0162856
0.0218181
0.030891
0.0438349
0.0620368
0.0877906
0.114826
0.142238
0.170579
0.198663
0.227311
0.255604
0.283856
0.311467
0.338463
0.364585
0.389864
0.414237
0.43777
0.460506
0.482542
0.503959
0.524833
0.545238
0.565239
0.584884
0.604254
0.623364
0.642251
0.660942
0.679445
0.697781
0.715949
0.733956
0.7518
0.769477
0.78698
0.8043
0.821425
0.83834
0.855028
0.871468
0.887638
0.903513
0.919064
0.934259
0.949062
0.963439
0.977371
0.991015
1.00437
1.01743
1.03019
1.04263
1.05474
1.06649
1.07789
1.0889
1.09952
1.10973
1.11951
1.12886
1.13776
1.14619
1.15415
1.16163
1.16861
1.1751
1.18107
1.18654
1.19147
1.19588
1.19975
1.20324
1.20632
1.20902
1.21106
1.2122
1.21289
1.2124
1.21183
1.21093
1.20931
1.20717
1.20446
1.20124
1.19749
1.19318
1.18842
1.18305
1.17734
1.17101
1.16441
1.15723
1.14975
1.14182
1.13359
1.12496
1.11607
1.10685
1.09741
1.0877
1.0778
1.06767
1.05741
1.04706
1.03668
1.0263
1.01594
1.00566
0.995476
0.98544
0.975576
0.965917
0.956492
0.947334
0.938467
0.929922
0.921719
0.913871
0.906378
0.899242
0.892426
0.885858
0.879426
0.872999
0.866176
0.857772
0.836197
2.31469e-05
1.12938e-05
5.2341e-05
0.000221497
0.000921489
0.0022802
0.00490724
0.00796242
0.011051
0.0138932
0.0163355
0.0182972
0.0197532
0.0207461
0.0213373
0.0215724
0.0215379
0.0213576
0.0210201
0.0205103
0.0198787
0.0191185
0.0182296
0.0171888
0.0159744
0.0146036
0.012982
0.0111742
0.00928079
0.00741045
0.0056416
0.00409485
0.00277678
0.00188143
0.00130547
0.000956081
0.000803929
0.000657761
0.00111964
0.0016176
0.00466334
0.00921133
0.0151716
0.019904
0.0226653
0.0242888
0.0257148
0.0276901
0.0325052
0.0422409
0.0578681
0.0765185
0.0964267
0.121869
0.149435
0.181485
0.214778
0.250861
0.288881
0.328276
0.368185
0.408238
0.447635
0.486082
0.523154
0.558758
0.592825
0.625436
0.656699
0.686774
0.715816
0.743967
0.771366
0.798121
0.824324
0.850068
0.875421
0.900433
0.925142
0.949579
0.973766
0.997718
1.02145
1.04495
1.06825
1.09132
1.11417
1.13679
1.15918
1.18132
1.2032
1.22482
1.24616
1.26721
1.28797
1.30841
1.32854
1.34835
1.36784
1.38701
1.40582
1.42427
1.44233
1.45998
1.4772
1.49397
1.51027
1.52609
1.5414
1.55618
1.57042
1.5841
1.59719
1.60969
1.62157
1.63282
1.64342
1.65336
1.66263
1.6712
1.67907
1.68621
1.69263
1.69833
1.7033
1.70754
1.71101
1.71366
1.71542
1.71622
1.71659
1.71641
1.71518
1.71309
1.71023
1.7066
1.70223
1.69713
1.69129
1.68478
1.67754
1.6697
1.66116
1.65209
1.64238
1.63216
1.62139
1.61015
1.59842
1.5863
1.57376
1.56089
1.54769
1.53424
1.52053
1.50666
1.49265
1.47857
1.46446
1.45037
1.43635
1.42246
1.40873
1.39521
1.38194
1.36896
1.35632
1.34405
1.33219
1.32077
1.30982
1.29937
1.28941
1.27996
1.27095
1.26231
1.25386
1.24527
1.2349
1.21555
2.33295e-05
2.80279e-05
0.000191475
0.000798223
0.00255287
0.00608856
0.0105185
0.0148788
0.0187598
0.021958
0.0244072
0.0261251
0.0271874
0.0277345
0.0278345
0.0277097
0.0273698
0.0268299
0.026182
0.0254532
0.024663
0.0238093
0.0228892
0.0218879
0.020786
0.0195617
0.0181818
0.0166259
0.0148922
0.0130185
0.011087
0.00918768
0.00742559
0.00581898
0.0044368
0.00355105
0.00283673
0.0029128
0.0042518
0.00771466
0.0180425
0.0295324
0.0388138
0.0450775
0.048751
0.0544111
0.0662404
0.0817866
0.0987185
0.117338
0.137366
0.159031
0.186061
0.218222
0.253676
0.293868
0.335775
0.37998
0.424831
0.469996
0.514795
0.558915
0.602
0.643884
0.68443
0.723613
0.76146
0.798053
0.833494
0.867914
0.901437
0.934166
0.966207
0.997648
1.02857
1.05906
1.08914
1.11888
1.1483
1.17743
1.20628
1.23487
1.2632
1.29128
1.31911
1.34669
1.37401
1.40107
1.42786
1.45436
1.48059
1.50651
1.53213
1.55743
1.58241
1.60705
1.63134
1.65527
1.67882
1.70197
1.72469
1.74696
1.76876
1.79006
1.81083
1.83106
1.85073
1.8698
1.88827
1.9061
1.92327
1.93976
1.95556
1.97064
1.98497
1.99855
2.01135
2.02336
2.03454
2.0449
2.0544
2.06304
2.0708
2.07767
2.08364
2.08868
2.09279
2.09595
2.09813
2.09921
2.09968
2.09946
2.09803
2.09562
2.09227
2.08802
2.08286
2.07683
2.06993
2.06221
2.05365
2.04433
2.03423
2.02343
2.01192
1.99975
1.98695
1.97356
1.9596
1.94514
1.93019
1.91482
1.89907
1.88298
1.86659
1.84999
1.8332
1.8163
1.79934
1.78237
1.76546
1.74867
1.73203
1.71562
1.69947
1.68363
1.66817
1.65311
1.63851
1.62441
1.61085
1.59787
1.58548
1.57369
1.56248
1.55179
1.54148
1.53129
1.51971
1.50215
2.92468e-05
9.14262e-05
0.000631691
0.00244939
0.00687168
0.0132754
0.0193645
0.0244693
0.0283395
0.0310037
0.0326416
0.0334712
0.0336853
0.0335359
0.0331038
0.032425
0.0316281
0.0307615
0.0298604
0.0289455
0.0280258
0.0270985
0.0261522
0.0251714
0.0241371
0.0230244
0.0218071
0.0204609
0.0189715
0.017327
0.0155557
0.0137243
0.0119442
0.0103039
0.00895921
0.00748274
0.00755454
0.00967925
0.0176539
0.034128
0.0529116
0.0685296
0.0805047
0.0905638
0.101301
0.113427
0.126898
0.141773
0.158712
0.178928
0.205135
0.236064
0.272478
0.312941
0.356017
0.401183
0.447009
0.493472
0.539872
0.586103
0.631941
0.677247
0.721842
0.765616
0.808483
0.850399
0.891354
0.931379
0.970517
1.00883
1.04641
1.08331
1.11961
1.15538
1.19068
1.22556
1.26006
1.29422
1.32804
1.36157
1.3948
1.42775
1.46042
1.49281
1.52492
1.55674
1.58828
1.61953
1.65047
1.68109
1.71139
1.74136
1.77097
1.80022
1.8291
1.85758
1.88565
1.91329
1.94048
1.96719
1.99339
2.01906
2.04418
2.06872
2.09265
2.11595
2.13859
2.16054
2.18179
2.20231
2.22207
2.24105
2.25922
2.27657
2.29307
2.3087
2.32344
2.33726
2.35015
2.36209
2.37305
2.38303
2.39201
2.39996
2.40688
2.41274
2.41755
2.42129
2.42396
2.42544
2.42605
2.42585
2.42439
2.42182
2.41819
2.41351
2.40782
2.40112
2.39344
2.38481
2.37524
2.36478
2.35344
2.34129
2.32832
2.31459
2.30013
2.28498
2.26918
2.25277
2.23581
2.21834
2.20041
2.18207
2.16339
2.14442
2.12521
2.10584
2.08637
2.06685
2.04736
2.02795
2.00869
1.98963
1.97083
1.95236
1.93425
1.91657
1.89936
1.88268
1.86657
1.85108
1.83624
1.82207
1.80858
1.79574
1.78344
1.77147
1.75856
1.74141
2.36534e-05
0.000275179
0.0018503
0.00652481
0.0155459
0.023842
0.030183
0.0344816
0.0370604
0.0383928
0.0388634
0.0387589
0.0383071
0.0375023
0.0365313
0.035467
0.0343672
0.0332719
0.0322067
0.0311837
0.030204
0.0292586
0.0283314
0.027403
0.0264496
0.0254437
0.0243552
0.0231648
0.0218638
0.0204339
0.0188845
0.0172363
0.015512
0.0136439
0.012839
0.013968
0.019618
0.0338883
0.0570538
0.0813351
0.101965
0.117278
0.128109
0.136866
0.146001
0.156882
0.170389
0.188699
0.212573
0.24192
0.276938
0.316179
0.358691
0.402999
0.448292
0.494175
0.540272
0.586538
0.632809
0.679071
0.725251
0.771266
0.81701
0.862377
0.907275
0.951626
0.995377
1.03851
1.08103
1.12294
1.1643
1.20513
1.24548
1.28538
1.32488
1.36402
1.4028
1.44126
1.4794
1.51724
1.55478
1.59202
1.62897
1.66562
1.70196
1.738
1.77371
1.8091
1.84414
1.87883
1.91316
1.9471
1.98064
2.01376
2.04645
2.07868
2.11043
2.14168
2.1724
2.20256
2.23215
2.26113
2.28947
2.31715
2.34414
2.37041
2.39593
2.42068
2.44463
2.46774
2.49001
2.51139
2.53187
2.55142
2.57002
2.58764
2.60426
2.61985
2.6344
2.64789
2.66029
2.67159
2.68177
2.69082
2.69872
2.70545
2.71101
2.7154
2.71862
2.72057
2.72141
2.72134
2.71995
2.71733
2.71354
2.70859
2.7025
2.69529
2.68699
2.67762
2.66721
2.6558
2.64341
2.63008
2.61584
2.60075
2.58482
2.5681
2.55064
2.53248
2.51368
2.49429
2.47436
2.45395
2.43312
2.41193
2.39045
2.36874
2.34687
2.32491
2.30293
2.281
2.25917
2.23753
2.21612
2.195
2.17425
2.15391
2.13405
2.11471
2.09596
2.07784
2.06041
2.0437
2.02773
2.01252
1.99797
1.98393
1.9693
1.95147
6.87751e-05
0.000859809
0.00501207
0.0156923
0.0269853
0.0348733
0.0396566
0.0422705
0.0434783
0.043745
0.0434429
0.0426654
0.0415557
0.0402717
0.038905
0.037526
0.0361854
0.0349161
0.0337348
0.0326451
0.0316391
0.0307006
0.029808
0.0289354
0.0280507
0.0271204
0.0260979
0.024959
0.0236911
0.0222878
0.0207978
0.0195493
0.0189285
0.0197132
0.0240604
0.0355154
0.0565706
0.0835072
0.109521
0.131029
0.145818
0.154684
0.160953
0.1679
0.177537
0.192786
0.21352
0.240171
0.272362
0.309239
0.349739
0.392378
0.436241
0.480702
0.525533
0.570633
0.615976
0.661598
0.707512
0.75373
0.800226
0.846936
0.893771
0.940619
0.987376
1.03395
1.08027
1.12627
1.17194
1.21724
1.26219
1.30678
1.35104
1.39497
1.43859
1.48192
1.52496
1.56771
1.61018
1.65235
1.69424
1.73582
1.77709
1.81805
1.85868
1.89898
1.93892
1.97851
2.01771
2.05652
2.09492
2.13288
2.17039
2.20742
2.24396
2.27997
2.31543
2.35031
2.3846
2.41825
2.45125
2.48356
2.51516
2.54601
2.57608
2.60534
2.63376
2.66132
2.68797
2.7137
2.73848
2.76227
2.78505
2.80681
2.8275
2.84711
2.86561
2.88297
2.89918
2.91422
2.92806
2.94069
2.95209
2.96225
2.97115
2.97878
2.98513
2.99022
2.99402
2.99649
2.99763
2.99774
2.99648
2.9939
2.99002
2.98487
2.97847
2.97085
2.96202
2.95201
2.94086
2.92859
2.91524
2.90085
2.88546
2.86909
2.85179
2.8336
2.81457
2.79476
2.7742
2.75297
2.73111
2.70869
2.68578
2.66243
2.63871
2.6147
2.59046
2.56608
2.54161
2.51714
2.49273
2.46844
2.44436
2.42053
2.39704
2.37393
2.35128
2.32914
2.30758
2.28667
2.26644
2.24697
2.2283
2.21043
2.19334
2.17689
2.16011
2.14082
0.000552185
0.0025287
0.0118467
0.0274567
0.0379041
0.0438341
0.0469579
0.048357
0.0486177
0.0481793
0.0471509
0.0457459
0.0441327
0.0424261
0.0407166
0.0390716
0.0375359
0.036134
0.0348727
0.0337449
0.0327332
0.0318133
0.0309566
0.0301294
0.0292874
0.028382
0.0274105
0.0264291
0.0254991
0.0247808
0.0246427
0.0257688
0.029852
0.0390013
0.0566821
0.0813194
0.107591
0.132015
0.151514
0.164292
0.171467
0.176341
0.182791
0.194196
0.211175
0.234243
0.262853
0.296379
0.333802
0.373957
0.415754
0.458339
0.501357
0.54469
0.588358
0.632416
0.676938
0.721999
0.767651
0.813918
0.860785
0.908193
0.956056
1.00428
1.05276
1.10139
1.1501
1.19879
1.24743
1.29596
1.34437
1.39261
1.4407
1.48861
1.53633
1.58386
1.63118
1.67827
1.72513
1.77172
1.81803
1.86404
1.90974
1.95512
2.00014
2.0448
2.08908
2.13297
2.17644
2.21946
2.26203
2.30411
2.34568
2.38671
2.42717
2.46705
2.5063
2.54491
2.58284
2.62007
2.65655
2.69227
2.72717
2.76125
2.79445
2.82675
2.85811
2.88851
2.91791
2.94627
2.97357
2.99979
3.02489
3.04884
3.07163
3.09322
3.11359
3.13271
3.15057
3.16714
3.18241
3.19636
3.20896
3.22022
3.23011
3.23863
3.24577
3.25153
3.25592
3.2589
3.2604
3.2607
3.2596
3.25707
3.25313
3.24782
3.24116
3.23316
3.22386
3.21327
3.20143
3.18837
3.17412
3.15873
3.14222
3.12465
3.10603
3.08643
3.06589
3.04446
3.0222
2.99916
2.97541
2.95102
2.92603
2.90054
2.87459
2.84828
2.82166
2.79482
2.76783
2.74077
2.7137
2.68671
2.65985
2.6332
2.60684
2.58083
2.55524
2.53014
2.5056
2.48169
2.45846
2.43601
2.41436
2.39358
2.37362
2.35443
2.3351
2.31374
0.00198637
0.00604938
0.0225993
0.0382604
0.0468736
0.0513018
0.053327
0.0538293
0.0533651
0.0521763
0.0504984
0.0485447
0.046463
0.0443718
0.0423615
0.0404948
0.0388091
0.0373194
0.0360217
0.0348987
0.0339241
0.0330679
0.0323022
0.0316086
0.030941
0.0303252
0.029866
0.0297162
0.0301746
0.0319314
0.0359619
0.0440262
0.0587482
0.0790723
0.102097
0.125495
0.146476
0.162873
0.173678
0.18028
0.18592
0.194277
0.207474
0.226501
0.251112
0.280751
0.314475
0.35134
0.390363
0.43065
0.471576
0.512852
0.554452
0.596447
0.638944
0.682051
0.725872
0.770494
0.815983
0.86236
0.909607
0.957686
1.00653
1.05605
1.10614
1.15672
1.20768
1.25895
1.31044
1.3621
1.41388
1.46573
1.51761
1.56949
1.62133
1.6731
1.72476
1.77628
1.82761
1.87872
1.92957
1.98013
2.03038
2.08029
2.12983
2.17898
2.22771
2.27602
2.32386
2.37122
2.41806
2.46436
2.51009
2.55521
2.5997
2.64353
2.68667
2.72908
2.77074
2.81161
2.85164
2.89082
2.92909
2.96643
3.00279
3.03816
3.07248
3.10573
3.13786
3.16886
3.19868
3.22729
3.25468
3.2808
3.30565
3.32918
3.35137
3.3722
3.39166
3.40971
3.42634
3.44154
3.45529
3.46759
3.47841
3.48775
3.49562
3.50201
3.50692
3.51035
3.51221
3.5127
3.51172
3.50922
3.50522
3.49975
3.49282
3.48446
3.47469
3.46355
3.45105
3.43723
3.42212
3.40576
3.38819
3.36943
3.34954
3.32856
3.30654
3.28353
3.25959
3.23479
3.20917
3.18282
3.15578
3.12815
3.09997
3.07134
3.04232
3.013
2.98344
2.95373
2.92394
2.89414
2.86442
2.83484
2.80549
2.77644
2.74777
2.71955
2.69186
2.66477
2.63836
2.6127
2.58786
2.56389
2.54081
2.51856
2.49633
2.47245
0.00424552
0.0117705
0.033776
0.0479362
0.0549263
0.0582291
0.0593864
0.0591532
0.0579855
0.0561371
0.0538835
0.0514209
0.0489119
0.0464842
0.0442301
0.042208
0.0404466
0.0389522
0.0377142
0.0367103
0.0359071
0.0352739
0.034813
0.0345869
0.0345719
0.0349698
0.0360823
0.0383461
0.0426785
0.0506055
0.0627561
0.0788477
0.0974048
0.11731
0.136676
0.153735
0.167207
0.177054
0.18459
0.192372
0.203022
0.218376
0.238973
0.264534
0.294294
0.327428
0.363075
0.400459
0.438909
0.477943
0.517333
0.557061
0.597228
0.637967
0.679414
0.721698
0.764936
0.809218
0.854599
0.901112
0.948756
0.997503
1.0473
1.09807
1.14974
1.20219
1.25535
1.30913
1.36343
1.41818
1.47331
1.52876
1.58445
1.64033
1.69635
1.75243
1.80852
1.86455
1.92046
1.97619
2.03169
2.08691
2.14182
2.19637
2.25054
2.30429
2.35759
2.41041
2.46273
2.51451
2.56572
2.61633
2.6663
2.71559
2.76418
2.81203
2.8591
2.90537
2.95079
2.99533
3.03895
3.0816
3.12324
3.16384
3.20336
3.24177
3.27902
3.31508
3.34992
3.38348
3.41576
3.4467
3.47629
3.50451
3.53131
3.55669
3.5806
3.60304
3.62397
3.64339
3.66127
3.6776
3.69238
3.70559
3.71723
3.7273
3.73578
3.74269
3.74803
3.75179
3.75394
3.75456
3.75364
3.75111
3.74699
3.7413
3.73408
3.72534
3.7151
3.70338
3.69023
3.67565
3.6597
3.64239
3.62377
3.60386
3.58272
3.56038
3.53691
3.51235
3.48676
3.46021
3.43275
3.40446
3.37539
3.34562
3.31521
3.28426
3.25282
3.22098
3.18882
3.15641
3.12383
3.09116
3.05849
3.02589
2.99345
2.96125
2.92937
2.8979
2.86691
2.83649
2.80672
2.77767
2.74943
2.72208
2.69563
2.67008
2.64466
2.61784
0.0066086
0.0194707
0.0440337
0.0565598
0.0625198
0.0650594
0.0655488
0.0646715
0.0628605
0.0604389
0.0576708
0.0547754
0.051931
0.0492737
0.0468971
0.0448557
0.0431725
0.041853
0.0408825
0.0402246
0.0399048
0.0398542
0.0401898
0.0410801
0.0427941
0.0458272
0.0507578
0.0581122
0.0681997
0.0806906
0.0952889
0.111268
0.127559
0.143071
0.156824
0.168377
0.178057
0.187047
0.197189
0.210294
0.227553
0.24928
0.275116
0.304398
0.336381
0.370391
0.405835
0.442227
0.479212
0.516599
0.554366
0.592604
0.631457
0.671079
0.711618
0.753214
0.795978
0.839999
0.885346
0.93206
0.980155
1.02962
1.08041
1.13247
1.18572
1.24008
1.29546
1.35176
1.4089
1.46678
1.52531
1.58441
1.64399
1.70395
1.76421
1.82468
1.88527
1.94591
2.00649
2.06693
2.12716
2.18713
2.24678
2.30607
2.36495
2.42338
2.48132
2.53872
2.59557
2.65182
2.70743
2.76238
2.81661
2.87009
2.92279
2.97465
3.02566
3.07576
3.12493
3.1731
3.22025
3.26632
3.31127
3.35506
3.39765
3.439
3.47908
3.51784
3.55524
3.59125
3.62583
3.65896
3.6906
3.72073
3.74933
3.77637
3.80183
3.82568
3.84791
3.8685
3.88744
3.90473
3.92034
3.93429
3.94656
3.95717
3.9661
3.97336
3.97897
3.98292
3.9852
3.98586
3.98489
3.98222
3.97788
3.97191
3.96432
3.95514
3.94439
3.93209
3.91826
3.90294
3.88614
3.86789
3.84823
3.8272
3.80483
3.78117
3.75628
3.73021
3.70301
3.67475
3.64549
3.61528
3.5842
3.55232
3.51971
3.48644
3.45259
3.41823
3.38345
3.34832
3.31292
3.27734
3.24166
3.20598
3.17038
3.13495
3.09978
3.06495
3.03056
2.99668
2.96341
2.93083
2.89904
2.86812
2.83812
2.80907
2.78024
2.75023
0.00849839
0.0281623
0.0529621
0.0647881
0.0701695
0.0721363
0.0721013
0.0706794
0.0683406
0.0654465
0.0622927
0.0591217
0.0561257
0.0534481
0.0511847
0.0493953
0.0480956
0.0473333
0.0470694
0.0471864
0.0478635
0.0492207
0.0514544
0.054832
0.0596387
0.0660515
0.074181
0.0840388
0.0954033
0.107882
0.120957
0.134009
0.146482
0.158034
0.168685
0.178875
0.189566
0.201972
0.21722
0.235953
0.258281
0.283874
0.312188
0.342649
0.374742
0.408043
0.442216
0.477013
0.512291
0.548021
0.584271
0.621175
0.65889
0.697578
0.73739
0.778456
0.820897
0.864809
0.910268
0.957327
1.00601
1.05633
1.10825
1.16174
1.21672
1.27311
1.33083
1.38979
1.44987
1.51099
1.57304
1.63592
1.69949
1.76364
1.82825
1.8932
1.95839
2.0237
2.08901
2.15421
2.21922
2.28397
2.34839
2.41245
2.47606
2.53918
2.60175
2.66372
2.72506
2.78574
2.84571
2.90493
2.96335
3.02094
3.07765
3.13343
3.18825
3.24207
3.29484
3.34652
3.39704
3.44636
3.49444
3.54123
3.58668
3.63077
3.67345
3.71467
3.75441
3.79261
3.82925
3.8643
3.89773
3.92951
3.95963
3.98807
4.01479
4.03979
4.06303
4.08453
4.10425
4.12221
4.1384
4.15281
4.16547
4.17636
4.18549
4.19288
4.19854
4.20248
4.20471
4.20523
4.20407
4.20111
4.19642
4.19004
4.18201
4.17232
4.161
4.14808
4.13356
4.11747
4.09984
4.08067
4.06
4.03786
4.0143
3.98937
3.96311
3.93558
3.90683
3.87692
3.84591
3.81386
3.78082
3.74689
3.71211
3.67657
3.64035
3.6035
3.56612
3.52828
3.49006
3.45156
3.41287
3.37408
3.3353
3.29661
3.25811
3.21988
3.18201
3.1446
3.10774
3.07153
3.03607
3.00147
2.96778
2.93509
2.90269
2.86937
0.00967918
0.0361955
0.061694
0.0732245
0.0781921
0.0797271
0.0792585
0.0773836
0.0746369
0.0714364
0.0681155
0.0649349
0.0620887
0.0597205
0.0579284
0.0568141
0.0563784
0.0564466
0.0572188
0.058706
0.061007
0.0642333
0.0684992
0.0739012
0.0804868
0.08823
0.0970417
0.106732
0.11703
0.127658
0.138354
0.148967
0.159491
0.170111
0.181275
0.19366
0.207987
0.224831
0.244481
0.266902
0.291816
0.318824
0.347516
0.377529
0.408577
0.44044
0.472962
0.506056
0.539703
0.573953
0.60892
0.644752
0.681602
0.719628
0.758981
0.799801
0.842204
0.886288
0.932137
0.979817
1.02937
1.08081
1.13412
1.18929
1.24626
1.30496
1.36529
1.42717
1.49048
1.55509
1.6209
1.68777
1.75553
1.82402
1.89309
1.96259
2.03239
2.10236
2.17236
2.24226
2.31198
2.38142
2.45054
2.51926
2.58751
2.65521
2.7223
2.7887
2.85438
2.9193
2.98343
3.04672
3.10913
3.1706
3.23108
3.29053
3.34891
3.40617
3.46225
3.51712
3.57071
3.62296
3.67382
3.72326
3.77122
3.81768
3.86259
3.9059
3.94758
3.98759
4.02589
4.06246
4.09727
4.13031
4.16155
4.19098
4.21857
4.24431
4.26819
4.2902
4.31033
4.3286
4.345
4.35954
4.37223
4.38308
4.39211
4.39933
4.40477
4.40845
4.41038
4.41055
4.40902
4.40556
4.40036
4.39345
4.38485
4.37457
4.36262
4.34903
4.3338
4.31695
4.2985
4.27842
4.25677
4.23358
4.20889
4.18276
4.15521
4.12631
4.0961
4.06463
4.03196
3.99815
3.96326
3.92735
3.89051
3.85279
3.81426
3.77501
3.73509
3.69459
3.6536
3.61223
3.57056
3.52871
3.48677
3.44484
3.40301
3.36138
3.32003
3.27906
3.23858
3.19869
3.15952
3.12117
3.08373
3.04731
3.01127
2.97458
0.0105344
0.0430209
0.0700323
0.0817263
0.0865304
0.0878016
0.0869863
0.0847408
0.0817141
0.078407
0.0751953
0.0723419
0.0700148
0.0683076
0.0674065
0.0671607
0.0675926
0.0688011
0.0707662
0.0735315
0.0771188
0.0815457
0.0868187
0.0929199
0.0997998
0.107376
0.115545
0.124192
0.133243
0.142679
0.152534
0.16293
0.174106
0.186402
0.200218
0.215918
0.233731
0.253726
0.275804
0.299747
0.32528
0.352132
0.380068
0.40891
0.438527
0.46884
0.499811
0.531451
0.563818
0.597005
0.63113
0.66633
0.702757
0.740567
0.779909
0.82092
0.863724
0.908434
0.955148
1.00395
1.05486
1.10793
1.16316
1.22052
1.27999
1.34149
1.40494
1.47021
1.53719
1.60571
1.67562
1.74674
1.81887
1.8918
1.96533
2.0393
2.11356
2.18797
2.26242
2.33676
2.41091
2.48478
2.55831
2.63143
2.70404
2.77605
2.84735
2.91786
2.98751
3.05629
3.12419
3.19115
3.25713
3.32205
3.38587
3.44853
3.50999
3.57019
3.62908
3.68662
3.74274
3.79737
3.85048
3.902
3.95191
4.00016
4.04671
4.09153
4.13458
4.17581
4.2152
4.25271
4.28834
4.32206
4.35386
4.38373
4.41165
4.43761
4.4616
4.48362
4.50368
4.52177
4.53792
4.55215
4.56446
4.57487
4.58341
4.59011
4.59501
4.59812
4.59948
4.59908
4.59688
4.59271
4.58682
4.57922
4.56993
4.55896
4.54631
4.532
4.51605
4.49844
4.4792
4.45826
4.4357
4.41154
4.38582
4.35859
4.32988
4.29973
4.26818
4.23529
4.2011
4.16566
4.12904
4.09131
4.05252
4.01274
3.97205
3.93052
3.88817
3.84512
3.80147
3.75733
3.7128
3.66797
3.62296
3.57787
3.53278
3.4878
3.44301
3.39852
3.35444
3.31089
3.26801
3.22593
3.18473
3.14457
3.10485
3.06484
0.0109309
0.0501678
0.0785092
0.0904076
0.0950868
0.0961328
0.0950064
0.0924278
0.0891771
0.0859107
0.0830665
0.0808561
0.0793504
0.0786277
0.0784837
0.0790739
0.0804506
0.0825576
0.0853665
0.088865
0.0930384
0.0978685
0.103332
0.109403
0.116056
0.123274
0.131062
0.139455
0.148527
0.158387
0.169192
0.181139
0.194437
0.209273
0.225784
0.244022
0.263946
0.285445
0.308358
0.332513
0.357753
0.383924
0.410928
0.438693
0.467188
0.496419
0.52642
0.557255
0.589012
0.621799
0.655745
0.690996
0.727707
0.766036
0.806134
0.848141
0.892187
0.938396
0.986888
1.0377
1.09085
1.14641
1.20438
1.26476
1.32752
1.39259
1.45986
1.5292
1.60045
1.67335
1.74765
1.82312
1.89956
1.97674
2.05446
2.13249
2.21064
2.28886
2.36713
2.44534
2.52333
2.60105
2.67845
2.75541
2.8318
2.90751
2.98241
3.0564
3.12941
3.20146
3.27253
3.34253
3.41143
3.47913
3.54559
3.61073
3.67452
3.73691
3.79784
3.85726
3.9151
3.97132
4.02584
4.07863
4.12965
4.17886
4.22624
4.27174
4.31533
4.35698
4.39665
4.43432
4.46998
4.50362
4.53523
4.56481
4.59234
4.61783
4.64126
4.66265
4.68199
4.69932
4.71465
4.72802
4.73943
4.74892
4.75652
4.76227
4.76622
4.76842
4.76888
4.76763
4.76439
4.75928
4.75249
4.74402
4.73389
4.72211
4.70867
4.69359
4.67686
4.65849
4.63847
4.61676
4.59339
4.5684
4.54181
4.51365
4.48393
4.4527
4.42
4.38586
4.35033
4.31346
4.2753
4.23592
4.19537
4.15372
4.11105
4.06741
4.02281
3.97739
3.93126
3.88453
3.83729
3.78966
3.74173
3.6936
3.64539
3.59718
3.54906
3.50113
3.45354
3.40643
3.35993
3.31418
3.26929
3.22544
3.18207
3.13885
0.0110627
0.0571259
0.0868338
0.0990539
0.103649
0.104461
0.102828
0.0998278
0.0965421
0.0936489
0.0914616
0.0901219
0.0895647
0.0895167
0.0901387
0.0914926
0.0935222
0.0961848
0.0994496
0.1033
0.107729
0.112736
0.118337
0.124559
0.13145
0.139073
0.147516
0.156868
0.167254
0.178798
0.191626
0.205837
0.221486
0.238582
0.25709
0.276933
0.298007
0.320202
0.343415
0.367571
0.392569
0.418343
0.444905
0.472263
0.500455
0.529538
0.559595
0.590719
0.623018
0.65661
0.691628
0.728217
0.766539
0.806756
0.849017
0.893455
0.940194
0.989351
1.041
1.09517
1.15189
1.21119
1.27308
1.33752
1.40449
1.47389
1.54563
1.61952
1.69535
1.7728
1.85152
1.93106
2.01133
2.09222
2.17353
2.25499
2.33636
2.41776
2.49917
2.58035
2.66123
2.74185
2.82225
2.90213
2.98135
3.05975
3.13723
3.21371
3.28919
3.36358
3.43683
3.50887
3.57962
3.649
3.71696
3.78343
3.84837
3.91174
3.97349
4.03357
4.09192
4.14847
4.20318
4.25599
4.3069
4.35586
4.40286
4.44786
4.49084
4.53175
4.57058
4.60731
4.64193
4.67445
4.70488
4.7332
4.75942
4.78354
4.80556
4.82549
4.84335
4.85917
4.87298
4.88483