/*--------------------------------*- C++ -*----------------------------------*\
| =========                 |                                                 |
| \\      /  F ield         | OpenFOAM: The Open Source CFD Toolbox           |
|  \\    /   O peration     | Version:  2406                                  |
|   \\  /    A nd           | Website:  www.openfoam.com                      |
|    \\/     M anipulation  |                                                 |
\*---------------------------------------------------------------------------*/
FoamFile
{
    version     2.0;
    format      ascii;
    arch        "LSB;label=32;scalar=64";
    class       volScalarField;
    location    "300";
    object      nut;
}
// * * * * * * * * * * * * * * * * * * * * * * * * * * * * * * * * * * * * * //

dimensions      [0 2 -1 0 0 0 0];

internalField   nonuniform List<scalar> 
12225
(
5.3422e-06
8.11005e-06
1.00037e-05
1.11271e-05
1.16996e-05
1.18768e-05
1.19474e-05
1.18499e-05
1.16966e-05
1.15299e-05
1.13661e-05
1.12062e-05
1.10705e-05
1.09297e-05
1.0837e-05
1.07065e-05
1.0668e-05
1.05456e-05
0.00012896
5.87161e-05
4.33255e-05
3.73011e-05
3.43809e-05
3.31753e-05
3.27308e-05
3.30546e-05
3.36824e-05
3.36525e-05
3.32363e-05
3.33988e-05
3.32771e-05
3.36757e-05
3.37096e-05
3.42766e-05
3.44551e-05
3.52596e-05
0.000579876
0.000301754
0.000207565
0.000159338
0.000133107
0.000113717
0.000102218
9.217e-05
8.60756e-05
7.90354e-05
7.4659e-05
6.95729e-05
6.6617e-05
6.29743e-05
6.10629e-05
5.84089e-05
5.72301e-05
5.53402e-05
0.000787887
0.000662537
0.00052307
0.000422855
0.000364625
0.000313712
0.000283417
0.000253139
0.00023538
0.000214445
0.000202097
0.000186808
0.000178151
0.000166679
0.000160547
0.000151799
0.000147428
0.000140114
0.000839747
0.000809868
0.000747734
0.000665694
0.00060876
0.000549478
0.000511567
0.000470267
0.000444723
0.000414656
0.000396223
0.000372938
0.000359179
0.000340626
0.000330311
0.000315284
0.000307615
0.000294227
0.000850712
0.000844707
0.000824895
0.000792991
0.000759545
0.000718355
0.000689651
0.00065545
0.000632338
0.000604174
0.000585563
0.000561846
0.000546761
0.000526476
0.000514403
0.0004969
0.000487457
0.000471186
0.000851412
0.000850733
0.000845355
0.00083635
0.000823419
0.000803486
0.000788305
0.000768273
0.000753732
0.000734851
0.000721462
0.000703809
0.000691754
0.000675346
0.000664847
0.000649689
0.000640886
0.000626078
0.000851406
0.000850982
0.000849594
0.000847409
0.000842927
0.000836445
0.000829735
0.000820657
0.000813597
0.000803967
0.000796609
0.000786594
0.00077923
0.000769067
0.000761991
0.000751913
0.00074538
0.00073492
0.000851495
0.00085076
0.000849997
0.000848959
0.000847609
0.000845292
0.000842954
0.000839684
0.000836506
0.000832736
0.000828792
0.000824789
0.000820789
0.000816232
0.000812155
0.000807139
0.000803031
0.000797263
0.000851552
0.000850673
0.000849957
0.000849112
0.000848373
0.000847313
0.000846339
0.000845012
0.000843806
0.000842259
0.000840781
0.00083893
0.000837312
0.000835202
0.000833408
0.000831062
0.000829054
0.000826273
0.00085156
0.000850666
0.000849912
0.000849103
0.000848423
0.000847642
0.000846979
0.00084618
0.00084551
0.00084468
0.000843985
0.000843072
0.000842332
0.000841327
0.000840531
0.000839409
0.000838566
0.000837281
0.000851554
0.000850671
0.00084989
0.000849094
0.000848396
0.000847668
0.000847035
0.000846354
0.00084577
0.000845122
0.000844577
0.000843942
0.000843415
0.000842778
0.000842255
0.0008416
0.000841069
0.000840385
0.000851547
0.000850675
0.000849876
0.000849089
0.000848372
0.000847659
0.000847013
0.000846364
0.000845778
0.000845183
0.00084465
0.0008441
0.000843608
0.000843093
0.000842632
0.000842146
0.000841705
0.000841238
0.000851542
0.000850676
0.000849865
0.000849084
0.000848353
0.000847647
0.000846986
0.000846345
0.000845746
0.000845164
0.000844619
0.000844089
0.000843592
0.000843107
0.000842651
0.000842206
0.000841784
0.000841374
0.000851539
0.000850675
0.000849858
0.000849078
0.000848339
0.000847633
0.000846964
0.000846325
0.000845717
0.000845135
0.000844583
0.000844053
0.000843549
0.000843065
0.000842604
0.000842162
0.00084174
0.000841335
0.000851538
0.000850674
0.000849853
0.000849072
0.00084833
0.000847622
0.000846949
0.000846307
0.000845695
0.00084511
0.000844553
0.00084402
0.000843512
0.000843025
0.00084256
0.000842115
0.000841689
0.000841282
0.000851537
0.000850673
0.000849851
0.000849068
0.000848324
0.000847614
0.000846939
0.000846294
0.00084568
0.000845093
0.000844533
0.000843997
0.000843486
0.000842996
0.000842529
0.000842081
0.000841652
0.000841242
0.000851539
0.000850677
0.000849857
0.000849075
0.000848332
0.000847622
0.000846947
0.000846302
0.000845686
0.000845098
0.000844537
0.000844
0.000843487
0.000842996
0.000842526
0.000842077
0.000841646
0.000841235
0.000851537
0.000850673
0.00084985
0.000849067
0.000848321
0.00084761
0.000846931
0.000846284
0.000845667
0.000845077
0.000844514
0.000843975
0.00084346
0.000842967
0.000842496
0.000842045
0.000841613
0.0008412
0.000851537
0.000850673
0.00084985
0.000849066
0.00084832
0.000847609
0.00084693
0.000846283
0.000845665
0.000845075
0.000844511
0.000843972
0.000843457
0.000842964
0.000842492
0.00084204
0.000841608
0.000841194
0.000851537
0.000850675
0.000849852
0.000849071
0.000848324
0.000847615
0.000846937
0.000846292
0.000845673
0.000845085
0.000844519
0.000843981
0.000843463
0.00084297
0.000842494
0.000842041
0.000841604
0.000841187
0.000851537
0.000850679
0.000849853
0.000849079
0.00084833
0.000847627
0.000846943
0.0008463
0.000845669
0.000845076
0.000844489
0.000843936
0.000843384
0.000842865
0.00084234
0.00084185
0.000841346
0.000840881
0.000851547
0.000850691
0.000849844
0.000849083
0.000848311
0.000847603
0.000846853
0.000846141
0.000845367
0.000844625
0.000843818
0.000843043
0.000842186
0.000841371
0.000840454
0.000839612
0.000838627
0.000837777
0.000851701
0.000850769
0.000849623
0.000848805
0.000847766
0.00084668
0.000845271
0.000843769
0.000841794
0.00083981
0.000837495
0.000835177
0.000832601
0.000829991
0.00082724
0.000824393
0.00082146
0.000818836
0.000853379
0.000851375
0.000846411
0.000844631
0.000840321
0.000835915
0.000830979
0.000824916
0.000816959
0.000809535
0.000800984
0.000793311
0.000784613
0.000777016
0.00076841
0.00076119
0.000752849
0.00074623
0.000852838
0.000844576
0.00082333
0.000809557
0.000795352
0.000778126
0.000756067
0.000735641
0.000713254
0.000694129
0.00067394
0.000657226
0.000639497
0.000625185
0.000609703
0.00059761
0.000584053
0.000573924
0.000846707
0.000791886
0.000717822
0.000677945
0.000623216
0.000578151
0.000535276
0.000501615
0.000469709
0.000445323
0.000421572
0.000403723
0.000385598
0.000372253
0.000358015
0.000347805
0.000336191
0.000328006
0.000683176
0.000530654
0.000419035
0.000343092
0.000284152
0.000248437
0.000221422
0.000202509
0.000186378
0.000174944
0.000164455
0.000157136
0.00014994
0.000145058
0.000139852
0.000136431
0.000132301
0.000129421
0.000246617
0.000142446
9.97991e-05
7.54534e-05
6.49492e-05
5.92912e-05
5.56794e-05
5.35451e-05
5.20676e-05
5.14166e-05
5.09922e-05
5.11221e-05
5.12869e-05
5.16994e-05
5.10512e-05
5.04776e-05
5.00951e-05
4.97088e-05
6.04346e-06
8.06108e-06
9.69064e-06
1.0954e-05
1.18608e-05
1.25107e-05
1.29237e-05
1.32173e-05
1.33512e-05
1.34412e-05
1.34833e-05
1.34738e-05
1.34419e-05
1.33938e-05
1.33393e-05
1.32816e-05
1.32222e-05
1.31628e-05
3.26217e-10
1.16119e-08
2.99183e-08
5.82254e-08
9.31224e-08
1.36793e-07
2.15931e-07
3.47021e-07
5.42827e-07
7.91003e-07
1.05415e-06
1.30858e-06
1.54277e-06
1.74322e-06
1.9132e-06
2.04563e-06
2.14298e-06
2.20949e-06
2.24106e-06
2.23291e-06
2.21651e-06
2.16599e-06
2.08685e-06
1.95645e-06
1.77585e-06
1.53983e-06
1.25134e-06
9.25299e-07
5.93688e-07
3.08617e-07
1.19914e-07
3.3451e-08
1.28972e-08
1.23931e-08
1.39734e-08
1.52469e-08
1.59919e-08
1.65044e-08
1.81672e-08
2.5695e-08
6.67605e-08
1.43649e-07
2.9673e-07
4.63583e-07
5.89313e-07
6.35885e-07
6.21231e-07
5.81592e-07
5.42449e-07
5.30349e-07
5.85689e-07
7.81585e-07
8.46261e-07
1.00124e-06
1.30047e-06
2.19767e-06
6.19898e-06
1.19781e-05
1.72121e-05
2.1712e-05
2.55725e-05
2.73583e-05
2.87419e-05
3.00162e-05
3.12394e-05
3.23728e-05
3.34044e-05
3.43754e-05
3.52859e-05
3.61532e-05
3.69803e-05
3.77761e-05
3.85441e-05
3.92897e-05
4.00149e-05
4.07231e-05
4.14154e-05
4.20965e-05
4.27657e-05
4.34251e-05
4.40761e-05
4.47184e-05
4.53539e-05
4.59819e-05
4.66036e-05
4.72187e-05
4.78277e-05
4.84306e-05
4.90272e-05
4.96178e-05
5.02022e-05
5.07804e-05
5.13526e-05
5.19192e-05
5.24806e-05
5.30377e-05
5.35918e-05
5.41456e-05
5.47041e-05
5.52739e-05
5.58464e-05
5.64218e-05
5.70015e-05
5.7587e-05
5.81785e-05
5.87771e-05
5.93832e-05
5.99978e-05
6.06216e-05
6.12554e-05
6.19001e-05
6.25569e-05
6.32269e-05
6.39112e-05
6.46118e-05
6.53302e-05
6.60692e-05
6.68314e-05
6.76211e-05
6.84427e-05
6.93005e-05
7.01829e-05
7.10828e-05
7.18907e-05
7.28459e-05
7.38547e-05
7.4011e-05
7.38244e-05
7.3543e-05
7.32616e-05
7.2935e-05
7.25966e-05
7.22504e-05
7.18667e-05
7.14697e-05
7.10469e-05
7.06073e-05
7.01449e-05
6.96644e-05
6.91609e-05
6.86406e-05
6.80979e-05
6.75429e-05
6.69649e-05
6.63742e-05
6.57658e-05
6.51435e-05
6.45061e-05
6.38568e-05
6.31936e-05
6.25199e-05
6.18343e-05
6.11398e-05
6.04302e-05
5.97152e-05
5.89935e-05
5.82715e-05
5.75468e-05
5.68221e-05
5.60995e-05
5.538e-05
5.46651e-05
5.39553e-05
5.32535e-05
5.25602e-05
5.18766e-05
5.12034e-05
5.05428e-05
4.98961e-05
4.92642e-05
4.86458e-05
4.80417e-05
4.7452e-05
4.6874e-05
4.6298e-05
4.57224e-05
4.51471e-05
4.46313e-05
4.43381e-05
4.27367e-05
1.64285e-09
6.2875e-09
4.27064e-08
1.39372e-07
4.478e-07
1.42423e-06
3.3572e-06
6.20475e-06
9.73295e-06
1.37215e-05
1.79131e-05
2.189e-05
2.54101e-05
2.81707e-05
3.01934e-05
3.11612e-05
3.14913e-05
3.10753e-05
3.02065e-05
2.8057e-05
2.53438e-05
2.12775e-05
1.71663e-05
1.34291e-05
1.03088e-05
7.68611e-06
5.66539e-06
4.0908e-06
2.87621e-06
1.92638e-06
1.24265e-06
7.6656e-07
4.76357e-07
3.14875e-07
2.31411e-07
1.95249e-07
2.10937e-07
2.84838e-07
5.17106e-07
8.34596e-07
2.98078e-06
5.71162e-06
1.0949e-05
1.55301e-05
1.80402e-05
1.80101e-05
1.68193e-05
1.46698e-05
1.314e-05
1.2444e-05
1.20028e-05
1.1971e-05
1.22743e-05
1.47024e-05
1.92448e-05
2.58932e-05
3.55651e-05
4.595e-05
5.68635e-05
6.97298e-05
8.35068e-05
9.86371e-05
0.000114351
0.000130709
0.000147148
0.000163531
0.0001795
0.000194925
0.000209654
0.000223649
0.0002369
0.000249359
0.000261292
0.000272482
0.000283299
0.000293701
0.000303548
0.000313144
0.000322424
0.00033145
0.000340266
0.000348879
0.00035733
0.000365622
0.00037378
0.000381808
0.00038972
0.000397519
0.000405209
0.000412791
0.000420263
0.000427618
0.000434844
0.000441924
0.000448831
0.000455523
0.000461938
0.000467992
0.000473568
0.000478524
0.000483314
0.00048797
0.000492523
0.000496948
0.000501252
0.000505428
0.000509473
0.000513383
0.000517152
0.000520776
0.00052425
0.00052757
0.000530729
0.000533724
0.000536549
0.000539199
0.000541671
0.000543961
0.000546066
0.000547988
0.000549735
0.000551339
0.000552811
0.000554061
0.000555293
0.000556427
0.00055746
0.000558325
0.000558791
0.000559332
0.000559426
0.00055957
0.00055956
0.000559299
0.000558851
0.00055823
0.000557427
0.000556626
0.000555237
0.000554314
0.000552326
0.000551166
0.000548815
0.000547335
0.000544841
0.000542738
0.000540104
0.000537663
0.000534784
0.000532039
0.000528951
0.000525957
0.000522672
0.000519473
0.000516018
0.000512624
0.000509081
0.000505527
0.000501946
0.000498334
0.000494715
0.000491084
0.000487485
0.000483911
0.000480372
0.000476883
0.000473461
0.000470113
0.000466845
0.000463672
0.000460605
0.000457632
0.000454754
0.000451915
0.000449081
0.000446172
0.000443106
0.000439583
0.000434852
0.000420548
2.01918e-09
5.54302e-09
6.35287e-08
3.49156e-07
1.38179e-06
3.1958e-06
7.09194e-06
1.24203e-05
1.91251e-05
2.68352e-05
3.52603e-05
4.38067e-05
5.17922e-05
5.88476e-05
6.47105e-05
6.91627e-05
7.22393e-05
7.41608e-05
7.48611e-05
7.41265e-05
7.17766e-05
6.74808e-05
6.21877e-05
5.48279e-05
4.65493e-05
3.80878e-05
3.00033e-05
2.27524e-05
1.68119e-05
1.20973e-05
8.54528e-06
5.88767e-06
3.94579e-06
2.71726e-06
1.97373e-06
1.5783e-06
1.49541e-06
1.39151e-06
2.75432e-06
4.43107e-06
1.30885e-05
2.52226e-05
3.92649e-05
4.83482e-05
5.09155e-05
4.60895e-05
3.64574e-05
2.78044e-05
2.60011e-05
2.85559e-05
3.30862e-05
4.01681e-05
5.07758e-05
6.71193e-05
8.26899e-05
0.000102614
0.000125453
0.000153007
0.000184571
0.000219943
0.000257148
0.000295951
0.000334634
0.00037277
0.000409388
0.00044425
0.000477064
0.000507861
0.000536708
0.000563796
0.000589301
0.000613236
0.000636244
0.000658341
0.000679401
0.000699674
0.000719275
0.000738342
0.000756913
0.000775051
0.000792814
0.000810225
0.000827326
0.000844133
0.000860668
0.000876941
0.000892962
0.000908733
0.000924254
0.000939521
0.000954524
0.000969247
0.00098367
0.000997765
0.0010115
0.00102483
0.00103773
0.00105016
0.00106212
0.00107368
0.00108504
0.00109615
0.00110702
0.00111763
0.00112798
0.00113805
0.00114784
0.00115734
0.00116654
0.00117542
0.00118399
0.00119222
0.00120012
0.00120766
0.00121484
0.00122165
0.00122809
0.00123415
0.00123982
0.00124512
0.00125004
0.00125459
0.00125875
0.0012625
0.0012659
0.00126886
0.00127131
0.00127351
0.00127557
0.00127666
0.00127806
0.00127889
0.00127902
0.00127867
0.00127788
0.00127666
0.00127504
0.00127307
0.00127048
0.00126782
0.00126424
0.00126088
0.0012565
0.00125244
0.0012474
0.00124241
0.00123682
0.00123115
0.00122494
0.00121865
0.00121192
0.0012051
0.00119789
0.00119062
0.00118304
0.0011754
0.00116753
0.00115959
0.00115157
0.00114348
0.00113536
0.00112722
0.00111913
0.00111109
0.00110312
0.00109525
0.00108752
0.00107994
0.00107254
0.00106533
0.00105834
0.00105155
0.00104493
0.00103843
0.00103196
0.00102535
0.00101835
0.00101045
0.000999615
0.000974261
2.03511e-09
1.38341e-08
1.97977e-07
8.25009e-07
2.7612e-06
7.32326e-06
1.48499e-05
2.49969e-05
3.71373e-05
5.02028e-05
6.33074e-05
7.58302e-05
8.70589e-05
9.66026e-05
0.000104089
0.000109946
0.000114014
0.000116214
0.000116892
0.000116134
0.000114137
0.000110193
0.000105417
9.87503e-05
9.07676e-05
8.09302e-05
6.99671e-05
5.8443e-05
4.72217e-05
3.71904e-05
2.88376e-05
2.20168e-05
1.68397e-05
1.26884e-05
9.70302e-06
7.93797e-06
6.65972e-06
7.49444e-06
1.14934e-05
1.95513e-05
3.90494e-05
5.39241e-05
6.29332e-05
6.58074e-05
5.51528e-05
4.95594e-05
5.14545e-05
5.53939e-05
6.10717e-05
7.15382e-05
8.77733e-05
0.000106312
0.000127472
0.000158386
0.000189457
0.000231392
0.000276378
0.000327942
0.000381881
0.000438332
0.000494778
0.000550792
0.000604965
0.00065699
0.000706363
0.000753057
0.000797103
0.000838701
0.000877795
0.00091493
0.000950495
0.00098445
0.00101698
0.00104834
0.0010786
0.00110793
0.00113647
0.00116431
0.0011915
0.00121812
0.00124422
0.00126982
0.00129497
0.00131969
0.00134399
0.00136788
0.00139138
0.00141448
0.00143719
0.0014595
0.0014814
0.00150287
0.0015239
0.00154448
0.00156459
0.00158422
0.00160336
0.00162202
0.00164023
0.00165806
0.00167554
0.00169265
0.00170938
0.00172572
0.00174165
0.00175717
0.00177226
0.00178691
0.0018011
0.00181483
0.00182807
0.00184083
0.00185307
0.0018648
0.001876
0.00188666
0.00189678
0.00190634
0.00191535
0.0019238
0.00193168
0.00193898
0.0019457
0.00195183
0.00195733
0.00196217
0.00196639
0.00197009
0.00197327
0.00197547
0.0019775
0.00197899
0.00197953
0.00197939
0.00197859
0.00197715
0.00197508
0.00197238
0.00196901
0.00196511
0.00196042
0.00195537
0.00194949
0.00194333
0.00193635
0.00192901
0.00192103
0.00191266
0.00190371
0.0018944
0.00188459
0.00187445
0.00186387
0.00185301
0.00184179
0.00183035
0.00181863
0.00180672
0.00179466
0.00178248
0.00177022
0.00175792
0.00174564
0.0017334
0.00172125
0.00170923
0.00169738
0.00168574
0.00167433
0.0016632
0.00165235
0.00164179
0.00163148
0.00162136
0.00161133
0.00160111
0.00159037
0.00157867
0.00156321
0.00153339
2.55127e-09
4.14314e-08
4.39377e-07
1.96729e-06
6.82846e-06
1.68559e-05
3.14713e-05
4.93476e-05
6.86797e-05
8.78277e-05
0.000105536
0.000120625
0.000132499
0.000141614
0.000148151
0.000152243
0.000154488
0.000155166
0.000154483
0.000152586
0.000149595
0.000145317
0.000140015
0.000133526
0.000126045
0.000116803
0.000106093
9.40826e-05
8.12149e-05
6.81381e-05
5.60468e-05
4.55427e-05
3.70653e-05
3.03024e-05
2.54683e-05
2.122e-05
2.14855e-05
2.44476e-05
3.79744e-05
5.8567e-05
7.84535e-05
8.42893e-05
8.26096e-05
8.06102e-05
8.06624e-05
8.36627e-05
9.10114e-05
0.000103923
0.000123911
0.000139631
0.000166813
0.000202081
0.000242712
0.000293194
0.000346737
0.0004094
0.000473077
0.000541097
0.00060924
0.000677754
0.0007449
0.000810322
0.00087327
0.000933572
0.00099112
0.00104574
0.00109764
0.00114735
0.00119482
0.00124017
0.00128373
0.00132566
0.00136612
0.00140529
0.0014433
0.00148028
0.00151634
0.00155156
0.00158601
0.00161975
0.00165281
0.00168525
0.00171709
0.00174836
0.00177906
0.00180922
0.00183885
0.00186794
0.00189651
0.00192454
0.00195204
0.001979
0.00200542
0.00203128
0.0020566
0.00208138
0.00210562
0.00212935
0.00215258
0.00217534
0.00219762
0.0022194
0.00224069
0.00226146
0.00228171
0.00230141
0.00232057
0.00233916
0.00235718
0.0023746
0.00239141
0.00240761
0.00242318
0.00243811
0.00245239
0.00246601
0.00247896
0.00249124
0.00250284
0.00251375
0.00252397
0.00253349
0.00254231
0.00255043
0.00255775
0.00256408
0.00256983
0.00257489
0.00257921
0.00258255
0.00258534
0.00258758
0.00258878
0.00258914
0.00258868
0.00258742
0.00258538
0.00258253
0.0025789
0.00257451
0.00256931
0.00256343
0.00255674
0.00254943
0.00254131
0.00253256
0.00252311
0.00251304
0.00250232
0.00249103
0.00247914
0.00246673
0.0024538
0.00244042
0.00242659
0.0024124
0.00239783
0.00238298
0.00236787
0.00235257
0.00233711
0.00232157
0.00230598
0.0022904
0.00227488
0.00225948
0.00224423
0.0022292
0.00221441
0.00219991
0.00218573
0.00217187
0.00215832
0.00214504
0.00213193
0.0021187
0.00210502
0.00209014
0.00207188
0.00204167
2.06336e-09
9.73787e-08
1.02868e-06
5.02413e-06
1.69816e-05
3.64527e-05
6.03426e-05
8.62416e-05
0.000110892
0.000131899
0.000148394
0.000161026
0.000170649
0.000177349
0.000181848
0.000184447
0.000185426
0.000184994
0.000183334
0.000180594
0.000176858
0.000172055
0.000166331
0.000159729
0.00015204
0.000142958
0.000132506
0.000120754
0.000107786
9.19041e-05
7.64723e-05
6.23503e-05
4.98755e-05
3.92291e-05
3.3435e-05
3.30438e-05
4.04729e-05
5.97543e-05
8.26916e-05
9.76471e-05
0.000104781
0.000107248
0.000108333
0.000111514
0.000119935
0.000135493
0.000150182
0.000168938
0.000198924
0.000235164
0.00028092
0.000334829
0.000395322
0.000462765
0.000532769
0.000607492
0.000682468
0.000758978
0.000834605
0.000909241
0.000981989
0.00105258
0.00112068
0.00118586
0.00124864
0.00130924
0.00136712
0.00142278
0.00147631
0.00152787
0.00157766
0.00162582
0.00167251
0.00171787
0.00176201
0.00180504
0.00184704
0.00188809
0.00192825
0.00196756
0.00200608
0.00204384
0.00208086
0.00211717
0.0021528
0.00218775
0.00222204
0.00225567
0.00228866
0.002321
0.00235271
0.00238377
0.00241421
0.00244401
0.00247318
0.00250174
0.00252969
0.00255707
0.00258385
0.00261005
0.00263567
0.00266069
0.0026851
0.00270889
0.00273206
0.00275459
0.00277647
0.00279769
0.00281825
0.00283813
0.00285731
0.0028758
0.00289359
0.00291065
0.00292699
0.00294259
0.00295746
0.00297159
0.00298497
0.0029976
0.00300947
0.00302058
0.00303093
0.00304054
0.00304925
0.0030569
0.00306387
0.00307011
0.00307553
0.00307997
0.00308364
0.00308673
0.00308878
0.00308991
0.00309013
0.00308948
0.00308794
0.0030855
0.0030822
0.00307802
0.00307297
0.00306708
0.00306033
0.00305278
0.00304438
0.0030352
0.00302521
0.00301447
0.00300297
0.00299075
0.00297784
0.00296427
0.00295006
0.00293527
0.00291993
0.00290408
0.00288777
0.00287105
0.00285398
0.0028366
0.00281899
0.00280119
0.00278328
0.0027653
0.00274731
0.00272938
0.00271157
0.00269392
0.0026765
0.00265935
0.00264251
0.00262599
0.0026098
0.00259393
0.00257831
0.00256271
0.00254676
0.00252974
0.00250962
0.00248076
5.99917e-09
2.47209e-07
2.64835e-06
1.35791e-05
3.64579e-05
6.69789e-05
9.96699e-05
0.000128808
0.000152293
0.000170321
0.000183946
0.000193642
0.000200116
0.000204096
0.000206262
0.000207023
0.000206643
0.000205252
0.000202915
0.000199679
0.000195498
0.000190315
0.000184315
0.000177412
0.000169209
0.000158195
0.000140555
0.000124151
0.000108735
9.33887e-05
7.83278e-05
6.52556e-05
5.52653e-05
5.03887e-05
5.47271e-05
7.10906e-05
9.18409e-05
0.000112919
0.000125376
0.000132327
0.000135723
0.000139623
0.000148559
0.000165231
0.000174134
0.000194018
0.00022318
0.00026005
0.000306327
0.000360193
0.000423004
0.000492158
0.000565946
0.000643346
0.000722327
0.000803072
0.000883583
0.000963901
0.00104292
0.0011204
0.00119581
0.00126875
0.00133979
0.00140861
0.00147497
0.00153909
0.00160093
0.00166071
0.00171851
0.00177448
0.00182875
0.00188145
0.0019327
0.0019826
0.00203124
0.00207871
0.00212508
0.00217041
0.00221474
0.00225813
0.0023006
0.0023422
0.00238294
0.00242286
0.00246198
0.00250031
0.00253787
0.00257467
0.00261072
0.00264604
0.00268063
0.0027145
0.00274766
0.0027801
0.00281184
0.00284289
0.00287324
0.0029029
0.00293186
0.00296016
0.00298778
0.00301471
0.00304096
0.00306652
0.00309138
0.00311553
0.00313898
0.0031617
0.00318371
0.00320499
0.00322553
0.00324534
0.00326441
0.00328274
0.00330033
0.00331719
0.00333328
0.00334862
0.00336318
0.00337698
0.00339
0.00340225
0.00341373
0.00342445
0.00343431
0.00344309
0.00345107
0.00345837
0.00346484
0.00347039
0.00347502
0.00347906
0.0034821
0.0034842
0.00348536
0.00348561
0.00348497
0.00348343
0.00348098
0.0034776
0.00347331
0.00346811
0.00346199
0.00345498
0.00344706
0.00343826
0.00342857
0.00341803
0.00340664
0.00339443
0.00338141
0.00336763
0.00335311
0.00333788
0.00332199
0.00330548
0.00328838
0.00327077
0.00325268
0.00323417
0.00321532
0.00319617
0.0031768
0.00315726
0.00313762
0.00311795
0.0030983
0.00307876
0.00305936
0.00304019
0.00302127
0.00300264
0.0029843
0.00296632
0.00294866
0.00293116
0.00291354
0.00289509
0.00287422
0.00284686
4.81413e-08
6.81126e-07
6.8475e-06
2.9586e-05
6.49872e-05
0.000103134
0.000136311
0.000162668
0.000182515
0.000197393
0.000207496
0.000214057
0.000218005
0.000219994
0.000220582
0.000220175
0.000218938
0.000216924
0.000214067
0.000210229
0.000205382
0.000199487
0.000192693
0.000184694
0.000172907
0.000153981
0.000136664
0.000121221
0.000106928
9.34945e-05
8.22429e-05
7.62582e-05
7.91952e-05
8.59342e-05
0.000101706
0.000125973
0.00014922
0.00016045
0.000166237
0.000171578
0.000180294
0.000190432
0.000197181
0.000215608
0.000242474
0.000277888
0.000322247
0.000374583
0.000435336
0.000503109
0.000577308
0.000655328
0.00073588
0.000818065
0.000900904
0.000983993
0.00106644
0.00114794
0.00122795
0.00130582
0.00138217
0.00145674
0.00152911
0.00159937
0.0016675
0.00173358
0.00179767
0.00185986
0.00192025
0.00197895
0.00203605
0.00209165
0.00214585
0.00219873
0.00225035
0.00230078
0.00235005
0.00239822
0.00244533
0.00249141
0.00253648
0.00258059
0.00262376
0.002666
0.00270735
0.00274783
0.00278746
0.00282624
0.00286419
0.00290134
0.00293769
0.00297325
0.00300804
0.00304205
0.0030753
0.00310779
0.00313951
0.00317045
0.00320067
0.00323016
0.00325892
0.00328697
0.00331428
0.00334087
0.00336673
0.00339185
0.00341624
0.00343989
0.0034628
0.00348496
0.00350638
0.00352705
0.00354697
0.00356615
0.00358456
0.00360223
0.00361915
0.00363532
0.00365073
0.00366539
0.00367929
0.00369244
0.00370485
0.00371653
0.0037274
0.00373719
0.00374625
0.00375463
0.00376222
0.00376897
0.00377477
0.00377993
0.00378421
0.00378755
0.00378997
0.00379147
0.00379209
0.00379174
0.00379046
0.00378823
0.00378507
0.00378095
0.00377588
0.00376986
0.00376288
0.00375495
0.00374608
0.00373626
0.00372552
0.00371387
0.00370133
0.00368792
0.00367367
0.00365862
0.00364279
0.00362622
0.00360896
0.00359106
0.00357257
0.00355354
0.00353404
0.00351412
0.00349386
0.00347331
0.00345254
0.00343163
0.00341064
0.00338964
0.00336871
0.0033479
0.00332726
0.00330686
0.00328664
0.00326691
0.00324754
0.00322843
0.00320938
0.00318986
0.00316853
0.00314292
1.72912e-07
1.66057e-06
1.56719e-05
5.12472e-05
9.57032e-05
0.000136517
0.000168964
0.000192472
0.000208626
0.000219018
0.000225652
0.000229309
0.000230727
0.000230547
0.000229249
0.000227157
0.000224454
0.000221151
0.000217122
0.000212406
0.000206904
0.00020045
0.000192824
0.00018373
0.000164829
0.00014733
0.000131916
0.000118763
0.000109069
0.000104704
0.000102872
0.000103112
0.000115176
0.000135519
0.000157148
0.000177286
0.000193317
0.000203986
0.000208897
0.000212839
0.000219138
0.000234679
0.00025827
0.00029092
0.00033208
0.000381329
0.000438362
0.000502468
0.000573319
0.000649405
0.000729276
0.000811152
0.000894212
0.00097786
0.00106149
0.00114465
0.00122689
0.00130744
0.00138652
0.00146447
0.00154042
0.00161452
0.00168668
0.00175691
0.00182526
0.00189177
0.0019565
0.00201953
0.00208092
0.00214077
0.00219915
0.00225615
0.00231184
0.00236627
0.0024195
0.00247157
0.00252248
0.00257225
0.00262092
0.00266852
0.00271507
0.00276058
0.00280508
0.00284861
0.00289117
0.00293281
0.00297354
0.00301342
0.00305242
0.00309055
0.00312781
0.00316422
0.00319979
0.00323453
0.00326846
0.00330158
0.0033339
0.00336546
0.00339624
0.00342627
0.00345554
0.00348406
0.00351182
0.00353883
0.00356509
0.00359061
0.00361538
0.0036394
0.00366268
0.00368522
0.00370702
0.00372809
0.00374842
0.00376803
0.0037869
0.00380505
0.00382248
0.00383919
0.00385519
0.00387047
0.00388505
0.00389892
0.00391209
0.00392461
0.00393631
0.00394706
0.00395721
0.00396667
0.00397541
0.00398339
0.0039905
0.00399694
0.00400258
0.00400734
0.00401123
0.00401424
0.00401636
0.00401758
0.00401788
0.00401725
0.00401568
0.00401316
0.00400966
0.00400519
0.00399973
0.00399327
0.00398582
0.00397736
0.00396792
0.00395749
0.00394608
0.00393373
0.00392043
0.00390623
0.00389114
0.00387521
0.00385847
0.00384096
0.00382273
0.00380383
0.00378432
0.00376427
0.00374373
0.00372277
0.00370145
0.00367985
0.00365805
0.00363611
0.00361411
0.00359212
0.00357021
0.00354843
0.00352671
0.00350538
0.00348439
0.00346369
0.00344316
0.00342241
0.00340043
0.00337577
3.68677e-07
3.62979e-06
2.89668e-05
7.66849e-05
0.000125197
0.000165022
0.000194555
0.000214785
0.000228026
0.00023535
0.000238285
0.000238314
0.000236505
0.000233578
0.000229975
0.0002259
0.000221413
0.000216396
0.000210738
0.000204469
0.000197592
0.000190018
0.000181019
0.000170814
0.000155993
0.000143924
0.000135867
0.000126154
0.000120232
0.000122118
0.000132194
0.000147713
0.000165484
0.000183952
0.000200644
0.000214065
0.000222796
0.000229705
0.00023781
0.000251687
0.000272184
0.000301094
0.000338372
0.000383689
0.000436275
0.000495617
0.000561302
0.000632675
0.000708876
0.000788407
0.000869995
0.000952568
0.00103554
0.00111844
0.00120085
0.00128215
0.00136194
0.00144103
0.00151845
0.00159424
0.00166826
0.0017405
0.00181097
0.0018797
0.00194674
0.00201216
0.00207602
0.00213839
0.00219934
0.00225885
0.0023171
0.00237414
0.00243001
0.00248477
0.00253845
0.00259111
0.00264283
0.00269356
0.00274315
0.0027916
0.00283893
0.00288515
0.0029303
0.00297438
0.00301744
0.00305949
0.00310055
0.00314061
0.00317976
0.00321802
0.00325541
0.00329196
0.00332767
0.00336256
0.00339663
0.0034299
0.00346239
0.0034941
0.00352503
0.00355519
0.00358458
0.0036132
0.00364106
0.00366816
0.00369451
0.00372012
0.00374499
0.00376912
0.00379252
0.0038152
0.00383717
0.00385842
0.00387897
0.00389882
0.00391798
0.00393645
0.00395425
0.00397138
0.00398784
0.00400365
0.0040188
0.00403331
0.0040472
0.0040605
0.00407297
0.00408473
0.00409592
0.0041065
0.00411642
0.00412568
0.00413418
0.00414204
0.00414916
0.00415549
0.004161
0.00416569
0.00416956
0.00417257
0.00417471
0.00417595
0.00417628
0.00417567
0.00417409
0.00417152
0.00416795
0.00416335
0.00415772
0.00415104
0.00414331
0.00413454
0.00412473
0.00411388
0.004102
0.00408912
0.00407526
0.00406043
0.00404468
0.00402804
0.00401054
0.00399225
0.0039732
0.00395345
0.00393307
0.00391212
0.00389067
0.00386879
0.00384655
0.00382403
0.00380131
0.00377847
0.00375557
0.00373269
0.00370987
0.00368726
0.00366491
0.00364284
0.003621
0.00359912
0.00357639
0.00355245
5.72443e-07
7.06698e-06
4.53792e-05
0.000101464
0.000152659
0.000191141
0.00021756
0.00023421
0.000242708
0.000245516
0.000244555
0.00024121
0.000236437
0.000230846
0.000224792
0.00021826
0.000211221
0.00020381
0.000195655
0.00018749
0.000179691
0.000171628
0.000163117
0.000154732
0.000146919
0.000141433
0.000139861
0.000143042
0.000151021
0.000162535
0.000176723
0.000192111
0.000207306
0.000221061
0.000231961
0.000241221
0.000251997
0.000265677
0.000284891
0.000310385
0.000343559
0.000384398
0.00043226
0.000486498
0.000546502
0.000611867
0.000682164
0.000756675
0.000834405
0.00091413
0.00099486
0.00107587
0.0011567
0.00123701
0.0013159
0.00139397
0.00147084
0.00154625
0.00162004
0.00169221
0.00176273
0.00183162
0.00189882
0.00196446
0.00202867
0.00209151
0.00215305
0.00221341
0.00227275
0.00233137
0.00238896
0.0024455
0.00250101
0.0025555
0.00260902
0.00266155
0.00271302
0.0027634
0.00281268
0.00286086
0.00290796
0.002954
0.00299897
0.00304291
0.00308583
0.00312776
0.00316875
0.00320882
0.00324799
0.00328627
0.0033237
0.00336027
0.00339601
0.00343093
0.00346503
0.00349832
0.00353083
0.00356254
0.00359348
0.00362363
0.00365302
0.00368165
0.00370952
0.00373663
0.00376301
0.00378865
0.00381356
0.00383776
0.00386125
0.00388403
0.00390613
0.00392755
0.00394829
0.00396837
0.00398781
0.0040066
0.00402477
0.00404231
0.00405924
0.00407557
0.00409131
0.00410646
0.00412108
0.00413509
0.00414843
0.00416122
0.00417348
0.0041852
0.00419635
0.00420693
0.00421689
0.00422624
0.00423496
0.00424294
0.00425018
0.00425669
0.00426244
0.0042674
0.00427156
0.00427487
0.0042773
0.00427882
0.0042794
0.00427899
0.00427757
0.00427511
0.00427159
0.00426699
0.0042613
0.00425451
0.00424662
0.00423761
0.0042275
0.0042163
0.00420401
0.00419066
0.00417627
0.00416085
0.00414446
0.00412712
0.00410889
0.00408981
0.00406993
0.00404933
0.00402807
0.00400621
0.00398384
0.00396103
0.00393786
0.00391441
0.00389076
0.00386699
0.00384319
0.00381946
0.00379588
0.00377253
0.00374942
0.00372635
0.00370265
0.00367901
7.34664e-07
1.21186e-05
6.05843e-05
0.000122136
0.000174925
0.000212632
0.00023622
0.000248501
0.000252851
0.000251918
0.000247645
0.000241383
0.00023404
0.000226062
0.000217695
0.000209462