/*--------------------------------*- C++ -*----------------------------------*\
| =========                 |                                                 |
| \\      /  F ield         | OpenFOAM: The Open Source CFD Toolbox           |
|  \\    /   O peration     | Version:  2406                                  |
|   \\  /    A nd           | Website:  www.openfoam.com                      |
|    \\/     M anipulation  |                                                 |
\*---------------------------------------------------------------------------*/
FoamFile
{
    version     2.0;
    format      ascii;
    arch        "LSB;label=32;scalar=64";
    class       volScalarField;
    location    "300";
    object      omega;
}
// * * * * * * * * * * * * * * * * * * * * * * * * * * * * * * * * * * * * * //

dimensions      [0 0 -1 0 0 0 0];

internalField   nonuniform List<scalar> 
12225
(
37547.7
40213.9
41821.4
42634.1
42936
42907.2
42777.1
42547.3
42274.8
42008.3
41758.5
41524.9
41322.3
41126.9
40979.6
40813.1
40729.8
40580.1
2932.45
6625.08
9274.63
11165.3
12508.6
13424.5
14049.3
14479.1
14747.8
14980.9
15176.1
15414.4
15602
15830.4
15977
16169.2
16236.1
16333.9
645.185
1237.44
1792.25
2311.8
2737.64
3158.01
3466.78
3789.2
4012.24
4327.46
4547.83
4850.79
5043.52
5318.6
5471.76
5715.27
5824.43
6031.32
474.527
561.379
707.242
866.88
997.353
1146.78
1257.66
1391.26
1481.12
1605.64
1686.47
1802.41
1871.36
1976.85
2032.83
2126.67
2169.9
2260.74
445.225
458.952
494.43
551.15
598.731
658.048
702.069
757.473
795.338
845.742
878.596
925.24
953.544
996.662
1020.34
1059.74
1078.72
1118.29
439.489
439.956
448.117
463.114
480.677
504.93
522.973
546.791
563.602
586.144
601.354
622.723
636.273
656.542
668.225
687.355
696.967
716.498
439.114
436.81
437.203
439.309
443.776
452.19
458.53
467.963
474.657
484.329
490.962
500.706
507.046
516.745
522.522
532.058
537.031
547.044
439.102
436.662
434.95
433.63
433.641
434.697
436.071
438.743
440.539
443.769
445.941
449.632
452.013
456.039
458.463
462.694
465.007
469.732
439.045
436.763
434.687
432.824
431.257
430.244
429.376
429.041
428.782
428.87
429.157
429.503
429.951
430.706
431.317
432.427
433.174
434.794
439.007
436.799
434.67
432.715
430.838
429.216
427.67
426.383
425.141
424.14
423.196
422.493
421.756
421.307
420.776
420.552
420.233
420.321
438.998
436.795
434.669
432.693
430.778
429.019
427.314
425.77
424.262
422.914
421.589
420.44
419.284
418.319
417.319
416.53
415.664
415.06
438.998
436.787
434.667
432.679
430.765
428.977
427.251
425.646
424.089
422.65
421.247
419.964
418.704
417.565
416.437
415.433
414.426
413.547
438.999
436.781
434.664
432.668
430.758
428.957
427.232
425.606
424.045
422.576
421.161
419.833
418.551
417.35
416.189
415.105
414.054
413.075
439
436.777
434.661
432.658
430.75
428.942
427.218
425.584
424.023
422.542
421.127
419.784
418.498
417.278
416.11
415.001
413.937
412.928
439.001
436.774
434.659
432.652
430.743
428.931
427.206
425.567
424.005
422.519
421.102
419.754
418.466
417.24
416.069
414.952
413.885
412.868
439.001
436.773
434.656
432.647
430.737
428.922
427.196
425.553
423.99
422.501
421.082
419.73
418.44
417.211
416.037
414.917
413.847
412.827
439.001
436.772
434.655
432.644
430.732
428.915
427.187
425.542
423.976
422.485
421.064
419.71
418.418
417.186
416.01
414.889
413.816
412.794
439
436.769
434.65
432.637
430.723
428.904
427.174
425.527
423.959
422.466
421.043
419.687
418.393
417.159
415.982
414.858
413.785
412.76
439
436.771
434.652
432.64
430.727
428.908
427.178
425.531
423.963
422.469
421.045
419.688
418.394
417.159
415.981
414.857
413.783
412.757
439.001
436.772
434.654
432.643
430.731
428.912
427.183
425.536
423.968
422.475
421.051
419.694
418.4
417.166
415.988
414.863
413.79
412.765
439.001
436.772
434.656
432.645
430.735
428.917
427.189
425.542
423.976
422.483
421.062
419.705
418.413
417.18
416.005
414.882
413.811
412.788
439.002
436.773
434.661
432.649
430.742
428.924
427.201
425.556
423.998
422.51
421.101
419.753
418.479
417.258
416.107
415.001
413.962
412.961
438.998
436.772
434.673
432.66
430.768
428.956
427.269
425.661
424.175
422.759
421.456
420.214
419.082
417.998
417.027
416.081
415.259
414.429
438.922
436.742
434.797
432.819
431.064
429.445
428.082
426.862
425.958
425.143
424.563
424.058
423.744
423.514
423.409
423.416
423.515
423.519
438.073
436.446
436.433
434.954
434.864
434.937
435.35
436.456
438.643
440.667
443.398
445.77
448.813
451.358
454.583
457.125
460.43
462.824
438.394
439.901
448.512
453.66
459.244
466.946
477.972
488.66
501.299
512.431
525.009
535.614
547.638
557.391
568.699
577.434
588.009
595.67
441.611
468.819
513.938
541.418
585.506
627.542
673.362
713.949
757.133
793.215
831.981
862.842
897.097
923.027
953.287
974.98
1002.25
1021.08
546.838
698.558
880.582
1071.77
1285.6
1461.03
1624.9
1762.09
1896.02
2002.28
2110.08
2190.07
2276.53
2336.09
2407.56
2452.98
2517.51
2560.91
1512.39
2632.19
3799.91
5105.96
6009.07
6687.05
7212.01
7618.8
7943.89
8183.02
8388.06
8530.78
8668.19
8759.47
8873.51
8945.57
9058.77
9124.01
23059.2
24521.5
25583.8
26334.5
26824.8
27143
27313.2
27411
27418.4
27401.5
27361.5
27295.4
27220.6
27140.5
27060.2
26981.2
26904
26829.7
11463.3
2514.6
2517.34
2520.42
2523.73
2527.35
2532.1
2538.54
2547.06
2557.28
2568.01
2578.52
2588.43
2597.31
2605.25
2612.01
2617.69
2622.39
2626.02
2628.42
2630.25
2631.62
2631.57
2630.07
2626.96
2622.1
2615.58
2607.87
2600
2593.6
2590.26
2590.22
2592.37
2595.24
2598.21
2601.21
2604.21
2607.23
2610.3
2613.77
2617.81
2623.56
2631.48
2640.06
2647.42
2652.36
2655.24
2657.32
2659.47
2662.48
2667.7
2677.72
2683.35
2692.08
2705.67
2739.18
2881.45
3099.05
3308.77
3498.75
3668.86
3822.72
3963.22
4093.52
4216.01
4329.3
4433.57
4530.82
4621.7
4707.42
4788.61
4866.02
4940.19
5011.56
5080.5
5147.3
5212.17
5275.41
5337.11
5397.38
5456.38
5514.1
5570.66
5626.04
5680.3
5733.42
5785.42
5836.29
5885.99
5934.52
5981.83
6027.91
6072.72
6116.24
6158.44
6199.34
6238.98
6277.48
6315.07
6352.1
6387.9
6422.74
6456.45
6489.12
6520.67
6551.11
6580.4
6608.52
6635.46
6661.2
6685.72
6709.01
6731.06
6751.86
6771.44
6789.79
6806.97
6823.03
6838.11
6852.4
6866.34
6878.91
6887.83
6895.76
6901.15
6899.43
6904.64
6905.21
6904.74
6903.22
6901.13
6896.38
6891.87
6885.27
6877.8
6868.93
6859.02
6847.93
6835.74
6822.43
6808.05
6792.64
6776.23
6758.94
6740.76
6721.76
6701.99
6681.51
6660.35
6638.59
6616.28
6593.49
6570.25
6546.59
6522.57
6498.49
6474.4
6450.47
6426.77
6403.38
6380.43
6358.02
6336.24
6315.13
6294.79
6275.33
6256.82
6239.3
6222.81
6207.43
6193.15
6179.92
6167.69
6156.4
6145.64
6134.92
6123.73
6109.69
6100.76
6026.52
11463.5
1998.7
1040.86
869.987
747.812
644.8
653.746
657.657
648.335
627.734
601.518
574.682
549.659
528.699
512.393
501.129
493.588
493.028
493.26
511.19
537.059
596.344
676.12
770.714
873.633
979.29
1079.2
1168.18
1233.89
1274.9
1267.96
1233.9
1151.65
1025.58
879.722
740.459
616.041
552.593
513.582
473.922
450.761
446.514
451.782
467.135
486.104
513.109
535.819
572.802
641.646
743.497
949.371
1360.42
1777.54
2101.09
2277.75
2395.87
2468.45
2498.93
2501.4
2446.28
2379
2304.52
2235.25
2171.67
2116.69
2069.72
2031.12
2000.07
1975.82
1957.4
1943.88
1935.13
1928.72
1926.12
1924.6
1924.54
1926.83
1929.64
1933.37
1937.7
1942.43
1947.51
1952.76
1958.17
1963.61
1969.05
1974.44
1979.73
1984.9
1989.93
1994.8
1999.51
2004.09
2008.58
2013.04
2017.6
2022.48
2027.95
2034.43
2042.47
2050.46
2058.25
2065.76
2073.04
2080.05
2086.82
2093.33
2099.58
2105.57
2111.31
2116.79
2122.02
2127
2131.73
2136.23
2140.49
2144.52
2148.34
2151.93
2155.29
2158.38
2161.05
2163.27
2165.37
2166.86
2167.97
2168.81
2169.1
2169.34
2168.46
2167.22
2165.64
2164.07
2162.18
2160.08
2157.65
2154.97
2151.34
2148.95
2143.95
2141.94
2136.08
2133.71
2127.42
2123.98
2118.43
2114.08
2108.36
2103.59
2097.73
2092.54
2086.5
2081.03
2074.8
2069.05
2062.75
2056.77
2050.69
2044.63
2038.67
2032.8
2027.1
2021.48
2016.02
2010.77
2005.72
2000.87
1996.26
1991.93
1987.87
1984.07
1980.58
1977.43
1974.77
1972.6
1971.05
1970.18
1970.45
1972.56
1988.35
11463.5
2037.48
823.895
634.378
666.879
713.499
691.945
641.079
577.829
517.723
463.282
417.68
381.394
352.539
329.734
311.908
298.147
287.99
280.788
276.693
276.953
283.318
293.138
313.505
343.172
383.421
432.686
491.121
552.035
612.57
660.201
695.496
703.731
692.399
661.421
605.768
537.598
472.697
406.503
365.058
356.293
365.202
386.391
411.68
445.154
526.993
646.849
812.199
1092.52
1346.19
1518.96
1654.77
1759.72
1807.08
1807.17
1768.63
1712.03
1639.54
1565.15
1492.55
1431.8
1379.41
1337.69
1303.97
1277.89
1257.76
1242.65
1231.51
1223.57
1218.12
1214.69
1213.18
1212.37
1212.32
1213.31
1214.95
1217.09
1219.53
1222.26
1225.18
1228.24
1231.41
1234.64
1237.9
1241.18
1244.46
1247.72
1250.96
1254.18
1257.36
1260.53
1263.69
1266.85
1270.05
1273.32
1276.7
1280.23
1283.94
1287.84
1291.83
1295.64
1299.34
1302.89
1306.32
1309.6
1312.75
1315.75
1318.62
1321.35
1323.93
1326.38
1328.69
1330.87
1332.9
1334.8
1336.57
1338.19
1339.68
1341.02
1342.2
1343.21
1344.04
1344.69
1345.21
1345.53
1345.73
1345.87
1345.62
1344.83
1344.3
1343.12
1342.11
1341.01
1339.74
1338.34
1336.77
1335.04
1333.1
1331.22
1328.88
1326.91
1324.23
1322.05
1319.11
1316.64
1313.7
1310.93
1307.84
1304.89
1301.68
1298.56
1295.24
1292.02
1288.6
1285.28
1281.83
1278.46
1275.08
1271.71
1268.39
1265.11
1261.91
1258.77
1255.71
1252.76
1249.91
1247.17
1244.56
1242.09
1239.77
1237.62
1235.68
1233.97
1232.59
1231.59
1231.11
1231.26
1232.39
1235.37
1247.66
11463.5
2026.01
967.153
967.532
924.552
831.4
708.325
595.225
505.148
437.386
385.534
344.521
312.287
287.099
267.411
252.031
240.057
230.866
223.985
219.17
216.083
216.069
217.13
221.649
229.002
241.711
259.862
284.48
315.369
350.049
384.464
417.304
440.957
458.606
457.26
447.349
425.954
388.661
369.934
394.586
462.041
547.666
616.746
684.991
783.876
934.564
1119.1
1275.89
1360.19
1425.63
1475.44
1495.89
1459.63
1377.79
1338.96
1270
1214.91
1158.68
1112.47
1072.24
1040.46
1014.75
995.098
980.051
968.949
960.9
955.284
951.535
949.532
948.612
948.386
948.922
950.071
951.644
953.624
955.883
958.355
960.986
963.743
966.593
969.509
972.472
975.465
978.475
981.491
984.506
987.515
990.514
993.503
996.482
999.454
1002.42
1005.4
1008.39
1011.39
1014.41
1017.45
1020.5
1023.53
1026.48
1029.33
1032.09
1034.74
1037.28
1039.72
1042.05
1044.28
1046.39
1048.39
1050.29
1052.07
1053.75
1055.31
1056.75
1058.09
1059.31
1060.4
1061.38
1062.23
1062.95
1063.53
1063.98
1064.29
1064.48
1064.53
1064.47
1064.28
1063.89
1063.28
1062.64
1061.78
1060.88
1059.86
1058.72
1057.46
1056.07
1054.57
1052.95
1051.26
1049.41
1047.55
1045.49
1043.47
1041.22
1039.03
1036.67
1034.31
1031.84
1029.36
1026.78
1024.2
1021.54
1018.89
1016.17
1013.47
1010.73
1008.01
1005.3
1002.61
999.942
997.314
994.736
992.206
989.739
987.343
985.023
982.787
980.645
978.605
976.68
974.887
973.252
971.803
970.595
969.681
969.198
969.26
969.986
972.173
979.627
11463.6
2206.69
1437.7
1245.06
1006.33
787.586
615.305
495.855
412.633
353.006
309.294
277.481
254.23
236.812
223.446
212.981
204.728
198.248
193.292
189.7
187.345
186.479
186.781
188.513
191.497
197.121
205.547
217.478
233.596
254.293
277.549
301.351
322.247
340.035
351.778
352.627
351.611
395.919
464.89
582.718
674.432
757.626
853.939
965.842
1072.73
1153.67
1215.19
1259.82
1280.85
1281.44
1229.73
1168.16
1122.64
1067.35
1026.76
979.928
944.898
911.985
886.14
864.771
848.357
835.775
826.596
820.092
815.727
813.201
812.064
811.765
812.267
813.468
815.127
817.184
819.556
822.167
824.975
827.927
830.99
834.138
837.349
840.606
843.894
847.201
850.516
853.834
857.146
860.449
863.738
867.011
870.266
873.503
876.72
879.917
883.093
886.249
889.378
892.477
895.533
898.533
901.465
904.313
907.069
909.732
912.301
914.772
917.143
919.412
921.578
923.64
925.596
927.445
929.186
930.817
932.336
933.743
935.036
936.21
937.263
938.193
938.995
939.667
940.207
940.612
940.88
941.003
941.015
940.978
940.743
940.347
939.806
939.165
938.384
937.5
936.499
935.377
934.14
932.788
931.322
929.755
928.087
926.315
924.465
922.505
920.487
918.358
916.188
913.931
911.624
909.247
906.83
904.356
901.85
899.303
896.736
894.138
891.534
888.916
886.306
883.703
881.115
878.551
876.019
873.527
871.078
868.682
866.345
864.074
861.875
859.756
857.727
855.799
853.983
852.299
850.772
849.434
848.332
847.569
847.234
847.54
848.776
852.934
11463.5
2825.86
1798.71
1298.7
915.457
654.053
500.194
399.826
334.203
291.077
261.894
240.7
224.48
211.461
200.889
192.288
185.342
179.854
175.672
172.673
170.782
170.054
170.332
171.56
173.965
177.98
183.805
191.835
202.543
216.418
233.106
250.954
269.586
289.791
315.446
360.307
432.536
555.3
669.383
760.036
845.185
929.035
1000.21
1052.13
1093.03
1123.28
1134.55
1116.98
1068.62
1028.73
985.826
944.3
907.34
870.85
841.439
813.468
791.645
772.8
758.214
746.855
738.554
732.738
729.03
727.215
726.613
726.853
728.084
729.918
732.25
734.975
737.993
741.242
744.673
748.241
751.916
755.671
759.485
763.341
767.225
771.126
775.033
778.939
782.836
786.719
790.582
794.423
798.237
802.022
805.774
809.492
813.172
816.813
820.41
823.96
827.457
830.895
834.265
837.553
840.759
843.876
846.9
849.828
852.658
855.387
858.012
860.531
862.942
865.241
867.427
869.498
871.451
873.284
874.994
876.581
878.043
879.374
880.572
881.633
882.555
883.335
883.971
884.46
884.8
884.982
885.042
885.03
884.83
884.464
883.952
883.31
882.531
881.625
880.588
879.422
878.13
876.714
875.178
873.533
871.777
869.917
867.959
865.903
863.764
861.534
859.236
856.862
854.425
851.925
849.373
846.772
844.131
841.453
838.749
836.021
833.28
830.53
827.783
825.042
822.316
819.611
816.935
814.295
811.696
809.146
806.649
804.213
801.842
799.544
797.326
795.198
793.17
791.259
789.489
787.876
786.458
785.307
784.516
784.245
784.7
786.643
11464.1
3478.06
1892.53
1155.62
740.176
520.661
397.879
328.165
285.49
256.839
236.173
220.331
207.658
197.317
188.62
181.265
175.111
170.113
166.251
163.488
161.839
161.315
161.723
163.097
165.776
169.769
175.398
183.142
193.519
207.381
225.668
248.667
277.317
320.056
388.682
496.935
615.963
713.546
794.678
866.63
923.591
964.395
995.705
1014.88
1019.55
993.648
956.716
923.557
889.124
858.538
826.798
797.26
770.817
747.191
727.555
710.563
697.135
686.375
678.393
672.73
669.193
667.537
667.097
667.762
669.423
671.795
674.773
678.19
681.949
685.97
690.189
694.558
699.04
703.606
708.233
712.902
717.599
722.311
727.026
731.736
736.432
741.107
745.756
750.374
754.956
759.498
763.997
768.451
772.855
777.207
781.501
785.736
789.906
794.008
798.037
801.989
805.86
809.645
813.339
816.934
820.427
823.815
827.094
830.26
833.31
836.242
839.051
841.735
844.289
846.712
848.999
851.149
853.157
855.021
856.731
858.289
859.695
860.944
862.035
862.966
863.733
864.336
864.771
865.031
865.139
865.146
864.987
864.631
864.114
863.444
862.622
861.653
860.538
859.279
857.878
856.339
854.662
852.85
850.916
848.864
846.702
844.435
842.072
839.616
837.078
834.46
831.771
829.016
826.203
823.337
820.427
817.479
814.502
811.5
808.484
805.459
802.434
799.415
796.41
793.426
790.47
787.548
784.667
781.832
779.049
776.324
773.661
771.068
768.551
766.118
763.78
761.551
759.456
757.496
755.698
754.115
752.809
751.924
751.548
751.993
11470.1
3712.53
1730.07
928.028
583.255
425.02
344.492
297.275
266.377
244.078
227.238
213.709
202.439
192.851
184.587
177.457
171.445
166.575
162.906
160.515
159.377
159.475
160.652
163.132
166.699
171.745
178.93
189.089
202.788
222.78
252.306
294.302
358.471
453.851
557.312
645.532
721.023
787.938
842.199
882.504
912.474
926.006
927.021
900.69
870.917
842.941
815.689
791.225
766.768
743.293
720.16
699.403
681.303
665.828
653.075
642.704
634.766
628.952
625.149
623.299
622.779
623.441
625.237
627.922
631.34
635.328
639.772
644.562
649.619
654.876
660.282
665.796
671.387
677.03
682.706
688.401
694.102
699.798
705.477
711.131
716.751
722.332
727.867
733.351
738.78
744.151
749.458
754.702
759.878
764.979
770.004
774.946
779.804
784.572
789.247
793.827
798.311
802.697
806.97
811.127
815.163
819.073
822.855
826.505
830.019
833.394
836.625
839.71
842.644
845.424
848.047
850.509
852.808
854.94
856.905
858.695
860.309
861.744
862.998
864.068
864.952
865.647
866.153
866.459
866.587
866.595
866.405
866.006
865.424
864.665
863.734
862.634
861.368
859.941
858.354
856.613
854.717
852.686
850.519
848.223
845.805
843.271
840.631
837.89
835.058
832.14
829.143
826.074
822.942
819.753
816.516
813.239
809.928
806.593
803.24
799.879
796.515
793.158
789.813
786.49
783.193
779.93
776.707
773.529
770.403
767.333
764.325
761.386
758.521
755.74
753.05
750.467
748.016
745.661
743.443
741.405
739.59
738.098
736.966
736.177
11487.8
3642.96
1442.02
746.586
489.782
375.791
315.612
279.674
255.793
238.229
223.789
211.7
201.377
192.463
184.784
178.268
172.904
168.75
165.906
164.302
163.96
164.968
167.521
172.039
178.355
187.512
201.283
221.007
248.078
288.974
349.577
426.974
510.074
583.479
649.688
707.869
757.697
798.453
831.406
847.025
848.415
827.843
803.32
778.567
756.179
736.244
717.388
699.228
680.882
663.145
646.637
632.252
620.046
609.952
601.933
595.86
591.633
589.317
588.51
588.855
590.492
593.17
596.752
601.079
606.019
611.448
617.267
623.387
629.74
636.269
642.921
649.658
656.451
663.274
670.108
676.938
683.757
690.555
697.315
704.029
710.689
717.289
723.821
730.282
736.665
742.966
749.179
755.293
761.316
767.248
773.085
778.821
784.454
789.979
795.391
800.687
805.863
810.911
815.826
820.603
825.238
829.727
834.066
838.25
842.276
846.14
849.836
853.362
856.712
859.882
862.869
865.669
868.279
870.696
872.916
874.936
876.752
878.362
879.764
880.953
881.93
882.69
883.233
883.549
883.672
883.634
883.356
882.859
882.154
881.247
880.143
878.847
877.363
875.697
873.852
871.834
869.648
867.304
864.808
862.169
859.393
856.489
853.468
850.337
847.104
843.777
840.366
836.876
833.319
829.701
826.033
822.321
818.576
814.805
811.017
807.219
803.421
799.629
795.851
792.095
788.367
784.675
781.023
777.417
773.863
770.367
766.936
763.574
760.289
757.087
753.978
750.973
748.108
745.339
742.701
740.221
737.931
735.904
734.123
732.409
11515.5
3242.75
1166.02
625.107
438.718
352.856
305.242
275.407
254.293
238.526
226.13
215.769
206.812
199.009
192.326
186.843
182.675
180.005
178.962
179.54
181.723
185.634
192.317
202.483
216.271
236.358
265.003
303.962
354.969
414.399
474.729
533.789
588.605
637.718
681.185
718.172
750.494
770.791
776.209
764.331
745.901
725.274
706.244
689.45
674.561
660.647
646.845
632.962
619.163
606.214
594.638
584.799
576.732
570.407
565.778
562.883
561.651
561.555
562.812
565.231
568.711
573.112
578.309
584.176
590.596
597.465
604.692
612.201
619.926
627.831
635.842
643.921
652.034
660.156
668.26
676.323
684.309
692.225
700.093
707.905
715.653
723.327
730.922
738.43
745.846
753.163
760.38
767.498
774.503
781.385
788.14
794.763
801.25
807.597
813.801
819.856
825.759
831.506
837.096
842.524
847.784
852.872
857.784
862.514
867.06
871.415
875.576
879.538
883.295
886.842
890.177
893.294
896.191
898.864
901.31
903.526
905.507
907.251
908.755
910.016
911.035
911.807
912.33
912.596
912.658
912.495
912.073
911.408
910.507
909.377
908.024
906.454
904.673
902.687
900.502
898.123
895.558
892.816
889.906
886.835
883.615
880.255
876.766
873.156
869.437
865.616
861.703
857.709
853.642
849.514
845.332
841.107
836.848
832.564
828.264
823.955
819.648
815.349
811.067
806.808
802.581
798.392
794.246
790.149
786.107
782.128
778.216
774.379
770.621
766.951
763.376
759.905
756.554
753.315
750.204
747.24
744.443
741.87
739.477
736.912
11544.6
2755.17
970.35
557.437
409.539
340.373
301.291
276.126
258.996
246.171
235.819
227.086
219.64
213.448
208.624
205.515
204.395
205.352
208.951
214.543
222.075
232.212
246.387
265.491
291.277
324.021
362.916
406.26
451.59
496.451
539.199
579.187
615.314
647.202
676.08
698.016
706.583
704.039
692.156
677.526
662.341
648.493
636.459
625.692
615.517
605.345
594.923
584.434
574.316
565.126
557.23
550.812
545.913
542.502
540.783
540.338
541.171
543.25
546.496
550.794
556.042
562.135
568.989
576.478
584.484
592.915
601.685
610.714
619.91
629.148
638.482
647.888
657.329
666.776
676.195
685.57
694.9
704.171
713.371
722.484
731.495
740.396
749.184
757.852
766.392
774.797
783.059
791.171
799.132
806.938
814.585
822.07
829.389
836.537
843.511
850.309
856.926
863.362
869.611
875.669
881.531
887.19
892.643
897.883
902.908
907.712
912.291
916.638
920.749
924.618
928.241
931.614
934.733
937.595
940.198
942.537
944.609
946.41
947.939
949.194
950.172
950.875
951.292
951.441
951.34
950.962
950.309
949.385
948.197
946.752
945.058
943.122
940.951
938.552
935.932
933.099
930.061
926.827
923.409
919.816
916.06
912.152
908.104
903.927
899.631
895.228
890.729
886.145
881.486
876.765
871.992
867.175
862.326
857.453
852.567
847.676
842.789
837.915
833.061
828.236
823.446
818.698
813.998
809.352
804.767
800.251
795.809
791.448
787.174
782.992
778.911
774.938
771.081
767.342
763.732
760.264
756.95
753.839
750.877
747.545
11567.7
2323.89
874.189
530.456
401.141
339.254
305.23
284.423
270.28
259.793
251.541
244.929
239.812
236.431
235.121
235.82
239.283
245.553
254.126
264.172
277.195
294.243
315.484
340.787
369.705
401.257
434.267
467.611
500.225
531.361
559.929
586.166
610.729
631.845
642.251
644.229
639.205
631.32
621.02
610.962
601.777
593.647
586.224
579.042
571.751
564.193
556.468
548.902
541.915
535.899
531.095
527.593
525.599
524.923
525.455
527.315
530.463
534.754
540.096
546.398
553.558
561.448
569.884
578.842
588.323
598.258
608.568
619.176
630.021
641.077
652.228
663.404
674.56
685.674
696.683
707.566
718.316
728.925
739.379
749.676
759.83
769.846
779.726
789.464
799.049
808.468
817.71
826.768
835.637
844.316
852.8
861.088
869.175
877.059
884.735
892.201
899.457
906.498
913.322
919.922
926.293
932.429
938.324
943.973
949.373
954.519
959.407
964.03
968.383
972.46
976.257
979.769
982.993
985.927
988.568
990.912
992.955
994.695
996.13
997.257
998.077
998.589
998.795
998.702
998.308
997.612
996.613
995.316
993.729
991.857
989.711
987.298
984.628
981.708
978.548
975.155
971.54
967.713
963.687
959.473
955.085
950.534
945.834
940.995
936.032
930.958
925.785
920.526
915.194
909.8
904.355
898.871
893.357
887.823
882.28
876.737
871.203
865.688
860.2
854.746
849.333
843.968
838.658
833.409
828.23
823.128
818.111
813.184
808.351
803.62
798.997
794.487
790.097
785.831
781.698
777.709
773.867
770.222
766.723
762.694
11582.5
1988.85
801.852
508.721
397.276
343.95
315.102
297.671
286.157
278.053
272.242
268.343
266.556
266.403
268.702
273.553
280.91
290.532
301.97
315.732
332.28
351.429
372.744
395.701
419.718
444.184
468.54
492.001
513.859
534.815
555.104
572.864
583.802
587.664
587.735
585.158
580.319
574.783
569.05
563.764
558.895
554.279
549.674
544.901
539.905
534.773
529.732
525.105
521.233
518.435
517.05
516.718
517.559
519.606
522.776
526.999
532.052
538.142
545.304
553.476
562.546
572.416
583.028
594.273
606.038
618.24
630.797
643.622
656.65
669.848
683.052
696.148
709.053
721.692
734.069
746.185
758.05
769.687
781.118
792.363
803.434
814.351
825.126
835.754
846.214
856.484
866.544
876.382
885.988
895.365
904.512
913.427
922.107
930.547
938.745
946.699
954.408
961.869
969.078
976.031
982.72
989.14
995.285
1001.15
1006.73
1012.03
1017.03
1021.73
1026.14
1030.23
1034.01
1037.48
1040.62
1043.44
1045.94
1048.11
1049.94
1051.45
1052.61
1053.45
1053.94
1054.1
1053.93
1053.43
1052.6
1051.44
1049.95
1048.14
1046.01
1043.58
1040.85
1037.83
1034.54
1030.97
1027.15
1023.08
1018.78
1014.25
1009.51
1004.57
999.446
994.152
988.703
983.109
977.386
971.551
965.619
959.603
953.517
947.372
941.182
934.956
928.705
922.441
916.173
909.912
903.668
897.45
891.267
885.126
879.033
872.996
867.024
861.123
855.304
849.574
843.94
838.408
832.981
827.665
822.468
817.392
812.441
807.624
802.951
798.425
794.048
789.874
785.861
781.17
11592.6
1973.3
795.426
509.12
403.49
354.857
329.365
314.485
305.145
299.195
295.948
294.794
295.38
298.227
303.272
310.399
319.39
330.067
342.376
356.51
372.139
388.866
406.301
424.057
441.747
458.979
475.516
491.777
508.086
522.024
531.746
537.532
539.84
540.869
540.886
539.704
538.009
536.181
534.331
532.54
530.755
528.946
527.166
525.335
523.439
521.628
520.1
519.122
518.777
519.001
519.9
521.881
525.076
529.509
535.148
541.983
550.082
559.363
569.789
581.308
593.688
606.8
620.545
634.799
649.44
664.394
679.597
694.893
710.193
725.39
740.341
754.939
769.106
782.795
796.001
808.743
821.056
833.026
844.773
856.344
867.745
879.016
890.195
901.265
912.184
922.908
933.403
943.643
953.603
963.302
972.742
981.923
990.837
999.481
1007.85
1015.94
1023.76
1031.29
1038.55
1045.51
1052.19
1058.56
1064.63
1070.38
1075.83
1080.95
1085.76
1090.24
1094.4
1098.21
1101.69
1104.82
1107.61
1110.04
1112.13
1113.87
1115.25
1116.27
1116.93
1117.24
1117.18
1116.79
1116.03
1114.92
1113.45
1111.64
1109.48
1106.98
1104.14
1100.99
1097.51
1093.74
1089.68
1085.33
1080.72
1075.85
1070.73
1065.38
1059.81
1054.04
1048.08
1041.94
1035.64
1029.2
1022.63
1015.95
1009.18
1002.33
995.414
988.447
981.44
974.404
967.351
960.29
953.235
946.195
939.181
932.203
925.27
918.39
911.565
904.808
898.127
891.532
885.034
878.639
872.355
866.184
860.129
854.201
848.402
842.734
837.198
831.812
826.586
821.515
816.592
811.849
807.294
801.947
11597.8
1910.19
779.188
511.473
413.775
369.181
346.44
333.453
325.501
321.215
319.585
319.554
321.964
326.356
332.438
339.997
348.846
358.858
369.915
381.855
394.421
407.348
420.386
433.314
445.956
458.178
469.785
480.019
488.125
494.636
500.13
504.61
508.315
511.677
514.642
517.2
519.464
521.505
523.344
525.006
526.489
527.703
528.459
528.971
529.646
530.684
532.272
534.596
537.784
541.993
547.443
554.121
562.081
571.3
581.73
593.349
606.178
620.212
635.435
651.598
668.33
685.496
702.973
720.635
738.359
756.005
773.438
790.618
807.467
823.852
839.575
854.508
868.624
881.948
894.52
906.388
917.565
928.277
938.948
949.632
960.207
970.757
981.42
992.103
1002.7
1013.13
1023.34
1033.3
1043
1052.45
1061.62
1070.51
1079.12
1087.43
1095.43
1103.14
1110.53
1117.63
1124.41
1130.89
1137.05
1142.89
1148.39
1153.56
1158.39
1162.89
1167.05
1170.86
1174.33
1177.45
1180.21
1182.61
1184.64
1186.31
1187.61
1188.56
1189.13
1189.32
1189.16
1188.64
1187.73
1186.46
1184.83
1182.83
1180.47
1177.76
1174.69
1171.28
1167.52
1163.42
1159.01
1154.29
1149.28
1143.98
1138.41
1132.58
1126.5
1120.19
1113.65
1106.91
1099.98
1092.88
1085.62
1078.24
1070.75
1063.16
1055.48
1047.73
1039.92
1032.07
1024.18
1016.28
1008.36
1000.45
992.554
984.682
976.847
969.06
961.331
953.666
946.066
938.55
931.128
923.808
916.601
909.514
902.55
895.714
889.006
882.442
876.022
869.743
863.608
857.625
851.8
846.135
840.621
835.273
830.152
824.155
11599.9
1891.88
779.906
521.464
428.833
386.716
365.218
353.048
345.7
342.047
340.802
341.216
344.025
348.499
354.29
361.121
368.793
377.22
386.292
395.893
405.907
416.254
426.91
437.458
447.649
457.262
466.177
474.564
482.399
489.829
496.911
503.522
509.479
514.985
520.274
525.347
530.253
535.035
539.744
544.462
549.288
554.233
559.497
565.206
571.471
578.442
586.236
594.954
604.696
615.578
627.704
641.1
655.865
671.774
688.599
706.205
724.461
743.169
762.133
781.23
800.478
819.804
839.116
858.314
877.296
895.958
914.192
931.903
948.96
965.197
980.53
994.733
1007.93
1020.27
1031.83
1042.65
1052.77
1062.31
1071.41
1080.12
1088.59
1097.15
1106.36
1115.77
1125.16
1134.39
1143.39
1152.15
1160.69
1168.97
1176.98
1184.7
1192.11
1199.22
1206
1212.46
1218.6
1224.43
1229.94
1235.14
1240.02
1244.57
1248.79
1252.66
1256.19
1259.38
1262.25
1264.77
1266.96
1268.79
1270.28
1271.4
1272.16
1272.56
1272.59
1272.32
1271.66
1270.63
1269.25
1267.5
1265.39
1262.92
1260.09
1256.91
1253.38
1249.51
1245.28
1240.72
1235.81
1230.58
1225.04
1219.19
1213.05
1206.65
1199.98
1193.05
1185.88
1178.48
1170.87
1163.05
1155.05
1146.89
1138.57
1130.15
1121.63
1113.02
1104.33
1095.58
1086.78
1077.95
1069.09
1060.23
1051.36
1042.51
1033.69
1024.9
1016.17
1007.49
998.89
990.374
981.96
973.652
965.456
957.377
949.431
941.621
933.948
926.415
919.023
911.779
904.68
897.732
890.939
884.307
877.836
871.529
865.377
859.385
853.662
847.018
11598.4
1869.1
782.045
533.187
442.97
402.373
382.199
370.404
363.212
359.719
358.559
359.047
361.848
366.141
371.69
378.249
385.691
394.02
403.039
412.622
422.66
432.779
442.885
453.091
463.444
474.043
484.919
495.718
506.512
517.349
528.229
539.119
550.119
561.233
572.4
583.62
594.905
606.272
617.759
629.413
641.262
653.461
666.17
679.487
693.488
708.298
723.897
740.263
757.389
775.289
794.004
813.687
833.658
853.829
874.178
894.601
914.976
935.158
955.03
974.511
993.564
1012.15
1030.24
1047.78
1064.75
1081.11
1096.83
1111.89
1126.26
1139.9
1152.8
1164.93
1176.19
1186.81
1196.86
1206.35
1215.28
1223.64
1231.2
1238.07
1244.66
1251.41
1258.58
1265.75
1272.77
1279.56
1286.1
1292.38
1298.41
1304.2
1309.73
1314.99
1319.97
1324.66
1329.06
1333.16
1336.99
1340.55
1343.84
1346.85
1349.58
1352.03
1354.18
1356.02
1357.56
1358.82
1359.8
1360.48
1360.86
1360.93
1360.74
1360.18
1359.3
1358.12
1356.62
1354.82
1352.69
1350.24
1347.46
1344.35
1340.91
1337.15
1333.06
1328.65
1323.93
1318.88
1313.52
1307.84
1301.84
1295.54
1288.93
1282.05
1274.9
1267.5
1259.84
1251.95
1243.82
1235.47
1226.91
1218.16
1209.23
1200.14
1190.91
1181.55
1172.09
1162.54
1152.92
1143.24
1133.51
1123.75
1113.98
1104.21
1094.45
1084.71
1075
1065.34
1055.74
1046.21
1036.77
1027.42
1018.2
1009.1
1000.12
991.271
982.56
973.989
965.564
957.287
949.159
941.187
933.382
925.745
918.276
910.974
903.836
896.866
890.056
883.404
877.06
869.798
11594.3
1855.11
786.508
541.33
454.252
415.953
397.113
386.176
380.083
377.455
376.902
378.742
382.872
388.872
396.353
405.175
415.302
425.982
437.431
450.017
463.65
477.762
492.708
508.674
525.747
543.949
563.15
583.163
603.851
625.058
646.629
668.475
690.571
712.826
735.181
757.696
780.335
802.947
825.442
847.792
869.995
892.124
914.239
936.42
958.822
982.031
1005.44
1028.75
1051.78
1074.39
1096.4
1117.33
1137.4
1156.62
1175
1192.54
1209.23
1225.03
1239.94
1253.97
1267.12
1279.43
1290.93
1301.66
1311.65
1320.9
1329.48
1337.41
1344.73
1351.48
1357.78
1364.01
1370.13
1376.03
1381.59
1386.76
1391.26
1395.46
1399.45
1403.39
1407.69
1412.2
1416.13
1419.62
1422.83
1425.8
1428.58
1431.17
1433.59
1435.84
1437.91