/*--------------------------------*- C++ -*----------------------------------*\
| =========                 |                                                 |
| \\      /  F ield         | OpenFOAM: The Open Source CFD Toolbox           |
|  \\    /   O peration     | Version:  2406                                  |
|   \\  /    A nd           | Website:  www.openfoam.com                      |
|    \\/     M anipulation  |                                                 |
\*---------------------------------------------------------------------------*/
FoamFile
{
    version     2.0;
    format      ascii;
    arch        "LSB;label=32;scalar=64";
    class       volScalarField;
    location    "300";
    object      p;
}
// * * * * * * * * * * * * * * * * * * * * * * * * * * * * * * * * * * * * * //

dimensions      [0 2 -2 0 0 0 0];

internalField   nonuniform List<scalar> 
12225
(
-5.30986
-6.17014
-6.54935
-6.66177
-6.77833
-6.92077
-7.04957
-7.15591
-7.24753
-7.3314
-7.41234
-7.49181
-7.57063
-7.65058
-7.73413
-7.82594
-7.9283
-8.05564
-5.58703
-6.22366
-6.54163
-6.64945
-6.76267
-6.90084
-7.02733
-7.13324
-7.22613
-7.31256
-7.39525
-7.47544
-7.55425
-7.63351
-7.71529
-7.80269
-7.8935
-7.98216
-5.79089
-6.2211
-6.51797
-6.64831
-6.76681
-6.90166
-7.02541
-7.12981
-7.2221
-7.30825
-7.39003
-7.46874
-7.54567
-7.62242
-7.70015
-7.77991
-7.85635
-7.9186
-5.92886
-6.24374
-6.52602
-6.66588
-6.77959
-6.90528
-7.02332
-7.12481
-7.21538
-7.3
-7.38042
-7.45773
-7.53308
-7.60746
-7.68131
-7.75415
-7.82063
-7.87249
-6.04418
-6.2858
-6.5408
-6.68113
-6.79085
-6.90976
-7.02343
-7.1227
-7.21177
-7.29496
-7.37405
-7.44983
-7.5232
-7.5947
-7.66432
-7.73085
-7.79002
-7.83571
-6.14793
-6.33165
-6.55414
-6.69328
-6.80139
-6.91495
-7.02439
-7.12134
-7.20875
-7.29043
-7.36798
-7.44197
-7.51307
-7.58154
-7.64706
-7.70821
-7.76174
-7.80312
-6.24154
-6.37934
-6.56996
-6.70567
-6.81194
-6.92002
-7.0249
-7.11931
-7.20494
-7.285
-7.36085
-7.43295
-7.50171
-7.56722
-7.629
-7.68566
-7.73484
-7.77346
-6.32563
-6.42884
-6.59013
-6.71944
-6.8228
-6.92523
-7.02532
-7.11688
-7.20048
-7.27867
-7.35262
-7.42267
-7.48903
-7.55167
-7.61003
-7.66297
-7.70885
-7.74565
-6.40115
-6.47907
-6.61416
-6.7347
-6.83423
-6.93104
-7.02614
-7.11448
-7.19571
-7.27175
-7.34356
-7.41139
-7.47529
-7.53514
-7.59043
-7.64027
-7.68359
-7.71913
-6.46906
-6.52863
-6.64103
-6.75137
-6.84625
-6.93759
-7.02758
-7.11233
-7.19089
-7.26452
-7.33399
-7.39946
-7.46086
-7.51803
-7.57056
-7.61778
-7.65908
-7.69367
-6.53025
-6.57641
-6.6697
-6.76925
-6.85879
-6.94475
-7.02961
-7.11051
-7.18614
-7.25715
-7.32413
-7.38713
-7.44604
-7.50067
-7.55071
-7.59571
-7.63535
-7.66915
-6.58089
-6.61806
-6.69682
-6.78649
-6.8706
-6.95172
-7.03193
-7.10912
-7.18187
-7.25036
-7.31494
-7.37564
-7.4323
-7.48474
-7.53271
-7.57594
-7.61428
-7.64742
-6.62634
-6.65694
-6.72359
-6.80389
-6.88241
-6.95881
-7.03449
-7.10795
-7.17772
-7.24362
-7.30579
-7.3642
-7.41868
-7.46906
-7.51517
-7.55682
-7.59402
-7.62657
-6.67261
-6.69768
-6.75316
-6.82369
-6.89577
-6.96688
-7.03758
-7.10677
-7.17307
-7.23595
-7.29535
-7.35118
-7.40327
-7.45145
-7.49562
-7.5357
-7.57173
-7.60367
-6.71799
-6.73844
-6.78421
-6.84516
-6.91017
-6.97555
-7.04095
-7.10547
-7.16783
-7.2273
-7.28362
-7.33663
-7.38615
-7.43206
-7.47426
-7.51276
-7.54765
-7.57893
-6.75996
-6.77667
-6.81447
-6.86667
-6.92452
-6.98397
-7.04397
-7.10362
-7.16176
-7.21756
-7.2706
-7.32065
-7.36754
-7.41115
-7.45142
-7.48838
-7.52214
-7.55273
-6.79492
-6.80881
-6.8405
-6.88543
-6.93675
-6.99057
-7.04544
-7.10039
-7.15434
-7.20645
-7.25621
-7.30335
-7.34767
-7.38907
-7.42751
-7.46303
-7.49571
-7.52564
-6.81757
-6.82958
-6.85723
-6.89711
-6.94348
-6.99277
-7.0434
-7.09437
-7.14468
-7.19353
-7.24036
-7.28489
-7.32693
-7.36639
-7.40322
-7.43747
-7.46921
-7.49852
-6.81951
-6.83086
-6.85715
-6.89514
-6.93932
-6.98624
-7.03443
-7.08299
-7.13098
-7.17762
-7.22241
-7.26508
-7.30549
-7.34354
-7.37923
-7.4126
-7.44371
-7.47267
-6.79334
-6.80608
-6.83518
-6.87615
-6.92237
-6.97036
-7.01911
-7.06793
-7.11588
-7.16224
-7.20659
-7.24877
-7.28867
-7.32626
-7.36155
-7.39461
-7.42551
-7.4544
-6.75431
-6.76978
-6.80456
-6.85149
-6.90193
-6.95266
-7.00353
-7.05403
-7.10317
-7.15023
-7.19499
-7.23738
-7.27739
-7.315
-7.35029
-7.38335
-7.4143
-7.44327
-6.70346
-6.72378
-6.76805
-6.82387
-6.87985
-6.93419
-6.98814
-7.04122
-7.09217
-7.14042
-7.186
-7.22896
-7.26933
-7.30718
-7.34262
-7.3758
-7.40686
-7.43599
-6.64249
-6.6709
-6.72943
-6.79639
-6.85815
-6.91639
-6.97407
-7.03017
-7.08314
-7.13274
-7.17931
-7.22299
-7.26383
-7.30196
-7.33757
-7.37088
-7.40205
-7.43132
-6.57186
-6.6136
-6.69233
-6.77134
-6.83786
-6.90012
-6.96205
-7.02128
-7.07615
-7.12705
-7.17461
-7.219
-7.26029
-7.29867
-7.33441
-7.36779
-7.39904
-7.42843
-6.49116
-6.55434
-6.66035
-6.75034
-6.81944
-6.88555
-6.95203
-7.01426
-7.07082
-7.12294
-7.17146
-7.21649
-7.25811
-7.2966
-7.33233
-7.36564
-7.3968
-7.42616
-6.39957
-6.49525
-6.63512
-6.73379
-6.8035
-6.87306
-6.94347
-7.00802
-7.06592
-7.11917
-7.16865
-7.21438
-7.2564
-7.2951
-7.33088
-7.36416
-7.39533
-7.42493
-6.2956
-6.44066
-6.61339
-6.71623
-6.78771
-6.86234
-6.93658
-7.00281
-7.0616
-7.11564
-7.16576
-7.21184
-7.25397
-7.29263
-7.32819
-7.36107
-7.3919
-7.42149
-6.1718
-6.40565
-6.59939
-6.69294
-6.76593
-6.84879
-6.92907
-6.99863
-7.05986
-7.11602
-7.16783
-7.21506
-7.25785
-7.2969
-7.3327
-7.36541
-7.39593
-7.42607
-5.99092
-6.39865
-6.62434
-6.69638
-6.76039
-6.8441
-6.92516
-6.99432
-7.0554
-7.11191
-7.16426
-7.21191
-7.25485
-7.29357
-7.32885
-7.3611
-7.39083
-7.41867
-5.72718
-6.32574
-6.61765
-6.69728
-6.76563
-6.85532
-6.94027
-7.01116
-7.07306
-7.13019
-7.18289
-7.23053
-7.27299
-7.31011
-7.34287
-7.37286
-7.40008
-7.42222
-8.43224
-8.43237
-8.43247
-8.43261
-8.4325
-8.43122
-8.42809
-8.42367
-8.41928
-8.41614
-8.41565
-8.41829
-8.42368
-8.43101
-8.43939
-8.44798
-8.45603
-8.46296
-8.46831
-8.47177
-8.47351
-8.47398
-8.47345
-8.47211
-8.47019
-8.46809
-8.46616
-8.46469
-8.46381
-8.46343
-8.46332
-8.46319
-8.46284
-8.46229
-8.46159
-8.46082
-8.46
-8.459
-8.45766
-8.45594
-8.45405
-8.4524
-8.45163
-8.45221
-8.45404
-8.45648
-8.45879
-8.46054
-8.46189
-8.46327
-8.46494
-8.46817
-8.47426
-8.4802
-8.48184
-8.47804
-8.47334
-8.47454
-8.48921
-8.52108
-8.57117
-8.6376
-8.71704
-8.80529
-8.89755
-8.98952
-9.0779
-9.16052
-9.23601
-9.30371
-9.36339
-9.41519
-9.45938
-9.49634
-9.52642
-9.55
-9.56737
-9.57878
-9.58444
-9.5845
-9.57906
-9.56821
-9.55197
-9.53037
-9.50339
-9.47102
-9.43318
-9.38983
-9.34087
-9.28623
-9.22581
-9.15954
-9.08738
-9.0093
-8.92539
-8.8357
-8.74011
-8.63832
-8.53
-8.41498
-8.29326
-8.16494
-8.03003
-7.88852
-7.74042
-7.58572
-7.42445
-7.25664
-7.08234
-6.90162
-6.71458
-6.52132
-6.32197
-6.11666
-5.90559
-5.68893
-5.46692
-5.23979
-5.0078
-4.77122
-4.53032
-4.28541
-4.03688
-3.78509
-3.53045
-3.27317
-3.01349
-2.75175
-2.48844
-2.22396
-1.9587
-1.69303
-1.42733
-1.16198
-0.897347
-0.633787
-0.371645
-0.11124
0.147133
0.403203
0.656698
0.907376
1.155
1.39933
1.64018
1.87735
2.11071
2.34011
2.56545
2.78663
3.00358
3.21627
3.42467
3.62878
3.82863
4.02425
4.21572
4.40311
4.58653
4.7661
4.94196
5.11424
5.28313
5.4488
5.61142
5.77119
5.92831
6.08297
6.23538
6.38574
6.53424
6.68108
6.82646
6.97057
7.11358
7.25564
7.39701
7.53825
7.68119
7.81557
-8.43374
-8.43401
-8.43458
-8.43528
-8.43548
-8.43463
-8.43227
-8.42899
-8.42635
-8.42566
-8.42745
-8.43171
-8.43796
-8.44549
-8.45357
-8.46154
-8.4689
-8.47524
-8.48036
-8.48414
-8.48637
-8.48685
-8.48567
-8.48315
-8.47968
-8.47576
-8.4719
-8.46859
-8.46612
-8.46453
-8.46357
-8.46287
-8.46213
-8.46139
-8.46083
-8.46047
-8.46012
-8.45957
-8.45861
-8.45717
-8.45559
-8.45444
-8.45432
-8.45548
-8.45757
-8.45979
-8.46136
-8.46192
-8.46226
-8.46272
-8.4613
-8.45855
-8.4585
-8.46593
-8.47748
-8.48338
-8.483
-8.48819
-8.508
-8.5466
-8.60417
-8.67796
-8.76322
-8.85439
-8.94652
-9.03584
-9.11982
-9.19701
-9.2667
-9.32873
-9.38321
-9.43044
-9.47074
-9.50448
-9.53196
-9.55347
-9.56923
-9.57944
-9.58421
-9.58365
-9.57781
-9.56674
-9.55044
-9.52891
-9.50212
-9.47003
-9.4326
-9.38974
-9.34137
-9.28743
-9.22781
-9.16245
-9.09124
-9.0141
-8.93094
-8.8416
-8.74597
-8.64404
-8.53582
-8.42131
-8.30046
-8.17313
-8.03928
-7.89885
-7.75184
-7.59825
-7.43809
-7.27139
-7.09821
-6.91862
-6.73269
-6.54053
-6.34227
-6.13805
-5.92803
-5.71241
-5.49139
-5.26521
-5.03412
-4.79836
-4.55818
-4.31389
-4.06584
-3.81436
-3.55978
-3.30254
-3.04307
-2.78171
-2.51877
-2.2546
-1.98957
-1.72407
-1.4585
-1.19321
-0.928591
-0.664982
-0.402733
-0.142169
0.116415
0.372742
0.626545
0.877575
1.12559
1.37035
1.61166
1.84934
2.08323
2.31318
2.53909
2.76087
2.97843
3.19174
3.40077
3.60551
3.80599
4.00224
4.19432
4.38232
4.56633
4.74647
4.92287
5.09568
5.26506
5.43118
5.59423
5.7544
5.91188
6.06687
6.21957
6.37019
6.51892
6.66597
6.81154
6.95584
7.09908
7.24142
7.38326
7.52461
7.66973
7.80239
-8.43528
-8.43532
-8.43548
-8.43572
-8.43592
-8.43591
-8.43585
-8.4364
-8.43828
-8.44184
-8.44699
-8.45341
-8.46065
-8.46822
-8.47566
-8.4826
-8.48871
-8.49381
-8.49774
-8.50044
-8.50185
-8.50192
-8.5007
-8.49834
-8.49503
-8.49094
-8.48632
-8.48141
-8.47648
-8.47181
-8.4676
-8.464
-8.46115
-8.45913
-8.45792
-8.45721
-8.45658
-8.4557
-8.45458
-8.45352
-8.45309
-8.45383
-8.45599
-8.45919
-8.46225
-8.46406
-8.46354
-8.45989
-8.45503
-8.45222
-8.45368
-8.45701
-8.4613
-8.47229
-8.49138
-8.51504
-8.54161
-8.57428
-8.61636
-8.66873
-8.73038
-8.79931
-8.87292
-8.9485
-9.02366
-9.09648
-9.16558
-9.23001
-9.28919
-9.34278
-9.39064
-9.43275
-9.46917
-9.5
-9.52534
-9.54531
-9.56
-9.56949
-9.57384
-9.57308
-9.56724
-9.55631
-9.54027
-9.51911
-9.49278
-9.46123
-9.4244
-9.38222
-9.33461
-9.28148
-9.22278
-9.15841
-9.0883
-9.01237
-8.9305
-8.84251
-8.74825
-8.64766
-8.54073
-8.4275
-8.30793
-8.18194
-8.04945
-7.91043
-7.76486
-7.61271
-7.45401
-7.28878
-7.11707
-6.93893
-6.75446
-6.56375
-6.36691
-6.1641
-5.95547
-5.7412
-5.5215
-5.2966
-5.06674
-4.83216
-4.59312
-4.34992
-4.1029
-3.85239
-3.59872
-3.34231
-3.08356
-2.82283
-2.56045
-2.29678
-2.03218
-1.76703
-1.50172
-1.23663
-0.972113
-0.708543
-0.446263
-0.185594
0.0731613
0.329719
0.583818
0.835194
1.0836
1.3288
1.57061
1.80882
2.04327
2.27383
2.50037
2.7228
2.94104
3.15503
3.36476
3.5702
3.77138
3.96832
4.16109
4.34975
4.53441
4.71516
4.89215
5.06551
5.23539
5.40197
5.56542
5.72594
5.88371
6.03893
6.1918
6.34253
6.49132
6.63836
6.78388
6.9281
7.07123
7.21347
7.35537
7.49619
7.64336
7.77121
-8.43634
-8.43606
-8.43569
-8.43565
-8.43673
-8.43942
-8.44363
-8.44907
-8.45543
-8.46244
-8.46979
-8.47723
-8.48454
-8.4915
-8.49791
-8.50358
-8.50835
-8.51211
-8.51477
-8.51631
-8.5167
-8.51593
-8.51406
-8.51116
-8.50735
-8.50272
-8.49737
-8.49143
-8.48502
-8.4783
-8.47149
-8.46487
-8.45876
-8.45347
-8.44913
-8.44572
-8.44311
-8.44125
-8.44036
-8.44103
-8.44383
-8.44852
-8.45389
-8.45816
-8.45964
-8.4586
-8.45625
-8.45375
-8.45258
-8.45473
-8.46298
-8.47762
-8.49706
-8.52181
-8.55243
-8.58811
-8.62782
-8.67126
-8.71895
-8.77117
-8.82773
-8.88793
-8.95066
-9.01455
-9.07822
-9.14037
-9.19996
-9.25615
-9.30834
-9.35611
-9.39921
-9.43749
-9.47086
-9.49932
-9.52286
-9.54148
-9.55521
-9.56405
-9.568
-9.56705
-9.5612
-9.55041
-9.53464
-9.51386
-9.488
-9.457
-9.4208
-9.3793
-9.33244
-9.28012
-9.22227
-9.15879
-9.0896
-9.01462
-8.93374
-8.84681
-8.75371
-8.65436
-8.54873
-8.4368
-8.31853
-8.19385
-8.0627
-7.92504
-7.78083
-7.63008
-7.47277
-7.30895
-7.13864
-6.9619
-6.77881
-6.58948
-6.394
-6.19252
-5.9852
-5.77221
-5.55375
-5.33004
-5.10132
-4.86784
-4.62985
-4.38767
-4.1416
-3.89199
-3.63917
-3.38353
-3.12544
-2.86528
-2.60338
-2.34013
-2.07589
-1.81105
-1.54596
-1.28102
-1.01659
-0.753029
-0.490689
-0.229893
0.0290534
0.285858
0.540259
0.791986
1.0408
1.28645
1.52874
1.76748
2.0025
2.23366
2.46083
2.68391
2.90283
3.11751
3.32794
3.53409
3.73597
3.93362
4.12708
4.31642
4.50174
4.68314
4.86074
5.03467
5.20509
5.37217
5.53608
5.69699
5.85511
6.01063
6.16373
6.31463
6.46353
6.6106
6.7561
6.90024
7.04327
7.18531
7.32702
7.46681
7.61426
7.7356
-8.43847
-8.4379
-8.4374
-8.43858
-8.44276
-8.44946
-8.45758
-8.4663
-8.47507
-8.48351
-8.49149
-8.49893
-8.50578
-8.51199
-8.51745
-8.52207
-8.52575
-8.52842
-8.53003
-8.53056
-8.52999
-8.52834
-8.52563
-8.52191
-8.51724
-8.51168
-8.5053
-8.49818
-8.49043
-8.48213
-8.4734
-8.46441
-8.45543
-8.44682
-8.43897
-8.43236
-8.42743
-8.42472
-8.4248
-8.42799
-8.43364
-8.43982
-8.44485
-8.44812
-8.44961
-8.45033
-8.45175
-8.45573
-8.46394
-8.4773
-8.4968
-8.52251
-8.55338
-8.58816
-8.62578
-8.66574
-8.70783
-8.75235
-8.79964
-8.84979
-8.90256
-8.95741
-9.01357
-9.07013
-9.12617
-9.18083
-9.23334
-9.28309
-9.32959
-9.37246
-9.41141
-9.44626
-9.47685
-9.50307
-9.52485
-9.54213
-9.55484
-9.56294
-9.5664
-9.56516
-9.55919
-9.54843
-9.53281
-9.51229
-9.48679
-9.45624
-9.42055
-9.37965
-9.33344
-9.28183
-9.22473
-9.16205
-9.0937
-9.01957
-8.93957
-8.85358
-8.76149
-8.66322
-8.55871
-8.4479
-8.33075
-8.2072
-8.07718
-7.94065
-7.79759
-7.64798
-7.49182
-7.32913
-7.15995
-6.98434
-6.80236
-6.61411
-6.41971
-6.21927
-6.01295
-5.80094
-5.58342
-5.36061
-5.13274
-4.90006
-4.66284
-4.42137
-4.17598
-3.92699
-3.67475
-3.41962
-3.16199
-2.90219
-2.6406
-2.37758
-2.11355
-1.84885
-1.58387
-1.31897
-1.05454
-0.790921
-0.528473
-0.267519
-0.00837074
0.248685
0.503369
0.75542
1.00458
1.25062
1.49333
1.73252
1.96801
2.19966
2.42734
2.65095
2.87041
3.08564
3.29662
3.50333
3.70576
3.90396
4.09796
4.28783
4.47365
4.65554
4.8336
5.00797
5.1788
5.34625
5.51048
5.6717
5.83006
5.98578
6.13903
6.29003
6.43898
6.58606
6.73149
6.87546
7.01823
7.15989
7.3011
7.43964
7.58642
7.70082
-8.44284
-8.44183
-8.44211
-8.44652
-8.4545
-8.46403
-8.474
-8.48375
-8.49294
-8.50143
-8.50924
-8.51637
-8.52277
-8.5284
-8.53318
-8.53704
-8.53992
-8.54177
-8.54257
-8.5423
-8.54096
-8.53855
-8.53511
-8.53067
-8.52525
-8.51889
-8.5116
-8.50343
-8.49448
-8.48484
-8.4746
-8.46391
-8.45301
-8.44226
-8.43226
-8.42388
-8.41796
-8.41536
-8.41636
-8.41985
-8.42428
-8.42854
-8.43235
-8.4362
-8.44096
-8.44782
-8.45772
-8.47181
-8.49093
-8.51523
-8.5443
-8.57714
-8.61297
-8.65128
-8.69147
-8.73334
-8.77674
-8.82175
-8.86841
-8.91664
-8.96621
-9.01673
-9.06772
-9.1186
-9.16877
-9.21766
-9.26471
-9.30945
-9.35148
-9.39044
-9.42604
-9.45806
-9.48629
-9.51059
-9.53081
-9.54685
-9.55861
-9.566
-9.56894
-9.56738
-9.56122
-9.55041
-9.53486
-9.51451
-9.48926
-9.45905
-9.42378
-9.38335
-9.33767
-9.28665
-9.23018
-9.16818
-9.10053
-9.02714
-8.9479
-8.86271
-8.77146
-8.67406
-8.57044
-8.46054
-8.34429
-8.22164
-8.09251
-7.95688
-7.8147
-7.66596
-7.51067
-7.34884
-7.1805
-7.00571
-6.82453
-6.63705
-6.44339
-6.24367
-6.03804
-5.82668
-5.60977
-5.38753
-5.16018
-4.92799
-4.69121
-4.45015
-4.20513
-3.95647
-3.70452
-3.44963
-3.19219
-2.93254
-2.67105
-2.4081
-2.14408
-1.87937
-1.61435
-1.34938
-1.08483
-0.821076
-0.558461
-0.297311
-0.0379385
0.219366
0.474318
0.726655
0.976117
1.22248
1.46552
1.70505
1.94089
2.1729
2.40095
2.62494
2.84476
3.06037
3.27172
3.47879
3.68158
3.88012
4.07444
4.26463
4.45075
4.63291
4.81122
4.98581
5.15683
5.32444
5.48879
5.65009
5.8085
5.96423
6.11746
6.26839
6.4172
6.56411
6.70929
6.85295
6.99531
7.13639
7.2769
7.41411
7.56005
7.6677
-8.44876
-8.44805
-8.45061
-8.45838
-8.46837
-8.47863
-8.4886
-8.49805
-8.50689
-8.5151
-8.52265
-8.52948
-8.53553
-8.54074
-8.54503
-8.54837
-8.55069
-8.55197
-8.55219
-8.55134
-8.54942
-8.54646
-8.54246
-8.53746
-8.53147
-8.52444
-8.51635
-8.50733
-8.49751
-8.48696
-8.47578
-8.46411
-8.45232
-8.44089
-8.43054
-8.42231
-8.4171
-8.41495
-8.41472
-8.41545
-8.41715
-8.42026
-8.42545
-8.43303
-8.44348
-8.45789
-8.47679
-8.49999
-8.52712
-8.55769
-8.59135
-8.62749
-8.66566
-8.70563
-8.74709
-8.78984
-8.83366
-8.87843
-8.92409
-8.97051
-9.01751
-9.06483
-9.11215
-9.15907
-9.20516
-9.25002
-9.29321
-9.33437
-9.37312
-9.40916
-9.4422
-9.47201
-9.49838
-9.5211
-9.54003
-9.55502
-9.56594
-9.57269
-9.57515
-9.57325
-9.56688
-9.55597
-9.54043
-9.52017
-9.49511
-9.46514
-9.43018
-9.39012
-9.34486
-9.2943
-9.23835
-9.17689
-9.10982
-9.03703
-8.95842
-8.87387
-8.78329
-8.68659
-8.58368
-8.47448
-8.35893
-8.23696
-8.10851
-7.97353
-7.83201
-7.68391
-7.52923
-7.36799
-7.20022
-7.02598
-6.84532
-6.65834
-6.46513
-6.26584
-6.0606
-5.8496
-5.633
-5.41104
-5.18393
-4.95194
-4.71533
-4.47441
-4.22949
-3.9809
-3.72898
-3.4741
-3.21662
-2.95692
-2.69534
-2.43227
-2.1681
-1.90324
-1.63804
-1.37288
-1.10813
-0.844159
-0.581315
-0.319929
-0.0603068
0.197247
0.452458
0.705049
0.954774
1.20139
1.44469
1.68448
1.92058
2.15283
2.38112
2.60534
2.82539
3.04122
3.25277
3.46003
3.66299
3.86169
4.05616
4.24647
4.43269
4.61493
4.7933
4.96791
5.13892
5.30648
5.47076
5.63194
5.79022
5.94576
6.09878
6.24945
6.39798
6.54455
6.68934
6.83254
6.97435
7.11472
7.25438
7.39021
7.53532
7.63669
-8.45407
-8.45469
-8.46035
-8.4698
-8.47979
-8.48952
-8.49891
-8.50789
-8.5164
-8.52435
-8.53167
-8.53828
-8.54408
-8.54902
-8.55301
-8.55602
-8.558
-8.55893
-8.55878
-8.55756
-8.55527
-8.55194
-8.54758
-8.5422
-8.53573
-8.5281
-8.51945
-8.50998
-8.49979
-8.48896
-8.47762
-8.46594
-8.45435
-8.44354
-8.4344
-8.42757
-8.42283
-8.41915
-8.41616
-8.41479
-8.41611
-8.42044
-8.42842
-8.44072
-8.45742
-8.47826
-8.50285
-8.53078
-8.56176
-8.59533
-8.63121
-8.66906
-8.70857
-8.74947
-8.79151
-8.83446
-8.87815
-8.92246
-8.96727
-9.01243
-9.05777
-9.10306
-9.14805
-9.19243
-9.23589
-9.27809
-9.3187
-9.3574
-9.39388
-9.42785
-9.45905
-9.48724
-9.5122
-9.53373
-9.55165
-9.5658
-9.57603
-9.58223
-9.58426
-9.58204
-9.57547
-9.56444
-9.54886
-9.52865
-9.50369
-9.4739
-9.43916
-9.39938
-9.35444
-9.30424
-9.24868
-9.18765
-9.12103
-9.04872
-8.97061
-8.88658
-8.79652
-8.70036
-8.59798
-8.4893
-8.37426
-8.25279
-8.12482
-7.99031
-7.84922
-7.70154
-7.54726
-7.38639
-7.21897
-7.04504
-6.86466
-6.67793
-6.48495
-6.28584
-6.08075
-5.86985
-5.65333
-5.4314
-5.20429
-4.97226
-4.73559
-4.49458
-4.24954
-4.0008
-3.74871
-3.49364
-3.23595
-2.976
-2.71417
-2.45085
-2.18641
-1.92126
-1.65577
-1.39032
-1.12529
-0.861044
-0.597927
-0.336272
-0.0763892
0.181418
0.43687
0.689692
0.939639
1.18647
1.42997
1.66994
1.90621
2.13862
2.36705
2.59138
2.81154
3.02746
3.23909
3.4464
3.6494
3.84811
4.04258
4.23285
4.41902
4.60118
4.77944
4.95391
5.12476
5.29211
5.45616
5.61708
5.77507
5.9303
6.08297
6.23328
6.3814
6.52752
6.67183
6.81446
6.95562
7.09519
7.23391
7.36834
7.51261
7.60833
-8.45702
-8.45958
-8.4674
-8.47683
-8.48612
-8.49525
-8.50418
-8.51284
-8.52113
-8.52893
-8.53614
-8.54265
-8.54837
-8.55321
-8.5571
-8.55999
-8.56183
-8.56261
-8.56231
-8.56093
-8.55848
-8.55497
-8.55041
-8.54476
-8.53795
-8.53009
-8.52139
-8.51196
-8.50187
-8.49126
-8.48034
-8.46948
-8.45924
-8.45014
-8.44244
-8.43585
-8.42983
-8.42432
-8.42017
-8.41876
-8.42126
-8.42825
-8.43985
-8.45588
-8.4759
-8.49966
-8.52679
-8.55694
-8.58974
-8.62482
-8.6619
-8.70068
-8.74089
-8.78227
-8.82459
-8.86765
-8.91131
-8.95542
-8.9998
-9.04429
-9.08872
-9.13287
-9.17654
-9.21945
-9.26135
-9.30196
-9.34099
-9.37816
-9.41319
-9.44583
-9.47581
-9.50291
-9.5269
-9.54758
-9.56477
-9.57829
-9.58798
-9.59372
-9.59539
-9.59289
-9.58611
-9.57495
-9.55932
-9.5391
-9.51421
-9.48452
-9.44995
-9.41036
-9.36566
-9.31574
-9.26048
-9.19978
-9.13351
-9.06157
-8.98383
-8.90019
-8.81053
-8.71474
-8.61274
-8.50443
-8.38974
-8.2686
-8.14094
-8.00672
-7.8659
-7.71845
-7.56438
-7.4037
-7.23642
-7.06261
-6.88233
-6.69565
-6.50268
-6.30355
-6.09841
-5.88742
-5.67077
-5.44867
-5.22137
-4.98912
-4.7522
-4.5109
-4.26556
-4.0165
-3.76408
-3.50866
-3.2506
-2.99028
-2.72808
-2.46438
-2.19957
-1.93404
-1.66819
-1.40238
-1.13702
-0.872457
-0.609045
-0.347108
-0.0869704
0.171078
0.426744
0.679769
0.929893
1.17689
1.42052
1.66061
1.89697
2.12945
2.35792
2.58229
2.80245
3.01835
3.22993
3.43717
3.64007
3.83866
4.03298
4.22308
4.40905
4.59099
4.769
4.94321
5.11374
5.28076
5.44445
5.60499
5.76256
5.91737
6.0696
6.21945
6.36709
6.5127
6.65644
6.79846
6.9389
7.07762
7.21538
7.34845
7.4919
7.58265
-8.45626
-8.46058
-8.46885
-8.47761
-8.48638
-8.49517
-8.50389
-8.51244
-8.52069
-8.52852
-8.53581
-8.54242
-8.54825
-8.55321
-8.55723
-8.56024
-8.5622
-8.56308
-8.56286
-8.56154
-8.55912
-8.5556
-8.55097
-8.54521
-8.53837
-8.5306
-8.52208
-8.51292
-8.50327
-8.4934
-8.48355
-8.4741
-8.46527
-8.45694
-8.44902
-8.44149
-8.43449
-8.42872
-8.42538
-8.42563
-8.43012
-8.43899
-8.45217
-8.46958
-8.49093
-8.51596
-8.54429
-8.57549
-8.60919
-8.64504
-8.68276
-8.72208
-8.76274
-8.80451
-8.84717
-8.89054
-8.93442
-8.97864
-9.02301
-9.06736
-9.11151
-9.15526
-9.19839
-9.24068
-9.28187
-9.32171
-9.35996
-9.39636
-9.43064
-9.46255
-9.49183
-9.51827
-9.54164
-9.56176
-9.57842
-9.59146
-9.60072
-9.60609
-9.60746
-9.60472
-9.59777
-9.58649
-9.5708
-9.55057
-9.52571
-9.4961
-9.46164
-9.42219
-9.37767
-9.32793
-9.2729
-9.21244
-9.14643
-9.07475
-8.99729
-8.91392
-8.82453
-8.72901
-8.62725
-8.51918
-8.40471
-8.28376
-8.15628
-8.02221
-7.8815
-7.73415
-7.58013
-7.41947
-7.25219
-7.07835
-6.89799
-6.7112
-6.5181
-6.31879
-6.11343
-5.90218
-5.68525
-5.46283
-5.23519
-5.00256
-4.76524
-4.52352
-4.27774
-4.02823
-3.77535
-3.51946
-3.26092
-3.00012
-2.73746
-2.47331
-2.20806
-1.94209
-1.67581
-1.40961
-1.14388
-0.878982
-0.615263
-0.353052
-0.092674
0.165583
0.421439
0.674631
0.924906
1.17203
1.41576
1.65591
1.89229
2.12477
2.35321
2.5775
2.79756
3.01333
3.22475
3.43179
3.63447
3.8328
4.02683
4.21663
4.40228
4.58388
4.76152
4.93534
5.10545
5.27202
5.43523
5.59527
5.75234
5.90664
6.05835
6.20767
6.35476
6.49979
6.64292
6.78426
6.92395
7.0618
7.19859
7.33036
7.47297
7.55949
-8.44952
-8.45481
-8.4627
-8.47112
-8.47985
-8.48867
-8.49748
-8.50618
-8.51465
-8.52276
-8.53036
-8.53732
-8.54352
-8.54885
-8.55322
-8.55657
-8.55884
-8.56
-8.56003
-8.55892
-8.55668
-8.55331
-8.5488
-8.54319
-8.53655
-8.52907
-8.52091
-8.5123
-8.50347
-8.49456
-8.48559
-8.4766
-8.46767
-8.4588
-8.45012
-8.44205
-8.43522
-8.4304
-8.42833
-8.42972
-8.43509
-8.4447
-8.45862
-8.47676
-8.49888
-8.52461
-8.55354
-8.58526
-8.61942
-8.65573
-8.69391
-8.7337
-8.77486
-8.81714
-8.86034
-8.90422
-8.94858
-8.99324
-9.038
-9.08269
-9.12711
-9.17106
-9.21431
-9.25662
-9.29775
-9.33748
-9.37554
-9.41171
-9.44571
-9.47732
-9.50629
-9.5324
-9.55544
-9.57523
-9.59156
-9.60425
-9.61319
-9.61826
-9.61938
-9.61645
-9.60934
-9.59796
-9.5822
-9.56195
-9.5371
-9.50754
-9.47314
-9.43378
-9.38934
-9.33974
-9.28485
-9.22455
-9.15873
-9.08725
-9.00999
-8.92681
-8.8376
-8.74225
-8.64065
-8.53271
-8.41835
-8.2975
-8.17008
-8.03605
-7.89536
-7.74798
-7.59391
-7.43317
-7.26577
-7.09177
-6.91123
-6.72423
-6.53086
-6.33126
-6.12557
-5.91396
-5.69663
-5.4738
-5.24569
-5.0126
-4.77477
-4.53255
-4.28623
-4.03618
-3.78276
-3.52632
-3.26723
-3.00591
-2.74272
-2.47807
-2.21232
-1.94589
-1.67916
-1.41254
-1.14643
-0.88118
-0.617147
-0.35467
-0.0940558
0.164394
0.420416
0.673738
0.924129
1.17133
1.41511
1.65526
1.89161
2.12399
2.3523
2.57643
2.79629
3.0118
3.22294
3.42966
3.63198
3.82992
4.02355
4.21292
4.39813
4.57928
4.75647
4.92978
5.09937
5.26539
5.42803
5.58748
5.74397
5.89767
6.0488
6.19753
6.34403
6.48845
6.63093
6.77156
6.91047
7.04744
7.18329
7.31382
7.45558
7.53857
-8.43451
-8.43995
-8.44773
-8.45665
-8.46596
-8.47526
-8.48449
-8.49362
-8.50256
-8.51118
-8.51933
-8.52686
-8.53362
-8.53949
-8.54439
-8.54823
-8.55095
-8.55253
-8.55295
-8.5522
-8.5503
-8.54725
-8.54307
-8.53785
-8.53171
-8.5248
-8.51726
-8.50919
-8.5007
-8.49183
-8.48261
-8.47308
-8.46335
-8.45372
-8.44461
-8.43652
-8.42998
-8.42562
-8.42414
-8.42617
-8.43221
-8.44252
-8.45716
-8.47597
-8.49864
-8.52481
-8.55409
-8.58615
-8.62067
-8.6574
-8.69606
-8.73642
-8.7782
-8.82117
-8.8651
-8.90976
-8.95491
-9.00034
-9.04585
-9.09126
-9.13634
-9.18088
-9.22466
-9.26745
-9.30901
-9.34909
-9.38743
-9.42379
-9.4579
-9.48954
-9.51848
-9.5445
-9.5674
-9.587
-9.6031
-9.61552
-9.62415
-9.62893
-9.6298
-9.62668
-9.61943
-9.60795
-9.59212
-9.57183
-9.54698
-9.51744
-9.48307
-9.44373
-9.39932
-9.34977
-9.29497
-9.2348
-9.16913
-9.09781
-9.0207
-8.93768
-8.84861
-8.75338
-8.65187
-8.54401
-8.4297
-8.30889
-8.18148
-8.04743
-7.90668
-7.75922
-7.60503
-7.44413
-7.27655
-7.10234
-6.92156
-6.73427
-6.54059
-6.34063
-6.13455
-5.92252
-5.70474
-5.48143
-5.25284
-5.01922
-4.78086
-4.53807
-4.29119
-4.04057
-3.78656
-3.52954
-3.26988
-3.008
-2.74426
-2.47908
-2.21283
-1.94589
-1.67868
-1.41163
-1.14512
-0.879523
-0.615189
-0.352456
-0.0916364
0.166973
0.423106
0.676507
0.92695
1.17418
1.41794
1.65802
1.89424
2.12647
2.35457
2.57845
2.79802
3.01321
3.22397
3.43027
3.63213
3.82958
4.02269
4.21153
4.3962
4.5768
4.75344
4.92618
5.09517
5.26055
5.42254
5.58133
5.73715
5.89021
6.0407
6.18881
6.33469
6.47847
6.62027
6.76017
6.89829
7.0344
7.16931
7.29868
7.43955
7.51971
-8.41
-8.41516
-8.42371
-8.43401
-8.44447
-8.45458
-8.46446
-8.47421
-8.48383
-8.49321
-8.50216
-8.51047
-8.51799
-8.52458
-8.53014
-8.53462
-8.53796
-8.54013
-8.54111
-8.54091
-8.53953
-8.53698
-8.53333
-8.52865
-8.523
-8.51647
-8.50913
-8.50102
-8.4922
-8.48271
-8.47265
-8.46222
-8.45171
-8.44149
-8.43193
-8.42354
-8.41694
-8.41283
-8.41187
-8.41462
-8.42148
-8.43259
-8.44791
-8.46723
-8.49027
-8.51672
-8.54628
-8.57867
-8.61363
-8.6509
-8.6902
-8.73125
-8.7738
-8.81759
-8.8624
-8.90798
-8.95408
-9.0005
-9.04702
-9.09341
-9.13947
-9.18493
-9.22958
-9.27319
-9.31551
-9.35628
-9.39523
-9.4321
-9.46661
-9.49849
-9.52749
-9.55342
-9.57615
-9.59552
-9.61132
-9.62334
-9.63154
-9.63597
-9.63661
-9.63336
-9.62605
-9.61454
-9.59869
-9.57842
-9.55362
-9.52416
-9.48985
-9.45052
-9.40609
-9.35655
-9.30181
-9.24173
-9.17618
-9.10501
-9.02806
-8.94518
-8.85622
-8.76107
-8.65962
-8.55181
-8.43755
-8.31675
-8.18935
-8.05526
-7.91444
-7.76686
-7.61253
-7.45147
-7.28371
-7.10929
-6.92827
-6.74071
-6.54671
-6.3464
-6.13993
-5.92748
-5.70927
-5.4855
-5.25642
-5.02229
-4.7834
-4.54005
-4.29261
-4.0414
-3.78681
-3.52921
-3.269
-3.00656
-2.7423
-2.4766
-2.20985
-1.94241
-1.67475
-1.40729
-1.14044
-0.874534
-0.609955
-0.347028
-0.0860764
0.172616
0.428772
0.682159
0.932555
1.17972
1.42336
1.66328
1.8993
2.13128
2.35911
2.58268
2.80189
3.01668
3.227
3.43283
3.63419
3.83111
4.02361
4.21183
4.39586
4.57585
4.75185
4.92397
5.0923
5.25701
5.41831
5.57641
5.73153
5.8839
6.03372
6.18118
6.32642
6.46957
6.61069
6.74987
6.8872
7.02245
7.15647
7.28475
7.42469
7.5027
-8.37609
-8.38141
-8.39154
-8.40386
-8.41573
-8.4267
-8.43729
-8.44784
-8.45842
-8.46887
-8.4789
-8.48826
-8.49676
-8.50425
-8.51065
-8.51593
-8.52005
-8.52299
-8.52473
-8.52524
-8.52452
-8.52258
-8.51945
-8.51515
-8.50971
-8.50318
-8.49557
-8.48694
-8.47737
-8.46699
-8.45602
-8.44468
-8.43329
-8.42224
-8.41205
-8.40336
-8.39682
-8.39311
-8.3928
-8.39633
-8.40393
-8.41567
-8.43145
-8.4511
-8.47438
-8.50105
-8.53087
-8.56359
-8.59897
-8.63673
-8.67662
-8.71837
-8.76173
-8.80645
-8.85224
-8.89886
-8.94606
-8.99363
-9.04132
-9.08891
-9.13613
-9.18272
-9.22844
-9.27303
-9.31624
-9.35781
-9.39743
-9.43484
-9.46972
-9.50174
-9.53062
-9.55626
-9.57867
-9.59772
-9.61309
-9.62447
-9.63198
-9.63599
-9.63655
-9.63343
-9.62632
-9.615
-9.59933
-9.57925
-9.55469
-9.52549
-9.49145
-9.45229
-9.40793
-9.35843
-9.30374
-9.24373
-9.17828
-9.10724
-9.03041
-8.94762
-8.85869
-8.76353
-8.66207
-8.55426
-8.44001
-8.31922
-8.19179
-8.05765
-7.91673
-7.76902
-7.61454
-7.45331
-7.28536
-7.11073
-6.92947
-6.74164
-6.54732
-6.34666
-6.13982
-5.92697
-5.70835
-5.48415
-5.25463
-5.02003
-4.78064
-4.53678
-4.28881
-4.03708
-3.78197
-3.52386
-3.26316
-3.00025
-2.73554
-2.46941
-2.20224
-1.93442
-1.66641
-1.39868
-1.1316
-0.865525
-0.600835
-0.337863
-0.0769262
0.181686
0.437701
0.690881
0.941026
1.1879
1.43121
1.67077
1.90642
2.13801
2.36542
2.58855
2.80729
3.02158
3.23137
3.43665
3.63746
3.83378
4.02564
4.21315
4.39647
4.57574
4.75106
4.92248
5.09014
5.25419
5.41487
5.57232
5.72674
5.8784
6.02754
6.17435
6.31899
6.46152
6.60201
6.7405
6.87709
7.01152
7.14469
7.27195
7.41093
7.48742
-8.33502
-8.34128
-8.35356
-8.3682
-8.38147
-8.39332
-8.40488
-8.41653
-8.42826
-8.43994
-8.4513
-8.46197
-8.47163
-8.48009
-8.48733
-8.49346
-8.49846
-8.50229
-8.50488
-8.50619
-8.50617
-8.50481
-8.50208
-8.49797
-8.49249
-8.48565
-8.4775
-8.46812
-8.45764
-8.44624
-8.43414
-8.42167
-8.40926
-8.39744
-8.3868
-8.37799
-8.37164
-8.36832
-8.36849
-8.37246
-8.3804
-8.39233
-8.40819
-8.42784
-8.45113
-8.47784
-8.50778
-8.5407
-8.57635
-8.61449
-8.65489
-8.6973
-8.74146
-8.78711
-8.83395
-8.88173
-8.93018
-8.97904
-9.02802
-9.07681
-9.12514
-9.17274
-9.21937
-9.26477
-9.30867
-9.3508
-9.39087
-9.42858
-9.46356
-9.49537
-9.52358
-9.54837
-9.57019
-9.58889
-9.60385
-9.61435
-9.62078
-9.62424
-9.62489
-9.62221
-9.61567
-9.60487
-9.58963
-9.56995
-9.54584
-9.51719
-9.48382
-9.44546
-9.40189
-9.35296
-9.29863
-9.23889
-9.17363
-9.10273
-9.02599
-8.94323
-8.85429
-8.75909
-8.65756
-8.54966
-8.43531
-8.3144
-8.18684
-8.05253
-7.91141
-7.76348
-7.60877
-7.44729
-7.27908
-7.10417
-6.92261
-6.73446
-6.5398
-6.33877
-6.13154
-5.91831
-5.69927
-5.47467
-5.24472
-5.0097
-4.76986
-4.52555
-4.27711
-4.02493
-3.76937
-3.51085
-3.24973
-2.98645
-2.72138
-2.45492
-2.18743
-1.91933
-1.65111
-1.38324
-1.11605
-0.849934
-0.585257
-0.322372
-0.061586
0.196798
0.452513
0.705289
0.954896
1.20111
1.44375
1.68264
1.91763
2.14857
2.37531
2.59773
2.81574
3.02926
3.23825
3.4427
3.64261
3.83803
4.02902
4.21566
4.39808
4.57645
4.75087
4.92143
5.08828
5.2516
5.41165
5.56849
5.72225
5.87324
6.02171
6.16788
6.31193
6.4539
6.59386
6.73179
6.86773
7.00142
7.1338
7.26011
7.39813
7.47372
-8.28962
-8.29714
-8.31211
-8.32949
-8.34414
-8.35641
-8.36856
-8.38151
-8.39485
-8.40808
-8.42084
-8.43285
-8.44384
-8.45346
-8.46162
-8.46857
-8.47449
-8.47929
-8.48284
-8.48502
-8.48575
-8.48497
-8.4826
-8.47862
-8.47301
-8.46578
-8.45698
-8.44672
-8.43515
-8.42251
-8.40914
-8.39546
-8.38198
-8.36929
-8.358
-8.34874
-8.34209
-8.33853
-8.33846
-8.34213
-8.34968
-8.36118
-8.37659
-8.39584
-8.4188
-8.44532
-8.4752
-8.50822
-8.54414
-8.58272
-8.62371
-8.66686
-8.71191
-8.75853
-8.80642
-8.85531
-8.90491
-8.9549
-9.00496
-9.05475
-9.10399
-9.1524
-9.1997
-9.24565
-9.28996
-9.33237
-9.37261
-9.41036
-9.44517
-9.4763
-9.5028
-9.52529
-9.54555
-9.56375
-9.57892
-9.59031
-9.59807
-9.60262
-9.60391
-9.60165
-9.5955
-9.58503
-9.57003
-9.55058
-9.52676
-9.49848
-9.46562
-9.42797
-9.38517