/*--------------------------------*- C++ -*----------------------------------*\
| =========                 |                                                 |
| \\      /  F ield         | OpenFOAM: The Open Source CFD Toolbox           |
|  \\    /   O peration     | Version:  2406                                  |
|   \\  /    A nd           | Website:  www.openfoam.com                      |
|    \\/     M anipulation  |                                                 |
\*---------------------------------------------------------------------------*/
FoamFile
{
    version     2.0;
    format      ascii;
    arch        "LSB;label=32;scalar=64";
    class       surfaceScalarField;
    location    "300";
    object      phi;
}
// * * * * * * * * * * * * * * * * * * * * * * * * * * * * * * * * * * * * * //

dimensions      [0 3 -1 0 0 0 0];

oriented        oriented;

internalField   nonuniform List<scalar> 
24170
(
3.05866e-06
1.2975e-07
2.91726e-06
1.41393e-07
2.79078e-06
1.26479e-07
2.67703e-06
1.13756e-07
2.57507e-06
1.01957e-07
2.48508e-06
8.99857e-08
2.40668e-06
7.84028e-08
2.3389e-06
6.77853e-08
2.28032e-06
5.8572e-08
2.22941e-06
5.0913e-08
2.18506e-06
4.43536e-08
2.14651e-06
3.85524e-08
2.11321e-06
3.32963e-08
2.08479e-06
2.84173e-08
2.06111e-06
2.36839e-08
2.04252e-06
1.85912e-08
2.03022e-06
1.23004e-08
4.11484e-11
2.03017e-06
3.47323e-06
7.37744e-08
3.50545e-06
1.09172e-07
3.52167e-06
1.10256e-07
3.52533e-06
1.101e-07
3.51916e-06
1.08123e-07
3.50598e-06
1.03169e-07
3.48792e-06
9.6455e-08
3.46657e-06
8.91404e-08
3.44332e-06
8.18179e-08
3.41945e-06
7.47867e-08
3.39565e-06
6.81524e-08
3.37234e-06
6.18586e-08
3.34982e-06
5.58191e-08
3.32833e-06
4.99109e-08
3.30807e-06
4.3941e-08
3.28928e-06
3.73796e-08
3.27181e-06
2.97716e-08
1.91351e-08
3.25272e-06
3.68225e-06
5.40394e-08
3.69983e-06
9.15961e-08
3.7139e-06
9.61811e-08
3.72613e-06
9.78699e-08
3.73614e-06
9.81132e-08
3.74379e-06
9.552e-08
3.74924e-06
9.10084e-08
3.75266e-06
8.57168e-08
3.75432e-06
8.01633e-08
3.75453e-06
7.45781e-08
3.75361e-06
6.90709e-08
3.75182e-06
6.36482e-08
3.74937e-06
5.82647e-08
3.74646e-06
5.28254e-08
3.74322e-06
4.7174e-08
3.73969e-06
4.09167e-08
3.73552e-06
3.39368e-08
2.5381e-08
3.72928e-06
3.93666e-06
4.27641e-08
3.94884e-06
7.9419e-08
3.95825e-06
8.6776e-08
3.96667e-06
8.9442e-08
3.97434e-06
9.04522e-08
3.9811e-06
8.8755e-08
3.98701e-06
8.51033e-08
3.99213e-06
8.05927e-08
3.99654e-06
7.57541e-08
4.00031e-06
7.08047e-08
4.00355e-06
6.58292e-08
4.00635e-06
6.08525e-08
4.00878e-06
5.58363e-08
4.0109e-06
5.07064e-08
4.01273e-06
4.53366e-08
4.01416e-06
3.94927e-08
4.01494e-06
3.31529e-08
2.61154e-08
4.01421e-06
4.21534e-06
3.45555e-08
4.22546e-06
6.92947e-08
4.23346e-06
7.87788e-08
4.24054e-06
8.23573e-08
4.24711e-06
8.38852e-08
4.25308e-06
8.27836e-08
4.25845e-06
7.97333e-08
4.2633e-06
7.57468e-08
4.26769e-06
7.13634e-08
4.27169e-06
6.67991e-08
4.27537e-06
6.21471e-08
4.27878e-06
5.7442e-08
4.28196e-06
5.26624e-08
4.28491e-06
4.77519e-08
4.28762e-06
4.26249e-08
4.28996e-06
3.71584e-08
4.29173e-06
3.13846e-08
2.53861e-08
4.29246e-06
4.51551e-06
2.8133e-08
4.52437e-06
6.0434e-08
4.53179e-06
7.13628e-08
4.53842e-06
7.57234e-08
4.54462e-06
7.76822e-08
4.55033e-06
7.70764e-08
4.55552e-06
7.45428e-08
4.56026e-06
7.10082e-08
4.56462e-06
6.70063e-08
4.56866e-06
6.2757e-08
4.57244e-06
5.83701e-08
4.57599e-06
5.38902e-08
4.57933e-06
4.93178e-08
4.58247e-06
4.46164e-08
4.58535e-06
3.97419e-08
4.58786e-06
3.4645e-08
4.58985e-06
2.9396e-08
2.41652e-08
4.59107e-06
4.83783e-06
2.30255e-08
4.84573e-06
5.25316e-08
4.85278e-06
6.43148e-08
4.85921e-06
6.92872e-08
4.8653e-06
7.15958e-08
4.87095e-06
7.14223e-08
4.87614e-06
6.93538e-08
4.88092e-06
6.62349e-08
4.88534e-06
6.2586e-08
4.88946e-06
5.86327e-08
4.89333e-06
5.44983e-08
4.89698e-06
5.024e-08
4.90042e-06
4.58793e-08
4.90364e-06
4.14028e-08
4.90658e-06
3.68012e-08
4.90915e-06
3.2074e-08
4.91123e-06
2.73094e-08
2.26834e-08
4.91272e-06
5.18366e-06
1.8944e-08
5.19074e-06
4.54545e-08
5.19747e-06
5.7585e-08
5.20376e-06
6.29954e-08
5.2098e-06
6.55586e-08
5.21547e-06
6.575e-08
5.22072e-06
6.41002e-08
5.22559e-06
6.13675e-08
5.23012e-06
5.80534e-08
5.23437e-06
5.43903e-08
5.23835e-06
5.05104e-08
5.24211e-06
4.64847e-08
5.24564e-06
4.23523e-08
5.24892e-06
3.81229e-08
5.2519e-06
3.38135e-08
5.25452e-06
2.94544e-08
5.2567e-06
2.51362e-08
2.10138e-08
5.25837e-06
5.55462e-06
1.56613e-08
5.56094e-06
3.91325e-08
5.56736e-06
5.11685e-08
5.57351e-06
5.68441e-08
5.5795e-06
5.95697e-08
5.5852e-06
6.0051e-08
5.59053e-06
5.87708e-08
5.5955e-06
5.63949e-08
5.60015e-06
5.3399e-08
5.60452e-06
5.00223e-08
5.60863e-06
4.64025e-08
5.61249e-06
4.2623e-08
5.61611e-06
3.87376e-08
5.61945e-06
3.47761e-08
5.62249e-06
3.07733e-08
5.62517e-06
2.67772e-08
5.62743e-06
2.28718e-08
1.91858e-08
5.62926e-06
5.95244e-06
1.29958e-08
5.95807e-06
3.35046e-08
5.96417e-06
4.50723e-08
5.97017e-06
5.08385e-08
5.9761e-06
5.36432e-08
5.98181e-06
5.43384e-08
5.98721e-06
5.33753e-08
5.99228e-06
5.13255e-08
5.99704e-06
4.86322e-08
6.00153e-06
4.5538e-08
6.00574e-06
4.21842e-08
6.0097e-06
3.8664e-08
6.0134e-06
3.50424e-08
6.01681e-06
3.13649e-08
6.01991e-06
2.76776e-08
6.02265e-06
2.40363e-08
6.025e-06
2.05146e-08
1.72168e-08
6.02697e-06
6.379e-06
1.0806e-08
6.384e-06
2.85068e-08
6.38977e-06
3.93021e-08
6.39562e-06
4.49836e-08
6.40148e-06
4.77912e-08
6.40719e-06
4.86279e-08
6.41264e-06
4.79266e-08
6.41779e-06
4.61713e-08
6.42266e-06
4.37654e-08
6.42725e-06
4.09495e-08
6.43156e-06
3.78676e-08
6.43561e-06
3.46184e-08
6.43937e-06
3.12751e-08
6.44285e-06
2.78935e-08
6.446e-06
2.4526e-08
6.4488e-06
2.12297e-08
6.45125e-06
1.80668e-08
1.51208e-08
6.45335e-06
5.74241e-06
9.2291e-09
5.74619e-06
2.47303e-08
5.75081e-06
3.46772e-08
5.75564e-06
4.01512e-08
5.76053e-06
4.291e-08
5.76534e-06
4.3816e-08
5.76997e-06
4.32903e-08
5.77439e-06
4.17575e-08
5.77857e-06
3.95829e-08
5.78252e-06
3.69992e-08
5.78624e-06
3.41503e-08
5.78972e-06
3.11377e-08
5.79296e-06
2.80385e-08
5.79594e-06
2.49134e-08
5.79864e-06
2.18171e-08
5.80107e-06
1.88048e-08
5.80321e-06
1.59294e-08
1.32622e-08
5.80506e-06
6.99972e-06
7.66926e-09
7.00362e-06
2.08204e-08
7.00862e-06
2.96835e-08
7.01399e-06
3.47812e-08
7.0195e-06
3.74029e-08
7.02498e-06
3.83283e-08
7.03032e-06
3.79562e-08
7.03543e-06
3.6647e-08
7.04029e-06
3.47213e-08
7.04489e-06
3.23979e-08
7.04922e-06
2.98182e-08
7.05328e-06
2.70831e-08
7.05705e-06
2.42709e-08
7.06051e-06
2.14447e-08
7.06367e-06
1.86586e-08
7.06651e-06
1.59635e-08
7.06904e-06
1.3403e-08
1.10367e-08
7.07127e-06
8.53238e-06
6.13604e-09
8.53636e-06
1.68413e-08
8.54167e-06
2.43767e-08
8.54755e-06
2.88972e-08
8.55369e-06
3.12664e-08
8.55988e-06
3.21395e-08
8.56595e-06
3.18788e-08
8.57182e-06
3.07812e-08
8.57742e-06
2.91149e-08
8.58275e-06
2.70775e-08
8.58776e-06
2.48026e-08
8.59246e-06
2.2387e-08
8.59682e-06
1.99065e-08
8.60084e-06
1.74224e-08
8.60452e-06
1.49857e-08
8.60784e-06
1.26412e-08
8.61082e-06
1.04235e-08
8.38151e-09
8.61347e-06
1.04007e-05
4.63318e-09
1.04047e-05
1.28383e-08
1.04103e-05
1.88142e-08
1.04167e-05
2.25316e-08
1.04234e-05
2.45065e-08
1.04303e-05
2.52346e-08
1.04372e-05
2.50237e-08
1.04438e-05
2.41091e-08
1.04503e-05
2.27023e-08
1.04564e-05
2.09703e-08
1.04621e-05
1.90322e-08
1.04675e-05
1.69758e-08
1.04726e-05
1.48697e-08
1.04772e-05
1.27695e-08
1.04815e-05
1.07201e-08
1.04854e-05
8.75886e-09
1.04889e-05
6.91226e-09
5.21977e-09
1.04921e-05
1.26783e-05
3.15354e-09
1.26823e-05
8.81445e-09
1.26881e-05
1.30283e-08
1.26949e-05
1.57086e-08
1.27023e-05
1.71222e-08
1.27099e-05
1.7594e-08
1.27176e-05
1.73551e-08
1.27251e-05
1.65791e-08
1.27324e-05
1.54193e-08
1.27394e-05
1.40033e-08
1.2746e-05
1.24275e-08
1.27522e-05
1.07643e-08
1.2758e-05
9.07074e-09
1.27634e-05
7.39242e-09
1.27683e-05
5.76563e-09
1.27729e-05
4.21939e-09
1.2777e-05
2.77259e-09
1.45651e-09
1.27808e-05
1.54547e-05
1.67014e-09
1.54588e-05
4.70832e-09
1.54648e-05
6.97459e-09
1.54721e-05
8.39105e-09
1.54802e-05
9.06293e-09
1.54886e-05
9.15461e-09
1.54972e-05
8.80167e-09
1.55057e-05
8.11055e-09
1.55139e-05
7.17555e-09
1.55218e-05
6.0781e-09
1.55294e-05
4.88327e-09
1.55365e-05
3.64166e-09
1.55432e-05
2.3936e-09
1.55494e-05
1.17134e-09
1.55552e-05
2.87104e-13
1.55605e-05
-1.09976e-09
1.55654e-05
-2.11702e-09
-3.02784e-09
1.55699e-05
1.88392e-05
1.18915e-10
1.88436e-05
3.41077e-10
1.88501e-05
4.38978e-10
1.88581e-05
3.70656e-10
1.8867e-05
1.26866e-10
1.88765e-05
-2.80448e-10
1.88861e-05
-8.25699e-10
1.88957e-05
-1.47789e-09
1.89051e-05
-2.20528e-09
1.89141e-05
-2.97865e-09
1.89228e-05
-3.77196e-09
1.8931e-05
-4.56263e-09
1.89387e-05
-5.33131e-09
1.8946e-05
-6.06204e-09
1.89527e-05
-6.74207e-09
1.8959e-05
-7.36135e-09
1.89648e-05
-7.91503e-09
-8.38679e-09
1.89701e-05
2.29651e-05
-1.65994e-09
2.29702e-05
-4.72964e-09
2.29778e-05
-7.15573e-09
2.29871e-05
-8.94226e-09
2.29975e-05
-1.02433e-08
2.30084e-05
-1.12302e-08
2.30196e-05
-1.20047e-08
2.30307e-05
-1.26205e-08
2.30416e-05
-1.31178e-08
2.30522e-05
-1.35285e-08
2.30623e-05
-1.38729e-08
2.30719e-05
-1.4161e-08
2.3081e-05
-1.4398e-08
2.30895e-05
-1.45861e-08
2.30975e-05
-1.47266e-08
2.31049e-05
-1.48193e-08
2.31119e-05
-1.48661e-08
-1.48579e-08
2.31184e-05
1.68122e-05
-3.13649e-09
1.68163e-05
-8.84787e-09
1.68223e-05
-1.31729e-08
1.68295e-05
-1.61289e-08
1.68374e-05
-1.80918e-08
1.68455e-05
-1.94156e-08
1.68538e-05
-2.02865e-08
1.6862e-05
-2.08148e-08
1.687e-05
-2.1097e-08
1.68777e-05
-2.12119e-08
1.6885e-05
-2.12104e-08
1.6892e-05
-2.11239e-08
1.68986e-05
-2.09732e-08
1.69047e-05
-2.07725e-08
1.69105e-05
-2.0531e-08
1.6916e-05
-2.02542e-08
1.69211e-05
-1.99472e-08
-1.96046e-08
1.69258e-05
1.46361e-05
-4.71512e-09
1.46405e-05
-1.31551e-08
1.46465e-05
-1.92097e-08
1.46534e-05
-2.30471e-08
1.46608e-05
-2.5446e-08
1.46683e-05
-2.69585e-08
1.46758e-05
-2.78183e-08
1.46832e-05
-2.81827e-08
1.46903e-05
-2.8209e-08
1.46971e-05
-2.80166e-08
1.47036e-05
-2.76785e-08
1.47097e-05
-2.72413e-08
1.47155e-05
-2.67376e-08
1.47209e-05
-2.61904e-08
1.4726e-05
-2.56145e-08
1.47307e-05
-2.50184e-08
1.47352e-05
-2.44085e-08
-2.37811e-08
1.47394e-05
1.2742e-05
-6.55337e-09
1.27468e-05
-1.7959e-08
1.27531e-05
-2.5513e-08
1.27599e-05
-2.98805e-08
1.2767e-05
-3.24923e-08
1.27741e-05
-3.40556e-08
1.2781e-05
-3.47915e-08
1.27878e-05
-3.49123e-08
1.27942e-05
-3.46399e-08
1.28003e-05
-3.41245e-08
1.28061e-05
-3.34516e-08
1.28115e-05
-3.26779e-08
1.28166e-05
-3.18453e-08
1.28214e-05
-3.09827e-08
1.28259e-05
-3.01081e-08
1.28301e-05
-2.92313e-08
1.28341e-05
-2.83586e-08
-2.74861e-08
1.28378e-05
1.10932e-05
-8.84047e-09
1.10988e-05
-2.35287e-08
1.11055e-05
-3.21868e-08
1.11123e-05
-3.6682e-08
1.11191e-05
-3.93149e-08
1.11258e-05
-4.08019e-08
1.11323e-05
-4.13056e-08
1.11385e-05
-4.11151e-08
1.11444e-05
-4.05134e-08
1.115e-05
-3.96655e-08
1.11552e-05
-3.866e-08
1.11601e-05
-3.75616e-08
1.11646e-05
-3.64189e-08
1.11689e-05
-3.52655e-08
1.11729e-05
-3.41201e-08
1.11767e-05
-3.29933e-08
1.11802e-05
-3.18895e-08
-3.08028e-08
1.11835e-05
9.65819e-06
-1.1816e-08
9.66478e-06
-3.01216e-08
9.6718e-06
-3.9204e-08
9.67856e-06
-4.34438e-08
9.68521e-06
-4.59657e-08
9.69167e-06
-4.72618e-08
9.6978e-06
-4.74371e-08
9.70358e-06
-4.68884e-08
9.70901e-06
-4.59411e-08
9.7141e-06
-4.47569e-08
9.71886e-06
-4.34229e-08
9.72331e-06
-4.20096e-08
9.72746e-06
-4.05713e-08
9.73134e-06
-3.91443e-08
9.73497e-06
-3.77483e-08
9.73837e-06
-3.63942e-08
9.74156e-06
-3.5085e-08
-3.38108e-08
9.74457e-06
8.40928e-06
-1.57419e-08
8.41718e-06
-3.80185e-08
8.42445e-06
-4.64764e-08
8.43118e-06
-5.01747e-08
8.43774e-06
-5.25235e-08
8.44401e-06
-5.3533e-08
8.44988e-06
-5.33099e-08
8.45536e-06
-5.23712e-08
8.46048e-06
-5.10631e-08
8.46526e-06
-4.95337e-08
8.4697e-06
-4.78666e-08
8.47383e-06
-4.61377e-08
8.47767e-06
-4.44064e-08
8.48124e-06
-4.27115e-08
8.48456e-06
-4.10734e-08
8.48767e-06
-3.95034e-08
8.49059e-06
-3.80032e-08
-3.65499e-08
8.49333e-06
7.32252e-06
-2.09819e-08
7.33196e-06
-4.74586e-08
7.33959e-06
-5.40989e-08
7.34651e-06
-5.70968e-08
7.3532e-06
-5.92146e-08
7.3595e-06
-5.98327e-08
7.36534e-06
-5.91495e-08
7.37075e-06
-5.7783e-08
7.37577e-06
-5.60826e-08
7.38041e-06
-5.41778e-08
7.3847e-06
-5.21524e-08
7.38865e-06
-5.00851e-08
7.39228e-06
-4.8042e-08
7.39563e-06
-4.60621e-08
7.39873e-06
-4.41697e-08
7.4016e-06
-4.23785e-08
7.40429e-06
-4.06905e-08
-3.90769e-08
7.40682e-06
6.37771e-06
-2.86304e-08
6.38883e-06
-5.85717e-08
6.39759e-06
-6.2859e-08
6.40559e-06
-6.5099e-08
6.41315e-06
-6.67718e-08
6.42008e-06
-6.67617e-08
6.42638e-06
-6.54582e-08
6.43214e-06
-6.35395e-08
6.43739e-06
-6.13348e-08
6.44217e-06
-5.89507e-08
6.44648e-06
-5.64716e-08
6.45038e-06
-5.39767e-08
6.45388e-06
-5.1542e-08
6.45701e-06
-4.91983e-08
6.45982e-06
-4.69766e-08
6.46235e-06
-4.49146e-08
6.46466e-06
-4.29959e-08
-4.11742e-08
6.46676e-06
5.56004e-06
-4.32085e-08
5.57491e-06
-7.34427e-08
5.5879e-06
-7.58508e-08
5.59963e-06
-7.68288e-08
5.61003e-06
-7.71648e-08
5.61902e-06
-7.57549e-08
5.62674e-06
-7.31769e-08
5.63332e-06
-7.01179e-08
5.63884e-06
-6.68626e-08
5.6434e-06
-6.35062e-08
5.64705e-06
-6.01259e-08
5.64988e-06
-5.68053e-08
5.65197e-06
-5.36339e-08
5.65341e-06
-5.06337e-08
5.65426e-06
-4.78325e-08
5.65467e-06
-4.53187e-08
5.65473e-06
-4.30615e-08
-4.12332e-08
5.65479e-06
4.87857e-06
-9.4168e-08
4.90909e-06
-1.03966e-07
4.93028e-06
-9.70381e-08
4.94397e-06
-9.05239e-08
4.9515e-06
-8.46967e-08
4.95407e-06
-7.83255e-08
4.95272e-06
-7.18228e-08
4.94823e-06
-6.56341e-08
4.94125e-06
-5.98738e-08
4.93228e-06
-5.45392e-08
4.92177e-06
-4.96203e-08
4.9101e-06
-4.51311e-08
4.89757e-06
-4.11059e-08
4.88456e-06
-3.76286e-08
4.87144e-06
-3.47082e-08
4.85836e-06
-3.22431e-08
4.84546e-06
-3.01621e-08
-2.88885e-08
4.83312e-06
4.10851e-06
4.00454e-06
3.9075e-06
3.81698e-06
3.73228e-06
3.65396e-06
3.58214e-06
3.5165e-06
3.45663e-06
3.40209e-06
3.35247e-06
3.30734e-06
3.26623e-06
3.2286e-06
3.19389e-06
3.16165e-06
3.13149e-06
3.1026e-06
-9.82839e-09
9.82955e-09
-2.64359e-08
1.66097e-08
-4.47978e-08
1.83639e-08
-6.14085e-08
1.66126e-08
-7.08702e-08
9.4636e-09
-6.56533e-08
-5.2151e-09
-4.23466e-08
-2.3305e-08
-3.341e-09
-3.9004e-08
4.69362e-08
-5.02756e-08
1.03481e-07
-5.65437e-08
1.60984e-07
-5.7502e-08
2.15796e-07
-5.48109e-08
2.65587e-07
-4.97901e-08
3.08987e-07
-4.33998e-08
3.45291e-07
-3.63033e-08
3.74189e-07
-2.88969e-08
3.95567e-07
-2.13772e-08
4.09361e-07
-1.37933e-08
4.15408e-07
-6.04705e-09
4.13387e-07
2.02168e-09
4.03088e-07
1.03003e-08
3.8464e-07
1.84477e-08
3.58477e-07
2.61639e-08
3.25277e-07
3.32004e-08
2.86023e-07
3.92542e-08
2.4208e-07
4.39429e-08
1.95254e-07
4.68271e-08
1.4779e-07
4.7463e-08
1.02298e-07
4.54925e-08
6.15119e-08
4.07858e-08
2.78244e-08
3.36883e-08
2.53638e-09
2.52873e-08
-1.47142e-08
1.72513e-08
-2.55124e-08
1.07977e-08
-3.15789e-08
6.06745e-09
-3.43747e-08
2.79548e-09
-3.44005e-08
2.69706e-11
-3.05371e-08
-3.86439e-09
-2.06347e-08
-9.90024e-09
-2.74164e-09
-1.78944e-08
2.38007e-08
-2.65396e-08
5.66684e-08
-3.28687e-08
9.07973e-08
-3.41262e-08
1.20864e-07
-3.00672e-08
1.43239e-07
-2.23728e-08
1.56372e-07
-1.31337e-08
1.60811e-07
-4.43715e-09
1.59681e-07
1.1302e-09
1.56336e-07
3.34635e-09
1.54335e-07
1.99971e-09
1.6149e-07
-7.15226e-09
1.74658e-07
-1.31705e-08
1.72882e-07
1.77845e-09
1.43838e-07
2.90415e-08
7.83802e-08
6.54625e-08
-3.02467e-08
1.08625e-07
-1.76688e-07
1.46445e-07
-3.47795e-07
1.71105e-07
-5.33448e-07
1.85657e-07
-7.2491e-07
1.91461e-07
-9.1474e-07
1.89832e-07
-1.09698e-06
1.82243e-07
-1.26754e-06
1.7056e-07
-1.42418e-06
1.56638e-07
-1.56605e-06
1.4187e-07
-1.69337e-06
1.27317e-07
-1.80701e-06
1.13645e-07
-1.90824e-06
1.01228e-07
-1.99847e-06
9.02303e-08
-2.07913e-06
8.06604e-08
-2.15156e-06
7.24321e-08
-2.21696e-06
6.54041e-08
-2.27637e-06
5.94141e-08
-2.33067e-06
5.43e-08
-2.38058e-06
4.99095e-08
-2.42669e-06
4.61122e-08
-2.46949e-06
4.27965e-08
-2.50936e-06
3.98683e-08
-2.5466e-06
3.72494e-08
-2.58148e-06
3.4876e-08
-2.61417e-06
3.26983e-08
-2.64484e-06
3.06743e-08
-2.67361e-06
2.87718e-08
-2.70057e-06
2.69626e-08
-2.72579e-06
2.5226e-08
-2.74933e-06
2.35425e-08
-2.77122e-06
2.1898e-08
-2.79149e-06
2.02784e-08
-2.81015e-06
1.8672e-08
-2.8272e-06
1.70687e-08
-2.84264e-06
1.5456e-08
-2.85645e-06
1.38256e-08
-2.8686e-06
1.21664e-08
-2.87905e-06
1.04668e-08
-2.88774e-06
8.70907e-09
-2.8946e-06
6.87612e-09
-2.89954e-06
4.9551e-09
-2.90248e-06
2.95176e-09
-2.90341e-06
9.42976e-10
-2.90253e-06
-8.76539e-10
-2.90004e-06
-2.48118e-09
-2.89602e-06
-4.01009e-09
-2.8905e-06
-5.51953e-09
-2.88346e-06
-7.03551e-09
-2.8749e-06
-8.56133e-09
-2.8648e-06
-1.00994e-08
-2.85315e-06
-1.16472e-08
-2.83993e-06
-1.32047e-08
-2.82516e-06
-1.47686e-08
-2.80881e-06
-1.63377e-08
-2.79088e-06
-1.7909e-08
-2.77139e-06
-1.94803e-08
-2.75032e-06
-2.10485e-08
-2.72768e-06
-2.26099e-08
-2.7035e-06
-2.41625e-08
-2.67776e-06
-2.57012e-08
-2.65051e-06
-2.72251e-08
-2.62175e-06
-2.87273e-08
-2.59152e-06
-3.02052e-08
-2.55984e-06
-3.16472e-08
-2.52676e-06
-3.3048e-08
-2.4923e-06
-3.44041e-08
-2.45652e-06
-3.57242e-08
-2.41946e-06
-3.69804e-08
-2.38123e-06
-3.81748e-08
-2.34186e-06
-3.93125e-08
-2.30134e-06
-4.04756e-08
-2.25965e-06
-4.16311e-08
-2.2169e-06
-4.27159e-08
-2.17314e-06
-4.37227e-08
-2.12845e-06
-4.46768e-08
-2.08287e-06
-4.55583e-08
-2.03649e-06
-4.63868e-08
-1.98936e-06
-4.71354e-08
-1.94157e-06
-4.78262e-08
-1.89316e-06
-4.84388e-08
-1.84423e-06
-4.89945e-08
-1.79483e-06
-4.94745e-08
-1.74505e-06
-4.9897e-08
-1.69494e-06
-5.02455e-08
-1.64455e-06
-5.0531e-08
-1.59394e-06
-5.07422e-08
-1.54318e-06
-5.08888e-08
-1.49233e-06
-5.09665e-08
-1.44145e-06
-5.09819e-08
-1.39061e-06
-5.09355e-08
-1.33987e-06
-5.08294e-08
-1.28929e-06
-5.06648e-08
-1.23892e-06
-5.04454e-08
-1.18882e-06
-5.01722e-08
-1.13904e-06
-4.98479e-08
-1.08962e-06
-4.94756e-08
-1.04061e-06
-4.90596e-08
-9.92055e-07
-4.86044e-08
-9.43979e-07
-4.81147e-08
-8.96416e-07
-4.7596e-08
-8.49389e-07
-4.70514e-08
-8.02917e-07
-4.64914e-08
-7.57008e-07
-4.59178e-08
-7.1167e-07
-4.5342e-08
-6.66898e-07
-4.47647e-08
-6.22687e-07
-4.41991e-08
-5.7902e-07
-4.36443e-08
-5.35882e-07
-4.3112e-08
-4.93244e-07
-4.25994e-08
-4.51078e-07
-4.21255e-08
-4.09339e-07
-4.16855e-08
-3.67996e-07
-4.12895e-08
-3.26993e-07
-4.09353e-08
-2.86282e-07
-4.06448e-08
-2.45818e-07
-4.03834e-08
-2.05602e-07
-4.01402e-08
-1.65569e-07
-3.9939e-08
-1.25743e-07
-3.97388e-08
-8.63049e-08
-3.93281e-08
-4.76898e-08
-3.85144e-08
-1.04321e-08
-3.71324e-08
2.34859e-08
-3.38228e-08
5.57749e-08
-3.21932e-08
-1.17497e-08
6.75494e-08
-3.92598e-09
1.37579e-08
-1.1449e-08
2.41373e-08
-1.63128e-08
2.32322e-08
-1.12543e-08
1.15587e-08
1.04565e-08
-1.22434e-08
4.86782e-08
-4.34343e-08
9.93569e-08
-7.39821e-08
1.56843e-07
-9.64891e-08
2.15126e-07
-1.08558e-07
2.69863e-07
-1.1128e-07
3.19344e-07
-1.06982e-07
3.62738e-07
-9.82051e-08
3.99901e-07
-8.69522e-08
4.31051e-07
-7.45491e-08
4.56544e-07
-6.17954e-08
4.76776e-07
-4.91289e-08
4.92146e-07
-3.67467e-08
5.03073e-07
-2.47192e-08
5.1006e-07
-1.3034e-08
5.13702e-07
-1.61975e-09
5.143e-07
9.70242e-09
5.11606e-07
2.1143e-08
5.05037e-07
3.27323e-08
4.93877e-07
4.43616e-08
4.77375e-07
5.57559e-08
4.54867e-07
6.64515e-08
4.25915e-07
7.57789e-08
3.90479e-07
8.28994e-08
3.49043e-07
8.69282e-08
3.02699e-07
8.71304e-08
2.53224e-07
8.31635e-08
2.03223e-07
7.52874e-08
1.56163e-07
6.43119e-08
1.15782e-07
5.11778e-08
8.50955e-08
3.6755e-08
6.61539e-08
2.17356e-08
6.00297e-08
6.15339e-09
6.5963e-08
-9.79899e-09
8.23535e-08
-2.62887e-08
1.07073e-07
-4.26148e-08
1.36281e-07
-5.5746e-08
1.64499e-07
-6.10872e-08
1.86949e-07
-5.65743e-08
2.00589e-07
-4.37078e-08
2.05082e-07
-2.68647e-08
2.01117e-07
-9.1686e-09
1.90212e-07
6.46965e-09
1.76928e-07
1.44144e-08
1.57729e-07
2.25484e-08
1.16355e-07
4.33726e-08
3.25384e-08
7.66685e-08
-1.06794e-07
1.26162e-07
-2.88591e-07
1.83578e-07
-4.94093e-07
2.34544e-07
-7.07677e-07
2.79047e-07
-9.16435e-07
3.17383e-07
-1.11463e-06
3.44641e-07
-1.30027e-06
3.56748e-07
-1.46953e-06
3.54915e-07
-1.6199e-06
3.41832e-07
-1.75071e-06
3.20638e-07
-1.86291e-06
2.94444e-07
-1.95844e-06
2.66093e-07
-2.03968e-06
2.37876e-07
-2.10914e-06
2.11329e-07
-2.16913e-06
1.87311e-07
-2.22165e-06
1.66163e-07
-2.26831e-06
1.47885e-07
-2.31035e-06
1.32276e-07
-2.34872e-06
1.19029e-07
-2.38409e-06
1.07807e-07
-2.41696e-06
9.82752e-08
-2.44768e-06
9.01319e-08
-2.4765e-06
8.31173e-08
-2.5036e-06
7.70112e-08
-2.52912e-06
7.16345e-08
-2.55316e-06
6.68382e-08
-2.57579e-06
6.25015e-08
-2.59707e-06
5.85294e-08
-2.61704e-06
5.48456e-08
-2.63573e-06
5.13893e-08
-2.65316e-06
4.81113e-08
-2.66936e-06
4.49721e-08
-2.68433e-06
4.19391e-08
-2.69809e-06
3.89864e-08
-2.71064e-06
3.60919e-08
-2.72197e-06
3.32381e-08
-2.7321e-06
3.04094e-08
-2.74101e-06
2.75935e-08
-2.7487e-06
2.47773e-08
-2.75518e-06
2.19512e-08
-2.76045e-06
1.91056e-08
-2.76451e-06
1.62329e-08
-2.76736e-06
1.3329e-08
-2.76903e-06
1.03959e-08
-2.76959e-06
7.44629e-09
-2.76913e-06
4.49879e-09
-2.76774e-06
1.57476e-09
-2.76548e-06
-1.31035e-09
-2.76216e-06
-4.18821e-09
-2.75754e-06
-7.10004e-09
-2.7515e-06
-1.004e-08
-2.74402e-06
-1.30019e-08
-2.73507e-06
-1.59889e-08
-2.72463e-06
-1.90008e-08
-2.71269e-06
-2.20363e-08
-2.69924e-06
-2.50923e-08
-2.68428e-06
-2.81658e-08
-2.66778e-06
-3.12523e-08
-2.64977e-06
-3.4348e-08
-2.63022e-06
-3.74471e-08
-2.60914e-06
-4.05451e-08
-2.58654e-06
-4.36353e-08
-2.56242e-06
-4.67121e-08
-2.53679e-06
-4.97682e-08
-2.50967e-06
-5.27975e-08
-2.48108e-06
-5.57929e-08
-2.45104e-06
-5.87475e-08
-2.41958e-06
-6.16516e-08
-2.38671e-06
-6.4494e-08
-2.35246e-06
-6.7265e-08
-2.31687e-06
-6.996e-08
-2.27996e-06
-7.25775e-08
-2.24179e-06
-7.51044e-08
-2.20239e-06
-7.7537e-08
-2.16178e-06
-7.98803e-08
-2.12005e-06
-8.21637e-08
-2.07728e-06
-8.43687e-08
-2.03352e-06
-8.64511e-08
-1.98881e-06
-8.84084e-08
-1.94322e-06
-9.02481e-08
-1.89682e-06
-9.19593e-08
-1.84966e-06
-9.35437e-08
-1.80181e-06
-9.49913e-08
-1.75335e-06
-9.6306e-08
-1.70433e-06
-9.74816e-08
-1.65484e-06
-9.85257e-08
-1.60494e-06
-9.94346e-08
-1.5547e-06
-1.00213e-07
-1.50418e-06
-1.00857e-07
-1.45344e-06
-1.01368e-07
-1.40253e-06
-1.01742e-07
-1.35152e-06
-1.01984e-07
-1.30046e-06
-1.02099e-07
-1.24942e-06
-1.02087e-07
-1.19846e-06
-1.01956e-07
-1.14764e-06
-1.01706e-07
-1.09702e-06
-1.01343e-07
-1.04664e-06
-1.0087e-07
-9.96565e-07
-1.00294e-07
-9.46834e-07
-9.9619e-08
-8.97494e-07
-9.88515e-08
-8.48586e-07
-9.80002e-08
-8.00145e-07
-9.70729e-08
-7.52202e-07
-9.60812e-08
-7.04783e-07
-9.50322e-08
-6.57911e-07
-9.39384e-08
-6.11597e-07
-9.28116e-08
-5.65851e-07
-9.1668e-08
-5.20672e-07
-9.05161e-08
-4.76057e-07
-8.93722e-08
-4.31995e-07
-8.82449e-08
-3.88468e-07
-8.71527e-08
-3.45454e-07
-8.6098e-08
-3.02926e-07
-8.50982e-08
-2.60848e-07
-8.41642e-08
-2.19178e-07
-8.33152e-08
-1.77872e-07
-8.25449e-08
-1.36879e-07
-8.18771e-08
-9.61451e-08
-8.13176e-08
-5.56214e-08
-8.08467e-08
-1.52823e-08
-8.04096e-08
2.47974e-08
-7.995e-08
6.44926e-08
-7.93578e-08
1.03788e-07
-7.85487e-08
1.42628e-07
-7.72733e-08
1.80744e-07
-7.51695e-08
2.18227e-07
-7.12291e-08
2.51917e-07
-6.58191e-08
-4.53906e-08
2.85592e-07
1.1204e-09
1.26401e-08
4.48588e-09
2.07769e-08
1.72508e-08
1.04716e-08
4.91375e-08
-2.03252e-08
1.01043e-07
-6.41476e-08
1.64102e-07
-1.06492e-07
2.26794e-07
-1.36674e-07
2.82092e-07
-1.51786e-07
3.27608e-07
-1.54072e-07
3.63814e-07
-1.47486e-07
3.92428e-07
-1.35594e-07
4.15179e-07
-1.20956e-07
4.334e-07
-1.05172e-07
4.47994e-07
-8.91429e-08
4.59534e-07
-7.33347e-08
4.68377e-07
-5.79718e-08
4.74769e-07
-4.31387e-08
4.78902e-07
-2.88509e-08
4.80959e-07
-1.50911e-08
4.8116e-07
-1.82049e-09
4.79838e-07
1.10247e-08
4.77393e-07
2.35887e-08
4.74124e-07
3.60011e-08
4.70141e-07
4.83451e-08
4.65287e-07
6.06101e-08
4.5909e-07
7.26485e-08
4.50736e-07
8.41331e-08
4.39123e-07
9.45127e-08
4.23052e-07
1.02999e-07
4.01557e-07
1.08625e-07
3.74326e-07
1.10395e-07
3.42134e-07
1.07479e-07
3.07032e-07
9.94135e-08
2.72043e-07
8.61673e-08
2.40596e-07
6.82018e-08
2.15909e-07
4.64218e-08
2.00078e-07
2.19851e-08
1.94e-07
-3.72143e-09
1.96654e-07
-2.89419e-08
2.04309e-07
-5.02702e-08
2.09918e-07
-6.13545e-08
2.0761e-07
-5.87797e-08
1.95357e-07
-4.43208e-08
1.73148e-07
-2.14997e-08
1.4267e-07
3.61512e-09
1.0253e-07
3.09716e-08
4.32028e-08
6.5799e-08
-4.97589e-08
1.07377e-07
-1.85409e-07
1.58201e-07
-3.59586e-07
2.1755e-07
-5.61254e-07
2.78337e-07
-7.71235e-07
3.36143e-07
-9.74052e-07
3.86396e-07
-1.16391e-06
4.244e-07
-1.33426e-06
4.49395e-07
-1.4786e-06
4.61724e-07
-1.59546e-06
4.61509e-07
-1.68838e-06
4.49666e-07
-1.76185e-06
4.28382e-07
-1.8205e-06
4.0048e-07
-1.86868e-06
3.68825e-07
-1.9101e-06
3.3586e-07
-1.94751e-06
3.03499e-07
-1.98269e-06
2.73055e-07
-2.01665e-06
2.45293e-07
-2.04987e-06
2.20533e-07
-2.0825e-06
1.98789e-07
-2.1145e-06
1.79884e-07
-2.14576e-06
1.63537e-07
-2.17615e-06
1.49426e-07
-2.20557e-06
1.37227e-07
-2.23393e-06
1.26629e-07
-2.26115e-06
1.17361e-07
-2.28722e-06
1.09185e-07
-2.31211e-06
1.019e-07
-2.33581e-06
9.53378e-08
-2.35833e-06
8.93587e-08
-2.37968e-06
8.38472e-08
-2.39986e-06
7.87104e-08
-2.41888e-06
7.38728e-08
-2.43676e-06
6.92727e-08
-2.45351e-06
6.48596e-08
-2.46913e-06
6.05921e-08
-2.48362e-06
5.64359e-08
-2.497e-06
5.23627e-08
-2.50925e-06
4.83487e-08
-2.52038e-06
4.43746e-08
-2.53039e-06
4.04241e-08
-2.53928e-06
3.64829e-08
-2.54703e-06
3.25396e-08
-2.55365e-06
2.85829e-08
-2.55915e-06
2.46047e-08
-2.56351e-06
2.05996e-08
-2.56673e-06
1.65644e-08
-2.56883e-06
1.25025e-08
-2.5698e-06
8.42068e-09
-2.56962e-06
4.32694e-09
-2.56827e-06
2.22363e-10
-2.56567e-06
-3.90529e-09
-2.56177e-06
-8.08755e-09
-2.55652e-06
-1.23396e-08
-2.54991e-06
-1.66502e-08
-2.5419e-06
-2.10107e-08
-2.53248e-06
-2.54164e-08
-2.52161e-06
-2.98635e-08
-2.5093e-06
-3.4347e-08
-2.49553e-06
-3.88624e-08
-2.48029e-06
-4.34037e-08
-2.46357e-06
-4.7965e-08
-2.44537e-06
-5.25392e-08
-2.42569e-06
-5.71193e-08
-2.40453e-06
-6.16969e-08
-2.38189e-06
-6.62633e-08
-2.35778e-06
-7.08094e-08
-2.33221e-06
-7.53247e-08
-2.3052e-06
-7.97998e-08
-2.27675e-06
-8.42238e-08
-2.2469e-06
-8.85862e-08
-2.21566e-06
-9.28736e-08
-2.18307e-06
-9.70725e-08
-2.14914e-06
-1.01169e-07
-2.11391e-06
-1.05157e-07
-2.07743e-06
-1.09028e-07
-2.03973e-06
-1.12775e-07
-2.00084e-06
-1.16389e-07
-1.96083e-06
-1.19866e-07
-1.91975e-06
-1.23212e-07
-1.87768e-06
-1.26419e-07
-1.83466e-06
-1.2945e-07
-1.79075e-06
-1.32303e-07
-1.74601e-06
-1.34977e-07
-1.7005e-06
-1.37466e-07
-1.65428e-06
-1.3976e-07
-1.60742e-06
-1.41856e-07
-1.55999e-06
-1.43749e-07
-1.51205e-06
-1.45438e-07
-1.46368e-06
-1.46925e-07
-1.41494e-06
-1.48213e-07
-1.3659e-06
-1.49305e-07
-1.31662e-06
-1.50198e-07
-1.26715e-06
-1.50894e-07
-1.21755e-06
-1.51392e-07
-1.16788e-06
-1.51697e-07
-1.1182e-06
-1.51816e-07
-1.06857e-06
-1.5175e-07
-1.01905e-06
-1.51508e-07
-9.69695e-07
-1.51092e-07
-9.20552e-07
-1.5051e-07
-8.71675e-07
-1.49769e-07
-8.23111e-07
-1.48878e-07
-7.74904e-07
-1.47844e-07
-7.27094e-07
-1.46677e-07
-6.79717e-07
-1.4539e-07
-6.32806e-07
-1.43996e-07
-5.86387e-07
-1.42511e-07
-5.40481e-07
-1.40947e-07
-4.95105e-07
-1.39321e-07
-4.5027e-07
-1.37653e-07
-4.05978e-07
-1.35964e-07
-3.62226e-07
-1.34271e-07
-3.19005e-07
-1.32594e-07
-2.76303e-07
-1.30949e-07
-2.34094e-07
-1.2936e-07
-1.92355e-07
-1.27837e-07
-1.51051e-07
-1.264e-07
-1.10144e-07
-1.2507e-07
-6.95875e-08
-1.23869e-07
-2.9331e-08
-1.22801e-07
1.06717e-08
-1.21877e-07
5.04507e-08
-1.21097e-07
9.00651e-08
-1.20459e-07
1.29589e-07
-1.19936e-07
1.69098e-07
-1.19459e-07
2.08638e-07
-1.18902e-07
2.48205e-07
-1.18115e-07
2.87739e-07
-1.16808e-07
3.27128e-07
-1.14556e-07
3.66384e-07
-1.10486e-07
4.04444e-07
-1.03882e-07
-8.56152e-08
4.44653e-07
-4.81168e-10
1.3124e-08
1.02798e-08
1.00209e-08
4.80176e-08
-2.72632e-08
1.1249e-07
-8.47956e-08
1.86258e-07
-1.37915e-07
2.52229e-07
-1.72462e-07
3.0256e-07
-1.87004e-07
3.37343e-07
-1.86568e-07
3.60322e-07
-1.77051e-07
3.75637e-07
-1.628e-07
3.86416e-07
-1.46372e-07
3.94561e-07
-1.291e-07
4.01043e-07
-1.11654e-07
4.06271e-07
-9.43707e-08
4.10366e-07
-7.74294e-08
4.13325e-07
-6.09298e-08
4.15116e-07
-4.49292e-08
4.15723e-07
-2.94578e-08
4.15161e-07
-1.45293e-08
4.13487e-07
-1.45293e-10
4.1081e-07
1.37016e-08
4.07338e-07
2.70607e-08
4.0336e-07
3.99794e-08
3.99194e-07
5.25118e-08
3.95121e-07
6.46827e-08
3.91319e-07
7.64513e-08
3.87763e-07
8.76884e-08
3.84137e-07
9.81396e-08
3.79758e-07
1.07378e-07
3.7366e-07
1.14723e-07
3.64812e-07
1.19242e-07
3.52451e-07
1.1984e-07
3.36437e-07
1.15428e-07
3.17476e-07
1.05128e-07
2.97074e-07
8.8604e-08
2.77283e-07
6.62127e-08
2.60107e-07
3.91612e-08
2.46244e-07
1.01399e-08
2.33131e-07
-1.58286e-08
2.14463e-07
-3.16025e-08
1.84654e-07
-3.15449e-08
1.42157e-07
-1.62833e-08
8.69208e-08
1.09161e-08
1.59346e-08
4.94866e-08
-7.82167e-08
9.77677e-08
-2.00981e-07
1.53737e-07
-3.51701e-07
2.16519e-07
-5.27075e-07
2.82753e-07
-7.17013e-07
3.48139e-07
-9.07638e-07
4.08175e-07
-1.08813e-06
4.5883e-07
-1.24895e-06
4.96965e-07
-1.38392e-06
5.21369e-07
-1.49228e-06
5.32757e-07
-1.57549e-06
5.32608e-07
-1.63618e-06
5.22412e-07
-1.67883e-06
5.04152e-07
-1.70878e-06
4.79618e-07
-1.73116e-06
4.50766e-07
-1.75011e-06
4.19432e-07
-1.76853e-06
3.8724e-07
-1.78815e-06
3.55479e-07
-1.80977e-06
3.25116e-07
-1.83351e-06
2.96795e-07
-1.85909e-06
2.70876e-07
-1.88605e-06
2.47495e-07
-1.91388e-06
2.26621e-07
-1.94211e-06
2.0811e-07
-1.97032e-06
1.91753e-07
-1.99821e-06
1.7731e-07
-2.02551e-06
1.64532e-07
-2.05206e-06
1.53176e-07
-2.07772e-06
1.43026e-07
-2.10242e-06
1.33883e-07
-2.12609e-06
1.25575e-07
-2.14871e-06
1.17956e-07
-2.17026e-06
1.10902e-07
-2.19071e-06
1.04308e-07
-2.21009e-06
9.80855e-08
-2.22838e-06
9.2164e-08
-2.24559e-06
8.64831e-08
-2.26172e-06
8.09924e-08
-2.27678e-06
7.56501e-08
-2.29076e-06
7.04206e-08
-2.30367e-06
6.52742e-08
-2.3155e-06
6.01858e-08
-2.32626e-06
5.51344e-08
-2.33594e-06
5.01021e-08
-2.34452e-06
4.50744e-08
-2.35202e-06
4.00371e-08
-2.35841e-06
3.49804e-08
-2.36369e-06
2.98943e-08
-2.36786e-06
2.47724e-08
-2.3709e-06
1.96101e-08
-2.3728e-06
1.44065e-08
-2.37354e-06
9.16183e-09
-2.37309e-06
3.87472e-09
-2.3714e-06
-1.46157e-09
-2.36844e-06
-6.86062e-09
-2.36419e-06
-1.23393e-08
-2.35862e-06
-1.79032e-08
-2.35173e-06
-2.35451e-08
-2.34349e-06
-2.92573e-08
-2.33387e-06
-3.50326e-08
-2.32287e-06
-4.08648e-08
-2.31047e-06
-4.67468e-08
-2.29666e-06
-5.2672e-08
-2.28143e-06
-5.86319e-08
-2.26477e-06
-6.46188e-08