/*--------------------------------*- C++ -*----------------------------------*\
| =========                 |                                                 |
| \\      /  F ield         | OpenFOAM: The Open Source CFD Toolbox           |
|  \\    /   O peration     | Version:  2406                                  |
|   \\  /    A nd           | Website:  www.openfoam.com                      |
|    \\/     M anipulation  |                                                 |
\*---------------------------------------------------------------------------*/
FoamFile
{
    version     2.0;
    format      ascii;
    arch        "LSB;label=32;scalar=64";
    class       volVectorField;
    location    "300";
    object      U;
}
// * * * * * * * * * * * * * * * * * * * * * * * * * * * * * * * * * * * * * //

dimensions      [0 1 -1 0 0 0 0];

internalField   nonuniform List<vector> 
12225
(
(9.77967 0.0428781 0)
(9.36106 0.0778383 0)
(8.95385 0.0840597 0)
(8.57156 0.0811161 0)
(8.22887 0.0747866 0)
(7.92806 0.066804 0)
(7.66502 0.058304 0)
(7.43642 0.0499286 0)
(7.2392 0.0422907 0)
(7.06839 0.0358324 0)
(6.91922 0.0304079 0)
(6.78974 0.0257698 0)
(6.67712 0.0216325 0)
(6.58061 0.0178556 0)
(6.49872 0.01416 0)
(6.4316 0.0101914 0)
(6.38263 0.00538658 0)
(6.34721 -0.00422965 0)
(10.0768 0.0565544 0)
(10.2201 0.0897074 0)
(10.2971 0.0891414 0)
(10.3208 0.0859542 0)
(10.3127 0.0834845 0)
(10.2831 0.0803277 0)
(10.2368 0.0764131 0)
(10.1783 0.072185 0)
(10.112 0.0679107 0)
(10.0422 0.0637517 0)
(9.97219 0.0598495 0)
(9.90286 0.0560481 0)
(9.83577 0.0522302 0)
(9.77101 0.048217 0)
(9.70995 0.0438355 0)
(9.65216 0.0384651 0)
(9.59975 0.0313464 0)
(9.54543 0.0186086 0)
(10.019 0.0417387 0)
(10.0766 0.0641771 0)
(10.1245 0.0669246 0)
(10.1595 0.0708578 0)
(10.1882 0.0747886 0)
(10.2125 0.0764442 0)
(10.2307 0.0761308 0)
(10.2429 0.074725 0)
(10.2495 0.0727274 0)
(10.2518 0.0704215 0)
(10.2507 0.0678218 0)
(10.2469 0.0649385 0)
(10.2409 0.0617384 0)
(10.2335 0.0581466 0)
(10.2251 0.0539605 0)
(10.2157 0.0485908 0)
(10.2055 0.0415518 0)
(10.1913 0.0303765 0)
(10.0086 0.0307121 0)
(10.0427 0.0546528 0)
(10.0735 0.0614932 0)
(10.0958 0.0662942 0)
(10.1151 0.0698059 0)
(10.1334 0.0710953 0)
(10.1498 0.0707538 0)
(10.1639 0.0696027 0)
(10.176 0.0680199 0)
(10.1863 0.0661343 0)
(10.1952 0.063977 0)
(10.2029 0.0615643 0)
(10.2095 0.05884 0)
(10.2153 0.0556936 0)
(10.2203 0.0519141 0)
(10.2245 0.0470708 0)
(10.2274 0.0409173 0)
(10.228 0.0328173 0)
(10.005 0.0241524 0)
(10.0299 0.0484692 0)
(10.0543 0.0566813 0)
(10.072 0.0613225 0)
(10.0873 0.0646933 0)
(10.1021 0.0662234 0)
(10.1158 0.0662704 0)
(10.128 0.065483 0)
(10.1389 0.0642102 0)
(10.1488 0.0625816 0)
(10.1579 0.0606536 0)
(10.1663 0.0584291 0)
(10.1742 0.0558526 0)
(10.1814 0.0528183 0)
(10.1882 0.0491643 0)
(10.1942 0.0446274 0)
(10.1992 0.0391333 0)
(10.2025 0.0326351 0)
(10.0034 0.0195521 0)
(10.0223 0.042429 0)
(10.0428 0.0514029 0)
(10.0585 0.0563666 0)
(10.072 0.0599745 0)
(10.0851 0.0618158 0)
(10.0974 0.0621573 0)
(10.1084 0.061599 0)
(10.1184 0.0605046 0)
(10.1277 0.0590136 0)
(10.1364 0.0571878 0)
(10.1445 0.055032 0)
(10.1521 0.0525091 0)
(10.1593 0.0495356 0)
(10.166 0.0460018 0)
(10.172 0.0417604 0)
(10.1771 0.0368186 0)
(10.1809 0.0313112 0)
(10.0024 0.0160003 0)
(10.017 0.0368993 0)
(10.0344 0.0463366 0)
(10.0488 0.0516556 0)
(10.0612 0.0554224 0)
(10.0732 0.0574542 0)
(10.0846 0.0580069 0)
(10.0949 0.0576348 0)
(10.1044 0.0566915 0)
(10.1132 0.0553159 0)
(10.1215 0.0535747 0)
(10.1292 0.0514826 0)
(10.1366 0.0490216 0)
(10.1435 0.0461327 0)
(10.1499 0.0427509 0)
(10.1556 0.038808 0)
(10.1605 0.0343585 0)
(10.1643 0.0295959 0)
(10.0017 0.0131552 0)
(10.013 0.0319842 0)
(10.0279 0.041596 0)
(10.041 0.0471126 0)
(10.0526 0.0509164 0)
(10.0638 0.0530648 0)
(10.0744 0.0537905 0)
(10.0842 0.0535826 0)
(10.0933 0.0527742 0)
(10.1017 0.0515043 0)
(10.1097 0.0498452 0)
(10.1171 0.0478223 0)
(10.1242 0.0454351 0)
(10.1307 0.0426505 0)
(10.1368 0.039441 0)
(10.1423 0.0357923 0)
(10.1469 0.0317831 0)
(10.1507 0.0276055 0)
(10.0013 0.0108619 0)
(10.0101 0.0276104 0)
(10.0227 0.0371018 0)
(10.0346 0.042673 0)
(10.0454 0.0464394 0)
(10.0558 0.0486514 0)
(10.0658 0.0495123 0)
(10.0752 0.0494407 0)
(10.0838 0.0487465 0)
(10.0919 0.0475726 0)
(10.0995 0.0459943 0)
(10.1067 0.0440486 0)
(10.1135 0.0417499 0)
(10.1197 0.0390899 0)
(10.1255 0.0360692 0)
(10.1307 0.0327087 0)
(10.1352 0.0290935 0)
(10.1389 0.0253932 0)
(10.0009 0.0090087 0)
(10.0079 0.0237161 0)
(10.0185 0.0328215 0)
(10.0293 0.03833 0)
(10.0393 0.0420047 0)
(10.049 0.0442246 0)
(10.0584 0.0451783 0)
(10.0672 0.0452134 0)
(10.0755 0.0446145 0)
(10.0832 0.0435275 0)
(10.0906 0.0420309 0)
(10.0974 0.0401711 0)
(10.1039 0.0379751 0)
(10.1099 0.035456 0)
(10.1153 0.0326342 0)
(10.1203 0.029551 0)
(10.1246 0.0262879 0)
(10.1283 0.0229887 0)
(10.0007 0.00749723 0)
(10.0062 0.0202646 0)
(10.0152 0.0287716 0)
(10.0249 0.0340981 0)
(10.0341 0.0376257 0)
(10.0431 0.039798 0)
(10.0519 0.0407983 0)
(10.0603 0.0409109 0)
(10.0681 0.0403909 0)
(10.0755 0.0393836 0)
(10.0825 0.0379704 0)
(10.0891 0.0362043 0)
(10.0952 0.0341234 0)
(10.1009 0.0317563 0)
(10.1061 0.0291372 0)
(10.1108 0.0263167 0)
(10.1149 0.0233688 0)
(10.1185 0.0204126 0)
(10.0006 0.00631271 0)
(10.0051 0.0174209 0)
(10.0127 0.0252517 0)
(10.0214 0.0303135 0)
(10.03 0.0336605 0)
(10.0384 0.035745 0)
(10.0467 0.0367479 0)
(10.0546 0.036905 0)
(10.0621 0.0364424 0)
(10.0692 0.0355016 0)
(10.0759 0.0341656 0)
(10.0822 0.032492 0)
(10.088 0.0305261 0)
(10.0934 0.0283064 0)
(10.0984 0.0258742 0)
(10.1029 0.023283 0)
(10.1069 0.0205976 0)
(10.1104 0.0179186 0)
(10.0005 0.00530634 0)
(10.0042 0.0148679 0)
(10.0108 0.021925 0)
(10.0186 0.0266393 0)
(10.0265 0.0297698 0)
(10.0344 0.0317326 0)
(10.0421 0.0327055 0)
(10.0496 0.0328852 0)
(10.0568 0.0324684 0)
(10.0635 0.0315889 0)
(10.0699 0.0303303 0)
(10.0759 0.0287529 0)
(10.0815 0.0269066 0)
(10.0867 0.0248359 0)
(10.0914 0.0225861 0)
(10.0957 0.0202099 0)
(10.0995 0.0177633 0)
(10.103 0.0153338 0)
(10.0004 0.00433712 0)
(10.0034 0.0122757 0)
(10.009 0.0183776 0)
(10.0159 0.0225947 0)
(10.0231 0.0254142 0)
(10.0303 0.027185 0)
(10.0375 0.0280772 0)
(10.0446 0.0282501 0)
(10.0513 0.027866 0)
(10.0577 0.0270467 0)
(10.0638 0.0258739 0)
(10.0695 0.0244085 0)
(10.0748 0.0227025 0)
(10.0797 0.0208029 0)
(10.0843 0.0187561 0)
(10.0884 0.0166112 0)
(10.0921 0.0144156 0)
(10.0954 0.012243 0)
(10.0003 0.00339023 0)
(10.0028 0.00965918 0)
(10.0074 0.014644 0)
(10.0134 0.0181997 0)
(10.0199 0.0205933 0)
(10.0265 0.0220877 0)
(10.0331 0.0228333 0)
(10.0397 0.0229556 0)
(10.046 0.0225813 0)
(10.052 0.0218148 0)
(10.0577 0.0207318 0)
(10.0631 0.0193911 0)
(10.0682 0.0178432 0)
(10.0728 0.0161342 0)
(10.0771 0.0143078 0)
(10.081 0.0124078 0)
(10.0846 0.0104722 0)
(10.0878 0.00856272 0)
(10.0002 0.00245712 0)
(10.0023 0.00703041 0)
(10.0061 0.0107574 0)
(10.0113 0.0134795 0)
(10.017 0.0153139 0)
(10.023 0.0164313 0)
(10.0291 0.0169494 0)
(10.0351 0.0169617 0)
(10.041 0.0165611 0)
(10.0466 0.0158296 0)
(10.052 0.0148323 0)
(10.0571 0.0136214 0)
(10.0618 0.0122422 0)
(10.0662 0.010736 0)
(10.0703 0.00914092 0)
(10.074 0.00749343 0)
(10.0775 0.00582309 0)
(10.0806 0.00418042 0)
(10.0002 0.00152605 0)
(10.0019 0.00437267 0)
(10.0052 0.00671827 0)
(10.0096 0.00843942 0)
(10.0147 0.00956921 0)
(10.0201 0.0101964 0)
(10.0256 0.0103952 0)
(10.0312 0.0102269 0)
(10.0366 0.00975211 0)
(10.0419 0.00902764 0)
(10.0469 0.00810216 0)
(10.0516 0.00701652 0)
(10.0561 0.00580704 0)
(10.0603 0.00450663 0)
(10.0642 0.00314546 0)
(10.0677 0.00175137 0)
(10.071 0.000345925 0)
(10.0741 -0.00103059 0)
(10.0002 0.000567739 0)
(10.0016 0.00161366 0)
(10.0045 0.00244874 0)
(10.0085 0.00300565 0)
(10.0131 0.00327829 0)
(10.018 0.00328978 0)
(10.0231 0.00306724 0)
(10.0282 0.00263763 0)
(10.0333 0.00202994 0)
(10.0382 0.00127343 0)
(10.0429 0.000395437 0)
(10.0474 -0.000579029 0)
(10.0516 -0.00162671 0)
(10.0556 -0.00272587 0)
(10.0593 -0.00385646 0)
(10.0628 -0.00499973 0)
(10.066 -0.00614205 0)
(10.0689 -0.00725257 0)
(10.0002 -0.000487274 0)
(10.0016 -0.00142639 0)
(10.0043 -0.00227467 0)
(10.008 -0.00303922 0)
(10.0124 -0.00375766 0)
(10.0171 -0.0044712 0)
(10.022 -0.00520304 0)
(10.0269 -0.00596284 0)
(10.0317 -0.00675494 0)
(10.0364 -0.00758077 0)
(10.0409 -0.00843804 0)
(10.0452 -0.00932131 0)
(10.0493 -0.0102231 0)
(10.0531 -0.0111349 0)
(10.0567 -0.0120481 0)
(10.0601 -0.0129536 0)
(10.0632 -0.0138452 0)
(10.0661 -0.014702 0)
(10.0002 -0.0015199 0)
(10.0017 -0.00439119 0)
(10.0047 -0.00683903 0)
(10.0088 -0.00881681 0)
(10.0134 -0.0104229 0)
(10.0182 -0.0117775 0)
(10.0231 -0.012953 0)
(10.028 -0.0139928 0)
(10.0329 -0.0149346 0)
(10.0375 -0.0158106 0)
(10.042 -0.0166424 0)
(10.0463 -0.0174425 0)
(10.0503 -0.0182179 0)
(10.0541 -0.018972 0)
(10.0577 -0.0197058 0)
(10.061 -0.0204178 0)
(10.0642 -0.0211076 0)
(10.0671 -0.0217618 0)
(10.0002 -0.00248746 0)
(10.0021 -0.00712248 0)
(10.0057 -0.0109175 0)
(10.0103 -0.0138152 0)
(10.0153 -0.0160524 0)
(10.0204 -0.0178491 0)
(10.0256 -0.019314 0)
(10.0307 -0.0205164 0)
(10.0357 -0.0215259 0)
(10.0404 -0.0224022 0)
(10.045 -0.0231853 0)
(10.0493 -0.0239002 0)
(10.0533 -0.0245645 0)
(10.0572 -0.0251901 0)
(10.0607 -0.0257841 0)
(10.0641 -0.02635 0)
(10.0673 -0.0268902 0)
(10.0702 -0.0273953 0)
(10.0003 -0.00356449 0)
(10.0028 -0.0100617 0)
(10.0072 -0.0150896 0)
(10.0126 -0.018698 0)
(10.0182 -0.021392 0)
(10.0238 -0.0235015 0)
(10.0293 -0.0251483 0)
(10.0347 -0.026426 0)
(10.0399 -0.0274409 0)
(10.0448 -0.0282768 0)
(10.0495 -0.0289858 0)
(10.0539 -0.0296028 0)
(10.058 -0.0301537 0)
(10.0619 -0.0306573 0)
(10.0656 -0.0311257 0)
(10.069 -0.0315655 0)
(10.0722 -0.0319806 0)
(10.0752 -0.032364 0)
(10.0004 -0.00485658 0)
(10.0038 -0.0134011 0)
(10.0096 -0.0194905 0)
(10.0161 -0.0235668 0)
(10.0223 -0.0265623 0)
(10.0284 -0.0288727 0)
(10.0344 -0.0305963 0)
(10.0401 -0.0318643 0)
(10.0456 -0.0328268 0)
(10.0508 -0.0335854 0)
(10.0556 -0.0341975 0)
(10.0601 -0.0347041 0)
(10.0644 -0.0351382 0)
(10.0684 -0.035524 0)
(10.0721 -0.0358769 0)
(10.0756 -0.0362053 0)
(10.0789 -0.0365137 0)
(10.082 -0.0367947 0)
(10.0006 -0.0064971 0)
(10.0055 -0.0173465 0)
(10.013 -0.0241751 0)
(10.0207 -0.0284206 0)
(10.0277 -0.0315806 0)
(10.0344 -0.0340034 0)
(10.0409 -0.03572 0)
(10.0471 -0.0369134 0)
(10.0529 -0.0377801 0)
(10.0584 -0.0384318 0)
(10.0635 -0.0389266 0)
(10.0683 -0.0393109 0)
(10.0727 -0.0396241 0)
(10.0769 -0.039895 0)
(10.0807 -0.0401411 0)
(10.0844 -0.0403724 0)
(10.0878 -0.040593 0)
(10.091 -0.0407942 0)
(10.001 -0.0086477 0)
(10.008 -0.0221026 0)
(10.018 -0.0291834 0)
(10.027 -0.0332911 0)
(10.0348 -0.0364711 0)
(10.0422 -0.0389028 0)
(10.0495 -0.0405475 0)
(10.0563 -0.0416418 0)
(10.0626 -0.0424041 0)
(10.0685 -0.042941 0)
(10.074 -0.0433085 0)
(10.0791 -0.0435594 0)
(10.0838 -0.0437396 0)
(10.0882 -0.0438838 0)
(10.0923 -0.044013 0)
(10.0961 -0.0441405 0)
(10.0997 -0.044269 0)
(10.103 -0.0443829 0)
(10.0016 -0.0115564 0)
(10.0118 -0.0276235 0)
(10.0252 -0.0344284 0)
(10.0358 -0.0383765 0)
(10.0447 -0.0414908 0)
(10.0533 -0.0437404 0)
(10.0617 -0.0451631 0)
(10.0695 -0.0460795 0)
(10.0766 -0.0467027 0)
(10.0832 -0.0471145 0)
(10.0893 -0.0473613 0)
(10.0949 -0.0474966 0)
(10.1001 -0.0475691 0)
(10.1048 -0.0476135 0)
(10.1092 -0.0476547 0)
(10.1133 -0.0477129 0)
(10.1171 -0.047792 0)
(10.1206 -0.0478577 0)
(10.0029 -0.0158572 0)
(10.0185 -0.0331703 0)
(10.0367 -0.0389704 0)
(10.0504 -0.0431673 0)
(10.0619 -0.0466412 0)
(10.073 -0.0488469 0)
(10.0835 -0.0500206 0)
(10.0931 -0.0506524 0)
(10.1017 -0.0509913 0)
(10.1095 -0.0511163 0)
(10.1167 -0.051081 0)
(10.1231 -0.0509478 0)
(10.1289 -0.0507764 0)
(10.1341 -0.0506003 0)
(10.1388 -0.0504389 0)
(10.143 -0.0503244 0)
(10.1468 -0.0502734 0)
(10.1501 -0.0502296 0)
(10.0064 -0.0243277 0)
(10.0374 -0.0409042 0)
(10.0664 -0.0429068 0)
(10.0886 -0.0461223 0)
(10.1074 -0.05006 0)
(10.1247 -0.0528853 0)
(10.14 -0.0545571 0)
(10.1529 -0.0555576 0)
(10.1638 -0.0561396 0)
(10.1728 -0.0563756 0)
(10.1802 -0.0563393 0)
(10.186 -0.0561087 0)
(10.1905 -0.0557798 0)
(10.1936 -0.0554239 0)
(10.1957 -0.0550883 0)
(10.1967 -0.0547999 0)
(10.1972 -0.0545758 0)
(10.1969 -0.0545324 0)
(10.0488 -0.0370921 0)
(10.1393 -0.0646408 0)
(10.1982 -0.0661724 0)
(10.2316 -0.0645202 0)
(10.2512 -0.0636281 0)
(10.2611 -0.0625545 0)
(10.2624 -0.061153 0)
(10.2561 -0.0596828 0)
(10.244 -0.0582546 0)
(10.2272 -0.056829 0)
(10.2068 -0.0553951 0)
(10.1837 -0.0539763 0)
(10.1585 -0.0526317 0)
(10.1319 -0.0513683 0)
(10.1047 -0.0502308 0)
(10.0775 -0.049362 0)
(10.0505 -0.0487145 0)
(10.0242 -0.0486819 0)
(9.87182 -0.0289458 0)
(9.64719 -0.0556957 0)
(9.41716 -0.0640793 0)
(9.19118 -0.0658028 0)
(8.97925 -0.0652274 0)
(8.78499 -0.0629924 0)
(8.60687 -0.0597449 0)
(8.44358 -0.0560145 0)
(8.29423 -0.0521043 0)
(8.1582 -0.048236 0)
(8.03438 -0.0444647 0)
(7.92185 -0.0408536 0)
(7.8194 -0.0374745 0)
(7.72611 -0.0344565 0)
(7.64022 -0.0319164 0)
(7.56073 -0.0298314 0)
(7.48654 -0.0281097 0)
(7.41763 -0.027082 0)
(-0.0032628 0.00909393 -1.11274e-18)
(-0.0151573 0.0148148 1.15747e-18)
(-0.0313802 0.0158344 0)
(-0.0491501 0.0131479 0)
(-0.0634459 0.00616261 0)
(-0.0654115 -0.00482738 -7.51812e-19)
(-0.0494097 -0.0194217 0)
(-0.0200043 -0.0354408 0)
(0.0197758 -0.0483443 0)
(0.0664636 -0.0552962 0)
(0.117037 -0.0569314 4.20862e-19)
(0.167594 -0.0546982 0)
(0.214865 -0.049872 0)
(0.256929 -0.0434251 0)
(0.292868 -0.0360859 0)
(0.32226 -0.0283228 2.13005e-19)
(0.344963 -0.020413 0)
(0.360928 -0.0124516 0)
(0.370129 -0.00435475 0)
(0.372568 0.00409844 0)
(0.367119 0.0128898 0)
(0.354244 0.0216308 0)
(0.334355 0.0297336 0)
(0.307845 0.0365852 2.24767e-19)
(0.275341 0.0415812 -2.44968e-19)
(0.237829 0.0441134 2.73933e-19)
(0.196724 0.0436174 3.15571e-19)
(0.153837 0.0396739 0)
(0.111354 0.0321871 0)
(0.0717552 0.0216545 -6.09039e-19)
(0.0376486 0.00966476 -8.33124e-19)
(0.0112529 -0.000662667 0)
(-0.00688932 -0.00615162 0)
(-0.0189728 -0.00716688 -1.27617e-18)
(-0.0264274 -0.00567499 0)
(-0.0305569 -0.00367578 0)
(-0.0323152 -0.00290464 1.1414e-18)
(-0.0307894 -0.00438651 0)
(-0.0244929 -0.00807437 1.19787e-18)
(-0.0112485 -0.013731 2.71656e-18)
(0.00937882 -0.0201751 0)
(0.0363627 -0.0251794 0)
(0.0667293 -0.0268917 0)
(0.096154 -0.0245992 0)
(0.120556 -0.0191117 0)
(0.137342 -0.0120889 8.96384e-19)
(0.145676 -0.00538309 8.78701e-19)
(0.146946 -0.000864644 8.8204e-19)
(0.144227 0.0012696 0)
(0.140467 0.00184184 -9.0355e-19)
(0.143355 -0.00442306 0)
(0.152295 -0.0192609 8.28414e-19)
(0.158701 -0.037127 8.2721e-19)
(0.148311 -0.0497591 0)
(0.111181 -0.0431125 0)
(0.0422119 -0.00936334 0)
(-0.0842776 0.0421598 7.42693e-19)
(-0.236533 0.0819412 0)
(-0.402237 0.109523 0)
(-0.577349 0.126602 0)
(-0.753711 0.134407 0)
(-0.925633 0.133979 0)
(-1.08864 0.127695 0)
(-1.2397 0.118242 0)
(-1.37747 0.107268 0)
(-1.50181 0.0960052 -1.05474e-19)
(-1.61333 0.085211 0)
(-1.713 0.0753311 0)
(-1.80207 0.0665751 9.21327e-20)
(-1.88184 0.0589832 8.92219e-20)
(-1.95358 0.0524958 0)
(-2.01844 0.0469969 -8.465e-20)
(-2.07745 0.042351 8.27995e-20)
(-2.13147 0.0384236 0)
(-2.18123 0.0350873 -7.96598e-20)
(-2.22732 0.032234 0)
(-2.27022 0.0297708 0)
(-2.31032 0.0276225 7.58511e-20)
(-2.34795 0.0257254 0)
(-2.38334 0.0240286 -7.36752e-20)
(-2.41671 0.0224927 0)
(-2.44819 0.0210845 7.16811e-20)
(-2.47793 0.0197782 7.0734e-20)
(-2.506 0.0185516 6.98132e-20)
(-2.53249 0.0173865 1.37828e-19)
(-2.55744 0.0162667 -1.36068e-19)
(-2.58091 0.0151778 0)
(-2.60291 0.0141057 0)
(-2.62345 0.0130366 0)
(-2.64254 0.0119575 -1.2928e-19)
(-2.66018 0.0108546 -1.27624e-19)
(-2.67634 0.00971864 1.25977e-19)
(-2.691 0.0085433 0)
(-2.70413 0.00733199 -1.227e-19)
(-2.7157 0.00610109 -1.21068e-19)
(-2.72562 0.00488197 -1.19441e-19)
(-2.73383 0.00370384 0)
(-2.74022 0.0025803 0)
(-2.7447 0.00153987 0)
(-2.74726 0.000640534 -1.12921e-19)
(-2.74836 -0.00014998 0)
(-2.74801 -0.000906147 0)
(-2.74625 -0.00164951 1.0768e-19)
(-2.74307 -0.00239274 0)
(-2.73845 -0.00313639 0)
(-2.7324 -0.00388144 1.02066e-19)
(-2.72488 -0.00462702 0)
(-2.71588 -0.00537416 0)
(-2.70539 -0.0061217 -9.59876e-20)
(-2.6934 -0.00686994 -9.38429e-20)
(-2.6799 -0.00761775 0)
(-2.66489 -0.00836511 8.93546e-20)
(-2.64835 -0.00911127 0)
(-2.6303 -0.00985594 -8.45768e-20)
(-2.61073 -0.0105986 0)
(-2.58964 -0.0113375 -7.94787e-20)
(-2.56705 -0.0120712 -7.67995e-20)
(-2.54298 -0.0127944 0)
(-2.51743 -0.0135007 0)
(-2.49043 -0.0141751 0)
(-2.46201 -0.0147989 0)
(-2.43219 -0.0153663 0)
(-2.40101 -0.0158689 0)
(-2.36853 -0.0162463 0)
(-2.3348 -0.0164633 -5.17125e-20)
(-2.2999 -0.0165882 4.80737e-20)
(-2.26378 -0.0168706 0)
(-2.22648 -0.0173476 0)
(-2.18802 -0.0178531 0)
(-2.14846 -0.0183261 0)
(-2.10787 -0.0187685 5.59753e-20)
(-2.06632 -0.0191867 0)
(-2.02382 -0.019588 -3.78787e-20)
(-1.98049 -0.0199502 2.83556e-20)
(-1.93636 -0.0202932 0)
(-1.8915 -0.020604 0)
(-1.84598 -0.0208924 0)
(-1.79987 -0.0211487 1.30727e-20)
(-1.75322 -0.0213805 2.43062e-20)
(-1.70612 -0.0215805 0)
(-1.65859 -0.0217542 4.78979e-20)
(-1.61071 -0.0218946 6.02829e-20)
(-1.56251 -0.0220088 -7.30674e-20)
(-1.51408 -0.0220902 0)
(-1.46546 -0.0221459 0)
(-1.41673 -0.0221711 -1.13992e-19)
(-1.36794 -0.0221686 0)
(-1.31914 -0.0221374 0)
(-1.2704 -0.0220803 0)
(-1.22177 -0.0219955 0)
(-1.1733 -0.0218854 1.9158e-19)
(-1.12504 -0.0217498 2.08663e-19)
(-1.07703 -0.0215915 0)
(-1.02933 -0.0214113 2.44552e-19)
(-0.981952 -0.0212132 0)
(-0.934947 -0.0209972 0)
(-0.888332 -0.0207663 3.0311e-19)
(-0.842135 -0.0205226 0)
(-0.796367 -0.0202676 3.45677e-19)
(-0.751038 -0.0200052 0)
(-0.706148 -0.0197364 0)
(-0.661695 -0.0194651 4.15684e-19)
(-0.617668 -0.019192 0)
(-0.574049 -0.0189216 4.67176e-19)
(-0.530816 -0.0186552 0)
(-0.487942 -0.0184007 0)
(-0.445388 -0.0181587 0)
(-0.403114 -0.0179337 -5.85071e-19)
(-0.361073 -0.0177275 0)
(-0.319211 -0.0175485 6.53772e-19)
(-0.277477 -0.0173841 0)
(-0.235847 -0.0172285 0)
(-0.194284 -0.0170884 0)
(-0.15275 -0.016968 0)
(-0.111333 -0.0168088 0)
(-0.0703697 -0.0165301 0)
(-0.0303362 -0.0159996 0)
(0.0062646 -0.0147805 -2.09992e-18)
(0.0491368 -0.0138183 0)
(0.0531914 -0.00420802 0)
(1.54839e-05 0.0241797 3.36294e-18)
(-0.00649101 0.0420352 -3.51335e-18)
(-0.014806 0.044218 0)
(-0.0180371 0.0354664 2.34655e-18)
(-0.00608791 0.0135903 0)
(0.0247053 -0.0262681 8.21379e-19)
(0.066018 -0.0746429 -9.73875e-19)
(0.114633 -0.116189 -6.70708e-19)
(0.166268 -0.143394 0)
(0.216756 -0.155175 -4.20086e-19)
(0.26328 -0.154315 -1.81181e-19)
(0.30473 -0.14477 0)
(0.340739 -0.129989 0)
(0.371334 -0.112468 0)
(0.39674 -0.0938439 0)
(0.417295 -0.0750765 -1.32762e-19)
(0.433353 -0.0566308 0)
(0.445257 -0.0386901 2.62592e-19)
(0.453353 -0.0211897 0)
(0.458088 -0.00394108 0)
(0.460361 0.0132118 -2.70829e-19)
(0.459858 0.0302024 0)
(0.456142 0.0468026 2.79747e-19)
(0.448639 0.0627152 -1.43229e-19)
(0.436666 0.077459 1.4782e-19)
(0.419537 0.0903425 -1.53806e-19)
(0.396681 0.100443 -1.61783e-19)
(0.367829 0.106665 0)
(0.333164 0.10793 0)
(0.293433 0.10347 2.09201e-19)
(0.250019 0.0931983 -2.39744e-19)
(0.204974 0.0780633 0)
(0.160878 0.0598916 0)
(0.120685 0.040698 4.3268e-19)
(0.0876942 0.0223909 0)
(0.0647048 0.00621426 0)
(0.0532796 -0.00825156 -8.24825e-19)
(0.0541447 -0.0218173 0)
(0.0655839 -0.0357488 6.76063e-19)
(0.0850839 -0.0511486 -1.07126e-18)
(0.110249 -0.065905 0)
(0.137141 -0.0747922 0)
(0.160526 -0.0737646 -1.19065e-18)
(0.176917 -0.063022 -1.09168e-18)
(0.185146 -0.0464313 -1.07063e-18)
(0.185587 -0.0279112 5.5676e-19)
(0.178982 -0.0117239 -5.93039e-19)
(0.168102 -0.00344204 -1.89364e-18)
(0.153317 -0.00400041 1.33921e-18)
(0.12927 -0.00945621 7.2846e-19)
(0.0839176 -0.0118791 0)
(-0.0160624 0.0156458 -7.87555e-19)
(-0.176077 0.0833488 4.76499e-19)
(-0.358263 0.154093 0)
(-0.549619 0.218375 0)
(-0.740908 0.274629 0)
(-0.928805 0.317023 -1.27455e-19)
(-1.10683 0.340648 0)
(-1.2712 0.347102 1.92864e-19)
(-1.41903 0.339837 0)
(-1.5488 0.322446 1.61916e-19)
(-1.66093 0.298505 0)
(-1.75674 0.271191 -1.45112e-19)
(-1.83839 0.243075 0)
(-1.90821 0.215977 1.34909e-19)
(-1.96848 0.191007 -6.59609e-20)
(-2.02119 0.168709 0)
(-2.06796 0.149231 -1.25125e-19)
(-2.11008 0.13248 -6.11375e-20)
(-2.14855 0.118215 -6.00597e-20)
(-2.18407 0.106126 0)
(-2.21716 0.0958929 -5.82491e-20)
(-2.24819 0.0872053 -5.72681e-20)
(-2.27743 0.0797885 0)
(-2.30507 0.0734034 5.56384e-20)
(-2.33125 0.0678519 -1.09713e-19)
(-2.35608 0.0629711 0)
(-2.37963 0.0586278 -5.3417e-20)
(-2.40194 0.0547151 0)
(-2.42308 0.051148 1.56034e-19)
(-2.44306 0.0478591 0)
(-2.46192 0.0447943 -1.52038e-19)
(-2.47966 0.0419113 -5.00522e-20)
(-2.49631 0.0391751 4.93368e-20)
(-2.51186 0.036559 9.74013e-20)
(-2.52632 0.0340403 -9.6139e-20)
(-2.53969 0.0316017 0)
(-2.55197 0.0292275 0)
(-2.56315 0.0269049 0)
(-2.57324 0.0246211 2.73613e-19)
(-2.58222 0.0223631 8.99758e-20)
(-2.59009 0.020118 -8.87131e-20)
(-2.59685 0.0178707 0)
(-2.60251 0.0156061 -8.61528e-20)
(-2.60707 0.0133118 8.48913e-20)
(-2.61058 0.0109886 8.36066e-20)
(-2.61309 0.00865157 0)
(-2.61469 0.0063303 0)
(-2.61549 0.00407899 0)
(-2.61552 0.0019689 7.83126e-20)
(-2.61437 -2.45991e-05 0)
(-2.61194 -0.00197032 -1.51051e-19)
(-2.60815 -0.00388914 -2.2218e-19)
(-2.60299 -0.0057945 1.4522e-19)
(-2.59643 -0.00768817 0)
(-2.58846 -0.00957068 6.96794e-20)
(-2.57905 -0.0114396 0)
(-2.56821 -0.0132937 1.3286e-19)
(-2.55591 -0.0151297 -6.4936e-20)
(-2.54214 -0.0169458 -6.32844e-20)
(-2.5269 -0.0187385 0)
(-2.51019 -0.0205052 -1.78903e-19)
(-2.49199 -0.0222421 1.15815e-19)
(-2.47232 -0.0239462 5.58782e-20)
(-2.45116 -0.025614 0)
(-2.42854 -0.0272424 5.20559e-20)
(-2.40446 -0.0288289 1.50704e-19)
(-2.37893 -0.0303701 0)
(-2.35198 -0.0318631 9.24508e-20)
(-2.32362 -0.0333033 8.82006e-20)
(-2.29387 -0.0346906 8.38386e-20)
(-2.26274 -0.0360253 0)
(-2.23027 -0.0373141 0)
(-2.1965 -0.0385533 0)
(-2.16144 -0.0397497 -3.29655e-20)
(-2.12513 -0.040893 -2.97713e-20)
(-2.08761 -0.041972 0)
(-2.04897 -0.0429556 -5.00157e-20)
(-2.00926 -0.043842 -4.47135e-20)
(-1.96851 -0.044648 0)
(-1.92679 -0.0453837 -3.28918e-20)
(-1.88415 -0.0460327 -5.61496e-20)
(-1.84063 -0.0466061 2.13969e-20)
(-1.79632 -0.0471024 1.72855e-20)
(-1.75126 -0.0475241 0)
(-1.70552 -0.047866 0)
(-1.65917 -0.0481387 0)
(-1.61228 -0.0483369 -9.37853e-21)
(-1.5649 -0.0484696 1.38868e-20)
(-1.5171 -0.048531 4.29056e-20)
(-1.46894 -0.0485263 -2.9143e-20)
(-1.42046 -0.0484516 3.39006e-20)
(-1.37171 -0.048313 4.28243e-20)
(-1.32277 -0.0481132 0)
(-1.27369 -0.0478537 0)
(-1.22454 -0.0475402 -6.19627e-20)
(-1.17535 -0.0471731 0)
(-1.12621 -0.0467565 0)
(-1.07715 -0.0462934 1.69899e-19)
(-1.02823 -0.0457869 0)
(-0.979501 -0.0452403 9.89107e-20)
(-0.931004 -0.044657 -1.08544e-19)
(-0.882782 -0.0440423 0)
(-0.834875 -0.0434003 1.21851e-19)
(-0.787315 -0.0427366 0)
(-0.740134 -0.0420552 0)
(-0.693352 -0.0413613 -1.47094e-19)
(-0.646991 -0.0406623 3.07901e-19)
(-0.601062 -0.039964 -1.62709e-19)
(-0.555567 -0.0392715 0)
(-0.510508 -0.0385908 0)
(-0.465875 -0.0379274 1.84416e-19)
(-0.421656 -0.0372875 0)
(-0.37783 -0.0366736 2.00064e-19)
(-0.334371 -0.0360911 0)
(-0.291247 -0.0355468 0)
(-0.24842 -0.0350463 0)
(-0.205843 -0.0345882 2.32435e-19)
(-0.163464 -0.0341804 0)
(-0.121229 -0.0338292 -2.4748e-19)
(-0.0790842 -0.0335232 0)
(-0.0369873 -0.033243 0)
(0.00510758 -0.032975 5.3803e-19)
(0.046979 -0.0326495 -5.45436e-19)
(0.0885589 -0.0321892 0)
(0.129894 -0.0314889 0)
(0.170983 -0.0303968 0)
(0.210102 -0.0285275 1.61848e-18)
(0.253754 -0.0258253 0)
(0.277522 -0.0163221 -1.0989e-18)
(0.000877134 0.0264375 3.46308e-22)
(0.00169511 0.047644 4.85388e-18)
(0.00617623 0.0435768 0)
(0.0237407 0.0131557 -3.62194e-18)
(0.0628779 -0.049171 0)
(0.11727 -0.124808 0)
(0.175338 -0.189039 -3.27969e-22)
(0.228549 -0.22917 3.7822e-19)
(0.273305 -0.244564 3.20245e-19)
(0.309324 -0.240724 2.82677e-19)
(0.337853 -0.224329 0)
(0.36052 -0.201 0)
(0.378708 -0.174604 -2.27884e-19)
(0.393383 -0.147448 -4.3784e-19)
(0.405152 -0.120766 4.2583e-19)
(0.414402 -0.0951396 0)
(0.421379 -0.0707674 4.15857e-19)
(0.42626 -0.0476588 -2.07715e-19)
(0.429205 -0.0257435 0)
(0.430346 -0.00489865 4.28989e-19)
(0.430008 0.0150718 2.15447e-19)
(0.428489 0.0345246 -4.36692e-19)
(0.426108 0.0537452 -2.22556e-19)
(0.42308 0.0728283 0)
(0.41942 0.0916165 4.76799e-19)
(0.414848 0.109661 4.97041e-19)
(0.408776 0.126186 0)
(0.400307 0.140099 5.45346e-19)
(0.38834 0.150066 0)
(0.371821 0.154712 6.09406e-19)
(0.350079 0.152912 3.26792e-19)
(0.323237 0.144112 0)
(0.292482 0.128539 0)
(0.260125 0.107117 0)
(0.229346 0.0813086 0)
(0.203449 0.0527854 0)
(0.185359 0.0227903 0)
(0.175914 -0.00822635 1.45814e-18)
(0.175167 -0.0395229 -2.00892e-18)
(0.181155 -0.0688772 0)
(0.188762 -0.0897627 0)
(0.190875 -0.0949675 0)
(0.183995 -0.0838773 -8.9216e-23)
(0.168067 -0.0609843 8.19557e-19)
(0.144243 -0.0343299 1.79071e-18)
(0.112714 -0.0074335 -2.01704e-18)
(0.0718767 0.019151 -1.21841e-18)
(0.0101796 0.0424274 1.34977e-18)
(-0.0959477 0.0796123 -6.55348e-22)
(-0.24165 0.144181 6.52349e-19)
(-0.416439 0.22068 0)
(-0.606076 0.299627 3.34313e-19)
(-0.797163 0.374175 6.22584e-22)
(-0.979034 0.435827 0)
(-1.14555 0.481974 0)
(-1.29029 0.511938 -1.65717e-19)
(-1.40971 0.523802 0)
(-1.50579 0.518032 0)
(-1.58202 0.497524 1.31711e-19)
(-1.64257 0.466213 2.46022e-19)
(-1.69172 0.42824 -1.15714e-19)
(-1.73322 0.387295 0)
(-1.77005 0.346396 1.07041e-19)
(-1.80428 0.307684 0)
(-1.83714 0.272449 1.02093e-19)
(-1.86927 0.241263 9.79021e-20)
(-1.9009 0.214194 -1.91828e-19)
(-1.93206 0.190993 -9.39059e-20)
(-1.96267 0.171251 0)
(-1.99259 0.154495 1.79142e-19)
(-2.02173 0.14026 0)
(-2.04997 0.128106 2.58388e-19)
(-2.07725 0.117653 1.69184e-19)
(-2.10353 0.10858 1.66246e-19)
(-2.12877 0.100622 -1.63464e-19)
(-2.15297 0.0935645 2.41274e-19)
(-2.17612 0.0872314 0)
(-2.19823 0.0814794 0)
(-2.2193 0.0761967 -1.53432e-19)
(-2.23934 0.0712941 -2.26745e-19)
(-2.25836 0.0667001 0)
(-2.27637 0.0623571 7.33879e-20)
(-2.29336 0.0582189 0)
(-2.30936 0.054248 -2.13523e-19)
(-2.32434 0.0504141 -1.27549e-22)
(-2.33833 0.0466922 1.19877e-22)
(-2.35131 0.0430626 1.36006e-19)
(-2.36327 0.0395086 0)
(-2.37422 0.0360169 -1.3189e-19)
(-2.38415 0.0325762 -8.30455e-23)
(-2.39305 0.0291775 0)
(-2.40092 0.0258145 0)
(-2.40776 0.022484 0)
(-2.41357 0.0191857 1.21756e-19)
(-2.41834 0.0159227 0)
(-2.42208 0.0126999 0)
(-2.42476 0.00952147 0)
(-2.42638 0.00638874 0)
(-2.42687 0.00329297 0)
(-2.42619 0.000198594 1.09246e-19)
(-2.42426 -0.00290796 0)
(-2.42106 -0.00600753 1.04722e-19)
(-2.41656 -0.00909381 1.02452e-19)
(-2.41073 -0.0121653 -1.00153e-19)
(-2.40355 -0.0152202 0)
(-2.395 -0.0182561 -9.54593e-20)
(-2.38507 -0.0212699 0)
(-2.37373 -0.0242578 -9.06241e-20)
(-2.36099 -0.0272159 8.8149e-20)
(-2.34682 -0.0301399 2.57377e-19)
(-2.33122 -0.033025 0)
(-2.31419 -0.0358665 2.41975e-19)
(-2.29572 -0.0386588 7.84207e-20)
(-2.27581 -0.0413966 0)
(-2.25447 -0.0440741 1.4545e-19)
(-2.2317 -0.0466857 1.39904e-19)
(-2.20752 -0.049226 -2.01007e-19)
(-2.18193 -0.0516892 0)
(-2.15495 -0.054068 -6.09037e-20)
(-2.1266 -0.0563546 -5.78989e-20)
(-2.0969 -0.0585423 -1.65429e-19)
(-2.06588 -0.060629 0)
(-2.03356 -0.0626132 0)
(-1.99997 -0.0644913 0)
(-1.96516 -0.0662621 -4.3102e-20)
(-1.92914 -0.0679283 0)
(-1.892 -0.0694966 0)
(-1.85377 -0.0709598 3.18502e-20)
(-1.81451 -0.0722913 2.83564e-20)
(-1.77427 -0.0734972 0)
(-1.73311 -0.0745842 0)
(-1.69106 -0.075546 3.51419e-20)
(-1.6482 -0.0763802 0)
(-1.60458 -0.077086 -2.03172e-20)
(-1.56026 -0.077666 -1.41401e-20)
(-1.51531 -0.078121 0)
(-1.46978 -0.0784565 0)
(-1.42376 -0.0786749 -8.82852e-21)
(-1.37729 -0.0787804 -1.41613e-21)
(-1.33043 -0.0787747 -1.42606e-21)
(-1.28325 -0.0786596 0)
(-1.23579 -0.0784375 -8.19374e-20)
(-1.18811 -0.0781118 0)
(-1.14026 -0.0776901 0)
(-1.09231 -0.0771741 0)
(-1.04431 -0.0765713 7.36677e-20)
(-0.996311 -0.0758836 0)
(-0.948372 -0.0751176 -1.76565e-19)
(-0.900543 -0.0742777 -9.77249e-20)
(-0.852869 -0.0733704 0)
(-0.805398 -0.0724004 -1.13688e-19)
(-0.75817 -0.0713742 0)
(-0.711225 -0.0702989 0)
(-0.664595 -0.0691821 -4.09402e-19)
(-0.618311 -0.0680321 2.8765e-19)
(-0.572398 -0.0668563 0)
(-0.526875 -0.0656626 3.18481e-19)
(-0.481756 -0.0644614 -1.68082e-19)
(-0.437048 -0.0632627 0)
(-0.392752 -0.0620741 0)
(-0.348862 -0.0609047 0)
(-0.305365 -0.0597618 -5.89714e-19)
(-0.262245 -0.0586553 0)
(-0.219476 -0.0575888 -2.11225e-19)
(-0.177027 -0.0565705 0)
(-0.134861 -0.0556084 0)
(-0.092935 -0.0547109 0)
(-0.0511997 -0.0538775 0)
(-0.00959072 -0.0531156 0)
(0.0319225 -0.0524235 0)
(0.0733713 -0.0517932 -5.00135e-19)
(0.114845 -0.051204 0)
(0.156436 -0.0506231 -2.54281e-19)
(0.198198 -0.0499872 7.65252e-19)
(0.240177 -0.0492389 0)
(0.2823 -0.0482582 0)
(0.324688 -0.0468558 -5.15859e-19)
(0.366038 -0.0446113 -5.19267e-19)
(0.411261 -0.0413717 5.21822e-19)
(0.444677 -0.0321031 5.31222e-19)
(-0.00110137 0.0257356 -6.77678e-18)
(0.00107261 0.0360827 -7.73079e-18)
(0.0196388 0.00133021 -3.68996e-18)
(0.0670312 -0.0832924 -9.82996e-19)
(0.132535 -0.182924 0)
(0.19754 -0.261967 8.30175e-19)
(0.25003 -0.305824 -3.29532e-19)
(0.287372 -0.317421 0)
(0.312199 -0.306714 -2.4847e-19)
(0.328548 -0.283401 0)
(0.339782 -0.254169 4.23936e-19)
(0.348078 -0.222855 0)
(0.354628 -0.191415 1.91148e-19)
(0.359972 -0.160755 3.70339e-19)
(0.3643 -0.131261 -3.62731e-19)
(0.367635 -0.103084 0)
(0.369946 -0.07626 -3.57801e-19)
(0.371205 -0.0507712 0)
(0.371407 -0.0265749 0)
(0.370574 -0.00361044 -3.7266e-19)
(0.368791 0.0182092 0)
(0.366185 0.0390419 -6.78499e-22)
(0.362969 0.0590414 0)
(0.359433 0.0783654 0)
(0.355872 0.0970882 6.21104e-22)
(0.35251 0.115132 -4.2504e-19)
(0.349436 0.132221 -4.47107e-19)
(0.346521 0.147812 -4.71837e-19)
(0.343328 0.161037 0)
(0.339088 0.17069 -1.06322e-18)
(0.332815 0.175331 0)
(0.323584 0.173513 -6.03972e-19)
(0.310874 0.164069 0)
(0.294946 0.146362 0)
(0.27684 0.120511 7.81439e-19)
(0.258422 0.0875391 0)
(0.241691 0.0492791 -9.83836e-19)
(0.228191 0.00822366 -2.29694e-21)
(0.217361 -0.032358 2.06552e-18)
(0.204091 -0.0644235 -1.80931e-18)
(0.182454 -0.0770259 0)
(0.149777 -0.0677643 0)
(0.105221 -0.04145 -8.30447e-19)
(0.0498096 -0.00215249 0)
(-0.020438 0.0440111 -9.68756e-19)
(-0.119493 0.0984675 7.51184e-19)