/*--------------------------------*- C++ -*----------------------------------*\
| =========                 |                                                 |
| \\      /  F ield         | OpenFOAM: The Open Source CFD Toolbox           |
|  \\    /   O peration     | Version:  2406                                  |
|   \\  /    A nd           | Website:  www.openfoam.com                      |
|    \\/     M anipulation  |                                                 |
\*---------------------------------------------------------------------------*/
FoamFile
{
    version     2.0;
    format      ascii;
    arch        "LSB;label=32;scalar=64";
    class       volScalarField;
    location    "0.5";
    object      nu;
}
// * * * * * * * * * * * * * * * * * * * * * * * * * * * * * * * * * * * * * //

dimensions      [0 2 -1 0 0 0 0];

internalField   nonuniform List<scalar> 
1800
(
0.00974725
0.0125453
0.0111778
0.0100386
0.00957823
0.009403
0.0093103
0.00920764
0.00923567
0.00987501
0.0117343
0.013042
0.0103472
0.00937812
0.00914481
0.00914303
0.00918819
0.00921435
0.00938091
0.00913408
0.0169849
0.0118439
0.00945015
0.00887186
0.00884873
0.00897434
0.00911053
0.00919434
0.00945107
0.00923208
0.0160982
0.0100542
0.00872283
0.00852371
0.00866173
0.00887597
0.00906394
0.00916957
0.009458
0.00895896
0.011043
0.00883337
0.00826125
0.00833007
0.00861208
0.00892592
0.00918116
0.00931593
0.00958365
0.00877172
0.00894934
0.00811037
0.00796231
0.00823507
0.00867237
0.00911164
0.00943717
0.00956128
0.00966498
0.00857655
0.00791099
0.0076448
0.00778303
0.00825832
0.00888368
0.00946314
0.00981113
0.00980094
0.00952996
0.00848132
0.00728062
0.0073409
0.00772121
0.00842863
0.00927848
0.00996169
0.0101726
0.00984474
0.00926724
0.00847841
0.00686533
0.00715528
0.0077755
0.00876525
0.00986103
0.0105131
0.010359
0.00969359
0.00905602
0.00863937
0.00658356
0.00706087
0.00794076
0.00927159
0.0105756
0.0109485
0.0103157
0.00949393
0.00899799
0.00891157
0.00805401
0.0122623
0.0177649
0.0186657
0.0181677
0.0175591
0.0167241
0.0156676
0.0145489
0.0136544
0.00781888
0.0119745
0.0186591
0.019538
0.0184575
0.0175257
0.0165553
0.0153802
0.0141347
0.0131598
0.00764551
0.0117997
0.0208356
0.0217959
0.0194805
0.0179229
0.0166658
0.0152891
0.0138747
0.0127951
0.00752512
0.01173
0.0266028
0.0284474
0.0215356
0.0186043
0.0169786
0.0153812
0.0137613
0.0125518
0.00745498
0.0118071
0.0401046
0.0537393
0.0257727
0.0195269
0.0173173
0.0155508
0.0137305
0.012394
0.00745607
0.0117349
0.0364003
0.0542883
0.0268866
0.0200425
0.0177745
0.0159717
0.0138606
0.012303
0.00754399
0.0114078
0.0222418
0.0256223
0.0207445
0.0184499
0.0177305
0.0166166
0.0142112
0.0122279
0.00774547
0.0111729
0.0158358
0.0164047
0.0155612
0.0153281
0.0156598
0.015871
0.0141411
0.0119356
0.00811584
0.0112378
0.0132067
0.0128454
0.0123732
0.0123011
0.0125882
0.0132419
0.0130579
0.0114889
0.00873236
0.0117206
0.0120246
0.0111253
0.0106114
0.0104368
0.0104367
0.0106301
0.0107805
0.0108738
0.0143622
0.0133003
0.015718
0.0189341
0.0229858
0.0288047
0.0352845
0.0423972
0.0455645
0.05895
0.0142159
0.0135784
0.0154823
0.0185624
0.0224665
0.0285242
0.0356752
0.0435866
0.0472244
0.0612008
0.0141117
0.0141584
0.0152737
0.0181526
0.0217734
0.0277354
0.0350144
0.0429869
0.0469987
0.0602209
0.01408
0.0149935
0.0149269
0.0174248
0.0206017
0.025935
0.0324504
0.0393102
0.043138
0.0533087
0.0140184
0.0150212
0.0139116
0.0157475
0.0183101
0.0224012
0.0273437
0.0323243
0.035489
0.0415874
0.0133951
0.0131687
0.0122926
0.0134199
0.0152334
0.0178972
0.021105
0.0243247
0.026667
0.0298878
0.0119615
0.0112873
0.0109766
0.011646
0.0128055
0.0144007
0.0163053
0.0182444
0.0197777
0.0215589
0.010491
0.0103409
0.0102977
0.0107128
0.0114623
0.012437
0.0135721
0.0147244
0.0156478
0.0167069
0.00976373
0.0102654
0.01023
0.0104039
0.0109164
0.0115919
0.0123565
0.0131235
0.0136984
0.0144162
0.0088099
0.0105679
0.0106738
0.0105984
0.0109096
0.0114101
0.0119846
0.012559
0.0129556
0.0135281
0.00960106
0.0110816
0.011326
0.0114784
0.0117893
0.0121991
0.0126621
0.0131535
0.0134238
0.0139323
0.00935138
0.00983416
0.0103996
0.0113277
0.012469
0.0134806
0.0142457
0.0148646
0.0151687
0.0156776
0.0100131
0.0104603
0.0108549
0.0116622
0.0131471
0.014936
0.0166034
0.0179932
0.0188996
0.0197609
0.0149573
0.012567
0.0122345
0.0127642
0.0145562
0.0175168
0.0211462
0.0252585
0.0287492
0.0340786
0.0178131
0.0128526
0.0125796
0.0133384
0.0154528
0.0193913
0.0252536
0.0334631
0.0433315
0.087494
0.0161369
0.0138927
0.0135885
0.0142085
0.016038
0.019025
0.0225836
0.0257304
0.0288095
0.0311521
0.0135684
0.0120256
0.0115038
0.0119143
0.012886
0.0138876
0.014773
0.0153941
0.0159421
0.0161162
0.00954073
0.00909194
0.00911936
0.00953682
0.0100936
0.0105461
0.0109075
0.0111666
0.0113629
0.0114727
0.00748455
0.00764175
0.00799204
0.0084164
0.00880377
0.00907153
0.00926203
0.00939509
0.00947713
0.00955168
0.00707653
0.00755738
0.00807969
0.00852591
0.0087245
0.00875394
0.00873804
0.00872052
0.00869896
0.0087229
0.0102381
0.00953918
0.00894244
0.00859647
0.00832901
0.00833348
0.00824195
0.00869458
0.008256
0.00915509
0.0131071
0.0127108
0.0107571
0.0103541
0.0090555
0.008937
0.00821388
0.00837686
0.00811484
0.00833984
0.0151771
0.0151312
0.0144242
0.013245
0.0120061
0.0109164
0.010352
0.00953688
0.00954879
0.00877925
0.0171497
0.016714
0.0222478
0.0163428
0.0214497
0.013767
0.0177198
0.0125545
0.0160551
0.0115673
0.0182704
0.0193403
0.0231933
0.0217855
0.0229546
0.0203081
0.0211517
0.0201148
0.0301403
0.023548
0.0171804
0.0177331
0.0171487
0.0189458
0.0177307
0.0213946
0.0201939
0.0252587
0.0225551
0.0301577
0.0123715
0.0124598
0.0121627
0.0128735
0.0126711
0.0139358
0.0138662
0.0151606
0.0148179
0.0158338
0.00924517
0.00922725
0.00912322
0.00925602
0.00912913
0.00940914
0.009306
0.00959007
0.00954683
0.00982821
0.00745592
0.00739685
0.00735828
0.00732173
0.0073331
0.00732404
0.00736632
0.00740885
0.00745442
0.00754429
0.00641928
0.00640752
0.00642033
0.00642973
0.00647936
0.00651071
0.0065979
0.00664367
0.00676728
0.0068001
0.00946628
0.0124486
0.0149778
0.0155439
0.015424
0.0154225
0.0149769
0.0113672
0.00782219
0.0061837
0.00910085
0.0100441
0.011682
0.0137925
0.0156713
0.0172926
0.017153
0.0115198
0.00774226
0.00615331
0.00915259
0.00925829
0.0100126
0.0117732
0.0143438
0.0170789
0.0176026
0.0114494
0.00767803
0.00614044
0.00961402
0.00922649
0.00946537
0.0106246
0.0127789
0.0153914
0.0160193
0.0110721
0.00760176
0.00613731
0.0102989
0.00945724
0.00932475
0.0100513
0.0116668
0.0137229
0.0141053
0.0104812
0.00749857
0.00613719
0.0108535
0.00963885
0.00928473
0.0097822
0.0110774
0.0127063
0.0127749
0.00988788
0.00737574
0.00614042
0.0108333
0.00956214
0.00921893
0.00967838
0.0108544
0.0122095
0.011921
0.0093781
0.007253
0.00615546
0.0103948
0.00936929
0.00919522
0.00973588
0.0108975
0.0119931
0.0112698
0.00893733
0.0071472
0.00619421
0.00979056
0.00917434
0.00923474
0.00990699
0.011049
0.0117551
0.0106139
0.00854439
0.0070716
0.00626912
0.00930862
0.00904877
0.00933745
0.0101295
0.0111231
0.0112731
0.0099175
0.00820479
0.0070383
0.0063932
0.0132627
0.0131132
0.0129733
0.0128229
0.0126297
0.0124222
0.0122271
0.0118485
0.010541
0.00811882
0.013219
0.013027
0.0128785
0.0127256
0.0125256
0.0123128
0.0121253
0.0116787
0.0100266
0.00763774
0.0132678
0.0130591
0.0129176
0.0127527
0.0125257
0.0122886
0.0120941
0.0115563
0.00959318
0.00728209
0.0131769
0.0128898
0.0127482
0.0126088
0.0124127
0.0122147
0.0120727
0.0114853
0.0092538
0.007018
0.0133681
0.0130816
0.0129584
0.0127806
0.0125199
0.0122629
0.0120791
0.0113521
0.00891798
0.00679965
0.0133877
0.0130624
0.0130034
0.0128889
0.0126751
0.0124792
0.0123776
0.0115055
0.00870403
0.00664013
0.0134104
0.0129134
0.0127827
0.0126387
0.0124263
0.0122462
0.0121604
0.0112372
0.00844175
0.00649878
0.0140133
0.0138679
0.014204
0.0141221
0.0137355
0.0133729
0.0131079
0.0115058
0.0082626
0.00639044
0.0144619
0.0131403
0.0130134
0.0130309
0.0128898
0.0128334
0.0129624
0.0114871
0.00812177
0.00630813
0.0148699
0.0168085
0.016138
0.014674
0.0138113
0.0134917
0.0133365
0.0112617
0.00794678
0.00623602
0.0209487
0.033964
0.0287064
0.0492449
0.0568937
0.0510301
0.0319168
0.024354
0.0160197
0.013243
0.0206446
0.0328988
0.0281669
0.0445418
0.0570992
0.0619418
0.0349576
0.0245294
0.0161566
0.0131659
0.0203475
0.0317269
0.0273287
0.0397647
0.0562088
0.0779998
0.0391073
0.0248172
0.0163873
0.01311
0.0200234
0.0303058
0.026145
0.0362112
0.0591205
0.0987608
0.0438657
0.0253133
0.0167913
0.0129658
0.019653
0.0286407
0.024872
0.0358787
0.0729631
0.107822
0.0466557
0.0260173
0.0171906
0.0132227
0.0192962
0.0269877
0.0244468
0.044315
0.100258
0.0860696
0.0434694
0.0254447
0.0172453
0.0126869
0.01899
0.0256592
0.0255824
0.0785693
0.0814681
0.0508578
0.0335287
0.0242205
0.0168149
0.0128723
0.0188617
0.0243302
0.0275829
0.0877718
0.0337983
0.0271081
0.0225249
0.0196871
0.0150882
0.0132886
0.0190574
0.0222928
0.0278789
0.0300485
0.0200987
0.0183725
0.0170113
0.0165049
0.013767
0.0117758
0.0199364
0.0196307
0.0228248
0.0193193
0.0156821
0.0146301
0.014011
0.0134962
0.012385
0.0142463
0.0207846
0.0175351
0.019149
0.0166483
0.0143795
0.0135377
0.0125162
0.0125311
0.0107176
0.0139779
0.0215439
0.0157153
0.0184739
0.0166503
0.0145728
0.0137807
0.0121862
0.012883
0.0102107
0.0117036
0.0223598
0.0144638
0.0192858
0.0184509
0.0163407
0.0149207
0.0134337
0.0129543
0.0110646
0.0110434
0.0238127
0.0137293
0.0188269
0.0210913
0.0202987
0.017275
0.0165493
0.0136313
0.0130797
0.0114431
0.0263192
0.0134695
0.0176235
0.0220538
0.026084
0.020253
0.0239874
0.014433
0.0149576
0.0129368
0.029595
0.0135636
0.0169184
0.0211212
0.0261881
0.0246721
0.0247796
0.0161711
0.0161413
0.014316
0.0338743
0.0143131
0.0163155
0.0173443
0.0174565
0.0193662
0.0162395
0.0189892
0.0145708
0.0138268
0.0366501
0.0158828
0.0134198
0.0126252
0.0120756
0.0121942
0.011705
0.0124772
0.0112981
0.0114627
0.0253352
0.01307
0.010464
0.0100463
0.00971899
0.00955897
0.00950248
0.00920447
0.00922457
0.00884139
0.00814411
0.00795307
0.00889631
0.00852894
0.00841923
0.00820545
0.00804745
0.0076574
0.00765058
0.00707988
0.0106134
0.0108957
0.0112818
0.0122551
0.0135238
0.0145418
0.0148224
0.0142237
0.0125516
0.0113217
0.0106974
0.0107493
0.0111698
0.0118562
0.0126615
0.013229
0.0135456
0.0138833
0.0141299
0.014623
0.0115112
0.0117378
0.012364
0.0131392
0.0139223
0.0143173
0.0145022
0.0142412
0.0145224
0.0146107
0.0126341
0.0130233
0.0136586
0.014158
0.0145625
0.0147227
0.0149903
0.0146609
0.015029
0.0149368
0.0137396
0.0138818
0.0141889
0.0142321
0.0142494
0.0142191
0.0144901
0.0146245
0.0153323
0.0158249
0.0136908
0.0134859
0.0136674
0.0138665
0.0139904
0.013954
0.0142004
0.0146267
0.015632
0.0163567
0.0128179
0.0124792
0.0124638
0.0125897
0.0124986
0.0121928
0.0120148
0.0121082
0.0123589
0.0125165
0.0107924
0.0104716
0.0102584
0.0101101
0.00989142
0.00968302
0.00951305
0.00946865
0.0093841
0.00936686
0.0086264
0.00846537
0.00830864
0.00814391
0.00799396
0.00788215
0.00778484
0.00769829
0.00760713
0.00753001
0.00694762
0.00684317
0.00674261
0.00666436
0.00661113
0.00656717
0.00652292
0.0064836
0.00645406
0.00643129
0.00627292
0.00713738
0.00894508
0.0136558
0.0281719
0.0177996
0.0131688
0.0111857
0.00969692
0.00851741
0.0063636
0.0070546
0.00850071
0.0127177
0.0455177
0.0258331
0.0139791
0.0108429
0.00939023
0.00842344
0.00652013
0.00703494
0.00811733
0.0109399
0.0208975
0.0278819
0.0154101
0.0111482
0.00942485
0.00848578
0.006759
0.00708957
0.00785099
0.00967565
0.0140663
0.0203347
0.0165186
0.0120366
0.00987639
0.00876293
0.00709833
0.00723286
0.00773405
0.00893742
0.0113418
0.0148399
0.0156427
0.0130104
0.0107438
0.00935987
0.0075583
0.0074808
0.00777743
0.00859364
0.0100639
0.0120516
0.0134189
0.0129589
0.0115734
0.0102734
0.00813891
0.00784316
0.00798493
0.00855233
0.00951263
0.0106968
0.011675
0.0119807
0.0116658
0.0110845
0.00879248
0.00832362
0.00836356
0.00876459
0.0094037
0.0101066
0.0106743
0.0109827
0.0111264
0.0111104
0.00939172
0.00890675
0.00891966
0.00920866
0.00961385
0.00999544
0.0102756
0.0104669
0.0107511
0.0109067
0.00983638
0.00959144
0.00969021
0.00990102
0.0100803
0.0101684
0.0101777
0.0101493
0.0102237
0.0106704
0.0101109
0.0103896
0.0107801
0.0109989
0.0109776
0.0108165
0.0106414
0.0105353
0.010614
0.0121098
0.0102816
0.0113002
0.0122824
0.012645
0.0124397
0.012072
0.0118057
0.0117784
0.0119327
0.013031
0.0104001
0.0123193
0.0144659
0.0152298
0.0147679
0.0141747
0.0138164
0.0138001
0.0137923
0.0142277
0.0104245
0.0133132
0.0179283
0.0203862
0.0192547
0.0178047
0.0167798
0.0162541
0.0156871
0.0153226
0.0103666
0.014153
0.0236582
0.0411493
0.0341196
0.0243202
0.0201039
0.018364
0.0171592
0.0161697
0.0100433
0.0141759
0.025886
0.0871569
0.0500949
0.0271025
0.0212037
0.0193255
0.0180388
0.016706
0.00958745
0.0142466
0.0242833
0.0327655
0.0324378
0.0252384
0.0208438
0.018966
0.0177919
0.0165681
0.0091307
0.0137838
0.0202545
0.0226604
0.0230023
0.0213657
0.0192065
0.0177704
0.0167504
0.0157955
0.00871677
0.0132113
0.0184283
0.0197911
0.01988
0.0192177
0.017994
0.0168297
0.0158314
0.0149825
0.00835417
0.0126763
0.0176988
0.0187315
0.0185735
0.0180714
0.0171888
0.0161461
0.0151107
0.0142655
0.0135321
0.0159162
0.0221284
0.0382796
0.037317
0.0345942
0.0351864
0.038801
0.0415978
0.0551846
0.0132496
0.016209
0.0210832
0.0294416
0.0326567
0.0332344
0.0348608
0.0392584
0.0441401
0.0651894
0.0133541
0.0169556
0.0210743
0.0283776
0.0304934
0.0319255
0.0340012
0.0385217
0.0439437
0.0655572
0.0136389
0.0171831
0.0206067
0.0267952
0.0283625
0.0301555
0.0325592
0.0370724
0.0423947
0.0616933
0.01391
0.0164465
0.019586
0.0246587
0.0264627
0.0286202
0.0312648
0.0356209
0.040423
0.0569056
0.0141643
0.0153496
0.0184436
0.0228156
0.025257
0.0279133
0.030839
0.0350784
0.039179
0.053376
0.0144247
0.014397
0.017497
0.0214693
0.0246031
0.0279073
0.0312894
0.0356369
0.0391388
0.0519227
0.0145712
0.0137226
0.0168288
0.0204994
0.024181
0.0281995
0.032235
0.0369557
0.0400805
0.0522632
0.0145874
0.0133612
0.0163621
0.019816
0.0238066
0.0285262
0.0333332
0.0386652
0.0416084
0.0537925
0.0145033
0.0132379
0.0160042
0.0193283
0.0234186
0.0287647
0.0344018
0.040556
0.0434917
0.0561203
0.00920143
0.0111484
0.0119431
0.0123331
0.0117921
0.0112671
0.0108726
0.0105358
0.0103746
0.0102869
0.00998907
0.0113488
0.0123989
0.0126559
0.0124845
0.0121421
0.011868
0.0116004
0.0114883
0.0113363
0.0132231
0.0139269
0.0167092
0.0169686
0.0163103
0.0155731
0.0150668
0.0146373
0.0143845
0.0140146
0.0181286
0.0178869
0.0286687
0.0368117
0.0271005
0.0238217
0.0224596
0.0218068
0.0210533
0.0204266
0.0152835
0.0167921
0.0274903
0.0983407
0.0380502
0.0324254
0.0315163
0.0327218
0.0325201
0.0349669
0.00657762
0.00674131
0.00696063
0.00722461
0.00751499
0.00779311
0.00802252
0.00819708
0.00838753
0.00847092
0.00686454
0.00701436
0.00722152
0.0074626
0.00772049
0.00800389
0.0083185
0.00876627
0.0091407
0.00973231
0.00716454
0.00728793
0.00747047
0.00769165
0.0079603
0.0083432
0.00891115
0.00989423
0.0107471
0.0133123
0.00749588
0.00757759
0.00773154
0.00795068
0.00827865
0.00881918
0.00969532
0.0109631
0.0118113
0.0154487
0.00787174
0.00789982
0.00803869
0.00829739
0.00874436
0.00946338
0.010397
0.0111327
0.0112811
0.0136162
0.0128494
0.0132827
0.0142305
0.0146364
0.0145442
0.0141525
0.0135312
0.0124221
0.0104515
0.00812041
0.0143429
0.0141018
0.0140284
0.0137652
0.0134935
0.0132347
0.0128967
0.0122691
0.0109312
0.00862887
0.0137682
0.0135504
0.0135981
0.0135257
0.0134091
0.0132711
0.0130463
0.0126179
0.0117103
0.00940899
0.0138963
0.0137736
0.0137924
0.0136646
0.0134767
0.0132776
0.0130427
0.0127844
0.0125156
0.0106147
0.0138412
0.0136958
0.0136322
0.0134649
0.0132525
0.0130473
0.0128768
0.0128996
0.0135796
0.0131376
0.0137794
0.0136373
0.013517
0.0133114
0.0130598
0.0128255
0.0126846
0.0129055
0.0145511
0.019176
0.0136513
0.0135248
0.0133896
0.0131945
0.0129596
0.0127419
0.012616
0.0128035
0.014155
0.0174806
0.0135182
0.0134143
0.0132898
0.0131277
0.0129338
0.0127511
0.0126165
0.0126051
0.012973
0.0120735
0.0134072
0.0133053
0.013182
0.0130355
0.0128574
0.0126789
0.0125161
0.0123349
0.0119718
0.00993191
0.0133176
0.0131966
0.0130651
0.012919
0.0127367
0.0125442
0.0123581
0.0120637
0.0111758
0.00881855
0.00881178
0.0103378
0.0121536
0.0134573
0.0142057
0.0151698
0.0129972
0.00935646
0.00726335
0.00623272
0.00947533
0.0114556
0.0134967
0.0143664
0.0140117
0.013549
0.0127612
0.00977665
0.00741776
0.00623404
0.0106853
0.013067
0.0144176
0.0141266
0.0134084
0.0128107
0.0119325
0.00983362
0.00758307
0.00628018
0.0122145
0.014285
0.0147235
0.0139005
0.01285
0.0120668
0.0114539
0.00999192
0.00778746
0.00636475
0.0134388
0.0149031
0.0148256
0.0138394
0.0127635
0.0119403
0.0112802
0.0100434
0.00799239
0.00648048
0.0146459
0.0158734
0.0151498
0.0136512
0.012452
0.0116666
0.0110924
0.0101179
0.00824228
0.00663819
0.0162029
0.0163288
0.014326
0.0127283
0.0118697
0.0113864
0.0110128
0.0102628
0.00853783
0.00683724
0.0159975
0.0141551
0.0123919
0.0115924
0.011328
0.0112238
0.0110946
0.0105474
0.00891432
0.00708689
0.0129993
0.0117037
0.0111003
0.011075
0.0112835
0.0114748
0.0115412
0.0110929
0.00940041
0.00739094
0.0105975
0.0108422
0.0112571
0.0117972
0.0122814
0.0125781
0.0126221
0.011954
0.00997672
0.00774199
0.0262371
0.0631615
0.0271539
0.030156
0.0286319
0.029609
0.0336862
0.030013
0.0236478
0.0165641
0.0255909
0.0581173
0.0256049
0.0296007
0.0286714
0.0290144
0.0304975
0.0257503
0.0238293
0.0148443
0.0248204
0.052438
0.025521
0.031143
0.0296725
0.0293518
0.0295531
0.0256265
0.02396
0.0146425
0.0241724
0.0474941
0.0263071
0.0342511
0.0312718
0.0298492
0.0288661
0.0256404
0.0225181
0.014674
0.0236038
0.0437528
0.0272556
0.0380394
0.033041
0.0302327
0.0279167
0.0252674
0.0205688
0.014587
0.0230617
0.041253
0.0280922
0.042227
0.0352041
0.0309429
0.0271359
0.0247801
0.0187474
0.0143857
0.0225486
0.0393832
0.0287102
0.0468136
0.0382798
0.0324274
0.0268987
0.0244341
0.0174492
0.0140738
0.0220757
0.0377504
0.0290497
0.0510658
0.0426289
0.0348772
0.0272837
0.0242042
0.0166531
0.013757
0.0216523
0.0363112
0.0291318
0.0533584
0.048099
0.0384589
0.0282234
0.0241225
0.0162162
0.013522
0.0212799
0.035068
0.0290134
0.052601
0.0535418
0.0435876
0.0297349
0.024202
0.0160308
0.0133605
0.0073795
0.00763253
0.0093827
0.00918504
0.00974461
0.00991832
0.0101989
0.0100343
0.00999083
0.00860612
0.0143207
0.0107706
0.0102672
0.0107361
0.0109203
0.011317
0.0117925
0.011943
0.0123904
0.0113067
0.0239076
0.0168835
0.0128641
0.0134934
0.0134513
0.0141708
0.0151245
0.0167833
0.0173476
0.0164029
0.0266759
0.0318906
0.0190743
0.0197245
0.0189666
0.0205013
0.0231655
0.0345378
0.0322084
0.0155962
0.0270583
0.0554402
0.0267298
0.0278676
0.0257632
0.0274273
0.032647
0.0440393
0.0315975
0.0155031
0.00821681
0.00783955
0.00745283
0.00710367
0.00681711
0.00660682
0.00647421
0.00640983
0.00640466
0.00646086
0.010466
0.00970484
0.00898084
0.00835973
0.0078266
0.00738637
0.00706352
0.00686151
0.0067682
0.00677393
0.0134967
0.0120619
0.0108462
0.00991968
0.0091491
0.00844553
0.00784755
0.00742846
0.00719322
0.00711654
0.0149694
0.0138894
0.0128636
0.0118093
0.0108322
0.00987041
0.00890384
0.00815732
0.00771026
0.00751331
0.0152228
0.0164402
0.015604
0.0140632
0.0126354
0.0114869
0.0102818
0.00915496
0.00839117
0.00799785
)
;

boundaryField
{
    left
    {
        type            calculated;
        value           nonuniform List<scalar> 
35
(
0.0162962
0.01544
0.0143627
0.0136833
0.0134226
0.0134624
0.0137917
0.014369
0.0143624
0.00804437
0.0156864
0.0156389
0.0155933
0.0155457
0.0155061
0.0155136
0.0155703
0.0157186
0.0159723
0.0163719
0.0166595
0.016505
0.0163631
0.0162605
0.0161695
0.016074
0.0159763
0.015885
0.0158058
0.0157406
0.00732349
0.0125429
0.0159772
0.016608
0.0167864
)
;
    }
    right
    {
        type            calculated;
        value           nonuniform List<scalar> 
35
(
0.0102881
0.0113416
0.0140451
0.0206334
0.0367592
0.0648918
0.0844154
0.0878638
0.0826468
0.0749981
0.0695252
0.0679083
0.0697871
0.0743896
0.0814925
0.0911807
0.100932
0.100779
0.0815358
0.0545162
0.0345008
0.0231714
0.0173697
0.0147868
0.0138046
0.0142119
0.016057
0.0204542
0.0372856
0.119153
0.030828
0.0161172
0.0114823
0.0095564
0.00872394
)
;
    }
    down
    {
        type            calculated;
        value           nonuniform List<scalar> 
40
(
0.00648189
0.00691084
0.00923043
0.00865157
0.00937045
0.00944817
0.0096688
0.00944132
0.00922065
0.00789024
0.00757098
0.00728041
0.00697058
0.00669406
0.00647878
0.00633485
0.0062569
0.0062325
0.0062525
0.00632248
0.00644726
0.00661586
0.00683901
0.00711378
0.00742972
0.00773593
0.00796809
0.00808637
0.00819261
0.00819271
0.00921413
0.0117632
0.0125397
0.0130579
0.0120435
0.0112786
0.0107411
0.0103177
0.010103
0.0100266
)
;
    }
    up
    {
        type            calculated;
        value           nonuniform List<scalar> 
40
(
0.00719587
0.00797259
0.0086211
0.00907228
0.00904867
0.00885078
0.00867979
0.00856667
0.00849123
0.00848883
0.00609807
0.00611062
0.0061351
0.00617609
0.00623346
0.00629798
0.00639411
0.00646246
0.00661801
0.00663856
0.00645632
0.00636577
0.00628144
0.00622169
0.00618621
0.00616022
0.00613601
0.00611655
0.006103
0.00609737
0.0069222
0.00703795
0.00848589
0.00802808
0.00797408
0.00774784
0.00753999
0.00717596
0.00711465
0.00657794
)
;
    }
    cylinder
    {
        type            calculated;
        value           nonuniform List<scalar> 
80
(
0.00719213
0.00700396
0.00686656
0.00677252
0.00671551
0.0067196
0.00680779
0.0069927
0.00731256
0.00781664
0.00860563
0.0101043
0.014243
0.0241563
0.0138807
0.00980216
0.00821873
0.00735446
0.006812
0.00644984
0.00580519
0.00578544
0.00578196
0.00578948
0.00580304
0.00582426
0.00586173
0.00592781
0.0060363
0.00620297
0.00737027
0.0069684
0.0066759
0.00646
0.00628476
0.00615604
0.00604508
0.00596034
0.00589612
0.00584262
0.0074179
0.00784483
0.00850486
0.00958198
0.0120148
0.0191753
0.0175585
0.0110318
0.0089575
0.00796763
0.00594871
0.00591891
0.00593693
0.00599323
0.00608035
0.00620499
0.0063661
0.00656943
0.00681697
0.00710355
0.00602553
0.00615979
0.00637028
0.00668037
0.00711995
0.0077279
0.00851544
0.00938117
0.010021
0.010232
0.0101237
0.00993107
0.00976609
0.0095895
0.0094056
0.00903931
0.00853525
0.00809621
0.00773556
0.00743528
)
;
    }
    defaultFaces
    {
        type            empty;
    }
}


// ************************************************************************* //
