/*--------------------------------*- C++ -*----------------------------------*\
| =========                 |                                                 |
| \\      /  F ield         | OpenFOAM: The Open Source CFD Toolbox           |
|  \\    /   O peration     | Version:  2406                                  |
|   \\  /    A nd           | Website:  www.openfoam.com                      |
|    \\/     M anipulation  |                                                 |
\*---------------------------------------------------------------------------*/
FoamFile
{
    version     2.0;
    format      ascii;
    arch        "LSB;label=32;scalar=64";
    class       volScalarField;
    location    "0.5";
    object      p;
}
// * * * * * * * * * * * * * * * * * * * * * * * * * * * * * * * * * * * * * //

dimensions      [0 2 -2 0 0 0 0];

internalField   nonuniform List<scalar> 
1800
(
-1.86843
-1.85468
-1.85532
-1.86212
-1.87439
-1.894
-1.9231
-1.963
-2.01464
-2.08018
-1.8859
-1.8727
-1.87191
-1.87553
-1.88352
-1.8982
-1.92075
-1.95144
-1.99019
-2.03928
-1.90138
-1.89159
-1.88815
-1.88786
-1.89163
-1.90124
-1.91755
-1.9405
-1.96944
-2.00751
-1.92031
-1.91081
-1.90498
-1.90114
-1.90029
-1.90383
-1.91249
-1.92615
-1.94425
-1.9704
-1.94722
-1.9325
-1.92528
-1.91902
-1.91399
-1.91182
-1.91345
-1.91883
-1.92766
-1.94338
-1.97585
-1.95916
-1.9501
-1.94064
-1.93103
-1.92318
-1.9182
-1.91618
-1.91709
-1.92343
-2.0059
-1.9879
-1.97602
-1.96237
-1.94758
-1.93393
-1.92259
-1.91367
-1.90697
-1.90301
-2.03252
-2.01308
-1.99734
-1.97843
-1.95776
-1.93799
-1.92021
-1.90424
-1.88942
-1.87501
-2.04933
-2.02827
-2.00781
-1.98297
-1.95623
-1.93034
-1.90594
-1.88236
-1.85853
-1.8329
-2.04958
-2.02688
-2.00144
-1.97083
-1.93855
-1.90692
-1.87597
-1.84467
-1.81166
-1.77522
-0.989365
-0.993803
-0.992158
-0.986218
-0.977311
-0.966695
-0.954831
-0.941845
-0.927586
-0.911622
-1.09364
-1.0972
-1.0954
-1.08997
-1.08214
-1.0731
-1.06318
-1.05238
-1.04041
-1.02666
-1.20624
-1.2087
-1.20658
-1.20206
-1.19605
-1.1893
-1.18214
-1.17449
-1.16592
-1.15558
-1.32363
-1.32473
-1.3218
-1.31836
-1.31531
-1.31182
-1.30839
-1.30492
-1.30088
-1.29511
-1.44221
-1.44134
-1.43895
-1.43682
-1.43629
-1.43664
-1.43789
-1.43978
-1.44167
-1.44193
-1.55738
-1.55336
-1.55209
-1.5521
-1.55421
-1.55918
-1.56577
-1.57387
-1.58284
-1.59015
-1.65926
-1.65251
-1.65274
-1.65631
-1.66234
-1.67178
-1.68408
-1.69914
-1.71619
-1.73134
-1.74176
-1.73264
-1.73345
-1.74012
-1.75108
-1.76588
-1.78424
-1.80641
-1.83175
-1.85484
-1.8028
-1.7915
-1.79258
-1.80101
-1.81491
-1.83379
-1.85751
-1.88618
-1.91903
-1.94896
-1.84304
-1.82999
-1.8308
-1.83881
-1.85236
-1.87184
-1.89766
-1.92978
-1.96682
-2.00224
-0.813601
-0.482667
-0.322027
-0.183678
-0.105064
-0.0545448
-0.0251181
-0.00891242
0.000184945
0.000974678
-0.919701
-0.532786
-0.340694
-0.183234
-0.0980041
-0.046383
-0.0180446
-0.00371269
0.00350349
0.00191258
-1.04405
-0.594696
-0.363247
-0.183341
-0.090288
-0.0373307
-0.0101787
0.00212724
0.00728501
0.00300283
-1.18393
-0.670355
-0.389207
-0.183407
-0.0813607
-0.0269691
-0.00123095
0.00881428
0.0116778
0.00438823
-1.33996
-0.756605
-0.418658
-0.183208
-0.0709024
-0.0150937
0.00891411
0.0164048
0.0167333
0.00620213
-1.5047
-0.857817
-0.453738
-0.18423
-0.0598069
-0.0023427
0.0198073
0.0245828
0.0222685
0.00843415
-1.67218
-0.974183
-0.49847
-0.190112
-0.0505566
0.00958343
0.0303194
0.0326052
0.027818
0.0108954
-1.8333
-1.1019
-0.55678
-0.205502
-0.0467854
0.0181894
0.0388045
0.0393926
0.0326686
0.0132414
-1.97226
-1.22931
-0.626675
-0.232242
-0.0511806
0.0210224
0.0433473
0.0435921
0.0358803
0.0150116
-2.03832
-1.34648
-0.700809
-0.267225
-0.0628645
0.0179874
0.0433541
0.0444744
0.0367711
0.0157864
-2.20359
-1.4336
-0.744422
-0.289199
-0.0739405
0.0107896
0.0387271
0.0415248
0.0348247
0.0153019
-2.27052
-1.43858
-0.745775
-0.304745
-0.0989861
-0.014247
0.019367
0.0284278
0.0262333
0.0118515
-2.17088
-1.38249
-0.727664
-0.317331
-0.123064
-0.0397683
-0.00132018
0.0141629
0.0169208
0.00800993
-1.91692
-1.27248
-0.715392
-0.352027
-0.162722
-0.0725135
-0.0248706
-0.000616242
0.00849466
0.00532601
-1.67585
-1.17963
-0.711924
-0.391639
-0.206276
-0.107005
-0.0491435
-0.0159346
0.000625668
0.00325278
-1.46638
-1.08728
-0.708356
-0.43553
-0.254453
-0.143351
-0.0742525
-0.0328712
-0.00992967
-0.00206287
-1.29387
-1.02323
-0.723958
-0.487794
-0.306822
-0.180804
-0.0991004
-0.0491572
-0.0194961
-0.00555706
-1.16668
-0.984162
-0.745328
-0.532494
-0.349123
-0.209896
-0.116699
-0.0596563
-0.0247149
-0.00673197
-1.08481
-0.968243
-0.761279
-0.557685
-0.371651
-0.223592
-0.126253
-0.0654307
-0.0277636
-0.00742543
-1.05254
-0.983499
-0.781372
-0.57046
-0.38065
-0.230826
-0.131093
-0.0684481
-0.0296871
-0.00838482
-1.69437
-1.77031
-1.82982
-1.87693
-1.9137
-1.95444
-2.00497
-2.07468
-2.14695
-2.24769
-1.55234
-1.64428
-1.72278
-1.79694
-1.86181
-1.93656
-2.01875
-2.11305
-2.19342
-2.29985
-1.41444
-1.50953
-1.59507
-1.67768
-1.75394
-1.83443
-1.91853
-2.01657
-2.1027
-2.20548
-1.27601
-1.36582
-1.45141
-1.531
-1.60338
-1.67722
-1.74408
-1.81918
-1.88478
-1.96366
-1.14335
-1.22523
-1.3042
-1.37667
-1.44368
-1.50634
-1.56068
-1.61649
-1.66332
-1.71566
-1.02331
-1.09559
-1.1636
-1.22727
-1.28705
-1.34085
-1.38963
-1.43315
-1.47051
-1.50331
-0.917808
-0.978035
-1.03395
-1.09007
-1.14184
-1.19023
-1.23466
-1.26909
-1.2996
-1.32093
-0.830338
-0.877944
-0.925216
-0.972393
-1.01614
-1.06231
-1.09975
-1.13182
-1.15999
-1.17537
-0.7773
-0.818552
-0.861165
-0.900198
-0.93752
-0.977722
-1.00888
-1.0381
-1.06139
-1.0722
-0.754936
-0.798512
-0.839963
-0.880438
-0.923199
-0.961712
-0.997475
-1.02437
-1.04259
-1.04632
-0.242127
-0.305235
-0.366328
-0.421519
-0.472854
-0.52232
-0.569777
-0.613406
-0.650454
-0.67427
-0.448603
-0.513441
-0.573395
-0.628612
-0.681318
-0.732061
-0.780211
-0.824858
-0.863813
-0.891553
-0.683486
-0.746109
-0.801599
-0.85308
-0.90321
-0.951786
-0.997672
-1.04075
-1.08
-1.10853
-0.90152
-0.964441
-1.01966
-1.06965
-1.11728
-1.16332
-1.20694
-1.2479
-1.28814
-1.31381
-1.08482
-1.15156
-1.21007
-1.26144
-1.3085
-1.35339
-1.39629
-1.43686
-1.47388
-1.49909
-1.24263
-1.31167
-1.37205
-1.42444
-1.47156
-1.51604
-1.55861
-1.5995
-1.63535
-1.66021
-1.38298
-1.44975
-1.50848
-1.55996
-1.60661
-1.65082
-1.69343
-1.73396
-1.76942
-1.79441
-1.50711
-1.56828
-1.62276
-1.67138
-1.71623
-1.75918
-1.80092
-1.84094
-1.87552
-1.90073
-1.61177
-1.66645
-1.71553
-1.75997
-1.80165
-1.84213
-1.88205
-1.92053
-1.95331
-1.97834
-1.70165
-1.7479
-1.78948
-1.8279
-1.86477
-1.90137
-1.93813
-1.97349
-2.00319
-2.02733
0.915482
0.906059
0.897466
0.889452
0.88194
0.874967
0.868677
0.863766
0.862596
0.87189
0.854952
0.843054
0.832081
0.821725
0.811872
0.802528
0.79387
0.786838
0.783944
0.791534
0.779768
0.765251
0.751595
0.738518
0.725906
0.713724
0.702188
0.692477
0.687242
0.692556
0.688703
0.670792
0.653915
0.637715
0.622018
0.606707
0.591991
0.579272
0.571352
0.574157
0.586008
0.565375
0.545158
0.525299
0.505814
0.486578
0.467846
0.451222
0.439719
0.439326
0.464741
0.439336
0.414856
0.391241
0.368229
0.345458
0.32315
0.303087
0.288224
0.284523
0.335912
0.308459
0.280863
0.253031
0.225241
0.197391
0.169806
0.144544
0.125069
0.118012
0.193732
0.160237
0.126412
0.0935459
0.0615542
0.0297402
-0.00164134
-0.0306636
-0.0544744
-0.0654566
0.0399613
0.00534917
-0.0311801
-0.0688514
-0.106585
-0.144436
-0.181816
-0.216271
-0.244832
-0.25968
-0.109346
-0.153549
-0.199581
-0.244093
-0.287195
-0.33009
-0.372344
-0.411412
-0.444212
-0.463221
1.24143
1.10756
1.16939
1.10044
1.08112
1.0601
1.03852
1.01673
1.01379
0.969052
1.23961
1.10561
1.16688
1.09639
1.07749
1.05495
1.03244
1.00504
0.996844
0.931674
1.23891
1.10368
1.16443
1.0915
1.07316
1.0496
1.02567
0.990986
0.975705
0.884232
1.23937
1.10178
1.16192
1.08568
1.06841
1.0441
1.01822
0.974834
0.950858
0.827061
1.24099
1.09988
1.15915
1.07905
1.06387
1.03842
1.01008
0.957007
0.922013
0.758987
1.2438
1.09789
1.15579
1.07261
1.05987
1.03212
1.00137
0.93782
0.890784
0.681611
1.24783
1.09564
1.15149
1.06741
1.05512
1.0245
0.992504
0.918231
0.855564
0.590576
1.25316
1.09288
1.14687
1.06218
1.04714
1.01606
0.98374
0.898012
0.817757
0.489038
1.25974
1.08976
1.14282
1.05437
1.03756
1.00793
0.974851
0.87659
0.776396
0.372801
1.26724
1.08735
1.13899
1.04543
1.02881
1.0007
0.965808
0.855183
0.72955
0.24211
1.27601
1.08744
1.13832
1.04095
1.02006
0.992134
0.955986
0.830405
0.692158
0.143856
1.28705
1.09502
1.14687
1.04322
1.01119
0.979611
0.943945
0.80809
0.674555
0.160032
1.29555
1.10773
1.16144
1.0492
1.00279
0.964004
0.92572
0.780599
0.645572
0.187711
1.30289
1.12153
1.17604
1.05519
0.994324
0.945799
0.90335
0.748752
0.609059
0.211684
1.3104
1.13124
1.18397
1.05746
0.985436
0.927994
0.876793
0.718389
0.57179
0.227404
1.31838
1.13429
1.18154
1.05324
0.977324
0.912808
0.85087
0.694579
0.533247
0.240548
1.32797
1.12921
1.16847
1.04215
0.969958
0.901689
0.830237
0.679872
0.497687
0.260168
1.34223
1.12482
1.14786
1.02742
0.963554
0.894649
0.813969
0.673135
0.46996
0.284497
1.35914
1.12553
1.1309
1.01392
0.959452
0.889637
0.80165
0.669515
0.451347
0.305791
1.39983
1.13593
1.1264
1.01261
0.962157
0.889632
0.80069
0.669841
0.451886
0.328052
-0.235131
-0.422736
-0.640323
-0.836544
-0.99599
-1.13625
-1.26966
-1.39622
-1.50723
-1.60739
-0.254005
-0.405128
-0.566043
-0.719194
-0.855948
-0.985134
-1.11189
-1.23605
-1.35103
-1.45729
-0.237436
-0.379893
-0.513319
-0.640473
-0.763725
-0.885841
-1.00475
-1.1179
-1.21935
-1.31923
-0.199334
-0.337521
-0.455891
-0.560464
-0.665356
-0.775653
-0.885288
-0.989691
-1.08785
-1.18314
-0.148488
-0.275793
-0.383031
-0.473611
-0.564833
-0.665204
-0.76912
-0.869987
-0.965302
-1.05634
-0.0816637
-0.195249
-0.298754
-0.387725
-0.474629
-0.569563
-0.670321
-0.769798
-0.861933
-0.945667
-0.00570153
-0.108979
-0.214461
-0.310145
-0.398126
-0.488004
-0.58397
-0.682676
-0.775804
-0.851111
0.059045
-0.0369642
-0.142818
-0.244385
-0.334299
-0.420687
-0.512993
-0.609607
-0.697171
-0.771221
0.0958006
0.00218018
-0.100596
-0.201365
-0.294067
-0.385971
-0.481934
-0.57681
-0.65965
-0.724452
0.113307
0.0190323
-0.0793354
-0.175804
-0.271698
-0.370559
-0.468838
-0.560551
-0.639299
-0.703674
-0.511094
-0.488816
-0.458402
-0.423534
-0.388296
-0.357418
-0.331131
-0.308371
-0.290537
-0.278221
-0.591356
-0.568817
-0.539314
-0.503856
-0.46853
-0.437969
-0.41192
-0.389817
-0.372846
-0.3617
-0.645898
-0.624295
-0.596998
-0.562803
-0.529035
-0.498688
-0.472562
-0.451301
-0.434928
-0.42415
-0.676106
-0.656391
-0.632903
-0.601948
-0.568859
-0.538142
-0.512063
-0.491655
-0.476224
-0.465889
-0.685636
-0.668518
-0.649124
-0.621954
-0.590611
-0.56023
-0.533867
-0.51313
-0.497952
-0.487807
-0.679069
-0.664977
-0.649087
-0.625428
-0.596403
-0.566984
-0.540464
-0.518743
-0.502673
-0.4921
-0.660457
-0.649354
-0.635961
-0.615039
-0.588253
-0.560114
-0.533933
-0.511615
-0.494376
-0.482956
-0.634389
-0.625753
-0.613841
-0.594965
-0.570518
-0.544376
-0.519648
-0.498168
-0.481161
-0.469961
-0.606652
-0.599688
-0.588457
-0.57108
-0.549055
-0.525544
-0.503169
-0.483531
-0.467883
-0.458528
-0.584256
-0.57826
-0.567459
-0.551464
-0.532123
-0.511948
-0.493033
-0.476795
-0.464184
-0.457614
-0.571752
-0.56674
-0.55653
-0.542114
-0.525608
-0.50875
-0.492903
-0.479058
-0.466743
-0.453533
-0.57122
-0.56701
-0.557657
-0.545202
-0.531828
-0.51856
-0.50596
-0.49463
-0.48396
-0.47035
-0.581087
-0.577877
-0.569475
-0.558575
-0.547754
-0.537431
-0.527307
-0.517587
-0.507763
-0.494795
-0.598712
-0.597103
-0.590292
-0.579992
-0.57045
-0.561845
-0.552703
-0.543027
-0.532729
-0.519711
-0.622236
-0.622351
-0.617594
-0.608294
-0.599225
-0.591375
-0.581886
-0.571054
-0.559389
-0.545518
-0.650148
-0.651754
-0.650358
-0.64559
-0.635453
-0.624769
-0.613944
-0.602202
-0.589539
-0.57406
-0.691178
-0.694622
-0.694104
-0.689638
-0.679509
-0.667089
-0.65471
-0.641883
-0.62798
-0.612461
-0.746667
-0.751389
-0.75106
-0.746054
-0.736057
-0.723326
-0.709729
-0.695528
-0.680306
-0.663708
-0.814944
-0.820071
-0.819181
-0.81345
-0.80367
-0.791383
-0.7777
-0.763029
-0.747217
-0.730008
-0.895971
-0.900957
-0.899587
-0.893533
-0.884032
-0.8724
-0.859314
-0.845061
-0.829544
-0.812477
-0.454463
-0.373403
-0.312883
-0.242349
-0.1799
-0.124124
-0.080599
-0.048133
-0.0246726
-0.00702186
-0.467492
-0.37045
-0.305195
-0.231175
-0.170825
-0.117322
-0.0758965
-0.0453318
-0.0231956
-0.00672849
-0.478532
-0.369042
-0.299434
-0.223037
-0.162485
-0.110371
-0.0707367
-0.0418699
-0.0210019
-0.00595766
-0.490217
-0.369811
-0.294796
-0.215595
-0.154543
-0.103381
-0.0653496
-0.0380748
-0.0184695
-0.00496189
-0.505712
-0.371901
-0.290794
-0.208216
-0.14675
-0.0963917
-0.0598531
-0.0341191
-0.0158162
-0.00394637
-0.527612
-0.375462
-0.288159
-0.201349
-0.139238
-0.0895298
-0.0543774
-0.0301493
-0.0131952
-0.00301758
-0.558106
-0.381934
-0.28789
-0.195448
-0.132069
-0.0827973
-0.0489314
-0.026205
-0.0106585
-0.00219645
-0.599801
-0.394207
-0.290694
-0.19074
-0.125179
-0.0760793
-0.0434065
-0.02221
-0.00814565
-0.00143784
-0.655066
-0.414262
-0.297127
-0.187282
-0.118468
-0.0692289
-0.0376718
-0.0180562
-0.00555581
-0.000680024
-0.725651
-0.443439
-0.307512
-0.184978
-0.111815
-0.0621001
-0.0316135
-0.0136531
-0.00280375
0.00011786
-0.424274
-0.373114
-0.321252
-0.24856
-0.183027
-0.125877
-0.0816339
-0.0472592
-0.0231817
-0.00662819
-0.416505
-0.36768
-0.31971
-0.248932
-0.183871
-0.126766
-0.0823312
-0.0478151
-0.0233079
-0.00651497
-0.415745
-0.364724
-0.316703
-0.248522
-0.18364
-0.126844
-0.0823494
-0.0478727
-0.0233481
-0.00633439
-0.418963
-0.362645
-0.311139
-0.247821
-0.184689
-0.127757
-0.0830014
-0.04862
-0.0240458
-0.00642325
-0.432478
-0.366284
-0.309361
-0.245137
-0.184716
-0.127934
-0.0832184
-0.0493564
-0.0249693
-0.00682411
-0.270005
-0.349183
-0.409681
-0.452272
-0.478231
-0.489001
-0.487462
-0.476397
-0.460247
-0.44003
-0.267866
-0.347811
-0.408139
-0.450082
-0.475591
-0.486508
-0.485001
-0.473512
-0.458153
-0.436748
-0.268164
-0.349066
-0.409689
-0.451436
-0.476162
-0.485703
-0.481944
-0.469458
-0.453407
-0.438605
-0.269875
-0.352084
-0.413297
-0.454872
-0.478315
-0.485354
-0.478226
-0.464092
-0.448035
-0.442738
-0.273041
-0.356703
-0.418646
-0.460026
-0.481975
-0.486252
-0.476222
-0.461092
-0.447777
-0.451767
0.810918
0.80603
0.799303
0.793015
0.787647
0.782841
0.778641
0.775671
0.775494
0.783019
0.868182
0.866449
0.86215
0.857251
0.852732
0.84866
0.845157
0.842758
0.843217
0.85189
0.913175
0.91157
0.90848
0.905233
0.902443
0.900098
0.898208
0.89706
0.898343
0.90799
0.952948
0.952015
0.949966
0.947788
0.945957
0.944477
0.943287
0.94242
0.94354
0.953501
0.983199
0.982124
0.980476
0.9789
0.977732
0.976981
0.976497
0.976004
0.97686
0.986106
1.00351
1.00202
1.00042
0.999087
0.998266
0.998011
0.998204
0.998364
0.999019
1.00505
1.01233
1.00995
1.00777
1.00597
1.0047
1.00404
1.00389
1.00387
1.00472
1.01206
1.00867
1.00497
1.00166
0.998766
0.996354
0.994467
0.993021
0.99184
0.99251
1.00319
0.991811
0.986463
0.981677
0.977363
0.973521
0.970204
0.967417
0.965293
0.96582
0.976936
0.960958
0.953698
0.947148
0.94113
0.935603
0.930621
0.926274
0.92299
0.922975
0.93349
-0.175314
-0.189889
-0.209418
-0.232655
-0.258827
-0.288406
-0.321459
-0.357103
-0.386316
-0.406661
-0.0575905
-0.0751511
-0.0961571
-0.119477
-0.145096
-0.173634
-0.204608
-0.236044
-0.263994
-0.281263
0.0664301
0.0458327
0.0237437
0.00107699
-0.0228065
-0.0490023
-0.0773722
-0.105969
-0.131385
-0.143587
0.191726
0.169037
0.14645
0.12441
0.102014
0.078169
0.0528703
0.027912
0.0066672
-0.00151283
0.309344
0.286325
0.264585
0.244259
0.224276
0.203674
0.182375
0.161745
0.144928
0.140757
0.414814
0.3937
0.374636
0.357272
0.340379
0.323188
0.305687
0.289146
0.276586
0.276209
0.509349
0.492409
0.477356
0.463242
0.449219
0.435071
0.420989
0.408166
0.399396
0.402145
0.597054
0.584281
0.572393
0.560648
0.548899
0.537259
0.525985
0.516261
0.510676
0.515807
0.683079
0.671832
0.660803
0.65016
0.639896
0.630001
0.620792
0.613483
0.610307
0.616798
0.765596
0.754364
0.742118
0.731114
0.721454
0.712821
0.705392
0.700064
0.698491
0.705431
1.31902
1.13469
1.18599
1.09887
1.0914
1.07015
1.0378
1.01113
0.969518
0.893063
1.30609
1.13059
1.18718
1.1026
1.09265
1.07332
1.04307
1.0183
0.986325
0.925546
1.29431
1.12682
1.18728
1.10533
1.0933
1.07553
1.04759
1.02592
1.00449
0.9574
1.28376
1.12358
1.1865
1.10738
1.0935
1.07693
1.05116
1.03209
1.01891
0.984282
1.27444
1.12071
1.1849
1.10859
1.09308
1.07728
1.0533
1.03619
1.0293
1.00474
1.26627
1.11814
1.18274
1.10898
1.092
1.07659
1.05396
1.03834
1.03602
1.01857
1.25921
1.1158
1.18024
1.10869
1.09044
1.07496
1.05327
1.0386
1.03926
1.02519
1.25322
1.11363
1.17755
1.10776
1.08858
1.07244
1.0513
1.03678
1.03893
1.02415
1.24825
1.11155
1.17479
1.10611
1.08649
1.06905
1.04812
1.03261
1.03475
1.01483
1.24432
1.10953
1.17204
1.10368
1.08406
1.06487
1.04381
1.02593
1.02641
0.996642
1.43141
1.14553
1.16457
1.0788
1.0801
1.05334
1.01589
0.982572
0.922202
0.838233
1.39607
1.14745
1.16954
1.08037
1.08197
1.05554
1.01722
0.983216
0.920951
0.831619
1.37407
1.14516
1.17367
1.08349
1.08343
1.05796
1.01979
0.986774
0.924897
0.833309
1.35251
1.1424
1.17879
1.08889
1.08629
1.06226
1.02583
0.994545
0.932273
0.840395
1.33402
1.13895
1.18298
1.09402
1.08915
1.06628
1.03157
1.00032
0.945179
0.84891
0.706247
0.652557
0.588818
0.511567
0.417568
0.306991
0.185213
0.0602444
-0.0601732
-0.172521
0.699198
0.645131
0.582114
0.50736
0.417468
0.310761
0.191003
0.0658933
-0.0557251
-0.169484
0.705915
0.650305
0.585182
0.509912
0.420926
0.31561
0.196531
0.0708115
-0.0522507
-0.16787
0.722211
0.659173
0.589168
0.512236
0.42342
0.319218
0.200796
0.0744875
-0.0500722
-0.167687
0.753422
0.676265
0.596492
0.514651
0.424117
0.320366
0.202857
0.0764288
-0.0494264
-0.168997
)
;

boundaryField
{
    left
    {
        type            zeroGradient;
    }
    right
    {
        type            fixedValue;
        value           uniform 0;
    }
    down
    {
        type            zeroGradient;
    }
    up
    {
        type            zeroGradient;
    }
    cylinder
    {
        type            zeroGradient;
    }
    defaultFaces
    {
        type            empty;
    }
}


// ************************************************************************* //
