/*--------------------------------*- C++ -*----------------------------------*\
| =========                 |                                                 |
| \\      /  F ield         | OpenFOAM: The Open Source CFD Toolbox           |
|  \\    /   O peration     | Version:  2406                                  |
|   \\  /    A nd           | Website:  www.openfoam.com                      |
|    \\/     M anipulation  |                                                 |
\*---------------------------------------------------------------------------*/
FoamFile
{
    version     2.0;
    format      ascii;
    arch        "LSB;label=32;scalar=64";
    class       surfaceScalarField;
    location    "0.5";
    object      phi;
}
// * * * * * * * * * * * * * * * * * * * * * * * * * * * * * * * * * * * * * //

dimensions      [0 3 -1 0 0 0 0];

oriented        oriented;

internalField   nonuniform List<scalar> 
3485
(
0.00304303
0.005918
-0.00896104
0.00867069
0.00993506
-0.0155627
0.0164047
0.00904603
-0.01678
0.0266519
0.00444143
-0.0146887
0.0392417
-0.00166088
-0.0109289
0.0538298
-0.00761958
-0.00696856
0.0701581
-0.0128885
-0.00343985
0.0879724
-0.0176016
-0.000212663
0.107388
-0.0220994
0.00268423
-0.0245831
0.00550986
0.126461
0.00286136
0.00305664
0.00842238
0.00437404
0.0169241
0.000544302
0.0283868
-0.00702131
0.0420667
-0.0153407
0.0572531
-0.022806
0.0735042
-0.0291396
0.0905705
-0.0346679
0.108398
-0.0399268
-0.0434187
0.127233
0.00232104
0.0007356
0.00822637
-0.00153129
0.01813
-0.00935938
0.031133
-0.0200242
0.0460879
-0.0302957
0.062279
-0.0389971
0.0793171
-0.0461776
0.0970086
-0.0523594
0.115295
-0.0582137
-0.0624577
0.134334
0.00179418
-0.00105858
0.00863266
-0.00836977
0.020025
-0.0207518
0.0341841
-0.0341833
0.0498668
-0.0459783
0.0664184
-0.0555488
0.0835354
-0.0632946
0.101123
-0.0699471
0.119204
-0.0762943
-0.0811788
0.137925
0.00244171
-0.00350029
0.0106806
-0.0166086
0.0231611
-0.0332323
0.0379268
-0.0489489
0.0537374
-0.061789
0.0699965
-0.0718078
0.0865119
-0.0798101
0.103341
-0.0867765
0.120683
-0.0936362
-0.0998432
0.139347
0.00336174
-0.00686203
0.0128755
-0.0261224
0.0261132
-0.04647
0.0409259
-0.0637617
0.0561165
-0.0769795
0.071236
-0.0869273
0.0863045
-0.0948786
0.101629
-0.102101
0.117724
-0.10973
-0.118074
0.135955
0.00418057
-0.0110426
0.0146534
-0.0365952
0.0281492
-0.0599658
0.0423222
-0.0779347
0.056144
-0.0908013
0.0694747
-0.100258
0.082659
-0.108063
0.0963157
-0.115758
0.111245
-0.124659
-0.135524
0.128694
0.0049096
-0.0159522
0.0158435
-0.0475292
0.0287537
-0.0728759
0.04136
-0.090541
0.0530515
-0.102493
0.0641184
-0.111325
0.0752378
-0.119182
0.0872499
-0.12777
0.100935
-0.138344
-0.151289
0.1167
0.00544117
-0.0213934
0.0160927
-0.0581807
0.0274483
-0.0842315
0.0376899
-0.100783
0.0467947
-0.111597
0.0554499
-0.11998
0.064536
-0.128268
0.0749027
-0.138137
0.0869485
-0.15039
-0.164456
0.100116
0.00561375
-0.0270071
0.015113
-0.0676799
0.0240962
-0.0932147
0.031505
-0.108192
0.0378706
-0.117963
0.0440963
-0.126206
0.0510808
-0.135253
0.0594727
-0.146529
0.0691553
-0.160073
0.079032
-0.174333
-0.00183554
0.0158164
-0.0139809
-0.00459446
0.0256704
-0.0229114
-0.0074678
0.0284507
-0.0255773
-0.0102797
0.0290906
-0.0262787
-0.0129308
0.0286882
-0.0260371
-0.0153505
0.0275669
-0.0251471
-0.0175061
0.025853
-0.0236974
-0.0193522
0.0235186
-0.0216725
-0.020782
0.020431
-0.0190012
0.0164519
-0.0216231
-0.0156108
-0.00165884
0.0174752
-0.00417933
0.0281908
-0.00675759
0.0310289
-0.00929589
0.0316289
-0.0117308
0.0311232
-0.0139873
0.0298233
-0.0160227
0.0278885
-0.0177925
0.0252884
-0.019199
0.0218375
0.0173231
-0.0200701
-0.00134743
0.0188227
-0.00343429
0.0302777
-0.00543856
0.0330332
-0.00743987
0.0336302
-0.00943148
0.0331148
-0.0112992
0.031691
-0.0129903
0.0295795
-0.0144712
0.0267693
-0.0156604
0.0230267
0.0180558
-0.0163932
-0.000958091
0.0197808
-0.00240981
0.0317294
-0.00353767
0.0341611
-0.00468824
0.0347808
-0.00601262
0.0344392
-0.00729232
0.0329707
-0.00842819
0.0307154
-0.00940362
0.0277448
-0.0101645
0.0237876
0.0184535
-0.0105622
-0.00040535
0.0201861
-0.000921264
0.0322453
-0.00115219
0.034392
-0.00137075
0.0349993
-0.00175522
0.0348236
-0.00216249
0.033378
-0.00247158
0.0310245
-0.00268058
0.0279537
-0.00275605
0.0238631
0.0181898
-0.00249235
0.000689132
0.019497
0.00137414
0.0315603
0.00175678
0.0340093
0.00218796
0.0345681
0.00286977
0.0341418
0.00371014
0.0325376
0.00461364
0.030121
0.00551695
0.0270504
0.00642488
0.0229552
0.0170365
0.00757824
0.00172353
0.0177735
0.00379379
0.0294901
0.00535578
0.0324473
0.00701966
0.0329043
0.00912575
0.0320357
0.0114812
0.0301822
0.0138923
0.0277098
0.0162703
0.0246724
0.0185798
0.0206456
0.0144996
0.0211167
0.00255828
0.0152152
0.00614877
0.0258996
0.00961486
0.0289813
0.0133331
0.029186
0.0175083
0.0278606
0.0219457
0.0257448
0.0264253
0.0232303
0.0308306
0.020267
0.0351075
0.0163688
0.0100775
0.0395296
0.00310729
0.0121079
0.00797978
0.0210271
0.013415
0.023546
0.0195866
0.0230144
0.0265939
0.0208533
0.0341837
0.018155
0.0419735
0.0154405
0.0495848
0.0126557
0.0566629
0.00929069
0.0037946
0.0629458
0.00314685
0.00861122
0.0153772
0.023703
0.0336274
0.0448138
0.0568145
0.0692575
0.0812324
0.0905369
0.00776359
-0.0669763
0.0375895
0.0628171
-0.256506
0.201452
0.10076
-0.245802
0.207859
0.127294
-0.216968
0.190435
0.143543
-0.17647
0.16022
0.152929
-0.137508
0.128122
0.15771
-0.103211
0.0984297
0.159548
-0.0733364
0.0714982
0.159592
-0.0486906
0.048647
-0.0211516
0.022347
0.0041576
-0.091204
0.0551484
-0.307497
0.0953264
-0.28598
0.123908
-0.24555
0.141872
-0.194434
0.152351
-0.147986
0.157839
-0.108699
0.160165
-0.0756621
0.160604
-0.0491295
-0.0201496
0.000991355
-0.108588
0.045839
-0.352344
0.0882
-0.328341
0.118992
-0.276342
0.138935
-0.214376
0.150765
-0.159816
0.157213
-0.115148
0.160249
-0.0786973
0.161315
-0.0501957
-0.0195197
-0.000384401
-0.118766
0.0374945
-0.390223
0.0811604
-0.372007
0.113782
-0.308963
0.13551
-0.236104
0.148699
-0.173006
0.156222
-0.122671
0.160105
-0.0825799
0.161979
-0.0520697
-0.0194236
0.00183674
-0.123095
0.0343282
-0.422715
0.0776896
-0.415368
0.110769
-0.342043
0.133282
-0.258617
0.147302
-0.187025
0.155684
-0.131053
0.160362
-0.0872575
0.163119
-0.054827
-0.0199911
0.0104631
-0.12598
0.0405483
-0.4528
0.0822252
-0.457045
0.113726
-0.373544
0.135166
-0.280056
0.148716
-0.200576
0.157184
-0.139521
0.162257
-0.0923309
0.165768
-0.0583374
-0.0212885
0.026875
-0.131739
0.0576836
-0.483608
0.0971614
-0.496523
0.12598
-0.402363
0.14463
-0.298707
0.156065
-0.21201
0.163349
-0.146806
0.168005
-0.0969868
0.171801
-0.0621334
-0.0232817
0.0498251
-0.142034
0.082064
-0.515847
0.119811
-0.53427
0.146916
-0.429467
0.162939
-0.31473
0.171679
-0.22075
0.176911
-0.152038
0.180366
-0.100442
0.183776
-0.0655438
-0.0258723
0.0746512
-0.153739
0.105637
-0.546833
0.143252
-0.571885
0.171066
-0.457282
0.1866
-0.330264
0.194016
-0.228166
0.197835
-0.155856
0.200266
-0.102873
0.203203
-0.0684808
-0.0291537
0.0991953
-0.162398
0.12209
-0.569728
0.161477
-0.611273
0.192575
-0.488379
0.209679
-0.347368
0.217504
-0.235991
0.221321
-0.159673
0.223866
-0.105417
0.227176
-0.0717912
-0.0335994
0.381239
-0.3377
-0.205936
0.446797
-0.635286
0.47487
-0.639346
0.479832
-0.493341
0.46649
-0.334025
0.447481
-0.216982
0.42978
-0.141972
0.416821
-0.0924588
0.40875
-0.0637195
-0.0308996
0.536026
-0.450455
-0.423271
0.556512
-0.655771
0.549534
-0.632369
0.535564
-0.479371
0.518068
-0.316529
0.499199
-0.198114
0.48198
-0.124752
0.469148
-0.0796275
0.460579
-0.0551508
-0.027448
0.748983
-0.497533
-0.701906
0.715102
-0.62189
0.658406
-0.575672
0.608877
-0.429842
0.571423
-0.279076
0.543586
-0.170276
0.523046
-0.104212
0.508674
-0.0652562
0.498863
-0.04534
-0.023452
0.843008
-0.466915
-0.873626
0.768789
-0.547671
0.699982
-0.506864
0.642892
-0.372752
0.597493
-0.233677
0.564722
-0.137506
0.542143
-0.0816319
0.526911
-0.0500242
0.516651
-0.0350801
-0.0195171
0.900643
-0.420468
-0.94709
0.823899
-0.470927
0.741345
-0.424311
0.668576
-0.299983
0.611934
-0.177035
0.573077
-0.098649
0.547874
-0.0564285
0.531286
-0.0334361
0.519771
-0.023565
-0.0149272
0.911362
-0.361809
-0.970021
0.830322
-0.389887
0.742301
-0.336289
0.664687
-0.222369
0.605376
-0.117725
0.565668
-0.058941
0.540979
-0.0317391
0.525436
-0.0178936
0.515338
-0.0134665
-0.010544
0.90313
-0.295814
-0.969125
0.810204
-0.296961
0.707731
-0.233816
0.62442
-0.139059
0.568001
-0.0613054
0.533286
-0.024226
0.512638
-0.0110909
0.500167
-0.00542242
0.491845
-0.00514455
-0.0061395
0.835368
-0.208643
-0.922539
0.717176
-0.178769
0.602041
-0.11868
0.522278
-0.0592959
0.47739
-0.0164169
0.453398
-0.000233875
0.439905
0.00240151
0.432068
0.00241532
0.426423
0.00049985
-0.00241737
0.607294
-0.0959864
-0.719951
0.48147
-0.0529453
0.386366
-0.0235763
0.334268
-0.00719834
0.313502
0.00434972
0.306353
0.00691487
0.30334
0.00541406
0.302055
0.00370071
0.300625
0.00192972
-0.000266716
0.173936
-0.269923
0.120991
0.0974146
0.0902163
0.094566
0.101481
0.106895
0.110596
0.112525
0.538126
0.0873632
-0.546458
0.523486
0.114757
0.503798
0.136388
0.473082
0.15941
0.43501
0.174027
0.385905
0.188453
0.334096
0.189734
0.28128
0.187151
0.232674
0.17584
0.153198
0.597413
0.081891
-0.591941
0.600798
0.111372
0.60479
0.132396
0.604052
0.160148
0.599129
0.17895
0.585923
0.201659
0.559854
0.215802
0.526536
0.220469
0.473384
0.228991
0.203311
0.638161
0.0724761
-0.628747
0.650346
0.099187
0.662805
0.119937
0.680288
0.142665
0.695772
0.163466
0.714662
0.182769
0.723594
0.20687
0.730445
0.213619
0.724486
0.23495
0.225891
0.664367
0.0613462
-0.653237
0.679203
0.0843514
0.694897
0.104243
0.716624
0.120937
0.740282
0.139808
0.770011
0.15304
0.80122
0.175661
0.829126
0.185713
0.85859
0.205486
0.210855
0.682812
0.0498875
-0.671354
0.697769
0.069395
0.715207
0.0868053
0.737135
0.0990088
0.762957
0.113986
0.79353
0.122467
0.830299
0.138892
0.8677
0.148312
0.908984
0.164203
0.172748
0.688172
0.0381805
-0.676465
0.70364
0.0539265
0.723449
0.0669962
0.746449
0.0760085
0.774253
0.0861821
0.805381
0.0913397
0.841813
0.102459
0.881309
0.108816
0.924964
0.120547
0.127692
0.674385
0.0259299
-0.662134
0.691384
0.0369274
0.713938
0.0444418
0.739159
0.050788
0.769985
0.0553563
0.802577
0.0587471
0.840109
0.0649279
0.879674
0.0692508
0.923436
0.0767853
0.0820037
0.623541
0.0128393
-0.610451
0.643005
0.0174632
0.666831
0.0206161
0.694841
0.0227777
0.726571
0.023627
0.759608
0.0257094
0.7971
0.0274366
0.835528
0.0308227
0.878361
0.0339525
0.037825
0.50506
0.000707468
-0.492929
0.521237
0.00128671
0.539718
0.00213493
0.560709
0.00178649
0.582208
0.00212841
0.605441
0.00247625
0.630162
0.00271543
0.657449
0.00353531
0.686997
0.0044049
0.00487097
0.244583
-0.243876
0.24587
0.248005
0.249791
0.25192
0.254396
0.257111
0.260647
0.265052
0.0421452
0.121904
-0.108443
-0.0556055
0.0335351
0.11337
-0.10476
0.0274808
0.108363
-0.102309
0.0223564
0.10544
-0.100316
0.0175372
0.103351
-0.0985321
0.0129759
0.10127
-0.0967088
0.00870292
0.0984172
-0.0941442
0.00470804
0.0933017
-0.0893068
0.00147662
0.0806396
-0.0774082
0.0450957
-0.043619
0.0426335
0.136796
-0.057526
0.0305057
0.125498
0.0219651
0.116904
0.0160456
0.11136
0.0116299
0.107767
0.00809557
0.104804
0.00513002
0.101383
0.00255042
0.0958813
0.000629754
0.0825603
0.0457254
0.0452163
0.151533
-0.059953
0.0313186
0.139396
0.0205286
0.127694
0.0131532
0.118735
0.00826421
0.112656
0.00489852
0.10817
0.00247554
0.103806
0.000769471
0.0975874
-0.000173842
0.0835036
0.0455516
0.0446938
0.164004
-0.0571646
0.0320444
0.152045
0.0211775
0.138561
0.0131834
0.126729
0.0077663
0.118073
0.00408126
0.111855
0.00151473
0.106372
-0.00010207
0.0992042
-0.000605548
0.0840071
0.044946
0.039844
0.173604
-0.0494437
0.029971
0.161918
0.0209087
0.147623
0.0136286
0.134009
0.00823902
0.123463
0.00428882
0.115805
0.00138884
0.109272
-0.000459224
0.101052
-0.000907864
0.0844557
0.0440382
0.0294458
0.180281
-0.0361233
0.0228723
0.168491
0.0167191
0.153776
0.0113366
0.139392
0.0068529
0.127946
0.00320439
0.119454
0.000369014
0.112108
-0.00137127
0.102792
-0.00142076
0.0845052
0.0426174
0.013906
0.18398
-0.0176052
0.0108092
0.171588
0.0079361
0.15665
0.00502928
0.142299
0.00214508
0.130831
-0.000483519
0.122082
-0.00251039
0.114134
-0.0033595
0.103642
-0.00230617
0.0834519
0.0403112
-0.00622305
0.184137
0.00606642
-0.00558967
0.170955
-0.00506266
0.156123
-0.00521619
0.142452
-0.00596993
0.131584
-0.00685356
0.122966
-0.00726083
0.114542
-0.00636835
0.102749
-0.00344276
0.0805263
0.0368685
-0.0275154
0.181009
0.0306429
-0.0236387
0.167078
-0.0201768
0.152661
-0.0177747
0.14005
-0.0162585
0.130068
-0.014984
0.121692
-0.01315
0.112708
-0.00979838
0.0993975
-0.00454343
0.0752713
0.032325
-0.0491336
0.0558102
-0.042128
-0.0359964
-0.0311989
-0.0273368
-0.0236082
-0.0190921
-0.0129093
-0.00531793
0.0613745
0.0366741
-0.069717
-0.0283315
0.0533056
0.0361205
-0.0280517
0.0455018
0.0355221
-0.0277184
0.037931
0.0349975
-0.0274267
0.0305487
0.0346001
-0.0272179
0.0233217
0.0342303
-0.0270034
0.0162657
0.0335206
-0.0264646
0.00951297
0.0316729
-0.0249201
0.00353916
0.0270221
-0.0210483
0.0151572
-0.011618
0.0625445
0.0451446
-0.071015
0.0543377
0.0443273
0.0464
0.0434599
0.0386996
0.0426979
0.0311902
0.0421095
0.0238341
0.0415864
0.0166423
0.0407123
0.00974263
0.0385726
0.00361989
0.0331448
0.0187771
0.0631396
0.0536995
-0.0716945
0.0548972
0.0525697
0.0469259
0.0514312
0.0391823
0.0504414
0.0316129
0.0496789
0.0241806
0.0490187
0.0169021
0.0479909
0.00990738
0.0455673
0.0036823
0.0393699
0.0224594
0.0630319
0.062242
-0.0715744
0.0546872
0.0609144
0.0466376
0.0594809
0.0388522
0.0582269
0.0312831
0.057248
0.0238855
0.0564163
0.0166613
0.055215
0.00972798
0.0525006
0.00357753
0.0455204
0.0260369
0.0638012
0.0709886
-0.0725478
0.0554962
0.0692194
0.0474342
0.0675428
0.0395809
0.0660802
0.0318931
0.0649357
0.0243529
0.0639565
0.0169962
0.0625717
0.00995107
0.0595458
0.00368482
0.0517866
0.0297217
0.0587923
0.0790952
-0.0668989
0.0508191
0.0771926
0.043251
0.0751109
0.0359963
0.0733349
0.02896
0.071972
0.0220734
0.0708432
0.0153345
0.0693106
0.0088669
0.0660134
0.00317415
0.0574794
0.0328959
0.0634851
0.0879997
-0.0723896
0.055111
0.0855667
0.0468716
0.0833503
0.0388151
0.0813914
0.0309929
0.0797942
0.0234461
0.07839
0.0162225
0.0765342
0.00941237
0.0728235
0.00342775
0.063464
0.0363236
0.0505801
0.0953688
-0.0579492
0.043584
0.0925629
0.0372184
0.0897158
0.0311896
0.0874202
0.0252538
0.08573
0.019308
0.0843358
0.0133905
0.0824517
0.00766896
0.078545
0.002674
0.0684589
0.0389976
0.0551929
0.103078
-0.0629023
0.0475837
0.100172
0.0399377
0.0973618
0.0325823
0.0947756
0.0256264
0.0926859
0.0190656
0.0908966
0.012924
0.0885933
0.00728943
0.0841796
0.00253876
0.0732096
0.0415364
0.0436932
-0.0490584
0.0391053
0.0341579
0.0286177
0.0227715
0.0169592
0.0114084
0.00628122
0.00208264
0.198317
0.0854486
-0.0857757
0.191671
0.21609
-0.209444
0.185403
0.194192
-0.187924
0.182248
0.15228
-0.149126
0.179805
0.137202
-0.134758
0.176567
0.138956
-0.135718
0.169068
0.153707
-0.146208
0.156103
0.183854
-0.170889
0.123871
0.235442
-0.20321
0.31534
-0.261186
0.197799
0.0856397
0.190104
0.223785
0.183365
0.200931
0.179825
0.15582
0.177427
0.139601
0.174566
0.141816
0.167849
0.160424
0.154992
0.196711
0.123872
0.266563
0.368196
0.197127
0.0865021
0.188046
0.232866
0.180477
0.2085
0.176337
0.15996
0.173821
0.142117
0.171106
0.144532
0.165014
0.166516
0.152024
0.209701
0.12252
0.296067
0.419022
0.196357
0.0881344
0.185512
0.243711
0.176641
0.217372
0.171913
0.164688
0.169321
0.144709
0.166457
0.147395
0.16063
0.172343
0.147335
0.222995
0.119621
0.323781
0.467069
0.19558
0.0905437
0.182527
0.256764
0.171882
0.228017
0.167016
0.169554
0.164417
0.147307
0.160894
0.150918
0.154765
0.178472
0.141015
0.236746
0.117431
0.347365
0.511952
0.194868
0.0936655
0.179257
0.272375
0.166767
0.240506
0.16248
0.173842
0.159521
0.150266
0.154704
0.155736
0.147814
0.185362
0.133384
0.251175
0.109476
0.371273
0.554529
0.194221
0.0974347
0.176343
0.290253
0.162935
0.253914
0.159103
0.177675
0.154803
0.154566
0.14838
0.162158
0.140604
0.193138
0.125028
0.266751
0.109433
0.386869
0.591572
0.193822
0.101603
0.174772
0.309303
0.161443
0.267243
0.156862
0.182255
0.151134
0.160294
0.143424
0.169868
0.133986
0.202577
0.117297
0.28344
0.0992707
0.404895
0.632894
0.193862
0.105731
0.175137
0.328027
0.162882
0.279498
0.15795
0.187187
0.152477
0.165767
0.143645
0.1787
0.132543
0.213679
0.113206
0.302777
0.0966246
0.421476
0.666616
0.194758
0.108962
0.178337
0.344449
0.169416
0.288419
0.16558
0.191023
0.159644
0.171702
0.148342
0.190002
0.132729
0.229292
0.110064
0.325442
0.0946108
0.436929
0.712168
0.316528
0.0944445
0.323972
0.337005
0.331057
0.281333
0.335973
0.186108
0.341568
0.166106
0.34103
0.19054
0.345434
0.224888
0.347767
0.32311
0.36942
0.415276
0.647919
0.43367
0.324625
0.0718301
0.357979
0.303651
0.380239
0.259073
0.390899
0.175448
0.3996
0.157406
0.407973
0.182167
0.412612
0.220249
0.430399
0.305322
0.4447
0.400975
0.588171
0.504448
0.328552
0.0452888
0.38482
0.247383
0.421488
0.222405
0.438771
0.158165
0.451613
0.144564
0.468603
0.165176
0.475182
0.213671
0.510033
0.270471
0.536539
0.374469
0.535849
0.588861
0.328475
0.0188235
0.398907
0.176951
0.446866
0.174446
0.469958
0.135073
0.486343
0.128179
0.509958
0.14156
0.521971
0.201658
0.564268
0.228175
0.612578
0.326159
0.485056
0.663371
0.326174
-0.00534074
0.402249
0.100876
0.458311
0.118384
0.485803
0.107581
0.505496
0.108486
0.532012
0.115044
0.55141
0.18226
0.595158
0.184426
0.657252
0.264066
0.430447
0.711861
0.323901
-0.027231
0.398904
0.0258726
0.458252
0.0590365
0.488259
0.077574
0.511096
0.0856491
0.537084
0.0890567
0.566684
0.152661
0.609091
0.142019
0.670519
0.202638
0.365197
0.735769
0.321965
-0.047186
0.387663
-0.0398254
0.442824
0.00387526
0.472827
0.047571
0.498839
0.0596375
0.524043
0.0638526
0.562954
0.113749
0.602257
0.102716
0.65795
0.146945
0.279343
0.743803
0.317189
-0.0623648
0.359424
-0.0820604
0.39748
-0.0341808
0.422348
0.0227032
0.449215
0.0327701
0.473481
0.0395868
0.518636
0.0685945
0.556757
0.0645951
0.60943
0.0942715
0.175468
0.713306
0.301434
-0.0617884
0.295506
-0.076133
0.297232
-0.0359063
0.312385
0.0075503
0.334316
0.0108389
0.357688
0.0162149
0.40014
0.0261429
0.43735
0.0273847
0.492207
0.0394143
0.0706598
0.597015
0.240222
0.164089
0.128182
0.135733
0.146572
0.162787
0.188929
0.216314
0.255728
0.326388
0.466586
-0.0885221
0.493267
-0.0842067
0.514169
-0.0808547
0.5301
-0.0730955
0.541181
-0.060525
0.548075
-0.0430173
0.552132
-0.0216622
0.55323
0.00496824
0.552079
0.031794
0.0614315
0.525271
-0.109345
0.542113
-0.101049
0.55312
-0.0918617
0.560081
-0.0800557
0.564833
-0.0652771
0.568927
-0.0471121
0.57378
-0.0265148
0.58041
-0.00166142
0.586578
0.0256253
0.0560687
0.593801
-0.114285
0.599912
-0.107161
0.60325
-0.0951995
0.604448
-0.0812542
0.604834
-0.065663
0.605897
-0.0481751
0.608298
-0.0289156
0.612705
-0.0060687
0.61964
0.0186905
0.0469623
0.656671
-0.107585
0.650339
-0.100829
0.644718
-0.0895784
0.63974
-0.0762759
0.635647
-0.0615707
0.633365
-0.0458924
0.633315
-0.0288659
0.636884
-0.00963755
0.643237
0.0123377
0.0369617
0.697383
-0.093107
0.68388
-0.0873258
0.672884
-0.0785823
0.664393
-0.0677859
0.658121
-0.0552978
0.654456
-0.0422275
0.653707
-0.0281173
0.656615
-0.0125454
0.662253
0.00669931
0.0278612
0.719053
-0.0763908
0.702507
-0.0707801
0.689021
-0.0650958
0.678388
-0.0571526
0.670395
-0.0473054
0.665345
-0.0371771
0.663286
-0.0260586
0.664468
-0.0137267
0.668594
0.00257323
0.0199903
0.722322
-0.0549093
0.703231
-0.0516893
0.68677
-0.0486344
0.673269
-0.0436524
0.662868
-0.0369044
0.655895
-0.0302041
0.652059
-0.0222224
0.651733
-0.0134007
0.654464
-0.000157592
0.0123199
0.689706
-0.0313092
0.66854
-0.0305239
0.648945
-0.029039
0.632117
-0.0268245
0.619234
-0.0240218
0.609988
-0.0209574
0.603936
-0.0161704
0.601097
-0.0105623
0.603168
-0.00222855
0.00503757
0.575503
-0.00979707
0.554693
-0.00971337
0.535699
-0.0100448
0.519842
-0.0109675
0.507363
-0.0115429
0.497093
-0.0106882
0.489494
-0.00857146
0.485212
-0.00627961
0.486498
-0.00351428
-0.00139344
0.316591
0.306878
0.296833
0.285865
0.274323
0.263634
0.255063
0.248783
0.245269
0.00350138
0.0332096
-0.036711
0.00640021
0.0757746
-0.0786734
0.00661624
0.0989617
-0.0991778
0.00547761
0.109143
-0.108005
0.0044205
0.112368
-0.111311
0.00260863
0.11348
-0.111668
0.000243466
0.112035
-0.10967
-0.00144038
0.107334
-0.10565
-0.00170361
0.099271
-0.0990078
0.0868824
-0.000487295
-0.0880987
0.00470684
0.0285028
0.0106008
0.0698806
0.0142436
0.0953189
0.0157974
0.10759
0.0165447
0.111621
0.0167819
0.113243
0.0160668
0.11275
0.0149028
0.108498
0.0140308
0.100143
0.0873847
0.0135286
0.00531688
0.0231859
0.0136698
0.0615277
0.0205877
0.0884011
0.0250244
0.103153
0.0275115
0.109134
0.029357
0.111398
0.0304779
0.11163
0.0304442
0.108531
0.0294631
0.101124
0.0892526
0.0275952
0.00526452
0.0179214
0.0150387
0.0517535
0.0246793
0.0787605
0.0320449
0.0957872
0.0369638
0.104215
0.0405815
0.10778
0.0435049
0.108706
0.0451924
0.106844
0.0451453
0.101171
0.0913364
0.0430615
0.0046703
0.0132511
0.0146016
0.0418223
0.0258677
0.0674944
0.0357885
0.0858664
0.0434467
0.0965566
0.0493757
0.101851
0.0542841
0.103798
0.0580848
0.103043
0.060091
0.099165
0.0918485
0.0595788
0.00374449
0.00950658
0.0127147
0.0328521
0.0242563
0.0559528
0.035842
0.0742807
0.0460099
0.0863886
0.0545564
0.0933044
0.0618418
0.0965123
0.0680266
0.0968583
0.0727116
0.09448
0.0893704
0.0751898
0.00263109
0.0068755
0.00983366
0.0256495
0.0203241
0.0454623
0.0322209
0.0623839
0.043943
0.0746665
0.0547361
0.0825114
0.0644632
0.0867851
0.0731435
0.0881781
0.0805852
0.0870383
0.0835581
0.0863975
0.001535
0.0053405
0.00670984
0.0204747
0.0153645
0.0368076
0.0263963
0.0513521
0.0384653
0.0625975
0.0506133
0.0703634
0.0623424
0.075056
0.0733881
0.0771324
0.0834591
0.0769674
0.074769
0.0922481
0.000622629
0.00471787
0.00397541
0.0171219
0.0106282
0.0301548
0.0201002
0.0418801
0.0314188
0.051279
0.0436827
0.0580995
0.0562401
0.0624986
0.0686036
0.0647689
0.0803715
0.0651994
0.0637443
0.0913963
5.90955e-05
0.00465877
0.00214864
0.0150324
0.00717632
0.0251272
0.0150505
0.0340059
0.0251591
0.0411703
0.0368284
0.0464302
0.0495024
0.0498246
0.0627102
0.0515612
0.0759871
0.0519226
0.051282
0.0884493
-0.000224997
0.00488377
0.00108874
0.0137186
0.00483718
0.0213787
0.0110802
0.0277629
0.0194356
0.0328149
0.0294061
0.0364597
0.0404966
0.0387341
0.0521657
0.039892
0.063643
0.0404453
0.0415183
0.0734066
-0.000261369
0.00514514
0.000633086
0.0128242
0.00341713
0.0185947
0.00815642
0.0230236
0.0145565
0.0264149
0.0222108
0.0288054
0.0306684
0.0302765
0.0394283
0.0311321
0.047984
0.0318897
0.0332808
0.0562215
-0.000261255
0.00540639
0.00027846
0.0122844
0.00220053
0.0166726
0.00556391
0.0196602
0.0100675
0.0219113
0.0153497
0.0235232
0.0210917
0.0245345
0.0270207
0.025203
0.0330098
0.0259006
0.0269735
0.0393171
-0.000331082
0.00573748
-0.000203573
0.0121569
0.000824279
0.0156448
0.00281235
0.0176721
0.00550487
0.0192188
0.00866335
0.0203647
0.0121794
0.0210184
0.0160018
0.0213807
0.0201812
0.0217212
0.0222167
0.024938
-0.000446331
0.00618381
-0.000797114
0.0125077
-0.000735495
0.0155831
-0.000187557
0.0171242
0.000771328
0.0182599
0.0021746
0.0189614
0.00406872
0.0191243
0.00642769
0.0190217
0.00928704
0.0188618
0.018697
0.0128067
-0.00107848
0.00726229
-0.00229901
0.0137283
-0.00308206
0.0163662
-0.00346975
0.0175119
-0.00358785
0.018378
-0.00336264
0.0187362
-0.00270664
0.0184683
-0.00157482
0.0178899
0.000107989
0.017179
0.0163636
0.00244139
-0.00147008
0.00873237
-0.00317324
0.0154314
-0.0046106
0.0178035
-0.00586735
0.0187686
-0.00681637
0.019327
-0.00747041
0.0193903
-0.00784958
0.0188475
-0.00782515
0.0178654
-0.0072621
0.016616
0.0151224
-0.00602095
-0.00161118
0.0103435
-0.00376612
0.0175864
-0.00594726
0.0199847
-0.0080317
0.0208531
-0.00979149
0.0210868
-0.0112059
0.0208047
-0.0123234
0.019965
-0.0130847
0.0186267
-0.013348
0.0168793
0.0147401
-0.0129657
-0.0017717
0.0121153
-0.0043261
0.0201407
-0.00700942
0.022668
-0.00960488
0.0234485
-0.0119354
0.0234174
-0.013938
0.0228073
-0.0156276
0.0216546
-0.0169679
0.0199669
-0.0178349
0.0177464
0.0149745
-0.0180692
-0.00186561
-0.00463631
-0.00754561
-0.0103758
-0.0129955
-0.0153353
-0.0173782
-0.0190838
-0.0203386
-0.020975
0.0688144
0.165129
-0.160537
0.0693022
0.128029
-0.128517
0.0792634
0.0382798
-0.048241
0.0904729
-0.016442
0.00523252
0.101634
-0.0419231
0.030762
0.112287
-0.0472388
0.0365854
0.122109
-0.0431878
0.0333658
0.130606
-0.0357328
0.0272361
0.137982
-0.0258154
0.0184392
-0.013554
0.00842783
0.0589827
0.162368
0.0664445
0.120567
0.0813855
0.0233388
0.0949803
-0.0300368
0.106749
-0.0536921
0.117068
-0.0575574
0.126191
-0.0523109
0.133839
-0.0433812
0.140255
-0.0322311
-0.0176911
0.049641
0.152044
0.0647154
0.105493
0.0839779
0.00407636
0.0993759
-0.0454349
0.11175
-0.0660662
0.121757
-0.0675639
0.130125
-0.0606797
0.136831
-0.0500871
0.14223
-0.0376303
-0.0209057
0.0415558
0.135426
0.0646381
0.0824107
0.0876671
-0.0189526
0.104474
-0.0622418
0.117213
-0.0788055
0.126816
-0.0771661
0.134326
-0.0681903
0.139971
-0.0557317
0.144279
-0.0419386
-0.0232349
0.0344788
0.113754
0.0659499
0.0509396
0.09221
-0.0452128
0.110319
-0.0803506
0.123249
-0.0917356
0.132355
-0.0862722
0.138923
-0.0747579
0.143432
-0.0602414
0.146587
-0.045093
-0.0246899
0.0282648
0.087931
0.0680797
0.0111247
0.0969857
-0.0741187
0.116355
-0.0997196
0.129375
-0.104756
0.137991
-0.0948879
0.143654
-0.0804212
0.147096
-0.0636833
0.149143
-0.0471394
-0.025314
0.0229582
0.0589519
0.0701798
-0.0360969
0.101105
-0.105044
0.12174
-0.120355
0.134876
-0.117892
0.143131
-0.103143
0.148064
-0.0853548
0.150641
-0.0662604
0.15176
-0.0482583
-0.0252193
0.0185321
0.0274542
0.0712407
-0.0888055
0.103866
-0.137669
0.125817
-0.142306
0.139236
-0.13131
0.147348
-0.111255
0.1518
-0.0898073
0.153777
-0.0682372
0.154221
-0.0487018
-0.0245697
0.0147428
-0.00535785
0.0706696
-0.144732
0.104896
-0.171895
0.128222
-0.165632
0.142208
-0.145296
0.150436
-0.119484
0.154693
-0.0940635
0.156346
-0.0698901
0.156384
-0.0487405
-0.0235494
0.0112567
0.0679765
0.10394
0.128743
0.143667
0.152305
0.156671
0.158279
0.158186
0.0292729
0.0220373
-0.0513101
0.0191804
0.0100924
0.0162812
0.00289926
0.0175569
-0.00127572
0.0207103
-0.0031534
0.024107
-0.00339674
0.0269408
-0.00283373
0.0294117
-0.00247093
0.0306337
-0.00122196
-0.00020673
0.0944713
0.0612196
-0.133654
0.0673622
0.0372015
0.0581373
0.0121242
0.059197
-0.00233549
0.0645048
-0.00846116
0.0707403
-0.00963223
0.0762165
-0.00830995
0.0807615
-0.00701591
0.0832626
-0.00372302
-0.00100388
0.131507
0.0982503
-0.168537
0.099013
0.0696952
0.08663
0.0245073
0.0871564
-0.00286194
0.0933567
-0.0146614
0.101169
-0.0174442
0.108416
-0.0155578
0.114285
-0.012885
0.118089
-0.00752687
-0.00274139
0.141601
0.130729
-0.17408
0.11026
0.101036
0.0972091
0.0375586
0.097914
-0.0035669
0.105503
-0.0222505
0.114682
-0.0266232
0.123267
-0.0241423
0.130192
-0.0198099
0.135333
-0.0126681
-0.00543025
0.137556
-0.167364
0.110075
0.0993928
0.101058
0.10957
0.119532
0.128756
0.136182
0.141953
0.00627879
0.000191536
-0.00647033
0.00686692
-0.000588127
0.00811738
-0.00125046
0.00999425
-0.00187686
0.0126204
-0.0026262
0.0164793
-0.00385887
0.022261
-0.0057817
0.0303497
-0.00808871
0.0410065
-0.0106568
-0.0103037
0.0164567
0.000526403
-0.0167916
0.0181215
-0.00225294
0.0216618
-0.00479075
0.0272658
-0.00748082
0.0354979
-0.0108583
0.0473079
-0.0156689
0.0633838
-0.0218576
0.0836091
-0.028314
0.108062
-0.0351097
-0.0358952
0.0249012
0.000805011
-0.0251798
0.0276199
-0.00497159
0.0333087
-0.0104796
0.0423929
-0.016565
0.0555207
-0.023986
0.0731701
-0.0333184
0.0945997
-0.0432872
0.118958
-0.052672
0.144223
-0.0603747
-0.0602099
0.031969
0.000845912
-0.0320099
0.0357315
-0.00873416
0.0434094
-0.0181575
0.0555044
-0.0286601
0.0722697
-0.0407513
0.0929502
-0.0539989
0.11542
-0.0657574
0.137737
-0.0749886
0.157028
-0.0796662
-0.0772616
0.0378947
-0.037536
0.0426891
0.0521268
0.0665283
0.0853558
0.106547
0.127187
0.144446
0.156176
0.0473957
-0.0394987
0.0475688
-0.0554659
0.0402222
-0.0376626
0.0448361
0.0340337
-0.0361428
0.0423313
0.0284301
-0.0347353
0.0403389
0.0230548
-0.0333953
0.0387707
0.0176955
-0.0319907
0.03735
0.012308
-0.0301957
0.0355832
0.00705067
-0.0273791
0.0326365
0.00247093
-0.0223048
0.0268845
-0.0118916
0.0143626
0.0517246
-0.0324619
-0.0587614
0.0450253
-0.0309633
0.038385
-0.0295025
0.031833
-0.0281832
0.0254152
-0.0269776
0.0191671
-0.0257426
0.013142
-0.0241706
0.00749066
-0.0217278
0.00267161
-0.0174857
-0.00922003
0.0515156
-0.0252052
-0.0587724
0.0443874
-0.0238351
0.0375071
-0.0226222
0.0308884
-0.0215646
0.0245256
-0.0206147
0.0184087
-0.0196258
0.0125653
-0.0183272
0.0071309
-0.0162934
0.00253368
-0.0128885
-0.00668634
0.0515528
-0.0179039
-0.058854
0.0445085
-0.0167908
0.0376993
-0.015813
0.0311078
-0.014973
0.0247139
-0.0142208
0.018524
-0.013436
0.0126067
-0.0124098
0.00714539
-0.0108321
0.00256768
-0.00831082
-0.00411866
0.0520027
-0.0105792
-0.0593274
0.0448852
-0.00967327
0.0379704
-0.00889823
0.0312378
-0.00824036
0.02467
-0.00765307
0.0182886
-0.0070546
0.0122114
-0.00633256
0.00672466
-0.00534543
0.00233762
-0.00392377
-0.00178104
0.0527215
-0.00315685
-0.0601439
0.0455022
-0.00245396
0.0384605
-0.00185655
0.0315611
-0.00134088
0.0247749
-0.000866903
0.0181243
-0.000404007
0.0117606
3.11818e-05
0.00608581
0.000329341
0.00183727
0.000324766
5.62249e-05
0.0540905
0.0044189
-0.0616662
0.0467287
0.00490779
0.0395596
0.00531256
0.0325474
0.00567138
0.0256626
0.00601782
0.0189241
0.0063345
0.0124683
0.00648702
0.00664453
0.00615311
0.0021148
0.0048545
0.00217102
0.0558937
0.0121859
-0.0636607
0.0483672
0.0124343
0.0410691
0.0126106
0.0339699
0.0127706
0.0270438
0.0129439
0.0203007
0.0130775
0.0138301
0.0129576
0.00785664
0.0121266
0.00284786
0.00986328
0.00501888
0.0578708
0.0201579
-0.0658428
0.0501586
0.0201465
0.0426965
0.0200728
0.0354559
0.0200113
0.0284055
0.0199943
0.0215361
0.0199469
0.0148941
0.0195997
0.00863613
0.0183845
0.00319873
0.0153007
0.00821761
0.0597946
-0.0679683
0.0518894
0.0442439
0.0368285
0.0296049
0.0225485
0.0156836
0.00914802