/*--------------------------------*- C++ -*----------------------------------*\
| =========                 |                                                 |
| \\      /  F ield         | OpenFOAM: The Open Source CFD Toolbox           |
|  \\    /   O peration     | Version:  2406                                  |
|   \\  /    A nd           | Website:  www.openfoam.com                      |
|    \\/     M anipulation  |                                                 |
\*---------------------------------------------------------------------------*/
FoamFile
{
    version     2.0;
    format      ascii;
    arch        "LSB;label=32;scalar=64";
    class       volVectorField;
    location    "0.5";
    object      U;
}
// * * * * * * * * * * * * * * * * * * * * * * * * * * * * * * * * * * * * * //

dimensions      [0 1 -1 0 0 0 0];

internalField   nonuniform List<vector> 
1800
(
(-0.0606064 0.0721444 0)
(-0.0967831 0.131501 1.41939e-20)
(-0.0744543 0.161958 5.31315e-20)
(-0.0116057 0.171426 -6.37469e-20)
(0.0729903 0.172925 -1.64029e-19)
(0.16303 0.178696 -5.08457e-20)
(0.251308 0.193061 9.79647e-20)
(0.33659 0.214967 5.24465e-19)
(0.422775 0.243469 0)
(0.483616 0.285288 1.02795e-19)
(-0.0366104 0.0436227 -3.74857e-20)
(-0.052968 0.0779444 -9.47787e-20)
(-0.00755614 0.0926133 -8.64095e-21)
(0.0868693 0.0900113 -7.86036e-20)
(0.198853 0.0841615 3.91801e-20)
(0.309139 0.0856098 2.60978e-19)
(0.411886 0.0954103 -8.25024e-20)
(0.508675 0.110699 -6.15491e-19)
(0.603683 0.128045 2.40621e-19)
(0.670268 0.156555 2.35882e-19)
(-0.0140371 0.0182555 5.90462e-21)
(-0.0025019 0.0311808 -4.77182e-20)
(0.0809291 0.0315631 -2.75939e-20)
(0.211822 0.0218903 -4.92393e-21)
(0.349235 0.0165809 -2.55931e-21)
(0.475402 0.0221987 -7.73791e-20)
(0.587497 0.0374029 3.51873e-21)
(0.689476 0.0585831 4.48687e-19)
(0.788757 0.0829018 -3.88069e-19)
(0.863844 0.104547 -9.07071e-19)
(0.00340206 0.000777764 2.60035e-20)
(0.0609338 -0.00846969 6.34333e-20)
(0.199218 -0.0214321 -3.40697e-20)
(0.367328 -0.0333972 -4.76991e-24)
(0.526441 -0.0349146 -3.51376e-21)
(0.664826 -0.0243022 1.99053e-20)
(0.7839 -0.00480456 9.72229e-20)
(0.890461 0.0197107 8.52112e-20)
(0.993667 0.0467853 1.06574e-20)
(1.07004 0.0680501 -1.79706e-19)
(0.0248134 -0.00554783 -3.085e-20)
(0.149893 -0.0371291 3.152e-20)
(0.343582 -0.0550372 3.99273e-20)
(0.543092 -0.0627307 -4.36933e-20)
(0.71717 -0.057457 -1.00424e-20)
(0.861345 -0.0407591 2.9143e-21)
(0.981778 -0.0168863 -1.12462e-20)
(1.08836 0.0104121 -3.91267e-20)
(1.1919 0.0392175 1.51019e-19)
(1.27687 0.0578319 1.47631e-19)
(0.0616589 -0.0136822 5.23213e-22)
(0.261639 -0.0557229 1.92098e-19)
(0.505029 -0.0693526 6.37006e-20)
(0.728266 -0.068105 -8.52805e-20)
(0.909406 -0.0546773 5.94108e-20)
(1.05229 -0.0326913 -3.3155e-21)
(1.16901 -0.0065113 1.88789e-20)
(1.27343 0.0208205 3.57378e-21)
(1.37863 0.0478529 4.80484e-20)
(1.48089 0.0631373 6.42062e-20)
(0.109199 -0.0194716 -1.91239e-20)
(0.389164 -0.061339 -2.33662e-19)
(0.6756 -0.0634503 1.28803e-20)
(0.911567 -0.050211 2.41299e-19)
(1.08917 -0.0286544 -7.84203e-21)
(1.22322 -0.00289203 -1.04535e-19)
(1.3327 0.0238278 -5.66999e-20)
(1.43562 0.0498385 1.0895e-19)
(1.54806 0.074459 8.41358e-20)
(1.67962 0.0910962 -2.92576e-21)
(0.16721 -0.019869 2.6839e-20)
(0.527706 -0.0501571 7.05288e-20)
(0.845011 -0.0359681 -7.46549e-20)
(1.07979 -0.0115466 5.20793e-20)
(1.24421 0.0149889 -5.11061e-21)
(1.36558 0.0412955 -3.73427e-19)
(1.46917 0.0664021 8.10179e-21)
(1.57626 0.0906132 2.16024e-19)
(1.70442 0.114342 -1.44385e-19)
(1.86433 0.134895 -1.71923e-19)
(0.233697 -0.0124759 1.066e-19)
(0.667246 -0.0200204 1.1392e-19)
(0.998471 0.0113826 -2.75154e-19)
(1.21923 0.0430532 -7.34626e-20)
(1.36544 0.0703214 -6.60499e-21)
(1.47546 0.0944718 1.39162e-19)
(1.57837 0.117311 -2.49618e-19)
(1.69635 0.140949 -1.40809e-19)
(1.84378 0.166445 3.48103e-19)
(2.02111 0.193831 9.77575e-20)
(0.304269 0.00444145 5.47233e-20)
(0.795056 0.0281211 2.61482e-19)
(1.12271 0.0737938 -2.51267e-19)
(1.32159 0.107441 -8.96219e-20)
(1.45031 0.131947 7.73778e-20)
(1.5539 0.152675 -1.12067e-19)
(1.6622 0.173673 1.7773e-19)
(1.79536 0.198187 3.40988e-20)
(1.95925 0.227075 -1.58838e-19)
(2.14004 0.259215 -6.71107e-20)
(-0.013626 0.186035 -3.29227e-20)
(-0.0306024 0.303062 1.34299e-19)
(-0.048226 0.336607 8.23652e-20)
(-0.0631251 0.344357 -1.06659e-19)
(-0.0763102 0.339659 -2.03161e-21)
(-0.0871258 0.326506 4.62114e-20)
(-0.0955828 0.306262 3.37097e-20)
(-0.101915 0.278623 -7.3248e-20)
(-0.105816 0.242303 3.48348e-22)
(-0.105678 0.196095 1.68283e-20)
(-0.0299426 0.206482 4.65655e-20)
(-0.0566082 0.333236 -9.54438e-23)
(-0.0753439 0.366649 1.46499e-20)
(-0.0891684 0.372743 -1.42138e-19)
(-0.1006 0.365481 -1.41803e-19)
(-0.109305 0.34902 -6.59038e-20)
(-0.115273 0.325172 8.92972e-20)
(-0.118727 0.293514 0)
(-0.119229 0.252072 -1.74339e-20)
(-0.114769 0.199037 6.5572e-20)
(-0.0484473 0.222398 -4.79434e-23)
(-0.0854063 0.356928 -1.7982e-19)
(-0.103726 0.389668 -1.32345e-19)
(-0.115077 0.394837 1.11954e-19)
(-0.123333 0.386266 -4.77056e-20)
(-0.128646 0.367665 -5.47215e-20)
(-0.130842 0.341281 -4.23109e-20)
(-0.130118 0.306713 -2.2289e-20)
(-0.125872 0.261414 -8.44333e-20)
(-0.115654 0.202946 -1.63828e-19)
(-0.0682213 0.232419 3.78264e-20)
(-0.115797 0.372189 1.55543e-20)
(-0.131312 0.402873 1.40548e-20)
(-0.13908 0.408533 1.15694e-19)
(-0.14289 0.400739 -1.78036e-20)
(-0.143819 0.381145 6.15101e-20)
(-0.141245 0.353318 -2.64806e-20)
(-0.135305 0.317232 0)
(-0.125217 0.26976 5.45288e-20)
(-0.108033 0.207644 -8.6771e-20)
(-0.0876847 0.235723 -8.10262e-20)
(-0.143763 0.376415 3.59677e-20)
(-0.154384 0.401611 1.48145e-19)
(-0.158209 0.408641 -2.03852e-20)
(-0.158573 0.406043 2.44451e-20)
(-0.154237 0.388066 7.46581e-20)
(-0.145582 0.360154 -7.56581e-20)
(-0.133304 0.323991 5.82662e-20)
(-0.116383 0.276132 -1.17544e-20)
(-0.0910221 0.212303 1.24216e-20)
(-0.102138 0.228521 -7.83897e-20)
(-0.162153 0.36792 -7.25972e-21)
(-0.171302 0.393329 -1.13962e-19)
(-0.172556 0.400762 -1.82759e-20)
(-0.169693 0.399467 1.51254e-19)
(-0.158388 0.384416 -8.46464e-20)
(-0.142221 0.358847 2.44116e-20)
(-0.122754 0.325034 -8.92992e-21)
(-0.0983624 0.279232 -1.61241e-19)
(-0.0630817 0.2159 6.20283e-20)
(-0.109189 0.208524 2.59587e-20)
(-0.173389 0.34506 1.75393e-20)
(-0.18246 0.379555 2.02692e-20)
(-0.178365 0.389186 1.40818e-19)
(-0.166672 0.3857 -6.6021e-20)
(-0.146553 0.371708 -2.33343e-19)
(-0.122281 0.350043 -8.46183e-20)
(-0.0954565 0.321145 -2.08547e-19)
(-0.063578 0.280473 2.78803e-19)
(-0.0165716 0.220636 2.40297e-19)
(-0.107728 0.178553 6.6441e-22)
(-0.173426 0.305973 -1.1333e-20)
(-0.179247 0.349711 6.19005e-20)
(-0.166495 0.363726 -7.57927e-20)
(-0.142754 0.362807 -2.19821e-19)
(-0.111984 0.353211 8.02487e-20)
(-0.0781349 0.337868 -3.98969e-20)
(-0.0425552 0.31584 6.68079e-20)
(-0.00246625 0.28222 4.05164e-19)
(0.0581071 0.22875 -3.37705e-20)
(-0.0974359 0.142317 -1.01722e-20)
(-0.159082 0.252678 1.66295e-20)
(-0.159126 0.29991 -1.34996e-20)
(-0.13516 0.318681 -3.1266e-20)
(-0.0968881 0.323337 -5.53529e-21)
(-0.0519581 0.322052 2.50349e-19)
(-0.00484647 0.318014 1.11411e-19)
(0.0427289 0.30842 2.08673e-19)
(0.0925823 0.286456 -4.6279e-21)
(0.166294 0.245198 -5.73225e-19)
(-0.081163 0.105157 -1.87356e-21)
(-0.133019 0.191314 -1.74035e-20)
(-0.124999 0.233692 -4.46616e-20)
(-0.0862433 0.251499 -9.58412e-20)
(-0.0292102 0.257978 9.24188e-20)
(0.0339732 0.263738 4.63983e-19)
(0.0966964 0.273359 2.9293e-20)
(0.15681 0.284876 -4.09589e-19)
(0.215028 0.289866 -5.59392e-19)
(0.294017 0.281555 -4.8451e-19)
(-0.0818201 -0.0733465 -4.64328e-19)
(0.176614 -0.318923 -3.45035e-19)
(0.412906 -0.314933 -9.77536e-20)
(0.554075 -0.283157 -1.06549e-20)
(0.658927 -0.234357 4.57849e-20)
(0.723629 -0.1853 2.9378e-21)
(0.760271 -0.141034 -4.99931e-20)
(0.784492 -0.101684 1.69121e-20)
(0.794392 -0.0687342 -1.05692e-20)
(0.799917 -0.0313936 -5.18249e-21)
(-0.0646773 -0.11071 -3.98125e-19)
(0.165197 -0.392715 1.74583e-20)
(0.408617 -0.369356 -7.07661e-20)
(0.553112 -0.322203 -8.37102e-21)
(0.661977 -0.259429 4.14275e-20)
(0.728453 -0.20073 -7.57204e-20)
(0.765788 -0.150028 3.08109e-20)
(0.789917 -0.106611 4.13416e-22)
(0.800324 -0.0712101 -2.03838e-20)
(0.806033 -0.032141 1.19068e-20)
(-0.0347939 -0.139429 8.31818e-19)
(0.156575 -0.457959 4.36764e-19)
(0.404425 -0.425729 4.66355e-20)
(0.550715 -0.363256 1.63051e-20)
(0.662965 -0.286203 -6.14826e-20)
(0.731098 -0.217136 1.08007e-21)
(0.769282 -0.159571 1.31842e-20)
(0.793784 -0.111875 -1.89984e-20)
(0.804964 -0.0740102 5.33149e-23)
(0.811531 -0.0330084 -7.48334e-22)
(0.00653279 -0.15821 7.21173e-19)
(0.162975 -0.511171 -1.03075e-20)
(0.409825 -0.482781 2.10094e-20)
(0.553975 -0.405575 -1.1694e-20)
(0.666409 -0.314329 1.81056e-20)
(0.734539 -0.234346 1.53733e-20)
(0.77286 -0.169653 -2.5851e-20)
(0.797812 -0.117517 0)
(0.809665 -0.0772291 0)
(0.817601 -0.0340521 9.70124e-25)
(0.0613708 -0.166986 -1.58601e-19)
(0.203873 -0.552508 -5.15503e-19)
(0.443452 -0.537709 -8.21503e-21)
(0.577151 -0.447358 7.75017e-21)
(0.68208 -0.342615 8.45651e-21)
(0.745415 -0.251833 6.84151e-20)
(0.781158 -0.180084 1.10655e-21)
(0.805504 -0.123476 -1.10626e-20)
(0.817249 -0.0809019 -3.25194e-20)
(0.826703 -0.0353305 -1.59435e-21)
(0.138134 -0.17022 -2.6276e-19)
(0.300306 -0.588121 -2.42735e-19)
(0.529159 -0.58919 -3.8904e-19)
(0.641599 -0.486408 5.69489e-21)
(0.726673 -0.369225 -3.08283e-20)
(0.776228 -0.26852 3.75247e-20)
(0.803383 -0.190297 1.3183e-20)
(0.823814 -0.129464 -4.93732e-20)
(0.833363 -0.0849481 5.33752e-22)
(0.843705 -0.0369023 -1.62029e-20)
(0.246017 -0.174474 7.09696e-20)
(0.467053 -0.624828 1.99463e-20)
(0.68067 -0.636773 2.06474e-19)
(0.765325 -0.520732 -5.39072e-20)
(0.819232 -0.391621 -6.53291e-21)
(0.844553 -0.282246 -4.41679e-20)
(0.854482 -0.198817 -1.32301e-21)
(0.864962 -0.134624 1.20962e-20)
(0.868415 -0.0889482 1.3928e-20)
(0.877532 -0.038733 7.77859e-21)
(0.399781 -0.186136 2.52497e-19)
(0.695933 -0.663984 1.65444e-18)
(0.887283 -0.681818 3.45444e-19)
(0.944509 -0.550932 2.29182e-20)
(0.965598 -0.408807 6.83262e-21)
(0.962337 -0.291175 3.49377e-20)
(0.948989 -0.203819 -4.25064e-20)
(0.943608 -0.137603 3.49304e-20)
(0.936491 -0.0919499 -2.85371e-22)
(0.940724 -0.0405686 -2.87601e-21)
(0.598759 -0.202199 5.95867e-19)
(0.945798 -0.694691 5.28854e-19)
(1.11527 -0.722382 -6.34764e-19)
(1.15166 -0.578698 2.25459e-19)
(1.14691 -0.422279 -3.63309e-20)
(1.12024 -0.295709 -3.31513e-21)
(1.08562 -0.204751 1.01436e-20)
(1.06386 -0.137383 -3.63031e-22)
(1.04514 -0.0927539 -6.59086e-21)
(1.042 -0.0418973 -4.1708e-21)
(0.819675 -0.167275 1.83988e-19)
(1.16415 -0.695252 -1.20555e-18)
(1.32211 -0.746574 -5.25536e-19)
(1.35502 -0.599205 1.94717e-19)
(1.33477 -0.431471 -6.86643e-20)
(1.29152 -0.297364 1.06275e-20)
(1.24091 -0.203553 -2.29507e-20)
(1.206 -0.135466 7.68736e-22)
(1.17889 -0.0921123 -1.82267e-21)
(1.16865 -0.0425212 -1.95956e-21)
(1.17895 -0.307349 -5.3847e-19)
(1.42326 -0.73615 -1.74725e-19)
(1.55422 -0.775526 -6.10557e-20)
(1.59082 -0.615371 -1.21202e-19)
(1.56663 -0.428544 7.6347e-20)
(1.51244 -0.284881 9.28291e-21)
(1.44765 -0.189837 2.07182e-20)
(1.39954 -0.124791 1.38362e-20)
(1.36342 -0.0857928 -2.88571e-20)
(1.34306 -0.0411583 3.55178e-21)
(1.7773 -0.537267 -2.02723e-19)
(1.86772 -0.86859 -1.35337e-19)
(1.83895 -0.837391 -4.43669e-20)
(1.78523 -0.629564 -1.27275e-20)
(1.73422 -0.416424 1.29996e-19)
(1.67979 -0.264609 1.33757e-19)
(1.61854 -0.169723 1.03943e-19)
(1.5706 -0.1093 -1.23679e-20)
(1.53683 -0.0753991 4.77421e-20)
(1.51234 -0.0367886 1.24915e-20)
(2.57179 -0.593025 -6.94966e-20)
(2.48334 -0.761119 -6.8442e-20)
(2.27268 -0.725321 7.52838e-20)
(2.07394 -0.554957 1.73709e-35)
(1.93203 -0.367356 -1.96067e-20)
(1.83599 -0.228314 -4.53625e-34)
(1.7577 -0.142016 5.10716e-21)
(1.70383 -0.0901361 -2.77468e-35)
(1.66471 -0.0630902 1.48324e-22)
(1.63766 -0.0322636 -1.91517e-21)
(2.96529 -0.612562 -1.20931e-19)
(2.68363 -0.763209 2.68434e-19)
(2.4266 -0.709341 2.08291e-20)
(2.20584 -0.522634 0)
(2.03064 -0.331601 -1.10047e-19)
(1.91151 -0.197806 -8.88559e-20)
(1.82322 -0.11844 -6.64782e-20)
(1.7652 -0.0725785 4.09232e-34)
(1.72356 -0.0502561 -2.16107e-20)
(1.69695 -0.0262157 1.13879e-21)
(3.1414 -0.556602 -1.06311e-19)
(2.87634 -0.615547 2.24078e-20)
(2.59278 -0.561318 0)
(2.31872 -0.410447 0)
(2.09419 -0.252868 0)
(1.94572 -0.145914 0)
(1.84494 -0.0852355 2.19338e-21)
(1.78144 -0.0515034 4.98849e-34)
(1.73642 -0.0359955 -4.60491e-22)
(1.70508 -0.0215715 9.39018e-35)
(3.17706 -0.487061 1.65802e-19)
(2.89824 -0.544204 0)
(2.60371 -0.486788 0)
(2.31702 -0.334448 0)
(2.07793 -0.187666 0)
(1.92126 -0.0998293 0)
(1.82045 -0.0558113 -5.12596e-21)
(1.75987 -0.0326945 4.38198e-20)
(1.71903 -0.023812 -7.4102e-22)
(1.69148 -0.0165976 1.07718e-20)
(3.14855 -0.414762 0)
(2.85601 -0.43296 8.98124e-20)
(2.50806 -0.359474 -3.22048e-20)
(2.18723 -0.227115 0)
(1.94863 -0.110892 -8.24322e-20)
(1.80592 -0.0501725 -5.7924e-20)
(1.72092 -0.0252945 -4.30519e-20)
(1.67086 -0.013227 -2.33008e-20)
(1.64021 -0.0106809 2.46655e-20)
(1.61365 -0.00993874 -5.89061e-21)
(2.95696 -0.321692 -2.25967e-20)
(2.58299 -0.310342 1.9608e-20)
(2.16476 -0.229858 -2.10192e-20)
(1.83393 -0.124813 -1.67869e-36)
(1.6309 -0.0451995 1.50088e-20)
(1.52664 -0.0118856 -3.38599e-34)
(1.47081 -0.00293221 -6.98821e-21)
(1.43848 -0.000102135 -1.28345e-20)
(1.42132 -0.00173681 -1.18293e-21)
(1.39903 -0.0049614 2.10684e-21)
(2.2276 -0.194603 0)
(1.78913 -0.129669 -5.78315e-22)
(1.40538 -0.0613666 3.14217e-20)
(1.1651 -0.020188 0)
(1.05626 0.00568624 2.74783e-20)
(1.01835 0.0115705 1.82406e-20)
(1.00523 0.00925779 5.18402e-21)
(0.999205 0.00639346 7.66163e-21)
(0.999585 0.00305868 -1.0068e-20)
(0.987512 -0.000874272 -8.59857e-22)
(0.677641 -0.0483649 -2.73011e-21)
(0.462482 -0.00967891 0)
(0.352338 -0.00123529 0)
(0.299855 0.00139757 0)
(0.302129 0.00519538 0)
(0.323498 0.0051158 0)
(0.344538 0.00378244 -7.55045e-21)
(0.35983 0.00252622 2.29922e-35)
(0.370618 0.0015026 -1.45068e-21)
(0.371133 0.000112646 -2.58051e-21)
(2.46783 0.322194 3.75999e-19)
(2.39584 0.25864 1.74497e-19)
(2.28925 0.200162 2.22311e-19)
(2.13008 0.144266 -2.41686e-19)
(1.92812 0.106441 1.14768e-19)
(1.67805 0.0807732 5.15679e-20)
(1.41859 0.0698009 -2.05928e-19)
(1.13338 0.0984225 -4.84743e-20)
(0.952665 0.0701936 -2.33818e-21)
(0.626046 0.255755 -8.72972e-21)
(2.70814 0.310185 -2.35462e-19)
(2.68972 0.271001 3.59812e-20)
(2.68869 0.191579 2.41211e-19)
(2.61307 0.170737 1.75537e-19)
(2.56572 0.08858 -2.35985e-19)
(2.39108 0.102644 4.17543e-20)
(2.29804 0.00622971 -2.43384e-19)
(1.97718 0.054235 -6.93353e-20)
(1.90795 -0.0732297 -1.65142e-19)
(1.36223 -0.00280888 -1.18556e-19)
(2.89334 0.274245 4.02843e-20)
(2.87424 0.2391 -1.88587e-19)
(2.94653 0.156282 -2.64945e-19)
(2.86619 0.126828 5.91867e-19)
(2.96116 0.0365601 9.14994e-21)
(2.80371 0.0301097 -4.2599e-20)
(2.90973 -0.0570664 -1.80751e-19)
(2.63071 -0.0707007 -1.88646e-19)
(2.73958 -0.170117 5.77731e-20)
(2.29847 -0.186811 -5.48345e-20)
(3.00332 0.242702 7.38966e-20)
(3.00563 0.201254 -2.61031e-19)
(3.0695 0.1333 6.13535e-20)
(3.02877 0.0740531 -2.21801e-19)
(3.10649 -0.000996821 3.45363e-19)
(3.02963 -0.0591557 -1.39059e-19)
(3.13112 -0.119985 8.11336e-20)
(3.00179 -0.178746 -1.29969e-19)
(3.08824 -0.254751 -2.52536e-19)
(2.89213 -0.307875 -1.78471e-20)
(3.08195 0.192593 1.1712e-19)
(3.09657 0.154667 -3.91136e-19)
(3.14474 0.103791 -6.25873e-21)
(3.13329 0.0341902 -8.7166e-20)
(3.1778 -0.0291874 -3.15486e-20)
(3.15128 -0.110828 -2.717e-21)
(3.19795 -0.166122 1.5223e-19)
(3.16672 -0.238499 -8.23994e-20)
(3.19898 -0.293397 -1.65736e-19)
(3.14018 -0.357537 -2.58401e-19)
(3.10247 0.158159 2.13444e-19)
(3.12512 0.127017 5.55572e-20)
(3.16968 0.0831093 -2.67708e-19)
(3.18027 0.0156379 1.3497e-19)
(3.21107 -0.0430732 1.86726e-19)
(3.21324 -0.129574 -2.28908e-20)
(3.22999 -0.180862 1.17169e-19)
(3.22866 -0.255693 -5.15258e-20)
(3.23209 -0.298005 -1.5409e-19)
(3.22262 -0.363644 -2.24746e-19)
(3.03666 0.111804 -4.91462e-21)
(3.06768 0.0892455 1.07111e-19)
(3.11791 0.0484805 -1.04463e-19)
(3.14934 -0.00752703 -1.27163e-20)
(3.18249 -0.0632885 2.23359e-19)
(3.20621 -0.137947 -1.07419e-20)
(3.21717 -0.18535 1.12157e-19)
(3.22923 -0.252357 1.43053e-19)
(3.21827 -0.286248 7.02024e-20)
(3.22627 -0.344076 1.17432e-19)
(2.79693 0.0745309 -2.18609e-21)
(2.84994 0.0560527 -1.88391e-21)
(2.89971 0.0161629 -7.29186e-20)
(2.95958 -0.0222564 -6.6575e-20)
(2.99017 -0.0794035 -3.0673e-20)
(3.04124 -0.132546 -4.18343e-20)
(3.03934 -0.174232 -6.73373e-21)
(3.07521 -0.222097 1.10463e-19)
(3.05033 -0.247504 -6.135e-20)
(3.08024 -0.288039 -4.40804e-20)
(2.25698 0.00916785 6.02993e-20)
(2.31812 -0.0138814 -1.0283e-20)
(2.34153 -0.0325453 -9.21845e-21)
(2.40654 -0.0654117 2.78106e-20)
(2.3903 -0.0882161 -9.65556e-21)
(2.44677 -0.11037 1.54284e-20)
(2.3947 -0.131808 -8.59536e-20)
(2.44057 -0.144039 2.28291e-20)
(2.3765 -0.156866 3.29537e-20)
(2.42152 -0.170343 -3.19524e-20)
(1.10855 -0.0169519 0)
(1.10424 -0.0187083 4.39468e-21)
(1.09623 -0.0216512 -3.54539e-20)
(1.08045 -0.0231948 -5.75302e-20)
(1.05619 -0.0254016 3.89236e-20)
(1.035 -0.0297637 1.66236e-19)
(0.993665 -0.0292082 -1.13933e-20)
(0.983374 -0.0373482 -8.90391e-20)
(0.917161 -0.0320178 -6.66214e-21)
(0.943591 -0.04181 2.5912e-21)
(1.19639 0.813385 -5.39643e-20)
(1.10828 0.788245 -1.15991e-19)
(1.06309 0.780495 -5.23597e-19)
(1.03012 0.780017 7.05754e-20)
(0.999725 0.782039 6.39806e-19)
(0.967774 0.782928 1.35402e-20)
(0.928448 0.77645 -9.25352e-20)
(0.867531 0.750216 -9.04949e-20)
(0.738649 0.661885 -2.17434e-19)
(0.408429 0.377628 -1.90243e-20)
(1.39529 0.814124 -4.18486e-19)
(1.26238 0.779314 1.07039e-18)
(1.17138 0.76281 4.52245e-19)
(1.11564 0.759354 -4.44739e-19)
(1.0776 0.759131 1.48646e-19)
(1.04375 0.756329 9.72463e-20)
(1.00455 0.745477 3.06682e-19)
(0.943745 0.716915 -5.40874e-19)
(0.807422 0.627297 -5.9984e-20)
(0.445603 0.353588 5.4771e-20)
(1.63117 0.803906 1.30916e-19)
(1.47611 0.76939 8.26512e-19)
(1.33583 0.742708 1.24882e-20)
(1.23664 0.727603 -2.73907e-19)
(1.17234 0.719063 1.40105e-19)
(1.12425 0.710639 8.41085e-20)
(1.07694 0.695784 -5.27145e-20)
(1.01008 0.66542 -2.37243e-19)
(0.863575 0.577035 1.68497e-19)
(0.472974 0.320099 -1.81533e-19)
(1.84363 0.767188 -4.7321e-19)
(1.68749 0.736333 3.56836e-19)
(1.51975 0.703351 -5.2485e-19)
(1.38095 0.67678 -1.535e-19)
(1.28339 0.658867 6.5274e-19)
(1.21373 0.645453 -3.68242e-19)
(1.15245 0.628826 -4.08515e-19)
(1.07391 0.59832 2.33288e-19)
(0.91133 0.515293 -1.25305e-19)
(0.491462 0.281009 -2.53178e-20)
(2.01108 0.704224 5.89434e-19)
(1.86307 0.676259 4.20129e-19)
(1.68582 0.640299 -1.48497e-19)
(1.52183 0.606725 5.00165e-19)
(1.39689 0.582826 1.4903e-20)
(1.30648 0.566983 -2.03819e-19)
(1.23012 0.551127 1.45379e-19)
(1.13701 0.523136 -2.73833e-19)
(0.953673 0.447587 -3.23414e-19)
(0.503323 0.239036 -4.10246e-20)
(2.13247 0.629669 7.83197e-19)
(1.99069 0.602066 8.38208e-19)
(1.81129 0.56436 -6.81129e-19)
(1.6356 0.527625 -5.28697e-19)
(1.49536 0.501545 7.32989e-20)
(1.39133 0.485559 -3.27011e-19)
(1.303 0.471425 -5.23594e-20)
(1.19522 0.446499 7.59008e-21)
(0.988704 0.377901 8.77736e-20)
(0.507179 0.195854 2.92289e-20)
(2.21789 0.553951 7.02566e-19)
(2.07276 0.523851 -8.02162e-19)
(1.89079 0.484626 -5.84112e-19)
(1.71233 0.447809 3.0283e-19)
(1.56817 0.422499 -2.63431e-19)
(1.45881 0.407285 6.36518e-19)
(1.36252 0.3941 -3.8092e-20)
(1.24063 0.370773 -4.96852e-19)
(1.00911 0.306968 2.17371e-19)
(0.498869 0.15192 4.36042e-20)
(2.25965 0.481837 -4.34955e-19)
(2.10509 0.447592 -5.31153e-19)
(1.92224 0.407781 -5.7154e-19)
(1.74905 0.372795 3.65235e-20)
(1.6101 0.349226 1.85176e-19)
(1.50172 0.334311 1.56059e-19)
(1.40016 0.320257 1.53065e-19)
(1.26359 0.295794 -1.59888e-20)
(1.00541 0.234366 3.23786e-20)
(0.474009 0.108148 5.64665e-20)
(2.26033 0.406515 1.98218e-19)
(2.09368 0.370055 -7.45305e-20)
(1.91272 0.332689 2.80931e-19)
(1.75004 0.301737 6.87501e-19)
(1.621 0.280312 -1.81845e-19)
(1.51607 0.264687 -6.07361e-19)
(1.40911 0.248133 4.4201e-19)
(1.25515 0.220498 4.56761e-19)
(0.969641 0.161047 -2.63083e-19)
(0.430994 0.0668645 -4.93108e-20)
(2.21892 0.332389 -3.7615e-19)
(2.0432 0.296294 -3.63691e-21)
(1.86856 0.262801 4.00954e-19)
(1.71987 0.235554 3.31717e-19)
(1.60207 0.214996 2.12901e-19)
(1.49966 0.197291 -3.38343e-19)
(1.38425 0.176897 7.70725e-20)
(1.20912 0.14541 -2.58607e-19)
(0.898703 0.0904573 -3.32587e-19)
(0.372462 0.0313337 9.74977e-21)
(0.317547 0.394058 -1.95356e-20)
(0.28812 0.390042 1.82627e-19)
(0.257445 0.385439 2.33028e-20)
(0.226099 0.381569 -1.27876e-19)
(0.19395 0.379025 -4.04083e-20)
(0.160457 0.376647 -9.2891e-20)
(0.125055 0.37017 4.83518e-20)
(0.0873728 0.350361 -3.69646e-20)
(0.047799 0.298533 8.78552e-20)
(0.0187414 0.166587 1.91679e-20)
(0.365449 0.47163 -6.64928e-20)
(0.335003 0.466507 -2.0151e-20)
(0.303139 0.461023 -1.36391e-19)
(0.270724 0.456764 1.31689e-20)
(0.237685 0.454489 1.93928e-20)
(0.203284 0.452959 3.6259e-20)
(0.166545 0.447341 1.72305e-19)
(0.126426 0.426971 -5.54913e-20)
(0.0809358 0.368885 6.1801e-20)
(0.0368501 0.209131 -1.59701e-20)
(0.425138 0.546213 5.95972e-20)
(0.393575 0.540372 1.70255e-19)
(0.36066 0.534218 9.84742e-20)
(0.327357 0.529611 1.47779e-19)
(0.293592 0.527555 3.98229e-20)
(0.258445 0.526824 1.7399e-19)
(0.220512 0.522104 -5.77511e-20)
(0.177882 0.501393 -6.1879e-20)
(0.125522 0.437556 1.05237e-23)
(0.0618253 0.250699 9.70432e-21)
(0.494638 0.611844 4.54488e-19)
(0.461225 0.604453 3.28419e-19)
(0.426441 0.597491 -3.527e-19)
(0.391801 0.592995 -1.54453e-19)
(0.35735 0.591908 2.26716e-20)
(0.321901 0.592728 -7.68185e-20)
(0.283433 0.589482 -2.28811e-19)
(0.23883 0.568919 6.62285e-20)
(0.179399 0.500277 -4.53408e-20)
(0.0927043 0.288741 -8.3712e-20)
(0.584841 0.677685 -1.53086e-19)
(0.549763 0.670899 -3.08376e-19)
(0.513509 0.663406 2.61301e-19)
(0.477265 0.657811 -8.62864e-20)
(0.441126 0.655828 -1.46523e-19)
(0.404003 0.656399 1.66037e-19)
(0.36356 0.653371 6.87067e-20)
(0.315422 0.632422 -1.1619e-19)
(0.246634 0.559055 -1.91122e-19)
(0.130854 0.324085 5.09166e-20)
(0.65255 0.723515 -2.87346e-20)
(0.61578 0.714091 -2.69065e-20)
(0.579112 0.706054 -3.09952e-20)
(0.544154 0.701814 6.45166e-20)
(0.510639 0.702149 1.96353e-19)
(0.476639 0.705085 -1.6084e-19)
(0.438763 0.703647 -1.02739e-19)
(0.390962 0.682882 -9.91577e-21)
(0.31568 0.605945 2.76975e-20)
(0.17134 0.35195 1.20403e-19)
(0.790432 0.769781 -2.61591e-19)
(0.7499 0.761572 1.17223e-19)
(0.707496 0.752254 3.16241e-19)
(0.665758 0.745417 -1.65344e-19)
(0.625548 0.743635 -3.50322e-19)
(0.585751 0.745704 1.82092e-19)
(0.542801 0.744317 4.27984e-19)
(0.488936 0.723515 1.41144e-19)
(0.40108 0.643948 3.38963e-20)
(0.219313 0.374424 1.87118e-19)
(0.838527 0.803448 -4.61689e-19)
(0.797337 0.792801 -1.4404e-19)
(0.761249 0.783908 2.8769e-19)
(0.72878 0.779067 -1.17758e-19)
(0.697885 0.778505 5.92832e-20)
(0.666013 0.780301 2.9983e-19)
(0.628841 0.77757 -2.50804e-19)
(0.576957 0.755152 -2.49001e-19)
(0.481974 0.671907 1.54528e-19)
(0.266024 0.389539 -3.66726e-20)
(0.992176 0.815522 -1.82545e-20)
(0.945398 0.803583 4.95456e-20)
(0.894952 0.790004 -2.04755e-19)
(0.84876 0.781101 -4.73922e-20)
(0.808454 0.780151 3.55465e-19)
(0.771047 0.784261 7.65026e-20)
(0.730367 0.78391 -4.69463e-20)
(0.674492 0.762829 0)
(0.568721 0.67991 -1.31813e-19)
(0.315077 0.393677 -8.41881e-20)
(1.04996 0.820607 0)
(1.01573 0.810795 0)
(0.98525 0.800535 5.26331e-19)
(0.951185 0.793443 8.41126e-20)
(0.915412 0.791718 -1.04561e-19)
(0.878677 0.793073 2.41614e-19)
(0.836285 0.789279 -9.10827e-20)
(0.775486 0.765082 -3.62816e-19)
(0.656581 0.678887 2.17997e-19)
(0.36359 0.390734 1.31701e-19)
(0.901796 0.120142 -1.11508e-20)
(1.04185 0.296825 -4.12071e-21)
(0.893628 0.266653 8.18485e-21)
(0.902832 0.210605 5.21854e-21)
(0.874392 0.190293 1.75867e-20)
(0.856365 0.192157 2.99182e-20)
(0.825425 0.20969 -1.57724e-20)
(0.77365 0.247391 -3.15919e-20)
(0.70595 0.305513 -8.41497e-20)
(0.456325 0.401208 1.40305e-19)
(0.901451 0.122462 -1.8031e-21)
(1.04198 0.30907 8.05292e-21)
(0.890915 0.277663 1.45959e-23)
(0.901095 0.217329 1.71197e-20)
(0.871862 0.195617 1.3739e-20)
(0.85769 0.198407 -3.87124e-20)
(0.833746 0.221432 -1.35247e-20)
(0.788796 0.266736 -1.55891e-22)
(0.731921 0.350643 2.34925e-19)
(0.502076 0.476443 -8.37284e-21)
(0.900974 0.125027 5.85531e-21)
(1.04212 0.321876 1.60169e-20)
(0.886688 0.288501 -1.4137e-20)
(0.89674 0.223935 -2.46776e-21)
(0.866821 0.200276 -1.62504e-20)
(0.856107 0.203539 3.94417e-21)
(0.838633 0.231441 1.97356e-20)
(0.802254 0.285333 -1.9791e-20)
(0.757677 0.392739 1.03371e-19)
(0.558732 0.547622 -3.98057e-19)
(0.900509 0.127838 1.08689e-21)
(1.04263 0.335427 -3.16738e-21)
(0.880652 0.299473 -1.61453e-20)
(0.88911 0.230232 -4.70983e-20)
(0.860395 0.204245 3.28233e-20)
(0.853048 0.207677 1.71278e-20)
(0.840506 0.239687 -2.35422e-20)
(0.813734 0.303078 9.31544e-20)
(0.784166 0.431979 -9.53634e-20)
(0.623783 0.61538 -3.74353e-19)
(0.900454 0.13082 2.89845e-21)
(1.04402 0.350041 -1.73744e-20)
(0.87238 0.311089 9.40058e-21)
(0.879058 0.235685 7.53377e-20)
(0.855363 0.207325 1.05026e-20)
(0.849924 0.211228 3.88509e-20)
(0.840187 0.246631 3.03306e-20)
(0.822727 0.319953 6.51539e-20)
(0.81007 0.46283 -2.54732e-20)
(0.712863 0.671567 2.98057e-19)
(0.901266 0.133678 6.63675e-21)
(1.04658 0.366119 5.77612e-22)
(0.862888 0.32363 -1.00611e-20)
(0.872365 0.240503 1.78872e-20)
(0.85423 0.209263 -3.31932e-20)
(0.847901 0.21475 4.04151e-21)
(0.839452 0.252905 -9.47526e-21)
(0.830116 0.335723 -1.88235e-19)
(0.839297 0.494219 0)
(0.770354 0.730751 -3.1547e-20)
(0.902686 0.136224 -8.85775e-21)
(1.05055 0.383426 8.74525e-21)
(0.858048 0.33603 1.80741e-21)
(0.877762 0.242732 -7.10463e-20)
(0.857036 0.210694 -1.64907e-20)
(0.848904 0.218758 -5.48488e-20)
(0.841926 0.259083 2.84599e-21)
(0.840899 0.350953 7.63681e-21)
(0.864517 0.508597 -5.8342e-21)
(0.908299 0.762803 9.70096e-19)
(0.904714 0.138276 -7.34865e-20)
(1.05747 0.400278 1.60758e-20)
(0.867107 0.348392 3.92519e-20)
(0.892957 0.242675 4.00676e-20)
(0.867333 0.212256 -8.67619e-20)
(0.860643 0.224307 1.17676e-20)
(0.856515 0.266232 -3.91075e-21)
(0.856045 0.368087 1.3356e-20)
(0.910193 0.530258 1.53569e-19)
(0.965791 0.818237 -1.25992e-19)
(0.905709 0.139054 2.29214e-20)
(1.07064 0.415336 -1.57618e-20)
(0.893218 0.356984 -1.42944e-20)
(0.920879 0.242464 9.89364e-20)
(0.907136 0.215436 6.54608e-21)
(0.90444 0.229233 1.79366e-20)
(0.90196 0.2713 -3.17884e-20)
(0.903207 0.376863 5.59683e-20)
(0.963398 0.530481 2.73406e-19)
(1.07418 0.827256 -6.64954e-19)
(0.90401 0.139081 4.30418e-20)
(1.09599 0.427182 -1.96421e-20)
(0.939441 0.359734 8.33266e-22)
(0.986283 0.240549 -2.72583e-20)
(0.985561 0.215815 6.83279e-20)
(0.98286 0.236118 -1.90637e-20)
(0.978213 0.28409 -7.2543e-21)
(0.967655 0.40682 5.73794e-20)
(1.05595 0.554368 -4.13839e-20)
(1.22953 0.880314 4.32183e-19)
(0.89091 0.131601 -8.82851e-21)
(1.15165 0.43458 -1.03095e-20)
(1.0435 0.361493 -7.55277e-21)
(1.11218 0.237804 -3.6548e-20)
(1.12992 0.212083 -4.34808e-20)
(1.14019 0.2372 -3.41731e-20)
(1.13046 0.285061 2.44339e-21)
(1.14571 0.396398 -1.3604e-19)
(1.20698 0.523016 -3.83492e-19)
(1.19375 0.86978 -3.00165e-20)
(0.864145 0.106462 -1.60641e-20)
(1.22935 0.409193 -2.6822e-20)
(1.19591 0.343285 6.78696e-21)
(1.28123 0.22841 -2.17989e-20)
(1.31974 0.202757 4.56835e-20)
(1.33793 0.236198 7.75399e-20)
(1.38428 0.274234 1.36896e-20)
(1.33175 0.40592 1.19267e-19)
(1.57574 0.506176 7.75264e-20)
(1.32231 0.775081 4.62598e-19)
(0.833474 0.0731356 -8.57256e-21)
(1.28582 0.352144 -9.22733e-21)
(1.31996 0.306667 4.12857e-21)
(1.42822 0.210953 1.11924e-20)
(1.48508 0.189175 1.34658e-34)
(1.51805 0.216636 -5.44159e-21)
(1.60739 0.271487 -5.62021e-34)
(1.5177 0.357486 1.97906e-20)
(1.91782 0.487754 -6.94786e-20)
(1.59868 0.707812 -3.58782e-19)
(0.811193 0.0393992 2.75198e-20)
(1.30832 0.269019 -7.53492e-35)
(1.39224 0.252019 -4.67981e-21)
(1.52277 0.185074 1.09072e-20)
(1.59442 0.17045 -2.2915e-20)
(1.63812 0.192458 -4.33615e-20)
(1.76273 0.259584 -6.87875e-34)
(1.66691 0.311271 -9.59685e-20)
(2.12511 0.446052 -1.35552e-19)
(1.90811 0.632883 3.89343e-19)
(0.80131 0.00763835 0)
(1.30374 0.174312 -1.6085e-34)
(1.4194 0.185451 0)
(1.57094 0.15296 0)
(1.65007 0.147995 0)
(1.7088 0.158797 0)
(1.83628 0.24012 -4.67917e-34)
(1.78855 0.256118 0)
(2.20303 0.368065 -2.28185e-20)
(2.13672 0.573553 2.26706e-19)
(0.802287 -0.0211601 8.6085e-21)
(1.28809 0.0779619 2.69654e-21)
(1.41244 0.110409 -5.71973e-21)
(1.57754 0.115634 0)
(1.66075 0.122164 0)
(1.73481 0.126753 5.86542e-21)
(1.84061 0.211803 4.04423e-20)
(1.8898 0.20174 -1.47543e-20)
(2.18475 0.287386 -3.20549e-20)
(2.25542 0.505012 1.75415e-19)
(0.813052 -0.0477364 -4.18368e-20)
(1.26404 -0.0155986 -8.55592e-21)
(1.36093 0.0351352 -6.14559e-21)
(1.52746 0.0763064 -2.24583e-20)
(1.61198 0.0912962 -1.19747e-20)
(1.70261 0.0958736 -9.3012e-21)
(1.78218 0.169581 -3.20961e-20)
(1.93237 0.153115 -3.41021e-20)
(2.08265 0.214386 -8.47277e-20)
(2.29356 0.412362 7.26894e-20)
(0.831386 -0.0687904 -1.33717e-20)
(1.2135 -0.0851631 -2.24037e-20)
(1.22117 -0.0264237 -6.70429e-21)
(1.36987 0.0403313 -8.56932e-21)
(1.44102 0.056629 7.17358e-35)
(1.54457 0.0643717 6.95462e-21)
(1.5981 0.113599 -1.01947e-33)
(1.8384 0.10598 -1.59942e-20)
(1.85253 0.149572 1.8076e-20)
(2.22873 0.290492 2.78678e-20)
(0.847674 -0.0915313 1.34614e-19)
(1.09255 -0.122676 -1.00468e-20)
(0.912525 -0.061268 -7.88878e-21)
(1.02112 0.0141098 1.29037e-20)
(1.06645 0.0234448 1.21749e-21)
(1.15549 0.0328447 1.17147e-20)
(1.21417 0.0545984 1.15728e-20)
(1.44703 0.0535846 -1.34313e-20)
(1.42523 0.0810229 -9.96666e-21)
(1.88921 0.143231 1.17612e-19)
(0.791148 -0.0530116 1.23843e-20)
(0.74673 -0.0610687 -9.72238e-35)
(0.374922 -0.0261575 -8.71221e-21)
(0.452693 0.0059622 0)
(0.461022 0.00510176 0)
(0.512269 0.00883945 7.50984e-21)
(0.567352 0.0127467 -1.00069e-35)
(0.6923 0.0163049 -1.62259e-20)
(0.717179 0.0212053 -2.41584e-20)
(1.01865 0.0394888 -4.38172e-20)
(1.52825 0.879051 1.74996e-19)
(1.70737 0.868474 -9.45865e-20)
(1.90943 0.838906 -3.19281e-21)
(2.08307 0.785627 8.28632e-20)
(2.21694 0.71511 -3.61402e-19)
(2.31882 0.641794 -5.81596e-19)
(2.40549 0.573313 -2.33371e-19)