/*--------------------------------*- C++ -*----------------------------------*\
| =========                 |                                                 |
| \\      /  F ield         | OpenFOAM: The Open Source CFD Toolbox           |
|  \\    /   O peration     | Version:  2406                                  |
|   \\  /    A nd           | Website:  www.openfoam.com                      |
|    \\/     M anipulation  |                                                 |
\*---------------------------------------------------------------------------*/
FoamFile
{
    version     2.0;
    format      ascii;
    arch        "LSB;label=32;scalar=64";
    class       volVectorField;
    location    "1.8";
    object      flux;
}
// * * * * * * * * * * * * * * * * * * * * * * * * * * * * * * * * * * * * * //

dimensions      [0 1 -1 1 0 0 0];

internalField   nonuniform List<vector> 
2500
(
(0.000903749 0.000903749 0)
(0.00270789 0.000909593 0)
(0.00450745 0.000921513 0)
(0.00630129 0.000939362 0)
(0.00808457 0.000963173 0)
(0.00985407 0.000992973 0)
(0.0116064 0.00102879 0)
(0.0133379 0.00107065 0)
(0.0150448 0.00111857 0)
(0.0167229 0.00117259 0)
(0.0183678 0.00123273 0)
(0.0199749 0.001299 0)
(0.0215392 0.0013714 0)
(0.0230552 0.00144993 0)
(0.0245174 0.00153457 0)
(0.0259197 0.00162528 0)
(0.027256 0.00172199 0)
(0.0285196 0.00182463 0)
(0.0297039 0.00193307 0)
(0.0308017 0.00204716 0)
(0.0318059 0.00216673 0)
(0.0327093 0.00229154 0)
(0.0335046 0.00242132 0)
(0.0341844 0.00255576 0)
(0.0347417 0.0026945 0)
(0.0351695 0.0028371 0)
(0.0354611 0.00298311 0)
(0.0356102 0.00313199 0)
(0.0356112 0.00328316 0)
(0.0354588 0.00343598 0)
(0.0351486 0.00358976 0)
(0.0346769 0.00374374 0)
(0.0340411 0.00389715 0)
(0.0332395 0.00404913 0)
(0.0322715 0.00419883 0)
(0.0311378 0.00434532 0)
(0.0298402 0.00448768 0)
(0.028382 0.00462498 0)
(0.0267678 0.00475626 0)
(0.0250034 0.00488059 0)
(0.0230963 0.00499705 0)
(0.0210551 0.00510477 0)
(0.0188898 0.00520289 0)
(0.0166117 0.00529064 0)
(0.0142333 0.00536732 0)
(0.0117678 0.00543229 0)
(0.00922975 0.00548504 0)
(0.00663411 0.00552513 0)
(0.00399672 0.00555203 0)
(0.00133481 0.00556432 0)
(0.000909593 0.00270789 0)
(0.00272565 0.00272565 0)
(0.00453722 0.00276135 0)
(0.00634295 0.00281488 0)
(0.00813818 0.00288631 0)
(0.00991968 0.00297571 0)
(0.0116841 0.00308317 0)
(0.0134277 0.00320876 0)
(0.0151467 0.00335256 0)
(0.016837 0.00351466 0)
(0.0184942 0.00369512 0)
(0.0201136 0.00389399 0)
(0.0216901 0.00411127 0)
(0.0232184 0.00434697 0)
(0.0246927 0.00460102 0)
(0.0261072 0.0048733 0)
(0.0274553 0.00516363 0)
(0.0287307 0.00547176 0)
(0.0299264 0.00579733 0)
(0.0310353 0.00613991 0)
(0.0320503 0.00649895 0)
(0.0329639 0.00687376 0)
(0.0337688 0.00726355 0)
(0.0344576 0.00766736 0)
(0.035023 0.00808411 0)
(0.0354581 0.00851252 0)
(0.035756 0.0089512 0)
(0.0359103 0.00939855 0)
(0.0359152 0.00985282 0)
(0.0357654 0.0103121 0)
(0.0354563 0.0107743 0)
(0.0349843 0.0112372 0)
(0.0343465 0.0116983 0)
(0.0335412 0.0121553 0)
(0.0325677 0.0126054 0)
(0.0314267 0.0130459 0)
(0.0301199 0.013474 0)
(0.0286506 0.013887 0)
(0.0270234 0.0142818 0)
(0.0252442 0.0146558 0)
(0.0233204 0.0150062 0)
(0.0212609 0.0153302 0)
(0.0190757 0.0156255 0)
(0.0167762 0.0158895 0)
(0.0143749 0.0161202 0)
(0.0118855 0.0163157 0)
(0.00932259 0.0164744 0)
(0.0067011 0.0165951 0)
(0.00403591 0.0166767 0)
(0.0013471 0.0167162 0)
(0.000921513 0.00450745 0)
(0.00276135 0.00453722 0)
(0.00459668 0.00459668 0)
(0.00642625 0.00468592 0)
(0.0082454 0.00480503 0)
(0.0100509 0.00495413 0)
(0.0118394 0.00513335 0)
(0.0136073 0.00534283 0)
(0.0153507 0.00558271 0)
(0.0170654 0.00585313 0)
(0.0187472 0.00615419 0)
(0.0203911 0.006486 0)
(0.0219922 0.00684858 0)
(0.0235449 0.00724192 0)
(0.0250437 0.00766593 0)
(0.0264823 0.00812042 0)
(0.0278545 0.00860511 0)
(0.0291533 0.00911957 0)
(0.030372 0.00966325 0)
(0.0315033 0.0102354 0)
(0.0325397 0.0108351 0)
(0.0334739 0.0114613 0)
(0.0342982 0.0121126 0)
(0.035005 0.0127875 0)
(0.0355869 0.0134841 0)
(0.0360366 0.0142003 0)
(0.0363471 0.0149338 0)
(0.0365119 0.015682 0)
(0.0365247 0.0164418 0)
(0.0363803 0.0172102 0)
(0.0360736 0.0179836 0)
(0.035601 0.0187583 0)
(0.0349592 0.0195303 0)
(0.0341466 0.0202954 0)
(0.0331621 0.0210491 0)
(0.0320065 0.0217869 0)
(0.0306813 0.0225041 0)
(0.0291898 0.0231959 0)
(0.0275366 0.0238576 0)
(0.0257277 0.0244844 0)
(0.0237707 0.0250717 0)
(0.0216743 0.025615 0)
(0.0194491 0.0261099 0)
(0.0171065 0.0265526 0)
(0.0146594 0.0269395 0)
(0.012122 0.0272672 0)
(0.00950915 0.0275332 0)
(0.00683646 0.0277352 0)
(0.00411782 0.0278717 0)
(0.00137426 0.0279399 0)
(0.000939362 0.00630129 0)
(0.00281488 0.00634295 0)
(0.00468592 0.00642625 0)
(0.0065513 0.0065513 0)
(0.0084064 0.00671825 0)
(0.010248 0.00692724 0)
(0.0120728 0.00717846 0)
(0.013877 0.00747213 0)
(0.015657 0.00780844 0)
(0.0174085 0.00818761 0)
(0.0191271 0.00860981 0)
(0.020808 0.00907516 0)
(0.022446 0.00958376 0)
(0.0240357 0.0101356 0)
(0.0255712 0.0107305 0)
(0.0270463 0.0113684 0)
(0.0284545 0.0120487 0)
(0.0297888 0.012771 0)
(0.0310422 0.0135344 0)
(0.0322072 0.014338 0)
(0.0332762 0.0151805 0)
(0.0342414 0.0160604 0)
(0.0350949 0.0169759 0)
(0.035829 0.0179246 0)
(0.0364359 0.0189042 0)
(0.0369078 0.0199116 0)
(0.0372376 0.0209437 0)
(0.0374183 0.0219966 0)
(0.0374434 0.0230663 0)
(0.0373072 0.0241483 0)
(0.0370044 0.0252377 0)
(0.036531 0.0263292 0)
(0.0358836 0.0274171 0)
(0.03506 0.0284957 0)
(0.0340592 0.0295585 0)
(0.0328817 0.0305991 0)
(0.0315289 0.031611 0)
(0.0300041 0.0325873 0)
(0.0283119 0.0335213 0)
(0.0264583 0.0344062 0)
(0.024451 0.0352355 0)
(0.0222991 0.0360028 0)
(0.0200134 0.036702 0)
(0.0176057 0.0373275 0)
(0.0150895 0.037874 0)
(0.0124792 0.038337 0)
(0.00979057 0.0387126 0)
(0.00703964 0.0389975 0)
(0.0042406 0.0391891 0)
(0.00141528 0.0392853 0)
(0.000963173 0.00808457 0)
(0.00288631 0.00813818 0)
(0.00480503 0.0082454 0)
(0.00671825 0.0084064 0)
(0.00862133 0.00862133 0)
(0.0105111 0.00889043 0)
(0.0123843 0.00921395 0)
(0.0142373 0.00959216 0)
(0.0160662 0.0100253 0)
(0.0178668 0.0105138 0)
(0.0196347 0.0110578 0)
(0.021365 0.0116575 0)
(0.0230526 0.012313 0)
(0.0246917 0.0130244 0)
(0.0262765 0.0137915 0)
(0.0278005 0.0146142 0)
(0.0292571 0.0154919 0)
(0.030639 0.0164239 0)
(0.0319391 0.0174093 0)
(0.0331494 0.0184469 0)
(0.0342622 0.0195351 0)
(0.0352692 0.0206718 0)
(0.0361623 0.0218549 0)
(0.0369333 0.0230814 0)
(0.0375739 0.0243482 0)
(0.0380761 0.0256516 0)
(0.0384321 0.0269872 0)
(0.0386345 0.0283504 0)
(0.0386765 0.0297358 0)
(0.0385516 0.0311376 0)
(0.0382545 0.0325496 0)
(0.0377804 0.0339648 0)
(0.0371257 0.035376 0)
(0.0362879 0.0367754 0)
(0.0352656 0.0381549 0)
(0.034059 0.0395062 0)
(0.0326695 0.0408205 0)
(0.0311001 0.0420891 0)
(0.0293556 0.0433031 0)
(0.027442 0.0444537 0)
(0.0253673 0.0455322 0)
(0.0231408 0.0465303 0)
(0.0207737 0.0474401 0)
(0.0182785 0.0482541 0)
(0.015669 0.0489654 0)
(0.0129606 0.0495681 0)
(0.0101696 0.050057 0)
(0.00731299 0.0504276 0)
(0.00440566 0.0506767 0)
(0.00147046 0.0508018 0)
(0.000992973 0.00985407 0)
(0.00297571 0.00991968 0)
(0.00495413 0.0100509 0)
(0.00692724 0.010248 0)
(0.00889043 0.0105111 0)
(0.0108406 0.0108406 0)
(0.0127745 0.0112368 0)
(0.0146885 0.0117 0)
(0.0165787 0.0122306 0)
(0.018441 0.012829 0)
(0.0202708 0.0134955 0)
(0.0220632 0.0142305 0)
(0.0238129 0.0150341 0)
(0.0255143 0.0159064 0)
(0.027161 0.0168474 0)
(0.0287467 0.0178567 0)
(0.0302642 0.0189339 0)
(0.0317063 0.0200781 0)
(0.0330652 0.0212883 0)
(0.0343329 0.0225631 0)
(0.0355011 0.0239005 0)
(0.0365612 0.0252981 0)
(0.0375045 0.0267533 0)
(0.0383224 0.0282627 0)
(0.039006 0.0298222 0)
(0.0395468 0.0314274 0)
(0.0399364 0.0330731 0)
(0.0401669 0.0347536 0)
(0.0402307 0.0364622 0)
(0.040121 0.038192 0)
(0.0398316 0.039935 0)
(0.0393574 0.0416829 0)
(0.0386942 0.0434266 0)
(0.0378389 0.0451566 0)
(0.0367901 0.0468628 0)
(0.0355473 0.0485348 0)
(0.0341118 0.0501618 0)
(0.0324867 0.0517328 0)
(0.0306764 0.0532368 0)
(0.0286874 0.0546628 0)
(0.0265276 0.056 0)
(0.024207 0.0572379 0)
(0.0217371 0.0583666 0)
(0.019131 0.0593766 0)
(0.0164036 0.0602595 0)
(0.0135708 0.0610077 0)
(0.01065 0.0616145 0)
(0.00765935 0.0620746 0)
(0.00461476 0.0623837 0)
(0.00154037 0.062539 0)
(0.00102879 0.0116064 0)
(0.00308317 0.0116841 0)
(0.00513335 0.0118394 0)
(0.00717846 0.0120728 0)
(0.00921395 0.0123843 0)
(0.0112368 0.0127745 0)
(0.0132437 0.0132437 0)
(0.0152311 0.0137923 0)
(0.0171952 0.014421 0)
(0.0191318 0.0151301 0)
(0.0210362 0.0159202 0)
(0.0229036 0.0167916 0)
(0.0247285 0.0177446 0)
(0.026505 0.0187794 0)
(0.0282267 0.0198961 0)
(0.029887 0.0210942 0)
(0.0314785 0.0223734 0)
(0.0329935 0.0237328 0)
(0.034424 0.0251712 0)
(0.0357615 0.026687 0)
(0.0369972 0.0282779 0)
(0.0381221 0.0299414 0)
(0.0391268 0.0316741 0)
(0.0400021 0.0334722 0)
(0.0407386 0.0353312 0)
(0.041327 0.0372456 0)
(0.0417582 0.0392094 0)
(0.0420236 0.0412157 0)
(0.0421148 0.0432568 0)
(0.0420244 0.0453243 0)
(0.0417454 0.0474089 0)
(0.0412721 0.0495005 0)
(0.0405995 0.0515883 0)
(0.0397241 0.0536608 0)
(0.0386438 0.055706 0)
(0.0373579 0.0577112 0)
(0.0358675 0.0596635 0)
(0.0341751 0.0615496 0)
(0.0322856 0.0633562 0)
(0.0302052 0.0650698 0)
(0.0279423 0.0666774 0)
(0.0255074 0.0681662 0)
(0.0229124 0.0695241 0)
(0.0201714 0.0707397 0)
(0.0173001 0.0718027 0)
(0.0143156 0.0727035 0)
(0.0112365 0.0734343 0)
(0.00808219 0.0739885 0)
(0.00487004 0.0743608 0)
(0.00162571 0.0745478 0)
(0.00107065 0.0133379 0)
(0.00320876 0.0134277 0)
(0.00534283 0.0136073 0)
(0.00747213 0.013877 0)
(0.00959216 0.0142373 0)
(0.0117 0.0146885 0)
(0.0137923 0.0152311 0)
(0.0158658 0.0158658 0)
(0.0179164 0.0165931 0)
(0.0199401 0.0174138 0)
(0.0219322 0.0183284 0)
(0.0238876 0.0193375 0)
(0.0258008 0.0204414 0)
(0.0276657 0.0216406 0)
(0.0294758 0.022935 0)
(0.031224 0.0243246 0)
(0.0329028 0.0258087 0)
(0.0345041 0.0273866 0)
(0.0360193 0.0290571 0)
(0.0374396 0.0308182 0)
(0.0387555 0.0326677 0)
(0.0399574 0.0346027 0)
(0.0410354 0.0366193 0)
(0.0419794 0.0387133 0)
(0.0427793 0.0408794 0)
(0.043425 0.0431116 0)
(0.0439065 0.0454028 0)
(0.0442143 0.0477452 0)
(0.0443394 0.0501298 0)
(0.0442731 0.0525468 0)
(0.0440078 0.0549854 0)
(0.0435368 0.0574339 0)
(0.0428545 0.0598795 0)
(0.0419567 0.0623089 0)
(0.0408405 0.0647078 0)
(0.0395048 0.0670613 0)
(0.0379502 0.0693541 0)
(0.0361793 0.0715705 0)
(0.0341966 0.0736947 0)
(0.0320086 0.0757107 0)
(0.029624 0.0776029 0)
(0.0270538 0.0793562 0)
(0.0243106 0.080956 0)
(0.0214096 0.0823887 0)
(0.0183673 0.0836419 0)
(0.0152025 0.0847043 0)
(0.011935 0.0855664 0)
(0.00858579 0.0862201 0)
(0.00517408 0.0866594 0)
(0.00172736 0.0868801 0)
(0.00111857 0.0150448 0)
(0.00335256 0.0151467 0)
(0.00558271 0.0153507 0)
(0.00780844 0.015657 0)
(0.0100253 0.0160662 0)
(0.0122306 0.0165787 0)
(0.014421 0.0171952 0)
(0.0165931 0.0179164 0)
(0.0187432 0.0187432 0)
(0.020867 0.0196763 0)
(0.0229599 0.0207166 0)
(0.0250167 0.0218646 0)
(0.0270316 0.0231212 0)
(0.0289986 0.0244866 0)
(0.0309107 0.0259611 0)
(0.0327607 0.0275448 0)
(0.0345406 0.0292371 0)
(0.0362419 0.0310373 0)
(0.0378556 0.0329441 0)
(0.0393722 0.0349557 0)
(0.0407817 0.0370694 0)
(0.0420737 0.0392822 0)
(0.0432375 0.04159 0)
(0.0442623 0.0439879 0)
(0.0451369 0.0464701 0)
(0.0458504 0.0490299 0)
(0.0463918 0.0516593 0)
(0.0467506 0.0543495 0)
(0.0469165 0.0570902 0)
(0.04688 0.0598703 0)
(0.0466325 0.0626775 0)
(0.0461662 0.0654981 0)
(0.0454745 0.0683178 0)
(0.0445524 0.0711208 0)
(0.0433962 0.0738906 0)
(0.0420043 0.0766102 0)
(0.0403767 0.0792615 0)
(0.0385157 0.0818263 0)
(0.0364257 0.0842859 0)
(0.0341134 0.0866218 0)
(0.0315879 0.0888155 0)
(0.0288605 0.0908494 0)
(0.025945 0.0927061 0)
(0.0228574 0.0943697 0)
(0.0196157 0.0958254 0)
(0.0162401 0.0970599 0)
(0.0127523 0.0980619 0)
(0.00917523 0.0988219 0)
(0.00552999 0.0993327 0)
(0.00184636 0.0995893 0)
(0.00117259 0.0167229 0)
(0.00351466 0.016837 0)
(0.00585313 0.0170654 0)
(0.00818761 0.0174085 0)
(0.0105138 0.0178668 0)
(0.012829 0.018441 0)
(0.0151301 0.0191318 0)
(0.0174138 0.0199401 0)
(0.0196763 0.020867 0)
(0.0219135 0.0219135 0)
(0.0241205 0.0230805 0)
(0.0262922 0.0243689 0)
(0.0284228 0.0257797 0)
(0.0305057 0.0273134 0)
(0.032534 0.0289706 0)
(0.0345 0.0307513 0)
(0.0363954 0.0326553 0)
(0.0382111 0.0346818 0)
(0.0399377 0.0368297 0)
(0.0415649 0.0390971 0)
(0.043082 0.0414813 0)
(0.044478 0.0439791 0)
(0.0457411 0.046586 0)
(0.0468596 0.0492968 0)
(0.0478213 0.0521052 0)
(0.0486142 0.0550036 0)
(0.0492261 0.0579834 0)
(0.0496452 0.0610346 0)
(0.0498602 0.0641459 0)
(0.0498603 0.0673047 0)
(0.0496356 0.0704969 0)
(0.0491771 0.0737074 0)
(0.0484771 0.0769195 0)
(0.0475295 0.0801154 0)
(0.0463299 0.0832764 0)
(0.0448756 0.0863825 0)
(0.0431663 0.0894131 0)
(0.0412037 0.0923472 0)
(0.0389921 0.0951631 0)
(0.0365382 0.0978394 0)
(0.0338516 0.100355 0)
(0.0309443 0.102688 0)
(0.027831 0.104819 0)
(0.0245289 0.10673 0)
(0.0210576 0.108402 0)
(0.017439 0.109821 0)
(0.013697 0.110974 0)
(0.00985659 0.111848 0)
(0.00594145 0.112435 0)
(0.00198394 0.112731 0)
(0.00123273 0.0183678 0)
(0.00369512 0.0184942 0)
(0.00615419 0.0187472 0)
(0.00860981 0.0191271 0)
(0.0110578 0.0196347 0)
(0.0134955 0.0202708 0)
(0.0159202 0.0210362 0)
(0.0183284 0.0219322 0)
(0.0207166 0.0229599 0)
(0.0230805 0.0241205 0)
(0.0254153 0.0254153 0)
(0.0277159 0.0268456 0)
(0.0299761 0.0284123 0)
(0.0321895 0.0301165 0)
(0.0343485 0.0319588 0)
(0.0364454 0.0339396 0)
(0.0384711 0.0360588 0)
(0.0404164 0.0383161 0)
(0.0422709 0.0407101 0)
(0.0440238 0.0432392 0)
(0.0456636 0.0459006 0)
(0.0471783 0.048691 0)
(0.0485552 0.0516058 0)
(0.0497814 0.0546393 0)
(0.0508437 0.0577849 0)
(0.0517286 0.0610343 0)
(0.0524228 0.064378 0)
(0.052913 0.0678051 0)
(0.0531865 0.0713031 0)
(0.0532311 0.0748579 0)
(0.0530352 0.078454 0)
(0.0525887 0.0820742 0)
(0.0518825 0.0856998 0)
(0.0509092 0.0893107 0)
(0.0496633 0.0928856 0)
(0.0481411 0.0964018 0)
(0.0463414 0.0998358 0)
(0.0442657 0.103163 0)
(0.0419179 0.10636 0)
(0.0393048 0.1094 0)
(0.0364363 0.112259 0)
(0.0333251 0.114914 0)
(0.029987 0.117341 0)
(0.0264406 0.119517 0)
(0.0227074 0.121424 0)
(0.0188114 0.123042 0)
(0.0147786 0.124356 0)
(0.010637 0.125353 0)
(0.00641278 0.126024 0)
(0.00214155 0.126361 0)
(0.001299 0.0199749 0)
(0.00389399 0.0201136 0)
(0.006486 0.0203911 0)
(0.00907516 0.020808 0)
(0.0116575 0.021365 0)
(0.0142305 0.0220632 0)
(0.0167916 0.0229036 0)
(0.0193375 0.0238876 0)
(0.0218646 0.0250167 0)
(0.0243689 0.0262922 0)
(0.0268456 0.0277159 0)
(0.0292892 0.0292892 0)
(0.0316936 0.0310135 0)
(0.0340522 0.0328902 0)
(0.0363571 0.0349202 0)
(0.0386001 0.0371042 0)
(0.0407719 0.0394425 0)
(0.0428624 0.0419348 0)
(0.0448608 0.0445803 0)
(0.0467554 0.0473772 0)
(0.0485339 0.0503231 0)
(0.0501831 0.0534143 0)
(0.0516895 0.0566464 0)
(0.0530387 0.0600133 0)
(0.0542163 0.063508 0)
(0.0552073 0.0671217 0)
(0.0559969 0.0708442 0)
(0.0565703 0.0746636 0)
(0.0569131 0.0785661 0)
(0.0570113 0.0825365 0)
(0.0568519 0.0865573 0)
(0.0564228 0.0906095 0)
(0.0557136 0.0946722 0)
(0.0547153 0.098723 0)
(0.053421 0.102738 0)
(0.0518258 0.106691 0)
(0.0499278 0.110555 0)
(0.0477275 0.114304 0)
(0.0452287 0.117908 0)
(0.042438 0.12134 0)
(0.0393658 0.12457 0)
(0.0360255 0.127572 0)
(0.0324341 0.130317 0)
(0.0286118 0.132781 0)
(0.0245822 0.134941 0)
(0.0203715 0.136775 0)
(0.0160087 0.138266 0)
(0.0115247 0.139397 0)
(0.00694903 0.140158 0)
(0.00232088 0.14054 0)
(0.0013714 0.0215392 0)
(0.00411127 0.0216901 0)
(0.00684858 0.0219922 0)
(0.00958376 0.022446 0)
(0.012313 0.0230526 0)
(0.0150341 0.0238129 0)
(0.0177446 0.0247285 0)
(0.0204414 0.0258008 0)
(0.0231212 0.0270316 0)
(0.0257797 0.0284228 0)
(0.0284123 0.0299761 0)
(0.0310135 0.0316936 0)
(0.0335771 0.0335771 0)
(0.0360961 0.0356282 0)
(0.0385626 0.0378484 0)
(0.0409677 0.0402387 0)
(0.0433018 0.0427998 0)
(0.0455541 0.0455318 0)
(0.0477132 0.0484341 0)
(0.0497665 0.0515052 0)
(0.0517007 0.0547429 0)
(0.0535016 0.0581437 0)
(0.0551542 0.061703 0)
(0.0566431 0.0654147 0)
(0.0579521 0.0692714 0)
(0.0590648 0.0732639 0)
(0.0599647 0.0773813 0)
(0.060635 0.0816107 0)
(0.0610594 0.0859374 0)
(0.0612222 0.0903445 0)
(0.0611082 0.0948132 0)
(0.0607037 0.0993222 0)
(0.0599961 0.103849 0)
(0.0589747 0.108367 0)
(0.0576309 0.112851 0)
(0.0559587 0.117271 0)
(0.0539547 0.121597 0)
(0.0516187 0.125798 0)
(0.0489537 0.129842 0)
(0.0459666 0.133696 0)
(0.0426679 0.137327 0)
(0.0390719 0.140704 0)
(0.0351968 0.143796 0)
(0.0310648 0.146574 0)
(0.0267014 0.14901 0)
(0.0221359 0.151079 0)
(0.0174004 0.152762 0)
(0.0125294 0.15404 0)
(0.00755607 0.154899 0)
(0.00252391 0.155331 0)
(0.00144993 0.0230552 0)
(0.00434697 0.0232184 0)
(0.00724192 0.0235449 0)
(0.0101356 0.0240357 0)
(0.0130244 0.0246917 0)
(0.0159064 0.0255143 0)
(0.0187794 0.026505 0)
(0.0216406 0.0276657 0)
(0.0244866 0.0289986 0)
(0.0273134 0.0305057 0)
(0.0301165 0.0321895 0)
(0.0328902 0.0340522 0)
(0.0356282 0.0360961 0)
(0.0383235 0.0383235 0)
(0.0409676 0.0407361 0)
(0.0435515 0.0433356 0)
(0.046065 0.0461231 0)
(0.0484966 0.0490992 0)
(0.0508342 0.0522637 0)
(0.0530642 0.0556155 0)
(0.0551724 0.0591527 0)
(0.0571432 0.062872 0)
(0.0589605 0.0667689 0)
(0.0606071 0.0708373 0)
(0.0620654 0.0750696 0)
(0.0633171 0.0794563 0)
(0.0643437 0.0839859 0)
(0.0651265 0.0886447 0)
(0.0656469 0.0934168 0)
(0.065887 0.0982841 0)
(0.0658295 0.103226 0)
(0.0654582 0.108219 0)
(0.0647585 0.113238 0)
(0.0637175 0.118256 0)
(0.0623246 0.123241 0)
(0.0605721 0.128162 0)
(0.0584552 0.132984 0)
(0.0559725 0.137674 0)
(0.0531264 0.142193 0)
(0.0499235 0.146504 0)
(0.0463744 0.150572 0)
(0.0424945 0.154358 0)
(0.0383034 0.157828 0)
(0.033825 0.160947 0)
(0.0290877 0.163685 0)
(0.0241239 0.166013 0)
(0.0189692 0.167907 0)
(0.0136622 0.169345 0)
(0.00824071 0.170313 0)
(0.00275292 0.1708 0)
(0.00153457 0.0245174 0)
(0.00460102 0.0246927 0)
(0.00766593 0.0250437 0)
(0.0107305 0.0255712 0)
(0.0137915 0.0262765 0)
(0.0168474 0.027161 0)
(0.0198961 0.0282267 0)
(0.022935 0.0294758 0)
(0.0259611 0.0309107 0)
(0.0289706 0.032534 0)
(0.0319588 0.0343485 0)
(0.0349202 0.0363571 0)
(0.0378484 0.0385626 0)
(0.0407361 0.0409676 0)
(0.0435747 0.0435747 0)
(0.0463548 0.0463861 0)
(0.0490654 0.0494035 0)
(0.0516947 0.0526279 0)
(0.0542295 0.0560599 0)
(0.0566555 0.0596988 0)
(0.0589572 0.0635432 0)
(0.0611178 0.0675901 0)
(0.0631196 0.0718352 0)
(0.0649439 0.0762728 0)
(0.0665711 0.080895 0)
(0.0679811 0.0856922 0)
(0.069153 0.0906523 0)
(0.0700659 0.095761 0)
(0.0706988 0.101002 0)
(0.0710313 0.106354 0)
(0.0710433 0.111797 0)
(0.0707162 0.117304 0)
(0.0700325 0.122849 0)
(0.0689771 0.128399 0)
(0.0675371 0.133922 0)
(0.0657024 0.139382 0)
(0.0634666 0.14474 0)
(0.0608268 0.149957 0)
(0.0577845 0.154992 0)
(0.0543458 0.159802 0)
(0.0505216 0.164345 0)
(0.046328 0.168578 0)
(0.0417861 0.172462 0)
(0.0369221 0.175957 0)
(0.0317673 0.179027 0)
(0.0263574 0.181639 0)
(0.0207326 0.183765 0)
(0.0149361 0.185382 0)
(0.00901082 0.186469 0)
(0.00301056 0.187016 0)
(0.00162528 0.0259197 0)
(0.0048733 0.0261072 0)
(0.00812042 0.0264823 0)
(0.0113684 0.0270463 0)
(0.0146142 0.0278005 0)
(0.0178567 0.0287467 0)
(0.0210942 0.029887 0)
(0.0243246 0.031224 0)
(0.0275448 0.0327607 0)
(0.0307513 0.0345 0)
(0.0339396 0.0364454 0)
(0.0371042 0.0386001 0)
(0.0402387 0.0409677 0)
(0.0433356 0.0435515 0)
(0.0463861 0.0463548 0)
(0.0493803 0.0493803 0)
(0.0523068 0.0526305 0)
(0.055153 0.0561073 0)
(0.0579051 0.0598117 0)
(0.0605475 0.063744 0)
(0.0630636 0.0679031 0)
(0.0654353 0.0722867 0)
(0.0676432 0.076891 0)
(0.0696669 0.0817103 0)
(0.0714848 0.0867372 0)
(0.0730744 0.0919618 0)
(0.0744126 0.0973719 0)
(0.0754757 0.102952 0)
(0.0762402 0.108686 0)
(0.0766824 0.114551 0)
(0.0767797 0.120525 0)
(0.07651 0.126579 0)
(0.0758531 0.132684 0)
(0.0747908 0.138805 0)
(0.0733074 0.144906 0)
(0.0713903 0.150947 0)
(0.0690308 0.156885 0)
(0.0662242 0.162675 0)
(0.0629709 0.168271 0)
(0.0592761 0.173625 0)
(0.0551509 0.178688 0)
(0.050612 0.183413 0)
(0.0456821 0.187752 0)
(0.04039 0.191661 0)
(0.03477 0.195098 0)
(0.0288622 0.198024 0)
(0.0227114 0.200408 0)
(0.0163662 0.202221 0)
(0.00987556 0.203442 0)
(0.0032999 0.204055 0)
(0.00172199 0.027256 0)
(0.00516363 0.0274553 0)
(0.00860511 0.0278545 0)
(0.0120487 0.0284545 0)
(0.0154919 0.0292571 0)
(0.0189339 0.0302642 0)
(0.0223734 0.0314785 0)
(0.0258087 0.0329028 0)
(0.0292371 0.0345406 0)
(0.0326553 0.0363954 0)
(0.0360588 0.0384711 0)
(0.0394425 0.0407719 0)
(0.0427998 0.0433018 0)
(0.0461231 0.046065 0)
(0.0494035 0.0490654 0)
(0.0526305 0.0523068 0)
(0.0557924 0.0557924 0)
(0.0588759 0.059525 0)
(0.0618662 0.0635065 0)
(0.0647469 0.0677379 0)
(0.0674999 0.0722189 0)
(0.0701057 0.0769482 0)
(0.0725433 0.0819223 0)
(0.0747902 0.0871363 0)
(0.0768226 0.0925829 0)
(0.0786157 0.0982525 0)
(0.0801436 0.104133 0)
(0.0813799 0.110208 0)
(0.0822976 0.11646 0)
(0.0828702 0.122868 0)
(0.0830712 0.129404 0)
(0.0828753 0.136041 0)
(0.0822586 0.142745 0)
(0.0811995 0.149479 0)
(0.0796789 0.156202 0)
(0.0776812 0.162871 0)
(0.0751948 0.169438 0)
(0.072213 0.175852 0)
(0.0687342 0.18206 0)
(0.0647627 0.18801 0)
(0.0603095 0.193645 0)
(0.0553918 0.19891 0)
(0.0500341 0.203752 0)
(0.0442677 0.208119 0)
(0.0381308 0.211962 0)
(0.0316678 0.215238 0)
(0.0249291 0.217908 0)
(0.0179697 0.21994 0)
(0.0108455 0.221309 0)
(0.0036245 0.221998 0)
(0.00182463 0.0285196 0)
(0.00547176 0.0287307 0)
(0.00911957 0.0291533 0)
(0.012771 0.0297888 0)
(0.0164239 0.030639 0)
(0.0200781 0.0317063 0)
(0.0237328 0.0329935 0)
(0.0273866 0.0345041 0)
(0.0310373 0.0362419 0)
(0.0346818 0.0382111 0)
(0.0383161 0.0404164 0)
(0.0419348 0.0428624 0)
(0.0455318 0.0455541 0)
(0.0490992 0.0484966 0)
(0.0526279 0.0516947 0)
(0.0561073 0.055153 0)
(0.059525 0.0588759 0)
(0.0628671 0.0628671 0)
(0.0661179 0.0671296 0)
(0.0692599 0.0716653 0)
(0.0722739 0.0764751 0)
(0.0751387 0.0815584 0)
(0.0778314 0.0869129 0)
(0.0803276 0.0925342 0)
(0.082601 0.0984157 0)
(0.0846241 0.104548 0)
(0.0863682 0.110919 0)
(0.0878034 0.117513 0)
(0.0888996 0.124312 0)
(0.0896262 0.131292 0)
(0.089953 0.138426 0)
(0.0898506 0.145683 0)
(0.0892909 0.153028 0)
(0.0882483 0.16042 0)
(0.0866996 0.167815 0)
(0.0846256 0.175164 0)
(0.0820113 0.182414 0)
(0.0788471 0.189508 0)
(0.0751291 0.196388 0)
(0.0708604 0.202992 0)
(0.0660511 0.209257 0)
(0.0607193 0.21512 0)
(0.054891 0.220519 0)
(0.0486004 0.225395 0)
(0.0418895 0.229691 0)
(0.0348083 0.233356 0)
(0.0274133 0.236347 0)
(0.0197669 0.238623 0)
(0.011933 0.240158 0)
(0.0039885 0.24093 0)
(0.00193307 0.0297039 0)
(0.00579733 0.0299264 0)
(0.00966325 0.030372 0)
(0.0135344 0.0310422 0)
(0.0174093 0.0319391 0)
(0.0212883 0.0330652 0)
(0.0251712 0.034424 0)
(0.0290571 0.0360193 0)
(0.0329441 0.0378556 0)
(0.0368297 0.0399377 0)
(0.0407101 0.0422709 0)
(0.0445803 0.0448608 0)
(0.0484341 0.0477132 0)
(0.0522637 0.0508342 0)
(0.0560599 0.0542295 0)
(0.0598117 0.0579051 0)
(0.0635065 0.0618662 0)
(0.0671296 0.0661179 0)
(0.0706644 0.0706644 0)
(0.0740924 0.0755089 0)
(0.077393 0.0806535 0)
(0.0805435 0.0860987 0)
(0.0835191 0.0918434 0)
(0.0862929 0.0978843 0)
(0.0888364 0.104216 0)
(0.0911191 0.110829 0)
(0.0931089 0.117712 0)
(0.0947726 0.12485 0)
(0.096076 0.132223 0)
(0.0969843 0.139808 0)
(0.0974628 0.147576 0)
(0.0974775 0.155496 0)
(0.0969957 0.163527 0)
(0.0959866 0.171627 0)
(0.0944226 0.179747 0)
(0.0922798 0.187833 0)
(0.0895391 0.195827 0)
(0.0861873 0.203666 0)
(0.0822176 0.211282 0)
(0.0776312 0.218607 0)
(0.0724372 0.225568 0)
(0.066654 0.232093 0)
(0.0603091 0.238112 0)
(0.0534398 0.243555 0)
(0.0460927 0.248358 0)
(0.0383234 0.25246 0)
(0.030196 0.255809 0)
(0.0217812 0.258361 0)
(0.0131524 0.260082 0)
(0.00439673 0.260948 0)
(0.00204716 0.0308017 0)
(0.00613991 0.0310353 0)
(0.0102354 0.0315033 0)
(0.014338 0.0322072 0)
(0.0184469 0.0331494 0)
(0.0225631 0.0343329 0)
(0.026687 0.0357615 0)
(0.0308182 0.0374396 0)
(0.0349557 0.0393722 0)
(0.0390971 0.0415649 0)
(0.0432392 0.0440238 0)
(0.0473772 0.0467554 0)
(0.0515052 0.0497665 0)
(0.0556155 0.0530642 0)
(0.0596988 0.0566555 0)
(0.063744 0.0605475 0)
(0.0677379 0.0647469 0)
(0.0716653 0.0692599 0)
(0.0755089 0.0740924 0)
(0.079249 0.079249 0)
(0.0828637 0.0847333 0)
(0.0863286 0.0905473 0)
(0.089617 0.0966913 0)
(0.0926997 0.103163 0)
(0.0955454 0.109959 0)
(0.0981203 0.11707 0)
(0.100389 0.124487 0)
(0.102314 0.132193 0)
(0.103858 0.140171 0)
(0.10498 0.148395 0)
(0.105641 0.156837 0)
(0.105801 0.165461 0)
(0.105422 0.174228 0)
(0.104468 0.18309 0)
(0.102906 0.191994 0)
(0.100706 0.200881 0)
(0.0978438 0.209687 0)
(0.0943019 0.218341 0)
(0.0900698 0.226767 0)
(0.0851459 0.234888 0)
(0.0795379 0.242621 0)
(0.0732639 0.249884 0)
(0.0663532 0.256594 0)
(0.0588459 0.262673 0)
(0.0507939 0.268043 0)
(0.0422593 0.272636 0)
(0.0333144 0.276389 0)
(0.0240401 0.279252 0)
(0.0145203 0.281183 0)
(0.00485481 0.282156 0)
(0.00216673 0.0318059 0)
(0.00649895 0.0320503 0)
(0.0108351 0.0325397 0)
(0.0151805 0.0332762 0)
(0.0195351 0.0342622 0)
(0.0239005 0.0355011 0)
(0.0282779 0.0369972 0)
(0.0326677 0.0387555 0)
(0.0370694 0.0407817 0)
(0.0414813 0.043082 0)
(0.0459006 0.0456636 0)
(0.0503231 0.0485339 0)
(0.0547429 0.0517007 0)
(0.0591527 0.0551724 0)
(0.0635432 0.0589572 0)
(0.0679031 0.0630636 0)
(0.0722189 0.0674999 0)
(0.0764751 0.0722739 0)
(0.0806535 0.077393 0)
(0.0847333 0.0828637 0)
(0.0886913 0.0886913 0)
(0.0925015 0.0948797 0)
(0.0961351 0.101431 0)
(0.0995605 0.108345 0)
(0.102743 0.115618 0)
(0.105647 0.123245 0)
(0.108232 0.131216 0)
(0.110456 0.139516 0)
(0.112277 0.148128 0)
(0.11365 0.157026 0)
(0.114529 0.166182 0)
(0.114869 0.175558 0)
(0.114624 0.185112 0)
(0.113753 0.194794 0)
(0.112214 0.204547 0)
(0.109973 0.214305 0)
(0.106999 0.223998 0)
(0.103267 0.233546 0)
(0.0987647 0.242866 0)
(0.0934848 0.251868 0)
(0.0874332 0.26046 0)
(0.0806275 0.268546 0)
(0.073098 0.276031 0)
(0.0648884 0.282823 0)
(0.0560556 0.288833 0)
(0.0466696 0.293979 0)
(0.0368122 0.298191 0)
(0.0265755 0.301405 0)
(0.0160566 0.303576 0)
(0.00536938 0.304669 0)
(0.00229154 0.0327093 0)
(0.00687376 0.0329639 0)
(0.0114613 0.0334739 0)
(0.0160604 0.0342414 0)
(0.0206718 0.0352692 0)
(0.0252981 0.0365612 0)
(0.0299414 0.0381221 0)
(0.0346027 0.0399574 0)
(0.0392822 0.0420737 0)
(0.0439791 0.044478 0)
(0.048691 0.0471783 0)
(0.0534143 0.0501831 0)
(0.0581437 0.0535016 0)
(0.062872 0.0571432 0)
(0.0675901 0.0611178 0)
(0.0722867 0.0654353 0)
(0.0769482 0.0701057 0)
(0.0815584 0.0751387 0)
(0.0860987 0.0805435 0)
(0.0905473 0.0863286 0)
(0.0948797 0.0925015 0)
(0.0990682 0.0990682 0)
(0.103082 0.106033 0)
(0.106887 0.113397 0)
(0.110446 0.121161 0)
(0.113718 0.129319 0)
(0.11666 0.137864 0)
(0.119226 0.146783 0)
(0.121368 0.156059 0)
(0.123034 0.165668 0)
(0.124173 0.175579 0)
(0.124732 0.185756 0)
(0.124659 0.196154 0)
(0.123903 0.206719 0)
(0.122417 0.21739 0)
(0.120157 0.228096 0)
(0.117085 0.238759 0)
(0.11317 0.249291 0)
(0.108392 0.259598 0)
(0.102739 0.269579 0)
(0.0962149 0.279127 0)
(0.0888348 0.288134 0)
(0.0806302 0.29649 0)
(0.0716479 0.304086 0)
(0.0619508 0.31082 0)
(0.0516173 0.316595 0)
(0.0407403 0.321327 0)
(0.0294252 0.324942 0)
(0.0177842 0.327385 0)
(0.00594821 0.328616 0)
(0.00242132 0.0335046 0)
(0.00726355 0.0337688 0)
(0.0121126 0.0342982 0)
(0.0169759 0.0350949 0)
(0.0218549 0.0361623 0)
(0.0267533 0.0375045 0)
(0.0316741 0.0391268 0)
(0.0366193 0.0410354 0)
(0.04159 0.0432375 0)
(0.046586 0.0457411 0)
(0.0516058 0.0485552 0)
(0.0566464 0.0516895 0)
(0.061703 0.0551542 0)
(0.0667689 0.0589605 0)
(0.0718352 0.0631196 0)
(0.076891 0.0676432 0)
(0.0819223 0.0725433 0)
(0.0869129 0.0778314 0)
(0.0918434 0.0835191 0)
(0.0966913 0.089617 0)
(0.101431 0.0961351 0)
(0.106033 0.103082 0)
(0.110464 0.110464 0)
(0.114688 0.118286 0)
(0.118665 0.12655 0)
(0.12235 0.135255 0)
(0.125696 0.144393 0)
(0.128652 0.153955 0)
(0.131162 0.163925 0)
(0.13317 0.17428 0)
(0.134618 0.184991 0)
(0.135443 0.19602 0)
(0.135587 0.207319 0)
(0.134989 0.218835 0)
(0.133592 0.2305 0)
(0.131342 0.242238 0)
(0.128194 0.253963 0)
(0.124107 0.265579 0)
(0.119052 0.276978 0)
(0.113014 0.288047 0)
(0.105988 0.298665 0)
(0.09799 0.308706 0)
(0.0890501 0.318044 0)
(0.0792187 0.326551 0)
(0.0685648 0.334107 0)
(0.0571764 0.340598 0)
(0.045159 0.345923 0)
(0.0326337 0.349997 0)
(0.0197305 0.352752 0)
(0.00660053 0.354141 0)
(0.00255576 0.0341844 0)
(0.00766736 0.0344576 0)
(0.0127875 0.035005 0)
(0.0179246 0.035829 0)
(0.0230814 0.0369333 0)
(0.0282627 0.0383224 0)
(0.0334722 0.0400021 0)
(0.0387133 0.0419794 0)
(0.0439879 0.0442623 0)
(0.0492968 0.0468596 0)
(0.0546393 0.0497814 0)
(0.0600133 0.0530387 0)
(0.0654147 0.0566431 0)
(0.0708373 0.0606071 0)
(0.0762728 0.0649439 0)
(0.0817103 0.0696669 0)
(0.0871363 0.0747902 0)
(0.0925342 0.0803276 0)
(0.0978843 0.0862929 0)
(0.103163 0.0926997 0)
(0.108345 0.0995605 0)
(0.113397 0.106887 0)
(0.118286 0.114688 0)
(0.122973 0.122973 0)
(0.127414 0.131746 0)
(0.13156 0.141008 0)
(0.135361 0.150756 0)
(0.138759 0.160984 0)
(0.141693 0.171677 0)
(0.1441 0.182814 0)
(0.145912 0.194368 0)
(0.14706 0.206301 0)
(0.147474 0.218565 0)
(0.147084 0.231102 0)
(0.145821 0.243843 0)
(0.143621 0.256705 0)
(0.140425 0.269594 0)
(0.136185 0.282403 0)
(0.13086 0.295014 0)
(0.124426 0.307297 0)
(0.116874 0.319114 0)
(0.108213 0.33032 0)
(0.0984747 0.340768 0)
(0.087711 0.35031 0)
(0.0759979 0.358804 0)
(0.0634341 0.366114 0)
(0.0501397 0.372121 0)
(0.0362539 0.376722 0)
(0.0219281 0.379836 0)
(0.00733729 0.381407 0)
(0.0026945 0.0347417 0)
(0.00808411 0.035023 0)
(0.0134841 0.0355869 0)
(0.0189042 0.0364359 0)
(0.0243482 0.0375739 0)
(0.0298222 0.039006 0)
(0.0353312 0.0407386 0)
(0.0408794 0.0427793 0)
(0.0464701 0.0451369 0)
(0.0521052 0.0478213 0)
(0.0577849 0.0508437 0)
(0.063508 0.0542163 0)
(0.0692714 0.0579521 0)
(0.0750696 0.0620654 0)
(0.080895 0.0665711 0)
(0.0867372 0.0714848 0)
(0.0925829 0.0768226 0)
(0.0984157 0.082601 0)
(0.104216 0.0888364 0)
(0.109959 0.0955454 0)
(0.115618 0.102743 0)
(0.121161 0.110446 0)
(0.12655 0.118665 0)
(0.131746 0.127414 0)
(0.1367 0.1367 0)
(0.141361 0.146529 0)
(0.145673 0.156902 0)
(0.149572 0.167815 0)
(0.152992 0.179258 0)
(0.155862 0.191212 0)