/*--------------------------------*- C++ -*----------------------------------*\
| =========                 |                                                 |
| \\      /  F ield         | OpenFOAM: The Open Source CFD Toolbox           |
|  \\    /   O peration     | Version:  2406                                  |
|   \\  /    A nd           | Website:  www.openfoam.com                      |
|    \\/     M anipulation  |                                                 |
\*---------------------------------------------------------------------------*/
FoamFile
{
    version     2.0;
    format      ascii;
    arch        "LSB;label=32;scalar=64";
    class       volScalarField;
    location    "1.8";
    object      gradTx;
}
// * * * * * * * * * * * * * * * * * * * * * * * * * * * * * * * * * * * * * //

dimensions      [0 -1 0 1 0 0 0];

internalField   nonuniform List<scalar> 
2500
(
0.00903749
0.0270789
0.0450745
0.0630129
0.0808457
0.0985407
0.116064
0.133379
0.150448
0.167229
0.183678
0.199749
0.215392
0.230552
0.245174
0.259197
0.27256
0.285196
0.297039
0.308017
0.318059
0.327093
0.335046
0.341844
0.347417
0.351695
0.354611
0.356102
0.356112
0.354588
0.351486
0.346769
0.340411
0.332395
0.322715
0.311378
0.298402
0.28382
0.267678
0.250034
0.230963
0.210551
0.188898
0.166117
0.142333
0.117678
0.0922975
0.0663411
0.0399672
0.0133481
0.00909593
0.0272565
0.0453722
0.0634295
0.0813818
0.0991968
0.116841
0.134277
0.151467
0.16837
0.184942
0.201136
0.216901
0.232184
0.246927
0.261072
0.274553
0.287307
0.299264
0.310353
0.320503
0.329639
0.337688
0.344576
0.35023
0.354581
0.35756
0.359103
0.359152
0.357654
0.354563
0.349843
0.343465
0.335412
0.325677
0.314267
0.301199
0.286506
0.270234
0.252442
0.233204
0.212609
0.190757
0.167762
0.143749
0.118855
0.0932259
0.067011
0.0403591
0.013471
0.00921513
0.0276135
0.0459668
0.0642625
0.082454
0.100509
0.118394
0.136073
0.153507
0.170654
0.187472
0.203911
0.219922
0.235449
0.250437
0.264823
0.278545
0.291533
0.30372
0.315033
0.325397
0.334739
0.342982
0.35005
0.355869
0.360366
0.363471
0.365119
0.365247
0.363803
0.360736
0.35601
0.349592
0.341466
0.331621
0.320065
0.306813
0.291898
0.275366
0.257277
0.237707
0.216743
0.194491
0.171065
0.146594
0.12122
0.0950915
0.0683646
0.0411782
0.0137426
0.00939362
0.0281488
0.0468592
0.065513
0.084064
0.10248
0.120728
0.13877
0.15657
0.174085
0.191271
0.20808
0.22446
0.240357
0.255712
0.270463
0.284545
0.297888
0.310422
0.322072
0.332762
0.342414
0.350949
0.35829
0.364359
0.369078
0.372376
0.374183
0.374434
0.373072
0.370044
0.36531
0.358836
0.3506
0.340592
0.328817
0.315289
0.300041
0.283119
0.264583
0.24451
0.222991
0.200134
0.176057
0.150895
0.124792
0.0979057
0.0703964
0.042406
0.0141528
0.00963173
0.0288631
0.0480503
0.0671825
0.0862133
0.105111
0.123843
0.142373
0.160662
0.178668
0.196347
0.21365
0.230526
0.246917
0.262765
0.278005
0.292571
0.30639
0.319391
0.331494
0.342622
0.352692
0.361623
0.369333
0.375739
0.380761
0.384321
0.386345
0.386765
0.385516
0.382545
0.377804
0.371257
0.362879
0.352656
0.34059
0.326695
0.311001
0.293556
0.27442
0.253673
0.231408
0.207737
0.182785
0.15669
0.129606
0.101696
0.0731299
0.0440566
0.0147046
0.00992973
0.0297571
0.0495413
0.0692724
0.0889043
0.108406
0.127745
0.146885
0.165787
0.18441
0.202708
0.220632
0.238129
0.255143
0.27161
0.287467
0.302642
0.317063
0.330652
0.343329
0.355011
0.365612
0.375045
0.383224
0.39006
0.395468
0.399364
0.401669
0.402307
0.40121
0.398316
0.393574
0.386942
0.378389
0.367901
0.355473
0.341118
0.324867
0.306764
0.286874
0.265276
0.24207
0.217371
0.19131
0.164036
0.135708
0.1065
0.0765935
0.0461476
0.0154037
0.0102879
0.0308317
0.0513335
0.0717846
0.0921395
0.112368
0.132437
0.152311
0.171952
0.191318
0.210362
0.229036
0.247285
0.26505
0.282267
0.29887
0.314785
0.329935
0.34424
0.357615
0.369972
0.381221
0.391268
0.400021
0.407386
0.41327
0.417582
0.420236
0.421148
0.420244
0.417454
0.412721
0.405995
0.397241
0.386438
0.373579
0.358675
0.341751
0.322856
0.302052
0.279423
0.255074
0.229124
0.201714
0.173001
0.143156
0.112365
0.0808219
0.0487004
0.0162571
0.0107065
0.0320876
0.0534283
0.0747213
0.0959216
0.117
0.137923
0.158658
0.179164
0.199401
0.219322
0.238876
0.258008
0.276657
0.294758
0.31224
0.329028
0.345041
0.360193
0.374396
0.387555
0.399574
0.410354
0.419794
0.427793
0.43425
0.439065
0.442143
0.443394
0.442731
0.440078
0.435368
0.428545
0.419567
0.408405
0.395048
0.379502
0.361793
0.341966
0.320086
0.29624
0.270538
0.243106
0.214096
0.183673
0.152025
0.11935
0.0858579
0.0517408
0.0172736
0.0111857
0.0335256
0.0558271
0.0780844
0.100253
0.122306
0.14421
0.165931
0.187432
0.20867
0.229599
0.250167
0.270316
0.289986
0.309107
0.327607
0.345406
0.362419
0.378556
0.393722
0.407817
0.420737
0.432375
0.442623
0.451369
0.458504
0.463918
0.467506
0.469165
0.4688
0.466325
0.461662
0.454745
0.445524
0.433962
0.420043
0.403767
0.385157
0.364257
0.341134
0.315879
0.288605
0.25945
0.228574
0.196157
0.162401
0.127523
0.0917523
0.0552999
0.0184636
0.0117259
0.0351466
0.0585313
0.0818761
0.105138
0.12829
0.151301
0.174138
0.196763
0.219135
0.241205
0.262922
0.284228
0.305057
0.32534
0.345
0.363954
0.382111
0.399377
0.415649
0.43082
0.44478
0.457411
0.468596
0.478213
0.486142
0.492261
0.496452
0.498602
0.498603
0.496356
0.491771
0.484771
0.475295
0.463299
0.448756
0.431663
0.412037
0.389921
0.365382
0.338516
0.309443
0.27831
0.245289
0.210576
0.17439
0.13697
0.0985659
0.0594145
0.0198394
0.0123273
0.0369512
0.0615419
0.0860981
0.110578
0.134955
0.159202
0.183284
0.207166
0.230805
0.254153
0.277159
0.299761
0.321895
0.343485
0.364454
0.384711
0.404164
0.422709
0.440238
0.456636
0.471783
0.485552
0.497814
0.508437
0.517286
0.524228
0.52913
0.531865
0.532311
0.530352
0.525887
0.518825
0.509092
0.496633
0.481411
0.463414
0.442657
0.419179
0.393048
0.364363
0.333251
0.29987
0.264406
0.227074
0.188114
0.147786
0.10637
0.0641278
0.0214155
0.01299
0.0389399
0.06486
0.0907516
0.116575
0.142305
0.167916
0.193375
0.218646
0.243689
0.268456
0.292892
0.316936
0.340522
0.363571
0.386001
0.407719
0.428624
0.448608
0.467554
0.485339
0.501831
0.516895
0.530387
0.542163
0.552073
0.559969
0.565703
0.569131
0.570113
0.568519
0.564228
0.557136
0.547153
0.53421
0.518258
0.499278
0.477275
0.452287
0.42438
0.393658
0.360255
0.324341
0.286118
0.245822
0.203715
0.160087
0.115247
0.0694903
0.0232088
0.013714
0.0411127
0.0684858
0.0958376
0.12313
0.150341
0.177446
0.204414
0.231212
0.257797
0.284123
0.310135
0.335771
0.360961
0.385626
0.409677
0.433018
0.455541
0.477132
0.497665
0.517007
0.535016
0.551542
0.566431
0.579521
0.590648
0.599647
0.60635
0.610594
0.612222
0.611082
0.607037
0.599961
0.589747
0.576309
0.559587
0.539547
0.516187
0.489537
0.459666
0.426679
0.390719
0.351968
0.310648
0.267014
0.221359
0.174004
0.125294
0.0755607
0.0252391
0.0144993
0.0434697
0.0724192
0.101356
0.130244
0.159064
0.187794
0.216406
0.244866
0.273134
0.301165
0.328902
0.356282
0.383235
0.409676
0.435515
0.46065
0.484966
0.508342
0.530642
0.551724
0.571432
0.589605
0.606071
0.620654
0.633171
0.643437
0.651265
0.656469
0.65887
0.658295
0.654582
0.647585
0.637175
0.623246
0.605721
0.584552
0.559725
0.531264
0.499235
0.463744
0.424945
0.383034
0.33825
0.290877
0.241239
0.189692
0.136622
0.0824071
0.0275292
0.0153457
0.0460102
0.0766593
0.107305
0.137915
0.168474
0.198961
0.22935
0.259611
0.289706
0.319588
0.349202
0.378484
0.407361
0.435747
0.463548
0.490654
0.516947
0.542295
0.566555
0.589572
0.611178
0.631196
0.649439
0.665711
0.679811
0.69153
0.700659
0.706988
0.710313
0.710433
0.707162
0.700325
0.689771
0.675371
0.657024
0.634666
0.608268
0.577845
0.543458
0.505216
0.46328
0.417861
0.369221
0.317673
0.263574
0.207326
0.149361
0.0901082
0.0301056
0.0162528
0.048733
0.0812042
0.113684
0.146142
0.178567
0.210942
0.243246
0.275448
0.307513
0.339396
0.371042
0.402387
0.433356
0.463861
0.493803
0.523068
0.55153
0.579051
0.605475
0.630636
0.654353
0.676432
0.696669
0.714848
0.730744
0.744126
0.754757
0.762402
0.766824
0.767797
0.7651
0.758531
0.747908
0.733074
0.713903
0.690308
0.662242
0.629709
0.592761
0.551509
0.50612
0.456821
0.4039
0.3477
0.288622
0.227114
0.163662
0.0987556
0.032999
0.0172199
0.0516363
0.0860511
0.120487
0.154919
0.189339
0.223734
0.258087
0.292371
0.326553
0.360588
0.394425
0.427998
0.461231
0.494035
0.526305
0.557924
0.588759
0.618662
0.647469
0.674999
0.701057
0.725433
0.747902
0.768226
0.786157
0.801436
0.813799
0.822976
0.828702
0.830712
0.828753
0.822586
0.811995
0.796789
0.776812
0.751948
0.72213
0.687342
0.647627
0.603095
0.553918
0.500341
0.442677
0.381308
0.316678
0.249291
0.179697
0.108455
0.036245
0.0182463
0.0547176
0.0911957
0.12771
0.164239
0.200781
0.237328
0.273866
0.310373
0.346818
0.383161
0.419348
0.455318
0.490992
0.526279
0.561073
0.59525
0.628671
0.661179
0.692599
0.722739
0.751387
0.778314
0.803276
0.82601
0.846241
0.863682
0.878034
0.888996
0.896262
0.89953
0.898506
0.892909
0.882483
0.866996
0.846256
0.820113
0.788471
0.751291
0.708604
0.660511
0.607193
0.54891
0.486004
0.418895
0.348083
0.274133
0.197669
0.11933
0.039885
0.0193307
0.0579733
0.0966325
0.135344
0.174093
0.212883
0.251712
0.290571
0.329441
0.368297
0.407101
0.445803
0.484341
0.522637
0.560599
0.598117
0.635065
0.671296
0.706644
0.740924
0.77393
0.805435
0.835191
0.862929
0.888364
0.911191
0.931089
0.947726
0.96076
0.969843
0.974628
0.974775
0.969957
0.959866
0.944226
0.922798
0.895391
0.861873
0.822176
0.776312
0.724372
0.66654
0.603091
0.534398
0.460927
0.383234
0.30196
0.217812
0.131524
0.0439673
0.0204716
0.0613991
0.102354
0.14338
0.184469
0.225631
0.26687
0.308182
0.349557
0.390971
0.432392
0.473772
0.515052
0.556155
0.596988
0.63744
0.677379
0.716653
0.755089
0.79249
0.828637
0.863286
0.89617
0.926997
0.955454
0.981203
1.00389
1.02314
1.03858
1.0498
1.05641
1.05801
1.05422
1.04468
1.02906
1.00706
0.978438
0.943019
0.900698
0.851459
0.795379
0.732639
0.663532
0.588459
0.507939
0.422593
0.333144
0.240401
0.145203
0.0485481
0.0216673
0.0649895
0.108351
0.151805
0.195351
0.239005
0.282779
0.326677
0.370694
0.414813
0.459006
0.503231
0.547429
0.591527
0.635432
0.679031
0.722189
0.764751
0.806535
0.847333
0.886913
0.925015
0.961351
0.995605
1.02743
1.05647
1.08232
1.10456
1.12277
1.1365
1.14529
1.14869
1.14624
1.13753
1.12214
1.09973
1.06999
1.03267
0.987647
0.934848
0.874332
0.806275
0.73098
0.648884
0.560556
0.466696
0.368122
0.265755
0.160566
0.0536938
0.0229154
0.0687376
0.114613
0.160604
0.206718
0.252981
0.299414
0.346027
0.392822
0.439791
0.48691
0.534143
0.581437
0.62872
0.675901
0.722867
0.769482
0.815584
0.860987
0.905473
0.948797
0.990682
1.03082
1.06887
1.10446
1.13718
1.1666
1.19226
1.21368
1.23034
1.24173
1.24732
1.24659
1.23903
1.22417
1.20157
1.17085
1.1317
1.08392
1.02739
0.962149
0.888348
0.806302
0.716479
0.619508
0.516173
0.407403
0.294252
0.177842
0.0594821
0.0242132
0.0726355
0.121126
0.169759
0.218549
0.267533
0.316741
0.366193
0.4159
0.46586
0.516058
0.566464
0.61703
0.667689
0.718352
0.76891
0.819223
0.869129
0.918434
0.966913
1.01431
1.06033
1.10464
1.14688
1.18665
1.2235
1.25696
1.28652
1.31162
1.3317
1.34618
1.35443
1.35587
1.34989
1.33592
1.31342
1.28194
1.24107
1.19052
1.13014
1.05988
0.9799
0.890501
0.792187
0.685648
0.571764
0.45159
0.326337
0.197305
0.0660053
0.0255576
0.0766736
0.127875
0.179246
0.230814
0.282627
0.334722
0.387133
0.439879
0.492968
0.546393
0.600133
0.654147
0.708373
0.762728
0.817103
0.871363
0.925342
0.978843
1.03163
1.08345
1.13397
1.18286
1.22973
1.27414
1.3156
1.35361
1.38759
1.41693
1.441
1.45912
1.4706
1.47474
1.47084
1.45821
1.43621
1.40425
1.36185
1.3086
1.24426
1.16874
1.08213
0.984747
0.87711
0.759979
0.634341
0.501397
0.362539
0.219281
0.0733729
0.026945
0.0808411
0.134841
0.189042
0.243482
0.298222
0.353312
0.408794
0.464701
0.521052
0.577849
0.63508
0.692714
0.750696
0.80895
0.867372
0.925829
0.984157
1.04216
1.09959
1.15618
1.21161
1.2655
1.31746
1.367
1.41361
1.45673
1.49572
1.52992
1.55862
1.58104
1.5964
1.60388
1.60267
1.59194
1.57093
1.53892
1.49526
1.43946
1.37113
1.29012
1.19645
1.09041
0.972543
0.843686
0.704939
0.55767
0.403487
0.244157
0.0817163
0.028371
0.0851252
0.142003
0.199116
0.256516
0.314274
0.372456
0.431116
0.490299
0.550036
0.610343
0.671217
0.732639
0.794563
0.856922
0.919618
0.982525
1.04548
1.10829
1.1707
1.23245
1.29319
1.35255
1.41008
1.46529
1.51762
1.56647
1.61114
1.6509
1.68495
1.71242
1.73242
1.74401
1.74622
1.7381
1.71871
1.68717
1.64267
1.58455
1.5123
1.42562
1.32446
1.20908
1.08001
0.938175
0.784791
0.621425
0.449938
0.2724
0.0911932
0.0298311
0.089512
0.149338
0.209437
0.269872
0.330731
0.392094
0.454028
0.516593
0.579834
0.64378
0.708442
0.773813
0.839859
0.906523
0.973719
1.04133
1.10919
1.17712
1.24487
1.31216
1.37864
1.44393
1.50756
1.56902
1.6277
1.68296
1.73404
1.78014
1.82036
1.85374
1.87927
1.89585
1.90238
1.89772
1.88075
1.85037
1.80559
1.74554
1.66953
1.5771
1.46808
1.34264
1.20134
1.04512
0.875376
0.693885
0.502806
0.304576
0.101995
0.0313199
0.0939855
0.15682
0.219966
0.283504
0.347536
0.412157
0.477452
0.543495
0.610346
0.678051
0.746636
0.816107
0.886447
0.95761
1.02952
1.10208
1.17513
1.2485
1.32193
1.39516
1.46783
1.53955
1.60984
1.67815
1.74386
1.80626
1.86455
1.91785
1.96517
2.00545
2.03752
2.06016
2.07207
2.0719
2.05833
2.03001
1.98571
1.92431
1.84486
1.74671
1.62951
1.49333
1.33866
1.16654
0.978478
0.776527
0.5632
0.341371
0.114354
0.0328316
0.0985282
0.164418
0.230663
0.297358
0.364622
0.432568
0.501298
0.570902
0.641459
0.713031
0.785661
0.859374
0.934168
1.01002
1.08686
1.1646
1.24312
1.32223
1.40171
1.48128
1.56059
1.63925
1.71677
1.79258
1.86603
1.93637
2.00274
2.0642
2.11966
2.16794
2.20774
2.23766
2.2562
2.2618
2.25285
2.22774
2.18492
2.12296
2.04062
1.93695
1.81137
1.66377
1.49458
1.30484
1.09626
0.871159
0.632478
0.38363
0.128558
0.0343598
0.103121
0.172102
0.241483
0.311376
0.38192
0.453243
0.525468
0.598703
0.673047
0.748579
0.825365
0.903445
0.982841
1.06354
1.14551
1.22868
1.31292
1.39808
1.48395
1.57026
1.65668
1.7428
1.82814
1.91212
1.99407
2.0732
2.14861
2.21928
2.28403
2.34156
2.39044
2.42906
2.45572
2.4686
2.46577
2.44532
2.4053
2.3439
2.25948
2.15073
2.01673
1.85711
1.67219
1.46299
1.23136
0.979995
0.712317
0.432397
0.144959
0.0358976
0.107743
0.179836
0.252377
0.325496
0.39935
0.474089
0.549854
0.626775
0.704969
0.78454
0.865573
0.948132
1.03226
1.11797
1.20525
1.29404
1.38426
1.47576
1.56837
1.66182
1.75579
1.84991
1.94368
2.03653
2.12777
2.21659
2.30205
2.38306
2.45837
2.52655
2.58602
2.635
2.67153
2.69349
2.69865
2.68465
2.64913
2.58978
2.50448
2.39141
2.24919
2.07712
1.87524
1.64455
1.38704
1.10578
0.804796
0.488972
0.164002
0.0374374
0.112372
0.187583
0.263292
0.339648
0.416829
0.495005
0.574339
0.654981
0.737074
0.820742
0.906095
0.993222
1.08219
1.17304
1.26579
1.36041
1.45683
1.55496
1.65461
1.75558
1.85756
1.9602
2.06301
2.16543
2.26678
2.36623
2.46281
2.55539
2.64264
2.72303
2.79481
2.85602
2.90445
2.93766
2.95302
2.94774
2.9189
2.86361
2.77911
2.66291
2.51306
2.32829
2.10831
1.85395
1.56733
1.25193
0.912526
0.55499
0.186242
0.0389715
0.116983
0.195303
0.274171
0.35376
0.434266
0.515883
0.598795
0.683178
0.769195
0.856998
0.946722
1.03849
1.13238
1.22849
1.32684
1.42745
1.53028
1.63527
1.74228
1.85112
1.96154
2.07319
2.18565
2.29835
2.41064
2.52169
2.63052
2.73597
2.83665
2.93093
3.01695
3.09252
3.15519
3.20219
3.23046
3.23666
3.21728
3.16868
3.0873
2.9698
2.8134
2.61609
2.37699
2.09665
1.77726
1.42276
1.0388
0.63252
0.212386
0.0404913
0.121553
0.202954
0.284957
0.367754
0.451566
0.536608
0.623089
0.711208
0.801154
0.893107
0.98723
1.08367
1.18256
1.28399
1.38805
1.49479
1.6042
1.71627
1.8309
1.94794
2.06719
2.18835
2.31102
2.4347
2.55875
2.68238
2.80462
2.92429
3.03998
3.14999
3.25233
3.34466
3.42426
3.48802
3.53241
3.55352
3.54708
3.50861
3.43351
3.31737
3.15625
2.94709
2.68816
2.37948
2.02319
1.62373
1.18783
0.724211
0.243337
0.0419883
0.126054
0.210491
0.295585
0.381549
0.468628
0.55706
0.647078
0.738906
0.832764
0.928856
1.02738
1.12851
1.23241
1.33922
1.44906
1.56202
1.67815
1.79747
1.91994
2.04547
2.1739
2.305
2.43843
2.57374
2.71035
2.84753
2.98434
3.11963
3.25197
3.37966
3.50061
3.61233
3.71189
3.79582
3.86014
3.90028
3.91117
3.88726
3.82273
3.71172
3.54877
3.32932
3.05035
2.711
2.31317
1.86182
1.36501
0.833472
0.28026
0.0434532
0.130459
0.217869
0.305991
0.395062
0.485348
0.577112
0.670613
0.766102
0.863825
0.964018
1.06691
1.17271
1.28162
1.39382
1.50947
1.62871
1.75164
1.87833
2.00881
2.14305
2.28096
2.42238
2.56705
2.7146
2.86453
3.01618
3.16869
3.32098
3.47167
3.61906
3.76103
3.89502
4.01789
4.1259
4.21458
4.27873
4.31235
4.30869
4.26041
4.15983
3.99945
3.77256
3.47421
3.10212
2.65758
2.14609
1.57734
0.964732
0.32467
0.0448768
0.13474
0.225041
0.31611
0.408205
0.501618
0.596635
0.693541
0.792615
0.894131
0.998358
1.10555
1.21597
1.32984
1.4474
1.56885
1.69438
1.82414
1.95827
2.09687
2.23998
2.38759
2.53963
2.69594
2.85625
3.02016
3.18714
3.35644
3.52707
3.69777
3.86691
4.03242
4.19172
4.34157
4.478
4.59615
4.69018
4.75313
4.77692
4.7524
4.66961
4.51831
4.28878
3.97314
3.56679
3.06988
2.48834
1.834
1.12377
0.378536
0.0462498
0.13887
0.231959
0.325873
0.420891
0.517328
0.615496
0.715705
0.818263
0.923472
1.03163
1.14304
1.25798
1.37674
1.49957
1.62675
1.75852
1.89508
2.03666
2.18341
2.33546
2.49291
2.65579
2.82403
2.99751
3.17598
3.35902
3.54606
3.73629
3.92858
4.12148
4.31305
4.5008
4.68151
4.85111
5.00447
5.1352
5.23543
5.29566
5.30472
5.24981
5.11709
4.89264
4.56413
4.12316
3.56775
2.90412
2.14699
1.31813
0.444431
0.0475626
0.142818
0.238576
0.335213
0.433031
0.532368
0.633562
0.736947
0.842859
0.951631
1.0636
1.17908
1.29842
1.42193
1.54992
1.68271
1.8206
1.96388
2.11282
2.26767
2.42866
2.59598
2.76978
2.95014
3.13707
3.33049
3.53018
3.73577
3.94666
4.16198
4.38051
4.60058
4.8199
5.03546
5.24326
5.4381
5.61325
5.76011
5.86785
5.92308
5.90973
5.80936
5.6021
5.26894
4.79515
4.17478
3.41414
2.53217
1.55766
0.52568
0.0488059
0.146558
0.244844
0.344062
0.444537
0.546628
0.650698
0.757107
0.866218
0.978394
1.094
1.2134
1.33696
1.46504
1.59802
1.73625
1.8801
2.02992
2.18607
2.34888
2.51868
2.69579
2.88047
3.07297
3.27346
3.48206
3.69878
3.92348
4.15588
4.3954
4.6412
4.89195
5.1458
5.40009
5.65119
5.89413
6.12217
6.32636
6.49482
6.61212
6.65864
6.61026
6.43906
6.11574
5.6149
4.92307
4.04622
3.01036
1.85501
0.626494
0.0499705
0.150062
0.250717
0.352355
0.455322
0.56
0.666774
0.776029
0.888155
1.00355
1.12259
1.2457
1.37327
1.50572
1.64345
1.78688
1.93645
2.09257
2.25568
2.42621
2.6046
2.79127
2.98665
3.19114
3.4051
3.62888
3.86275
4.10686
4.36128
4.62584
4.90014
5.18339
5.47431
5.77089
6.07015
6.36777
6.65756
6.93079
7.17526
7.3741
7.5044
7.53577
7.42972
7.14145
6.62684
5.85735
4.83808
3.60853
2.22586
0.751974
0.0510477
0.153302
0.25615
0.360028
0.465303
0.572379
0.681662
0.793562
0.908494
1.02688
1.14914
1.27572
1.40704
1.54358
1.68578
1.83413
1.9891
2.1512
2.32093
2.49884
2.68546
2.88134
3.08706
3.3032
3.53033
3.76904
4.01987
4.28334
4.55989
4.84986
5.15338
5.47035
5.80026
6.14201
6.49365
6.85202
7.21215
7.56648
7.90365
8.20679
8.45108
8.6005
8.60423
8.39491
7.89486
7.04239
5.84101
4.36028
2.68827
0.907712
0.0520289
0.156255
0.261099
0.36702
0.474401
0.583666
0.695241
0.80956
0.927061
1.04819
1.17341
1.30317
1.43796
1.57828
1.72462
1.87752
2.03752
2.20519
2.38112
2.56594
2.76031
2.9649
3.18044
3.40768
3.64743
3.90052
4.1678
4.45016
4.74849
5.06366
5.39647
5.7476
6.1175
6.50626
6.91335
7.33731
7.77521
8.22184
8.66842
9.10051
9.49464
9.81274
9.99344
9.94051
9.51654
8.57735
7.12405
5.3038
3.25959
1.09851
0.0529064
0.158895
0.265526
0.373275
0.482541
0.593766
0.707397
0.823887
0.943697
1.0673
1.19517
1.32781
1.46574
1.60947
1.75957
1.91661
2.08119
2.25395
2.43555
2.62673
2.82823
3.04086
3.26551
3.5031
3.75466
4.02128
4.30412
4.60447
4.92368
5.2632
5.62456
6.00932
6.41906
6.85524
7.31912
7.81148
8.33223
8.8798
9.45006
10.0344
10.6163
11.1642
11.6179
11.8586
11.6547
10.6274
8.77482
6.47176
3.94814
1.32545
0.0536732
0.161202
0.269395
0.37874
0.489654
0.602595
0.718027
0.836419
0.958254
1.08402
1.21424
1.34941
1.4901
1.63685
1.79027
1.95098
2.11962
2.29691
2.48358
2.68043
2.88833
3.1082
3.34107
3.58804
3.85034
4.12931
4.42645
4.7434
5.08201
5.44432
5.8326
6.24935
6.69735
7.17962
7.6994
8.2601
8.86513
9.51764
10.22
10.973
11.7738
12.6118
13.4571
14.2227
14.6173
13.504
10.8768
7.86076
4.73611
1.58081
0.0543229
0.163157
0.272672
0.38337
0.495681
0.610077
0.727035
0.847043
0.970599
1.09821
1.23042
1.36775
1.51079
1.66013
1.81639
1.98024
2.15238
2.33356
2.5246
2.72636
2.93979
3.16595
3.40598
3.66114
3.93286
4.22271
4.53248
4.86419
5.22013
5.60291
6.01552
6.46143
6.94458
7.46959
8.04176
8.66727
9.35328
10.1082
10.9418
11.8661
12.8962
14.0539
15.3777
16.9593
19.089
17.8954
13.3684
9.35888
5.5551
1.84267
0.0548504
0.164744
0.275332
0.387126
0.50057
0.616145
0.734343
0.855664
0.980619
1.10974
1.24356
1.38266
1.52762
1.67907
1.83765
2.00408
2.17908
2.36347
2.55809
2.76389
2.98191
3.21327
3.45923
3.72121
4.00079
4.29975
4.62013
4.96429
5.3349
5.73511
6.16856
6.63957
7.1532
7.71552
8.3338
9.01681
9.77529
10.6225
11.5753
12.6556
13.8931
15.3318
17.0422
19.1493
21.8853
20.6213
15.3435
10.6517
6.2831
2.07765
0.0552513
0.165951
0.277352
0.389975
0.504276
0.620746
0.739885
0.862201
0.988219
1.11848
1.25353
1.39397
1.5404
1.69345
1.85382
2.02221
2.1994
2.38623
2.58361
2.79252
3.01405
3.24942
3.49997
3.76722
4.05289
4.35893
4.68759
5.04147
5.4236
5.83753
6.28746
6.77841
7.31638
7.90865
8.56413
9.29378
10.1113
11.034
12.0839
13.29
14.691
16.3399
18.3115
20.7121
23.6826
22.3621
16.7333
11.6218
6.84831
2.2627
0.0555203
0.166767
0.278717
0.391891
0.506767
0.623837
0.743608
0.866594
0.993327
1.12435
1.26024
1.40158
1.54899
1.70313
1.86469
2.03442
2.21309
2.40158
2.60082
2.81183
3.03576
3.27385
3.52752
3.79836
4.08819
4.39907
4.7334
5.09396
5.48402
5.90743
6.36877
6.87357
7.4285
8.04173
8.72332
9.4858
10.3449
11.3207
12.4387
13.7319
15.243
17.0271
19.1536
21.7063
24.7724
23.4122
17.6064
12.2546
7.22595
2.38774
0.0556432
0.167162
0.279399
0.392853
0.508018
0.62539
0.745478
0.868801
0.995893
1.12731
1.26361
1.4054
1.55331
1.708
1.87016
2.04055
2.21998
2.4093
2.60948
2.82156
3.04669
3.28616
3.54141
3.81407
4.10601
4.41935
4.75656
5.12052
5.51462
5.94287
6.41006
6.92196
7.4856
8.1096
8.80465
9.58408
10.4647
11.4679
12.6208
13.9582
15.5243
17.3736
19.5714
22.1886
25.2896
23.9091
18.0265
12.5647
7.4135
2.45025
)
;

boundaryField
{
    walls
    {
        type            calculated;
        value           nonuniform List<scalar> 
200
(
0.0556432
0.167162
0.279399
0.392853
0.508018
0.62539
0.745478
0.868801
0.995893
1.12731
1.26361
1.4054
1.55331
1.708
1.87016
2.04055
2.21998
2.4093
2.60948
2.82156
3.04669
3.28616
3.54141
3.81407
4.10601
4.41935
4.75656
5.12052
5.51462
5.94287
6.41006
6.92196
7.4856
8.1096
8.80465
9.58408
10.4647
11.4679
12.6208
13.9582
15.5243
17.3736
19.5714
22.1886
25.2896
23.9091
18.0265
12.5647
7.4135
2.45025
0
0
0
0
0
0
0
0
0
0
0
0
0
0
0
0
0
0
0
0
0
0
0
0
0
0
0
0
0
0
0
0
0
0
0
0
0
0
0
0
0
0
0
0
0
0
0
0
0
0
0
0
0
0
0
0
0
0
0
0
0
0
0
0
0
0
0
0
0
0
0
0
0
0
0
0
0
0
0
0
0
0
0
0
0
0
0
0
0
0
0
0
0
0
0
0
0
0
0
0
0.00903749
0.0270789
0.0450745
0.0630129
0.0808457
0.0985407
0.116064
0.133379
0.150448
0.167229
0.183678
0.199749
0.215392
0.230552
0.245174
0.259197
0.27256
0.285196
0.297039
0.308017
0.318059
0.327093
0.335046
0.341844
0.347417
0.351695
0.354611
0.356102
0.356112
0.354588
0.351486
0.346769
0.340411
0.332395
0.322715
0.311378
0.298402
0.28382
0.267678
0.250034
0.230963
0.210551
0.188898
0.166117
0.142333
0.117678
0.0922975
0.0663411
0.0399672
0.0133481
)
;
    }
    frontAndBack
    {
        type            empty;
    }
}


// ************************************************************************* //
