/*--------------------------------*- C++ -*----------------------------------*\
| =========                 |                                                 |
| \\      /  F ield         | OpenFOAM: The Open Source CFD Toolbox           |
|  \\    /   O peration     | Version:  2406                                  |
|   \\  /    A nd           | Website:  www.openfoam.com                      |
|    \\/     M anipulation  |                                                 |
\*---------------------------------------------------------------------------*/
FoamFile
{
    version     2.0;
    format      ascii;
    arch        "LSB;label=32;scalar=64";
    class       volScalarField;
    location    "1.8";
    object      T;
}
// * * * * * * * * * * * * * * * * * * * * * * * * * * * * * * * * * * * * * //

dimensions      [0 0 0 1 0 0 0];

internalField   nonuniform List<scalar> 
2500
(
0.267363
0.267725
0.268447
0.269528
0.270967
0.272762
0.274909
0.277404
0.280244
0.283422
0.286933
0.290769
0.294923
0.299385
0.304145
0.309192
0.314513
0.320094
0.325921
0.331976
0.338241
0.344698
0.351325
0.3581
0.364999
0.371997
0.379067
0.386181
0.393311
0.400426
0.407494
0.414485
0.421365
0.428102
0.434661
0.44101
0.447116
0.452946
0.458469
0.463653
0.46847
0.472892
0.476892
0.480448
0.483537
0.486141
0.488244
0.489833
0.490898
0.491432
0.267725
0.268089
0.268815
0.269904
0.271352
0.273159
0.27532
0.277833
0.280691
0.283891
0.287426
0.291289
0.295472
0.299965
0.304759
0.309842
0.315202
0.320824
0.326694
0.332795
0.339108
0.345615
0.352294
0.359122
0.366077
0.373132
0.38026
0.387434
0.394624
0.4018
0.40893
0.415983
0.422924
0.429721
0.43634
0.442748
0.448911
0.454796
0.460371
0.465606
0.470469
0.474934
0.478973
0.482564
0.485684
0.488314
0.490438
0.492043
0.493119
0.493657
0.268447
0.268815
0.269551
0.270654
0.272122
0.273952
0.276142
0.278688
0.281585
0.284828
0.288411
0.292327
0.296568
0.301124
0.305985
0.311141
0.316578
0.322283
0.32824
0.334432
0.340841
0.347448
0.354231
0.361167
0.368233
0.375402
0.382647
0.389941
0.397252
0.40455
0.411804
0.41898
0.426044
0.432964
0.439703
0.446229
0.452506
0.458501
0.464182
0.469516
0.474473
0.479024
0.483142
0.486804
0.489985
0.492667
0.494834
0.496471
0.497568
0.498118
0.269528
0.269904
0.270654
0.271778
0.273274
0.275141
0.277374
0.27997
0.282924
0.286232
0.289888
0.293883
0.298211
0.302862
0.307825
0.31309
0.318644
0.324472
0.330559
0.336889
0.343442
0.350199
0.357139
0.364237
0.37147
0.378812
0.386234
0.393707
0.401201
0.408684
0.416124
0.423486
0.430736
0.437839
0.44476
0.451463
0.457913
0.464075
0.469914
0.475399
0.480498
0.48518
0.489417
0.493185
0.49646
0.499221
0.501451
0.503137
0.504267
0.504833
0.270967
0.271352
0.272122
0.273274
0.274809
0.276723
0.279013
0.281677
0.284708
0.288103
0.291855
0.295957
0.300401
0.305178
0.310278
0.315689
0.321398
0.327391
0.333654
0.340167
0.346913
0.353872
0.361021
0.368337
0.375794
0.383366
0.391025
0.398739
0.406479
0.41421
0.421899
0.429512
0.437011
0.444362
0.451526
0.458468
0.46515
0.471536
0.47759
0.483278
0.488567
0.493425
0.497823
0.501735
0.505135
0.508002
0.510319
0.51207
0.513244
0.513832
0.272762
0.273159
0.273952
0.275141
0.276723
0.278697
0.281059
0.283807
0.286935
0.290438
0.294311
0.298546
0.303136
0.308071
0.313342
0.318936
0.324841
0.331042
0.337523
0.344268
0.351256
0.358468
0.365881
0.37347
0.38121
0.389072
0.397028
0.405047
0.413095
0.421139
0.429144
0.437072
0.444887
0.452549
0.460022
0.467266
0.474241
0.48091
0.487236
0.493181
0.498711
0.503792
0.508393
0.512487
0.516046
0.519048
0.521474
0.523308
0.524538
0.525154
0.274909
0.27532
0.276142
0.277374
0.279013
0.281059
0.283508
0.286357
0.289601
0.293235
0.297253
0.301649
0.306415
0.311541
0.317017
0.322831
0.328971
0.335423
0.342169
0.349192
0.356473
0.363991
0.371722
0.379642
0.387723
0.395937
0.404254
0.412641
0.421063
0.429487
0.437873
0.446185
0.454382
0.462425
0.470272
0.477882
0.485215
0.492229
0.498885
0.505143
0.510967
0.51632
0.52117
0.525485
0.529238
0.532405
0.534965
0.5369
0.538198
0.538848
0.277404
0.277833
0.278688
0.27997
0.281677
0.283807
0.286357
0.289323
0.292703
0.29649
0.300679
0.305263
0.310234
0.315583
0.3213
0.327374
0.33379
0.340535
0.347592
0.354942
0.362567
0.370445
0.37855
0.386859
0.395342
0.403971
0.412712
0.421533
0.430398
0.439269
0.448107
0.456872
0.465522
0.474014
0.482305
0.49035
0.498106
0.50553
0.512578
0.519209
0.525382
0.531058
0.536203
0.540783
0.544767
0.54813
0.550848
0.552904
0.554282
0.554973
0.280244
0.280691
0.281585
0.282924
0.284708
0.286935
0.289601
0.292703
0.296238
0.3002
0.304585
0.309384
0.314591
0.320197
0.326191
0.332561
0.339295
0.346377
0.353792
0.36152
0.369541
0.377832
0.38637
0.395127
0.404075
0.413182
0.422415
0.431739
0.441115
0.450505
0.459867
0.469158
0.478334
0.487348
0.496155
0.504707
0.512956
0.520857
0.528363
0.535428
0.542008
0.548063
0.553552
0.558441
0.562695
0.566287
0.569191
0.571388
0.572861
0.5736
0.283422
0.283891
0.284828
0.286232
0.288103
0.290438
0.293235
0.29649
0.3002
0.304361
0.308966
0.314009
0.319482
0.325378
0.331685
0.338392
0.345485
0.35295
0.360769
0.368925
0.377395
0.386158
0.395186
0.404454
0.41393
0.423583
0.433376
0.443273
0.453234
0.463217
0.473178
0.483071
0.492849
0.502462
0.511861
0.520994
0.529811
0.538261
0.546292
0.553857
0.560908
0.567398
0.573286
0.57853
0.583097
0.586954
0.590073
0.592432
0.594015
0.594809
0.286933
0.287426
0.288411
0.289888
0.291855
0.294311
0.297253
0.300679
0.304585
0.308966
0.313817
0.319132
0.324903
0.331122
0.337779
0.344862
0.352357
0.36025
0.368524
0.377158
0.386133
0.395424
0.405004
0.414846
0.424917
0.435183
0.445608
0.456153
0.466774
0.477427
0.488066
0.498641
0.509102
0.519394
0.529465
0.53926
0.548722
0.557796
0.566428
0.574563
0.58215
0.589138
0.59548
0.601133
0.606056
0.610216
0.613581
0.616127
0.617835
0.618692
0.290769
0.291289
0.292327
0.293883
0.295957
0.298546
0.301649
0.305263
0.309384
0.314009
0.319132
0.324747
0.330847
0.337424
0.344468
0.351967
0.359908
0.368276
0.377053
0.38622
0.395755
0.405634
0.415829
0.42631
0.437044
0.447996
0.459127
0.470395
0.481755
0.49316
0.50456
0.515901
0.527129
0.538186
0.549015
0.559555
0.569745
0.579526
0.588836
0.597617
0.605812
0.613364
0.620222
0.626337
0.631666
0.63617
0.639815
0.642574
0.644425
0.645353
0.294923
0.295472
0.296568
0.298211
0.300401
0.303136
0.306415
0.310234
0.314591
0.319482
0.324903
0.330847
0.337309
0.344278
0.351747
0.359703
0.368134
0.377024
0.386356
0.396109
0.406262
0.41679
0.427663
0.438851
0.45032
0.462032
0.473946
0.486018
0.4982
0.510442
0.522689
0.534885
0.54697
0.558883
0.57056
0.581936
0.592944
0.603518
0.613591
0.623099
0.631978
0.640166
0.647607
0.654245
0.660033
0.664926
0.668887
0.671886
0.673899
0.674908
0.299385
0.299965
0.301124
0.302862
0.305178
0.308071
0.311541
0.315583
0.320197
0.325378
0.331122
0.337424
0.344278
0.351676
0.359608
0.368063
0.377028
0.386489
0.396427
0.406822
0.417653
0.428891
0.44051
0.452476
0.464753
0.477302
0.49008
0.503039
0.51613
0.529298
0.542485
0.55563
0.568668
0.581533
0.594155
0.606463
0.618384
0.629845
0.640773
0.651096
0.660742
0.669645
0.67774
0.684967
0.69127
0.696602
0.70092
0.70419
0.706385
0.707486
0.304145
0.304759
0.305985
0.307825
0.310278
0.313342
0.317017
0.3213
0.326191
0.331685
0.337779
0.344468
0.351747
0.359608
0.368041
0.377038
0.386583
0.396664
0.407261
0.418356
0.429923
0.441938
0.454371
0.467186
0.480348
0.493815
0.50754
0.521476
0.535567
0.549755
0.563979
0.578173
0.592266
0.606186
0.619857
0.633201
0.646138
0.658587
0.670468
0.681701
0.692207
0.70191
0.710738
0.718624
0.725507
0.731331
0.73605
0.739624
0.742024
0.743228
0.309192
0.309842
0.311141
0.31309
0.315689
0.318936
0.322831
0.327374
0.332561
0.338392
0.344862
0.351967
0.359703
0.368063
0.377038
0.386617
0.39679
0.40754
0.418851
0.430702
0.44307
0.455927
0.469244
0.482985
0.497111
0.511579
0.526341
0.541344
0.556531
0.57184
0.587204
0.602552
0.617808
0.632893
0.647724
0.662216
0.67628
0.689828
0.70277
0.715016
0.72648
0.737077
0.746725
0.75535
0.762881
0.769258
0.774426
0.778342
0.780973
0.782292
0.314513
0.315202
0.316578
0.318644
0.321398
0.324841
0.328971
0.33379
0.339295
0.345485
0.352357
0.359908
0.368134
0.377028
0.386583
0.39679
0.407636
0.419107
0.431186
0.443853
0.457085
0.470853
0.485127
0.49987
0.515043
0.530599
0.546489
0.562657
0.579041
0.595576
0.612189
0.628804
0.645339
0.661708
0.677819
0.693579
0.708892
0.723657
0.737777
0.751151
0.763682
0.775275
0.785839
0.795288
0.803546
0.810541
0.816213
0.820512
0.823401
0.824851
0.320094
0.320824
0.322283
0.324472
0.327391
0.331042
0.335423
0.340535
0.346377
0.35295
0.36025
0.368276
0.377024
0.386489
0.396664
0.40754
0.419107
0.43135
0.444253
0.457797
0.471957
0.486707
0.502013
0.517839
0.534144
0.55088
0.567994
0.585427
0.603115
0.620987
0.638965
0.656968
0.674906
0.692684
0.710205
0.727364
0.744055
0.760169
0.775594
0.79022
0.803938
0.816641
0.828226
0.838597
0.847666
0.855353
0.861589
0.866318
0.869496
0.871092
0.325921
0.326694
0.32824
0.330559
0.333654
0.337523
0.342169
0.347592
0.353792
0.360769
0.368524
0.377053
0.386356
0.396427
0.407261
0.418851
0.431186
0.444253
0.458038
0.472519
0.487675
0.503476
0.519892
0.536884
0.554409
0.572419
0.590857
0.609662
0.628766
0.648093
0.66756
0.687078
0.706551
0.725876
0.744945
0.763645
0.781857
0.799461
0.816332
0.832348
0.847385
0.861323
0.874046
0.885446
0.895422
0.903883
0.910751
0.915962
0.919464
0.921223
0.331976
0.332795
0.334432
0.336889
0.340167
0.344268
0.349192
0.354942
0.36152
0.368925
0.377158
0.38622
0.396109
0.406822
0.418356
0.430702
0.443853
0.457797
0.472519
0.488001
0.504219
0.521146
0.53875
0.556993
0.57583
0.595211
0.615078
0.635367
0.656004
0.67691
0.697996
0.719166
0.740316
0.761335
0.782104
0.802498
0.822386
0.841635
0.860107
0.877663
0.894165
0.909478
0.923471
0.936019
0.947009
0.956337
0.963913
0.969663
0.973529
0.975471
0.338241
0.339108
0.340841
0.343442
0.346913
0.351256
0.356473
0.362567
0.369541
0.377395
0.386133
0.395755
0.406262
0.417653
0.429923
0.44307
0.457085
0.471957
0.487675
0.504219
0.521568
0.539695
0.558569
0.578149
0.598393
0.619247
0.640652
0.66254
0.684834
0.707451
0.730294
0.753262
0.776242
0.799112
0.821743
0.843998
0.865732
0.886797
0.907039
0.926303
0.944433
0.961276
0.976684
0.990515
1.00264
1.01294
1.02131
1.02766
1.03194
1.03409
0.344698
0.345615
0.347448
0.350199
0.353872
0.358468
0.363991
0.370445
0.377832
0.386158
0.395424
0.405634
0.41679
0.428891
0.441938
0.455927
0.470853
0.486707
0.503476
0.521146
0.539695
0.559098
0.579323
0.600331
0.622077
0.644509
0.667565
0.691173
0.715255
0.73972
0.764469
0.789389
0.814361
0.839253
0.863923
0.88822
0.911985
0.935054
0.957253
0.97841
0.998349
1.0169
1.03388
1.04915
1.06254
1.07393
1.08319
1.09022
1.09496
1.09734
0.351325
0.352294
0.354231
0.357139
0.361021
0.365881
0.371722
0.37855
0.38637
0.395186
0.405004
0.415829
0.427663
0.44051
0.454371
0.469244
0.485127
0.502013
0.519892
0.53875
0.558569
0.579323
0.600982
0.623508
0.646857
0.670974
0.695797
0.721253
0.747258
0.773718
0.800526
0.827565
0.854703
0.8818
0.908699
0.935236
0.961236
0.986514
1.01088
1.03413
1.05608
1.07653
1.09528
1.11215
1.12697
1.13958
1.14984
1.15764
1.16289
1.16553
0.3581
0.359122
0.361167
0.364237
0.368337
0.37347
0.379642
0.386859
0.395127
0.404454
0.414846
0.42631
0.438851
0.452476
0.467186
0.482985
0.49987
0.517839
0.536884
0.556993
0.578149
0.600331
0.623508
0.647645
0.672698
0.698611
0.725322
0.752755
0.780825
0.809432
0.838465
0.867797
0.897289
0.926787
0.956122
0.985115
1.01357
1.04129
1.06804
1.09363
1.11782
1.14038
1.1611
1.17977
1.19618
1.21017
1.22156
1.23022
1.23606
1.23899
0.364999
0.366077
0.368233
0.37147
0.375794
0.38121
0.387723
0.395342
0.404075
0.41393
0.424917
0.437044
0.45032
0.464753
0.480348
0.497111
0.515043
0.534144
0.554409
0.57583
0.598393
0.622077
0.646857
0.672698
0.699555
0.727377
0.7561
0.785646
0.815929
0.846843
0.878273
0.910085
0.942129
0.97424
1.00624
1.03792
1.06907
1.09947
1.12888
1.15705
1.18373
1.20866
1.23159
1.25227
1.27049
1.28602
1.29869
1.30833
1.31483
1.31809
0.371997
0.373132
0.375402
0.378812
0.383366
0.389072
0.395937
0.403971
0.413182
0.423583
0.435183
0.447996
0.462032
0.477302
0.493815
0.511579
0.530599
0.55088
0.572419
0.595211
0.619247
0.644509
0.670974
0.698611
0.727377
0.757222
0.788082
0.819881
0.852528
0.885917
0.919926
0.954414
0.989223
1.02417
1.05907
1.0937
1.12782
1.16119
1.19353
1.22457
1.25402
1.28159
1.307
1.32996
1.3502
1.36748
1.38159
1.39234
1.39959
1.40324
0.379067
0.38026
0.382647
0.386234
0.391025
0.397028
0.404254
0.412712
0.422415
0.433376
0.445608
0.459127
0.473946
0.49008
0.50754
0.526341
0.546489
0.567994
0.590857
0.615078
0.640652
0.667565
0.695797
0.725322
0.7561
0.788082
0.821208
0.855401
0.89057
0.926606
0.963384
1.00076
1.03855
1.07659
1.11465
1.1525
1.18988
1.22651
1.2621
1.29634
1.32888
1.35942
1.38761
1.41313
1.43566
1.45493
1.47068
1.48269
1.49079
1.49487
0.386181
0.387434
0.389941
0.393707
0.398739
0.405047
0.412641
0.421533
0.431739
0.443273
0.456153
0.470395
0.486018
0.503039
0.521476
0.541344
0.562657
0.585427
0.609662
0.635367
0.66254
0.691173
0.721253
0.752755
0.785646
0.819881
0.855401
0.892132
0.929983
0.968845
1.00859
1.04906
1.09009
1.13147
1.17297
1.21435
1.25531
1.29555
1.33473
1.37252
1.40853
1.44239
1.47371
1.50212
1.52726
1.54878
1.5664
1.57984
1.58892
1.5935
0.393311
0.394624
0.397252
0.401201
0.406479
0.413095
0.421063
0.430398
0.441115
0.453234
0.466774
0.481755
0.4982
0.51613
0.535567
0.556531
0.579041
0.603115
0.628766
0.656004
0.684834
0.715255
0.747258
0.780825
0.815929
0.852528
0.89057
0.929983
0.970679
1.01255
1.05547
1.09927
1.14378
1.18877
1.23402
1.27925
1.32414
1.36836
1.41153
1.45327
1.49316
1.53075
1.56561
1.5973
1.6254
1.6495
1.66925
1.68434
1.69455
1.69969
0.400426
0.4018
0.40455
0.408684
0.41421
0.421139
0.429487
0.439269
0.450505
0.463217
0.477427
0.49316
0.510442
0.529298
0.549755
0.57184
0.595576
0.620987
0.648093
0.67691
0.707451
0.73972
0.773718
0.809432
0.846843
0.885917
0.926606
0.968845
1.01255
1.05762
1.10391
1.15128
1.19953
1.24844
1.29776
1.34719
1.39639
1.445
1.4926
1.53875
1.58298
1.62478
1.66365
1.69907
1.73054
1.75759
1.77979
1.79679
1.80828
1.81408
0.407494
0.40893
0.411804
0.416124
0.421899
0.429144
0.437873
0.448107
0.459867
0.473178
0.488066
0.50456
0.522689
0.542485
0.563979
0.587204
0.612189
0.638965
0.66756
0.697996
0.730294
0.764469
0.800526
0.838465
0.878273
0.919926
0.963384
1.00859
1.05547
1.10391
1.1538
1.20497
1.25724
1.31037
1.3641
1.41811
1.47205
1.5255
1.57801
1.62909
1.67819
1.72475
1.76816
1.80783
1.84317
1.87361
1.89865
1.91785
1.93084
1.9374
0.414485
0.415983
0.41898
0.423486
0.429512
0.437072
0.446185
0.456872
0.469158
0.483071
0.498641
0.515901
0.534885
0.55563
0.578173
0.602552
0.628804
0.656968
0.687078
0.719166
0.753262
0.789389
0.827565
0.867797
0.910085
0.954414
1.00076
1.04906
1.09927
1.15128
1.20497
1.2602
1.31677
1.37444
1.43294
1.49195
1.55107
1.60986
1.66782
1.7244
1.77899
1.83092
1.87951
1.92405
1.96384
1.99821
2.02653
2.04829
2.06303
2.07048
0.421365
0.422924
0.426044
0.430736
0.437011
0.444887
0.454382
0.465522
0.478334
0.492849
0.509102
0.527129
0.54697
0.568668
0.592266
0.617808
0.645339
0.674906
0.706551
0.740316
0.776242
0.814361
0.854703
0.897289
0.942129
0.989223
1.03855
1.09009
1.14378
1.19953
1.25724
1.31677
1.37792
1.44047
1.50413
1.56856
1.63335
1.69802
1.76204
1.82477
1.88553
1.94356
1.99806
2.0482
2.09314
2.13207
2.16423
2.18898
2.20579
2.21428
0.428102
0.429721
0.432964
0.437839
0.444362
0.452549
0.462425
0.474014
0.487348
0.502462
0.519394
0.538186
0.558883
0.581533
0.606186
0.632893
0.661708
0.692684
0.725876
0.761335
0.799112
0.839253
0.8818
0.926787
0.97424
1.02417
1.07659
1.13147
1.18877
1.24844
1.31037
1.37444
1.44047
1.50823
1.57744
1.64775
1.71873
1.78989
1.86062
1.93023
1.99796
2.06293
2.12421
2.18081
2.23173
2.27599
2.31266
2.34094
2.36018
2.36991
0.434661
0.43634
0.439703
0.44476
0.451526
0.460022
0.470272
0.482305
0.496155
0.511861
0.529465
0.549015
0.57056
0.594155
0.619857
0.647724
0.677819
0.710205
0.744945
0.782104
0.821743
0.863923
0.908699
0.956122
1.00624
1.05907
1.11465
1.17297
1.23402
1.29776
1.3641
1.43294
1.50413
1.57744
1.6526
1.72927
1.80701
1.88528
1.96345
2.04077
2.11636
2.18924
2.25831
2.32241
2.38033
2.43085
2.47286
2.50533
2.52746
2.53867
0.44101
0.442748
0.446229
0.451463
0.458468
0.467266
0.477882
0.49035
0.504707
0.520994
0.53926
0.559555
0.581936
0.606463
0.633201
0.662216
0.693579
0.727364
0.763645
0.802498
0.843998
0.88822
0.935236
0.985115
1.03792
1.0937
1.1525
1.21435
1.27925
1.34719
1.41811
1.49195
1.56856
1.64775
1.72927
1.81278
1.89785
1.98393
2.07035
2.15628
2.24076
2.32267
2.40074
2.47358
2.53971
2.59766
2.64601
2.68351
2.70911
2.72209
0.447116
0.448911
0.452506
0.457913
0.46515
0.474241
0.485215
0.498106
0.512956
0.529811
0.548722
0.569745
0.592944
0.618384
0.646138
0.67628
0.708892
0.744055
0.781857
0.822386
0.865732
0.911985
0.961236
1.01357
1.06907
1.12782
1.18988
1.25531
1.32414
1.39639
1.47205
1.55107
1.63335
1.71873
1.80701
1.89785
1.99085
2.08546
2.18098
2.27654
2.37108
2.46332
2.55181
2.63487
2.71073
2.77755
2.83353
2.87708
2.90689
2.92203
0.452946
0.454796
0.458501
0.464075
0.471536
0.48091
0.492229
0.50553
0.520857
0.538261
0.557796
0.579526
0.603518
0.629845
0.658587
0.689828
0.723657
0.760169
0.799461
0.841635
0.886797
0.935054
0.986514
1.04129
1.09947
1.16119
1.22651
1.29555
1.36836
1.445
1.5255
1.60986
1.69802
1.78989
1.88528
1.98393
2.08546
2.18934
2.29488
2.40117
2.50707
2.61116
2.71175
2.80687
2.89432
2.97179
3.03703
3.08796
3.12291
3.14068
0.458469
0.460371
0.464182
0.469914
0.47759
0.487236
0.498885
0.512578
0.528363
0.546292
0.566428
0.588836
0.613591
0.640773
0.670468
0.70277
0.737777
0.775594
0.816332
0.860107
0.907039
0.957253
1.01088
1.06804
1.12888
1.19353
1.2621
1.33473
1.41153
1.4926
1.57801
1.66782
1.76204
1.86062
1.96345
2.07035
2.18098
2.29488
2.41138
2.52959
2.64831
2.76598
2.88068
2.99007
3.09144
3.18187
3.25843
3.31844
3.35972
3.38074
0.463653
0.465606
0.469516
0.475399
0.483278
0.493181
0.505143
0.519209
0.535428
0.553857
0.574563
0.597617
0.623099
0.651096
0.681701
0.715016
0.751151
0.79022
0.832348
0.877663
0.926303
0.97841
1.03413
1.09363
1.15705
1.22457
1.29634
1.37252
1.45327
1.53875
1.62909
1.7244
1.82477
1.93023
2.04077
2.15628
2.27654
2.40117
2.52959
2.66096
2.79408
2.92731
3.05849
3.18487
3.30312
3.40946
3.50004
3.57131
3.62045
3.64551
0.46847
0.470469
0.474473
0.480498
0.488567
0.498711
0.510967
0.525382
0.542008
0.560908
0.58215
0.605812
0.631978
0.660742
0.692207
0.72648
0.763682
0.803938
0.847385
0.894165
0.944433
0.998349
1.05608
1.11782
1.18373
1.25402
1.32888
1.40853
1.49316
1.58298
1.67819
1.77899
1.88553
1.99796
2.11636
2.24076
2.37108
2.50707
2.64831
2.79408
2.94327
3.09425
3.2447
3.39144
3.53036
3.65652
3.76465
3.85004
3.90899
3.93907
0.472892
0.474934
0.479024
0.48518
0.493425
0.503792
0.51632
0.531058
0.548063
0.567398
0.589138
0.613364
0.640166
0.669645
0.70191
0.737077
0.775275
0.816641
0.861323
0.909478
0.961276
1.0169
1.07653
1.14038
1.20866
1.28159
1.35942
1.44239
1.53075
1.62478
1.72475
1.83092
1.94356
2.06293
2.18924
2.32267
2.46332
2.61116
2.76598
2.92731
3.09425
3.26535
3.43827
3.60952
3.77407
3.92531
4.05576
4.15895
4.23018
4.26648
0.476892
0.478973
0.483142
0.489417
0.497823
0.508393
0.52117
0.536203
0.553552
0.573286
0.59548
0.620222
0.647607
0.67774
0.710738
0.746725
0.785839
0.828226
0.874046
0.923471
0.976684
1.03388
1.09528
1.1611
1.23159
1.307
1.38761
1.47371
1.56561
1.66365
1.76816
1.87951
1.99806
2.12421
2.25831
2.40074
2.55181
2.71175
2.88068
3.05849
3.2447
3.43827
3.63721
3.83801
4.03483
4.21867
4.37793
4.50363
4.59008
4.63402
0.480448
0.482564
0.486804
0.493185
0.501735
0.512487
0.525485
0.540783
0.558441
0.57853
0.601133
0.626337
0.654245
0.684967
0.718624
0.75535
0.795288
0.838597
0.885446
0.936019
0.990515
1.04915
1.11215
1.17977
1.25227
1.32996
1.41313
1.50212
1.5973
1.69907
1.80783
1.92405
2.0482
2.18081
2.32241
2.47358
2.63487
2.80687
2.99007
3.18487
3.39144
3.60952
3.83801
4.07424
4.31235
4.54042
4.73745
4.89141
4.99632
5.04934
0.483537
0.485684
0.489985
0.49646
0.505135
0.516046
0.529238
0.544767
0.562695
0.583097
0.606056
0.631666
0.660033
0.69127
0.725507
0.762881
0.803546
0.847666
0.895422
0.947009
1.00264
1.06254
1.12697
1.19618
1.27049
1.3502
1.43566
1.52726
1.6254
1.73054
1.84317
1.96384
2.09314
2.23173
2.38033
2.53971
2.71073
2.89432
3.09144
3.30312
3.53036
3.77407
4.03483
4.31235
4.60374
4.89704
5.1439
5.33212
5.45833
5.52156
0.486141
0.488314
0.492667
0.499221
0.508002
0.519048
0.532405
0.54813
0.566287
0.586954
0.610216
0.63617
0.664926
0.696602
0.731331
0.769258
0.810541
0.855353
0.903883
0.956337
1.01294
1.07393
1.13958
1.21017
1.28602
1.36748
1.45493
1.54878
1.6495
1.75759
1.87361
1.99821
2.13207
2.27599
2.43085
2.59766
2.77755
2.97179
3.18187
3.40946
3.65652
3.92531
4.21867
4.54042
4.89704
5.30398
5.61286
5.83872
5.98722
6.06092
0.488244
0.490438
0.494834
0.501451
0.510319
0.521474
0.534965
0.550848
0.569191
0.590073
0.613581
0.639815
0.668887
0.70092
0.73605
0.774426
0.816213
0.861589
0.910751
0.963913
1.02131
1.08319
1.14984
1.22156
1.29869
1.38159
1.47068
1.5664
1.66925
1.77979
1.89865
2.02653
2.16423
2.31266
2.47286
2.64601
2.83353
3.03703
3.25843
3.50004
3.76465
4.05576
4.37793
4.73745
5.1439
5.61286
5.96875
6.2266
6.39482
6.47793
0.489833
0.492043
0.496471
0.503137
0.51207
0.523308
0.5369
0.552904
0.571388
0.592432
0.616127
0.642574
0.671886
0.70419
0.739624
0.778342
0.820512
0.866318
0.915962
0.969663
1.02766
1.09022
1.15764
1.23022
1.30833
1.39234
1.48269
1.57984
1.68434
1.79679
1.91785
2.04829
2.18898
2.34094
2.50533
2.68351
2.87708
3.08796
3.31844
3.57131
3.85004
4.15895
4.50363
4.89141
5.33212
5.83872
6.2266
6.50805
6.69148
6.78198
0.490898
0.493119
0.497568
0.504267
0.513244
0.524538
0.538198
0.554282
0.572861
0.594015
0.617835
0.644425
0.673899
0.706385
0.742024
0.780973
0.823401
0.869496
0.919464
0.973529
1.03194
1.09496
1.16289
1.23606
1.31483
1.39959
1.49079
1.58892
1.69455
1.80828
1.93084
2.06303
2.20579
2.36018
2.52746
2.70911
2.90689
3.12291
3.35972
3.62045
3.90899
4.23018
4.59008
4.99632
5.45833
5.98722
6.39482
6.69148
6.885
6.98051
0.491432
0.493657
0.498118
0.504833
0.513832
0.525154
0.538848
0.554973
0.5736
0.594809
0.618692
0.645353
0.674908
0.707486
0.743228
0.782292
0.824851
0.871092
0.921223
0.975471
1.03409
1.09734
1.16553
1.23899
1.31809
1.40324
1.49487
1.5935
1.69969
1.81408
1.9374
2.07048
2.21428
2.36991
2.53867
2.72209
2.92203
3.14068
3.38074
3.64551
3.93907
4.26648
4.63402
5.04934
5.52156
6.06092
6.47793
6.78198
6.98051
7.07852
)
;

boundaryField
{
    walls
    {
        type            zeroGradient;
    }
    frontAndBack
    {
        type            empty;
    }
}


// ************************************************************************* //
