/*--------------------------------*- C++ -*----------------------------------*\
| =========                 |                                                 |
| \\      /  F ield         | OpenFOAM: The Open Source CFD Toolbox           |
|  \\    /   O peration     | Version:  2406                                  |
|   \\  /    A nd           | Website:  www.openfoam.com                      |
|    \\/     M anipulation  |                                                 |
\*---------------------------------------------------------------------------*/
FoamFile
{
    version     2.0;
    format      ascii;
    arch        "LSB;label=32;scalar=64";
    class       volScalarField;
    location    "1.9";
    object      nu;
}
// * * * * * * * * * * * * * * * * * * * * * * * * * * * * * * * * * * * * * //

dimensions      [0 2 -1 0 0 0 0];

internalField   nonuniform List<scalar> 
1800
(
0.016014
0.0213364
0.0278509
0.0682048
0.033196
0.0150497
0.011069
0.00940051
0.00891692
0.00790405
0.0144475
0.057816
0.101808
0.0219309
0.0126505
0.00990569
0.00872465
0.00799102
0.0079643
0.0072034
0.0144212
0.0979982
0.0184199
0.0111663
0.00904356
0.0081399
0.00771529
0.00747079
0.0075814
0.00732909
0.0155486
0.0186712
0.0107207
0.00857099
0.00773114
0.00736467
0.0072564
0.00731564
0.00757964
0.00782117
0.0281006
0.0114171
0.0084357
0.00745625
0.00709741
0.00705003
0.00721983
0.00759381
0.00823671
0.0092666
0.0158145
0.00879846
0.00733968
0.00690773
0.00688381
0.00714201
0.00769208
0.00865047
0.0103419
0.0135292
0.0100704
0.0074772
0.00679625
0.00672805
0.00703063
0.00771573
0.00895486
0.0111441
0.0148917
0.0208148
0.00797623
0.00681879
0.00657431
0.00683501
0.00755757
0.00892922
0.01137
0.0157809
0.0256413
0.0480886
0.00699407
0.00648653
0.00656962
0.00718968
0.00849354
0.010994
0.0161218
0.0289063
0.0551556
0.033101
0.00646211
0.00633835
0.00671538
0.00776292
0.0100345
0.0155588
0.0326129
0.051797
0.0262516
0.0180203
0.0134339
0.011008
0.0112124
0.0124308
0.0142056
0.0163877
0.0189324
0.0217128
0.0245977
0.0272467
0.0129952
0.0107787
0.0110396
0.0123555
0.0142969
0.016615
0.0191313
0.021599
0.0235968
0.0245957
0.0135822
0.0107429
0.0107938
0.0120193
0.0139764
0.0163726
0.0188815
0.0210964
0.0224405
0.0222212
0.0158868
0.0109997
0.010543
0.0114748
0.0131956
0.0154248
0.0177793
0.0197427
0.0206643
0.0199252
0.0228721
0.0119778
0.0104973
0.0109345
0.012193
0.0139781
0.0159744
0.0176982
0.0184234
0.0176705
0.0476331
0.0144818
0.0111004
0.0107762
0.011431
0.0126084
0.0140278
0.0153236
0.0158715
0.0152718
0.0233279
0.0224861
0.0134561
0.0114611
0.0114291
0.0120221
0.0128252
0.0135015
0.0136439
0.0128784
0.0215516
0.113701
0.0256989
0.0154991
0.0131882
0.0126222
0.0126965
0.0126422
0.0122207
0.0112023
0.0223436
0.030257
0.0318059
0.0624691
0.0262538
0.016937
0.0146315
0.0132105
0.0120269
0.0109091
0.0224492
0.0188114
0.0203048
0.0284173
0.0511249
0.0306486
0.0170842
0.0133017
0.0117051
0.0111649
0.0424491
0.0326448
0.0157737
0.0159461
0.0165507
0.0154346
0.0145594
0.0152478
0.0152291
0.0182491
0.0281144
0.0438467
0.0182749
0.0205777
0.0176683
0.0145535
0.0133393
0.0139621
0.0140305
0.0168551
0.0202423
0.0297165
0.0269137
0.0329431
0.0166201
0.0132189
0.012192
0.0126439
0.012738
0.0153552
0.0163852
0.0194139
0.0289702
0.0265787
0.0145479
0.0121752
0.011469
0.0117643
0.0117031
0.0139331
0.0141626
0.0150579
0.0204032
0.0172263
0.0128486
0.0113443
0.0109848
0.0113264
0.0111211
0.0128442
0.0126816
0.0129473
0.0150719
0.0138992
0.0116021
0.0106531
0.0105327
0.0110594
0.0109432
0.0122163
0.0116051
0.0117465
0.0128152
0.0123481
0.0108937
0.0103142
0.0102163
0.0107823
0.0109941
0.0120238
0.0109295
0.0107834
0.0115137
0.0114582
0.0106465
0.0103509
0.0102305
0.010588
0.0111053
0.0121716
0.0100663
0.0101445
0.0112989
0.0114049
0.0106352
0.0104929
0.0104931
0.0106291
0.0112401
0.0125707
0.00930134
0.00941431
0.0107863
0.0107761
0.0102665
0.0104742
0.0107234
0.0108855
0.0114849
0.0131904
0.00870167
0.0093563
0.0106146
0.0104939
0.0104584
0.0107586
0.0109518
0.0113196
0.0119828
0.0143188
0.00837766
0.00954391
0.0100535
0.00984708
0.0108114
0.0116665
0.0113486
0.0117818
0.0127404
0.0163696
0.00997205
0.00995375
0.00991661
0.0106346
0.0133389
0.0140141
0.012165
0.0121656
0.0131913
0.0179925
0.0132077
0.0112665
0.0109099
0.0127725
0.019255
0.0169337
0.0130846
0.0126464
0.0131773
0.0173944
0.0160296
0.0127593
0.0129396
0.0150326
0.0375957
0.0161009
0.0121931
0.0121172
0.0126334
0.0154605
0.0185013
0.0156158
0.0143501
0.0151826
0.0150124
0.011043
0.0102689
0.0106376
0.0112852
0.0132306
0.0259726
0.0182142
0.0139669
0.0127664
0.00951562
0.00863763
0.00872351
0.0093688
0.0101142
0.0114672
0.0140656
0.0123951
0.0108986
0.00864273
0.00767753
0.00775318
0.00821568
0.00888146
0.00945754
0.010225
0.00863478
0.00826071
0.00758979
0.00726288
0.0074591
0.00811599
0.00882845
0.00931328
0.00944097
0.00962154
0.00678177
0.00688388
0.00703441
0.00747652
0.00873623
0.0113142
0.0156252
0.0161828
0.0128552
0.0110658
0.0169405
0.0217937
0.0407125
0.119551
0.0252651
0.0152022
0.0102183
0.00881408
0.00793308
0.0083203
0.0194664
0.0214612
0.0273765
0.0383547
0.0509548
0.0541791
0.0178563
0.0149109
0.0106753
0.00906893
0.0210412
0.0230783
0.0270906
0.0280772
0.0437058
0.03036
0.0292676
0.0189573
0.0168791
0.0119729
0.0216288
0.0226535
0.0265633
0.0251871
0.0325306
0.0239998
0.0350107
0.01999
0.0245839
0.0160684
0.0217575
0.0228286
0.0259009
0.0256327
0.0295102
0.0247634
0.0288088
0.0220259
0.0237198
0.019336
0.0199946
0.0213452
0.0228451
0.0253172
0.0271954
0.0291791
0.0304699
0.0273716
0.0265946
0.0228496
0.0161525
0.0168216
0.0171479
0.0184623
0.0190767
0.0214585
0.02256
0.0263553
0.028296
0.0286985
0.0115112
0.011753
0.0116187
0.0120897
0.0119769
0.0127128
0.0126154
0.0136586
0.0135704
0.0149486
0.00838148
0.00837086
0.00833612
0.00837682
0.00837011
0.00845842
0.00847415
0.00859824
0.00863082
0.00877457
0.00654204
0.00652429
0.00654402
0.00653612
0.00657703
0.00657663
0.00663567
0.00664164
0.00671503
0.0067276
0.0104007
0.0106657
0.0104388
0.0101983
0.0100564
0.0102102
0.0109798
0.0101508
0.0070411
0.00578651
0.0107729
0.010717
0.0104526
0.0101717
0.0100304
0.0102796
0.011282
0.0100293
0.00692404
0.0057496
0.0110034
0.0109189
0.0106562
0.010359
0.0102172
0.0105845
0.0118602
0.00979008
0.00681245
0.00572481
0.0112344
0.011177
0.0109197
0.0106249
0.0105344
0.011121
0.0128196
0.00945835
0.00670144
0.0057095
0.0113838
0.0113808
0.011191
0.0109399
0.0109627
0.0120574
0.0144893
0.00905866
0.00660191
0.0057117
0.0116887
0.0116961
0.0115074
0.0113382
0.0116683
0.013674
0.0152362
0.00860419
0.00650914
0.00573052
0.0120368
0.0120658
0.0120207
0.0120534
0.0130723
0.0185166
0.0139077
0.00814056
0.00642292
0.00577267
0.0125957
0.0127474
0.012678
0.0130436
0.0167344
0.0330385
0.0117546
0.00769389
0.00635306
0.0058462
0.01351
0.0134739
0.0138447
0.0176561
0.0473112
0.0202994
0.00993467
0.00729605
0.0063044
0.0059643
0.0144859
0.0154316
0.0201958
0.0437148
0.0324222
0.0131101
0.00862309
0.0069637
0.00629176
0.00615311
0.0119645
0.0114836
0.0110563
0.0106834
0.0103364
0.0100196
0.00973709
0.00949253
0.00933135
0.00825359
0.0118604
0.0114168
0.0110169
0.0106551
0.0103152
0.01001
0.00975169
0.00948191
0.00893589
0.00741273
0.0117285
0.0113289
0.0109581
0.0106058
0.0102723
0.00998127
0.00976112
0.00949171
0.008597
0.00691952
0.0115901
0.0112496
0.010915
0.0105678
0.0102362
0.00996255
0.00979421
0.00953596
0.00830881
0.006598
0.0114684
0.0111888
0.0108931
0.0105531
0.0102211
0.00995924
0.00983948
0.00958511
0.0080485
0.0063677
0.0113631
0.0111445
0.0108867
0.0105499
0.0102245
0.00999398
0.00994857
0.0096864
0.0078243
0.00619847
0.0113326
0.0111792
0.0109471
0.0105898
0.010242
0.0100242
0.0100555
0.00976942
0.00762544
0.00606917
0.0113237
0.0111852
0.0109779
0.0106259
0.0102958
0.0101298
0.0102787
0.00992082
0.00745332
0.00596924
0.0115435
0.011366
0.0110578
0.0106088
0.0102477
0.010136
0.0104465
0.0100337
0.00730336
0.0058933
0.0114771
0.011178
0.0109363
0.0105867
0.0102818
0.010247
0.0107338
0.0101312
0.00716374
0.00583208
0.279312
0.0700034
0.0400495
0.0406043
0.044591
0.0415505
0.0320789
0.0261415
0.0197629
0.0141051
0.195373
0.0706249
0.0394237
0.037626
0.0410783
0.0412042
0.033756
0.026695
0.0204634
0.0139763
0.151528
0.0702203
0.0386281
0.0352959
0.0384875
0.0402175
0.0357852
0.026957
0.0214194
0.0138159
0.127519
0.0685853
0.0375877
0.0334083
0.0365434
0.0391364
0.0382274
0.0269209
0.0225576
0.0136107
0.112119
0.0662591
0.0364323
0.0318856
0.0350587
0.0382116
0.04095
0.0266938
0.0235863
0.0133794
0.101907
0.0637103
0.0353868
0.030713
0.0339228
0.0374705
0.0431528
0.0265149
0.0236746
0.0131825
0.0959441
0.0615329
0.0346559
0.0298756
0.0330357
0.036981
0.0432942
0.0266403
0.0224126
0.0129411
0.0939594
0.0603538
0.0344119
0.0292839
0.0322371
0.0368833
0.040863
0.0273738
0.0198615
0.0130101
0.0954451
0.0606697
0.0349849
0.0287622
0.0313338
0.036587
0.0375617
0.0281362
0.0186157
0.0127495
0.0988461
0.063637
0.0339528
0.0283183
0.0300012
0.0350839
0.0335357
0.0266374
0.016202
0.0141936
0.099819
0.0720834
0.0334772
0.0288907
0.0274281
0.0341163
0.0256079
0.0248041
0.0148379
0.0146544
0.0963939
0.0761238
0.0324216
0.0311291
0.0217773
0.0380423
0.0176375
0.0226485
0.0133302
0.0143608
0.0886233
0.0835923
0.0335831
0.029271
0.0178336
0.0354
0.0145921
0.0195557
0.0128152
0.0145237
0.0809337
0.102737
0.0376651
0.0220085
0.0175072
0.0238167
0.0150797
0.0173935
0.0145221
0.013512
0.0710848
0.120492
0.0431781
0.0187692
0.0203461
0.0190736
0.0177039
0.0165747
0.0179933
0.0135162
0.0578125
0.0819473
0.0594782
0.0178874
0.0217056
0.0174588
0.0185515
0.0174479
0.0201422
0.0149402
0.0474044
0.0739674
0.208229
0.0206347
0.0189606
0.0178509
0.0167982
0.0194869
0.0186095
0.0170169
0.0349274
0.0964098
0.0392251
0.0479189
0.0150204
0.0173359
0.013163
0.015687
0.0136965
0.0151804
0.0215765
0.0198018
0.0140597
0.012702
0.0113843
0.0109792
0.0102552
0.0103663
0.0100437
0.0100623
0.00792364
0.00790131
0.00826942
0.00849856
0.00881704
0.0080833
0.00832537
0.00767103
0.00759692
0.0072055
0.0116741
0.0114955
0.0113485
0.0114958
0.0117027
0.0120609
0.012498
0.0130896
0.0140696
0.0152804
0.0125429
0.0122161
0.0121264
0.0123313
0.0126976
0.0132338
0.0138602
0.0147562
0.0159138
0.0175205
0.0131066
0.012863
0.0129642
0.0133076
0.0138373
0.0144687
0.0152678
0.0162412
0.0174727
0.0190378
0.0134723
0.013473
0.0137922
0.0142645
0.0149073
0.0155293
0.0163709
0.0171843
0.0184238
0.0195385
0.0143754
0.0146118
0.0151095
0.0156263
0.0162172
0.0166852
0.0173691
0.0179708
0.0190515
0.0199133
0.0159082
0.0160922
0.0164563
0.0167573
0.0170244
0.0171919
0.0174915
0.0178316
0.0183901
0.0190388
0.0167264
0.0164696
0.0163032
0.0162117
0.0160279
0.0158981
0.0157282
0.0157438
0.0157243
0.0160213
0.0140274
0.0135917
0.0131176
0.0128407
0.0124644
0.0122765
0.011963
0.0118765
0.0116332
0.011696
0.00979061
0.00957104
0.00935725
0.00917919
0.00900745
0.00886913
0.00872476
0.00862218
0.00851279
0.00845208
0.00709212
0.00699233
0.00690556
0.00682317
0.00675675
0.00669268
0.00664653
0.00659987
0.00657505
0.00654422
0.00573015
0.00644767
0.00831684
0.0150232
0.0247473
0.0139584
0.0118012
0.0108411
0.0095867
0.00811484
0.00581015
0.00637257
0.00781373
0.0124012
0.0445096
0.0184953
0.0128891
0.0110051
0.00953224
0.00803911
0.00593736
0.00633123
0.00739457
0.0101841
0.0185927
0.0199423
0.0142787
0.0114617
0.00970051
0.00817937
0.00613031
0.00633522
0.0070754
0.00885785
0.0128565
0.0172301
0.0153296
0.0123051
0.0101707
0.0084691
0.0064204
0.0064014
0.00685988
0.0080279
0.0103972
0.0139302
0.015186
0.0133065
0.0110148
0.00902926
0.00686012
0.00655421
0.00675631
0.00750413
0.00900014
0.0114957
0.0139637
0.0140359
0.0122746
0.00978251
0.00754145
0.00682898
0.00677876
0.00720608
0.00814492
0.00977833
0.0120375
0.0135922
0.0134525
0.0111369
0.0086505
0.00727295
0.00694406
0.00710608
0.0076666
0.00870214
0.0103264
0.0122602
0.0136962
0.0120936
0.0106779
0.00795628
0.00727023
0.00719003
0.00747015
0.00810063
0.0091365
0.0105464
0.012443
0.0118603
0.0149519
0.00903683
0.00779079
0.00745944
0.00750942
0.00786286
0.00853343
0.00953074
0.0111357
0.0120919
0.029281
0.010776
0.00855733
0.0079247
0.00775875
0.00788487
0.0082768
0.00894495
0.00981049
0.0119644
0.0267646
0.013458
0.00968223
0.00861486
0.00823487
0.00816224
0.00833206
0.00873177
0.00915312
0.0108086
0.0187571
0.0173778
0.0112217
0.0095961
0.00901134
0.00876989
0.008758
0.00894924
0.00907933
0.0102516
0.016237
0.0221339
0.012872
0.0108077
0.0101501
0.00983156
0.00967403
0.00966497
0.00957121
0.0103791
0.0159931
0.0232896
0.0136006
0.0117001
0.0113618
0.0113009
0.0111597
0.0109535
0.010631
0.0110675
0.0178085
0.0189481
0.0128909
0.0117981
0.0120208
0.0125859
0.0129896
0.0129101
0.0123668
0.012349
0.0243695
0.0154899
0.0119899
0.0116892
0.0123245
0.0134023
0.0147506
0.0156881
0.0152638
0.0146675
0.0327523
0.0134385
0.0114882
0.0117994
0.0127518
0.0141634
0.0162585
0.0190296
0.0205772
0.0195543
0.019877
0.0121422
0.0113535
0.012077
0.0133529
0.0150977
0.0175958
0.0213541
0.0260962
0.0284718
0.015236
0.0114177
0.0113073
0.0123205
0.0138828
0.0159229
0.0185694
0.0220499
0.0266481
0.0312838
0.0113635
0.0113518
0.0125504
0.0161374
0.0275276
0.0821126
0.0287058
0.0241332
0.0221451
0.026364
0.0113074
0.0114888
0.0128403
0.0166385
0.0262748
0.0390708
0.0267191
0.0236119
0.021987
0.0270244
0.0110266
0.0115113
0.012994
0.016562
0.0228404
0.0280341
0.0246237
0.0229493
0.0215841
0.0266309
0.0110088
0.0116799
0.0132217
0.0162476
0.0203058
0.0232555
0.0224848
0.0220474
0.0210018
0.025798
0.0114797
0.0120983
0.0136154
0.0159526
0.0186343
0.0203415
0.0205589
0.0209892
0.0203079
0.024814
0.0123895
0.0128235
0.0141588
0.0156307
0.0172389
0.0182916
0.0189017
0.0198676
0.0195535
0.0238144
0.0138423
0.0140308
0.0146983
0.0151591
0.0160176
0.0167966
0.0175156
0.0187529
0.0187516
0.022819
0.0164015
0.0160045
0.0150569
0.0146063
0.0151322
0.0158192
0.0164512
0.0177318
0.0179143
0.0217902
0.0220527
0.0190719
0.0151995
0.0142447
0.0148046
0.0153759
0.0157525
0.016876
0.017066
0.0206933
0.0392783
0.024163
0.0152991
0.0144546
0.0152552
0.0154209
0.01528
0.0161401
0.0162023
0.0195172
0.0109331
0.0207392
0.0261098
0.0487769
0.0462519
0.0313085
0.0446008
0.0462172
0.0232711
0.016458
0.00853521
0.0112696
0.0147805
0.020374
0.0277388
0.0292928
0.022329
0.0172357
0.0149724
0.0135443
0.00841341
0.00994747
0.0127059
0.0162973
0.0204169
0.021845
0.0184899
0.0165721
0.0157084
0.015027
0.00919707
0.00985946
0.0120489
0.016039
0.022833
0.0289115
0.0232195
0.0204584
0.0189381
0.0189445
0.0111249
0.0110995
0.0125285
0.0162788
0.0282864
0.0711291
0.0276329
0.0232516
0.0212985
0.0234629
0.00577521
0.00587748
0.00601769
0.00621948
0.00645393
0.00675292
0.00710604
0.00745439
0.00801525
0.00825738
0.00597953
0.00605634
0.00617385
0.00633971
0.00652052
0.00672423
0.00696957
0.00713964
0.00752404
0.00757536
0.00626744
0.006316
0.0064253
0.00658259
0.00675445
0.00697672
0.00716395
0.00744376
0.00768611
0.00796385
0.00667492
0.00669101
0.00681194
0.00698995
0.00722008
0.00755082
0.00777171
0.00848943
0.00852049
0.00983612
0.0072221
0.0071977
0.0073436
0.007571
0.00795302
0.00841206
0.00904939
0.0101916
0.0103452
0.0136071
0.0120103
0.0117241
0.0114493
0.0110538
0.0106869
0.0104806
0.0105391
0.0102389
0.00793109
0.0062114
0.0122821
0.0120269
0.0116171
0.0111065
0.0106868
0.0104412
0.0104277
0.0101705
0.00815312
0.00635369
0.0120164
0.0118186
0.0115302
0.0111406
0.0107798
0.0105212
0.0104223
0.0101413
0.00840646
0.00653176
0.0121063
0.0118777
0.0115555
0.0111535
0.0107663
0.0104556
0.0102706
0.0100073
0.00868259
0.00676674
0.0121178
0.0118181
0.0114618
0.011071
0.010702
0.0103932
0.0101775
0.00994876
0.00902472
0.00710016
0.0121637
0.011797
0.0114061
0.0110166
0.0106493
0.0103253
0.0100687
0.0098646
0.00938546
0.00759457
0.0121747
0.0117455
0.0113219
0.0109275
0.0105564
0.0102192
0.00993728
0.00977757
0.00978582
0.00845468
0.0121467
0.011669
0.0112211
0.0108209
0.010443
0.0100912
0.00978888
0.00967034
0.0101582
0.0102896
0.0120963
0.0115932
0.0111364
0.0107367
0.010358
0.0100021
0.00968921
0.00954693
0.0101826
0.0129714
0.0120381
0.0115382
0.011093
0.0107079
0.0103468
0.01001
0.00970449
0.00950713
0.00979123
0.0100714
0.00841706
0.0097865
0.0107388
0.0112953
0.0119802
0.0143516
0.0161186
0.00882997
0.00654242
0.00568445
0.00896725
0.0100178
0.0105273
0.0107654
0.011079
0.0120718
0.0139617
0.00931872
0.00664999
0.00566463
0.0095155
0.010085
0.0102906
0.0103586
0.0104635
0.0109655
0.0121356
0.00968341
0.00676654
0.0056673
0.00978694
0.0100141
0.010079
0.0100906
0.010127
0.0104156
0.0112307
0.00988704
0.00688866
0.00568717
0.00987649
0.00998673
0.0100021
0.00996972
0.00994753
0.0101247
0.0107412
0.00995942
0.0070094
0.00572291
0.0100158
0.0100861
0.0100646
0.00998971
0.00991655
0.010011
0.0104944
0.00999977
0.00713465
0.00577183
0.0102879
0.0103275
0.0102442
0.0100926
0.00995398
0.00998624
0.0103779
0.0100167
0.00726474
0.00583326
0.0106621
0.0106232
0.0104389
0.0102048
0.0100159
0.0100048
0.010333
0.0100593
0.00740856
0.0059078
0.0109726
0.0108055
0.010537
0.0102689
0.0100749
0.0100563
0.010352
0.0101361
0.00756705
0.00599471
0.0108301
0.0108949
0.0106741
0.0104332
0.0102518
0.0102149
0.0104495
0.0102266
0.007743
0.00609535
0.0390166
0.0362832
0.0779115
0.0549337
0.0273683
0.0249625
0.0274014
0.0426254
0.0253144
0.0168298
0.0439213
0.0381358
0.0601205
0.125934
0.0339831
0.0261508
0.0265823
0.0297884
0.0263041
0.0148465
0.0506485
0.04049
0.0536066
0.731146
0.0424871
0.0273298
0.0271014
0.0263683
0.0248165
0.0141875
0.0598882
0.044096
0.0516688
0.172442
0.0473642
0.0285481
0.0269678
0.0240275
0.022264
0.0141506
0.0722133
0.049108
0.0500747
0.0968575
0.0551071
0.0299318
0.0268755
0.0229857
0.0205298
0.014213
0.0890645
0.054876
0.0477501
0.0757183
0.0613326
0.0316504
0.0271211
0.0227804
0.0196022
0.0142957
0.114867
0.060924
0.0453753
0.0652402
0.0631697
0.0337116
0.027677
0.0230918
0.0191314
0.0143357
0.162243
0.0665368
0.0435788
0.0570532
0.0603875
0.0361587
0.0284803
0.0237257
0.0189639
0.0143217
0.253996
0.0700245
0.0420744
0.0500094
0.0549772
0.0387121
0.0294845
0.0245339
0.0190301
0.0142687
0.34871
0.0702766
0.0408483
0.0445898
0.0492791
0.0407158
0.0306752
0.0253818
0.0192967
0.0141926
0.00725538
0.00743103
0.00810286
0.00873117
0.00939058
0.0096264
0.00977686
0.00922487
0.00920987
0.00771328
0.0148898
0.0109893
0.00966861
0.00975389
0.0102247
0.0106568
0.0111502
0.0113251
0.0113391
0.0111596
0.0259156
0.0246165
0.0136533
0.0119472
0.0118882
0.0124402
0.0132597
0.0150172
0.0151255
0.0139389
0.032291
0.0389247
0.0262349
0.0166769
0.0150278
0.0155669
0.0169433
0.0233755
0.0250136
0.0149242
0.0357246
0.035855
0.0754272
0.0274992
0.0199156
0.0198263
0.0221938
0.0428704
0.0316064
0.0165587
0.00720917
0.00688793
0.00658413
0.00631757
0.00610093
0.00593387
0.00581356
0.00573909
0.00570871
0.00572113
0.0102793
0.00947184
0.0086671
0.00796446
0.00733939
0.00681495
0.00642372
0.00616593
0.00602055
0.00596527
0.011889
0.0110181
0.0102262
0.00956524
0.00888056
0.00811266
0.00737726
0.00682186
0.00647959
0.0063109
0.0121391
0.0112577
0.0106212
0.0102073
0.00982252
0.00930554
0.00853399
0.00770651
0.00711441
0.00679275
0.011983
0.011203
0.0105762
0.0101714
0.00987112
0.00962258
0.00926489
0.00862216
0.00791959
0.00743673
)
;

boundaryField
{
    left
    {
        type            calculated;
        value           nonuniform List<scalar> 
35
(
0.158998
0.262962
0.173629
0.115951
0.0860604
0.0637176
0.0480045
0.0329176
0.0191967
0.00788513
0.166214
0.190207
0.20002
0.178176
0.148228
0.125284
0.111139
0.105218
0.107746
0.121707
0.0335867
0.0377361
0.0432058
0.0503364
0.0593859
0.0708515
0.0861343
0.107285
0.131009
0.149062
0.00721718
0.0135738
0.0216213
0.0268944
0.0305411
)
;
    }
    right
    {
        type            calculated;
        value           nonuniform List<scalar> 
35
(
0.0164522
0.0135809
0.0151698
0.0195608
0.0254837
0.0303345
0.0322084
0.0323631
0.0317445
0.0308328
0.029863
0.0288611
0.0277377
0.0264043
0.0248049
0.022859
0.0204918
0.0179115
0.015645
0.0140746
0.0132441
0.0130263
0.0132688
0.013866
0.0148159
0.0167221
0.0203341
0.0225042
0.0196542
0.015975
0.0133214
0.0115294
0.01029
0.00965742
0.0110811
)
;
    }
    down
    {
        type            calculated;
        value           nonuniform List<scalar> 
40
(
0.0063877
0.00674781
0.0076785
0.00843148
0.00912952
0.00926532
0.00926867
0.00856396
0.00849557
0.00692044
0.00651529
0.00628574
0.00607316
0.00589337
0.00576109
0.00567326
0.00561929
0.00559325
0.00559462
0.0056265
0.00569419
0.00580814
0.00596252
0.00618855
0.00646255
0.00684383
0.0072956
0.0078539
0.00861582
0.00921278
0.0179013
0.0454097
0.233115
0.14898
0.0272146
0.0194128
0.0226537
0.0330652
0.075625
0.0252531
)
;
    }
    up
    {
        type            calculated;
        value           nonuniform List<scalar> 
40
(
0.00633122
0.00654762
0.00723669
0.00835032
0.0106567
0.0198281
0.0150273
0.0149703
0.0263127
0.015268
0.00608129
0.00607122
0.00609406
0.00609001
0.0061306
0.00612992
0.00618597
0.00618848
0.0062573
0.00626457
0.00648084
0.00640317
0.00633606
0.00627305
0.00622281
0.00617513
0.00614307
0.00611053
0.00609669
0.00607679
0.00678846
0.00683271
0.00730107
0.00771067
0.00808637
0.00744232
0.00771762
0.00701522
0.00693804
0.00657357
)
;
    }
    cylinder
    {
        type            calculated;
        value           nonuniform List<scalar> 
80
(
0.0199986
0.0188126
0.0223736
0.0477179
0.0478428
0.0264512
0.0167361
0.0149541
0.0176527
0.0230524
0.013585
0.0111854
0.0109146
0.0124968
0.0192627
0.0315617
0.0162841
0.0096764
0.00767371
0.00674042
0.00550043
0.00547841
0.00546862
0.00546974
0.00549003
0.00553174
0.00560549
0.00572506
0.00591584
0.00622448
0.00761799
0.00683575
0.00640493
0.00613409
0.005945
0.00580914
0.0057071
0.00563014
0.00557368
0.00553027
0.00581478
0.00592702
0.0060683
0.00625671
0.00652746
0.00694043
0.00769141
0.00947556
0.0136613
0.00957814
0.00546735
0.00542515
0.00540941
0.00541299
0.00543392
0.00546842
0.00551493
0.00557325
0.00564239
0.00572266
0.00554325
0.00566693
0.00585992
0.0061534
0.0065994
0.00729882
0.00848875
0.0108985
0.0184944
0.0375899
0.0228354
0.015856
0.013051
0.0117561
0.0115988
0.0125594
0.0153727
0.0232764
0.0467039
0.03056
)
;
    }
    defaultFaces
    {
        type            empty;
    }
}


// ************************************************************************* //
