/*--------------------------------*- C++ -*----------------------------------*\
| =========                 |                                                 |
| \\      /  F ield         | OpenFOAM: The Open Source CFD Toolbox           |
|  \\    /   O peration     | Version:  2406                                  |
|   \\  /    A nd           | Website:  www.openfoam.com                      |
|    \\/     M anipulation  |                                                 |
\*---------------------------------------------------------------------------*/
FoamFile
{
    version     2.0;
    format      ascii;
    arch        "LSB;label=32;scalar=64";
    class       volScalarField;
    location    "1.9";
    object      p;
}
// * * * * * * * * * * * * * * * * * * * * * * * * * * * * * * * * * * * * * //

dimensions      [0 2 -2 0 0 0 0];

internalField   nonuniform List<scalar> 
1800
(
-0.434694
-0.438766
-0.438943
-0.437037
-0.431515
-0.42903
-0.427865
-0.424426
-0.419349
-0.441083
-0.468299
-0.470056
-0.468785
-0.471492
-0.470651
-0.466172
-0.461626
-0.456999
-0.449089
-0.474665
-0.51222
-0.508407
-0.508236
-0.505427
-0.501032
-0.4957
-0.489413
-0.481913
-0.471764
-0.472347
-0.552377
-0.542503
-0.535495
-0.531057
-0.525813
-0.518876
-0.509762
-0.498409
-0.485439
-0.472898
-0.579236
-0.574212
-0.5685
-0.56128
-0.552437
-0.54111
-0.526817
-0.509929
-0.491296
-0.471893
-0.631389
-0.619571
-0.610513
-0.599182
-0.584579
-0.56625
-0.544493
-0.519999
-0.493572
-0.466447
-0.691207
-0.672583
-0.660102
-0.643226
-0.62019
-0.592202
-0.561343
-0.529302
-0.497354
-0.463737
-0.756295
-0.732915
-0.715739
-0.689664
-0.65444
-0.614149
-0.572094
-0.529492
-0.486492
-0.445438
-0.826016
-0.797313
-0.771865
-0.73233
-0.68223
-0.628513
-0.574111
-0.519238
-0.466401
-0.419988
-0.89037
-0.856649
-0.817686
-0.761309
-0.695374
-0.627292
-0.559314
-0.494426
-0.436583
-0.384375
-0.760703
-0.763186
-0.764244
-0.765119
-0.765849
-0.766345
-0.766675
-0.767065
-0.767508
-0.766879
-0.711829
-0.711329
-0.711259
-0.711116
-0.710963
-0.710856
-0.71087
-0.711182
-0.711966
-0.712765
-0.66319
-0.65942
-0.657874
-0.656298
-0.654697
-0.653257
-0.652063
-0.651268
-0.651087
-0.651231
-0.614767
-0.607854
-0.604584
-0.601078
-0.597408
-0.593924
-0.59075
-0.588048
-0.586013
-0.584192
-0.564541
-0.556937
-0.552482
-0.546918
-0.540702
-0.534452
-0.528396
-0.522741
-0.517624
-0.5123
-0.512601
-0.510314
-0.505062
-0.497397
-0.488468
-0.47886
-0.468944
-0.459072
-0.449396
-0.439125
-0.484101
-0.476342
-0.466123
-0.456413
-0.445211
-0.432478
-0.41854
-0.403789
-0.388581
-0.372764
-0.445003
-0.443958
-0.444496
-0.433926
-0.418573
-0.402454
-0.385012
-0.365693
-0.345298
-0.325018
-0.416308
-0.420156
-0.42167
-0.415297
-0.40165
-0.388106
-0.372273
-0.352621
-0.330821
-0.308623
-0.414172
-0.417937
-0.416819
-0.411118
-0.398412
-0.38359
-0.37027
-0.354894
-0.335342
-0.311164
-0.751711
-0.889074
-1.031
-1.17448
-1.11014
-0.859851
-0.533786
-0.278434
-0.10614
-0.0107116
-0.720174
-0.915594
-1.11156
-1.30393
-1.23917
-0.943232
-0.567277
-0.281049
-0.0979096
-0.00339967
-0.673564
-0.934589
-1.19276
-1.44417
-1.37976
-1.03424
-0.60427
-0.283618
-0.0888342
0.00457479
-0.611551
-0.935865
-1.26794
-1.5842
-1.52593
-1.13144
-0.644273
-0.286734
-0.0797403
0.0121374
-0.533785
-0.911466
-1.32469
-1.71313
-1.67205
-1.23121
-0.686943
-0.291364
-0.072039
0.0178738
-0.442039
-0.859623
-1.35177
-1.82174
-1.80773
-1.32861
-0.731212
-0.298477
-0.0671467
0.0207663
-0.342301
-0.78018
-1.34287
-1.89929
-1.92213
-1.41708
-0.775531
-0.309198
-0.0660581
0.0206553
-0.244872
-0.675602
-1.29769
-1.93806
-2.00672
-1.49128
-0.818721
-0.324815
-0.0697056
0.0178528
-0.168688
-0.549017
-1.21579
-1.93613
-2.0582
-1.54851
-0.859538
-0.345582
-0.0790414
0.0125014
-0.14983
-0.414587
-1.10471
-1.89506
-2.07728
-1.58968
-0.897101
-0.370436
-0.0941237
0.00455459
-0.0980676
-0.291144
-1.01445
-1.85215
-2.06682
-1.58719
-0.910013
-0.392481
-0.116109
-0.00854306
-0.120134
-0.252081
-0.966068
-1.76053
-1.95545
-1.50334
-0.891544
-0.417469
-0.149432
-0.0275134
-0.149127
-0.273536
-0.903325
-1.61235
-1.78433
-1.40492
-0.884266
-0.458373
-0.189908
-0.0462945
-0.182292
-0.291294
-0.816402
-1.4018
-1.57188
-1.30395
-0.897618
-0.52281
-0.242859
-0.0666217
-0.19085
-0.286403
-0.705023
-1.17761
-1.35413
-1.21693
-0.933348
-0.606287
-0.306074
-0.0875256
-0.180732
-0.265415
-0.590492
-0.965212
-1.15776
-1.15429
-0.988418
-0.692211
-0.364282
-0.103336
-0.153982
-0.231665
-0.480491
-0.772957
-0.9906
-1.11335
-1.04814
-0.768151
-0.409486
-0.113141
-0.115632
-0.187153
-0.370705
-0.617224
-0.863629
-1.07427
-1.06422
-0.796309
-0.428359
-0.117024
-0.0655759
-0.142215
-0.322898
-0.52335
-0.762257
-1.03247
-1.04794
-0.792968
-0.429773
-0.118028
-0.0447251
-0.11108
-0.305329
-0.564279
-0.794363
-1.01038
-1.01468
-0.764364
-0.4212
-0.115233
-0.29543
-0.340536
-0.370496
-0.394999
-0.418069
-0.436711
-0.448747
-0.453641
-0.417259
-0.385403
-0.18858
-0.239046
-0.278655
-0.309534
-0.335607
-0.356479
-0.353604
-0.350856
-0.325629
-0.319572
-0.09809
-0.150255
-0.192937
-0.226129
-0.251164
-0.275032
-0.277173
-0.284665
-0.27102
-0.269015
-0.019177
-0.0718754
-0.116093
-0.152694
-0.180744
-0.207435
-0.220042
-0.235531
-0.233416
-0.237983
0.0479155
-0.00489046
-0.0502275
-0.0894669
-0.120965
-0.149909
-0.169269
-0.188384
-0.195894
-0.206652
0.103565
0.0509441
0.00511947
-0.0351956
-0.0685523
-0.0982908
-0.120883
-0.142086
-0.156103
-0.171433
0.148718
0.096452
0.0507025
0.0103848
-0.0232954
-0.0526715
-0.0763789
-0.0977552
-0.114816
-0.132166
0.184178
0.132241
0.0865231
0.0466526
0.0132558
-0.0150473
-0.037983
-0.0574787
-0.0737108
-0.0886065
0.205529
0.154525
0.108474
0.0690273
0.0356747
0.0087151
-0.0125947
-0.0285993
-0.0404511
-0.0485655
0.215835
0.163816
0.116948
0.0769962
0.0426065
0.015325
-0.00651026
-0.0217627
-0.0322209
-0.0368858
0.875037
0.820632
0.75761
0.690723
0.618788
0.539076
0.451485
0.361276
0.278482
0.22445
0.710548
0.652498
0.587523
0.516494
0.437631
0.348793
0.250804
0.150302
0.0589805
-0.00194315
0.53073
0.471171
0.405064
0.331403
0.24817
0.153528
0.0489304
-0.0583204
-0.155185
-0.220801
0.358957
0.297204
0.228352
0.151163
0.0638669
-0.0351573
-0.14415
-0.256038
-0.356654
-0.422023
0.203794
0.139194
0.0668946
-0.0141759
-0.105698
-0.20891
-0.32056
-0.436171
-0.535793
-0.600596
0.063587
-0.00360006
-0.0785054
-0.16194
-0.255413
-0.36058
-0.473169
-0.586261
-0.68427
-0.746651
-0.0610404
-0.129417
-0.205135
-0.289391
-0.383429
-0.486078
-0.595556
-0.704054
-0.797075
-0.854632
-0.170093
-0.237306
-0.311453
-0.393165
-0.483005
-0.581871
-0.686052
-0.787274
-0.871244
-0.922167
-0.262143
-0.325554
-0.395428
-0.47221
-0.556677
-0.648736
-0.742605
-0.832689
-0.903591
-0.947879
-0.333573
-0.391829
-0.455443
-0.525573
-0.603978
-0.68597
-0.767076
-0.841099
-0.896439
-0.934945
1.8542
1.86787
1.88245
1.89681
1.91014
1.92196
1.93158
1.93813
1.94321
1.96043
1.8129
1.82461
1.83664
1.84799
1.858
1.86614
1.87177
1.87455
1.87676
1.89174
1.75244
1.7614
1.76988
1.77713
1.78263
1.7858
1.78603
1.78344
1.781
1.79171
1.67421
1.67986
1.68389
1.68591
1.68561
1.68233
1.67541
1.66553
1.65644
1.66124
1.57905
1.5806
1.57929
1.57513
1.56807
1.5573
1.54213
1.52369
1.50658
1.50457
1.47014
1.46725
1.45975
1.44827
1.43311
1.41341
1.3885
1.36004
1.33341
1.32381
1.34926
1.3413
1.32711
1.30787
1.28409
1.25474
1.21917
1.17959
1.14204
1.12467
1.22278
1.20906
1.18667
1.1579
1.12382
1.08342
1.03619
0.984947
0.936258
0.909834
1.09569
1.07544
1.04401
1.00492
0.959593
0.906839
0.846343
0.781874
0.721177
0.68498
0.978957
0.944696
0.898662
0.84619
0.788325
0.722992
0.649625
0.57257
0.500717
0.455364
1.70608
1.69467
1.68875
1.67208
1.66068
1.65749
1.66139
1.67825
1.71305
1.79341
1.70224
1.69211
1.68623
1.66979
1.6588
1.65351
1.65623
1.66926
1.69876
1.76854
1.69918
1.68938
1.68379
1.66726
1.65657
1.6487
1.64982
1.65734
1.67914
1.7327
1.69676
1.68667
1.68143
1.66454
1.65396
1.64309
1.64226
1.64249
1.65463
1.68565
1.69501
1.68399
1.67917
1.66167
1.65094
1.63671
1.63351
1.6247
1.62572
1.62694
1.69385
1.68132
1.67701
1.65867
1.64751
1.62956
1.62349
1.60395
1.59291
1.55628
1.69316
1.67865
1.67498
1.65554
1.64364
1.62167
1.61215
1.58031
1.55671
1.47334
1.69285
1.67601
1.67309
1.65226
1.63929
1.61301
1.59955
1.55396
1.51703
1.37951
1.69282
1.67349
1.67165
1.649
1.63461
1.60358
1.58589
1.52509
1.47335
1.27428
1.69299
1.67115
1.67117
1.64628
1.63003
1.59379
1.57138
1.49472
1.428
1.16684
1.6938
1.66909
1.66874
1.64159
1.62291
1.58192
1.55356
1.46014
1.37207
1.06279
1.69611
1.66797
1.66972
1.63924
1.61875
1.57114
1.53712
1.43271
1.32263
1.05529
1.69976
1.66769
1.67075
1.63687
1.61522
1.56177
1.521
1.41373
1.2839
1.05341
1.70424
1.6679
1.6727
1.63531
1.61037
1.55771
1.5053
1.40236
1.25517
1.0494
1.71004
1.66903
1.67448
1.63404
1.60231
1.55885
1.48974
1.39453
1.23396
1.04281
1.71936
1.67103
1.67308
1.62948
1.59056
1.56031
1.47405
1.38758
1.21937
1.03561
1.7336
1.67642
1.66775
1.60982
1.57467
1.56063
1.45871
1.38128
1.21242
1.03185
1.75371
1.6829
1.66683
1.60056
1.56129
1.56095
1.44402
1.37924
1.2127
1.03381
1.76797
1.68536
1.66695
1.60067
1.55239
1.56168
1.43224
1.38296
1.2149
1.04084
1.81357
1.68495
1.66266
1.59245
1.54929
1.5627
1.42885
1.39465
1.21905
1.05579
0.85849
0.722783
0.562661
0.408926
0.269901
0.143871
0.0296655
-0.0722648
-0.162114
-0.236412
0.815565
0.70612
0.580406
0.454934
0.337625
0.228711
0.126925
0.0325079
-0.0524452
-0.126413
0.802033
0.703495
0.597618
0.49155
0.389376
0.292134
0.199898
0.113344
0.0344295
-0.0363875
0.803918
0.710785
0.616119
0.523909
0.434497
0.347775
0.264039
0.184217
0.109741
0.0415128
0.813134
0.725982
0.639327
0.556724
0.476646
0.39768
0.320006
0.244771
0.173575
0.107482
0.826365
0.745984
0.665785
0.589262
0.514796
0.440637
0.366823
0.294651
0.226117
0.161919
0.842761
0.768694
0.69351
0.620557
0.548985
0.477565
0.406105
0.335819
0.268713
0.206097
0.861536
0.792214
0.720523
0.649394
0.578959
0.508806
0.438876
0.370556
0.304426
0.241903
0.87586
0.808066
0.738023
0.667437
0.596828
0.526341
0.456288
0.388326
0.322723
0.261911
0.893028
0.825971
0.756761
0.685396
0.612981
0.54079
0.469932
0.401313
0.3355
0.273763
-1.64528
-1.58247
-1.48992
-1.38617
-1.2866
-1.19786
-1.11994
-1.05413
-1.00017
-0.958389
-1.74276
-1.68708
-1.60309
-1.50371
-1.40551
-1.31825
-1.24184
-1.17569
-1.12063
-1.07793
-1.78811
-1.73961
-1.66637
-1.57484
-1.48266
-1.39703
-1.32075
-1.25379
-1.19636
-1.14999
-1.78716
-1.74591
-1.68578
-1.60563
-1.51963
-1.43668
-1.361
-1.2938
-1.23461
-1.18453
-1.75041
-1.71632
-1.67074
-1.60451
-1.52723
-1.44874
-1.37457
-1.3074
-1.24718
-1.19415
-1.69139
-1.66408
-1.63185
-1.58011
-1.51392
-1.44214
-1.37078
-1.3038
-1.24277
-1.188
-1.62313
-1.60176
-1.57969
-1.54146
-1.48795
-1.42538
-1.35941
-1.29453
-1.23402
-1.18022
-1.55428
-1.53737
-1.52242
-1.49544
-1.45435
-1.4019
-1.34257
-1.28071
-1.22061
-1.16616
-1.48867
-1.47478
-1.4646
-1.44632
-1.41634
-1.37463
-1.32386
-1.26758
-1.21049
-1.16059
-1.42451
-1.41369
-1.40731
-1.39535
-1.37438
-1.34246
-1.29994
-1.24863
-1.19108
-1.13707
-1.35834
-1.35526
-1.35157
-1.34365
-1.3295
-1.30634
-1.27305
-1.23057
-1.18008
-1.122
-1.30083
-1.29953
-1.29658
-1.29191
-1.28277
-1.26637
-1.24092
-1.20644
-1.16343
-1.10846
-1.24685
-1.24427
-1.24267
-1.24073
-1.23507
-1.22328
-1.2034
-1.17486
-1.13732
-1.08557
-1.18736
-1.18649
-1.18699
-1.18699
-1.18376
-1.17516
-1.15927
-1.13544
-1.10258
-1.05574
-1.12173
-1.12382
-1.12561
-1.12621
-1.1243
-1.11895
-1.10571
-1.08592
-1.05856
-1.02025
-1.0545
-1.05795
-1.06014
-1.06104
-1.0602
-1.05543
-1.0452
-1.02956
-1.00901
-0.980879
-0.990834
-0.992754
-0.994591
-0.995752
-0.995657
-0.992732
-0.985861
-0.974882
-0.960421
-0.94204
-0.928624
-0.930562
-0.931759
-0.933496
-0.934237
-0.933048
-0.929399
-0.922964
-0.913744
-0.901138
-0.86551
-0.871228
-0.873248
-0.875102
-0.876259
-0.876167
-0.874714
-0.871846
-0.866993
-0.858721
-0.810115
-0.815486
-0.817546
-0.819156
-0.820307
-0.820728
-0.820466
-0.819729
-0.818211
-0.814339
-0.930304
-0.676181
-0.619419
-0.632913
-0.628057
-0.555699
-0.429257
-0.28709
-0.15709
-0.0429963
-0.904038
-0.661414
-0.622996
-0.645552
-0.639556
-0.556819
-0.427167
-0.283318
-0.153282
-0.0414186
-0.87995
-0.657055
-0.634708
-0.664506
-0.65503
-0.562186
-0.4267
-0.279918
-0.149225
-0.0394917
-0.860859
-0.665303
-0.655429
-0.690741
-0.675457
-0.572702
-0.428337
-0.27708
-0.145007
-0.0373502
-0.845524
-0.685091
-0.684507
-0.724911
-0.702033
-0.588322
-0.432262
-0.274839
-0.140591
-0.0350149
-0.8311
-0.713377
-0.721462
-0.768096
-0.736373
-0.609812
-0.438825
-0.273257
-0.135925
-0.0324401
-0.816008
-0.747265
-0.766436
-0.821796
-0.780371
-0.638617
-0.448575
-0.27244
-0.130944
-0.0295241
-0.801396
-0.783958
-0.821151
-0.886272
-0.836386
-0.676773
-0.462273
-0.27254
-0.125581
-0.0261054
-0.787233
-0.821826
-0.88373
-0.965214
-0.9083
-0.725479
-0.480765
-0.273691
-0.11976
-0.0219751
-0.772442
-0.857109
-0.954131
-1.06103
-0.998956
-0.786596
-0.504669
-0.275807
-0.113357
-0.0169058
-0.909383
-0.72777
-0.653393
-0.629289
-0.606454
-0.523309
-0.410819
-0.278012
-0.151969
-0.038173
-0.894026
-0.719492
-0.648499
-0.629285
-0.607277
-0.52522
-0.411111
-0.279529
-0.155248
-0.0415827
-0.89259
-0.710502
-0.641244
-0.627966
-0.610247
-0.530284
-0.414043
-0.279895
-0.156065
-0.0422064
-0.898397
-0.699345
-0.632321
-0.626217
-0.613586
-0.537162
-0.419406
-0.283636
-0.157667
-0.0431586
-0.920605
-0.683474
-0.618538
-0.623897
-0.616977
-0.545902
-0.426292
-0.287334
-0.158799
-0.0437747
-0.917015
-1.03067
-1.09717
-1.12764
-1.1247
-1.10807
-1.07483
-1.04451
-1.00796
-0.976044
-0.914159
-1.0277
-1.09168
-1.11818
-1.11154
-1.09015
-1.05549
-1.02054
-0.986296
-0.947923
-0.917106
-1.03118
-1.09466
-1.12001
-1.11405
-1.09167
-1.06255
-1.02721
-1.00144
-0.967755
-0.924257
-1.04007
-1.10475
-1.13087
-1.12815
-1.10839
-1.08694
-1.05581
-1.03829
-1.01077
-0.936183
-1.05448
-1.1218
-1.15064
-1.15322
-1.14001
-1.12675
-1.1052
-1.09373
-1.07217
1.29228
1.27827
1.25721
1.233
1.20664
1.17695
1.14341
1.10848
1.07792
1.06511
1.40216
1.39784
1.3876
1.37383
1.35742
1.33762
1.31411
1.28895
1.26728
1.26086
1.50954
1.51018
1.50655
1.50021
1.49177
1.48061
1.46637
1.45038
1.43681
1.43664
1.60741
1.61203
1.61409
1.61434
1.61298
1.60936
1.60294
1.59447
1.58746
1.59304
1.6938
1.70189
1.70852
1.71394
1.71808
1.72034
1.72014
1.71767
1.71586
1.72621
1.76553
1.77638
1.78678
1.79651
1.80525
1.81245
1.81742
1.81976
1.82178
1.83581
1.82116
1.83419
1.84757
1.86068
1.87299
1.88396
1.8928
1.89852
1.90284
1.91869
1.85896
1.8735
1.889
1.90455
1.91946
1.93323
1.94504
1.95345
1.95933
1.97396
1.87754
1.89275
1.90926
1.92598
1.94213
1.95728
1.97071
1.98087
1.98753
1.99892
1.87596
1.89086
1.90699
1.92318
1.93862
1.95284
1.96513
1.97421
1.98088
1.99694
-0.788968
-0.831797
-0.886018
-0.951801
-1.03
-1.12068
-1.22271
-1.32997
-1.42647
-1.49455
-0.573922
-0.61948
-0.675212
-0.74179
-0.820497
-0.912224
-1.01455
-1.12424
-1.22267
-1.29342
-0.325323
-0.374618
-0.432873
-0.50094
-0.580043
-0.671198
-0.773225
-0.880486
-0.979327
-1.05132
-0.0611779
-0.114032
-0.174677
-0.243728
-0.322357
-0.411729
-0.510927
-0.613995
-0.709245
-0.778439
0.198023
0.143417
0.0822883
0.0143114
-0.061624
-0.146786
-0.240643
-0.337625
-0.427145
-0.489287
0.436528
0.383633
0.325382
0.261555
0.191076
0.112632
0.0265586
-0.0619838
-0.143283
-0.196775
0.648939
0.601214
0.549107
0.492307
0.429746
0.360127
0.28368
0.205192
0.133616
0.0892891
0.840584
0.799696
0.755287
0.706839
0.653188
0.593082
0.526776
0.458777
0.397359
0.361867
1.02095
0.98615
0.947798
0.906307
0.86059
0.809368
0.752869
0.695181
0.643769
0.616509
1.18498
1.15555
1.12087
1.08467
1.04637
1.00432
0.958299
0.911486
0.870309
0.850645
1.78902
1.72728
1.70566
1.67711
1.65513
1.64472
1.62837
1.61254
1.54894
1.44163
1.77541
1.72392
1.70608
1.68205
1.65869
1.6513
1.63833
1.62674
1.58432
1.51931
1.76351
1.71985
1.7069
1.68159
1.65787
1.65609
1.64724
1.64313
1.61963
1.59374
1.75318
1.71614
1.70654
1.67808
1.65689
1.6591
1.65478
1.65751
1.65056
1.65715
1.74421
1.71233
1.7042
1.67883
1.65992
1.66149
1.66063
1.66934
1.6763
1.70965
1.73637
1.70858
1.70168
1.67909
1.66259
1.66318
1.66482
1.67841
1.69687
1.75115
1.72936
1.70495
1.69916
1.67841
1.66394
1.664
1.66737
1.68451
1.71195
1.78173
1.72283
1.70162
1.69658
1.67725
1.6641
1.66385
1.66826
1.68752
1.7212
1.80137
1.71662
1.69888
1.69395
1.6758
1.66343
1.66271
1.66751
1.68743
1.72444
1.80992
1.71094
1.69682
1.69132
1.67408
1.66223
1.66058
1.66519
1.68432
1.72168
1.80725
1.90649
1.73982
1.69953
1.65762
1.6323
1.61583
1.58963
1.55728
1.45468
1.35291
1.86803
1.74252
1.70715
1.66467
1.63619
1.6178
1.58989
1.55739
1.4538
1.33573
1.84646
1.73991
1.70754
1.66706
1.63924
1.6214
1.59417
1.56284
1.46388
1.33586
1.82428
1.73435
1.70774
1.6701
1.64424
1.62769
1.60222
1.5734
1.48031
1.34574
1.80496
1.73041
1.70704
1.67275
1.64956
1.63554
1.6136
1.58844
1.50382
1.36614
1.08504
0.969918
0.825389
0.644523
0.429468
0.186933
-0.0697335
-0.322754
-0.556151
-0.757233
1.07098
0.957852
0.816044
0.639998
0.431644
0.195089
-0.0591171
-0.313406
-0.549999
-0.753843
1.0842
0.969202
0.824446
0.648045
0.441449
0.206145
-0.0488858
-0.306139
-0.546598
-0.754039
1.11258
0.987448
0.834989
0.657045
0.451198
0.215878
-0.0409253
-0.301783
-0.54666
-0.758203
1.16251
1.0165
0.84853
0.665101
0.457935
0.221964
-0.0365729
-0.300968
-0.550503
-0.766619
)
;

boundaryField
{
    left
    {
        type            zeroGradient;
    }
    right
    {
        type            fixedValue;
        value           uniform 0;
    }
    down
    {
        type            zeroGradient;
    }
    up
    {
        type            zeroGradient;
    }
    cylinder
    {
        type            zeroGradient;
    }
    defaultFaces
    {
        type            empty;
    }
}


// ************************************************************************* //
