/*--------------------------------*- C++ -*----------------------------------*\
| =========                 |                                                 |
| \\      /  F ield         | OpenFOAM: The Open Source CFD Toolbox           |
|  \\    /   O peration     | Version:  2406                                  |
|   \\  /    A nd           | Website:  www.openfoam.com                      |
|    \\/     M anipulation  |                                                 |
\*---------------------------------------------------------------------------*/
FoamFile
{
    version     2.0;
    format      ascii;
    arch        "LSB;label=32;scalar=64";
    class       surfaceScalarField;
    location    "1.9";
    object      phi;
}
// * * * * * * * * * * * * * * * * * * * * * * * * * * * * * * * * * * * * * //

dimensions      [0 3 -1 0 0 0 0];

oriented        oriented;

internalField   nonuniform List<scalar> 
3485
(
-0.00158118
0.00279389
-0.00121271
-0.00330081
0.00387619
-0.00215655
-0.00456541
0.00384833
-0.00258373
-0.00510566
0.00329473
-0.00275448
-0.004152
0.00185253
-0.00280619
0.000173737
-0.0016632
-0.00266254
0.00942258
-0.00756508
-0.00168376
0.0242427
-0.0153906
0.00057052
0.0451797
-0.0247776
0.00384065
-0.030891
0.00796443
0.0681062
-0.000865207
0.0036591
-0.00104951
0.00406049
-0.000924957
0.00372378
0.000815003
0.00155477
0.00639876
-0.00373122
0.0175725
-0.012837
0.0350353
-0.0250278
0.0589052
-0.0392606
0.0889373
-0.0548097
-0.0652594
0.123306
0.000411829
0.00324727
0.000688402
0.00378392
0.00280642
0.00160576
0.00947173
-0.00511054
0.0226408
-0.0169003
0.0427007
-0.0328969
0.0690517
-0.0513788
0.100227
-0.070436
0.134418
-0.0890009
-0.102751
0.17191
0.00155964
0.00168762
0.00376952
0.00157405
0.0100388
-0.00466354
0.0233026
-0.0183744
0.0446295
-0.0382271
0.072974
-0.0612414
0.105873
-0.0842776
0.140444
-0.105008
0.173775
-0.122332
-0.135045
0.206069
0.000994643
0.000692977
0.00563914
-0.00307045
0.0177835
-0.0168079
0.0391645
-0.0397553
0.0683515
-0.0674142
0.10167
-0.0945601
0.135074
-0.117682
0.165497
-0.135431
0.191153
-0.147987
-0.156042
0.21215
0.00120496
-0.000511986
0.0096427
-0.0115082
0.0286772
-0.0358424
0.0570416
-0.0681197
0.0895815
-0.0999542
0.120843
-0.125821
0.147334
-0.144173
0.167857
-0.155953
0.182875
-0.163005
-0.167018
0.19385
0.00265927
-0.00317126
0.0161565
-0.0250054
0.0411121
-0.060798
0.0715915
-0.0985991
0.100418
-0.128781
0.123553
-0.148956
0.140376
-0.160996
0.15224
-0.167817
0.160924
-0.171689
-0.173956
0.167862
0.00488527
-0.00805653
0.023079
-0.0431991
0.0501234
-0.0878424
0.0767868
-0.125262
0.0976983
-0.149693
0.112235
-0.163493
0.122097
-0.170858
0.129148
-0.174869
0.134665
-0.177206
-0.178615
0.139324
0.00712311
-0.0151796
0.0279096
-0.0639856
0.0524085
-0.112341
0.0723548
-0.145209
0.0859738
-0.163312
0.0948133
-0.172332
0.100801
-0.176845
0.105285
-0.179353
0.108958
-0.180879
-0.181559
0.111902
0.00897021
-0.0241499
0.0292658
-0.0842812
0.0485905
-0.131666
0.0621195
-0.158738
0.0704233
-0.171615
0.0754465
-0.177355
0.0789461
-0.180345
0.0816869
-0.182094
0.083405
-0.182597
0.0839329
-0.182086
-0.000335806
0.00104568
-0.000709871
-0.00145882
0.00823705
-0.00711404
-0.00309634
0.0162676
-0.0146301
-0.00492012
0.0226463
-0.0208226
-0.00665726
0.0272557
-0.0255186
-0.00814147
0.0306069
-0.0291227
-0.00930483
0.0331487
-0.0319854
-0.0101478
0.0351839
-0.0343409
-0.0107118
0.0369103
-0.0363462
0.038454
-0.0110398
-0.038126
9.72701e-05
0.000948407
0.000119832
0.00821449
-0.000271353
0.0166588
-0.0010226
0.0233976
-0.0019167
0.0281498
-0.00276802
0.0314583
-0.00346099
0.0338417
-0.00392976
0.0356527
-0.00414192
0.0371224
0.0384165
-0.00410436
0.000461409
0.000486997
0.00174806
0.00692784
0.00289587
0.015511
0.00358384
0.0227096
0.00392355
0.0278101
0.00412302
0.0312588
0.00435116
0.0336135
0.00472437
0.0352794
0.00532391
0.0365229
0.0375397
0.00620062
0.000518587
-3.15901e-05
0.00294722
0.00449921
0.00586127
0.012597
0.00839971
0.0201712
0.0104296
0.0257802
0.0121249
0.0295635
0.0137084
0.03203
0.0153673
0.0336205
0.0172534
0.0346368
0.0352721
0.019521
0.000449401
-0.000480991
0.0032901
0.0016585
0.00767416
0.00821291
0.0122245
0.0156209
0.0163251
0.0216795
0.0199389
0.0259497
0.0232634
0.0287055
0.0265436
0.0303404
0.0300219
0.0311585
0.0313003
0.0339937
0.000440963
-0.000921954
0.0026153
-0.000515838
0.00735599
0.00347222
0.0133229
0.00965395
0.0193776
0.0156249
0.0250838
0.0202435
0.0304234
0.0233659
0.0355737
0.0251901
0.0408107
0.0259215
0.0255353
0.0465758
0.000723138
-0.00164509
0.00179078
-0.00158348
0.0050234
0.000239599
0.0106328
0.00404452
0.0173833
0.00887437
0.0243782
0.0132486
0.0312661
0.016478
0.0380289
0.0184273
0.0448604
0.01909
0.0181329
0.0522627
-0.000145752
-0.00149934
-0.000180278
-0.00154895
0.000845478
-0.000786157
0.00397134
0.000918658
0.00910222
0.00374348
0.0154308
0.00691998
0.0222904
0.00961842
0.0294657
0.011252
0.0370602
0.0114955
0.00975386
0.0454393
-0.00109947
-0.000399874
-0.00223445
-0.000413961
-0.00331767
0.000297056
-0.00367385
0.00127484
-0.00222307
0.0022927
0.00118312
0.00351379
0.00603717
0.00476437
0.0120333
0.00525588
0.0191625
0.00436633
0.00159511
0.0273212
-0.00161258
-0.0041831
-0.00646977
-0.00794942
-0.00846291
-0.00761165
-0.00453105
0.00129535
0.00950234
0.0190619
-0.00411919
0.409296
-0.416217
-0.0106338
0.465653
-0.459138
-0.0300613
0.368231
-0.348804
-0.0401562
0.203737
-0.193642
-0.0205295
-0.0390699
0.0194433
0.0176766
-0.233175
0.194969
0.0601471
-0.337013
0.294542
0.094227
-0.328468
0.294389
0.122646
-0.305723
0.277304
-0.178064
0.162737
0.002951
0.402241
-0.00649221
0.475096
-0.0285038
0.390243
-0.0362616
0.211494
-0.0132602
-0.0620713
0.0283439
-0.274779
0.0723529
-0.381022
0.105335
-0.36145
0.132053
-0.332441
-0.192916
0.0159196
0.392522
0.00549865
0.485517
-0.0161433
0.411885
-0.0217282
0.217079
0.00374645
-0.0875459
0.0482594
-0.319292
0.0934522
-0.426214
0.124143
-0.392141
0.146636
-0.354933
-0.205661
0.0346813
0.377362
0.0266272
0.493571
0.00567935
0.432833
0.00219308
0.220566
0.0278986
-0.113251
0.0749531
-0.366346
0.121679
-0.472941
0.151023
-0.421485
0.167863
-0.371774
-0.214594
0.0588408
0.352515
0.0543673
0.498045
0.0366947
0.450505
0.033998
0.223262
0.059511
-0.138764
0.106067
-0.412903
0.153128
-0.520002
0.183181
-0.451538
0.195445
-0.384037
-0.21905
0.0856083
0.313482
0.0881685
0.495484
0.0747534
0.463921
0.0737828
0.224233
0.0992629
-0.164245
0.14315
-0.456789
0.186532
-0.563384
0.216721
-0.481727
0.226842
-0.394158
-0.220051
0.111408
0.254337
0.126093
0.4808
0.117924
0.472089
0.118292
0.223865
0.144806
-0.190758
0.186339
-0.498323
0.223354
-0.600399
0.250056
-0.508428
0.258841
-0.402943
-0.219345
0.129804
0.169972
0.162195
0.448409
0.161637
0.472648
0.162779
0.222723
0.18885
-0.21683
0.22916
-0.538632
0.261931
-0.63317
0.283247
-0.529745
0.289415
-0.40911
-0.217894
0.137274
0.0600189
0.197446
0.388237
0.204108
0.465986
0.203713
0.223118
0.227512
-0.240629
0.265962
-0.577082
0.297374
-0.664582
0.315053
-0.547424
0.317581
-0.411638
-0.215714
0.125129
-0.046048
0.213782
0.299584
0.235048
0.444719
0.239391
0.218775
0.261965
-0.263203
0.297565
-0.612682
0.327759
-0.694776
0.343433
-0.563098
0.342493
-0.410698
-0.212723
0.263449
-0.0471037
-0.262394
0.355565
0.207468
0.422819
0.377465
0.519906
0.121689
0.617624
-0.360921
0.666509
-0.661567
0.663965
-0.692232
0.633963
-0.533096
0.587587
-0.364322
-0.18184
0.452046
0.0113663
-0.510516
0.472841
0.186672
0.555261
0.295045
0.676234
0.000715765
0.764893
-0.44958
0.783206
-0.67988
0.744063
-0.65309
0.686181
-0.475214
0.622856
-0.300997
-0.143008
0.606399
0.0406869
-0.63572
0.617267
0.175804
0.705056
0.207256
0.809208
-0.103436
0.863616
-0.503988
0.856469
-0.672733
0.795191
-0.591812
0.715712
-0.395734
0.637693
-0.222978
-0.0983505
0.693632
0.0409371
-0.693882
0.735932
0.133504
0.824421
0.118767
0.902362
-0.181377
0.931882
-0.533508
0.903524
-0.644375
0.824177
-0.512465
0.728775
-0.300332
0.638038
-0.132241
-0.0483557
0.748669
0.0236873
-0.731419
0.80876
0.0734138
0.891182
0.0363443
0.952419
-0.242613
0.962645
-0.543734
0.904709
-0.586439
0.799646
-0.407402
0.696172
-0.196858
0.60963
-0.0456987
-0.00214737
0.787444
-0.00245092
-0.761305
0.843853
0.0170047
0.916408
-0.0362105
0.970481
-0.296687
0.95036
-0.523614
0.851297
-0.487375
0.724934
-0.281039
0.619762
-0.0916866
0.547288
0.026776
0.032063
0.802319
-0.0267691
-0.778
0.848224
-0.0289007
0.917677
-0.105664
0.940558
-0.319568
0.852478
-0.435533
0.703136
-0.338032
0.57367
-0.151573
0.491011
-0.00902785
0.450719
0.0670676
0.046558
0.783646
-0.0404019
-0.770013
0.823094
-0.0683485
0.867947
-0.150518
0.802521
-0.254141
0.622685
-0.255697
0.444734
-0.160081
0.344819
-0.0516578
0.31222
0.0235711
0.31807
0.0612174
0.0377423
0.684666
-0.0374128
-0.687655
0.697568
-0.0812507
0.645264
-0.0982134
0.466848
-0.0757251
0.265593
-0.0544428
0.146461
-0.040949
0.11226
-0.0174574
0.125966
0.00986578
0.162287
0.0248962
0.0159344
0.342192
-0.379604
0.260941
0.162727
0.0870024
0.0325596
-0.00838946
-0.0258469
-0.0159811
0.0089151
0.506183
0.0733597
-0.49561
0.516956
0.101129
0.527371
0.128909
0.537937
0.157297
0.54948
0.182307
0.553065
0.208566
0.533373
0.22576
0.478794
0.22649
0.369521
0.232579
0.175234
0.504846
0.0631617
-0.494647
0.517193
0.0887811
0.5313
0.114802
0.54687
0.141728
0.561863
0.167313
0.580039
0.190389
0.587958
0.217841
0.588005
0.226442
0.567025
0.253559
0.231743
0.512011
0.0541385
-0.502987
0.523424
0.0773672
0.536908
0.101319
0.55361
0.125026
0.570473
0.15045
0.590501
0.170361
0.610265
0.198077
0.627077
0.20963
0.642854
0.237783
0.238877
0.522117
0.045764
-0.513742
0.533411
0.0660723
0.546817
0.0879132
0.563558
0.108284
0.582522
0.131486
0.603203
0.14968
0.627784
0.173496
0.649638
0.187776
0.676676
0.210744
0.221671
0.529715
0.0371568
-0.521107
0.541521
0.0542658
0.556292
0.0731425
0.574011
0.090565
0.595266
0.110231
0.618084
0.126862
0.645364
0.146217
0.671718
0.161422
0.70318
0.179282
0.193432
0.531597
0.0280806
-0.522521
0.544037
0.041826
0.560277
0.0569023
0.579554
0.0712881
0.602965
0.0868204
0.62864
0.101187
0.658608
0.116249
0.689871
0.13016
0.725427
0.143725
0.157554
0.524592
0.0188216
-0.515333
0.537482
0.0289357
0.55465
0.0397342
0.575296
0.0506426
0.600464
0.0616524
0.628686
0.0729637
0.661439
0.0834965
0.696719
0.0948799
0.736298
0.104146
0.115852
0.500304
0.00984253
-0.491325
0.513242
0.0159973
0.530589
0.0223876
0.551891
0.0293409
0.577906
0.0356368
0.607731
0.0431385
0.642344
0.0488845
0.680599
0.0566239
0.723457
0.0612881
0.069296
0.433772
0.00221941
-0.426149
0.445104
0.00466579
0.46058
0.00691143
0.480202
0.009719
0.504087
0.0117522
0.532239
0.0149864
0.564635
0.0164882
0.601324
0.0199346
0.642051
0.0205611
0.0236921
0.250893
-0.248674
0.255559
0.262471
0.27219
0.283942
0.298928
0.315417
0.335351
0.355912
0.0697312
0.130256
-0.119903
-0.0800842
0.0599986
0.132395
-0.122662
0.0508922
0.134656
-0.12555
0.0420459
0.137577
-0.128731
0.0332263
0.140799
-0.131979
0.0244538
0.143584
-0.134812
0.0160111
0.144171
-0.135728
0.00829128
0.139575
-0.131855
0.00223755
0.121636
-0.115582
0.0656278
-0.0633903
0.0665213
0.139626
-0.0758911
0.0571481
0.141768
0.0479346
0.14387
0.038987
0.146525
0.0302403
0.149546
0.0217479
0.152076
0.0138047
0.152114
0.00675555
0.146624
0.00156752
0.126824
0.0671953
0.0592016
0.148142
-0.0677172
0.0504847
0.150485
0.0417976
0.152557
0.033316
0.155006
0.0251114
0.15775
0.0173329
0.159855
0.0102708
0.159176
0.00423904
0.152656
0.000295386
0.130768
0.0674907
0.0492003
0.15573
-0.0567886
0.0414832
0.158202
0.0337499
0.16029
0.0261644
0.162592
0.0188435
0.165071
0.012021
0.166677
0.00609834
0.165099
0.00123541
0.157519
-0.000948911
0.132952
0.0665418
0.0361689
0.162611
-0.0430502
0.0293224
0.165049
0.0225018
0.167111
0.0158395
0.169254
0.00958668
0.171324
0.00412674
0.172137
-0.000213498
0.169439
-0.0030242
0.16033
-0.00287278
0.132801
0.063669
0.0223602
0.168494
-0.0282434
0.0166145
0.170794
0.0109576
0.172768
0.00548421
0.174728
0.00042456
0.176384
-0.00356045
0.176122
-0.00623543
0.172114
-0.00725487
0.161349
-0.00468836
0.130234
0.0589807
0.00522287
0.17366
-0.0103882
0.000371483
0.175646
-0.00420717
0.177346
-0.00840261
0.178923
-0.0117569
0.179738
-0.0135695
0.177935
-0.0143448
0.17289
-0.0125802
0.159585
-0.00673823
0.124392
0.0522425
-0.0132731
0.177728
0.00920499
-0.0169126
0.179285
-0.0202675
0.180701
-0.0231077
0.181763
-0.0244007
0.181031
-0.0243506
0.177885
-0.0229691
0.171508
-0.0179488
0.154564
-0.00850897
0.114952
0.0437335
-0.0344357
0.180518
0.0316454
-0.0369569
0.181806
-0.0389
0.182644
-0.0393627
0.182226
-0.0382885
0.179957
-0.0364253
0.176022
-0.0320346
0.167117
-0.022992
0.145522
-0.00967074
0.101631
0.0340627
-0.0581467
0.0565783
-0.0589372
-0.0583868
-0.0565057
-0.0539045
-0.049498
-0.0411182
-0.0272626
-0.00991288
0.10356
0.0300983
-0.114894
-0.0187644
0.0919909
0.0306058
-0.0190364
0.0801794
0.0311957
-0.0193841
0.0681092
0.0318758
-0.0198056
0.0557693
0.0326318
-0.0202919
0.0431718
0.0333517
-0.0207542
0.0304199
0.0336209
-0.0208689
0.0178924
0.0323503
-0.0198229
0.00668908
0.0274088
-0.0162054
0.0147551
-0.00806601
0.103657
0.0414436
-0.115003
0.0921139
0.0421494
0.080337
0.0429726
0.0683145
0.0438984
0.056034
0.0449122
0.0435007
0.0458849
0.0307981
0.0463235
0.0182463
0.0449022
0.00686364
0.0387914
0.0216187
0.103055
0.0527064
-0.114318
0.0915756
0.0536288
0.0798679
0.0546803
0.0679203
0.0558461
0.0557212
0.0571113
0.0432728
0.0583333
0.0306545
0.0589418
0.0181719
0.0573847
0.00681784
0.0501455
0.0284366
0.101284
0.0638914
-0.112469
0.0899365
0.0649766
0.0783581
0.0662587
0.0665382
0.0676659
0.0544724
0.0691771
0.0421809
0.0706248
0.0297669
0.0713558
0.0175453
0.0696064
0.00649383
0.0611969
0.0349304
0.0989147
0.0748053
-0.109829
0.0878217
0.0760696
0.0765269
0.0775535
0.0650014
0.0791915
0.0532186
0.0809599
0.041186
0.0826574
0.0290194
0.0835223
0.0170509
0.0815749
0.00624784
0.072
0.0411782
0.0949069
0.0855289
-0.10563
0.0841011
0.0868753
0.0731027
0.088552
0.0619095
0.0903847
0.0505137
0.0923556
0.0389276
0.0942435
0.0272688
0.0951811
0.0158693
0.0929744
0.00566953
0.0821997
0.0468478
0.0905332
0.0956912
-0.100696
0.0803092
0.0970993
0.0698971
0.0989641
0.059224
0.101058
0.0482646
0.103315
0.0370671
0.105441
0.025816
0.106432
0.0148897
0.103901
0.00524571
0.0918437
0.0520935
0.0835764
0.10543
-0.0933148
0.0738738
0.106802
0.0640879
0.10875
0.0541698
0.110976
0.0440444
0.11344
0.0336973
0.115788
0.0232959
0.116834
0.0132323
0.113964
0.0044782
0.100598
0.0565717
0.0780728
0.113727
-0.0863702
0.0694821
0.115392
0.0603512
0.117881
0.0507952
0.120532
0.0409519
0.123284
0.030958
0.125782
0.0210692
0.126722
0.0116879
0.123346
0.00375118
0.108535
0.0603229
0.068494
-0.0746701
0.0612242
0.0535552
0.0453564
0.0366606
0.027631
0.0186248
0.0101151
0.0030674
0.200698
0.00164902
-0.00435733
0.205952
-0.0119475
0.00669319
0.212717
0.0111892
-0.0179541
0.215106
0.0773555
-0.0797446
0.213038
0.129534
-0.127466
0.207853
0.164599
-0.159415
0.198782
0.169573
-0.160502
0.185596
0.174131
-0.160945
0.161653
0.186362
-0.162419
0.204675
-0.157917
0.200657
-0.00101792
0.205804
-0.0170945
0.211846
0.00514728
0.213177
0.0760237
0.210237
0.132475
0.204419
0.170416
0.195675
0.178318
0.182793
0.187013
0.160276
0.208878
0.249949
0.200465
-0.00349289
0.205447
-0.0220766
0.210715
-0.000121279
0.210847
0.0758918
0.206876
0.136447
0.200059
0.177233
0.191516
0.186861
0.178556
0.199973
0.157646
0.229788
0.293277
0.200122
-0.0056248
0.20487
-0.026825
0.209314
-0.00456489
0.208091
0.0771149
0.202914
0.141624
0.194842
0.185304
0.186418
0.195285
0.17297
0.213421
0.153929
0.248829
0.334736
0.199644
-0.00727881
0.204076
-0.0312571
0.207633
-0.00812202
0.204884
0.0798637
0.19832
0.148188
0.188861
0.194763
0.180485
0.203661
0.166152
0.227754
0.149206
0.265776
0.374113
0.199038
-0.00832713
0.203051
-0.0352701
0.205646
-0.0107171
0.201202
0.084308
0.1931
0.15629
0.182231
0.205632
0.173793
0.212098
0.158373
0.243174
0.143659
0.28049
0.412141
0.198304
-0.00864172
0.201753
-0.0387183
0.203293
-0.0122572
0.197019
0.0905815
0.187298
0.166012
0.175083
0.217847
0.166377
0.220804
0.149836
0.259715
0.137231
0.293095
0.448677
0.197439
-0.00809059
0.200113
-0.0413929
0.200493
-0.0126366
0.19234
0.0987339
0.18099
0.177362
0.167546
0.231292
0.158289
0.23006
0.140877
0.277127
0.130417
0.303555
0.48578
0.196438
-0.0065392
0.198042
-0.0429965
0.19718
-0.0117747
0.187213
0.108701
0.174282
0.190292
0.159713
0.245861
0.149651
0.240122
0.132082
0.294696
0.123076
0.31256
0.522486
0.195363
-0.00391253
0.195427
-0.04306
0.193451
-0.00979856
0.181646
0.120505
0.167304
0.204634
0.151608
0.261558
0.140757
0.250973
0.12259
0.312864
0.115951
0.319199
0.563767
0.303178
-0.00508024
0.306406
-0.0462876
0.317471
-0.0208643
0.320643
0.117334
0.322417
0.20286
0.314461
0.269515
0.319962
0.245472
0.315254
0.317571
0.357766
0.276687
0.4994
0.422133
0.302974
-0.00604429
0.304183
-0.0474966
0.316012
-0.0326929
0.323518
0.109827
0.331374
0.195004
0.328671
0.272218
0.340372
0.233771
0.345039
0.312905
0.373048
0.248678
0.437085
0.435363
0.302902
-0.00693586
0.303226
-0.047821
0.31226
-0.0417263
0.32881
0.0932765
0.343737
0.180077
0.354015
0.26194
0.373763
0.214023
0.390889
0.295779
0.41003
0.229537
0.381453
0.465663
0.303329
-0.0082546
0.303721
-0.0482133
0.306485
-0.0444898
0.336304
0.0634569
0.357949
0.158432
0.382759
0.23713
0.413785
0.182997
0.437825
0.271738
0.45936
0.208002
0.331006
0.509806
0.304471
-0.0107152
0.304982
-0.0487247
0.303247
-0.0427543
0.341687
0.0250169
0.369285
0.130834
0.404763
0.201652
0.444421
0.143339
0.47442
0.24174
0.502174
0.180248
0.278881
0.554299
0.306461
-0.0151657
0.307403
-0.0496671
0.306459
-0.0418105
0.343903
-0.012427
0.376082
0.0986552
0.420049
0.157684
0.461697
0.101692
0.498179
0.205257
0.530812
0.147616
0.225139
0.584554
0.309128
-0.0222834
0.310316
-0.0508555
0.312896
-0.0443904
0.340139
-0.0396694
0.374471
0.0643222
0.423476
0.10868
0.461835
0.0633321
0.50567
0.161423
0.541171
0.112114
0.170222
0.596088
0.310615
-0.0308877
0.310804
-0.0510447
0.31501
-0.0485962
0.323237
-0.0478969
0.355926
0.0316337
0.406323
0.0582825
0.43591
0.0337453
0.487614
0.109719
0.526473
0.0732561
0.111354
0.58534
0.307842
-0.0367194
0.300477
-0.0436796
0.295319
-0.043438
0.279785
-0.0323634
0.303901
0.00751779
0.342411
0.0197723
0.360454
0.0157029
0.419964
0.050208
0.46124
0.0319806
0.0484737
0.52412
0.265291
0.221611
0.178173
0.14581
0.153328
0.1731
0.188803
0.239011
0.270991
0.319465
0.433735
-0.0916866
0.438921
-0.0810772
0.443896
-0.0726919
0.449475
-0.062368
0.456224
-0.0497984
0.462961
-0.0349803
0.470326
-0.0177533
0.478261
0.00126922
0.486418
0.0234883
0.0473864
0.439601
-0.0959249
0.444721
-0.0861965
0.449489
-0.0774606
0.454472
-0.06735
0.460005
-0.055332
0.465771
-0.0407461
0.472094
-0.0240765
0.478631
-0.00526749
0.486122
0.0159976
0.0388606
0.467031
-0.0972929
0.470196
-0.0893618
0.473497
-0.0807615
0.476512
-0.0703654
0.479403
-0.0582224
0.482523
-0.0438669
0.486088
-0.0276409
0.49027
-0.0094498
0.495843
0.0104249
0.0317162
0.507835
-0.0953213
0.506317
-0.0878442
0.504843
-0.0792878
0.503359
-0.0688805
0.501945
-0.0568088
0.501323
-0.0432447
0.501663
-0.0279813
0.503702
-0.0114882
0.50752
0.0066071
0.0254937
0.54608
-0.087102
0.538065
-0.0798292
0.530482
-0.0717053
0.523791
-0.0621897
0.518144
-0.0511613
0.514181
-0.0392817
0.512061
-0.0258615
0.512444
-0.011871
0.515281
0.00376988
0.0196672
0.570174
-0.0727221
0.556578
-0.0662338
0.544247
-0.0593741
0.533695
-0.0516375
0.525139
-0.0426058
0.518978
-0.0331204
0.515341
-0.0222241
0.514598
-0.0111278
0.516914
0.0014531
0.0140604
0.57742
-0.0540543
0.560393
-0.0492074
0.545237
-0.0442176
0.532345
-0.0387461
0.521963
-0.0322235
0.514359
-0.0255162
0.509685
-0.0175502
0.508209
-0.00965211
0.509889
-0.000226192
0.00861644
0.563774
-0.0324886
0.544755
-0.0301882
0.527895
-0.0273574
0.51346
-0.0243113
0.501809
-0.0205724
0.492972
-0.0166793
0.48731
-0.011888
0.484907
-0.00724914
0.486432
-0.00175099
0.00372324
0.503551
-0.0119192
0.484583
-0.0112203
0.467778
-0.0105523
0.453202
-0.00973515
0.441232
-0.0086021
0.431855
-0.00730273
0.42562
-0.00565346
0.422347
-0.00397601
0.422531
-0.00193461
0.000104853
0.307546
0.296326
0.285773
0.276038
0.267436
0.260133
0.25448
0.250504
0.248569
0.0078653
0.0563299
-0.0641952
0.0146366
0.128545
-0.135316
0.0171377
0.162027
-0.164528
0.0173825
0.174165
-0.174409
0.0169775
0.178441
-0.178036
0.0150906
0.180084
-0.178197
0.0123771
0.178572
-0.175858
0.00956565
0.1748
-0.171989
0.00702487
0.168475
-0.165935
0.157093
0.00522786
-0.155296
0.0096784
0.0466515
0.0205374
0.117686
0.0270787
0.155486
0.0301783
0.171065
0.0319825
0.176637
0.0327978
0.179269
0.0323747
0.178995
0.0313201
0.175855
0.0300415
0.169754
0.158634
0.0285008
0.0104583
0.0361932
0.0250579
0.103086
0.0357221
0.144822
0.0421339
0.164653
0.0461502
0.17262
0.0493704
0.176049
0.0514636
0.176901
0.0523907
0.174928
0.0523671
0.169778
0.159967
0.0510338
0.0100248
0.0261683
0.0275487
0.0855624
0.0424123
0.129958
0.0525268
0.154539
0.0593077
0.165839
0.0645613
0.170795
0.0687645
0.172698
0.0716344
0.172058
0.0729832
0.168429
0.160664
0.0722861
0.00864369
0.0175247
0.0275471
0.0666591
0.0462218
0.111284
0.0603772
0.140383
0.0703512
0.155865
0.0778883
0.163258
0.0840736
0.166513
0.0889591
0.167172
0.0921357
0.165252
0.15994
0.0928597
0.00681385
0.0107108
0.0250676
0.0484053
0.0463695
0.0899817
0.0645099
0.122243
0.0780729
0.142302
0.088192
0.153139
0.0962492
0.158456
0.102833
0.160588
0.107728
0.160357
0.157582
0.110087
0.00499026
0.00572054
0.0208453
0.0325503
0.0427308
0.0680962
0.0640663
0.100907
0.0815352
0.124834
0.0949533
0.139721
0.105445
0.147964
0.11403
0.152003
0.121022
0.153366
0.152513
0.12609
0.00336354
0.002357
0.0159025
0.0200113
0.036001
0.0479977
0.0585722
0.0783363
0.079251
0.104155
0.0962246
0.122747
0.109624
0.134565
0.120328
0.141298
0.129019
0.144674
0.145901
0.135632
0.00192355
0.000433444
0.0111462
0.0107887
0.0278
0.0313439
0.049165
0.0569712
0.0712794
0.0820403
0.0912988
0.102728
0.108152
0.117712
0.122033
0.127418
0.133717
0.13299
0.135429
0.14419
0.000946556
-0.000513112
0.00722223
0.00451301
0.0198163
0.0187498
0.0378956
0.0388919
0.0588831
0.0610528
0.0798877
0.0817233
0.0989115
0.0986879
0.115099
0.11123
0.128452
0.119637
0.124215
0.139665
0.000692509
-0.00120562
0.00447393
0.000731591
0.0132334
0.00999033
0.0270439
0.0250814
0.0448256
0.0432711
0.0645571
0.0619918
0.0841862
0.0790587
0.102304
0.0931127
0.118172
0.103769
0.111597
0.13079
0.000792253
-0.00199787
0.00290347
-0.00137962
0.00849842
0.00439537
0.0180957
0.0154842
0.0316124
0.0297544
0.0481655
0.0454386
0.0662967
0.0609276
0.0845459
0.0748634
0.101741
0.0865744
0.0964241
0.116914
0.000826483
-0.00282436
0.00207199
-0.00262513
0.00521761
0.00124976
0.0110705
0.00963126
0.0200864
0.0207385
0.0322521
0.0332729
0.0469151
0.0462646
0.0630147
0.0587638
0.079441
0.0701481
0.0802141
0.0956509
0.000440647
-0.003265
0.000980051
-0.00316454
0.00220346
2.6343e-05
0.00484818
0.00698654
0.0096077
0.015979
0.0169496
0.025931
0.026893
0.0363212
0.0389454
0.0467114
0.0524469
0.0566467
0.0653644
0.0672966
-0.00023685
-0.00302815
-0.000552916
-0.00284847
-0.00107383
0.000547257
-0.00114201
0.00705472
5.31732e-05
0.0147838
0.00314458
0.0228396
0.00847446
0.0309913
0.0160898
0.039096
0.0258139
0.0469226
0.0536257
0.0375526
-0.000826624
-0.00220153
-0.00201422
-0.00166088
-0.0040207
0.00255373
-0.00601615
0.00905018
-0.00717416
0.0159418
-0.0069738
0.0226392
-0.00498975
0.0290072
-0.000916449
0.0350227
0.00536009
0.040646
0.0455041
0.0134817
-0.000936379
-0.00126515
-0.00280124
0.000203985
-0.005811
0.0055635
-0.00881381
0.012053
-0.0111094
0.0182374
-0.0123362
0.023866
-0.0122221
0.0288931
-0.0105078
0.0333085
-0.00705746
0.0371957
0.0405619
-0.00211524
-0.00076092
-0.000504229
-0.00313101
0.00257408
-0.00647974
0.00891222
-0.0096901
0.0152633
-0.0122625
0.0208098
-0.0139773
0.0255808
-0.0147329
0.0296487
-0.0144731
0.0330487
-0.0131637
0.0358863
0.0383341
-0.010936
-0.000619173
0.000114944
-0.00312767
0.00508258
-0.00626957
0.0120541
-0.00925588
0.0182497
-0.0117144
0.0232683
-0.0134865
0.0273529
-0.0145578
0.0307201
-0.015013
0.0335039
-0.0149524
0.0358257
0.0378345
-0.0144527
-0.000594927
-0.00262639
-0.00520238
-0.00777529
-0.0100255
-0.0117953
-0.0130606
-0.0138977
-0.0144182
-0.0147098
0.116604
0.51031
-0.496124
0.0863811
0.316727
-0.286504
0.0503711
0.197217
-0.161207
0.0288026
0.119824
-0.0982555
0.0240417
0.0503514
-0.0455906
0.0308988
-0.0129372
0.00608012
0.0456635
-0.0613326
0.0465678
0.0628064
-0.0797704
0.0626275
0.0805527
-0.0837135
0.0659672
-0.0542435
0.042573
0.110302
0.516922
0.0791168
0.347912
0.0450265
0.231308
0.0272624
0.137588
0.0253143
0.0522995
0.0342794
-0.0219023
0.0499852
-0.0770384
0.0674836
-0.0972687
0.0852535
-0.101483
-0.0655064
0.0973017
0.515271
0.0671625
0.378051
0.0375045
0.260966
0.0240752
0.151017
0.0249171
0.0514576
0.0362316
-0.0332168
0.0533775
-0.0941842
0.0714813
-0.115373
0.0894003
-0.119403
-0.0765015
0.0776387
0.504929
0.0518591
0.403831
0.0283384
0.284487
0.0191375
0.160218
0.0228787
0.0477163
0.0368591
-0.0471972
0.0559389
-0.113264
0.0750249
-0.134458
0.093355
-0.137733
-0.0873909
0.0556909
0.486791
0.0354765
0.424045
0.0185537
0.301409
0.0129919
0.16578
0.0194764
0.0412318
0.0361967
-0.0639175
0.0576526
-0.13472
0.0781655
-0.154971
0.0972588
-0.156826
-0.0983603
0.0351375
0.465135
0.0200937
0.439089
0.00907784
0.312425
0.00587802
0.16898
0.0145837
0.0325261
0.0340336
-0.0833675
0.0583519
-0.159038
0.0808041
-0.177424
0.101097
-0.177119
-0.10964
0.0171489
0.445871
0.00721996
0.449018
-0.000102489
0.319748
-0.00253335
0.171411
0.00779879
0.022194
0.0301223
-0.105691
0.0578959
-0.186812
0.0828386
-0.202366
0.104805
-0.199086
-0.121502
0.00283248
0.432103
-0.00203489
0.453885
-0.00812235
0.325835
-0.0127159
0.176004
-0.000717293
0.0101954
0.024666
-0.131074
0.0564779
-0.218624
0.0843638
-0.230252
0.108401
-0.223123
-0.134217
-0.00559977
0.42325
-0.00780083
0.456086
-0.0166735
0.334708
-0.0243156
0.183646
-0.0108043
-0.00331582
0.0189168
-0.160796
0.0549968
-0.254704
0.0858922
-0.261148
0.112114
-0.249345
-0.147974
-0.00767726
-0.0107292
-0.0248254
-0.0348208
-0.0186933
0.0154797
0.0553182
0.0885592
0.116518
0.00213331
0.0281586
-0.0302919
-0.000625956
0.00275927
0.000171176
-0.000797132
-0.00168609
0.00185727
-0.00557961
0.00389351
-0.00622257
0.000642963
-0.00426738
-0.00195518
-0.00174234
-0.00252504
0.00172617
-0.00346851
-0.00285527
0.05553
0.126587
-0.153959
0.022083
0.0362063
0.0115918
0.00969409
0.00210734
0.0113417
-0.00385279
0.00985364
-0.00365095
0.000441122
0.00344833
-0.00905447
0.0148007
-0.0138774
0.0269273
-0.0155951
-0.0105573
0.136845
0.264881
-0.275139
0.0675011
0.10555
0.0361823
0.0410129
0.0173848
0.0301393
0.00855799
0.0186804
0.0111918
-0.00219265
0.0228135
-0.0206762
0.0378195
-0.0288835
0.0529402
-0.0307158
-0.0203041
0.201107
0.400121
-0.336347
0.111851
0.194806
0.0610166
0.0918476
0.0326445
0.0585114
0.0208275
0.0304974
0.0231006
-0.00446575
0.0356105
-0.0331861
0.0519211
-0.045194
0.0689112
-0.0477059
-0.0311794
0.243048
-0.339051
0.151349
0.0819895
0.0422454
0.0271522
0.0287666
0.0421484
0.0595819
0.0778432
0.0128732
0.000302436
-0.0131757
0.0139608
-0.00108752
0.0161428
-0.00218206
0.0188788
-0.002736
0.0221537
-0.00327487
0.0246819
-0.00252825
0.0278545
-0.00317258
0.0288896
-0.00103513
0.0311275
-0.0022379
0.000835631
0.0341692
0.000349131
-0.0342159
0.0377785
-0.00469676
0.0446852
-0.00908885
0.0543076
-0.0123584
0.0668923
-0.0158595
0.0806724
-0.0163084
0.0980066
-0.0205068
0.114357
-0.0173856
0.134885
-0.0227658
-0.0182383
0.0510504
-0.000441385
-0.0502599
0.0571242
-0.0107705
0.06827
-0.0202347
0.0842732
-0.0283616
0.105359
-0.0369449
0.130593
-0.0415431
0.161399
-0.0513129
0.194655
-0.050641
0.234385
-0.062496
-0.0589921
0.063671
-0.00230522
-0.0618072
0.0717687
-0.0188682
0.086094
-0.03456
0.106738
-0.0490057
0.133313
-0.0635195
0.166421
-0.0746509
0.203627
-0.0885194
0.246539
-0.0935531
0.292399
-0.108356
-0.10294
0.0726793
-0.0697567
0.0823118
0.0987856
0.122066
0.151406
0.186842
0.224413
0.266492
0.302326
0.0757612
-0.0737246
0.0803483
-0.0823849
0.0681689
-0.0751778
0.0827701
0.0601374
-0.0771079
0.0851393
0.0515984
-0.0791409
0.0876799
0.0425209
-0.0811768
0.0902543
0.032976
-0.0829634
0.0925083
0.0231867
-0.0837049
0.0934942
0.0135373
-0.0815564
0.0912058
0.00486901
-0.0720241
0.0806924
-0.0414324
0.0463014
0.0820195
-0.0653872
-0.0903569
0.0733637
-0.066522
0.0642038
-0.067948
0.0545755
-0.0695126
0.0445771
-0.0711784
0.0343339
-0.0727201
0.0240378
-0.0734088
0.0140128
-0.0715314
0.005066
-0.0630773
-0.0363664
0.0839654
-0.0559797
-0.0933729
0.0744619
-0.0570186
0.0647911
-0.0582772
0.0549456
-0.0596671
0.0449031
-0.0611359
0.0346619
-0.0624789
0.0243258
-0.0630727
0.0142029
-0.0614084
0.00514845
-0.0540229
-0.031218
0.0881386
-0.0462416
-0.0978767
0.0782814
-0.0471613
0.068241
-0.0482368
0.0579686
-0.0493947
0.0474285
-0.0505957
0.0366391
-0.0516896
0.0257425
-0.0521761
0.0150859
-0.0507518
0.00554885
-0.0444859
-0.0256691
0.0911046
-0.0360729
-0.101273
0.0807925
-0.0368492
0.0702818
-0.0377262
0.0595527
-0.0386656
0.048599
-0.0396421
0.0374582
-0.0405488
0.0262716
-0.0409895
0.0153851
-0.0398653
0.00568483
-0.0347856
-0.0199843
0.0941151
-0.0256114
-0.104577
0.0834768
-0.0262109
0.0726305
-0.0268799
0.0615572
-0.0275923
0.0502486
-0.0283335
0.038737
-0.0290372
0.0271702
-0.0294227
0.0159342
-0.0286293
0.00595029
-0.0248016
-0.014034
0.0967293
-0.0148493
-0.107491
0.0857695
-0.015251
0.0745803
-0.0156908
0.0631403
-0.0161522
0.0514388
-0.016632
0.0395121
-0.0171105
0.0275378
-0.0174484
0.0160037
-0.0170952
0.00595552
-0.0147534
-0.00807849
0.0989934
-0.00381012
-0.110033
0.0877372
-0.00399487
0.0762233
-0.00417689
0.0644197
-0.00434864
0.0523018
-0.00451408
0.0398915
-0.00470014
0.0273865
-0.00494336
0.0154367
-0.00514551
0.00544078
-0.00475749
-0.00263771
0.100946
0.00742997
-0.112186
0.0894737
0.00747717
0.0777274
0.00756944
0.0656672
0.00771153
0.0532552
0.00789785
0.0404885
0.00806662
0.0275277
0.0080174
0.0150544
0.00732785
0.00482926
0.00546761
0.00219156
0.102508
-0.113843
0.0909492
0.0791345