/*--------------------------------*- C++ -*----------------------------------*\
| =========                 |                                                 |
| \\      /  F ield         | OpenFOAM: The Open Source CFD Toolbox           |
|  \\    /   O peration     | Version:  2406                                  |
|   \\  /    A nd           | Website:  www.openfoam.com                      |
|    \\/     M anipulation  |                                                 |
\*---------------------------------------------------------------------------*/
FoamFile
{
    version     2.0;
    format      ascii;
    arch        "LSB;label=32;scalar=64";
    class       volVectorField;
    location    "1.9";
    object      U;
}
// * * * * * * * * * * * * * * * * * * * * * * * * * * * * * * * * * * * * * //

dimensions      [0 1 -1 0 0 0 0];

internalField   nonuniform List<vector> 
1800
(
(-0.023947 0.012482 0)
(-0.0423921 0.0201219 1.56076e-20)
(-0.051598 0.0141129 1.95967e-20)
(-0.0496808 0.00826388 4.85826e-20)
(-0.044025 0.0037021 7.20267e-20)
(-0.0268139 0.00158117 2.05709e-20)
(0.0216851 0.00541687 1.10694e-20)
(0.100324 0.0117859 -4.73401e-20)
(0.214053 0.031565 0)
(0.312403 0.0285759 5.45702e-20)
(-0.0375554 0.0222482 4.53243e-21)
(-0.0437364 0.0274695 2.24524e-21)
(-0.0416987 0.0249904 2.46389e-21)
(-0.0337398 0.0199963 -3.35811e-20)
(0.00228217 0.0163194 1.54862e-20)
(0.0861794 0.00254496 -5.56874e-20)
(0.21845 -0.0125057 2.4663e-20)
(0.389227 -0.0247777 1.11302e-19)
(0.606257 -0.0117676 6.91115e-20)
(0.734909 -0.0229962 5.91384e-20)
(-0.0370804 0.0282325 1.35446e-20)
(-0.039328 0.0299003 -5.39026e-20)
(-0.0333185 0.0275065 -5.13867e-20)
(0.017628 0.0216208 9.89518e-21)
(0.130494 0.00685286 -1.4114e-20)
(0.306003 -0.00923567 1.1158e-20)
(0.530884 -0.0221197 -2.72976e-20)
(0.783672 -0.0307603 -1.53066e-19)
(1.06192 -0.02471 5.92699e-20)
(1.25949 -0.0280731 5.54892e-20)
(-0.025468 0.0216337 2.70913e-20)
(-0.0313542 0.035022 7.70599e-20)
(0.0163209 0.0250095 -4.20961e-20)
(0.148056 0.0111224 -9.08547e-23)
(0.362553 -0.0042053 7.05594e-20)
(0.641029 -0.0145375 -1.98777e-20)
(0.950069 -0.0163695 -7.63481e-20)
(1.25546 -0.00951422 -6.56377e-20)
(1.53541 0.00392851 -4.74448e-21)
(1.75384 0.0184924 6.98465e-20)
(-0.0108518 0.00804707 -8.96097e-22)
(0.00672134 0.00850225 4.86009e-20)
(0.127822 0.00209894 2.52608e-20)
(0.369136 -0.00835254 -6.10045e-20)
(0.701254 -0.011837 -2.86739e-20)
(1.06706 -0.00403948 4.61672e-20)
(1.41206 0.0126919 4.48366e-20)
(1.70269 0.0333921 9.95127e-20)
(1.92617 0.0541496 -2.18602e-19)
(2.08251 0.0702075 -2.00352e-19)
(-0.00218586 0.00184677 3.46466e-22)
(0.0772272 -0.0112168 1.30159e-19)
(0.321689 -0.0172805 9.58492e-20)
(0.699346 -0.0122478 -1.16923e-19)
(1.12294 0.00793114 1.11225e-19)
(1.50684 0.0368018 -8.49042e-21)
(1.80602 0.0658044 1.25989e-19)
(2.01312 0.0893983 2.16457e-19)
(2.14312 0.105196 -3.1595e-19)
(2.21427 0.113867 -2.43799e-19)
(0.0162396 -0.000884371 -4.14148e-20)
(0.213771 -0.0249598 -2.71208e-19)
(0.610947 -0.0148564 2.93036e-20)
(1.09553 0.0182846 3.36374e-19)
(1.52961 0.0603545 -1.94065e-20)
(1.84699 0.0977593 -2.45488e-19)
(2.04792 0.124503 -1.66881e-19)
(2.16345 0.140496 4.65051e-19)
(2.2271 0.147342 5.47803e-19)
(2.26524 0.151407 5.03971e-20)
(0.0643889 -0.00375152 4.60751e-20)
(0.419334 -0.0237322 3.05728e-20)
(0.95686 0.0199516 -1.55231e-19)
(1.4671 0.0795708 8.13369e-20)
(1.83041 0.128898 -4.5495e-21)
(2.04736 0.160711 -8.22759e-19)
(2.16587 0.178085 -9.82151e-22)
(2.23101 0.186436 5.98913e-19)
(2.26807 0.190018 -3.64979e-19)
(2.28854 0.18933 -3.5807e-19)
(0.141335 -0.00266905 1.84017e-19)
(0.675903 0.00356612 1.66578e-19)
(1.28986 0.0863469 -3.97658e-19)
(1.74724 0.158507 -9.49913e-20)
(2.01555 0.202605 4.97518e-21)
(2.15539 0.225436 3.15926e-19)
(2.22681 0.236907 -5.85814e-19)
(2.26384 0.242509 -2.96885e-19)
(2.28588 0.242978 6.32839e-19)
(2.30069 0.241065 1.36134e-19)
(0.244456 0.00933524 4.31691e-21)
(0.941958 0.0646341 4.42347e-19)
(1.55539 0.175711 -3.75796e-19)
(1.93172 0.247206 -1.75358e-19)
(2.12177 0.282131 1.89789e-19)
(2.20942 0.297273 -1.98966e-19)
(2.25101 0.304036 3.72996e-19)
(2.27698 0.30519 2.35906e-20)
(2.29372 0.303784 -2.59124e-19)
(2.29539 0.297009 -8.11943e-20)
(-0.00121792 0.0120958 1.96049e-20)
(-0.00792558 0.0986804 -5.17664e-20)
(-0.0203999 0.195519 -4.55755e-20)
(-0.0332384 0.27303 7.85756e-20)
(-0.0445818 0.330043 -1.15882e-20)
(-0.0537092 0.372492 -9.63406e-21)
(-0.060447 0.405491 -9.83785e-22)
(-0.0651447 0.432524 2.23918e-21)
(-0.0681627 0.455835 1.88391e-24)
(-0.068824 0.476789 1.67167e-20)
(-0.00130895 0.0137614 -1.71888e-20)
(-0.0114661 0.105892 3.33724e-23)
(-0.0244626 0.208472 3.13113e-20)
(-0.0375006 0.288922 8.3111e-20)
(-0.0488951 0.345762 -2.11643e-21)
(-0.0581581 0.385976 3.38211e-20)
(-0.0652838 0.4157 -1.48204e-21)
(-0.0704928 0.439018 0)
(-0.0740886 0.458603 8.33869e-21)
(-0.0758082 0.476379 -2.74085e-20)
(-0.0009727 0.00988266 7.09772e-23)
(-0.0136961 0.0979856 8.24289e-20)
(-0.0264257 0.205136 1.16469e-19)
(-0.0386953 0.291215 -5.64318e-20)
(-0.0488344 0.351234 -3.12026e-20)
(-0.0564975 0.392088 3.93592e-20)
(-0.0619195 0.420729 -5.56506e-21)
(-0.0654186 0.4419 -1.27495e-21)
(-0.0673192 0.458688 -4.02248e-23)
(-0.0673742 0.473476 3.44109e-20)
(-0.000377232 0.00204468 -3.01444e-21)
(-0.0130024 0.0738337 8.43015e-20)
(-0.0244555 0.181786 -3.53415e-20)
(-0.0350989 0.275298 -1.46102e-19)
(-0.0428846 0.342065 2.39604e-20)
(-0.0475526 0.38685 -1.53395e-20)
(-0.0496096 0.41688 1.25249e-20)
(-0.0495378 0.437638 0)
(-0.0476527 0.452732 2.07494e-20)
(-0.0432277 0.46491 9.25932e-20)
(0.00147244 -0.00252901 3.72419e-20)
(-0.00756517 0.0385951 -1.60543e-20)
(-0.0174267 0.136783 -7.057e-20)
(-0.0266689 0.235888 4.82132e-20)
(-0.0319457 0.312256 -1.29534e-20)
(-0.0329794 0.364944 -1.9276e-20)
(-0.0306549 0.39969 3.65809e-20)
(-0.0257276 0.422233 -5.3986e-20)
(-0.0184766 0.436725 5.69142e-20)
(-0.00731914 0.446251 5.0779e-20)
(0.00455589 -0.00649403 2.27572e-20)
(0.00197482 0.00549197 -1.06911e-20)
(-0.00604866 0.0768847 4.95306e-20)
(-0.0150945 0.170773 -3.52116e-20)
(-0.0192755 0.254552 -1.34431e-19)
(-0.0176951 0.317682 1.44205e-19)
(-0.0112663 0.361115 9.37276e-21)
(-0.00108773 0.389023 -4.96013e-20)
(0.0124644 0.405281 1.63351e-19)
(0.0317374 0.412574 2.84004e-20)
(0.0110842 -0.0139038 -1.79943e-20)
(0.0150636 -0.0123962 4.84099e-20)
(0.00471409 0.0221821 1.71675e-20)
(-0.00463061 0.0931491 -2.28329e-19)
(-0.00965341 0.171444 -5.98287e-22)
(-0.00843083 0.239104 1.98127e-19)
(-0.000793224 0.290441 1.33247e-19)
(0.0125538 0.325766 1.32782e-19)
(0.0313549 0.346722 -2.69576e-19)
(0.0582283 0.353059 -2.18228e-19)
(0.0117338 -0.0186241 -3.67363e-22)
(0.0106124 -0.0175432 -6.61216e-22)
(0.00481165 -0.0106326 -3.80352e-20)
(0.0015976 0.0203513 1.079e-19)
(-0.010719 0.0750283 2.03688e-19)
(-0.0147872 0.135662 -9.34185e-20)
(-0.0105077 0.187301 7.77964e-20)
(0.00192334 0.225765 -2.06438e-20)
(0.023387 0.249738 -2.71133e-19)
(0.0561558 0.253519 9.91909e-21)
(0.00481566 -0.0136271 3.08941e-21)
(0.00264861 -0.0195266 -4.21726e-21)
(-0.00993138 -0.0156913 6.58894e-21)
(-0.0213101 -0.00502678 -1.37789e-20)
(-0.0322358 0.00962927 -3.19919e-21)
(-0.0366881 0.0384883 -1.62333e-19)
(-0.035916 0.0734585 -5.14077e-20)
(-0.0252328 0.102637 -1.15841e-19)
(-0.000634044 0.119773 3.2491e-21)
(0.0396854 0.117225 4.21582e-19)
(-0.00576387 -0.000753742 6.21523e-21)
(-0.0173257 -0.00596579 3.3493e-21)
(-0.0341589 -0.0113571 4.30701e-20)
(-0.0473265 -0.0101592 1.10613e-19)
(-0.0549072 -0.006346 -9.43002e-20)
(-0.0602014 -0.000585055 -2.70861e-19)
(-0.057583 0.0107984 -7.81055e-20)
(-0.0376828 0.0248305 2.07059e-19)
(0.00126844 0.0331224 2.70668e-19)
(0.0629479 0.0314518 3.1012e-19)
(-0.0543537 0.572407 1.22205e-19)
(-0.0321521 0.640911 -2.01539e-19)
(-0.105256 0.495544 -4.92979e-19)
(-0.211921 0.275991 1.10251e-18)
(-0.169608 -0.0403186 -7.753e-19)
(-0.0126572 -0.296969 2.26914e-20)
(0.204239 -0.438735 1.79587e-19)
(0.394582 -0.433416 3.03699e-20)
(0.539984 -0.405918 -3.9823e-20)
(0.690313 -0.23763 -5.38598e-20)
(-0.0683542 0.562389 1.3938e-19)
(-0.0386257 0.649504 -9.56049e-21)
(-0.137056 0.524356 7.87321e-20)
(-0.214985 0.287441 -5.29723e-19)
(-0.140386 -0.0698293 -2.85354e-19)
(0.0462053 -0.351735 6.55875e-19)
(0.282313 -0.498525 -1.20361e-19)
(0.462573 -0.480577 1.14431e-20)
(0.598026 -0.445637 -6.06743e-20)
(0.734348 -0.260502 9.16777e-20)
(-0.0563339 0.547969 -3.41735e-19)
(-0.0236084 0.659317 1.26573e-19)
(-0.120755 0.552406 6.98566e-20)
(-0.165939 0.295122 -8.98509e-19)
(-0.0606848 -0.103628 7.04445e-19)
(0.155252 -0.410305 1.247e-21)
(0.41112 -0.558654 -8.51567e-21)
(0.574554 -0.523814 -1.41098e-21)
(0.692472 -0.480112 1.82943e-20)
(0.796138 -0.281066 3.06579e-21)
(-0.014471 0.527981 -3.40481e-19)
(0.0203708 0.668547 1.82001e-21)
(-0.0531563 0.575068 9.93854e-20)
(-0.0750685 0.298689 5.353e-19)
(0.0704041 -0.140139 -1.70165e-19)
(0.306181 -0.472481 -1.06955e-19)
(0.57786 -0.619652 1.13119e-19)
(0.727779 -0.562822 0)
(0.830485 -0.506173 0)
(0.882867 -0.296804 -3.1955e-22)
(0.0528304 0.497814 7.70306e-20)
(0.103437 0.671399 2.2101e-19)
(0.0416187 0.597225 9.67303e-21)
(0.0646966 0.298334 -3.40508e-19)
(0.251136 -0.176615 -2.08319e-19)
(0.495748 -0.535944 -6.24559e-19)
(0.765976 -0.68172 2.33217e-20)
(0.903203 -0.600341 1.85365e-20)
(1.00482 -0.523461 -1.80667e-20)
(0.998534 -0.305762 5.23761e-22)
(0.138108 0.451817 1.43559e-19)
(0.220553 0.66436 1.3475e-19)
(0.177452 0.610482 1.24869e-20)
(0.249847 0.29476 -6.73989e-21)
(0.482255 -0.211984 6.06732e-19)
(0.736595 -0.595049 -2.42302e-19)
(0.980939 -0.739579 -1.3532e-19)
(1.08501 -0.63765 1.87431e-20)
(1.1941 -0.534879 1.54862e-21)
(1.13905 -0.307968 -8.17229e-21)
(0.229234 0.384994 -2.15081e-20)
(0.363923 0.64746 -2.07727e-20)
(0.356665 0.615386 -1.43769e-19)
(0.467932 0.289812 7.11225e-20)
(0.753753 -0.24633 -3.88927e-20)
(1.02159 -0.646249 3.96259e-19)
(1.23363 -0.785644 -6.26488e-20)
(1.27775 -0.669975 -3.22307e-20)
(1.37888 -0.542417 1.71921e-20)
(1.29193 -0.305201 -4.84937e-21)
(0.30356 0.289227 -1.31225e-19)
(0.515965 0.605683 -1.4946e-18)
(0.557217 0.611071 -2.96231e-19)
(0.706709 0.284812 -3.24146e-20)
(1.03669 -0.278424 -2.97372e-19)
(1.31031 -0.690708 -4.52628e-19)
(1.50181 -0.819505 2.74447e-19)
(1.48783 -0.691849 -1.31119e-19)
(1.55361 -0.544464 7.3844e-21)
(1.44294 -0.298817 8.17778e-22)
(0.3199 0.16162 -3.09607e-19)
(0.68504 0.554904 -6.13465e-19)
(0.78223 0.603584 8.48003e-19)
(0.954036 0.274862 -1.71212e-19)
(1.31268 -0.302759 -1.76834e-19)
(1.58025 -0.726569 -1.25172e-19)
(1.75029 -0.844715 -3.19528e-19)
(1.70155 -0.703164 4.09783e-20)
(1.71946 -0.538864 4.09806e-20)
(1.5822 -0.288813 2.21402e-20)
(0.326981 -0.0190836 -1.24868e-19)
(0.804713 0.431536 1.48917e-18)
(0.951969 0.579331 8.02393e-19)
(1.16763 0.288957 -2.80057e-19)
(1.57845 -0.312486 -4.65135e-20)
(1.84303 -0.750645 8.33651e-20)
(1.97517 -0.861259 -4.63461e-19)
(1.89927 -0.705999 -6.93353e-20)
(1.87335 -0.525266 -3.77299e-21)
(1.70439 -0.274961 -3.1938e-20)
(0.636731 -0.117182 1.12801e-19)
(1.07404 0.290241 2.05758e-19)
(1.22789 0.524442 -6.2423e-20)
(1.49568 0.238538 3.41731e-19)
(1.96002 -0.36637 -1.65959e-19)
(2.20164 -0.782312 -1.08986e-19)
(2.26023 -0.870639 -1.28561e-19)
(2.12747 -0.697824 3.40708e-20)
(2.04559 -0.495918 -1.54157e-19)
(1.83338 -0.252202 2.23202e-20)
(1.48844 -0.00930836 -1.24991e-19)
(1.47335 0.222742 -4.663e-20)
(1.58515 0.419071 -2.94234e-19)
(2.01775 0.0708434 1.08528e-19)
(2.49663 -0.516137 -7.47774e-19)
(2.64992 -0.84842 -4.82408e-19)
(2.58019 -0.849859 -1.18659e-19)
(2.33645 -0.636273 -2.98092e-20)
(2.1848 -0.417909 1.85862e-19)
(1.92611 -0.203309 3.87658e-20)
(2.05085 0.0389529 -1.52849e-20)
(1.94103 0.227027 3.57721e-20)
(2.06884 0.312267 -9.46463e-20)
(2.52806 -0.0695096 -2.53179e-35)
(2.87183 -0.592566 -1.46505e-20)
(2.92192 -0.836993 1.5148e-33)
(2.78709 -0.771685 8.97435e-20)
(2.46973 -0.544692 3.41889e-33)
(2.25229 -0.331505 -9.95099e-21)
(1.9575 -0.152765 1.53786e-20)
(2.29637 0.0581492 -7.93724e-21)
(2.28413 0.204131 -1.70299e-20)
(2.51233 0.207637 2.62466e-19)
(2.88669 -0.177129 0)
(3.12459 -0.648341 5.67921e-19)
(3.10564 -0.831751 2.48512e-19)
(2.90934 -0.703191 -1.01259e-19)
(2.54511 -0.443203 6.43567e-33)
(2.27186 -0.225382 -1.64696e-19)
(1.94164 -0.0928822 -2.07105e-20)
(2.4371 0.0462303 1.05424e-20)
(2.516 0.13368 -1.19527e-20)
(2.7706 0.0942948 0)
(3.0832 -0.264596 0)
(3.25258 -0.669977 0)
(3.1612 -0.772522 0)
(2.85713 -0.580788 1.47501e-20)
(2.44492 -0.313935 6.36397e-33)
(2.16828 -0.109188 -1.25293e-20)
(1.8597 -0.0291019 -3.14155e-33)
(2.55295 0.0140733 1.57516e-20)
(2.66208 0.0516146 0)
(2.8684 -0.0020858 0)
(3.16703 -0.334579 0)
(3.28317 -0.681866 0)
(3.03037 -0.692721 0)
(2.63164 -0.443313 -2.14982e-20)
(2.19022 -0.182445 2.14266e-19)
(1.92743 -0.00722544 -1.42269e-20)
(1.69163 0.0236039 2.12116e-21)
(2.62211 -0.0197522 0)
(2.69108 -0.00869517 6.8086e-20)
(2.88078 -0.0869372 1.91351e-19)
(3.17619 -0.397666 0)
(3.06313 -0.627163 2.56272e-19)
(2.57523 -0.5374 6.97451e-20)
(2.104 -0.272451 -8.21367e-20)
(1.72555 -0.0538915 -9.07195e-20)
(1.54785 0.0715537 9.58346e-20)
(1.43529 0.0569323 -4.7464e-20)
(2.5906 -0.0475635 1.82161e-20)
(2.59701 -0.0606661 -1.18603e-20)
(2.82266 -0.164658 2.0007e-20)
(2.90394 -0.392055 -6.4696e-35)
(2.39441 -0.469905 -2.12764e-20)
(1.70515 -0.311378 6.37063e-34)
(1.2595 -0.101356 -1.29382e-20)
(1.05391 0.0326313 -8.87801e-20)
(1.03573 0.0985036 -1.51918e-20)
(1.07261 0.0604222 3.66151e-20)
(2.27067 -0.0475761 0)
(2.25093 -0.107228 -6.63069e-20)
(2.33696 -0.218725 -5.69932e-20)
(1.93702 -0.221972 0)
(1.13248 -0.145744 -6.03903e-20)
(0.59378 -0.0805906 -5.56905e-20)
(0.387333 -0.0243017 -5.43091e-20)
(0.375254 0.0276582 -2.78315e-20)
(0.476399 0.0562453 -3.83535e-21)
(0.601186 0.0333198 -3.84973e-20)
(1.22635 -0.0448456 4.49587e-21)
(1.03643 -0.0885252 0)
(0.67211 -0.0319539 0)
(0.390486 0.0161107 0)
(0.181571 -0.00364062 0)
(0.0237686 -0.0181043 0)
(-0.0789883 -0.014784 -1.14174e-20)
(-0.0834667 0.000586283 1.09351e-34)
(-0.0168511 0.00896728 -1.56116e-20)
(0.0787565 0.00755266 -3.6058e-20)
(2.27322 0.272767 3.53276e-19)
(2.30628 0.233362 1.41708e-19)
(2.31506 0.189731 2.93002e-19)
(2.30759 0.155436 -3.36893e-19)
(2.28802 0.115036 1.08295e-19)
(2.25835 0.102716 6.53353e-20)
(2.15393 0.0577629 -3.6131e-20)
(1.91271 0.0365454 9.2496e-21)
(1.62669 -0.0189443 9.55342e-20)
(0.943031 -0.0593422 -3.69088e-20)
(2.26836 0.235008 -1.65547e-19)
(2.29956 0.203793 3.61723e-20)
(2.32427 0.174412 1.11866e-19)
(2.33382 0.152821 1.07266e-19)
(2.33727 0.121604 -2.03996e-19)
(2.30653 0.104615 1.24746e-19)
(2.32598 0.0717742 7.28064e-21)
(2.16305 0.039674 -1.52216e-20)
(2.16647 0.0254071 -5.06437e-21)
(1.76255 -0.033045 4.58208e-20)
(2.30489 0.202938 2.37364e-20)
(2.32741 0.177928 -1.08439e-19)
(2.35253 0.152551 -1.41643e-19)
(2.35481 0.134799 3.08313e-19)
(2.37744 0.115729 -2.11221e-20)
(2.33647 0.0952974 4.39078e-20)
(2.38194 0.0881567 -8.36152e-20)
(2.27384 0.0534394 -7.59047e-20)
(2.32856 0.0630747 -4.49175e-20)
(2.13722 0.0170678 -1.9765e-20)
(2.35331 0.173458 3.95997e-20)
(2.37106 0.151712 -1.30391e-19)
(2.39887 0.133633 3.01435e-20)
(2.39616 0.114485 -1.01366e-19)
(2.4229 0.105281 1.36816e-19)
(2.39269 0.0849402 -5.7949e-20)
(2.42518 0.0861115 1.42756e-20)
(2.36612 0.0618202 -1.42954e-20)
(2.39592 0.07175 3.4622e-21)
(2.31033 0.0500113 2.59248e-20)
(2.38671 0.144089 7.70287e-20)
(2.40699 0.124692 -2.01904e-19)
(2.43652 0.112765 -1.63624e-20)
(2.44227 0.0950905 -1.65503e-20)
(2.46711 0.0891692 -6.37181e-21)
(2.45675 0.0724841 -1.02181e-21)
(2.47823 0.0718929 3.39607e-20)
(2.45174 0.0581208 -2.04103e-20)
(2.4677 0.0600304 -3.0929e-20)
(2.42595 0.056414 -3.952e-20)
(2.39311 0.112766 1.37685e-19)
(2.41788 0.0970856 2.21728e-20)
(2.44919 0.0879543 -1.35901e-19)
(2.46571 0.074519 7.87958e-20)
(2.49176 0.068289 5.89769e-20)
(2.49886 0.0572024 -3.80117e-20)
(2.51964 0.0520821 5.32904e-20)
(2.51583 0.0453549 8.32181e-21)
(2.53296 0.0389429 -5.23239e-20)
(2.51781 0.0428948 -6.36823e-20)
(2.35984 0.079269 1.88055e-20)
(2.38803 0.0677781 3.96144e-20)
(2.42137 0.0599694 -5.30048e-20)
(2.44562 0.0508924 -3.1384e-20)
(2.47661 0.0441683 5.62493e-20)
(2.496 0.0372016 2.53505e-20)
(2.52327 0.029991 4.88983e-20)
(2.53719 0.0260543 3.93964e-20)
(2.56005 0.0162172 1.02577e-20)
(2.56813 0.0198001 2.96563e-20)
(2.24743 0.0487683 2.28876e-20)
(2.28173 0.0407902 2.41058e-22)
(2.31099 0.0341136 -6.51743e-20)
(2.34687 0.0288299 -5.43583e-20)
(2.3757 0.0218508 3.26609e-20)
(2.41279 0.0187749 -2.37009e-20)
(2.43967 0.00993537 -1.92381e-20)
(2.47789 0.00896326 5.50581e-20)
(2.50073 -0.0037041 -4.1633e-20)
(2.54059 -0.00207622 -4.51412e-20)
(1.94147 0.011503 5.3284e-20)
(1.98634 0.00807186 -2.8009e-20)
(1.99501 0.00456548 -2.65875e-20)
(2.05145 0.00282728 2.73434e-20)
(2.05664 -0.00114011 -1.6634e-20)
(2.12383 -0.00197347 -5.28248e-21)
(2.12494 -0.0071847 -1.85594e-20)
(2.20082 -0.00844186 1.21255e-20)
(2.19755 -0.0160624 1.16274e-20)
(2.27944 -0.0194184 -1.3023e-20)
(1.12674 -0.00184073 0)
(1.14619 -0.00262358 2.22875e-21)
(1.13916 -0.00398853 -3.50062e-20)
(1.16861 -0.00372811 -5.28329e-20)
(1.15855 -0.00639178 2.83146e-20)
(1.1987 -0.00450636 1.10214e-19)
(1.18548 -0.00994152 -6.34049e-21)
(1.23362 -0.00672139 -5.07223e-20)
(1.21691 -0.016009 -5.07489e-21)
(1.26859 -0.0127024 1.54636e-21)
(1.38749 0.8134 -4.55362e-20)
(1.37569 0.857023 -9.53026e-20)
(1.37729 0.903728 -6.28474e-19)
(1.38274 0.956429 1.92231e-19)
(1.38713 1.01295 1.00864e-18)
(1.38428 1.06855 1.3956e-19)
(1.3611 1.10786 -7.92306e-20)
(1.29282 1.10379 -3.29817e-19)
(1.10666 0.989844 -3.34105e-19)
(0.591428 0.550008 -4.61413e-20)
(1.53055 0.786618 -3.588e-19)
(1.52497 0.828988 1.05216e-18)
(1.52462 0.873752 4.80801e-19)
(1.52972 0.924871 -7.12601e-19)
(1.53704 0.980717 2.42604e-19)
(1.53792 1.03553 2.36064e-19)
(1.51551 1.0722 7.91557e-19)
(1.44154 1.06538 -1.17157e-18)
(1.23344 0.949482 -5.08532e-20)
(0.651511 0.518522 2.13105e-19)
(1.663 0.757059 1.04705e-19)
(1.66557 0.798838 8.35437e-19)
(1.6677 0.841718 1.62854e-20)
(1.67364 0.888975 -4.25072e-19)
(1.68236 0.940367 1.26738e-19)
(1.68448 0.990171 -6.72796e-20)
(1.66024 1.02032 -4.67212e-20)
(1.57796 1.00877 -4.06275e-19)
(1.34443 0.889601 1.77825e-20)
(0.698295 0.473816 -2.17164e-19)
(1.78198 0.715973 -4.25298e-19)
(1.79121 0.755369 3.91943e-19)
(1.79856 0.795391 -6.06349e-19)
(1.80863 0.838566 -2.28013e-19)
(1.8206 0.884805 1.35368e-18)
(1.82354 0.928357 -8.65617e-19)
(1.79573 0.951009 -9.91845e-19)
(1.70393 0.934273 4.29842e-19)
(1.44012 0.813195 -1.23105e-19)
(0.729706 0.420027 -6.48924e-20)
(1.88924 0.668436 5.34205e-19)
(1.90332 0.705554 4.31663e-19)
(1.91484 0.742445 -2.06012e-19)
(1.92698 0.781036 8.14538e-19)
(1.93942 0.821609 1.66684e-19)
(1.94066 0.85709 -3.74529e-19)
(1.90679 0.86862 5.60314e-19)
(1.80318 0.845552 -6.69554e-19)
(1.50272 0.722228 -7.62313e-19)
(0.736428 0.356585 -2.07512e-21)
(1.98713 0.608006 7.118e-19)
(2.00427 0.640497 8.98961e-19)
(2.01957 0.672749 -9.24994e-19)
(2.0356 0.706291 -9.57812e-19)
(2.04903 0.739875 2.37305e-19)
(2.0441 0.766014 -7.09554e-19)
(1.99823 0.769223 -4.73937e-19)
(1.87783 0.741193 4.11131e-19)
(1.53469 0.615677 6.79108e-20)
(0.718044 0.285769 -1.57505e-20)
(2.07165 0.547 6.63133e-19)
(2.09024 0.575829 -8.93998e-19)
(2.10714 0.603911 -7.94923e-19)
(2.12198 0.631781 6.26421e-19)
(2.13121 0.658404 -5.63965e-19)
(2.11754 0.670791 1.6988e-18)
(2.05919 0.665325 -2.59455e-19)
(1.91597 0.631517 -1.3866e-18)
(1.52335 0.500898 6.07785e-19)
(0.668522 0.212873 3.14988e-20)
(2.14864 0.48049 -4.35468e-19)
(2.16551 0.504105 -6.24569e-19)
(2.1799 0.526661 -8.73086e-19)
(2.19412 0.54917 3.0514e-20)
(2.19709 0.565846 2.85028e-19)
(2.16106 0.566657 2.94141e-19)
(2.09304 0.555609 7.06378e-19)
(1.9117 0.514293 -3.76528e-19)
(1.46268 0.38103 1.92741e-20)
(0.589046 0.143179 6.35785e-20)
(2.20921 0.41449 2.20426e-19)
(2.22397 0.434114 -7.43015e-20)
(2.23932 0.45309 4.32094e-19)
(2.24613 0.467549 1.16939e-18)
(2.22166 0.468587 -4.23111e-19)
(2.17846 0.463139 -1.46844e-18)
(2.08968 0.447498 1.06311e-18)
(1.85766 0.395115 9.6657e-19)
(1.34753 0.263104 -4.87991e-19)
(0.483981 0.0828851 -7.84657e-21)
(2.2582 0.353412 -4.52627e-19)
(2.27245 0.368882 -4.91674e-21)
(2.27631 0.378658 6.15626e-19)
(2.25778 0.380637 6.2768e-19)
(2.22488 0.377601 4.48239e-19)
(2.1706 0.369317 -7.18985e-19)
(2.04071 0.344165 3.36701e-20)
(1.74237 0.28063 -3.65638e-19)
(1.17283 0.154746 -5.5185e-19)
(0.363761 0.0374788 -1.3602e-20)
(0.515561 0.285378 4.23635e-20)
(0.477698 0.291837 -2.22292e-19)
(0.435029 0.299355 -4.04482e-20)
(0.388276 0.308084 1.71302e-19)
(0.337314 0.317885 -2.80428e-20)
(0.281503 0.327529 -1.92809e-20)
(0.220066 0.332398 -6.87392e-20)
(0.151196 0.320506 -2.81709e-20)
(0.077344 0.269358 1.09515e-19)
(0.0290764 0.140628 5.18717e-21)
(0.553988 0.384883 1.25964e-20)
(0.51663 0.397223 3.96163e-20)
(0.475131 0.411074 1.19931e-20)
(0.429891 0.426588 1.11099e-20)
(0.380582 0.443589 6.52846e-20)
(0.326353 0.460625 3.1263e-20)
(0.265853 0.472122 5.534e-20)
(0.196424 0.463186 -7.18447e-20)
(0.116897 0.402726 7.72704e-20)
(0.0500485 0.222859 -6.26792e-23)
(0.607734 0.478717 -1.24124e-19)
(0.571462 0.496657 -2.681e-20)
(0.531881 0.516389 2.99862e-20)
(0.488959 0.538218 -7.29255e-20)
(0.442132 0.562079 -1.3782e-20)
(0.390328 0.586467 1.22079e-19)
(0.331531 0.605029 -6.87557e-21)
(0.26201 0.600116 -2.29886e-20)
(0.175867 0.532219 -3.64784e-22)
(0.0830003 0.302848 1.97624e-20)
(0.674517 0.567181 -9.42255e-20)
(0.639815 0.590956 -1.64658e-19)
(0.603008 0.616521 -1.41102e-20)
(0.563308 0.64438 3.02944e-20)
(0.519772 0.674571 -1.71837e-19)
(0.471144 0.705466 -7.87867e-20)
(0.414808 0.729893 -1.9131e-19)
(0.345788 0.727718 6.68834e-20)
(0.25236 0.652186 -4.86005e-20)
(0.126761 0.376075 -9.20859e-20)
(0.754366 0.644288 9.78584e-20)
(0.722129 0.673101 -6.53139e-20)
(0.689277 0.703731 -2.92085e-20)
(0.654263 0.737095 -3.99257e-20)
(0.615661 0.773338 -5.45901e-20)
(0.571769 0.810631 6.13653e-20)
(0.519029 0.840943 6.15473e-20)
(0.45069 0.841791 -1.29151e-19)
(0.34813 0.7599 -2.43199e-19)
(0.181489 0.440969 5.49293e-20)
(0.843667 0.7146 2.87011e-20)
(0.81396 0.748272 2.46108e-20)
(0.785233 0.783051 8.87207e-20)
(0.755063 0.820652 3.71904e-20)
(0.721771 0.861627 1.86874e-19)
(0.683447 0.903917 -1.62362e-19)
(0.635487 0.938402 -1.23555e-19)
(0.568761 0.940505 -3.59734e-20)
(0.456589 0.851821 9.45899e-20)
(0.243331 0.494531 1.52861e-19)
(0.941565 0.767404 -4.57993e-20)
(0.916442 0.805124 2.35034e-20)
(0.894111 0.843562 1.9158e-19)
(0.870779 0.884959 -9.93652e-20)
(0.844111 0.930126 -3.38072e-19)
(0.81188 0.976912 1.91768e-19)
(0.768622 1.01516 5.70028e-19)
(0.70276 1.01835 1.59109e-19)
(0.578373 0.924393 -3.09209e-20)
(0.311564 0.535668 2.22097e-19)
(1.0425 0.81338 -2.0302e-19)
(1.01974 0.853266 -6.22796e-20)
(1.00256 0.893269 2.07699e-19)
(0.986375 0.936919 -1.12087e-19)
(0.968073 0.985009 7.6643e-20)
(0.944286 1.03468 3.76431e-19)
(0.907774 1.0745 -4.1213e-19)
(0.843879 1.07676 -3.90392e-19)
(0.70728 0.976789 3.33854e-19)
(0.383042 0.562774 -3.30408e-21)
(1.15164 0.834684 -1.73565e-20)
(1.13781 0.877376 4.22034e-20)
(1.12842 0.918442 -1.95752e-19)
(1.11847 0.963399 -6.57793e-20)
(1.106 1.01394 4.50566e-19)
(1.08808 1.06661 1.34327e-19)
(1.05605 1.10803 -1.18306e-19)
(0.991734 1.10917 0)
(0.840507 1.00389 -2.21487e-19)
(0.455089 0.573265 -1.145e-19)
(1.24179 0.842113 0)
(1.23647 0.886057 0)
(1.24119 0.929453 5.81852e-19)
(1.24481 0.976123 1.31692e-19)
(1.24381 1.02748 -2.07603e-19)
(1.23505 1.08032 3.98667e-19)
(1.20873 1.12043 -2.90047e-19)
(1.14378 1.11903 -8.10985e-19)
(0.976512 1.00912 4.18969e-19)
(0.526267 0.569377 2.17907e-19)
(0.998792 0.00571458 -2.29156e-20)
(1.0058 -0.011463 -9.40377e-21)
(1.03215 0.0215829 9.02252e-21)
(1.04702 0.110359 4.61955e-21)
(1.0398 0.179782 9.21273e-21)
(1.00855 0.22639 1.85812e-20)
(0.971766 0.230794 -9.82204e-21)
(0.905224 0.234228 -1.00822e-20)
(0.827935 0.24377 -7.49481e-20)
(0.682084 0.253164 4.53043e-20)
(0.998426 0.00489172 -4.99619e-22)
(1.00691 -0.015692 8.11862e-21)
(1.03221 0.0156798 9.26119e-23)
(1.04561 0.110552 8.30335e-21)
(1.03831 0.185851 7.35231e-21)
(1.00709 0.236307 -2.87482e-20)
(0.973154 0.245418 -1.30872e-20)
(0.912128 0.254319 5.57482e-22)
(0.840423 0.277854 1.90664e-19)
(0.715375 0.318638 5.18032e-21)
(0.997691 0.00390613 4.83434e-22)
(1.00804 -0.0199018 1.66995e-20)
(1.03275 0.0105435 -1.30008e-20)
(1.04503 0.111749 -8.03224e-22)
(1.03807 0.192445 -8.29923e-21)
(1.00673 0.246474 9.23445e-22)
(0.974513 0.258766 1.62705e-20)
(0.920897 0.27329 -1.64924e-20)
(0.853321 0.308849 1.1011e-19)
(0.759308 0.380567 -2.44594e-19)
(0.99672 0.002852 6.03455e-21)
(1.00906 -0.0242266 -7.36196e-22)
(1.03375 0.00606496 -1.43804e-20)
(1.04527 0.113943 -2.21881e-20)
(1.03887 0.199567 2.01355e-20)
(1.00729 0.257075 2.15428e-20)
(0.976232 0.270725 -2.20715e-20)
(0.931568 0.291426 8.49216e-20)
(0.866997 0.336085 -1.00833e-19)
(0.813026 0.438004 -2.6673e-19)
(0.995635 0.00172957 2.63614e-22)
(1.00997 -0.0287096 -2.07087e-20)
(1.03522 0.0021499 6.59149e-21)
(1.04629 0.117142 3.15232e-20)
(1.04048 0.207237 8.19103e-21)
(1.00866 0.26812 4.68219e-20)
(0.978756 0.281129 2.57756e-20)
(0.944171 0.309017 7.33247e-20)
(0.881783 0.358929 3.3059e-23)
(0.875173 0.490167 1.96879e-19)
(0.99453 0.000547538 -2.82841e-21)
(1.0107 -0.0333734 2.33459e-22)
(1.03707 -0.00127427 -4.60968e-21)
(1.04796 0.121364 9.20521e-21)
(1.04274 0.215461 -2.83938e-20)
(1.01096 0.279474 8.04199e-21)
(0.982507 0.289873 -3.14509e-21)
(0.958485 0.326217 -2.13177e-19)
(0.898106 0.3769 0)
(0.945651 0.538239 -2.55314e-20)
(0.993556 -0.000672924 2.05635e-21)
(1.0111 -0.0382054 1.17367e-20)
(1.03895 -0.00424959 1.05836e-21)
(1.05001 0.126574 -4.72099e-20)
(1.04558 0.224154 -1.08069e-20)
(1.01449 0.290895 -5.81201e-20)
(0.987985 0.297073 4.75045e-21)
(0.973849 0.342962 4.89461e-21)
(0.91781 0.39054 -1.92782e-21)
(1.01905 0.578044 7.53227e-19)
(0.992954 -0.00190068 1.78913e-21)
(1.01092 -0.0430889 1.55381e-20)
(1.04023 -0.00693125 1.40563e-20)
(1.05212 0.132556 1.94765e-20)
(1.04912 0.233076 -4.4619e-20)
(1.01944 0.301973 1.29168e-20)
(0.995867 0.302964 -2.8235e-21)
(0.989615 0.358928 2.65972e-20)
(0.942946 0.398639 1.36946e-19)
(1.10226 0.621167 -2.57586e-20)
(0.993002 -0.00310948 2.25181e-22)
(1.00991 -0.0478055 -8.94261e-21)
(1.04009 -0.00949198 -3.66271e-21)
(1.05419 0.139193 3.54745e-20)
(1.0537 0.242041 3.88307e-21)
(1.02589 0.312193 1.97287e-20)
(1.00664 0.307783 -4.71367e-20)
(1.00546 0.372665 6.57855e-20)
(0.977019 0.399107 2.7889e-19)
(1.16931 0.643099 -6.43878e-19)
(0.993879 -0.00432564 2.02943e-21)
(1.00795 -0.0521134 -2.27092e-20)
(1.0384 -0.0100388 4.38385e-22)
(1.05647 0.148017 -1.53618e-20)
(1.05969 0.25226 4.70617e-20)
(1.03437 0.321995 -2.77147e-20)
(1.02007 0.312366 -1.60595e-20)
(1.02391 0.384737 3.39561e-20)
(1.01802 0.410832 -1.49362e-19)
(1.2687 0.695436 3.5237e-19)
(0.995907 -0.00573237 -1.13443e-21)
(1.00436 -0.0563226 3.94436e-21)
(1.03501 -0.0167184 4.15547e-21)
(1.05911 0.151034 -3.41366e-20)
(1.07294 0.256728 -3.26216e-20)
(1.05296 0.331902 -3.84757e-20)
(1.0451 0.31109 1.46186e-20)
(1.05999 0.395277 -1.45087e-19)
(1.06093 0.36173 -4.90417e-19)
(1.28185 0.68585 -1.44129e-19)
(0.999245 -0.0069233 -6.16997e-21)
(0.998502 -0.0588125 1.82472e-21)
(1.02774 -0.0340867 -1.11561e-21)
(1.05346 0.143088 1.24361e-20)
(1.10018 0.250797 2.02953e-20)
(1.08167 0.339304 5.67922e-20)
(1.11331 0.300617 1.47031e-20)
(1.12453 0.397836 1.12569e-19)
(1.18877 0.322959 2.06579e-19)
(1.29013 0.58883 2.47007e-19)
(1.00212 -0.00802826 -1.43468e-21)
(0.994386 -0.0596023 -1.96226e-21)
(1.02589 -0.0479766 2.16497e-21)
(1.02908 0.130336 3.90815e-21)
(1.16164 0.23734 6.59277e-35)
(1.10054 0.337148 -6.62429e-21)
(1.26278 0.282736 -4.53175e-34)
(1.19951 0.383864 1.67228e-20)
(1.40928 0.298521 -4.22025e-20)
(1.33751 0.511044 -2.02754e-19)
(1.00411 -0.00937788 1.46271e-20)
(0.994612 -0.0597149 -1.9243e-35)
(1.02883 -0.0555156 -2.28699e-21)
(0.987328 0.103428 -3.73988e-21)
(1.2528 0.213617 -1.70613e-20)
(1.10573 0.317305 1.02066e-21)
(1.44439 0.251876 -5.24683e-34)
(1.29431 0.356414 -3.69979e-20)
(1.61059 0.274582 -9.09712e-20)
(1.47157 0.444445 2.25797e-19)
(1.00511 -0.0116248 0)
(1.00013 -0.0602352 -3.85954e-35)
(1.03173 -0.0544573 0)
(0.963831 0.0570858 0)
(1.30797 0.181469 0)
(1.13585 0.277623 0)
(1.54833 0.204251 -3.17015e-34)
(1.40941 0.321845 0)
(1.71846 0.24279 -1.63347e-20)
(1.6498 0.379279 1.36015e-19)
(1.00465 -0.0154491 2.24106e-21)
(1.01121 -0.0616758 -9.60549e-21)
(1.03681 -0.0525083 -2.88146e-21)
(0.981697 0.00755788 0)
(1.30046 0.144418 0)
(1.20386 0.226354 5.41022e-21)
(1.56251 0.152496 2.69847e-20)
(1.51787 0.279887 -1.18269e-20)
(1.76073 0.205357 -2.48268e-20)
(1.79535 0.313029 9.90708e-20)
(1.00173 -0.0227397 -7.06018e-20)
(1.0296 -0.0623151 1.05535e-20)
(1.03741 -0.0534826 -4.57318e-21)
(1.02265 -0.0407043 -2.50629e-20)
(1.23592 0.0991075 -2.54527e-20)
(1.26598 0.165654 5.9352e-21)
(1.51232 0.101116 -2.61267e-20)
(1.57454 0.229079 -1.86898e-20)
(1.75088 0.163684 -3.04614e-20)
(1.86957 0.246684 9.76622e-20)
(0.996353 -0.0308775 -4.348e-21)
(1.04121 -0.0631067 -9.8772e-21)
(1.03165 -0.0563288 -5.58526e-21)
(1.04029 -0.0576991 -4.88281e-21)
(1.10381 0.0597994 -7.59044e-35)
(1.28178 0.10516 5.44844e-21)
(1.37535 0.0552505 -8.51095e-34)
(1.54515 0.173959 -1.07493e-20)
(1.658 0.119046 1.60564e-20)
(1.8606 0.179699 2.25087e-20)
(0.974772 -0.0506252 1.32473e-19)
(1.03793 -0.0640405 -1.83994e-21)
(0.972547 -0.0629699 -5.97453e-21)
(0.966813 -0.0583102 7.05485e-21)
(0.883947 0.0176164 1.0453e-20)
(1.16041 0.0399596 4.06039e-21)
(1.07024 0.0269839 1.32185e-20)
(1.35338 0.0984737 -2.35404e-20)
(1.39871 0.0636766 -2.97222e-20)
(1.68625 0.0952195 8.15355e-20)
(0.871215 -0.0329319 6.03765e-21)
(0.850501 -0.0463977 -4.72607e-35)
(0.641318 -0.0481367 -6.53601e-21)
(0.523908 -0.0256531 0)
(0.441357 0.00182224 0)
(0.597593 0.00952865 5.60153e-21)
(0.520497 0.0133177 -6.216e-36)
(0.759262 0.0315362 -9.75909e-21)
(0.797475 0.0181091 -2.39513e-20)
(1.02285 0.0309474 -3.76749e-20)
(1.46249 0.708531 1.50665e-19)
(1.55611 0.693128 -4.37176e-20)
(1.66295 0.66794 -3.17107e-21)