/*--------------------------------*- C++ -*----------------------------------*\
| =========                 |                                                 |
| \\      /  F ield         | OpenFOAM: The Open Source CFD Toolbox           |
|  \\    /   O peration     | Version:  2406                                  |
|   \\  /    A nd           | Website:  www.openfoam.com                      |
|    \\/     M anipulation  |                                                 |
\*---------------------------------------------------------------------------*/
FoamFile
{
    version     2.0;
    format      ascii;
    arch        "LSB;label=32;scalar=64";
    class       volVectorField;
    location    "2.35";
    object      flux;
}
// * * * * * * * * * * * * * * * * * * * * * * * * * * * * * * * * * * * * * //

dimensions      [0 1 -1 1 0 0 0];

internalField   nonuniform List<vector> 
2500
(
(0.00146319 0.00146319 0)
(0.00438328 0.00147003 0)
(0.0072929 0.00148404 0)
(0.0101879 0.00150499 0)
(0.0130584 0.00153291 0)
(0.0158973 0.00156781 0)
(0.0186973 0.0016097 0)
(0.0214511 0.00165858 0)
(0.0241509 0.00171446 0)
(0.0267891 0.00177734 0)
(0.0293575 0.00184719 0)
(0.031848 0.00192401 0)
(0.0342522 0.00200775 0)
(0.0365615 0.00209836 0)
(0.0387669 0.00219578 0)
(0.0408597 0.00229993 0)
(0.0428305 0.00241068 0)
(0.0446703 0.0025279 0)
(0.0463697 0.00265141 0)
(0.0479193 0.00278101 0)
(0.0493101 0.00291645 0)
(0.0505327 0.00305745 0)
(0.0515783 0.00320368 0)
(0.0524383 0.00335474 0)
(0.0531043 0.00351022 0)
(0.0535685 0.00366962 0)
(0.0538237 0.00383241 0)
(0.0538633 0.00399799 0)
(0.0536817 0.00416572 0)
(0.0532739 0.00433488 0)
(0.0526362 0.00450473 0)
(0.0517658 0.00467444 0)
(0.0506614 0.00484316 0)
(0.0493228 0.00501 0)
(0.0477513 0.00517402 0)
(0.0459498 0.00533425 0)
(0.0439227 0.00548971 0)
(0.041676 0.0056394 0)
(0.0392174 0.00578234 0)
(0.0365561 0.00591753 0)
(0.0337031 0.00604401 0)
(0.0306711 0.00616087 0)
(0.027474 0.00626721 0)
(0.0241274 0.00636224 0)
(0.0206483 0.00644521 0)
(0.0170547 0.00651548 0)
(0.0133656 0.0065725 0)
(0.00960121 0.00661584 0)
(0.00578217 0.00664493 0)
(0.00193082 0.00665826 0)
(0.00147003 0.00438328 0)
(0.00440413 0.00440413 0)
(0.00732787 0.00444608 0)
(0.0102367 0.00450889 0)
(0.0131212 0.00459263 0)
(0.0159741 0.00469731 0)
(0.0187881 0.00482298 0)
(0.0215558 0.00496963 0)
(0.0242697 0.00513729 0)
(0.0269218 0.00532593 0)
(0.0295042 0.00553552 0)
(0.0320086 0.005766 0)
(0.0344266 0.00601728 0)
(0.0367495 0.00628919 0)
(0.0389685 0.00658156 0)
(0.0410746 0.00689411 0)
(0.0430585 0.00722652 0)
(0.044911 0.00757835 0)
(0.0466228 0.00794911 0)
(0.0481844 0.00833818 0)
(0.0495865 0.00874481 0)
(0.0508199 0.00916816 0)
(0.0518756 0.00960723 0)
(0.0527448 0.0100609 0)
(0.0534191 0.0105278 0)
(0.0538907 0.0110066 0)
(0.0541521 0.0114955 0)
(0.0541967 0.011993 0)
(0.0540186 0.0124969 0)
(0.0536129 0.0130051 0)
(0.0529757 0.0135155 0)
(0.0521043 0.0140255 0)
(0.050997 0.0145326 0)
(0.0496536 0.0150341 0)
(0.0480756 0.0155271 0)
(0.0462655 0.0160088 0)
(0.0442279 0.0164762 0)
(0.0419687 0.0169263 0)
(0.0394955 0.0173561 0)
(0.0368178 0.0177626 0)
(0.0339465 0.018143 0)
(0.0308943 0.0184945 0)
(0.0276754 0.0188143 0)
(0.0243054 0.0191002 0)
(0.0208015 0.0193497 0)
(0.0171819 0.0195611 0)
(0.013466 0.0197326 0)
(0.00967364 0.019863 0)
(0.00582458 0.0199513 0)
(0.00194415 0.0199939 0)
(0.00148404 0.0072929 0)
(0.00444608 0.00732787 0)
(0.00739767 0.00739767 0)
(0.0103344 0.00750232 0)
(0.0132468 0.00764189 0)
(0.0161276 0.0078164 0)
(0.0189696 0.00802589 0)
(0.0217654 0.0082704 0)
(0.0245072 0.00854994 0)
(0.0271873 0.00886449 0)
(0.0297976 0.009214 0)
(0.0323298 0.00959838 0)
(0.0347754 0.0100175 0)
(0.0371258 0.010471 0)
(0.0393719 0.0109588 0)
(0.0415046 0.0114802 0)
(0.0435148 0.0120349 0)
(0.0453929 0.012622 0)
(0.0471295 0.0132408 0)
(0.048715 0.0138903 0)
(0.05014 0.0145691 0)
(0.0513951 0.015276 0)
(0.052471 0.0160093 0)
(0.0533588 0.016767 0)
(0.05405 0.017547 0)
(0.0545362 0.018347 0)
(0.0548101 0.0191641 0)
(0.0548647 0.0199955 0)
(0.0546939 0.0208379 0)
(0.0542926 0.0216878 0)
(0.0536566 0.0225413 0)
(0.0527829 0.0233943 0)
(0.0516699 0.0242427 0)
(0.0503173 0.0250818 0)
(0.048726 0.0259069 0)
(0.0468989 0.0267132 0)
(0.0448402 0.0274956 0)
(0.0425559 0.0282493 0)
(0.0400537 0.028969 0)
(0.037343 0.02965 0)
(0.034435 0.0302872 0)
(0.0313424 0.030876 0)
(0.0280797 0.0314119 0)
(0.0246628 0.0318909 0)
(0.0211092 0.032309 0)
(0.0174375 0.0326631 0)
(0.0136676 0.0329503 0)
(0.00981988 0.0331684 0)
(0.00591309 0.0333158 0)
(0.00197349 0.0333894 0)
(0.00150499 0.0101879 0)
(0.00450889 0.0102367 0)
(0.00750232 0.0103344 0)
(0.010481 0.010481 0)
(0.0134353 0.0106764 0)
(0.0163581 0.0109208 0)
(0.0192421 0.0112143 0)
(0.0220799 0.0115568 0)
(0.0248638 0.0119484 0)
(0.0275859 0.0123892 0)
(0.0302381 0.0128789 0)
(0.0328121 0.0134176 0)
(0.0352992 0.014005 0)
(0.0376908 0.0146408 0)
(0.0399777 0.0153246 0)
(0.0421507 0.0160559 0)
(0.0442003 0.0168338 0)
(0.046117 0.0176574 0)
(0.047891 0.0185256 0)
(0.0495127 0.019437 0)
(0.0509723 0.0203899 0)
(0.0522601 0.0213824 0)
(0.0533666 0.0224121 0)
(0.0542826 0.0234764 0)
(0.0549991 0.0245724 0)
(0.0555078 0.0256966 0)
(0.0558006 0.0268452 0)
(0.0558705 0.0280143 0)
(0.0557108 0.0291991 0)
(0.0553163 0.0303947 0)
(0.0546823 0.0315958 0)
(0.0538057 0.0327966 0)
(0.0526844 0.033991 0)
(0.0513178 0.0351728 0)
(0.0497069 0.0363351 0)
(0.0478543 0.0374713 0)
(0.045764 0.0385741 0)
(0.0434421 0.0396366 0)
(0.0408962 0.0406516 0)
(0.0381359 0.041612 0)
(0.0351725 0.0425109 0)
(0.032019 0.0433417 0)
(0.0286902 0.044098 0)
(0.0252025 0.044774 0)
(0.0215738 0.0453642 0)
(0.0178232 0.045864 0)
(0.0139713 0.0462691 0)
(0.0100391 0.0465764 0)
(0.00604555 0.046783 0)
(0.00201775 0.0468867 0)
(0.00153291 0.0130584 0)
(0.00459263 0.0131212 0)
(0.00764189 0.0132468 0)
(0.0106764 0.0134353 0)
(0.0136867 0.0136867 0)
(0.0166655 0.0140011 0)
(0.0196056 0.0143786 0)
(0.0224995 0.0148193 0)
(0.0253396 0.0153233 0)
(0.0281178 0.0158905 0)
(0.030826 0.0165209 0)
(0.0334559 0.0172144 0)
(0.0359987 0.0179707 0)
(0.0384454 0.0187896 0)
(0.0407869 0.0196704 0)
(0.0430138 0.0206125 0)
(0.0451163 0.021615 0)
(0.0470848 0.0226767 0)
(0.0489091 0.0237962 0)
(0.0505793 0.0249717 0)
(0.0520854 0.026201 0)
(0.0534173 0.0274818 0)
(0.0545651 0.028811 0)
(0.0555191 0.0301854 0)
(0.0562701 0.0316011 0)
(0.0568091 0.0330538 0)
(0.0571278 0.0345387 0)
(0.0572185 0.0360504 0)
(0.0570743 0.037583 0)
(0.0566892 0.0391302 0)
(0.0560584 0.040685 0)
(0.0551782 0.04224 0)
(0.0540461 0.0437874 0)
(0.0526614 0.0453189 0)
(0.0510245 0.0468258 0)
(0.0491379 0.0482992 0)
(0.0470056 0.0497299 0)
(0.0446334 0.0511087 0)
(0.0420291 0.0524262 0)
(0.0392024 0.0536733 0)
(0.0361647 0.0548408 0)
(0.0329295 0.0559202 0)
(0.029512 0.056903 0)
(0.025929 0.0577815 0)
(0.0221992 0.0585488 0)
(0.0183424 0.0591984 0)
(0.0143799 0.059725 0)
(0.0103337 0.0601241 0)
(0.00622341 0.0603923 0)
(0.0020772 0.0605269 0)
(0.00156781 0.0158973 0)
(0.00469731 0.0159741 0)
(0.0078164 0.0161276 0)
(0.0109208 0.0163581 0)
(0.0140011 0.0166655 0)
(0.01705 0.01705 0)
(0.0200603 0.0175118 0)
(0.0230245 0.0180509 0)
(0.0259349 0.0186674 0)
(0.0287835 0.0193615 0)
(0.031562 0.020133 0)
(0.0342619 0.0209819 0)
(0.0368744 0.021908 0)
(0.0393905 0.0229108 0)
(0.0418007 0.0239898 0)
(0.0440953 0.0251442 0)
(0.0462645 0.026373 0)
(0.0482982 0.0276748 0)
(0.050186 0.0290478 0)
(0.0519175 0.03049 0)
(0.0534824 0.0319989 0)
(0.0548701 0.0335715 0)
(0.0560702 0.0352042 0)
(0.0570726 0.0368931 0)
(0.0578675 0.0386335 0)
(0.0584453 0.0404201 0)
(0.0587972 0.0422471 0)
(0.0589148 0.0441079 0)
(0.0587907 0.0459954 0)
(0.0584183 0.0479016 0)
(0.0577922 0.0498181 0)
(0.0569081 0.0517358 0)
(0.0557632 0.053645 0)
(0.0543562 0.0555353 0)
(0.0526872 0.0573961 0)
(0.0507584 0.0592164 0)
(0.0485735 0.0609847 0)
(0.0461384 0.0626895 0)
(0.0434608 0.0643192 0)
(0.0405505 0.0658624 0)
(0.0374194 0.0673076 0)
(0.0340812 0.0686441 0)
(0.0305516 0.0698614 0)
(0.0268483 0.0709498 0)
(0.0229907 0.0719005 0)
(0.0189995 0.0727056 0)
(0.014897 0.0733583 0)
(0.0107064 0.0738529 0)
(0.00644836 0.0741851 0)
(0.00215241 0.0743519 0)
(0.0016097 0.0186973 0)
(0.00482298 0.0187881 0)
(0.00802589 0.0189696 0)
(0.0112143 0.0192421 0)
(0.0143786 0.0196056 0)
(0.0175118 0.0200603 0)
(0.0206065 0.0206065 0)
(0.0236552 0.0212442 0)
(0.0266502 0.0219736 0)
(0.0295834 0.0227949 0)
(0.0324465 0.0237081 0)
(0.0352309 0.0247131 0)
(0.0379275 0.0258098 0)
(0.0405272 0.0269977 0)
(0.0430204 0.0282763 0)
(0.045397 0.0296447 0)
(0.0476468 0.0311017 0)
(0.0497595 0.0326459 0)
(0.0517244 0.0342752 0)
(0.0535305 0.0359874 0)
(0.0551669 0.0377795 0)
(0.0566226 0.0396481 0)
(0.0578867 0.0415891 0)
(0.0589484 0.0435978 0)
(0.0597971 0.0456689 0)
(0.0604227 0.047796 0)
(0.0608156 0.0499724 0)
(0.0609668 0.0521903 0)
(0.060868 0.0544411 0)
(0.060512 0.0567156 0)
(0.0598926 0.0590037 0)
(0.059005 0.0612944 0)
(0.0578456 0.0635762 0)
(0.0564126 0.0658367 0)
(0.0547056 0.0680632 0)
(0.0527265 0.0702422 0)
(0.0504787 0.0723602 0)
(0.0479679 0.0744031 0)
(0.045202 0.076357 0)
(0.0421907 0.0782079 0)
(0.0389464 0.0799421 0)
(0.0354833 0.0815464 0)
(0.0318177 0.0830082 0)
(0.0279682 0.0843157 0)
(0.023955 0.085458 0)
(0.0198001 0.0864255 0)
(0.0155272 0.0872099 0)
(0.0111605 0.0878045 0)
(0.00672247 0.0882038 0)
(0.00224405 0.0884044 0)
(0.00165858 0.0214511 0)
(0.00496963 0.0215558 0)
(0.0082704 0.0217654 0)
(0.0115568 0.0220799 0)
(0.0148193 0.0224995 0)
(0.0180509 0.0230245 0)
(0.0212442 0.0236552 0)
(0.0243917 0.0243917 0)
(0.0274857 0.0252343 0)
(0.030518 0.0261833 0)
(0.0334802 0.0272387 0)
(0.0363636 0.0284006 0)
(0.039159 0.0296689 0)
(0.041857 0.0310431 0)
(0.0444476 0.0325228 0)
(0.0469207 0.034107 0)
(0.0492657 0.0357945 0)
(0.0514717 0.0375837 0)
(0.0535275 0.0394726 0)
(0.0554218 0.0414584 0)
(0.0571431 0.043538 0)
(0.0586797 0.0457075 0)
(0.0600199 0.0479624 0)
(0.0611524 0.0502972 0)
(0.0620657 0.0527059 0)
(0.0627489 0.0551814 0)
(0.0631914 0.0577157 0)
(0.0633835 0.0603 0)
(0.063316 0.0629244 0)
(0.0629808 0.0655781 0)
(0.0623709 0.0682494 0)
(0.0614806 0.0709255 0)
(0.0603055 0.0735929 0)
(0.0588432 0.0762372 0)
(0.0570928 0.0788433 0)
(0.0550554 0.0813955 0)
(0.0527344 0.0838776 0)
(0.0501352 0.0862733 0)
(0.0472656 0.0885657 0)
(0.0441357 0.0907385 0)
(0.0407579 0.0927754 0)
(0.0371472 0.0946605 0)
(0.0333208 0.0963789 0)
(0.0292981 0.0979165 0)
(0.0251005 0.0992603 0)
(0.0207515 0.100399 0)
(0.016276 0.101322 0)
(0.0117003 0.102022 0)
(0.00704827 0.102492 0)
(0.00235297 0.102728 0)
(0.00171446 0.0241509 0)
(0.00513729 0.0242697 0)
(0.00854994 0.0245072 0)
(0.0119484 0.0248638 0)
(0.0153233 0.0253396 0)
(0.0186674 0.0259349 0)
(0.0219736 0.0266502 0)
(0.0252343 0.0274857 0)
(0.0284418 0.0284418 0)
(0.0315878 0.0295188 0)
(0.0346638 0.0307171 0)
(0.037661 0.0320366 0)
(0.04057 0.0334774 0)
(0.0433811 0.0350393 0)
(0.0460842 0.0367216 0)
(0.0486687 0.0385237 0)
(0.0511236 0.0404442 0)
(0.0534376 0.0424815 0)
(0.055599 0.0446333 0)
(0.0575959 0.0468969 0)
(0.059416 0.0492688 0)
(0.0610469 0.0517447 0)
(0.0624764 0.0543197 0)
(0.0636919 0.0569878 0)
(0.0646812 0.0597422 0)
(0.0654325 0.0625749 0)
(0.0659343 0.065477 0)
(0.0661755 0.0684385 0)
(0.0661461 0.0714483 0)
(0.065837 0.0744939 0)
(0.06524 0.0775619 0)
(0.0643485 0.0806379 0)
(0.0631573 0.0837061 0)
(0.061663 0.08675 0)
(0.0598639 0.0897522 0)
(0.0577608 0.0926944 0)
(0.0553565 0.0955579 0)
(0.052656 0.0983234 0)
(0.0496673 0.100972 0)
(0.0464004 0.103483 0)
(0.0428684 0.105839 0)
(0.0390868 0.10802 0)
(0.0350736 0.11001 0)
(0.0308495 0.11179 0)
(0.0264372 0.113347 0)
(0.0218619 0.114667 0)
(0.0171503 0.115737 0)
(0.0123305 0.116549 0)
(0.00742873 0.117094 0)
(0.00248016 0.117368 0)
(0.00177734 0.0267891 0)
(0.00532593 0.0269218 0)
(0.00886449 0.0271873 0)
(0.0123892 0.0275859 0)
(0.0158905 0.0281178 0)
(0.0193615 0.0287835 0)
(0.0227949 0.0295834 0)
(0.0261833 0.030518 0)
(0.0295188 0.0315878 0)
(0.0327933 0.0327933 0)
(0.035998 0.0341348 0)
(0.039124 0.0356127 0)
(0.0421617 0.0372271 0)
(0.0451012 0.0389779 0)
(0.047932 0.0408647 0)
(0.0506433 0.0428867 0)
(0.0532235 0.0450428 0)
(0.0556608 0.0473313 0)
(0.0579429 0.0497499 0)
(0.0600573 0.0522958 0)
(0.0619909 0.0549652 0)
(0.0637306 0.0577537 0)
(0.065263 0.0606558 0)
(0.0665748 0.0636652 0)
(0.0676528 0.0667741 0)
(0.0684837 0.0699741 0)
(0.0690551 0.0732552 0)
(0.0693548 0.0766062 0)
(0.0693714 0.0800146 0)
(0.0690945 0.0834665 0)
(0.0685149 0.0869469 0)
(0.0676247 0.0904392 0)
(0.0664177 0.0939257 0)
(0.0648893 0.0973876 0)
(0.0630371 0.100805 0)
(0.0608611 0.104157 0)
(0.0583634 0.107421 0)
(0.0555489 0.110577 0)
(0.0524252 0.1136 0)
(0.0490028 0.11647 0)
(0.045295 0.119164 0)
(0.0413181 0.121659 0)
(0.0370911 0.123937 0)
(0.0326359 0.125976 0)
(0.0279771 0.12776 0)
(0.0231414 0.129273 0)
(0.018158 0.1305 0)
(0.0130571 0.131431 0)
(0.00786738 0.132057 0)
(0.00262683 0.132371 0)
(0.00184719 0.0293575 0)
(0.00553552 0.0295042 0)
(0.009214 0.0297976 0)
(0.0128789 0.0302381 0)
(0.0165209 0.030826 0)
(0.020133 0.031562 0)
(0.0237081 0.0324465 0)
(0.0272387 0.0334802 0)
(0.0307171 0.0346638 0)
(0.0341348 0.035998 0)
(0.0374833 0.0374833 0)
(0.0407533 0.0391203 0)
(0.0439352 0.0409092 0)
(0.0470187 0.0428502 0)
(0.049993 0.044943 0)
(0.0528468 0.0471872 0)
(0.0555682 0.0495815 0)
(0.0581447 0.0521246 0)
(0.0605635 0.054814 0)
(0.0628112 0.057647 0)
(0.0648739 0.0606196 0)
(0.0667376 0.0637273 0)
(0.0683878 0.0669641 0)
(0.0698102 0.0703234 0)
(0.0709902 0.0737969 0)
(0.0719136 0.0773753 0)
(0.0725663 0.0810476 0)
(0.0729348 0.0848017 0)
(0.0730065 0.0886237 0)
(0.0727693 0.0924982 0)
(0.0722127 0.0964084 0)
(0.0713274 0.100336 0)
(0.0701057 0.104261 0)
(0.0685421 0.108161 0)
(0.0666329 0.112015 0)
(0.0643772 0.115799 0)
(0.0617765 0.119487 0)
(0.0588352 0.123056 0)
(0.0555607 0.126478 0)
(0.0519636 0.129728 0)
(0.0480577 0.132782 0)
(0.0438599 0.135613 0)
(0.0393906 0.138198 0)
(0.0346732 0.140514 0)
(0.0297339 0.142541 0)
(0.0246018 0.144261 0)
(0.0193084 0.145656 0)
(0.0138867 0.146715 0)
(0.00836836 0.147427 0)
(0.00279435 0.147784 0)
(0.00192401 0.031848 0)
(0.005766 0.0320086 0)
(0.00959838 0.0323298 0)
(0.0134176 0.0328121 0)
(0.0172144 0.0334559 0)
(0.0209819 0.0342619 0)
(0.0247131 0.0352309 0)
(0.0284006 0.0363636 0)
(0.0320366 0.037661 0)
(0.0356127 0.039124 0)
(0.0391203 0.0407533 0)
(0.0425498 0.0425498 0)
(0.0458916 0.0445141 0)
(0.049135 0.0466465 0)
(0.052269 0.0489471 0)
(0.0552818 0.0514154 0)
(0.0581608 0.0540508 0)
(0.0608933 0.0568517 0)
(0.0634653 0.0598162 0)
(0.0658629 0.0629412 0)
(0.0680712 0.066223 0)
(0.0700751 0.0696568 0)
(0.0718592 0.0732367 0)
(0.0734076 0.0769552 0)
(0.0747046 0.080804 0)
(0.0757344 0.0847728 0)
(0.0764815 0.08885 0)
(0.0769308 0.0930222 0)
(0.0770679 0.0972743 0)
(0.0768793 0.101589 0)
(0.0763525 0.105949 0)
(0.0754768 0.110332 0)
(0.074243 0.114718 0)
(0.0726439 0.11908 0)
(0.0706748 0.123396 0)
(0.0683333 0.127637 0)
(0.0656203 0.131775 0)
(0.0625395 0.135782 0)
(0.059098 0.139629 0)
(0.0553065 0.143286 0)
(0.0511792 0.146724 0)
(0.046734 0.149915 0)
(0.0419924 0.15283 0)
(0.0369795 0.155444 0)
(0.0317237 0.157732 0)
(0.0262566 0.159675 0)
(0.0206124 0.161252 0)
(0.0148274 0.162449 0)
(0.00893647 0.163253 0)
(0.00298433 0.163658 0)
(0.00200775 0.0342522 0)
(0.00601728 0.0344266 0)
(0.0100175 0.0347754 0)
(0.014005 0.0352992 0)
(0.0179707 0.0359987 0)
(0.021908 0.0368744 0)
(0.0258098 0.0379275 0)
(0.0296689 0.039159 0)
(0.0334774 0.04057 0)
(0.0372271 0.0421617 0)
(0.0409092 0.0439352 0)
(0.0445141 0.0458916 0)
(0.0480319 0.0480319 0)
(0.0514516 0.0503566 0)
(0.0547619 0.0528663 0)
(0.0579505 0.0555609 0)
(0.0610045 0.0584399 0)
(0.0639101 0.0615021 0)
(0.066653 0.0647457 0)
(0.0692181 0.0681679 0)
(0.0715895 0.0717651 0)
(0.0737512 0.0755325 0)
(0.0756862 0.0794638 0)
(0.0773775 0.0835517 0)
(0.0788078 0.0877871 0)
(0.0799596 0.0921594 0)
(0.0808157 0.0966561 0)
(0.0813592 0.101263 0)
(0.0815738 0.105963 0)
(0.0814441 0.110739 0)
(0.0809557 0.115569 0)
(0.0800959 0.120432 0)
(0.0788537 0.125302 0)
(0.0772202 0.130154 0)
(0.075189 0.134958 0)
(0.0727565 0.139684 0)
(0.0699224 0.144301 0)
(0.0666896 0.148778 0)
(0.0630648 0.153079 0)
(0.0590587 0.157172 0)
(0.0546859 0.161023 0)
(0.0499652 0.1646 0)
(0.0449196 0.167871 0)
(0.0395759 0.170806 0)
(0.0339651 0.173378 0)
(0.0281214 0.175562 0)
(0.0220825 0.177335 0)
(0.0158881 0.178682 0)
(0.00957722 0.179587 0)
(0.00319862 0.180042 0)
(0.00209836 0.0365615 0)
(0.00628919 0.0367495 0)
(0.010471 0.0371258 0)
(0.0146408 0.0376908 0)
(0.0187896 0.0384454 0)
(0.0229108 0.0393905 0)
(0.0269977 0.0405272 0)
(0.0310431 0.041857 0)
(0.0350393 0.0433811 0)
(0.0389779 0.0451012 0)
(0.0428502 0.0470187 0)
(0.0466465 0.049135 0)
(0.0503566 0.0514516 0)
(0.0539695 0.0539695 0)
(0.0574733 0.0566895 0)
(0.0608553 0.0596121 0)
(0.064102 0.0627371 0)
(0.0671991 0.0660638 0)
(0.0701312 0.0695907 0)
(0.0728824 0.0733152 0)
(0.0754357 0.0772341 0)
(0.0777738 0.0813424 0)
(0.0798784 0.0856342 0)
(0.0817309 0.0901019 0)
(0.0833123 0.0947361 0)
(0.0846034 0.0995257 0)
(0.0855849 0.104458 0)
(0.0862379 0.109516 0)
(0.0865439 0.114685 0)
(0.0864854 0.119942 0)
(0.0860457 0.125267 0)
(0.0852098 0.130635 0)
(0.0839646 0.136018 0)
(0.0822992 0.141386 0)
(0.0802051 0.14671 0)
(0.0776773 0.151953 0)
(0.0747139 0.157083 0)
(0.0713169 0.162061 0)
(0.0674924 0.16685 0)
(0.0632509 0.171412 0)
(0.0586075 0.175709 0)
(0.0535819 0.179704 0)
(0.0481985 0.18336 0)
(0.0424863 0.186643 0)
(0.036479 0.189522 0)
(0.0302141 0.191968 0)
(0.0237328 0.193955 0)
(0.0170794 0.195465 0)
(0.010297 0.19648 0)
(0.00343936 0.196991 0)
(0.00219578 0.0387669 0)
(0.00658156 0.0389685 0)
(0.0109588 0.0393719 0)
(0.0153246 0.0399777 0)
(0.0196704 0.0407869 0)
(0.0239898 0.0418007 0)
(0.0282763 0.0430204 0)
(0.0325228 0.0444476 0)
(0.0367216 0.0460842 0)
(0.0408647 0.047932 0)
(0.044943 0.049993 0)
(0.0489471 0.052269 0)
(0.0528663 0.0547619 0)
(0.0566895 0.0574733 0)
(0.0604045 0.0604045 0)
(0.0639981 0.0635565 0)
(0.0674562 0.0669297 0)
(0.0707637 0.0705238 0)
(0.0739044 0.0743378 0)
(0.0768615 0.0783696 0)
(0.0796167 0.0826163 0)
(0.0821514 0.0870733 0)
(0.0844457 0.0917347 0)
(0.0864794 0.0965929 0)
(0.0882316 0.101639 0)
(0.089681 0.10686 0)
(0.0908064 0.112244 0)
(0.0915862 0.117773 0)
(0.0919998 0.123431 0)
(0.0920268 0.129194 0)
(0.0916481 0.135039 0)
(0.0908463 0.140939 0)
(0.0896054 0.146864 0)
(0.0879121 0.152782 0)
(0.0857559 0.158659 0)
(0.0831296 0.164455 0)
(0.0800296 0.170132 0)
(0.0764567 0.175649 0)
(0.072416 0.180964 0)
(0.0679179 0.186032 0)
(0.0629777 0.190811 0)
(0.057616 0.195259 0)
(0.051859 0.199333 0)
(0.045738 0.202995 0)
(0.0392896 0.206208 0)
(0.032555 0.20894 0)
(0.0255799 0.211161 0)
(0.018413 0.212849 0)
(0.0111029 0.213985 0)
(0.00370896 0.214555 0)
(0.00229993 0.0408597 0)
(0.00689411 0.0410746 0)
(0.0114802 0.0415046 0)
(0.0160559 0.0421507 0)
(0.0206125 0.0430138 0)
(0.0251442 0.0440953 0)
(0.0296447 0.045397 0)
(0.034107 0.0469207 0)
(0.0385237 0.0486687 0)
(0.0428867 0.0506433 0)
(0.0471872 0.0528468 0)
(0.0514154 0.0552818 0)
(0.0555609 0.0579505 0)
(0.0596121 0.0608553 0)
(0.0635565 0.0639981 0)
(0.0673805 0.0673805 0)
(0.0710693 0.0710035 0)
(0.0746072 0.0748675 0)
(0.0779771 0.0789722 0)
(0.0811609 0.083316 0)
(0.0841394 0.0878965 0)
(0.0868922 0.0927095 0)
(0.0893981 0.0977496 0)
(0.0916348 0.103009 0)
(0.0935795 0.108479 0)
(0.0952086 0.114148 0)
(0.0964983 0.120001 0)
(0.0974247 0.126021 0)
(0.0979642 0.13219 0)
(0.0980936 0.138483 0)
(0.0977908 0.144876 0)
(0.0970353 0.151339 0)
(0.0958082 0.157839 0)
(0.0940934 0.164342 0)
(0.0918776 0.170808 0)
(0.0891511 0.177196 0)
(0.0859083 0.183461 0)
(0.0821482 0.189559 0)
(0.077875 0.19544 0)
(0.0730985 0.201056 0)
(0.0678342 0.206358 0)
(0.0621037 0.211297 0)
(0.0559348 0.215827 0)
(0.0493616 0.219902 0)
(0.0424239 0.223481 0)
(0.0351672 0.226525 0)
(0.027642 0.229003 0)
(0.0199025 0.230885 0)
(0.0120033 0.232153 0)
(0.00401019 0.23279 0)
(0.00241068 0.0428305 0)
(0.00722652 0.0430585 0)
(0.0120349 0.0435148 0)
(0.0168338 0.0442003 0)
(0.021615 0.0451163 0)
(0.026373 0.0462645 0)
(0.0311017 0.0476468 0)
(0.0357945 0.0492657 0)
(0.0404442 0.0511236 0)
(0.0450428 0.0532235 0)
(0.0495815 0.0555682 0)
(0.0540508 0.0581608 0)
(0.0584399 0.0610045 0)
(0.0627371 0.064102 0)
(0.0669297 0.0674562 0)
(0.0710035 0.0710693 0)
(0.0749432 0.0749432 0)
(0.0787324 0.0790792 0)
(0.082353 0.0834775 0)
(0.0857858 0.0881375 0)
(0.0890102 0.0930573 0)
(0.0920045 0.0982337 0)
(0.0947456 0.103661 0)
(0.0972091 0.109334 0)
(0.0993701 0.115241 0)
(0.101203 0.121372 0)
(0.10268 0.127712 0)
(0.103775 0.134244 0)
(0.104462 0.140947 0)
(0.104713 0.147798 0)
(0.104504 0.154767 0)
(0.10381 0.161825 0)
(0.102608 0.168936 0)
(0.100881 0.176061 0)
(0.0986098 0.183157 0)
(0.0957831 0.190179 0)
(0.0923925 0.197077 0)
(0.088435 0.2038 0)
(0.0839132 0.210294 0)
(0.0788361 0.216504 0)
(0.0732193 0.222374 0)
(0.0670853 0.227849 0)
(0.0604639 0.232876 0)
(0.0533918 0.237403 0)
(0.0459127 0.241382 0)
(0.0380768 0.244769 0)
(0.02994 0.247527 0)
(0.021563 0.249625 0)
(0.0130073 0.251037 0)
(0.00434616 0.251747 0)
(0.0025279 0.0446703 0)
(0.00757835 0.044911 0)
(0.012622 0.0453929 0)
(0.0176574 0.046117 0)
(0.0226767 0.0470848 0)
(0.0276748 0.0482982 0)
(0.0326459 0.0497595 0)
(0.0375837 0.0514717 0)
(0.0424815 0.0534376 0)
(0.0473313 0.0556608 0)
(0.0521246 0.0581447 0)
(0.0568517 0.0608933 0)
(0.0615021 0.0639101 0)
(0.0660638 0.0671991 0)
(0.0705238 0.0707637 0)
(0.0748675 0.0746072 0)
(0.0790792 0.0787324 0)
(0.0831414 0.0831414 0)
(0.0870354 0.0878356 0)
(0.0907407 0.0928153 0)
(0.0942355 0.0980795 0)
(0.0974963 0.103626 0)
(0.100498 0.10945 0)
(0.103214 0.115545 0)
(0.105618 0.121903 0)
(0.10768 0.128512 0)
(0.109371 0.135358 0)
(0.11066 0.142423 0)
(0.111518 0.149685 0)
(0.111914 0.15712 0)
(0.111818 0.164698 0)
(0.111204 0.172385 0)
(0.110044 0.180144 0)
(0.108314 0.187931 0)
(0.105996 0.195701 0)
(0.103071 0.203403 0)
(0.0995293 0.210982 0)
(0.095365 0.21838 0)
(0.0905789 0.225538 0)
(0.0851787 0.232392 0)
(0.0791799 0.238881 0)
(0.0726059 0.244941 0)
(0.0654884 0.250511 0)
(0.0578672 0.255532 0)
(0.0497901 0.25995 0)
(0.0413127 0.263714 0)
(0.0324973 0.26678 0)
(0.0234117 0.269114 0)
(0.0141255 0.270685 0)
(0.00472036 0.271476 0)
(0.00265141 0.0463697 0)
(0.00794911 0.0466228 0)
(0.0132408 0.0471295 0)
(0.0185256 0.047891 0)
(0.0237962 0.0489091 0)
(0.0290478 0.050186 0)
(0.0342752 0.0517244 0)
(0.0394726 0.0535275 0)
(0.0446333 0.055599 0)
(0.0497499 0.0579429 0)
(0.054814 0.0605635 0)
(0.0598162 0.0634653 0)
(0.0647457 0.066653 0)
(0.0695907 0.0701312 0)
(0.0743378 0.0739044 0)
(0.0789722 0.0779771 0)
(0.0834775 0.082353 0)
(0.0878356 0.0870354 0)
(0.0920269 0.0920269 0)
(0.0960297 0.0973289 0)
(0.0998207 0.102942 0)
(0.103375 0.108863 0)
(0.106665 0.115091 0)
(0.109662 0.12162 0)
(0.112337 0.128441 0)
(0.114657 0.135543 0)
(0.11659 0.142913 0)
(0.118102 0.150532 0)
(0.119159 0.158379 0)
(0.119726 0.166427 0)
(0.119769 0.174646 0)
(0.119256 0.182999 0)
(0.118155 0.191445 0)
(0.116439 0.199939 0)
(0.114082 0.20843 0)
(0.111064 0.216861 0)
(0.10737 0.225173 0)
(0.102991 0.233301 0)
(0.097925 0.241177 0)
(0.0921791 0.248731 0)
(0.0857678 0.255893 0)
(0.0787153 0.262591 0)
(0.0710552 0.268755 0)
(0.0628307 0.274319 0)
(0.0540943 0.279218 0)
(0.0449075 0.283396 0)
(0.0353399 0.286802 0)
(0.0254677 0.289395 0)
(0.0153694 0.291143 0)
(0.00513671 0.292022 0)
(0.00278101 0.0479193 0)
(0.00833818 0.0481844 0)
(0.0138903 0.048715 0)
(0.019437 0.0495127 0)
(0.0249717 0.0505793 0)
(0.03049 0.0519175 0)
(0.0359874 0.0535305 0)
(0.0414584 0.0554218 0)
(0.0468969 0.0575959 0)
(0.0522958 0.0600573 0)
(0.057647 0.0628112 0)
(0.0629412 0.0658629 0)
(0.0681679 0.0692181 0)
(0.0733152 0.0728824 0)
(0.0783696 0.0768615 0)
(0.083316 0.0811609 0)
(0.0881375 0.0857858 0)
(0.0928153 0.0907407 0)
(0.0973289 0.0960297 0)
(0.101655 0.101655 0)
(0.10577 0.10762 0)
(0.109646 0.113922 0)
(0.113254 0.120561 0)
(0.116564 0.127531 0)
(0.119541 0.134827 0)
(0.122152 0.142438 0)
(0.12436 0.15035 0)
(0.126126 0.158545 0)
(0.127413 0.167002 0)
(0.12818 0.175692 0)
(0.12839 0.184585 0)
(0.128003 0.193641 0)
(0.126984 0.202817 0)
(0.125299 0.212064 0)
(0.122918 0.221325 0)
(0.119814 0.230539 0)
(0.115969 0.239639 0)
(0.111369 0.248554 0)
(0.106009 0.257209 0)
(0.0998951 0.265524 0)
(0.0930398 0.273419 0)
(0.0854681 0.280813 0)
(0.0772158 0.287627 0)
(0.0683296 0.293784 0)
(0.0588673 0.299212 0)
(0.0488971 0.303845 0)
(0.0384968 0.307626 0)
(0.027752 0.310505 0)
(0.0167519 0.312446 0)
(0.00559954 0.313423 0)
(0.00291645 0.0493101 0)
(0.00874481 0.0495865 0)
(0.0145691 0.05014 0)
(0.0203899 0.0509723 0)
(0.026201 0.0520854 0)
(0.0319989 0.0534824 0)
(0.0377795 0.0551669 0)
(0.043538 0.0571431 0)
(0.0492688 0.059416 0)
(0.0549652 0.0619909 0)
(0.0606196 0.0648739 0)
(0.066223 0.0680712 0)
(0.0717651 0.0715895 0)
(0.0772341 0.0754357 0)
(0.0826163 0.0796167 0)
(0.0878965 0.0841394 0)
(0.0930573 0.0890102 0)
(0.0980795 0.0942355 0)
(0.102942 0.0998207 0)
(0.10762 0.10577 0)
(0.112087 0.112087 0)
(0.116316 0.118773 0)
(0.120274 0.125828 0)
(0.123929 0.133249 0)
(0.127244 0.141031 0)
(0.13018 0.149164 0)
(0.132698 0.157635 0)
(0.134754 0.166427 0)
(0.136306 0.175519 0)
(0.137309 0.184881 0)
(0.137717 0.194482 0)
(0.137488 0.20428 0)
(0.136577 0.214229 0)
(0.134946 0.224275 0)
(0.132557 0.234358 0)
(0.129378 0.244411 0)
(0.125385 0.25436 0)
(0.12056 0.264125 0)
(0.114894 0.273621 0)
(0.108389 0.282761 0)
(0.101057 0.291454 0)
(0.0929238 0.299608 0)
(0.0840264 0.307132 0)
(0.0744157 0.31394 0)
(0.0641553 0.319948 0)
(0.0533209 0.32508 0)
(0.0419996 0.329272 0)
(0.0302879 0.332466 0)
(0.0182872 0.33462 0)
(0.00611362 0.335705 0)
(0.00305745 0.0505327 0)
(0.00916816 0.0508199 0)
(0.015276 0.0513951 0)
(0.0213824 0.0522601 0)
(0.0274818 0.0534173 0)
(0.0335715 0.0548701 0)
(0.0396481 0.0566226 0)
(0.0457075 0.0586797 0)
(0.0517447 0.0610469 0)
(0.0577537 0.0637306 0)
(0.0637273 0.0667376 0)
(0.0696568 0.0700751 0)
(0.0755325 0.0737512 0)
(0.0813424 0.0777738 0)
(0.0870733 0.0821514 0)
(0.0927095 0.0868922 0)
(0.0982337 0.0920045 0)
(0.103626 0.0974963 0)
(0.108863 0.103375 0)
(0.113922 0.109646 0)
(0.118773 0.116316 0)
(0.123387 0.123387 0)
(0.12773 0.130862 0)
(0.131766 0.13874 0)
(0.135456 0.147016 0)
(0.138756 0.155683 0)
(0.141623 0.164729 0)
(0.14401 0.174139 0)
(0.145867 0.183889 0)
(0.147143 0.193953 0)
(0.147788 0.204295 0)
(0.14775 0.214874 0)
(0.14698 0.225639 0)
(0.145429 0.236535 0)
(0.143054 0.247494 0)
(0.139815 0.258444 0)
(0.135682 0.269302 0)
(0.13063 0.279982 0)
(0.124646 0.290388 0)
(0.117728 0.300422 0)
(0.109886 0.309981 0)
(0.101146 0.318962 0)
(0.0915476 0.327261 0)
(0.0811449 0.334779 0)
(0.070008 0.341422 0)
(0.0582214 0.347103 0)
(0.0458826 0.351745 0)
(0.0331006 0.355286 0)
(0.0199907 0.357675 0)
(0.00668413 0.358878 0)
(0.00320368 0.0515783 0)
(0.00960723 0.0518756 0)
(0.0160093 0.052471 0)
(0.0224121 0.0533666 0)
(0.028811 0.0545651 0)
(0.0352042 0.0560702 0)
(0.0415891 0.0578867 0)
(0.0479624 0.0600199 0)
(0.0543197 0.0624764 0)
(0.0606558 0.065263 0)
(0.0669641 0.0683878 0)
(0.0732367 0.0718592 0)
(0.0794638 0.0756862 0)
(0.0856342 0.0798784 0)
(0.0917347 0.0844457 0)
(0.0977496 0.0893981 0)
(0.103661 0.0947456 0)
(0.10945 0.100498 0)
(0.115091 0.106665 0)
(0.120561 0.113254 0)
(0.125828 0.120274 0)
(0.130862 0.12773 0)
(0.135627 0.135627 0)
(0.140082 0.143964 0)
(0.144187 0.152742 0)
(0.147894 0.161953 0)
(0.151154 0.171589 0)
(0.153914 0.181633 0)
(0.15612 0.192065 0)
(0.157714 0.202858 0)
(0.158638 0.213974 0)
(0.158832 0.225372 0)
(0.158238 0.236998 0)
(0.1568 0.248792 0)
(0.154466 0.260681 0)
(0.151187 0.272587 0)
(0.146924 0.28442 0)
(0.141646 0.296081 0)
(0.135334 0.307467 0)
(0.127982 0.318467 0)
(0.119597 0.328964 0)
(0.110204 0.338842 0)
(0.099844 0.347984 0)
(0.0885768 0.356278 0)
(0.0764789 0.363614 0)
(0.0636443 0.369894 0)
(0.0501827 0.37503 0)
(0.0362172 0.37895 0)
(0.0218789 0.381596 0)
(0.00731663 0.382929 0)
(0.00335474 0.0524383 0)
(0.0100609 0.0527448 0)
(0.016767 0.0533588 0)
(0.0234764 0.0542826 0)
(0.0301854 0.0555191 0)
(0.0368931 0.0570726 0)
(0.0435978 0.0589484 0)
(0.0502972 0.0611524 0)
(0.0569878 0.0636919 0)
(0.0636652 0.0665748 0)
(0.0703234 0.0698102 0)
(0.0769552 0.0734076 0)
(0.0835517 0.0773775 0)
(0.0901019 0.0817309 0)
(0.0965929 0.0864794 0)
(0.103009 0.0916348 0)
(0.109334 0.0972091 0)
(0.115545 0.103214 0)
(0.12162 0.109662 0)
(0.127531 0.116564 0)
(0.133249 0.123929 0)
(0.13874 0.131766 0)
(0.143964 0.140082 0)
(0.148881 0.148881 0)
(0.153444 0.158164 0)
(0.157603 0.167927 0)
(0.161303 0.178162 0)
(0.164487 0.188857 0)
(0.167091 0.199991 0)
(0.169052 0.211537 0)
(0.170302 0.223459 0)
(0.170774 0.235712 0)
(0.170399 0.248241 0)
(0.169112 0.260981 0)
(0.166849 0.273855 0)
(0.163554 0.286776 0)
(0.159177 0.299647 0)
(0.153678 0.312359 0)
(0.147031 0.324797 0)
(0.139224 0.336834 0)
(0.130262 0.348344 0)
(0.120167 0.359193 0)
(0.108983 0.369249 0)
(0.096774 0.378383 0)
(0.0836241 0.386473 0)
(0.069638 0.393406 0)
(0.0549389 0.399081 0)
(0.0396662 0.403415 0)
(0.0239694 0.406341 0)
(0.00801701 0.407816 0)
(0.00351022 0.0531043 0)
(0.0105278 0.0534191 0)
(0.017547 0.05405 0)
(0.0245724 0.0549991 0)
(0.0316011 0.0562701 0)
(0.0386335 0.0578675 0)
(0.0456689 0.0597971 0)
(0.0527059 0.0620657 0)
(0.0597422 0.0646812 0)
(0.0667741 0.0676528 0)
(0.0737969 0.0709902 0)
(0.080804 0.0747046 0)
(0.0877871 0.0788078 0)
(0.0947361 0.0833123 0)
(0.101639 0.0882316 0)
(0.108479 0.0935795 0)
(0.115241 0.0993701 0)
(0.121903 0.105618 0)
(0.128441 0.112337 0)
(0.134827 0.119541 0)
(0.141031 0.127244 0)
(0.147016 0.135456 0)
(0.152742 0.144187 0)
(0.158164 0.153444 0)
(0.163232 0.163232 0)
(0.167892 0.17355 0)
(0.172084 0.184393 0)
(0.175743 0.19575 0)
(0.1788 0.207602 0)
(0.181182 0.219923 0)
(0.182813 0.232678 0)
(0.183614 0.245819 0)
(0.183507 0.25929 0)
(0.182414 0.273022 0)
(0.180261 0.286932 0)
(0.176979 0.300927 0)
(0.172507 0.314899 0)
(0.166796 0.328729 0)
(0.159809 0.342288 0)
(0.151529 0.355438 0)
(0.141955 0.368034 0)
(0.131109 0.379928 0)
(0.119035 0.390969 0)