/*--------------------------------*- C++ -*----------------------------------*\
| =========                 |                                                 |
| \\      /  F ield         | OpenFOAM: The Open Source CFD Toolbox           |
|  \\    /   O peration     | Version:  2406                                  |
|   \\  /    A nd           | Website:  www.openfoam.com                      |
|    \\/     M anipulation  |                                                 |
\*---------------------------------------------------------------------------*/
FoamFile
{
    version     2.0;
    format      ascii;
    arch        "LSB;label=32;scalar=64";
    class       volScalarField;
    location    "2.35";
    object      gradTy;
}
// * * * * * * * * * * * * * * * * * * * * * * * * * * * * * * * * * * * * * //

dimensions      [0 -1 0 1 0 0 0];

internalField   nonuniform List<scalar> 
2500
(
0.0146319
0.0147003
0.0148404
0.0150499
0.0153291
0.0156781
0.016097
0.0165858
0.0171446
0.0177734
0.0184719
0.0192401
0.0200775
0.0209836
0.0219578
0.0229993
0.0241068
0.025279
0.0265141
0.0278101
0.0291645
0.0305745
0.0320368
0.0335474
0.0351022
0.0366962
0.0383241
0.0399799
0.0416572
0.0433488
0.0450473
0.0467444
0.0484316
0.0501
0.0517402
0.0533425
0.0548971
0.056394
0.0578234
0.0591753
0.0604401
0.0616087
0.0626721
0.0636224
0.0644521
0.0651548
0.065725
0.0661584
0.0664493
0.0665826
0.0438328
0.0440413
0.0444608
0.0450889
0.0459263
0.0469731
0.0482298
0.0496963
0.0513729
0.0532593
0.0553552
0.05766
0.0601728
0.0628919
0.0658156
0.0689411
0.0722652
0.0757835
0.0794911
0.0833818
0.0874481
0.0916816
0.0960723
0.100609
0.105278
0.110066
0.114955
0.11993
0.124969
0.130051
0.135155
0.140255
0.145326
0.150341
0.155271
0.160088
0.164762
0.169263
0.173561
0.177626
0.18143
0.184945
0.188143
0.191002
0.193497
0.195611
0.197326
0.19863
0.199513
0.199939
0.072929
0.0732787
0.0739767
0.0750232
0.0764189
0.078164
0.0802589
0.082704
0.0854994
0.0886449
0.09214
0.0959838
0.100175
0.10471
0.109588
0.114802
0.120349
0.12622
0.132408
0.138903
0.145691
0.15276
0.160093
0.16767
0.17547
0.18347
0.191641
0.199955
0.208379
0.216878
0.225413
0.233943
0.242427
0.250818
0.259069
0.267132
0.274956
0.282493
0.28969
0.2965
0.302872
0.30876
0.314119
0.318909
0.32309
0.326631
0.329503
0.331684
0.333158
0.333894
0.101879
0.102367
0.103344
0.10481
0.106764
0.109208
0.112143
0.115568
0.119484
0.123892
0.128789
0.134176
0.14005
0.146408
0.153246
0.160559
0.168338
0.176574
0.185256
0.19437
0.203899
0.213824
0.224121
0.234764
0.245724
0.256966
0.268452
0.280143
0.291991
0.303947
0.315958
0.327966
0.33991
0.351728
0.363351
0.374713
0.385741
0.396366
0.406516
0.41612
0.425109
0.433417
0.44098
0.44774
0.453642
0.45864
0.462691
0.465764
0.46783
0.468867
0.130584
0.131212
0.132468
0.134353
0.136867
0.140011
0.143786
0.148193
0.153233
0.158905
0.165209
0.172144
0.179707
0.187896
0.196704
0.206125
0.21615
0.226767
0.237962
0.249717
0.26201
0.274818
0.28811
0.301854
0.316011
0.330538
0.345387
0.360504
0.37583
0.391302
0.40685
0.4224
0.437874
0.453189
0.468258
0.482992
0.497299
0.511087
0.524262
0.536733
0.548408
0.559202
0.56903
0.577815
0.585488
0.591984
0.59725
0.601241
0.603923
0.605269
0.158973
0.159741
0.161276
0.163581
0.166655
0.1705
0.175118
0.180509
0.186674
0.193615
0.20133
0.209819
0.21908
0.229108
0.239898
0.251442
0.26373
0.276748
0.290478
0.3049
0.319989
0.335715
0.352042
0.368931
0.386335
0.404201
0.422471
0.441079
0.459954
0.479016
0.498181
0.517358
0.53645
0.555353
0.573961
0.592164
0.609847
0.626895
0.643192
0.658624
0.673076
0.686441
0.698614
0.709498
0.719005
0.727056
0.733583
0.738529
0.741851
0.743519
0.186973
0.187881
0.189696
0.192421
0.196056
0.200603
0.206065
0.212442
0.219736
0.227949
0.237081
0.247131
0.258098
0.269977
0.282763
0.296447
0.311017
0.326459
0.342752
0.359874
0.377795
0.396481
0.415891
0.435978
0.456689
0.47796
0.499724
0.521903
0.544411
0.567156
0.590037
0.612944
0.635762
0.658367
0.680632
0.702422
0.723602
0.744031
0.76357
0.782079
0.799421
0.815464
0.830082
0.843157
0.85458
0.864255
0.872099
0.878045
0.882038
0.884044
0.214511
0.215558
0.217654
0.220799
0.224995
0.230245
0.236552
0.243917
0.252343
0.261833
0.272387
0.284006
0.296689
0.310431
0.325228
0.34107
0.357945
0.375837
0.394726
0.414584
0.43538
0.457075
0.479624
0.502972
0.527059
0.551814
0.577157
0.603
0.629244
0.655781
0.682494
0.709255
0.735929
0.762372
0.788433
0.813955
0.838776
0.862733
0.885657
0.907385
0.927754
0.946605
0.963789
0.979165
0.992603
1.00399
1.01322
1.02022
1.02492
1.02728
0.241509
0.242697
0.245072
0.248638
0.253396
0.259349
0.266502
0.274857
0.284418
0.295188
0.307171
0.320366
0.334774
0.350393
0.367216
0.385237
0.404442
0.424815
0.446333
0.468969
0.492688
0.517447
0.543197
0.569878
0.597422
0.625749
0.65477
0.684385
0.714483
0.744939
0.775619
0.806379
0.837061
0.8675
0.897522
0.926944
0.955579
0.983234
1.00972
1.03483
1.05839
1.0802
1.1001
1.1179
1.13347
1.14667
1.15737
1.16549
1.17094
1.17368
0.267891
0.269218
0.271873
0.275859
0.281178
0.287835
0.295834
0.30518
0.315878
0.327933
0.341348
0.356127
0.372271
0.389779
0.408647
0.428867
0.450428
0.473313
0.497499
0.522958
0.549652
0.577537
0.606558
0.636652
0.667741
0.699741
0.732552
0.766062
0.800146
0.834665
0.869469
0.904392
0.939257
0.973876
1.00805
1.04157
1.07421
1.10577
1.136
1.1647
1.19164
1.21659
1.23937
1.25976
1.2776
1.29273
1.305
1.31431
1.32057
1.32371
0.293575
0.295042
0.297976
0.302381
0.30826
0.31562
0.324465
0.334802
0.346638
0.35998
0.374833
0.391203
0.409092
0.428502
0.44943
0.471872
0.495815
0.521246
0.54814
0.57647
0.606196
0.637273
0.669641
0.703234
0.737969
0.773753
0.810476
0.848017
0.886237
0.924982
0.964084
1.00336
1.04261
1.08161
1.12015
1.15799
1.19487
1.23056
1.26478
1.29728
1.32782
1.35613
1.38198
1.40514
1.42541
1.44261
1.45656
1.46715
1.47427
1.47784
0.31848
0.320086
0.323298
0.328121
0.334559
0.342619
0.352309
0.363636
0.37661
0.39124
0.407533
0.425498
0.445141
0.466465
0.489471
0.514154
0.540508
0.568517
0.598162
0.629412
0.66223
0.696568
0.732367
0.769552
0.80804
0.847728
0.8885
0.930222
0.972743
1.01589
1.05949
1.10332
1.14718
1.1908
1.23396
1.27637
1.31775
1.35782
1.39629
1.43286
1.46724
1.49915
1.5283
1.55444
1.57732
1.59675
1.61252
1.62449
1.63253
1.63658
0.342522
0.344266
0.347754
0.352992
0.359987
0.368744
0.379275
0.39159
0.4057
0.421617
0.439352
0.458916
0.480319
0.503566
0.528663
0.555609
0.584399
0.615021
0.647457
0.681679
0.717651
0.755325
0.794638
0.835517
0.877871
0.921594
0.966561
1.01263
1.05963
1.10739
1.15569
1.20432
1.25302
1.30154
1.34958
1.39684
1.44301
1.48778
1.53079
1.57172
1.61023
1.646
1.67871
1.70806
1.73378
1.75562
1.77335
1.78682
1.79587
1.80042
0.365615
0.367495
0.371258
0.376908
0.384454
0.393905
0.405272
0.41857
0.433811
0.451012
0.470187
0.49135
0.514516
0.539695
0.566895
0.596121
0.627371
0.660638
0.695907
0.733152
0.772341
0.813424
0.856342
0.901019
0.947361
0.995257
1.04458
1.09516
1.14685
1.19942
1.25267
1.30635
1.36018
1.41386
1.4671
1.51953
1.57083
1.62061
1.6685
1.71412
1.75709
1.79704
1.8336
1.86643
1.89522
1.91968
1.93955
1.95465
1.9648
1.96991
0.387669
0.389685
0.393719
0.399777
0.407869
0.418007
0.430204
0.444476
0.460842
0.47932
0.49993
0.52269
0.547619
0.574733
0.604045
0.635565
0.669297
0.705238
0.743378
0.783696
0.826163
0.870733
0.917347
0.965929
1.01639
1.0686
1.12244
1.17773
1.23431
1.29194
1.35039
1.40939
1.46864
1.52782
1.58659
1.64455
1.70132
1.75649
1.80964
1.86032
1.90811
1.95259
1.99333
2.02995
2.06208
2.0894
2.11161
2.12849
2.13985
2.14555
0.408597
0.410746
0.415046
0.421507
0.430138
0.440953
0.45397
0.469207
0.486687
0.506433
0.528468
0.552818
0.579505
0.608553
0.639981
0.673805
0.710035
0.748675
0.789722
0.83316
0.878965
0.927095
0.977496
1.03009
1.08479
1.14148
1.20001
1.26021
1.3219
1.38483
1.44876
1.51339
1.57839
1.64342
1.70808
1.77196
1.83461
1.89559
1.9544
2.01056
2.06358
2.11297
2.15827
2.19902
2.23481
2.26525
2.29003
2.30885
2.32153
2.3279
0.428305
0.430585
0.435148
0.442003
0.451163
0.462645
0.476468
0.492657
0.511236
0.532235
0.555682
0.581608
0.610045
0.64102
0.674562
0.710693
0.749432
0.790792
0.834775
0.881375
0.930573
0.982337
1.03661
1.09334
1.15241
1.21372
1.27712
1.34244
1.40947
1.47798
1.54767
1.61825
1.68936
1.76061
1.83157
1.90179
1.97077
2.038
2.10294
2.16504
2.22374
2.27849
2.32876
2.37403
2.41382
2.44769
2.47527
2.49625
2.51037
2.51747
0.446703
0.44911
0.453929
0.46117
0.470848
0.482982
0.497595
0.514717
0.534376
0.556608
0.581447
0.608933
0.639101
0.671991
0.707637
0.746072
0.787324
0.831414
0.878356
0.928153
0.980795
1.03626
1.0945
1.15545
1.21903
1.28512
1.35358
1.42423
1.49685
1.5712
1.64698
1.72385
1.80144
1.87931
1.95701
2.03403
2.10982
2.1838
2.25538
2.32392
2.38881
2.44941
2.50511
2.55532
2.5995
2.63714
2.6678
2.69114
2.70685
2.71476
0.463697
0.466228
0.471295
0.47891
0.489091
0.50186
0.517244
0.535275
0.55599
0.579429
0.605635
0.634653
0.66653
0.701312
0.739044
0.779771
0.82353
0.870354
0.920269
0.973289
1.02942
1.08863
1.15091
1.2162
1.28441
1.35543
1.42913
1.50532
1.58379
1.66427
1.74646
1.82999
1.91445
1.99939
2.0843
2.16861
2.25173
2.33301
2.41177
2.48731
2.55893
2.62591
2.68755
2.74319
2.79218
2.83396
2.86802
2.89395
2.91143
2.92022
0.479193
0.481844
0.48715
0.495127
0.505793
0.519175
0.535305
0.554218
0.575959
0.600573
0.628112
0.658629
0.692181
0.728824
0.768615
0.811609
0.857858
0.907407
0.960297
1.01655
1.0762
1.13922
1.20561
1.27531
1.34827
1.42438
1.5035
1.58545
1.67002
1.75692
1.84585
1.93641
2.02817
2.12064
2.21325
2.30539
2.39639
2.48554
2.57209
2.65524
2.73419
2.80813
2.87627
2.93784
2.99212
3.03845
3.07626
3.10505
3.12446
3.13423
0.493101
0.495865
0.5014
0.509723
0.520854
0.534824
0.551669
0.571431
0.59416
0.619909
0.648739
0.680712
0.715895
0.754357
0.796167
0.841394
0.890102
0.942355
0.998207
1.0577
1.12087
1.18773
1.25828
1.33249
1.41031
1.49164
1.57635
1.66427
1.75519
1.84881
1.94482
2.0428
2.14229
2.24275
2.34358
2.44411
2.5436
2.64125
2.73621
2.82761
2.91454
2.99608
3.07132
3.1394
3.19948
3.2508
3.29272
3.32466
3.3462
3.35705
0.505327
0.508199
0.513951
0.522601
0.534173
0.548701
0.566226
0.586797
0.610469
0.637306
0.667376
0.700751
0.737512
0.777738
0.821514
0.868922
0.920045
0.974963
1.03375
1.09646
1.16316
1.23387
1.30862
1.3874
1.47016
1.55683
1.64729
1.74139
1.83889
1.93953
2.04295
2.14874
2.25639
2.36535
2.47494
2.58444
2.69302
2.79982
2.90388
3.00422
3.09981
3.18962
3.27261
3.34779
3.41422
3.47103
3.51745
3.55286
3.57675
3.58878
0.515783
0.518756
0.52471
0.533666
0.545651
0.560702
0.578867
0.600199
0.624764
0.65263
0.683878
0.718592
0.756862
0.798784
0.844457
0.893981
0.947456
1.00498
1.06665
1.13254
1.20274
1.2773
1.35627
1.43964
1.52742
1.61953
1.71589
1.81633
1.92065
2.02858
2.13974
2.25372
2.36998
2.48792
2.60681
2.72587
2.8442
2.96081
3.07467
3.18467
3.28964
3.38842
3.47984
3.56278
3.63614
3.69894
3.7503
3.7895
3.81596
3.82929
0.524383
0.527448
0.533588
0.542826
0.555191
0.570726
0.589484
0.611524
0.636919
0.665748
0.698102
0.734076
0.773775
0.817309
0.864794
0.916348
0.972091
1.03214
1.09662
1.16564
1.23929
1.31766
1.40082
1.48881
1.58164
1.67927
1.78162
1.88857
1.99991
2.11537
2.23459
2.35712
2.48241
2.60981
2.73855
2.86776
2.99647
3.12359
3.24797
3.36834
3.48344
3.59193
3.69249
3.78383
3.86473
3.93406
3.99081
4.03415
4.06341
4.07816
0.531043
0.534191
0.5405
0.549991
0.562701
0.578675
0.597971
0.620657
0.646812
0.676528
0.709902
0.747046
0.788078
0.833123
0.882316
0.935795
0.993701
1.05618
1.12337
1.19541
1.27244
1.35456
1.44187
1.53444
1.63232
1.7355
1.84393
1.9575
2.07602
2.19923
2.32678
2.45819
2.5929
2.73022
2.86932
3.00927
3.14899
3.28729
3.42288
3.55438
3.68034
3.79928
3.90969
4.01013
4.09919
4.17558
4.23818
4.28601
4.31832
4.33461
0.535685
0.538907
0.545362
0.555078
0.568091
0.584453
0.604227
0.627489
0.654325
0.684837
0.719136
0.757344
0.799596
0.846034
0.89681
0.952086
1.01203
1.0768
1.14657
1.22152
1.3018
1.38756
1.47894
1.57603
1.67892
1.78764
1.90217
2.02242
2.14824
2.27937
2.41546
2.55604
2.70052
2.84817
2.99811
3.14932
3.30064
3.45077
3.59826
3.7416
3.87915
4.00925
4.13022
4.24042
4.33825
4.42226
4.49114
4.54382
4.57943
4.59738
0.538237
0.541521
0.548101
0.558006
0.571278
0.587972
0.608156
0.631914
0.659343
0.690551
0.725663
0.764815
0.808157
0.855849
0.908064
0.964983
1.0268
1.09371
1.1659
1.2436
1.32698
1.41623
1.51154
1.61303
1.72084
1.83503
1.95562
2.08256
2.21572
2.35486
2.49965
2.64962
2.80414
2.96246
3.12365
3.2866
3.45005
3.61258
3.77261
3.92843
4.07825
4.2202
4.3524
4.47298
4.58017
4.67231
4.74793
4.80579
4.84492
4.86466
0.538633
0.541967
0.548647
0.558705
0.572185
0.589148
0.609668
0.633835
0.661755
0.693548
0.729348
0.769308
0.813592
0.862379
0.915862
0.974247
1.03775
1.1066
1.18102
1.26126
1.34754
1.4401
1.53914
1.64487
1.75743
1.87696
2.0035
2.13705
2.27752
2.42469
2.57824
2.73771
2.90246
3.07169
3.24443
3.41949
3.59551
3.77093
3.94402
4.11291
4.27559
4.42999
4.57401
4.70555
4.82263
4.92337
5.00612
5.06948
5.11235
5.13398
0.536817
0.540186
0.546939
0.557108
0.570743
0.587907
0.60868
0.63316
0.661461
0.693714
0.730065
0.770679
0.815738
0.865439
0.919998
0.979642
1.04462
1.11518
1.19159
1.27413
1.36306
1.45867
1.5612
1.67091
1.788
1.91264
2.04495
2.18495
2.33258
2.48769
2.64995
2.81892
2.99396
3.17423
3.35869
3.5461
3.73499
3.92365
4.1102
4.29259
4.4686
4.63594
4.79226
4.93524
5.06264
5.17238
5.2626
5.33172
5.37851
5.40213
0.532739
0.536129
0.542926
0.553163
0.566892
0.584183
0.60512
0.629808
0.65837
0.690945
0.727693
0.768793
0.814441
0.864854
0.920268
0.980936
1.04713
1.11914
1.19726
1.2818
1.37309
1.47143
1.57714
1.69052
1.81182
1.94127
2.07904
2.22521
2.37977
2.54258
2.71337
2.8917
3.07692
3.26817
3.46438
3.6642
3.86607
4.06814
4.26839
4.46454
4.65418
4.83477
5.00373
5.15847
5.29652
5.41555
5.51348
5.58855
5.63939
5.66506
0.526362
0.529757
0.536566
0.546823
0.560584
0.577922
0.598926
0.623709
0.6524
0.685149
0.722127
0.763525
0.809557
0.860457
0.916481
0.977908
1.04504
1.11818
1.19769
1.2839
1.37717
1.47788
1.58638
1.70302
1.82813
1.96198
2.1048
2.25673
2.41782
2.58797
2.76694
2.9543
3.14942
3.35142
3.55916
3.77124
3.98598
4.20142
4.41534
4.62529
4.82863
5.02259
5.20431
5.37096
5.51979
5.64824
5.75401
5.83514
5.89011
5.91787
0.517658
0.521043
0.527829
0.538057
0.551782
0.569081
0.59005
0.614806
0.643485
0.676247
0.713274
0.754768
0.800959
0.852098
0.908463
0.970353
1.0381
1.11204
1.19256
1.28003
1.37488
1.4775
1.58832
1.70774
1.83614
1.97387
2.1212
2.27836
2.44542
2.62236
2.80897
3.00484
3.20935
3.4216
3.64042
3.86435
4.09159
4.32005
4.54736
4.77086
4.9877
5.19485
5.38921
5.56768
5.72723
5.86506
5.97864
6.06581
6.12489
6.15474
0.506614
0.50997
0.516699
0.526844
0.540461
0.557632
0.578456
0.603055
0.631573
0.664177
0.701057
0.74243
0.788537
0.839646
0.896054
0.958082
1.02608
1.10044
1.18155
1.26984
1.36577
1.4698
1.58238
1.70399
1.83507
1.97602
2.1272
2.28887
2.46119
2.64417
2.83766
3.04128
3.25442
3.47618
3.70534
3.94038
4.17942
4.42025
4.66031
4.89679
5.12659
5.34645
5.55301
5.7429
5.91285
6.05979
6.18096
6.27401
6.3371
6.36898
0.493228
0.496536
0.503173
0.513178
0.526614
0.543562
0.564126
0.588432
0.61663
0.648893
0.685421
0.726439
0.772202
0.822992
0.879121
0.940934
1.00881
1.08314
1.16439
1.25299
1.34946
1.45429
1.568
1.69112
1.82414
1.96754
2.12173
2.28705
2.46371
2.65178
2.85117
3.06152
3.28224
3.51244
3.75088
3.99597
4.24575
4.49789
4.7497
4.99817
5.24
5.47171
5.68968
5.89029
6.07001
6.22552
6.35384
6.45244
6.51931
6.55312
0.477513
0.480756
0.48726
0.497069
0.510245
0.526872
0.547056
0.570928
0.598639
0.630371
0.666329
0.706748
0.75189
0.802051
0.857559
0.918776
0.986098
1.05996
1.14082
1.22918
1.32557
1.43054
1.54466
1.66849
1.80261
1.94754
2.10377
2.27168
2.45157
2.64356
2.84759
3.06338
3.29034
3.52759
3.77387
4.02756
4.28662
4.54862
4.81073
5.06979
5.32231
5.56458
5.79276
6.00299
6.19151
6.35476
6.48955
6.59317
6.66347
6.69902
0.459498
0.462655
0.468989
0.478543
0.491379
0.507584
0.527265
0.550554
0.577608
0.608611
0.643772
0.683333
0.727565
0.776773
0.831296
0.891511
0.957831
1.03071
1.11064
1.19814
1.29378
1.39815
1.51187
1.63554
1.76979
1.9152
2.07232
2.24161
2.4234
2.6179
2.82509
3.04472
3.27625
3.5188
3.77112
4.03155
4.298
4.56795
4.83848
5.10625
5.36763
5.61872
5.85548
6.07383
6.2698
6.43963
6.57994
6.68784
6.76107
6.79812
0.439227
0.442279
0.448402
0.45764
0.470056
0.485735
0.504787
0.527344
0.553565
0.583634
0.617765
0.656203
0.699224
0.747139
0.800296
0.859083
0.923925
0.995293
1.0737
1.15969
1.25385
1.35682
1.46924
1.59177
1.72507
1.86979
2.02651
2.19577
2.37795
2.57331
2.78189
3.00349
3.2376
3.48336
3.73952
4.00442
4.27592
4.55146
4.82801
5.10214
5.37007
5.62777
5.87102
6.09556
6.29725
6.47215
6.61673
6.72796
6.80348
6.8417
0.41676
0.419687
0.425559
0.434421
0.446334
0.461384
0.479679
0.501352
0.52656
0.555489
0.588352
0.625395
0.666896
0.713169
0.764567
0.821482
0.88435
0.95365
1.02991
1.11369
1.2056
1.3063
1.41646
1.53678
1.66796
1.81067
1.96558
2.13323
2.31409
2.50845
2.71641
2.93781
3.17218
3.4187
3.67613
3.94282
4.21661
4.4949
4.77462
5.05226
5.32396
5.58557
5.83275
6.06112
6.26639
6.44452
6.59184
6.70523
6.78223
6.82121
0.392174
0.394955
0.400537
0.408962
0.420291
0.434608
0.45202
0.472656
0.496673
0.524252
0.555607
0.59098
0.630648
0.674924
0.72416
0.77875
0.839132
0.905789
0.97925
1.06009
1.14894
1.24646
1.35334
1.47031
1.59809
1.73741
1.88893
2.05326
2.2309
2.4222
2.6273
2.84607
3.07811
3.32261
3.57839
3.84379
4.11668
4.39446
4.67404
4.95189
5.2241
5.48645
5.73457
5.96399
6.17035
6.34952
6.49777
6.61191
6.68945
6.7287
0.365561
0.368178
0.37343
0.381359
0.392024
0.405505
0.421907
0.441357
0.464004
0.490028
0.519636
0.553065
0.590587
0.632509
0.679179
0.730985
0.788361
0.851787
0.921791
0.998951
1.08389
1.17728
1.27982
1.39224
1.51529
1.64971
1.79618
1.95535
2.12774
2.31375
2.51354
2.72704
2.95388
3.19331
3.44418
3.70488
3.97333
4.24695
4.52268
4.797
5.06604
5.32558
5.57123
5.79854
6.00313
6.18085
6.32797
6.44127
6.51825
6.55724
0.337031
0.339465
0.34435
0.351725
0.361647
0.374194
0.389464
0.407579
0.428684
0.45295
0.480577
0.511792
0.546859
0.586075
0.629777
0.678342
0.732193
0.791799
0.857678
0.930398
1.01057
1.09886
1.19597
1.30262
1.41955
1.54751
1.68721
1.83928
2.00429
2.18263
2.37452
2.57993
2.79851
3.02959
3.27206
3.52437
3.78453
4.05001
4.31783
4.58457
4.84641
5.09922
5.33867
5.56039
5.76006
5.9336
6.0773
6.18801
6.26324
6.30135
0.306711
0.308943
0.313424
0.32019
0.329295
0.340812
0.354833
0.371472
0.390868
0.413181
0.438599
0.46734
0.499652
0.535819
0.57616
0.621037
0.670853
0.726059
0.787153
0.854681
0.929238
1.01146
1.10204
1.20167
1.31109
1.43102
1.56216
1.70517
1.86058
2.02882
2.21013
2.4045
2.61164
2.83092
3.06132
3.30138
3.54917
3.80232
4.05796
4.31279
4.56315
4.80506
5.03435
5.24677
5.43817
5.60458
5.74243
5.84866
5.92086
5.95744
0.27474
0.276754
0.280797
0.286902
0.29512
0.305516
0.318177
0.333208
0.350736
0.370911
0.393906
0.419924
0.449196
0.481985
0.51859
0.559348
0.604639
0.654884
0.710552
0.772158
0.840264
0.915476
0.99844
1.08983
1.19035
1.30068
1.42151
1.55346
1.69707
1.85276
2.02077
2.20113
2.3936
2.59759
2.81218
3.03601
3.26729
3.5038
3.74284
3.98133
4.2158
4.44251
4.65752
4.85681
5.03646
5.19271
5.32219
5.42198
5.48982
5.5242
0.241274
0.243054
0.246628
0.252025
0.25929
0.268483
0.279682
0.292981
0.308495
0.326359
0.346732
0.369795
0.395759
0.424863
0.45738
0.493616
0.533918
0.578672
0.628307
0.683296
0.744157
0.811449
0.885768
0.96774
1.05801
1.15723
1.26603
1.385
1.51465
1.65539
1.80745
1.97087
2.14546
2.33072
2.52579
2.72946
2.94011
3.15569
3.37376
3.59147
3.80565
4.01286
4.20947
4.3918
4.55621
4.69926
4.81783
4.90923
4.97137
5.00287
0.206483
0.208015
0.211092
0.215738
0.221992
0.229907
0.23955
0.251005
0.264372
0.279771
0.297339
0.317237
0.339651
0.36479
0.392896
0.424239
0.459127
0.497901
0.540943
0.588673
0.641553
0.70008
0.764789
0.836241
0.915015
1.0017
1.09685
1.20102
1.31467
1.43817
1.57175
1.71546
1.86913
2.03235
2.20436
2.38411
2.57015
2.7607
2.95356
3.14622
3.33587
3.51943
3.69367
3.85532
4.00114
4.12804
4.23324
4.31435
4.3695
4.39746
0.170547
0.171819
0.174375
0.178232
0.183424
0.189995
0.198001
0.207515
0.218619
0.231414
0.246018
0.262566
0.281214
0.302141
0.32555
0.351672
0.380768
0.413127
0.449075
0.488971
0.533209
0.582214
0.636443
0.69638
0.76252
0.835369
0.915419
1.00313
1.09892
1.20309
1.31587
1.43731
1.56728
1.70542
1.85111
2.00346
2.16125
2.32294
2.4867
2.65037
2.81154
2.9676
3.1158
3.25333
3.37742
3.48544
3.575
3.64406
3.69102
3.71484
0.133656
0.13466
0.136676
0.139713
0.143799
0.14897
0.155272
0.16276
0.171503
0.18158
0.193084
0.206124
0.220825
0.237328
0.255799
0.27642
0.2994
0.324973
0.353399
0.384968
0.419996
0.458826
0.501827
0.549389
0.601914
0.659811
0.723479
0.793294
0.86959
0.952633
1.0426
1.13953
1.24334
1.35375
1.47026
1.59216
1.71847
1.84797
1.97918
2.11037
2.23961
2.36479
2.48369
2.59406
2.69366
2.78037
2.85228
2.90774
2.94545
2.96459
0.0960121
0.0967364
0.0981988
0.100391
0.103337
0.107064
0.111605
0.117003
0.123305
0.130571
0.138867
0.148274
0.158881
0.170794
0.18413
0.199025
0.21563
0.234117
0.254677
0.27752
0.302879
0.331006
0.362172
0.396662
0.434772
0.476805
0.523053
0.573796
0.629279
0.689702
0.755194
0.825797
0.901444
0.981933
1.06691
1.15585
1.24805
1.34261
1.43844
1.53428
1.62873
1.72022
1.80715
1.88785
1.96069
2.02411
2.07671
2.11728
2.14488
2.1589
0.0578217
0.0582458
0.0591309
0.0604555
0.0622341
0.0644836
0.0672247
0.0704827
0.0742873
0.0786738
0.0836836
0.0893647
0.0957722
0.10297
0.111029
0.120033
0.130073
0.141255
0.153694
0.167519
0.182872
0.199907
0.218789
0.239694
0.262802
0.288298
0.316362
0.347166
0.38086
0.417568
0.457371
0.500295
0.546302
0.595269
0.646983
0.701126
0.757266
0.814858
0.87324
0.931644
0.989204
1.04498
1.09798
1.14719
1.19162
1.2303
1.26239
1.28715
1.30401
1.31263
0.0193082
0.0194415
0.0197349
0.0201775
0.020772
0.0215241
0.0224405
0.0235297
0.0248016
0.0262683
0.0279435
0.0298433
0.0319862
0.0343936
0.0370896
0.0401019
0.0434616
0.0472036
0.0513671
0.0559954
0.0611362
0.0668413
0.0731663
0.0801701
0.0879139
0.0964597
0.105869
0.116198
0.1275
0.139814
0.15317
0.167577
0.183022
0.199463
0.216831
0.235018
0.253879
0.273232
0.292854
0.312487
0.331839
0.350595
0.36842
0.384973
0.399919
0.412937
0.423738
0.432075
0.43776
0.440695
)
;

boundaryField
{
    walls
    {
        type            calculated;
        value           nonuniform List<scalar> 
200
(
0
0
0
0
0
0
0
0
0
0
0
0
0
0
0
0
0
0
0
0
0
0
0
0
0
0
0
0
0
0
0
0
0
0
0
0
0
0
0
0
0
0
0
0
0
0
0
0
0
0
0.0146319
0.0438328
0.072929
0.101879
0.130584
0.158973
0.186973
0.214511
0.241509
0.267891
0.293575
0.31848
0.342522
0.365615
0.387669
0.408597
0.428305
0.446703
0.463697
0.479193
0.493101
0.505327
0.515783
0.524383
0.531043
0.535685
0.538237
0.538633
0.536817
0.532739
0.526362
0.517658
0.506614
0.493228
0.477513
0.459498
0.439227
0.41676
0.392174
0.365561
0.337031
0.306711
0.27474
0.241274
0.206483
0.170547
0.133656
0.0960121
0.0578217
0.0193082
0.0665826
0.199939
0.333894
0.468867
0.605269
0.743519
0.884044
1.02728
1.17368
1.32371
1.47784
1.63658
1.80042
1.96991
2.14555
2.3279
2.51747
2.71476
2.92022
3.13423
3.35705
3.58878
3.82929
4.07816
4.33461
4.59738
4.86466
5.13398
5.40213
5.66506
5.91787
6.15474
6.36898
6.55312
6.69902
6.79812
6.8417
6.82121
6.7287
6.55724
6.30135
5.95744
5.5242
5.00287
4.39746
3.71484
2.96459
2.1589
1.31263
0.440695
0
0
0
0
0
0
0
0
0
0
0
0
0
0
0
0
0
0
0
0
0
0
0
0
0
0
0
0
0
0
0
0
0
0
0
0
0
0
0
0
0
0
0
0
0
0
0
0
0
0
)
;
    }
    frontAndBack
    {
        type            empty;
    }
}


// ************************************************************************* //
