/*--------------------------------*- C++ -*----------------------------------*\
| =========                 |                                                 |
| \\      /  F ield         | OpenFOAM: The Open Source CFD Toolbox           |
|  \\    /   O peration     | Version:  2406                                  |
|   \\  /    A nd           | Website:  www.openfoam.com                      |
|    \\/     M anipulation  |                                                 |
\*---------------------------------------------------------------------------*/
FoamFile
{
    version     2.0;
    format      ascii;
    arch        "LSB;label=32;scalar=64";
    class       volScalarField;
    location    "2.35";
    object      gradTx;
}
// * * * * * * * * * * * * * * * * * * * * * * * * * * * * * * * * * * * * * //

dimensions      [0 -1 0 1 0 0 0];

internalField   nonuniform List<scalar> 
2500
(
0.0146319
0.0438328
0.072929
0.101879
0.130584
0.158973
0.186973
0.214511
0.241509
0.267891
0.293575
0.31848
0.342522
0.365615
0.387669
0.408597
0.428305
0.446703
0.463697
0.479193
0.493101
0.505327
0.515783
0.524383
0.531043
0.535685
0.538237
0.538633
0.536817
0.532739
0.526362
0.517658
0.506614
0.493228
0.477513
0.459498
0.439227
0.41676
0.392174
0.365561
0.337031
0.306711
0.27474
0.241274
0.206483
0.170547
0.133656
0.0960121
0.0578217
0.0193082
0.0147003
0.0440413
0.0732787
0.102367
0.131212
0.159741
0.187881
0.215558
0.242697
0.269218
0.295042
0.320086
0.344266
0.367495
0.389685
0.410746
0.430585
0.44911
0.466228
0.481844
0.495865
0.508199
0.518756
0.527448
0.534191
0.538907
0.541521
0.541967
0.540186
0.536129
0.529757
0.521043
0.50997
0.496536
0.480756
0.462655
0.442279
0.419687
0.394955
0.368178
0.339465
0.308943
0.276754
0.243054
0.208015
0.171819
0.13466
0.0967364
0.0582458
0.0194415
0.0148404
0.0444608
0.0739767
0.103344
0.132468
0.161276
0.189696
0.217654
0.245072
0.271873
0.297976
0.323298
0.347754
0.371258
0.393719
0.415046
0.435148
0.453929
0.471295
0.48715
0.5014
0.513951
0.52471
0.533588
0.5405
0.545362
0.548101
0.548647
0.546939
0.542926
0.536566
0.527829
0.516699
0.503173
0.48726
0.468989
0.448402
0.425559
0.400537
0.37343
0.34435
0.313424
0.280797
0.246628
0.211092
0.174375
0.136676
0.0981988
0.0591309
0.0197349
0.0150499
0.0450889
0.0750232
0.10481
0.134353
0.163581
0.192421
0.220799
0.248638
0.275859
0.302381
0.328121
0.352992
0.376908
0.399777
0.421507
0.442003
0.46117
0.47891
0.495127
0.509723
0.522601
0.533666
0.542826
0.549991
0.555078
0.558006
0.558705
0.557108
0.553163
0.546823
0.538057
0.526844
0.513178
0.497069
0.478543
0.45764
0.434421
0.408962
0.381359
0.351725
0.32019
0.286902
0.252025
0.215738
0.178232
0.139713
0.100391
0.0604555
0.0201775
0.0153291
0.0459263
0.0764189
0.106764
0.136867
0.166655
0.196056
0.224995
0.253396
0.281178
0.30826
0.334559
0.359987
0.384454
0.407869
0.430138
0.451163
0.470848
0.489091
0.505793
0.520854
0.534173
0.545651
0.555191
0.562701
0.568091
0.571278
0.572185
0.570743
0.566892
0.560584
0.551782
0.540461
0.526614
0.510245
0.491379
0.470056
0.446334
0.420291
0.392024
0.361647
0.329295
0.29512
0.25929
0.221992
0.183424
0.143799
0.103337
0.0622341
0.020772
0.0156781
0.0469731
0.078164
0.109208
0.140011
0.1705
0.200603
0.230245
0.259349
0.287835
0.31562
0.342619
0.368744
0.393905
0.418007
0.440953
0.462645
0.482982
0.50186
0.519175
0.534824
0.548701
0.560702
0.570726
0.578675
0.584453
0.587972
0.589148
0.587907
0.584183
0.577922
0.569081
0.557632
0.543562
0.526872
0.507584
0.485735
0.461384
0.434608
0.405505
0.374194
0.340812
0.305516
0.268483
0.229907
0.189995
0.14897
0.107064
0.0644836
0.0215241
0.016097
0.0482298
0.0802589
0.112143
0.143786
0.175118
0.206065
0.236552
0.266502
0.295834
0.324465
0.352309
0.379275
0.405272
0.430204
0.45397
0.476468
0.497595
0.517244
0.535305
0.551669
0.566226
0.578867
0.589484
0.597971
0.604227
0.608156
0.609668
0.60868
0.60512
0.598926
0.59005
0.578456
0.564126
0.547056
0.527265
0.504787
0.479679
0.45202
0.421907
0.389464
0.354833
0.318177
0.279682
0.23955
0.198001
0.155272
0.111605
0.0672247
0.0224405
0.0165858
0.0496963
0.082704
0.115568
0.148193
0.180509
0.212442
0.243917
0.274857
0.30518
0.334802
0.363636
0.39159
0.41857
0.444476
0.469207
0.492657
0.514717
0.535275
0.554218
0.571431
0.586797
0.600199
0.611524
0.620657
0.627489
0.631914
0.633835
0.63316
0.629808
0.623709
0.614806
0.603055
0.588432
0.570928
0.550554
0.527344
0.501352
0.472656
0.441357
0.407579
0.371472
0.333208
0.292981
0.251005
0.207515
0.16276
0.117003
0.0704827
0.0235297
0.0171446
0.0513729
0.0854994
0.119484
0.153233
0.186674
0.219736
0.252343
0.284418
0.315878
0.346638
0.37661
0.4057
0.433811
0.460842
0.486687
0.511236
0.534376
0.55599
0.575959
0.59416
0.610469
0.624764
0.636919
0.646812
0.654325
0.659343
0.661755
0.661461
0.65837
0.6524
0.643485
0.631573
0.61663
0.598639
0.577608
0.553565
0.52656
0.496673
0.464004
0.428684
0.390868
0.350736
0.308495
0.264372
0.218619
0.171503
0.123305
0.0742873
0.0248016
0.0177734
0.0532593
0.0886449
0.123892
0.158905
0.193615
0.227949
0.261833
0.295188
0.327933
0.35998
0.39124
0.421617
0.451012
0.47932
0.506433
0.532235
0.556608
0.579429
0.600573
0.619909
0.637306
0.65263
0.665748
0.676528
0.684837
0.690551
0.693548
0.693714
0.690945
0.685149
0.676247
0.664177
0.648893
0.630371
0.608611
0.583634
0.555489
0.524252
0.490028
0.45295
0.413181
0.370911
0.326359
0.279771
0.231414
0.18158
0.130571
0.0786738
0.0262683
0.0184719
0.0553552
0.09214
0.128789
0.165209
0.20133
0.237081
0.272387
0.307171
0.341348
0.374833
0.407533
0.439352
0.470187
0.49993
0.528468
0.555682
0.581447
0.605635
0.628112
0.648739
0.667376
0.683878
0.698102
0.709902
0.719136
0.725663
0.729348
0.730065
0.727693
0.722127
0.713274
0.701057
0.685421
0.666329
0.643772
0.617765
0.588352
0.555607
0.519636
0.480577
0.438599
0.393906
0.346732
0.297339
0.246018
0.193084
0.138867
0.0836836
0.0279435
0.0192401
0.05766
0.0959838
0.134176
0.172144
0.209819
0.247131
0.284006
0.320366
0.356127
0.391203
0.425498
0.458916
0.49135
0.52269
0.552818
0.581608
0.608933
0.634653
0.658629
0.680712
0.700751
0.718592
0.734076
0.747046
0.757344
0.764815
0.769308
0.770679
0.768793
0.763525
0.754768
0.74243
0.726439
0.706748
0.683333
0.656203
0.625395
0.59098
0.553065
0.511792
0.46734
0.419924
0.369795
0.317237
0.262566
0.206124
0.148274
0.0893647
0.0298433
0.0200775
0.0601728
0.100175
0.14005
0.179707
0.21908
0.258098
0.296689
0.334774
0.372271
0.409092
0.445141
0.480319
0.514516
0.547619
0.579505
0.610045
0.639101
0.66653
0.692181
0.715895
0.737512
0.756862
0.773775
0.788078
0.799596
0.808157
0.813592
0.815738
0.814441
0.809557
0.800959
0.788537
0.772202
0.75189
0.727565
0.699224
0.666896
0.630648
0.590587
0.546859
0.499652
0.449196
0.395759
0.339651
0.281214
0.220825
0.158881
0.0957722
0.0319862
0.0209836
0.0628919
0.10471
0.146408
0.187896
0.229108
0.269977
0.310431
0.350393
0.389779
0.428502
0.466465
0.503566
0.539695
0.574733
0.608553
0.64102
0.671991
0.701312
0.728824
0.754357
0.777738
0.798784
0.817309
0.833123
0.846034
0.855849
0.862379
0.865439
0.864854
0.860457
0.852098
0.839646
0.822992
0.802051
0.776773
0.747139
0.713169
0.674924
0.632509
0.586075
0.535819
0.481985
0.424863
0.36479
0.302141
0.237328
0.170794
0.10297
0.0343936
0.0219578
0.0658156
0.109588
0.153246
0.196704
0.239898
0.282763
0.325228
0.367216
0.408647
0.44943
0.489471
0.528663
0.566895
0.604045
0.639981
0.674562
0.707637
0.739044
0.768615
0.796167
0.821514
0.844457
0.864794
0.882316
0.89681
0.908064
0.915862
0.919998
0.920268
0.916481
0.908463
0.896054
0.879121
0.857559
0.831296
0.800296
0.764567
0.72416
0.679179
0.629777
0.57616
0.51859
0.45738
0.392896
0.32555
0.255799
0.18413
0.111029
0.0370896
0.0229993
0.0689411
0.114802
0.160559
0.206125
0.251442
0.296447
0.34107
0.385237
0.428867
0.471872
0.514154
0.555609
0.596121
0.635565
0.673805
0.710693
0.746072
0.779771
0.811609
0.841394
0.868922
0.893981
0.916348
0.935795
0.952086
0.964983
0.974247
0.979642
0.980936
0.977908
0.970353
0.958082
0.940934
0.918776
0.891511
0.859083
0.821482
0.77875
0.730985
0.678342
0.621037
0.559348
0.493616
0.424239
0.351672
0.27642
0.199025
0.120033
0.0401019
0.0241068
0.0722652
0.120349
0.168338
0.21615
0.26373
0.311017
0.357945
0.404442
0.450428
0.495815
0.540508
0.584399
0.627371
0.669297
0.710035
0.749432
0.787324
0.82353
0.857858
0.890102
0.920045
0.947456
0.972091
0.993701
1.01203
1.0268
1.03775
1.04462
1.04713
1.04504
1.0381
1.02608
1.00881
0.986098
0.957831
0.923925
0.88435
0.839132
0.788361
0.732193
0.670853
0.604639
0.533918
0.459127
0.380768
0.2994
0.21563
0.130073
0.0434616
0.025279
0.0757835
0.12622
0.176574
0.226767
0.276748
0.326459
0.375837
0.424815
0.473313
0.521246
0.568517
0.615021
0.660638
0.705238
0.748675
0.790792
0.831414
0.870354
0.907407
0.942355
0.974963
1.00498
1.03214
1.05618
1.0768
1.09371
1.1066
1.11518
1.11914
1.11818
1.11204
1.10044
1.08314
1.05996
1.03071
0.995293
0.95365
0.905789
0.851787
0.791799
0.726059
0.654884
0.578672
0.497901
0.413127
0.324973
0.234117
0.141255
0.0472036
0.0265141
0.0794911
0.132408
0.185256
0.237962
0.290478
0.342752
0.394726
0.446333
0.497499
0.54814
0.598162
0.647457
0.695907
0.743378
0.789722
0.834775
0.878356
0.920269
0.960297
0.998207
1.03375
1.06665
1.09662
1.12337
1.14657
1.1659
1.18102
1.19159
1.19726
1.19769
1.19256
1.18155
1.16439
1.14082
1.11064
1.0737
1.02991
0.97925
0.921791
0.857678
0.787153
0.710552
0.628307
0.540943
0.449075
0.353399
0.254677
0.153694
0.0513671
0.0278101
0.0833818
0.138903
0.19437
0.249717
0.3049
0.359874
0.414584
0.468969
0.522958
0.57647
0.629412
0.681679
0.733152
0.783696
0.83316
0.881375
0.928153
0.973289
1.01655
1.0577
1.09646
1.13254
1.16564
1.19541
1.22152
1.2436
1.26126
1.27413
1.2818
1.2839
1.28003
1.26984
1.25299
1.22918
1.19814
1.15969
1.11369
1.06009
0.998951
0.930398
0.854681
0.772158
0.683296
0.588673
0.488971
0.384968
0.27752
0.167519
0.0559954
0.0291645
0.0874481
0.145691
0.203899
0.26201
0.319989
0.377795
0.43538
0.492688
0.549652
0.606196
0.66223
0.717651
0.772341
0.826163
0.878965
0.930573
0.980795
1.02942
1.0762
1.12087
1.16316
1.20274
1.23929
1.27244
1.3018
1.32698
1.34754
1.36306
1.37309
1.37717
1.37488
1.36577
1.34946
1.32557
1.29378
1.25385
1.2056
1.14894
1.08389
1.01057
0.929238
0.840264
0.744157
0.641553
0.533209
0.419996
0.302879
0.182872
0.0611362
0.0305745
0.0916816
0.15276
0.213824
0.274818
0.335715
0.396481
0.457075
0.517447
0.577537
0.637273
0.696568
0.755325
0.813424
0.870733
0.927095
0.982337
1.03626
1.08863
1.13922
1.18773
1.23387
1.2773
1.31766
1.35456
1.38756
1.41623
1.4401
1.45867
1.47143
1.47788
1.4775
1.4698
1.45429
1.43054
1.39815
1.35682
1.3063
1.24646
1.17728
1.09886
1.01146
0.915476
0.811449
0.70008
0.582214
0.458826
0.331006
0.199907
0.0668413
0.0320368
0.0960723
0.160093
0.224121
0.28811
0.352042
0.415891
0.479624
0.543197
0.606558
0.669641
0.732367
0.794638
0.856342
0.917347
0.977496
1.03661
1.0945
1.15091
1.20561
1.25828
1.30862
1.35627
1.40082
1.44187
1.47894
1.51154
1.53914
1.5612
1.57714
1.58638
1.58832
1.58238
1.568
1.54466
1.51187
1.46924
1.41646
1.35334
1.27982
1.19597
1.10204
0.99844
0.885768
0.764789
0.636443
0.501827
0.362172
0.218789
0.0731663
0.0335474
0.100609
0.16767
0.234764
0.301854
0.368931
0.435978
0.502972
0.569878
0.636652
0.703234
0.769552
0.835517
0.901019
0.965929
1.03009
1.09334
1.15545
1.2162
1.27531
1.33249
1.3874
1.43964
1.48881
1.53444
1.57603
1.61303
1.64487
1.67091
1.69052
1.70302
1.70774
1.70399
1.69112
1.66849
1.63554
1.59177
1.53678
1.47031
1.39224
1.30262
1.20167
1.08983
0.96774
0.836241
0.69638
0.549389
0.396662
0.239694
0.0801701
0.0351022
0.105278
0.17547
0.245724
0.316011
0.386335
0.456689
0.527059
0.597422
0.667741
0.737969
0.80804
0.877871
0.947361
1.01639
1.08479
1.15241
1.21903
1.28441
1.34827
1.41031
1.47016
1.52742
1.58164
1.63232
1.67892
1.72084
1.75743
1.788
1.81182
1.82813
1.83614
1.83507
1.82414
1.80261
1.76979
1.72507
1.66796
1.59809
1.51529
1.41955
1.31109
1.19035
1.05801
0.915015
0.76252
0.601914
0.434772
0.262802
0.0879139
0.0366962
0.110066
0.18347
0.256966
0.330538
0.404201
0.47796
0.551814
0.625749
0.699741
0.773753
0.847728
0.921594
0.995257
1.0686
1.14148
1.21372
1.28512
1.35543
1.42438
1.49164
1.55683
1.61953
1.67927
1.7355
1.78764
1.83503
1.87696
1.91264
1.94127
1.96198
1.97387
1.97602
1.96754
1.94754
1.9152
1.86979
1.81067
1.73741
1.64971
1.54751
1.43102
1.30068
1.15723
1.0017
0.835369
0.659811
0.476805
0.288298
0.0964597
0.0383241
0.114955
0.191641
0.268452
0.345387
0.422471
0.499724
0.577157
0.65477
0.732552
0.810476
0.8885
0.966561
1.04458
1.12244
1.20001
1.27712
1.35358
1.42913
1.5035
1.57635
1.64729
1.71589
1.78162
1.84393
1.90217
1.95562
2.0035
2.04495
2.07904
2.1048
2.1212
2.1272
2.12173
2.10377
2.07232
2.02651
1.96558
1.88893
1.79618
1.68721
1.56216
1.42151
1.26603
1.09685
0.915419
0.723479
0.523053
0.316362
0.105869
0.0399799
0.11993
0.199955
0.280143
0.360504
0.441079
0.521903
0.603
0.684385
0.766062
0.848017
0.930222
1.01263
1.09516
1.17773
1.26021
1.34244
1.42423
1.50532
1.58545
1.66427
1.74139
1.81633
1.88857
1.9575
2.02242
2.08256
2.13705
2.18495
2.22521
2.25673
2.27836
2.28887
2.28705
2.27168
2.24161
2.19577
2.13323
2.05326
1.95535
1.83928
1.70517
1.55346
1.385
1.20102
1.00313
0.793294
0.573796
0.347166
0.116198
0.0416572
0.124969
0.208379
0.291991
0.37583
0.459954
0.544411
0.629244
0.714483
0.800146
0.886237
0.972743
1.05963
1.14685
1.23431
1.3219
1.40947
1.49685
1.58379
1.67002
1.75519
1.83889
1.92065
1.99991
2.07602
2.14824
2.21572
2.27752
2.33258
2.37977
2.41782
2.44542
2.46119
2.46371
2.45157
2.4234
2.37795
2.31409
2.2309
2.12774
2.00429
1.86058
1.69707
1.51465
1.31467
1.09892
0.86959
0.629279
0.38086
0.1275
0.0433488
0.130051
0.216878
0.303947
0.391302
0.479016
0.567156
0.655781
0.744939
0.834665
0.924982
1.01589
1.10739
1.19942
1.29194
1.38483
1.47798
1.5712
1.66427
1.75692
1.84881
1.93953
2.02858
2.11537
2.19923
2.27937
2.35486
2.42469
2.48769
2.54258
2.58797
2.62236
2.64417
2.65178
2.64356
2.6179
2.57331
2.50845
2.4222
2.31375
2.18263
2.02882
1.85276
1.65539
1.43817
1.20309
0.952633
0.689702
0.417568
0.139814
0.0450473
0.135155
0.225413
0.315958
0.40685
0.498181
0.590037
0.682494
0.775619
0.869469
0.964084
1.05949
1.15569
1.25267
1.35039
1.44876
1.54767
1.64698
1.74646
1.84585
1.94482
2.04295
2.13974
2.23459
2.32678
2.41546
2.49965
2.57824
2.64995
2.71337
2.76694
2.80897
2.83766
2.85117
2.84759
2.82509
2.78189
2.71641
2.6273
2.51354
2.37452
2.21013
2.02077
1.80745
1.57175
1.31587
1.0426
0.755194
0.457371
0.15317
0.0467444
0.140255
0.233943
0.327966
0.4224
0.517358
0.612944
0.709255
0.806379
0.904392
1.00336
1.10332
1.20432
1.30635
1.40939
1.51339
1.61825
1.72385
1.82999
1.93641
2.0428
2.14874
2.25372
2.35712
2.45819
2.55604
2.64962
2.73771
2.81892
2.8917
2.9543
3.00484
3.04128
3.06152
3.06338
3.04472
3.00349
2.93781
2.84607
2.72704
2.57993
2.4045
2.20113
1.97087
1.71546
1.43731
1.13953
0.825797
0.500295
0.167577
0.0484316
0.145326
0.242427
0.33991
0.437874
0.53645
0.635762
0.735929
0.837061
0.939257
1.04261
1.14718
1.25302
1.36018
1.46864
1.57839
1.68936
1.80144
1.91445
2.02817
2.14229
2.25639
2.36998
2.48241
2.5929
2.70052
2.80414
2.90246
2.99396
3.07692
3.14942
3.20935
3.25442
3.28224
3.29034
3.27625
3.2376
3.17218
3.07811
2.95388
2.79851
2.61164
2.3936
2.14546
1.86913
1.56728
1.24334
0.901444
0.546302
0.183022
0.0501
0.150341
0.250818
0.351728
0.453189
0.555353
0.658367
0.762372
0.8675
0.973876
1.08161
1.1908
1.30154
1.41386
1.52782
1.64342
1.76061
1.87931
1.99939
2.12064
2.24275
2.36535
2.48792
2.60981
2.73022
2.84817
2.96246
3.07169
3.17423
3.26817
3.35142
3.4216
3.47618
3.51244
3.52759
3.5188
3.48336
3.4187
3.32261
3.19331
3.02959
2.83092
2.59759
2.33072
2.03235
1.70542
1.35375
0.981933
0.595269
0.199463
0.0517402
0.155271
0.259069
0.363351
0.468258
0.573961
0.680632
0.788433
0.897522
1.00805
1.12015
1.23396
1.34958
1.4671
1.58659
1.70808
1.83157
1.95701
2.0843
2.21325
2.34358
2.47494
2.60681
2.73855
2.86932
2.99811
3.12365
3.24443
3.35869
3.46438
3.55916
3.64042
3.70534
3.75088
3.77387
3.77112
3.73952
3.67613
3.57839
3.44418
3.27206
3.06132
2.81218
2.52579
2.20436
1.85111
1.47026
1.06691
0.646983
0.216831
0.0533425
0.160088
0.267132
0.374713
0.482992
0.592164
0.702422
0.813955
0.926944
1.04157
1.15799
1.27637
1.39684
1.51953
1.64455
1.77196
1.90179
2.03403
2.16861
2.30539
2.44411
2.58444
2.72587
2.86776
3.00927
3.14932
3.2866
3.41949
3.5461
3.6642
3.77124
3.86435
3.94038
3.99597
4.02756
4.03155
4.00442
3.94282
3.84379
3.70488
3.52437
3.30138
3.03601
2.72946
2.38411
2.00346
1.59216
1.15585
0.701126
0.235018
0.0548971
0.164762
0.274956
0.385741
0.497299
0.609847
0.723602
0.838776
0.955579
1.07421
1.19487
1.31775
1.44301
1.57083
1.70132
1.83461
1.97077
2.10982
2.25173
2.39639
2.5436
2.69302
2.8442
2.99647
3.14899
3.30064
3.45005
3.59551
3.73499
3.86607
3.98598
4.09159
4.17942
4.24575
4.28662
4.298
4.27592
4.21661
4.11668
3.97333
3.78453
3.54917
3.26729
2.94011
2.57015
2.16125
1.71847
1.24805
0.757266
0.253879
0.056394
0.169263
0.282493
0.396366
0.511087
0.626895
0.744031
0.862733
0.983234
1.10577
1.23056
1.35782
1.48778
1.62061
1.75649
1.89559
2.038
2.1838
2.33301
2.48554
2.64125
2.79982
2.96081
3.12359
3.28729
3.45077
3.61258
3.77093
3.92365
4.06814
4.20142
4.32005
4.42025
4.49789
4.54862
4.56795
4.55146
4.4949
4.39446
4.24695
4.05001
3.80232
3.5038
3.15569
2.7607
2.32294
1.84797
1.34261
0.814858
0.273232
0.0578234
0.173561
0.28969
0.406516
0.524262
0.643192
0.76357
0.885657
1.00972
1.136
1.26478
1.39629
1.53079
1.6685
1.80964
1.9544
2.10294
2.25538
2.41177
2.57209
2.73621
2.90388
3.07467
3.24797
3.42288
3.59826
3.77261
3.94402
4.1102
4.26839
4.41534
4.54736
4.66031
4.7497
4.81073
4.83848
4.82801
4.77462
4.67404
4.52268
4.31783
4.05796
3.74284
3.37376
2.95356
2.4867
1.97918
1.43844
0.87324
0.292854
0.0591753
0.177626
0.2965
0.41612
0.536733
0.658624
0.782079
0.907385
1.03483
1.1647
1.29728
1.43286
1.57172
1.71412
1.86032
2.01056
2.16504
2.32392
2.48731
2.65524
2.82761
3.00422
3.18467
3.36834
3.55438
3.7416
3.92843
4.11291
4.29259
4.46454
4.62529
4.77086
4.89679
4.99817
5.06979
5.10625
5.10214
5.05226
4.95189
4.797
4.58457
4.31279
3.98133
3.59147
3.14622
2.65037
2.11037
1.53428
0.931644
0.312487
0.0604401
0.18143
0.302872
0.425109
0.548408
0.673076
0.799421
0.927754
1.05839
1.19164
1.32782
1.46724
1.61023
1.75709
1.90811
2.06358
2.22374
2.38881
2.55893
2.73419
2.91454
3.09981
3.28964
3.48344
3.68034
3.87915
4.07825
4.27559
4.4686
4.65418
4.82863
4.9877
5.12659
5.24
5.32231
5.36763
5.37007
5.32396
5.2241
5.06604
4.84641
4.56315
4.2158
3.80565
3.33587
2.81154
2.23961
1.62873
0.989204
0.331839
0.0616087
0.184945
0.30876
0.433417
0.559202
0.686441
0.815464
0.946605
1.0802
1.21659
1.35613
1.49915
1.646
1.79704
1.95259
2.11297
2.27849
2.44941
2.62591
2.80813
2.99608
3.18962
3.38842
3.59193
3.79928
4.00925
4.2202
4.42999
4.63594
4.83477
5.02259
5.19485
5.34645
5.47171
5.56458
5.61872
5.62777
5.58557
5.48645
5.32558
5.09922
4.80506
4.44251
4.01286
3.51943
2.9676
2.36479
1.72022
1.04498
0.350595
0.0626721
0.188143
0.314119
0.44098
0.56903
0.698614
0.830082
0.963789
1.1001
1.23937
1.38198
1.5283
1.67871
1.8336
1.99333
2.15827
2.32876
2.50511
2.68755
2.87627
3.07132
3.27261
3.47984
3.69249
3.90969
4.13022
4.3524
4.57401
4.79226
5.00373
5.20431
5.38921
5.55301
5.68968
5.79276
5.85548
5.87102
5.83275
5.73457
5.57123
5.33867
5.03435
4.65752
4.20947
3.69367
3.1158
2.48369
1.80715
1.09798
0.36842
0.0636224
0.191002
0.318909
0.44774
0.577815
0.709498
0.843157
0.979165
1.1179
1.25976
1.40514
1.55444
1.70806
1.86643
2.02995
2.19902
2.37403
2.55532
2.74319
2.93784
3.1394
3.34779
3.56278
3.78383
4.01013
4.24042
4.47298
4.70555
4.93524
5.15847
5.37096
5.56768
5.7429
5.89029
6.00299
6.07383
6.09556
6.06112
5.96399
5.79854
5.56039
5.24677
4.85681
4.3918
3.85532
3.25333
2.59406
1.88785
1.14719
0.384973
0.0644521
0.193497
0.32309
0.453642
0.585488
0.719005
0.85458
0.992603
1.13347
1.2776
1.42541
1.57732
1.73378
1.89522
2.06208
2.23481
2.41382
2.5995
2.79218
2.99212
3.19948
3.41422
3.63614
3.86473
4.09919
4.33825
4.58017
4.82263
5.06264
5.29652
5.51979
5.72723
5.91285
6.07001
6.19151
6.2698
6.29725
6.26639
6.17035
6.00313
5.76006
5.43817
5.03646
4.55621
4.00114
3.37742
2.69366
1.96069
1.19162
0.399919
0.0651548
0.195611
0.326631
0.45864
0.591984
0.727056
0.864255
1.00399
1.14667
1.29273
1.44261
1.59675
1.75562
1.91968
2.0894
2.26525
2.44769
2.63714
2.83396
3.03845
3.2508
3.47103
3.69894
3.93406
4.17558
4.42226
4.67231
4.92337
5.17238
5.41555
5.64824
5.86506
6.05979
6.22552
6.35476
6.43963
6.47215
6.44452
6.34952
6.18085
5.9336
5.60458
5.19271
4.69926
4.12804
3.48544
2.78037
2.02411
1.2303
0.412937
0.065725
0.197326
0.329503
0.462691
0.59725
0.733583
0.872099
1.01322
1.15737
1.305
1.45656
1.61252
1.77335
1.93955
2.11161
2.29003
2.47527
2.6678
2.86802
3.07626
3.29272
3.51745
3.7503
3.99081
4.23818
4.49114
4.74793
5.00612
5.2626
5.51348
5.75401
5.97864
6.18096
6.35384
6.48955
6.57994
6.61673
6.59184
6.49777
6.32797
6.0773
5.74243
5.32219
4.81783
4.23324
3.575
2.85228
2.07671
1.26239
0.423738
0.0661584
0.19863
0.331684
0.465764
0.601241
0.738529
0.878045
1.02022
1.16549
1.31431
1.46715
1.62449
1.78682
1.95465
2.12849
2.30885
2.49625
2.69114
2.89395
3.10505
3.32466
3.55286
3.7895
4.03415
4.28601
4.54382
4.80579
5.06948
5.33172
5.58855
5.83514
6.06581
6.27401
6.45244
6.59317
6.68784
6.72796
6.70523
6.61191
6.44127
6.18801
5.84866
5.42198
4.90923
4.31435
3.64406
2.90774
2.11728
1.28715
0.432075
0.0664493
0.199513
0.333158
0.46783
0.603923
0.741851
0.882038
1.02492
1.17094
1.32057
1.47427
1.63253
1.79587
1.9648
2.13985
2.32153
2.51037
2.70685
2.91143
3.12446
3.3462
3.57675
3.81596
4.06341
4.31832
4.57943
4.84492
5.11235
5.37851
5.63939
5.89011
6.12489
6.3371
6.51931
6.66347
6.76107
6.80348
6.78223
6.68945
6.51825
6.26324
5.92086
5.48982
4.97137
4.3695
3.69102
2.94545
2.14488
1.30401
0.43776
0.0665826
0.199939
0.333894
0.468867
0.605269
0.743519
0.884044
1.02728
1.17368
1.32371
1.47784
1.63658
1.80042
1.96991
2.14555
2.3279
2.51747
2.71476
2.92022
3.13423
3.35705
3.58878
3.82929
4.07816
4.33461
4.59738
4.86466
5.13398
5.40213
5.66506
5.91787
6.15474
6.36898
6.55312
6.69902
6.79812
6.8417
6.82121
6.7287
6.55724
6.30135
5.95744
5.5242
5.00287
4.39746
3.71484
2.96459
2.1589
1.31263
0.440695
)
;

boundaryField
{
    walls
    {
        type            calculated;
        value           nonuniform List<scalar> 
200
(
0.0665826
0.199939
0.333894
0.468867
0.605269
0.743519
0.884044
1.02728
1.17368
1.32371
1.47784
1.63658
1.80042
1.96991
2.14555
2.3279
2.51747
2.71476
2.92022
3.13423
3.35705
3.58878
3.82929
4.07816
4.33461
4.59738
4.86466
5.13398
5.40213
5.66506
5.91787
6.15474
6.36898
6.55312
6.69902
6.79812
6.8417
6.82121
6.7287
6.55724
6.30135
5.95744
5.5242
5.00287
4.39746
3.71484
2.96459
2.1589
1.31263
0.440695
0
0
0
0
0
0
0
0
0
0
0
0
0
0
0
0
0
0
0
0
0
0
0
0
0
0
0
0
0
0
0
0
0
0
0
0
0
0
0
0
0
0
0
0
0
0
0
0
0
0
0
0
0
0
0
0
0
0
0
0
0
0
0
0
0
0
0
0
0
0
0
0
0
0
0
0
0
0
0
0
0
0
0
0
0
0
0
0
0
0
0
0
0
0
0
0
0
0
0
0
0.0146319
0.0438328
0.072929
0.101879
0.130584
0.158973
0.186973
0.214511
0.241509
0.267891
0.293575
0.31848
0.342522
0.365615
0.387669
0.408597
0.428305
0.446703
0.463697
0.479193
0.493101
0.505327
0.515783
0.524383
0.531043
0.535685
0.538237
0.538633
0.536817
0.532739
0.526362
0.517658
0.506614
0.493228
0.477513
0.459498
0.439227
0.41676
0.392174
0.365561
0.337031
0.306711
0.27474
0.241274
0.206483
0.170547
0.133656
0.0960121
0.0578217
0.0193082
)
;
    }
    frontAndBack
    {
        type            empty;
    }
}


// ************************************************************************* //
