/*--------------------------------*- C++ -*----------------------------------*\
| =========                 |                                                 |
| \\      /  F ield         | OpenFOAM: The Open Source CFD Toolbox           |
|  \\    /   O peration     | Version:  2406                                  |
|   \\  /    A nd           | Website:  www.openfoam.com                      |
|    \\/     M anipulation  |                                                 |
\*---------------------------------------------------------------------------*/
FoamFile
{
    version     2.0;
    format      ascii;
    arch        "LSB;label=32;scalar=64";
    class       volScalarField;
    location    "2.35";
    object      T;
}
// * * * * * * * * * * * * * * * * * * * * * * * * * * * * * * * * * * * * * //

dimensions      [0 0 0 1 0 0 0];

internalField   nonuniform List<scalar> 
2500
(
0.398814
0.399399
0.400567
0.402316
0.404642
0.407539
0.411001
0.415018
0.419581
0.424679
0.430297
0.436422
0.443036
0.450123
0.457661
0.465629
0.474005
0.482762
0.491873
0.501309
0.511041
0.521033
0.531254
0.541665
0.552229
0.562907
0.573656
0.584436
0.595202
0.605909
0.616511
0.626963
0.637218
0.647228
0.656947
0.666328
0.675327
0.683897
0.691997
0.699584
0.70662
0.713066
0.718888
0.724055
0.728539
0.732314
0.735361
0.737661
0.739201
0.739974
0.399399
0.399987
0.401161
0.402918
0.405255
0.408167
0.411645
0.415682
0.420267
0.42539
0.431036
0.437191
0.443839
0.450962
0.458539
0.466549
0.474969
0.483773
0.492933
0.502422
0.512207
0.522256
0.532535
0.543007
0.553633
0.564374
0.575189
0.586035
0.596868
0.607643
0.618313
0.628833
0.639155
0.649232
0.659016
0.668462
0.677523
0.686153
0.69431
0.701951
0.709037
0.71553
0.721395
0.7266
0.731117
0.734921
0.73799
0.740307
0.741859
0.742637
0.400567
0.401161
0.402345
0.40412
0.406479
0.409418
0.41293
0.417006
0.421636
0.426809
0.432511
0.438728
0.445443
0.452638
0.460293
0.468387
0.476895
0.485793
0.495053
0.504645
0.514539
0.524701
0.535097
0.545689
0.55644
0.567309
0.578255
0.589233
0.6002
0.611111
0.621917
0.632573
0.643031
0.653241
0.663158
0.672732
0.681917
0.690668
0.698939
0.706689
0.713877
0.720463
0.726414
0.731695
0.736279
0.740139
0.743254
0.745606
0.747182
0.747971
0.402316
0.402918
0.40412
0.405919
0.408312
0.411293
0.414855
0.41899
0.423687
0.428935
0.434722
0.441031
0.447846
0.45515
0.462923
0.471141
0.479783
0.488822
0.49823
0.507978
0.518035
0.528367
0.538939
0.549714
0.560652
0.571713
0.582855
0.594033
0.605203
0.616318
0.62733
0.638191
0.648852
0.659264
0.669379
0.679147
0.688521
0.697453
0.705898
0.713811
0.721152
0.72788
0.73396
0.739356
0.744041
0.747986
0.75117
0.753574
0.755186
0.755993
0.404642
0.405255
0.406479
0.408312
0.41075
0.413787
0.417416
0.421629
0.426416
0.431765
0.437663
0.444095
0.451045
0.458495
0.466423
0.474809
0.483629
0.492856
0.502463
0.51242
0.522694
0.533254
0.544061
0.55508
0.566269
0.577588
0.588993
0.600439
0.61188
0.623269
0.634556
0.645692
0.656627
0.66731
0.677692
0.68772
0.697347
0.706522
0.7152
0.723334
0.730881
0.7378
0.744053
0.749605
0.754424
0.758484
0.761761
0.764236
0.765895
0.766726
0.407539
0.408167
0.409418
0.411293
0.413787
0.416894
0.420607
0.424918
0.429816
0.435292
0.44133
0.447916
0.455035
0.462666
0.470791
0.479386
0.488429
0.497892
0.507748
0.517967
0.528515
0.53936
0.550463
0.561788
0.573292
0.584935
0.59667
0.608454
0.620236
0.63197
0.643604
0.655087
0.666367
0.677392
0.688109
0.698467
0.708413
0.717896
0.726868
0.735281
0.743088
0.750248
0.756721
0.762469
0.76746
0.771665
0.77506
0.777624
0.779342
0.780203
0.411001
0.411645
0.41293
0.414855
0.417416
0.420607
0.424421
0.428849
0.433883
0.439509
0.445716
0.452488
0.459808
0.467659
0.476019
0.484867
0.494178
0.503926
0.514082
0.524616
0.535494
0.546682
0.558143
0.569837
0.581722
0.593756
0.605892
0.618082
0.630278
0.642429
0.654483
0.666386
0.678085
0.689525
0.70065
0.711407
0.721741
0.731598
0.740928
0.749679
0.757804
0.765258
0.771997
0.777985
0.783185
0.787567
0.791105
0.793778
0.795569
0.796467
0.415018
0.415682
0.417006
0.41899
0.421629
0.424918
0.428849
0.433415
0.438606
0.44441
0.450813
0.457802
0.465359
0.473465
0.482101
0.491244
0.50087
0.510951
0.521458
0.532362
0.543627
0.555219
0.567099
0.579227
0.59156
0.604053
0.616659
0.62933
0.642013
0.654656
0.667205
0.679604
0.691797
0.703727
0.715335
0.726564
0.737357
0.747658
0.757411
0.766564
0.775065
0.782867
0.789924
0.796195
0.801643
0.806235
0.809944
0.812746
0.814624
0.815565
0.419581
0.420267
0.421636
0.423687
0.426416
0.429816
0.433883
0.438606
0.443976
0.449983
0.456612
0.463848
0.471676
0.480076
0.489028
0.49851
0.508496
0.518959
0.529871
0.541199
0.552909
0.564965
0.577328
0.589956
0.602805
0.615828
0.628978
0.642202
0.655448
0.668661
0.681783
0.694757
0.707522
0.720019
0.732187
0.743965
0.755292
0.766108
0.776354
0.785974
0.794914
0.803122
0.810549
0.817151
0.822889
0.827726
0.831634
0.834586
0.836566
0.837558
0.424679
0.42539
0.426809
0.428935
0.431765
0.435292
0.439509
0.44441
0.449983
0.456217
0.4631
0.470616
0.47875
0.487481
0.49679
0.506654
0.517047
0.527943
0.539312
0.55112
0.563335
0.575917
0.588827
0.602022
0.615457
0.629083
0.64285
0.656705
0.670592
0.684454
0.69823
0.71186
0.72528
0.738427
0.751236
0.763642
0.77558
0.786987
0.7978
0.807957
0.817401
0.826075
0.833928
0.840911
0.846982
0.852102
0.856239
0.859365
0.861462
0.862512
0.430297
0.431036
0.432511
0.434722
0.437663
0.44133
0.445716
0.450813
0.456612
0.4631
0.470265
0.478093
0.486567
0.495667
0.505374
0.515665
0.526513
0.537892
0.549771
0.562117
0.574895
0.588067
0.60159
0.615422
0.629514
0.643818
0.65828
0.672845
0.687454
0.702047
0.716562
0.730932
0.745092
0.758974
0.772509
0.785628
0.79826
0.810338
0.821794
0.832563
0.84258
0.851786
0.860124
0.867542
0.873993
0.879435
0.883834
0.887159
0.889388
0.890506
0.436422
0.437191
0.438728
0.441031
0.444095
0.447916
0.452488
0.457802
0.463848
0.470616
0.478093
0.486264
0.495113
0.504621
0.514767
0.525529
0.53688
0.548793
0.561237
0.574179
0.587582
0.601408
0.615612
0.630151
0.644975
0.660033
0.675269
0.690626
0.706042
0.721453
0.736793
0.751994
0.766984
0.781691
0.796042
0.809961
0.823375
0.836209
0.848391
0.859848
0.870513
0.88032
0.889207
0.897117
0.903999
0.909807
0.914501
0.918051
0.920432
0.921626
0.443036
0.443839
0.445443
0.447846
0.451045
0.455035
0.459808
0.465359
0.471676
0.47875
0.486567
0.495113
0.504372
0.514326
0.524953
0.536231
0.548133
0.560633
0.573697
0.587294
0.601385
0.61593
0.630885
0.646204
0.661836
0.677727
0.69382
0.710053
0.726364
0.742683
0.758941
0.775065
0.79098
0.806607
0.821868
0.836682
0.85097
0.864651
0.877646
0.889877
0.90127
0.911752
0.921256
0.929719
0.937086
0.943305
0.948335
0.952138
0.95469
0.955969
0.450123
0.450962
0.452638
0.45515
0.458495
0.462666
0.467659
0.473465
0.480076
0.487481
0.495667
0.504621
0.514326
0.524764
0.535914
0.547753
0.560256
0.573394
0.587136
0.601446
0.616288
0.631621
0.647398
0.663572
0.68009
0.696897
0.713932
0.731131
0.748427
0.765748
0.783021
0.800167
0.817105
0.833753
0.850025
0.865835
0.881096
0.89572
0.909622
0.922717
0.934923
0.94616
0.956355
0.96544
0.97335
0.980031
0.985436
0.989524
0.992267
0.993643
0.457661
0.458539
0.460293
0.462923
0.466423
0.470791
0.476019
0.482101
0.489028
0.49679
0.505374
0.514767
0.524953
0.535914
0.547629
0.560076
0.573228
0.587058
0.601534
0.61662
0.632278
0.648467
0.665139
0.682245
0.69973
0.717537
0.735603
0.75386
0.772237
0.79066
0.809048
0.827319
0.845387
0.863161
0.880551
0.897464
0.913803
0.929475
0.944386
0.958442
0.971553
0.983633
0.9946
1.00438
1.01289
1.02009
1.02592
1.03032
1.03328
1.03477
0.465629
0.466549
0.468387
0.471141
0.474809
0.479386
0.484867
0.491244
0.49851
0.506654
0.515665
0.525529
0.536231
0.547753
0.560076
0.573176
0.587028
0.601603
0.616871
0.632794
0.649335
0.66645
0.684092
0.702209
0.720746
0.739641
0.758829
0.77824
0.797799
0.817426
0.837037
0.856542
0.875851
0.894866
0.913488
0.931617
0.949148
0.96598
0.982008
0.99713
1.01125
1.02426
1.03609
1.04664
1.05583
1.06361
1.0699
1.07466
1.07786
1.07947
0.474005
0.474969
0.476895
0.479783
0.483629
0.488429
0.494178
0.50087
0.508496
0.517047
0.526513
0.53688
0.548133
0.560256
0.573228
0.587028
0.60163
0.617005
0.633122
0.649946
0.667437
0.68555
0.704239
0.723449
0.743122
0.763197
0.783603
0.804269
0.825113
0.846053
0.866998
0.887855
0.908522
0.928898
0.948875
0.968342
0.987188
1.0053
1.02256
1.03886
1.0541
1.06815
1.08093
1.09234
1.10229
1.1107
1.11752
1.12268
1.12614
1.12788
0.482762
0.483773
0.485793
0.488822
0.492856
0.497892
0.503926
0.510951
0.518959
0.527943
0.537892
0.548793
0.560633
0.573394
0.587058
0.601603
0.617005
0.633235
0.650262
0.668049
0.686558
0.705743
0.725556
0.745943
0.766842
0.78819
0.809914
0.831938
0.854178
0.876545
0.898944
0.921272
0.943425
0.96529
0.986751
1.00769
1.02798
1.0475
1.06613
1.08373
1.1002
1.1154
1.12924
1.1416
1.15239
1.16151
1.16891
1.17451
1.17828
1.18016
0.491873
0.492933
0.495053
0.49823
0.502463
0.507748
0.514082
0.521458
0.529871
0.539312
0.549771
0.561237
0.573697
0.587136
0.601534
0.616871
0.633122
0.650262
0.668257
0.687072
0.706669
0.727001
0.748018
0.769667
0.791883
0.814601
0.837746
0.861238
0.884987
0.908901
0.932878
0.956809
0.98058
1.00407
1.02716
1.0497
1.07158
1.09265
1.11278
1.13182
1.14965
1.16613
1.18113
1.19455
1.20627
1.21619
1.22423
1.23032
1.23442
1.23647
0.501309
0.502422
0.504645
0.507978
0.51242
0.517967
0.524616
0.532362
0.541199
0.55112
0.562117
0.574179
0.587294
0.601446
0.61662
0.632794
0.649946
0.668049
0.687072
0.706981
0.727735
0.749289
0.771593
0.794591
0.818219
0.842407
0.867079
0.892151
0.91753
0.943116
0.968802
0.994472
1.02
1.04527
1.07012
1.09443
1.11805
1.14082
1.1626
1.18322
1.20255
1.22044
1.23674
1.25133
1.26407
1.27487
1.28363
1.29027
1.29473
1.29697
0.511041
0.512207
0.514539
0.518035
0.522694
0.528515
0.535494
0.543627
0.552909
0.563335
0.574895
0.587582
0.601385
0.616288
0.632278
0.649335
0.667437
0.686558
0.706669
0.727735
0.749716
0.772569
0.796243
0.820679
0.845814
0.871577
0.897886
0.924656
0.951788
0.979178
1.00671
1.03427
1.06171
1.0889
1.11568
1.14192
1.16744
1.19207
1.21566
1.23803
1.25902
1.27845
1.29619
1.31206
1.32595
1.33773
1.34728
1.35453
1.3594
1.36184
0.521033
0.522256
0.524701
0.528367
0.533254
0.53936
0.546682
0.555219
0.564965
0.575917
0.588067
0.601408
0.61593
0.631621
0.648467
0.66645
0.68555
0.705743
0.727001
0.749289
0.772569
0.796798
0.821924
0.84789
0.874631
0.902073
0.930133
0.958722
0.987737
1.01707
1.04659
1.07618
1.10569
1.13498
1.16387
1.1922
1.21979
1.24647
1.27204
1.29633
1.31914
1.34028
1.35959
1.3769
1.39205
1.40491
1.41534
1.42326
1.42858
1.43125
0.531254
0.532535
0.535097
0.538939
0.544061
0.550463
0.558143
0.567099
0.577328
0.588827
0.60159
0.615612
0.630885
0.647398
0.665139
0.684092
0.704239
0.725556
0.748018
0.771593
0.796243
0.821924
0.848588
0.876175
0.904621
0.93385
0.963778
0.994311
1.02534
1.05676
1.08843
1.12021
1.15196
1.18351
1.21468
1.2453
1.27516
1.30407
1.33182
1.3582
1.38301
1.40604
1.42709
1.44598
1.46252
1.47657
1.48798
1.49664
1.50247
1.50539
0.541665
0.543007
0.545689
0.549714
0.55508
0.561788
0.569837
0.579227
0.589956
0.602022
0.615422
0.630151
0.646204
0.663572
0.682245
0.702209
0.723449
0.745943
0.769667
0.794591
0.820679
0.84789
0.876175
0.905476
0.935727
0.966854
0.998769
1.03138
1.06456
1.09821
1.13218
1.16633
1.20049
1.23449
1.26814
1.30123
1.33356
1.3649
1.39503
1.42372
1.45072
1.47582
1.49879
1.51941
1.5375
1.55286
1.56535
1.57484
1.58122
1.58443
0.552229
0.553633
0.55644
0.560652
0.566269
0.573292
0.581722
0.59156
0.602805
0.615457
0.629514
0.644975
0.661836
0.68009
0.69973
0.720746
0.743122
0.766842
0.791883
0.818219
0.845814
0.874631
0.904621
0.935727
0.967886
1.00102
1.03504
1.06985
1.10534
1.14137
1.17781
1.2145
1.25126
1.2879
1.32422
1.36001
1.39502
1.42901
1.46173
1.49293
1.52235
1.54972
1.57479
1.59733
1.61711
1.63393
1.64761
1.65801
1.665
1.66852
0.562907
0.564374
0.567309
0.571713
0.577588
0.584935
0.593756
0.604053
0.615828
0.629083
0.643818
0.660033
0.677727
0.696897
0.717537
0.739641
0.763197
0.78819
0.814601
0.842407
0.871577
0.902073
0.93385
0.966854
1.00102
1.03627
1.07253
1.10968
1.1476
1.18618
1.22526
1.26466
1.30421
1.3437
1.38291
1.4216
1.45952
1.49639
1.53195
1.56589
1.59793
1.62779
1.65518
1.67982
1.70147
1.71989
1.73488
1.74628
1.75395
1.75781
0.573656
0.575189
0.578255
0.582855
0.588993
0.59667
0.605892
0.616659
0.628978
0.64285
0.65828
0.675269
0.69382
0.713932
0.735603
0.758829
0.783603
0.809914
0.837746
0.867079
0.897886
0.930133
0.963778
0.998769
1.03504
1.07253
1.11113
1.15075
1.19127
1.23255
1.27443
1.31674
1.35928
1.40183
1.44415
1.48598
1.52704
1.56704
1.60566
1.6426
1.67751
1.71009
1.74
1.76695
1.79064
1.81082
1.82726
1.83976
1.84818
1.85241
0.584436
0.586035
0.589233
0.594033
0.600439
0.608454
0.618082
0.62933
0.642202
0.656705
0.672845
0.690626
0.710053
0.731131
0.75386
0.77824
0.804269
0.831938
0.861238
0.892151
0.924656
0.958722
0.994311
1.03138
1.06985
1.10968
1.15075
1.19298
1.23623
1.28038
1.32524
1.37064
1.41638
1.4622
1.50786
1.55307
1.59752
1.6409
1.68285
1.72303
1.76106
1.7966
1.82927
1.85874
1.88467
1.90678
1.9248
1.93851
1.94775
1.9524
0.595202
0.596868
0.6002
0.605203
0.61188
0.620236
0.630278
0.642013
0.655448
0.670592
0.687454
0.706042
0.726364
0.748427
0.772237
0.797799
0.825113
0.854178
0.884987
0.91753
0.951788
0.987737
1.02534
1.06456
1.10534
1.1476
1.19127
1.23623
1.28237
1.32954
1.37756
1.42625
1.47538
1.5247
1.57393
1.62276
1.67086
1.71788
1.76343
1.80711
1.84854
1.88728
1.92296
1.95517
1.98354
2.00775
2.0275
2.04254
2.05267
2.05777
0.605909
0.607643
0.611111
0.616318
0.623269
0.63197
0.642429
0.654656
0.668661
0.684454
0.702047
0.721453
0.742683
0.765748
0.79066
0.817426
0.846053
0.876545
0.908901
0.943116
0.979178
1.01707
1.05676
1.09821
1.14137
1.18618
1.23255
1.28038
1.32954
1.37988
1.43124
1.4834
1.53613
1.58917
1.64221
1.69491
1.74692
1.79784
1.84726
1.89473
1.93981
1.98204
2.02096
2.05615
2.08718
2.11367
2.1353
2.15178
2.16289
2.16848
0.616511
0.618313
0.621917
0.62733
0.634556
0.643604
0.654483
0.667205
0.681783
0.69823
0.716562
0.736793
0.758941
0.783021
0.809048
0.837037
0.866998
0.898944
0.932878
0.968802
1.00671
1.04659
1.08843
1.13218
1.17781
1.22526
1.27443
1.32524
1.37756
1.43124
1.4861
1.54192
1.59845
1.65542
1.7125
1.76933
1.8255
1.8806
1.93416
1.98569
2.0347
2.08068
2.12311
2.16151
2.19541
2.22438
2.24804
2.26608
2.27825
2.28438
0.626963
0.628833
0.632573
0.638191
0.645692
0.655087
0.666386
0.679604
0.694757
0.71186
0.730932
0.751994
0.775065
0.800167
0.827319
0.856542
0.887855
0.921272
0.956809
0.994472
1.03427
1.07618
1.12021
1.16633
1.2145
1.26466
1.31674
1.37064
1.42625
1.4834
1.54192
1.60157
1.66211
1.72323
1.78457
1.84576
1.90636
1.9659
2.02387
2.07974
2.13295
2.18294
2.22913
2.27099
2.30797
2.3396
2.36546
2.38518
2.39849
2.4052
0.637218
0.639155
0.643031
0.648852
0.656627
0.666367
0.678085
0.691797
0.707522
0.72528
0.745092
0.766984
0.79098
0.817105
0.845387
0.875851
0.908522
0.943425
0.98058
1.02
1.06171
1.10569
1.15196
1.20049
1.25126
1.30421
1.35928
1.41638
1.47538
1.53613
1.59845
1.66211
1.72683
1.79229
1.85812
1.9239
1.98917
2.05341
2.11606
2.17653
2.23421
2.28847
2.33868
2.38421
2.42449
2.45898
2.48719
2.50871
2.52324
2.53056
0.647228
0.649232
0.653241
0.659264
0.66731
0.677392
0.689525
0.703727
0.720019
0.738427
0.758974
0.781691
0.806607
0.833753
0.863161
0.894866
0.928898
0.96529
1.00407
1.04527
1.0889
1.13498
1.18351
1.23449
1.2879
1.3437
1.40183
1.4622
1.5247
1.58917
1.65542
1.72323
1.79229
1.86227
1.93279
2.00338
2.07354
2.14271
2.21029
2.27561
2.33802
2.3968
2.45125
2.5007
2.54448
2.582
2.6127
2.63615
2.65198
2.65996
0.656947
0.659016
0.663158
0.669379
0.677692
0.688109
0.70065
0.715335
0.732187
0.751236
0.772509
0.796042
0.821868
0.850025
0.880551
0.913488
0.948875
0.986751
1.02716
1.07012
1.11568
1.16387
1.21468
1.26814
1.32422
1.38291
1.44415
1.50786
1.57393
1.64221
1.7125
1.78457
1.85812
1.93279
2.00815
2.08374
2.159
2.23332
2.30604
2.37646
2.44381
2.50734
2.56626
2.61983
2.6673
2.708
2.74134
2.76681
2.78402
2.79269
0.666328
0.668462
0.672732
0.679147
0.68772
0.698467
0.711407
0.726564
0.743965
0.763642
0.785628
0.809961
0.836682
0.865835
0.897464
0.931617
0.968342
1.00769
1.0497
1.09443
1.14192
1.1922
1.2453
1.30123
1.36001
1.4216
1.48598
1.55307
1.62276
1.69491
1.76933
1.84576
1.9239
2.00338
2.08374
2.16448
2.245
2.32465
2.40271
2.47841
2.55091
2.61938
2.68297
2.74082
2.79214
2.83619
2.87228
2.89987
2.91852
2.92792
0.675327
0.677523
0.681917
0.688521
0.697347
0.708413
0.721741
0.737357
0.755292
0.77558
0.79826
0.823375
0.85097
0.881096
0.913803
0.949148
0.987188
1.02798
1.07158
1.11805
1.16744
1.21979
1.27516
1.33356
1.39502
1.45952
1.52704
1.59752
1.67086
1.74692
1.8255
1.90636
1.98917
2.07354
2.159
2.245
2.33092
2.41604
2.49958
2.58071
2.65852
2.73209
2.80048
2.86278
2.91809
2.96558
3.00454
3.03432
3.05446
3.06461
0.683897
0.686153
0.690668
0.697453
0.706522
0.717896
0.731598
0.747658
0.766108
0.786987
0.810338
0.836209
0.864651
0.89572
0.929475
0.96598
1.0053
1.0475
1.09265
1.14082
1.19207
1.24647
1.30407
1.3649
1.42901
1.49639
1.56704
1.6409
1.71788
1.79784
1.8806
1.9659
2.05341
2.14271
2.23332
2.32465
2.41604
2.50671
2.59583
2.68249
2.76571
2.84449
2.91781
2.98464
3.04403
3.09507
3.13695
3.16899
3.19066
3.20158
0.691997
0.69431
0.698939
0.705898
0.7152
0.726868
0.740928
0.757411
0.776354
0.7978
0.821794
0.848391
0.877646
0.909622
0.944386
0.982008
1.02256
1.06613
1.11278
1.1626
1.21566
1.27204
1.33182
1.39503
1.46173
1.53195
1.60566
1.68285
1.76343
1.84726
1.93416
2.02387
2.11606
2.21029
2.30604
2.40271
2.49958
2.59583
2.69057
2.7828
2.87147
2.95551
3.03379
3.10522
3.16874
3.22337
3.26821
3.30253
3.32575
3.33746
0.699584
0.701951
0.706689
0.713811
0.723334
0.735281
0.749679
0.766564
0.785974
0.807957
0.832563
0.859848
0.889877
0.922717
0.958442
0.99713
1.03886
1.08373
1.13182
1.18322
1.23803
1.29633
1.3582
1.42372
1.49293
1.56589
1.6426
1.72303
1.80711
1.89473
1.98569
2.07974
2.17653
2.27561
2.37646
2.47841
2.58071
2.68249
2.7828
2.88057
2.97468
3.06395
3.14719
3.2232
3.29085
3.34905
3.39686
3.43347
3.45823
3.47073
0.70662
0.709037
0.713877
0.721152
0.730881
0.743088
0.757804
0.775065
0.794914
0.817401
0.84258
0.870513
0.90127
0.934923
0.971553
1.01125
1.0541
1.1002
1.14965
1.20255
1.25902
1.31914
1.38301
1.45072
1.52235
1.59793
1.67751
1.76106
1.84854
1.93981
2.0347
2.13295
2.23421
2.33802
2.44381
2.55091
2.65852
2.76571
2.87147
2.97468
3.07412
3.16853
3.25664
3.33717
3.40887
3.4706
3.52133
3.56018
3.58648
3.59975
0.713066
0.71553
0.720463
0.72788
0.7378
0.750248
0.765258
0.782867
0.803122
0.826075
0.851786
0.88032
0.911752
0.94616
0.983633
1.02426
1.06815
1.1154
1.16613
1.22044
1.27845
1.34028
1.40604
1.47582
1.54972
1.62779
1.71009
1.7966
1.88728
1.98204
2.08068
2.18294
2.28847
2.3968
2.50734
2.61938
2.73209
2.84449
2.95551
3.06395
3.16853
3.26792
3.36074
3.44562
3.52125
3.5864
3.63995
3.68099
3.70876
3.72279
0.718888
0.721395
0.726414
0.73396
0.744053
0.756721
0.771997
0.789924
0.810549
0.833928
0.860124
0.889207
0.921256
0.956355
0.9946
1.03609
1.08093
1.12924
1.18113
1.23674
1.29619
1.35959
1.42709
1.49879
1.57479
1.65518
1.74
1.82927
1.92296
2.02096
2.12311
2.22913
2.33868
2.45125
2.56626
2.68297
2.80048
2.91781
3.03379
3.14719
3.25664
3.36074
3.45802
3.54704
3.62639
3.69478
3.75103
3.79413
3.82331
3.83805
0.724055
0.7266
0.731695
0.739356
0.749605
0.762469
0.777985
0.796195
0.817151
0.840911
0.867542
0.897117
0.929719
0.96544
1.00438
1.04664
1.09234
1.1416
1.19455
1.25133
1.31206
1.3769
1.44598
1.51941
1.59733
1.67982
1.76695
1.85874
1.95517
2.05615
2.16151
2.27099
2.38421
2.5007
2.61983
2.74082
2.86278
2.98464
3.10522
3.2232
3.33717
3.44562
3.54704
3.63989
3.72271
3.7941
3.85284
3.89787
3.92836
3.94375
0.728539
0.731117
0.736279
0.744041
0.754424
0.76746
0.783185
0.801643
0.822889
0.846982
0.873993
0.903999
0.937086
0.97335
1.01289
1.05583
1.10229
1.15239
1.20627
1.26407
1.32595
1.39205
1.46252
1.5375
1.61711
1.70147
1.79064
1.88467
1.98354
2.08718
2.19541
2.30797
2.42449
2.54448
2.6673
2.79214
2.91809
3.04403
3.16874
3.29085
3.40887
3.52125
3.62639
3.72271
3.80864
3.88275
3.94374
3.9905
4.02217
4.03816
0.732314
0.734921
0.740139
0.747986
0.758484
0.771665
0.787567
0.806235
0.827726
0.852102
0.879435
0.909807
0.943305
0.980031
1.02009
1.06361
1.1107
1.16151
1.21619
1.27487
1.33773
1.40491
1.47657
1.55286
1.63393
1.71989
1.81082
1.90678
2.00775
2.11367
2.22438
2.3396
2.45898
2.582
2.708
2.83619
2.96558
3.09507
3.22337
3.34905
3.4706
3.5864
3.69478
3.7941
3.88275
3.95923
4.02217
4.07044
4.10314
4.11965
0.735361
0.73799
0.743254
0.75117
0.761761
0.77506
0.791105
0.809944
0.831634
0.856239
0.883834
0.914501
0.948335
0.985436
1.02592
1.0699
1.11752
1.16891
1.22423
1.28363
1.34728
1.41534
1.48798
1.56535
1.64761
1.73488
1.82726
1.9248
2.0275
2.1353
2.24804
2.36546
2.48719
2.6127
2.74134
2.87228
3.00454
3.13695
3.26821
3.39686
3.52133
3.63995
3.75103
3.85284
3.94374
4.02217
4.08674
4.13626
4.16981
4.18676
0.737661
0.740307
0.745606
0.753574
0.764236
0.777624
0.793778
0.812746
0.834586
0.859365
0.887159
0.918051
0.952138
0.989524
1.03032
1.07466
1.12268
1.17451
1.23032
1.29027
1.35453
1.42326
1.49664
1.57484
1.65801
1.74628
1.83976
1.93851
2.04254
2.15178
2.26608
2.38518
2.50871
2.63615
2.76681
2.89987
3.03432
3.16899
3.30253
3.43347
3.56018
3.68099
3.79413
3.89787
3.9905
4.07044
4.13626
4.18675
4.22095
4.23824
0.739201
0.741859
0.747182
0.755186
0.765895
0.779342
0.795569
0.814624
0.836566
0.861462
0.889388
0.920432
0.95469
0.992267
1.03328
1.07786
1.12614
1.17828
1.23442
1.29473
1.3594
1.42858
1.50247
1.58122
1.665
1.75395
1.84818
1.94775
2.05267
2.16289
2.27825
2.39849
2.52324
2.65198
2.78402
2.91852
3.05446
3.19066
3.32575
3.45823
3.58648
3.70876
3.82331
3.92836
4.02217
4.10314
4.16981
4.22095
4.2556
4.27311
0.739974
0.742637
0.747971
0.755993
0.766726
0.780203
0.796467
0.815565
0.837558
0.862512
0.890506
0.921626
0.955969
0.993643
1.03477
1.07947
1.12788
1.18016
1.23647
1.29697
1.36184
1.43125
1.50539
1.58443
1.66852
1.75781
1.85241
1.9524
2.05777
2.16848
2.28438
2.4052
2.53056
2.65996
2.79269
2.92792
3.06461
3.20158
3.33746
3.47073
3.59975
3.72279
3.83805
3.94375
4.03816
4.11965
4.18676
4.23824
4.27311
4.29074
)
;

boundaryField
{
    walls
    {
        type            zeroGradient;
    }
    frontAndBack
    {
        type            empty;
    }
}


// ************************************************************************* //
