/*--------------------------------*- C++ -*----------------------------------*\
| =========                 |                                                 |
| \\      /  F ield         | OpenFOAM: The Open Source CFD Toolbox           |
|  \\    /   O peration     | Version:  2406                                  |
|   \\  /    A nd           | Website:  www.openfoam.com                      |
|    \\/     M anipulation  |                                                 |
\*---------------------------------------------------------------------------*/
FoamFile
{
    version     2.0;
    format      ascii;
    arch        "LSB;label=32;scalar=64";
    class       volVectorField;
    location    "0.55";
    object      flux;
}
// * * * * * * * * * * * * * * * * * * * * * * * * * * * * * * * * * * * * * //

dimensions      [0 1 -1 1 0 0 0];

internalField   nonuniform List<vector> 
2500
(
(0.00106271 0.00106271 0)
(0.00316932 0.00106581 0)
(0.00522603 0.00107226 0)
(0.00720269 0.00108176 0)
(0.0090663 0.00109416 0)
(0.0107876 0.0011093 0)
(0.0123396 0.00112693 0)
(0.0136977 0.00114679 0)
(0.0148407 0.00116857 0)
(0.0157504 0.00119194 0)
(0.0164124 0.00121654 0)
(0.0168162 0.00124199 0)
(0.0169553 0.0012679 0)
(0.0168273 0.00129388 0)
(0.0164343 0.00131954 0)
(0.0157822 0.00134449 0)
(0.0148814 0.00136836 0)
(0.0137459 0.00139081 0)
(0.0123936 0.0014115 0)
(0.010846 0.00143014 0)
(0.00912752 0.00144648 0)
(0.00726539 0.00146028 0)
(0.00528913 0.00147138 0)
(0.0032301 0.00147965 0)
(0.00112099 0.00148499 0)
(-0.00100474 0.00148738 0)
(-0.00311335 0.00148683 0)
(-0.0051714 0.0014834 0)
(-0.00714628 0.0014772 0)
(-0.00900674 0.00146838 0)
(-0.0107234 0.00145713 0)
(-0.0122691 0.00144368 0)
(-0.0136196 0.00142828 0)
(-0.0147536 0.00141123 0)
(-0.0156535 0.00139284 0)
(-0.0163054 0.00137342 0)
(-0.016699 0.00135332 0)
(-0.0168286 0.00133289 0)
(-0.0166924 0.00131245 0)
(-0.0162928 0.00129235 0)
(-0.0156363 0.00127291 0)
(-0.0147336 0.00125445 0)
(-0.0135991 0.00123726 0)
(-0.0122509 0.0012216 0)
(-0.0107102 0.00120772 0)
(-0.00900151 0.00119585 0)
(-0.0071517 0.00118618 0)
(-0.00518994 0.00117886 0)
(-0.00314707 0.00117391 0)
(-0.00105464 0.00117077 0)
(0.00106581 0.00316932 0)
(0.00317887 0.00317887 0)
(0.00524198 0.00319812 0)
(0.00722459 0.00322649 0)
(0.00909384 0.00326358 0)
(0.0108204 0.00330883 0)
(0.0123771 0.00336155 0)
(0.0137394 0.00342091 0)
(0.0148858 0.00348602 0)
(0.0157983 0.00355587 0)
(0.0164624 0.00362939 0)
(0.0168675 0.00370545 0)
(0.0170072 0.0037829 0)
(0.016879 0.00386056 0)
(0.0164849 0.00393726 0)
(0.0158311 0.00401185 0)
(0.0149277 0.00408323 0)
(0.013789 0.00415034 0)
(0.012433 0.00421221 0)
(0.010881 0.00426797 0)
(0.00915766 0.00431684 0)
(0.00729029 0.00435817 0)
(0.00530849 0.00439144 0)
(0.00324371 0.00441624 0)
(0.00112873 0.00443235 0)
(-0.00100289 0.00443964 0)
(-0.00311732 0.00443818 0)
(-0.00518103 0.00442813 0)
(-0.0071613 0.00440983 0)
(-0.00902681 0.00438372 0)
(-0.0107481 0.00435037 0)
(-0.0122979 0.00431047 0)
(-0.013652 0.0042648 0)
(-0.0147891 0.0042142 0)
(-0.0156913 0.0041596 0)
(-0.0163449 0.00410198 0)
(-0.0167396 0.00404233 0)
(-0.0168695 0.00398168 0)
(-0.0167329 0.00392103 0)
(-0.0163323 0.00386139 0)
(-0.0156742 0.00380373 0)
(-0.0147693 0.00374896 0)
(-0.013632 0.00369797 0)
(-0.0122804 0.00365153 0)
(-0.010736 0.00361039 0)
(-0.00902306 0.00357518 0)
(-0.00716869 0.0035465 0)
(-0.00520222 0.00352485 0)
(-0.00315516 0.00351054 0)
(-0.00105778 0.00350252 0)
(0.00107226 0.00522603 0)
(0.00319812 0.00524198 0)
(0.00527365 0.00527365 0)
(0.00726816 0.00532044 0)
(0.00914864 0.00538164 0)
(0.0108856 0.00545631 0)
(0.0124516 0.00554331 0)
(0.0138222 0.00564128 0)
(0.0149756 0.00574873 0)
(0.0158938 0.00586401 0)
(0.016562 0.00598535 0)
(0.0169697 0.0061109 0)
(0.0171104 0.00623875 0)
(0.0169817 0.00636696 0)
(0.0165856 0.00649361 0)
(0.0159282 0.0066168 0)
(0.0150198 0.00673471 0)
(0.0138748 0.00684562 0)
(0.0125113 0.00694792 0)
(0.0109506 0.00704018 0)
(0.00921773 0.00712112 0)
(0.00733998 0.00718967 0)
(0.0053472 0.00724497 0)
(0.00327101 0.00728638 0)
(0.00114439 0.0073135 0)
(-0.000998907 0.00732616 0)
(-0.00312486 0.00732445 0)
(-0.00519975 0.00730867 0)
(-0.0071907 0.00727935 0)
(-0.00906619 0.00723724 0)
(-0.0107966 0.00718328 0)
(-0.0123546 0.00711859 0)
(-0.0137158 0.00704446 0)
(-0.0148588 0.00696228 0)
(-0.0157658 0.00687357 0)
(-0.0164226 0.00677993 0)
(-0.0168193 0.00668298 0)
(-0.0169499 0.0065844 0)
(-0.0168127 0.00648583 0)
(-0.0164101 0.00638892 0)
(-0.0157487 0.00629523 0)
(-0.0148394 0.00620627 0)
(-0.0136966 0.00612344 0)
(-0.0123385 0.00604802 0)
(-0.0107866 0.0059812 0)
(-0.0090654 0.00592401 0)
(-0.00720204 0.00587735 0)
(-0.0052259 0.00584201 0)
(-0.00316939 0.00581859 0)
(-0.00106266 0.0058066 0)
(0.00108176 0.00720269 0)
(0.00322649 0.00722459 0)
(0.00532044 0.00726816 0)
(0.00733259 0.00733259 0)
(0.00922971 0.00741688 0)
(0.010982 0.00751975 0)
(0.012562 0.0076396 0)
(0.0139448 0.0077746 0)
(0.0151086 0.00792267 0)
(0.016035 0.00808154 0)
(0.0167093 0.00824878 0)
(0.0171209 0.00842185 0)
(0.0172632 0.00859812 0)
(0.0171338 0.00877494 0)
(0.0167347 0.00894964 0)
(0.0160722 0.00911963 0)
(0.0151565 0.00928241 0)
(0.0140022 0.00943561 0)
(0.0126275 0.00957705 0)
(0.0110542 0.00970474 0)
(0.00930715 0.00981694 0)
(0.00741414 0.0099122 0)
(0.0054052 0.00998933 0)
(0.00331224 0.0100475 0)
(0.00116851 0.0100861 0)
(-0.000991939 0.0101049 0)
(-0.00313482 0.0101042 0)
(-0.00522613 0.0100842 0)
(-0.00723274 0.0100458 0)
(-0.00912288 0.00998991 0)
(-0.0108667 0.00991792 0)
(-0.0124367 0.00983133 0)
(-0.0138083 0.00973191 0)
(-0.0149599 0.00962157 0)
(-0.0158737 0.00950237 0)
(-0.0165355 0.00937649 0)
(-0.0169351 0.00924615 0)
(-0.0170666 0.0091136 0)
(-0.0169284 0.0089811 0)
(-0.0165229 0.00885083 0)
(-0.0158569 0.00872492 0)
(-0.0149411 0.00860539 0)
(-0.0137902 0.00849412 0)
(-0.0124227 0.00839284 0)
(-0.01086 0.0083031 0)
(-0.00912691 0.00822627 0)
(-0.00725069 0.0081635 0)
(-0.00526098 0.00811574 0)
(-0.00319057 0.00808366 0)
(-0.00106977 0.0080675 0)
(0.00109416 0.0090663 0)
(0.00326358 0.00909384 0)
(0.00538164 0.00914864 0)
(0.00741688 0.00922971 0)
(0.0093358 0.0093358 0)
(0.0111083 0.00946528 0)
(0.0127065 0.00961616 0)
(0.0141053 0.00978611 0)
(0.0152826 0.00997255 0)
(0.0162199 0.0101726 0)
(0.0169023 0.0103832 0)
(0.017319 0.0106012 0)
(0.0174635 0.0108233 0)
(0.0173332 0.0110462 0)
(0.0169303 0.0112664 0)
(0.016261 0.0114809 0)
(0.0153358 0.0116863 0)
(0.0141695 0.0118799 0)
(0.0127804 0.0120587 0)
(0.0111905 0.0122205 0)
(0.00942518 0.0123629 0)
(0.00751236 0.0124842 0)
(0.00548247 0.012583 0)
(0.00336776 0.012658 0)
(0.00120186 0.0127088 0)
(-0.000980813 0.012735 0)
(-0.0031456 0.0127369 0)
(-0.00525815 0.0127148 0)
(-0.00728499 0.0126699 0)
(-0.00919404 0.0126034 0)
(-0.0109552 0.012517 0)
(-0.0125407 0.0124125 0)
(-0.0139256 0.0122922 0)
(-0.0150883 0.0121584 0)
(-0.0160108 0.0120137 0)
(-0.0166788 0.0118608 0)
(-0.0170822 0.0117025 0)
(-0.017215 0.0115415 0)
(-0.0170754 0.0113806 0)
(-0.0166662 0.0112224 0)
(-0.0159942 0.0110696 0)
(-0.0150702 0.0109246 0)
(-0.0139091 0.0107896 0)
(-0.0125295 0.0106668 0)
(-0.0109532 0.0105581 0)
(-0.009205 0.0104649 0)
(-0.00731256 0.0103888 0)
(-0.00530574 0.0103308 0)
(-0.00321764 0.0102918 0)
(-0.00107883 0.0102721 0)
(0.0011093 0.0107876 0)
(0.00330883 0.0108204 0)
(0.00545631 0.0108856 0)
(0.00751975 0.010982 0)
(0.00946528 0.0111083 0)
(0.0112624 0.0112624 0)
(0.0128829 0.011442 0)
(0.0143012 0.0116443 0)
(0.0154951 0.0118663 0)
(0.0164457 0.0121045 0)
(0.017138 0.0123553 0)
(0.017561 0.012615 0)
(0.0177082 0.0128797 0)
(0.0175769 0.0131453 0)
(0.0171694 0.013408 0)
(0.0164921 0.013664 0)
(0.0155555 0.0139094 0)
(0.0143746 0.0141408 0)
(0.0129681 0.014355 0)
(0.0113583 0.0145491 0)
(0.00957089 0.0147205 0)
(0.00763418 0.0148671 0)
(0.00557901 0.0149872 0)
(0.0034381 0.0150796 0)
(0.00124551 0.0151435 0)
(-0.000963893 0.0151786 0)
(-0.00315501 0.0151853 0)
(-0.00529305 0.015164 0)
(-0.00734415 0.0151161 0)
(-0.00927584 0.0150431 0)
(-0.0110577 0.0149468 0)
(-0.0126616 0.0148297 0)
(-0.0140624 0.0146942 0)
(-0.0152384 0.0145431 0)
(-0.0161712 0.0143796 0)
(-0.0168467 0.0142066 0)
(-0.0172544 0.0140274 0)
(-0.0173886 0.0138452 0)
(-0.0172475 0.0136631 0)
(-0.0168339 0.0134842 0)
(-0.0161547 0.0133115 0)
(-0.015221 0.0131476 0)
(-0.014048 0.0129953 0)
(-0.0126542 0.0128567 0)
(-0.0110619 0.0127341 0)
(-0.00929614 0.0126291 0)
(-0.00738479 0.0125433 0)
(-0.00535804 0.0124779 0)
(-0.00324929 0.0124338 0)
(-0.00108942 0.0124117 0)
(0.00112693 0.0123396 0)
(0.00336155 0.0123771 0)
(0.00554331 0.0124516 0)
(0.0076396 0.012562 0)
(0.00961616 0.0127065 0)
(0.011442 0.0128829 0)
(0.0130884 0.0130884 0)
(0.0145295 0.01332 0)
(0.0157428 0.0135741 0)
(0.0167089 0.0138469 0)
(0.0174129 0.0141342 0)
(0.0178434 0.0144318 0)
(0.0179938 0.0147351 0)
(0.0178616 0.0150398 0)
(0.0174489 0.0153412 0)
(0.0167623 0.0156352 0)
(0.0158127 0.0159173 0)
(0.0146151 0.0161838 0)
(0.0131887 0.0164308 0)
(0.011556 0.0166553 0)
(0.0097432 0.0168543 0)
(0.00777907 0.0170254 0)
(0.00569495 0.0171667 0)
(0.00352403 0.0172769 0)
(0.00130091 0.0173552 0)
(-0.000939038 0.0174013 0)
(-0.00316019 0.0174156 0)
(-0.00532728 0.0173987 0)
(-0.00740595 0.0173522 0)
(-0.00936334 0.0172778 0)
(-0.0111686 0.0171776 0)
(-0.0127933 0.0170543 0)
(-0.0142121 0.0169109 0)
(-0.0154029 0.0167504 0)
(-0.0163474 0.0165761 0)
(-0.017031 0.0163917 0)
(-0.0174436 0.0162005 0)
(-0.0175793 0.0160062 0)
(-0.0174364 0.015812 0)
(-0.0170179 0.0156214 0)
(-0.0163307 0.0154375 0)
(-0.0153864 0.0152633 0)
(-0.0142 0.0151014 0)
(-0.0127907 0.0149544 0)
(-0.0111808 0.0148243 0)
(-0.00939577 0.0147131 0)
(-0.00746373 0.0146222 0)
(-0.0054152 0.014553 0)
(-0.00328388 0.0145063 0)
(-0.00110099 0.0144829 0)
(0.00114679 0.0136977 0)
(0.00342091 0.0137394 0)
(0.00564128 0.0138222 0)
(0.0077746 0.0139448 0)
(0.00978611 0.0141053 0)
(0.0116443 0.0143012 0)
(0.01332 0.0145295 0)
(0.0147869 0.0147869 0)
(0.016022 0.0150693 0)
(0.0170058 0.0153726 0)
(0.0177229 0.0156921 0)
(0.018162 0.0160232 0)
(0.0183161 0.0163608 0)
(0.018183 0.0167001 0)
(0.0177648 0.0170361 0)
(0.0170681 0.0173641 0)
(0.0161041 0.0176794 0)
(0.0148882 0.0179776 0)
(0.0134397 0.0182549 0)
(0.0117818 0.0185076 0)
(0.00994095 0.0187326 0)
(0.00794659 0.0189274 0)
(0.00583055 0.0190899 0)
(0.00362661 0.0192188 0)
(0.00136993 0.0193131 0)
(-0.000903533 0.0193728 0)
(-0.00315758 0.0193981 0)
(-0.0053564 0.0193902 0)
(-0.00746514 0.0193504 0)
(-0.00945046 0.0192808 0)
(-0.0112811 0.0191839 0)
(-0.0129283 0.0190625 0)
(-0.0143664 0.0189199 0)
(-0.0155731 0.0187593 0)
(-0.0165299 0.0185845 0)
(-0.0172223 0.0183991 0)
(-0.01764 0.0182069 0)
(-0.0177771 0.0180114 0)
(-0.0176322 0.0178163 0)
(-0.0172084 0.017625 0)
(-0.0165128 0.0174408 0)
(-0.0155571 0.0172664 0)
(-0.0143569 0.0171047 0)
(-0.0129313 0.0169581 0)
(-0.0113032 0.0168285 0)
(-0.00949822 0.0167179 0)
(-0.00754485 0.0166277 0)
(-0.00547391 0.016559 0)
(-0.0033194 0.0165128 0)
(-0.00111287 0.0164895 0)
(0.00116857 0.0148407 0)
(0.00348602 0.0148858 0)
(0.00574873 0.0149756 0)
(0.00792267 0.0151086 0)
(0.00997255 0.0152826 0)
(0.0118663 0.0154951 0)
(0.0135741 0.0157428 0)
(0.0150693 0.016022 0)
(0.0163285 0.0163285 0)
(0.0173317 0.0166577 0)
(0.0180634 0.0170047 0)
(0.0185121 0.0173643 0)
(0.0186707 0.0177314 0)
(0.0185369 0.0181006 0)
(0.0181129 0.0184666 0)
(0.0174055 0.0188243 0)
(0.0164262 0.0191687 0)
(0.0151906 0.0194953 0)
(0.0137186 0.0197998 0)
(0.0120337 0.0200785 0)
(0.010163 0.020328 0)
(0.00813638 0.0205458 0)
(0.00598633 0.0207297 0)
(0.00374725 0.0208784 0)
(0.00145494 0.020991 0)
(-0.000854012 0.0210674 0)
(-0.0031428 0.0211081 0)
(-0.00537504 0.0211144 0)
(-0.00751532 0.0210878 0)
(-0.00952983 0.0210306 0)
(-0.0113869 0.0209456 0)
(-0.0130574 0.0208357 0)
(-0.0145153 0.0207043 0)
(-0.0157383 0.020555 0)
(-0.0167076 0.0203916 0)
(-0.0174087 0.0202178 0)
(-0.0178314 0.0200375 0)
(-0.0179698 0.0198543 0)
(-0.0178228 0.0196716 0)
(-0.0173934 0.0194929 0)
(-0.0166894 0.0193211 0)
(-0.0157224 0.0191591 0)
(-0.0145084 0.0190092 0)
(-0.0130669 0.0188737 0)
(-0.0114209 0.0187543 0)
(-0.00959661 0.0186527 0)
(-0.00762264 0.0185699 0)
(-0.00553015 0.018507 0)
(-0.0033534 0.0184647 0)
(-0.00112424 0.0184435 0)
(0.00119194 0.0157504 0)
(0.00355587 0.0157983 0)
(0.00586401 0.0158938 0)
(0.00808154 0.016035 0)
(0.0101726 0.0162199 0)
(0.0121045 0.0164457 0)
(0.0138469 0.0167089 0)
(0.0153726 0.0170058 0)
(0.0166577 0.0173317 0)
(0.017682 0.017682 0)
(0.0184296 0.0180513 0)
(0.0188887 0.0184345 0)
(0.0190524 0.0188258 0)
(0.0189182 0.0192197 0)
(0.0184885 0.0196108 0)
(0.0177702 0.0199936 0)
(0.0167751 0.020363 0)
(0.0155193 0.0207143 0)
(0.0140228 0.021043 0)
(0.01231 0.0213454 0)
(0.0104083 0.021618 0)
(0.00834829 0.0218583 0)
(0.00616312 0.0220641 0)
(0.00388784 0.0222341 0)
(0.00155893 0.0223676 0)
(-0.00078636 0.0224647 0)
(-0.00311058 0.022526 0)
(-0.00537674 0.0225529 0)
(-0.00754888 0.0225472 0)
(-0.00959269 0.0225114 0)
(-0.0114761 0.0224483 0)
(-0.0131696 0.0223611 0)
(-0.014647 0.0222534 0)
(-0.0158858 0.0221287 0)
(-0.0168671 0.0219909 0)
(-0.0175764 0.0218437 0)
(-0.0180035 0.0216907 0)
(-0.018143 0.0215354 0)
(-0.0179936 0.021381 0)
(-0.0175589 0.0212305 0)
(-0.0168466 0.0210867 0)
(-0.015869 0.0209517 0)
(-0.0146423 0.0208276 0)
(-0.0131862 0.020716 0)
(-0.0115242 0.0206182 0)
(-0.00968265 0.0205354 0)
(-0.00769048 0.0204683 0)
(-0.00557909 0.0204175 0)
(-0.00338294 0.0203835 0)
(-0.00113412 0.0203664 0)
(0.00121654 0.0164124 0)
(0.00362939 0.0164624 0)
(0.00598535 0.016562 0)
(0.00824878 0.0167093 0)
(0.0103832 0.0169023 0)
(0.0123553 0.017138 0)
(0.0141342 0.0174129 0)
(0.0156921 0.0177229 0)
(0.0170047 0.0180634 0)
(0.0180513 0.0184296 0)
(0.0188159 0.0188159 0)
(0.0192865 0.019217 0)
(0.019456 0.019627 0)
(0.0193219 0.0200403 0)
(0.0188867 0.0204513 0)
(0.0181578 0.0208544 0)
(0.0171469 0.0212445 0)
(0.0158706 0.0216168 0)
(0.0143497 0.0219667 0)
(0.0126087 0.0222906 0)
(0.0106759 0.0225851 0)
(0.00858245 0.0228476 0)
(0.00636215 0.0230762 0)
(0.0040508 0.0232697 0)
(0.00168557 0.0234276 0)
(-0.000695606 0.0235501 0)
(-0.00305462 0.0236381 0)
(-0.00535386 0.0236932 0)
(-0.00755683 0.0237175 0)
(-0.00962876 0.0237134 0)
(-0.0115371 0.0236842 0)
(-0.0132523 0.0236329 0)
(-0.0147477 0.0235633 0)
(-0.0160007 0.0234789 0)
(-0.0169926 0.0233833 0)
(-0.0177089 0.02328 0)
(-0.0181397 0.0231724 0)
(-0.0182795 0.0230634 0)
(-0.0181276 0.022956 0)
(-0.0176878 0.0228524 0)
(-0.0169682 0.0227545 0)
(-0.0159815 0.022664 0)
(-0.0147441 0.0225821 0)
(-0.0132762 0.0225096 0)
(-0.0116015 0.0224471 0)
(-0.00974651 0.022395 0)
(-0.00774052 0.0223533 0)
(-0.005615 0.022322 0)
(-0.00340454 0.0223013 0)
(-0.00114132 0.0222909 0)
(0.00124199 0.0168162 0)
(0.00370545 0.0168675 0)
(0.0061109 0.0169697 0)
(0.00842185 0.0171209 0)
(0.0106012 0.017319 0)
(0.012615 0.017561 0)
(0.0144318 0.0178434 0)
(0.0160232 0.018162 0)
(0.0173643 0.0185121 0)
(0.0184345 0.0188887 0)
(0.019217 0.0192865 0)
(0.0196998 0.0196998 0)
(0.0198758 0.020123 0)
(0.0197425 0.0205502 0)
(0.0193026 0.0209758 0)
(0.0185635 0.0213944 0)
(0.0175375 0.0218008 0)
(0.0162414 0.0221903 0)
(0.0146967 0.0225586 0)
(0.0129283 0.0229019 0)
(0.0109653 0.0232173 0)
(0.00883939 0.0235022 0)
(0.00658521 0.023755 0)
(0.00423923 0.0239747 0)
(0.00183935 0.0241612 0)
(-0.000575801 0.0243149 0)
(-0.00296746 0.0244369 0)
(-0.00529742 0.0245291 0)
(-0.00752867 0.0245938 0)
(-0.00962599 0.0246338 0)
(-0.0115566 0.0246521 0)
(-0.0132904 0.0246522 0)
(-0.0148011 0.0246375 0)
(-0.0160658 0.0246114 0)
(-0.017066 0.0245773 0)
(-0.0177873 0.0245383 0)
(-0.0182201 0.0244972 0)
(-0.0183593 0.0244563 0)
(-0.0182047 0.0244176 0)
(-0.0177604 0.0243825 0)
(-0.017035 0.0243519 0)
(-0.0160414 0.0243265 0)
(-0.0147967 0.0243061 0)
(-0.0133212 0.0242907 0)
(-0.0116389 0.0242795 0)
(-0.00977652 0.0242719 0)
(-0.00776339 0.0242671 0)
(-0.00563106 0.0242644 0)
(-0.00341405 0.0242629 0)
(-0.00114446 0.0242624 0)
(0.0012679 0.0169553 0)
(0.0037829 0.0170072 0)
(0.00623875 0.0171104 0)
(0.00859812 0.0172632 0)
(0.0108233 0.0174635 0)
(0.0128797 0.0177082 0)
(0.0147351 0.0179938 0)
(0.0163608 0.0183161 0)
(0.0177314 0.0186707 0)
(0.0188258 0.0190524 0)
(0.019627 0.019456 0)
(0.020123 0.0198758 0)
(0.0203063 0.0203063 0)
(0.0201747 0.0207418 0)
(0.019731 0.0211769 0)
(0.0189828 0.0216061 0)
(0.0179428 0.0220246 0)
(0.0166284 0.0224278 0)
(0.0150613 0.0228117 0)
(0.0132674 0.0231728 0)
(0.0112761 0.0235084 0)
(0.00912016 0.0238163 0)
(0.0068347 0.0240954 0)
(0.004457 0.0243449 0)
(0.0020257 0.024565 0)
(-0.000419885 0.0247567 0)
(-0.00284035 0.0249213 0)
(-0.00519694 0.025061 0)
(-0.00745217 0.0251784 0)
(-0.00957045 0.0252765 0)
(-0.0115187 0.0253584 0)
(-0.0132669 0.0254275 0)
(-0.0147885 0.0254871 0)
(-0.0160609 0.0255404 0)
(-0.0170657 0.0255902 0)
(-0.0177891 0.0256391 0)
(-0.0182217 0.0256889 0)
(-0.0183591 0.0257412 0)
(-0.0182014 0.0257967 0)
(-0.0177534 0.0258556 0)
(-0.0170242 0.0259173 0)
(-0.0160273 0.025981 0)
(-0.0147799 0.026045 0)
(-0.0133028 0.0261077 0)
(-0.0116202 0.0261668 0)
(-0.00975887 0.0262203 0)
(-0.00774807 0.026266 0)
(-0.00561919 0.0263022 0)
(-0.00340655 0.0263272 0)
(-0.0011419 0.02634 0)
(0.00129388 0.0168273 0)
(0.00386056 0.016879 0)
(0.00636696 0.0169817 0)
(0.00877494 0.0171338 0)
(0.0110462 0.0173332 0)
(0.0131453 0.0175769 0)
(0.0150398 0.0178616 0)
(0.0167001 0.018183 0)
(0.0181006 0.0185369 0)
(0.0192197 0.0189182 0)
(0.0200403 0.0193219 0)
(0.0205502 0.0197425 0)
(0.0207418 0.0201747 0)
(0.0206131 0.0206131 0)
(0.0201669 0.0210524 0)
(0.0194112 0.0214876 0)
(0.0183592 0.0219141 0)
(0.0170285 0.0223277 0)
(0.0154417 0.0227248 0)
(0.013625 0.0231023 0)
(0.0116088 0.0234581 0)
(0.00942641 0.0237904 0)
(0.00711377 0.0240985 0)
(0.00470889 0.0243821 0)
(0.00225112 0.0246421 0)
(-0.000219542 0.0248798 0)
(-0.0026631 0.025097 0)
(-0.00504028 0.0252962 0)
(-0.00731321 0.0254805 0)
(-0.00944604 0.0256529 0)
(-0.0114056 0.0258167 0)
(-0.0131617 0.0259752 0)
(-0.0146882 0.0261315 0)
(-0.0159627 0.0262883 0)
(-0.0169673 0.026448 0)
(-0.0176885 0.026612 0)
(-0.0181179 0.0267813 0)
(-0.0182516 0.0269561 0)
(-0.0180903 0.0271355 0)
(-0.0176397 0.027318 0)
(-0.0169096 0.0275012 0)
(-0.0159137 0.0276822 0)
(-0.01467 0.0278574 0)
(-0.0131995 0.0280229 0)
(-0.0115263 0.0281747 0)
(-0.0096773 0.0283086 0)
(-0.00768149 0.028421 0)
(-0.00556988 0.0285085 0)
(-0.00337624 0.0285684 0)
(-0.00113169 0.0285988 0)
(0.00131954 0.0164343 0)
(0.00393726 0.0164849 0)
(0.00649361 0.0165856 0)
(0.00894964 0.0167347 0)
(0.0112664 0.0169303 0)
(0.013408 0.0171694 0)
(0.0153412 0.0174489 0)
(0.0170361 0.0177648 0)
(0.0184666 0.0181129 0)
(0.0196108 0.0184885 0)
(0.0204513 0.0188867 0)
(0.0209758 0.0193026 0)
(0.0211769 0.019731 0)
(0.0210524 0.0201669 0)
(0.0206055 0.0206055 0)
(0.0198445 0.0210422 0)
(0.0187829 0.0214729 0)
(0.0174391 0.021894 0)
(0.015836 0.0223024 0)
(0.0140007 0.0226956 0)
(0.0119642 0.023072 0)
(0.00976053 0.0234307 0)
(0.00742644 0.0237714 0)
(0.00500069 0.0240946 0)
(0.00252331 0.0244018 0)
(3.49484e-05 0.0246949 0)
(-0.00242387 0.0249762 0)
(-0.00481343 0.0252489 0)
(-0.00709556 0.0255162 0)
(-0.00923428 0.0257816 0)
(-0.0111964 0.0260483 0)
(-0.0129521 0.0263196 0)
(-0.0144754 0.0265983 0)
(-0.0157444 0.0268866 0)
(-0.0167421 0.0271858 0)
(-0.0174557 0.0274966 0)
(-0.0178776 0.0278183 0)
(-0.018005 0.0281494 0)
(-0.0178395 0.0284872 0)
(-0.0173877 0.028828 0)
(-0.01666 0.0291668 0)
(-0.0156711 0.0294983 0)
(-0.0144391 0.0298161 0)
(-0.0129856 0.0301137 0)
(-0.0113345 0.0303844 0)
(-0.00951257 0.0306218 0)
(-0.00754824 0.0308198 0)
(-0.00547182 0.0309732 0)
(-0.00331625 0.031078 0)
(-0.00111151 0.031131 0)
(0.00134449 0.0157822 0)
(0.00401185 0.0158311 0)
(0.0066168 0.0159282 0)
(0.00911963 0.0160722 0)
(0.0114809 0.016261 0)
(0.013664 0.0164921 0)
(0.0156352 0.0167623 0)
(0.0173641 0.0170681 0)
(0.0188243 0.0174055 0)
(0.0199936 0.0177702 0)
(0.0208544 0.0181578 0)
(0.0213944 0.0185635 0)
(0.0216061 0.0189828 0)
(0.0214876 0.0194112 0)
(0.0210422 0.0198445 0)
(0.0202787 0.0202787 0)
(0.019211 0.0207103 0)
(0.017858 0.0211364 0)
(0.0162433 0.0215546 0)
(0.0143947 0.0219633 0)
(0.0123439 0.0223616 0)
(0.0101257 0.0227494 0)
(0.00777775 0.0231274 0)
(0.00533937 0.0234968 0)
(0.00285133 0.0238598 0)
(0.000354868 0.0242192 0)
(-0.00210902 0.0245781 0)
(-0.00450029 0.0249401 0)
(-0.0067806 0.025309 0)
(-0.00891399 0.0256885 0)
(-0.0108675 0.0260822 0)
(-0.0126117 0.0264931 0)
(-0.0141213 0.0269236 0)
(-0.0153752 0.0273752 0)
(-0.0163573 0.0278483 0)
(-0.0170561 0.0283421 0)
(-0.0174651 0.0288543 0)
(-0.0175826 0.0293812 0)
(-0.0174118 0.0299175 0)
(-0.0169601 0.0304568 0)
(-0.0162392 0.0309912 0)
(-0.0152645 0.0315119 0)
(-0.0140546 0.0320093 0)
(-0.0126311 0.0324734 0)
(-0.0110182 0.0328941 0)
(-0.00924198 0.0332619 0)
(-0.00733007 0.033568 0)
(-0.00531168 0.0338048 0)
(-0.00321844 0.0339662 0)
(-0.00107864 0.0340479 0)
(0.00136836 0.0148814 0)
(0.00408323 0.0149277 0)
(0.00673471 0.0150198 0)
(0.00928241 0.0151565 0)
(0.0116863 0.0153358 0)
(0.0139094 0.0155555 0)
(0.0159173 0.0158127 0)
(0.0176794 0.0161041 0)
(0.0191687 0.0164262 0)
(0.020363 0.0167751 0)
(0.0212445 0.0171469 0)
(0.0218008 0.0175375 0)
(0.0220246 0.0179428 0)
(0.0219141 0.0183592 0)
(0.0214729 0.0187829 0)
(0.0207103 0.019211 0)
(0.0196406 0.0196406 0)
(0.0182834 0.0200698 0)
(0.016663 0.0204971 0)
(0.0148078 0.0209218 0)
(0.0127503 0.0213441 0)
(0.0105262 0.0217648 0)
(0.00817378 0.0221856 0)
(0.00573315 0.0226089 0)
(0.0032457 0.0230379 0)
(0.000753205 0.0234761 0)
(-0.00170295 0.0239278 0)
(-0.00408252 0.0243972 0)
(-0.00634715 0.0248888 0)
(-0.00846109 0.0254066 0)
(-0.0103918 0.0259545 0)
(-0.0121107 0.0265354 0)
(-0.0135932 0.0271513 0)
(-0.0148197 0.0278028 0)
(-0.0157751 0.0284892 0)
(-0.0164497 0.0292079 0)
(-0.0168386 0.0299545 0)
(-0.0169418 0.0307226 0)
(-0.0167639 0.0315042 0)
(-0.016314 0.0322891 0)
(-0.0156049 0.0330656 0)
(-0.014653 0.033821 0)
(-0.0134777 0.0345413 0)
(-0.0121008 0.0352123 0)
(-0.010546 0.0358197 0)
(-0.00883867 0.0363501 0)
(-0.00700537 0.0367909 0)
(-0.00507362 0.0371316 0)
(-0.00307314 0.0373637 0)
(-0.00102982 0.0374812 0)
(0.00139081 0.0137459 0)
(0.00415034 0.013789 0)
(0.00684562 0.0138748 0)
(0.00943561 0.0140022 0)
(0.0118799 0.0141695 0)
(0.0141408 0.0143746 0)
(0.0161838 0.0146151 0)
(0.0179776 0.0148882 0)
(0.0194953 0.0151906 0)
(0.0207143 0.0155193 0)
(0.0216168 0.0158706 0)
(0.0221903 0.0162414 0)
(0.0224278 0.0166284 0)
(0.0223277 0.0170285 0)
(0.021894 0.0174391 0)
(0.0211364 0.017858 0)
(0.0200698 0.0182834 0)
(0.0187145 0.0187145 0)
(0.0170953 0.0191508 0)
(0.0152417 0.0195928 0)
(0.0131869 0.020042 0)
(0.0109672 0.0205003 0)
(0.00862186 0.0209708 0)
(0.00619165 0.0214571 0)
(0.00371855 0.0219636 0)
(0.0012448 0.0224951 0)
(-0.00118793 0.0230568 0)
(-0.00353931 0.0236541 0)
(-0.00577118 0.0242921 0)
(-0.00784823 0.0249756 0)
(-0.0097387 0.0257087 0)
(-0.0114149 0.0264941 0)
(-0.0128539 0.0273335 0)
(-0.0140373 0.0282266 0)
(-0.0149522 0.0291712 0)
(-0.0155908 0.0301628 0)
(-0.0159503 0.0311944 0)
(-0.0160329 0.0322566 0)
(-0.0158454 0.0333375 0)
(-0.0153987 0.0344227 0)
(-0.0147073 0.035496 0)
(-0.0137888 0.0365394 0)
(-0.0126633 0.0375337 0)
(-0.0113527 0.0384593 0)
(-0.00988051 0.0392967 0)
(-0.00827083 0.0400275 0)
(-0.00654852 0.0406347 0)
(-0.00473885 0.0411038 0)
(-0.00286889 0.0414233 0)
(-0.000961211 0.0415849 0)
(0.0014115 0.0123936 0)
(0.00421221 0.012433 0)
(0.00694792 0.0125113 0)
(0.00957705 0.0126275 0)
(0.0120587 0.0127804 0)
(0.014355 0.0129681 0)
(0.0164308 0.0131887 0)
(0.0182549 0.0134397 0)
(0.0197998 0.0137186 0)
(0.021043 0.0140228 0)
(0.0219667 0.0143497 0)
(0.0225586 0.0146967 0)
(0.0228117 0.0150613 0)
(0.0227248 0.0154417 0)
(0.0223024 0.015836 0)
(0.0215546 0.0162433 0)
(0.0204971 0.016663 0)
(0.0191508 0.0170953 0)
(0.0175413 0.0175413 0)
(0.015699 0.0180029 0)
(0.0136578 0.0184828 0)
(0.0114551 0.0189846 0)
(0.00913056 0.0195128 0)
(0.00672592 0.0200725 0)
(0.00428368 0.0206697 0)
(0.00184644 0.0213106 0)
(-0.00054393 0.0220019 0)
(-0.00284721 0.02275 0)
(-0.00502561 0.0235613 0)
(-0.00704455 0.0244411 0)
(-0.00887336 0.0253941 0)
(-0.0104858 0.0264231 0)
(-0.0118607 0.0275293 0)
(-0.0129819 0.0287114 0)
(-0.0138389 0.0299656 0)
(-0.0144265 0.0312852 0)
(-0.0147448 0.0326601 0)
(-0.0147987 0.0340772 0)
(-0.0145978 0.0355202 0)
(-0.0141554 0.0369695 0)
(-0.0134882 0.0384032 0)
(-0.0126154 0.0397971 0)
(-0.0115578 0.0411254 0)
(-0.0103377 0.042362 0)
(-0.00897779 0.0434807 0)
(-0.00750075 0.0444568 0)
(-0.0059291 0.0452679 0)
(-0.00428502 0.0458945 0)
(-0.00259203 0.0463212 0)
(-0.000868212 0.0465371 0)
(0.00143014 0.010846 0)
(0.00426797 0.010881 0)
(0.00704018 0.0109506 0)
(0.00970474 0.0110542 0)
(0.0122205 0.0111905 0)
(0.0145491 0.0113583 0)
(0.0166553 0.011556 0)
(0.0185076 0.0117818 0)
(0.0200785 0.0120337 0)
(0.0213454 0.01231 0)
(0.0222906 0.0126087 0)
(0.0229019 0.0129283 0)
(0.0231728 0.0132674 0)
(0.0231023 0.013625 0)
(0.0226956 0.0140007 0)
(0.0219633 0.0143947 0)
(0.0209218 0.0148078 0)
(0.0195928 0.0152417 0)
(0.0180029 0.015699 0)
(0.0161832 0.0161832 0)
(0.0141685 0.0166987 0)
(0.0119972 0.0172508 0)
(0.00970978 0.0178459 0)
(0.00734858 0.018491 0)
(0.00495667 0.0191937 0)
(0.00257699 0.0199622 0)
(0.000251466 0.0208047 0)
(-0.00197995 0.0217293 0)
(-0.00408009 0.0227435 0)
(-0.00601542 0.023854 0)
(-0.00775673 0.0250659 0)
(-0.00927975 0.0263823 0)
(-0.0105656 0.027804 0)
(-0.0116009 0.0293289 0)
(-0.0123785 0.0309512 0)
(-0.0128963 0.0326616 0)
(-0.0131582 0.0344468 0)
(-0.0131728 0.0362891 0)
(-0.0129531 0.0381669 0)
(-0.0125156 0.0400546 0)
(-0.0118797 0.0419231 0)
(-0.0110666 0.0437407 0)
(-0.0100984 0.0454738 0)
(-0.00899745 0.0470878 0)
(-0.00778563 0.0485485 0)
(-0.00648364 0.0498235 0)
(-0.0051109 0.050883 0)
(-0.00368552 0.0517018 0)
(-0.00222629 0.0522595 0)
(-0.00074535 0.0525416 0)
(0.00144648 0.00912752 0)
(0.00431684 0.00915766 0)
(0.00712112 0.00921773 0)
(0.00981694 0.00930715 0)
(0.0123629 0.00942518 0)
(0.0147205 0.00957089 0)
(0.0168543 0.0097432 0)
(0.0187326 0.00994095 0)
(0.020328 0.010163 0)
(0.021618 0.0104083 0)
(0.0225851 0.0106759 0)
(0.0232173 0.0109653 0)
(0.0235084 0.0112761 0)
(0.0234581 0.0116088 0)
(0.023072 0.0119642 0)
(0.0223616 0.0123439 0)
(0.0213441 0.0127503 0)
(0.020042 0.0131869 0)
(0.0184828 0.0136578 0)
(0.0166987 0.0141685 0)
(0.0147255 0.0147255 0)
(0.0126023 0.015336 0)
(0.0103707 0.0160085 0)
(0.00807372 0.0167521 0)
(0.00575487 0.0175769 0)
(0.00345739 0.0184929 0)
(0.00122313 0.0195105 0)
(-0.000908376 0.0206398 0)
(-0.00290087 0.02189 0)
(-0.0047222 0.0232692 0)
(-0.00634506 0.0247834 0)
(-0.00774766 0.0264362 0)
(-0.00891412 0.0282283 0)
(-0.00983476 0.0301565 0)
(-0.0105062 0.0322132 0)
(-0.0109309 0.0343862 0)
(-0.0111173 0.0366583 0)
(-0.0110786 0.0390067 0)
(-0.0108324 0.0414034 0)
(-0.0103992 0.0438157 0)
(-0.00980204 0.046206 0)
(-0.00906464 0.0485334 0)
(-0.00821075 0.0507545 0)
(-0.007263 0.0528245 0)
(-0.0062421 0.0546992 0)
(-0.00516623 0.0563365 0)
(-0.00405079 0.0576978 0)
(-0.00290859 0.0587501 0)
(-0.00175221 0.0594671 0)
(-0.000586078 0.0598299 0)
(0.00146028 0.00726539 0)
(0.00435817 0.00729029 0)
(0.00718967 0.00733998 0)
(0.0099122 0.00741414 0)
(0.0124842 0.00751236 0)
(0.0148671 0.00763418 0)
(0.0170254 0.00777907 0)
(0.0189274 0.00794659 0)
(0.0205458 0.00813638 0)
(0.0218583 0.00834829 0)
(0.0228476 0.00858245 0)
(0.0235022 0.00883939 0)
(0.0238163 0.00912016 0)
(0.0237904 0.00942641 0)
(0.0234307 0.00976053 0)
(0.0227494 0.0101257 0)
(0.0217648 0.0105262 0)
(0.0205003 0.0109672 0)
(0.0189846 0.0114551 0)
(0.0172508 0.0119972 0)
(0.015336 0.0126023 0)
(0.0132802 0.0132802 0)
(0.0111259 0.0140417 0)
(0.00891697 0.0148986 0)
(0.00669739 0.0158633 0)
(0.00451064 0.0169487 0)
(0.00239841 0.0181676 0)
(0.000399594 0.0195326 0)
(-0.0014507 0.0210549 0)
(-0.00312208 0.0227446 0)
(-0.00458968 0.0246091 0)
(-0.0058348 0.0266528 0)
(-0.00684534 0.0288764 0)
(-0.0076161 0.0312758 0)
(-0.00814868 0.0338417 0)
(-0.00845122 0.0365588 0)
(-0.00853782 0.0394053 0)
(-0.00842769 0.0423526 0)
(-0.0081441 0.0453656 0)
(-0.00771306 0.0484026 0)
(-0.00716195 0.0514162 0)
(-0.00651809 0.0543543 0)
(-0.0058073 0.0571614 0)
(-0.0050527 0.0597804 0)
(-0.00427363 0.0621546 0)
(-0.00348507 0.0642298 0)
(-0.00269728 0.0659564 0)
(-0.00191626 0.0672918 0)
(-0.00114653 0.068202 0)
(-0.000382559 0.0686627 0)
(0.00147138 0.00528913 0)
(0.00439144 0.00530849 0)
(0.00724497 0.0053472 0)
(0.00998933 0.0054052 0)
(0.012583 0.00548247 0)
(0.0149872 0.00557901 0)
(0.0171667 0.00569495 0)
(0.0190899 0.00583055 0)
(0.0207297 0.00598633 0)
(0.0220641 0.00616312 0)
(0.0230762 0.00636215 0)
(0.023755 0.00658521 0)
(0.0240954 0.0068347 0)
(0.0240985 0.00711377 0)
(0.0237714 0.00742644 0)
(0.0231274 0.00777775 0)
(0.0221856 0.00817378 0)
(0.0209708 0.00862186 0)
(0.0195128 0.00913056 0)
(0.0178459 0.00970978 0)
(0.0160085 0.0103707 0)
(0.0140417 0.0111259 0)
(0.0119891 0.0119891 0)
(0.00989532 0.012975 0)
(0.00780497 0.0140991 0)
(0.00576172 0.0153774 0)
(0.003807 0.0168258 0)
(0.00197893 0.0184598 0)
(0.000311163 0.0202935 0)
(-0.00116808 0.0223393 0)
(-0.00243688 0.0246066 0)
(-0.00348035 0.0271011 0)
(-0.0042911 0.029824 0)
(-0.0048694 0.0327707 0)
(-0.00522314 0.0359299 0)
(-0.00536737 0.039283 0)
(-0.00532352 0.0428035 0)
(-0.00511832 0.0464562 0)
(-0.0047824 0.0501974 0)
(-0.00434863 0.0539753 0)
(-0.00385034 0.0577306 0)
(-0.00331943 0.0613976 0)
(-0.0027846 0.0649064 0)
(-0.00226974 0.0681846 0)
(-0.0017927 0.0711599 0)
(-0.00136445 0.0737632 0)
(-0.000988785 0.0759311 0)
(-0.000663016 0.077609 0)
(-0.000381327 0.0787531 0)
(-0.00012538 0.0793325 0)
(0.00147965 0.0032301 0)
(0.00441624 0.00324371 0)
(0.00728638 0.00327101 0)
(0.0100475 0.00331224 0)
(0.012658 0.00336776 0)
(0.0150796 0.0034381 0)
(0.0172769 0.00352403 0)
(0.0192188 0.00362661 0)
(0.0208784 0.00374725 0)
(0.0222341 0.00388784 0)
(0.0232697 0.0040508 0)
(0.0239747 0.00423923 0)
(0.0243449 0.004457 0)
(0.0243821 0.00470889 0)
(0.0240946 0.00500069 0)
(0.0234968 0.00533937 0)
(0.0226089 0.00573315 0)
(0.0214571 0.00619165 0)
(0.0200725 0.00672592 0)