/*--------------------------------*- C++ -*----------------------------------*\
| =========                 |                                                 |
| \\      /  F ield         | OpenFOAM: The Open Source CFD Toolbox           |
|  \\    /   O peration     | Version:  2406                                  |
|   \\  /    A nd           | Website:  www.openfoam.com                      |
|    \\/     M anipulation  |                                                 |
\*---------------------------------------------------------------------------*/
FoamFile
{
    version     2.0;
    format      ascii;
    arch        "LSB;label=32;scalar=64";
    class       volScalarField;
    location    "0.55";
    object      gradTx;
}
// * * * * * * * * * * * * * * * * * * * * * * * * * * * * * * * * * * * * * //

dimensions      [0 -1 0 1 0 0 0];

internalField   nonuniform List<scalar> 
2500
(
0.0106271
0.0316932
0.0522603
0.0720269
0.090663
0.107876
0.123396
0.136977
0.148407
0.157504
0.164124
0.168162
0.169553
0.168273
0.164343
0.157822
0.148814
0.137459
0.123936
0.10846
0.0912752
0.0726539
0.0528913
0.032301
0.0112099
-0.0100474
-0.0311335
-0.051714
-0.0714628
-0.0900674
-0.107234
-0.122691
-0.136196
-0.147536
-0.156535
-0.163054
-0.16699
-0.168286
-0.166924
-0.162928
-0.156363
-0.147336
-0.135991
-0.122509
-0.107102
-0.0900151
-0.071517
-0.0518994
-0.0314707
-0.0105464
0.0106581
0.0317887
0.0524198
0.0722459
0.0909384
0.108204
0.123771
0.137394
0.148858
0.157983
0.164624
0.168675
0.170072
0.16879
0.164849
0.158311
0.149277
0.13789
0.12433
0.10881
0.0915766
0.0729029
0.0530849
0.0324371
0.0112873
-0.0100289
-0.0311732
-0.0518103
-0.071613
-0.0902681
-0.107481
-0.122979
-0.13652
-0.147891
-0.156913
-0.163449
-0.167396
-0.168695
-0.167329
-0.163323
-0.156742
-0.147693
-0.13632
-0.122804
-0.10736
-0.0902306
-0.0716869
-0.0520222
-0.0315516
-0.0105778
0.0107226
0.0319812
0.0527365
0.0726816
0.0914864
0.108856
0.124516
0.138222
0.149756
0.158938
0.16562
0.169697
0.171104
0.169817
0.165856
0.159282
0.150198
0.138748
0.125113
0.109506
0.0921773
0.0733998
0.053472
0.0327101
0.0114439
-0.00998907
-0.0312486
-0.0519975
-0.071907
-0.0906619
-0.107966
-0.123546
-0.137158
-0.148588
-0.157658
-0.164226
-0.168193
-0.169499
-0.168127
-0.164101
-0.157487
-0.148394
-0.136966
-0.123385
-0.107866
-0.090654
-0.0720204
-0.052259
-0.0316939
-0.0106266
0.0108176
0.0322649
0.0532044
0.0733259
0.0922971
0.10982
0.12562
0.139448
0.151086
0.16035
0.167093
0.171209
0.172632
0.171338
0.167347
0.160722
0.151565
0.140022
0.126275
0.110542
0.0930715
0.0741414
0.054052
0.0331224
0.0116851
-0.00991939
-0.0313482
-0.0522613
-0.0723274
-0.0912288
-0.108667
-0.124367
-0.138083
-0.149599
-0.158737
-0.165355
-0.169351
-0.170666
-0.169284
-0.165229
-0.158569
-0.149411
-0.137902
-0.124227
-0.1086
-0.0912691
-0.0725069
-0.0526098
-0.0319057
-0.0106977
0.0109416
0.0326358
0.0538164
0.0741688
0.093358
0.111083
0.127065
0.141053
0.152826
0.162199
0.169023
0.17319
0.174635
0.173332
0.169303
0.16261
0.153358
0.141695
0.127804
0.111905
0.0942518
0.0751236
0.0548247
0.0336776
0.0120186
-0.00980813
-0.031456
-0.0525815
-0.0728499
-0.0919404
-0.109552
-0.125407
-0.139256
-0.150883
-0.160108
-0.166788
-0.170822
-0.17215
-0.170754
-0.166662
-0.159942
-0.150702
-0.139091
-0.125295
-0.109532
-0.09205
-0.0731256
-0.0530574
-0.0321764
-0.0107883
0.011093
0.0330883
0.0545631
0.0751975
0.0946528
0.112624
0.128829
0.143012
0.154951
0.164457
0.17138
0.17561
0.177082
0.175769
0.171694
0.164921
0.155555
0.143746
0.129681
0.113583
0.0957089
0.0763418
0.0557901
0.034381
0.0124551
-0.00963893
-0.0315501
-0.0529305
-0.0734415
-0.0927584
-0.110577
-0.126616
-0.140624
-0.152384
-0.161712
-0.168467
-0.172544
-0.173886
-0.172475
-0.168339
-0.161547
-0.15221
-0.14048
-0.126542
-0.110619
-0.0929614
-0.0738479
-0.0535804
-0.0324929
-0.0108942
0.0112693
0.0336155
0.0554331
0.076396
0.0961616
0.11442
0.130884
0.145295
0.157428
0.167089
0.174129
0.178434
0.179938
0.178616
0.174489
0.167623
0.158127
0.146151
0.131887
0.11556
0.097432
0.0777907
0.0569495
0.0352403
0.0130091
-0.00939038
-0.0316019
-0.0532728
-0.0740595
-0.0936334
-0.111686
-0.127933
-0.142121
-0.154029
-0.163474
-0.17031
-0.174436
-0.175793
-0.174364
-0.170179
-0.163307
-0.153864
-0.142
-0.127907
-0.111808
-0.0939577
-0.0746373
-0.054152
-0.0328388
-0.0110099
0.0114679
0.0342091
0.0564128
0.077746
0.0978611
0.116443
0.1332
0.147869
0.16022
0.170058
0.177229
0.18162
0.183161
0.18183
0.177648
0.170681
0.161041
0.148882
0.134397
0.117818
0.0994095
0.0794659
0.0583055
0.0362661
0.0136993
-0.00903533
-0.0315758
-0.053564
-0.0746514
-0.0945046
-0.112811
-0.129283
-0.143664
-0.155731
-0.165299
-0.172223
-0.1764
-0.177771
-0.176322
-0.172084
-0.165128
-0.155571
-0.143569
-0.129313
-0.113032
-0.0949822
-0.0754485
-0.0547391
-0.033194
-0.0111287
0.0116857
0.0348602
0.0574873
0.0792267
0.0997255
0.118663
0.135741
0.150693
0.163285
0.173317
0.180634
0.185121
0.186707
0.185369
0.181129
0.174055
0.164262
0.151906
0.137186
0.120337
0.10163
0.0813638
0.0598633
0.0374725
0.0145494
-0.00854012
-0.031428
-0.0537504
-0.0751532
-0.0952983
-0.113869
-0.130574
-0.145153
-0.157383
-0.167076
-0.174087
-0.178314
-0.179698
-0.178228
-0.173934
-0.166894
-0.157224
-0.145084
-0.130669
-0.114209
-0.0959661
-0.0762264
-0.0553015
-0.033534
-0.0112424
0.0119194
0.0355587
0.0586401
0.0808154
0.101726
0.121045
0.138469
0.153726
0.166577
0.17682
0.184296
0.188887
0.190524
0.189182
0.184885
0.177702
0.167751
0.155193
0.140228
0.1231
0.104083
0.0834829
0.0616312
0.0388784
0.0155893
-0.0078636
-0.0311058
-0.0537674
-0.0754888
-0.0959269
-0.114761
-0.131696
-0.14647
-0.158858
-0.168671
-0.175764
-0.180035
-0.18143
-0.179936
-0.175589
-0.168466
-0.15869
-0.146423
-0.131862
-0.115242
-0.0968265
-0.0769048
-0.0557909
-0.0338294
-0.0113412
0.0121654
0.0362939
0.0598535
0.0824878
0.103832
0.123553
0.141342
0.156921
0.170047
0.180513
0.188159
0.192865
0.19456
0.193219
0.188867
0.181578
0.171469
0.158706
0.143497
0.126087
0.106759
0.0858245
0.0636215
0.040508
0.0168557
-0.00695606
-0.0305462
-0.0535386
-0.0755683
-0.0962876
-0.115371
-0.132523
-0.147477
-0.160007
-0.169926
-0.177089
-0.181397
-0.182795
-0.181276
-0.176878
-0.169682
-0.159815
-0.147441
-0.132762
-0.116015
-0.0974651
-0.0774052
-0.05615
-0.0340454
-0.0114132
0.0124199
0.0370545
0.061109
0.0842185
0.106012
0.12615
0.144318
0.160232
0.173643
0.184345
0.19217
0.196998
0.198758
0.197425
0.193026
0.185635
0.175375
0.162414
0.146967
0.129283
0.109653
0.0883939
0.0658521
0.0423923
0.0183935
-0.00575801
-0.0296746
-0.0529742
-0.0752867
-0.0962599
-0.115566
-0.132904
-0.148011
-0.160658
-0.17066
-0.177873
-0.182201
-0.183593
-0.182047
-0.177604
-0.17035
-0.160414
-0.147967
-0.133212
-0.116389
-0.0977652
-0.0776339
-0.0563106
-0.0341405
-0.0114446
0.012679
0.037829
0.0623875
0.0859812
0.108233
0.128797
0.147351
0.163608
0.177314
0.188258
0.19627
0.20123
0.203063
0.201747
0.19731
0.189828
0.179428
0.166284
0.150613
0.132674
0.112761
0.0912016
0.068347
0.04457
0.020257
-0.00419885
-0.0284035
-0.0519694
-0.0745217
-0.0957045
-0.115187
-0.132669
-0.147885
-0.160609
-0.170657
-0.177891
-0.182217
-0.183591
-0.182014
-0.177534
-0.170242
-0.160273
-0.147799
-0.133028
-0.116202
-0.0975887
-0.0774807
-0.0561919
-0.0340655
-0.011419
0.0129388
0.0386056
0.0636696
0.0877494
0.110462
0.131453
0.150398
0.167001
0.181006
0.192197
0.200403
0.205502
0.207418
0.206131
0.201669
0.194112
0.183592
0.170285
0.154417
0.13625
0.116088
0.0942641
0.0711377
0.0470889
0.0225112
-0.00219542
-0.026631
-0.0504028
-0.0731321
-0.0944604
-0.114056
-0.131617
-0.146882
-0.159627
-0.169673
-0.176885
-0.181179
-0.182516
-0.180903
-0.176397
-0.169096
-0.159137
-0.1467
-0.131995
-0.115263
-0.096773
-0.0768149
-0.0556988
-0.0337624
-0.0113169
0.0131954
0.0393726
0.0649361
0.0894964
0.112664
0.13408
0.153412
0.170361
0.184666
0.196108
0.204513
0.209758
0.211769
0.210524
0.206055
0.198445
0.187829
0.174391
0.15836
0.140007
0.119642
0.0976053
0.0742644
0.0500069
0.0252331
0.000349484
-0.0242387
-0.0481343
-0.0709556
-0.0923428
-0.111964
-0.129521
-0.144754
-0.157444
-0.167421
-0.174557
-0.178776
-0.18005
-0.178395
-0.173877
-0.1666
-0.156711
-0.144391
-0.129856
-0.113345
-0.0951257
-0.0754824
-0.0547182
-0.0331625
-0.0111151
0.0134449
0.0401185
0.066168
0.0911963
0.114809
0.13664
0.156352
0.173641
0.188243
0.199936
0.208544
0.213944
0.216061
0.214876
0.210422
0.202787
0.19211
0.17858
0.162433
0.143947
0.123439
0.101257
0.0777775
0.0533937
0.0285133
0.00354868
-0.0210902
-0.0450029
-0.067806
-0.0891399
-0.108675
-0.126117
-0.141213
-0.153752
-0.163573
-0.170561
-0.174651
-0.175826
-0.174118
-0.169601
-0.162392
-0.152645
-0.140546
-0.126311
-0.110182
-0.0924198
-0.0733007
-0.0531168
-0.0321844
-0.0107864
0.0136836
0.0408323
0.0673471
0.0928241
0.116863
0.139094
0.159173
0.176794
0.191687
0.20363
0.212445
0.218008
0.220246
0.219141
0.214729
0.207103
0.196406
0.182834
0.16663
0.148078
0.127503
0.105262
0.0817378
0.0573315
0.032457
0.00753205
-0.0170295
-0.0408252
-0.0634715
-0.0846109
-0.103918
-0.121107
-0.135932
-0.148197
-0.157751
-0.164497
-0.168386
-0.169418
-0.167639
-0.16314
-0.156049
-0.14653
-0.134777
-0.121008
-0.10546
-0.0883867
-0.0700537
-0.0507362
-0.0307314
-0.0102982
0.0139081
0.0415034
0.0684562
0.0943561
0.118799
0.141408
0.161838
0.179776
0.194953
0.207143
0.216168
0.221903
0.224278
0.223277
0.21894
0.211364
0.200698
0.187145
0.170953
0.152417
0.131869
0.109672
0.0862186
0.0619165
0.0371855
0.012448
-0.0118793
-0.0353931
-0.0577118
-0.0784823
-0.097387
-0.114149
-0.128539
-0.140373
-0.149522
-0.155908
-0.159503
-0.160329
-0.158454
-0.153987
-0.147073
-0.137888
-0.126633
-0.113527
-0.0988051
-0.0827083
-0.0654852
-0.0473885
-0.0286889
-0.00961211
0.014115
0.0421221
0.0694792
0.0957705
0.120587
0.14355
0.164308
0.182549
0.197998
0.21043
0.219667
0.225586
0.228117
0.227248
0.223024
0.215546
0.204971
0.191508
0.175413
0.15699
0.136578
0.114551
0.0913056
0.0672592
0.0428368
0.0184644
-0.0054393
-0.0284721
-0.0502561
-0.0704455
-0.0887336
-0.104858
-0.118607
-0.129819
-0.138389
-0.144265
-0.147448
-0.147987
-0.145978
-0.141554
-0.134882
-0.126154
-0.115578
-0.103377
-0.0897779
-0.0750075
-0.059291
-0.0428502
-0.0259203
-0.00868212
0.0143014
0.0426797
0.0704018
0.0970474
0.122205
0.145491
0.166553
0.185076
0.200785
0.213454
0.222906
0.229019
0.231728
0.231023
0.226956
0.219633
0.209218
0.195928
0.180029
0.161832
0.141685
0.119972
0.0970978
0.0734858
0.0495667
0.0257699
0.00251466
-0.0197995
-0.0408009
-0.0601542
-0.0775673
-0.0927975
-0.105656
-0.116009
-0.123785
-0.128963
-0.131582
-0.131728
-0.129531
-0.125156
-0.118797
-0.110666
-0.100984
-0.0899745
-0.0778563
-0.0648364
-0.051109
-0.0368552
-0.0222629
-0.0074535
0.0144648
0.0431684
0.0712112
0.0981694
0.123629
0.147205
0.168543
0.187326
0.20328
0.21618
0.225851
0.232173
0.235084
0.234581
0.23072
0.223616
0.213441
0.20042
0.184828
0.166987
0.147255
0.126023
0.103707
0.0807372
0.0575487
0.0345739
0.0122313
-0.00908376
-0.0290087
-0.047222
-0.0634506
-0.0774766
-0.0891412
-0.0983476
-0.105062
-0.109309
-0.111173
-0.110786
-0.108324
-0.103992
-0.0980204
-0.0906464
-0.0821075
-0.07263
-0.062421
-0.0516623
-0.0405079
-0.0290859
-0.0175221
-0.00586078
0.0146028
0.0435817
0.0718967
0.099122
0.124842
0.148671
0.170254
0.189274
0.205458
0.218583
0.228476
0.235022
0.238163
0.237904
0.234307
0.227494
0.217648
0.205003
0.189846
0.172508
0.15336
0.132802
0.111259
0.0891697
0.0669739
0.0451064
0.0239841
0.00399594
-0.014507
-0.0312208
-0.0458968
-0.058348
-0.0684534
-0.076161
-0.0814868
-0.0845122
-0.0853782
-0.0842769
-0.081441
-0.0771306
-0.0716195
-0.0651809
-0.058073
-0.050527
-0.0427363
-0.0348507
-0.0269728
-0.0191626
-0.0114653
-0.00382559
0.0147138
0.0439144
0.0724497
0.0998933
0.12583
0.149872
0.171667
0.190899
0.207297
0.220641
0.230762
0.23755
0.240954
0.240985
0.237714
0.231274
0.221856
0.209708
0.195128
0.178459
0.160085
0.140417
0.119891
0.0989532
0.0780497
0.0576172
0.03807
0.0197893
0.00311163
-0.0116808
-0.0243688
-0.0348035
-0.042911
-0.048694
-0.0522314
-0.0536737
-0.0532352
-0.0511832
-0.047824
-0.0434863
-0.0385034
-0.0331943
-0.027846
-0.0226974
-0.017927
-0.0136445
-0.00988785
-0.00663016
-0.00381327
-0.0012538
0.0147965
0.0441624
0.0728638
0.100475
0.12658
0.150796
0.172769
0.192188
0.208784
0.222341
0.232697
0.239747
0.243449
0.243821
0.240946
0.234968
0.226089
0.214571
0.200725
0.18491
0.167521
0.148986
0.12975
0.11027
0.0909978
0.0723734
0.054808
0.038673
0.0242882
0.0119099
0.00172166
-0.00617348
-0.0117582
-0.0151028
-0.0163633
-0.0157758
-0.0136466
-0.0103378
-0.00624949
-0.00179885
0.00260352
0.00657739
0.00979618
0.0120076
0.0130498
0.0128615
0.0114852
0.0090579
0.00576991
0.00196785
0.0148499
0.0443235
0.073135
0.100861
0.127088
0.151435
0.173552
0.193131
0.20991
0.223676
0.234276
0.241612
0.24565
0.246421
0.244018
0.238598
0.230379
0.219636
0.206697
0.191937
0.175769
0.158633
0.140991
0.12331
0.106051
0.0896567
0.074535
0.0610473
0.049494
0.0401015
0.0330118
0.0282735
0.0258362
0.0255482
0.0271593
0.030328
0.0346337
0.0395951
0.0446926
0.0493955
0.053192
0.0556202
0.0562987
0.0549534
0.0514389
0.0457516
0.0380333
0.0285597
0.0176892
0.00597608
0.0148738
0.0443964
0.0732616
0.101049
0.12735
0.151786
0.174013
0.193728
0.210674
0.224647
0.235501
0.243149
0.247567
0.248798
0.246949
0.242192
0.234761
0.224951
0.213106
0.199622
0.184929
0.169487
0.153774
0.138271
0.12345
0.109758
0.0976016
0.0873312
0.0792259
0.0734788
0.0701843
0.0693278
0.0707787
0.0742884
0.0794932
0.0859223
0.0930142
0.100138
0.106624
0.111793
0.115003
0.115682
0.113372
0.107765
0.0987291
0.0863281
0.0708255
0.0526705
0.0324349
0.0109365
0.0148683
0.0443818
0.0732445
0.101042
0.127369
0.151853
0.174156
0.193981
0.211081
0.22526
0.236381
0.244369
0.249213
0.25097
0.249762
0.245781
0.239278
0.230568
0.220019
0.208047
0.195105
0.181676
0.168258
0.15535
0.143436
0.132972
0.124365
0.117954
0.113998
0.112653
0.11396
0.117832
0.124047
0.13224
0.141912
0.152437
0.163079
0.173021
0.181402
0.187357
0.190068
0.188818
0.183043
0.17238
0.156706
0.13616
0.111154
0.0823544
0.0506024
0.0170506
0.014834
0.0442813
0.0730867
0.100842
0.127148
0.15164
0.173987
0.193902
0.211144
0.225529
0.236932
0.245291
0.25061
0.252962
0.252489
0.249401
0.243972
0.236541
0.2275
0.217293
0.206398
0.195326
0.184598
0.174736
0.166244
0.159588
0.155178
0.153348
0.154333
0.158252
0.165088
0.174674
0.18668
0.200611
0.215805
0.23145
0.246596
0.260198
0.271152
0.278352
0.280755
0.277447
0.267716
0.251115
0.227515
0.197143
0.160589
0.118785
0.0729185
0.0245642
0.014772
0.0440983
0.0727935
0.100458
0.126699
0.151161
0.173522
0.193504
0.210878
0.225472
0.237175
0.245938
0.251784
0.254805
0.255162
0.25309
0.248888
0.242921
0.235613
0.227435
0.2189
0.210549
0.202935
0.196608
0.192094
0.189879
0.190381
0.193931
0.200745
0.210903
0.224329
0.240767
0.259768
0.280686
0.302671
0.324687
0.345529
0.363866
0.378291
0.38739
0.389824
0.384416
0.370247
0.346742
0.313748
0.271581
0.221042
0.163401
0.100275
0.0337796
0.0146838
0.0438372
0.0723724
0.0998991
0.126034
0.150431
0.172778
0.192808
0.210306
0.225114
0.237134
0.246338
0.252765
0.256529
0.257816
0.256885
0.254066
0.249756
0.244411
0.23854
0.232692
0.227446
0.223393
0.221118
0.221182
0.224092
0.230285
0.240094
0.253722
0.271216
0.292435
0.317031
0.344429
0.373807
0.404103
0.434015
0.462032
0.486475
0.505557
0.51747
0.520487
0.513079
0.494037
0.462597
0.418543
0.362279
0.294861
0.217969
0.133771
0.0450701
0.0145713
0.0435037
0.0718328
0.0991792
0.12517
0.149468
0.171776
0.191839
0.209456
0.224483
0.236842
0.246521
0.253584
0.258167
0.260483
0.260822
0.259545
0.257087
0.253941
0.250659
0.247834
0.246091
0.246066
0.24839
0.253663
0.262431
0.275155
0.292181
0.313708
0.339754
0.370121
0.404367
0.441778
0.481345
0.521762
0.561422
0.598449
0.630739
0.656035
0.672026
0.676479
0.667389
0.643146
0.602702
0.545721
0.472683
0.384939
0.28468
0.174773
0.0588999
0.0144368
0.0431047
0.0711859
0.0983133
0.124125
0.148297
0.170543
0.190625
0.208357
0.223611
0.236329
0.246522
0.254275
0.259752
0.263196
0.264931
0.265354
0.264941
0.264231
0.263823
0.264362
0.266528
0.271011
0.278499
0.289644
0.305041
0.325189
0.350463
0.381069
0.417007
0.458033
0.503613
0.552891
0.604661
0.657344
0.708988
0.757288
0.79963
0.833174
0.854973
0.862132
0.852008
0.82243
0.77193
0.699958
0.607042
0.49487
0.366267
0.22499
0.0758507
0.0142828
0.042648
0.0704446
0.0973191
0.122922
0.146942
0.169109
0.189199
0.207043
0.222534
0.235633
0.246375
0.254871
0.261315
0.265983
0.269236
0.271513
0.273335
0.275293
0.27804
0.282283
0.288764
0.29824
0.311467
0.329164
0.35199
0.380501
0.415115
0.456066
0.503354
0.556702
0.615498
0.67875
0.745047
0.812521
0.878833
0.941185
0.996357
1.0408
1.07075
1.08247
1.07244
1.03772
0.976212
0.887014
0.770638
0.629153
0.466168
0.286579
0.0966571
0.0141123
0.042142
0.0696228
0.0962157
0.121584
0.145431
0.167504
0.187593
0.20555
0.221287
0.234789
0.246114
0.255404
0.262883
0.268866
0.273752
0.278028
0.282266
0.287114
0.293289
0.301565
0.312758
0.327707
0.347246
0.372181
0.403251
0.441091
0.486185
0.538817
0.599017
0.666495
0.740585
0.820177
0.90366
0.988867
1.07305
1.15284
1.22432
1.28308
1.32435
1.34328
1.33519
1.29603
1.22281
1.11403
0.97009
0.793464
0.588737
0.362278
0.122254
0.0139284
0.041596
0.0687357
0.0950237
0.120137
0.143796
0.165761
0.185845
0.203916
0.219909
0.233833
0.245773
0.255902
0.26448
0.271858
0.278483
0.284892
0.291712
0.299656
0.309512
0.322132
0.338417
0.359299
0.385709
0.418556
0.458681
0.506823
0.563561
0.629262
0.704014
0.787556
0.8792
0.977749
1.08142
1.18776
1.29357
1.39491
1.48704
1.56452
1.62135
1.65121
1.64791
1.60584
1.52066
1.38995
1.21377
0.995031
0.739549
0.455602
0.153841
0.0137342
0.0410198
0.0677993
0.0937649
0.118608
0.142066
0.163917
0.183991
0.202178
0.218437
0.2328
0.245383
0.256391
0.26612
0.274966
0.283421
0.292079
0.301628
0.312852
0.326616
0.343862
0.365588
0.39283
0.426637
0.468038
0.518004
0.577403
0.646944
0.727115
0.818107
0.919736
1.03134
1.1517
1.27889
1.41022
1.54207
1.66987
1.78799
1.88982
1.96782
2.01386
2.01965
1.97743
1.88087
1.72603
1.51235
1.24315
0.925789
0.571085
0.192967
0.0135332
0.0404233
0.0668298
0.0924615
0.117025
0.140274
0.162005
0.182069
0.200375
0.216907
0.231724
0.244972
0.256889
0.267813
0.278183
0.288543
0.299545
0.311944
0.326601
0.344468
0.366583
0.394053
0.428035
0.469711
0.520254
0.58079
0.65235
0.735811
0.831828
0.940749
1.06253
1.19661
1.34181
1.49616
1.65678
1.81972
1.97978
2.13043
2.2637
2.37028
2.43973
2.461
2.42328
2.31727
2.13666
1.87963
1.54988
1.1568
0.71462
0.241644
0.0133289
0.0398168
0.065844
0.091136
0.115415
0.138452
0.160062
0.180114
0.198543
0.215354
0.230634
0.244563
0.257412
0.269561
0.281494
0.293812
0.307226
0.322566
0.340772
0.362891
0.390067
0.423526
0.464562
0.514506
0.574699
0.646449
0.730985
0.829394
0.942551
1.07103
1.21499
1.37408
1.54725
1.73262
1.92725
2.12695
2.32601
2.51702
2.69062
2.83544
2.93823
2.98431
2.95861
2.84736
2.64039
2.33364
1.93106
1.44482
0.893882
0.302482
0.0131245
0.0392103
0.0648583
0.089811
0.113806
0.136631
0.15812
0.178163
0.196716
0.21381
0.22956
0.244176
0.257967
0.271355
0.284872
0.299175
0.315042
0.333375
0.355202
0.381669
0.414034
0.453656
0.501974
0.560489
0.63073
0.714216
0.81241
0.926656
1.0581
1.20762
1.37568
1.56223
1.7665
1.98684
2.22045
2.46311
2.70881
2.94941
3.17423
3.36972
3.51933
3.60374
3.60195
3.4934
3.26156
2.89834
2.40768
1.80589
1.11884
0.378847
0.0129235
0.0386139
0.0638892
0.0885083
0.112224
0.134842
0.156214
0.17625
0.194929
0.212305
0.228524
0.243825
0.258556
0.27318
0.28828
0.304568
0.322891
0.344227
0.369695
0.400546
0.438157
0.484026
0.539753
0.607022
0.687572
0.783158
0.895513
1.02628
1.17696
1.34877
1.54261
1.75884
1.99716
2.25634
2.53399
2.82613
3.12682
3.42755
3.71664
3.97849
4.19295
4.33509
4.37574
4.28405
4.03276
3.60619
3.00785
2.26105
1.40226
0.474996
0.0127291
0.0380373
0.0629523
0.0872492
0.110696
0.133115
0.154375
0.174408
0.193211
0.210867
0.227545
0.243519
0.259173
0.275012
0.291668
0.309912
0.330656
0.35496
0.384032
0.419231
0.46206
0.514162
0.577306
0.653371
0.744322
0.852178
0.978969
1.12669
1.29722
1.49226
1.71319
1.96095
2.23588
2.53743
2.86392
3.21205
3.57644
3.94885
4.31728
4.66469
4.96767
5.19493
5.30677
5.25676
4.99886
4.50228
3.76958
2.83746
1.75995
0.59607
0.0125445
0.0374896
0.0620627
0.0860539
0.109246
0.131476
0.152633
0.172664
0.191591
0.209517
0.22664
0.243265
0.25981
0.276822
0.294983
0.315119
0.33821
0.365394
0.397971
0.437407
0.485334
0.543543
0.613976
0.698718
0.799971
0.920034
1.06127
1.22604
1.41669
1.63543
1.88425
2.16483
2.4783
2.82509
3.20456
3.61465
4.05119
4.50715
4.97137
5.42682
5.84818
6.19851
6.42573
6.46084
6.22418
5.65174
4.74443
3.56894
2.21011
0.747702
0.0123726
0.0369797
0.0612344
0.0849412
0.107896
0.129953
0.151014
0.171047
0.190092
0.208276
0.225821
0.243061
0.26045
0.278574
0.298161
0.320093
0.345413
0.375337
0.411254
0.454738
0.507545
0.571614
0.649064
0.742186
0.853426
0.985375
1.14073
1.32229
1.53285
1.77523
2.05212
2.36601
2.71906
3.1129
3.54837
4.02513
4.5411
5.0916
5.66805
6.25588
6.83109
7.35469
7.76402
7.96117
7.8067
7.15408
6.00173
4.49388
2.77019
0.934736
0.012216
0.0365153
0.0604802
0.0839284
0.106668
0.128567
0.149544
0.169581
0.188737
0.20716
0.225096
0.242907
0.261077
0.280229
0.301137
0.324734
0.352123
0.384593
0.42362
0.470878
0.528245
0.597804
0.681846
0.782863
0.903547
1.04678
1.21561
1.41324
1.64301
1.90833
2.21265
2.5594
2.9519
3.39321
3.88596
4.43209
5.03237
5.68581
6.38849
7.13165
7.89818
8.65576
9.34271
9.83854
9.90961
9.17483
7.62934
5.64512
3.44863
1.15829
0.0120772
0.0361039
0.059812
0.083031
0.105581
0.127341
0.148243
0.168285
0.187543
0.206182
0.224471
0.242795
0.261668
0.281747
0.303844
0.328941
0.358197
0.392967
0.434807
0.485485
0.546992
0.621546
0.711599
0.819836
0.949184
1.1028
1.28408
1.49665
1.74434
2.03119
2.36145
2.73952
3.16994
3.65735
4.20643
4.82174
5.5076
6.26772
7.10475
8.01925
9.00787
10.0591
11.1417
12.1669
12.8413
12.0256
9.71101
7.01946
4.22773
1.41067
0.0119585
0.0357518
0.0592401
0.0822627
0.104649
0.126291
0.147131
0.167179
0.186527
0.205354
0.22395
0.242719
0.262203
0.283086
0.306218
0.332619
0.363501
0.400275
0.444568
0.498235
0.563365
0.642298
0.737632
0.852229
0.989226
1.15205
1.3444
1.57029
1.83404
2.1403
2.49406
2.90069
3.36598
3.89615
4.49796
5.17879
5.94672
6.81071
7.78086
8.86895
10.0896
11.4636
13.0281
14.8732
17.2868
16.3952
12.1854
8.50509
5.03917
1.67001
0.0118618
0.035465
0.0587735
0.081635
0.103888
0.125433
0.146222
0.166277
0.185699
0.204683
0.223533
0.242671
0.26266
0.28421
0.308198
0.33568
0.367909
0.406347
0.452679
0.50883
0.576978
0.659564
0.759311
0.879232
1.02265
1.19321
1.3949
1.63207
1.90947
2.23229
2.60621
3.03747
3.53299
4.10048
4.74869
5.4876
6.32889
7.28644
8.37729
9.62318
11.0534
12.7109
14.6648
17.0385
20.0617
19.1032
14.1463
9.78777
5.76103
1.90293
0.0117886
0.0352485
0.0584201
0.0811574
0.103308
0.124779
0.14553
0.16559
0.18507
0.204175
0.22322
0.242644
0.263022
0.285085
0.309732
0.338048
0.371316
0.411038
0.458945
0.517018
0.587501
0.672918
0.77609
0.90015
1.04857
1.22517
1.43416
1.68017
1.96831
2.30419
2.69407
3.14491
3.66457
4.26202
4.94765
5.73364
6.63463
7.66851
8.85766
10.2309
11.8262
13.6957
15.9131
18.5824
21.8428
20.8305
15.5255
10.7502
6.32157
2.08641
0.0117391
0.0351054
0.0581859
0.0808366
0.102918
0.124338
0.145063
0.165128
0.184647
0.203835
0.223013
0.242629
0.263272
0.285684
0.31078
0.339662
0.373637
0.414233
0.463212
0.522595
0.594671
0.68202
0.787531
0.914422
1.06626
1.247
1.46101
1.71312
2.00866
2.35357
2.75451
3.21896
3.75546
4.37386
5.08574
5.90486
6.84792
7.93553
9.19352
10.6547
12.3613
14.3673
16.741
19.564
22.9216
21.8715
16.3915
11.3778
6.69607
2.21039
0.0117077
0.0350252
0.058066
0.080675
0.102721
0.124117
0.144829
0.164895
0.184435
0.203664
0.222909
0.242624
0.2634
0.285988
0.31131
0.340479
0.374812
0.415849
0.465371
0.525416
0.598299
0.686627
0.793325
0.921652
1.07523
1.25808
1.47464
1.72985
2.02916
2.37869
2.78529
3.25672
3.80186
4.43105
5.15645
5.99266
6.95743
8.07273
9.36604
10.872
12.634
14.706
17.1516
20.04
23.4333
22.3638
16.8079
11.6852
6.88201
2.27235
)
;

boundaryField
{
    walls
    {
        type            calculated;
        value           nonuniform List<scalar> 
200
(
0.0117077
0.0350252
0.058066
0.080675
0.102721
0.124117
0.144829
0.164895
0.184435
0.203664
0.222909
0.242624
0.2634
0.285988
0.31131
0.340479
0.374812
0.415849
0.465371
0.525416
0.598299
0.686627
0.793325
0.921652
1.07523
1.25808
1.47464
1.72985
2.02916
2.37869
2.78529
3.25672
3.80186
4.43105
5.15645
5.99266
6.95743
8.07273
9.36604
10.872
12.634
14.706
17.1516
20.04
23.4333
22.3638
16.8079
11.6852
6.88201
2.27235
0
0
0
0
0
0
0
0
0
0
0
0
0
0
0
0
0
0
0
0
0
0
0
0
0
0
0
0
0
0
0
0
0
0
0
0
0
0
0
0
0
0
0
0
0
0
0
0
0
0
0
0
0
0
0
0
0
0
0
0
0
0
0
0
0
0
0
0
0
0
0
0
0
0
0
0
0
0
0
0
0
0
0
0
0
0
0
0
0
0
0
0
0
0
0
0
0
0
0
0
0.0106271
0.0316932
0.0522603
0.0720269
0.090663
0.107876
0.123396
0.136977
0.148407
0.157504
0.164124
0.168162
0.169553
0.168273
0.164343
0.157822
0.148814
0.137459
0.123936
0.10846
0.0912752
0.0726539
0.0528913
0.032301
0.0112099
-0.0100474
-0.0311335
-0.051714
-0.0714628
-0.0900674
-0.107234
-0.122691
-0.136196
-0.147536
-0.156535
-0.163054
-0.16699
-0.168286
-0.166924
-0.162928
-0.156363
-0.147336
-0.135991
-0.122509
-0.107102
-0.0900151
-0.071517
-0.0518994
-0.0314707
-0.0105464
)
;
    }
    frontAndBack
    {
        type            empty;
    }
}


// ************************************************************************* //
