/*--------------------------------*- C++ -*----------------------------------*\
| =========                 |                                                 |
| \\      /  F ield         | OpenFOAM: The Open Source CFD Toolbox           |
|  \\    /   O peration     | Version:  2406                                  |
|   \\  /    A nd           | Website:  www.openfoam.com                      |
|    \\/     M anipulation  |                                                 |
\*---------------------------------------------------------------------------*/
FoamFile
{
    version     2.0;
    format      ascii;
    arch        "LSB;label=32;scalar=64";
    class       volScalarField;
    location    "0.55";
    object      T;
}
// * * * * * * * * * * * * * * * * * * * * * * * * * * * * * * * * * * * * * //

dimensions      [0 0 0 1 0 0 0];

internalField   nonuniform List<scalar> 
2500
(
0.134475
0.1349
0.135743
0.136991
0.138624
0.140617
0.142939
0.145553
0.148418
0.151489
0.154718
0.158054
0.161445
0.164837
0.168176
0.17141
0.174489
0.177363
0.179987
0.18232
0.184325
0.185971
0.187232
0.188087
0.188524
0.188535
0.188122
0.18729
0.186053
0.184431
0.182451
0.180142
0.177543
0.174694
0.171641
0.168433
0.165119
0.161753
0.158388
0.155076
0.151871
0.148822
0.145977
0.143382
0.141077
0.139098
0.137476
0.136237
0.1354
0.134979
0.1349
0.135327
0.136172
0.137424
0.139062
0.141061
0.14339
0.146012
0.148886
0.151966
0.155205
0.158551
0.161952
0.165354
0.168704
0.171948
0.175036
0.177919
0.180552
0.182892
0.184904
0.186555
0.18782
0.188679
0.189118
0.18913
0.188717
0.187883
0.186644
0.185019
0.183033
0.18072
0.178114
0.175259
0.172199
0.168982
0.165661
0.162286
0.158913
0.155593
0.15238
0.149324
0.146472
0.143871
0.14156
0.139576
0.137951
0.136709
0.13587
0.135447
0.135743
0.136172
0.137022
0.138281
0.13993
0.141941
0.144284
0.146922
0.149813
0.152912
0.15617
0.159537
0.162958
0.166381
0.169751
0.173015
0.176122
0.179023
0.181672
0.184027
0.186052
0.187715
0.188988
0.189853
0.190297
0.190311
0.189897
0.189061
0.187817
0.186185
0.184191
0.181866
0.179249
0.17638
0.173305
0.170074
0.166736
0.163346
0.159956
0.156621
0.153392
0.150321
0.147457
0.144843
0.142521
0.140528
0.138895
0.137647
0.136805
0.13638
0.136991
0.137424
0.138281
0.139552
0.141214
0.143244
0.145607
0.148268
0.151185
0.154312
0.157599
0.160996
0.164448
0.167901
0.171301
0.174595
0.17773
0.180657
0.183331
0.185708
0.187753
0.189431
0.190718
0.191593
0.192043
0.192061
0.191646
0.190807
0.189556
0.187914
0.185907
0.183567
0.180932
0.178044
0.174948
0.171694
0.168334
0.16492
0.161507
0.158149
0.154898
0.151806
0.148922
0.14629
0.143953
0.141946
0.140302
0.139046
0.138197
0.137769
0.138624
0.139062
0.13993
0.141214
0.142896
0.144949
0.14734
0.150031
0.152982
0.156144
0.15947
0.162905
0.166397
0.169891
0.173331
0.176663
0.179835
0.182797
0.185503
0.187909
0.189979
0.191679
0.192984
0.193872
0.194331
0.194353
0.193939
0.193095
0.191835
0.190181
0.188158
0.185799
0.183142
0.180229
0.177106
0.173824
0.170435
0.166991
0.163549
0.160161
0.156882
0.153764
0.150854
0.1482
0.145842
0.143819
0.14216
0.140894
0.140038
0.139607
0.140617
0.141061
0.141941
0.143244
0.144949
0.14703
0.149454
0.152183
0.155174
0.158381
0.161752
0.165236
0.168777
0.172319
0.175808
0.179187
0.182405
0.185409
0.188154
0.190597
0.192698
0.194425
0.195751
0.196657
0.197127
0.197155
0.196741
0.195893
0.194624
0.192955
0.190913
0.188532
0.185849
0.182907
0.179754
0.176439
0.173015
0.169537
0.166059
0.162638
0.159326
0.156176
0.153237
0.150557
0.148176
0.146132
0.144457
0.143178
0.142314
0.141878
0.142939
0.14339
0.144284
0.145607
0.14734
0.149454
0.151916
0.154689
0.157728
0.160986
0.164412
0.167951
0.171549
0.175149
0.178694
0.182128
0.185399
0.188453
0.191245
0.193729
0.195867
0.197626
0.198979
0.199904
0.200388
0.200425
0.200013
0.199161
0.197882
0.196198
0.194137
0.191731
0.189019
0.186046
0.182858
0.179507
0.176046
0.172529
0.169014
0.165555
0.162207
0.159023
0.156052
0.153343
0.150936
0.14887
0.147178
0.145885
0.145012
0.144571
0.145553
0.146012
0.146922
0.148268
0.150031
0.152183
0.154689
0.157511
0.160604
0.16392
0.167406
0.171009
0.174671
0.178335
0.181944
0.185441
0.188771
0.191883
0.194727
0.197259
0.199439
0.201235
0.202618
0.203567
0.204069
0.204115
0.203707
0.202852
0.201565
0.199866
0.197785
0.195354
0.192613
0.189607
0.186384
0.182995
0.179495
0.175939
0.172384
0.168886
0.165501
0.162281
0.159278
0.156538
0.154105
0.152017
0.150306
0.148999
0.148117
0.147671
0.148418
0.148886
0.149813
0.151185
0.152982
0.155174
0.157728
0.160604
0.163756
0.167135
0.170689
0.174361
0.178094
0.181829
0.185508
0.189074
0.19247
0.195645
0.198547
0.201132
0.20336
0.205197
0.206615
0.207592
0.208114
0.208174
0.207772
0.206917
0.205622
0.20391
0.20181
0.199356
0.196587
0.19355
0.190292
0.186867
0.183328
0.179734
0.17614
0.172605
0.169183
0.165929
0.162894
0.160126
0.157667
0.155557
0.153829
0.152508
0.151617
0.151167
0.151489
0.151966
0.152912
0.154312
0.156144
0.158381
0.160986
0.16392
0.167135
0.170583
0.174208
0.177955
0.181764
0.185575
0.189331
0.192971
0.196439
0.199681
0.202647
0.20529
0.207571
0.209453
0.21091
0.211919
0.212465
0.212542
0.212151
0.211298
0.21
0.208278
0.206163
0.203688
0.200895
0.197829
0.194541
0.191082
0.18751
0.183881
0.180253
0.176684
0.173229
0.169945
0.166882
0.164088
0.161607
0.159478
0.157734
0.156402
0.155503
0.155049
0.154718
0.155205
0.15617
0.157599
0.15947
0.161752
0.164412
0.167406
0.170689
0.174208
0.177909
0.181734
0.185624
0.189517
0.193353
0.197071
0.200616
0.20393
0.206964
0.20967
0.212007
0.21394
0.21544
0.216485
0.217061
0.21716
0.216783
0.215938
0.214641
0.212915
0.210789
0.2083
0.205489
0.202401
0.199088
0.195604
0.192005
0.188348
0.184693
0.181097
0.177618
0.17431
0.171225
0.168412
0.165915
0.163772
0.162016
0.160675
0.15977
0.159314
0.158054
0.158551
0.159537
0.160996
0.162905
0.165236
0.167951
0.171009
0.174361
0.177955
0.181734
0.185641
0.189614
0.193592
0.197511
0.201313
0.204937
0.208328
0.211433
0.214206
0.216605
0.218592
0.22014
0.221227
0.221836
0.221962
0.221606
0.220775
0.219487
0.217764
0.215636
0.213141
0.21032
0.207221
0.203894
0.200394
0.196779
0.193106
0.189435
0.185824
0.182331
0.17901
0.175915
0.173092
0.170586
0.168436
0.166675
0.165331
0.164423
0.163965
0.161445
0.161952
0.162958
0.164448
0.166397
0.168777
0.171549
0.174671
0.178094
0.181764
0.185624
0.189614
0.193673
0.197737
0.201743
0.205629
0.209336
0.212806
0.215987
0.218831
0.221294
0.223341
0.224942
0.226075
0.226725
0.226886
0.226557
0.225749
0.224478
0.222769
0.22065
0.218161
0.215344
0.212246
0.208919
0.205419
0.201804
0.198131
0.19446
0.19085
0.187359
0.18404
0.180948
0.178128
0.175626
0.17348
0.171723
0.170381
0.169475
0.169019
0.164837
0.165354
0.166381
0.167901
0.169891
0.172319
0.175149
0.178335
0.181829
0.185575
0.189517
0.193592
0.197737
0.201888
0.205982
0.209955
0.213747
0.217299
0.220558
0.223475
0.226008
0.228119
0.229779
0.230964
0.231662
0.231865
0.231574
0.2308
0.229558
0.227874
0.22578
0.223312
0.220515
0.217437
0.21413
0.21065
0.207055
0.203403
0.199754
0.196167
0.192698
0.189403
0.186333
0.183535
0.181053
0.178924
0.177182
0.175852
0.174954
0.174501
0.168176
0.168704
0.169751
0.171301
0.173331
0.175808
0.178694
0.181944
0.185508
0.189331
0.193353
0.197511
0.201743
0.205982
0.210164
0.214224
0.218102
0.221737
0.225077
0.228072
0.230678
0.232858
0.234582
0.235828
0.236582
0.236837
0.236596
0.235868
0.234671
0.23303
0.230977
0.228551
0.225796
0.222761
0.219498
0.216064
0.212516
0.208913
0.205314
0.201777
0.198359
0.195113
0.192091
0.189338
0.186896
0.184804
0.183091
0.181785
0.180903
0.180458
0.17141
0.171948
0.173015
0.174595
0.176663
0.179187
0.182128
0.185441
0.189074
0.192971
0.197071
0.201313
0.205629
0.209955
0.214224
0.218372
0.222336
0.226056
0.229479
0.232554
0.235237
0.237491
0.239287
0.240602
0.241423
0.241743
0.241565
0.240899
0.239765
0.238187
0.236199
0.23384
0.231154
0.228192
0.225004
0.221649
0.218182
0.214663
0.211149
0.207698
0.204365
0.201202
0.198259
0.19558
0.193207
0.191173
0.18951
0.188241
0.187385
0.186954
0.174489
0.175036
0.176122
0.17773
0.179835
0.182405
0.185399
0.188771
0.19247
0.196439
0.200616
0.204937
0.209336
0.213747
0.218102
0.222336
0.226386
0.230192
0.233699
0.236857
0.239622
0.241957
0.243833
0.245227
0.246126
0.246525
0.246427
0.245844
0.244794
0.243305
0.24141
0.239148
0.236566
0.233711
0.230638
0.227401
0.224058
0.220666
0.217281
0.21396
0.210756
0.207718
0.204894
0.202327
0.200054
0.198109
0.196519
0.195306
0.194489
0.194077
0.177363
0.177919
0.179023
0.180657
0.182797
0.185409
0.188453
0.191883
0.195645
0.199681
0.20393
0.208328
0.212806
0.217299
0.221737
0.226056
0.230192
0.234084
0.237678
0.240922
0.243774
0.246197
0.248161
0.249646
0.250638
0.251133
0.251136
0.250658
0.24972
0.24835
0.246581
0.244454
0.242015
0.239313
0.2364
0.233332
0.230164
0.226952
0.223751
0.220613
0.217591
0.214731
0.212076
0.209665
0.207534
0.205713
0.204226
0.203094
0.202331
0.201946
0.179987
0.180552
0.181672
0.183331
0.185503
0.188154
0.191245
0.194727
0.198547
0.202647
0.206964
0.211433
0.215987
0.220558
0.225077
0.229479
0.233699
0.237678
0.241359
0.244694
0.247639
0.250157
0.252221
0.25381
0.254911
0.255523
0.25565
0.255306
0.254511
0.253295
0.251693
0.249746
0.247499
0.245002
0.242306
0.239466
0.236536
0.233568
0.230616
0.227729
0.224954
0.222334
0.219908
0.217711
0.215773
0.21412
0.212772
0.211748
0.211058
0.210711
0.18232
0.182892
0.184027
0.185708
0.187909
0.190597
0.193729
0.197259
0.201132
0.20529
0.20967
0.214206
0.218831
0.223475
0.228072
0.232554
0.236857
0.240922
0.244694
0.248124
0.251168
0.253791
0.255966
0.257675
0.258906
0.259658
0.259937
0.259758
0.259145
0.258126
0.256739
0.255023
0.253027
0.250797
0.248386
0.245846
0.243228
0.240583
0.237959
0.235401
0.232952
0.230649
0.228526
0.22661
0.224927
0.223496
0.222333
0.221451
0.220859
0.220561
0.184325
0.184904
0.186052
0.187753
0.189979
0.192698
0.195867
0.199439
0.20336
0.207571
0.212007
0.216605
0.221294
0.226008
0.230678
0.235237
0.239622
0.243774
0.247639
0.251168
0.254319
0.257058
0.259359
0.261206
0.262589
0.263508
0.263972
0.263997
0.263609
0.262837
0.26172
0.260299
0.258621
0.256733
0.254687
0.252531
0.250314
0.248084
0.245883
0.243751
0.241723
0.23983
0.238097
0.236546
0.235192
0.234049
0.233126
0.232429
0.231962
0.231728
0.185971
0.186555
0.187715
0.189431
0.191679
0.194425
0.197626
0.201235
0.205197
0.209453
0.21394
0.218592
0.223341
0.228119
0.232858
0.237491
0.241957
0.246197
0.250157
0.253791
0.257058
0.259925
0.26237
0.264376
0.265937
0.267055
0.267741
0.268014
0.267901
0.267434
0.266652
0.265598
0.264318
0.26286
0.261272
0.2596
0.257891
0.256185
0.25452
0.252928
0.251435
0.250063
0.248828
0.24774
0.246806
0.24603
0.245412
0.244951
0.244646
0.244493
0.187232
0.18782
0.188988
0.190718
0.192984
0.195751
0.198979
0.202618
0.206615
0.21091
0.21544
0.22014
0.224942
0.229779
0.234582
0.239287
0.243833
0.248161
0.252221
0.255966
0.259359
0.26237
0.264976
0.267165
0.268934
0.270287
0.271239
0.27181
0.27203
0.271935
0.271563
0.27096
0.270171
0.269244
0.268223
0.267154
0.266076
0.265025
0.264029
0.263112
0.26229
0.261572
0.260962
0.260458
0.260054
0.259741
0.259508
0.259345
0.259243
0.259193
0.188087
0.188679
0.189853
0.191593
0.193872
0.196657
0.199904
0.203567
0.207592
0.211919
0.216485
0.221227
0.226075
0.230964
0.235828
0.240602
0.245227
0.249646
0.25381
0.257675
0.261206
0.264376
0.267165
0.269566
0.271576
0.273206
0.274471
0.275398
0.276018
0.27637
0.276495
0.276438
0.276248
0.275968
0.275643
0.275314
0.275012
0.274768
0.274599
0.274518
0.274527
0.274622
0.27479
0.275014
0.27527
0.275536
0.275785
0.275995
0.276147
0.276226
0.188524
0.189118
0.190297
0.192043
0.194331
0.197127
0.200388
0.204069
0.208114
0.212465
0.217061
0.221836
0.226725
0.231662
0.236582
0.241423
0.246126
0.250638
0.254911
0.258906
0.262589
0.265937
0.268934
0.271576
0.273867
0.275818
0.277453
0.2788
0.279895
0.280779
0.281499
0.2821
0.28263
0.283133
0.283652
0.28422
0.284865
0.285605
0.286449
0.287393
0.288424
0.289521
0.290649
0.291772
0.292847
0.29383
0.294677
0.295351
0.29582
0.296059
0.188535
0.18913
0.190311
0.192061
0.194353
0.197155
0.200425
0.204115
0.208174
0.212542
0.21716
0.221962
0.226886
0.231865
0.236837
0.241743
0.246525
0.251133
0.255523
0.259658
0.263508
0.267055
0.270287
0.273206
0.275818
0.278144
0.280209
0.282048
0.283702
0.285217
0.286641
0.288024
0.289414
0.290855
0.292386
0.294035
0.295823
0.297756
0.299828
0.302021
0.3043
0.306621
0.308927
0.311156
0.313238
0.315105
0.316691
0.317938
0.318798
0.319235
0.188122
0.188717
0.189897
0.191646
0.193939
0.196741
0.200013
0.203707
0.207772
0.212151
0.216783
0.221606
0.226557
0.231574
0.236596
0.241565
0.246427
0.251136
0.25565
0.259937
0.263972
0.267741
0.271239
0.274471
0.277453
0.280209
0.282772
0.285183
0.28749
0.289743
0.291996
0.294302
0.296709
0.299263
0.301999
0.30494
0.308096
0.311463
0.315017
0.318719
0.322512
0.326322
0.330064
0.333644
0.33696
0.339912
0.342406
0.344358
0.3457
0.346382
0.18729
0.187883
0.189061
0.190807
0.193095
0.195893
0.199161
0.202852
0.206917
0.211298
0.215938
0.220775
0.225749
0.2308
0.235868
0.240899
0.245844
0.250658
0.255306
0.259758
0.263997
0.268014
0.27181
0.275398
0.2788
0.282048
0.285183
0.288255
0.291317
0.294428
0.297647
0.301032
0.304634
0.308499
0.312659
0.317131
0.321917
0.326995
0.332325
0.337841
0.343459
0.349071
0.354557
0.35978
0.364601
0.368881
0.372487
0.375304
0.377238
0.378221
0.186053
0.186644
0.187817
0.189556
0.191835
0.194624
0.197882
0.201565
0.205622
0.21
0.214641
0.219487
0.224478
0.229558
0.234671
0.239765
0.244794
0.24972
0.254511
0.259145
0.263609
0.267901
0.27203
0.276018
0.279895
0.283702
0.28749
0.291317
0.295247
0.299347
0.303683
0.30832
0.313314
0.318711
0.324541
0.330818
0.337529
0.344639
0.352084
0.35977
0.367579
0.375363
0.382956
0.390173
0.396825
0.402723
0.407689
0.411565
0.414225
0.415576
0.184431
0.185019
0.186185
0.187914
0.190181
0.192955
0.196198
0.199866
0.20391
0.208278
0.212915
0.217764
0.222769
0.227874
0.23303
0.238187
0.243305
0.24835
0.253295
0.258126
0.262837
0.267434
0.271935
0.27637
0.280779
0.285217
0.289743
0.294428
0.299347
0.304577
0.310196
0.316274
0.322877
0.330052
0.337829
0.346216
0.35519
0.364697
0.374649
0.384919
0.395348
0.405739
0.415871
0.4255
0.434375
0.442242
0.448866
0.454036
0.457584
0.459387
0.182451
0.183033
0.184191
0.185907
0.188158
0.190913
0.194137
0.197785
0.20181
0.206163
0.210789
0.215636
0.22065
0.22578
0.230977
0.236199
0.24141
0.246581
0.251693
0.256739
0.26172
0.266652
0.271563
0.276495
0.281499
0.286641
0.291996
0.297647
0.303683
0.310196
0.317273
0.325
0.333448
0.342672
0.352702
0.363542
0.375159
0.38748
0.400388
0.413721
0.427269
0.440781
0.453965
0.466506
0.478073
0.488335
0.49698
0.503733
0.508368
0.510724
0.180142
0.18072
0.181866
0.183567
0.185799
0.188532
0.191731
0.195354
0.199356
0.203688
0.2083
0.213141
0.218161
0.223312
0.228551
0.23384
0.239148
0.244454
0.249746
0.255023
0.260299
0.265598
0.27096
0.276438
0.2821
0.288024
0.294302
0.301032
0.30832
0.316274
0.325
0.334596
0.345145
0.356711
0.369331
0.383005
0.397691
0.413297
0.429676
0.446624
0.463875
0.481109
0.497955
0.514006
0.528833
0.542004
0.553114
0.561799
0.567765
0.570799
0.177543
0.178114
0.179249
0.180932
0.183142
0.185849
0.189019
0.192613
0.196587
0.200895
0.205489
0.21032
0.215344
0.220515
0.225796
0.231154
0.236566
0.242015
0.247499
0.253027
0.258621
0.264318
0.270171
0.276248
0.28263
0.289414
0.296709
0.304634
0.313314
0.322877
0.333448
0.345145
0.358068
0.372295
0.38787
0.404796
0.423023
0.442443
0.462878
0.484075
0.505708
0.527374
0.548605
0.568882
0.587654
0.604363
0.618479
0.629529
0.637126
0.640992
0.174694
0.175259
0.17638
0.178044
0.180229
0.182907
0.186046
0.189607
0.19355
0.197829
0.202401
0.207221
0.212246
0.217437
0.222761
0.228192
0.233711
0.239313
0.245002
0.250797
0.256733
0.26286
0.269244
0.275968
0.283133
0.290855
0.299263
0.308499
0.318711
0.330052
0.342672
0.356711
0.372295
0.389519
0.408441
0.429073
0.451363
0.475187
0.500336
0.52651
0.55331
0.580241
0.606718
0.632082
0.65563
0.676644
0.694434
0.708382
0.717983
0.722873
0.171641
0.172199
0.173305
0.174948
0.177106
0.179754
0.182858
0.186384
0.190292
0.194541
0.199088
0.203894
0.208919
0.21413
0.219498
0.225004
0.230638
0.2364
0.242306
0.248386
0.254687
0.261272
0.268223
0.275643
0.283652
0.292386
0.301999
0.312659
0.324541
0.337829
0.352702
0.369331
0.38787
0.408441
0.431127
0.455952
0.48287
0.511748
0.542351
0.574329
0.607205
0.640377
0.673121
0.704611
0.733948
0.760209
0.782499
0.80001
0.812081
0.818234
0.168433
0.168982
0.170074
0.171694
0.173824
0.176439
0.179507
0.182995
0.186867
0.191082
0.195604
0.200394
0.205419
0.21065
0.216064
0.221649
0.227401
0.233332
0.239466
0.245846
0.252531
0.2596
0.267154
0.275314
0.28422
0.294035
0.30494
0.317131
0.330818
0.346216
0.363542
0.383005
0.404796
0.429073
0.455952
0.485482
0.517634
0.552277
0.589154
0.627869
0.667867
0.708424
0.748653
0.787521
0.823887
0.856562
0.884381
0.906288
0.921413
0.929131
0.165119
0.165661
0.166736
0.168334
0.170435
0.173015
0.176046
0.179495
0.183328
0.18751
0.192005
0.196779
0.201804
0.207055
0.212516
0.218182
0.224058
0.230164
0.236536
0.243228
0.250314
0.257891
0.266076
0.275012
0.284865
0.295823
0.308096
0.321917
0.337529
0.35519
0.375159
0.397691
0.423023
0.451363
0.48287
0.517634
0.555658
0.596826
0.640876
0.687374
0.735687
0.784963
0.834127
0.881894
0.926818
0.967361
1.002
1.02936
1.04827
1.05794
0.161753
0.162286
0.163346
0.16492
0.166991
0.169537
0.172529
0.175939
0.179734
0.183881
0.188348
0.193106
0.198131
0.203403
0.208913
0.214663
0.220666
0.226952
0.233568
0.240583
0.248084
0.256185
0.265025
0.274768
0.285605
0.297756
0.311463
0.326995
0.344639
0.364697
0.38748
0.413297
0.442443
0.475187
0.511748
0.552277
0.596826
0.645317
0.697507
0.752942
0.810924
0.870471
0.930297
0.988816
1.04419
1.09443
1.13754
1.17167
1.19533
1.20743
0.158388
0.158913
0.159956
0.161507
0.163549
0.166059
0.169014
0.172384
0.17614
0.180253
0.184693
0.189435
0.19446
0.199754
0.205314
0.211149
0.217281
0.223751
0.230616
0.237959
0.245883
0.25452
0.264029
0.274599
0.286449
0.299828
0.315017
0.332325
0.352084
0.374649
0.400388
0.429676
0.462878
0.500336
0.542351
0.589154
0.640876
0.697507
0.758852
0.824476
0.893641
0.965249
1.03779
1.10933
1.17753
1.23979
1.29346
1.3361
1.3657
1.38085
0.155076
0.155593
0.156621
0.158149
0.160161
0.162638
0.165555
0.168886
0.172605
0.176684
0.181097
0.185824
0.19085
0.196167
0.201777
0.207698
0.21396
0.220613
0.227729
0.235401
0.243751
0.252928
0.263112
0.274518
0.287393
0.302021
0.318719
0.337841
0.35977
0.384919
0.413721
0.446624
0.484075
0.52651
0.574329
0.627869
0.687374
0.752942
0.824476
0.901608
0.983615
1.06933
1.15702
1.24436
1.32838
1.40567
1.47263
1.52598
1.56307
1.58207
0.151871
0.15238
0.153392
0.154898
0.156882
0.159326
0.162207
0.165501
0.169183
0.173229
0.177618
0.182331
0.187359
0.192698
0.198359
0.204365
0.210756
0.217591
0.224954
0.232952
0.241723
0.251435
0.26229
0.274527
0.288424
0.3043
0.322512
0.343459
0.367579
0.395348
0.427269
0.463875
0.505708
0.55331
0.607205
0.667867
0.735687
0.810924
0.893641
0.983615
1.08023
1.18232
1.28803
1.39459
1.4983
1.59455
1.67839
1.74533
1.79189
1.81573
0.148822
0.149324
0.150321
0.151806
0.153764
0.156176
0.159023
0.162281
0.165929
0.169945
0.17431
0.17901
0.18404
0.189403
0.195113
0.201202
0.207718
0.214731
0.222334
0.230649
0.23983
0.250063
0.261572
0.274622
0.289521
0.306621
0.326322
0.349071
0.375363
0.405739
0.440781
0.481109
0.527374
0.580241
0.640377
0.708424
0.784963
0.870471
0.965249
1.06933
1.18232
1.30325
1.43026
1.56028
1.6887
1.80925
1.91477
1.99903
2.05752
2.08743
0.145977
0.146472
0.147457
0.148922
0.150854
0.153237
0.156052
0.159278
0.162894
0.166882
0.171225
0.175915
0.180948
0.186333
0.192091
0.198259
0.204894
0.212076
0.219908
0.228526
0.238097
0.248828
0.260962
0.27479
0.290649
0.308927
0.330064
0.354557
0.382956
0.415871
0.453965
0.497955
0.548605
0.606718
0.673121
0.748653
0.834127
0.930297
1.03779
1.15702
1.28803
1.43026
1.58221
1.74082
1.90066
2.05309
2.18682
2.29316
2.36658
2.40397
0.143382
0.143871
0.144843
0.14629
0.1482
0.150557
0.153343
0.156538
0.160126
0.164088
0.168412
0.173092
0.178128
0.183535
0.189338
0.19558
0.202327
0.209665
0.217711
0.22661
0.236546
0.24774
0.260458
0.275014
0.291772
0.311156
0.333644
0.35978
0.390173
0.4255
0.466506
0.514006
0.568882
0.632082
0.704611
0.787521
0.881894
0.988816
1.10933
1.24436
1.39459
1.56028
1.74082
1.93399
2.13436
2.33038
2.50136
2.63555
2.72716
2.77349
0.141077
0.14156
0.142521
0.143953
0.145842
0.148176
0.150936
0.154105
0.157667
0.161607
0.165915
0.170586
0.175626
0.181053
0.186896
0.193207
0.200054
0.207534
0.215773
0.224927
0.235192
0.246806
0.260054
0.27527
0.292847
0.313238
0.33696
0.364601
0.396825
0.434375
0.478073
0.528833
0.587654
0.65563
0.733948
0.823887
0.926818
1.04419
1.17753
1.32838
1.4983
1.6887
1.90066
2.13436
2.38734
2.64802
2.86836
3.03646
3.14914
3.20557
0.139098
0.139576
0.140528
0.141946
0.143819
0.146132
0.14887
0.152017
0.155557
0.159478
0.163772
0.168436
0.17348
0.178924
0.184804
0.191173
0.198109
0.205713
0.21412
0.223496
0.234049
0.24603
0.259741
0.275536
0.29383
0.315105
0.339912
0.368881
0.402723
0.442242
0.488335
0.542004
0.604363
0.676644
0.760209
0.856562
0.967361
1.09443
1.23979
1.40567
1.59455
1.80925
2.05309
2.33038
2.64802
3.02185
3.30382
3.50926
3.64403
3.71083
0.137476
0.137951
0.138895
0.140302
0.14216
0.144457
0.147178
0.150306
0.153829
0.157734
0.162016
0.166675
0.171723
0.177182
0.183091
0.18951
0.196519
0.204226
0.212772
0.222333
0.233126
0.245412
0.259508
0.275785
0.294677
0.316691
0.342406
0.372487
0.407689
0.448866
0.49698
0.553114
0.618479
0.694434
0.782499
0.884381
1.002
1.13754
1.29346
1.47263
1.67839
1.91477
2.18682
2.50136
2.86836
3.30382
3.63249
3.86968
4.024
4.10012
0.136237
0.136709
0.137647
0.139046
0.140894
0.143178
0.145885
0.148999
0.152508
0.156402
0.160675
0.165331
0.170381
0.175852
0.181785
0.188241
0.195306
0.203094
0.211748
0.221451
0.232429
0.244951
0.259345
0.275995
0.295351
0.317938
0.344358
0.375304
0.411565
0.454036
0.503733
0.561799
0.629529
0.708382
0.80001
0.906288
1.02936
1.17167
1.3361
1.52598
1.74533
1.99903
2.29316
2.63555
3.03646
3.50926
3.86968
4.13028
4.29969
4.38314
0.1354
0.13587
0.136805
0.138197
0.140038
0.142314
0.145012
0.148117
0.151617
0.155503
0.15977
0.164423
0.169475
0.174954
0.180903
0.187385
0.194489
0.202331
0.211058
0.220859
0.231962
0.244646
0.259243
0.276147
0.29582
0.318798
0.3457
0.377238
0.414225
0.457584
0.508368
0.567765
0.637126
0.717983
0.812081
0.921413
1.04827
1.19533
1.3657
1.56307
1.79189
2.05752
2.36658
2.72716
3.14914
3.64403
4.024
4.29969
4.47911
4.56753
0.134979
0.135447
0.13638
0.137769
0.139607
0.141878
0.144571
0.147671
0.151167
0.155049
0.159314
0.163965
0.169019
0.174501
0.180458
0.186954
0.194077
0.201946
0.210711
0.220561
0.231728
0.244493
0.259193
0.276226
0.296059
0.319235
0.346382
0.378221
0.415576
0.459387
0.510724
0.570799
0.640992
0.722873
0.818234
0.929131
1.05794
1.20743
1.38085
1.58207
1.81573
2.08743
2.40397
2.77349
3.20557
3.71083
4.10012
4.38314
4.56753
4.65842
)
;

boundaryField
{
    walls
    {
        type            zeroGradient;
    }
    frontAndBack
    {
        type            empty;
    }
}


// ************************************************************************* //
