/*--------------------------------*- C++ -*----------------------------------*\
| =========                 |                                                 |
| \\      /  F ield         | OpenFOAM: The Open Source CFD Toolbox           |
|  \\    /   O peration     | Version:  2406                                  |
|   \\  /    A nd           | Website:  www.openfoam.com                      |
|    \\/     M anipulation  |                                                 |
\*---------------------------------------------------------------------------*/
FoamFile
{
    version     2.0;
    format      ascii;
    arch        "LSB;label=32;scalar=64";
    class       volVectorField;
    location    "0.1";
    object      flux;
}
// * * * * * * * * * * * * * * * * * * * * * * * * * * * * * * * * * * * * * //

dimensions      [0 1 -1 1 0 0 0];

internalField   nonuniform List<vector> 
2500
(
(0.00039182 0.00039182 0)
(0.00118963 0.000429669 0)
(0.00203116 0.000506511 0)
(0.00294234 0.000624657 0)
(0.00394162 0.000787226 0)
(0.00504033 0.000997836 0)
(0.00623978 0.00126018 0)
(0.00752971 0.00157754 0)
(0.00888731 0.00195222 0)
(0.010277 0.0023851 0)
(0.0116513 0.00287507 0)
(0.0129524 0.00341873 0)
(0.0141153 0.00401008 0)
(0.0150714 0.0046405 0)
(0.0157533 0.0052988 0)
(0.0160992 0.00597152 0)
(0.0160576 0.0066434 0)
(0.0155921 0.00729796 0)
(0.0146841 0.00791817 0)
(0.0133352 0.00848718 0)
(0.0115682 0.00898906 0)
(0.00942627 0.0094094 0)
(0.00697117 0.00973601 0)
(0.00428042 0.00995927 0)
(0.00144335 0.0100726 0)
(-0.00144333 0.0100726 0)
(-0.00428045 0.00995934 0)
(-0.00697132 0.00973612 0)
(-0.00942658 0.00940956 0)
(-0.0115687 0.00898924 0)
(-0.0133359 0.00848738 0)
(-0.014685 0.00791837 0)
(-0.0155932 0.00729815 0)
(-0.0160589 0.00664357 0)
(-0.0161005 0.00597165 0)
(-0.0157547 0.00529888 0)
(-0.0150728 0.00464053 0)
(-0.0141164 0.00401005 0)
(-0.0129533 0.00341863 0)
(-0.011652 0.00287492 0)
(-0.0102775 0.0023849 0)
(-0.00888747 0.00195199 0)
(-0.00752959 0.00157727 0)
(-0.00623944 0.00125991 0)
(-0.00503986 0.00099757 0)
(-0.00394114 0.000786982 0)
(-0.00294202 0.000624457 0)
(-0.00203125 0.000506377 0)
(-0.00118951 0.000429595 0)
(-0.000391526 0.000391644 0)
(0.000429669 0.00118963 0)
(0.00130432 0.00130432 0)
(0.00222615 0.00153704 0)
(0.00322305 0.00189485 0)
(0.0043148 0.0023871 0)
(0.00551328 0.00302462 0)
(0.00681948 0.00381845 0)
(0.00822176 0.00477832 0)
(0.00969488 0.00591109 0)
(0.0111999 0.00721914 0)
(0.0126849 0.00869897 0)
(0.0140874 0.0103401 0)
(0.015337 0.0121242 0)
(0.0163602 0.0140253 0)
(0.0170844 0.0160093 0)
(0.0174438 0.0180358 0)
(0.017384 0.0200587 0)
(0.0168669 0.0220286 0)
(0.0158733 0.0238943 0)
(0.0144061 0.0256053 0)
(0.0124905 0.0271139 0)
(0.0101732 0.0283771 0)
(0.00752103 0.0293584 0)
(0.004617 0.0300291 0)
(0.0015567 0.0303696 0)
(-0.00155658 0.0303698 0)
(-0.00461694 0.0300297 0)
(-0.0075211 0.0293594 0)
(-0.0101735 0.0283785 0)
(-0.0124909 0.0271156 0)
(-0.0144068 0.0256073 0)
(-0.0158742 0.0238964 0)
(-0.016868 0.0220309 0)
(-0.0173854 0.0200611 0)
(-0.0174452 0.0180381 0)
(-0.0170858 0.0160116 0)
(-0.0163616 0.0140274 0)
(-0.0153383 0.0121262 0)
(-0.0140885 0.0103418 0)
(-0.0126857 0.00870047 0)
(-0.0112004 0.00722038 0)
(-0.00969509 0.00591208 0)
(-0.00822167 0.00477907 0)
(-0.00681915 0.00381899 0)
(-0.00551278 0.00302498 0)
(-0.00431425 0.00238732 0)
(-0.00322263 0.00189499 0)
(-0.00222611 0.00153717 0)
(-0.00130425 0.00130452 0)
(-0.000429478 0.00118978 0)
(0.000506511 0.00203116 0)
(0.00153704 0.00222615 0)
(0.0026217 0.0026217 0)
(0.0037924 0.00322961 0)
(0.00507138 0.00406544 0)
(0.00647168 0.0051472 0)
(0.00799348 0.00649309 0)
(0.00962236 0.00811905 0)
(0.0113281 0.010036 0)
(0.0130649 0.0122474 0)
(0.0147722 0.0147466 0)
(0.0163776 0.0175152 0)
(0.0178004 0.0205219 0)
(0.0189565 0.023722 0)
(0.0197638 0.0270584 0)
(0.0201486 0.0304626 0)
(0.0200504 0.0338574 0)
(0.0194277 0.03716 0)
(0.0182608 0.0402852 0)
(0.0165549 0.043149 0)
(0.01434 0.0456722 0)
(0.0116708 0.0477837 0)
(0.00862316 0.0494232 0)
(0.0052916 0.0505434 0)
(0.00178403 0.051112 0)
(-0.00178319 0.0511123 0)
(-0.00529085 0.0505446 0)
(-0.00862257 0.0494251 0)
(-0.0116704 0.0477863 0)
(-0.01434 0.0456754 0)
(-0.0165551 0.0431527 0)
(-0.0182614 0.0402893 0)
(-0.0194286 0.0371644 0)
(-0.0200516 0.033862 0)
(-0.02015 0.0304672 0)
(-0.0197654 0.027063 0)
(-0.0189581 0.0237265 0)
(-0.017802 0.020526 0)
(-0.0163791 0.017519 0)
(-0.0147735 0.01475 0)
(-0.0130658 0.0122503 0)
(-0.0113288 0.0100385 0)
(-0.00962269 0.00812102 0)
(-0.00799354 0.00649462 0)
(-0.00647152 0.00514834 0)
(-0.00507113 0.00406625 0)
(-0.00379217 0.00323015 0)
(-0.00262172 0.00262207 0)
(-0.00153691 0.00222645 0)
(-0.000506267 0.00203157 0)
(0.000624657 0.00294234 0)
(0.00189485 0.00322305 0)
(0.00322961 0.0037924 0)
(0.0046668 0.0046668 0)
(0.00623238 0.00586799 0)
(0.00794093 0.00742095 0)
(0.00979133 0.00935081 0)
(0.0117647 0.0116792 0)
(0.0138232 0.0144204 0)
(0.0159104 0.0175779 0)
(0.0179527 0.0211409 0)
(0.0198627 0.0250818 0)
(0.0215439 0.0293547 0)
(0.0228966 0.0338954 0)
(0.0238249 0.0386218 0)
(0.0242428 0.0434369 0)
(0.0240815 0.0482316 0)
(0.0232947 0.0528896 0)
(0.0218623 0.0572915 0)
(0.0197931 0.0613203 0)
(0.0171252 0.0648663 0)
(0.0139242 0.067831 0)
(0.0102807 0.0701313 0)
(0.00630576 0.0717021 0)
(0.00212563 0.0724991 0)
(-0.00212398 0.0724995 0)
(-0.00630422 0.0717034 0)
(-0.0102794 0.0701334 0)
(-0.0139232 0.0678339 0)
(-0.0171245 0.0648698 0)
(-0.0197929 0.0613244 0)
(-0.0218625 0.0572961 0)
(-0.0232953 0.0528945 0)
(-0.0240826 0.0482368 0)
(-0.0242442 0.0434421 0)
(-0.0238266 0.0386269 0)
(-0.0228985 0.0339003 0)
(-0.0215458 0.0293593 0)
(-0.0198646 0.0250859 0)
(-0.0179544 0.0211445 0)
(-0.0159119 0.017581 0)
(-0.0138244 0.0144229 0)
(-0.0117655 0.0116812 0)
(-0.00979183 0.00935229 0)
(-0.00794116 0.007422 0)
(-0.00623244 0.00586866 0)
(-0.00466681 0.00466718 0)
(-0.00322981 0.00379254 0)
(-0.00189474 0.00322299 0)
(-0.000624358 0.00294238 0)
(0.000787226 0.00394162 0)
(0.0023871 0.0043148 0)
(0.00406544 0.00507138 0)
(0.00586799 0.00623238 0)
(0.00782554 0.00782554 0)
(0.0099545 0.00988254 0)
(0.0122517 0.0124349 0)
(0.014692 0.0155092 0)
(0.0172269 0.0191221 0)
(0.0197854 0.0232758 0)
(0.0222761 0.0279537 0)
(0.0245915 0.0331173 0)
(0.026614 0.0387046 0)
(0.0282236 0.0446297 0)
(0.0293054 0.0507848 0)
(0.0297584 0.0570427 0)
(0.0295031 0.0632622 0)
(0.0284875 0.0692931 0)
(0.0266915 0.0749828 0)
(0.0241297 0.0801821 0)
(0.0208507 0.0847519 0)
(0.0169357 0.0885681 0)
(0.0124943 0.0915262 0)
(0.00765939 0.0935448 0)
(0.0025814 0.0945685 0)
(-0.00257887 0.0945689 0)
(-0.00765699 0.0935462 0)
(-0.0124921 0.0915284 0)
(-0.0169339 0.0885711 0)
(-0.0208494 0.0847557 0)
(-0.0241289 0.0801865 0)
(-0.0266913 0.0749877 0)
(-0.0284878 0.0692985 0)
(-0.0295041 0.0632678 0)
(-0.0297599 0.0570484 0)
(-0.0293072 0.0507904 0)
(-0.0282257 0.0446351 0)
(-0.0266164 0.0387097 0)
(-0.0245938 0.0331219 0)
(-0.0222783 0.0279578 0)
(-0.0197874 0.0232793 0)
(-0.0172286 0.0191249 0)
(-0.0146933 0.0155114 0)
(-0.0122527 0.0124365 0)
(-0.00995515 0.00988369 0)
(-0.00782595 0.00782626 0)
(-0.00586829 0.00623276 0)
(-0.0040659 0.00507147 0)
(-0.00238707 0.00431461 0)
(-0.000786883 0.00394151 0)
(0.000997836 0.00504033 0)
(0.00302462 0.00551328 0)
(0.0051472 0.00647168 0)
(0.00742095 0.00794093 0)
(0.00988254 0.0099545 0)
(0.0125503 0.0125503 0)
(0.015418 0.0157654 0)
(0.0184519 0.0196304 0)
(0.0215899 0.0241629 0)
(0.024742 0.0293621 0)
(0.0277942 0.0352037 0)
(0.0306135 0.0416363 0)
(0.0330563 0.0485796 0)
(0.0349768 0.0559246 0)
(0.0362378 0.0635358 0)
(0.0367202 0.0712555 0)
(0.036332 0.0789098 0)
(0.0350152 0.0863153 0)
(0.0327512 0.0932871 0)
(0.0295623 0.0996459 0)
(0.0255112 0.105225 0)
(0.0206985 0.109878 0)
(0.0152574 0.11348 0)
(0.00934806 0.115936 0)
(0.00314973 0.11718 0)
(-0.00314628 0.117181 0)
(-0.00934476 0.115937 0)
(-0.0152544 0.113482 0)
(-0.0206959 0.109881 0)
(-0.0255091 0.105229 0)
(-0.0295608 0.0996505 0)
(-0.0327505 0.0932923 0)
(-0.0350152 0.086321 0)
(-0.0363327 0.0789157 0)
(-0.0367216 0.0712616 0)
(-0.0362398 0.0635419 0)
(-0.0349793 0.0559305 0)
(-0.033059 0.0485852 0)
(-0.0306165 0.0416415 0)
(-0.0277971 0.0352083 0)
(-0.0247447 0.0293661 0)
(-0.0215923 0.0241662 0)
(-0.0184539 0.019633 0)
(-0.0154195 0.0157674 0)
(-0.0125514 0.0125517 0)
(-0.00988337 0.00995542 0)
(-0.0074216 0.00794145 0)
(-0.00514796 0.00647186 0)
(-0.00302471 0.00551315 0)
(-0.000997464 0.00504024 0)
(0.00126018 0.00623978 0)
(0.00381845 0.00681948 0)
(0.00649309 0.00799348 0)
(0.00935081 0.00979133 0)
(0.0124349 0.0122517 0)
(0.0157654 0.015418 0)
(0.0193318 0.0193318 0)
(0.0230895 0.0240263 0)
(0.0269586 0.0295182 0)
(0.0308262 0.0358018 0)
(0.0345503 0.0428429 0)
(0.0379674 0.050575 0)
(0.0409023 0.0588973 0)
(0.0431797 0.067676 0)
(0.0446362 0.0767468 0)
(0.0451324 0.0859212 0)
(0.044563 0.0949928 0)
(0.0428648 0.103747 0)
(0.0400221 0.111967 0)
(0.0360678 0.119448 0)
(0.0310825 0.125999 0)
(0.0251902 0.131452 0)
(0.0185523 0.135668 0)
(0.0113601 0.138539 0)
(0.00382658 0.139994 0)
(-0.00382222 0.139994 0)
(-0.0113559 0.138541 0)
(-0.0185484 0.13567 0)
(-0.0251868 0.131455 0)
(-0.0310797 0.126003 0)
(-0.0360657 0.119453 0)
(-0.0400208 0.111973 0)
(-0.0428644 0.103752 0)
(-0.0445634 0.0949989 0)
(-0.0451337 0.0859275 0)
(-0.0446383 0.0767533 0)
(-0.0431824 0.0676823 0)
(-0.0409054 0.0589034 0)
(-0.0379708 0.0505806 0)
(-0.0345538 0.042848 0)
(-0.0308296 0.0358063 0)
(-0.0269617 0.0295219 0)
(-0.0230921 0.0240293 0)
(-0.019334 0.0193342 0)
(-0.0157671 0.0154197 0)
(-0.0124362 0.0122529 0)
(-0.00935185 0.0097921 0)
(-0.0064942 0.00799388 0)
(-0.00381869 0.00681952 0)
(-0.00125979 0.00623985 0)
(0.00157754 0.00752971 0)
(0.00477832 0.00822176 0)
(0.00811905 0.00962236 0)
(0.0116792 0.0117647 0)
(0.0155092 0.014692 0)
(0.0196304 0.0184519 0)
(0.0240263 0.0230895 0)
(0.0286383 0.0286383 0)
(0.0333655 0.0351125 0)
(0.0380668 0.0424992 0)
(0.0425674 0.0507517 0)
(0.0466679 0.0597862 0)
(0.0501572 0.0694796 0)
(0.0528263 0.0796719 0)
(0.054483 0.0901696 0)
(0.0549662 0.100753 0)
(0.0541574 0.111186 0)
(0.0519897 0.121222 0)
(0.0484528 0.130621 0)
(0.0435938 0.139152 0)
(0.0375148 0.146604 0)
(0.0303674 0.152796 0)
(0.022345 0.157575 0)
(0.0136741 0.160826 0)
(0.00460458 0.162471 0)
(-0.00459938 0.162472 0)
(-0.013669 0.160827 0)
(-0.0223403 0.157577 0)
(-0.0303632 0.152798 0)
(-0.0375112 0.146608 0)
(-0.043591 0.139156 0)
(-0.0484509 0.130626 0)
(-0.0519888 0.121228 0)
(-0.0541575 0.111192 0)
(-0.0549673 0.100759 0)
(-0.0544851 0.0901761 0)
(-0.0528292 0.0796784 0)
(-0.0501607 0.069486 0)
(-0.0466718 0.0597921 0)
(-0.0425714 0.0507572 0)
(-0.0380708 0.0425041 0)
(-0.0333692 0.0351167 0)
(-0.0286416 0.0286418 0)
(-0.0240291 0.0230923 0)
(-0.0196327 0.0184541 0)
(-0.015511 0.0146935 0)
(-0.0116806 0.0117658 0)
(-0.00812054 0.00962304 0)
(-0.00477874 0.00822206 0)
(-0.00157714 0.00753002 0)
(0.00195222 0.00888731 0)
(0.00591109 0.00969488 0)
(0.010036 0.0113281 0)
(0.0144204 0.0138232 0)
(0.0191221 0.0172269 0)
(0.0241629 0.0215899 0)
(0.0295182 0.0269586 0)
(0.0351125 0.0333655 0)
(0.0408195 0.0408195 0)
(0.0464654 0.0492981 0)
(0.0518373 0.05874 0)
(0.0566953 0.0690419 0)
(0.060788 0.0800571 0)
(0.0638696 0.0915982 0)
(0.0657175 0.103443 0)
(0.0661484 0.115342 0)
(0.0650322 0.127031 0)
(0.0623004 0.138238 0)
(0.0579516 0.1487 0)
(0.052051 0.158167 0)
(0.0447263 0.166416 0)
(0.0361606 0.173253 0)
(0.0265826 0.178521 0)
(0.0162568 0.1821 0)
(0.00547242 0.18391 0)
(-0.00546649 0.18391 0)
(-0.016251 0.182101 0)
(-0.0265772 0.178523 0)
(-0.0361556 0.173255 0)
(-0.044722 0.166419 0)
(-0.0520475 0.158171 0)
(-0.057949 0.148704 0)
(-0.0622989 0.138243 0)
(-0.0650318 0.127037 0)
(-0.0661492 0.115348 0)
(-0.0657194 0.103449 0)
(-0.0638725 0.0916046 0)
(-0.0607917 0.0800634 0)
(-0.0566996 0.069048 0)
(-0.0518418 0.0587457 0)
(-0.04647 0.0493032 0)
(-0.040824 0.0408241 0)
(-0.0351166 0.0333693 0)
(-0.0295217 0.0269618 0)
(-0.0241659 0.0215924 0)
(-0.0191245 0.0172288 0)
(-0.0144224 0.0138247 0)
(-0.0100379 0.0113291 0)
(-0.0059117 0.0096955 0)
(-0.00195183 0.00888792 0)
(0.0023851 0.010277 0)
(0.00721914 0.0111999 0)
(0.0122474 0.0130649 0)
(0.0175779 0.0159104 0)
(0.0232758 0.0197854 0)
(0.0293621 0.024742 0)
(0.0358018 0.0308262 0)
(0.0424992 0.0380668 0)
(0.0492981 0.0464654 0)
(0.0559873 0.0559873 0)
(0.0623112 0.0665547 0)
(0.067985 0.078043 0)
(0.0727136 0.090281 0)
(0.0762122 0.103054 0)
(0.0782271 0.116113 0)
(0.0785542 0.129181 0)
(0.0770534 0.141968 0)
(0.0736588 0.154183 0)
(0.0683817 0.165545 0)
(0.0613098 0.175792 0)
(0.0526008 0.184694 0)
(0.0424724 0.192054 0)
(0.0311917 0.197712 0)
(0.0190626 0.201551 0)
(0.00641456 0.203489 0)
(-0.0064081 0.20349 0)
(-0.0190563 0.201551 0)
(-0.0311857 0.197713 0)
(-0.0424668 0.192055 0)
(-0.0525958 0.184696 0)
(-0.0613056 0.175795 0)
(-0.0683784 0.165548 0)
(-0.0736566 0.154187 0)
(-0.0770525 0.141973 0)
(-0.0785546 0.129186 0)
(-0.0782288 0.116119 0)
(-0.076215 0.10306 0)
(-0.0727174 0.0902871 0)
(-0.0679895 0.0780489 0)
(-0.0623162 0.0665603 0)
(-0.0559924 0.0559925 0)
(-0.0493031 0.0464701 0)
(-0.0425039 0.0380709 0)
(-0.035806 0.0308297 0)
(-0.0293657 0.0247449 0)
(-0.0232788 0.0197876 0)
(-0.0175803 0.0159122 0)
(-0.0122497 0.0130662 0)
(-0.00721996 0.0112008 0)
(-0.00238472 0.0102779 0)
(0.00287507 0.0116513 0)
(0.00869897 0.0126849 0)
(0.0147466 0.0147722 0)
(0.0211409 0.0179527 0)
(0.0279537 0.0222761 0)
(0.0352037 0.0277942 0)
(0.0428429 0.0345503 0)
(0.0507517 0.0425674 0)
(0.05874 0.0518373 0)
(0.0665547 0.0623112 0)
(0.073893 0.073893 0)
(0.0804217 0.0864362 0)
(0.0857994 0.0997447 0)
(0.0897015 0.113579 0)
(0.0918439 0.127662 0)
(0.0920035 0.141696 0)
(0.0900343 0.155372 0)
(0.0858769 0.168381 0)
(0.0795607 0.180434 0)
(0.0712007 0.191266 0)
(0.060988 0.200644 0)
(0.0491787 0.208374 0)
(0.0360794 0.214304 0)
(0.022034 0.218319 0)
(0.00741154 0.220345 0)
(-0.00740478 0.220345 0)
(-0.0220273 0.218319 0)
(-0.0360729 0.214304 0)
(-0.0491726 0.208375 0)
(-0.0609825 0.200645 0)
(-0.0711958 0.191268 0)
(-0.0795569 0.180437 0)
(-0.0858741 0.168384 0)
(-0.0900328 0.155375 0)
(-0.0920033 0.141701 0)
(-0.0918451 0.127667 0)
(-0.0897041 0.113584 0)
(-0.0858031 0.0997501 0)
(-0.0804263 0.0864416 0)
(-0.0738983 0.0738983 0)
(-0.0665602 0.0623162 0)
(-0.0587456 0.0518419 0)
(-0.050757 0.0425715 0)
(-0.0428477 0.0345539 0)
(-0.0352079 0.0277972 0)
(-0.0279572 0.0222786 0)
(-0.0211438 0.0179547 0)
(-0.0147493 0.0147738 0)
(-0.0087 0.0126862 0)
(-0.00287472 0.0116525 0)
(0.00341873 0.0129524 0)
(0.0103401 0.0140874 0)
(0.0175152 0.0163776 0)
(0.0250818 0.0198627 0)
(0.0331173 0.0245915 0)
(0.0416363 0.0306135 0)
(0.050575 0.0379674 0)
(0.0597862 0.0466679 0)
(0.0690419 0.0566953 0)
(0.078043 0.067985 0)
(0.0864362 0.0804217 0)
(0.0938367 0.0938367 0)
(0.099856 0.108011 0)
(0.10413 0.12268 0)
(0.106345 0.137548 0)
(0.106264 0.152296 0)
(0.103738 0.166601 0)
(0.0987216 0.18015 0)
(0.0912662 0.192648 0)
(0.081519 0.203833 0)
(0.0697091 0.213482 0)
(0.0561325 0.22141 0)
(0.0411363 0.227475 0)
(0.0251036 0.231573 0)
(0.00844061 0.233638 0)
(-0.00843382 0.233638 0)
(-0.0250969 0.231573 0)
(-0.0411297 0.227474 0)
(-0.0561262 0.22141 0)
(-0.0697032 0.213482 0)
(-0.0815137 0.203834 0)
(-0.0912617 0.192649 0)
(-0.0987182 0.180151 0)
(-0.103736 0.166603 0)
(-0.106263 0.152299 0)
(-0.106346 0.137551 0)
(-0.104132 0.122684 0)
(-0.0998595 0.108015 0)
(-0.0938413 0.0938413 0)
(-0.0864415 0.0804263 0)
(-0.0780488 0.0679896 0)
(-0.0690478 0.0566996 0)
(-0.0597919 0.0466719 0)
(-0.0505803 0.0379709 0)
(-0.041641 0.0306166 0)
(-0.0331213 0.0245941 0)
(-0.025085 0.0198649 0)
(-0.0175182 0.0163795 0)
(-0.0103413 0.0140889 0)
(-0.00341841 0.0129538 0)
(0.00401008 0.0141153 0)
(0.0121242 0.015337 0)
(0.0205219 0.0178004 0)
(0.0293547 0.0215439 0)
(0.0387046 0.026614 0)
(0.0485796 0.0330563 0)
(0.0588973 0.0409023 0)
(0.0694796 0.0501572 0)
(0.0800571 0.060788 0)
(0.090281 0.0727136 0)
(0.0997447 0.0857994 0)
(0.108011 0.099856 0)
(0.114643 0.114643 0)
(0.119238 0.129876 0)
(0.12146 0.145242 0)
(0.121057 0.160411 0)
(0.117888 0.175053 0)
(0.111923 0.188853 0)
(0.103244 0.201523 0)
(0.0920347 0.212811 0)
(0.0785645 0.222508 0)
(0.0631714 0.230447 0)
(0.0462425 0.236502 0)
(0.0281978 0.240585 0)
(0.00947692 0.24264 0)
(-0.0094704 0.24264 0)
(-0.0281913 0.240585 0)
(-0.0462361 0.236502 0)
(-0.063165 0.230446 0)
(-0.0785584 0.222507 0)
(-0.0920291 0.21281 0)
(-0.103239 0.201522 0)
(-0.111919 0.188853 0)
(-0.117886 0.175054 0)
(-0.121056 0.160412 0)
(-0.12146 0.145244 0)
(-0.11924 0.129879 0)
(-0.114646 0.114646 0)
(-0.108015 0.0998595 0)
(-0.09975 0.0858031 0)
(-0.090287 0.0727174 0)
(-0.0800633 0.0607918 0)
(-0.0694857 0.0501608 0)
(-0.058903 0.0409055 0)
(-0.0485847 0.0330592 0)
(-0.0387089 0.0266166 0)
(-0.0293583 0.0215461 0)
(-0.0205252 0.0178024 0)
(-0.0121256 0.0153388 0)
(-0.0040098 0.0141169 0)
(0.0046405 0.0150714 0)
(0.0140253 0.0163602 0)
(0.023722 0.0189565 0)
(0.0338954 0.0228966 0)
(0.0446297 0.0282236 0)
(0.0559246 0.0349768 0)
(0.067676 0.0431797 0)
(0.0796719 0.0528263 0)
(0.0915982 0.0638696 0)
(0.103054 0.0762122 0)
(0.113579 0.0897015 0)
(0.12268 0.10413 0)
(0.129876 0.119238 0)
(0.134729 0.134729 0)
(0.13688 0.150277 0)
(0.136074 0.165547 0)
(0.13218 0.180209 0)
(0.125191 0.193956 0)
(0.115224 0.206513 0)
(0.102505 0.217645 0)
(0.0873455 0.227165 0)
(0.0701269 0.234928 0)
(0.0512744 0.240829 0)
(0.0312411 0.244798 0)
(0.0104951 0.246792 0)
(-0.0104891 0.246792 0)
(-0.0312351 0.244797 0)
(-0.0512683 0.240828 0)
(-0.0701207 0.234926 0)
(-0.0873394 0.227163 0)
(-0.102499 0.217643 0)
(-0.115219 0.206511 0)
(-0.125186 0.193955 0)
(-0.132176 0.180208 0)
(-0.136072 0.165547 0)
(-0.136879 0.150277 0)
(-0.13473 0.13473 0)
(-0.129879 0.11924 0)
(-0.122684 0.104132 0)
(-0.113584 0.0897041 0)
(-0.10306 0.076215 0)
(-0.0916045 0.0638725 0)
(-0.0796781 0.0528292 0)
(-0.0676819 0.0431825 0)
(-0.05593 0.0349794 0)
(-0.0446343 0.028226 0)
(-0.0338992 0.0228988 0)
(-0.0237256 0.0189585 0)
(-0.0140268 0.016362 0)
(-0.00464026 0.0150733 0)
(0.0052988 0.0157533 0)
(0.0160093 0.0170844 0)
(0.0270584 0.0197638 0)
(0.0386218 0.0238249 0)
(0.0507848 0.0293054 0)
(0.0635358 0.0362378 0)
(0.0767468 0.0446362 0)
(0.0901696 0.054483 0)
(0.103443 0.0657175 0)
(0.116113 0.0782271 0)
(0.127662 0.0918439 0)
(0.137548 0.106345 0)
(0.145242 0.12146 0)
(0.150277 0.13688 0)
(0.152277 0.152277 0)
(0.150989 0.167318 0)
(0.146298 0.18168 0)
(0.138227 0.195071 0)
(0.126934 0.207234 0)
(0.112687 0.217961 0)
(0.0958473 0.227088 0)
(0.0768352 0.234497 0)
(0.0561124 0.240109 0)
(0.0341608 0.243872 0)
(0.0114707 0.24576 0)
(-0.0114655 0.245759 0)
(-0.0341554 0.243871 0)
(-0.0561068 0.240107 0)
(-0.0768295 0.234495 0)
(-0.0958414 0.227085 0)
(-0.112682 0.217958 0)
(-0.126928 0.207231 0)
(-0.138222 0.195068 0)
(-0.146294 0.181678 0)
(-0.150987 0.167316 0)
(-0.152276 0.152276 0)
(-0.150277 0.136879 0)
(-0.145244 0.12146 0)
(-0.137551 0.106346 0)
(-0.127667 0.0918452 0)
(-0.116119 0.0782288 0)
(-0.103449 0.0657194 0)
(-0.0901758 0.0544851 0)
(-0.0767528 0.0446384 0)
(-0.0635413 0.03624 0)
(-0.0507895 0.0293074 0)
(-0.0386258 0.0238269 0)
(-0.027062 0.0197658 0)
(-0.0160109 0.0170863 0)
(-0.00529858 0.0157552 0)
(0.00597152 0.0160992 0)
(0.0180358 0.0174438 0)
(0.0304626 0.0201486 0)
(0.0434369 0.0242428 0)
(0.0570427 0.0297584 0)
(0.0712555 0.0367202 0)
(0.0859212 0.0451324 0)
(0.100753 0.0549662 0)
(0.115342 0.0661484 0)
(0.129181 0.0785542 0)
(0.141696 0.0920035 0)
(0.152296 0.106264 0)
(0.160411 0.121057 0)
(0.165547 0.136074 0)
(0.167318 0.150989 0)
(0.165477 0.165477 0)
(0.159933 0.179232 0)
(0.150745 0.191981 0)
(0.138114 0.203492 0)
(0.122358 0.213586 0)
(0.103882 0.222128 0)
(0.0831477 0.229028 0)
(0.0606492 0.234232 0)
(0.036892 0.237712 0)
(0.0123822 0.239453 0)
(-0.0123779 0.239453 0)
(-0.0368876 0.23771 0)
(-0.0606444 0.23423 0)
(-0.0831425 0.229025 0)
(-0.103877 0.222124 0)
(-0.122353 0.213582 0)
(-0.138109 0.203488 0)
(-0.15074 0.191976 0)
(-0.159928 0.179228 0)
(-0.165474 0.165474 0)
(-0.167316 0.150987 0)
(-0.165547 0.136072 0)
(-0.160412 0.121056 0)
(-0.152298 0.106263 0)
(-0.141701 0.0920033 0)
(-0.129186 0.0785546 0)
(-0.115348 0.0661493 0)
(-0.100759 0.0549674 0)
(-0.0859271 0.0451338 0)
(-0.0712609 0.0367218 0)
(-0.0570474 0.0297601 0)
(-0.0434408 0.0242445 0)
(-0.0304662 0.0201504 0)
(-0.0180374 0.0174456 0)
(-0.00597133 0.016101 0)
(0.0066434 0.0160576 0)
(0.0200587 0.017384 0)
(0.0338574 0.0200504 0)
(0.0482316 0.0240815 0)
(0.0632622 0.0295031 0)
(0.0789098 0.036332 0)
(0.0949928 0.044563 0)
(0.111186 0.0541574 0)
(0.127031 0.0650322 0)
(0.141968 0.0770534 0)
(0.155372 0.0900343 0)
(0.166601 0.103738 0)
(0.175053 0.117888 0)
(0.180209 0.13218 0)
(0.18168 0.146298 0)
(0.179232 0.159933 0)
(0.172801 0.172801 0)
(0.162487 0.184654 0)
(0.148539 0.19529 0)
(0.131323 0.204559 0)
(0.111289 0.212356 0)
(0.0889399 0.218622 0)
(0.0647962 0.223327 0)
(0.0393819 0.226461 0)
(0.0132119 0.228026 0)
(-0.0132087 0.228026 0)
(-0.0393784 0.226459 0)
(-0.0647923 0.223324 0)
(-0.0889354 0.218619 0)
(-0.111284 0.212352 0)
(-0.131317 0.204554 0)
(-0.148533 0.195285 0)
(-0.162482 0.184649 0)
(-0.172796 0.172796 0)
(-0.179228 0.159928 0)
(-0.181678 0.146294 0)
(-0.180208 0.132177 0)
(-0.175054 0.117886 0)
(-0.166603 0.103736 0)
(-0.155375 0.0900328 0)
(-0.141973 0.0770526 0)
(-0.127036 0.0650319 0)
(-0.111191 0.0541575 0)
(-0.0949984 0.0445635 0)
(-0.078915 0.0363328 0)
(-0.0632668 0.0295043 0)
(-0.0482354 0.0240829 0)
(-0.0338609 0.020052 0)
(-0.0200604 0.0173858 0)
(-0.00664323 0.0160593 0)
(0.00729796 0.0155921 0)
(0.0220286 0.0168669 0)
(0.03716 0.0194277 0)
(0.0528896 0.0232947 0)
(0.0692931 0.0284875 0)
(0.0863153 0.0350152 0)
(0.103747 0.0428648 0)
(0.121222 0.0519897 0)
(0.138238 0.0623004 0)
(0.154183 0.0736588 0)
(0.168381 0.0858769 0)
(0.18015 0.0987216 0)
(0.188853 0.111923 0)
(0.193956 0.125191 0)
(0.195071 0.138227 0)
(0.191981 0.150745 0)
(0.184654 0.162487 0)
(0.173234 0.173234 0)
(0.158019 0.182816 0)
(0.139425 0.191112 0)
(0.117946 0.198048 0)
(0.0941179 0.203589 0)
(0.0684879 0.207729 0)
(0.0415918 0.210477 0)
(0.0139471 0.211846 0)
(-0.0139449 0.211846 0)
(-0.0415893 0.210475 0)
(-0.0684849 0.207727 0)
(-0.0941142 0.203586 0)
(-0.117941 0.198044 0)
(-0.13942 0.191107 0)
(-0.158014 0.182811 0)
(-0.173229 0.173229 0)
(-0.184649 0.162482 0)
(-0.191976 0.15074 0)
(-0.195068 0.138222 0)
(-0.193955 0.125186 0)
(-0.188853 0.111919 0)
(-0.180151 0.0987182 0)
(-0.168384 0.0858741 0)
(-0.154187 0.0736567 0)
(-0.138243 0.062299 0)
(-0.121227 0.0519889 0)
(-0.103752 0.0428645 0)
(-0.0863202 0.0350153 0)
(-0.0692974 0.028488 0)
(-0.0528931 0.0232956 0)
(-0.0371633 0.0194289 0)
(-0.0220301 0.0168684 0)
(-0.00729779 0.0155936 0)
(0.00791817 0.0146841 0)
(0.0238943 0.0158733 0)
(0.0402852 0.0182608 0)
(0.0572915 0.0218623 0)
(0.0749828 0.0266915 0)
(0.0932871 0.0327512 0)
(0.111967 0.0400221 0)
(0.130621 0.0484528 0)
(0.1487 0.0579516 0)
(0.165545 0.0683817 0)
(0.180434 0.0795607 0)
(0.192648 0.0912662 0)
(0.201523 0.103244 0)
(0.206513 0.115224 0)
(0.207234 0.126934 0)
(0.203492 0.138114 0)
(0.19529 0.148539 0)
(0.182816 0.158019 0)
(0.166416 0.166416 0)
(0.146554 0.173638 0)
(0.123767 0.179637 0)
(0.0986213 0.1844 0)
(0.0716841 0.187941 0)
(0.0434988 0.190281 0)
(0.0145805 0.191444 0)
(-0.0145792 0.191444 0)
(-0.0434973 0.19028 0)
(-0.0716819 0.187939 0)
(-0.0986184 0.184398 0)
(-0.123763 0.179633 0)
(-0.14655 0.173634 0)
(-0.166411 0.166411 0)
(-0.182811 0.158014 0)
(-0.195285 0.148533 0)
(-0.203488 0.138109 0)
(-0.207231 0.126928 0)
(-0.206511 0.115219 0)
(-0.201522 0.103239 0)
(-0.192649 0.0912617 0)
(-0.180437 0.0795569 0)
(-0.165548 0.0683784 0)
(-0.148704 0.0579491 0)
(-0.130626 0.048451 0)
(-0.111972 0.0400209 0)
(-0.0932915 0.0327506 0)
(-0.0749866 0.0266915 0)
(-0.0572945 0.0218627 0)
(-0.0402881 0.0182617 0)
(-0.0238957 0.0158745 0)
(-0.00791799 0.0146854 0)
(0.00848718 0.0133352 0)
(0.0256053 0.0144061 0)
(0.043149 0.0165549 0)
(0.0613203 0.0197931 0)
(0.0801821 0.0241297 0)
(0.0996459 0.0295623 0)
(0.119448 0.0360678 0)
(0.139152 0.0435938 0)
(0.158167 0.052051 0)
(0.175792 0.0613098 0)
(0.191266 0.0712007 0)
(0.203833 0.081519 0)
(0.212811 0.0920347 0)
(0.217645 0.102505 0)
(0.217961 0.112687 0)
(0.213586 0.122358 0)
(0.204559 0.131323 0)
(0.191112 0.139425 0)
(0.173638 0.146554 0)
(0.152645 0.152645 0)
(0.128708 0.157672 0)
(0.102422 0.161639 0)
(0.0743687 0.164571 0)
(0.0450951 0.166501 0)
(0.0151097 0.167458 0)
(-0.0151092 0.167457 0)
(-0.0450944 0.1665 0)
(-0.0743673 0.164569 0)
(-0.10242 0.161636 0)
(-0.128705 0.157669 0)
(-0.152642 0.152642 0)
(-0.173634 0.14655 0)
(-0.191107 0.13942 0)
(-0.204554 0.131317 0)
(-0.213582 0.122353 0)
(-0.217958 0.112682 0)
(-0.217643 0.102499 0)
(-0.21281 0.0920291 0)
(-0.203834 0.0815137 0)
(-0.191267 0.0711959 0)
(-0.175795 0.0613056 0)
(-0.158171 0.0520475 0)
(-0.139156 0.043591 0)
(-0.119452 0.0360658 0)
(-0.0996496 0.0295609 0)
(-0.0801853 0.024129 0)
(-0.0613229 0.0197931 0)
(-0.0431514 0.0165554 0)
(-0.0256065 0.0144071 0)
(-0.00848699 0.0133362 0)
(0.00898906 0.0115682 0)
(0.0271139 0.0124905 0)
(0.0456722 0.01434 0)
(0.0648663 0.0171252 0)
(0.0847519 0.0208507 0)
(0.105225 0.0255112 0)
(0.125999 0.0310825 0)
(0.146604 0.0375148 0)
(0.166416 0.0447263 0)
(0.184694 0.0526008 0)
(0.200644 0.060988 0)
(0.213482 0.0697091 0)
(0.222508 0.0785645 0)
(0.227165 0.0873455 0)
(0.227088 0.0958473 0)
(0.222128 0.103882 0)
(0.212356 0.111289 0)
(0.198048 0.117946 0)
(0.179637 0.123767 0)
(0.157672 0.128708 0)
(0.13276 0.13276 0)
(0.105521 0.135938 0)
(0.0765465 0.138275 0)
(0.0463855 0.139807 0)
(0.0155367 0.140564 0)
(-0.0155368 0.140564 0)
(-0.0463853 0.139806 0)
(-0.0765457 0.138274 0)
(-0.105519 0.135937 0)
(-0.132758 0.132758 0)
(-0.157669 0.128705 0)
(-0.179633 0.123763 0)
(-0.198044 0.117941 0)
(-0.212352 0.111284 0)
(-0.222124 0.103877 0)
(-0.227085 0.0958415 0)
(-0.227163 0.0873394 0)
(-0.222507 0.0785584 0)
(-0.213482 0.0697032 0)
(-0.200645 0.0609825 0)
(-0.184696 0.0525958 0)
(-0.166419 0.044722 0)
(-0.146607 0.0375112 0)
(-0.126002 0.0310797 0)
(-0.105228 0.0255092 0)
(-0.0847544 0.0208495 0)
(-0.0648682 0.0171247 0)
(-0.0456741 0.0143402 0)
(-0.0271148 0.0124911 0)
(-0.00898883 0.011569 0)
(0.0094094 0.00942627 0)
(0.0283771 0.0101732 0)
(0.0477837 0.0116708 0)
(0.067831 0.0139242 0)
(0.0885681 0.0169357 0)
(0.109878 0.0206985 0)
(0.131452 0.0251902 0)
(0.152796 0.0303674 0)
(0.173253 0.0361606 0)
(0.192054 0.0424724 0)
(0.208374 0.0491787 0)
(0.22141 0.0561325 0)
(0.230447 0.0631714 0)
(0.234928 0.0701269 0)
(0.234497 0.0768352 0)
(0.229028 0.0831477 0)
(0.218622 0.0889399 0)
(0.203589 0.0941179 0)
(0.1844 0.0986213 0)
(0.161639 0.102422 0)
(0.135938 0.105521 0)
(0.107937 0.107937 0)
(0.0782372 0.109706 0)
(0.0473838 0.11086 0)
(0.0158665 0.111429 0)
(-0.0158669 0.111429 0)
(-0.0473839 0.110859 0)
(-0.0782369 0.109705 0)
(-0.107936 0.107936 0)
(-0.135937 0.105519 0)
(-0.161636 0.10242 0)
(-0.184397 0.0986184 0)
(-0.203586 0.0941142 0)
(-0.218619 0.0889354 0)
(-0.229025 0.0831425 0)
(-0.234495 0.0768295 0)
(-0.234926 0.0701207 0)
(-0.230446 0.063165 0)
(-0.22141 0.0561262 0)
(-0.208375 0.0491727 0)
(-0.192055 0.0424668 0)
(-0.173255 0.0361556 0)
(-0.152798 0.0303632 0)
(-0.131454 0.0251868 0)
(-0.10988 0.0206959 0)
(-0.0885698 0.016934 0)
(-0.0678322 0.0139233 0)
(-0.047785 0.0116706 0)
(-0.0283777 0.0101736 0)
(-0.00940914 0.00942678 0)
(0.00973601 0.00697117 0)
(0.0293584 0.00752103 0)
(0.0494232 0.00862316 0)
(0.0701313 0.0102807 0)
(0.0915262 0.0124943 0)
(0.11348 0.0152574 0)
(0.135668 0.0185523 0)
(0.157575 0.022345 0)
(0.178521 0.0265826 0)
(0.197712 0.0311917 0)
(0.214304 0.0360794 0)
(0.227475 0.0411363 0)
(0.236502 0.0462425 0)
(0.240829 0.0512744 0)
(0.240109 0.0561124 0)
(0.234232 0.0606492 0)
(0.223327 0.0647962 0)
(0.207729 0.0684879 0)
(0.187941 0.0716841 0)
(0.164571 0.0743687 0)
(0.138275 0.0765465 0)
(0.109706 0.0782372 0)
(0.0794687 0.0794687 0)
(0.0481086 0.0802699 0)
(0.0161056 0.080664 0)
(-0.0161061 0.080664 0)
(-0.0481089 0.0802699 0)
(-0.0794686 0.0794686 0)
(-0.109705 0.0782369 0)
(-0.138274 0.0765457 0)
(-0.164569 0.0743673 0)
(-0.187939 0.0716819 0)
(-0.207727 0.0684849 0)
(-0.223324 0.0647923 0)
(-0.23423 0.0606444 0)
(-0.240107 0.0561068 0)
(-0.240828 0.0512683 0)
(-0.236502 0.0462361 0)
(-0.227474 0.0411297 0)
(-0.214304 0.0360729 0)
(-0.197713 0.0311857 0)
(-0.178522 0.0265772 0)
(-0.157576 0.0223403 0)
(-0.135669 0.0185485 0)
(-0.113481 0.0152545 0)
(-0.091527 0.0124922 0)
(-0.0701316 0.0102795 0)
(-0.0494237 0.0086227 0)
(-0.0293586 0.00752122 0)
(-0.00973569 0.00697145 0)
(0.00995927 0.00428042 0)
(0.0300291 0.004617 0)
(0.0505434 0.0052916 0)
(0.0717021 0.00630576 0)
(0.0935448 0.00765939 0)
(0.115936 0.00934806 0)
(0.138539 0.0113601 0)
(0.160826 0.0136741 0)
(0.1821 0.0162568 0)
(0.201551 0.0190626 0)
(0.218319 0.022034 0)
(0.231573 0.0251036 0)
(0.240585 0.0281978 0)
(0.244798 0.0312411 0)
(0.243872 0.0341608 0)
(0.237712 0.036892 0)
(0.226461 0.0393819 0)
(0.210477 0.0415918 0)
(0.190281 0.0434988 0)
(0.166501 0.0450951 0)
(0.139807 0.0463855 0)
(0.11086 0.0473838 0)
(0.0802699 0.0481086 0)
(0.048579 0.048579 0)
(0.0162606 0.0488101 0)
(-0.016261 0.0488102 0)
(-0.0485793 0.0485793 0)
(-0.0802699 0.0481089 0)
(-0.110859 0.0473839 0)
(-0.139806 0.0463853 0)
(-0.1665 0.0450944 0)
(-0.19028 0.0434973 0)
(-0.210475 0.0415893 0)
(-0.226459 0.0393784 0)
(-0.23771 0.0368876 0)
(-0.243871 0.0341555 0)
(-0.244797 0.0312351 0)
(-0.240585 0.0281913 0)
(-0.231573 0.0250969 0)
(-0.218319 0.0220273 0)
(-0.201551 0.0190563 0)
(-0.182101 0.016251 0)
(-0.160827 0.013669 0)
(-0.13854 0.0113559 0)
(-0.115936 0.00934479 0)
(-0.0935448 0.00765704 0)
(-0.0717016 0.00630428 0)
(-0.0505432 0.00529093 0)
(-0.0300289 0.004617 0)
(-0.0099589 0.00428052 0)
(0.0100726 0.00144335 0)
(0.0303696 0.0015567 0)
(0.051112 0.00178403 0)
(0.0724991 0.00212563 0)
(0.0945685 0.0025814 0)
(0.11718 0.00314973 0)
(0.139994 0.00382658 0)
(0.162471 0.00460458 0)
(0.18391 0.00547242 0)
(0.203489 0.00641456 0)
(0.220345 0.00741154 0)
(0.233638 0.00844061 0)
(0.24264 0.00947692 0)
(0.246792 0.0104951 0)