/*--------------------------------*- C++ -*----------------------------------*\
| =========                 |                                                 |
| \\      /  F ield         | OpenFOAM: The Open Source CFD Toolbox           |
|  \\    /   O peration     | Version:  2406                                  |
|   \\  /    A nd           | Website:  www.openfoam.com                      |
|    \\/     M anipulation  |                                                 |
\*---------------------------------------------------------------------------*/
FoamFile
{
    version     2.0;
    format      ascii;
    arch        "LSB;label=32;scalar=64";
    class       volScalarField;
    location    "0.1";
    object      gradTy;
}
// * * * * * * * * * * * * * * * * * * * * * * * * * * * * * * * * * * * * * //

dimensions      [0 -1 0 1 0 0 0];

internalField   nonuniform List<scalar> 
2500
(
0.0039182
0.00429669
0.00506511
0.00624657
0.00787226
0.00997836
0.0126018
0.0157754
0.0195222
0.023851
0.0287507
0.0341873
0.0401008
0.046405
0.052988
0.0597152
0.066434
0.0729796
0.0791817
0.0848718
0.0898906
0.094094
0.0973601
0.0995927
0.100726
0.100726
0.0995934
0.0973612
0.0940956
0.0898924
0.0848738
0.0791837
0.0729815
0.0664357
0.0597165
0.0529888
0.0464053
0.0401005
0.0341863
0.0287492
0.023849
0.0195199
0.0157727
0.0125991
0.0099757
0.00786982
0.00624457
0.00506377
0.00429595
0.00391644
0.0118963
0.0130432
0.0153704
0.0189485
0.023871
0.0302462
0.0381845
0.0477832
0.0591109
0.0721914
0.0869897
0.103401
0.121242
0.140253
0.160093
0.180358
0.200587
0.220286
0.238943
0.256053
0.271139
0.283771
0.293584
0.300291
0.303696
0.303698
0.300297
0.293594
0.283785
0.271156
0.256073
0.238964
0.220309
0.200611
0.180381
0.160116
0.140274
0.121262
0.103418
0.0870047
0.0722038
0.0591208
0.0477907
0.0381899
0.0302498
0.0238732
0.0189499
0.0153717
0.0130452
0.0118978
0.0203116
0.0222615
0.026217
0.0322961
0.0406544
0.051472
0.0649309
0.0811905
0.10036
0.122474
0.147466
0.175152
0.205219
0.23722
0.270584
0.304626
0.338574
0.3716
0.402852
0.43149
0.456722
0.477837
0.494232
0.505434
0.51112
0.511123
0.505446
0.494251
0.477863
0.456754
0.431527
0.402893
0.371644
0.33862
0.304672
0.27063
0.237265
0.20526
0.17519
0.1475
0.122503
0.100385
0.0812102
0.0649462
0.0514834
0.0406625
0.0323015
0.0262207
0.0222645
0.0203157
0.0294234
0.0322305
0.037924
0.046668
0.0586799
0.0742095
0.0935081
0.116792
0.144204
0.175779
0.211409
0.250818
0.293547
0.338954
0.386218
0.434369
0.482316
0.528896
0.572915
0.613203
0.648663
0.67831
0.701313
0.717021
0.724991
0.724995
0.717034
0.701334
0.678339
0.648698
0.613244
0.572961
0.528945
0.482368
0.434421
0.386269
0.339003
0.293593
0.250859
0.211445
0.17581
0.144229
0.116812
0.0935229
0.07422
0.0586866
0.0466718
0.0379254
0.0322299
0.0294238
0.0394162
0.043148
0.0507138
0.0623238
0.0782554
0.0988254
0.124349
0.155092
0.191221
0.232758
0.279537
0.331173
0.387046
0.446297
0.507848
0.570427
0.632622
0.692931
0.749828
0.801821
0.847519
0.885681
0.915262
0.935448
0.945685
0.945689
0.935462
0.915284
0.885711
0.847557
0.801865
0.749877
0.692985
0.632678
0.570484
0.507904
0.446351
0.387097
0.331219
0.279578
0.232793
0.191249
0.155114
0.124365
0.0988369
0.0782626
0.0623276
0.0507147
0.0431461
0.0394151
0.0504033
0.0551328
0.0647168
0.0794093
0.099545
0.125503
0.157654
0.196304
0.241629
0.293621
0.352037
0.416363
0.485796
0.559246
0.635358
0.712555
0.789098
0.863153
0.932871
0.996459
1.05225
1.09878
1.1348
1.15936
1.1718
1.17181
1.15937
1.13482
1.09881
1.05229
0.996505
0.932923
0.86321
0.789157
0.712616
0.635419
0.559305
0.485852
0.416415
0.352083
0.293661
0.241662
0.19633
0.157674
0.125517
0.0995542
0.0794145
0.0647186
0.0551315
0.0504024
0.0623978
0.0681948
0.0799348
0.0979133
0.122517
0.15418
0.193318
0.240263
0.295182
0.358018
0.428429
0.50575
0.588973
0.67676
0.767468
0.859212
0.949928
1.03747
1.11967
1.19448
1.25999
1.31452
1.35668
1.38539
1.39994
1.39994
1.38541
1.3567
1.31455
1.26003
1.19453
1.11973
1.03752
0.949989
0.859275
0.767533
0.676823
0.589034
0.505806
0.42848
0.358063
0.295219
0.240293
0.193342
0.154197
0.122529
0.097921
0.0799388
0.0681952
0.0623985
0.0752971
0.0822176
0.0962236
0.117647
0.14692
0.184519
0.230895
0.286383
0.351125
0.424992
0.507517
0.597862
0.694796
0.796719
0.901696
1.00753
1.11186
1.21222
1.30621
1.39152
1.46604
1.52796
1.57575
1.60826
1.62471
1.62472
1.60827
1.57577
1.52798
1.46608
1.39156
1.30626
1.21228
1.11192
1.00759
0.901761
0.796784
0.69486
0.597921
0.507572
0.425041
0.351167
0.286418
0.230923
0.184541
0.146935
0.117658
0.0962304
0.0822206
0.0753002
0.0888731
0.0969488
0.113281
0.138232
0.172269
0.215899
0.269586
0.333655
0.408195
0.492981
0.5874
0.690419
0.800571
0.915982
1.03443
1.15342
1.27031
1.38238
1.487
1.58167
1.66416
1.73253
1.78521
1.821
1.8391
1.8391
1.82101
1.78523
1.73255
1.66419
1.58171
1.48704
1.38243
1.27037
1.15348
1.03449
0.916046
0.800634
0.69048
0.587457
0.493032
0.408241
0.333693
0.269618
0.215924
0.172288
0.138247
0.113291
0.096955
0.0888792
0.10277
0.111999
0.130649
0.159104
0.197854
0.24742
0.308262
0.380668
0.464654
0.559873
0.665547
0.78043
0.90281
1.03054
1.16113
1.29181
1.41968
1.54183
1.65545
1.75792
1.84694
1.92054
1.97712
2.01551
2.03489
2.0349
2.01551
1.97713
1.92055
1.84696
1.75795
1.65548
1.54187
1.41973
1.29186
1.16119
1.0306
0.902871
0.780489
0.665603
0.559925
0.464701
0.380709
0.308297
0.247449
0.197876
0.159122
0.130662
0.112008
0.102779
0.116513
0.126849
0.147722
0.179527
0.222761
0.277942
0.345503
0.425674
0.518373
0.623112
0.73893
0.864362
0.997447
1.13579
1.27662
1.41696
1.55372
1.68381
1.80434
1.91266
2.00644
2.08374
2.14304
2.18319
2.20345
2.20345
2.18319
2.14304
2.08375
2.00645
1.91268
1.80437
1.68384
1.55375
1.41701
1.27667
1.13584
0.997501
0.864416
0.738983
0.623162
0.518419
0.425715
0.345539
0.277972
0.222786
0.179547
0.147738
0.126862
0.116525
0.129524
0.140874
0.163776
0.198627
0.245915
0.306135
0.379674
0.466679
0.566953
0.67985
0.804217
0.938367
1.08011
1.2268
1.37548
1.52296
1.66601
1.8015
1.92648
2.03833
2.13482
2.2141
2.27475
2.31573
2.33638
2.33638
2.31573
2.27474
2.2141
2.13482
2.03834
1.92649
1.80151
1.66603
1.52299
1.37551
1.22684
1.08015
0.938413
0.804263
0.679896
0.566996
0.466719
0.379709
0.306166
0.245941
0.198649
0.163795
0.140889
0.129538
0.141153
0.15337
0.178004
0.215439
0.26614
0.330563
0.409023
0.501572
0.60788
0.727136
0.857994
0.99856
1.14643
1.29876
1.45242
1.60411
1.75053
1.88853
2.01523
2.12811
2.22508
2.30447
2.36502
2.40585
2.4264
2.4264
2.40585
2.36502
2.30446
2.22507
2.1281
2.01522
1.88853
1.75054
1.60412
1.45244
1.29879
1.14646
0.998595
0.858031
0.727174
0.607918
0.501608
0.409055
0.330592
0.266166
0.215461
0.178024
0.153388
0.141169
0.150714
0.163602
0.189565
0.228966
0.282236
0.349768
0.431797
0.528263
0.638696
0.762122
0.897015
1.0413
1.19238
1.34729
1.50277
1.65547
1.80209
1.93956
2.06513
2.17645
2.27165
2.34928
2.40829
2.44798
2.46792
2.46792
2.44797
2.40828
2.34926
2.27163
2.17643
2.06511
1.93955
1.80208
1.65547
1.50277
1.3473
1.1924
1.04132
0.897041
0.76215
0.638725
0.528292
0.431825
0.349794
0.28226
0.228988
0.189585
0.16362
0.150733
0.157533
0.170844
0.197638
0.238249
0.293054
0.362378
0.446362
0.54483
0.657175
0.782271
0.918439
1.06345
1.2146
1.3688
1.52277
1.67318
1.8168
1.95071
2.07234
2.17961
2.27088
2.34497
2.40109
2.43872
2.4576
2.45759
2.43871
2.40107
2.34495
2.27085
2.17958
2.07231
1.95068
1.81678
1.67316
1.52276
1.36879
1.2146
1.06346
0.918452
0.782288
0.657194
0.544851
0.446384
0.3624
0.293074
0.238269
0.197658
0.170863
0.157552
0.160992
0.174438
0.201486
0.242428
0.297584
0.367202
0.451324
0.549662
0.661484
0.785542
0.920035
1.06264
1.21057
1.36074
1.50989
1.65477
1.79232
1.91981
2.03492
2.13586
2.22128
2.29028
2.34232
2.37712
2.39453
2.39453
2.3771
2.3423
2.29025
2.22124
2.13582
2.03488
1.91976
1.79228
1.65474
1.50987
1.36072
1.21056
1.06263
0.920033
0.785546
0.661493
0.549674
0.451338
0.367218
0.297601
0.242445
0.201504
0.174456
0.16101
0.160576
0.17384
0.200504
0.240815
0.295031
0.36332
0.44563
0.541574
0.650322
0.770534
0.900343
1.03738
1.17888
1.3218
1.46298
1.59933
1.72801
1.84654
1.9529
2.04559
2.12356
2.18622
2.23327
2.26461
2.28026
2.28026
2.26459
2.23324
2.18619
2.12352
2.04554
1.95285
1.84649
1.72796
1.59928
1.46294
1.32177
1.17886
1.03736
0.900328
0.770526
0.650319
0.541575
0.445635
0.363328
0.295043
0.240829
0.20052
0.173858
0.160593
0.155921
0.168669
0.194277
0.232947
0.284875
0.350152
0.428648
0.519897
0.623004
0.736588
0.858769
0.987216
1.11923
1.25191
1.38227
1.50745
1.62487
1.73234
1.82816
1.91112
1.98048
2.03589
2.07729
2.10477
2.11846
2.11846
2.10475
2.07727
2.03586
1.98044
1.91107
1.82811
1.73229
1.62482
1.5074
1.38222
1.25186
1.11919
0.987182
0.858741
0.736567
0.62299
0.519889
0.428645
0.350153
0.28488
0.232956
0.194289
0.168684
0.155936
0.146841
0.158733
0.182608
0.218623
0.266915
0.327512
0.400221
0.484528
0.579516
0.683817
0.795607
0.912662
1.03244
1.15224
1.26934
1.38114
1.48539
1.58019
1.66416
1.73638
1.79637
1.844
1.87941
1.90281
1.91444
1.91444
1.9028
1.87939
1.84398
1.79633
1.73634
1.66411
1.58014
1.48533
1.38109
1.26928
1.15219
1.03239
0.912617
0.795569
0.683784
0.579491
0.48451
0.400209
0.327506
0.266915
0.218627
0.182617
0.158745
0.146854
0.133352
0.144061
0.165549
0.197931
0.241297
0.295623
0.360678
0.435938
0.52051
0.613098
0.712007
0.81519
0.920347
1.02505
1.12687
1.22358
1.31323
1.39425
1.46554
1.52645
1.57672
1.61639
1.64571
1.66501
1.67458
1.67457
1.665
1.64569
1.61636
1.57669
1.52642
1.4655
1.3942
1.31317
1.22353
1.12682
1.02499
0.920291
0.815137
0.711959
0.613056
0.520475
0.43591
0.360658
0.295609
0.24129
0.197931
0.165554
0.144071
0.133362
0.115682
0.124905
0.1434
0.171252
0.208507
0.255112
0.310825
0.375148
0.447263
0.526008
0.60988
0.697091
0.785645
0.873455
0.958473
1.03882
1.11289
1.17946
1.23767
1.28708
1.3276
1.35938
1.38275
1.39807
1.40564
1.40564
1.39806
1.38274
1.35937
1.32758
1.28705
1.23763
1.17941
1.11284
1.03877
0.958415
0.873394
0.785584
0.697032
0.609825
0.525958
0.44722
0.375112
0.310797
0.255092
0.208495
0.171247
0.143402
0.124911
0.11569
0.0942627
0.101732
0.116708
0.139242
0.169357
0.206985
0.251902
0.303674
0.361606
0.424724
0.491787
0.561325
0.631714
0.701269
0.768352
0.831477
0.889399
0.941179
0.986213
1.02422
1.05521
1.07937
1.09706
1.1086
1.11429
1.11429
1.10859
1.09705
1.07936
1.05519
1.0242
0.986184
0.941142
0.889354
0.831425
0.768295
0.701207
0.63165
0.561262
0.491727
0.424668
0.361556
0.303632
0.251868
0.206959
0.16934
0.139233
0.116706
0.101736
0.0942678
0.0697117
0.0752103
0.0862316
0.102807
0.124943
0.152574
0.185523
0.22345
0.265826
0.311917
0.360794
0.411363
0.462425
0.512744
0.561124
0.606492
0.647962
0.684879
0.716841
0.743687
0.765465
0.782372
0.794687
0.802699
0.80664
0.80664
0.802699
0.794686
0.782369
0.765457
0.743673
0.716819
0.684849
0.647923
0.606444
0.561068
0.512683
0.462361
0.411297
0.360729
0.311857
0.265772
0.223403
0.185485
0.152545
0.124922
0.102795
0.086227
0.0752122
0.0697145
0.0428042
0.04617
0.052916
0.0630576
0.0765939
0.0934806
0.113601
0.136741
0.162568
0.190626
0.22034
0.251036
0.281978
0.312411
0.341608
0.36892
0.393819
0.415918
0.434988
0.450951
0.463855
0.473838
0.481086
0.48579
0.488101
0.488102
0.485793
0.481089
0.473839
0.463853
0.450944
0.434973
0.415893
0.393784
0.368876
0.341555
0.312351
0.281913
0.250969
0.220273
0.190563
0.16251
0.13669
0.113559
0.0934479
0.0765704
0.0630428
0.0529093
0.04617
0.0428052
0.0144335
0.015567
0.0178403
0.0212563
0.025814
0.0314973
0.0382658
0.0460458
0.0547242
0.0641456
0.0741154
0.0844061
0.0947692
0.104951
0.114707
0.123822
0.132119
0.139471
0.145805
0.151097
0.155367
0.158665
0.161056
0.162606
0.163368
0.163369
0.16261
0.161061
0.158669
0.155368
0.151092
0.145792
0.139449
0.132087
0.123779
0.114655
0.104891
0.0947041
0.0843382
0.0740478
0.064081
0.0546649
0.0459938
0.0382223
0.031463
0.0257889
0.0212401
0.0178322
0.0155658
0.0144334
-0.0144333
-0.0155658
-0.0178319
-0.0212398
-0.0257887
-0.0314628
-0.0382222
-0.0459938
-0.0546649
-0.064081
-0.0740478
-0.0843382
-0.094704
-0.104891
-0.114655
-0.123779
-0.132087
-0.139449
-0.145792
-0.151092
-0.155368
-0.158669
-0.161061
-0.16261
-0.163369
-0.163368
-0.162606
-0.161056
-0.158665
-0.155367
-0.151097
-0.145805
-0.139471
-0.132119
-0.123822
-0.114707
-0.104951
-0.0947692
-0.0844061
-0.0741154
-0.0641457
-0.0547242
-0.0460459
-0.0382659
-0.0314974
-0.0258141
-0.0212565
-0.0178405
-0.0155676
-0.0144341
-0.0428045
-0.0461694
-0.0529085
-0.0630422
-0.0765699
-0.0934476
-0.113559
-0.13669
-0.16251
-0.190563
-0.220273
-0.250969
-0.281913
-0.312351
-0.341554
-0.368876
-0.393784
-0.415893
-0.434973
-0.450944
-0.463853
-0.473839
-0.481089
-0.485793
-0.488102
-0.488101
-0.48579
-0.481086
-0.473838
-0.463855
-0.450951
-0.434988
-0.415918
-0.393819
-0.36892
-0.341608
-0.312411
-0.281978
-0.251036
-0.22034
-0.190626
-0.162568
-0.136741
-0.113601
-0.0934809
-0.0765944
-0.0630582
-0.0529168
-0.0461711
-0.0428054
-0.0697132
-0.075211
-0.0862257
-0.102794
-0.124921
-0.152544
-0.185484
-0.223403
-0.265772
-0.311857
-0.360729
-0.411297
-0.462361
-0.512683
-0.561068
-0.606444
-0.647923
-0.684849
-0.716819
-0.743673
-0.765457
-0.782369
-0.794686
-0.802699
-0.80664
-0.80664
-0.802699
-0.794687
-0.782372
-0.765465
-0.743687
-0.716841
-0.684879
-0.647962
-0.606492
-0.561124
-0.512744
-0.462426
-0.411363
-0.360794
-0.311917
-0.265826
-0.22345
-0.185523
-0.152575
-0.124943
-0.102808
-0.0862329
-0.075212
-0.0697135
-0.0942658
-0.101735
-0.116704
-0.139232
-0.169339
-0.206959
-0.251868
-0.303632
-0.361556
-0.424668
-0.491726
-0.561262
-0.63165
-0.701207
-0.768295
-0.831425
-0.889354
-0.941142
-0.986184
-1.0242
-1.05519
-1.07936
-1.09705
-1.10859
-1.11429
-1.11429
-1.1086
-1.09706
-1.07937
-1.05521
-1.02422
-0.986213
-0.941179
-0.889399
-0.831477
-0.768352
-0.701269
-0.631714
-0.561325
-0.491787
-0.424724
-0.361606
-0.303674
-0.251903
-0.206985
-0.169358
-0.139243
-0.116709
-0.101734
-0.0942652
-0.115687
-0.124909
-0.1434
-0.171245
-0.208494
-0.255091
-0.310797
-0.375112
-0.44722
-0.525958
-0.609825
-0.697032
-0.785584
-0.873394
-0.958414
-1.03877
-1.11284
-1.17941
-1.23763
-1.28705
-1.32758
-1.35937
-1.38274
-1.39806
-1.40564
-1.40564
-1.39807
-1.38275
-1.35938
-1.3276
-1.28708
-1.23767
-1.17946
-1.11289
-1.03882
-0.958473
-0.873455
-0.785645
-0.697091
-0.609881
-0.526008
-0.447263
-0.375148
-0.310826
-0.255113
-0.208509
-0.171254
-0.143403
-0.124907
-0.115685
-0.133359
-0.144068
-0.165551
-0.197929
-0.241289
-0.295608
-0.360657
-0.43591
-0.520475
-0.613056
-0.711958
-0.815137
-0.920291
-1.02499
-1.12682
-1.22353
-1.31317
-1.3942
-1.4655
-1.52642
-1.57669
-1.61636
-1.64569
-1.665
-1.67457
-1.67458
-1.66501
-1.64571
-1.61639
-1.57672
-1.52645
-1.46554
-1.39425
-1.31323
-1.22358
-1.12687
-1.02505
-0.920347
-0.81519
-0.712007
-0.613098
-0.52051
-0.435939
-0.360679
-0.295624
-0.241299
-0.197933
-0.165551
-0.144064
-0.133356
-0.14685
-0.158742
-0.182614
-0.218625
-0.266913
-0.327505
-0.400208
-0.484509
-0.57949
-0.683784
-0.795569
-0.912617
-1.03239
-1.15219
-1.26928
-1.38109
-1.48533
-1.58014
-1.66411
-1.73634
-1.79633
-1.84397
-1.87939
-1.9028
-1.91444
-1.91444
-1.90281
-1.87941
-1.844
-1.79637
-1.73638
-1.66416
-1.58019
-1.48539
-1.38114
-1.26934
-1.15224
-1.03244
-0.912662
-0.795608
-0.683817
-0.579517
-0.484529
-0.400222
-0.327513
-0.266917
-0.218625
-0.182611
-0.158737
-0.146845
-0.155932
-0.16868
-0.194286
-0.232953
-0.284878
-0.350152
-0.428644
-0.519888
-0.622989
-0.736566
-0.858741
-0.987182
-1.11919
-1.25186
-1.38222
-1.5074
-1.62482
-1.73229
-1.82811
-1.91107
-1.98044
-2.03586
-2.07727
-2.10475
-2.11846
-2.11846
-2.10477
-2.07729
-2.03589
-1.98048
-1.91112
-1.82816
-1.73234
-1.62487
-1.50745
-1.38227
-1.25191
-1.11923
-0.987216
-0.858769
-0.736588
-0.623005
-0.519898
-0.428649
-0.350153
-0.284877
-0.232949
-0.19428
-0.168673
-0.155925
-0.160589
-0.173854
-0.200516
-0.240826
-0.295041
-0.363327
-0.445634
-0.541575
-0.650318
-0.770525
-0.900328
-1.03736
-1.17886
-1.32176
-1.46294
-1.59928
-1.72796
-1.84649
-1.95285
-2.04554
-2.12352
-2.18619
-2.23324
-2.26459
-2.28026
-2.28026
-2.26461
-2.23327
-2.18622
-2.12356
-2.04559
-1.9529
-1.84654
-1.72801
-1.59933
-1.46298
-1.3218
-1.17888
-1.03738
-0.900343
-0.770535
-0.650322
-0.541574
-0.445631
-0.363321
-0.295033
-0.240818
-0.200508
-0.173845
-0.160581
-0.161005
-0.174452
-0.2015
-0.242442
-0.297599
-0.367216
-0.451337
-0.549673
-0.661492
-0.785546
-0.920033
-1.06263
-1.21056
-1.36072
-1.50987
-1.65474
-1.79228
-1.91976
-2.03488
-2.13582
-2.22124
-2.29025
-2.3423
-2.3771
-2.39453
-2.39453
-2.37712
-2.34232
-2.29028
-2.22128
-2.13586
-2.03492
-1.91981
-1.79232
-1.65477
-1.50989
-1.36074
-1.21057
-1.06264
-0.920035
-0.785542
-0.661485
-0.549662
-0.451325
-0.367204
-0.297586
-0.24243
-0.20149
-0.174442
-0.160996
-0.157547
-0.170858
-0.197654
-0.238266
-0.293072
-0.362398
-0.446383
-0.544851
-0.657194
-0.782288
-0.918451
-1.06346
-1.2146
-1.36879
-1.52276
-1.67316
-1.81678
-1.95068
-2.07231
-2.17958
-2.27085
-2.34495
-2.40107
-2.43871
-2.45759
-2.4576
-2.43872
-2.40109
-2.34497
-2.27088
-2.17961
-2.07234
-1.95071
-1.8168
-1.67318
-1.52277
-1.3688
-1.21459
-1.06345
-0.918439
-0.782271
-0.657175
-0.544831
-0.446363
-0.36238
-0.293056
-0.238252
-0.197643
-0.170848
-0.157538
-0.150728
-0.163616
-0.189581
-0.228985
-0.282257
-0.349793
-0.431824
-0.528292
-0.638725
-0.76215
-0.897041
-1.04132
-1.1924
-1.3473
-1.50277
-1.65547
-1.80208
-1.93955
-2.06511
-2.17643
-2.27163
-2.34926
-2.40828
-2.44797
-2.46792
-2.46792
-2.44798
-2.40829
-2.34928
-2.27165
-2.17645
-2.06513
-1.93956
-1.80209
-1.65547
-1.50277
-1.34729
-1.19238
-1.0413
-0.897016
-0.762122
-0.638696
-0.528264
-0.431798
-0.349769
-0.282238
-0.228969
-0.189569
-0.163606
-0.150719
-0.141164
-0.153383
-0.17802
-0.215458
-0.266164
-0.33059
-0.409054
-0.501607
-0.607917
-0.727174
-0.858031
-0.998595
-1.14646
-1.29879
-1.45244
-1.60412
-1.75054
-1.88853
-2.01522
-2.1281
-2.22507
-2.30446
-2.36502
-2.40585
-2.4264
-2.4264
-2.40585
-2.36502
-2.30447
-2.22508
-2.12811
-2.01522
-1.88853
-1.75053
-1.60411
-1.45242
-1.29876
-1.14643
-0.99856
-0.857994
-0.727136
-0.60788
-0.501573
-0.409024
-0.330564
-0.266142
-0.215442
-0.178008
-0.153375
-0.141158
-0.129533
-0.140885
-0.163791
-0.198646
-0.245938
-0.306165
-0.379708
-0.466718
-0.566996
-0.679895
-0.804263
-0.938413
-1.08015
-1.22684
-1.37551
-1.52298
-1.66603
-1.80151
-1.92649
-2.03834
-2.13482
-2.2141
-2.27474
-2.31573
-2.33638
-2.33638
-2.31573
-2.27475
-2.2141
-2.13482
-2.03833
-1.92648
-1.8015
-1.66601
-1.52296
-1.37547
-1.2268
-1.08011
-0.938367
-0.804217
-0.67985
-0.566953
-0.46668
-0.379674
-0.306137
-0.245916
-0.198629
-0.16378
-0.140878
-0.129528
-0.11652
-0.126857
-0.147735
-0.179544
-0.222783
-0.277971
-0.345538
-0.425714
-0.518418
-0.623162
-0.738983
-0.864415
-0.9975
-1.13584
-1.27667
-1.41701
-1.55375
-1.68384
-1.80437
-1.91267
-2.00645
-2.08375
-2.14304
-2.18319
-2.20345
-2.20345
-2.18319
-2.14304
-2.08374
-2.00644
-1.91266
-1.80434
-1.68381
-1.55372
-1.41696
-1.27662
-1.13579
-0.997447
-0.864361
-0.73893
-0.623112
-0.518373
-0.425674
-0.345503
-0.277943
-0.222762
-0.17953
-0.147726
-0.126853
-0.116517
-0.102775
-0.112004
-0.130658
-0.159119
-0.197874
-0.247447
-0.308296
-0.380708
-0.4647
-0.559924
-0.665602
-0.780488
-0.90287
-1.0306
-1.16119
-1.29186
-1.41973
-1.54187
-1.65548
-1.75795
-1.84696
-1.92055
-1.97713
-2.01551
-2.03489
-2.03489
-2.0155
-1.97712
-1.92054
-1.84694
-1.75792
-1.65544
-1.54183
-1.41968
-1.29181
-1.16113
-1.03054
-0.90281
-0.780429
-0.665546
-0.559872
-0.464654
-0.380668
-0.308263
-0.247421
-0.197855
-0.159107
-0.130652
-0.112002
-0.102774
-0.0888747
-0.0969509
-0.113288
-0.138244
-0.172286
-0.215923
-0.269617
-0.333692
-0.40824
-0.493031
-0.587456
-0.690478
-0.800633
-0.916045
-1.03449
-1.15348
-1.27036
-1.38243
-1.48704
-1.58171
-1.66419
-1.73255
-1.78522
-1.82101
-1.8391
-1.83909
-1.821
-1.78521
-1.73253
-1.66416
-1.58167
-1.487
-1.38238
-1.27031
-1.15342
-1.03443
-0.915981
-0.800569
-0.690418
-0.587399
-0.49298
-0.408195
-0.333654
-0.269586
-0.2159
-0.17227
-0.138235
-0.113284
-0.0969521
-0.0888769
-0.0752959
-0.0822167
-0.0962269
-0.117655
-0.146933
-0.184539
-0.230921
-0.286416
-0.351166
-0.425039
-0.50757
-0.597919
-0.694857
-0.796781
-0.901758
-1.00759
-1.11191
-1.21227
-1.30626
-1.39156
-1.46607
-1.52798
-1.57576
-1.60827
-1.62471
-1.62471
-1.60825
-1.57574
-1.52795
-1.46604
-1.39151
-1.30621
-1.21222
-1.11185
-1.00753
-0.901693
-0.796716
-0.694794
-0.59786
-0.507515
-0.42499
-0.351124
-0.286382
-0.230894
-0.184519
-0.146921
-0.117649
-0.0962262
-0.0822204
-0.0753004
-0.0623944
-0.0681915
-0.0799354
-0.0979183
-0.122527
-0.154195
-0.19334
-0.240291
-0.295217
-0.35806
-0.428477
-0.505803
-0.58903
-0.676819
-0.767528
-0.859271
-0.949984
-1.03752
-1.11972
-1.19452
-1.26002
-1.31454
-1.35669
-1.3854
-1.39994
-1.39993
-1.38539
-1.35667
-1.31451
-1.25998
-1.19448
-1.11967
-1.03746
-0.949923
-0.859207
-0.767464
-0.676756
-0.58897
-0.505747
-0.428427
-0.358016
-0.29518
-0.240261
-0.193317
-0.154179
-0.122517
-0.0979145
-0.0799369
-0.068197
-0.0624004
-0.0503986
-0.0551278
-0.0647152
-0.0794116
-0.0995515
-0.125514
-0.157671
-0.196327
-0.241659
-0.293657
-0.352079
-0.41641
-0.485847
-0.5593
-0.635413
-0.712609
-0.78915
-0.863202
-0.932915
-0.996496
-1.05228
-1.0988
-1.13481
-1.15936
-1.1718
-1.17179
-1.15935
-1.13479
-1.09877
-1.05224
-0.99645
-0.932863
-0.863145
-0.78909
-0.712548
-0.635351
-0.55924
-0.485791
-0.416359
-0.352034
-0.293618
-0.241626
-0.196302
-0.157653
-0.125502
-0.0995446
-0.0794098
-0.0647181
-0.0551344
-0.0504052
-0.0394114
-0.0431425
-0.0507113
-0.0623244
-0.0782595
-0.0988337
-0.124362
-0.15511
-0.191245
-0.232788
-0.279572
-0.331213
-0.387089
-0.446343
-0.507895
-0.570474
-0.632668
-0.692974
-0.749866
-0.801853
-0.847544
-0.885698
-0.91527
-0.935448
-0.945675
-0.945671
-0.935434
-0.915248
-0.885668
-0.847506
-0.801809
-0.749816
-0.69292
-0.632612
-0.570417
-0.507839
-0.446289
-0.387039
-0.331167
-0.279532
-0.232753
-0.191217
-0.155088
-0.124346
-0.0988235
-0.0782542
-0.0623235
-0.0507144
-0.0431488
-0.0394174
-0.0294202
-0.0322263
-0.0379217
-0.0466681
-0.0586829
-0.074216
-0.0935185
-0.116806
-0.144224
-0.175803
-0.211438
-0.25085
-0.293583
-0.338992
-0.386258
-0.434408
-0.482354
-0.528931
-0.572945
-0.613229
-0.648682
-0.678322
-0.701316
-0.717016
-0.724977
-0.724973
-0.717004
-0.701296
-0.678293
-0.648647
-0.613188
-0.5729
-0.528882
-0.482303
-0.434357
-0.386207
-0.338943
-0.293538
-0.25081
-0.211402
-0.175773
-0.144199
-0.116787
-0.0935044
-0.0742067
-0.0586779
-0.0466669
-0.0379237
-0.0322307
-0.0294241
-0.0203125
-0.0222611
-0.0262172
-0.0322981
-0.040659
-0.0514796
-0.064942
-0.0812054
-0.100379
-0.122497
-0.147493
-0.175182
-0.205252
-0.237256
-0.27062
-0.304662
-0.338609
-0.371633
-0.402881
-0.431514
-0.456741
-0.47785
-0.494237
-0.505432
-0.51111
-0.511106
-0.505421
-0.494219
-0.477825
-0.45671
-0.431479
-0.402842
-0.37159
-0.338565
-0.304617
-0.270576
-0.237214
-0.205213
-0.175147
-0.147461
-0.12247
-0.100357
-0.0811878
-0.0649287
-0.0514704
-0.0406534
-0.0322956
-0.0262172
-0.0222622
-0.020313
-0.0118951
-0.0130425
-0.0153691
-0.0189474
-0.0238707
-0.0302471
-0.0381869
-0.0477874
-0.059117
-0.0721996
-0.087
-0.103413
-0.121256
-0.140268
-0.160109
-0.180374
-0.200604
-0.220301
-0.238957
-0.256065
-0.271148
-0.283777
-0.293586
-0.300289
-0.30369
-0.303688
-0.300284
-0.293577
-0.283764
-0.271132
-0.256047
-0.238937
-0.22028
-0.200582
-0.180353
-0.160089
-0.140249
-0.121239
-0.103398
-0.0869873
-0.0721894
-0.0591093
-0.0477819
-0.0381835
-0.0302455
-0.0238706
-0.0189485
-0.0153709
-0.0130443
-0.011898
-0.00391526
-0.00429478
-0.00506267
-0.00624358
-0.00786883
-0.00997464
-0.0125979
-0.0157714
-0.0195183
-0.0238472
-0.0287472
-0.0341841
-0.040098
-0.0464026
-0.0529858
-0.0597133
-0.0664323
-0.0729779
-0.0791799
-0.0848699
-0.0898883
-0.0940914
-0.0973569
-0.099589
-0.100722
-0.100721
-0.0995883
-0.0973557
-0.0940898
-0.0898864
-0.0848679
-0.0791779
-0.0729761
-0.0664307
-0.0597121
-0.0529851
-0.0464024
-0.0400985
-0.0341852
-0.0287489
-0.0238494
-0.0195209
-0.0157743
-0.0126009
-0.00997764
-0.00787172
-0.00624624
-0.00506507
-0.00429709
-0.00391878
)
;

boundaryField
{
    walls
    {
        type            calculated;
        value           nonuniform List<scalar> 
200
(
0
0
0
0
0
0
0
0
0
0
0
0
0
0
0
0
0
0
0
0
0
0
0
0
0
0
0
0
0
0
0
0
0
0
0
0
0
0
0
0
0
0
0
0
0
0
0
0
0
0
0.0039182
0.0118963
0.0203116
0.0294234
0.0394162
0.0504033
0.0623978
0.0752971
0.0888731
0.10277
0.116513
0.129524
0.141153
0.150714
0.157533
0.160992
0.160576
0.155921
0.146841
0.133352
0.115682
0.0942627
0.0697117
0.0428042
0.0144335
-0.0144333
-0.0428045
-0.0697132
-0.0942658
-0.115687
-0.133359
-0.14685
-0.155932
-0.160589
-0.161005
-0.157547
-0.150728
-0.141164
-0.129533
-0.11652
-0.102775
-0.0888747
-0.0752959
-0.0623944
-0.0503986
-0.0394114
-0.0294202
-0.0203125
-0.0118951
-0.00391526
0.00391644
0.0118978
0.0203157
0.0294238
0.0394151
0.0504024
0.0623985
0.0753002
0.0888792
0.102779
0.116525
0.129538
0.141169
0.150733
0.157552
0.16101
0.160593
0.155936
0.146854
0.133362
0.11569
0.0942678
0.0697145
0.0428052
0.0144334
-0.0144341
-0.0428054
-0.0697135
-0.0942652
-0.115685
-0.133356
-0.146845
-0.155925
-0.160581
-0.160996
-0.157538
-0.150719
-0.141158
-0.129528
-0.116517
-0.102774
-0.0888769
-0.0753004
-0.0624004
-0.0504052
-0.0394174
-0.0294241
-0.020313
-0.011898
-0.00391878
0
0
0
0
0
0
0
0
0
0
0
0
0
0
0
0
0
0
0
0
0
0
0
0
0
0
0
0
0
0
0
0
0
0
0
0
0
0
0
0
0
0
0
0
0
0
0
0
0
0
)
;
    }
    frontAndBack
    {
        type            empty;
    }
}


// ************************************************************************* //
