/*--------------------------------*- C++ -*----------------------------------*\
| =========                 |                                                 |
| \\      /  F ield         | OpenFOAM: The Open Source CFD Toolbox           |
|  \\    /   O peration     | Version:  2406                                  |
|   \\  /    A nd           | Website:  www.openfoam.com                      |
|    \\/     M anipulation  |                                                 |
\*---------------------------------------------------------------------------*/
FoamFile
{
    version     2.0;
    format      ascii;
    arch        "LSB;label=32;scalar=64";
    class       volScalarField;
    location    "0.1";
    object      T;
}
// * * * * * * * * * * * * * * * * * * * * * * * * * * * * * * * * * * * * * //

dimensions      [0 0 0 1 0 0 0];

internalField   nonuniform List<scalar> 
2500
(
0.0015492
0.00170593
0.00202505
0.00251839
0.00320198
0.00409504
0.00521812
0.00659095
0.00823
0.0101459
0.0123408
0.0148064
0.0175218
0.0204525
0.0235503
0.0267538
0.02999
0.0331769
0.0362268
0.0390505
0.0415609
0.0436778
0.0453314
0.0464663
0.0470436
0.0470436
0.0464663
0.0453314
0.0436777
0.0415608
0.0390502
0.0362264
0.0331762
0.0299891
0.0267527
0.0235489
0.0204508
0.0175198
0.0148042
0.0123385
0.0101434
0.0082275
0.00658845
0.00521566
0.00409267
0.00319972
0.00251621
0.00202291
0.00170371
0.0015471
0.00170593
0.00187779
0.00222765
0.00276825
0.00351687
0.00449417
0.00572219
0.00722196
0.00901089
0.0110999
0.0134908
0.0161739
0.0191258
0.0223087
0.0256698
0.0291424
0.0326473
0.036096
0.0393941
0.0424454
0.0451565
0.0474415
0.0492258
0.05045
0.0510726
0.0510726
0.05045
0.0492259
0.0474416
0.0451565
0.0424452
0.0393938
0.0360955
0.0326466
0.0291414
0.0256685
0.022307
0.0191238
0.0161717
0.0134885
0.0110974
0.00900829
0.00721936
0.00571963
0.0044917
0.00351451
0.002766
0.00222546
0.00187555
0.00170376
0.00202505
0.00222765
0.00263987
0.00327633
0.00415682
0.00530489
0.00674549
0.00850228
0.0105944
0.0130335
0.0158204
0.0189424
0.0223715
0.0260626
0.029954
0.0339681
0.0380135
0.0419883
0.0457845
0.0492926
0.0524065
0.0550286
0.0570748
0.0584779
0.0591914
0.0591915
0.0584782
0.0570752
0.0550291
0.052407
0.0492931
0.045785
0.0419886
0.0380136
0.0339679
0.0299536
0.0260618
0.0223703
0.018941
0.0158187
0.0130316
0.0105923
0.00850008
0.00674326
0.00530266
0.00415465
0.00327421
0.00263778
0.00222552
0.00202302
0.00251839
0.00276825
0.00327633
0.0040601
0.00514305
0.00655305
0.00831942
0.0104696
0.0130253
0.0159989
0.0193895
0.02318
0.0273345
0.0317975
0.0364932
0.0413274
0.0461903
0.0509601
0.0555082
0.059705
0.0634254
0.066555
0.0689951
0.0706673
0.0715174
0.0715176
0.0706678
0.0689959
0.0665561
0.0634266
0.0597063
0.0555095
0.0509613
0.0461914
0.0413282
0.0364937
0.0317976
0.0273343
0.0231793
0.0193884
0.0159975
0.0130237
0.0104678
0.00831748
0.00655103
0.00514101
0.00405806
0.00327429
0.00276613
0.00251639
0.00320198
0.00351687
0.00415682
0.00514305
0.00650402
0.00827327
0.0104858
0.0131739
0.0163626
0.0200647
0.0242768
0.0289751
0.0341133
0.0396207
0.0454028
0.0513429
0.0573061
0.0631441
0.0687011
0.0738208
0.078353
0.0821611
0.0851273
0.0871588
0.0881911
0.0881913
0.0871595
0.0851285
0.0821627
0.078355
0.0738229
0.0687034
0.0631464
0.0573083
0.0513448
0.0454043
0.0396219
0.034114
0.0289753
0.0242765
0.020064
0.0163615
0.0131725
0.0104842
0.00827146
0.00650211
0.00514108
0.0041548
0.00351472
0.00319997
0.00409504
0.00449417
0.00530489
0.00655305
0.00827327
0.0105061
0.0132934
0.0166733
0.0206742
0.0253092
0.030571
0.0364269
0.0428164
0.0496494
0.0568071
0.0641445
0.0714952
0.0786773
0.0855013
0.0917778
0.0973262
0.101982
0.105606
0.108085
0.109345
0.109345
0.108086
0.105607
0.101985
0.0973289
0.0917809
0.0855046
0.0786807
0.0714985
0.0641476
0.0568098
0.0496517
0.0428181
0.0364281
0.0305715
0.0253092
0.0206737
0.0166723
0.0132921
0.0105045
0.00827152
0.00655116
0.00530288
0.00449198
0.00409299
0.00521812
0.00572219
0.00674549
0.00831942
0.0104858
0.0132934
0.016792
0.0210261
0.0260278
0.0318096
0.0383583
0.0456297
0.0535452
0.0619906
0.0708171
0.0798451
0.08887
0.0976703
0.106016
0.113679
0.120443
0.126112
0.130519
0.133533
0.135063
0.135064
0.133534
0.130521
0.126115
0.120447
0.113683
0.10602
0.0976748
0.0888746
0.0798494
0.0708211
0.0619941
0.0535481
0.0456319
0.0383598
0.0318104
0.026028
0.0210257
0.0167911
0.0132921
0.0104843
0.00831766
0.00674354
0.00571998
0.00521606
0.00659095
0.00722196
0.00850228
0.0104696
0.0131739
0.0166733
0.0210261
0.0262838
0.0324814
0.0396299
0.0477081
0.0566569
0.0663753
0.0767198
0.0875058
0.098513
0.109492
0.120176
0.130288
0.139557
0.147726
0.154563
0.159873
0.163501
0.165342
0.165343
0.163503
0.159875
0.154566
0.14773
0.139562
0.130294
0.120182
0.109498
0.0985186
0.0875111
0.0767246
0.0663795
0.0566603
0.0477107
0.0396317
0.0324824
0.026284
0.0210258
0.0166724
0.0131727
0.010468
0.00850043
0.00721979
0.00658893
0.00823
0.00901089
0.0105944
0.0130253
0.0163626
0.0206742
0.0260278
0.0324814
0.0400728
0.0488092
0.0586589
0.0695441
0.0813371
0.0938593
0.106885
0.120146
0.133344
0.146159
0.158264
0.16934
0.179085
0.18723
0.193549
0.197863
0.200052
0.200052
0.197865
0.193552
0.187234
0.17909
0.169346
0.158271
0.146166
0.133351
0.120153
0.106891
0.0938654
0.0813425
0.0695488
0.0586627
0.048812
0.0400747
0.0324825
0.026028
0.0206738
0.0163617
0.013024
0.0105928
0.00900881
0.00822807
0.0101459
0.0110999
0.0130335
0.0159989
0.0200647
0.0253092
0.0318096
0.0396299
0.0488092
0.0593492
0.0712041
0.0842736
0.0983981
0.113359
0.128883
0.14465
0.160305
0.175471
0.189768
0.202824
0.214292
0.223864
0.231281
0.236341
0.238906
0.238907
0.236343
0.231284
0.223869
0.214298
0.20283
0.189775
0.175479
0.160313
0.144658
0.128891
0.113366
0.0984048
0.0842795
0.071209
0.059353
0.0488121
0.0396318
0.0318105
0.0253094
0.0200642
0.0159979
0.0130321
0.011098
0.0101441
0.0123408
0.0134908
0.0158204
0.0193895
0.0242768
0.030571
0.0383583
0.0477081
0.0586589
0.0712041
0.0852808
0.100761
0.117449
0.135081
0.15333
0.171819
0.190131
0.207832
0.224482
0.239657
0.252963
0.264052
0.272634
0.278484
0.281448
0.281448
0.278486
0.272637
0.264057
0.252968
0.239664
0.22449
0.207841
0.19014
0.171828
0.153339
0.13509
0.117457
0.100768
0.0852868
0.071209
0.0586627
0.0477108
0.0383599
0.0305717
0.0242768
0.0193888
0.0158192
0.0134891
0.0123392
0.0148064
0.0161739
0.0189424
0.02318
0.0289751
0.0364269
0.0456297
0.0566569
0.0695441
0.0842736
0.100761
0.118848
0.138296
0.158791
0.179948
0.201328
0.222453
0.242824
0.261942
0.27933
0.29455
0.307214
0.317003
0.323668
0.327044
0.327045
0.323671
0.317006
0.307219
0.294555
0.279337
0.26195
0.242833
0.222463
0.201338
0.179958
0.1588
0.138305
0.118856
0.100768
0.0842795
0.0695488
0.0566604
0.045632
0.0364283
0.0289756
0.0231798
0.0189416
0.0161725
0.0148051
0.0175218
0.0191258
0.0223715
0.0273345
0.0341133
0.0428164
0.0535452
0.0663753
0.0813371
0.0983981
0.117449
0.138296
0.160654
0.184153
0.208349
0.232737
0.256772
0.279892
0.301541
0.32119
0.338355
0.352616
0.363624
0.371113
0.374903
0.374904
0.371115
0.363627
0.35262
0.338361
0.321197
0.301549
0.279901
0.256782
0.232747
0.208359
0.184163
0.160663
0.138305
0.117457
0.0984049
0.0813426
0.0663796
0.0535483
0.0428184
0.0341144
0.0273348
0.022371
0.0191247
0.0175208
0.0204525
0.0223087
0.0260626
0.0317975
0.0396207
0.0496494
0.0619906
0.0767198
0.0938593
0.113359
0.135081
0.158791
0.184153
0.210741
0.238045
0.265493
0.292475
0.318365
0.342551
0.364455
0.383553
0.399393
0.411604
0.419903
0.4241
0.424101
0.419904
0.411607
0.399397
0.383558
0.364461
0.342559
0.318374
0.292484
0.265503
0.238055
0.210751
0.184163
0.1588
0.13509
0.113366
0.0938655
0.0767247
0.0619943
0.0496519
0.0396223
0.0317982
0.0260626
0.022308
0.0204519
0.0235503
0.0256698
0.029954
0.0364932
0.0454028
0.0568071
0.0708171
0.0875058
0.106885
0.128883
0.15333
0.179948
0.208349
0.238045
0.26846
0.298956
0.328856
0.357475
0.384146
0.408248
0.429221
0.446587
0.459956
0.469032
0.47362
0.47362
0.469034
0.459958
0.446591
0.429226
0.408254
0.384154
0.357483
0.328865
0.298966
0.26847
0.238055
0.208359
0.179958
0.153339
0.128891
0.106892
0.0875113
0.0708213
0.0568101
0.0454048
0.0364943
0.0299545
0.0256695
0.0235501
0.0267538
0.0291424
0.0339681
0.0413274
0.0513429
0.0641445
0.0798451
0.098513
0.120146
0.14465
0.171819
0.201328
0.232737
0.265493
0.298956
0.33242
0.365147
0.396393
0.425445
0.451639
0.474388
0.493192
0.507647
0.517451
0.522404
0.522404
0.517453
0.507649
0.493195
0.474392
0.451644
0.425451
0.396401
0.365155
0.33243
0.298966
0.265503
0.232747
0.201338
0.171828
0.144658
0.120153
0.0985188
0.0798496
0.0641479
0.0513453
0.0413289
0.0339689
0.0291425
0.026754
0.02999
0.0326473
0.0380135
0.0461903
0.0573061
0.0714952
0.08887
0.109492
0.133344
0.160305
0.190131
0.222453
0.256772
0.292475
0.328856
0.365147
0.400549
0.434267
0.465543
0.493682
0.518072
0.538198
0.553648
0.564117
0.569401
0.569401
0.564118
0.55365
0.538201
0.518076
0.493687
0.465549
0.434274
0.400556
0.365155
0.328865
0.292484
0.256782
0.222463
0.19014
0.160313
0.133351
0.109498
0.0888748
0.0714988
0.0573088
0.0461921
0.0380146
0.0326478
0.0299905
0.0331769
0.036096
0.0419883
0.0509601
0.0631441
0.0786773
0.0976703
0.120176
0.146159
0.175471
0.207832
0.242824
0.279892
0.318365
0.357475
0.396393
0.434267
0.470255
0.503561
0.533462
0.559331
0.580641
0.596978
0.608036
0.613614
0.613615
0.608037
0.596979
0.580643
0.559333
0.533466
0.503565
0.47026
0.434274
0.396401
0.357483
0.318374
0.279901
0.242833
0.207841
0.175479
0.146166
0.120182
0.097675
0.0786811
0.063147
0.0509621
0.0419897
0.0360968
0.0331777
0.0362268
0.0393941
0.0457845
0.0555082
0.0687011
0.0855013
0.106016
0.130288
0.158264
0.189768
0.224482
0.261942
0.301541
0.342551
0.384146
0.425445
0.465543
0.503561
0.53867
0.570127
0.597292
0.619634
0.63674
0.648308
0.65414
0.65414
0.648308
0.636741
0.619635
0.597293
0.57013
0.538673
0.503565
0.465549
0.425451
0.384154
0.342559
0.301549
0.26195
0.22449
0.189775
0.158271
0.130294
0.106021
0.085505
0.068704
0.0555103
0.0457862
0.0393951
0.0362279
0.0390505
0.0424454
0.0492926
0.059705
0.0738208
0.0917778
0.113679
0.139557
0.16934
0.202824
0.239657
0.27933
0.32119
0.364455
0.408248
0.451639
0.493682
0.533462
0.570127
0.602918
0.631185
0.654401
0.672154
0.684148
0.690192
0.690192
0.684149
0.672154
0.654402
0.631186
0.602919
0.57013
0.533466
0.493687
0.451644
0.408254
0.364461
0.321197
0.279337
0.239664
0.20283
0.169346
0.139562
0.113683
0.0917813
0.0738235
0.0597072
0.0492944
0.0424466
0.0390518
0.0415609
0.0451565
0.0524065
0.0634254
0.078353
0.0973262
0.120443
0.147726
0.179085
0.214292
0.252963
0.29455
0.338355
0.383553
0.429221
0.474388
0.518072
0.559331
0.597292
0.631185
0.66036
0.684289
0.702568
0.714908
0.721123
0.721123
0.714908
0.702568
0.68429
0.660361
0.631186
0.597293
0.559333
0.518076
0.474392
0.429226
0.383558
0.338361
0.294556
0.252968
0.214298
0.17909
0.14773
0.120447
0.0973293
0.0783556
0.0634276
0.0524083
0.0451579
0.0415624
0.0436778
0.0474415
0.0550286
0.066555
0.0821611
0.101982
0.126112
0.154563
0.18723
0.223864
0.264052
0.307214
0.352616
0.399393
0.446587
0.493192
0.538198
0.580641
0.619634
0.654401
0.684289
0.708776
0.727464
0.740071
0.746418
0.746418
0.740071
0.727464
0.708776
0.68429
0.654402
0.619635
0.580643
0.538201
0.493195
0.446591
0.399397
0.35262
0.307219
0.264057
0.223869
0.187234
0.154567
0.126115
0.101985
0.0821633
0.066557
0.0550305
0.0474431
0.0436794
0.0453314
0.0492258
0.0570748
0.0689951
0.0851273
0.105606
0.130519
0.159873
0.193549
0.231281
0.272634
0.317003
0.363624
0.411604
0.459956
0.507647
0.553648
0.596978
0.63674
0.672154
0.702568
0.727464
0.746451
0.759252
0.765694
0.765694
0.759252
0.74645
0.727464
0.702568
0.672154
0.636741
0.596979
0.55365
0.507649
0.459958
0.411607
0.363627
0.317006
0.272637
0.231284
0.193552
0.159875
0.130522
0.105608
0.0851292
0.0689969
0.0570766
0.0492274
0.0453331
0.0464663
0.05045
0.0584779
0.0706673
0.0871588
0.108085
0.133533
0.163501
0.197863
0.236341
0.278484
0.323668
0.371113
0.419903
0.469032
0.517451
0.564117
0.608036
0.648308
0.684148
0.714908
0.740071
0.759252
0.772179
0.778683
0.778683
0.772179
0.759252
0.740071
0.714908
0.684149
0.648308
0.608037
0.564118
0.517453
0.469034
0.419904
0.371115
0.323671
0.278486
0.236343
0.197865
0.163503
0.133535
0.108087
0.0871602
0.0706688
0.0584796
0.0504516
0.046468
0.0470436
0.0510726
0.0591914
0.0715174
0.0881911
0.109345
0.135063
0.165342
0.200052
0.238906
0.281448
0.327044
0.374903
0.4241
0.47362
0.522404
0.569401
0.613614
0.65414
0.690192
0.721123
0.746418
0.765694
0.778683
0.785218
0.785218
0.778683
0.765694
0.746418
0.721123
0.690192
0.65414
0.613615
0.569401
0.522404
0.47362
0.424101
0.374904
0.327045
0.281448
0.238907
0.200053
0.165343
0.135064
0.109346
0.088192
0.0715186
0.0591929
0.0510742
0.0470453
0.0470436
0.0510726
0.0591915
0.0715176
0.0881913
0.109345
0.135064
0.165343
0.200052
0.238907
0.281448
0.327045
0.374904
0.424101
0.47362
0.522404
0.569401
0.613615
0.65414
0.690192
0.721123
0.746418
0.765694
0.778683
0.785218
0.785218
0.778683
0.765694
0.746418
0.721123
0.690192
0.65414
0.613614
0.569401
0.522404
0.47362
0.4241
0.374903
0.327044
0.281448
0.238906
0.200052
0.165343
0.135064
0.109345
0.0881918
0.0715184
0.0591928
0.0510742
0.0470453
0.0464663
0.05045
0.0584782
0.0706678
0.0871595
0.108086
0.133534
0.163503
0.197865
0.236343
0.278486
0.323671
0.371115
0.419904
0.469034
0.517453
0.564118
0.608037
0.648308
0.684149
0.714908
0.740071
0.759252
0.772179
0.778683
0.778683
0.772179
0.759252
0.740071
0.714908
0.684148
0.648308
0.608036
0.564117
0.517451
0.469032
0.419903
0.371113
0.323669
0.278484
0.236341
0.197864
0.163501
0.133533
0.108086
0.0871595
0.0706683
0.0584793
0.0504515
0.046468
0.0453314
0.0492259
0.0570752
0.0689959
0.0851285
0.105607
0.130521
0.159875
0.193552
0.231284
0.272637
0.317006
0.363627
0.411607
0.459958
0.507649
0.55365
0.596979
0.636741
0.672154
0.702568
0.727464
0.74645
0.759252
0.765694
0.765694
0.759252
0.746451
0.727464
0.702568
0.672154
0.63674
0.596978
0.553648
0.507647
0.459956
0.411604
0.363624
0.317003
0.272634
0.231281
0.193549
0.159873
0.13052
0.105606
0.085128
0.0689961
0.0570762
0.0492273
0.0453331
0.0436777
0.0474416
0.0550291
0.0665561
0.0821627
0.101985
0.126115
0.154566
0.187234
0.223869
0.264057
0.307219
0.35262
0.399397
0.446591
0.493195
0.538201
0.580643
0.619635
0.654402
0.68429
0.708776
0.727464
0.740071
0.746418
0.746418
0.740071
0.727464
0.708776
0.684289
0.654401
0.619634
0.580641
0.538198
0.493192
0.446587
0.399393
0.352616
0.307214
0.264052
0.223864
0.187231
0.154563
0.126112
0.101983
0.0821617
0.066556
0.05503
0.047443
0.0436794
0.0415608
0.0451565
0.052407
0.0634266
0.078355
0.0973289
0.120447
0.14773
0.17909
0.214298
0.252968
0.294555
0.338361
0.383558
0.429226
0.474392
0.518076
0.559333
0.597293
0.631186
0.660361
0.68429
0.702568
0.714908
0.721123
0.721123
0.714908
0.702568
0.684289
0.66036
0.631185
0.597292
0.559331
0.518072
0.474388
0.429221
0.383553
0.338355
0.29455
0.252963
0.214292
0.179085
0.147726
0.120443
0.0973266
0.0783537
0.0634264
0.0524078
0.045158
0.0415625
0.0390502
0.0424452
0.0492931
0.0597063
0.0738229
0.0917809
0.113683
0.139562
0.169346
0.20283
0.239664
0.279337
0.321197
0.364461
0.408254
0.451644
0.493687
0.533466
0.57013
0.602919
0.631186
0.654402
0.672154
0.684149
0.690192
0.690192
0.684148
0.672154
0.654401
0.631185
0.602918
0.570127
0.533462
0.493682
0.451639
0.408248
0.364455
0.32119
0.27933
0.239657
0.202824
0.16934
0.139557
0.113679
0.0917782
0.0738214
0.0597059
0.0492939
0.0424467
0.039052
0.0362264
0.0393938
0.045785
0.0555095
0.0687034
0.0855046
0.10602
0.130294
0.158271
0.189775
0.22449
0.26195
0.301549
0.342559
0.384154
0.425451
0.465549
0.503565
0.538673
0.57013
0.597293
0.619635
0.636741
0.648308
0.65414
0.65414
0.648308
0.63674
0.619634
0.597292
0.570127
0.53867
0.503561
0.465543
0.425445
0.384146
0.342551
0.301541
0.261942
0.224482
0.189768
0.158265
0.130288
0.106016
0.0855017
0.0687017
0.055509
0.0457857
0.0393954
0.0362283
0.0331762
0.0360955
0.0419886
0.0509613
0.0631464
0.0786807
0.0976748
0.120182
0.146166
0.175479
0.207841
0.242833
0.279901
0.318374
0.357483
0.396401
0.434274
0.47026
0.503565
0.533466
0.559333
0.580643
0.596979
0.608037
0.613615
0.613614
0.608036
0.596978
0.580641
0.559331
0.533462
0.503561
0.470255
0.434267
0.396393
0.357475
0.318365
0.279892
0.242824
0.207832
0.175471
0.146159
0.120176
0.0976705
0.0786777
0.0631447
0.0509609
0.0419894
0.0360973
0.0331782
0.0299891
0.0326466
0.0380136
0.0461914
0.0573083
0.0714985
0.0888746
0.109498
0.133351
0.160313
0.19014
0.222463
0.256782
0.292484
0.328865
0.365155
0.400556
0.434274
0.465549
0.493687
0.518076
0.538201
0.55365
0.564118
0.569401
0.569401
0.564117
0.553648
0.538198
0.518072
0.493682
0.465543
0.434267
0.400549
0.365147
0.328856
0.292475
0.256772
0.222453
0.190132
0.160305
0.133344
0.109492
0.0888703
0.0714955
0.0573067
0.0461911
0.0380145
0.0326485
0.0299913
0.0267527
0.0291414
0.0339679
0.0413282
0.0513448
0.0641476
0.0798494
0.0985186
0.120153
0.144658
0.171828
0.201338
0.232747
0.265503
0.298966
0.33243
0.365155
0.396401
0.425451
0.451644
0.474392
0.493195
0.507649
0.517453
0.522404
0.522404
0.517451
0.507647
0.493192
0.474388
0.451639
0.425445
0.396393
0.365147
0.33242
0.298956
0.265493
0.232737
0.201329
0.171819
0.14465
0.120146
0.0985131
0.0798453
0.0641449
0.0513434
0.0413282
0.0339691
0.0291435
0.026755
0.0235489
0.0256685
0.0299536
0.0364937
0.0454043
0.0568098
0.0708211
0.0875111
0.106891
0.128891
0.153339
0.179958
0.208359
0.238055
0.26847
0.298966
0.328865
0.357483
0.384154
0.408254
0.429226
0.446591
0.459958
0.469034
0.47362
0.47362
0.469032
0.459956
0.446587
0.429221
0.408248
0.384146
0.357475
0.328856
0.298956
0.26846
0.238045
0.208349
0.179948
0.15333
0.128883
0.106885
0.087506
0.0708173
0.0568074
0.0454032
0.0364939
0.029955
0.0256708
0.0235514
0.0204508
0.022307
0.0260618
0.0317976
0.0396219
0.0496517
0.0619941
0.0767246
0.0938654
0.113366
0.13509
0.1588
0.184163
0.210751
0.238055
0.265503
0.292484
0.318374
0.342559
0.364461
0.383558
0.399397
0.411607
0.419904
0.424101
0.4241
0.419903
0.411604
0.399393
0.383553
0.364455
0.342551
0.318365
0.292475
0.265493
0.238045
0.210741
0.184153
0.158791
0.135081
0.113359
0.0938594
0.0767199
0.0619908
0.0496497
0.0396212
0.0317981
0.0260634
0.0223096
0.0204535
0.0175198
0.0191238
0.0223703
0.0273343
0.034114
0.0428181
0.0535481
0.0663795
0.0813425
0.0984048
0.117457
0.138305
0.160663
0.184163
0.208359
0.232747
0.256782
0.279901
0.301549
0.321197
0.338361
0.35262
0.363627
0.371115
0.374904
0.374903
0.371113
0.363624
0.352616
0.338355
0.32119
0.301541
0.279892
0.256772
0.232737
0.208349
0.184153
0.160654
0.138296
0.11745
0.0983982
0.0813371
0.0663754
0.0535454
0.0428166
0.0341137
0.0273351
0.0223722
0.0191266
0.0175226
0.0148042
0.0161717
0.018941
0.0231793
0.0289753
0.0364281
0.0456319
0.0566603
0.0695488
0.0842795
0.100768
0.118856
0.138305
0.1588
0.179958
0.201338
0.222463
0.242833
0.26195
0.279337
0.294556
0.307219
0.317006
0.323671
0.327045
0.327044
0.323669
0.317003
0.307214
0.29455
0.27933
0.261942
0.242824
0.222453
0.201329
0.179948
0.158791
0.138296
0.118848
0.100761
0.0842737
0.0695442
0.056657
0.0456298
0.0364271
0.0289755
0.0231804
0.0189431
0.0161746
0.0148072
0.0123385
0.0134885
0.0158187
0.0193884
0.0242765
0.0305715
0.0383598
0.0477107
0.0586627
0.071209
0.0852868
0.100768
0.117457
0.13509
0.153339
0.171828
0.19014
0.207841
0.22449
0.239664
0.252968
0.264057
0.272637
0.278486
0.281448
0.281448
0.278484
0.272634
0.264052
0.252963
0.239657
0.224482
0.207832
0.190132
0.171819
0.15333
0.135081
0.11745
0.100761
0.0852809
0.0712042
0.058659
0.0477082
0.0383584
0.0305712
0.0242771
0.0193899
0.015821
0.0134914
0.0123415
0.0101434
0.0110974
0.0130316
0.0159975
0.020064
0.0253092
0.0318104
0.0396317
0.048812
0.059353
0.071209
0.0842795
0.0984049
0.113366
0.128891
0.144658
0.160313
0.175479
0.189775
0.20283
0.214298
0.223869
0.231284
0.236343
0.238907
0.238906
0.236341
0.231281
0.223864
0.214292
0.202824
0.189768
0.175471
0.160305
0.14465
0.128883
0.113359
0.0983982
0.0842737
0.0712042
0.0593492
0.0488093
0.03963
0.0318097
0.0253094
0.020065
0.0159993
0.013034
0.0111004
0.0101465
0.0082275
0.00900829
0.0105923
0.0130237
0.0163615
0.0206737
0.026028
0.0324824
0.0400747
0.0488121
0.0586627
0.0695488
0.0813426
0.0938655
0.106892
0.120153
0.133351
0.146166
0.158271
0.169346
0.17909
0.187234
0.193552
0.197865
0.200053
0.200052
0.197864
0.193549
0.187231
0.179085
0.16934
0.158265
0.146159
0.133344
0.120146
0.106885
0.0938594
0.0813371
0.0695442
0.058659
0.0488093
0.0400729
0.0324815
0.0260279
0.0206743
0.0163628
0.0130256
0.0105949
0.00901135
0.00823051
0.00658845
0.00721936
0.00850008
0.0104678
0.0131725
0.0166723
0.0210257
0.026284
0.0324825
0.0396318
0.0477108
0.0566604
0.0663796
0.0767247
0.0875113
0.0985188
0.109498
0.120182
0.130294
0.139562
0.14773
0.154567
0.159875
0.163503
0.165343
0.165343
0.163501
0.159873
0.154563
0.147726
0.139557
0.130288
0.120176
0.109492
0.0985131
0.087506
0.0767199
0.0663754
0.056657
0.0477082
0.03963
0.0324815
0.0262839
0.0210262
0.0166734
0.0131742
0.0104699
0.00850267
0.00722236
0.00659139
0.00521566
0.00571963
0.00674326
0.00831748
0.0104842
0.0132921
0.0167911
0.0210258
0.026028
0.0318105
0.0383599
0.045632
0.0535483
0.0619943
0.0708213
0.0798496
0.0888748
0.097675
0.106021
0.113683
0.120447
0.126115
0.130522
0.133535
0.135064
0.135064
0.133533
0.13052
0.126112
0.120443
0.113679
0.106016
0.0976705
0.0888703
0.0798453
0.0708173
0.0619908
0.0535454
0.0456298
0.0383584
0.0318097
0.0260279
0.0210262
0.0167921
0.0132935
0.010486
0.00831968
0.00674583
0.00572253
0.0052185
0.00409267
0.0044917
0.00530266
0.00655103
0.00827146
0.0105045
0.0132921
0.0166724
0.0206738
0.0253094
0.0305717
0.0364283
0.0428184
0.0496519
0.0568101
0.0641479
0.0714988
0.0786811
0.085505
0.0917813
0.0973293
0.101985
0.105608
0.108087
0.109346
0.109345
0.108086
0.105606
0.101983
0.0973266
0.0917782
0.0855017
0.0786777
0.0714955
0.0641449
0.0568074
0.0496497
0.0428166
0.0364271
0.0305712
0.0253094
0.0206743
0.0166734
0.0132935
0.0105062
0.00827346
0.00655329
0.00530519
0.00449448
0.00409537
0.00319972
0.00351451
0.00415465
0.00514101
0.00650211
0.00827152
0.0104843
0.0131727
0.0163617
0.0200642
0.0242768
0.0289756
0.0341144
0.0396223
0.0454048
0.0513453
0.0573088
0.063147
0.068704
0.0738235
0.0783556
0.0821633
0.0851292
0.0871602
0.088192
0.0881918
0.0871595
0.085128
0.0821617
0.0783537
0.0738214
0.0687017
0.0631447
0.0573067
0.0513434
0.0454032
0.0396212
0.0341137
0.0289755
0.0242771
0.020065
0.0163628
0.0131742
0.010486
0.00827346
0.00650423
0.00514329
0.00415711
0.00351716
0.00320229
0.00251621
0.002766
0.00327421
0.00405806
0.00514108
0.00655116
0.00831766
0.010468
0.013024
0.0159979
0.0193888
0.0231798
0.0273348
0.0317982
0.0364943
0.0413289
0.0461921
0.0509621
0.0555103
0.0597072
0.0634276
0.066557
0.0689969
0.0706688
0.0715186
0.0715184
0.0706683
0.0689961
0.066556
0.0634264
0.0597059
0.055509
0.0509609
0.0461911
0.0413282
0.0364939
0.0317981
0.0273351
0.0231804
0.0193899
0.0159993
0.0130256
0.0104699
0.00831968
0.00655329
0.00514329
0.00406035
0.00327662
0.00276853
0.00251868
0.00202291
0.00222546
0.00263778
0.00327429
0.0041548
0.00530288
0.00674354
0.00850043
0.0105928
0.0130321
0.0158192
0.0189416
0.022371
0.0260626
0.0299545
0.0339689
0.0380146
0.0419897
0.0457862
0.0492944
0.0524083
0.0550305
0.0570766
0.0584796
0.0591929
0.0591928
0.0584793
0.0570762
0.05503
0.0524078
0.0492939
0.0457857
0.0419894
0.0380145
0.0339691
0.029955
0.0260634
0.0223722
0.0189431
0.015821
0.013034
0.0105949
0.00850267
0.00674583
0.00530519
0.00415711
0.00327662
0.00264016
0.00222793
0.00202532
0.00170371
0.00187555
0.00222552
0.00276613
0.00351472
0.00449198
0.00571998
0.00721979
0.00900881
0.011098
0.0134891
0.0161725
0.0191247
0.022308
0.0256695
0.0291425
0.0326478
0.0360968
0.0393951
0.0424466
0.0451579
0.0474431
0.0492274
0.0504516
0.0510742
0.0510742
0.0504515
0.0492273
0.047443
0.045158
0.0424467
0.0393954
0.0360973
0.0326485
0.0291435
0.0256708
0.0223096
0.0191266
0.0161746
0.0134914
0.0111004
0.00901135
0.00722236
0.00572253
0.00449448
0.00351716
0.00276853
0.00222793
0.00187804
0.00170616
0.0015471
0.00170376
0.00202302
0.00251639
0.00319997
0.00409299
0.00521606
0.00658893
0.00822807
0.0101441
0.0123392
0.0148051
0.0175208
0.0204519
0.0235501
0.026754
0.0299905
0.0331777
0.0362279
0.0390518
0.0415624
0.0436794
0.0453331
0.046468
0.0470453
0.0470453
0.046468
0.0453331
0.0436794
0.0415625
0.039052
0.0362283
0.0331782
0.0299913
0.026755
0.0235514
0.0204535
0.0175226
0.0148072
0.0123415
0.0101465
0.00823051
0.00659139
0.0052185
0.00409537
0.00320229
0.00251868
0.00202532
0.00170616
0.00154941
)
;

boundaryField
{
    walls
    {
        type            zeroGradient;
    }
    frontAndBack
    {
        type            empty;
    }
}


// ************************************************************************* //
