/*--------------------------------*- C++ -*----------------------------------*\
| =========                 |                                                 |
| \\      /  F ield         | OpenFOAM: The Open Source CFD Toolbox           |
|  \\    /   O peration     | Version:  2406                                  |
|   \\  /    A nd           | Website:  www.openfoam.com                      |
|    \\/     M anipulation  |                                                 |
\*---------------------------------------------------------------------------*/
FoamFile
{
    version     2.0;
    format      ascii;
    arch        "LSB;label=32;scalar=64";
    class       volScalarField;
    location    "0.35";
    object      nu;
}
// * * * * * * * * * * * * * * * * * * * * * * * * * * * * * * * * * * * * * //

dimensions      [0 2 -1 0 0 0 0];

internalField   nonuniform List<scalar> 
1800
(
0.0101682
0.0147825
0.0109324
0.0101118
0.0100826
0.0101019
0.0100609
0.00997348
0.0100105
0.0100702
0.011937
0.0126411
0.00990836
0.00957138
0.00981948
0.010067
0.0102003
0.0102021
0.0101697
0.00872769
0.0161631
0.0107425
0.00915529
0.00921237
0.0096222
0.00995382
0.0101457
0.0101844
0.0101585
0.00913903
0.0152791
0.00941351
0.00864595
0.00894635
0.00942868
0.00977398
0.00995058
0.0099608
0.00990448
0.00866371
0.0107568
0.00854788
0.00834265
0.00879577
0.00934264
0.0097149
0.0098931
0.00986754
0.00970536
0.00854212
0.00879732
0.00803529
0.00815134
0.00872994
0.00936677
0.00979975
0.00998692
0.0098829
0.00952995
0.00828565
0.00783265
0.00769009
0.00804013
0.00876818
0.00954474
0.0100704
0.0102356
0.00994631
0.00929413
0.00820233
0.00725766
0.0074551
0.00801539
0.00894208
0.00992504
0.0105552
0.0105842
0.00994868
0.00904814
0.00815512
0.00687997
0.00730409
0.00808237
0.00928074
0.0105417
0.0112012
0.0108548
0.00981364
0.0088606
0.00826402
0.00662153
0.00722188
0.00824335
0.00980411
0.0113876
0.0118464
0.0108957
0.00961132
0.00878157
0.00844846
0.00903173
0.016499
0.025508
0.0249853
0.0230519
0.0212478
0.0196082
0.0178385
0.0158564
0.0141662
0.00874181
0.0163999
0.0268912
0.0246469
0.0220484
0.0204441
0.0190218
0.0172298
0.0151729
0.0134758
0.00851855
0.0165221
0.0304489
0.0248528
0.0212965
0.0197833
0.0185106
0.0166955
0.0145982
0.0129105
0.00835539
0.0168804
0.0384646
0.0251738
0.0205318
0.0191384
0.0180011
0.0161677
0.0140467
0.0124205
0.00824939
0.0173971
0.0554094
0.025194
0.0197854
0.0186686
0.0177168
0.0158406
0.0136447
0.0120595
0.0082012
0.0177763
0.062633
0.0240763
0.0191201
0.0185382
0.0179011
0.0159989
0.013557
0.0118237
0.00823204
0.0174786
0.034053
0.020847
0.0182971
0.0185501
0.01848
0.0167366
0.0137982
0.0116715
0.00837779
0.0167171
0.0204295
0.0167053
0.0162309
0.0171167
0.01796
0.0174749
0.0142364
0.0115062
0.00870497
0.0162362
0.0150913
0.0133409
0.0132547
0.0136935
0.0144518
0.0154881
0.0141332
0.0112733
0.00925984
0.0160512
0.0125724
0.0113234
0.0111779
0.011182
0.011273
0.0116219
0.0116608
0.0105795
0.0142647
0.0136063
0.0166613
0.0206258
0.0256719
0.0326578
0.0399278
0.0476893
0.0506573
0.065822
0.0140401
0.0138798
0.0165003
0.0204562
0.0255023
0.0331421
0.04159
0.0506703
0.0539362
0.0700945
0.0138516
0.0144182
0.0163725
0.0202589
0.0251262
0.0330627
0.0421734
0.05186
0.0557814
0.071555
0.0137181
0.0152163
0.0161477
0.0197341
0.0241686
0.0315568
0.0399814
0.048395
0.0525183
0.0645153
0.0135097
0.0155731
0.0153202
0.0181652
0.0217668
0.0273967
0.0336023
0.0392542
0.0425558
0.0489013
0.012934
0.0141292
0.0135559
0.0153698
0.0178583
0.0213077
0.0250278
0.0283006
0.0304672
0.0331993
0.0118929
0.0120396
0.0117896
0.0128275
0.0143537
0.0162804
0.0183405
0.0201941
0.0215383
0.0229011
0.0106029
0.0105986
0.0106776
0.0113329
0.0122616
0.0133437
0.0144772
0.0155066
0.0162993
0.017086
0.00959796
0.0099703
0.0101555
0.0106626
0.011372
0.0121268
0.012876
0.0135466
0.0140234
0.014579
0.00857406
0.0100536
0.0100748
0.0103891
0.0109758
0.0116027
0.0121988
0.0127248
0.0130878
0.0135804
0.00967021
0.0113508
0.0111734
0.0112074
0.0116232
0.0121414
0.0126592
0.0131384
0.0134146
0.0139016
0.0101564
0.0105344
0.0111384
0.0118839
0.0127533
0.0135356
0.0141878
0.0147481
0.0150576
0.0155628
0.00988652
0.0104502
0.011206
0.0122915
0.013822
0.0153639
0.0167052
0.0178203
0.0185843
0.0192898
0.0125216
0.0121769
0.0123164
0.0133823
0.0156908
0.0187449
0.0219842
0.0254005
0.0281465
0.0320496
0.0130283
0.0123996
0.0127679
0.0140693
0.0169997
0.0216623
0.0279598
0.0365972
0.0487164
0.102614
0.0143651
0.0139844
0.0138688
0.0150517
0.0178182
0.0215636
0.0254635
0.0285703
0.031892
0.0332862
0.0135795
0.0121585
0.0119857
0.0127614
0.0138811
0.0147854
0.0155185
0.0159787
0.016414
0.0163851
0.00973477
0.00928389
0.00948369
0.00996633
0.0104665
0.0108303
0.0111226
0.0113242
0.0114841
0.0115372
0.00758404
0.00781964
0.00820381
0.00859543
0.00892493
0.00914617
0.00931067
0.00942477
0.00949904
0.00955825
0.00710522
0.00756673
0.00800422
0.00837305
0.00854647
0.00860304
0.00862809
0.00864018
0.00864257
0.00867715
0.00920296
0.00874378
0.00833583
0.0081758
0.00803216
0.00815667
0.00807208
0.00847518
0.00805956
0.00845226
0.0114252
0.0107162
0.00983099
0.00944122
0.00878965
0.00871543
0.00829654
0.00844116
0.00835586
0.0083474
0.0148134
0.0136103
0.0135994
0.0126983
0.0126354
0.0115446
0.0112143
0.0101692
0.010261
0.00922776
0.0176698
0.0160705
0.0164679
0.015701
0.0201024
0.0201811
0.0456586
0.0172246
0.0186152
0.01285
0.0189321
0.0180159
0.0184971
0.0181965
0.0194799
0.0227458
0.0198297
0.0281057
0.0176858
0.0171968
0.0159455
0.0164927
0.0173308
0.0183642
0.0183813
0.0192148
0.0166681
0.0174255
0.0157676
0.0147804
0.012053
0.012546
0.0128136
0.0134499
0.0133721
0.0138572
0.0133301
0.0137908
0.0133665
0.0134519
0.00900787
0.00909768
0.00907112
0.00918989
0.00917075
0.009343
0.00927684
0.00966511
0.00952686
0.0099896
0.00728491
0.00726106
0.00725214
0.00726096
0.00728989
0.00732185
0.00739971
0.00744165
0.0075399
0.00764872
0.00639245
0.00640284
0.0064321
0.00646707
0.00652709
0.00657191
0.00666084
0.00670587
0.00681778
0.00684252
0.00811946
0.0102321
0.0136889
0.0180468
0.0211182
0.0237876
0.0249149
0.0141578
0.00851831
0.00645342
0.00818503
0.00854041
0.00956187
0.0116071
0.0140258
0.0156694
0.0174245
0.0138145
0.00845981
0.0064254
0.00864282
0.00840603
0.00876326
0.00990573
0.0116755
0.013002
0.013719
0.0121233
0.0082633
0.00637895
0.00912888
0.0085587
0.00865281
0.00945686
0.0108473
0.0119877
0.0123639
0.0110059
0.00801343
0.00632043
0.00941134
0.00870641
0.00870764
0.00938916
0.0106263
0.0116908
0.0118936
0.0103693
0.00777908
0.00626617
0.00944319
0.00879978
0.00882878
0.009519
0.0107781
0.0118907
0.011885
0.00995683
0.0075803
0.00623142
0.00933494
0.00884087
0.00896785
0.00976446
0.011188
0.012435
0.0120036
0.00959082
0.00742157
0.00622568
0.00919487
0.00886772
0.00912904
0.0100921
0.011738
0.0129983
0.0118508
0.0092078
0.00730408
0.00625559
0.00897272
0.00884697
0.0092872
0.0104366
0.0121796
0.0130266
0.0112793
0.00883047
0.00722877
0.0063259
0.00872171
0.00880412
0.00943843
0.0107278
0.0122399
0.0123451
0.0105083
0.00849822
0.00719915
0.00644364
0.0141061
0.0140967
0.0140752
0.013981
0.0137795
0.0135401
0.0133352
0.0129788
0.0114805
0.00848733
0.0140381
0.0139644
0.01396
0.0138807
0.0136713
0.0134209
0.0132208
0.0127829
0.0108843
0.0079773
0.0140171
0.0138875
0.0139155
0.0138499
0.0136242
0.0133586
0.0131639
0.0126364
0.0103878
0.00759873
0.013862
0.0136545
0.0137428
0.0137339
0.0135359
0.0132963
0.0131398
0.0125342
0.00998019
0.00730988
0.0139109
0.0136929
0.013867
0.0138896
0.0136631
0.0133877
0.0132121
0.0124484
0.00961412
0.00707801
0.0138798
0.0135657
0.0138355
0.0139268
0.0137338
0.0135202
0.0134306
0.0125346
0.00935203
0.00690192
0.0132838
0.0129889
0.0134287
0.013771
0.013754
0.0136072
0.0134895
0.0123371
0.00904874
0.00674867
0.0142514
0.014333
0.0154239
0.015763
0.0153077
0.0148772
0.0147
0.0128533
0.00889273
0.00664235
0.0126862
0.0116522
0.0122414
0.0131853
0.0137429
0.0140968
0.0142839
0.0124687
0.00869297
0.00655439
0.014031
0.0189829
0.0191011
0.0193931
0.020047
0.0196718
0.0177292
0.0127962
0.00852109
0.00648491
0.0179072
0.0406797
0.0262286
0.0572354
0.0623327
0.0460166
0.0302097
0.0227457
0.0153148
0.0133849
0.017639
0.0398005
0.0255433
0.0493234
0.0660321
0.0541421
0.0325375
0.0227937
0.0154688
0.0133035
0.0173702
0.0385805
0.0246491
0.0427723
0.0677939
0.0649213
0.0358132
0.0229883
0.0157346
0.0132428
0.0170703
0.0367852
0.0235694
0.0389558
0.0758114
0.0754861
0.0398559
0.0235054
0.0162341
0.0131274
0.0167294
0.0342619
0.0226812
0.0396955
0.102445
0.0772632
0.0423213
0.024279
0.0167298
0.0133834
0.0164319
0.0318278
0.0229884
0.0510588
0.140622
0.0634621
0.0383181
0.0233823
0.016866
0.0126542
0.0161603
0.0305025
0.0250764
0.0974529
0.0585915
0.0385974
0.0292912
0.0222882
0.0164335
0.0135171
0.0160326
0.0283295
0.0273145
0.042662
0.0246817
0.0216831
0.019415
0.0171868
0.0144422
0.0128421
0.0160242
0.0238658
0.0253023
0.0216387
0.0171235
0.0161343
0.0153188
0.0145737
0.0130581
0.011691
0.0163681
0.0192702
0.0196943
0.0167761
0.0144661
0.0136293
0.013109
0.0124515
0.0118496
0.0133224
0.0165791
0.0168129
0.0177598
0.0155714
0.0137799
0.0129469
0.0121247
0.0117478
0.0104366
0.0119184
0.0166611
0.0152594
0.0186406
0.0160845
0.0142777
0.0133605
0.0121647
0.0121384
0.0100943
0.0109834
0.0169515
0.0141346
0.0211903
0.0182449
0.0161276
0.0146667
0.0136136
0.0122786
0.0112223
0.0112614
0.0176654
0.0134065
0.0215155
0.0218143
0.019993
0.0174627
0.0164506
0.0133032
0.0131855
0.0119219
0.0188455
0.013087
0.0198506
0.0237508
0.0250896
0.0209771
0.0211976
0.0141774
0.0153458
0.0130971
0.0203599
0.0130826
0.0185419
0.0227604
0.0260714
0.0250236
0.0219693
0.0162015
0.0158425
0.013382
0.0227287
0.0135936
0.0166607
0.0173277
0.0172569
0.0180386
0.0160671
0.0179445
0.0138286
0.0129714
0.0256045
0.0142516
0.0127742
0.012281
0.0118667
0.0118318
0.0115448
0.0118321
0.0109947
0.0109117
0.0205091
0.0120991
0.0101491
0.00990318
0.00961868
0.00946341
0.00937167
0.00907502
0.00904327
0.00858168
0.00829368
0.00798192
0.00899555
0.00856198
0.00843556
0.00823182
0.00806156
0.00771543
0.00761833
0.00708205
0.00970126
0.0110833
0.0125356
0.0135405
0.0136393
0.0130173
0.0120551
0.0112134
0.0104549
0.00983196
0.0108735
0.0113159
0.0118612
0.012069
0.0120874
0.012364
0.0129123
0.0131885
0.0129465
0.0123262
0.0116711
0.0119529
0.0125161
0.0127719
0.0126623
0.0126935
0.0132884
0.0141835
0.0150502
0.0149782
0.0128762
0.0131949
0.0137302
0.0139027
0.0136697
0.0136159
0.0142733
0.0156297
0.0174501
0.0176841
0.0133227
0.0134285
0.0136025
0.0135407
0.0134573
0.0137282
0.0147394
0.0165444
0.0188133
0.0190846
0.0132218
0.0134176
0.0138688
0.0141072
0.0143163
0.0148627
0.0158423
0.0164879
0.016295
0.0158831
0.0124914
0.0123609
0.0124586
0.0125086
0.0124686
0.012467
0.0124356
0.0122672
0.0119902
0.0119472
0.0103565
0.0100832
0.00989082
0.00976809
0.00966526
0.00954842
0.00938486
0.00922464
0.00908274
0.00904271
0.0084001
0.0082371
0.00806487
0.00793671
0.00785002
0.00775166
0.00762391
0.00749796
0.00739838
0.00733105
0.00695215
0.00684231
0.00674824
0.00668463
0.00663223
0.00657222
0.00650994
0.00645718
0.00641951
0.00639749
0.00635292
0.00712578
0.0087204
0.0138659
0.205319
0.019327
0.0122445
0.0103334
0.00923504
0.00840008
0.00645657
0.00707276
0.00837678
0.0122645
0.0414302
0.0239627
0.013147
0.0102494
0.0090399
0.00830921
0.00662149
0.00707889
0.00809082
0.0107252
0.0190527
0.0231717
0.0142376
0.0106821
0.00920913
0.00843224
0.00685849
0.00715022
0.00791269
0.00970286
0.013573
0.0174811
0.0146228
0.0114495
0.00976894
0.00883917
0.00717616
0.00729604
0.0078619
0.00913017
0.0113396
0.0136355
0.0136059
0.0119855
0.010581
0.00960829
0.00757823
0.00752815
0.00794812
0.00889344
0.010298
0.0116341
0.0121162
0.0117431
0.0111355
0.0106218
0.0080454
0.00785293
0.00817403
0.00891219
0.00985895
0.0106457
0.0110358
0.0111083
0.01112
0.0113012
0.00854241
0.00828032
0.00854953
0.00914751
0.00979306
0.0102318
0.0104469
0.0105894
0.0108836
0.011409
0.00902312
0.00881791
0.00908887
0.0095822
0.00999779
0.0101998
0.0102821
0.0104165
0.0108334
0.0113495
0.00949312
0.00950861
0.0098553
0.0102532
0.0104289
0.0103896
0.0102968
0.0102794
0.0104991
0.0112108
0.00994202
0.0103841
0.0109794
0.0113776
0.0113632
0.0111352
0.0109717
0.0110162
0.011335
0.0133247
0.010373
0.011427
0.0124831
0.0129902
0.0128542
0.0125413
0.0124653
0.0128157
0.0132961
0.0145407
0.0107918
0.0126914
0.0146074
0.0153354
0.0150507
0.0146573
0.0146433
0.0151186
0.0153292
0.015477
0.0110976
0.0141514
0.0178881
0.0190709
0.0183868
0.0176134
0.01728
0.0173765
0.0169743
0.0162513
0.0111974
0.0156125
0.0235889
0.0266352
0.0242332
0.021618
0.0200405
0.0192751
0.0182697
0.0169703
0.0110732
0.0167957
0.0351726
0.0602497
0.0373108
0.0261469
0.0221986
0.0205528
0.0191171
0.0174148
0.0107169
0.0172534
0.0404732
0.110046
0.042521
0.0268006
0.0227458
0.0210103
0.0193475
0.0173992
0.0102675
0.0174781
0.0346782
0.041966
0.0346146
0.0260045
0.0222859
0.0204174
0.0186536
0.0167927
0.00980674
0.0171885
0.0280801
0.0301023
0.0278465
0.0238651
0.0211844
0.0193944
0.0175999
0.0158802
0.00939112
0.0167889
0.0257833
0.0264545
0.0247586
0.0223579
0.020323
0.0185491
0.0166623
0.0149757
0.0136775
0.0166192
0.0225803
0.0363316
0.0367579
0.0367029
0.0383864
0.0435266
0.0474651
0.0650506
0.0136148
0.0174709
0.0221789
0.0306451
0.0332741
0.0352672
0.0378091
0.0436964
0.050317
0.0776807
0.0136367
0.0182919
0.022524
0.0303341
0.0315816
0.0337836
0.0365986
0.0423424
0.0493979
0.076927
0.0138814
0.018221
0.0219598
0.0284471
0.0292674
0.0315324
0.0345367
0.0400165
0.0468024
0.0707988
0.0140895
0.0171097
0.0207822
0.0259248
0.0273028
0.0297328
0.0328557
0.0378897
0.0438992
0.0636424
0.0143167
0.0157589
0.0194357
0.0239117
0.0262544
0.0290955
0.0324379
0.037195
0.0422542
0.0586545
0.0145385
0.014659
0.0184217
0.0226127
0.0259144
0.0294077
0.0331888
0.0379953
0.042281
0.0567902
0.0146566
0.0139492
0.0177357
0.0217331
0.025855
0.0301355
0.0345984
0.0397425
0.0435126
0.0573227
0.0146195
0.0136295
0.0172659
0.0211708
0.0258317
0.0309993
0.0362689
0.0420013
0.0454029
0.0592292
0.0144696
0.0135325
0.0169124
0.0208407
0.0257746
0.0318894
0.0380641
0.044651
0.0477459
0.0620335
0.00911952
0.0109665
0.0114535
0.0117051
0.0112608
0.0108643
0.0105669
0.0103074
0.0101983
0.010147
0.00997576
0.0114481
0.0122447
0.0124219
0.0122323
0.0119337
0.0116979
0.0114718
0.01139
0.0112563
0.0135595
0.0143788
0.0169584
0.0167442
0.015998
0.015343
0.014899
0.0145131
0.0143003
0.0139613
0.0208425
0.0190251
0.0340769
0.0359334
0.0267774
0.0240537
0.0228273
0.0221278
0.0213347
0.0206331
0.0158279
0.0172275
0.0299818
0.069991
0.038553
0.0347094
0.034232
0.0357751
0.0352826
0.0376081
0.00679388
0.00695726
0.00717075
0.00740189
0.0076215
0.00778667
0.00790696
0.00801043
0.00817413
0.0083234
0.00707113
0.00720691
0.00739448
0.00759777
0.0078178
0.00807054
0.00837465
0.00880986
0.00914257
0.0097443
0.007341
0.00744012
0.00760514
0.00781987
0.00813378
0.00864031
0.00943292
0.0107341
0.0117707
0.0155063
0.00761874
0.00767179
0.00782182
0.00808239
0.00854975
0.00938916
0.0108054
0.0129502
0.0145043
0.0266901
0.00791613
0.0079225
0.00808173
0.0084307
0.0090717
0.0100997
0.0113028
0.0124051
0.0127851
0.0168696
0.0126394
0.0132437
0.014526
0.0151859
0.0151262
0.0146494
0.0139685
0.01281
0.0108726
0.00856827
0.0141682
0.0141609
0.0144952
0.0145178
0.0143473
0.0140422
0.0135818
0.0128029
0.01144
0.00919888
0.0138553
0.0138665
0.0141955
0.0142859
0.0142318
0.0140837
0.0137846
0.0132384
0.0123386
0.010185
0.0141116
0.0142363
0.0144938
0.0144793
0.0143391
0.014146
0.0138623
0.0135129
0.013298
0.0117667
0.0142267
0.0143344
0.0144735
0.0143886
0.0142015
0.013984
0.0137534
0.0137024
0.0145533
0.0153463
0.0143312
0.0144369
0.0144808
0.0143294
0.0140807
0.0138176
0.0136279
0.0138365
0.0157705
0.0230991
0.0143215
0.0144338
0.0144379
0.0142865
0.0140493
0.0138057
0.0136652
0.0139444
0.0155045
0.0173152
0.0142757
0.0143951
0.0143919
0.0142678
0.0140676
0.0138628
0.0137317
0.0138109
0.0142392
0.0123895
0.0142257
0.0143222
0.0143082
0.0141991
0.0140127
0.0138099
0.0136465
0.0135253
0.0131158
0.0103428
0.014162
0.0142113
0.0141886
0.0140871
0.0138968
0.0136765
0.0134834
0.0132249
0.012209
0.00921493
0.00870398
0.00981904
0.0110338
0.0120497
0.0133968
0.0166488
0.0124358
0.00905591
0.00723333
0.00630068
0.00932946
0.010863
0.0122479
0.0128397
0.0128212
0.0127886
0.0124619
0.00948734
0.00737533
0.00629009
0.0105815
0.0127418
0.0136892
0.0131339
0.0125048
0.0122391
0.0116542
0.00962835
0.00754268
0.00632659
0.0127337
0.0149932
0.0146097
0.0131954
0.0121042
0.011522
0.0111255
0.00978403
0.00775185
0.00641151
0.0150917
0.0162241
0.0148418
0.0131932
0.0120296
0.0113546
0.0109337
0.00989307
0.00798408
0.00653891
0.0169146
0.0173427
0.0151098
0.0131889
0.0120052
0.0113066
0.0108719
0.0100204
0.00825564
0.00671428
0.0194908
0.0177723
0.0143621
0.0126635
0.0118172
0.0112823
0.0109099
0.0102047
0.00858095
0.00694454
0.0177781
0.014287
0.012365
0.0117284
0.0114853
0.0112648
0.0110472
0.0104909
0.00898491
0.00723903
0.0129099
0.0114989
0.0110889
0.011207
0.0113947
0.0114493
0.0114153
0.0109898
0.00951606
0.00761342
0.0103253
0.0106602
0.0112386
0.0118818
0.0122916
0.0124425
0.0124575
0.0119305
0.0102193
0.00807161
0.0234992
0.0457509
0.0248787
0.0309033
0.0291036
0.0296862
0.0332467
0.0269463
0.0220654
0.0152846
0.0225715
0.0407457
0.0237866
0.0307976
0.0290778
0.0289443
0.0301145
0.0246813
0.0229501
0.0142413
0.0216693
0.0398177
0.0242424
0.0336542
0.0302734
0.0293137
0.029614
0.0253467
0.0231636
0.0142202
0.0209657
0.039765
0.0252277
0.0380409
0.031707
0.0294679
0.0287344
0.0252686
0.0218623
0.0143786
0.0203589
0.0399478
0.0261297
0.0425974
0.0329579
0.0293989
0.0274252
0.0245893
0.0198592
0.0143689
0.0198139
0.0405476
0.0268269
0.0476948
0.0345831
0.0298292
0.0264466
0.0238476
0.0179214
0.0142693
0.019325
0.0411746
0.027247
0.0544726
0.0373315
0.0311561
0.0261462
0.0234049
0.0166264
0.0140359
0.0188918
0.041531
0.0273167
0.062357
0.041662
0.0333402
0.0264556
0.0230302
0.0158686
0.0137817
0.0185169
0.04156
0.0271085
0.0668992
0.0477717
0.0363088
0.0272209
0.0227979
0.0154726
0.013608
0.0181943
0.0412712
0.0267383
0.064376
0.0552992
0.040331
0.0284661
0.0227442
0.0153117
0.0134852
0.00750894
0.00768795
0.00963219
0.00923147
0.00974145
0.00998666
0.0102804
0.0101409
0.0100922
0.00873887
0.013778
0.0109115
0.0102663
0.0108267
0.0109635
0.0113653
0.0118185
0.0119369
0.0123113
0.0110407
0.0203541
0.0168609
0.012898
0.0136311
0.0136229
0.0143204
0.0152726
0.016803
0.0170989
0.0157511
0.0228218
0.031992
0.0196342
0.0204221
0.0197587
0.0213376
0.024562
0.0379388
0.0293929
0.0157754
0.0241351
0.0496234
0.0265172
0.0294758
0.0272469
0.0288196
0.0354647
0.0417339
0.0265933
0.0146559
0.00831862
0.00790873
0.00750566
0.0071621
0.0068965
0.00671576
0.00661279
0.00657183
0.00659031
0.0066664
0.0102661
0.00952897
0.00884552
0.00828637
0.00781647
0.00744192
0.00717731
0.00701693
0.00695475
0.0069782
0.0133353
0.0119167
0.0107288
0.00988552
0.00914293
0.00845537
0.00790843
0.0075456
0.00735334
0.00729745
0.0159574
0.0147738
0.0136046
0.0124421
0.0112985
0.0100496
0.00894304
0.00821598
0.00781801
0.00764664
0.0153953
0.0207297
0.0200602
0.0165748
0.0141423
0.0122984
0.0104803
0.00917211
0.0084244
0.0080552
)
;

boundaryField
{
    left
    {
        type            calculated;
        value           nonuniform List<scalar> 
35
(
0.0126556
0.0129687
0.0130979
0.0130542
0.0129944
0.0130005
0.0131082
0.0131326
0.0125102
0.0081166
0.0125278
0.0124477
0.0123691
0.0122886
0.0122115
0.012169
0.0121412
0.01217
0.0122411
0.0124468
0.0139621
0.0137541
0.0135643
0.0133978
0.013239
0.0130868
0.012945
0.0128187
0.0127085
0.0126132
0.00742349
0.0116019
0.0134442
0.0139103
0.0141105
)
;
    }
    right
    {
        type            calculated;
        value           nonuniform List<scalar> 
35
(
0.0101481
0.0112607
0.0139879
0.0208145
0.0395186
0.0786753
0.105279
0.10736
0.0975389
0.0847849
0.0763605
0.0739046
0.0760137
0.0811006
0.0887454
0.100038
0.115007
0.122937
0.102248
0.0647325
0.0380907
0.0244487
0.0176671
0.0148972
0.0138184
0.0141412
0.0158968
0.0198773
0.0344991
0.162058
0.0325098
0.0163499
0.0115393
0.009561
0.00867787
)
;
    }
    down
    {
        type            calculated;
        value           nonuniform List<scalar> 
40
(
0.00658051
0.00694297
0.00971291
0.00867226
0.00934599
0.00953
0.00977949
0.00957989
0.00938383
0.00809369
0.00773755
0.00740779
0.00707078
0.00678795
0.00658036
0.00645374
0.00639663
0.00639027
0.00643188
0.00652362
0.00666306
0.0068379
0.00706512
0.00732027
0.00756745
0.00773466
0.00781286
0.00783328
0.00791476
0.00803361
0.00908903
0.0113442
0.0116652
0.0119411
0.0112121
0.0106897
0.0103168
0.0100091
0.00986942
0.00984669
)
;
    }
    up
    {
        type            calculated;
        value           nonuniform List<scalar> 
40
(
0.0071618
0.00774184
0.00818878
0.00855156
0.00859841
0.00853237
0.00847066
0.00842572
0.0083956
0.00841511
0.00612536
0.006155
0.00619745
0.00625269
0.00631568
0.00638725
0.00646825
0.0065403
0.00665521
0.0066752
0.00649836
0.00640021
0.0063254
0.00628352
0.00625076
0.00620952
0.00616624
0.00613221
0.0061134
0.00611129
0.00706577
0.00711282
0.00875827
0.00810732
0.00802659
0.00780655
0.00760287
0.00727109
0.00713045
0.00662646
)
;
    }
    cylinder
    {
        type            calculated;
        value           nonuniform List<scalar> 
80
(
0.00780515
0.00756884
0.00738582
0.00724825
0.00715417
0.00710731
0.00712998
0.00724643
0.00748778
0.00786267
0.00842307
0.00938355
0.0114709
0.0186563
0.0154629
0.00982448
0.0081005
0.00726076
0.00676091
0.00643413
0.00600499
0.00598576
0.00595613
0.00592115
0.00589268
0.00588418
0.00590441
0.00596049
0.00605939
0.00621121
0.00761414
0.00720076
0.006897
0.00666656
0.00648347
0.00634414
0.00622588
0.0061434
0.00607712
0.00602739
0.00783516
0.00838136
0.00924997
0.0107455
0.0145809
0.0252389
0.0161374
0.0110103
0.00916915
0.00821325
0.00603297
0.00598866
0.00599441
0.00604858
0.00614424
0.00628451
0.00647413
0.0067197
0.0070325
0.00741491
0.00612442
0.00627435
0.00649857
0.00681684
0.00724707
0.00779596
0.00841627
0.00899977
0.0094235
0.00970005
0.00987396
0.0100156
0.0101542
0.010195
0.0100735
0.00980722
0.00938593
0.00890078
0.00846285
0.0081029
)
;
    }
    defaultFaces
    {
        type            empty;
    }
}


// ************************************************************************* //
