/*--------------------------------*- C++ -*----------------------------------*\
| =========                 |                                                 |
| \\      /  F ield         | OpenFOAM: The Open Source CFD Toolbox           |
|  \\    /   O peration     | Version:  2406                                  |
|   \\  /    A nd           | Website:  www.openfoam.com                      |
|    \\/     M anipulation  |                                                 |
\*---------------------------------------------------------------------------*/
FoamFile
{
    version     2.0;
    format      ascii;
    arch        "LSB;label=32;scalar=64";
    class       volScalarField;
    location    "0.35";
    object      p;
}
// * * * * * * * * * * * * * * * * * * * * * * * * * * * * * * * * * * * * * //

dimensions      [0 2 -2 0 0 0 0];

internalField   nonuniform List<scalar> 
1800
(
-1.95308
-1.94393
-1.94516
-1.95069
-1.95935
-1.97314
-1.99326
-2.01989
-2.05307
-2.0948
-2.02784
-2.02015
-2.02067
-2.02578
-2.03433
-2.04798
-2.06755
-2.09286
-2.12415
-2.16313
-2.09475
-2.08983
-2.09025
-2.09427
-2.10215
-2.11563
-2.13544
-2.16134
-2.19306
-2.23268
-2.15579
-2.14865
-2.14749
-2.14892
-2.15392
-2.16442
-2.18123
-2.20407
-2.23258
-2.26857
-2.20735
-2.19484
-2.19155
-2.19021
-2.1915
-2.19772
-2.20988
-2.22781
-2.25095
-2.28072
-2.24373
-2.22933
-2.22346
-2.21836
-2.2148
-2.2153
-2.22096
-2.2316
-2.24645
-2.26606
-2.2697
-2.25389
-2.24457
-2.23478
-2.22562
-2.21978
-2.21834
-2.22098
-2.22657
-2.23413
-2.28395
-2.26665
-2.25327
-2.23812
-2.22299
-2.21067
-2.20206
-2.19647
-2.19223
-2.18717
-2.28306
-2.26422
-2.24638
-2.22567
-2.20477
-2.18647
-2.17127
-2.15797
-2.14455
-2.12836
-2.26252
-2.24211
-2.21984
-2.19384
-2.16776
-2.144
-2.12248
-2.10164
-2.07934
-2.05273
-0.830443
-0.834616
-0.83306
-0.826444
-0.816266
-0.80428
-0.791017
-0.776465
-0.760423
-0.742127
-0.929064
-0.932708
-0.931037
-0.924631
-0.91505
-0.903969
-0.891683
-0.8781
-0.863038
-0.845517
-1.03889
-1.04178
-1.04016
-1.03436
-1.02577
-1.01612
-1.00548
-0.993616
-0.980337
-0.964466
-1.1581
-1.15995
-1.15845
-1.15379
-1.14676
-1.13931
-1.13121
-1.12211
-1.11172
-1.09866
-1.28468
-1.28506
-1.28345
-1.27998
-1.27528
-1.27078
-1.26615
-1.26121
-1.25576
-1.24945
-1.41603
-1.41416
-1.41198
-1.40932
-1.40794
-1.40664
-1.4056
-1.405
-1.40437
-1.40041
-1.5457
-1.54149
-1.53974
-1.53898
-1.54058
-1.54276
-1.54577
-1.55019
-1.5552
-1.5561
-1.66698
-1.66046
-1.66035
-1.66282
-1.66752
-1.67354
-1.68118
-1.6912
-1.70284
-1.70953
-1.77574
-1.76729
-1.7686
-1.7736
-1.78105
-1.79102
-1.80379
-1.8197
-1.83787
-1.84949
-1.86997
-1.86056
-1.86221
-1.86781
-1.87612
-1.88834
-1.90499
-1.92573
-1.94914
-1.9667
-0.623474
-0.384399
-0.239468
-0.131804
-0.0719861
-0.0333852
-0.0121168
-0.000710857
0.00499005
0.00175614
-0.709468
-0.421922
-0.251203
-0.130218
-0.0656541
-0.0266772
-0.00640067
0.00345149
0.00762736
0.0025367
-0.811586
-0.466866
-0.265442
-0.128714
-0.0587264
-0.0192605
-5.50526e-05
0.00812441
0.0105966
0.00339261
-0.930234
-0.519037
-0.281438
-0.126655
-0.0507254
-0.0107589
0.00720663
0.0135512
0.014065
0.00444616
-1.06524
-0.578481
-0.298529
-0.123375
-0.0411138
-0.000831769
0.0155939
0.0198706
0.0181687
0.00588472
-1.21791
-0.648452
-0.317933
-0.119504
-0.0301935
0.0102292
0.0248378
0.026863
0.0228179
0.00776239
-1.38215
-0.73474
-0.343678
-0.117967
-0.0198582
0.021121
0.0340258
0.0338947
0.0276295
0.00992694
-1.54888
-0.838748
-0.381092
-0.122913
-0.0129947
0.029907
0.0418634
0.0400666
0.0319946
0.0120705
-1.69975
-0.954765
-0.432992
-0.137931
-0.0127054
0.0341655
0.0466222
0.044185
0.0351033
0.0137994
-1.82124
-1.06448
-0.491596
-0.160668
-0.0185445
0.0334882
0.047542
0.0454437
0.0362527
0.014709
-1.97099
-1.12952
-0.519092
-0.17257
-0.0235865
0.0299591
0.0450701
0.0436558
0.0350959
0.0146039
-1.95487
-1.13559
-0.538985
-0.199401
-0.0507851
0.00765779
0.0289973
0.0327755
0.0279557
0.0118856
-1.84647
-1.09527
-0.538385
-0.220452
-0.0770432
-0.016498
0.0105029
0.020176
0.019706
0.00856681
-1.63487
-1.01879
-0.548205
-0.257431
-0.112147
-0.0446394
-0.00956586
0.00736889
0.0119953
0.00597592
-1.45855
-0.962597
-0.562781
-0.300247
-0.151684
-0.0745337
-0.0303829
-0.00582625
0.00533862
0.00429983
-1.30339
-0.901322
-0.575358
-0.345148
-0.193754
-0.105501
-0.0521626
-0.0206724
-0.00401426
-0.000333234
-1.1774
-0.864537
-0.601692
-0.39572
-0.239321
-0.137716
-0.0743494
-0.0357109
-0.013297
-0.00374868
-1.08145
-0.844464
-0.629539
-0.438468
-0.276957
-0.162788
-0.0902624
-0.0455852
-0.0186077
-0.00514054
-1.01731
-0.838833
-0.647589
-0.461662
-0.297125
-0.175903
-0.0982347
-0.0503124
-0.0211139
-0.00577364
-0.997687
-0.862408
-0.668244
-0.474384
-0.306882
-0.183135
-0.103152
-0.0534211
-0.0230124
-0.0066483
-1.98482
-2.07617
-2.15189
-2.2203
-2.27262
-2.31502
-2.32614
-2.31861
-2.26814
-2.23923
-1.83572
-1.9367
-2.02693
-2.11595
-2.19337
-2.26705
-2.3123
-2.33418
-2.31231
-2.27808
-1.67272
-1.76892
-1.85484
-1.93766
-2.01022
-2.08008
-2.13405
-2.16636
-2.17293
-2.16611
-1.5103
-1.59641
-1.67322
-1.74346
-1.80311
-1.84915
-1.88946
-1.92446
-1.92899
-1.92709
-1.35311
-1.43069
-1.50043
-1.56198
-1.61134
-1.65049
-1.6798
-1.694
-1.68975
-1.67599
-1.20678
-1.27837
-1.34386
-1.40152
-1.44616
-1.47801
-1.49386
-1.49715
-1.48849
-1.4705
-1.07455
-1.14271
-1.20668
-1.26103
-1.30304
-1.33098
-1.34099
-1.34369
-1.33189
-1.31144
-0.962695
-1.02944
-1.09404
-1.14724
-1.19162
-1.2161
-1.22768
-1.22929
-1.21083
-1.18896
-0.89861
-0.963393
-1.02507
-1.07587
-1.12073
-1.14244
-1.15596
-1.15455
-1.1332
-1.10699
-0.884806
-0.951232
-1.01219
-1.0654
-1.10563
-1.13144
-1.1451
-1.13786
-1.123
-1.08827
-0.515704
-0.579285
-0.634314
-0.678504
-0.716195
-0.750402
-0.781081
-0.808303
-0.832162
-0.848402
-0.766027
-0.822562
-0.866214
-0.900689
-0.932085
-0.962613
-0.991269
-1.01614
-1.03773
-1.05278
-0.996573
-1.04799
-1.08629
-1.11548
-1.14178
-1.16804
-1.19419
-1.21799
-1.23845
-1.25118
-1.17466
-1.22636
-1.26689
-1.2983
-1.32572
-1.35249
-1.37929
-1.40453
-1.42654
-1.43935
-1.32316
-1.37782
-1.42173
-1.45686
-1.4879
-1.51787
-1.5475
-1.57556
-1.60027
-1.61566
-1.46576
-1.5204
-1.56496
-1.60213
-1.63612
-1.66923
-1.70178
-1.73273
-1.7601
-1.77841
-1.6049
-1.65653
-1.69928
-1.73658
-1.77197
-1.80688
-1.84121
-1.87445
-1.90348
-1.92402
-1.73531
-1.78289
-1.82285
-1.85884
-1.89367
-1.92834
-1.96288
-1.99654
-2.02604
-2.04818
-1.85325
-1.89597
-1.93244
-1.96552
-1.99757
-2.02996
-2.06306
-2.09589
-2.12443
-2.14691
-1.96101
-1.99642
-2.0265
-2.05411
-2.08139
-2.10991
-2.14013
-2.17036
-2.19636
-2.21812
0.69151
0.679493
0.668662
0.658915
0.650193
0.642474
0.635817
0.630853
0.629823
0.638401
0.626512
0.612408
0.599642
0.588035
0.577511
0.568009
0.559608
0.553161
0.550973
0.558239
0.547264
0.530987
0.516082
0.502363
0.489768
0.478192
0.467734
0.459448
0.4557
0.461288
0.453136
0.434243
0.416896
0.40086
0.386048
0.372259
0.359571
0.349226
0.343644
0.347319
0.347617
0.32658
0.306417
0.287352
0.269547
0.252796
0.237203
0.22417
0.216141
0.217376
0.220942
0.19622
0.173545
0.152524
0.132876
0.11417
0.0964854
0.0813897
0.0712886
0.0702109
0.0963832
0.07073
0.0442627
0.0181495
-0.00658014
-0.0300507
-0.0521453
-0.0712552
-0.0849065
-0.0890205
-0.0625965
-0.0941145
-0.123472
-0.150366
-0.175509
-0.199703
-0.222762
-0.243076
-0.2588
-0.265723
-0.20769
-0.237319
-0.269935
-0.30375
-0.336344
-0.367283
-0.396163
-0.421179
-0.440464
-0.449911
-0.367938
-0.409247
-0.450579
-0.488639
-0.523078
-0.554615
-0.583856
-0.61039
-0.632478
-0.645577
1.14353
0.930522
1.05527
0.952358
0.932725
0.914396
0.885683
0.860398
0.84129
0.759503
1.14133
0.928264
1.05231
0.948239
0.929893
0.909814
0.879657
0.848327
0.823425
0.717073
1.14025
0.925962
1.04942
0.943218
0.926511
0.905122
0.872971
0.833894
0.80155
0.664318
1.14043
0.923465
1.04633
0.937228
0.923005
0.900471
0.865827
0.817566
0.77637
0.601509
1.14198
0.920574
1.04273
0.930456
0.919888
0.89576
0.858315
0.799884
0.747407
0.52768
1.14508
0.917043
1.03827
0.92432
0.916765
0.890328
0.850446
0.781255
0.716935
0.443931
1.14994
0.91239
1.03271
0.920195
0.911845
0.883925
0.842699
0.762381
0.681133
0.345571
1.1568
0.906239
1.02723
0.915697
0.904625
0.877513
0.835513
0.743288
0.645944
0.23839
1.1656
0.899328
1.02241
0.909454
0.896865
0.871799
0.827899
0.722739
0.60465
0.11013
1.17594
0.893263
1.01802
0.90337
0.890219
0.866597
0.819795
0.701672
0.554083
-0.0273052
1.18994
0.890575
1.01794
0.902884
0.882402
0.859145
0.81017
0.677137
0.523587
-0.140561
1.20875
0.897797
1.02785
0.908119
0.873363
0.846155
0.796899
0.652291
0.504345
-0.120034
1.22343
0.911558
1.04397
0.914436
0.863265
0.828479
0.774852
0.620411
0.475196
-0.0820952
1.23403
0.926791
1.05993
0.919202
0.852176
0.807369
0.748669
0.583314
0.443008
-0.0410597
1.24182
0.938036
1.06891
0.919763
0.840695
0.786659
0.719442
0.5492
0.411607
-0.0064528
1.24757
0.94261
1.06728
0.91441
0.830583
0.769039
0.692237
0.522686
0.377747
0.0319444
1.25244
0.939512
1.05447
0.902764
0.822024
0.756215
0.67048
0.506126
0.345386
0.0712507
1.26177
0.936929
1.03399
0.887306
0.815417
0.747475
0.653101
0.498884
0.318477
0.104425
1.2725
0.937496
1.015
0.872994
0.811652
0.741168
0.64024
0.494469
0.298433
0.129343
1.31379
0.95338
1.01051
0.868669
0.815587
0.740664
0.638432
0.495412
0.297764
0.148907
-0.536762
-0.751169
-0.956221
-1.11244
-1.24371
-1.37766
-1.51392
-1.64402
-1.76622
-1.88201
-0.541044
-0.68818
-0.833169
-0.96485
-1.09168
-1.22487
-1.36135
-1.49269
-1.61424
-1.72926
-0.515621
-0.644126
-0.759012
-0.874128
-0.994621
-1.11988
-1.24444
-1.36294
-1.47126
-1.57484
-0.465672
-0.592254
-0.691791
-0.789295
-0.896691
-1.0101
-1.12147
-1.22755
-1.32603
-1.42097
-0.40272
-0.521161
-0.610308
-0.694368
-0.789892
-0.893261
-0.993985
-1.09005
-1.18344
-1.27194
-0.318213
-0.431591
-0.524793
-0.608932
-0.699502
-0.796687
-0.890488
-0.976873
-1.05661
-1.1337
-0.225082
-0.335614
-0.441338
-0.532442
-0.618856
-0.708433
-0.795819
-0.872739
-0.940336
-1.00678
-0.150224
-0.256823
-0.368409
-0.466366
-0.550186
-0.630099
-0.707084
-0.776733
-0.83801
-0.898534
-0.108861
-0.214307
-0.325788
-0.426459
-0.513791
-0.593173
-0.664953
-0.726724
-0.780657
-0.836972
-0.0927539
-0.19393
-0.294693
-0.393134
-0.48877
-0.574482
-0.644687
-0.703686
-0.759792
-0.820167
-0.483566
-0.463686
-0.434642
-0.403101
-0.372884
-0.33932
-0.311095
-0.291542
-0.27692
-0.266625
-0.550378
-0.530906
-0.503099
-0.468817
-0.438793
-0.409738
-0.382395
-0.360753
-0.345125
-0.335345
-0.591664
-0.573378
-0.547996
-0.514551
-0.482138
-0.452559
-0.426701
-0.406513
-0.391891
-0.3829
-0.608381
-0.591807
-0.569493
-0.538689
-0.505852
-0.475664
-0.450289
-0.431184
-0.417834
-0.409741
-0.603971
-0.589436
-0.5701
-0.542251
-0.510813
-0.481186
-0.456097
-0.436999
-0.423949
-0.416173
-0.583376
-0.570923
-0.553976
-0.528794
-0.499414
-0.471148
-0.446796
-0.427655
-0.41421
-0.406167
-0.55242
-0.54171
-0.526398
-0.503502
-0.476502
-0.45025
-0.427431
-0.409155
-0.395842
-0.387657
-0.518556
-0.509058
-0.494923
-0.474296
-0.450319
-0.427133
-0.407112
-0.39119
-0.379626
-0.372745
-0.488705
-0.479947
-0.466829
-0.448545
-0.428004
-0.408499
-0.391918
-0.378986
-0.370009
-0.365919
-0.468308
-0.460092
-0.44816
-0.432413
-0.415564
-0.400118
-0.387551
-0.378572
-0.373436
-0.372974
-0.458868
-0.451359
-0.440873
-0.427689
-0.414193
-0.401984
-0.391877
-0.384266
-0.377923
-0.369027
-0.459874
-0.453201
-0.444215
-0.433544
-0.423231
-0.414055
-0.406206
-0.399934
-0.394178
-0.384177
-0.468863
-0.463245
-0.45527
-0.446211
-0.437953
-0.430555
-0.423642
-0.417306
-0.410899
-0.400732
-0.483866
-0.480024
-0.472372
-0.463811
-0.456491
-0.449723
-0.442583
-0.435159
-0.427276
-0.416388
-0.504704
-0.502951
-0.495886
-0.487209
-0.48009
-0.473273
-0.465171
-0.456111
-0.446335
-0.434082
-0.531017
-0.531095
-0.525912
-0.517517
-0.51035
-0.502887
-0.493267
-0.482344
-0.470616
-0.456811
-0.563941
-0.565453
-0.563871
-0.558138
-0.548314
-0.538148
-0.527346
-0.515325
-0.502287
-0.487283
-0.610379
-0.613582
-0.613044
-0.607027
-0.595911
-0.58412
-0.572067
-0.558866
-0.544286
-0.527898
-0.670726
-0.674908
-0.674219
-0.668095
-0.657187
-0.64456
-0.631219
-0.616828
-0.601062
-0.583472
-0.744186
-0.748571
-0.747345
-0.740852
-0.7303
-0.717796
-0.704153
-0.689323
-0.673051
-0.654753
-0.363321
-0.293288
-0.247534
-0.186116
-0.135873
-0.0913759
-0.0578576
-0.0331736
-0.016168
-0.00492633
-0.369326
-0.29069
-0.24025
-0.176998
-0.128329
-0.0857105
-0.0539835
-0.0309453
-0.0150242
-0.00485983
-0.372252
-0.2901
-0.235247
-0.169916
-0.121303
-0.0798353
-0.0496214
-0.0279914
-0.0130681
-0.00422947
-0.376984
-0.291664
-0.230579
-0.163137
-0.114487
-0.0738588
-0.0450309
-0.0246976
-0.0107412
-0.00330946
-0.386111
-0.293965
-0.226054
-0.156214
-0.107754
-0.0678858
-0.0403768
-0.0212908
-0.00832437
-0.00236141
-0.40098
-0.297325
-0.22241
-0.149787
-0.10134
-0.0621156
-0.0358322
-0.0179539
-0.00601595
-0.00153691
-0.423024
-0.302541
-0.220591
-0.144281
-0.0952802
-0.0565418
-0.0313896
-0.0147114
-0.0038642
-0.000857101
-0.454472
-0.313289
-0.221198
-0.139839
-0.0894634
-0.0510358
-0.0269155
-0.0114621
-0.00178186
-0.000249825
-0.497135
-0.330289
-0.224505
-0.136416
-0.0837419
-0.045438
-0.0222766
-0.0080937
0.00034207
0.000364966
-0.553027
-0.353949
-0.230559
-0.133811
-0.0779635
-0.0395972
-0.0173741
-0.00453014
0.00258176
0.00103013
-0.345336
-0.295693
-0.256134
-0.19093
-0.138017
-0.0922515
-0.0579065
-0.0314594
-0.0143819
-0.0043115
-0.337171
-0.29031
-0.254842
-0.19136
-0.13876
-0.0929883
-0.0585065
-0.0319245
-0.0143946
-0.00409559
-0.336298
-0.287057
-0.251861
-0.190936
-0.138599
-0.0930454
-0.0584996
-0.0319497
-0.0143489
-0.00392288
-0.338206
-0.28402
-0.246244
-0.191153
-0.140003
-0.0941338
-0.0593532
-0.0328483
-0.0150515
-0.00398976
-0.34921
-0.286826
-0.244072
-0.189385
-0.14007
-0.0945101
-0.0598759
-0.0338916
-0.0161294
-0.00448059
-0.259912
-0.32456
-0.371669
-0.401353
-0.414009
-0.41246
-0.400663
-0.383615
-0.366799
-0.351705
-0.2581
-0.323586
-0.370738
-0.400242
-0.412944
-0.411176
-0.398822
-0.380912
-0.364846
-0.346245
-0.258416
-0.324739
-0.37207
-0.401187
-0.412834
-0.409483
-0.395158
-0.377103
-0.362032
-0.350751
-0.259873
-0.327326
-0.374869
-0.403241
-0.412905
-0.406595
-0.389487
-0.371137
-0.357997
-0.358911
-0.262498
-0.331157
-0.378811
-0.406111
-0.413279
-0.403658
-0.384296
-0.367117
-0.358482
-0.370788
0.659965
0.655939
0.650836
0.646713
0.643702
0.641142
0.638953
0.637729
0.63894
0.647343
0.712975
0.711073
0.706341
0.701351
0.69727
0.694022
0.691525
0.690106
0.691269
0.699996
0.749036
0.746408
0.742231
0.738271
0.735208
0.732919
0.731319
0.730567
0.732099
0.741324
0.779929
0.77755
0.773863
0.770339
0.767568
0.765506
0.764063
0.763189
0.764262
0.773433
0.8013
0.798366
0.794687
0.791372
0.788869
0.787162
0.786128
0.78547
0.786204
0.794198
0.81292
0.809184
0.805214
0.801817
0.799327
0.797794
0.797121
0.796826
0.797023
0.801593
0.813577
0.80863
0.803839
0.799738
0.796543
0.794277
0.792797
0.791683
0.791916
0.799226
0.802453
0.795993
0.789993
0.784768
0.780421
0.776952
0.774212
0.772016
0.772057
0.781782
0.778932
0.770752
0.763302
0.75673
0.751065
0.746309
0.742399
0.739456
0.739498
0.749516
0.742197
0.732151
0.72308
0.714996
0.707878
0.701725
0.696548
0.692744
0.692469
0.701999
-0.181121
-0.193323
-0.209894
-0.230013
-0.252891
-0.279608
-0.314241
-0.347138
-0.374827
-0.393106
-0.0785566
-0.0931516
-0.110922
-0.131098
-0.154313
-0.181595
-0.210416
-0.239534
-0.265622
-0.28084
0.031237
0.0141843
-0.00393772
-0.0223798
-0.0424632
-0.0658098
-0.0921605
-0.11905
-0.142661
-0.15359
0.140925
0.122134
0.104379
0.0876477
0.0699848
0.0496879
0.0267824
0.0035951
-0.0159121
-0.0226553
0.243945
0.224976
0.208534
0.193852
0.178843
0.162038
0.14332
0.124531
0.10941
0.10682
0.334913
0.317609
0.30356
0.291509
0.279514
0.266384
0.251906
0.237562
0.226822
0.228186
0.414837
0.401246
0.390307
0.380746
0.371345
0.36139
0.350631
0.340241
0.333369
0.337975
0.487796
0.477773
0.468876
0.460837
0.453371
0.445907
0.438101
0.430956
0.427313
0.434352
0.558294
0.549119
0.540557
0.533262
0.526967
0.520954
0.515007
0.510169
0.508905
0.517324
0.625889
0.616226
0.606741
0.599043
0.59277
0.587223
0.582351
0.579066
0.579207
0.587785
1.22237
0.957421
1.07583
0.946169
0.9422
0.921564
0.885235
0.857855
0.812175
0.736755
1.20914
0.953362
1.07667
0.950481
0.942936
0.92449
0.8902
0.864442
0.826603
0.762558
1.19716
0.950116
1.07628
0.953981
0.94337
0.926659
0.894594
0.871585
0.84288
0.787678
1.18661
0.947408
1.07498
0.956764
0.94348
0.928072
0.898008
0.877042
0.855579
0.808501
1.17735
0.944784
1.07295
0.958526
0.942939
0.928495
0.899943
0.880436
0.864296
0.823522
1.16923
0.942222
1.07048
0.959377
0.941788
0.928059
0.900522
0.882243
0.869419
0.832313
1.16216
0.939762
1.06774
0.959579
0.94027
0.9269
0.899874
0.882479
0.871249
0.83416
1.15608
0.937387
1.06478
0.959137
0.938592
0.924994
0.898039
0.880751
0.869676
0.828512
1.15094
0.935072
1.06162
0.957844
0.936845
0.922231
0.895017
0.876603
0.864381
0.81464
1.14675
0.93279
1.05839
0.955577
0.934966
0.91863
0.890854
0.869829
0.854944
0.791857
1.33111
0.972117
1.05317
0.926456
0.933886
0.905668
0.865072
0.833343
0.772322
0.69453
1.29676
0.972481
1.05754
0.927724
0.935026
0.907797
0.866422
0.833863
0.770791
0.687733
1.27577
0.969586
1.06218
0.9309
0.935964
0.91011
0.868658
0.837113
0.773615
0.687933
1.25534
0.966436
1.06791
0.936473
0.938382
0.914452
0.874748
0.844289
0.779415
0.692278
1.23735
0.962179
1.07266
0.941357
0.940691
0.918154
0.879779
0.847578
0.790528
0.697039
0.583459
0.540399
0.488398
0.422103
0.338327
0.239339
0.131689
0.0225837
-0.0828795
-0.179178
0.574874
0.531594
0.481592
0.418913
0.339532
0.243936
0.137659
0.0281214
-0.0785869
-0.176459
0.579282
0.53436
0.482608
0.420514
0.342875
0.249015
0.143314
0.0330463
-0.0752247
-0.175043
0.591769
0.539188
0.482732
0.420187
0.344307
0.252611
0.147801
0.0369162
-0.0729867
-0.174868
0.618129
0.552903
0.486814
0.419213
0.343006
0.2534
0.150236
0.0393367
-0.0720013
-0.175919
)
;

boundaryField
{
    left
    {
        type            zeroGradient;
    }
    right
    {
        type            fixedValue;
        value           uniform 0;
    }
    down
    {
        type            zeroGradient;
    }
    up
    {
        type            zeroGradient;
    }
    cylinder
    {
        type            zeroGradient;
    }
    defaultFaces
    {
        type            empty;
    }
}


// ************************************************************************* //
