/*--------------------------------*- C++ -*----------------------------------*\
| =========                 |                                                 |
| \\      /  F ield         | OpenFOAM: The Open Source CFD Toolbox           |
|  \\    /   O peration     | Version:  2406                                  |
|   \\  /    A nd           | Website:  www.openfoam.com                      |
|    \\/     M anipulation  |                                                 |
\*---------------------------------------------------------------------------*/
FoamFile
{
    version     2.0;
    format      ascii;
    arch        "LSB;label=32;scalar=64";
    class       surfaceScalarField;
    location    "0.35";
    object      phi;
}
// * * * * * * * * * * * * * * * * * * * * * * * * * * * * * * * * * * * * * //

dimensions      [0 3 -1 0 0 0 0];

oriented        oriented;

internalField   nonuniform List<scalar> 
3485
(
0.00236271
0.00694941
-0.00931211
0.00647913
0.00820652
-0.0123229
0.0130829
0.00350359
-0.0101073
0.0220832
-0.00379527
-0.00520505
0.0328228
-0.0102299
-0.000509746
0.0448074
-0.0151708
0.00318621
0.0578971
-0.0190941
0.00600447
0.0720307
-0.0227641
0.00863046
0.0871251
-0.0269379
0.0118435
-0.0313042
0.0160245
0.102405
0.00247693
0.00447247
0.00711108
0.00357237
0.0148188
-0.00420414
0.0247069
-0.0136834
0.0358274
-0.0213504
0.047653
-0.0269964
0.0599675
-0.0314086
0.0727712
-0.0355678
0.0862787
-0.0404454
-0.0463476
0.101322
0.00245934
0.00201313
0.00818546
-0.00215374
0.0174236
-0.0134423
0.0285555
-0.0248153
0.0406515
-0.0334464
0.0533216
-0.0396665
0.0664321
-0.0445191
0.0800132
-0.049149
0.0942914
-0.0547236
-0.0619087
0.109853
0.00229211
-0.000278982
0.00950931
-0.00937094
0.0200377
-0.0239707
0.0320702
-0.0368478
0.0448586
-0.0462348
0.058133
-0.0529409
0.0718318
-0.0582179
0.0860073
-0.0633244
0.100831
-0.0695471
-0.0777205
0.116643
0.00287127
-0.00315026
0.0114472
-0.0179469
0.0228341
-0.0353576
0.0354231
-0.0494368
0.0485916
-0.0594033
0.0621587
-0.066508
0.076141
-0.0722001
0.0906687
-0.0778522
0.106009
-0.0848872
-0.0943325
0.122621
0.00390913
-0.00705938
0.013276
-0.0273137
0.025021
-0.0471027
0.0376087
-0.0620245
0.0504861
-0.0722807
0.0635572
-0.0795792
0.0769312
-0.0855741
0.0908542
-0.0917751
0.105752
-0.0997847
-0.110878
0.122297
0.00459537
-0.0116548
0.0144175
-0.0371358
0.0261218
-0.058807
0.0381727
-0.0740754
0.0501261
-0.0842341
0.0620318
-0.0914849
0.0741646
-0.0977069
0.0869894
-0.1046
0.10118
-0.113976
-0.12713
0.117432
0.00503207
-0.0166868
0.0148912
-0.046995
0.0259721
-0.0698879
0.0368148
-0.0849181
0.0471627
-0.0945819
0.0572602
-0.101582
0.0675738
-0.10802
0.0787715
-0.115798
0.0915752
-0.12678
-0.141757
0.106203
0.00524679
-0.0219336
0.0146276
-0.0563758
0.024445
-0.0797053
0.0334879
-0.093961
0.0417885
-0.102882
0.0498169
-0.109611
0.0582146
-0.116418
0.0677518
-0.125335
0.0789124
-0.13794
-0.154049
0.0912045
0.00518531
-0.0271189
0.0134994
-0.0646899
0.0214365
-0.0876423
0.0282165
-0.100741
0.0342074
-0.108873
0.0400489
-0.115452
0.046447
-0.122816
0.0540634
-0.132951
0.0629122
-0.146789
0.0719702
-0.163108
-0.00135981
0.011538
-0.0101782
-0.00302917
0.0169956
-0.0153262
-0.0046508
0.0181707
-0.0165491
-0.00612522
0.0181983
-0.0167239
-0.007347
0.0175354
-0.0163136
-0.00829395
0.0163515
-0.0154045
-0.00899297
0.0147639
-0.0140649
-0.0094163
0.0127411
-0.0123178
-0.0094518
0.0100654
-0.0100299
0.00639823
-0.00889912
-0.00695091
-0.00128887
0.0128269
-0.00284677
0.0185535
-0.00433486
0.0196588
-0.0057002
0.0195637
-0.00682325
0.0186584
-0.00767776
0.017206
-0.0082935
0.0153796
-0.00864663
0.0130943
-0.00863021
0.010049
0.00582168
-0.00805366
-0.00114699
0.0139739
-0.00245949
0.019866
-0.00367017
0.0208695
-0.00479694
0.0206904
-0.00568018
0.0195416
-0.00629987
0.0178257
-0.00669496
0.0157747
-0.00684457
0.0132439
-0.00664397
0.00984836
0.00510735
-0.00592963
-0.000935981
0.0149098
-0.00189751
0.0208275
-0.0027089
0.0216809
-0.00347899
0.0214605
-0.00399044
0.0200531
-0.00424517
0.0180804
-0.0042933
0.0158229
-0.00411657
0.0130672
-0.00361407
0.00934586
0.00407995
-0.00258666
-0.000618654
0.0155285
-0.00114381
0.0213527
-0.00151381
0.0220509
-0.00180264
0.0217493
-0.00182639
0.0200768
-0.00162877
0.0178828
-0.00127676
0.0154709
-0.000775297
0.0125657
-1.15867e-05
0.00858214
0.00281632
0.00125204
-9.66886e-05
0.0156252
-6.74454e-05
0.0213234
1.27664e-05
0.0219706
0.000384191
0.0213779
0.00104344
0.0194176
0.00186911
0.0170571
0.0027926
0.0145474
0.00378582
0.0115725
0.0048877
0.00748027
0.00134082
0.0063632
0.000645401
0.0149798
0.00141728
0.0205516
0.00221954
0.0211684
0.003549
0.0200485
0.00516412
0.0178025
0.00686989
0.0153514
0.00861426
0.012803
0.0103722
0.00981451
0.0121381
0.0057144
-0.000804543
0.0142835
0.00142673
0.013553
0.00323016
0.0187481
0.00533807
0.0190605
0.00815321
0.0172333
0.0113108
0.0146449
0.0144989
0.0121632
0.0176141
0.00968782
0.0206623
0.00676628
0.0236754
0.00270136
-0.00405992
0.0269307
0.00203112
0.0115219
0.00490713
0.0158721
0.00865646
0.0153111
0.0135798
0.01231
0.019222
0.00900272
0.0251084
0.00627684
0.0308547
0.00394154
0.0362416
0.0013794
0.0412778
-0.00233492
-0.00886906
0.046087
0.00220981
0.00575899
0.0109628
0.0180677
0.0265607
0.0360237
0.0459697
0.0559796
0.0654882
0.0726436
0.0298161
-0.150598
0.111883
0.0840797
-0.272375
0.218112
0.117249
-0.235847
0.202678
0.138802
-0.195063
0.17351
0.150967
-0.152743
0.140579
0.157515
-0.116392
0.109844
0.160341
-0.0856559
0.0828301
0.160847
-0.0593513
0.0588447
0.159979
-0.037741
0.0386094
-0.015117
0.0167258
0.0269672
-0.185619
0.0787169
-0.324125
0.113488
-0.270619
0.136389
-0.217964
0.149795
-0.166149
0.157133
-0.123731
0.160517
-0.0890398
0.161436
-0.0602705
0.160887
-0.0371924
-0.0136791
0.0235674
-0.215116
0.0710929
-0.37165
0.107666
-0.307192
0.132172
-0.24247
0.147188
-0.181165
0.155621
-0.132164
0.159846
-0.0932639
0.161424
-0.0618489
0.161443
-0.0372112
-0.0125904
0.0203206
-0.238023
0.0624018
-0.413732
0.10055
-0.34534
0.126806
-0.268726
0.143555
-0.197914
0.153301
-0.14191
0.158592
-0.0985557
0.161034
-0.0642907
0.161841
-0.0380176
-0.012015
0.0188785
-0.25565
0.0555997
-0.450453
0.0943222
-0.384063
0.121863
-0.296266
0.139999
-0.21605
0.15098
-0.152891
0.157382
-0.104958
0.160788
-0.0676961
0.162542
-0.0397718
-0.012094
0.0215737
-0.27086
0.0548064
-0.483685
0.0929367
-0.422193
0.120404
-0.323734
0.138807
-0.234454
0.150349
-0.164432
0.157515
-0.112124
0.161769
-0.0719508
0.164513
-0.0425158
-0.0129414
0.0299518
-0.286528
0.0629984
-0.516732
0.100135
-0.459329
0.126182
-0.34978
0.143362
-0.251634
0.15428
-0.175351
0.161405
-0.119248
0.166067
-0.0766136
0.169597
-0.0460456
-0.0146382
0.0454495
-0.305047
0.0800537
-0.551336
0.116407
-0.495683
0.141036
-0.37441
0.156361
-0.266959
0.165794
-0.184784
0.172068
-0.125522
0.17652
-0.0810654
0.180349
-0.0498744
-0.0172202
0.0670072
-0.325967
0.101434
-0.585764
0.13721
-0.531458
0.162061
-0.399261
0.176905
-0.281802
0.185551
-0.193431
0.191191
-0.131161
0.195322
-0.0851964
0.19929
-0.0538432
-0.0208016
0.0914363
-0.34476
0.122648
-0.616975
0.157502
-0.566312
0.182541
-0.424301
0.197615
-0.296875
0.206639
-0.202456
0.21273
-0.137252
0.217535
-0.0900012
0.222428
-0.058737
-0.0258159
0.422506
-0.526814
-0.240453
0.465858
-0.660327
0.472764
-0.573217
0.462603
-0.414141
0.444672
-0.278944
0.428121
-0.185904
0.415025
-0.124156
0.406478
-0.0814543
0.401686
-0.0539444
-0.0245644
0.518609
-0.576265
-0.469158
0.531153
-0.672871
0.530991
-0.573055
0.518335
-0.401485
0.500404
-0.261012
0.483202
-0.168701
0.469206
-0.11016
0.459861
-0.0721102
0.454076
-0.0481589
-0.0223598
0.716556
-0.571138
-0.721684
0.663895
-0.62021
0.6168
-0.52596
0.580653
-0.365339
0.551729
-0.232088
0.529224
-0.146196
0.512643
-0.093579
0.501267
-0.0607347
0.493931
-0.0408232
-0.0196685
0.798169
-0.495578
-0.873729
0.719844
-0.541884
0.661268
-0.467384
0.614411
-0.318482
0.577906
-0.195583
0.551555
-0.119845
0.533282
-0.0753056
0.520974
-0.0484267
0.51328
-0.0331289
-0.0170417
0.857659
-0.41619
-0.937047
0.774468
-0.458693
0.697359
-0.390275
0.636312
-0.257435
0.591534
-0.150806
0.561003
-0.0893136
0.540693
-0.0549961
0.526954
-0.0346878
0.517827
-0.0240021
-0.0136744
0.871362
-0.341006
-0.946546
0.789519
-0.37685
0.705082
-0.305837
0.637005
-0.189358
0.58841
-0.10221
0.556446
-0.0573499
0.536073
-0.034623
0.522754
-0.0213686
0.514482
-0.01573
-0.0104949
0.865177
-0.271046
-0.935137
0.771561
-0.283234
0.675773
-0.21005
0.604762
-0.118347
0.55837
-0.0558186
0.529384
-0.0283635
0.511355
-0.0165944
0.499916
-0.00992959
0.492427
-0.00824097
-0.00688927
0.802768
-0.186261
-0.887553
0.684854
-0.16532
0.581644
-0.106841
0.515953
-0.0526554
0.478501
-0.018367
0.456703
-0.00656524
0.44332
-0.00321146
0.434975
-0.0015851
0.429027
-0.00229235
-0.00336445
0.592588
-0.0799757
-0.698873
0.472372
-0.0451041
0.389016
-0.0234847
0.345131
-0.00877081
0.3256
0.00116459
0.316096
0.00293813
0.310622
0.00226243
0.307468
0.00156967
0.304691
0.000484854
-0.000799528
0.185218
-0.265194
0.140114
0.116629
0.107859
0.109023
0.111961
0.114224
0.115793
0.116278
0.527416
0.0787591
-0.534205
0.514678
0.103943
0.495259
0.125622
0.46647
0.146221
0.431502
0.157265
0.389084
0.165039
0.345057
0.160669
0.30143
0.15348
0.261689
0.141063
0.123641
0.615998
0.0692277
-0.606466
0.625312
0.0946286
0.631737
0.119197
0.633636
0.144322
0.628357
0.162544
0.614838
0.178559
0.589239
0.186268
0.557007
0.185713
0.50964
0.188429
0.164123
0.662966
0.0564509
-0.650189
0.680692
0.0769024
0.69978
0.100108
0.720883
0.123219
0.737238
0.146189
0.752489
0.163308
0.756377
0.182379
0.756576
0.185514
0.742339
0.202667
0.184778
0.682467
0.0447604
-0.670776
0.699618
0.0597508
0.721489
0.0782372
0.748107
0.0966007
0.775554
0.118742
0.802619
0.136243
0.827504
0.157494
0.84912
0.163898
0.86766
0.184127
0.17871
0.695239
0.0351575
-0.685636
0.709797
0.0451932
0.729063
0.0589711
0.753506
0.0721581
0.782243
0.0900046
0.813205
0.105281
0.846702
0.123997
0.877823
0.132777
0.910609
0.151342
0.152271
0.700016
0.0258924
-0.690751
0.713534
0.0316745
0.731232
0.0412734
0.752854
0.0505363
0.779321
0.0635381
0.808011
0.0765905
0.842326
0.0896827
0.875172
0.0999307
0.913151
0.113363
0.118875
0.691471
0.0158002
-0.681379
0.705399
0.0177466
0.722242
0.0244304
0.74297
0.029809
0.767528
0.0389794
0.794846
0.0492726
0.828024
0.0565054
0.860594
0.06736
0.898999
0.0749574
0.0827379
0.6495
0.00411453
-0.637815
0.66293
0.00431728
0.678968
0.00839211
0.69812
0.0106565
0.720004
0.0170956
0.747276
0.0220005
0.77711
0.0266715
0.810308
0.0341622
0.848608
0.0366578
0.0437929
0.523149
-0.00287794
-0.516156
0.53001
-0.00254353
0.539602
-0.00120003
0.550786
-0.000527462
0.565851
0.00203082
0.585275
0.00257613
0.606784
0.00516257
0.634454
0.00649192
0.663539
0.00757295
0.0084587
0.237172
-0.24005
0.234628
0.233428
0.232901
0.234932
0.237508
0.24267
0.249162
0.256735
0.0336316
0.116287
-0.0955922
-0.0543263
0.0210757
0.101151
-0.088595
0.0142854
0.0912152
-0.0844248
0.0105555
0.0852878
-0.081558
0.00809128
0.081828
-0.0793638
0.00609245
0.0794299
-0.0774311
0.00425418
0.0769559
-0.0751177
0.00242398
0.0731731
-0.0713429
0.000730362
0.0639445
-0.0622509
0.0365925
-0.0358621
0.0560442
0.136093
-0.0758502
0.0384675
0.118728
0.0259344
0.103748
0.0179114
0.0933109
0.0126378
0.0871016
0.00873523
0.0833325
0.005526
0.0801652
0.00288605
0.0758131
0.000877708
0.0659529
0.0374702
0.0666606
0.151273
-0.0818409
0.0508963
0.134492
0.0374164
0.117228
0.0271943
0.103533
0.0195758
0.0947201
0.0135407
0.0893676
0.0084359
0.0852699
0.00420028
0.0800487
0.0011809
0.0689723
0.0386511
0.063239
0.161874
-0.0738401
0.0520068
0.145724
0.0411644
0.128071
0.0315863
0.113111
0.0234173
0.102889
0.0163559
0.096429
0.0101491
0.0914767
0.00491495
0.0852829
0.0012493
0.0726379
0.0399004
0.0519567
0.168561
-0.058643
0.0448744
0.152806
0.0373254
0.135619
0.0296895
0.120747
0.0223472
0.110231
0.0155048
0.103271
0.00932617
0.0976553
0.00415108
0.090458
0.000775763
0.0760132
0.0406761
0.0359208
0.172259
-0.0396188
0.032015
0.156712
0.0274135
0.140221
0.0221222
0.126038
0.0164778
0.115876
0.0109145
0.108835
0.00586051
0.102709
0.00182161
0.0944969
-0.000289877
0.0781247
0.0403863
0.0169374
0.173525
-0.0182039
0.0156398
0.15801
0.0136764
0.142184
0.0108254
0.128889
0.0073495
0.119352
0.0037608
0.112423
0.000588848
0.105881
-0.00148983
0.0965755
-0.00156886
0.0782038
0.0388174
-0.0039326
0.172414
0.00504343
-0.00268295
0.15676
-0.00204914
0.141551
-0.00238221
0.129222
-0.00343954
0.120409
-0.00467422
0.113658
-0.00549709
0.106704
-0.00514539
0.0962238
-0.00290173
0.0759601
0.0359157
-0.0245911
0.169182
0.0278237
-0.0209615
0.15313
-0.0178687
0.138458
-0.0157999
0.127154
-0.0144753
0.119085
-0.0132944
0.112477
-0.0116041
0.105014
-0.00861416
0.0932339
-0.0040169
0.0713628
0.0318988
-0.0447384
0.0508128
-0.038397
-0.0328904
-0.028553
-0.0249209
-0.0213171
-0.0170444
-0.0114527
-0.00477986
0.0507763
0.0327599
-0.0580464
-0.0254898
0.0438923
0.0314848
-0.0246008
0.0373485
0.0303409
-0.023797
0.0310725
0.0294793
-0.0232033
0.0249934
0.0289231
-0.022844
0.0190661
0.0285371
-0.0226097
0.0132995
0.0279681
-0.0222015
0.00779906
0.0265426
-0.0210422
0.00292904
0.022917
-0.018047
0.013278
-0.0103489
0.0517943
0.0401663
-0.0592007
0.0447824
0.0384967
0.0381222
0.0370011
0.0317364
0.035865
0.0255489
0.0351106
0.0195097
0.0345763
0.0136248
0.033853
0.00799732
0.0321701
0.00299965
0.0279147
0.0162776
0.052407
0.0476681
-0.0599088
0.045322
0.0455817
0.0385951
0.043728
0.0321412
0.0423189
0.0258815
0.0413704
0.0197677
0.0406901
0.0138087
0.039812
0.0081067
0.0378721
0.00303566
0.0329857
0.0193133
0.0525673
0.05523
-0.0601292
0.0453839
0.0527651
0.0385886
0.0505233
0.0320924
0.048815
0.025812
0.0476508
0.0196942
0.0468079
0.013743
0.0457633
0.00805392
0.0435611
0.00300005
0.0380396
0.0223133
0.0525833
0.0629469
-0.0603002
0.0454185
0.0599299
0.0386193
0.0573225
0.0320989
0.0553354
0.0257822
0.0539675
0.0196352
0.0529549
0.0136796
0.0517189
0.00801063
0.0492301
0.00298206
0.0430681
0.0252954
0.049226
0.0700852
-0.0563642
0.0423755
0.0667803
0.0359887
0.0637093
0.0298988
0.0614254
0.0240016
0.0598648
0.0182554
0.0587011
0.0126775
0.0572968
0.00736418
0.0545433
0.00268426
0.0477481
0.0279796
0.0519323
0.0782657
-0.0601129
0.0445904
0.0741223
0.037587
0.0707126
0.0309142
0.0680982
0.0245544
0.0662245
0.0185043
0.0647512
0.0127798
0.0630213
0.00742872
0.0598944
0.00273702
0.0524398
0.0307167
0.0379452
0.0840962
-0.0437756
0.0324941
0.0795733
0.0278005
0.0754062
0.0233548
0.0725439
0.0188607
0.0707186
0.0142994
0.0693125
0.00981099
0.0675097
0.00556072
0.0641447
0.00191504
0.0560854
0.0326317
0.0485181
0.0920255
-0.0564473
0.0409154
0.087176
0.0334349
0.0828867
0.0265601
0.0794187
0.0203924
0.0768863
0.0149105
0.0747944
0.0100328
0.0723874
0.0056692
0.0685083
0.00202212
0.0597325
0.0346538
0.019502
-0.0230688
0.0180831
0.016545
0.0144057
0.0119283
0.00929155
0.00656131
0.0037267
0.00120831
0.194444
0.157208
-0.153662
0.186343
0.23816
-0.230059
0.180767
0.17906
-0.173484
0.178547
0.139714
-0.137494
0.176393
0.132945
-0.13079
0.172839
0.138198
-0.134644
0.164006
0.159213
-0.15038
0.149114
0.191667
-0.176776
0.112626
0.253141
-0.216653
0.320059
-0.265479
0.193706
0.161492
0.184548
0.247317
0.178669
0.184939
0.176089
0.142294
0.174129
0.134905
0.170828
0.141499
0.162608
0.167433
0.147654
0.206622
0.112522
0.288273
0.37338
0.192741
0.16674
0.182159
0.2579
0.175612
0.191486
0.172545
0.145361
0.170583
0.136868
0.167273
0.144808
0.159558
0.175148
0.144317
0.221862
0.111171
0.321419
0.424642
0.191633
0.173097
0.179189
0.270344
0.171525
0.199149
0.168131
0.148755
0.166114
0.138885
0.162423
0.148499
0.1549
0.182671
0.139293
0.237469
0.108667
0.352045
0.47318
0.190505
0.180582
0.175678
0.28517
0.166546
0.208281
0.163387
0.151914
0.161198
0.141074
0.156558
0.153139
0.148661
0.190568
0.132675
0.253455
0.106281
0.378439
0.519161
0.189464
0.189108
0.171991
0.302643
0.161461
0.218812
0.158988
0.154386
0.156129
0.143934
0.150073
0.159194
0.14126
0.199381
0.124351
0.270364
0.0981411
0.404649
0.560938
0.188637
0.198461
0.169346
0.321934
0.15828
0.229877
0.155543
0.157123
0.151134
0.148343
0.143796
0.166533
0.134226
0.208951
0.116685
0.287905
0.100782
0.420552
0.601607
0.18871
0.207741
0.168904
0.34174
0.158096
0.240685
0.153916
0.161303
0.148365
0.153894
0.139668
0.17523
0.127683
0.220935
0.108645
0.306944
0.0843162
0.444881
0.642148
0.190001
0.215731
0.171624
0.360116
0.162954
0.249355
0.158979
0.165278
0.153416
0.159457
0.143228
0.185417
0.129881
0.234283
0.107776
0.329049
0.0922835
0.460373
0.677984
0.193402
0.220318
0.178896
0.374622
0.173729
0.254523
0.170052
0.168955
0.162858
0.166651
0.14983
0.198446
0.131574
0.252539
0.106844
0.353778
0.082304
0.484913
0.737219
0.323554
0.198775
0.334546
0.36363
0.342917
0.246151
0.347819
0.164053
0.352548
0.161922
0.353672
0.197322
0.35883
0.24738
0.359203
0.353406
0.369133
0.474984
0.653299
0.453052
0.339302
0.161483
0.375968
0.326964
0.39525
0.226868
0.404297
0.155007
0.41246
0.153759
0.422006
0.187776
0.428732
0.240655
0.452115
0.330022
0.472079
0.45502
0.596342
0.529037
0.347796
0.115697
0.406746
0.268014
0.437887
0.195727
0.452533
0.140361
0.465586
0.140706
0.482203
0.171159
0.49524
0.227618
0.534786
0.290475
0.564637
0.42517
0.547925
0.613054
0.349553
0.0681548
0.422063
0.195504
0.462721
0.15507
0.482168
0.120915
0.499135
0.123739
0.521616
0.148678
0.541335
0.207899
0.588891
0.242919
0.637468
0.376592
0.502252
0.683141
0.347222
0.0229432
0.425935
0.11679
0.474
0.107005
0.497044
0.0978709
0.517106
0.103677
0.542772
0.123012
0.569439
0.181232
0.618256
0.194103
0.679257
0.315591
0.448513
0.732995
0.343638
-0.0186843
0.422293
0.0381347
0.474003
0.0552948
0.499104
0.0727697
0.521487
0.0812945
0.54815
0.0963488
0.583039
0.146342
0.628313
0.148829
0.694532
0.249372
0.375697
0.767349
0.338348
-0.0550221
0.4084
-0.0319171
0.457477
0.00621803
0.482843
0.0474035
0.507259
0.0568784
0.534672
0.0689356
0.575642
0.105372
0.616821
0.10765
0.686801
0.179391
0.27911
0.783388
0.326358
-0.0793699
0.372453
-0.0780125
0.407099
-0.0284271
0.428855
0.025647
0.453554
0.0321794
0.481066
0.041424
0.5252
0.0612372
0.565167
0.067684
0.636654
0.107904
0.169277
0.746487
0.298251
-0.0756105
0.294211
-0.0739723
0.297012
-0.0312283
0.312325
0.0103332
0.33345
0.0110552
0.358835
0.0160389
0.397759
0.0223131
0.43784
0.027603
0.504365
0.0413793
0.0670907
0.606552
0.2264
0.152427
0.121199
0.131532
0.142588
0.158626
0.18094
0.208543
0.249922
0.317013
0.500531
-0.101805
0.524274
-0.099594
0.535839
-0.0934057
0.542228
-0.0802287
0.545335
-0.0617501
0.545732
-0.040016
0.544096
-0.0165678
0.541522
0.00761701
0.538488
0.0308586
0.0550954
0.546282
-0.11905
0.556326
-0.109638
0.561721
-0.098801
0.566754
-0.0852616
0.57269
-0.0676859
0.578791
-0.0461169
0.584782
-0.0225594
0.591315
0.0010846
0.597971
0.0242024
0.0466002
0.615773
-0.121769
0.619528
-0.113394
0.621066
-0.100339
0.621766
-0.0859617
0.62319
-0.0691094
0.625871
-0.0487986
0.62944
-0.0261274
0.634012
-0.00348787
0.640607
0.0176069
0.0370189
0.674711
-0.113338
0.667971
-0.106655
0.662285
-0.0946527
0.657702
-0.0813783
0.65504
-0.066447
0.654582
-0.0483407
0.655778
-0.0273236
0.658281
-0.00599132
0.662845
0.0130433
0.0290873
0.719929
-0.100272
0.70818
-0.0949051
0.698608
-0.085081
0.69098
-0.0737501
0.685192
-0.0606589
0.681176
-0.0443253
0.67879
-0.0249377
0.678371
-0.00557177
0.680242
0.0111723
0.0236929
0.751918
-0.084842
0.735863
-0.0788497
0.722058
-0.0712762
0.710276
-0.0619676
0.700416
-0.0507993
0.692549
-0.0364584
0.687058
-0.0194463
0.684552
-0.00306657
0.685606
0.0101191
0.0185479
0.760058
-0.0615126
0.738451
-0.057242
0.719716
-0.0525416
0.704176
-0.0464277
0.691407
-0.0380304
0.681504
-0.0265552
0.675076
-0.0130182
0.672552
-0.000542881
0.674819
0.0078527
0.0119873
0.719107
-0.0341329
0.694061
-0.0321961
0.6718
-0.0302801
0.653641
-0.0282687
0.639202
-0.0235913
0.628398
-0.0157514
0.622641
-0.00726177
0.623249
-0.00115
0.628808
0.00229326
0.00298076
0.582775
-0.010356
0.560984
-0.010405
0.542483
-0.0117794
0.526961
-0.0127463
0.514368
-0.0109987
0.50587
-0.007253
0.502967
-0.00435961
0.504939
-0.00312202
0.510112
-0.00287914
-0.00306376
0.306657
0.296252
0.284472
0.271726
0.260727
0.253474
0.249115
0.245993
0.243113
0.00346549
0.0301625
-0.033628
0.00682975
0.0713602
-0.0747245
0.00786522
0.0955974
-0.0966328
0.00762622
0.106695
-0.106456
0.00787468
0.109548
-0.109797
0.0066282
0.111159
-0.109912
0.00395596
0.109674
-0.107002
0.00151435
0.103797
-0.101355
0.000315132
0.0940012
-0.092802
0.0801108
0.000569218
-0.0803649
0.00437908
0.0257834
0.010245
0.0654944
0.014446
0.0913963
0.016735
0.104406
0.017572
0.108711
0.018189
0.110542
0.0179443
0.109919
0.016814
0.104927
0.0154282
0.095387
0.0815529
0.0139862
0.00475069
0.0210327
0.0123991
0.057846
0.0192748
0.0845206
0.0241483
0.099533
0.0269909
0.105869
0.0292279
0.108305
0.0308679
0.108279
0.0312996
0.104495
0.0304066
0.09628
0.0838852
0.0280742
0.00457271
0.01646
0.0130812
0.0493375
0.0219248
0.075677
0.0292511
0.0922067
0.0346263
0.100493
0.0389101
0.104021
0.0426055
0.104583
0.0451568
0.101944
0.0458733
0.0955635
0.085612
0.0441465
0.00394287
0.0125171
0.0123484
0.040932
0.0222625
0.0657629
0.0316269
0.0828422
0.0395568
0.0925634
0.0462991
0.0972789
0.0522697
0.0986126
0.0572366
0.096977
0.0604754
0.0923246
0.0849561
0.0611313
0.00304403
0.00947311
0.0105617
0.0334143
0.0205769
0.0557477
0.0312017
0.0722175
0.0412624
0.0825027
0.0504722
0.088069
0.0589008
0.090184
0.0664044
0.0894734
0.0724709
0.0862582
0.0810177
0.0764093
0.00205197
0.00742114
0.00819205
0.0272742
0.017455
0.0464847
0.0283463
0.0613261
0.0396448
0.0712043
0.0507318
0.076982
0.061339
0.0795769
0.0711899
0.0796225
0.0798382
0.0776099
0.0740344
0.0868215
0.0012184
0.00620274
0.00597881
0.0225138
0.0141014
0.0383621
0.0245253
0.0509023
0.0361564
0.0595731
0.0482627
0.0648758
0.0603692
0.0674704
0.0720253
0.0679664
0.0826632
0.0669719
0.0649068
0.0917908
0.000631274
0.00557146
0.00424521
0.0188999
0.0111377
0.0314696
0.0205974
0.0414426
0.0317131
0.0484574
0.0437665
0.0528224
0.0562032
0.0550336
0.0684955
0.0556741
0.0801055
0.0553619
0.0543685
0.0906437
0.000353964
0.0052175
0.00319806
0.0160558
0.00900871
0.025659
0.0173457
0.0331056
0.0275239
0.0382793
0.038962
0.0413843
0.0511986
0.042797
0.0637932
0.0430794
0.0762909
0.0428643
0.0427586
0.0879008
0.000212589
0.00500491
0.0024181
0.0138503
0.00705555
0.0210215
0.0138212
0.0263399
0.0221837
0.0299168
0.0316312
0.0319368
0.0416865
0.0327417
0.0518425
0.0329235
0.0614785
0.0332283
0.0346993
0.0695378
0.00019155
0.00481336
0.00193875
0.0121031
0.00554133
0.0174189
0.0107383
0.0211429
0.0170879
0.0235673
0.0241357
0.024889
0.0314357
0.0254417
0.0385925
0.0257667
0.0453783
0.0264425
0.0280314
0.0520462
0.000121037
0.00469232
0.00139281
0.0108313
0.0040336
0.0147782
0.00779986
0.0173767
0.0123086
0.0190585
0.017201
0.0199966
0.0221879
0.0204549
0.0271242
0.0208303
0.0320884
0.0214783
0.0226704
0.0374494
-5.63485e-05
0.00474867
0.000658071
0.0101169
0.00237653
0.0130597
0.00489844
0.0148548
0.00789207
0.0160649
0.0111311
0.0167575
0.0145098
0.0170761
0.0180494
0.0172908
0.0219005
0.0176271
0.0182372
0.0263338
-0.00026907
0.00501774
-8.51256e-05
0.00993294
0.000770671
0.0122039
0.00219329
0.0134321
0.00392964
0.0143285
0.00590239
0.0147848
0.00812455
0.014854
0.0106541
0.0147612
0.0136118
0.0146694
0.0146558
0.0171932
-0.00050146
0.0055192
-0.000824477
0.010256
-0.000728468
0.0121079
-0.000325302
0.013029
0.000329608
0.0136736
0.00131444
0.0138
0.00264503
0.0135234
0.00433427
0.013072
0.00646377
0.0125399
0.0119144
0.00920518
-0.000898903
0.00641811
-0.00174381
0.0111009
-0.00225031
0.0126144
-0.00250142
0.0132801
-0.00253289
0.0137051
-0.00228754
0.0135546
-0.00172196
0.0129578
-0.000799421
0.0121494
0.000582078
0.0111584
0.00993135
0.00256513
-0.00114906
0.00756717
-0.0023033
0.0122551
-0.00326691
0.013578
-0.00405661
0.0140698
-0.0045778
0.0142263
-0.00488072
0.0138575
-0.00492794
0.013005
-0.00462773
0.0118492
-0.00386637
0.010397
0.00852843
-0.00246346
-0.00127526
0.00884243
-0.00271777
0.0136976
-0.00409615
0.0149564
-0.00531741
0.015291
-0.00624205
0.0151509
-0.00690305
0.0145185
-0.00732436
0.0134263
-0.00744141
0.0119663
-0.0071294
0.010085
0.00760866
-0.00620963
-0.00133576
-0.00296437
-0.00455706
-0.00598992
-0.00715258
-0.00803859
-0.00867715
-0.00902868
-0.00897355
-0.00831579
0.0680337
0.151094
-0.14959
0.072571
0.11076
-0.115297
0.0845608
0.0247687
-0.0367585
0.0960402
-0.0219845
0.0105051
0.106864
-0.0409824
0.0301586
0.116844
-0.0432698
0.0332898
0.125977
-0.0383774
0.029244
0.133784
-0.0312336
0.0234275
0.140543
-0.0215952
0.0148362
-0.0109271
0.00610461
0.0608843
0.142256
0.0716789
0.0999651
0.0874556
0.00899201
0.100476
-0.0350046
0.111631
-0.0521381
0.121178
-0.052816
0.129589
-0.0467884
0.136559
-0.0382039
0.142397
-0.0274329
-0.0147851
0.0545494
0.125156
0.0717521
0.0827624
0.0908236
-0.0100795
0.105066
-0.0492466
0.11645
-0.0635226
0.125535
-0.0619014
0.133137
-0.0543905
0.139168
-0.0442345
0.144028
-0.0322931
-0.0177321
0.0495056
0.101984
0.0734648
0.0588032
0.0955068
-0.0321214
0.110622
-0.0643614
0.122017
-0.0749184
0.130484
-0.0703676
0.137115
-0.0610219
0.142035
-0.0491548
0.145803
-0.0360613
-0.0197786
0.0449944
0.0741827
0.0764604
0.0273372
0.101082
-0.0567433
0.117068
-0.0803468
0.128314
-0.0861644
0.136064
-0.0781176
0.141614
-0.0665721
0.145324
-0.052865
0.147901
-0.0386385
-0.0209174
0.0410259
0.0423619
0.0802977
-0.0119345
0.106959
-0.0834041
0.123777
-0.0971648
0.134755
-0.0971431
0.141801
-0.0851634
0.146298
-0.0710687
0.148861
-0.0554279
0.150286
-0.040064
-0.0211958
0.0379293
0.0069978
0.0841402
-0.0581454
0.112142
-0.111406
0.129835
-0.114858
0.140568
-0.107876
0.147044
-0.0916391
0.15066
-0.0746845
0.152276
-0.0570441
0.152736
-0.0405241
-0.0207401
0.0358866
-0.0313522
0.0868524
-0.109111
0.116013
-0.140566
0.134639
-0.133484
0.145266
-0.118503
0.151382
-0.0977551
0.154355
-0.0776577
0.155283
-0.0579723
0.155021
-0.0402624
-0.0197217
0.0339603
-0.0715222
0.0879237
-0.163075
0.118303
-0.170946
0.137866
-0.153046
0.148643
-0.12928
0.154627
-0.103739
0.157237
-0.0802673
0.157744
-0.0584799
0.157019
-0.0395372
-0.0183223
0.0320448
0.0870818
0.118814
0.139278
0.150577
0.156681
0.159244
0.159609
0.158681
0.0309445
0.0236713
-0.0546158
0.0219654
0.00897912
0.0197063
0.00225915
0.0213651
-0.00165883
0.0242856
-0.00292045
0.0272646
-0.00297905
0.0296276
-0.00236297
0.0317163
-0.00208873
0.0325117
-0.000795435
0.000130934
0.0966173
0.0673437
-0.14029
0.07131
0.0342864
0.0636446
0.00992452
0.0653927
-0.00340696
0.0703857
-0.00791339
0.0759508
-0.0085442
0.080657
-0.00706917
0.0845347
-0.0059664
0.0863967
-0.00265738
-0.000223731
0.132561
0.104137
-0.169354
0.102439
0.0644084
0.0926358
0.0197277
0.0942074
-0.00497856
0.100289
-0.013995
0.107427
-0.0156826
0.113769
-0.013411
0.118778
-0.0109755
0.121766
-0.0056448
-0.0014254
0.140854
0.129868
-0.166586
0.112802
0.0924608
0.102839
0.0296909
0.105135
-0.00727447
0.112791
-0.0216511
0.121248
-0.0241397
0.12885
-0.0210132
0.13483
-0.0169555
0.139082
-0.00989642
-0.00357647
0.134627
-0.154349
0.111791
0.104724
0.107954
0.116462
0.125612
0.133843
0.140315
0.145254
0.0053674
0.000146122
-0.00551352
0.00591818
-0.000550778
0.00711333
-0.00119515
0.00905724
-0.00194391
0.0121499
-0.00309268
0.0170372
-0.00488727
0.0243733
-0.00733607
0.0340201
-0.00964684
0.0452912
-0.0112711
-0.00932459
0.0142662
0.000342485
-0.0144625
0.0159371
-0.00222168
0.0195342
-0.00479228
0.0255645
-0.00797417
0.0349613
-0.0124895
0.0487311
-0.0186571
0.0671389
-0.0257439
0.0894093
-0.0319173
0.11501
-0.0368721
-0.0346041
0.0218772
0.000398372
-0.0219331
0.0246854
-0.0050299
0.030547
-0.0106538
0.0401606
-0.0175878
0.054251
-0.0265799
0.0729999
-0.037406
0.0953094
-0.0480533
0.120006
-0.0566135
0.144907
-0.0617736
-0.0590511
0.0284936
0.000144359
-0.0282395
0.032428
-0.00896434
0.0403031
-0.018529
0.0526744
-0.0299591
0.069467
-0.0433725
0.089446
-0.0573849
0.110435
-0.0690423
0.130855
-0.0770332
0.14888
-0.0797993
-0.0767567
0.0342855
-0.0335719
0.0393073
0.0488525
0.06304
0.0807988
0.0998232
0.117602
0.13236
0.143205
0.0447428
-0.0361481
0.0446228
-0.0532175
0.03759
-0.0337095
0.0408624
0.0317053
-0.0317107
0.0375954
0.0265509
-0.0300232
0.0351777
0.0216471
-0.0286308
0.0335346
0.0166915
-0.0273695
0.0323251
0.011616
-0.0258256
0.030901
0.00661682
-0.023294
0.0282932
0.00228447
-0.0186488
0.0229811
-0.00955441
0.0118389
0.0468061
-0.0291543
-0.0537999
0.0403829
-0.0272863
0.0342553
-0.0255832
0.0283955
-0.0241634
0.0227405
-0.0229757
0.0172186
-0.0218477
0.0118273
-0.0204343
0.00671906
-0.0181858
0.00236731
-0.014297
-0.0071871
0.045795
-0.0222734
-0.0526759
0.0392038
-0.020695
0.0330023
-0.0193817
0.027147
-0.0183082
0.0215707
-0.0173994
0.0162104
-0.0164875
0.0110612
-0.015285
0.00625006
-0.0133747
0.00219384
-0.0102408
-0.00499326
0.0452556
-0.0154575
-0.0520715
0.038828
-0.0142674
0.0327416
-0.0132953
0.0269408
-0.0125073
0.0213685
-0.0118271
0.0159958
-0.0111148
0.0108582
-0.0101474
0.00611226
-0.00862875
0.00216016
-0.00628871
-0.0028331
0.0449499
-0.00875984
-0.0516475
0.0385886
-0.00790611
0.0325244
-0.00723104
0.0267002
-0.00668311
0.0210632
-0.00619011
0.0155975
-0.00564917
0.0103759
-0.00492574
0.00563961
-0.00389245
0.00188515
-0.00253426
-0.00094795
0.0449233
-0.00210802
-0.0515751
0.0385916
-0.00157444
0.0325219
-0.00116132
0.0266458
-0.000806958
0.0209034
-0.000447754
0.0152839
-2.9679e-05
0.0098905
0.000467664
0.00506181
0.000936239
0.00147179
0.00105576
0.000523841
0.0455511
0.0045959
-0.052255
0.0391745
0.00480211
0.033069
0.00494418
0.0271659
0.00509613
0.0214096
0.00530856
0.0157972
0.00558277
0.0104447
0.00582013
0.00565094
0.00573001
0.00190162
0.00480508
0.00242546
0.0466454
0.0114113
-0.0534608
0.0401806
0.0112669
0.0340148
0.01111
0.0280814
0.0110295
0.0223279
0.0110621
0.016749
0.0111617
0.011424
0.0111451
0.00653979
0.0106142
0.00242835
0.00891652
0.00485381
0.048031
0.0183682
-0.0549879
0.0414406
0.0178573
0.0351674
0.0173832
0.0291453
0.0170516
0.0233171
0.0168902
0.0176615
0.0168174
0.0122182
0.0165884
0.00711427
0.0157181
0.00267205
0.0133587
0.00752585