/*--------------------------------*- C++ -*----------------------------------*\
| =========                 |                                                 |
| \\      /  F ield         | OpenFOAM: The Open Source CFD Toolbox           |
|  \\    /   O peration     | Version:  2406                                  |
|   \\  /    A nd           | Website:  www.openfoam.com                      |
|    \\/     M anipulation  |                                                 |
\*---------------------------------------------------------------------------*/
FoamFile
{
    version     2.0;
    format      ascii;
    arch        "LSB;label=32;scalar=64";
    class       volVectorField;
    location    "0.35";
    object      U;
}
// * * * * * * * * * * * * * * * * * * * * * * * * * * * * * * * * * * * * * //

dimensions      [0 1 -1 0 0 0 0];

internalField   nonuniform List<vector> 
1800
(
(-0.0685139 0.0767853 0)
(-0.0801767 0.105275 5.06424e-20)
(-0.0305294 0.0987869 1.15138e-19)
(0.0559461 0.0801137 5.70114e-21)
(0.142295 0.0692307 -5.07331e-20)
(0.219474 0.0719873 -6.09041e-21)
(0.289286 0.0848731 9.37524e-20)
(0.357181 0.102186 3.41402e-19)
(0.429794 0.118604 0)
(0.494447 0.136229 1.72112e-19)
(-0.0502427 0.0523545 -2.17175e-20)
(-0.0442725 0.0651515 -4.80495e-20)
(0.0380702 0.0452881 -6.46182e-21)
(0.153044 0.018915 -1.3606e-19)
(0.257052 0.00519963 8.08834e-20)
(0.344262 0.00588274 2.45907e-19)
(0.42018 0.0147876 -4.39721e-20)
(0.493538 0.0249116 -5.00205e-19)
(0.572561 0.0298743 2.47466e-19)
(0.653644 0.0263455 8.08927e-20)
(-0.0288988 0.0291465 2.18774e-20)
(0.00270021 0.0277002 -1.0907e-19)
(0.12786 0.00013183 -1.08949e-19)
(0.269192 -0.0254237 -1.68537e-20)
(0.386898 -0.0335964 -2.6069e-20)
(0.480967 -0.0262516 -1.45409e-19)
(0.56054 -0.0107005 -6.63514e-20)
(0.636791 0.0055803 4.97705e-19)
(0.722142 0.0161876 -3.89417e-19)
(0.819978 0.00860827 -9.24989e-19)
(-0.00594448 0.00834862 1.94604e-20)
(0.0725534 -0.00994849 7.31758e-20)
(0.24296 -0.0404768 -1.25388e-20)
(0.406944 -0.0604292 1.29728e-21)
(0.536132 -0.0616437 -3.47697e-20)
(0.636715 -0.0482387 5.09004e-20)
(0.721168 -0.0276291 2.04763e-19)
(0.802861 -0.00704885 1.37879e-19)
(0.896027 0.00731276 -2.17794e-20)
(1.00558 0.00067659 -1.63894e-19)
(0.0175621 -0.00211492 -1.87516e-20)
(0.166675 -0.0389618 5.20268e-20)
(0.376555 -0.0662651 -1.21851e-20)
(0.558331 -0.0770449 9.49666e-21)
(0.695554 -0.0700059 1.15045e-20)
(0.800182 -0.050211 -2.39073e-20)
(0.887648 -0.0245618 -4.9706e-20)
(0.973038 0.000448969 -1.32702e-19)
(1.07265 0.0198106 2.92451e-19)
(1.19616 0.0177917 2.8088e-19)
(0.0610792 -0.0117676 4.4794e-22)
(0.279305 -0.0566836 1.4269e-19)
(0.521803 -0.075564 5.38736e-20)
(0.716334 -0.0760671 -3.81956e-20)
(0.857561 -0.0616237 -3.31747e-21)
(0.963155 -0.037512 -1.91148e-21)
(1.05155 -0.00976104 -4.44492e-20)
(1.13992 0.0163147 -1.07998e-19)
(1.2468 0.0368175 2.0992e-19)
(1.38606 0.0376407 1.84721e-19)
(0.114899 -0.0191836 -1.35227e-20)
(0.401319 -0.0614833 -1.91949e-19)
(0.670877 -0.0674634 8.06275e-21)
(0.871699 -0.0568549 1.60486e-19)
(1.01138 -0.0359492 -2.722e-21)
(1.11397 -0.00936201 -3.17343e-20)
(1.2011 0.0184141 -5.02572e-21)
(1.29251 0.0438805 -7.27383e-20)
(1.40973 0.0643989 -1.26645e-19)
(1.57165 0.0715651 -2.95582e-20)
(0.176212 -0.02042 1.95361e-20)
(0.527987 -0.0502579 7.7568e-20)
(0.816327 -0.0406649 -4.06557e-20)
(1.01525 -0.0201105 3.96665e-20)
(1.14742 0.00477186 -6.38503e-21)
(1.24367 0.0310713 -2.06896e-19)
(1.32901 0.0564398 1.90414e-20)
(1.42619 0.0795421 5.97435e-20)
(1.55922 0.0991631 -6.1694e-20)
(1.74506 0.112643 -9.81449e-20)
(0.242058 -0.0131605 8.24875e-20)
(0.651744 -0.0214049 9.44483e-20)
(0.94824 0.0041297 -2.33525e-19)
(1.13708 0.0317642 -7.40937e-20)
(1.2573 0.0575941 -1.4226e-20)
(1.34614 0.0816016 8.20484e-20)
(1.4314 0.104129 -1.27628e-19)
(1.53829 0.126014 -7.9172e-20)
(1.68982 0.147668 2.03363e-19)
(1.89211 0.16943 7.5152e-20)
(0.308369 0.00372376 7.37802e-20)
(0.763485 0.0240704 2.16357e-19)
(1.05688 0.0633429 -2.356e-19)
(1.22976 0.0938241 -7.39842e-20)
(1.33697 0.11744 4.80318e-20)
(1.42031 0.137811 -9.99468e-20)
(1.50905 0.157755 1.08051e-19)
(1.629 0.179824 4.65984e-20)
(1.79686 0.205143 -9.3156e-20)
(2.00361 0.233592 -5.47684e-20)
(-0.0107565 0.135524 -3.05935e-20)
(-0.0211801 0.201571 1.23957e-19)
(-0.0309216 0.216259 7.54513e-20)
(-0.0386696 0.21717 -8.97066e-20)
(-0.0449558 0.210173 -6.96915e-21)
(-0.0490239 0.196892 4.82457e-20)
(-0.0511086 0.178463 3.73558e-20)
(-0.0516726 0.154809 -8.16448e-20)
(-0.0506167 0.123733 3.93943e-22)
(-0.045936 0.0817266 2.75103e-20)
(-0.0229806 0.15088 4.50096e-20)
(-0.0386583 0.219738 -1.04732e-22)
(-0.0486534 0.233007 2.47881e-20)
(-0.0555982 0.231659 -1.30063e-19)
(-0.0605716 0.221172 -1.71406e-19)
(-0.0627372 0.204286 -6.19536e-20)
(-0.0626222 0.18275 1.10578e-19)
(-0.0606685 0.155797 0)
(-0.0565189 0.120195 -1.59612e-20)
(-0.0476392 0.0716502 6.22128e-20)
(-0.0372138 0.163792 -5.51679e-23)
(-0.0578898 0.234224 -1.76415e-19)
(-0.0671525 0.245979 -1.23262e-19)
(-0.0723321 0.243021 1.10477e-19)
(-0.0748764 0.229418 -7.94208e-20)
(-0.0739716 0.209351 -4.50289e-20)
(-0.0706413 0.185209 -6.39325e-20)
(-0.0651603 0.155505 -3.43789e-20)
(-0.0567429 0.116041 -1.29809e-19)
(-0.0423735 0.0618619 -2.11798e-19)
(-0.0527812 0.17331 3.78952e-20)
(-0.077891 0.24351 -1.97641e-21)
(-0.0855214 0.253616 1.5534e-20)
(-0.0883066 0.250008 8.01717e-20)
(-0.0873137 0.233675 -7.40343e-21)
(-0.082257 0.211012 7.54502e-20)
(-0.0748492 0.184936 -2.7186e-20)
(-0.0649581 0.153176 0)
(-0.0512013 0.110586 1.3004e-19)
(-0.0301915 0.0516009 2.27724e-21)
(-0.0684649 0.178398 -8.99636e-20)
(-0.0970141 0.246591 3.9146e-20)
(-0.102333 0.254936 1.6066e-19)
(-0.102739 0.251662 -8.61175e-21)
(-0.0969267 0.233196 2.68258e-20)
(-0.0869552 0.208882 9.61772e-20)
(-0.0750871 0.181895 -7.98737e-20)
(-0.0605207 0.149206 1.88156e-20)
(-0.0413434 0.104501 6.52283e-20)
(-0.0129746 0.0417487 1.01098e-19)
(-0.0823594 0.177971 -9.0968e-20)
(-0.112911 0.243381 -5.52387e-21)
(-0.115881 0.250933 -1.32573e-19)
(-0.11343 0.246992 -3.96991e-20)
(-0.100937 0.227546 1.38302e-19)
(-0.0852891 0.203084 1.46837e-20)
(-0.0685336 0.176679 5.5736e-20)
(-0.0493064 0.144751 -1.02722e-19)
(-0.0247196 0.100076 -1.50235e-20)
(0.0126454 0.0358144 1.75538e-19)
(-0.0915617 0.170062 3.96733e-20)
(-0.123857 0.233208 1.60608e-20)
(-0.123905 0.242623 3.6768e-20)
(-0.114636 0.235707 7.22644e-20)
(-0.0944771 0.216687 -1.09792e-19)
(-0.0725027 0.194165 -1.69232e-19)
(-0.0502846 0.170089 4.03067e-20)
(-0.0259544 0.140741 -1.72318e-19)
(0.00436579 0.0986179 5.08967e-20)
(0.0520547 0.0352303 7.05028e-20)
(-0.0944955 0.153677 1.20293e-21)
(-0.12743 0.214306 -8.99468e-21)
(-0.122352 0.22608 7.13126e-20)
(-0.101535 0.218231 -3.24729e-20)
(-0.0716283 0.201988 -1.71757e-19)
(-0.0417593 0.184507 1.53338e-20)
(-0.0124873 0.165549 4.95095e-20)
(0.0181727 0.140979 9.20247e-20)
(0.0547349 0.103741 2.82964e-19)
(0.114886 0.044319 -4.52416e-20)
(-0.0906138 0.129764 -7.58147e-21)
(-0.120768 0.184134 3.31944e-20)
(-0.107087 0.195476 -8.19698e-21)
(-0.0704427 0.188186 -1.16229e-19)
(-0.0271059 0.177329 -2.23501e-20)
(0.0141254 0.169447 1.51185e-19)
(0.0536957 0.16175 1.21705e-19)
(0.093348 0.147103 1.70923e-19)
(0.137692 0.118109 -2.18653e-21)
(0.210964 0.0684622 -2.7786e-19)
(-0.0820331 0.102797 2.04494e-20)
(-0.105537 0.145612 -1.08688e-20)
(-0.0786706 0.150703 -1.83661e-20)
(-0.0209854 0.140218 7.38614e-21)
(0.0408762 0.132282 9.90064e-21)
(0.097549 0.134296 2.95227e-19)
(0.149751 0.143282 -9.01033e-20)
(0.20069 0.150367 -2.60717e-19)
(0.255373 0.144283 -3.91964e-19)
(0.338479 0.12087 -2.48413e-19)
(0.00769461 -0.182447 -3.7615e-19)
(0.290456 -0.341089 -2.62805e-19)
(0.500403 -0.304566 -5.96406e-20)
(0.619199 -0.256388 -1.83874e-20)
(0.702356 -0.204397 4.06007e-20)
(0.750991 -0.158055 2.19029e-21)
(0.776436 -0.118076 -4.0053e-20)
(0.794022 -0.0832234 1.32603e-20)
(0.797602 -0.0541877 -8.13589e-21)
(0.799991 -0.0233016 -3.68744e-21)
(0.0346482 -0.233523 -2.99307e-19)
(0.293033 -0.414743 1.36844e-20)
(0.504484 -0.352083 -5.90172e-20)
(0.623151 -0.288225 -7.719e-22)
(0.707428 -0.223691 3.39463e-20)
(0.756259 -0.169482 -6.14942e-20)
(0.78173 -0.124363 2.46705e-20)
(0.798988 -0.0863225 2.53068e-22)
(0.803063 -0.0553857 -1.58378e-20)
(0.805436 -0.0234724 9.56604e-21)
(0.0736008 -0.277703 7.37712e-19)
(0.295246 -0.482465 3.01725e-19)
(0.506282 -0.400766 3.26018e-20)
(0.623626 -0.321283 2.40718e-20)
(0.709123 -0.244167 -5.24355e-20)
(0.758452 -0.181599 8.3043e-22)
(0.7844 -0.131072 1.03791e-20)
(0.801921 -0.0897253 -1.51857e-20)
(0.806931 -0.0568605 -2.94083e-22)
(0.810011 -0.0237617 -9.27408e-22)
(0.122675 -0.31338 5.79182e-19)
(0.302196 -0.540865 -7.16755e-21)
(0.509642 -0.4506 9.74356e-21)
(0.623941 -0.355396 -1.90296e-20)
(0.709642 -0.265894 1.54553e-20)
(0.759228 -0.194388 1.25464e-20)
(0.785789 -0.1383 -2.1112e-20)
(0.804092 -0.0935267 0)
(0.810181 -0.0587453 0)
(0.814642 -0.0242241 1.80885e-23)
(0.181104 -0.339156 -1.96156e-19)
(0.327476 -0.587919 -3.59174e-19)
(0.525968 -0.499024 -6.34774e-21)
(0.632905 -0.389734 1.6575e-20)
(0.715254 -0.288271 9.42148e-21)
(0.763165 -0.207773 5.86912e-20)
(0.789349 -0.146095 7.76269e-22)
(0.808355 -0.0978001 -9.37253e-21)
(0.815215 -0.061135 -2.71395e-20)
(0.821533 -0.0249046 -1.58605e-21)
(0.254241 -0.358418 -2.72542e-19)
(0.39176 -0.627459 -1.68021e-19)
(0.576566 -0.54511 -2.33045e-19)
(0.667942 -0.422862 4.14894e-21)
(0.739053 -0.310344 -3.72393e-20)
(0.780069 -0.221372 3.29391e-20)
(0.802541 -0.15433 1.17915e-20)
(0.820636 -0.102545 -4.24267e-20)
(0.827165 -0.0641161 4.34423e-22)
(0.835414 -0.0258994 -1.41244e-20)
(0.349309 -0.376185 1.06327e-19)
(0.513642 -0.666532 2.16536e-20)
(0.682263 -0.589104 1.33271e-19)
(0.750382 -0.453354 -3.89256e-20)
(0.79996 -0.330283 -3.69991e-21)
(0.826083 -0.233768 -4.29211e-20)
(0.838867 -0.162101 -7.35909e-22)
(0.852159 -0.107328 1.08365e-20)
(0.856011 -0.0675664 1.19736e-20)
(0.865339 -0.0272995 6.96965e-21)
(0.487368 -0.394548 2.86577e-19)
(0.700663 -0.705754 1.43249e-18)
(0.848281 -0.63099 2.29177e-19)
(0.890719 -0.480898 1.65707e-20)
(0.913 -0.347302 2.21642e-20)
(0.917845 -0.243948 4.08834e-20)
(0.914807 -0.168515 -4.11019e-20)
(0.918278 -0.11154 3.27981e-20)
(0.915882 -0.0710369 -3.5083e-22)
(0.923868 -0.0290605 -2.70868e-21)
(0.681706 -0.41104 7.56417e-19)
(0.942787 -0.744818 4.84756e-19)
(1.05653 -0.671019 -4.83255e-19)
(1.07373 -0.504856 1.39897e-19)
(1.07235 -0.35933 -1.0372e-20)
(1.05793 -0.249325 1.1989e-21)
(1.03865 -0.171117 1.43742e-20)
(1.03064 -0.113097 -5.78901e-22)
(1.01998 -0.0729544 -6.85367e-21)
(1.0243 -0.0308148 -4.33163e-21)
(0.924537 -0.402705 1.1222e-19)
(1.19678 -0.762565 -1.0484e-18)
(1.28052 -0.700552 -4.12224e-19)
(1.27036 -0.527006 1.33239e-19)
(1.2445 -0.371882 -3.413e-20)
(1.21321 -0.255769 5.04313e-21)
(1.18084 -0.174492 -5.51684e-21)
(1.16348 -0.114797 1.13656e-21)
(1.14782 -0.0745896 -1.31248e-21)
(1.14806 -0.0322292 -1.02435e-21)
(1.35427 -0.522698 -3.04714e-19)
(1.51281 -0.755256 -1.50976e-19)
(1.57989 -0.690997 -3.95845e-20)
(1.55189 -0.517682 -1.05475e-19)
(1.49712 -0.358276 6.04684e-20)
(1.44218 -0.242298 8.37837e-21)
(1.39096 -0.163716 1.66981e-20)
(1.35958 -0.10793 1.08137e-20)
(1.33395 -0.0714289 -2.24565e-20)
(1.3251 -0.0323921 2.72098e-21)
(1.72827 -0.761533 -3.53456e-19)
(1.76451 -0.915505 -9.06897e-20)
(1.77133 -0.761645 5.10714e-20)
(1.73239 -0.530784 -2.16612e-20)
(1.67812 -0.348134 1.41453e-19)
(1.62383 -0.228156 1.22905e-19)
(1.57074 -0.150403 9.0264e-20)
(1.53541 -0.0981532 -1.06134e-20)
(1.5103 -0.0650012 4.12001e-20)
(1.49542 -0.0295601 1.09265e-20)
(2.49769 -0.696905 -1.26225e-19)
(2.29813 -0.759374 -6.20327e-20)
(2.11121 -0.659965 6.1825e-20)
(1.9653 -0.467212 1.3253e-35)
(1.85953 -0.302561 -1.44047e-20)
(1.78263 -0.193783 -4.06473e-34)
(1.71776 -0.125583 3.47275e-21)
(1.67601 -0.0824226 -6.2048e-35)
(1.64353 -0.0557743 2.79875e-22)
(1.62598 -0.0266292 -2.12401e-21)
(2.79281 -0.691626 -2.31851e-19)
(2.49423 -0.764212 1.75573e-19)
(2.2846 -0.649071 -3.22813e-20)
(2.09689 -0.443531 0)
(1.95553 -0.275809 -9.8685e-20)
(1.86076 -0.170706 -7.66718e-20)
(1.78834 -0.107758 -5.63805e-20)
(1.74217 -0.069099 2.88318e-34)
(1.70751 -0.0465225 -1.88912e-20)
(1.6904 -0.022633 1.39168e-21)
(2.9916 -0.559966 -2.03116e-19)
(2.69499 -0.600995 2.08258e-20)
(2.43359 -0.522557 0)
(2.19156 -0.355081 0)
(2.0112 -0.214307 0)
(1.89654 -0.129239 0)
(1.81549 -0.080277 1.65381e-21)
(1.76401 -0.0511341 3.56836e-34)
(1.72536 -0.0349554 -2.42793e-22)
(1.70297 -0.019103 1.33988e-34)
(3.02541 -0.469374 1.21876e-19)
(2.74555 -0.528794 0)
(2.47292 -0.443166 0)
(2.20713 -0.284279 0)
(2.00623 -0.160501 0)
(1.88225 -0.0929319 0)
(1.79962 -0.0568715 -3.93349e-21)
(1.74901 -0.0358408 3.93935e-20)
(1.71238 -0.0256693 -4.88848e-22)
(1.69277 -0.0157251 1.02817e-20)
(3.01202 -0.381138 0)
(2.70897 -0.415448 4.95202e-20)
(2.38729 -0.32557 -4.71895e-20)
(2.102 -0.193593 0)
(1.90329 -0.0984753 -7.24293e-20)
(1.78777 -0.0528555 -4.9851e-20)
(1.71451 -0.0314473 -3.78819e-20)
(1.66988 -0.0188609 -2.16667e-20)
(1.64003 -0.014575 2.46068e-20)
(1.61836 -0.0107361 -5.4698e-21)
(2.84801 -0.291636 -6.11817e-20)
(2.4499 -0.294037 2.10294e-20)
(2.07394 -0.203812 -1.8892e-20)
(1.79449 -0.106044 4.41335e-38)
(1.62667 -0.0436757 1.28246e-20)
(1.53735 -0.0193881 -3.0186e-34)
(1.48322 -0.0105844 -5.4511e-21)
(1.45008 -0.00582305 -9.99741e-21)
(1.42967 -0.00562988 -9.03949e-22)
(1.40857 -0.00615898 1.59629e-21)
(2.17338 -0.16515 0)
(1.72633 -0.110882 1.56427e-20)
(1.39761 -0.0576974 3.37396e-20)
(1.19416 -0.0222729 0)
(1.09729 -0.000442727 2.60808e-20)
(1.05579 0.00396437 1.77332e-20)
(1.03352 0.00317853 5.38897e-21)
(1.02061 0.00223629 6.82861e-21)
(1.01476 0.000260048 -8.75315e-21)
(0.999941 -0.00197696 -4.45384e-22)
(0.693721 -0.0402552 -1.91608e-20)
(0.514108 -0.00898345 0)
(0.418717 -0.00458856 0)
(0.362139 -0.000708011 0)
(0.355557 0.00312946 0)
(0.364455 0.0029235 0)
(0.373496 0.00209717 -6.03193e-21)
(0.38035 0.00141881 1.85623e-35)
(0.385019 0.000825951 -1.12971e-21)
(0.382136 -0.000169297 -2.02128e-21)
(2.41551 0.290697 3.50819e-19)
(2.35084 0.223108 1.89716e-19)
(2.25335 0.153927 2.04887e-19)
(2.09114 0.0976587 -2.61283e-19)
(1.91416 0.0329115 1.33591e-19)
(1.67094 -0.0155239 2.34096e-20)
(1.47069 -0.0827176 -1.45088e-20)
(1.18086 -0.0828606 1.67553e-20)
(1.07624 -0.168046 -3.56199e-19)
(0.720786 0.0136174 -2.04143e-19)
(2.77792 0.264942 -2.62781e-19)
(2.79151 0.204504 4.53439e-20)
(2.8054 0.127005 2.84244e-19)
(2.74142 0.0765853 2.29795e-19)
(2.69532 -0.0277513 -3.58356e-19)
(2.5217 -0.0637632 1.51074e-19)
(2.42287 -0.206574 -9.21992e-20)
(2.10641 -0.204475 -2.18123e-20)
(2.02207 -0.380528 2.79209e-20)
(1.53636 -0.323111 1.07041e-19)
(2.98269 0.203747 3.82817e-20)
(3.01328 0.133842 -2.19382e-19)
(3.08282 0.0655211 -3.1435e-19)
(3.06322 0.00652622 7.61386e-19)
(3.12157 -0.0799811 -4.28239e-20)
(2.9987 -0.14446 7.40201e-20)
(3.04194 -0.254133 -2.68208e-19)
(2.77743 -0.320566 -2.70687e-19)
(2.8004 -0.423295 -1.31013e-19)
(2.38565 -0.512147 -7.6405e-20)
(3.07317 0.158361 8.70821e-20)
(3.10181 0.0768863 -3.25448e-19)
(3.16439 0.00401882 1.27421e-19)
(3.17592 -0.0609661 -2.97914e-19)
(3.24193 -0.129992 3.61316e-19)
(3.19783 -0.195986 -2.19301e-19)
(3.23555 -0.271553 3.09312e-20)
(3.1179 -0.359942 -5.05602e-20)
(3.12902 -0.424602 5.25294e-20)
(2.93082 -0.541355 2.22148e-19)
(3.13656 0.114918 1.10998e-19)
(3.15556 0.0312448 -4.18909e-19)
(3.20229 -0.0383143 2.07452e-20)
(3.20654 -0.107781 -1.45459e-19)
(3.25999 -0.160834 -5.48593e-20)
(3.23931 -0.219872 -2.12542e-21)
(3.28128 -0.267226 2.56211e-19)
(3.22352 -0.353905 -5.36032e-20)
(3.22572 -0.385774 -1.21747e-19)
(3.13477 -0.503011 -1.84434e-19)
(3.15876 0.0912529 2.24504e-19)
(3.17679 0.00931717 6.51008e-20)
(3.21365 -0.0573552 -2.71298e-19)
(3.21331 -0.122254 1.12859e-19)
(3.24752 -0.171796 1.92239e-19)
(3.22942 -0.218524 6.16539e-20)
(3.24996 -0.260753 3.26673e-20)
(3.21862 -0.320246 -1.87905e-19)
(3.20749 -0.344045 -2.62921e-20)
(3.16643 -0.420881 -8.62649e-20)
(3.11756 0.0563941 -1.53412e-20)
(3.1418 -0.0168707 1.22527e-19)
(3.17504 -0.0726506 -1.09691e-19)
(3.17532 -0.12719 -4.76135e-21)
(3.19942 -0.170093 2.17671e-19)
(3.18135 -0.199622 -6.63491e-20)
(3.18936 -0.239506 5.76048e-20)
(3.1662 -0.267713 1.28564e-19)
(3.14984 -0.292402 9.43425e-20)
(3.12306 -0.332258 1.01277e-19)
(2.92118 0.0270797 -3.76828e-21)
(2.958 -0.0355752 -1.75598e-21)
(2.97796 -0.0714613 -9.06179e-20)
(2.99438 -0.119946 -7.15723e-20)
(2.99157 -0.143398 -4.08123e-20)
(2.99798 -0.161294 -2.05892e-20)
(2.98182 -0.197085 2.80139e-20)
(2.98816 -0.197826 6.69041e-21)
(2.95406 -0.224683 4.71754e-20)
(2.9663 -0.240336 6.93568e-20)
(2.35904 -0.0313479 7.44222e-20)
(2.37605 -0.0568885 -2.66053e-20)
(2.3699 -0.0700006 -2.29375e-20)
(2.37568 -0.0892933 3.53346e-20)
(2.34129 -0.0876875 -6.88185e-21)
(2.36676 -0.109118 2.22383e-20)
(2.30663 -0.103683 -8.47115e-20)
(2.35988 -0.115018 -1.03347e-20)
(2.28523 -0.126561 2.47607e-20)
(2.34923 -0.127232 -2.29735e-20)
(1.08256 -0.0155621 0)
(1.06193 -0.0162969 2.91177e-21)
(1.03776 -0.0175199 -4.636e-20)
(1.01052 -0.018996 -6.62993e-20)
(0.985625 -0.0220378 3.26067e-20)
(0.962038 -0.0231117 8.773e-20)
(0.937673 -0.0252562 -6.89682e-21)
(0.928487 -0.0278621 4.35967e-20)
(0.889535 -0.0230191 2.05149e-20)
(0.916293 -0.041066 -3.40847e-21)
(1.0785 0.745358 -6.41427e-20)
(0.919908 0.686771 -1.33199e-19)
(0.839751 0.663367 -4.15689e-19)
(0.795842 0.651407 -1.16745e-20)
(0.766523 0.642893 4.33251e-19)
(0.742212 0.634915 -3.9414e-20)
(0.715725 0.621955 -9.44994e-20)
(0.675883 0.598097 -1.54861e-20)
(0.584653 0.529836 -1.8246e-19)
(0.332139 0.307824 -1.22481e-20)
(1.42094 0.744448 -3.57443e-19)
(1.20997 0.673084 8.62804e-19)
(1.03986 0.62265 3.62392e-19)
(0.930356 0.596102 -2.09109e-19)
(0.867274 0.584595 9.06629e-20)
(0.82607 0.580047 4.03004e-20)
(0.789398 0.573004 1.36716e-19)
(0.741499 0.554108 -3.22456e-19)
(0.640314 0.493426 -5.9609e-20)
(0.36251 0.285848 -1.05324e-21)
(1.69666 0.727631 1.16652e-19)
(1.488 0.658529 6.48275e-19)
(1.27763 0.593982 7.9e-21)
(1.11468 0.551012 -1.50175e-19)
(1.01016 0.530464 1.25797e-19)
(0.943373 0.524924 1.18083e-19)
(0.889734 0.522823 -4.91135e-20)
(0.826526 0.509855 -1.74095e-19)
(0.70571 0.456644 1.9835e-19)
(0.395213 0.263481 -1.52982e-19)
(1.87412 0.691867 -3.94349e-19)
(1.67893 0.62533 2.79328e-19)
(1.46263 0.555667 -3.89443e-19)
(1.27841 0.505361 -1.01493e-19)
(1.15032 0.480593 3.68878e-19)
(1.0657 0.475084 -2.22197e-19)
(0.998906 0.476453 -2.67787e-19)
(0.921478 0.468203 1.71662e-19)
(0.778672 0.420315 -1.14592e-19)
(0.428815 0.240053 -1.26041e-20)
(1.98793 0.640494 4.9626e-19)
(1.80234 0.576005 3.38321e-19)
(1.59178 0.509011 -1.07201e-19)
(1.40586 0.460137 3.50171e-19)
(1.27105 0.436226 -1.36696e-20)
(1.17878 0.431626 -1.57534e-19)
(1.10404 0.434109 8.05172e-20)
(1.01489 0.427225 -1.9963e-19)
(0.849938 0.381112 -2.26347e-19)
(0.458298 0.21331 -4.82608e-20)
(2.06082 0.579199 6.53677e-19)
(1.87839 0.519283 6.57666e-19)
(1.67614 0.459995 -5.05031e-19)
(1.49765 0.417063 -3.72819e-19)
(1.36641 0.396076 3.9752e-20)
(1.27389 0.391582 -2.62096e-19)
(1.19502 0.392199 2.72188e-21)
(1.09564 0.38301 -4.57807e-20)
(0.908054 0.334949 9.15312e-20)
(0.476398 0.180858 3.8049e-20)
(2.10496 0.513235 5.732e-19)
(1.9213 0.459845 -6.27099e-19)
(1.72601 0.409448 -4.50923e-19)
(1.55762 0.373053 1.96584e-19)
(1.4345 0.354628 -2.037e-19)
(1.34524 0.348572 4.77379e-19)
(1.26391 0.344783 -6.50185e-21)
(1.15419 0.330913 -3.97478e-19)
(0.9427 0.280042 1.67687e-19)
(0.477472 0.143658 4.89602e-20)
(2.12014 0.445281 -3.64399e-19)
(1.93341 0.399581 -4.2209e-19)
(1.74423 0.357019 -4.07927e-19)
(1.58709 0.325448 4.27763e-20)
(1.47372 0.307948 1.76056e-19)
(1.38856 0.2988 1.42253e-19)
(1.3046 0.289798 6.19534e-20)
(1.18276 0.270403 4.99674e-20)
(0.94651 0.216868 3.87858e-20)
(0.459136 0.103564 6.07446e-20)
(2.11148 0.374564 1.47845e-19)
(1.918 0.334835 -7.73388e-20)
(1.73383 0.298889 2.08869e-19)
(1.58817 0.271817 5.47678e-19)
(1.48426 0.254497 -1.18331e-19)
(1.40214 0.241803 -4.54736e-19)
(1.31368 0.227535 3.63117e-19)
(1.17687 0.202614 4.09825e-19)
(0.916739 0.149142 -2.41682e-19)
(0.422203 0.0643815 -6.54143e-20)
(2.0738 0.304384 -2.80587e-19)
(1.8728 0.269598 -2.71403e-21)
(1.69491 0.239008 3.02531e-19)
(1.56164 0.214916 2.26987e-19)
(1.46634 0.196605 1.54913e-19)
(1.38518 0.180079 -2.76839e-19)
(1.2891 0.160693 1.07617e-19)
(1.13469 0.131518 -2.69418e-19)
(0.854396 0.0826764 -3.03747e-19)
(0.370291 0.0300728 1.75376e-20)
(0.264371 0.353865 -2.61541e-20)
(0.238366 0.341377 2.25203e-19)
(0.212053 0.330256 2.8732e-20)
(0.185729 0.322198 -1.48452e-19)
(0.159068 0.317511 -4.23546e-20)
(0.131494 0.314685 -9.73271e-20)
(0.102469 0.309668 4.99011e-20)
(0.0717497 0.294654 -3.77609e-20)
(0.0398009 0.254449 8.72853e-20)
(0.0161183 0.147047 2.00914e-20)
(0.307047 0.422629 -7.50222e-20)
(0.279154 0.407364 -2.4832e-20)
(0.251045 0.394095 -1.48185e-19)
(0.223353 0.384815 1.35868e-20)
(0.195692 0.379849 1.94459e-20)
(0.167237 0.377424 3.68027e-20)
(0.137076 0.372851 1.68952e-19)
(0.104422 0.357132 -5.7303e-20)
(0.0677715 0.311831 6.18681e-20)
(0.0318291 0.182241 -1.61599e-20)
(0.360542 0.48847 7.18155e-20)
(0.330237 0.470605 1.83971e-19)
(0.300024 0.45528 1.0235e-19)
(0.270792 0.44482 1.5076e-19)
(0.242062 0.43961 3.86664e-20)
(0.212754 0.437639 1.70497e-19)
(0.181535 0.433607 -5.07676e-20)
(0.146886 0.417382 -5.0094e-20)
(0.104838 0.367419 -7.25183e-23)
(0.0531294 0.216364 1.02494e-20)
(0.423972 0.548028 4.79698e-19)
(0.390396 0.527401 3.42396e-19)
(0.357426 0.510251 -3.55268e-19)
(0.326366 0.499052 -1.47954e-19)
(0.296577 0.494035 5.20215e-21)
(0.266635 0.492844 -7.60774e-20)
(0.234666 0.489557 -2.08052e-19)
(0.198184 0.473046 5.80717e-20)
(0.15029 0.41899 -3.93515e-20)
(0.07966 0.248024 -7.85855e-20)
(0.500988 0.606979 -1.55178e-19)
(0.463576 0.584521 -3.11813e-19)
(0.427552 0.564948 2.51955e-19)
(0.394137 0.551802 -8.21311e-20)
(0.362636 0.545743 -1.27703e-19)
(0.331445 0.54429 1.2053e-19)
(0.298234 0.540997 4.9586e-20)
(0.259411 0.52385 -1.12498e-19)
(0.204693 0.465896 -1.63113e-19)
(0.11143 0.276626 5.33486e-20)
(0.565642 0.646732 -2.71928e-20)
(0.52565 0.621034 -2.35594e-20)
(0.488161 0.601011 -1.30199e-20)
(0.454929 0.588973 5.60533e-20)
(0.424643 0.584532 1.84677e-19)
(0.394986 0.584574 -1.34725e-19)
(0.36288 0.582115 -8.6823e-20)
(0.323505 0.564745 3.52314e-21)
(0.263043 0.503825 -1.18805e-21)
(0.146174 0.299559 1.09952e-19)
(0.68775 0.697924 -2.40438e-19)
(0.638331 0.671272 1.07059e-19)
(0.592106 0.64665 3.00001e-19)
(0.551299 0.630276 -1.3653e-19)
(0.514996 0.622958 -3.06829e-19)
(0.480815 0.62117 1.80287e-19)
(0.445126 0.617391 3.57615e-19)
(0.401524 0.598734 1.36844e-19)
(0.33191 0.534645 5.51182e-20)
(0.185924 0.317839 1.79285e-19)
(0.706128 0.718853 -4.40797e-19)
(0.659853 0.688391 -1.24632e-19)
(0.622255 0.666015 2.23833e-19)
(0.591777 0.652495 -1.175e-19)
(0.564957 0.646418 3.77644e-20)
(0.53839 0.644732 2.50694e-19)
(0.508257 0.640234 -1.7906e-19)
(0.467361 0.620299 -1.99035e-19)
(0.394012 0.553489 1.00376e-19)
(0.223295 0.327723 -4.53889e-20)
(0.897582 0.742105 -2.034e-20)
(0.829552 0.708778 5.0118e-20)
(0.763689 0.676542 -1.84057e-19)
(0.711 0.658215 -3.4298e-20)
(0.670071 0.652926 3.04883e-19)
(0.634505 0.652374 5.38261e-20)
(0.597409 0.646767 -2.36702e-20)
(0.549811 0.62502 0)
(0.465384 0.557029 -1.06568e-19)
(0.263799 0.329137 -7.58628e-20)
(0.840057 0.771072 0)
(0.806638 0.743225 0)
(0.778989 0.716696 4.57236e-19)
(0.749687 0.69449 5.35177e-20)
(0.721891 0.678905 -4.94981e-20)
(0.695063 0.667046 1.687e-19)
(0.66465 0.653465 -1.82936e-20)
(0.620148 0.627152 -2.27474e-19)
(0.529874 0.55445 1.66005e-19)
(0.300641 0.324515 1.11208e-19)
(0.853223 0.217009 -1.1519e-20)
(1.03789 0.326513 -4.41108e-21)
(0.858982 0.246167 7.65061e-21)
(0.882701 0.193767 3.11119e-21)
(0.859745 0.184624 1.35828e-20)
(0.840516 0.190773 2.74856e-20)
(0.804221 0.216227 -1.60838e-20)
(0.751951 0.256624 -3.60322e-20)
(0.661804 0.326857 -8.64802e-20)
(0.39168 0.407391 1.66213e-19)
(0.852839 0.224566 -2.82704e-21)
(1.03712 0.340757 9.55171e-21)
(0.8549 0.256117 -1.72343e-22)
(0.880221 0.199177 1.88973e-20)
(0.856809 0.189373 1.04411e-20)
(0.84261 0.197465 -3.55069e-20)
(0.812324 0.22971 -1.32052e-20)
(0.76737 0.278535 -3.49671e-22)
(0.68772 0.377382 2.51271e-19)
(0.43702 0.483184 -1.05969e-20)
(0.852192 0.23242 9.30309e-21)
(1.03586 0.355487 1.98393e-20)
(0.848664 0.265716 -1.90574e-20)
(0.874686 0.204442 -3.20717e-21)
(0.851289 0.193343 -1.29788e-20)
(0.84122 0.203271 4.36583e-21)
(0.816814 0.241792 1.99052e-20)
(0.781111 0.299881 -2.04618e-20)
(0.713621 0.42439 1.0202e-19)
(0.494043 0.555403 -4.46098e-19)
(0.8516 0.240632 3.99689e-21)
(1.03454 0.370882 -3.84537e-21)
(0.839882 0.275254 -1.88998e-20)
(0.865831 0.209233 -4.62966e-20)
(0.844587 0.196589 2.3217e-20)
(0.837725 0.208414 1.35589e-20)
(0.817978 0.252242 -2.28279e-20)
(0.792816 0.320722 9.46138e-20)
(0.740865 0.468002 -9.39955e-20)
(0.561909 0.623174 -4.11653e-19)
(0.851749 0.249185 4.59145e-21)
(1.03364 0.387374 -2.76009e-20)
(0.828229 0.285103 1.30508e-20)
(0.855487 0.212758 7.89485e-20)
(0.839344 0.198935 7.49019e-21)
(0.833759 0.213263 3.27426e-20)
(0.816564 0.261371 2.99644e-20)
(0.801594 0.340276 6.23605e-20)
(0.767938 0.501387 -3.49071e-20)
(0.649435 0.681912 3.2553e-19)
(0.853403 0.257691 6.42204e-21)
(1.03357 0.405573 7.83887e-22)
(0.816573 0.295554 -1.71786e-20)
(0.849653 0.215346 1.62273e-20)
(0.836964 0.200489 -3.01621e-20)
(0.830769 0.2181 1.98912e-21)
(0.815077 0.269897 -1.08243e-20)
(0.80859 0.359624 -1.82891e-19)
(0.796421 0.538263 0)
(0.7061 0.740181 -3.41784e-20)
(0.855593 0.265851 -9.28029e-21)
(1.03644 0.424735 2.17435e-20)
(0.81503 0.306074 1.14916e-21)
(0.855146 0.215923 -5.51087e-20)
(0.83797 0.201649 -1.5793e-20)
(0.83173 0.223745 -4.34466e-20)
(0.81923 0.278062 2.13861e-21)
(0.822815 0.376187 8.54624e-21)
(0.82619 0.548591 -7.38683e-21)
(0.866438 0.773645 1.02935e-18)
(0.859686 0.273175 -9.71207e-20)
(1.047 0.442153 3.8187e-20)
(0.831949 0.315299 5.02554e-20)
(0.870641 0.214942 3.5835e-20)
(0.854177 0.204879 -7.44029e-20)
(0.849479 0.231533 8.55232e-21)
(0.838755 0.28935 -4.18781e-21)
(0.840463 0.399006 1.06432e-20)
(0.878393 0.582676 1.59028e-19)
(0.864392 0.836599 -1.34744e-19)
(0.863079 0.277501 3.11873e-20)
(1.07075 0.457127 -2.93755e-20)
(0.872145 0.320758 -1.5993e-20)
(0.917246 0.21588 6.86091e-20)
(0.914632 0.207321 5.18249e-21)
(0.912069 0.23658 1.48902e-20)
(0.902418 0.295208 -2.84996e-20)
(0.912266 0.405939 5.65941e-20)
(0.942437 0.576945 2.83619e-19)
(1.06221 0.830785 -7.28467e-19)
(0.867687 0.279388 6.32198e-20)
(1.11546 0.466825 -5.39821e-20)
(0.941992 0.319817 -3.76741e-23)
(1.00259 0.213475 -4.7959e-21)
(1.00738 0.209277 5.53699e-20)
(1.00338 0.247135 -1.36482e-20)
(0.992775 0.314069 -6.0378e-21)
(0.992533 0.445793 6.46917e-20)
(1.06142 0.607837 -5.2425e-21)
(1.13721 0.917108 4.64264e-19)
(0.864516 0.270044 -1.40327e-20)
(1.20598 0.471194 -6.14666e-21)
(1.07749 0.317108 -1.21532e-20)
(1.14532 0.210033 -1.64514e-20)
(1.16763 0.205969 -4.07025e-20)
(1.179 0.246412 -3.32921e-20)
(1.16838 0.311645 1.44979e-21)
(1.20878 0.428499 -1.43144e-19)
(1.22387 0.598843 -3.848e-19)
(1.15986 0.875261 -3.69013e-20)
(0.85163 0.230296 -2.84156e-20)
(1.31836 0.439948 -2.77426e-20)
(1.24599 0.299763 1.24833e-20)
(1.31926 0.20132 -3.05406e-20)
(1.36007 0.19847 5.06151e-20)
(1.38662 0.243749 8.46851e-20)
(1.42347 0.303007 1.59749e-20)
(1.41318 0.444994 1.36525e-19)
(1.64534 0.571535 7.35243e-20)
(1.4139 0.787612 5.03533e-19)
(0.829619 0.174081 -1.42526e-20)
(1.39508 0.379502 -1.23497e-20)
(1.37684 0.269018 -2.02964e-22)
(1.46873 0.186106 1.27479e-20)
(1.52575 0.183941 1.69743e-34)
(1.57365 0.222831 -6.24277e-21)
(1.63522 0.292705 -6.38034e-34)
(1.63575 0.381809 2.11717e-20)
(1.97183 0.557321 -8.23232e-20)
(1.70584 0.716001 -3.86186e-19)
(0.810169 0.114602 3.80101e-20)
(1.42622 0.293046 -1.04607e-34)
(1.449 0.222486 -5.3507e-22)
(1.55998 0.164462 7.03224e-21)
(1.62929 0.165558 -2.98057e-20)
(1.69162 0.200887 -5.04546e-20)
(1.77915 0.272349 -7.81736e-34)
(1.7885 0.335832 -1.08413e-19)
(2.17623 0.506347 -1.2823e-19)
(1.99343 0.649333 4.19552e-19)
(0.797524 0.0556135 0)
(1.42419 0.196051 -1.99465e-34)
(1.47727 0.166193 0)
(1.60583 0.137559 0)
(1.68196 0.14187 0)
(1.7572 0.168411 0)
(1.85146 0.243565 -5.15027e-34)
(1.9013 0.270575 0)
(2.25382 0.432675 -2.58229e-20)
(2.20102 0.601549 2.47056e-19)
(0.793252 0.00109955 1.42905e-20)
(1.40558 0.0954759 -1.95251e-21)
(1.47125 0.101365 -1.98955e-21)
(1.61153 0.106729 0)
(1.69117 0.116108 0)
(1.77623 0.136969 6.41711e-21)
(1.86474 0.206388 4.25531e-20)
(1.98201 0.211761 -1.46101e-20)
(2.2304 0.352126 -3.46489e-20)
(2.33877 0.524077 2.12715e-19)
(0.796494 -0.0489702 -1.58512e-20)
(1.36814 -0.00275444 -5.13742e-21)
(1.41489 0.0350014 -2.59399e-21)
(1.55865 0.0737529 -2.35737e-20)
(1.63912 0.0866388 -1.31888e-20)
(1.73372 0.103937 -1.17145e-20)
(1.81336 0.158946 -3.40467e-20)
(1.99323 0.159879 -3.58128e-20)
(2.1285 0.266102 -8.23142e-20)
(2.40683 0.418096 5.06034e-20)
(0.801561 -0.0865582 -2.00229e-20)
(1.28514 -0.0775313 -2.62646e-20)
(1.2551 -0.0205466 -3.41598e-21)
(1.38782 0.0425799 -1.01629e-20)
(1.45861 0.0545971 7.9073e-35)
(1.55736 0.0684494 7.5475e-21)
(1.62859 0.103059 -1.13496e-33)
(1.85559 0.111226 -1.55601e-20)
(1.90177 0.177414 1.83485e-20)
(2.3358 0.282774 3.16704e-20)
(0.796974 -0.118034 1.27551e-19)
(1.10658 -0.121496 -1.48846e-20)
(0.905715 -0.0530288 -4.55951e-21)
(1.01652 0.0192861 1.62392e-20)
(1.0667 0.0239828 -1.48391e-22)
(1.1507 0.0332244 1.39119e-20)
(1.22217 0.0470091 1.27841e-20)
(1.42357 0.0552844 -1.28804e-20)
(1.46567 0.0867707 -7.76635e-21)
(1.92336 0.134715 1.27278e-19)
(0.720165 -0.0593657 1.69171e-20)
(0.715558 -0.0555152 -1.1236e-34)
(0.338378 -0.0225331 -5.98446e-21)
(0.437029 0.00706131 0)
(0.450223 0.00527158 0)
(0.498088 0.00801651 8.23945e-21)
(0.549904 0.0105429 -1.0768e-35)
(0.655889 0.0155461 -1.58472e-20)
(0.710565 0.0201788 -2.44919e-20)
(0.983884 0.0376956 -4.99151e-20)
(1.61694 0.861097 2.15672e-19)
(1.83986 0.841687 -1.02531e-19)
(2.02303 0.803576 -1.61441e-21)
(2.14919 0.755894 8.94478e-20)