/*--------------------------------*- C++ -*----------------------------------*\
| =========                 |                                                 |
| \\      /  F ield         | OpenFOAM: The Open Source CFD Toolbox           |
|  \\    /   O peration     | Version:  2406                                  |
|   \\  /    A nd           | Website:  www.openfoam.com                      |
|    \\/     M anipulation  |                                                 |
\*---------------------------------------------------------------------------*/
FoamFile
{
    version     2.0;
    format      ascii;
    arch        "LSB;label=32;scalar=64";
    class       volScalarField;
    location    "1.55";
    object      nu;
}
// * * * * * * * * * * * * * * * * * * * * * * * * * * * * * * * * * * * * * //

dimensions      [0 2 -1 0 0 0 0];

internalField   nonuniform List<scalar> 
1800
(
0.0235905
0.0235292
0.0334866
0.0853092
0.0192689
0.0125282
0.0105039
0.00943009
0.00910504
0.00847826
0.021877
0.0346284
0.0447659
0.0211441
0.0126391
0.010106
0.00906076
0.00838668
0.00835841
0.00757132
0.0211362
0.0654767
0.0177458
0.0112246
0.00924933
0.00841184
0.00801559
0.00774667
0.00789004
0.0075009
0.0228518
0.0178258
0.0107247
0.00869005
0.00792202
0.0075992
0.00750523
0.00752784
0.00779057
0.00782526
0.0366813
0.0112719
0.00848357
0.0076121
0.00729418
0.0072541
0.00739792
0.00769078
0.00820096
0.00868667
0.0148196
0.00877134
0.00745342
0.00706571
0.00704383
0.00726635
0.00771134
0.00840852
0.0094529
0.0108651
0.00994076
0.00755147
0.00691195
0.00684397
0.00710604
0.00767281
0.0086073
0.010021
0.0120921
0.014422
0.00800899
0.00690141
0.00665828
0.00688234
0.00749687
0.00858727
0.0103148
0.0128257
0.0162749
0.021045
0.00704741
0.00654928
0.00661095
0.00715617
0.00825419
0.0101565
0.0132405
0.0183419
0.0287151
0.0501086
0.00650599
0.00637736
0.00671768
0.00764603
0.00948662
0.0131185
0.0210437
0.0408917
0.0730707
0.0364587
0.00827403
0.0092668
0.0111033
0.0135858
0.0159519
0.0177948
0.0194253
0.0211859
0.0228149
0.0236401
0.00818905
0.00903415
0.0107937
0.0134622
0.0163829
0.0188229
0.0208296
0.022711
0.0243194
0.0254777
0.00828202
0.00885801
0.010334
0.0128502
0.0161715
0.0196717
0.0229879
0.0261639
0.0290376
0.0300999
0.00862815
0.00877636
0.00980659
0.0117858
0.0146333
0.0179489
0.0211446
0.0237553
0.0254234
0.0257136
0.00945687
0.00887043
0.00936404
0.0106772
0.0125776
0.0147101
0.0166296
0.0180212
0.0187053
0.0190072
0.01157
0.00929803
0.0091664
0.00989188
0.0110216
0.0122745
0.0134065
0.0142442
0.0146362
0.0148991
0.018493
0.0105769
0.00943563
0.00961831
0.0102032
0.0108859
0.0115042
0.0119645
0.0121832
0.012288
0.0289861
0.0141451
0.0106477
0.010061
0.010184
0.0104505
0.0106647
0.0107682
0.0107684
0.0106482
0.0187237
0.0335927
0.0160799
0.0123396
0.0112935
0.010937
0.0106319
0.0103121
0.0100423
0.00980025
0.0196712
0.0345659
0.0718044
0.0249224
0.0150316
0.0124055
0.011016
0.0101519
0.00970986
0.00968088
0.0242499
0.0168738
0.0142383
0.0148279
0.0146948
0.0152022
0.0160585
0.0180283
0.0191805
0.0239578
0.0304632
0.0190831
0.0162247
0.0159011
0.014544
0.0144425
0.0150484
0.0168729
0.018016
0.0223946
0.0280405
0.0298269
0.0213052
0.0158206
0.0135533
0.0131305
0.013575
0.0152511
0.0164901
0.0204728
0.0209778
0.0316772
0.0260218
0.0142879
0.0124488
0.0120033
0.0121892
0.0134831
0.0146926
0.0182759
0.0164511
0.0209731
0.0180438
0.0130718
0.0117347
0.0114057
0.0113779
0.012174
0.0130655
0.0161018
0.0139394
0.0155051
0.0145271
0.0121789
0.0111286
0.0110461
0.0110779
0.01152
0.0119786
0.0143353
0.0123529
0.0129116
0.0130496
0.0113187
0.0104894
0.0106002
0.010949
0.0113664
0.0114983
0.0131978
0.0112186
0.0114138
0.0120664
0.0107019
0.0100988
0.0101631
0.0107294
0.0114178
0.0115188
0.012709
0.0101887
0.0111087
0.0118928
0.0104465
0.0100981
0.0100355
0.0105017
0.0114327
0.0118567
0.0127968
0.00952297
0.0102788
0.0108309
0.0100018
0.0102114
0.0102444
0.0105047
0.0114459
0.0123265
0.013376
0.00924364
0.00989598
0.0102418
0.010138
0.010616
0.0107862
0.0108952
0.0116813
0.0129536
0.0146704
0.00865762
0.00951226
0.00944815
0.0104108
0.0114118
0.0115988
0.0118458
0.0126817
0.0142171
0.0174281
0.00921375
0.00953911
0.0102326
0.0129487
0.0130334
0.0120292
0.0124532
0.0139931
0.0160472
0.0220063
0.010817
0.0106384
0.0127396
0.0188495
0.0148869
0.0125089
0.0124544
0.0141529
0.0166801
0.0245149
0.0127229
0.0130048
0.0161966
0.0583438
0.0155677
0.0127062
0.0126696
0.0140947
0.0160164
0.0211796
0.0158955
0.0153739
0.0170644
0.0186922
0.0121686
0.0110185
0.0113022
0.0124694
0.0138303
0.0164402
0.0194502
0.014912
0.0137673
0.0104081
0.00918026
0.00917155
0.00973156
0.0106665
0.0115533
0.0128566
0.0123606
0.0109782
0.00906001
0.00794405
0.00782996
0.00822905
0.00884191
0.00954099
0.0100631
0.0106657
0.00825603
0.00768785
0.00727462
0.00733637
0.00778802
0.00841355
0.0088871
0.00923315
0.009386
0.00954875
0.00676682
0.00690555
0.00728599
0.00823902
0.0100569
0.0120022
0.0121044
0.0110537
0.0101301
0.00963116
0.0209742
0.042233
0.0594297
0.0228082
0.0157018
0.0117064
0.00933011
0.00857041
0.00794308
0.00839767
0.0196741
0.0243881
0.033401
0.0552706
0.0223578
0.0213316
0.0129342
0.0115511
0.00933494
0.00854057
0.0205524
0.0212394
0.0233027
0.0236838
0.0254002
0.0206678
0.018388
0.0140068
0.0130931
0.0103593
0.0198263
0.0193407
0.0214067
0.0191194
0.023087
0.0178891
0.0209161
0.0153238
0.016527
0.012949
0.0195496
0.0195731
0.0214617
0.0200378
0.0224158
0.0194076
0.0208053
0.0174571
0.0175725
0.0153358
0.0179661
0.0189144
0.0195107
0.0210403
0.0212672
0.0230205
0.0225809
0.0217394
0.0210312
0.0185392
0.0147307
0.0153376
0.0153166
0.0164013
0.0163647
0.0181062
0.0180836
0.0205129
0.020154
0.0218497
0.0110573
0.011338
0.0111601
0.0115708
0.0114009
0.0119795
0.0118039
0.0125852
0.012354
0.013311
0.00829066
0.00828361
0.00822952
0.0082584
0.00823019
0.00828807
0.00827865
0.00835667
0.00835848
0.00844214
0.00649269
0.00646979
0.00648529
0.00647517
0.00651374
0.00651214
0.00657428
0.0065766
0.00666088
0.00666628
0.0102791
0.0106041
0.0104078
0.010216
0.0101389
0.0103613
0.0111379
0.0100429
0.00703142
0.00579247
0.0106051
0.0106323
0.0104294
0.0102085
0.0101339
0.0104526
0.0114385
0.00989855
0.00691744
0.00575546
0.010875
0.0108536
0.0106338
0.0103882
0.0103184
0.0107608
0.0119738
0.00966296
0.0068083
0.00572962
0.0111497
0.0111456
0.0109643
0.0107512
0.0107342
0.0113932
0.0128643
0.00933082
0.0066994
0.00571458
0.0114835
0.0115637
0.0113854
0.0111538
0.0112721
0.0124837
0.0142307
0.00894495
0.00660013
0.00571666
0.0119252
0.0119677
0.011879
0.0118521
0.0123289
0.0145911
0.014272
0.00850198
0.00650857
0.00573695
0.0124652
0.0128009
0.0128728
0.0129008
0.0144505
0.0210042
0.0129698
0.00805068
0.00642438
0.00578165
0.0134517
0.0136175
0.0135956
0.0151362
0.0225423
0.0241676
0.011103
0.00762477
0.0063577
0.00585962
0.014396
0.0151446
0.0183766
0.032372
0.0979633
0.0167199
0.00950748
0.00724622
0.0063154
0.00598471
0.0177296
0.0255687
0.0582544
0.0682824
0.0219554
0.0117391
0.00838934
0.00693728
0.00631374
0.00618373
0.0119518
0.0115086
0.0111153
0.0107675
0.0104456
0.0101592
0.00990733
0.00964562
0.00929461
0.0080086
0.0117933
0.011391
0.011029
0.0106965
0.0103869
0.0101185
0.00989863
0.00961612
0.00889519
0.00730715
0.0116421
0.0112771
0.0109394
0.0106154
0.0103137
0.0100631
0.00988552
0.00960132
0.00855305
0.00686951
0.0115233
0.0112119
0.0109039
0.0105803
0.0102759
0.0100366
0.00989951
0.00960806
0.00826062
0.00657246
0.0114106
0.011164
0.0108992
0.0105862
0.0102806
0.0100473
0.00994507
0.00963065
0.00799975
0.00635276
0.0112788
0.0110869
0.0108652
0.0105678
0.010284
0.010098
0.0100827
0.00974048
0.00778591
0.00619177
0.0112484
0.0111094
0.0109022
0.0105807
0.0102765
0.010112
0.0101893
0.0098196
0.00759696
0.00606842
0.0112522
0.0111274
0.010947
0.0106322
0.0103467
0.0102355
0.0104261
0.00994087
0.00743157
0.00597333
0.0114791
0.0113179
0.0110339
0.010623
0.010311
0.0102577
0.0106012
0.0100124
0.00728509
0.00589878
0.0113882
0.0111146
0.0109181
0.0106209
0.0103702
0.0103972
0.0109064
0.010064
0.00715093
0.00583906
0.133702
0.0426245
0.034246
0.0424977
0.0439581
0.0405868
0.0332222
0.0276239
0.0200686
0.0139651
0.112538
0.0421036
0.0326819
0.0394427
0.0436899
0.0419264
0.0357245
0.0283985
0.0206782
0.0137672
0.0957848
0.0415472
0.0312847
0.0371669
0.0431901
0.0426437
0.0390996
0.0289225
0.0214953
0.013589
0.0835314
0.0407817
0.0299858
0.0354297
0.04261
0.043101
0.0436579
0.0291347
0.0223798
0.0133908
0.074363
0.0397512
0.0288057
0.0341034
0.0420213
0.0435789
0.049282
0.0291092
0.0230494
0.013138
0.0675152
0.0386312
0.027842
0.0331086
0.041453
0.0439892
0.053831
0.0291578
0.022608
0.0129488
0.0628701
0.0378432
0.0271689
0.0323568
0.0408114
0.0441196
0.0529646
0.0293934
0.0210996
0.0127075
0.0606338
0.038
0.0267818
0.0316674
0.0397739
0.044236
0.046183
0.0296393
0.0185961
0.0127902
0.0611469
0.0394667
0.0266247
0.0307793
0.0378746
0.0436428
0.0378153
0.0285885
0.017504
0.012409
0.0645665
0.0412722
0.0262318
0.0300178
0.0345692
0.0380441
0.0297347
0.0243589
0.0151618
0.0138968
0.070323
0.0465335
0.0260824
0.0289887
0.0278484
0.0313803
0.0199106
0.0202875
0.0137426
0.0143391
0.0668782
0.0529393
0.0248322
0.0277122
0.0199773
0.0278967
0.0144741
0.0186837
0.0123329
0.0135471
0.0597824
0.0587574
0.0241877
0.0229104
0.016903
0.0242284
0.0130988
0.018328
0.0121392
0.0130599
0.0547388
0.0619385
0.0250275
0.0179565
0.0178311
0.019381
0.0147291
0.0171801
0.0139945
0.0127025
0.0546555
0.0567542
0.0260017
0.0159682
0.0213227
0.0173628
0.0197368
0.0163759
0.0175078
0.013608
0.0566031
0.0451841
0.0262701
0.0159346
0.0202227
0.0175126
0.0209022
0.0176985
0.0204534
0.0153579
0.0512561
0.0434251
0.0304062
0.0182008
0.0168394
0.0188741
0.0166367
0.0210625
0.018457
0.0170032
0.0369585
0.0661437
0.0336722
0.02263
0.0137109
0.0162903
0.0123903
0.0151842
0.0132974
0.0148852
0.0225808
0.0198826
0.0136355
0.0120488
0.0108191
0.0104177
0.010024
0.0100832
0.00984192
0.00985669
0.00793186
0.00787914
0.00835252
0.00854255
0.00859127
0.0080473
0.00830109
0.007586
0.00756945
0.00719337
0.0113649
0.0112204
0.0111514
0.011382
0.0116955
0.0122254
0.0127126
0.013583
0.014816
0.0163287
0.0119457
0.0117766
0.0118239
0.0122062
0.0126994
0.0134189
0.0141674
0.0151046
0.0164484
0.0180951
0.0125482
0.0125574
0.012848
0.0134339
0.0140916
0.0148925
0.0156495
0.0166131
0.0176458
0.0187621
0.0134002
0.0135932
0.0140268
0.0145679
0.0151506
0.0156649
0.0162619
0.0167683
0.0176728
0.0180612
0.0146595
0.0148242
0.0152038
0.0155139
0.0159045
0.0161279
0.0166063
0.0169011
0.0177536
0.0180645
0.0158984
0.0158512
0.0160321
0.016168
0.0163109
0.0163781
0.0165158
0.0166957
0.0170055
0.0174206
0.0164577
0.0160822
0.0158005
0.0156201
0.0152797
0.0151454
0.0147658
0.0148013
0.014553
0.0148321
0.0136373
0.0131319
0.0126201
0.0123168
0.01193
0.0117968
0.0114417
0.0114545
0.0111425
0.0112949
0.00961788
0.00940711
0.00921109
0.00904138
0.00889187
0.00876129
0.00863379
0.00853664
0.00842772
0.00837456
0.00708117
0.00698097
0.00689236
0.00680582
0.0067365
0.00666549
0.0066168
0.00656231
0.00653564
0.00649835
0.00583853
0.00660942
0.00845704
0.0143397
0.0445944
0.0175948
0.0129692
0.011251
0.00972619
0.00821585
0.00591727
0.00654027
0.00799851
0.0121976
0.0351774
0.0242537
0.0147132
0.0115171
0.00967591
0.00816014
0.00604141
0.0065072
0.00761368
0.0103371
0.0175701
0.0215473
0.0159605
0.012124
0.00990555
0.00831655
0.00622575
0.006521
0.00731983
0.00913309
0.0128987
0.0169165
0.0159905
0.0129393
0.0104631
0.00865741
0.00649207
0.00659646
0.00712834
0.00835804
0.0107009
0.0138167
0.0150319
0.0135895
0.011306
0.00925178
0.0068716
0.00675109
0.00704606
0.00787416
0.00942266
0.0117282
0.0137081
0.0138471
0.0123578
0.0100249
0.0074131
0.00700823
0.00707676
0.00760119
0.00864402
0.0102952
0.0122242
0.0133519
0.0132212
0.0111933
0.00819268
0.00740191
0.00723256
0.00749767
0.00817664
0.00934269
0.0109774
0.0125702
0.0135481
0.0121285
0.00933009
0.0079793
0.00754317
0.00756519
0.00794338
0.00869788
0.00986278
0.0112978
0.0129624
0.0122046
0.0110142
0.00879179
0.00805179
0.00784168
0.0079659
0.00839974
0.00916071
0.010231
0.0117668
0.0126752
0.0135708
0.00987365
0.00879388
0.00837097
0.00827282
0.00844261
0.00886841
0.00954173
0.0103095
0.0118494
0.0173531
0.0112115
0.00979369
0.00923327
0.0089581
0.00890642
0.00907924
0.00945836
0.00975177
0.0109107
0.0204634
0.0124657
0.0109206
0.0104846
0.0101934
0.00995616
0.009882
0.00999762
0.00996129
0.0106522
0.0197148
0.012609
0.0115998
0.011758
0.0119992
0.0118619
0.0114896
0.0112074
0.0108113
0.0110517
0.0158277
0.0119569
0.0116723
0.0124172
0.013636
0.0147107
0.0145324
0.0135614
0.0125245
0.0121954
0.0127409
0.0112632
0.0115639
0.0126977
0.0145616
0.0175964
0.0207532
0.0193653
0.0161766
0.0144501
0.0108136
0.0106554
0.0114323
0.0129284
0.0151787
0.0192285
0.0286948
0.0404137
0.0262821
0.0187299
0.00963708
0.0101848
0.0113479
0.0131577
0.0157231
0.0198735
0.03061
0.087352
0.0588846
0.0253121
0.00893483
0.00983223
0.0113325
0.0133883
0.0159129
0.0192185
0.0241776
0.0306665
0.0346352
0.0262524
0.00851634
0.00953891
0.0112846
0.013547
0.0158031
0.0178559
0.0199302
0.0222986
0.0244827
0.0239174
0.0112324
0.0117761
0.0138397
0.0206434
0.0551432
0.0365368
0.0257561
0.0247903
0.024214
0.0295214
0.0109548
0.0117995
0.0141486
0.0202643
0.0334547
0.030656
0.0249587
0.0245685
0.0244211
0.031078
0.0109519
0.0118791
0.0142873
0.0188966
0.0255679
0.0266599
0.0241207
0.0241966
0.0242367
0.0310146
0.0113635
0.012094
0.0145087
0.017916
0.0222855
0.0236993
0.0230356
0.023644
0.0238113
0.0302531
0.0120164
0.0125411
0.0147853
0.0172192
0.0201527
0.0215273
0.0218815
0.0229869
0.0232729
0.0292865
0.0128404
0.0132986
0.0148591
0.0164888
0.0184128
0.0198087
0.0207544
0.0222884
0.0227262
0.028384
0.0140081
0.0143108
0.0146315
0.0156617
0.0169403
0.0183511
0.0196486
0.0215364
0.0221844
0.0276191
0.0155271
0.0153019
0.0142428
0.014874
0.0157666
0.0171318
0.0185794
0.0207107
0.0215981
0.0269187
0.0173198
0.0159974
0.0138667
0.0143249
0.0149748
0.0162055
0.0176105
0.0198327
0.0209172
0.0261501
0.0198049
0.0164114
0.0137267
0.0142362
0.0146416
0.0156115
0.016797
0.0189457
0.0201187
0.0251911
0.0105909
0.0160662
0.0211273
0.0359132
0.0751674
0.0431339
0.0241466
0.0172471
0.0145624
0.0129805
0.00901714
0.011183
0.0140104
0.0177427
0.0195627
0.0177908
0.0154158
0.0138977
0.0131998
0.0125476
0.0090879
0.0107031
0.0134062
0.0166961
0.0181794
0.0180636
0.0166728
0.0157784
0.0152149
0.0146248
0.00989633
0.0108838
0.0136562
0.0197357
0.0283105
0.0263118
0.0214898
0.020137
0.0192092
0.0191268
0.0116703
0.0118918
0.0139539
0.0210046
0.0875225
0.0349947
0.024681
0.0234749
0.0226226
0.025027
0.005877
0.00597902
0.00612421
0.00632812
0.00656674
0.00687252
0.00722853
0.00759416
0.00816128
0.00846609
0.00609935
0.00617992
0.00630839
0.0064867
0.00668514
0.00692212
0.00719452
0.0074192
0.00784059
0.00797314
0.00639841
0.00645468
0.00657768
0.00674994
0.00694847
0.00719351
0.00741936
0.00771865
0.0080102
0.00834974
0.00680589
0.00683431
0.00696833
0.00716324
0.00742747
0.00776483
0.00804408
0.00870856
0.00884257
0.0100887
0.00733863
0.00733323
0.00749009
0.00774479
0.00815202
0.00863699
0.00926246
0.0103253
0.0105568
0.0135422
0.0125797
0.0123171
0.0120639
0.0116527
0.0112624
0.0110241
0.0109845
0.0104847
0.00822915
0.0064157
0.0128351
0.0125604
0.0121296
0.0115985
0.0111697
0.0109148
0.0108443
0.0104568
0.00848773
0.00658517
0.012474
0.0122561
0.0119676
0.0115853
0.0112352
0.0109789
0.0108388
0.0104657
0.00878319
0.00679829
0.0125704
0.0123234
0.0119946
0.0115888
0.0111977
0.0108754
0.0106498
0.0103311
0.00909818
0.00708429
0.0125553
0.012223
0.0118468
0.0114434
0.0110655
0.0107475
0.0105114
0.0102776
0.00950291
0.0075047
0.0125338
0.0121338
0.0117245
0.011324
0.0109498
0.0106232
0.010367
0.0102016
0.00993555
0.00815393
0.0124616
0.0120066
0.0115706
0.0111678
0.01079
0.0104505
0.0101771
0.0100815
0.010384
0.00937712
0.0123457
0.0118591
0.0114116
0.0110108
0.0106318
0.0102831
0.00999164
0.00991449
0.0106538
0.0121538
0.0122152
0.0117251
0.0112854
0.0108998
0.0105373
0.0102025
0.00990989
0.00977122
0.0103484
0.0125651
0.0120858
0.0116155
0.0111994
0.0108364
0.0104994
0.0101938
0.00991876
0.00970353
0.00978677
0.00938772
0.0085069
0.00996188
0.0111936
0.0121096
0.0133464
0.0166706
0.0146973
0.00892134
0.00670187
0.00579385
0.00905642
0.0102478
0.0110072
0.0115185
0.0120737
0.0131741
0.0140306
0.00938142
0.00680856
0.0057756
0.00968211
0.0104207
0.0107721
0.01096
0.0112046
0.0118157
0.0125361
0.00968373
0.00692792
0.00578112
0.0100671
0.0104156
0.0105726
0.0106547
0.0107459
0.0110642
0.0116806
0.00992139
0.00705728
0.00580491
0.0102424
0.0104239
0.0104863
0.0104936
0.0105155
0.0107221
0.0112079
0.0100244
0.00718564
0.00584577
0.0104293
0.0105542
0.0105608
0.0105033
0.010448
0.0105528
0.0109398
0.0101102
0.00732434
0.00590168
0.0107415
0.0108202
0.0107427
0.0105993
0.0104788
0.0105217
0.0108301
0.0101684
0.00746909
0.00597184
0.0111607
0.0111373
0.0109385
0.0107072
0.0105356
0.010535
0.0107868
0.0102399
0.00762934
0.0060574
0.0114872
0.0113045
0.0110241
0.0107729
0.0106052
0.0105991
0.0108176
0.0103421
0.00780845
0.00615894
0.0113127
0.0113878
0.0111883
0.0109704
0.0108083
0.0107727
0.0109197
0.0104533
0.00801025
0.00627748
0.0373974
0.0378507
0.128318
0.0346323
0.0258771
0.0254413
0.0286095
0.0423135
0.026601
0.018046
0.0420725
0.0385279
0.121905
0.0438857
0.0283295
0.0259017
0.0274295
0.0298863
0.0260883
0.0155112
0.0482291
0.0400588
0.0802294
0.0538916
0.030687
0.0266385
0.0275309
0.0266493
0.024848
0.0146582
0.0563429
0.0412385
0.0621402
0.0647876
0.0325755
0.0272286
0.0273245
0.0246838
0.0228219
0.0146414
0.0668581
0.0419848
0.0537183
0.074317
0.0343392
0.0280246
0.0272221
0.0238508
0.0213307
0.014728
0.0803784
0.0425253
0.0482862
0.0768986
0.0363468
0.0293037
0.027461
0.0238309
0.0204478
0.0147611
0.0980459
0.0430359
0.0441783
0.0703149
0.0386403
0.0311253
0.0280077
0.0242733
0.0199122
0.014694
0.120916
0.0434574
0.0409217
0.0607452
0.0409258
0.0334189
0.0288163
0.0249752
0.0196204
0.0145382
0.144133
0.0435409
0.0382709
0.0526516
0.0427297
0.0359969
0.0299036
0.0258207
0.0195493
0.0143447
0.150101
0.0431801
0.0360781
0.0467239
0.0437286
0.0385244
0.0313365
0.0267303
0.0196943
0.0141467
0.00724938
0.00742459
0.00826573
0.00889683
0.00953134
0.00970143
0.00984613
0.00941523
0.00939025
0.00787756
0.0149973
0.0107633
0.00972632
0.00998081
0.010445
0.0108496
0.0113348
0.0115416
0.0116553
0.011509
0.0252203
0.0231525
0.0130344
0.0121428
0.0122463
0.0128648
0.0137236
0.0155517
0.0158016
0.0145954
0.0303416
0.0473344
0.021113
0.0163557
0.0155742
0.0164248
0.0180084
0.0252907
0.0280455
0.0154383
0.0337576
0.0388368
0.0449661
0.0234657
0.0202523
0.020915
0.0237047
0.0451417
0.0361117
0.0173469
0.00737499
0.00704447
0.00672868
0.00645156
0.0062257
0.00605015
0.00592304
0.00584388
0.00581035
0.0058214
0.0104926
0.00962917
0.00880155
0.0080873
0.00745835
0.00693507
0.00654411
0.00628474
0.0061374
0.00608161
0.0123303
0.0113859
0.0105119
0.0097727
0.00901862
0.00821712
0.00748275
0.0069369
0.00660053
0.00643549
0.0125203
0.0116393
0.0109916
0.0105404
0.0100812
0.00946082
0.00862288
0.00779823
0.00722365
0.00691417
0.0125264
0.0116718
0.0110016
0.0105537
0.0102073
0.00988908
0.00942661
0.00871524
0.00800661
0.00754038
)
;

boundaryField
{
    left
    {
        type            calculated;
        value           nonuniform List<scalar> 
35
(
0.0384944
0.0402522
0.0423691
0.0456594
0.0502582
0.0519364
0.0451682
0.0329917
0.0197601
0.00789736
0.0658955
0.0612855
0.0562554
0.0514191
0.0470304
0.0432285
0.0401812
0.0380741
0.0370485
0.0371564
0.0353737
0.0400561
0.0457569
0.0523643
0.0591876
0.0652416
0.0696224
0.0716655
0.0713741
0.0693532
0.0072125
0.0137004
0.0219436
0.0273024
0.0315477
)
;
    }
    right
    {
        type            calculated;
        value           nonuniform List<scalar> 
35
(
0.0129864
0.0125695
0.014727
0.0196218
0.0269508
0.0339259
0.0373266
0.0381764
0.0378052
0.0370317
0.0363536
0.0359331
0.0356378
0.0351763
0.0342368
0.0325545
0.0299046
0.026237
0.022075
0.0183718
0.01572
0.0141616
0.0135193
0.0136215
0.0143569
0.01609
0.0199413
0.0276095
0.0293291
0.0225788
0.0167655
0.013011
0.0107485
0.00958356
0.00964181
)
;
    }
    down
    {
        type            calculated;
        value           nonuniform List<scalar> 
40
(
0.00638223
0.00675531
0.00784835
0.00856214
0.00924246
0.00930249
0.00930962
0.00875102
0.00863804
0.00705636
0.00666011
0.00642597
0.00620448
0.00601697
0.00587763
0.00578193
0.00572083
0.00568993
0.00568819
0.00571852
0.00578694
0.00589868
0.00605433
0.00627496
0.00654157
0.0068981
0.0073128
0.00780044
0.00848234
0.00903346
0.0135145
0.0490126
0.0744177
0.117011
0.0394826
0.0380259
0.0752051
0.0301841
0.0180092
0.0143477
)
;
    }
    up
    {
        type            calculated;
        value           nonuniform List<scalar> 
40
(
0.00638728
0.00684301
0.00800856
0.0105527
0.0215625
0.0259668
0.0373352
0.0168093
0.0116485
0.0101533
0.00603669
0.00602205
0.00604433
0.00603818
0.00608155
0.00608076
0.00614703
0.00614843
0.00623818
0.00624181
0.00648471
0.00640438
0.00633177
0.00626339
0.00620658
0.00615285
0.00611521
0.00607666
0.00605938
0.00603418
0.00678616
0.00681798
0.00741778
0.00779637
0.00792195
0.00747034
0.00770003
0.00695659
0.00694066
0.00658365
)
;
    }
    cylinder
    {
        type            calculated;
        value           nonuniform List<scalar> 
80
(
0.00800686
0.00799245
0.00822266
0.00885229
0.0104352
0.0161159
0.0269807
0.0178817
0.0136953
0.0150897
0.0238163
0.0167952
0.0147016
0.0157721
0.0247675
0.0329886
0.0153592
0.00959256
0.00769143
0.00677181
0.00550695
0.00548427
0.00547306
0.00547408
0.00549421
0.00553742
0.00561392
0.00573848
0.00593621
0.00625211
0.00739437
0.00675094
0.00637011
0.0061193
0.00593808
0.00580817
0.00571051
0.00563706
0.00558124
0.00553836
0.00598253
0.00611655
0.00628581
0.0065158
0.00685791
0.00740277
0.00848546
0.0114029
0.0130627
0.00880067
0.00555916
0.00551907
0.00550559
0.00551209
0.00553706
0.00557685
0.00563017
0.00569733
0.00577827
0.00587277
0.00563195
0.00574885
0.00592636
0.00618584
0.00655849
0.00709443
0.00788506
0.00910217
0.0110938
0.0147082
0.0231204
0.0601993
0.297257
0.0929662
0.0268789
0.015104
0.0112851
0.00954699
0.00867576
0.00822375
)
;
    }
    defaultFaces
    {
        type            empty;
    }
}


// ************************************************************************* //
