/*--------------------------------*- C++ -*----------------------------------*\
| =========                 |                                                 |
| \\      /  F ield         | OpenFOAM: The Open Source CFD Toolbox           |
|  \\    /   O peration     | Version:  2406                                  |
|   \\  /    A nd           | Website:  www.openfoam.com                      |
|    \\/     M anipulation  |                                                 |
\*---------------------------------------------------------------------------*/
FoamFile
{
    version     2.0;
    format      ascii;
    arch        "LSB;label=32;scalar=64";
    class       volScalarField;
    location    "1.55";
    object      p;
}
// * * * * * * * * * * * * * * * * * * * * * * * * * * * * * * * * * * * * * //

dimensions      [0 2 -2 0 0 0 0];

internalField   nonuniform List<scalar> 
1800
(
-0.617911
-0.621318
-0.618094
-0.605701
-0.595198
-0.586503
-0.57205
-0.555556
-0.540181
-0.53746
-0.641683
-0.64786
-0.646648
-0.635071
-0.624243
-0.615083
-0.603103
-0.589012
-0.572649
-0.581454
-0.680108
-0.680281
-0.676902
-0.669998
-0.660856
-0.649984
-0.636979
-0.62243
-0.605285
-0.60374
-0.725966
-0.720292
-0.71119
-0.70346
-0.694001
-0.68179
-0.666853
-0.650023
-0.63212
-0.618447
-0.762993
-0.759614
-0.753438
-0.743836
-0.731444
-0.715833
-0.697208
-0.676653
-0.655535
-0.635848
-0.824011
-0.809931
-0.801288
-0.789014
-0.772041
-0.750541
-0.725662
-0.698835
-0.671268
-0.644317
-0.884353
-0.866287
-0.854246
-0.836814
-0.812335
-0.782311
-0.749185
-0.714846
-0.680686
-0.647904
-0.948791
-0.926672
-0.909813
-0.883844
-0.848363
-0.807373
-0.764517
-0.721867
-0.680459
-0.64018
-1.01595
-0.988679
-0.963832
-0.925294
-0.87588
-0.822507
-0.769232
-0.717155
-0.666004
-0.617322
-1.07717
-1.04463
-1.00718
-0.952739
-0.888401
-0.822485
-0.757911
-0.693815
-0.632111
-0.576984
-0.989668
-0.992505
-0.993426
-0.994403
-0.995618
-0.997127
-0.999069
-1.00134
-1.0038
-1.00688
-0.972082
-0.971949
-0.972317
-0.973518
-0.975546
-0.978358
-0.982086
-0.986832
-0.992738
-1.00023
-0.947473
-0.943777
-0.943253
-0.944402
-0.94707
-0.951205
-0.95678
-0.963829
-0.972317
-0.982246
-0.913604
-0.905923
-0.904267
-0.904847
-0.907466
-0.912293
-0.919264
-0.928321
-0.939454
-0.952508
-0.870289
-0.858619
-0.855358
-0.854309
-0.855422
-0.859255
-0.865841
-0.875024
-0.88656
-0.899831
-0.820204
-0.805717
-0.800275
-0.796319
-0.794152
-0.794721
-0.798205
-0.804477
-0.813254
-0.823748
-0.762497
-0.751844
-0.744541
-0.737141
-0.730504
-0.725853
-0.723642
-0.72395
-0.72675
-0.731786
-0.708048
-0.702328
-0.693489
-0.68351
-0.672915
-0.662553
-0.65316
-0.645247
-0.639391
-0.637142
-0.670299
-0.666816
-0.657099
-0.644636
-0.630646
-0.615387
-0.5991
-0.58292
-0.568267
-0.558755
-0.629224
-0.635953
-0.629808
-0.615242
-0.60302
-0.588183
-0.569234
-0.549265
-0.530336
-0.515179
-1.02726
-1.15141
-1.1719
-1.05471
-0.788866
-0.50557
-0.281004
-0.135459
-0.0492089
-0.00580885
-1.04977
-1.24471
-1.29797
-1.17434
-0.859496
-0.531873
-0.279283
-0.124387
-0.0385652
-0.000945544
-1.06398
-1.34176
-1.43952
-1.3113
-0.940486
-0.562426
-0.277647
-0.112088
-0.0267426
0.00476283
-1.06016
-1.43373
-1.58759
-1.45961
-1.02971
-0.596915
-0.276751
-0.0993075
-0.0141879
0.01109
-1.02777
-1.50811
-1.72917
-1.61154
-1.12627
-0.635565
-0.278064
-0.0876668
-0.00202529
0.0173486
-0.961161
-1.55213
-1.85298
-1.75912
-1.22798
-0.678972
-0.283279
-0.0791017
0.00806991
0.0224338
-0.860793
-1.55577
-1.94924
-1.89385
-1.33072
-0.727114
-0.293682
-0.0750831
0.0144148
0.0252527
-0.733459
-1.5153
-2.00667
-2.00475
-1.42711
-0.778424
-0.310254
-0.0765755
0.0159215
0.0252939
-0.593365
-1.42927
-2.01993
-2.0813
-1.50915
-0.830185
-0.333515
-0.0846094
0.0121195
0.0226994
-0.468709
-1.3069
-1.99048
-2.12339
-1.5762
-0.880644
-0.362736
-0.0997813
0.00290639
0.0177967
-0.351849
-1.20583
-1.96374
-2.14143
-1.59776
-0.903705
-0.387204
-0.121839
-0.0142308
0.00900944
-0.369895
-1.15971
-1.89336
-2.05211
-1.52693
-0.888048
-0.414152
-0.161265
-0.0437719
-0.00377788
-0.433468
-1.10818
-1.76583
-1.89578
-1.43337
-0.874543
-0.449685
-0.20767
-0.0773931
-0.016255
-0.477607
-1.02621
-1.5743
-1.69744
-1.33543
-0.876552
-0.501086
-0.261073
-0.112919
-0.0286967
-0.484816
-0.913024
-1.36626
-1.49717
-1.2519
-0.899397
-0.571207
-0.324111
-0.150031
-0.0403405
-0.461218
-0.79341
-1.16931
-1.31934
-1.19255
-0.942739
-0.64853
-0.388358
-0.187169
-0.0518761
-0.414038
-0.674248
-0.987376
-1.17256
-1.16167
-1.00395
-0.724672
-0.442351
-0.21357
-0.0572501
-0.354247
-0.56279
-0.834606
-1.05907
-1.14614
-1.0432
-0.767522
-0.47329
-0.228936
-0.05992
-0.281075
-0.494781
-0.757514
-0.976528
-1.1119
-1.0486
-0.778978
-0.484697
-0.236343
-0.0618774
-0.242458
-0.460706
-0.759584
-1.00098
-1.10174
-1.02557
-0.764227
-0.477665
-0.236672
-0.0626948
-0.483772
-0.528779
-0.563642
-0.586439
-0.597589
-0.602658
-0.596739
-0.573367
-0.521567
-0.514883
-0.369141
-0.421071
-0.463387
-0.498909
-0.521891
-0.534337
-0.532458
-0.523626
-0.508739
-0.514631
-0.271889
-0.326508
-0.37207
-0.41301
-0.444354
-0.466806
-0.476085
-0.486751
-0.486078
-0.492744
-0.186488
-0.242426
-0.290955
-0.334252
-0.370818
-0.40282
-0.423467
-0.446009
-0.455251
-0.471505
-0.112679
-0.169202
-0.21924
-0.264765
-0.303672
-0.340706
-0.368002
-0.396834
-0.416537
-0.442596
-0.0503031
-0.106369
-0.156279
-0.2023
-0.241841
-0.279725
-0.31059
-0.342457
-0.369543
-0.401126
0.00104352
-0.0537392
-0.102872
-0.147673
-0.186815
-0.223073
-0.255178
-0.286519
-0.316255
-0.347524
0.0420244
-0.0116344
-0.060045
-0.102841
-0.14075
-0.17432
-0.205022
-0.233058
-0.260642
-0.287543
0.0674399
0.01449
-0.033497
-0.0746042
-0.110967
-0.141406
-0.16873
-0.191528
-0.212329
-0.230454
0.0792006
0.0257211
-0.0224871
-0.0646814
-0.10177
-0.132754
-0.159572
-0.180273
-0.197491
-0.209475
0.729762
0.670881
0.603416
0.532357
0.456579
0.373621
0.283805
0.192684
0.109976
0.0567584
0.563071
0.500808
0.431591
0.356572
0.274076
0.18227
0.0824863
-0.0184258
-0.109334
-0.16933
0.377809
0.314472
0.244648
0.167544
0.0812632
-0.0157273
-0.1215
-0.228617
-0.324751
-0.389217
0.198528
0.133644
0.0617756
-0.0181335
-0.107742
-0.208362
-0.317841
-0.428969
-0.528418
-0.592862
0.0354574
-0.0318692
-0.106772
-0.190101
-0.283252
-0.387158
-0.498457
-0.612293
-0.710435
-0.7741
-0.112115
-0.18176
-0.258733
-0.343749
-0.43827
-0.543244
-0.654546
-0.7656
-0.861791
-0.922994
-0.24165
-0.312506
-0.390412
-0.476059
-0.570471
-0.673005
-0.780635
-0.886521
-0.977281
-1.03364
-0.355704
-0.425137
-0.500906
-0.583348
-0.672739
-0.771038
-0.873052
-0.9719
-1.05329
-1.10325
-0.449939
-0.514722
-0.584527
-0.661806
-0.748126
-0.840604
-0.932826
-1.01951
-1.08752
-1.13096
-0.522449
-0.582762
-0.649191
-0.72288
-0.800154
-0.878564
-0.957279
-1.02876
-1.08189
-1.11955
1.69624
1.70706
1.71836
1.72916
1.73887
1.74706
1.75328
1.75713
1.76062
1.77668
1.65545
1.66421
1.67283
1.68049
1.6867
1.69102
1.69304
1.69286
1.69316
1.70642
1.59591
1.60183
1.60687
1.61041
1.61208
1.61135
1.60784
1.60214
1.59759
1.60655
1.51876
1.52127
1.52184
1.52017
1.51607
1.50896
1.49841
1.48554
1.47442
1.47771
1.42485
1.42312
1.41829
1.41046
1.39967
1.38523
1.36671
1.34557
1.32664
1.32335
1.31756
1.31137
1.30031
1.28511
1.26616
1.24276
1.21455
1.18357
1.15526
1.14449
1.19773
1.1865
1.16895
1.14618
1.11873
1.08574
1.04691
1.0049
0.965856
0.947532
1.07245
1.05549
1.0297
0.997366
0.959634
0.915669
0.865329
0.811889
0.762009
0.734972
0.946448
0.922959
0.888129
0.845454
0.796476
0.740273
0.676955
0.610715
0.549327
0.513102
0.832027
0.794051
0.744115
0.687746
0.626103
0.557366
0.481409
0.40296
0.330763
0.285752
1.60725
1.59203
1.58361
1.5652
1.55604
1.54553
1.54231
1.55055
1.57699
1.64811
1.60553
1.58938
1.58185
1.56369
1.55377
1.54117
1.53684
1.54154
1.56289
1.62423
1.60421
1.58688
1.5802
1.56207
1.55119
1.53589
1.53022
1.52974
1.54375
1.58964
1.60323
1.58452
1.57868
1.56031
1.5483
1.52974
1.52251
1.51512
1.51996
1.54386
1.60261
1.58228
1.57732
1.5584
1.54506
1.52272
1.51366
1.49765
1.49204
1.48645
1.60235
1.58012
1.57616
1.55635
1.54144
1.51483
1.50352
1.47726
1.46049
1.41724
1.60242
1.57799
1.57523
1.55412
1.5374
1.50612
1.49202
1.45402
1.42587
1.33553
1.60283
1.57593
1.57457
1.55164
1.53289
1.49654
1.47928
1.42817
1.38791
1.2425
1.60355
1.57418
1.57437
1.54901
1.5279
1.48585
1.46539
1.40007
1.34599
1.13761
1.60449
1.57285
1.57496
1.54664
1.52257
1.47402
1.4504
1.37093
1.30289
1.02991
1.60627
1.57134
1.57467
1.54317
1.51659
1.46099
1.43267
1.33885
1.24884
0.927383
1.61039
1.57175
1.5786
1.54205
1.51354
1.44829
1.41458
1.31403
1.2027
0.930474
1.61586
1.57327
1.5825
1.54144
1.51131
1.43957
1.39742
1.29568
1.16421
0.933065
1.62233
1.57592
1.58558
1.54212
1.50813
1.4373
1.38081
1.28169
1.13148
0.927114
1.63007
1.57952
1.58644
1.54203
1.50197
1.43915
1.3639
1.27009
1.10452
0.915304
1.63936
1.58256
1.58465
1.53519
1.49295
1.44013
1.34666
1.26096
1.08613
0.902948
1.65143
1.58523
1.57842
1.51965
1.48174
1.43939
1.32955
1.2553
1.07766
0.894684
1.6701
1.59013
1.57398
1.50729
1.47015
1.43843
1.31222
1.25679
1.07763
0.892222
1.68492
1.59428
1.57235
1.50121
1.45996
1.4371
1.29793
1.26378
1.07877
0.894773
1.7303
1.59429
1.56895
1.49623
1.46035
1.43559
1.29644
1.2768
1.0809
0.909037
0.718306
0.57997
0.413472
0.251663
0.104767
-0.0278396
-0.146565
-0.252584
-0.345199
-0.422701
0.678966
0.564927
0.432515
0.299452
0.175713
0.0622389
-0.042056
-0.137993
-0.227604
-0.305006
0.667518
0.562619
0.449911
0.337705
0.231043
0.130763
0.0358084
-0.0540978
-0.134324
-0.207199
0.669087
0.570171
0.469694
0.373028
0.280718
0.19216
0.10653
0.0250228
-0.0518098
-0.122221
0.677244
0.585947
0.494914
0.409034
0.327047
0.247103
0.168316
0.0918965
0.018453
-0.0497865
0.689139
0.606061
0.522729
0.443818
0.368253
0.293717
0.219626
0.14689
0.0767532
0.0107994
0.703723
0.628118
0.551073
0.476723
0.40486
0.333429
0.262444
0.192178
0.124448
0.0606477
0.719506
0.650044
0.57796
0.506792
0.436807
0.367154
0.298547
0.23031
0.164632
0.101068
0.730958
0.66452
0.595467
0.525992
0.455995
0.386232
0.317719
0.25023
0.186141
0.124786
0.748417
0.682927
0.615041
0.545012
0.473627
0.402897
0.333261
0.265643
0.200231
0.13774
-1.40464
-1.35436
-1.28119
-1.19893
-1.11835
-1.04471
-0.980005
-0.925466
-0.880821
-0.84659
-1.50785
-1.46206
-1.39464
-1.3147
-1.23567
-1.16351
-1.10031
-1.04561
-1.00017
-0.965444
-1.56656
-1.52576
-1.46595
-1.39115
-1.31568
-1.24509
-1.18194
-1.12699
-1.08016
-1.04291
-1.58532
-1.54999
-1.49954
-1.43285
-1.36135
-1.29243
-1.2296
-1.17426
-1.12618
-1.08615
-1.57259
-1.54288
-1.50293
-1.44634
-1.381
-1.31505
-1.25303
-1.19715
-1.14768
-1.10496
-1.53879
-1.51441
-1.48446
-1.43866
-1.38147
-1.32031
-1.26015
-1.20411
-1.15361
-1.10926
-1.4939
-1.47424
-1.45243
-1.41702
-1.3694
-1.31506
-1.25878
-1.20414
-1.15375
-1.10981
-1.44525
-1.42955
-1.41371
-1.38713
-1.34903
-1.30241
-1.25116
-1.19884
-1.14891
-1.1049
-1.39749
-1.38506
-1.37347
-1.35387
-1.32432
-1.28583
-1.24108
-1.19299
-1.14545
-1.10493
-1.353
-1.34342
-1.33483
-1.32031
-1.29741
-1.26572
-1.22647
-1.18154
-1.13324
-1.08922
-1.31238
-1.30553
-1.29925
-1.28848
-1.27083
-1.24514
-1.2118
-1.17254
-1.12885
-1.08087
-1.27374
-1.26968
-1.2655
-1.25773
-1.24416
-1.22332
-1.19487
-1.15997
-1.11957
-1.07055
-1.23092
-1.22985
-1.22818
-1.22316
-1.21264
-1.19535
-1.17085
-1.1398
-1.10239
-1.05452
-1.18153
-1.18495
-1.18541
-1.18269
-1.17453
-1.15971
-1.13839
-1.11149
-1.07871
-1.03664
-1.13682
-1.14232
-1.14364
-1.14193
-1.13571
-1.12328
-1.1046
-1.08153
-1.05503
-1.02195
-1.09783
-1.10488
-1.1064
-1.10533
-1.10116
-1.09222
-1.07722
-1.05761
-1.03652
-1.01255
-1.06405
-1.07205
-1.0738
-1.07325
-1.07066
-1.06547
-1.05593
-1.04067
-1.02497
-1.0093
-1.03744
-1.04511
-1.0466
-1.04602
-1.04387
-1.04053
-1.03643
-1.02867
-1.01658
-1.00492
-1.0184
-1.02495
-1.02627
-1.02619
-1.02532
-1.02391
-1.02205
-1.01861
-1.01197
-1.00436
-1.0039
-1.00887
-1.0101
-1.01067
-1.01104
-1.01131
-1.01151
-1.01109
-1.00924
-1.00698
-0.930858
-0.736006
-0.692314
-0.654269
-0.580758
-0.460975
-0.331396
-0.210972
-0.113388
-0.0315333
-0.913357
-0.732604
-0.699291
-0.659825
-0.579498
-0.45433
-0.324127
-0.204865
-0.109066
-0.0299131
-0.902345
-0.739478
-0.712921
-0.66951
-0.581027
-0.449255
-0.317085
-0.198449
-0.104272
-0.0279695
-0.900472
-0.757762
-0.734007
-0.684283
-0.585708
-0.446226
-0.310483
-0.191845
-0.0991411
-0.0258625
-0.906724
-0.786272
-0.762833
-0.705077
-0.594164
-0.445189
-0.304351
-0.185024
-0.093674
-0.023655
-0.918498
-0.824045
-0.80014
-0.733085
-0.607019
-0.446326
-0.298738
-0.177946
-0.0878365
-0.0213532
-0.933456
-0.870759
-0.846942
-0.769932
-0.625237
-0.45005
-0.293697
-0.17054
-0.0815519
-0.0189226
-0.952282
-0.926059
-0.905033
-0.817798
-0.650295
-0.457014
-0.28931
-0.162712
-0.074696
-0.0162841
-0.974646
-0.990749
-0.97684
-0.878841
-0.684364
-0.4681
-0.285711
-0.154355
-0.067121
-0.0133193
-1.0008
-1.06593
-1.06499
-0.956122
-0.730413
-0.484177
-0.282995
-0.145344
-0.0586769
-0.00988195
-0.926047
-0.763308
-0.709858
-0.650326
-0.567442
-0.444707
-0.322068
-0.205764
-0.11309
-0.031257
-0.916227
-0.757386
-0.702381
-0.646771
-0.568429
-0.449642
-0.326521
-0.209836
-0.114841
-0.0321591
-0.914102
-0.750346
-0.697414
-0.647658
-0.571439
-0.450463
-0.328211
-0.211085
-0.115138
-0.0321753
-0.91352
-0.742732
-0.691597
-0.647121
-0.573235
-0.454735
-0.331151
-0.212838
-0.115791
-0.0324084
-0.922854
-0.734211
-0.684839
-0.645861
-0.573425
-0.460322
-0.333836
-0.213889
-0.115865
-0.0325002
-0.813005
-0.925735
-0.998785
-1.03878
-1.0494
-1.045
-1.02751
-1.00928
-0.987866
-0.970528
-0.810521
-0.923632
-0.994642
-1.03139
-1.03836
-1.02975
-1.01013
-0.987701
-0.966588
-0.946842
-0.813122
-0.926805
-0.997478
-1.03328
-1.04
-1.03078
-1.01431
-0.991992
-0.976908
-0.960269
-0.818978
-0.93444
-1.00612
-1.04251
-1.05123
-1.04424
-1.03294
-1.01426
-1.00553
-0.990702
-0.828751
-0.946639
-1.02047
-1.05902
-1.07177
-1.07002
-1.06521
-1.05398
-1.04949
-1.03656
1.19295
1.18163
1.16469
1.14556
1.12512
1.10252
1.07759
1.05254
1.03201
1.02594
1.2949
1.29145
1.28333
1.27269
1.26027
1.24553
1.22843
1.21081
1.19683
1.19585
1.39274
1.39339
1.39075
1.38619
1.38022
1.37242
1.36262
1.35201
1.34402
1.34788
1.48136
1.4854
1.4875
1.48836
1.48813
1.48635
1.48267
1.47768
1.47441
1.48269
1.55897
1.56597
1.57193
1.57708
1.58132
1.58422
1.58529
1.58465
1.58493
1.59673
1.62334
1.63275
1.6419
1.65059
1.65854
1.6653
1.67027
1.673
1.67563
1.68979
1.67294
1.68419
1.69582
1.70727
1.71807
1.72781
1.73578
1.74098
1.74494
1.75959
1.70622
1.71866
1.73193
1.74525
1.75803
1.76991
1.7802
1.78761
1.79277
1.80484
1.72169
1.73447
1.74825
1.76205
1.77527
1.78758
1.7984
1.8066
1.81239
1.82426
1.71844
1.73066
1.7437
1.75655
1.76855
1.77933
1.78834
1.79475
1.79986
1.81618
-0.685769
-0.721713
-0.767367
-0.822529
-0.887274
-0.960644
-1.04295
-1.12793
-1.20377
-1.25681
-0.487025
-0.525847
-0.573055
-0.629004
-0.694451
-0.76957
-0.851657
-0.936979
-1.01372
-1.06759
-0.261915
-0.304177
-0.353531
-0.410521
-0.475925
-0.55016
-0.631549
-0.715059
-0.790911
-0.845109
-0.0249815
-0.0701613
-0.12136
-0.178981
-0.243789
-0.316343
-0.395203
-0.475113
-0.547789
-0.59837
0.20668
0.160244
0.108894
0.0524957
-0.00971836
-0.0784542
-0.152649
-0.227437
-0.295254
-0.339568
0.420695
0.375816
0.327035
0.274308
0.216845
0.153859
0.0861611
0.0182555
-0.0427622
-0.0799754
0.612012
0.571549
0.528045
0.481333
0.430581
0.374994
0.315266
0.255564
0.202528
0.172672
0.784356
0.749776
0.712887
0.673266
0.629999
0.582351
0.530992
0.479813
0.435103
0.412268
0.945944
0.916625
0.885041
0.851393
0.81483
0.774596
0.731285
0.688415
0.651859
0.635141
1.09361
1.06888
1.04049
1.01136
0.981019
0.948349
0.91349
0.879234
0.850791
0.839314
1.6825
1.62289
1.60212
1.56595
1.54866
1.53405
1.5151
1.49296
1.43196
1.33318
1.66821
1.62046
1.59973
1.56788
1.55287
1.54003
1.5243
1.50623
1.46381
1.40382
1.65587
1.61754
1.59791
1.56959
1.55588
1.54472
1.53232
1.52083
1.49585
1.47081
1.6453
1.61433
1.59676
1.57107
1.5582
1.54845
1.53915
1.53411
1.52384
1.52783
1.63631
1.61102
1.59531
1.57187
1.55988
1.55114
1.54444
1.54495
1.54699
1.57493
1.62871
1.60769
1.59354
1.57175
1.56085
1.55277
1.54809
1.5531
1.56534
1.61218
1.6223
1.60435
1.59162
1.57083
1.56108
1.55335
1.5501
1.5584
1.57864
1.63961
1.61696
1.60105
1.5896
1.56949
1.56061
1.55289
1.55046
1.56076
1.58656
1.65711
1.6127
1.59786
1.58752
1.56806
1.55954
1.55142
1.54923
1.56021
1.58894
1.66447
1.60954
1.59485
1.58551
1.56664
1.55799
1.54896
1.54648
1.55678
1.58573
1.6615
1.80392
1.63397
1.59158
1.54664
1.52561
1.50793
1.48002
1.44077
1.34738
1.24375
1.76482
1.63756
1.5995
1.55291
1.5289
1.50977
1.48066
1.44137
1.34635
1.22961
1.74204
1.63551
1.60013
1.55578
1.53188
1.51312
1.48467
1.44694
1.35523
1.23163
1.71921
1.63008
1.60108
1.55963
1.53692
1.51893
1.49206
1.45751
1.36971
1.24267
1.6993
1.62577
1.6023
1.56305
1.54257
1.52593
1.50224
1.47146
1.39052
1.26302
0.999633
0.894773
0.763334
0.60044
0.408577
0.193237
-0.034948
-0.262023
-0.474172
-0.660703
0.987842
0.884528
0.755646
0.59713
0.411023
0.200642
-0.0255137
-0.253645
-0.468583
-0.657644
1.00063
0.895337
0.764021
0.605283
0.420401
0.210745
-0.0162481
-0.246919
-0.465196
-0.65751
1.02746
0.91312
0.775244
0.615031
0.430229
0.220022
-0.00874044
-0.242548
-0.464629
-0.660628
1.07313
0.940475
0.789393
0.624275
0.437804
0.226454
-0.00416096
-0.241117
-0.467216
-0.667268
)
;

boundaryField
{
    left
    {
        type            zeroGradient;
    }
    right
    {
        type            fixedValue;
        value           uniform 0;
    }
    down
    {
        type            zeroGradient;
    }
    up
    {
        type            zeroGradient;
    }
    cylinder
    {
        type            zeroGradient;
    }
    defaultFaces
    {
        type            empty;
    }
}


// ************************************************************************* //
