/*--------------------------------*- C++ -*----------------------------------*\
| =========                 |                                                 |
| \\      /  F ield         | OpenFOAM: The Open Source CFD Toolbox           |
|  \\    /   O peration     | Version:  2406                                  |
|   \\  /    A nd           | Website:  www.openfoam.com                      |
|    \\/     M anipulation  |                                                 |
\*---------------------------------------------------------------------------*/
FoamFile
{
    version     2.0;
    format      ascii;
    arch        "LSB;label=32;scalar=64";
    class       surfaceScalarField;
    location    "1.55";
    object      phi;
}
// * * * * * * * * * * * * * * * * * * * * * * * * * * * * * * * * * * * * * //

dimensions      [0 3 -1 0 0 0 0];

oriented        oriented;

internalField   nonuniform List<scalar> 
3485
(
-0.00152453
0.0006961
0.000828433
-0.00335216
0.00075558
0.00107205
-0.00455664
0.000355101
0.000849374
-0.00472135
-0.00030535
0.000470065
-0.00256438
-0.00206356
-9.3414e-05
0.00325946
-0.00580372
-2.0118e-05
0.0132821
-0.0111927
0.00117002
0.027665
-0.0179628
0.00357988
0.0462133
-0.0256562
0.0071079
-0.0305288
0.010894
0.065848
-0.00092672
0.00162282
-0.00183472
0.00166358
-0.00230585
0.000826235
-0.000864069
-0.00174713
0.0044633
-0.00739093
0.0147445
-0.016085
0.0303741
-0.0268222
0.0511193
-0.0387081
0.0767812
-0.051318
-0.05925
0.105502
-0.000175708
0.00179853
-0.000130888
0.00161876
0.00171793
-0.00102259
0.008028
-0.0080572
0.0201829
-0.0195458
0.0382628
-0.0341649
0.0617084
-0.0502677
0.0894212
-0.0664209
0.120297
-0.0821942
-0.0928645
0.153912
0.000760844
0.00103768
0.00232411
5.54959e-05
0.00824844
-0.00694692
0.0207726
-0.0205814
0.040244
-0.0390171
0.0655872
-0.0595081
0.0949377
-0.0796183
0.126244
-0.0977277
0.157416
-0.113366
-0.124508
0.18906
0.000573348
0.000464336
0.00472712
-0.00409827
0.0161258
-0.0183456
0.0356667
-0.0401223
0.0619104
-0.0652608
0.0920345
-0.0896321
0.123057
-0.110641
0.152684
-0.127354
0.179279
-0.139961
-0.148724
0.203495
0.00115837
-0.000694037
0.00927276
-0.0122127
0.0267191
-0.0357919
0.0523304
-0.0657337
0.0821265
-0.0950568
0.111877
-0.119383
0.138703
-0.137467
0.161339
-0.14999
0.179733
-0.158356
-0.163794
0.194804
0.00265731
-0.00335134
0.015353
-0.0249084
0.0382426
-0.0586815
0.0666215
-0.0941125
0.0947052
-0.123141
0.118863
-0.143541
0.13804
-0.156643
0.152831
-0.164781
0.164431
-0.169955
-0.17341
0.174046
0.0047504
-0.00810174
0.0217642
-0.0419222
0.0472895
-0.0842068
0.0736235
-0.120446
0.0957532
-0.14527
0.112464
-0.160252
0.124734
-0.168914
0.134062
-0.174109
0.141614
-0.177507
-0.179839
0.148043
0.00684696
-0.0149487
0.0266456
-0.0617208
0.0508572
-0.108419
0.0717785
-0.141368
0.0871286
-0.16062
0.0978167
-0.17094
0.10549
-0.176587
0.111358
-0.179976
0.116137
-0.182287
-0.183905
0.120203
0.00865601
-0.0236047
0.0285878
-0.0816526
0.0485257
-0.128356
0.0633348
-0.156177
0.0730939
-0.17038
0.0794474
-0.177294
0.0838541
-0.180994
0.0872953
-0.183418
0.0901602
-0.185152
0.0923414
-0.186086
-0.000472974
0.00981463
-0.00934166
-0.00224015
0.0256756
-0.0239084
-0.0048863
0.0356726
-0.0330264
-0.00793248
0.0413726
-0.0383264
-0.0111114
0.044681
-0.0415021
-0.0142892
0.0467037
-0.0435259
-0.0173747
0.047961
-0.0448755
-0.0202888
0.0487131
-0.0457991
-0.0229735
0.0491067
-0.046422
0.0492402
-0.0254733
-0.0467404
0.000474551
0.00934008
0.000226922
0.0259232
-0.00101775
0.0369172
-0.0028996
0.0432544
-0.0050855
0.0468669
-0.00739197
0.0490102
-0.00972079
0.0502899
-0.0120049
0.0509973
-0.014195
0.0512968
0.0513184
-0.0162732
0.00149808
0.00784199
0.00321263
0.0242087
0.00396711
0.0361628
0.0038415
0.04338
0.00322506
0.0474834
0.00240064
0.0498346
0.00151153
0.051179
0.000622808
0.051886
-0.0002382
0.0521578
0.0521706
-0.00109043
0.00239669
0.00544531
0.00636602
0.0202394
0.0097595
0.0327693
0.0121436
0.040996
0.0138032
0.0458237
0.0150864
0.0485515
0.0162203
0.0500451
0.0173315
0.0507748
0.0185047
0.0509846
0.0508341
0.0198412
0.00277207
0.00267323
0.00870901
0.0143024
0.0149784
0.0264999
0.0204214
0.0355529
0.0249666
0.0412786
0.0289037
0.0446143
0.0325362
0.0464126
0.0360941
0.0472169
0.0397569
0.0473218
0.0468359
0.0437551
0.00225396
0.000419269
0.00902826
0.00752814
0.0175768
0.0179514
0.0260624
0.0270673
0.0338427
0.0334983
0.0409321
0.0375249
0.0475773
0.0397674
0.0540546
0.0407396
0.0606295
0.040747
0.0397803
0.067685
0.00126656
-0.00084729
0.00694408
0.00185062
0.0160122
0.00888322
0.026319
0.0167606
0.0366765
0.0231408
0.0466818
0.0275195
0.0563406
0.0301086
0.0658256
0.0312547
0.0753879
0.0311846
0.0295755
0.0855927
0.000759162
-0.00160645
0.00387388
-0.0012641
0.0109609
0.00179621
0.0205899
0.00713153
0.0313399
0.0123908
0.0425156
0.0163438
0.0538703
0.018754
0.0653846
0.0197403
0.0772038
0.0193655
0.0168719
0.0899073
0.000396191
-0.00200264
0.00123957
-0.00210748
0.00427582
-0.00124004
0.0102828
0.00112452
0.0184663
0.00420736
0.0281363
0.00667378
0.0389059
0.00798436
0.0506544
0.00799182
0.0634361
0.00658378
0.0029738
0.0773342
-0.00117421
-0.00220964
-0.00260031
-0.00100573
0.00310822
0.00976188
0.0189163
0.030488
0.0441796
0.0580475
-0.0349525
0.42777
-0.418291
-0.0413151
0.351972
-0.345609
-0.0402953
0.155626
-0.156646
-0.0166264
-0.0613333
0.0376643
0.0239054
-0.235726
0.195194
0.0646971
-0.306254
0.265462
0.0988696
-0.307239
0.273067
0.122578
-0.256597
0.232889
0.139657
-0.210634
0.193555
-0.11436
0.106656
-0.0303879
0.441885
-0.0442413
0.365825
-0.0443092
0.155694
-0.0177105
-0.0879319
0.0257522
-0.279188
0.0682864
-0.348788
0.103022
-0.341975
0.12671
-0.280284
0.144001
-0.227925
-0.122418
-0.0169227
0.457717
-0.0363424
0.385245
-0.0372949
0.156646
-0.00807278
-0.117154
0.0369942
-0.324255
0.0798346
-0.391629
0.112781
-0.374921
0.134233
-0.301737
0.150209
-0.243901
-0.130338
0.00682168
0.470736
-0.0156524
0.407719
-0.0186392
0.159633
0.0113541
-0.147147
0.0578004
-0.370702
0.100904
-0.434733
0.130651
-0.404668
0.147457
-0.318542
0.159815
-0.256259
-0.13713
0.0390012
0.47549
0.0145188
0.432201
0.0102402
0.163912
0.0371202
-0.174027
0.0838424
-0.417424
0.128709
-0.479599
0.156732
-0.432691
0.168187
-0.329996
0.174622
-0.262694
-0.141384
0.0755906
0.467585
0.052432
0.45536
0.0458483
0.170495
0.0673613
-0.19554
0.111317
-0.46138
0.157655
-0.525937
0.187133
-0.462169
0.195807
-0.338671
0.19576
-0.262647
-0.141919
0.114065
0.439112
0.0957749
0.47365
0.0863509
0.179919
0.103637
-0.212826
0.142569
-0.500312
0.186027
-0.569395
0.21692
-0.493062
0.226617
-0.348367
0.222353
-0.258384
-0.138837
0.147747
0.381272
0.139993
0.481404
0.129217
0.190696
0.145254
-0.228863
0.180126
-0.535184
0.216814
-0.606082
0.244758
-0.521006
0.256325
-0.359934
0.251314
-0.253373
-0.133819
0.173062
0.285545
0.182439
0.472027
0.16993
0.203205
0.185647
-0.24458
0.218993
-0.56853
0.250336
-0.637426
0.272114
-0.542784
0.282987
-0.370807
0.279051
-0.249437
-0.128998
0.174094
0.169498
0.211052
0.435069
0.205556
0.208701
0.219777
-0.258801
0.25191
-0.600663
0.28205
-0.667566
0.299026
-0.559761
0.306668
-0.378449
0.303312
-0.24608
-0.125686
0.279963
0.104215
-0.21468
0.377033
0.338
0.47374
0.111993
0.570316
-0.355376
0.62261
-0.652957
0.626262
-0.671218
0.594676
-0.528175
0.55718
-0.340953
0.52118
-0.21008
-0.10443
0.43146
0.13086
-0.458105
0.522411
0.247049
0.647336
-0.0129321
0.728541
-0.436582
0.740487
-0.664902
0.709949
-0.64068
0.657529
-0.475755
0.604699
-0.288123
0.55869
-0.164072
-0.0795265
0.611596
0.139414
-0.620151
0.693963
0.164683
0.79723
-0.1162
0.837777
-0.477128
0.81483
-0.641956
0.755642
-0.581491
0.68656
-0.406674
0.627202
-0.228764
0.577687
-0.114557
-0.0530173
0.745953
0.106714
-0.713253
0.825874
0.0847616
0.896304
-0.186629
0.913069
-0.493893
0.875839
-0.604726
0.797443
-0.503096
0.706656
-0.315886
0.633223
-0.155331
0.578894
-0.0602278
-0.0259966
0.826793
0.0549083
-0.774987
0.899564
0.0119901
0.95002
-0.237085
0.95111
-0.494983
0.892349
-0.545966
0.795802
-0.406549
0.697565
-0.217649
0.621263
-0.079029
0.567393
-0.00635775
-8.33088e-05
0.867478
0.00410043
-0.81667
0.93112
-0.051652
0.973042
-0.279007
0.954189
-0.47613
0.864294
-0.45607
0.74411
-0.286364
0.641379
-0.114919
0.573753
-0.0114033
0.532743
0.0346527
0.0188905
0.877341
-0.0383494
-0.834891
0.936325
-0.110636
0.955835
-0.298517
0.885894
-0.40619
0.756322
-0.326498
0.629199
-0.159241
0.54083
-0.0265501
0.492476
0.0369508
0.471157
0.055972
0.0273076
0.853003
-0.0705535
-0.820799
0.889837
-0.147471
0.843008
-0.251687
0.694512
-0.257694
0.530306
-0.162292
0.421778
-0.0507135
0.375153
0.0200756
0.36438
0.0477232
0.370287
0.0500651
0.0232284
0.724871
-0.0726715
-0.722753
0.6867
-0.109299
0.536431
-0.101418
0.343726
-0.064989
0.214369
-0.0329354
0.17042
-0.00676412
0.176849
0.0136458
0.200565
0.0240079
0.226696
0.0239334
0.0110001
0.308888
-0.381559
0.199589
0.0981708
0.0331818
0.000246331
-0.00651779
0.00712805
0.0311359
0.0550693
0.520303
0.0838442
-0.511805
0.527534
0.112972
0.534774
0.140803
0.540249
0.168571
0.543316
0.191737
0.532212
0.214599
0.495324
0.225947
0.421804
0.227433
0.307508
0.219798
0.158676
0.521553
0.0735045
-0.511213
0.533223
0.101302
0.545512
0.128514
0.558357
0.155726
0.569373
0.18072
0.580747
0.203226
0.577577
0.229117
0.569237
0.235773
0.52968
0.259355
0.23025
0.52927
0.0644765
-0.520242
0.541509
0.0890624
0.555147
0.114877
0.572011
0.138861
0.587055
0.165677
0.606179
0.184101
0.621142
0.214154
0.634477
0.222439
0.64014
0.253692
0.250239
0.542485
0.0554667
-0.533475
0.555367
0.0761808
0.569961
0.100283
0.588691
0.120131
0.608087
0.146281
0.630033
0.162156
0.654273
0.189913
0.675238
0.201474
0.700484
0.228446
0.237471
0.553667
0.0454928
-0.543693
0.567447
0.0624005
0.584167
0.0835631
0.604368
0.0999295
0.628051
0.122598
0.652993
0.137213
0.682974
0.159932
0.711004
0.173444
0.745094
0.194356
0.207577
0.556651
0.0347658
-0.545924
0.571124
0.0479271
0.589764
0.0649239
0.611608
0.0780855
0.638378
0.0958281
0.666952
0.108639
0.701067
0.125817
0.735921
0.138591
0.776193
0.154084
0.1671
0.547581
0.0237853
-0.5366
0.562406
0.0331017
0.58207
0.0452597
0.605315
0.0548409
0.63388
0.0672632
0.665509
0.0770098
0.70262
0.0887057
0.742442
0.0987686
0.787525
0.109001
0.119734
0.519435
0.0127611
-0.508411
0.534036
0.0185006
0.55404
0.0252553
0.577641
0.0312401
0.606943
0.037961
0.639848
0.0441051
0.678492
0.0500614
0.720839
0.0564219
0.768861
0.0609793
0.0677965
0.449723
0.00309409
-0.440056
0.462821
0.00540263
0.480576
0.00749996
0.501945
0.0098709
0.528169
0.0117367
0.558149
0.0141256
0.592912
0.0152983
0.631541
0.017793
0.674942
0.0175778
0.0199854
0.262269
-0.259175
0.267672
0.275172
0.285043
0.296779
0.310905
0.326203
0.343996
0.361574
0.0696693
0.132398
-0.121694
-0.0803736
0.0597573
0.134368
-0.124456
0.0506021
0.136484
-0.127329
0.0417741
0.139239
-0.130411
0.0330193
0.142166
-0.133411
0.0243513
0.144466
-0.135798
0.0160201
0.144456
-0.136124
0.00837427
0.13933
-0.131685
0.00234061
0.12094
-0.114906
0.0650917
-0.0627511
0.0671443
0.142421
-0.0771667
0.0573327
0.14418
0.0478756
0.145941
0.0388329
0.148282
0.0300873
0.150911
0.0216606
0.152892
0.0137933
0.152323
0.00678987
0.146334
0.00162039
0.126109
0.0667121
0.0607227
0.151697
-0.0699993
0.0513824
0.15352
0.0422385
0.155085
0.0334785
0.157042
0.0251552
0.159235
0.0173659
0.160682
0.0103282
0.159361
0.00432224
0.15234
0.000387737
0.130044
0.0670998
0.0508656
0.160147
-0.0593153
0.0424269
0.161958
0.0341668
0.163345
0.0262444
0.164964
0.0187492
0.16673
0.0118991
0.167532
0.00598888
0.165271
0.00117952
0.157149
-0.000950439
0.132174
0.0661494
0.0373641
0.167682
-0.0448994
0.0299369
0.169386
0.022629
0.170653
0.0156564
0.171937
0.00930261
0.173084
0.00386523
0.172969
-0.000413618
0.16955
-0.00313127
0.159867
-0.00288901
0.131931
0.0632604
0.0224307
0.174019
-0.0287678
0.016273
0.175543
0.0103206
0.176606
0.004676
0.177582
-0.00040645
0.178166
-0.00425391
0.176817
-0.00687462
0.17217
-0.00763659
0.160629
-0.00481003
0.129105
0.0584504
0.00338617
0.179436
-0.00880296
-0.00155948
0.180489
-0.00612642
0.181173
-0.0102057
0.181661
-0.0131819
0.181142
-0.0147475
0.178382
-0.0152396
0.172662
-0.0130734
0.158462
-0.00687925
0.122911
0.0515711
-0.0165478
0.183203
0.012781
-0.0200764
0.184018
-0.0232942
0.18439
-0.0254862
0.183853
-0.0261636
0.18182
-0.0259677
0.178186
-0.0241083
0.170803
-0.0185076
0.152862
-0.00861434
0.113017
0.0429568
-0.0398425
0.185738
0.037307
-0.0417868
0.185962
-0.042628
0.185232
-0.0421225
0.183347
-0.0407796
0.180477
-0.0384652
0.175872
-0.0332708
0.165609
-0.023455
0.143046
-0.009653
0.0992155
0.0333038
-0.0650368
0.064689
-0.0642264
-0.0624124
-0.0600588
-0.0568757
-0.0513834
-0.0419517
-0.027262
-0.00969905
0.099406
0.0325205
-0.110443
-0.0214834
0.0881642
0.0332843
-0.0220425
0.0767246
0.0341252
-0.0226856
0.0650792
0.0350471
-0.0234017
0.053224
0.0360083
-0.0241531
0.041174
0.0368455
-0.0247955
0.0290231
0.0370702
-0.0249193
0.0170998
0.0355317
-0.0236084
0.00639544
0.0300186
-0.0193142
0.0161028
-0.00970735
0.0999039
0.043682
-0.111065
0.0885869
0.0446014
0.0770779
0.0456342
0.0653761
0.0467488
0.0534805
0.0479039
0.0414055
0.0489205
0.0292365
0.0492392
0.0172695
0.0474988
0.00645961
0.0408284
0.0225624
0.0999954
0.0548053
-0.111119
0.0886816
0.0559151
0.077172
0.0571439
0.065464
0.0584567
0.0535592
0.0598087
0.0414749
0.0610048
0.0292991
0.061415
0.0173188
0.0594791
0.00646866
0.0516786
0.0290311
0.0988009
0.0658418
-0.109837
0.0876175
0.0670985
0.0762315
0.0685299
0.0646348
0.0700535
0.052829
0.0716145
0.040843
0.0729907
0.0287817
0.0734763
0.0169401
0.0713207
0.00625628
0.0623624
0.0352873
0.0966604
0.0766405
-0.107459
0.0857285
0.0780304
0.0746404
0.0796179
0.0633609
0.0813331
0.0518527
0.0831227
0.0401143
0.0847291
0.0282549
0.0853357
0.0165925
0.0829831
0.0060739
0.072881
0.0413612
0.0926343
0.0873721
-0.103366
0.0818668
0.0887979
0.070966
0.0905188
0.0599482
0.0923508
0.0488075
0.0942634
0.0375424
0.0959943
0.0262494
0.0966286
0.0152351
0.0939974
0.00541612
0.0827
0.0467774
0.0887576
0.0975249
-0.0989104
0.0785404
0.0990151
0.0681512
0.100908
0.0575363
0.102966
0.0467029
0.105097
0.0357262
0.106971
0.0247935
0.107561
0.0142514
0.10454
0.00500354
0.0919479
0.0517809
0.0818661
0.107295
-0.0916359
0.072171
0.10871
0.0624313
0.110648
0.0525961
0.112801
0.0426012
0.115092
0.0324602
0.117112
0.0223534
0.117668
0.0126446
0.114248
0.00425993
0.100333
0.0560408
0.0768241
0.115528
-0.0850574
0.0682847
0.11725
0.0591958
0.119737
0.0497053
0.122291
0.0399761
0.124821
0.0301615
0.126927
0.0205112
0.127318
0.0113866
0.123373
0.00368324
0.108036
0.0597241
0.0673943
-0.0735603
0.0601882
0.0525958
0.0444759
0.0358858
0.0270149
0.0182089
0.00989724
0.00302703
0.20152
-0.00926759
0.00573706
0.207761
-0.00798006
0.00173906
0.211237
0.0626846
-0.0661603
0.209569
0.134775
-0.133107
0.205334
0.163649
-0.159414
0.199512
0.172971
-0.16715
0.191069
0.164784
-0.156341
0.179565
0.170646
-0.159142
0.156956
0.186033
-0.163424
0.216846
-0.170333
0.2015
-0.0127774
0.207316
-0.0137963
0.209873
0.0601272
0.207296
0.137353
0.202518
0.168428
0.196439
0.17905
0.18862
0.172604
0.177686
0.18158
0.156501
0.207218
0.262281
0.20138
-0.0161673
0.206715
-0.0191312
0.208229
0.058613
0.204543
0.141039
0.198965
0.174005
0.192279
0.185736
0.184991
0.179892
0.174234
0.192337
0.15464
0.226811
0.305803
0.201139
-0.0193162
0.205948
-0.0239404
0.206296
0.058265
0.201273
0.146061
0.194676
0.180603
0.187177
0.193234
0.180337
0.186732
0.169316
0.203359
0.151505
0.244622
0.34747
0.200774
-0.0221009
0.205025
-0.0281914
0.204068
0.0592228
0.19747
0.152659
0.189706
0.188367
0.181329
0.201612
0.174813
0.193248
0.163049
0.215123
0.147211
0.26046
0.387222
0.200288
-0.0243987
0.203943
-0.0318472
0.201517
0.0616491
0.193153
0.161023
0.184187
0.197334
0.174934
0.210865
0.168502
0.199679
0.155661
0.227964
0.142054
0.274068
0.42591
0.199663
-0.0260719
0.202646
-0.0348299
0.198598
0.0656964
0.188393
0.171228
0.178286
0.207441
0.16816
0.220991
0.16147
0.206369
0.147461
0.241973
0.135872
0.285657
0.462871
0.19885
-0.0269319
0.201015
-0.0369955
0.19529
0.0714221
0.183315
0.183202
0.172162
0.218594
0.161159
0.231994
0.153883
0.213644
0.138844
0.257012
0.129411
0.295089
0.500647
0.197762
-0.0267045
0.1989
-0.0381335
0.191631
0.0786913
0.178094
0.19674
0.165983
0.230705
0.154097
0.24388
0.146046
0.221696
0.130654
0.272404
0.122245
0.303499
0.537834
0.196429
-0.0251438
0.196149
-0.0378534
0.187705
0.0871351
0.172867
0.211578
0.16002
0.243552
0.147216
0.256684
0.138527
0.230385
0.121995
0.288937
0.116313
0.30918
0.580587
0.3038
-0.0269333
0.31023
-0.0442839
0.318648
0.0787173
0.316631
0.213594
0.315861
0.244322
0.307924
0.264622
0.315108
0.2232
0.312762
0.291282
0.358992
0.26295
0.511162
0.428417
0.301988
-0.0269113
0.307014
-0.0493101
0.320842
0.0648896
0.327009
0.207428
0.334326
0.237005
0.335715
0.263233
0.350047
0.208868
0.353881
0.287448
0.37778
0.239052
0.442007
0.446935
0.300085
-0.0249856
0.303918
-0.0531432
0.322071
0.0467358
0.344284
0.185215
0.35956
0.221729
0.377754
0.245038
0.397874
0.188748
0.40942
0.275903
0.427545
0.220926
0.37928
0.490272
0.298841
-0.0218161
0.301369
-0.0556712
0.321748
0.0263562
0.363087
0.143876
0.384592
0.200225
0.417655
0.211974
0.444605
0.161799
0.459981
0.260526
0.48743
0.193477
0.325562
0.541149
0.299152
-0.0189576
0.299932
-0.0564519
0.321951
0.0043373
0.375139
0.0906885
0.404432
0.170932
0.444623
0.171784
0.475943
0.130479
0.498138
0.238331
0.531266
0.160349
0.274344
0.582483
0.301491
-0.018438
0.301602
-0.0565629
0.324389
-0.0184497
0.377839
0.0372384
0.415989
0.132782
0.459545
0.128227
0.492539
0.097485
0.522995
0.207875
0.555021
0.128323
0.22236
0.607005
0.305722
-0.0221496
0.306984
-0.0578253
0.327423
-0.0388884
0.370072
-0.0054103
0.413808
0.0890453
0.459083
0.0829529
0.490105
0.0664629
0.529522
0.168457
0.561439
0.0964059
0.167125
0.616675
0.309278
-0.0294174
0.30978
-0.0583275
0.323848
-0.0529556
0.346048
-0.0276112
0.389869
0.045225
0.432213
0.0406088
0.456702
0.0419738
0.509026
0.116133
0.544287
0.0611452
0.108276
0.603136
0.307949
-0.0353565
0.299449
-0.0498273
0.293816
-0.0473229
0.289526
-0.0233213
0.322845
0.0119065
0.349389
0.0140652
0.370407
0.0209552
0.435755
0.0507846
0.470953
0.0259478
0.0481704
0.531059
0.266654
0.216826
0.169503
0.146182
0.158089
0.172154
0.193109
0.243894
0.269842
0.318012
0.442859
-0.0948164
0.45116
-0.0854669
0.458836
-0.0776761
0.4664
-0.0668791
0.474248
-0.0527473
0.481356
-0.0358762
0.488762
-0.0162082
0.495852
0.00569022
0.503412
0.0297473
0.0562957
0.455864
-0.103745
0.464186
-0.0937889
0.470892
-0.0843826
0.476249
-0.0722358
0.48141
-0.0579085
0.486007
-0.0404737
0.491104
-0.021305
0.496862
-6.74062e-05
0.503419
0.0231903
0.0485016
0.493421
-0.106894
0.49672
-0.0970872
0.499125
-0.0867879
0.500228
-0.0733385
0.501252
-0.0589326
0.502439
-0.041661
0.504754
-0.0236196
0.50781
-0.00312347
0.512984
0.0180158
0.0412443
0.537204
-0.102949
0.533085
-0.0929685
0.52889
-0.0825927
0.524953
-0.0694019
0.521805
-0.0557842
0.520013
-0.0398687
0.519901
-0.0235074
0.521994
-0.00521662
0.526183
0.0138265
0.0339518
0.571074
-0.0915401
0.560504
-0.0823982
0.550906
-0.0729947
0.542984
-0.0614802
0.536782
-0.049582
0.532876
-0.035963
0.531194
-0.0218249
0.532516
-0.00653909
0.53631
0.0100327
0.026569
0.591083
-0.0756181
0.576274
-0.0675894
0.563181
-0.0599017
0.552376
-0.0506744
0.543917
-0.0411237
0.538151
-0.030197
0.535146
-0.01882
0.535377
-0.00676957
0.538782
0.00662801
0.0194266
0.596877
-0.0558202
0.579079
-0.0497921
0.563282
-0.0441048
0.550034
-0.0374259
0.539562
-0.0306521
0.532066
-0.0227004
0.527888
-0.014642
0.526963
-0.0058449
0.529877
0.00371409
0.0127035
0.580024
-0.0327083
0.559852
-0.0296204
0.541977
-0.0262295
0.527008
-0.0224574
0.514984
-0.0186278
0.506272
-0.0139886
0.501107
-0.00947716
0.499544
-0.00428212
0.502311
0.000947975
0.00660331
0.509517
-0.0111671
0.490064
-0.0101669
0.473138
-0.00930346
0.458993
-0.00831227
0.447616
-0.00725124
0.43943
-0.00580238
0.434365
-0.00441213
0.432693
-0.00261
0.434564
-0.000923464
0.00111204
0.306845
0.296678
0.287374
0.279062
0.271811
0.266009
0.261596
0.258986
0.258063
0.00628456
0.0507179
-0.0570025
0.0118556
0.113823
-0.119394
0.0139786
0.144125
-0.146248
0.0141847
0.156128
-0.156334
0.0140798
0.160506
-0.160401
0.0129009
0.162859
-0.16168
0.0107333
0.16256
-0.160392
0.00835489
0.159498
-0.15712
0.00626601
0.153419
-0.15133
0.142218
0.00489555
-0.140847
0.00778918
0.0429287
0.0168032
0.104809
0.0224758
0.138452
0.0253885
0.153216
0.0270937
0.1588
0.0283491
0.161604
0.02866
0.162249
0.0281793
0.159979
0.0273047
0.154293
0.143448
0.0260744
0.00849515
0.0344336
0.0205841
0.0927201
0.0298542
0.129182
0.0358145
0.147255
0.039716
0.154899
0.0429377
0.158382
0.0454928
0.159694
0.0470085
0.158463
0.0474212
0.153881
0.144456
0.0464133
0.00827271
0.0261609
0.0226278
0.0783651
0.0353367
0.116473
0.0445019
0.13809
0.0509619
0.148439
0.0561177
0.153226
0.060533
0.155279
0.0639307
0.155065
0.0658576
0.151954
0.144637
0.0656769
0.00732306
0.0188378
0.0226494
0.0630387
0.0382216
0.100901
0.0506363
0.125675
0.0598621
0.139213
0.0671169
0.145971
0.0732657
0.14913
0.0783902
0.149941
0.0820087
0.148335
0.143369
0.0832763
0.00598969
0.0128481
0.0208168
0.0482116
0.0381219
0.0835959
0.0533936
0.110404
0.0654245
0.127182
0.0748939
0.136502
0.0827324
0.141291
0.0893498
0.143323
0.0945158
0.143169
0.14047
0.0974152
0.00459376
0.00825438
0.0177406
0.0350648
0.0353402
0.0659963
0.0526531
0.0930909
0.0673102
0.112525
0.0791482
0.124664
0.0888978
0.131542
0.0971843
0.135037
0.104124
0.136229
0.13527
0.109324
0.00330233
0.00495205
0.0140441
0.024323
0.0304303
0.0496101
0.0485373
0.0749839
0.0652235
0.0958388
0.0792645
0.110623
0.0908131
0.119993
0.100478
0.125372
0.108637
0.128071
0.128795
0.115111
0.00222401
0.00272803
0.0103622
0.0161848
0.0242947
0.0356776
0.0417033
0.0575753
0.0595488
0.0779933
0.0757589
0.0944127
0.0896204
0.106132
0.101335
0.113658
0.111483
0.117922
0.119599
0.120679
0.00141368
0.00131436
0.00715659
0.0104419
0.0178989
0.0249353
0.032917
0.0425572
0.0501447
0.0607656
0.0673563
0.0772011
0.0830531
0.0904347
0.0966061
0.100105
0.108029
0.1065
0.109839
0.11779
0.000850757
0.000463598
0.00464152
0.00665114
0.012135
0.0174418
0.023623
0.0310692
0.0383305
0.0460581
0.0547162
0.0608154
0.0712227
0.0739282
0.0867731
0.0845542
0.100754
0.0925185
0.0981798
0.112413
0.000401415
6.21838e-05
0.00258806
0.0044645
0.00711439
0.0129155
0.0146905
0.0234931
0.0255146
0.035234
0.0389851
0.0473449
0.0540008
0.0589125
0.0694381
0.069117
0.0843756
0.0775809
0.0843819
0.0981735
6.14964e-05
6.87476e-07
0.000632057
0.00389394
0.00234915
0.0111984
0.00605008
0.0197921
0.0123699
0.0289142
0.0214381
0.0382767
0.0327696
0.047581
0.0455304
0.0563562
0.0589325
0.0641788
0.0705873
0.0727271
-0.000266092
0.00026678
-0.00126227
0.00489011
-0.00194239
0.0118785
-0.00144237
0.0192921
0.000882536
0.0265893
0.00546875
0.0336905
0.0123945
0.0406552
0.0212831
0.0474676
0.0316136
0.0538483
0.058927
0.0432739
-0.000835557
0.00110234
-0.00300114
0.0070557
-0.00523989
0.0141173
-0.00678623
0.0208385
-0.0071549
0.0269579
-0.00594498
0.0324806
-0.00281186
0.0375221
0.00233714
0.0423187
0.009272
0.0469134
0.0505854
0.0176136
-0.00141147
0.00251381
-0.00442108
0.0100653
-0.0076462
0.0173424
-0.0103385
0.0235308
-0.0121455
0.0287649
-0.0128882
0.0332232
-0.0123253
0.0369592
-0.0101821
0.0401755
-0.00649183
0.0432231
0.0456359
-0.00154231
-0.00190272
0.00441653
-0.00559046
0.013753
-0.00953632
0.0212883
-0.012967
0.0269614
-0.0155522
0.0313502
-0.0172265
0.0348974
-0.0180485
0.0377812
-0.0179333
0.0400603
-0.0167676
0.0420575
0.0435307
-0.0146625
-0.00202644
0.00644297
-0.00590146
0.0176281
-0.0101403
0.0255271
-0.0139973
0.0308185
-0.0171482
0.0345011
-0.0194843
0.0372336
-0.0210327
0.0393295
-0.0219247
0.0409523
-0.0222906
0.0424234
0.0434223
-0.0221821
-0.00172046
0.00816343
-0.00521555
0.0211232
-0.00922578
0.0295373
-0.0130954
0.0346881
-0.016547
0.0379527
-0.019479
0.0401656
-0.0219047
0.0417553
-0.0239134
0.0429609
-0.0254711
0.0439811
0.0446103
-0.0266591
-0.00117822
-0.0039635
-0.00745258
-0.0110909
-0.0146404
-0.0180006
-0.0211209
-0.023959
-0.0263999
-0.02853
0.0987256
0.417702
-0.404015
0.0693475
0.273565
-0.244187
0.0448202
0.17199
-0.147463
0.0382
0.0761504
-0.0695302
0.043401
0.00404649
-0.00924753
0.0558006
-0.0467061
0.0343065
0.0717123
-0.0729217
0.05701
0.0871611
-0.0758806
0.0604318
0.101725
-0.0689395
0.0543754
-0.0419657
0.0325725
0.0862576
0.429618
0.0587578
0.301065
0.0398676
0.19088
0.0382061
0.0778119
0.0466195
-0.00436695
0.0605672
-0.0606538
0.0768538
-0.0892083
0.0921687
-0.0911955
0.106205
-0.0829755
-0.0506157
0.0676158
0.434729
0.0452123
0.323469
0.0332013
0.202891
0.0365647
0.0744486
0.0484391
-0.0162414
0.0644965
-0.0767111
0.0814229
-0.106135
0.0966752
-0.106448
0.110187
-0.0964873
-0.0586074
0.0464322
0.431571
0.0301185
0.339782
0.0256656
0.207344
0.033885
0.0662292
0.0493425
-0.0316989
0.0676986
-0.0950673
0.0856066
-0.124043
0.10096
-0.121802
0.114055
-0.109582
-0.0660377
0.0257493
0.423435
0.0152019
0.35033
0.0183244
0.204221
0.030667
0.0538867
0.0495306
-0.0505625
0.0702393
-0.115776
0.0894343
-0.143238
0.105116
-0.137483
0.11797
-0.122437
-0.0730068
0.00656692
0.415326
0.00180639
0.35509
0.0113261
0.194702
0.0266279
0.0385849
0.0486793
-0.0726139
0.0718899
-0.138987
0.0927208
-0.164069
0.10904
-0.153802
0.121915
-0.135312
-0.0796456
-0.00956925
0.410233
-0.00854485
0.354066
0.00385212
0.182305
0.0209726
0.0214644
0.0462005
-0.0978418
0.0722687
-0.165055
0.0951962
-0.186996
0.112541
-0.171147
0.125771
-0.148541
-0.0861278
-0.0215113
0.409562
-0.0173677
0.349922
-0.00520436
0.170141
0.0130062
0.0032538
0.0416417
-0.126477
0.0711198
-0.194533
0.0966921
-0.212568
0.11548
-0.189936
0.129421
-0.162482
-0.0926583
-0.0296447
0.412548
-0.0256595
0.345937
-0.0166848
0.161167
0.00292941
-0.0163604
0.0352073
-0.158755
0.0686387
-0.227964
0.0973168
-0.241247
0.11788
-0.210499
0.132838
-0.17744
-0.0994447
-0.0342732
-0.0339452
-0.0294245
-0.00812063
0.0283181
0.0658162
0.0976365
0.120026
0.136142
0.00689688
0.0263499
-0.0332468
0.00122653
0.00567035
0.000239677
0.000986848
-0.00125612
0.0014958
-0.00239799
0.00114187
-0.00154681
-0.000851185
0.00112377
-0.00267058
0.00564844
-0.00452468
0.0102152
-0.0045668
-0.00283336
0.0627084
0.101803
-0.138161
0.0321824
0.0361963
0.0169482
0.016221
0.00797615
0.0104679
0.00736962
0.00174839
0.0145803
-0.00806183
0.0254216
-0.0135119
0.0367465
-0.0158496
0.0461373
-0.0139576
-0.00841398
0.129491
0.208998
-0.236687
0.0733763
0.0923112
0.0430329
0.0465644
0.0288316
0.0246692
0.0276155
0.00296448
0.0363598
-0.0168061
0.04955
-0.0267021
0.0631885
-0.0294881
0.0751482
-0.0259172
-0.0156683
0.179254
0.319427
-0.289683
0.106409
0.165156
0.0624624
0.0905114
0.043048
0.0440835
0.0401768
0.0058357
0.0485392
-0.0251685
0.0630379
-0.0412008
0.078043
-0.0444933
0.0917763
-0.0396505
-0.0239461
0.209836
-0.294423
0.130804
0.073853
0.0484062
0.0449944
0.0541324
0.0699417
0.0858802
0.100605
0.0116203
0.000195872
-0.0118161
0.0127245
-0.00110428
0.0148592
-0.00213466
0.0176846
-0.00282536
0.021107
-0.00342245
0.024335
-0.00322801
0.0280268
-0.00369175
0.0303942
-0.00236747
0.0332146
-0.00282035
-3.21861e-05
0.0306299
0.000118188
-0.0305522
0.0340353
-0.0045097
0.0404325
-0.00853177
0.0494712
-0.0118641
0.06108
-0.0150312
0.0739856
-0.0161336
0.0893841
-0.0190903
0.104192
-0.017175
0.121683
-0.0203116
-0.0165103
0.0456911
-0.000660271
-0.0449127
0.0512551
-0.0100737
0.061372
-0.0186486
0.0759204
-0.0264125
0.0947519
-0.0338627
0.116998
-0.0383794
0.143415
-0.0455077
0.171284
-0.0450437
0.203833
-0.0528609
-0.0493641
0.0570917
-0.00233022
-0.0554218
0.0644151
-0.0173971
0.0773419
-0.0315753
0.095844
-0.0449147
0.119408
-0.0574269
0.148005
-0.0669759
0.179883
-0.077386
0.21542
-0.0805807
0.25317
-0.090611
-0.0858765
0.0654074
-0.062842
0.0740847
0.0889226
0.109685
0.135534
0.165973
0.197911
0.232442
0.26251
0.0701652
-0.0663367
0.0727587
-0.0765872
0.0629679
-0.0673444
0.0745416
0.0554125
-0.0686744
0.0762298
0.0474261
-0.0700114
0.0779978
0.0389746
-0.0712491
0.0797007
0.0301324
-0.0721492
0.0809914
0.0211132
-0.0720477
0.0810669
0.0122701
-0.0694465
0.0782896
0.00440186
-0.0606557
0.068524
-0.0346312
0.039033
0.0758169
-0.0584364
-0.0837172
0.067633
-0.0591605
0.0590015
-0.0600428
0.0499635
-0.0609735
0.040627
-0.0619126
0.031136
-0.0626583
0.0216861
-0.0625978
0.0125721
-0.0603325
0.00452792
-0.0526115
-0.0301032
0.0773803
-0.0495596
-0.0862571
0.0683998
-0.05018
0.0592853
-0.0509283
0.0500485
-0.0517367
0.0406941
-0.0525581
0.031246
-0.0532102
0.0218108
-0.0531626
0.0126617
-0.0511835
0.00456547
-0.0445152
-0.0255378
0.0810079
-0.0404067
-0.0901608
0.0717599
-0.0409321
0.0623666
-0.0415349
0.0527943
-0.0421644
0.0430237
-0.0427874
0.0330877
-0.0432742
0.0231312
-0.0432061
0.0134798
-0.0415321
0.00493369
-0.0359691
-0.0206041
0.0839743
-0.0308765
-0.0935044
0.0743036
-0.0312614
0.0644593
-0.0316906
0.0544297
-0.0321349
0.0442233
-0.032581
0.0338991
-0.03295
0.0236212
-0.0329282
0.0137363
-0.0316472
0.00504874
-0.0272816
-0.0155553
0.0869627
-0.0210118
-0.0968275
0.0769324
-0.0212311
0.0667134
-0.0214716
0.0562965
-0.021718
0.0456905
-0.021975
0.0349577
-0.0222172
0.0242867
-0.0222573
0.014093
-0.0214534
0.00522198
-0.0184106
-0.0103333
0.089903
-0.0108008
-0.100114
0.079506
-0.0108341
0.0688976
-0.0108632
0.0580614
-0.0108818
0.046997
-0.0109106
0.0357631
-0.0109833
0.0245851
-0.0110792
0.0140227
-0.010891
0.00511386
-0.00950176
-0.00521948
0.0927177
-0.000252734
-0.103266
0.0819737
-9.0084e-05
0.0709983
0.000112242
0.0597599
0.000356608
0.0482381
0.0006112
0.036463
0.000791738
0.0246486
0.000735151
0.0134854
0.00027217
0.00445491
-0.000471215
-0.000764577
0.0954041
0.0105275
-0.106184
0.0844152
0.0108988
0.0731931
0.0113343
0.0617163
0.0118334
0.0499642
0.0123633
0.0379495
0.0128065
0.0258296
0.012855
0.0142069
0.0118948
0.00463357
0.00910215
0.00386899
0.0976703
-0.108626
0.0865266
0.0751754
0.0636071
0.0518173
0.0398283
0.027764
0.0160504
0.00583835
0.0146012
-0.138915
-0.0165336
0.0111712
-0.1479
0.00717582
-0.153124
0.00303825
-0.156255
-0.000836366
-0.157806