/*--------------------------------*- C++ -*----------------------------------*\
| =========                 |                                                 |
| \\      /  F ield         | OpenFOAM: The Open Source CFD Toolbox           |
|  \\    /   O peration     | Version:  2406                                  |
|   \\  /    A nd           | Website:  www.openfoam.com                      |
|    \\/     M anipulation  |                                                 |
\*---------------------------------------------------------------------------*/
FoamFile
{
    version     2.0;
    format      ascii;
    arch        "LSB;label=32;scalar=64";
    class       volVectorField;
    location    "1.55";
    object      U;
}
// * * * * * * * * * * * * * * * * * * * * * * * * * * * * * * * * * * * * * //

dimensions      [0 1 -1 0 0 0 0];

internalField   nonuniform List<vector> 
1800
(
(-0.00304226 -0.00398796 0)
(-0.00845331 -0.0133396 3.58391e-21)
(-0.0131189 -0.0211567 -4.90263e-20)
(-0.0128764 -0.0232325 8.84556e-20)
(-0.00982229 -0.0268137 1.10043e-19)
(0.0217096 -0.0233767 3.20641e-20)
(0.0760588 -0.0190967 -3.55466e-20)
(0.155267 -0.0119168 -1.82522e-19)
(0.256551 0.00341851 0)
(0.339507 0.0207053 2.22404e-20)
(-0.015445 0.00685864 1.63531e-20)
(-0.0207112 0.00490126 3.04394e-20)
(-0.0172914 -0.00318627 6.09542e-20)
(-0.00433211 -0.0108264 1.01307e-19)
(0.0363077 -0.0261526 -6.97684e-21)
(0.121151 -0.0394711 -1.4095e-19)
(0.2397 -0.0508328 5.11866e-20)
(0.385785 -0.0567858 2.70509e-19)
(0.561384 -0.0432809 -7.24856e-22)
(0.672983 -0.0438589 -2.02269e-20)
(-0.0199806 0.0118786 1.35845e-20)
(-0.0190367 0.0111452 -5.60945e-20)
(-0.00741016 0.00466128 -5.02128e-20)
(0.0467393 -0.0068738 2.22138e-20)
(0.159101 -0.024046 -1.8657e-20)
(0.32274 -0.0397265 4.07357e-20)
(0.52065 -0.0494737 -3.58257e-20)
(0.735975 -0.0521496 -2.74898e-19)
(0.972901 -0.0354204 1.14628e-19)
(1.12406 -0.0314056 1.48867e-19)
(-0.0162417 0.0119389 1.52403e-20)
(-0.0112818 0.0149598 7.77895e-20)
(0.0406378 0.00172768 -6.03971e-20)
(0.173074 -0.015461 -3.94946e-22)
(0.37679 -0.0315077 1.18e-19)
(0.627406 -0.04039 -3.48049e-20)
(0.896704 -0.0390924 -1.17626e-19)
(1.15968 -0.0283031 -9.37245e-20)
(1.40983 -0.00723711 -1.41076e-20)
(1.58997 0.0115595 9.52751e-20)
(-0.00701493 0.00484497 6.44606e-21)
(0.0164062 -0.00102188 5.6112e-20)
(0.148388 -0.0139109 3.12989e-20)
(0.382753 -0.0282581 -8.43344e-20)
(0.685692 -0.0327075 -3.97637e-20)
(1.01011 -0.0241917 6.21909e-20)
(1.31594 -0.00504116 5.48775e-20)
(1.58009 0.0205268 1.08509e-19)
(1.79465 0.0491238 -2.48577e-19)
(1.95039 0.0717253 -2.08159e-19)
(-0.00111875 0.00198315 4.08314e-22)
(0.0889562 -0.0163105 1.41536e-19)
(0.332133 -0.0262446 1.03158e-19)
(0.68258 -0.0246109 -1.31687e-19)
(1.06609 -0.00681774 1.28924e-19)
(1.41679 0.0222059 -1.06159e-20)
(1.7006 0.0548965 1.4076e-19)
(1.91137 0.0855182 2.34451e-19)
(2.05903 0.110663 -3.27157e-19)
(2.15612 0.128714 -2.58567e-19)
(0.0190199 -0.00141339 -4.15034e-20)
(0.219289 -0.0268573 -2.65629e-19)
(0.595552 -0.0201708 3.02264e-20)
(1.04306 0.00921417 3.52958e-19)
(1.44994 0.0504201 -2.11306e-20)
(1.76131 0.0916314 -2.6232e-19)
(1.97412 0.125821 -1.74922e-19)
(2.11017 0.151015 5.04609e-19)
(2.19584 0.168036 5.69673e-19)
(2.25066 0.177198 5.4279e-20)
(0.0663127 -0.00402679 4.42632e-20)
(0.410776 -0.0242293 2.76955e-20)
(0.91513 0.0151186 -1.52729e-19)
(1.40019 0.0733201 8.15148e-20)
(1.76197 0.126606 -4.52755e-21)
(1.99373 0.166488 -8.38935e-19)
(2.13147 0.192907 -3.78854e-21)
(2.21407 0.209254 5.98305e-19)
(2.26762 0.218487 -3.65642e-19)
(2.30471 0.223814 -3.70214e-19)
(0.14023 -0.00263015 1.75099e-19)
(0.651325 0.00260775 1.60096e-19)
(1.23725 0.0821221 -3.87806e-19)
(1.69029 0.157426 -9.37891e-20)
(1.97213 0.209169 4.81922e-21)
(2.1296 0.240394 3.13397e-19)
(2.21744 0.258067 -5.75341e-19)
(2.27033 0.267961 -2.96112e-19)
(2.30439 0.272986 6.58191e-19)
(2.32671 0.273919 1.44135e-19)
(0.239316 0.00921178 5.00449e-21)
(0.908464 0.0620435 4.25148e-19)
(1.50848 0.173649 -3.62989e-19)
(1.89229 0.25145 -1.70419e-19)
(2.09903 0.294388 1.84809e-19)
(2.20337 0.315473 -1.93231e-19)
(2.25851 0.325719 3.70844e-19)
(2.29047 0.331073 2.47268e-20)
(2.31408 0.331707 -2.53895e-19)
(2.33229 0.330342 -8.04339e-20)
(-0.0057566 0.121573 8.46419e-21)
(-0.0180409 0.312579 -8.2493e-21)
(-0.0367808 0.431078 -1.62243e-20)
(-0.0552904 0.498569 2.22088e-20)
(-0.0725838 0.537998 -6.28097e-22)
(-0.0886195 0.562278 -7.28143e-21)
(-0.10314 0.577599 -5.68805e-21)
(-0.11571 0.587149 1.25201e-20)
(-0.12632 0.592597 -6.22817e-23)
(-0.135867 0.594431 -8.14757e-21)
(-0.012261 0.121732 -7.30594e-21)
(-0.0345748 0.32543 -1.85064e-23)
(-0.0549801 0.454957 -2.80415e-21)
(-0.073019 0.527792 3.33049e-20)
(-0.0888419 0.568902 4.13767e-20)
(-0.102956 0.593113 1.34738e-20)
(-0.11554 0.607313 -3.61255e-20)
(-0.126461 0.614884 0)
(-0.135876 0.617798 2.15188e-21)
(-0.144591 0.617261 -9.39229e-21)
(-0.0163077 0.109181 7.13197e-23)
(-0.047707 0.316411 5.30719e-20)
(-0.0684723 0.458961 5.17801e-20)
(-0.0844825 0.541351 -3.45952e-20)
(-0.096985 0.587268 3.26916e-20)
(-0.106928 0.613513 7.34993e-21)
(-0.114936 0.628476 3.54544e-20)
(-0.121277 0.63615 2.06388e-20)
(-0.12615 0.638735 7.84352e-20)
(-0.129994 0.637785 1.01387e-19)
(-0.0158217 0.0844128 1.54341e-21)
(-0.0532467 0.281326 7.70879e-20)
(-0.072899 0.436526 -1.56286e-20)
(-0.0850978 0.532863 -3.97541e-20)
(-0.0921675 0.587683 -5.03297e-22)
(-0.0957441 0.618561 -3.64387e-20)
(-0.0969779 0.635849 9.65514e-21)
(-0.0964551 0.644851 0)
(-0.0944792 0.648363 -1.29508e-19)
(-0.0910644 0.648119 -1.05271e-19)
(-0.0102022 0.0510025 4.28401e-20)
(-0.0483691 0.218936 -1.68888e-20)
(-0.0662841 0.380849 -7.38006e-20)
(-0.0745887 0.493842 1.37305e-20)
(-0.0757035 0.563009 -1.1878e-20)
(-0.0720468 0.603605 -5.19759e-20)
(-0.0654731 0.627052 3.46799e-20)
(-0.0568757 0.639944 3.94124e-20)
(-0.0464086 0.645801 -1.35625e-19)
(-0.0332292 0.646353 -1.55566e-19)
(-0.00173129 0.0165746 2.26804e-20)
(-0.0334527 0.136244 -2.86477e-20)
(-0.049573 0.290521 6.4306e-20)
(-0.0556483 0.416443 -2.68067e-21)
(-0.0520898 0.503039 -7.9163e-20)
(-0.0413864 0.558454 -2.90926e-20)
(-0.02618 0.592521 -4.26441e-20)
(-0.00801309 0.612355 1.20529e-19)
(0.0128537 0.622227 -1.12894e-19)
(0.0382114 0.623681 -1.63858e-19)
(0.00377213 -0.00274987 -2.77744e-20)
(-0.0117535 0.0538118 5.04694e-20)
(-0.0257438 0.17695 3.81296e-21)
(-0.0320776 0.300839 -1.72157e-19)
(-0.0273282 0.399207 4.00091e-20)
(-0.0125989 0.469848 1.11291e-19)
(0.00936037 0.517645 -3.29061e-20)
(0.036427 0.54811 7.36181e-20)
(0.0679779 0.56512 6.83947e-20)
(0.106374 0.567827 2.33688e-20)
(0.0104396 -0.0117645 -6.02852e-22)
(0.00883502 0.00107048 -2.04527e-20)
(-0.00083858 0.0706265 -7.99772e-20)
(-0.00840172 0.168874 8.90871e-20)
(-0.00638308 0.261881 1.70681e-19)
(0.00706195 0.337139 -4.71752e-20)
(0.0305804 0.393421 -1.60854e-21)
(0.0624081 0.433057 -4.93599e-20)
(0.102125 0.458206 -1.48296e-19)
(0.151294 0.460786 2.64358e-20)
(0.0181494 -0.0198534 -3.00271e-21)
(0.0197808 -0.0212144 -9.94246e-21)
(0.0195565 -0.00326903 3.06619e-20)
(0.00692393 0.0498911 5.15879e-21)
(0.0022853 0.119274 2.39197e-21)
(0.0102135 0.182514 -1.856e-19)
(0.0308894 0.233757 -7.47511e-20)
(0.0639697 0.272938 -1.17346e-19)
(0.110248 0.299893 1.80223e-21)
(0.169778 0.298203 2.13042e-19)
(0.00929657 -0.0182362 -2.24323e-21)
(0.00655061 -0.0236576 3.63968e-22)
(-0.000293149 -0.0201998 1.04382e-19)
(-0.0077603 -0.0125546 1.26508e-19)
(-0.00852222 0.012724 -7.86502e-20)
(0.000199094 0.0463471 -3.44392e-19)
(0.0238852 0.0777738 -3.24006e-20)
(0.066052 0.104195 2.31731e-19)
(0.127184 0.123365 2.57727e-19)
(0.203202 0.123228 2.11899e-19)
(-0.178448 0.584934 -1.0984e-19)
(-0.195405 0.481341 -6.47179e-19)
(-0.214623 0.216478 -7.21246e-19)
(-0.164989 -0.0678166 9.85554e-19)
(0.023033 -0.298604 -4.13492e-19)
(0.226484 -0.396936 1.95512e-20)
(0.412966 -0.403348 -3.7956e-20)
(0.557898 -0.340626 5.20301e-20)
(0.655496 -0.281488 -3.96076e-20)
(0.741329 -0.154486 -3.33735e-20)
(-0.184717 0.599719 -1.54501e-19)
(-0.229209 0.493784 -3.22378e-21)
(-0.253469 0.215277 -1.42988e-20)
(-0.170166 -0.103143 -5.26574e-19)
(0.0441115 -0.356935 -8.77031e-20)
(0.260543 -0.45503 1.85423e-19)
(0.447063 -0.452064 1.92635e-20)
(0.586816 -0.374905 5.61841e-21)
(0.68053 -0.306989 -6.95291e-20)
(0.764706 -0.167399 6.32557e-20)
(-0.154386 0.617979 -1.18091e-19)
(-0.221861 0.516129 7.28951e-19)
(-0.240372 0.21428 1.72142e-19)
(-0.120716 -0.141517 -8.77576e-19)
(0.11904 -0.416914 3.56705e-19)
(0.343398 -0.512809 3.43899e-21)
(0.518888 -0.498489 2.7085e-20)
(0.639005 -0.406628 -4.27547e-20)
(0.719392 -0.330997 7.40213e-21)
(0.794855 -0.180013 3.41064e-22)
(-0.0907349 0.634809 2.37132e-20)
(-0.153546 0.539518 -9.66983e-21)
(-0.170741 0.215391 1.80088e-19)
(-0.012401 -0.183196 5.69502e-19)
(0.247954 -0.477867 -8.69918e-20)
(0.479487 -0.569087 -3.16504e-20)
(0.640708 -0.539684 6.07181e-22)
(0.727232 -0.432401 0)
(0.782278 -0.350756 0)
(0.837011 -0.191198 -1.69355e-22)
(0.00363445 0.642089 1.71892e-19)
(-0.0527957 0.566607 -2.90026e-19)
(-0.0415559 0.217476 -1.39733e-21)
(0.145586 -0.222893 -4.0392e-19)
(0.412522 -0.53913 -1.70164e-19)
(0.649678 -0.625129 -2.80174e-19)
(0.807487 -0.575298 1.42362e-20)
(0.858897 -0.44957 -9.92593e-21)
(0.880166 -0.362864 -6.08099e-20)
(0.898225 -0.199215 -2.45417e-21)
(0.121205 0.634726 1.76792e-19)
(0.0847574 0.592388 -1.01159e-19)
(0.139128 0.219243 -8.85428e-19)
(0.340488 -0.256324 8.88901e-21)
(0.604206 -0.598583 5.53603e-19)
(0.829676 -0.682876 -1.09166e-19)
(0.992656 -0.609215 -5.34409e-20)
(1.02475 -0.459143 -5.41814e-20)
(1.01729 -0.364854 1.27882e-21)
(0.985514 -0.202048 -2.7187e-20)
(0.248134 0.608209 -1.03169e-19)
(0.263761 0.611884 -4.74633e-20)
(0.351255 0.224055 2.31879e-19)
(0.575022 -0.281871 -7.22104e-20)
(0.841437 -0.650503 -6.60942e-20)
(1.02704 -0.738158 2.51217e-19)
(1.17447 -0.64413 -3.69638e-20)
(1.20038 -0.466094 -2.60504e-21)
(1.18276 -0.357709 1.79623e-20)
(1.10112 -0.198554 4.59847e-21)
(0.361344 0.546094 -2.44956e-19)
(0.465974 0.620329 -8.68893e-19)
(0.579391 0.23588 3.13006e-19)
(0.845246 -0.300048 2.48842e-20)
(1.12777 -0.690175 -3.66298e-19)
(1.26564 -0.781833 -3.59947e-19)
(1.35952 -0.675251 1.30361e-19)
(1.36712 -0.473625 -3.71581e-20)
(1.35353 -0.345577 2.26119e-21)
(1.23758 -0.189582 -3.45253e-21)
(0.442838 0.449293 -7.58292e-19)
(0.685436 0.618916 -4.14034e-19)
(0.815244 0.242873 3.21521e-20)
(1.12607 -0.311668 4.13795e-19)
(1.42523 -0.718115 -3.63815e-19)
(1.53469 -0.80985 -1.28362e-19)
(1.56193 -0.695098 -2.09344e-19)
(1.52526 -0.479423 1.81881e-20)
(1.50998 -0.332061 2.13131e-20)
(1.379 -0.177453 1.25442e-20)
(0.474841 0.275698 -1.59191e-19)
(0.824477 0.579459 1.30305e-18)
(1.01868 0.272762 2.96671e-19)
(1.39649 -0.310784 1.69173e-19)
(1.69956 -0.737806 -2.95305e-19)
(1.79369 -0.825691 1.06106e-19)
(1.77339 -0.700894 -4.03423e-19)
(1.68171 -0.478822 -3.11882e-20)
(1.64625 -0.317762 -1.00876e-20)
(1.50953 -0.164313 -2.43714e-20)
(0.675295 0.11305 2.44573e-19)
(1.09071 0.493676 2.2211e-19)
(1.34981 0.230701 -4.59455e-20)
(1.79072 -0.359873 1.00158e-19)
(2.05753 -0.7698 1.56866e-20)
(2.10401 -0.838738 -6.49809e-20)
(2.0332 -0.692356 -2.70015e-20)
(1.8775 -0.46339 5.15858e-20)
(1.79697 -0.293549 -1.32616e-19)
(1.64986 -0.146726 1.62693e-20)
(1.26534 0.133938 5.41213e-20)
(1.48405 0.353661 -2.58609e-19)
(1.93046 0.0538871 -5.24078e-19)
(2.39069 -0.508594 1.11152e-19)
(2.51856 -0.839807 -4.35113e-19)
(2.42074 -0.832764 -7.71903e-20)
(2.26757 -0.632187 1.3157e-19)
(2.05994 -0.393678 -3.88198e-20)
(1.92924 -0.234085 1.63265e-19)
(1.76333 -0.11516 3.06331e-20)
(1.90215 0.181114 4.03955e-20)
(2.03853 0.254256 6.32005e-20)
(2.508 -0.0870718 -5.5672e-20)
(2.81443 -0.565627 9.54767e-36)
(2.81337 -0.806558 -7.2144e-20)
(2.61161 -0.760846 6.04965e-35)
(2.37953 -0.555618 6.32257e-20)
(2.1442 -0.327442 1.63854e-33)
(1.99718 -0.176293 -4.61922e-21)
(1.82151 -0.0827466 5.89785e-21)
(2.31324 0.165758 9.59947e-20)
(2.52653 0.159219 2.58318e-19)
(2.89514 -0.19082 5.28609e-19)
(3.0809 -0.607235 0)
(3.0335 -0.784667 2.39984e-19)
(2.7902 -0.68552 -3.28854e-20)
(2.48151 -0.457274 -1.89409e-19)
(2.18104 -0.243575 3.91897e-33)
(2.00341 -0.11064 -1.0162e-19)
(1.82399 -0.049618 -9.30013e-21)
(2.57994 0.105338 1.071e-19)
(2.81211 0.057622 -2.04909e-20)
(3.09652 -0.264139 0)
(3.22919 -0.6144 0)
(3.12289 -0.719288 0)
(2.80496 -0.57238 0)
(2.46291 -0.335208 1.38951e-20)
(2.14727 -0.145496 4.26831e-33)
(1.96131 -0.0389696 -6.84817e-21)
(1.78937 -0.0150963 -1.46953e-33)
(2.74633 0.0344902 2.99938e-20)
(2.93379 -0.0269397 0)
(3.1876 -0.321469 0)
(3.28519 -0.613882 0)
(3.07566 -0.638123 0)
(2.66398 -0.444438 0)
(2.27361 -0.212678 -2.57869e-20)
(1.97263 -0.0553707 1.5645e-19)
(1.8235 0.0220019 -8.12417e-21)
(1.69705 0.0147604 6.18977e-21)
(2.80269 -0.0233348 0)
(2.9583 -0.0985673 2.00744e-19)
(3.20289 -0.366282 2.91406e-19)
(3.14628 -0.575601 0)
(2.74846 -0.50977 4.04454e-20)
(2.27785 -0.283219 -8.75543e-20)
(1.91349 -0.0814611 -1.29821e-19)
(1.67364 0.0254554 -7.39921e-20)
(1.58595 0.0648149 6.34543e-20)
(1.52671 0.033136 -2.53067e-20)
(2.72987 -0.0713066 4.79241e-20)
(2.8816 -0.167982 -2.23448e-20)
(2.97639 -0.363505 2.30935e-20)
(2.60724 -0.446585 -5.66173e-35)
(2.00361 -0.318244 7.38798e-22)
(1.52978 -0.119101 -3.55508e-34)
(1.29242 0.0157086 -2.65242e-20)
(1.19982 0.0681431 -7.51862e-20)
(1.21239 0.0763237 -9.24327e-21)
(1.23299 0.0357509 1.91874e-20)
(2.36042 -0.0967375 0)
(2.39766 -0.205979 -8.89921e-20)
(2.12421 -0.256909 -6.54101e-20)
(1.42652 -0.177182 0)
(0.842017 -0.0761442 -3.87046e-20)
(0.590866 -0.00728088 -1.53673e-20)
(0.560955 0.0351505 -2.91125e-20)
(0.618046 0.0515429 3.81277e-21)
(0.710696 0.0489897 -2.37015e-20)
(0.784526 0.0219512 -1.73374e-20)
(1.16952 -0.0794511 1.57417e-20)
(0.847053 -0.0663235 0)
(0.452904 -0.0089674 0)
(0.187921 0.00194357 0)
(0.0296379 -0.00574099 0)
(-0.0280491 -0.00688883 0)
(-0.0109863 0.00239027 -2.53121e-20)
(0.0614249 0.0117723 1.07122e-34)
(0.147054 0.01215 -1.00145e-20)
(0.214593 0.00528891 -1.99873e-20)
(2.34739 0.320315 3.70349e-19)
(2.35938 0.275165 1.51696e-19)
(2.35223 0.231607 3.07839e-19)
(2.33409 0.193372 -3.21406e-19)
(2.28219 0.152825 7.7824e-20)
(2.20952 0.128995 4.24287e-20)
(2.0344 0.0734748 4.50819e-20)
(1.75563 0.0589327 2.50689e-20)
(1.37466 -0.0312489 4.96934e-20)
(0.74663 -0.0437165 -2.59772e-20)
(2.34446 0.279658 -1.77781e-19)
(2.37369 0.256514 3.87694e-20)
(2.39018 0.22777 1.22664e-19)
(2.38799 0.203658 1.1059e-19)
(2.38059 0.163912 -1.87473e-19)
(2.32651 0.152577 1.08825e-19)
(2.30616 0.116493 1.45921e-20)
(2.11719 0.0987049 -4.63379e-21)
(2.06104 0.0902095 -5.36871e-22)
(1.60571 0.0223711 2.37127e-20)
(2.38515 0.248787 2.45536e-20)
(2.40395 0.228248 -1.15705e-19)
(2.43526 0.205386 -1.54439e-19)
(2.42816 0.190061 3.35843e-19)
(2.45653 0.167457 -1.72107e-20)
(2.39892 0.144213 3.03976e-20)
(2.43661 0.143536 -6.91541e-20)
(2.3063 0.10507 -5.0839e-20)
(2.34036 0.139753 -1.31003e-20)
(2.1089 0.0792518 -9.75013e-21)
(2.44751 0.2193 4.32501e-20)
(2.4621 0.196519 -1.41661e-19)
(2.50154 0.182502 2.73699e-20)
(2.49484 0.159126 -1.07248e-19)
(2.534 0.155923 1.58246e-19)
(2.49469 0.121909 -5.37213e-20)
(2.53239 0.138332 2.46343e-20)
(2.46078 0.0976607 -2.90289e-20)
(2.4868 0.130077 -4.57486e-20)
(2.38557 0.0970588 -2.12448e-20)
(2.49441 0.185589 8.20965e-20)
(2.51651 0.161336 -2.22168e-19)
(2.55694 0.155341 -1.93032e-20)
(2.56502 0.127468 -1.35915e-20)
(2.6014 0.131153 -5.22683e-21)
(2.59193 0.0973632 -1.30031e-21)
(2.62121 0.109508 2.5381e-20)
(2.59417 0.0789763 -2.96669e-20)
(2.61376 0.0930508 -4.59183e-20)
(2.571 0.0785515 -6.00442e-20)
(2.50429 0.147353 1.47821e-19)
(2.53341 0.125518 2.53996e-20)
(2.57491 0.121841 -1.53837e-19)
(2.59716 0.0976496 9.18931e-20)
(2.6337 0.0982852 7.08567e-20)
(2.64784 0.0728543 -5.44576e-20)
(2.67725 0.0741583 7.62287e-20)
(2.68147 0.0537514 3.52801e-20)
(2.70514 0.052822 -9.45524e-20)
(2.69894 0.0437134 -1.15905e-19)
(2.4611 0.106309 1.74356e-20)
(2.49461 0.0882218 4.62791e-20)
(2.53711 0.0847597 -5.99091e-20)
(2.56965 0.0655227 -3.40619e-20)
(2.60885 0.0629277 7.0532e-20)
(2.63971 0.0436115 3.35379e-20)
(2.67364 0.0390118 6.71319e-20)
(2.70232 0.0226778 5.09941e-20)
(2.72902 0.0149112 7.44856e-21)
(2.75729 0.00425805 4.04532e-20)
(2.32965 0.0685903 2.12306e-20)
(2.37129 0.0545609 9.73929e-23)
(2.40797 0.0511892 -6.95485e-20)
(2.45491 0.0362708 -5.98526e-20)
(2.48785 0.0322204 3.28968e-20)
(2.54111 0.0163521 -2.99126e-20)
(2.56763 0.00936815 -2.70643e-20)
(2.62811 -0.00601898 8.4056e-20)
(2.64481 -0.0171702 -7.23976e-20)
(2.7144 -0.031367 -8.54027e-20)
(2.00828 0.0195139 5.60655e-20)
(2.06233 0.0148603 -2.7927e-20)
(2.07931 0.00931156 -2.60251e-20)
(2.14186 0.00380493 2.90197e-20)
(2.15304 -0.00226175 -1.70513e-20)
(2.22692 -0.00921919 -4.15505e-21)
(2.22911 -0.0178228 -2.83908e-20)
(2.31492 -0.0266288 1.90298e-20)
(2.30592 -0.0393715 1.77017e-20)
(2.40133 -0.05089 -1.99887e-20)
(1.17525 -0.00188803 0)
(1.20091 -0.00347887 2.63665e-21)
(1.193 -0.0057633 -3.68539e-20)
(1.22652 -0.00805785 -5.61315e-20)
(1.21092 -0.0116274 3.17351e-20)
(1.25332 -0.0140226 1.29692e-19)
(1.22643 -0.0197367 -8.94555e-21)
(1.27692 -0.0202705 -7.49565e-20)
(1.23609 -0.0317248 -9.94333e-21)
(1.2908 -0.0290587 3.43611e-21)
(1.40523 0.829982 -4.60389e-20)
(1.3915 0.873144 -9.59415e-20)
(1.39236 0.919568 -6.76844e-19)
(1.39679 0.971498 2.13507e-19)
(1.39891 1.02584 1.05745e-18)
(1.39216 1.07726 1.48211e-19)
(1.36418 1.1109 -7.8783e-20)
(1.29129 1.10183 -3.32332e-19)
(1.10101 0.983783 -3.32366e-19)
(0.586647 0.544688 -4.54302e-20)
(1.55694 0.802444 -3.89412e-19)
(1.54705 0.844535 1.12496e-18)
(1.54371 0.888703 5.04814e-19)
(1.54608 0.938702 -7.53565e-19)
(1.54978 0.992153 2.52014e-19)
(1.54564 1.04272 2.42674e-19)
(1.51767 1.07404 8.00607e-19)
(1.43873 1.06292 -1.17212e-18)
(1.22625 0.943468 -5.11804e-20)
(0.646477 0.514046 2.08543e-19)
(1.70024 0.771757 1.0868e-19)
(1.69596 0.812627 8.82671e-19)
(1.69204 0.854296 1.71229e-20)
(1.69287 0.900336 -4.42651e-19)
(1.69659 0.949634 1.29504e-19)
(1.69274 0.995684 -6.85146e-20)
(1.66245 1.02137 -4.73851e-20)
(1.57523 1.00636 -4.06381e-19)
(1.33754 0.884414 2.28738e-20)
(0.69415 0.470627 -2.17315e-19)
(1.82985 0.731884 -4.4699e-19)
(1.83138 0.771106 4.1046e-19)
(1.83134 0.810253 -6.30086e-19)
(1.83403 0.851644 -2.35043e-19)
(1.83793 0.894997 1.38094e-18)
(1.83245 0.934215 -8.73716e-19)
(1.79721 0.952503 -9.91575e-19)
(1.6997 0.932426 4.28664e-19)
(1.43159 0.808514 -1.24692e-19)
(0.725335 0.417463 -6.3972e-20)
(1.94687 0.687405 5.57825e-19)
(1.95115 0.723041 4.49132e-19)
(1.95182 0.757719 -2.12407e-19)
(1.95403 0.794168 8.33289e-19)
(1.95766 0.831721 1.66165e-19)
(1.94947 0.862743 -3.76872e-19)
(1.90785 0.870721 5.52506e-19)
(1.79841 0.844668 -6.61372e-19)
(1.49372 0.718229 -7.52035e-19)
(0.732169 0.354617 -4.08834e-21)
(2.04936 0.629598 7.40284e-19)
(2.05782 0.661161 9.27498e-19)
(2.06428 0.691974 -9.45901e-19)
(2.06935 0.722765 -9.69718e-19)
(2.0692 0.752566 2.35988e-19)
(2.05265 0.773281 -7.05859e-19)
(1.9979 0.773156 -4.60503e-19)
(1.86986 0.741969 3.96028e-19)
(1.52276 0.612456 6.99589e-20)
(0.712427 0.284117 -1.35622e-20)
(2.13917 0.574533 6.88424e-19)
(2.14708 0.601282 -9.2149e-19)
(2.14979 0.625924 -8.1183e-19)
(2.15106 0.650241 6.28196e-19)
(2.14919 0.672092 -5.61482e-19)
(2.12201 0.679452 1.67319e-18)
(2.05763 0.670644 -2.50379e-19)
(1.90418 0.632828 -1.3527e-18)
(1.50772 0.497865 5.92432e-19)
(0.661281 0.21127 3.23753e-20)
(2.21424 0.509613 -4.51046e-19)
(2.21984 0.530511 -6.39724e-19)
(2.22432 0.551105 -8.82124e-19)
(2.22678 0.570036 3.07493e-20)
(2.20899 0.578913 2.82359e-19)
(2.16366 0.576241 2.95149e-19)
(2.08612 0.562774 6.87929e-19)
(1.89407 0.515843 -3.58876e-19)
(1.44188 0.378077 1.99096e-20)
(0.57987 0.14159 6.34264e-20)
(2.27303 0.448252 2.26433e-19)
(2.28111 0.46613 -7.48471e-20)
(2.28132 0.479242 4.23152e-19)
(2.26137 0.485245 1.11378e-18)
(2.22594 0.482169 -3.91808e-19)
(2.17998 0.476454 -1.41546e-18)
(2.07606 0.455008 1.03698e-18)
(1.83187 0.396719 9.30526e-19)
(1.32046 0.259972 -4.72736e-19)
(0.473977 0.0815435 -9.11115e-21)
(2.32049 0.391353 -4.60203e-19)
(2.3151 0.399909 -4.85846e-21)
(2.29485 0.401347 5.94188e-19)
(2.2664 0.399995 6.00844e-19)
(2.23029 0.394592 4.32298e-19)
(2.16315 0.382842 -7.0055e-19)
(2.01604 0.351116 3.40419e-20)
(1.70628 0.280711 -3.54121e-19)
(1.14019 0.15119 -5.34206e-19)
(0.355212 0.036711 -1.28813e-20)
(0.497326 0.318093 3.44312e-20)
(0.460035 0.327839 -1.7001e-19)
(0.418547 0.338726 -3.08665e-20)
(0.373407 0.350753 1.22692e-19)
(0.324379 0.363433 -2.81292e-20)
(0.270834 0.374863 -3.0399e-20)
(0.212057 0.379434 -4.25025e-20)
(0.146555 0.364181 -2.85318e-20)
(0.0760808 0.30538 1.03309e-19)
(0.028618 0.159848 7.0928e-21)
(0.540122 0.415822 4.04404e-21)
(0.503124 0.431025 3.10106e-20)
(0.462551 0.447636 -8.46304e-21)
(0.418608 0.465666 1.09056e-20)
(0.37084 0.484625 5.39355e-20)
(0.318386 0.502441 3.10496e-20)
(0.259969 0.51266 8.39528e-20)
(0.193284 0.499737 -6.44631e-20)
(0.116607 0.43188 7.18559e-20)
(0.0500094 0.237283 -3.61995e-21)
(0.599107 0.507954 -9.86122e-20)
(0.563287 0.528408 -4.91046e-22)
(0.524568 0.550449 3.95512e-20)
(0.482736 0.574215 -2.93792e-20)
(0.437097 0.599302 -1.31081e-21)
(0.386528 0.623559 1.33493e-19)
(0.329084 0.639798 -2.54709e-20)
(0.261359 0.630019 -4.36938e-20)
(0.176976 0.5546 -1.8551e-22)
(0.0834175 0.312451 1.64605e-20)
(0.670259 0.594879 -2.30376e-20)
(0.636289 0.620744 -8.95678e-20)
(0.6005 0.648105 -7.47055e-20)
(0.561915 0.67729 -1.15831e-20)
(0.519438 0.707971 -1.14188e-19)
(0.471684 0.737877 -7.76073e-20)
(0.416033 0.759113 -2.17351e-19)
(0.347696 0.751547 7.40192e-20)
(0.254643 0.668697 -5.32174e-20)
(0.127378 0.381868 -9.36819e-20)
(0.752567 0.670033 5.93966e-20)
(0.721136 0.700525 -1.03992e-19)
(0.689407 0.732566 3.33754e-20)
(0.655651 0.766897 -5.18215e-20)
(0.618205 0.803278 -8.77197e-20)
(0.575103 0.839222 1.21902e-19)
(0.522675 0.86606 7.97659e-20)
(0.454235 0.861533 -1.27453e-19)
(0.351033 0.7727 -2.54809e-19)
(0.182006 0.444505 5.04412e-20)
(0.843773 0.739686 1.95927e-20)
(0.814209 0.774547 1.47085e-20)
(0.785783 0.810097 5.47282e-20)
(0.756098 0.848016 4.76696e-20)
(0.723417 0.888591 1.94138e-19)
(0.685576 0.929128 -1.82183e-19)
(0.637802 0.959801 -1.31943e-19)
(0.570858 0.956363 -4.30461e-20)
(0.457927 0.860783 1.07207e-19)
(0.242745 0.495602 1.53671e-19)
(0.945572 0.791429 -8.13218e-20)
(0.920846 0.830158 4.35374e-20)
(0.898536 0.869075 2.31114e-19)
(0.874884 0.910246 -1.40622e-19)
(0.847661 0.9543 -3.80089e-19)
(0.814656 0.998639 1.89929e-19)
(0.770516 1.03251 6.01541e-19)
(0.70369 1.02986 1.57563e-19)
(0.578182 0.929133 -3.93327e-20)
(0.309809 0.534034 2.19741e-19)
(1.04897 0.837179 -2.42553e-19)
(1.02629 0.877731 -8.1445e-20)
(1.0091 0.91795 2.49921e-19)
(0.992573 0.96107 -1.11061e-19)
(0.973349 1.00746 8.76893e-20)
(0.947913 1.05373 3.94942e-19)
(0.909309 1.08806 -4.34198e-19)
(0.843196 1.08375 -3.98642e-19)
(0.704585 0.97681 3.41857e-19)
(0.379611 0.558337 -5.86357e-22)
(1.16132 0.856452 -1.58214e-20)
(1.14797 0.899552 4.16208e-20)
(1.13841 0.940459 -2.15169e-19)
(1.12777 0.984578 -7.68194e-20)
(1.11395 1.03314 4.79846e-19)
(1.09373 1.08201 1.43953e-19)
(1.05867 1.11757 -1.24986e-19)
(0.99114 1.11238 0)
(0.836996 1.00095 -2.21887e-19)
(0.450947 0.567655 -1.13604e-19)
(1.25329 0.86212 0)
(1.24834 0.906562 0)
(1.25334 0.949838 6.28035e-19)
(1.25619 0.995381 1.45168e-19)
(1.25316 1.0443 -2.26028e-19)
(1.24109 1.09283 4.15815e-19)
(1.21069 1.12675 -3.02206e-19)
(1.14155 1.1192 -8.21611e-19)
(0.970541 1.00366 4.18518e-19)
(0.520932 0.563129 2.16141e-19)
(0.989371 -0.00887554 -1.10918e-20)
(1.02196 -0.00532637 -1.08623e-20)
(1.03608 0.0907654 7.21599e-21)
(1.03022 0.187332 2.6345e-21)
(1.0064 0.225736 1.13328e-20)
(0.96784 0.237651 2.18225e-20)
(0.934348 0.224616 -1.13741e-20)
(0.869374 0.230591 -1.34077e-20)
(0.808653 0.24423 -7.35528e-20)
(0.662267 0.270178 4.73977e-20)
(0.989009 -0.0108469 -3.68262e-22)
(1.02277 -0.0106594 8.28787e-21)
(1.03546 0.0893858 1.27694e-22)
(1.02862 0.192802 5.87111e-21)
(1.00589 0.234332 8.53556e-21)
(0.96776 0.248045 -3.31072e-20)
(0.937599 0.238096 -1.34256e-20)
(0.879556 0.248092 3.98336e-22)
(0.825368 0.276383 1.88495e-19)
(0.700405 0.335527 3.88231e-21)
(0.988297 -0.012974 7.5954e-22)
(1.02406 -0.0155789 1.57633e-20)
(1.03542 0.0888678 -7.96824e-21)
(1.028 0.198867 -7.85048e-22)
(1.00596 0.24296 -9.97035e-21)
(0.967694 0.258151 2.04001e-21)
(0.939891 0.249905 1.73826e-20)
(0.890555 0.264154 -1.64786e-20)
(0.84154 0.305544 1.06281e-19)
(0.748357 0.397425 -2.44574e-19)
(0.987216 -0.015255 2.8018e-21)
(1.02565 -0.0201758 -1.09101e-21)
(1.03606 0.0891897 -9.46857e-21)
(1.02818 0.205596 -1.36638e-20)
(1.00633 0.251721 2.19162e-20)
(0.967714 0.268125 2.28165e-20)
(0.941928 0.259908 -2.28508e-20)
(0.902414 0.279109 8.42746e-20)
(0.857731 0.330998 -9.71841e-20)
(0.805007 0.455313 -2.6561e-19)
(0.985755 -0.0176858 4.28861e-22)
(1.02755 -0.0245609 -1.76586e-20)
(1.0375 0.0903302 3.56058e-21)
(1.02899 0.213085 2.34375e-20)
(1.00692 0.260657 8.54102e-21)
(0.968217 0.277903 5.10132e-20)
(0.944473 0.267974 2.73047e-20)
(0.915201 0.29333 7.10185e-20)
(0.873952 0.352336 -1.65553e-21)
(0.869621 0.507485 2.00341e-19)
(0.983915 -0.0202616 -7.53652e-22)
(1.02975 -0.0288514 2.55751e-22)
(1.03971 0.0922914 -1.06914e-21)
(1.03021 0.221416 6.65158e-21)
(1.00801 0.26968 -2.99619e-20)
(0.969892 0.287295 7.81978e-21)
(0.94814 0.274185 -4.26117e-21)
(0.928561 0.307178 -2.09486e-19)
(0.890881 0.368887 0)
(0.943456 0.556541 -2.54407e-20)
(0.98179 -0.0229565 1.9047e-22)
(1.03201 -0.0331636 8.95006e-21)
(1.04229 0.095069 8.015e-22)
(1.03171 0.230542 -3.3286e-20)
(1.01019 0.278547 -1.10649e-20)
(0.973427 0.296157 -6.36208e-20)
(0.953565 0.278929 4.69641e-21)
(0.941975 0.320746 5.27027e-21)
(0.911298 0.381353 -2.13004e-21)
(1.01829 0.59614 7.59988e-19)
(0.979659 -0.0256791 -6.93389e-21)
(1.0336 -0.0375505 1.12571e-20)
(1.04466 0.0985177 2.19246e-21)
(1.03369 0.240144 1.61553e-20)
(1.01422 0.286931 -4.65541e-20)
(0.979201 0.304317 1.43772e-20)
(0.961738 0.282582 -3.0686e-21)
(0.955772 0.333789 2.52627e-20)
(0.936732 0.388335 1.33076e-19)
(1.10556 0.640996 -3.49985e-20)
(0.978 -0.0282622 2.64589e-21)
(1.03326 -0.0417076 -6.62432e-21)
(1.04635 0.102571 3.52578e-22)
(1.03675 0.249823 2.8153e-20)
(1.02093 0.294503 4.65418e-21)
(0.987362 0.311271 2.35184e-20)
(0.974042 0.285286 -4.84125e-20)
(0.971054 0.34516 6.42683e-20)
(0.971946 0.387044 2.66181e-19)
(1.17215 0.661603 -6.36466e-19)
(0.97735 -0.0305677 6.62241e-21)
(1.03011 -0.0452379 -1.50397e-20)
(1.04729 0.108177 4.31479e-22)
(1.04155 0.260407 -9.5175e-21)
(1.03116 0.301252 5.11634e-20)
(0.999054 0.316861 -3.16533e-20)
(0.992206 0.287597 -1.62508e-20)
(0.99253 0.355771 3.55516e-20)
(1.01601 0.400746 -1.37312e-19)
(1.28339 0.715886 3.53902e-19)
(0.978154 -0.0328093 -1.6221e-21)
(1.02153 -0.051017 1.42342e-21)
(1.04791 0.106743 -3.28998e-21)
(1.05187 0.267364 -2.86095e-20)
(1.05376 0.306285 -3.03543e-20)
(1.02584 0.325298 -4.38078e-20)
(1.03154 0.284339 1.55652e-20)
(1.04054 0.364187 -1.37418e-19)
(1.06496 0.344014 -4.76053e-19)
(1.28557 0.705888 -1.22002e-19)
(0.980849 -0.0339515 -1.03722e-20)
(1.00508 -0.0587971 -2.52562e-21)
(1.04514 0.0917222 1.43883e-21)
(1.06574 0.265755 4.56769e-21)
(1.11176 0.303251 1.39433e-20)
(1.08579 0.332614 6.10587e-20)
(1.15925 0.270949 1.59305e-20)
(1.14283 0.36428 1.0422e-19)
(1.2297 0.307952 1.96816e-19)
(1.28717 0.600953 2.62309e-19)
(0.983658 -0.032992 -1.9251e-21)
(0.988153 -0.0642824 -2.27088e-21)
(1.04307 0.0712303 2.2413e-21)
(1.07382 0.25171 5.01761e-21)
(1.22008 0.289554 4.10264e-35)
(1.14325 0.322923 -8.02434e-21)
(1.38075 0.250843 -4.41277e-34)
(1.24168 0.352984 1.64552e-20)
(1.48949 0.288423 -4.24789e-20)
(1.37867 0.511426 -2.11527e-19)
(0.986194 -0.0294908 2.02184e-20)
(0.976058 -0.0682617 -2.17035e-35)
(1.03919 0.0465982 -2.38035e-21)
(1.0748 0.212708 7.7346e-22)
(1.34287 0.265566 -1.23309e-20)
(1.18886 0.289952 5.35396e-21)
(1.59589 0.220799 -5.30974e-34)
(1.34479 0.335761 -4.54024e-20)
(1.70662 0.260598 -1.03989e-19)
(1.56692 0.437096 2.34681e-19)
(0.988084 -0.0249997 0)
(0.975201 -0.0700514 -8.27873e-35)
(1.03089 0.0198864 0)
(1.08496 0.149707 0)
(1.40905 0.233407 0)
(1.26189 0.241608 0)
(1.69258 0.182107 -3.36201e-34)
(1.47085 0.312432 0)
(1.81418 0.21947 -1.64785e-20)
(1.75136 0.372726 1.39796e-19)
(0.98867 -0.0225776 2.63787e-21)
(0.98889 -0.0704922 -7.4912e-21)
(1.0288 -0.00850981 -3.33395e-21)
(1.10265 0.0775858 0)
(1.40855 0.192349 0)
(1.34897 0.187419 6.7935e-21)
(1.68992 0.142047 2.98678e-20)
(1.59496 0.27979 -1.2097e-20)
(1.84558 0.179261 -2.52527e-20)
(1.87426 0.309179 9.65532e-20)
(0.98701 -0.0243141 -6.24834e-20)
(1.01718 -0.0717653 6.79112e-21)
(1.03582 -0.0387067 -4.61336e-21)
(1.11443 0.0124703 -2.42592e-20)
(1.34824 0.137903 -1.98359e-20)
(1.40218 0.130866 5.59647e-21)
(1.61815 0.100943 -2.99591e-20)
(1.65863 0.236398 -1.5313e-20)
(1.8206 0.142109 -3.2841e-20)
(1.93659 0.243309 1.10714e-19)
(0.982151 -0.0291582 -4.90983e-21)
(1.04275 -0.071754 -1.09876e-20)
(1.0289 -0.0592295 -5.67974e-21)
(1.09667 -0.0263969 -4.81997e-21)
(1.20832 0.0826636 -4.58332e-35)
(1.39107 0.0757501 7.33862e-21)
(1.43968 0.0631416 -8.76525e-34)
(1.62346 0.186479 -1.09012e-20)
(1.71529 0.10146 1.69474e-20)
(1.92316 0.173759 2.27601e-20)
(0.965001 -0.0483621 1.3353e-19)
(1.04637 -0.0719517 -3.74896e-21)
(0.959282 -0.0711857 -6.568e-21)
(0.966925 -0.0410621 9.63316e-21)
(0.962367 0.0273488 8.53177e-21)
(1.19844 0.0256418 1.0014e-20)
(1.07937 0.0386018 1.37419e-20)
(1.41556 0.102903 -2.76238e-20)
(1.43452 0.0508067 -2.8938e-20)
(1.71551 0.0922086 7.53465e-20)
(0.872055 -0.0319974 6.38408e-21)
(0.857764 -0.053952 -5.09908e-35)
(0.602525 -0.0488279 -6.92888e-21)
(0.504139 -0.0182741 0)
(0.473883 0.00396839 0)
(0.589167 0.00862838 7.62352e-21)
(0.5243 0.0158523 -6.79969e-36)
(0.787386 0.0284592 -1.0027e-20)
(0.797184 0.0151201 -2.59944e-20)
(1.01592 0.033522 -3.78706e-20)
(1.48907 0.723534 1.47353e-19)
(1.59368 0.707006 -5.26155e-20)
(1.71401 0.682031 -3.20372e-21)
(1.83068 0.647281 5.41467e-20)
(1.93884 0.607825 -2.2107e-19)
(2.03631 0.559926 -4.16375e-19)