/*--------------------------------*- C++ -*----------------------------------*\
| =========                 |                                                 |
| \\      /  F ield         | OpenFOAM: The Open Source CFD Toolbox           |
|  \\    /   O peration     | Version:  2406                                  |
|   \\  /    A nd           | Website:  www.openfoam.com                      |
|    \\/     M anipulation  |                                                 |
\*---------------------------------------------------------------------------*/
FoamFile
{
    version     2.0;
    format      ascii;
    arch        "LSB;label=32;scalar=64";
    class       volVectorField;
    location    "0.9";
    object      flux;
}
// * * * * * * * * * * * * * * * * * * * * * * * * * * * * * * * * * * * * * //

dimensions      [0 1 -1 1 0 0 0];

internalField   nonuniform List<vector> 
2500
(
(0.000349643 0.000349643 0)
(0.00104375 0.000350797 0)
(0.00172454 0.000353218 0)
(0.00238416 0.00035685 0)
(0.00301371 0.000361724 0)
(0.00360542 0.000367875 0)
(0.00415215 0.000375344 0)
(0.00464746 0.00038418 0)
(0.00508571 0.000394437 0)
(0.00546216 0.000406176 0)
(0.00577305 0.000419464 0)
(0.00601562 0.000434373 0)
(0.00618818 0.000450978 0)
(0.00629007 0.000469359 0)
(0.00632173 0.000489595 0)
(0.00628463 0.000511766 0)
(0.00618123 0.000535948 0)
(0.00601495 0.000562213 0)
(0.00579006 0.000590629 0)
(0.00551164 0.000621252 0)
(0.00518544 0.000654126 0)
(0.0048178 0.000689281 0)
(0.00441551 0.000726729 0)
(0.0039857 0.000766459 0)
(0.00353572 0.000808438 0)
(0.00307298 0.000852606 0)
(0.00260488 0.000898871 0)
(0.00213862 0.000947111 0)
(0.00168114 0.000997166 0)
(0.00123901 0.00104884 0)
(0.000818278 0.00110191 0)
(0.000424453 0.0011561 0)
(6.2394e-05 0.00121111 0)
(-0.000263741 0.00126659 0)
(-0.000550537 0.00132217 0)
(-0.000795357 0.00137745 0)
(-0.000996353 0.00143198 0)
(-0.00115247 0.00148532 0)
(-0.00126346 0.001537 0)
(-0.0013298 0.00158654 0)
(-0.00135273 0.00163347 0)
(-0.00133419 0.00167731 0)
(-0.00127673 0.00171762 0)
(-0.00118353 0.00175395 0)
(-0.00105828 0.00178592 0)
(-0.000905152 0.00181317 0)
(-0.000728734 0.0018354 0)
(-0.000533966 0.00185237 0)
(-0.000325984 0.00186379 0)
(-0.000109669 0.00186896 0)
(0.000350797 0.00104375 0)
(0.00104733 0.00104733 0)
(0.0017306 0.0010546 0)
(0.00239267 0.00106553 0)
(0.00302473 0.0010802 0)
(0.00361904 0.00109872 0)
(0.00416846 0.0011212 0)
(0.00466655 0.0011478 0)
(0.0051077 0.00117868 0)
(0.00548719 0.00121402 0)
(0.00580125 0.00125403 0)
(0.00604714 0.00129892 0)
(0.00622316 0.00134892 0)
(0.00632869 0.00140428 0)
(0.00636414 0.00146522 0)
(0.00633098 0.001532 0)
(0.00623168 0.00160484 0)
(0.00606963 0.00168397 0)
(0.0058491 0.00176959 0)
(0.00557513 0.00186187 0)
(0.00525347 0.00196094 0)
(0.0048904 0.0020669 0)
(0.00449269 0.00217979 0)
(0.00406741 0.00229957 0)
(0.00362187 0.00242616 0)
(0.00316342 0.00255936 0)
(0.00269938 0.0026989 0)
(0.00223691 0.00284442 0)
(0.00178288 0.00299545 0)
(0.00134376 0.00315138 0)
(0.000925538 0.00331154 0)
(0.000533652 0.0034751 0)
(0.000172883 0.00364116 0)
(-0.000152679 0.00380866 0)
(-0.000439684 0.00397648 0)
(-0.00068555 0.0041434 0)
(-0.000888478 0.00430811 0)
(-0.00104745 0.00446923 0)
(-0.00116223 0.00462535 0)
(-0.00123333 0.00477503 0)
(-0.00126196 0.00491682 0)
(-0.00125004 0.0050493 0)
(-0.0012001 0.0051711 0)
(-0.00111523 0.00528091 0)
(-0.00099906 0.00537753 0)
(-0.000855663 0.00545989 0)
(-0.000689529 0.0055271 0)
(-0.000505584 0.00557842 0)
(-0.000309402 0.00561326 0)
(-0.000104501 0.00563005 0)
(0.000353218 0.00172454 0)
(0.0010546 0.0017306 0)
(0.00174274 0.00174274 0)
(0.00240977 0.00176104 0)
(0.0030469 0.00178562 0)
(0.00364643 0.00181664 0)
(0.00420124 0.00185432 0)
(0.00470494 0.0018989 0)
(0.00515193 0.00195067 0)
(0.00553751 0.00200993 0)
(0.00585795 0.00207703 0)
(0.00611052 0.00215234 0)
(0.00629353 0.00223625 0)
(0.00640637 0.00232917 0)
(0.00644946 0.00243151 0)
(0.00642425 0.00254368 0)
(0.0063332 0.00266607 0)
(0.00617969 0.00279908 0)
(0.00596795 0.00294303 0)
(0.00570299 0.00309824 0)
(0.00539047 0.00326493 0)
(0.00503665 0.00344327 0)
(0.00464818 0.00363333 0)
(0.00423207 0.00383506 0)
(0.0037955 0.00404831 0)
(0.00334573 0.00427279 0)
(0.00288994 0.00450802 0)
(0.00243516 0.00475341 0)
(0.0019881 0.00500814 0)
(0.0015551 0.00527125 0)
(0.001142 0.00554155 0)
(0.000754069 0.00581768 0)
(0.000395949 0.00609808 0)
(7.15876e-05 0.00638101 0)
(-0.000215796 0.00666456 0)
(-0.000463735 0.00694664 0)
(-0.000670527 0.00722504 0)
(-0.000835231 0.00749745 0)
(-0.000957655 0.00776146 0)
(-0.00103833 0.00801462 0)
(-0.00107846 0.00825449 0)
(-0.00107991 0.00847864 0)
(-0.00104513 0.00868475 0)
(-0.000977102 0.00887058 0)
(-0.000879295 0.00903411 0)
(-0.000755584 0.00917349 0)
(-0.000610205 0.00928716 0)
(-0.0004478 0.00937386 0)
(-0.000274353 0.00943264 0)
(-9.28775e-05 0.00946202 0)
(0.00035685 0.00238416 0)
(0.00106553 0.00239267 0)
(0.00176104 0.00240977 0)
(0.00243554 0.00243554 0)
(0.00308033 0.00247018 0)
(0.00368775 0.00251393 0)
(0.00425072 0.00256707 0)
(0.0047629 0.00262997 0)
(0.00521873 0.00270304 0)
(0.00561355 0.00278672 0)
(0.00594366 0.00288151 0)
(0.00620636 0.00298796 0)
(0.0064 0.00310662 0)
(0.00652394 0.00323808 0)
(0.00657864 0.00338294 0)
(0.00656555 0.0035418 0)
(0.00648708 0.00371523 0)
(0.00634659 0.00390379 0)
(0.00614826 0.00410799 0)
(0.00589703 0.00432826 0)
(0.0055985 0.00456495 0)
(0.0052588 0.00481831 0)
(0.00488448 0.00508846 0)
(0.0044824 0.00537535 0)
(0.00405959 0.00567877 0)
(0.00362313 0.0059983 0)
(0.00318 0.00633332 0)
(0.00273703 0.00668295 0)
(0.00230072 0.00704606 0)
(0.00187716 0.00742128 0)
(0.00147197 0.00780692 0)
(0.00109019 0.00820104 0)
(0.000736217 0.00860142 0)
(0.000413795 0.00900557 0)
(0.000125939 0.00941074 0)
(-0.000125065 0.00981397 0)
(-0.000337665 0.0102121 0)
(-0.000511035 0.0106017 0)
(-0.000645059 0.0109795 0)
(-0.000740295 0.0113419 0)
(-0.000797942 0.0116853 0)
(-0.000819788 0.0120062 0)
(-0.00080816 0.0123014 0)
(-0.00076587 0.0125676 0)
(-0.000696154 0.0128019 0)
(-0.00060261 0.0130016 0)
(-0.000489157 0.0131643 0)
(-0.000360105 0.0132883 0)
(-0.000221245 0.0133719 0)
(-7.51206e-05 0.0134139 0)
(0.000361724 0.00301371 0)
(0.0010802 0.00302473 0)
(0.00178562 0.0030469 0)
(0.00247018 0.00308033 0)
(0.00312528 0.00312528 0)
(0.00374331 0.00318206 0)
(0.00431729 0.00325107 0)
(0.0048409 0.0033328 0)
(0.00530867 0.00342777 0)
(0.00571599 0.00353659 0)
(0.00605919 0.00365994 0)
(0.00633562 0.00379853 0)
(0.00654365 0.00395312 0)
(0.00668269 0.0041245 0)
(0.00675317 0.00431346 0)
(0.00675654 0.00452083 0)
(0.0066952 0.00474737 0)
(0.00657245 0.00499384 0)
(0.00639242 0.00526093 0)
(0.00615995 0.00554923 0)
(0.00588053 0.00585924 0)
(0.00556016 0.0061913 0)
(0.00520522 0.00654559 0)
(0.00482238 0.00692208 0)
(0.00441846 0.00732051 0)
(0.00400028 0.00774037 0)
(0.00357459 0.00818085 0)
(0.00314791 0.00864082 0)
(0.00272643 0.00911881 0)
(0.00231595 0.00961301 0)
(0.00192176 0.0101212 0)
(0.00154857 0.0106409 0)
(0.00120048 0.0111691 0)
(0.00088091 0.0117026 0)
(0.000592605 0.0122377 0)
(0.000337603 0.0127704 0)
(0.000117245 0.0132966 0)
(-6.78071e-05 0.0138119 0)
(-0.000217544 0.0143117 0)
(-0.000332572 0.0147912 0)
(-0.000414069 0.0152458 0)
(-0.000463733 0.0156709 0)
(-0.000483727 0.016062 0)
(-0.000476626 0.0164147 0)
(-0.000445359 0.0167251 0)
(-0.000393152 0.0169897 0)
(-0.000323493 0.0172054 0)
(-0.000240233 0.0173696 0)
(-0.000148707 0.0174803 0)
(-5.0851e-05 0.0175359 0)
(0.000367875 0.00360542 0)
(0.00109872 0.00361904 0)
(0.00181664 0.00364643 0)
(0.00251393 0.00368775 0)
(0.00318206 0.00374331 0)
(0.00381354 0.00381354 0)
(0.00440145 0.00389894 0)
(0.00493959 0.00400011 0)
(0.00542252 0.00411776 0)
(0.00584573 0.00425266 0)
(0.0062056 0.00440566 0)
(0.00649954 0.00457769 0)
(0.00672596 0.00476972 0)
(0.00688429 0.00498277 0)
(0.00697497 0.00521788 0)
(0.00699945 0.00547607 0)
(0.00696009 0.00575838 0)
(0.00686014 0.00606577 0)
(0.00670365 0.00639915 0)
(0.00649534 0.0067593 0)
(0.00624057 0.00714689 0)
(0.00594515 0.00756237 0)
(0.00561526 0.00800603 0)
(0.00525733 0.00847785 0)
(0.00487789 0.00897757 0)
(0.00448346 0.00950456 0)
(0.00408045 0.0100578 0)
(0.00367499 0.010636 0)
(0.00327291 0.0112373 0)
(0.00287958 0.0118594 0)
(0.00249987 0.0124996 0)
(0.00213808 0.0131547 0)
(0.00179789 0.0138209 0)
(0.00148233 0.0144942 0)
(0.00119377 0.01517 0)
(0.000933922 0.0158432 0)
(0.000703852 0.0165085 0)
(0.000504002 0.0171604 0)
(0.000334234 0.0177929 0)
(0.000193874 0.0184001 0)
(8.17667e-05 0.018976 0)
(-3.67478e-06 0.0195147 0)
(-6.44062e-05 0.0200105 0)
(-0.000102698 0.0204578 0)
(-0.000121083 0.0208516 0)
(-0.000122304 0.0211873 0)
(-0.000109293 0.0214609 0)
(-8.5279e-05 0.0216692 0)
(-5.49634e-05 0.0218096 0)
(-1.94877e-05 0.0218801 0)
(0.000375344 0.00415215 0)
(0.0011212 0.00416846 0)
(0.00185432 0.00420124 0)
(0.00256707 0.00425072 0)
(0.00325107 0.00431729 0)
(0.00389894 0.00440145 0)
(0.00450386 0.00450386 0)
(0.00505972 0.00462526 0)
(0.00556122 0.00476651 0)
(0.00600389 0.0049286 0)
(0.00638422 0.00511259 0)
(0.00669969 0.00531963 0)
(0.00694873 0.00555094 0)
(0.00713084 0.0058078 0)
(0.00724647 0.0060915 0)
(0.00729704 0.00640336 0)
(0.0072849 0.00674467 0)
(0.00721322 0.00711666 0)
(0.00708595 0.00752047 0)
(0.00690769 0.00795714 0)
(0.0066836 0.0084275 0)
(0.0064193 0.0089322 0)
(0.0061207 0.00947161 0)
(0.00579392 0.0100458 0)
(0.00544516 0.0106545 0)
(0.00508055 0.011297 0)
(0.00470606 0.0119721 0)
(0.00432737 0.0126782 0)
(0.00394982 0.0134132 0)
(0.00357826 0.0141742 0)
(0.00321703 0.014958 0)
(0.0028699 0.0157606 0)
(0.00254004 0.0165776 0)
(0.00222996 0.0174038 0)
(0.00194157 0.0182336 0)
(0.00167616 0.0190609 0)
(0.00143443 0.019879 0)
(0.00121655 0.0206811 0)
(0.00102219 0.0214598 0)
(0.000850566 0.0222078 0)
(0.000700554 0.0229176 0)
(0.000570698 0.0235818 0)
(0.000459297 0.0241933 0)
(0.000364457 0.0247453 0)
(0.000284142 0.0252314 0)
(0.000216215 0.0256459 0)
(0.000158453 0.0259839 0)
(0.000108414 0.0262412 0)
(6.22129e-05 0.0264145 0)
(1.97139e-05 0.0265017 0)
(0.00038418 0.00464746 0)
(0.0011478 0.00466655 0)
(0.0018989 0.00470494 0)
(0.00262997 0.0047629 0)
(0.0033328 0.0048409 0)
(0.00400011 0.00493959 0)
(0.00462526 0.00505972 0)
(0.00520224 0.00520224 0)
(0.00572587 0.00536819 0)
(0.0061918 0.00555878 0)
(0.00659663 0.00577531 0)
(0.0069379 0.00601919 0)
(0.00721413 0.00629194 0)
(0.00742485 0.0065951 0)
(0.00757054 0.0069303 0)
(0.00765262 0.00729915 0)
(0.00767339 0.00770326 0)
(0.00763595 0.00814416 0)
(0.00754413 0.0086233 0)
(0.00740237 0.00914197 0)
(0.00721563 0.00970126 0)
(0.00698926 0.010302 0)
(0.00672887 0.0109448 0)
(0.00644021 0.0116297 0)
(0.00612905 0.0123564 0)
(0.00580106 0.0131243 0)
(0.00546169 0.0139321 0)
(0.00511605 0.0147777 0)
(0.00476888 0.0156587 0)
(0.0044244 0.0165718 0)
(0.0040863 0.0175131 0)
(0.00375768 0.0184779 0)
(0.00344107 0.0194608 0)
(0.00313835 0.0204557 0)
(0.00285085 0.0214557 0)
(0.00257933 0.0224534 0)
(0.00232403 0.0234409 0)
(0.00208477 0.0244097 0)
(0.00186094 0.0253509 0)
(0.00165167 0.0262555 0)
(0.00145582 0.0271145 0)
(0.00127209 0.0279188 0)
(0.00109909 0.0286596 0)
(0.000935386 0.0293286 0)
(0.000779541 0.029918 0)
(0.00063017 0.0304207 0)
(0.000485924 0.0308307 0)
(0.000345343 0.0311428 0)
(0.000205554 0.0313532 0)
(6.76698e-05 0.031459 0)
(0.000394437 0.00508571 0)
(0.00117868 0.0051077 0)
(0.00195067 0.00515193 0)
(0.00270304 0.00521873 0)
(0.00342777 0.00530867 0)
(0.00411776 0.00542252 0)
(0.00476651 0.00556122 0)
(0.00536819 0.00572587 0)
(0.00591776 0.00591776 0)
(0.006411 0.00613833 0)
(0.00684464 0.00638917 0)
(0.00721631 0.00667199 0)
(0.00752464 0.00698861 0)
(0.00776921 0.00734094 0)
(0.00795052 0.00773093 0)
(0.00807 0.00816058 0)
(0.00812991 0.00863184 0)
(0.00813326 0.00914661 0)
(0.00808376 0.00970669 0)
(0.00798565 0.0103137 0)
(0.00784364 0.010969 0)
(0.00766279 0.0116737 0)
(0.00744834 0.0124285 0)
(0.0072056 0.0132337 0)
(0.00693985 0.0140892 0)
(0.00665618 0.014994 0)
(0.00635941 0.0159469 0)
(0.00605401 0.0169455 0)
(0.00574394 0.017987 0)
(0.00543269 0.0190677 0)
(0.00512314 0.0201828 0)
(0.0048176 0.0213269 0)
(0.00451779 0.0224936 0)
(0.00422483 0.0236756 0)
(0.00393933 0.0248649 0)
(0.00366137 0.0260525 0)
(0.00339065 0.0272289 0)
(0.00312652 0.0283839 0)
(0.00286806 0.029507 0)
(0.00261421 0.0305872 0)
(0.00236383 0.0316136 0)
(0.00211581 0.0325752 0)
(0.00186909 0.0334614 0)
(0.00162281 0.0342621 0)
(0.00137625 0.0349679 0)
(0.00112893 0.0355701 0)
(0.000880581 0.0360613 0)
(0.000630932 0.0364354 0)
(0.000378355 0.0366876 0)
(0.000125484 0.0368144 0)
(0.000406176 0.00546216 0)
(0.00121402 0.00548719 0)
(0.00200993 0.00553751 0)
(0.00278672 0.00561355 0)
(0.00353659 0.00571599 0)
(0.00425266 0.00584573 0)
(0.0049286 0.00600389 0)
(0.00555878 0.0061918 0)
(0.00613833 0.006411 0)
(0.00666321 0.00666321 0)
(0.00713029 0.00695033 0)
(0.00753734 0.00727441 0)
(0.00788308 0.00763765 0)
(0.00816717 0.00804232 0)
(0.00839018 0.00849081 0)
(0.00855352 0.00898551 0)
(0.00865942 0.00952881 0)
(0.00871079 0.010123 0)
(0.00871119 0.0107703 0)
(0.00866465 0.0114728 0)
(0.00857562 0.0122321 0)
(0.00844877 0.0130496 0)
(0.00828893 0.0139264 0)
(0.0081009 0.014863 0)
(0.00788937 0.0158591 0)
(0.00765876 0.0169141 0)
(0.00741317 0.0180264 0)
(0.00715622 0.0191935 0)
(0.00689103 0.0204121 0)
(0.00662015 0.021678 0)
(0.00634553 0.0229857 0)
(0.00606849 0.0243289 0)
(0.0057898 0.0257001 0)
(0.00550964 0.0270908 0)
(0.00522771 0.0284914 0)
(0.00494332 0.0298914 0)
(0.00465544 0.0312796 0)
(0.00436284 0.0326437 0)
(0.00406422 0.0339713 0)
(0.00375827 0.0352492 0)
(0.00344383 0.0364644 0)
(0.00311996 0.0376037 0)
(0.00278603 0.0386544 0)
(0.00244182 0.0396041 0)
(0.00208748 0.0404417 0)
(0.00172364 0.0411567 0)
(0.00135129 0.0417401 0)
(0.000971631 0.0421846 0)
(0.000584529 0.0424842 0)
(0.00019447 0.0426349 0)
(0.000419464 0.00577305 0)
(0.00125403 0.00580125 0)
(0.00207703 0.00585795 0)
(0.00288151 0.00594366 0)
(0.00365994 0.00605919 0)
(0.00440566 0.0062056 0)
(0.00511259 0.00638422 0)
(0.00577531 0.00659663 0)
(0.00638917 0.00684464 0)
(0.00695033 0.00713029 0)
(0.00745584 0.00745584 0)
(0.00790363 0.00782373 0)
(0.00829255 0.00823657 0)
(0.00862237 0.00869709 0)
(0.00889371 0.00920813 0)
(0.009108 0.00977257 0)
(0.00926741 0.0103933 0)
(0.00937479 0.0110731 0)
(0.00943351 0.0118146 0)
(0.00944737 0.0126204 0)
(0.0094205 0.0134926 0)
(0.00935717 0.014433 0)
(0.0092617 0.0154428 0)
(0.00913831 0.0165229 0)
(0.00899099 0.0176733 0)
(0.00882341 0.0188932 0)
(0.00863877 0.020181 0)
(0.00843974 0.021534 0)
(0.00822842 0.0229485 0)
(0.00800626 0.0244197 0)
(0.00777407 0.0259414 0)
(0.00753201 0.0275062 0)
(0.00727968 0.0291056 0)
(0.00701613 0.0307296 0)
(0.00673999 0.032367 0)
(0.00644955 0.0340054 0)
(0.00614295 0.0356317 0)
(0.00581823 0.0372314 0)
(0.00547355 0.0387897 0)
(0.00510732 0.0402911 0)
(0.0047183 0.04172 0)
(0.00430575 0.0430606 0)
(0.00386953 0.0442978 0)
(0.00341014 0.045417 0)
(0.00292879 0.0464044 0)
(0.00242739 0.0472478 0)
(0.0019085 0.0479363 0)
(0.00137503 0.0484609 0)
(0.000828689 0.0488147 0)
(0.000276172 0.0489926 0)
(0.000434373 0.00601562 0)
(0.00129892 0.00604714 0)
(0.00215234 0.00611052 0)
(0.00298796 0.00620636 0)
(0.00379853 0.00633562 0)
(0.00457769 0.00649954 0)
(0.00531963 0.00669969 0)
(0.00601919 0.0069379 0)
(0.00667199 0.00721631 0)
(0.00727441 0.00753734 0)
(0.00782373 0.00790363 0)
(0.00831806 0.00831806 0)
(0.00875644 0.00878373 0)
(0.00913874 0.00930388 0)
(0.00946566 0.00988187 0)
(0.00973868 0.0105211 0)
(0.00995992 0.0112251 0)
(0.0101321 0.0119972 0)
(0.0102585 0.0128406 0)
(0.0103426 0.0137584 0)
(0.0103882 0.0147532 0)
(0.010399 0.0158273 0)
(0.0103789 0.0169824 0)
(0.0103314 0.0182196 0)
(0.0102596 0.0195391 0)
(0.0101664 0.0209403 0)
(0.010054 0.0224216 0)
(0.00992376 0.02398 0)
(0.00977673 0.0256114 0)
(0.00961303 0.0273105 0)
(0.0094321 0.0290702 0)
(0.00923274 0.0308823 0)
(0.00901313 0.0327366 0)
(0.00877097 0.0346218 0)
(0.00850358 0.0365248 0)
(0.00820804 0.0384314 0)
(0.00788141 0.0403259 0)
(0.00752087 0.0421916 0)
(0.00712391 0.0440108 0)
(0.00668851 0.0457653 0)
(0.00621334 0.0474365 0)
(0.00569784 0.049006 0)
(0.0051424 0.0504554 0)
(0.00454841 0.0517675 0)
(0.0039183 0.0529259 0)
(0.00325549 0.0539157 0)
(0.0025644 0.0547242 0)
(0.00185001 0.0553404 0)
(0.00111623 0.055756 0)
(0.000372401 0.0559651 0)
(0.000450978 0.00618818 0)
(0.00134892 0.00622316 0)
(0.00223625 0.00629353 0)
(0.00310662 0.0064 0)
(0.00395312 0.00654365 0)
(0.00476972 0.00672596 0)
(0.00555094 0.00694873 0)
(0.00629194 0.00721413 0)
(0.00698861 0.00752464 0)
(0.00763765 0.00788308 0)
(0.00823657 0.00829255 0)
(0.00878373 0.00875644 0)
(0.00927837 0.00927837 0)
(0.00972051 0.00986216 0)
(0.010111 0.0105118 0)
(0.0104512 0.0112313 0)
(0.0107435 0.0120248 0)
(0.0109903 0.0128964 0)
(0.0111947 0.0138498 0)
(0.0113599 0.0148889 0)
(0.0114894 0.0160169 0)
(0.0115864 0.0172366 0)
(0.011654 0.0185502 0)
(0.011695 0.0199593 0)
(0.0117117 0.0214644 0)
(0.0117059 0.023065 0)
(0.0116784 0.0247594 0)
(0.0116296 0.0265448 0)
(0.011559 0.0284165 0)
(0.0114651 0.0303686 0)
(0.0113458 0.0323932 0)
(0.0111984 0.0344809 0)
(0.0110192 0.0366203 0)
(0.0108044 0.0387982 0)
(0.0105496 0.0409996 0)
(0.0102506 0.0432079 0)
(0.00990309 0.045405 0)
(0.00950308 0.0475711 0)
(0.00904726 0.0496857 0)
(0.00853308 0.0517273 0)
(0.007959 0.0536739 0)
(0.00732467 0.0555037 0)
(0.00663106 0.0571951 0)
(0.00588057 0.0587273 0)
(0.00507703 0.0600809 0)
(0.00422571 0.0612383 0)
(0.00333316 0.062184 0)
(0.0024069 0.0629051 0)
(0.00145342 0.0633917 0)
(0.000485261 0.0636365 0)
(0.000469359 0.00629007 0)
(0.00140428 0.00632869 0)
(0.00232917 0.00640637 0)
(0.00323808 0.00652394 0)
(0.0041245 0.00668269 0)
(0.00498277 0.00688429 0)
(0.0058078 0.00713084 0)
(0.0065951 0.00742485 0)
(0.00734094 0.00776921 0)
(0.00804232 0.00816717 0)
(0.00869709 0.00862237 0)
(0.00930388 0.00913874 0)
(0.00986216 0.00972051 0)
(0.0103721 0.0103721 0)
(0.0108348 0.0110983 0)
(0.0112517 0.0119038 0)
(0.011625 0.0127935 0)
(0.0119572 0.0137721 0)
(0.0122511 0.0148444 0)
(0.0125097 0.0160148 0)
(0.0127358 0.0172872 0)
(0.0129324 0.0186652 0)
(0.0131016 0.0201517 0)
(0.0132455 0.0217486 0)
(0.0133653 0.023457 0)
(0.0134615 0.0252766 0)
(0.0135337 0.0272059 0)
(0.0135808 0.0292418 0)
(0.0136006 0.0313794 0)
(0.0135898 0.0336123 0)
(0.0135444 0.0359316 0)
(0.0134598 0.0383267 0)
(0.0133304 0.0407847 0)
(0.0131503 0.0432905 0)
(0.0129133 0.0458271 0)
(0.0126134 0.048375 0)
(0.0122446 0.0509134 0)
(0.0118016 0.0534192 0)
(0.0112801 0.0558685 0)
(0.0106768 0.0582359 0)
(0.00998978 0.0604958 0)
(0.00921897 0.0626221 0)
(0.00836594 0.0645894 0)
(0.00743423 0.066373 0)
(0.00642932 0.06795 0)
(0.00535861 0.0692992 0)
(0.00423124 0.0704023 0)
(0.00305768 0.0712437 0)
(0.00184756 0.0718116 0)
(0.000617197 0.0720974 0)
(0.000489595 0.00632173 0)
(0.00146522 0.00636414 0)
(0.00243151 0.00644946 0)
(0.00338294 0.00657864 0)
(0.00431346 0.00675317 0)
(0.00521788 0.00697497 0)
(0.0060915 0.00724647 0)
(0.0069303 0.00757054 0)
(0.00773093 0.00795052 0)
(0.00849081 0.00839018 0)
(0.00920813 0.00889371 0)
(0.00988187 0.00946566 0)
(0.0105118 0.010111 0)
(0.0110983 0.0108348 0)
(0.0116426 0.0116426 0)
(0.0121464 0.0125401 0)
(0.0126118 0.0135328 0)
(0.0130412 0.0146265 0)
(0.0134373 0.0158268 0)
(0.0138027 0.0171389 0)
(0.0141399 0.0185677 0)
(0.0144509 0.0201176 0)
(0.0147374 0.0217922 0)
(0.0150003 0.0235941 0)
(0.0152397 0.0255248 0)
(0.0154548 0.0275846 0)
(0.0156436 0.0297721 0)
(0.0158032 0.0320842 0)
(0.0159295 0.0345158 0)
(0.0160172 0.0370598 0)
(0.0160602 0.0397065 0)
(0.0160514 0.0424441 0)
(0.015983 0.0452579 0)
(0.0158468 0.048131 0)
(0.0156342 0.0510437 0)
(0.0153369 0.0539739 0)
(0.0149473 0.0568972 0)
(0.0144582 0.0597872 0)
(0.0138639 0.0626156 0)
(0.0131604 0.065353 0)
(0.0123452 0.0679691 0)
(0.0114183 0.0704334 0)
(0.010382 0.0727157 0)
(0.0092412 0.0747869 0)
(0.00800322 0.0766196 0)
(0.00667797 0.0781887 0)
(0.00527764 0.0794722 0)
(0.00381622 0.0804518 0)
(0.00230707 0.0811131 0)
(0.000771041 0.081446 0)
(0.000511766 0.00628463 0)
(0.001532 0.00633098 0)
(0.00254368 0.00642425 0)
(0.0035418 0.00656555 0)
(0.00452083 0.00675654 0)
(0.00547607 0.00699945 0)
(0.00640336 0.00729704 0)
(0.00729915 0.00765262 0)
(0.00816058 0.00807 0)
(0.00898551 0.00855352 0)
(0.00977257 0.009108 0)
(0.0105211 0.00973868 0)
(0.0112313 0.0104512 0)
(0.0119038 0.0112517 0)
(0.0125401 0.0121464 0)
(0.0131419 0.0131419 0)
(0.0137114 0.0142448 0)
(0.0142512 0.0154619 0)
(0.0147634 0.0167996 0)
(0.0152506 0.0182644 0)
(0.0157146 0.0198621 0)
(0.0161568 0.0215981 0)
(0.0165781 0.0234768 0)
(0.0169781 0.0255018 0)
(0.0173558 0.0276752 0)
(0.0177088 0.0299978 0)
(0.0180333 0.0324686 0)
(0.0183246 0.0350846 0)
(0.0185761 0.0378406 0)
(0.0187804 0.0407287 0)
(0.0189287 0.0437387 0)
(0.0190112 0.0468572 0)
(0.0190174 0.0500681 0)
(0.0189361 0.053352 0)
(0.0187562 0.0566865 0)
(0.0184669 0.0600465 0)
(0.0180578 0.0634038 0)
(0.01752 0.0667278 0)
(0.0168459 0.0699857 0)
(0.0160303 0.0731432 0)
(0.0150702 0.0761647 0)
(0.0139656 0.0790143 0)
(0.0127194 0.0816564 0)
(0.0113381 0.0840566 0)
(0.00983108 0.0861822 0)
(0.00821124 0.0880035 0)
(0.00649436 0.0894943 0)
(0.00469857 0.0906326 0)
(0.00284175 0.0914014 0)
(0.000950078 0.0917885 0)
(0.000535948 0.00618123 0)
(0.00160484 0.00623168 0)
(0.00266607 0.0063332 0)
(0.00371523 0.00648708 0)
(0.00474737 0.0066952 0)
(0.00575838 0.00696009 0)
(0.00674467 0.0072849 0)
(0.00770326 0.00767339 0)
(0.00863184 0.00812991 0)
(0.00952881 0.00865942 0)
(0.0103933 0.00926741 0)
(0.0112251 0.00995992 0)
(0.0120248 0.0107435 0)
(0.0127935 0.011625 0)
(0.0135328 0.0126118 0)
(0.0142448 0.0137114 0)
(0.0149318 0.0149318 0)
(0.015596 0.0162805 0)
(0.0162399 0.0177655 0)
(0.0168652 0.0193942 0)
(0.0174736 0.0211737 0)
(0.0180656 0.0231105 0)
(0.0186411 0.0252102 0)
(0.0191987 0.0274772 0)
(0.0197357 0.0299147 0)
(0.0202482 0.0325241 0)
(0.0207304 0.035305 0)
(0.0211751 0.0382546 0)
(0.0215736 0.0413675 0)
(0.0219153 0.0446356 0)
(0.0221887 0.0480478 0)
(0.0223808 0.0515894 0)
(0.0224778 0.0552423 0)
(0.0224652 0.058985 0)
(0.0223287 0.0627921 0)
(0.0220542 0.0666349 0)
(0.0216285 0.070481 0)
(0.0210401 0.0742953 0)
(0.0202793 0.0780396 0)
(0.0193393 0.0816739 0)
(0.0182163 0.0851566 0)
(0.01691 0.0884456 0)
(0.0154243 0.0914988 0)
(0.013767 0.0942755 0)
(0.0119502 0.096737 0)
(0.00999011 0.0988479 0)
(0.0079068 0.100577 0)
(0.00572332 0.101898 0)
(0.0034629 0.10279 0)
(0.00115811 0.10324 0)
(0.000562213 0.00601495 0)
(0.00168397 0.00606963 0)
(0.00279908 0.00617969 0)
(0.00390379 0.00634659 0)
(0.00499384 0.00657245 0)
(0.00606577 0.00686014 0)
(0.00711666 0.00721322 0)
(0.00814416 0.00763595 0)
(0.00914661 0.00813326 0)
(0.010123 0.00871079 0)
(0.0110731 0.00937479 0)
(0.0119972 0.0101321 0)
(0.0128964 0.0109903 0)
(0.0137721 0.0119572 0)
(0.0146265 0.0130412 0)
(0.0154619 0.0142512 0)
(0.0162805 0.015596 0)
(0.0170849 0.0170849 0)
(0.0178771 0.0187269 0)
(0.0186588 0.0205309 0)
(0.0194309 0.0225054 0)
(0.0201933 0.0246581 0)
(0.0209447 0.026996 0)
(0.0216826 0.0295248 0)
(0.0224027 0.0322487 0)
(0.0230991 0.0351701 0)
(0.0237638 0.0382892 0)
(0.024387 0.0416038 0)
(0.0249572 0.0451086 0)
(0.0254607 0.0487952 0)
(0.0258825 0.0526515 0)
(0.0262058 0.0566619 0)
(0.026413 0.0608063 0)
(0.0264859 0.0650606 0)
(0.0264061 0.0693963 0)
(0.0261558 0.0737807 0)
(0.0257182 0.078177 0)
(0.0250785 0.0825445 0)
(0.0242245 0.0868393 0)
(0.0231473 0.0910147 0)
(0.0218419 0.0950222 0)
(0.0203078 0.0988123 0)
(0.0185493 0.102335 0)
(0.0165762 0.105543 0)
(0.0144035 0.10839 0)
(0.0120512 0.110834 0)
(0.00954438 0.112837 0)
(0.006912 0.114368 0)
(0.00418367 0.115403 0)
(0.00139955 0.115924 0)
(0.000590629 0.00579006 0)
(0.00176959 0.0058491 0)
(0.00294303 0.00596795 0)
(0.00410799 0.00614826 0)
(0.00526093 0.00639242 0)
(0.00639915 0.00670365 0)
(0.00752047 0.00708595 0)
(0.0086233 0.00754413 0)
(0.00970669 0.00808376 0)
(0.0107703 0.00871119 0)
(0.0118146 0.00943351 0)
(0.0128406 0.0102585 0)
(0.0138498 0.0111947 0)
(0.0148444 0.0122511 0)
(0.0158268 0.0134373 0)
(0.0167996 0.0147634 0)
(0.0177655 0.0162399 0)
(0.0187269 0.0178771 0)
(0.0196859 0.0196859 0)
(0.0206437 0.0216765 0)
(0.0216007 0.0238591 0)
(0.0225562 0.026243 0)
(0.0235078 0.0288367 0)
(0.0244514 0.0316475 0)
(0.0253811 0.0346808 0)
(0.0262887 0.0379403 0)
(0.0271641 0.0414272 0)
(0.0279945 0.0451399 0)
(0.0287649 0.0490735 0)
(0.0294583 0.0532195 0)
(0.0300555 0.0575653 0)
(0.0305356 0.0620938 0)
(0.0308764 0.0667833 0)
(0.0310552 0.071607 0)
(0.0310488 0.0765329 0)
(0.0308349 0.0815242 0)
(0.0303923 0.0865389 0)
(0.0297024 0.0915303 0)
(0.0287496 0.0964477 0)
(0.0275223 0.101237 0)
(0.0260138 0.105842 0)
(0.0242231 0.110203 0)
(0.0221552 0.114263 0)
(0.0198216 0.117965 0)
(0.0172406 0.121255 0)
(0.0144369 0.124081 0)
(0.0114412 0.1264 0)
(0.00828962 0.128173 0)
(0.00501932 0.129373 0)
(0.00167953 0.129977 0)
(0.000621252 0.00551164 0)
(0.00186187 0.00557513 0)
(0.00309824 0.00570299 0)
(0.00432826 0.00589703 0)
(0.00554923 0.00615995 0)
(0.0067593 0.00649534 0)
(0.00795714 0.00690769 0)
(0.00914197 0.00740237 0)
(0.0103137 0.00798565 0)
(0.0114728 0.00866465 0)
(0.0126204 0.00944737 0)
(0.0137584 0.0103426 0)
(0.0148889 0.0113599 0)
(0.0160148 0.0125097 0)
(0.0171389 0.0138027 0)
(0.0182644 0.0152506 0)
(0.0193942 0.0168652 0)
(0.0205309 0.0186588 0)
(0.0216765 0.0206437 0)
(0.022832 0.022832 0)
(0.0239974 0.0252357 0)
(0.0251709 0.027866 0)
(0.0263492 0.0307332 0)
(0.0275267 0.0338463 0)
(0.0286956 0.0372125 0)
(0.0298455 0.0408369 0)
(0.0309634 0.0447222 0)
(0.0320333 0.0488675 0)
(0.0330368 0.0532688 0)
(0.0339525 0.0579176 0)
(0.0347568 0.0628009 0)
(0.0354238 0.0679007 0)
(0.0359261 0.0731933 0)
(0.0362355 0.0786493 0)
(0.0363234 0.0842332 0)
(0.0361617 0.0899033 0)
(0.0357242 0.0956122 0)
(0.0349874 0.101307 0)
(0.0339313 0.106928 0)
(0.0325412 0.112413 0)
(0.030808 0.117697 0)
(0.0287296 0.122711 0)
(0.0263116 0.127385 0)
(0.0235674 0.131654 0)
(0.0205189 0.135452 0)
(0.0171962 0.138718 0)
(0.0136369 0.141401 0)
(0.00988525 0.143455 0)
(0.00598762 0.144844 0)
(0.00200403 0.145545 0)
(0.000654126 0.00518544 0)
(0.00196094 0.00525347 0)
(0.00326493 0.00539047 0)
(0.00456495 0.0055985 0)
(0.00585924 0.00588053 0)
(0.00714689 0.00624057 0)
(0.0084275 0.0066836 0)
(0.00970126 0.00721563 0)
(0.010969 0.00784364 0)
(0.0122321 0.00857562 0)
(0.0134926 0.0094205 0)
(0.0147532 0.0103882 0)
(0.0160169 0.0114894 0)
(0.0172872 0.0127358 0)
(0.0185677 0.0141399 0)
(0.0198621 0.0157146 0)
(0.0211737 0.0174736 0)
(0.0225054 0.0194309 0)
(0.0238591 0.0216007 0)
(0.0252357 0.0239974 0)
(0.0266348 0.0266348 0)
(0.0280537 0.0295262 0)
(0.029488 0.0326842 0)
(0.0309306 0.0361199 0)
(0.0323717 0.0398425 0)
(0.0337984 0.043859 0)
(0.0351947 0.0481737 0)
(0.0365411 0.0527873 0)
(0.037815 0.0576967 0)
(0.0389905 0.0628938 0)
(0.0400386 0.0683657 0)
(0.0409279 0.0740934 0)
(0.041625 0.0800516 0)
(0.0420951 0.0862082 0)
(0.0423029 0.092524 0)
(0.0422139 0.0989524 0)
(0.0417955 0.10544 0)
(0.041018 0.111925 0)
(0.0398564 0.118342 0)
(0.0382914 0.124616 0)
(0.036311 0.130673 0)
(0.0339116 0.13643 0)
(0.0310986 0.141809 0)
(0.0278877 0.146727 0)
(0.024305 0.15111 0)
(0.0203864 0.154885 0)
(0.0161777 0.157988 0)
(0.0117329 0.160365 0)
(0.00710936 0.161975 0)
(0.00238005 0.162786 0)
(0.000689281 0.0048178 0)
(0.0020669 0.0048904 0)
(0.00344327 0.00503665 0)
(0.00481831 0.0052588 0)
(0.0061913 0.00556016 0)
(0.00756237 0.00594515 0)
(0.0089322 0.0064193 0)
(0.010302 0.00698926 0)
(0.0116737 0.00766279 0)
(0.0130496 0.00844877 0)
(0.014433 0.00935717 0)
(0.0158273 0.010399 0)
(0.0172366 0.0115864 0)
(0.0186652 0.0129324 0)
(0.0201176 0.0144509 0)
(0.0215981 0.0161568 0)
(0.0231105 0.0180656 0)
(0.0246581 0.0201933 0)
(0.026243 0.0225562 0)
(0.027866 0.0251709 0)
(0.0295262 0.0280537 0)
(0.0312204 0.0312204 0)
(0.0329428 0.0346859 0)
(0.0346849 0.0384639 0)
(0.0364347 0.0425661 0)
(0.0381768 0.0470018 0)
(0.0398917 0.0517774 0)
(0.0415563 0.0568956 0)
(0.0431433 0.0623546 0)
(0.0446216 0.0681474 0)
(0.0459563 0.0742614 0)
(0.0471096 0.0806771 0)
(0.0480409 0.0873677 0)
(0.0487079 0.0942986 0)
(0.0490675 0.101427 0)
(0.0490774 0.108701 0)
(0.0486969 0.116059 0)
(0.0478893 0.123434 0)
(0.0466226 0.130749 0)
(0.0448722 0.137918 0)
(0.0426219 0.144853 0)
(0.0398656 0.151461 0)
(0.0366087 0.157645 0)
(0.0328687 0.163311 0)
(0.0286761 0.168367 0)
(0.0240739 0.172728 0)
(0.0191175 0.176318 0)
(0.0138722 0.17907 0)
(0.00840888 0.180935 0)
(0.00281579 0.181876 0)
(0.000726729 0.00441551 0)
(0.00217979 0.00449269 0)
(0.00363333 0.00464818 0)
(0.00508846 0.00488448 0)
(0.00654559 0.00520522 0)
(0.00800603 0.00561526 0)
(0.00947161 0.0061207 0)
(0.0109448 0.00672887 0)
(0.0124285 0.00744834 0)
(0.0139264 0.00828893 0)
(0.0154428 0.0092617 0)
(0.0169824 0.0103789 0)
(0.0185502 0.011654 0)
(0.0201517 0.0131016 0)
(0.0217922 0.0147374 0)
(0.0234768 0.0165781 0)
(0.0252102 0.0186411 0)
(0.026996 0.0209447 0)
(0.0288367 0.0235078 0)
(0.0307332 0.0263492 0)
(0.0326842 0.029488 0)
(0.0346859 0.0329428 0)
(0.0367315 0.0367315 0)
(0.0388108 0.0408705 0)
(0.0409096 0.0453746 0)
(0.0430098 0.050256 0)
(0.0450885 0.0555237 0)
(0.0471182 0.0611828 0)
(0.0490668 0.0672337 0)
(0.0508973 0.0736709 0)
(0.0525682 0.0804827 0)
(0.0540342 0.0876494 0)
(0.0552466 0.0951435 0)
(0.0561542 0.102928 0)
(0.0567048 0.110956 0)
(0.0568465 0.11917 0)
(0.0565293 0.127503 0)
(0.0557072 0.135878 0)
(0.0543402 0.144205 0)
(0.0523962 0.152388 0)
(0.0498537 0.160324 0)
(0.0467031 0.167902 0)
(0.0429487 0.17501 0)
(0.03861 0.181536 0)
(0.0337224 0.18737 0)
(0.0283368 0.192409 0)
(0.0225196 0.196562 0)
(0.0163501 0.199751 0)
(0.0099149 0.201912 0)
(0.00332092 0.203003 0)
(0.000766459 0.0039857 0)
(0.00229957 0.00406741 0)
(0.00383506 0.00423207 0)
(0.00537535 0.0044824 0)
(0.00692208 0.00482238 0)
(0.00847785 0.00525733 0)
(0.0100458 0.00579392 0)
(0.0116297 0.00644021 0)
(0.0132337 0.0072056 0)
(0.014863 0.0081009 0)
(0.0165229 0.00913831 0)
(0.0182196 0.0103314 0)
(0.0199593 0.011695 0)
(0.0217486 0.0132455 0)