/*--------------------------------*- C++ -*----------------------------------*\
| =========                 |                                                 |
| \\      /  F ield         | OpenFOAM: The Open Source CFD Toolbox           |
|  \\    /   O peration     | Version:  2406                                  |
|   \\  /    A nd           | Website:  www.openfoam.com                      |
|    \\/     M anipulation  |                                                 |
\*---------------------------------------------------------------------------*/
FoamFile
{
    version     2.0;
    format      ascii;
    arch        "LSB;label=32;scalar=64";
    class       volScalarField;
    location    "0.9";
    object      gradTx;
}
// * * * * * * * * * * * * * * * * * * * * * * * * * * * * * * * * * * * * * //

dimensions      [0 -1 0 1 0 0 0];

internalField   nonuniform List<scalar> 
2500
(
0.00349643
0.0104375
0.0172454
0.0238416
0.0301371
0.0360542
0.0415215
0.0464746
0.0508571
0.0546216
0.0577305
0.0601562
0.0618818
0.0629007
0.0632173
0.0628463
0.0618123
0.0601495
0.0579006
0.0551164
0.0518544
0.048178
0.0441551
0.039857
0.0353572
0.0307298
0.0260488
0.0213862
0.0168114
0.0123901
0.00818278
0.00424453
0.00062394
-0.00263741
-0.00550537
-0.00795357
-0.00996353
-0.0115247
-0.0126346
-0.013298
-0.0135273
-0.0133419
-0.0127673
-0.0118353
-0.0105828
-0.00905152
-0.00728734
-0.00533966
-0.00325984
-0.00109669
0.00350797
0.0104733
0.017306
0.0239267
0.0302473
0.0361904
0.0416846
0.0466655
0.051077
0.0548719
0.0580125
0.0604714
0.0622316
0.0632869
0.0636414
0.0633098
0.0623168
0.0606963
0.058491
0.0557513
0.0525347
0.048904
0.0449269
0.0406741
0.0362187
0.0316342
0.0269938
0.0223691
0.0178288
0.0134376
0.00925538
0.00533652
0.00172883
-0.00152679
-0.00439684
-0.0068555
-0.00888478
-0.0104745
-0.0116223
-0.0123333
-0.0126196
-0.0125004
-0.012001
-0.0111523
-0.0099906
-0.00855663
-0.00689529
-0.00505584
-0.00309402
-0.00104501
0.00353218
0.010546
0.0174274
0.0240977
0.030469
0.0364643
0.0420124
0.0470494
0.0515193
0.0553751
0.0585795
0.0611052
0.0629353
0.0640637
0.0644946
0.0642425
0.063332
0.0617969
0.0596795
0.0570299
0.0539047
0.0503665
0.0464818
0.0423207
0.037955
0.0334573
0.0288994
0.0243516
0.019881
0.015551
0.01142
0.00754069
0.00395949
0.000715876
-0.00215796
-0.00463735
-0.00670527
-0.00835231
-0.00957655
-0.0103833
-0.0107846
-0.0107991
-0.0104513
-0.00977102
-0.00879295
-0.00755584
-0.00610205
-0.004478
-0.00274353
-0.000928775
0.0035685
0.0106553
0.0176104
0.0243554
0.0308033
0.0368775
0.0425072
0.047629
0.0521873
0.0561355
0.0594366
0.0620636
0.064
0.0652394
0.0657864
0.0656555
0.0648708
0.0634659
0.0614826
0.0589703
0.055985
0.052588
0.0488448
0.044824
0.0405959
0.0362313
0.0318
0.0273703
0.0230072
0.0187716
0.0147197
0.0109019
0.00736217
0.00413795
0.00125939
-0.00125065
-0.00337665
-0.00511035
-0.00645059
-0.00740295
-0.00797942
-0.00819788
-0.0080816
-0.0076587
-0.00696154
-0.0060261
-0.00489157
-0.00360105
-0.00221245
-0.000751206
0.00361724
0.010802
0.0178562
0.0247018
0.0312528
0.0374331
0.0431729
0.048409
0.0530867
0.0571599
0.0605919
0.0633562
0.0654365
0.0668269
0.0675317
0.0675654
0.066952
0.0657245
0.0639242
0.0615995
0.0588053
0.0556016
0.0520522
0.0482238
0.0441846
0.0400028
0.0357459
0.0314791
0.0272643
0.0231595
0.0192176
0.0154857
0.0120048
0.0088091
0.00592605
0.00337603
0.00117245
-0.000678071
-0.00217544
-0.00332572
-0.00414069
-0.00463733
-0.00483727
-0.00476626
-0.00445359
-0.00393152
-0.00323493
-0.00240233
-0.00148707
-0.00050851
0.00367875
0.0109872
0.0181664
0.0251393
0.0318206
0.0381354
0.0440145
0.0493959
0.0542252
0.0584573
0.062056
0.0649954
0.0672596
0.0688429
0.0697497
0.0699945
0.0696009
0.0686014
0.0670365
0.0649534
0.0624057
0.0594515
0.0561526
0.0525733
0.0487789
0.0448346
0.0408045
0.0367499
0.0327291
0.0287958
0.0249987
0.0213808
0.0179789
0.0148233
0.0119377
0.00933922
0.00703852
0.00504002
0.00334234
0.00193874
0.000817667
-3.67478e-05
-0.000644062
-0.00102698
-0.00121083
-0.00122304
-0.00109293
-0.00085279
-0.000549634
-0.000194877
0.00375344
0.011212
0.0185432
0.0256707
0.0325107
0.0389894
0.0450386
0.0505972
0.0556122
0.0600389
0.0638422
0.0669969
0.0694873
0.0713084
0.0724647
0.0729704
0.072849
0.0721322
0.0708595
0.0690769
0.066836
0.064193
0.061207
0.0579392
0.0544516
0.0508055
0.0470606
0.0432737
0.0394982
0.0357826
0.0321703
0.028699
0.0254004
0.0222996
0.0194157
0.0167616
0.0143443
0.0121655
0.0102219
0.00850566
0.00700554
0.00570698
0.00459297
0.00364457
0.00284142
0.00216215
0.00158453
0.00108414
0.000622129
0.000197139
0.0038418
0.011478
0.018989
0.0262997
0.033328
0.0400011
0.0462526
0.0520224
0.0572587
0.061918
0.0659663
0.069379
0.0721413
0.0742485
0.0757054
0.0765262
0.0767339
0.0763595
0.0754413
0.0740237
0.0721563
0.0698926
0.0672887
0.0644021
0.0612905
0.0580106
0.0546169
0.0511605
0.0476888
0.044244
0.040863
0.0375768
0.0344107
0.0313835
0.0285085
0.0257933
0.0232403
0.0208477
0.0186094
0.0165167
0.0145582
0.0127209
0.0109909
0.00935386
0.00779541
0.0063017
0.00485924
0.00345343
0.00205554
0.000676698
0.00394437
0.0117868
0.0195067
0.0270304
0.0342777
0.0411776
0.0476651
0.0536819
0.0591776
0.06411
0.0684464
0.0721631
0.0752464
0.0776921
0.0795052
0.0807
0.0812991
0.0813326
0.0808376
0.0798565
0.0784364
0.0766279
0.0744834
0.072056
0.0693985
0.0665618
0.0635941
0.0605401
0.0574394
0.0543269
0.0512314
0.048176
0.0451779
0.0422483
0.0393933
0.0366137
0.0339065
0.0312652
0.0286806
0.0261421
0.0236383
0.0211581
0.0186909
0.0162281
0.0137625
0.0112893
0.00880581
0.00630932
0.00378355
0.00125484
0.00406176
0.0121402
0.0200993
0.0278672
0.0353659
0.0425266
0.049286
0.0555878
0.0613833
0.0666321
0.0713029
0.0753734
0.0788308
0.0816717
0.0839018
0.0855352
0.0865942
0.0871079
0.0871119
0.0866465
0.0857562
0.0844877
0.0828893
0.081009
0.0788937
0.0765876
0.0741317
0.0715622
0.0689103
0.0662015
0.0634553
0.0606849
0.057898
0.0550964
0.0522771
0.0494332
0.0465544
0.0436284
0.0406422
0.0375827
0.0344383
0.0311996
0.0278603
0.0244182
0.0208748
0.0172364
0.0135129
0.00971631
0.00584529
0.0019447
0.00419464
0.0125403
0.0207703
0.0288151
0.0365994
0.0440566
0.0511259
0.0577531
0.0638917
0.0695033
0.0745584
0.0790363
0.0829255
0.0862237
0.0889371
0.09108
0.0926741
0.0937479
0.0943351
0.0944737
0.094205
0.0935717
0.092617
0.0913831
0.0899099
0.0882341
0.0863877
0.0843974
0.0822842
0.0800626
0.0777407
0.0753201
0.0727968
0.0701613
0.0673999
0.0644955
0.0614295
0.0581823
0.0547355
0.0510732
0.047183
0.0430575
0.0386953
0.0341014
0.0292879
0.0242739
0.019085
0.0137503
0.00828689
0.00276172
0.00434373
0.0129892
0.0215234
0.0298796
0.0379853
0.0457769
0.0531963
0.0601919
0.0667199
0.0727441
0.0782373
0.0831806
0.0875644
0.0913874
0.0946566
0.0973868
0.0995992
0.101321
0.102585
0.103426
0.103882
0.10399
0.103789
0.103314
0.102596
0.101664
0.10054
0.0992376
0.0977673
0.0961303
0.094321
0.0923274
0.0901313
0.0877097
0.0850358
0.0820804
0.0788141
0.0752087
0.0712391
0.0668851
0.0621334
0.0569784
0.051424
0.0454841
0.039183
0.0325549
0.025644
0.0185001
0.0111623
0.00372401
0.00450978
0.0134892
0.0223625
0.0310662
0.0395312
0.0476972
0.0555094
0.0629194
0.0698861
0.0763765
0.0823657
0.0878373
0.0927837
0.0972051
0.10111
0.104512
0.107435
0.109903
0.111947
0.113599
0.114894
0.115864
0.11654
0.11695
0.117117
0.117059
0.116784
0.116296
0.11559
0.114651
0.113458
0.111984
0.110192
0.108044
0.105496
0.102506
0.0990309
0.0950308
0.0904726
0.0853308
0.07959
0.0732467
0.0663106
0.0588057
0.0507703
0.0422571
0.0333316
0.024069
0.0145342
0.00485261
0.00469359
0.0140428
0.0232917
0.0323808
0.041245
0.0498277
0.058078
0.065951
0.0734094
0.0804232
0.0869709
0.0930388
0.0986216
0.103721
0.108348
0.112517
0.11625
0.119572
0.122511
0.125097
0.127358
0.129324
0.131016
0.132455
0.133653
0.134615
0.135337
0.135808
0.136006
0.135898
0.135444
0.134598
0.133304
0.131503
0.129133
0.126134
0.122446
0.118016
0.112801
0.106768
0.0998978
0.0921897
0.0836594
0.0743423
0.0642932
0.0535861
0.0423124
0.0305768
0.0184756
0.00617197
0.00489595
0.0146522
0.0243151
0.0338294
0.0431346
0.0521788
0.060915
0.069303
0.0773093
0.0849081
0.0920813
0.0988187
0.105118
0.110983
0.116426
0.121464
0.126118
0.130412
0.134373
0.138027
0.141399
0.144509
0.147374
0.150003
0.152397
0.154548
0.156436
0.158032
0.159295
0.160172
0.160602
0.160514
0.15983
0.158468
0.156342
0.153369
0.149473
0.144582
0.138639
0.131604
0.123452
0.114183
0.10382
0.092412
0.0800322
0.0667797
0.0527764
0.0381622
0.0230707
0.00771041
0.00511766
0.01532
0.0254368
0.035418
0.0452083
0.0547607
0.0640336
0.0729915
0.0816058
0.0898551
0.0977257
0.105211
0.112313
0.119038
0.125401
0.131419
0.137114
0.142512
0.147634
0.152506
0.157146
0.161568
0.165781
0.169781
0.173558
0.177088
0.180333
0.183246
0.185761
0.187804
0.189287
0.190112
0.190174
0.189361
0.187562
0.184669
0.180578
0.1752
0.168459
0.160303
0.150702
0.139656
0.127194
0.113381
0.0983108
0.0821124
0.0649436
0.0469857
0.0284175
0.00950078
0.00535948
0.0160484
0.0266607
0.0371523
0.0474737
0.0575838
0.0674467
0.0770326
0.0863184
0.0952881
0.103933
0.112251
0.120248
0.127935
0.135328
0.142448
0.149318
0.15596
0.162399
0.168652
0.174736
0.180656
0.186411
0.191987
0.197357
0.202482
0.207304
0.211751
0.215736
0.219153
0.221887
0.223808
0.224778
0.224652
0.223287
0.220542
0.216285
0.210401
0.202793
0.193393
0.182163
0.1691
0.154243
0.13767
0.119502
0.0999011
0.079068
0.0572332
0.034629
0.0115811
0.00562213
0.0168397
0.0279908
0.0390379
0.0499384
0.0606577
0.0711666
0.0814416
0.0914661
0.10123
0.110731
0.119972
0.128964
0.137721
0.146265
0.154619
0.162805
0.170849
0.178771
0.186588
0.194309
0.201933
0.209447
0.216826
0.224027
0.230991
0.237638
0.24387
0.249572
0.254607
0.258825
0.262058
0.26413
0.264859
0.264061
0.261558
0.257182
0.250785
0.242245
0.231473
0.218419
0.203078
0.185493
0.165762
0.144035
0.120512
0.0954438
0.06912
0.0418367
0.0139955
0.00590629
0.0176959
0.0294303
0.0410799
0.0526093
0.0639915
0.0752047
0.086233
0.0970669
0.107703
0.118146
0.128406
0.138498
0.148444
0.158268
0.167996
0.177655
0.187269
0.196859
0.206437
0.216007
0.225562
0.235078
0.244514
0.253811
0.262887
0.271641
0.279945
0.287649
0.294583
0.300555
0.305356
0.308764
0.310552
0.310488
0.308349
0.303923
0.297024
0.287496
0.275223
0.260138
0.242231
0.221552
0.198216
0.172406
0.144369
0.114412
0.0828962
0.0501932
0.0167953
0.00621252
0.0186187
0.0309824
0.0432826
0.0554923
0.067593
0.0795714
0.0914197
0.103137
0.114728
0.126204
0.137584
0.148889
0.160148
0.171389
0.182644
0.193942
0.205309
0.216765
0.22832
0.239974
0.251709
0.263492
0.275267
0.286956
0.298455
0.309634
0.320333
0.330368
0.339525
0.347568
0.354238
0.359261
0.362355
0.363234
0.361617
0.357242
0.349874
0.339313
0.325412
0.30808
0.287296
0.263116
0.235674
0.205189
0.171962
0.136369
0.0988525
0.0598762
0.0200403
0.00654126
0.0196094
0.0326493
0.0456495
0.0585924
0.0714689
0.084275
0.0970126
0.10969
0.122321
0.134926
0.147532
0.160169
0.172872
0.185677
0.198621
0.211737
0.225054
0.238591
0.252357
0.266348
0.280537
0.29488
0.309306
0.323717
0.337984
0.351947
0.365411
0.37815
0.389905
0.400386
0.409279
0.41625
0.420951
0.423029
0.422139
0.417955
0.41018
0.398564
0.382914
0.36311
0.339116
0.310986
0.278877
0.24305
0.203864
0.161777
0.117329
0.0710936
0.0238005
0.00689281
0.020669
0.0344327
0.0481831
0.061913
0.0756237
0.089322
0.10302
0.116737
0.130496
0.14433
0.158273
0.172366
0.186652
0.201176
0.215981
0.231105
0.246581
0.26243
0.27866
0.295262
0.312204
0.329428
0.346849
0.364347
0.381768
0.398917
0.415563
0.431433
0.446216
0.459563
0.471096
0.480409
0.487079
0.490675
0.490774
0.486969
0.478893
0.466226
0.448722
0.426219
0.398656
0.366087
0.328687
0.286761
0.240739
0.191175
0.138722
0.0840888
0.0281579
0.00726729
0.0217979
0.0363333
0.0508846
0.0654559
0.0800603
0.0947161
0.109448
0.124285
0.139264
0.154428
0.169824
0.185502
0.201517
0.217922
0.234768
0.252102
0.26996
0.288367
0.307332
0.326842
0.346859
0.367315
0.388108
0.409096
0.430098
0.450885
0.471182
0.490668
0.508973
0.525682
0.540342
0.552466
0.561542
0.567048
0.568465
0.565293
0.557072
0.543402
0.523962
0.498537
0.467031
0.429487
0.3861
0.337224
0.283368
0.225196
0.163501
0.099149
0.0332092
0.00766459
0.0229957
0.0383506
0.0537535
0.0692208
0.0847785
0.100458
0.116297
0.132337
0.14863
0.165229
0.182196
0.199593
0.217486
0.235941
0.255018
0.274772
0.295248
0.316475
0.338463
0.361199
0.384639
0.408705
0.43328
0.458202
0.483258
0.508185
0.532663
0.556314
0.578706
0.599348
0.617705
0.633193
0.645202
0.653098
0.65625
0.654044
0.645907
0.631334
0.609914
0.581357
0.54552
0.502424
0.452281
0.395494
0.332666
0.264588
0.192218
0.116614
0.039069
0.00808438
0.0242616
0.0404831
0.0567877
0.0732051
0.0897757
0.106545
0.123564
0.140892
0.158591
0.176733
0.195391
0.214644
0.23457
0.255248
0.276752
0.299147
0.322487
0.346808
0.372125
0.398425
0.425661
0.453746
0.48255
0.511888
0.54152
0.571144
0.600392
0.628829
0.65595
0.681185
0.703901
0.723411
0.738982
0.749856
0.755265
0.754457
0.746721
0.731423
0.708033
0.676165
0.635604
0.58634
0.528591
0.462815
0.389715
0.310236
0.22553
0.136887
0.0458738
0.00852606
0.0255936
0.0427279
0.059983
0.0774037
0.0950456
0.11297
0.131243
0.14994
0.169141
0.188932
0.209403
0.23065
0.252766
0.275846
0.299978
0.325241
0.351701
0.379403
0.408369
0.43859
0.470018
0.50256
0.536072
0.570352
0.605129
0.640065
0.674741
0.70866
0.741242
0.771826
0.799673
0.823974
0.843862
0.858429
0.866746
0.867895
0.860995
0.845249
0.819977
0.784663
0.738997
0.682915
0.616629
0.54065
0.455799
0.363193
0.264221
0.160454
0.0537871
0.00898871
0.026989
0.0450802
0.0633332
0.0818085
0.100578
0.119721
0.139321
0.159469
0.180264
0.20181
0.224216
0.247594
0.272059
0.297721
0.324686
0.35305
0.382892
0.414272
0.447222
0.481737
0.517774
0.555237
0.593972
0.633759
0.674302
0.715223
0.756055
0.796235
0.835104
0.871901
0.905771
0.93577
0.960874
0.980002
0.992036
0.995855
0.990376
0.974592
0.947633
0.908814
0.857691
0.794116
0.71828
0.630742
0.532448
0.424723
0.309234
0.187895
0.0630061
0.00947111
0.0284442
0.0475341
0.0668295
0.0864082
0.10636
0.126782
0.147777
0.169455
0.191935
0.21534
0.2398
0.265448
0.292418
0.320842
0.350846
0.382546
0.416038
0.451399
0.488675
0.527873
0.568956
0.611828
0.656331
0.702231
0.749209
0.79685
0.844639
0.891947
0.93803
0.982025
1.02295
1.0597
1.09109
1.11583
1.13258
1.13998
1.13669
1.12146
1.09315
1.05088
0.994005
0.922259
0.83578
0.735168
0.621503
0.49635
0.361712
0.219919
0.0737701
0.00997166
0.0299545
0.0500814
0.0704606
0.0911881
0.112373
0.134132
0.156587
0.17987
0.204121
0.229485
0.256114
0.284165
0.313794
0.345158
0.378406
0.413675
0.451086
0.490735
0.532688
0.576967
0.623546
0.672337
0.723181
0.775837
0.829965
0.885121
0.940742
0.996135
1.05047
1.10278
1.15193
1.19667
1.23561
1.26722
1.28992
1.30205
1.30196
1.28809
1.25899
1.21347
1.15065
1.07008
0.971794
0.856422
0.725186
0.579924
0.423044
0.257389
0.0863723
0.0104884
0.0315138
0.0527125
0.0742128
0.0961301
0.118594
0.141742
0.165718
0.190677
0.21678
0.244197
0.273105
0.303686
0.336123
0.370598
0.407287
0.446356
0.487952
0.532195
0.579176
0.628938
0.681474
0.736709
0.794492
0.854577
0.916615
0.980138
1.04454
1.10907
1.17281
1.23467
1.29341
1.34756
1.39553
1.43554
1.46569
1.48399
1.48843
1.47702
1.44794
1.39961
1.3308
1.24081
1.12951
0.99752
0.846201
0.677711
0.494942
0.30137
0.101174
0.0110191
0.0331154
0.0554155
0.0780692
0.101212
0.124996
0.14958
0.175131
0.201828
0.229857
0.259414
0.290702
0.323932
0.359316
0.397065
0.437387
0.480478
0.526515
0.575653
0.628009
0.683657
0.742614
0.804827
0.870158
0.938373
1.00912
1.08191
1.15611
1.23091
1.30532
1.37815
1.44799
1.5132
1.57194
1.62215
1.66159
1.68787
1.69851
1.69107
1.66319
1.61279
1.5382
1.43831
1.31278
1.16213
0.987865
0.792502
0.579522
0.353184
0.118624
0.011561
0.034751
0.0581768
0.0820104
0.106409
0.131547
0.157606
0.184779
0.213269
0.243289
0.275062
0.308823
0.344809
0.383267
0.424441
0.468572
0.515894
0.566619
0.620938
0.679007
0.740934
0.806771
0.876494
0.949994
1.02705
1.10733
1.19034
1.27541
1.36172
1.44818
1.53352
1.61617
1.69431
1.76585
1.82841
1.87936
1.91585
1.93487
1.93337
1.90835
1.85707
1.77724
1.66721
1.52626
1.35474
1.15427
0.927772
0.67943
0.414487
0.139288
0.0121111
0.0364116
0.0609808
0.0860142
0.111691
0.138209
0.165776
0.194608
0.224936
0.257001
0.291056
0.327366
0.366203
0.407847
0.452579
0.500681
0.552423
0.608063
0.667833
0.731933
0.800516
0.873677
0.951435
1.03372
1.12034
1.21099
1.30518
1.40227
1.50137
1.60138
1.70091
1.79828
1.89148
1.97815
2.05559
2.12073
2.17019
2.20034
2.20738
2.18752
2.13715
2.05312
1.93306
1.77563
1.58091
1.35053
1.08788
0.798
0.487373
0.163878
0.0126659
0.0380866
0.0638101
0.0900557
0.117026
0.144942
0.174038
0.204557
0.236756
0.270908
0.307296
0.346218
0.387982
0.432905
0.48131
0.53352
0.58985
0.650606
0.71607
0.786493
0.862082
0.942986
1.02928
1.12094
1.21783
1.31969
1.42606
1.53632
1.64958
1.76471
1.88026
1.99445
2.10508
2.20955
2.3048
2.38732
2.45313
2.49787
2.51686
2.50528
2.45842
2.372
2.24255
2.06788
1.84752
1.58305
1.27833
0.939473
0.574511
0.193307
0.0132217
0.0397648
0.0666456
0.0941074
0.122377
0.1517
0.182336
0.214557
0.248649
0.284914
0.32367
0.365248
0.409996
0.458271
0.510437
0.566865
0.627921
0.693963
0.765329
0.842332
0.92524
1.01427
1.10956
1.21116
1.319
1.43288
1.55241
1.677
1.80581
1.93771
2.07123
2.20449
2.33518
2.46045
2.57692
2.68059
2.76686
2.83051
2.86584
2.86677
2.82715
2.74116
2.60382
2.41164
2.16325
1.85997
1.50619
1.10929
0.679336
0.228747
0.0137745
0.041434
0.0694664
0.0981397
0.127704
0.158432
0.190609
0.224534
0.260525
0.298914
0.340054
0.384314
0.432079
0.48375
0.539739
0.600465
0.666349
0.737807
0.815242
0.899033
0.989524
1.08701
1.1917
1.30375
1.42317
1.54984
1.68346
1.82354
1.96929
2.11964
2.27314
2.42788
2.58147
2.73088
2.87243
3.00166
3.1133
3.20123
3.25852
3.27758
3.25044
3.1692
3.02675
2.81764
2.53905
2.19173
1.78053
1.3145
0.806298
0.271719
0.0143198
0.0430811
0.0722504
0.102121
0.132966
0.165085
0.19879
0.234409
0.272289
0.312796
0.356317
0.403259
0.45405
0.509134
0.568972
0.634038
0.70481
0.78177
0.865389
0.956122
1.0544
1.16059
1.27503
1.39796
1.5295
1.66965
1.81824
1.97488
2.13892
2.30939
2.4849
2.66363
2.84313
3.02032
3.19126
3.3511
3.49393
3.61269
3.69908
3.74373
3.73634
3.66628
3.52342
3.29938
2.989
2.59185
2.11323
1.56429
0.961196
0.324203
0.0148532
0.0446923
0.0749745
0.106017
0.138119
0.171604
0.206811
0.244097
0.283839
0.326437
0.372314
0.421916
0.475711
0.534192
0.597872
0.667278
0.742953
0.825445
0.915303
1.01307
1.11925
1.23434
1.35878
1.49291
1.63702
1.79123
1.95555
2.12973
2.3133
2.50546
2.705
2.9102
3.11875
3.32755
3.53259
3.72873
3.90952
4.06698
4.1914
4.27135
4.29371
4.24426
4.10861
3.87395
3.53131
3.07809
2.51989
1.87073
1.15161
0.388776
0.01537
0.0462535
0.0776146
0.109795
0.143117
0.177929
0.214598
0.253509
0.29507
0.339713
0.387897
0.440108
0.496857
0.558685
0.626156
0.699857
0.780396
0.868393
0.964477
1.06928
1.18342
1.30749
1.44205
1.58761
1.74459
1.91331
2.09394
2.28647
2.49066
2.70594
2.93135
3.16545
3.40613
3.65049
3.89461
4.13327
4.35968
4.56512
4.73854
4.8663
4.93201
4.9168
4.80038
4.56319
4.18996
3.6741
3.02126
2.2497
1.3874
0.468772
0.0158654
0.0477503
0.0801462
0.113419
0.147912
0.184001
0.222078
0.262555
0.305872
0.352492
0.402911
0.457653
0.517273
0.582359
0.65353
0.731432
0.816739
0.910147
1.01237
1.12413
1.24616
1.37918
1.52388
1.68093
1.85093
2.0344
2.23175
2.44323
2.66887
2.90844
3.16135
3.42651
3.70224
3.98601
4.27425
4.56197
4.84241
5.10643
5.34198
5.53336
5.6606
5.69918
5.62071
5.39537
4.99718
4.41203
3.64523
2.72206
1.68123
0.56841
0.0163347
0.0491682
0.0825449
0.116853
0.152458
0.18976
0.229176
0.271145
0.316136
0.364644
0.4172
0.474365
0.536739
0.604958
0.679691
0.761647
0.851566
0.950222
1.05842
1.17697
1.30673
1.44853
1.60324
1.77168
1.95465
2.15291
2.36711
2.59783
2.84545
3.11014
3.39176
3.68977
4.00306
4.32975
4.66691
5.01023
5.35345
5.68769
6.00056
6.27491
6.48748
6.60748
6.59593
6.4075
5.99748
5.33669
4.42955
3.3148
2.04881
0.692797
0.0167731
0.050493
0.0847864
0.120062
0.156709
0.195147
0.235818
0.279188
0.325752
0.376037
0.430606
0.49006
0.555037
0.626221
0.704334
0.790143
0.884456
0.988123
1.10203
1.22711
1.3643
1.51461
1.67902
1.85856
2.05424
2.26705
2.49797
2.74788
3.0176
3.30776
3.61881
3.95086
4.30359
4.67601
5.06626
5.47116
5.88568
6.3021
6.70887
7.08884
7.41683
7.6564
7.75626
7.64849
7.25482
6.5129
5.42554
4.06157
2.50822
0.847531
0.0171762
0.051711
0.0868475
0.123014
0.16062
0.200105
0.241933
0.286596
0.334614
0.386544
0.442978
0.504554
0.571951
0.645894
0.727157
0.816564
0.914988
1.02335
1.14263
1.27385
1.41809
1.57645
1.7501
1.94025
2.14813
2.37499
2.62212
2.89079
3.18225
3.49769
3.8382
4.2047
4.59782
5.01778
5.46411
5.93535
6.4285
6.93821
7.45548
7.96558
8.4447
8.85434
9.13263
9.1828
8.86682
8.03986
6.70231
5.00059
3.07682
1.03742
0.0175395
0.0528091
0.0887058
0.125676
0.164147
0.204578
0.247453
0.293286
0.342621
0.396041
0.45417
0.517675
0.587273
0.66373
0.747869
0.840566
0.942755
1.05543
1.17965
1.31654
1.46727
1.63311
1.81536
2.01541
2.23473
2.47483
2.73731
3.02384
3.33615
3.676
4.04522
4.44561
4.87893
5.34677
5.85046
6.39077
6.96754
7.57906
8.22097
8.88439
9.55238
10.1931
10.7457
11.0908
10.9963
10.0829
8.34751
6.16454
3.76296
1.26355
0.0178592
0.0537753
0.0903411
0.128019
0.167251
0.208516
0.252314
0.29918
0.349679
0.404417
0.464044
0.529259
0.600809
0.6795
0.766196
0.861822
0.96737
1.0839
1.21255
1.35452
1.5111
1.68367
1.8737
2.08274
2.31247
2.56468
2.84127
3.1443
3.47598
3.83867
4.23495
4.66755
5.13945
5.65378
6.21387
6.8231
7.48481
8.20202
8.97691
9.8099
10.6978
11.6296
12.575
13.4463
13.9515
12.9532
10.4447
7.55007
4.54883
1.51821
0.0181317
0.0545989
0.0917349
0.130016
0.169897
0.211873
0.256459
0.304207
0.355701
0.411567
0.472478
0.539157
0.612383
0.692992
0.781887
0.880035
0.988479
1.10834
1.24081
1.38718
1.54885
1.72728
1.92409
2.141
2.37988
2.64276
2.93183
3.24952
3.5985
3.98171
4.40244
4.86439
5.3717
5.92911
6.542
7.21652
7.95979
8.78001
9.68685
10.6919
11.81
13.0624
14.4872
16.1755
18.4169
17.3395
12.9322
9.04525
5.36605
1.77948
0.018354
0.055271
0.0928716
0.131643
0.172054
0.214609
0.259839
0.308307
0.360613
0.417401
0.479363
0.547242
0.62184
0.704023
0.794722
0.894943
1.00577
1.12837
1.264
1.41401
1.57988
1.76318
1.96562
2.18909
2.43561
2.70741
3.00698
3.33704
3.70068
4.10135
4.54302
5.03022
5.56822
6.16323
6.82255
7.55498
8.37117
9.28427
10.3108
11.4725
12.7987
14.3328
16.1449
18.3596
21.2081
20.0611
14.904
10.3357
6.09263
2.01398
0.0185237
0.0557842
0.0937386
0.132883
0.173696
0.216692
0.262412
0.311428
0.364354
0.421846
0.484609
0.553404
0.629051
0.712437
0.804518
0.906326
1.01898
1.14368
1.28173
1.43455
1.60365
1.7907
1.99751
2.22604
2.47849
2.75724
3.06499
3.40472
3.77986
4.19429
4.6525
5.15976
5.72226
6.34742
7.0442
7.82357
8.69914
9.68804
10.8122
12.1002
13.5903
15.3352
17.4092
19.9179
23.0016
21.7988
16.2913
11.3041
6.65675
2.19867
0.0186379
0.0561326
0.0943264
0.133719
0.174803
0.218096
0.264145
0.313532
0.366876
0.424842
0.488147
0.55756
0.633917
0.718116
0.811131
0.914014
1.0279
1.15403
1.29373
1.44844
1.61975
1.80935
2.01912
2.25112
2.50761
2.79112
3.10447
3.45085
3.83391
4.25783
4.72751
5.2487
5.82827
6.47452
7.19758
8.00997
8.92739
9.96968
11.1622
12.5376
14.1382
16.0186
18.2479
20.9091
24.0888
22.8468
17.1628
11.9356
7.03367
2.32346
0.0186896
0.0563005
0.0946202
0.134139
0.175359
0.218801
0.265017
0.31459
0.368144
0.426349
0.489926
0.559651
0.636365
0.720974
0.81446
0.917885
1.0324
1.15924
1.29977
1.45545
1.62786
1.81876
2.03003
2.26378
2.52233
2.80825
3.12445
3.47422
3.86131
4.29008
4.76562
5.29395
5.88229
6.53939
7.27599
8.10543
9.04445
10.1142
11.3418
12.7616
14.4173
16.3632
18.6639
21.3899
24.6047
23.3425
17.582
12.2451
7.22085
2.38585
)
;

boundaryField
{
    walls
    {
        type            calculated;
        value           nonuniform List<scalar> 
200
(
0.0186896
0.0563005
0.0946202
0.134139
0.175359
0.218801
0.265017
0.31459
0.368144
0.426349
0.489926
0.559651
0.636365
0.720974
0.81446
0.917885
1.0324
1.15924
1.29977
1.45545
1.62786
1.81876
2.03003
2.26378
2.52233
2.80825
3.12445
3.47422
3.86131
4.29008
4.76562
5.29395
5.88229
6.53939
7.27599
8.10543
9.04445
10.1142
11.3418
12.7616
14.4173
16.3632
18.6639
21.3899
24.6047
23.3425
17.582
12.2451
7.22085
2.38585
0
0
0
0
0
0
0
0
0
0
0
0
0
0
0
0
0
0
0
0
0
0
0
0
0
0
0
0
0
0
0
0
0
0
0
0
0
0
0
0
0
0
0
0
0
0
0
0
0
0
0
0
0
0
0
0
0
0
0
0
0
0
0
0
0
0
0
0
0
0
0
0
0
0
0
0
0
0
0
0
0
0
0
0
0
0
0
0
0
0
0
0
0
0
0
0
0
0
0
0
0.00349643
0.0104375
0.0172454
0.0238416
0.0301371
0.0360542
0.0415215
0.0464746
0.0508571
0.0546216
0.0577305
0.0601562
0.0618818
0.0629007
0.0632173
0.0628463
0.0618123
0.0601495
0.0579006
0.0551164
0.0518544
0.048178
0.0441551
0.039857
0.0353572
0.0307298
0.0260488
0.0213862
0.0168114
0.0123901
0.00818278
0.00424453
0.00062394
-0.00263741
-0.00550537
-0.00795357
-0.00996353
-0.0115247
-0.0126346
-0.013298
-0.0135273
-0.0133419
-0.0127673
-0.0118353
-0.0105828
-0.00905152
-0.00728734
-0.00533966
-0.00325984
-0.00109669
)
;
    }
    frontAndBack
    {
        type            empty;
    }
}


// ************************************************************************* //
