/*--------------------------------*- C++ -*----------------------------------*\
| =========                 |                                                 |
| \\      /  F ield         | OpenFOAM: The Open Source CFD Toolbox           |
|  \\    /   O peration     | Version:  2406                                  |
|   \\  /    A nd           | Website:  www.openfoam.com                      |
|    \\/     M anipulation  |                                                 |
\*---------------------------------------------------------------------------*/
FoamFile
{
    version     2.0;
    format      ascii;
    arch        "LSB;label=32;scalar=64";
    class       volScalarField;
    location    "0.9";
    object      T;
}
// * * * * * * * * * * * * * * * * * * * * * * * * * * * * * * * * * * * * * //

dimensions      [0 0 0 1 0 0 0];

internalField   nonuniform List<scalar> 
2500
(
0.1785
0.17864
0.178918
0.17933
0.179871
0.180535
0.181313
0.182196
0.183172
0.18423
0.185357
0.18654
0.187764
0.189015
0.19028
0.191544
0.192793
0.194016
0.195199
0.196332
0.197404
0.198406
0.199331
0.200172
0.200925
0.201587
0.202155
0.202629
0.20301
0.203301
0.203506
0.203628
0.203675
0.203653
0.20357
0.203433
0.203252
0.203035
0.202791
0.202529
0.202259
0.201988
0.201725
0.201477
0.201252
0.201054
0.20089
0.200763
0.200676
0.200632
0.17864
0.17878
0.179059
0.179472
0.180016
0.180682
0.181464
0.18235
0.18333
0.184393
0.185525
0.186713
0.187944
0.189203
0.190475
0.191748
0.193008
0.194241
0.195436
0.196581
0.197666
0.198682
0.199622
0.200479
0.201249
0.201928
0.202514
0.203008
0.203409
0.203721
0.203946
0.204091
0.20416
0.20416
0.204099
0.203984
0.203825
0.203629
0.203406
0.203164
0.202912
0.202659
0.202412
0.202179
0.201966
0.201779
0.201624
0.201504
0.201422
0.20138
0.178918
0.179059
0.179339
0.179756
0.180303
0.180975
0.181762
0.182655
0.183644
0.184716
0.185859
0.187059
0.188303
0.189577
0.190866
0.192156
0.193435
0.19469
0.195907
0.197077
0.198188
0.199233
0.200203
0.201092
0.201896
0.20261
0.203234
0.203766
0.204208
0.204562
0.20483
0.205019
0.205132
0.205177
0.205161
0.205091
0.204975
0.204822
0.204641
0.204439
0.204226
0.204008
0.203794
0.20359
0.203403
0.203238
0.203101
0.202994
0.202921
0.202884
0.17933
0.179472
0.179756
0.180177
0.18073
0.181409
0.182205
0.183109
0.18411
0.185197
0.186356
0.187574
0.188838
0.190134
0.191448
0.192766
0.194074
0.195361
0.196613
0.19782
0.198972
0.200059
0.201075
0.202013
0.202868
0.203637
0.204317
0.204909
0.205412
0.205829
0.206163
0.206418
0.206599
0.206712
0.206765
0.206763
0.206715
0.206628
0.20651
0.20637
0.206214
0.206051
0.205886
0.205727
0.20558
0.205449
0.205339
0.205253
0.205195
0.205165
0.179871
0.180016
0.180303
0.18073
0.181291
0.18198
0.182789
0.183707
0.184725
0.185831
0.187011
0.188254
0.189546
0.190872
0.192219
0.193573
0.194921
0.196251
0.19755
0.198808
0.200014
0.20116
0.202238
0.203242
0.204167
0.20501
0.205768
0.20644
0.207027
0.20753
0.207953
0.208299
0.208572
0.208779
0.208925
0.209016
0.20906
0.209063
0.209033
0.208976
0.2089
0.20881
0.208714
0.208617
0.208524
0.208439
0.208366
0.208309
0.20827
0.20825
0.180535
0.180682
0.180975
0.181409
0.18198
0.182682
0.183506
0.184442
0.185482
0.186611
0.18782
0.189094
0.19042
0.191784
0.193173
0.194574
0.195973
0.197358
0.198717
0.20004
0.201315
0.202536
0.203693
0.204782
0.205796
0.206733
0.20759
0.208365
0.20906
0.209674
0.210212
0.210674
0.211067
0.211393
0.21166
0.211871
0.212033
0.212153
0.212235
0.212286
0.212312
0.212319
0.212311
0.212293
0.21227
0.212245
0.212221
0.212201
0.212187
0.212179
0.181313
0.181464
0.181762
0.182205
0.182789
0.183506
0.184348
0.185307
0.186372
0.187532
0.188774
0.190085
0.191454
0.192865
0.194306
0.195764
0.197225
0.198677
0.20011
0.201512
0.202873
0.204185
0.205441
0.206634
0.207758
0.208812
0.209791
0.210694
0.211522
0.212274
0.212953
0.213561
0.214101
0.214577
0.214993
0.215353
0.215663
0.215927
0.21615
0.216336
0.21649
0.216616
0.216718
0.2168
0.216864
0.216914
0.216951
0.216977
0.216994
0.217002
0.182196
0.18235
0.182655
0.183109
0.183707
0.184442
0.185307
0.186293
0.187388
0.188583
0.189865
0.191222
0.19264
0.194107
0.19561
0.197135
0.198671
0.200205
0.201725
0.203222
0.204686
0.206109
0.207482
0.2088
0.210058
0.211252
0.212379
0.213437
0.214425
0.215344
0.216195
0.216979
0.217698
0.218355
0.218953
0.219495
0.219985
0.220425
0.220819
0.221169
0.221479
0.221752
0.221988
0.222191
0.222362
0.222503
0.222615
0.222697
0.222753
0.22278
0.183172
0.18333
0.183644
0.18411
0.184725
0.185482
0.186372
0.187388
0.188519
0.189755
0.191084
0.192493
0.19397
0.195503
0.197078
0.198683
0.200306
0.201935
0.203559
0.205169
0.206754
0.208306
0.209819
0.211285
0.212701
0.214061
0.215363
0.216605
0.217785
0.218903
0.219958
0.220952
0.221885
0.222759
0.223575
0.224335
0.22504
0.225691
0.22629
0.226838
0.227336
0.227784
0.228182
0.228531
0.228831
0.229082
0.229283
0.229434
0.229535
0.229586
0.18423
0.184393
0.184716
0.185197
0.185831
0.186611
0.187532
0.188583
0.189755
0.191038
0.192421
0.19389
0.195435
0.197044
0.198702
0.2004
0.202124
0.203863
0.205608
0.207348
0.209074
0.210778
0.212453
0.214094
0.215694
0.217249
0.218757
0.220215
0.22162
0.222971
0.224268
0.225509
0.226695
0.227825
0.228899
0.229916
0.230876
0.231779
0.232622
0.233404
0.234125
0.234782
0.235373
0.235896
0.23635
0.236731
0.237039
0.237272
0.237428
0.237505
0.185357
0.185525
0.185859
0.186356
0.187011
0.18782
0.188774
0.189865
0.191084
0.192421
0.193864
0.195403
0.197025
0.19872
0.200474
0.202277
0.204118
0.205984
0.207868
0.209758
0.211646
0.213526
0.215389
0.217231
0.219045
0.220827
0.222574
0.224283
0.22595
0.227574
0.229152
0.230684
0.232165
0.233595
0.234972
0.236291
0.237551
0.238749
0.239879
0.240938
0.241922
0.242825
0.243644
0.244373
0.245008
0.245545
0.245979
0.246308
0.246529
0.24664
0.18654
0.186713
0.187059
0.187574
0.188254
0.189094
0.190085
0.191222
0.192493
0.19389
0.195403
0.19702
0.19873
0.200522
0.202386
0.204309
0.206281
0.208293
0.210334
0.212396
0.214471
0.216551
0.218631
0.220703
0.222763
0.224807
0.22683
0.228828
0.230799
0.232739
0.234644
0.236512
0.238337
0.240117
0.241846
0.243519
0.245129
0.246671
0.248137
0.249521
0.250813
0.252006
0.253092
0.254063
0.254911
0.25563
0.256214
0.256656
0.256954
0.257103
0.187764
0.187944
0.188303
0.188838
0.189546
0.19042
0.191454
0.19264
0.19397
0.195435
0.197025
0.19873
0.200539
0.202441
0.204427
0.206486
0.208608
0.210783
0.213004
0.215261
0.217548
0.219857
0.222182
0.224518
0.22686
0.229203
0.231543
0.233875
0.236194
0.238498
0.240781
0.243036
0.24526
0.247444
0.249582
0.251664
0.253682
0.255625
0.257483
0.259244
0.260896
0.262428
0.263826
0.26508
0.266178
0.267111
0.267869
0.268444
0.268831
0.269026
0.189015
0.189203
0.189577
0.190134
0.190872
0.191784
0.192865
0.194107
0.195503
0.197044
0.19872
0.200522
0.202441
0.204467
0.20659
0.208801
0.211091
0.213451
0.215874
0.218352
0.220878
0.223446
0.226051
0.228687
0.231349
0.234033
0.236733
0.239446
0.242166
0.244886
0.247602
0.250304
0.252986
0.255636
0.258246
0.260802
0.263291
0.2657
0.268012
0.270212
0.272282
0.274207
0.27597
0.277554
0.278944
0.280126
0.281087
0.281818
0.28231
0.282557
0.19028
0.190475
0.190866
0.191448
0.192219
0.193173
0.194306
0.19561
0.197078
0.198702
0.200474
0.202386
0.204427
0.20659
0.208866
0.211247
0.213725
0.216292
0.218942
0.221667
0.224463
0.227323
0.230243
0.233218
0.236243
0.239314
0.242425
0.245571
0.248746
0.251943
0.255153
0.258367
0.261574
0.26476
0.267912
0.271014
0.274047
0.276993
0.27983
0.282538
0.285095
0.287477
0.289662
0.291629
0.293358
0.294831
0.29603
0.296942
0.297556
0.297865
0.191544
0.191748
0.192156
0.192766
0.193573
0.194574
0.195764
0.197135
0.198683
0.2004
0.202277
0.204309
0.206486
0.208801
0.211247
0.213817
0.216504
0.219302
0.222205
0.225207
0.228305
0.231493
0.234768
0.238124
0.241559
0.245067
0.248642
0.25228
0.255972
0.25971
0.263484
0.267282
0.271089
0.274889
0.278663
0.282391
0.28605
0.289614
0.293058
0.296353
0.29947
0.302381
0.305056
0.307469
0.309592
0.311401
0.312876
0.313999
0.314755
0.315135
0.192793
0.193008
0.193435
0.194074
0.194921
0.195973
0.197225
0.198671
0.200306
0.202124
0.204118
0.206281
0.208608
0.211091
0.213725
0.216504
0.219423
0.222477
0.225661
0.228973
0.232407
0.235962
0.239634
0.243419
0.247313
0.251313
0.255412
0.259605
0.263882
0.268234
0.272649
0.27711
0.281601
0.286101
0.290587
0.295033
0.299409
0.303684
0.307825
0.311796
0.31556
0.319082
0.322324
0.325252
0.327831
0.330032
0.331827
0.333195
0.334117
0.33458
0.194016
0.194241
0.19469
0.195361
0.196251
0.197358
0.198677
0.200205
0.201935
0.203863
0.205984
0.208293
0.210783
0.213451
0.216292
0.219302
0.222477
0.225814
0.229311
0.232965
0.236774
0.240737
0.244852
0.249115
0.253525
0.258076
0.262764
0.267582
0.272519
0.277565
0.282703
0.287918
0.293186
0.298483
0.30378
0.309045
0.314242
0.319333
0.324274
0.329022
0.333533
0.337759
0.341656
0.345179
0.348286
0.35094
0.353107
0.354758
0.355872
0.356431
0.195199
0.195436
0.195907
0.196613
0.19755
0.198717
0.20011
0.201725
0.203559
0.205608
0.207868
0.210334
0.213004
0.215874
0.218942
0.222205
0.225661
0.229311
0.233152
0.237185
0.24141
0.245825
0.250432
0.255229
0.260213
0.265381
0.270728
0.276247
0.281926
0.287753
0.293709
0.299775
0.305923
0.312125
0.318346
0.324545
0.33068
0.336702
0.34256
0.348202
0.353569
0.358607
0.363259
0.367469
0.371187
0.374365
0.376962
0.378942
0.380278
0.38095
0.196332
0.196581
0.197077
0.19782
0.198808
0.20004
0.201512
0.203222
0.205169
0.207348
0.209758
0.212396
0.215261
0.218352
0.221667
0.225207
0.228973
0.232965
0.237185
0.241635
0.246318
0.251234
0.256386
0.261774
0.267397
0.273252
0.279335
0.285638
0.292149
0.298852
0.30573
0.312755
0.319899
0.327126
0.334393
0.341655
0.348858
0.355945
0.362853
0.369517
0.375869
0.38184
0.387361
0.392365
0.396788
0.400573
0.403667
0.406027
0.407621
0.408422
0.197404
0.197666
0.198188
0.198972
0.200014
0.201315
0.202873
0.204686
0.206754
0.209074
0.211646
0.214471
0.217548
0.220878
0.224463
0.228305
0.232407
0.236774
0.24141
0.246318
0.251504
0.256972
0.262725
0.268767
0.275098
0.281716
0.288617
0.295794
0.303233
0.31092
0.31883
0.326935
0.335201
0.343585
0.352039
0.360506
0.368924
0.377224
0.385332
0.393167
0.400648
0.407691
0.414213
0.420131
0.425368
0.429853
0.433522
0.436324
0.438216
0.439168
0.198406
0.198682
0.199233
0.200059
0.20116
0.202536
0.204185
0.206109
0.208306
0.210778
0.213526
0.216551
0.219857
0.223446
0.227323
0.231493
0.235962
0.240737
0.245825
0.251234
0.256972
0.263045
0.26946
0.276222
0.283334
0.290796
0.298605
0.306753
0.315227
0.32401
0.333076
0.342392
0.35192
0.361609
0.371403
0.381236
0.391034
0.400715
0.410189
0.419364
0.428138
0.436412
0.444085
0.451056
0.457232
0.462526
0.466862
0.470173
0.472411
0.473537
0.199331
0.199622
0.200203
0.201075
0.202238
0.203693
0.205441
0.207482
0.209819
0.212453
0.215389
0.218631
0.222182
0.226051
0.230243
0.234768
0.239634
0.244852
0.250432
0.256386
0.262725
0.26946
0.2766
0.284153
0.292124
0.300516
0.309328
0.318552
0.328175
0.338179
0.348534
0.359206
0.370148
0.381304
0.39261
0.403986
0.415348
0.426598
0.437631
0.448334
0.45859
0.468276
0.477271
0.485455
0.492715
0.498944
0.504049
0.507952
0.51059
0.511918
0.200172
0.200479
0.201092
0.202013
0.203242
0.204782
0.206634
0.2088
0.211285
0.214094
0.217231
0.220703
0.224518
0.228687
0.233218
0.238124
0.243419
0.249115
0.255229
0.261774
0.268767
0.276222
0.284153
0.29257
0.301484
0.310898
0.320814
0.331226
0.342121
0.353478
0.365269
0.377452
0.389977
0.40278
0.415785
0.428904
0.442035
0.455066
0.467871
0.480319
0.492268
0.503573
0.514089
0.52367
0.53218
0.53949
0.545487
0.550074
0.553175
0.554738
0.200925
0.201249
0.201896
0.202868
0.204167
0.205796
0.207758
0.210058
0.212701
0.215694
0.219045
0.222763
0.22686
0.231349
0.236243
0.241559
0.247313
0.253525
0.260213
0.267397
0.275098
0.283334
0.292124
0.301484
0.311426
0.321959
0.333087
0.344805
0.357103
0.369958
0.383341
0.397206
0.411497
0.426142
0.441056
0.456136
0.471266
0.486315
0.501135
0.515571
0.529457
0.542618
0.554881
0.566072
0.576024
0.584584
0.591613
0.596994
0.600634
0.602469
0.201587
0.201928
0.20261
0.203637
0.20501
0.206733
0.208812
0.211252
0.214061
0.217249
0.220827
0.224807
0.229203
0.234033
0.239314
0.245067
0.251313
0.258076
0.265381
0.273252
0.281716
0.290796
0.300516
0.310898
0.321959
0.333712
0.346165
0.359315
0.373154
0.387661
0.402804
0.418534
0.434791
0.451493
0.468545
0.485831
0.503215
0.520546
0.537655
0.554356
0.570454
0.585743
0.600014
0.613059
0.624679
0.634685
0.642911
0.649213
0.65348
0.655631
0.202155
0.202514
0.203234
0.204317
0.205768
0.20759
0.209791
0.212379
0.215363
0.218757
0.222574
0.22683
0.231543
0.236733
0.242425
0.248642
0.255412
0.262764
0.270728
0.279335
0.288617
0.298605
0.309328
0.320814
0.333087
0.346165
0.360059
0.374773
0.390301
0.406623
0.423705
0.441499
0.459936
0.47893
0.498371
0.51813
0.538052
0.557964
0.577668
0.596948
0.615573
0.6333
0.64988
0.665065
0.678612
0.690294
0.69991
0.707283
0.712279
0.714799
0.202629
0.203008
0.203766
0.204909
0.20644
0.208365
0.210694
0.213437
0.216605
0.220215
0.224283
0.228828
0.233875
0.239446
0.245571
0.25228
0.259605
0.267582
0.276247
0.285638
0.295794
0.306753
0.318552
0.331226
0.344805
0.359315
0.374773
0.391189
0.408559
0.426867
0.44608
0.466148
0.486998
0.508536
0.530642
0.553169
0.575945
0.598768
0.621412
0.643626
0.665139
0.685662
0.704899
0.722552
0.73833
0.751959
0.76319
0.771813
0.777659
0.780609
0.20301
0.203409
0.204208
0.205412
0.207027
0.20906
0.211522
0.214425
0.217785
0.22162
0.22595
0.230799
0.236194
0.242166
0.248746
0.255972
0.263882
0.272519
0.281926
0.292149
0.303233
0.315227
0.328175
0.342121
0.357103
0.373154
0.390301
0.408559
0.427931
0.448404
0.46995
0.492515
0.516027
0.540382
0.565451
0.591071
0.617048
0.643153
0.669126
0.694677
0.719486
0.743215
0.765512
0.786018
0.804384
0.820275
0.833391
0.843472
0.850313
0.853768
0.203301
0.203721
0.204562
0.205829
0.20753
0.209674
0.212274
0.215344
0.218903
0.222971
0.227574
0.232739
0.238498
0.244886
0.251943
0.25971
0.268234
0.277565
0.287753
0.298852
0.31092
0.32401
0.338179
0.353478
0.369958
0.387661
0.406623
0.426867
0.448404
0.47123
0.495317
0.520617
0.547053
0.574519
0.602874
0.631941
0.661502
0.6913
0.721039
0.750381
0.778956
0.806365
0.832189
0.855998
0.877369
0.895898
0.911217
0.923007
0.931015
0.935062
0.203506
0.203946
0.20483
0.206163
0.207953
0.210212
0.212953
0.216195
0.219958
0.224268
0.229152
0.234644
0.240781
0.247602
0.255153
0.263484
0.272649
0.282703
0.293709
0.30573
0.31883
0.333076
0.348534
0.365269
0.383341
0.402804
0.423705
0.44608
0.46995
0.495317
0.522163
0.550443
0.580082
0.610971
0.64296
0.675857
0.709423
0.743371
0.777364
0.811014
0.843892
0.875526
0.905419
0.933059
0.957931
0.979544
0.997445
1.01124
1.02063
1.02537
0.203628
0.204091
0.205019
0.206418
0.208299
0.210674
0.213561
0.216979
0.220952
0.225509
0.230684
0.236512
0.243036
0.250304
0.258367
0.267282
0.27711
0.287918
0.299775
0.312755
0.326935
0.342392
0.359206
0.377452
0.397206
0.418534
0.441499
0.466148
0.492515
0.520617
0.550443
0.581957
0.615089
0.64973
0.685723
0.722866
0.760898
0.7995
0.838293
0.876835
0.914627
0.951118
0.985716
1.01781
1.04677
1.072
1.09294
1.10911
1.12011
1.12569
0.203675
0.20416
0.205132
0.206599
0.208572
0.211067
0.214101
0.217698
0.221885
0.226695
0.232165
0.238337
0.24526
0.252986
0.261574
0.271089
0.281601
0.293186
0.305923
0.319899
0.335201
0.35192
0.370148
0.389977
0.411497
0.434791
0.459936
0.486998
0.516027
0.547053
0.580082
0.615089
0.652013
0.690749
0.731139
0.772972
0.815968
0.85978
0.903982
0.948075
0.991482
1.03356
1.07361
1.11088
1.14463
1.17412
1.19865
1.21763
1.23057
1.23713
0.203653
0.20416
0.205177
0.206712
0.208779
0.211393
0.214577
0.218355
0.222759
0.227825
0.233595
0.240117
0.247444
0.255636
0.26476
0.274889
0.286101
0.298483
0.312125
0.327126
0.343585
0.361609
0.381304
0.40278
0.426142
0.451493
0.47893
0.508536
0.540382
0.574519
0.610971
0.64973
0.690749
0.733933
0.77913
0.826125
0.874623
0.92425
0.974538
1.02492
1.07475
1.12326
1.16963
1.21296
1.25234
1.28686
1.31567
1.338
1.35325
1.36098
0.20357
0.204099
0.205161
0.206765
0.208925
0.21166
0.214993
0.218953
0.223575
0.228899
0.234972
0.241846
0.249582
0.258246
0.267912
0.278663
0.290587
0.30378
0.318346
0.334393
0.352039
0.371403
0.39261
0.415785
0.441056
0.468545
0.498371
0.530642
0.565451
0.602874
0.64296
0.685723
0.731139
0.77913
0.829557
0.882207
0.936781
0.992882
1.05
1.10752
1.16467
1.2206
1.27432
1.32475
1.37078
1.41128
1.44518
1.47153
1.48955
1.4987
0.203433
0.203984
0.205091
0.206763
0.209016
0.211871
0.215353
0.219495
0.224335
0.229916
0.236291
0.243519
0.251664
0.260802
0.271014
0.282391
0.295033
0.309045
0.324545
0.341655
0.360506
0.381236
0.403986
0.428904
0.456136
0.485831
0.51813
0.553169
0.591071
0.631941
0.675857
0.722866
0.772972
0.826125
0.882207
0.941022
1.00227
1.06555
1.13032
1.19589
1.26143
1.32591
1.38819
1.44698
1.5009
1.54854
1.58857
1.61977
1.64115
1.65202
0.203252
0.203825
0.204975
0.206715
0.20906
0.212033
0.215663
0.219985
0.22504
0.230876
0.237551
0.245129
0.253682
0.263291
0.274047
0.28605
0.299409
0.314242
0.33068
0.348858
0.368924
0.391034
0.415348
0.442035
0.471266
0.503215
0.538052
0.575945
0.617048
0.661502
0.709423
0.760898
0.815968
0.874623
0.936781
1.00227
1.07083
1.14203
1.21533
1.28999
1.36508
1.43945
1.51173
1.58038
1.64371
1.69994
1.74738
1.78447
1.80995
1.82292
0.203035
0.203629
0.204822
0.206628
0.209063
0.212153
0.215927
0.220425
0.225691
0.231779
0.238749
0.246671
0.255625
0.2657
0.276993
0.289614
0.303684
0.319333
0.336702
0.355945
0.377224
0.400715
0.426598
0.455066
0.486315
0.520546
0.557964
0.598768
0.643153
0.6913
0.743371
0.7995
0.85978
0.92425
0.992882
1.06555
1.14203
1.22193
1.30471
1.38959
1.47556
1.56134
1.64533
1.72568
1.80029
1.86694
1.92342
1.96773
1.99824
2.0138
0.202791
0.203406
0.204641
0.20651
0.209033
0.212235
0.21615
0.220819
0.22629
0.232622
0.239879
0.248137
0.257483
0.268012
0.27983
0.293058
0.307825
0.324274
0.34256
0.362853
0.385332
0.410189
0.437631
0.467871
0.501135
0.537655
0.577668
0.621412
0.669126
0.721039
0.777364
0.838293
0.903982
0.974538
1.05
1.13032
1.21533
1.30471
1.39794
1.49425
1.59259
1.69153
1.78926
1.88355
1.97179
2.05115
2.11875
2.172
2.20874
2.22749
0.202529
0.203164
0.204439
0.20637
0.208976
0.212286
0.216336
0.221169
0.226838
0.233404
0.240938
0.249521
0.259244
0.270212
0.282538
0.296353
0.311796
0.329022
0.348202
0.369517
0.393167
0.419364
0.448334
0.480319
0.515571
0.554356
0.596948
0.643626
0.694677
0.750381
0.811014
0.876835
0.948075
1.02492
1.10752
1.19589
1.28999
1.38959
1.49425
1.60327
1.71559
1.82969
1.94355
2.05452
2.15937
2.25441
2.33585
2.40022
2.44473
2.46747
0.202259
0.202912
0.204226
0.206214
0.2089
0.212312
0.21649
0.221479
0.227336
0.234125
0.241922
0.250813
0.260896
0.272282
0.285095
0.29947
0.31556
0.333533
0.353569
0.375869
0.400648
0.428138
0.45859
0.492268
0.529457
0.570454
0.615573
0.665139
0.719486
0.778956
0.843892
0.914627
0.991482
1.07475
1.16467
1.26143
1.36508
1.47556
1.59259
1.71559
1.84359
1.97509
2.10788
2.23892
2.36418
2.47882
2.57765
2.656
2.71024
2.73796
0.201988
0.202659
0.204008
0.206051
0.20881
0.212319
0.216616
0.221752
0.227784
0.234782
0.242825
0.252006
0.262428
0.274207
0.287477
0.302381
0.319082
0.337759
0.358607
0.38184
0.407691
0.436412
0.468276
0.503573
0.542618
0.585743
0.6333
0.685662
0.743215
0.806365
0.875526
0.951118
1.03356
1.12326
1.2206
1.32591
1.43945
1.56134
1.69153
1.82969
1.97509
2.12637
2.28134
2.43662
2.58728
2.72681
2.8478
2.94383
3.01026
3.04416
0.201725
0.202412
0.203794
0.205886
0.208714
0.212311
0.216718
0.221988
0.228182
0.235373
0.243644
0.253092
0.263826
0.27597
0.289662
0.305056
0.322324
0.341656
0.363259
0.387361
0.414213
0.444085
0.477271
0.514089
0.554881
0.600014
0.64988
0.704899
0.765512
0.832189
0.905419
0.985716
1.07361
1.16963
1.27432
1.38819
1.51173
1.64533
1.78926
1.94355
2.10788
2.28134
2.46206
2.64665
2.82937
3.00132
3.15096
3.26941
3.35099
3.39248
0.201477
0.202179
0.20359
0.205727
0.208617
0.212293
0.2168
0.222191
0.228531
0.235896
0.244373
0.254063
0.26508
0.277554
0.291629
0.307469
0.325252
0.345179
0.367469
0.392365
0.420131
0.451056
0.485455
0.52367
0.566072
0.613059
0.665065
0.722552
0.786018
0.855998
0.933059
1.01781
1.11088
1.21296
1.32475
1.44698
1.58038
1.72568
1.88355
2.05452
2.23892
2.43662
2.64665
2.86645
3.09028
3.3063
3.49359
3.6402
3.74018
3.79072
0.201252
0.201966
0.203403
0.20558
0.208524
0.21227
0.216864
0.222362
0.228831
0.23635
0.245008
0.254911
0.266178
0.278944
0.293358
0.309592
0.327831
0.348286
0.371187
0.396788
0.425368
0.457232
0.492715
0.53218
0.576024
0.624679
0.678612
0.73833
0.804384
0.877369
0.957931
1.04677
1.14463
1.25234
1.37078
1.5009
1.64371
1.80029
1.97179
2.15937
2.36418
2.58728
2.82937
3.09028
3.36722
3.64834
3.88535
4.06613
4.18735
4.24808
0.201054
0.201779
0.203238
0.205449
0.208439
0.212245
0.216914
0.222503
0.229082
0.236731
0.245545
0.25563
0.267111
0.280126
0.294831
0.311401
0.330032
0.35094
0.374365
0.400573
0.429853
0.462526
0.498944
0.53949
0.584584
0.634685
0.690294
0.751959
0.820275
0.895898
0.979544
1.072
1.17412
1.28686
1.41128
1.54854
1.69994
1.86694
2.05115
2.25441
2.47882
2.72681
3.00132
3.3063
3.64834
4.04298
4.34192
4.56027
4.70373
4.77491
0.20089
0.201624
0.203101
0.205339
0.208366
0.212221
0.216951
0.222615
0.229283
0.237039
0.245979
0.256214
0.267869
0.281087
0.29603
0.312876
0.331827
0.353107
0.376962
0.403667
0.433522
0.466862
0.504049
0.545487
0.591613
0.642911
0.69991
0.76319
0.833391
0.911217
0.997445
1.09294
1.19865
1.31567
1.44518
1.58857
1.74738
1.92342
2.11875
2.33585
2.57765
2.8478
3.15096
3.49359
3.88535
4.34192
4.68779
4.93808
5.10122
5.18178
0.200763
0.201504
0.202994
0.205253
0.208309
0.212201
0.216977
0.222697
0.229434
0.237272
0.246308
0.256656
0.268444
0.281818
0.296942
0.313999
0.333195
0.354758
0.378942
0.406027
0.436324
0.470173
0.507952
0.550074
0.596994
0.649213
0.707283
0.771813
0.843472
0.923007
1.01124
1.10911
1.21763
1.338
1.47153
1.61977
1.78447
1.96773
2.172
2.40022
2.656
2.94383
3.26941
3.6402
4.06613
4.56027
4.93808
5.21192
5.39024
5.47819
0.200676
0.201422
0.202921
0.205195
0.20827
0.212187
0.216994
0.222753
0.229535
0.237428
0.246529
0.256954
0.268831
0.28231
0.297556
0.314755
0.334117
0.355872
0.380278
0.407621
0.438216
0.472411
0.51059
0.553175
0.600634
0.65348
0.712279
0.777659
0.850313
0.931015
1.02063
1.12011
1.23057
1.35325
1.48955
1.64115
1.80995
1.99824
2.20874
2.44473
2.71024
3.01026
3.35099
3.74018
4.18735
4.70373
5.10122
5.39024
5.57865
5.67159
0.200632
0.20138
0.202884
0.205165
0.20825
0.212179
0.217002
0.22278
0.229586
0.237505
0.24664
0.257103
0.269026
0.282557
0.297865
0.315135
0.33458
0.356431
0.38095
0.408422
0.439168
0.473537
0.511918
0.554738
0.602469
0.655631
0.714799
0.780609
0.853768
0.935062
1.02537
1.12569
1.23713
1.36098
1.4987
1.65202
1.82292
2.0138
2.22749
2.46747
2.73796
3.04416
3.39248
3.79072
4.24808
4.77491
5.18178
5.47819
5.67159
5.76702
)
;

boundaryField
{
    walls
    {
        type            zeroGradient;
    }
    frontAndBack
    {
        type            empty;
    }
}


// ************************************************************************* //
