/*--------------------------------*- C++ -*----------------------------------*\
| =========                 |                                                 |
| \\      /  F ield         | OpenFOAM: The Open Source CFD Toolbox           |
|  \\    /   O peration     | Version:  2406                                  |
|   \\  /    A nd           | Website:  www.openfoam.com                      |
|    \\/     M anipulation  |                                                 |
\*---------------------------------------------------------------------------*/
FoamFile
{
    version     2.0;
    format      ascii;
    arch        "LSB;label=32;scalar=64";
    class       volVectorField;
    location    "1.05";
    object      flux;
}
// * * * * * * * * * * * * * * * * * * * * * * * * * * * * * * * * * * * * * //

dimensions      [0 1 -1 1 0 0 0];

internalField   nonuniform List<vector> 
2500
(
(0.000289709 0.000289709 0)
(0.000866342 0.0002917 0)
(0.00143645 0.000295775 0)
(0.00199642 0.000301904 0)
(0.00254166 0.000310131 0)
(0.00306833 0.000320506 0)
(0.00357285 0.00033309 0)
(0.00405194 0.000347956 0)
(0.00450269 0.000365183 0)
(0.00492254 0.000384858 0)
(0.00530936 0.000407076 0)
(0.00566143 0.000431935 0)
(0.00597746 0.000459535 0)
(0.00625661 0.000489977 0)
(0.00649842 0.00052336 0)
(0.00670287 0.000559777 0)
(0.00687029 0.000599315 0)
(0.00700137 0.000642046 0)
(0.0070971 0.000688033 0)
(0.00715874 0.000737316 0)
(0.00718775 0.000789916 0)
(0.00718578 0.000845829 0)
(0.0071546 0.000905022 0)
(0.00709603 0.000967429 0)
(0.00701194 0.00103295 0)
(0.00690416 0.00110144 0)
(0.00677449 0.00117272 0)
(0.00662462 0.00124657 0)
(0.00645612 0.00132271 0)
(0.00627043 0.00140082 0)
(0.00606885 0.00148054 0)
(0.00585251 0.00156146 0)
(0.00562239 0.00164312 0)
(0.00537933 0.00172502 0)
(0.00512403 0.00180662 0)
(0.00485709 0.00188735 0)
(0.00457902 0.00196661 0)
(0.00429028 0.00204378 0)
(0.00399128 0.00211822 0)
(0.00368246 0.0021893 0)
(0.00336425 0.00225637 0)
(0.00303715 0.00231882 0)
(0.00270172 0.00237605 0)
(0.00235861 0.0024275 0)
(0.00200853 0.00247267 0)
(0.00165231 0.00251108 0)
(0.00129083 0.00254237 0)
(0.000925036 0.00256621 0)
(0.000556003 0.00258223 0)
(0.000185413 0.00258958 0)
(0.0002917 0.000866342 0)
(0.000872409 0.000872409 0)
(0.00144665 0.000884643 0)
(0.00201078 0.000903065 0)
(0.00256027 0.000927795 0)
(0.00309129 0.000958987 0)
(0.0036003 0.000996824 0)
(0.00408404 0.00104152 0)
(0.00453959 0.00109332 0)
(0.00496443 0.00115248 0)
(0.00535643 0.00121929 0)
(0.00571389 0.00129405 0)
(0.00603551 0.00137705 0)
(0.00632043 0.00146861 0)
(0.00656822 0.00156902 0)
(0.00677882 0.00167856 0)
(0.00695256 0.0017975 0)
(0.00709009 0.00192606 0)
(0.00719237 0.00206442 0)
(0.00726062 0.00221271 0)
(0.00729626 0.00237101 0)
(0.00730089 0.00253928 0)
(0.0072762 0.00271745 0)
(0.00722395 0.00290531 0)
(0.00714595 0.00310256 0)
(0.00704394 0.00330878 0)
(0.00691962 0.00352342 0)
(0.0067746 0.00374581 0)
(0.00661037 0.00397514 0)
(0.00642827 0.00421043 0)
(0.00622949 0.0044506 0)
(0.00601509 0.0046944 0)
(0.00578595 0.00494046 0)
(0.00554283 0.00518727 0)
(0.00528636 0.00543321 0)
(0.00501708 0.00567655 0)
(0.00473545 0.00591548 0)
(0.00444189 0.00614812 0)
(0.0041368 0.00637257 0)
(0.00382061 0.00658688 0)
(0.00349377 0.00678915 0)
(0.00315683 0.00697749 0)
(0.00281041 0.0071501 0)
(0.00245522 0.00730529 0)
(0.00209211 0.00744152 0)
(0.00172202 0.0075574 0)
(0.00134596 0.00765177 0)
(0.00096489 0.00772371 0)
(0.000579375 0.00777245 0)
(0.000192767 0.00779605 0)
(0.000295775 0.00143645 0)
(0.000884643 0.00144665 0)
(0.0014671 0.0014671 0)
(0.00203958 0.00149793 0)
(0.00259759 0.00153932 0)
(0.00313736 0.00159153 0)
(0.00365538 0.00165487 0)
(0.00414844 0.00172971 0)
(0.00461365 0.00181644 0)
(0.00504851 0.00191551 0)
(0.00545092 0.00202741 0)
(0.00581919 0.00215263 0)
(0.00615202 0.00229169 0)
(0.00644857 0.0024451 0)
(0.00670837 0.00261337 0)
(0.00693135 0.00279698 0)
(0.00711779 0.00299638 0)
(0.00726829 0.00321194 0)
(0.00738376 0.00344399 0)
(0.00746532 0.00369274 0)
(0.00751432 0.00395832 0)
(0.00753223 0.00424071 0)
(0.00752062 0.00453976 0)
(0.00748114 0.00485515 0)
(0.00741541 0.00518637 0)
(0.00732503 0.00553274 0)
(0.00721153 0.00589333 0)
(0.00707633 0.00626702 0)
(0.00692074 0.00665245 0)
(0.0067459 0.007048 0)
(0.00655282 0.00745184 0)
(0.00634237 0.00786187 0)
(0.00611526 0.00827578 0)
(0.00587207 0.00869105 0)
(0.0056133 0.00910494 0)
(0.00533936 0.00951454 0)
(0.0050506 0.00991679 0)
(0.00474737 0.0103085 0)
(0.00443005 0.0106866 0)
(0.00409904 0.0110476 0)
(0.00375485 0.0113883 0)
(0.0033981 0.0117057 0)
(0.00302953 0.0119965 0)
(0.00265003 0.0122581 0)
(0.00226064 0.0124877 0)
(0.00186256 0.012683 0)
(0.00145715 0.0128419 0)
(0.00104571 0.012963 0)
(0.000628344 0.0130449 0)
(0.000209019 0.0130859 0)
(0.000301904 0.00199642 0)
(0.000903065 0.00201078 0)
(0.00149793 0.00203958 0)
(0.002083 0.002083 0)
(0.00265387 0.00214131 0)
(0.00320685 0.00221488 0)
(0.00373848 0.00230415 0)
(0.0042456 0.00240963 0)
(0.00472539 0.0025319 0)
(0.0051754 0.0026716 0)
(0.00559355 0.0028294 0)
(0.00597816 0.00300604 0)
(0.00632798 0.00320225 0)
(0.00664212 0.00341876 0)
(0.00692011 0.0036563 0)
(0.00716183 0.00391557 0)
(0.00736752 0.0041972 0)
(0.0075377 0.00450176 0)
(0.00767317 0.0048297 0)
(0.00777495 0.00518136 0)
(0.00784423 0.00555692 0)
(0.00788233 0.00595639 0)
(0.00789063 0.00637955 0)
(0.00787057 0.00682598 0)
(0.00782354 0.00729499 0)
(0.0077509 0.00778559 0)
(0.00765391 0.00829652 0)
(0.00753372 0.00882619 0)
(0.00739135 0.00937267 0)
(0.00722766 0.00993369 0)
(0.00704336 0.0105067 0)
(0.00683904 0.0110886 0)
(0.00661513 0.0116762 0)
(0.00637198 0.012266 0)
(0.00610985 0.012854 0)
(0.00582894 0.013436 0)
(0.00552946 0.0140078 0)
(0.00521165 0.0145648 0)
(0.00487581 0.0151024 0)
(0.00452237 0.015616 0)
(0.00415187 0.0161008 0)
(0.00376505 0.0165525 0)
(0.00336284 0.0169665 0)
(0.00294637 0.0173389 0)
(0.00251699 0.0176658 0)
(0.00207628 0.0179438 0)
(0.00162598 0.01817 0)
(0.00116786 0.0183421 0)
(0.000702247 0.018458 0)
(0.000233723 0.0185162 0)
(0.000310131 0.00254166 0)
(0.000927795 0.00256027 0)
(0.00153932 0.00259759 0)
(0.00214131 0.00265387 0)
(0.00272948 0.00272948 0)
(0.0033002 0.00282488 0)
(0.00385013 0.00294065 0)
(0.00437618 0.00307747 0)
(0.00487561 0.00323611 0)
(0.00534602 0.0034174 0)
(0.00578537 0.00362225 0)
(0.00619203 0.00385161 0)
(0.00656474 0.00410646 0)
(0.00690263 0.00438777 0)
(0.00720519 0.00469651 0)
(0.00747225 0.00503361 0)
(0.00770398 0.00539992 0)
(0.00790079 0.0057962 0)
(0.00806336 0.00622308 0)
(0.00819255 0.00668101 0)
(0.00828935 0.00717027 0)
(0.00835486 0.00769089 0)
(0.00839022 0.00824262 0)
(0.00839657 0.00882494 0)
(0.00837501 0.00943698 0)
(0.00832656 0.0100775 0)
(0.00825213 0.0107448 0)
(0.00815248 0.0114369 0)
(0.00802824 0.0121513 0)
(0.00787988 0.0128851 0)
(0.00770773 0.0136347 0)
(0.00751196 0.0143965 0)
(0.00729265 0.0151661 0)
(0.00704979 0.0159387 0)
(0.00678333 0.0167093 0)
(0.0064932 0.0174725 0)
(0.00617939 0.0182225 0)
(0.00584199 0.0189534 0)
(0.0054812 0.0196591 0)
(0.00509745 0.0203334 0)
(0.00469135 0.0209702 0)
(0.00426379 0.0215636 0)
(0.00381594 0.0221078 0)
(0.00334927 0.0225972 0)
(0.00286555 0.0230269 0)
(0.00236683 0.0233925 0)
(0.00185542 0.0236899 0)
(0.00133367 0.023916 0)
(0.000802508 0.0240682 0)
(0.000267258 0.0241447 0)
(0.000320506 0.00306833 0)
(0.000958987 0.00309129 0)
(0.00159153 0.00313736 0)
(0.00221488 0.00320685 0)
(0.00282488 0.0033002 0)
(0.00341802 0.00341802 0)
(0.00399107 0.00356103 0)
(0.00454106 0.00373008 0)
(0.00506533 0.00392613 0)
(0.00556155 0.00415026 0)
(0.00602776 0.00440359 0)
(0.00646237 0.00468733 0)
(0.00686413 0.00500271 0)
(0.00723217 0.00535099 0)
(0.00756595 0.00573339 0)
(0.00786524 0.00615109 0)
(0.00813011 0.00660519 0)
(0.00836086 0.00709668 0)
(0.00855798 0.00762636 0)
(0.00872215 0.00819487 0)
(0.00885411 0.00880257 0)
(0.00895468 0.00944955 0)
(0.00902469 0.0101356 0)
(0.00906492 0.01086 0)
(0.00907607 0.0116218 0)
(0.00905873 0.0124195 0)
(0.00901336 0.0132511 0)
(0.00894023 0.014114 0)
(0.00883949 0.0150052 0)
(0.00871107 0.015921 0)
(0.0085548 0.0168572 0)
(0.00837036 0.017809 0)
(0.00815733 0.0187711 0)
(0.00791525 0.0197376 0)
(0.00764365 0.020702 0)
(0.00734211 0.0216575 0)
(0.00701034 0.0225971 0)
(0.00664821 0.0235131 0)
(0.00625582 0.0243979 0)
(0.00583354 0.0252437 0)
(0.00538209 0.0260429 0)
(0.00490256 0.0267877 0)
(0.00439642 0.027471 0)
(0.00386556 0.0280857 0)
(0.00331226 0.0286256 0)
(0.00273923 0.0290849 0)
(0.00214948 0.0294587 0)
(0.00154614 0.0297428 0)
(0.000930949 0.029934 0)
(0.000310217 0.0300301 0)
(0.00033309 0.00357285 0)
(0.000996824 0.0036003 0)
(0.00165487 0.00365538 0)
(0.00230415 0.00373848 0)
(0.00294065 0.00385013 0)
(0.00356103 0.00399107 0)
(0.00416219 0.00416219 0)
(0.00474129 0.00436452 0)
(0.00529579 0.00459926 0)
(0.00582347 0.00486769 0)
(0.00632244 0.00517123 0)
(0.00679115 0.00551133 0)
(0.0072284 0.00588954 0)
(0.0076333 0.00630738 0)
(0.00800528 0.00676639 0)
(0.00834406 0.00726804 0)
(0.00864957 0.00781369 0)
(0.00892197 0.00840459 0)
(0.00916156 0.00904178 0)
(0.00936876 0.00972607 0)
(0.00954403 0.010458 0)
(0.00968786 0.0112377 0)
(0.00980068 0.0120649 0)
(0.00988282 0.0129391 0)
(0.0099345 0.0138589 0)
(0.0099558 0.0148227 0)
(0.0099466 0.015828 0)
(0.00990657 0.016872 0)
(0.00983524 0.0179508 0)
(0.00973192 0.0190603 0)
(0.00959578 0.0201951 0)
(0.00942587 0.0213497 0)
(0.00922118 0.0225174 0)
(0.00898065 0.0236911 0)
(0.00870332 0.0248631 0)
(0.0083883 0.0260251 0)
(0.00803492 0.0271682 0)
(0.0076428 0.0282833 0)
(0.00721185 0.029361 0)
(0.00674243 0.0303917 0)
(0.00623534 0.031366 0)
(0.0056919 0.0322745 0)
(0.00511396 0.0331082 0)
(0.00450393 0.0338586 0)
(0.00386474 0.0345178 0)
(0.00319988 0.0350787 0)
(0.00251325 0.0355352 0)
(0.00180899 0.0358822 0)
(0.00108984 0.0361158 0)
(0.00036336 0.0362332 0)
(0.000347956 0.00405194 0)
(0.00104152 0.00408404 0)
(0.00172971 0.00414844 0)
(0.00240963 0.0042456 0)
(0.00307747 0.00437618 0)
(0.00373008 0.00454106 0)
(0.00436452 0.00474129 0)
(0.00497813 0.00497813 0)
(0.00556849 0.00525299 0)
(0.00613352 0.00556744 0)
(0.0066714 0.00592317 0)
(0.00718068 0.00632194 0)
(0.00766018 0.00676561 0)
(0.00810902 0.00725604 0)
(0.0085266 0.00779509 0)
(0.00891254 0.00838457 0)
(0.00926667 0.00902615 0)
(0.00958895 0.00972137 0)
(0.00987947 0.0104716 0)
(0.0101383 0.0112777 0)
(0.0103657 0.0121406 0)
(0.0105616 0.0130605 0)
(0.0107261 0.0140372 0)
(0.0108589 0.0150699 0)
(0.0109597 0.0161575 0)
(0.0110279 0.0172979 0)
(0.0110627 0.0184884 0)
(0.011063 0.0197255 0)
(0.0110278 0.021005 0)
(0.0109553 0.0223217 0)
(0.0108442 0.0236696 0)
(0.0106926 0.025042 0)
(0.0104988 0.026431 0)
(0.010261 0.0278282 0)
(0.0099776 0.0292244 0)
(0.00964716 0.0306095 0)
(0.00926855 0.0319731 0)
(0.008841 0.0333042 0)
(0.00836425 0.0345914 0)
(0.00783858 0.0358232 0)
(0.00726488 0.0369882 0)
(0.00664476 0.0380751 0)
(0.00598049 0.039073 0)
(0.00527511 0.0399715 0)
(0.00453236 0.0407611 0)
(0.00375666 0.0414331 0)
(0.00295302 0.0419803 0)
(0.00212679 0.0423962 0)
(0.00128197 0.0426763 0)
(0.000427619 0.0428171 0)
(0.000365183 0.00450269 0)
(0.00109332 0.00453959 0)
(0.00181644 0.00461365 0)
(0.0025319 0.00472539 0)
(0.00323611 0.00487561 0)
(0.00392613 0.00506533 0)
(0.00459926 0.00529579 0)
(0.00525299 0.00556849 0)
(0.00588511 0.00588511 0)
(0.00649364 0.00624748 0)
(0.00707694 0.00665762 0)
(0.00763359 0.00711764 0)
(0.0081625 0.00762975 0)
(0.00866278 0.00819617 0)
(0.00913381 0.00881914 0)
(0.00957511 0.00950083 0)
(0.00998637 0.0102433 0)
(0.0103674 0.0110484 0)
(0.0107179 0.0119178 0)
(0.0110378 0.0128529 0)
(0.0113268 0.0138544 0)
(0.0115844 0.014923 0)
(0.0118101 0.0160585 0)
(0.0120032 0.0172602 0)
(0.0121625 0.0185267 0)
(0.0122867 0.0198558 0)
(0.0123742 0.0212445 0)
(0.0124232 0.0226889 0)
(0.0124314 0.024184 0)
(0.0123966 0.025724 0)
(0.0123161 0.0273018 0)
(0.0121872 0.0289096 0)
(0.0120074 0.0305383 0)
(0.011774 0.032178 0)
(0.0114846 0.0338177 0)
(0.011137 0.0354459 0)
(0.0107296 0.0370499 0)
(0.010261 0.0386168 0)
(0.00973089 0.0401332 0)
(0.00913929 0.0415853 0)
(0.00848724 0.0429595 0)
(0.00777665 0.0442423 0)
(0.00701032 0.0454207 0)
(0.00619201 0.0464822 0)
(0.00532641 0.0474155 0)
(0.00441908 0.0482101 0)
(0.00347635 0.0488572 0)
(0.00250504 0.0493493 0)
(0.00151066 0.0496806 0)
(0.000504111 0.0498472 0)
(0.000384858 0.00492254 0)
(0.00115248 0.00496443 0)
(0.00191551 0.00504851 0)
(0.0026716 0.0051754 0)
(0.0034174 0.00534602 0)
(0.00415026 0.00556155 0)
(0.00486769 0.00582347 0)
(0.00556744 0.00613352 0)
(0.00624748 0.00649364 0)
(0.00690603 0.00690603 0)
(0.00754157 0.00737303 0)
(0.00815281 0.00789713 0)
(0.00873871 0.00848093 0)
(0.00929842 0.00912709 0)
(0.00983127 0.00983826 0)
(0.0103367 0.010617 0)
(0.0108143 0.0114659 0)
(0.0112635 0.0123871 0)
(0.0116839 0.0133827 0)
(0.0120749 0.0144543 0)
(0.0124358 0.0156031 0)
(0.0127657 0.01683 0)
(0.0130633 0.0181348 0)
(0.0133271 0.019517 0)
(0.0135553 0.0209751 0)
(0.0137457 0.0225067 0)
(0.0138958 0.0241085 0)
(0.0140025 0.0257762 0)
(0.0140628 0.027504 0)
(0.0140731 0.0292854 0)
(0.0140298 0.0311125 0)
(0.0139291 0.0329759 0)
(0.0137672 0.0348655 0)
(0.0135405 0.0367695 0)
(0.0132455 0.0386754 0)
(0.0128793 0.0405695 0)
(0.0124395 0.0424371 0)
(0.0119243 0.0442631 0)
(0.0113327 0.0460316 0)
(0.0106649 0.0477264 0)
(0.00992191 0.0493315 0)
(0.00910592 0.0508307 0)
(0.00822038 0.0522088 0)
(0.00726989 0.0534509 0)
(0.00626025 0.0545434 0)
(0.00519838 0.055474 0)
(0.00409219 0.0562321 0)
(0.00295024 0.0568087 0)
(0.00177987 0.0571971 0)
(0.000594162 0.0573923 0)
(0.000407076 0.00530936 0)
(0.00121929 0.00535643 0)
(0.00202741 0.00545092 0)
(0.0028294 0.00559355 0)
(0.00362225 0.00578537 0)
(0.00440359 0.00602776 0)
(0.00517123 0.00632244 0)
(0.00592317 0.0066714 0)
(0.00665762 0.00707694 0)
(0.00737303 0.00754157 0)
(0.00806803 0.00806803 0)
(0.0087415 0.00865926 0)
(0.00939246 0.00931828 0)
(0.0100201 0.0100482 0)
(0.0106237 0.0108522 0)
(0.0112027 0.0117333 0)
(0.0117564 0.0126945 0)
(0.0122842 0.0137386 0)
(0.0127851 0.0148679 0)
(0.0132583 0.0160846 0)
(0.0137025 0.0173903 0)
(0.014116 0.0187859 0)
(0.0144972 0.0202717 0)
(0.0148434 0.0218472 0)
(0.0151522 0.0235109 0)
(0.0154201 0.0252604 0)
(0.0156437 0.027092 0)
(0.0158187 0.0290008 0)
(0.0159407 0.0309807 0)
(0.016005 0.0330242 0)
(0.0160066 0.0351222 0)
(0.0159403 0.0372643 0)
(0.015801 0.0394387 0)
(0.015584 0.0416321 0)
(0.0152846 0.0438299 0)
(0.0148987 0.0460161 0)
(0.0144232 0.0481741 0)
(0.0138555 0.0502858 0)
(0.0131942 0.0523328 0)
(0.0124392 0.0542963 0)
(0.0115916 0.0561573 0)
(0.010654 0.0578969 0)
(0.00963044 0.0594969 0)
(0.0085266 0.06094 0)
(0.00734954 0.0622099 0)
(0.00610777 0.0632922 0)
(0.00481106 0.0641741 0)
(0.00347005 0.0648452 0)
(0.00209425 0.0652973 0)
(0.000699331 0.0655245 0)
(0.000431935 0.00566143 0)
(0.00129405 0.00571389 0)
(0.00215263 0.00581919 0)
(0.00300604 0.00597816 0)
(0.00385161 0.00619203 0)
(0.00468733 0.00646237 0)
(0.00551133 0.00679115 0)
(0.00632194 0.00718068 0)
(0.00711764 0.00763359 0)
(0.00789713 0.00815281 0)
(0.00865926 0.0087415 0)
(0.00940305 0.00940305 0)
(0.0101277 0.010141 0)
(0.0108323 0.010959 0)
(0.0115164 0.0118607 0)
(0.012179 0.0128498 0)
(0.0128195 0.0139298 0)
(0.0134369 0.0151039 0)
(0.01403 0.0163752 0)
(0.0145973 0.0177462 0)
(0.0151371 0.019219 0)
(0.0156471 0.0207948 0)
(0.0161246 0.0224743 0)
(0.0165663 0.0242572 0)
(0.0169685 0.026142 0)
(0.0173268 0.0281261 0)
(0.0176362 0.0302058 0)
(0.0178913 0.0323758 0)
(0.0180862 0.0346291 0)
(0.0182146 0.0369576 0)
(0.01827 0.0393509 0)
(0.0182456 0.0417975 0)
(0.018135 0.0442839 0)
(0.0179316 0.0467948 0)
(0.0176295 0.0493136 0)
(0.0172235 0.051822 0)
(0.0167091 0.0543005 0)
(0.0160831 0.0567284 0)
(0.0153433 0.0590844 0)
(0.0144894 0.0613463 0)
(0.0135225 0.063492 0)
(0.0124455 0.0654995 0)
(0.0112634 0.0673472 0)
(0.00998289 0.0690149 0)
(0.00861249 0.0704833 0)
(0.00716261 0.0717354 0)
(0.0056452 0.0727562 0)
(0.00407337 0.0735332 0)
(0.0024592 0.0740567 0)
(0.000821431 0.07432 0)
(0.000459535 0.00597746 0)
(0.00137705 0.00603551 0)
(0.00229169 0.00615202 0)
(0.00320225 0.00632798 0)
(0.00410646 0.00656474 0)
(0.00500271 0.00686413 0)
(0.00588954 0.0072284 0)
(0.00676561 0.00766018 0)
(0.00762975 0.0081625 0)
(0.00848093 0.00873871 0)
(0.00931828 0.00939246 0)
(0.010141 0.0101277 0)
(0.0109484 0.0109484 0)
(0.0117398 0.011859 0)
(0.0125146 0.0128636 0)
(0.0132718 0.0139666 0)
(0.0140105 0.015172 0)
(0.0147296 0.0164839 0)
(0.0154274 0.0179058 0)
(0.016102 0.0194409 0)
(0.016751 0.0210917 0)
(0.0173714 0.0228601 0)
(0.0179595 0.024747 0)
(0.0185111 0.0267523 0)
(0.0190212 0.0288749 0)
(0.019484 0.0311122 0)
(0.0198933 0.0334601 0)
(0.020242 0.0359129 0)
(0.0205225 0.0384634 0)
(0.0207268 0.0411021 0)
(0.0208465 0.0438179 0)
(0.0208732 0.0465977 0)
(0.0207983 0.0494262 0)
(0.0206137 0.0522863 0)
(0.0203117 0.0551588 0)
(0.0198856 0.0580231 0)
(0.0193297 0.0608565 0)
(0.0186394 0.0636354 0)
(0.0178121 0.0663347 0)
(0.0168468 0.0689291 0)
(0.0157447 0.0713926 0)
(0.0145092 0.0736994 0)
(0.0131458 0.0758246 0)
(0.0116627 0.077744 0)
(0.0100701 0.0794353 0)
(0.00838066 0.0808782 0)
(0.0066088 0.0820552 0)
(0.00477054 0.0829513 0)
(0.00288101 0.0835553 0)
(0.00096257 0.0838591 0)
(0.000489977 0.00625661 0)
(0.00146861 0.00632043 0)
(0.0024451 0.00644857 0)
(0.00341876 0.00664212 0)
(0.00438777 0.00690263 0)
(0.00535099 0.00723217 0)
(0.00630738 0.0076333 0)
(0.00725604 0.00810902 0)
(0.00819617 0.00866278 0)
(0.00912709 0.00929842 0)
(0.0100482 0.0100201 0)
(0.010959 0.0108323 0)
(0.011859 0.0117398 0)
(0.0127475 0.0127475 0)
(0.013624 0.0138603 0)
(0.0144875 0.0150833 0)
(0.0153369 0.0164212 0)
(0.0161707 0.0178788 0)
(0.0169869 0.0194604 0)
(0.0177832 0.0211699 0)
(0.0185563 0.0230103 0)
(0.0193024 0.0249842 0)
(0.0200169 0.0270931 0)
(0.0206943 0.0293372 0)
(0.0213284 0.0317156 0)
(0.0219119 0.0342257 0)
(0.0224369 0.0368636 0)
(0.0228946 0.0396231 0)
(0.0232753 0.0424963 0)
(0.0235691 0.0454731 0)
(0.0237656 0.0485412 0)
(0.0238539 0.0516859 0)
(0.0238236 0.0548901 0)
(0.0236642 0.0581346 0)
(0.0233663 0.0613976 0)
(0.0229212 0.0646555 0)
(0.0223214 0.0678826 0)
(0.0215613 0.0710514 0)
(0.020637 0.0741334 0)
(0.0195472 0.0770988 0)
(0.0182928 0.0799177 0)
(0.0168775 0.0825601 0)
(0.015308 0.0849965 0)
(0.0135936 0.0871989 0)
(0.0117468 0.0891411 0)
(0.00978249 0.0907991 0)
(0.00771827 0.0921522 0)
(0.00557352 0.0931829 0)
(0.00336695 0.0938777 0)
(0.00112519 0.0942273 0)
(0.00052336 0.00649842 0)
(0.00156902 0.00656822 0)
(0.00261337 0.00670837 0)
(0.0036563 0.00692011 0)
(0.00469651 0.00720519 0)
(0.00573339 0.00756595 0)
(0.00676639 0.00800528 0)
(0.00779509 0.0085266 0)
(0.00881914 0.00913381 0)
(0.00983826 0.00983127 0)
(0.0108522 0.0106237 0)
(0.0118607 0.0115164 0)
(0.0128636 0.0125146 0)
(0.0138603 0.013624 0)
(0.0148503 0.0148503 0)
(0.0158327 0.0161994 0)
(0.0168061 0.017677 0)
(0.0177688 0.0192885 0)
(0.0187184 0.0210392 0)
(0.0196519 0.0229336 0)
(0.0205654 0.0249759 0)
(0.0214542 0.027169 0)
(0.0223125 0.0295151 0)
(0.0231336 0.0320151 0)
(0.0239097 0.0346683 0)
(0.024632 0.0374726 0)
(0.0252906 0.0404237 0)
(0.0258747 0.0435154 0)
(0.0263726 0.0467394 0)
(0.0267717 0.0500845 0)
(0.0270593 0.0535374 0)
(0.0272221 0.0570818 0)
(0.027247 0.0606988 0)
(0.0271212 0.0643667 0)
(0.0268327 0.068061 0)
(0.0263706 0.0717549 0)
(0.0257256 0.0754189 0)
(0.0248902 0.0790218 0)
(0.0238595 0.0825306 0)
(0.0226312 0.0859109 0)
(0.021206 0.0891281 0)
(0.019588 0.0921471 0)
(0.0177847 0.0949337 0)
(0.0158073 0.097455 0)
(0.0136703 0.0996801 0)
(0.0113917 0.101581 0)
(0.00899254 0.103133 0)
(0.00649611 0.104316 0)
(0.00392542 0.105114 0)
(0.00131211 0.105515 0)
(0.000559777 0.00670287 0)
(0.00167856 0.00677882 0)
(0.00279698 0.00693135 0)
(0.00391557 0.00716183 0)
(0.00503361 0.00747225 0)
(0.00615109 0.00786524 0)
(0.00726804 0.00834406 0)
(0.00838457 0.00891254 0)
(0.00950083 0.00957511 0)
(0.010617 0.0103367 0)
(0.0117333 0.0112027 0)
(0.0128498 0.012179 0)
(0.0139666 0.0132718 0)
(0.0150833 0.0144875 0)
(0.0161994 0.0158327 0)
(0.0173141 0.0173141 0)
(0.018426 0.0189385 0)
(0.0195329 0.0207123 0)
(0.0206321 0.0226415 0)
(0.0217198 0.0247319 0)
(0.0227916 0.0269882 0)
(0.0238416 0.0294147 0)
(0.024863 0.032014 0)
(0.0258475 0.0347878 0)
(0.0267859 0.037736 0)
(0.0276673 0.0408567 0)
(0.0284798 0.0441459 0)
(0.0292102 0.0475972 0)
(0.0298444 0.0512019 0)
(0.0303672 0.054948 0)
(0.0307629 0.0588211 0)
(0.0310153 0.0628033 0)
(0.0311084 0.0668737 0)
(0.0310264 0.071008 0)
(0.0307545 0.0751788 0)
(0.0302791 0.0793557 0)
(0.0295884 0.0835052 0)
(0.0286729 0.0875917 0)
(0.0275262 0.0915771 0)
(0.0261447 0.095422 0)
(0.0245289 0.0990861 0)
(0.0226831 0.102529 0)
(0.0206159 0.10571 0)
(0.0183401 0.108591 0)
(0.0158729 0.111136 0)
(0.0132357 0.113312 0)
(0.0104534 0.11509 0)
(0.00755425 0.116446 0)
(0.00456613 0.11736 0)
(0.00152658 0.117821 0)
(0.000599315 0.00687029 0)
(0.0017975 0.00695256 0)
(0.00299638 0.00711779 0)
(0.0041972 0.00736752 0)
(0.00539992 0.00770398 0)
(0.00660519 0.00813011 0)
(0.00781369 0.00864957 0)
(0.00902615 0.00926667 0)
(0.0102433 0.00998637 0)
(0.0114659 0.0108143 0)
(0.0126945 0.0117564 0)
(0.0139298 0.0128195 0)
(0.015172 0.0140105 0)
(0.0164212 0.0153369 0)
(0.017677 0.0168061 0)
(0.0189385 0.018426 0)
(0.0202042 0.0202042 0)
(0.0214718 0.0221484 0)
(0.022738 0.0242657 0)
(0.0239987 0.026563 0)
(0.0252482 0.0290461 0)
(0.0264799 0.0317202 0)
(0.0276856 0.0345892 0)
(0.0288556 0.0376554 0)
(0.0299786 0.0409194 0)
(0.0310419 0.04438 0)
(0.0320312 0.0480334 0)
(0.0329307 0.0518734 0)
(0.0337233 0.0558907 0)
(0.034391 0.060073 0)
(0.0349146 0.0644045 0)
(0.0352747 0.0688658 0)
(0.0354516 0.073434 0)
(0.0354263 0.078082 0)
(0.0351804 0.0827792 0)
(0.034697 0.0874912 0)
(0.0339616 0.0921804 0)
(0.0329621 0.0968059 0)
(0.0316898 0.101324 0)
(0.0301401 0.10569 0)
(0.0283126 0.109856 0)
(0.0262117 0.113775 0)
(0.0238471 0.117402 0)
(0.0212336 0.12069 0)
(0.0183914 0.123597 0)
(0.0153457 0.126085 0)
(0.0121261 0.12812 0)
(0.00876637 0.129672 0)
(0.0053003 0.130719 0)
(0.00177239 0.131247 0)
(0.000642046 0.00700137 0)
(0.00192606 0.00709009 0)
(0.00321194 0.00726829 0)
(0.00450176 0.0075377 0)
(0.0057962 0.00790079 0)
(0.00709668 0.00836086 0)
(0.00840459 0.00892197 0)
(0.00972137 0.00958895 0)
(0.0110484 0.0103674 0)
(0.0123871 0.0112635 0)
(0.0137386 0.0122842 0)
(0.0151039 0.0134369 0)
(0.0164839 0.0147296 0)
(0.0178788 0.0161707 0)
(0.0192885 0.0177688 0)
(0.0207123 0.0195329 0)
(0.0221484 0.0214718 0)
(0.0235944 0.0235944 0)
(0.0250466 0.0259092 0)
(0.0265002 0.0284242 0)
(0.0279489 0.0311467 0)
(0.0293847 0.034083 0)
(0.0307981 0.0372381 0)
(0.0321777 0.0406156 0)
(0.0335105 0.044217 0)
(0.0347813 0.0480418 0)
(0.0359732 0.0520868 0)
(0.0370675 0.0563459 0)
(0.038044 0.0608098 0)
(0.038881 0.0654656 0)
(0.0395557 0.0702965 0)
(0.0400448 0.0752816 0)
(0.0403245 0.0803957 0)
(0.0403716 0.0856091 0)
(0.0401638 0.0908876 0)
(0.0396803 0.0961927 0)
(0.038903 0.101482 0)
(0.0378166 0.106708 0)
(0.0364099 0.111822 0)
(0.0346764 0.116772 0)
(0.0326147 0.121503 0)
(0.0302292 0.12596 0)
(0.0275305 0.13009 0)
(0.0245358 0.133839 0)
(0.0212684 0.137158 0)
(0.017758 0.14 0)
(0.0140398 0.142327 0)
(0.0101538 0.144102 0)
(0.00614093 0.145301 0)
(0.0020539 0.145905 0)
(0.000688033 0.0070971 0)
(0.00206442 0.00719237 0)
(0.00344399 0.00738376 0)
(0.0048297 0.00767317 0)
(0.00622308 0.00806336 0)
(0.00762636 0.00855798 0)
(0.00904178 0.00916156 0)
(0.0104716 0.00987947 0)
(0.0119178 0.0107179 0)
(0.0133827 0.0116839 0)
(0.0148679 0.0127851 0)
(0.0163752 0.01403 0)
(0.0179058 0.0154274 0)
(0.0194604 0.0169869 0)
(0.0210392 0.0187184 0)
(0.0226415 0.0206321 0)
(0.0242657 0.022738 0)
(0.0259092 0.0250466 0)
(0.0275678 0.0275678 0)
(0.0292362 0.0303111 0)
(0.030907 0.0332852 0)
(0.0325714 0.036498 0)
(0.0342182 0.0399559 0)
(0.0358345 0.0436638 0)
(0.0374048 0.0476245 0)
(0.0389117 0.0518384 0)
(0.0403353 0.0563032 0)
(0.0416537 0.0610132 0)
(0.042843 0.0659593 0)
(0.0438777 0.0711282 0)
(0.0447306 0.0765023 0)
(0.0453739 0.0820592 0)
(0.0457791 0.0877715 0)
(0.0459182 0.0936066 0)
(0.045764 0.0995267 0)
(0.0452911 0.105489 0)
(0.044477 0.111444 0)
(0.0433026 0.117341 0)
(0.0417534 0.123122 0)
(0.0398205 0.128727 0)
(0.0375009 0.134093 0)
(0.0347989 0.139158 0)
(0.031726 0.143858 0)
(0.0283016 0.14813 0)
(0.0245528 0.151916 0)
(0.0205144 0.155163 0)
(0.016228 0.157822 0)
(0.0117411 0.159853 0)
(0.0071031 0.161225 0)
(0.00237617 0.161916 0)
(0.000737316 0.00715874 0)
(0.00221271 0.00726062 0)
(0.00369274 0.00746532 0)
(0.00518136 0.00777495 0)
(0.00668101 0.00819255 0)
(0.00819487 0.00872215 0)
(0.00972607 0.00936876 0)
(0.0112777 0.0101383 0)
(0.0128529 0.0110378 0)
(0.0144543 0.0120749 0)
(0.0160846 0.0132583 0)
(0.0177462 0.0145973 0)
(0.0194409 0.016102 0)
(0.0211699 0.0177832 0)
(0.0229336 0.0196519 0)
(0.0247319 0.0217198 0)
(0.026563 0.0239987 0)
(0.0284242 0.0265002 0)
(0.0303111 0.0292362 0)
(0.0322176 0.0322176 0)
(0.0341358 0.0354552 0)
(0.0360554 0.0389584 0)
(0.0379639 0.0427353 0)
(0.0398463 0.0467926 0)
(0.0416851 0.0511344 0)
(0.0434599 0.0557627 0)
(0.045148 0.0606761 0)
(0.0467236 0.0658699 0)
(0.048159 0.0713352 0)
(0.049424 0.0770589 0)
(0.0504867 0.0830225 0)
(0.051314 0.0892024 0)
(0.0518719 0.095569 0)
(0.0521268 0.102087 0)
(0.0520458 0.108714 0)
(0.0515979 0.115403 0)
(0.0507553 0.1221 0)
(0.0494941 0.128744 0)
(0.0477958 0.135271 0)
(0.045648 0.141613 0)
(0.043046 0.147696 0)
(0.0399933 0.153447 0)
(0.0365021 0.158792 0)
(0.0325944 0.163659 0)
(0.0283013 0.167978 0)
(0.0236634 0.171685 0)
(0.01873 0.174725 0)
(0.0135572 0.177048 0)
(0.00820437 0.178619 0)
(0.00274512 0.179411 0)
(0.000789916 0.00718775 0)
(0.00237101 0.00729626 0)
(0.00395832 0.00751432 0)
(0.00555692 0.00784423 0)
(0.00717027 0.00828935 0)
(0.00880257 0.00885411 0)
(0.010458 0.00954403 0)
(0.0121406 0.0103657 0)
(0.0138544 0.0113268 0)
(0.0156031 0.0124358 0)
(0.0173903 0.0137025 0)
(0.019219 0.0151371 0)
(0.0210917 0.016751 0)
(0.0230103 0.0185563 0)
(0.0249759 0.0205654 0)
(0.0269882 0.0227916 0)
(0.0290461 0.0252482 0)
(0.0311467 0.0279489 0)
(0.0332852 0.030907 0)
(0.0354552 0.0341358 0)
(0.0376477 0.0376477 0)
(0.0398515 0.0414544 0)
(0.0420524 0.045566 0)
(0.0442336 0.049991 0)
(0.0463749 0.0547356 0)
(0.0484533 0.0598034 0)
(0.0504424 0.0651946 0)
(0.0523128 0.0709056 0)
(0.054032 0.0769284 0)
(0.0555649 0.0832501 0)
(0.0568741 0.089852 0)
(0.0579205 0.0967092 0)
(0.0586638 0.103791 0)
(0.0590636 0.111057 0)
(0.0590804 0.118464 0)
(0.0586766 0.125957 0)
(0.0578177 0.133476 0)
(0.0564741 0.140954 0)
(0.0546219 0.148317 0)
(0.0522448 0.155486 0)
(0.0493352 0.162378 0)
(0.0458952 0.168906 0)
(0.0419378 0.174984 0)
(0.0374872 0.180527 0)
(0.0325793 0.185454 0)
(0.0272614 0.189689 0)
(0.0215912 0.193165 0)
(0.0156355 0.195824 0)
(0.00946523 0.197623 0)
(0.00316765 0.19853 0)
(0.000845829 0.00718578 0)
(0.00253928 0.00730089 0)
(0.00424071 0.00753223 0)
(0.00595639 0.00788233 0)
(0.00769089 0.00835486 0)
(0.00944955 0.00895468 0)
(0.0112377 0.00968786 0)
(0.0130605 0.0105616 0)
(0.014923 0.0115844 0)
(0.01683 0.0127657 0)
(0.0187859 0.014116 0)
(0.0207948 0.0156471 0)
(0.0228601 0.0173714 0)
(0.0249842 0.0193024 0)
(0.027169 0.0214542 0)
(0.0294147 0.0238416 0)
(0.0317202 0.0264799 0)
(0.034083 0.0293847 0)
(0.036498 0.0325714 0)
(0.0389584 0.0360554 0)
(0.0414544 0.0398515 0)
(0.0439736 0.0439736 0)
(0.0465005 0.0484344 0)
(0.0490159 0.0532446 0)
(0.0514975 0.0584128 0)
(0.0539189 0.0639447 0)
(0.0562502 0.0698426 0)
(0.0584575 0.0761045 0)
(0.0605035 0.0827238 0)
(0.0623475 0.0896882 0)
(0.0639458 0.0969792 0)
(0.0652525 0.104571 0)
(0.06622 0.112431 0)
(0.0668002 0.120518 0)
(0.0669456 0.128782 0)
(0.0666104 0.137163 0)
(0.0657526 0.145596 0)
(0.0643351 0.154004 0)
(0.0623275 0.162303 0)
(0.0597082 0.170402 0)
(0.0564655 0.178206 0)
(0.0525998 0.185615 0)
(0.0481239 0.192527 0)
(0.0430648 0.198843 0)
(0.0374631 0.204465 0)
(0.0313739 0.209305 0)
(0.0248649 0.213282 0)
(0.0180152 0.216327 0)
(0.0109097 0.218389 0)
(0.00365186 0.219428 0)
(0.000905022 0.0071546 0)
(0.00271745 0.0072762 0)
(0.00453976 0.00752062 0)
(0.00637955 0.00789063 0)
(0.00824262 0.00839022 0)
(0.0101356 0.00902469 0)
(0.0120649 0.00980068 0)
(0.0140372 0.0107261 0)
(0.0160585 0.0118101 0)
(0.0181348 0.0130633 0)
(0.0202717 0.0144972 0)
(0.0224743 0.0161246 0)
(0.024747 0.0179595 0)
(0.0270931 0.0200169 0)
(0.0295151 0.0223125 0)
(0.032014 0.024863 0)
(0.0345892 0.0276856 0)
(0.0372381 0.0307981 0)
(0.0399559 0.0342182 0)
(0.0427353 0.0379639 0)
(0.045566 0.0420524 0)
(0.0484344 0.0465005 0)
(0.0513234 0.0513234 0)
(0.054212 0.0565348 0)
(0.0570751 0.0621462 0)
(0.0598831 0.0681658 0)
(0.0626023 0.0745985 0)
(0.065194 0.0814447 0)
(0.0676157 0.0886996 0)
(0.0698203 0.0963522 0)
(0.0717571 0.104385 0)
(0.0733725 0.112771 0)
(0.0746105 0.121478 0)
(0.075414 0.130461 0)
(0.0757259 0.139666 0)
(0.0754913 0.149028 0)
(0.0746582 0.158475 0)
(0.0731808 0.167919 0)
(0.0710203 0.177266 0)
(0.0681483 0.186413 0)
(0.0645479 0.195249 0)
(0.0602162 0.203657 0)
(0.0551656 0.211519 0)
(0.0494253 0.218718 0)
(0.0430415 0.225138 0)
(0.0360778 0.230673 0)
(0.0286135 0.235227 0)
(0.0207425 0.238719 0)
(0.0125662 0.241084 0)
(0.00420728 0.242278 0)
(0.000967429 0.00709603 0)
(0.00290531 0.00722395 0)
(0.00485515 0.00748114 0)
(0.00682598 0.00787057 0)
(0.00882494 0.00839657 0)
(0.01086 0.00906492 0)
(0.0129391 0.00988282 0)
(0.0150699 0.0108589 0)
(0.0172602 0.0120032 0)
(0.019517 0.0133271 0)
(0.0218472 0.0148434 0)
(0.0242572 0.0165663 0)
(0.0267523 0.0185111 0)
(0.0293372 0.0206943 0)
(0.0320151 0.0231336 0)
(0.0347878 0.0258475 0)
(0.0376554 0.0288556 0)
(0.0406156 0.0321777 0)
(0.0436638 0.0358345 0)
(0.0467926 0.0398463 0)
(0.049991 0.0442336 0)
(0.0532446 0.0490159 0)
(0.0565348 0.054212 0)
(0.0598387 0.0598387 0)
(0.0631284 0.0659108 0)
(0.0663713 0.07244 0)
(0.0695291 0.0794343 0)
(0.0725586 0.0868971 0)
(0.075411 0.0948262 0)
(0.0780327 0.103213 0)
(0.0803651 0.11204 0)
(0.0823458 0.121284 0)
(0.0839092 0.130908 0)
(0.0849877 0.140867 0)