/*--------------------------------*- C++ -*----------------------------------*\
| =========                 |                                                 |
| \\      /  F ield         | OpenFOAM: The Open Source CFD Toolbox           |
|  \\    /   O peration     | Version:  2406                                  |
|   \\  /    A nd           | Website:  www.openfoam.com                      |
|    \\/     M anipulation  |                                                 |
\*---------------------------------------------------------------------------*/
FoamFile
{
    version     2.0;
    format      ascii;
    arch        "LSB;label=32;scalar=64";
    class       volScalarField;
    location    "1.05";
    object      gradTy;
}
// * * * * * * * * * * * * * * * * * * * * * * * * * * * * * * * * * * * * * //

dimensions      [0 -1 0 1 0 0 0];

internalField   nonuniform List<scalar> 
2500
(
0.00289709
0.002917
0.00295775
0.00301904
0.00310131
0.00320506
0.0033309
0.00347956
0.00365183
0.00384858
0.00407076
0.00431935
0.00459535
0.00489977
0.0052336
0.00559777
0.00599315
0.00642046
0.00688033
0.00737316
0.00789916
0.00845829
0.00905022
0.00967429
0.0103295
0.0110144
0.0117272
0.0124657
0.0132271
0.0140082
0.0148054
0.0156146
0.0164312
0.0172502
0.0180662
0.0188735
0.0196661
0.0204378
0.0211822
0.021893
0.0225637
0.0231882
0.0237605
0.024275
0.0247267
0.0251108
0.0254237
0.0256621
0.0258223
0.0258958
0.00866342
0.00872409
0.00884643
0.00903065
0.00927795
0.00958987
0.00996824
0.0104152
0.0109332
0.0115248
0.0121929
0.0129405
0.0137705
0.0146861
0.0156902
0.0167856
0.017975
0.0192606
0.0206442
0.0221271
0.0237101
0.0253928
0.0271745
0.0290531
0.0310256
0.0330878
0.0352342
0.0374581
0.0397514
0.0421043
0.044506
0.046944
0.0494046
0.0518727
0.0543321
0.0567655
0.0591548
0.0614812
0.0637257
0.0658688
0.0678915
0.0697749
0.071501
0.0730529
0.0744152
0.075574
0.0765177
0.0772371
0.0777245
0.0779605
0.0143645
0.0144665
0.014671
0.0149793
0.0153932
0.0159153
0.0165487
0.0172971
0.0181644
0.0191551
0.0202741
0.0215263
0.0229169
0.024451
0.0261337
0.0279698
0.0299638
0.0321194
0.0344399
0.0369274
0.0395832
0.0424071
0.0453976
0.0485515
0.0518637
0.0553274
0.0589333
0.0626702
0.0665245
0.07048
0.0745184
0.0786187
0.0827578
0.0869105
0.0910494
0.0951454
0.0991679
0.103085
0.106866
0.110476
0.113883
0.117057
0.119965
0.122581
0.124877
0.12683
0.128419
0.12963
0.130449
0.130859
0.0199642
0.0201078
0.0203958
0.02083
0.0214131
0.0221488
0.0230415
0.0240963
0.025319
0.026716
0.028294
0.0300604
0.0320225
0.0341876
0.036563
0.0391557
0.041972
0.0450176
0.048297
0.0518136
0.0555692
0.0595639
0.0637955
0.0682598
0.0729499
0.0778559
0.0829652
0.0882619
0.0937267
0.0993369
0.105067
0.110886
0.116762
0.12266
0.12854
0.13436
0.140078
0.145648
0.151024
0.15616
0.161008
0.165525
0.169665
0.173389
0.176658
0.179438
0.1817
0.183421
0.18458
0.185162
0.0254166
0.0256027
0.0259759
0.0265387
0.0272948
0.0282488
0.0294065
0.0307747
0.0323611
0.034174
0.0362225
0.0385161
0.0410646
0.0438777
0.0469651
0.0503361
0.0539992
0.057962
0.0622308
0.0668101
0.0717027
0.0769089
0.0824262
0.0882494
0.0943698
0.100775
0.107448
0.114369
0.121513
0.128851
0.136347
0.143965
0.151661
0.159387
0.167093
0.174725
0.182225
0.189534
0.196591
0.203334
0.209702
0.215636
0.221078
0.225972
0.230269
0.233925
0.236899
0.23916
0.240682
0.241447
0.0306833
0.0309129
0.0313736
0.0320685
0.033002
0.0341802
0.0356103
0.0373008
0.0392613
0.0415026
0.0440359
0.0468733
0.0500271
0.0535099
0.0573339
0.0615109
0.0660519
0.0709668
0.0762636
0.0819487
0.0880257
0.0944955
0.101356
0.1086
0.116218
0.124195
0.132511
0.14114
0.150052
0.15921
0.168572
0.17809
0.187711
0.197376
0.20702
0.216575
0.225971
0.235131
0.243979
0.252437
0.260429
0.267877
0.27471
0.280857
0.286256
0.290849
0.294587
0.297428
0.29934
0.300301
0.0357285
0.036003
0.0365538
0.0373848
0.0385013
0.0399107
0.0416219
0.0436452
0.0459926
0.0486769
0.0517123
0.0551133
0.0588954
0.0630738
0.0676639
0.0726804
0.0781369
0.0840459
0.0904178
0.0972607
0.10458
0.112377
0.120649
0.129391
0.138589
0.148227
0.15828
0.16872
0.179508
0.190603
0.201951
0.213497
0.225174
0.236911
0.248631
0.260251
0.271682
0.282833
0.29361
0.303917
0.31366
0.322745
0.331082
0.338586
0.345178
0.350787
0.355352
0.358822
0.361158
0.362332
0.0405194
0.0408404
0.0414844
0.042456
0.0437618
0.0454106
0.0474129
0.0497813
0.0525299
0.0556744
0.0592317
0.0632194
0.0676561
0.0725604
0.0779509
0.0838457
0.0902615
0.0972137
0.104716
0.112777
0.121406
0.130605
0.140372
0.150699
0.161575
0.172979
0.184884
0.197255
0.21005
0.223217
0.236696
0.25042
0.26431
0.278282
0.292244
0.306095
0.319731
0.333042
0.345914
0.358232
0.369882
0.380751
0.39073
0.399715
0.407611
0.414331
0.419803
0.423962
0.426763
0.428171
0.0450269
0.0453959
0.0461365
0.0472539
0.0487561
0.0506533
0.0529579
0.0556849
0.0588511
0.0624748
0.0665762
0.0711764
0.0762975
0.0819617
0.0881914
0.0950083
0.102433
0.110484
0.119178
0.128529
0.138544
0.14923
0.160585
0.172602
0.185267
0.198558
0.212445
0.226889
0.24184
0.25724
0.273018
0.289096
0.305383
0.32178
0.338177
0.354459
0.370499
0.386168
0.401332
0.415853
0.429595
0.442423
0.454207
0.464822
0.474155
0.482101
0.488572
0.493493
0.496806
0.498472
0.0492254
0.0496443
0.0504851
0.051754
0.0534602
0.0556155
0.0582347
0.0613352
0.0649364
0.0690603
0.0737303
0.0789713
0.0848093
0.0912709
0.0983826
0.10617
0.114659
0.123871
0.133827
0.144543
0.156031
0.1683
0.181348
0.19517
0.209751
0.225067
0.241085
0.257762
0.27504
0.292854
0.311125
0.329759
0.348655
0.367695
0.386754
0.405695
0.424371
0.442631
0.460316
0.477264
0.493315
0.508307
0.522088
0.534509
0.545434
0.55474
0.562321
0.568087
0.571971
0.573923
0.0530936
0.0535643
0.0545092
0.0559355
0.0578537
0.0602776
0.0632244
0.066714
0.0707694
0.0754157
0.0806803
0.0865926
0.0931828
0.100482
0.108522
0.117333
0.126945
0.137386
0.148679
0.160846
0.173903
0.187859
0.202717
0.218472
0.235109
0.252604
0.27092
0.290008
0.309807
0.330242
0.351222
0.372643
0.394387
0.416321
0.438299
0.460161
0.481741
0.502858
0.523328
0.542963
0.561573
0.578969
0.594969
0.6094
0.622099
0.632922
0.641741
0.648452
0.652973
0.655245
0.0566143
0.0571389
0.0581919
0.0597816
0.0619203
0.0646237
0.0679115
0.0718068
0.0763359
0.0815281
0.087415
0.0940305
0.10141
0.10959
0.118607
0.128498
0.139298
0.151039
0.163752
0.177462
0.19219
0.207948
0.224743
0.242572
0.26142
0.281261
0.302058
0.323758
0.346291
0.369576
0.393509
0.417975
0.442839
0.467948
0.493136
0.51822
0.543005
0.567284
0.590844
0.613463
0.63492
0.654995
0.673472
0.690149
0.704833
0.717354
0.727562
0.735332
0.740567
0.7432
0.0597746
0.0603551
0.0615202
0.0632798
0.0656474
0.0686413
0.072284
0.0766018
0.081625
0.0873871
0.0939246
0.101277
0.109484
0.11859
0.128636
0.139666
0.15172
0.164839
0.179058
0.194409
0.210917
0.228601
0.24747
0.267523
0.288749
0.311122
0.334601
0.359129
0.384634
0.411021
0.438179
0.465977
0.494262
0.522863
0.551588
0.580231
0.608565
0.636354
0.663347
0.689291
0.713926
0.736994
0.758246
0.77744
0.794353
0.808782
0.820552
0.829513
0.835553
0.838591
0.0625661
0.0632043
0.0644857
0.0664212
0.0690263
0.0723217
0.076333
0.0810902
0.0866278
0.0929842
0.100201
0.108323
0.117398
0.127475
0.138603
0.150833
0.164212
0.178788
0.194604
0.211699
0.230103
0.249842
0.270931
0.293372
0.317156
0.342257
0.368636
0.396231
0.424963
0.454731
0.485412
0.516859
0.548901
0.581346
0.613976
0.646555
0.678826
0.710514
0.741334
0.770988
0.799177
0.825601
0.849965
0.871989
0.891411
0.907991
0.921522
0.931829
0.938777
0.942273
0.0649842
0.0656822
0.0670837
0.0692011
0.0720519
0.0756595
0.0800528
0.085266
0.0913381
0.0983127
0.106237
0.115164
0.125146
0.13624
0.148503
0.161994
0.17677
0.192885
0.210392
0.229336
0.249759
0.27169
0.295151
0.320151
0.346683
0.374726
0.404237
0.435154
0.467394
0.500845
0.535374
0.570818
0.606988
0.643667
0.68061
0.717549
0.754189
0.790218
0.825306
0.859109
0.891281
0.921471
0.949337
0.97455
0.996801
1.01581
1.03133
1.04316
1.05114
1.05515
0.0670287
0.0677882
0.0693135
0.0716183
0.0747225
0.0786524
0.0834406
0.0891254
0.0957511
0.103367
0.112027
0.12179
0.132718
0.144875
0.158327
0.173141
0.189385
0.207123
0.226415
0.247319
0.269882
0.294147
0.32014
0.347878
0.37736
0.408567
0.441459
0.475972
0.512019
0.54948
0.588211
0.628033
0.668737
0.71008
0.751788
0.793557
0.835052
0.875917
0.915771
0.95422
0.990861
1.02529
1.0571
1.08591
1.11136
1.13312
1.1509
1.16446
1.1736
1.17821
0.0687029
0.0695256
0.0711779
0.0736752
0.0770398
0.0813011
0.0864957
0.0926667
0.0998637
0.108143
0.117564
0.128195
0.140105
0.153369
0.168061
0.18426
0.202042
0.221484
0.242657
0.26563
0.290461
0.317202
0.345892
0.376554
0.409194
0.4438
0.480334
0.518734
0.558907
0.60073
0.644045
0.688658
0.73434
0.78082
0.827792
0.874912
0.921804
0.968059
1.01324
1.0569
1.09856
1.13775
1.17402
1.2069
1.23597
1.26085
1.2812
1.29672
1.30719
1.31247
0.0700137
0.0709009
0.0726829
0.075377
0.0790079
0.0836086
0.0892197
0.0958895
0.103674
0.112635
0.122842
0.134369
0.147296
0.161707
0.177688
0.195329
0.214718
0.235944
0.259092
0.284242
0.311467
0.34083
0.372381
0.406156
0.44217
0.480418
0.520868
0.563459
0.608098
0.654656
0.702965
0.752816
0.803957
0.856091
0.908876
0.961927
1.01482
1.06708
1.11822
1.16772
1.21503
1.2596
1.3009
1.33839
1.37158
1.4
1.42327
1.44102
1.45301
1.45905
0.070971
0.0719237
0.0738376
0.0767317
0.0806336
0.0855798
0.0916156
0.0987947
0.107179
0.116839
0.127851
0.1403
0.154274
0.169869
0.187184
0.206321
0.22738
0.250466
0.275678
0.303111
0.332852
0.36498
0.399559
0.436638
0.476245
0.518384
0.563032
0.610132
0.659593
0.711282
0.765023
0.820592
0.877715
0.936066
0.995267
1.05489
1.11444
1.17341
1.23122
1.28727
1.34093
1.39158
1.43858
1.4813
1.51916
1.55163
1.57822
1.59853
1.61225
1.61916
0.0715874
0.0726062
0.0746532
0.0777495
0.0819255
0.0872215
0.0936876
0.101383
0.110378
0.120749
0.132583
0.145973
0.16102
0.177832
0.196519
0.217198
0.239987
0.265002
0.292362
0.322176
0.354552
0.389584
0.427353
0.467926
0.511344
0.557627
0.606761
0.658699
0.713352
0.770589
0.830225
0.892024
0.95569
1.02087
1.08714
1.15403
1.221
1.28744
1.35271
1.41613
1.47696
1.53447
1.58792
1.63659
1.67978
1.71685
1.74725
1.77048
1.78619
1.79411
0.0718775
0.0729626
0.0751432
0.0784423
0.0828935
0.0885411
0.0954403
0.103657
0.113268
0.124358
0.137025
0.151371
0.16751
0.185563
0.205654
0.227916
0.252482
0.279489
0.30907
0.341358
0.376477
0.414544
0.45566
0.49991
0.547356
0.598034
0.651946
0.709056
0.769284
0.832501
0.89852
0.967092
1.03791
1.11057
1.18464
1.25957
1.33476
1.40954
1.48317
1.55486
1.62378
1.68906
1.74984
1.80527
1.85454
1.89689
1.93165
1.95824
1.97623
1.9853
0.0718578
0.0730089
0.0753223
0.0788233
0.0835486
0.0895468
0.0968786
0.105616
0.115844
0.127657
0.14116
0.156471
0.173714
0.193024
0.214542
0.238416
0.264799
0.293847
0.325714
0.360554
0.398515
0.439736
0.484344
0.532446
0.584128
0.639447
0.698426
0.761045
0.827238
0.896882
0.969792
1.04571
1.12431
1.20518
1.28782
1.37163
1.45596
1.54004
1.62303
1.70402
1.78206
1.85615
1.92527
1.98843
2.04465
2.09305
2.13282
2.16327
2.18389
2.19428
0.071546
0.072762
0.0752062
0.0789063
0.0839022
0.0902469
0.0980068
0.107261
0.118101
0.130633
0.144972
0.161246
0.179595
0.200169
0.223125
0.24863
0.276856
0.307981
0.342182
0.379639
0.420524
0.465005
0.513234
0.565348
0.621462
0.681658
0.745985
0.814447
0.886996
0.963522
1.04385
1.12771
1.21478
1.30461
1.39666
1.49028
1.58475
1.67919
1.77266
1.86413
1.95249
2.03657
2.11519
2.18718
2.25138
2.30673
2.35227
2.38719
2.41084
2.42278
0.0709603
0.0722395
0.0748114
0.0787057
0.0839657
0.0906492
0.0988282
0.108589
0.120032
0.133271
0.148434
0.165663
0.185111
0.206943
0.231336
0.258475
0.288556
0.321777
0.358345
0.398463
0.442336
0.490159
0.54212
0.598387
0.659108
0.7244
0.794343
0.868971
0.948262
1.03213
1.1204
1.21284
1.30908
1.40867
1.51104
1.61549
1.72118
1.82718
1.9324
2.03567
2.13569
2.23114
2.32061
2.40271
2.47609
2.53946
2.59168
2.63177
2.65894
2.67266
0.0701194
0.0714595
0.0741541
0.0782354
0.0837501
0.0907607
0.099345
0.109597
0.121625
0.135553
0.151522
0.169685
0.190212
0.213284
0.239097
0.267859
0.299786
0.335105
0.374048
0.416851
0.463749
0.514975
0.570751
0.631284
0.696763
0.767345
0.843149
0.924247
1.01065
1.10231
1.19908
1.30071
1.40687
1.51709
1.63074
1.74709
1.86523
1.98409
2.10248
2.21903
2.33229
2.44067
2.54255
2.63628
2.72024
2.7929
2.85287
2.89896
2.93024
2.94604
0.0690416
0.0704394
0.0732503
0.077509
0.0832656
0.0905873
0.099558
0.110279
0.122867
0.137457
0.154201
0.173268
0.19484
0.219119
0.24632
0.276673
0.310419
0.347813
0.389117
0.434599
0.484533
0.539189
0.598831
0.663713
0.734066
0.810098
0.891977
0.979822
1.07369
1.17357
1.27936
1.39084
1.50768
1.6294
1.75537
1.8848
2.01669
2.14989
2.28302
2.41457
2.54283
2.66597
2.78208
2.88921
2.98541
3.06886
3.13786
3.19098
3.22706
3.2453
0.0677449
0.0691962
0.0721153
0.0765391
0.0825213
0.0901336
0.099466
0.110627
0.123742
0.138958
0.156437
0.176362
0.198933
0.224369
0.252906
0.284798
0.320312
0.359732
0.403353
0.45148
0.504424
0.562502
0.626023
0.695291
0.770594
0.852194
0.940317
1.03514
1.13679
1.2453
1.36062
1.48257
1.61086
1.74501
1.88438
2.02814
2.17523
2.32436
2.47403
2.62249
2.76779
2.9078
3.04028
3.16289
3.27333
3.36935
3.44892
3.51028
3.552
3.57311
0.0662462
0.067746
0.0707633
0.0753372
0.0815248
0.0894023
0.0990657
0.11063
0.124232
0.140025
0.158187
0.178913
0.20242
0.228946
0.258747
0.292102
0.329307
0.370675
0.416537
0.467236
0.523128
0.584575
0.65194
0.725586
0.80586
0.893091
0.987576
1.08957
1.19925
1.31675
1.44207
1.57511
1.7156
1.86311
2.01702
2.17644
2.34028
2.50712
2.6753
2.84285
3.00753
3.16687
3.31822
3.4588
3.58582
3.69658
3.78859
3.85966
3.90807
3.93258
0.0645612
0.0661037
0.0692074
0.0739135
0.0802824
0.0883949
0.0983524
0.110278
0.124314
0.140628
0.159407
0.180862
0.205225
0.232753
0.263726
0.298444
0.337233
0.38044
0.42843
0.48159
0.54032
0.605035
0.676157
0.75411
0.839314
0.932173
1.03307
1.14233
1.26025
1.38703
1.52277
1.66745
1.82088
1.98269
2.15227
2.32877
2.51101
2.69751
2.88641
3.07551
3.26227
3.4438
3.61697
3.77847
3.92492
4.05303
4.15974
4.24235
4.29869
4.32725
0.0627043
0.0642827
0.067459
0.0722766
0.0787988
0.0871107
0.0973192
0.109553
0.123966
0.140731
0.16005
0.182146
0.207268
0.235691
0.267717
0.303672
0.34391
0.38881
0.438777
0.49424
0.555649
0.623475
0.698203
0.780327
0.870345
0.968749
1.07601
1.19258
1.31883
1.45509
1.60159
1.75839
1.92544
2.10245
2.28887
2.48389
2.68631
2.89456
3.10663
3.32009
3.53201
3.73906
3.93754
4.12349
4.29281
4.44147
4.56566
4.66203
4.72788
4.76129
0.0606885
0.0622949
0.0655282
0.0704336
0.0770773
0.085548
0.0959578
0.108442
0.123161
0.140298
0.160066
0.1827
0.208465
0.237656
0.270593
0.307629
0.349146
0.395557
0.447306
0.504867
0.568741
0.639458
0.717571
0.803651
0.898282
1.00205
1.11555
1.23932
1.3739
1.51974
1.6772
1.84652
2.02778
2.22081
2.4252
2.6402
2.86464
3.09691
3.33487
3.57581
3.81645
4.05292
4.28086
4.49552
4.69189
4.86501
5.01013
5.12305
5.20036
5.23963
0.0585251
0.0601509
0.0634237
0.0683904
0.0751196
0.0837036
0.0942587
0.106926
0.121872
0.139291
0.159403
0.182456
0.208732
0.238539
0.272221
0.310153
0.352747
0.400448
0.453739
0.51314
0.579205
0.652525
0.733725
0.823458
0.922403
1.03126
1.15072
1.28149
1.42424
1.5796
1.7481
1.93018
2.12608
2.33587
2.55927
2.79569
3.04404
3.30273
3.56952
3.84147
4.1149
4.38537
4.64771
4.89621
5.12477
5.32719
5.49754
5.6305
5.72173
5.76814
0.0562239
0.0578595
0.0611526
0.0661513
0.0729265
0.0815733
0.0922118
0.104988
0.120074
0.137672
0.15801
0.18135
0.207983
0.238236
0.27247
0.311084
0.354516
0.403245
0.457791
0.518719
0.586638
0.6622
0.746105
0.839092
0.941941
1.05546
1.1805
1.3179
1.4685
1.63314
1.81256
2.00742
2.21825
2.44532
2.68864
2.94782
3.22197
3.50957
3.80838
4.11526
4.42614
4.73594
5.0386
5.32721
5.59427
5.83205
6.03304
6.19047
6.29874
6.3539
0.0537933
0.0554283
0.0587207
0.0637198
0.0704979
0.0791525
0.0898065
0.10261
0.11774
0.135405
0.15584
0.179316
0.206137
0.236642
0.271212
0.310264
0.354263
0.403716
0.459182
0.521268
0.590636
0.668002
0.75414
0.849877
0.9561
1.07374
1.20379
1.34727
1.50521
1.67867
1.86864
2.07609
2.30183
2.54649
2.8104
3.09351
3.39523
3.71426
4.04844
4.39455
4.74818
5.10357
5.45362
5.79
6.10344
6.38421
6.62272
6.81024
6.93956
7.00555
0.0512403
0.0528636
0.056133
0.0610985
0.0678333
0.0764365
0.0870332
0.099776
0.114846
0.132455
0.152846
0.176295
0.203117
0.233663
0.268327
0.307545
0.351804
0.401638
0.45764
0.520458
0.590804
0.669456
0.757259
0.855134
0.964071
1.08514
1.21947
1.36827
1.5328
1.71435
1.91424
2.13374
2.37406
2.63624
2.92109
3.229
3.55983
3.91269
4.2857
4.6757
5.07804
5.48631
5.89225
6.28582
6.65551
6.98896
7.2738
7.49871
7.65426
7.73377
0.0485709
0.0501708
0.0533936
0.0582894
0.064932
0.0734211
0.083883
0.0964716
0.11137
0.128793
0.148987
0.172235
0.198856
0.229212
0.263706
0.302791
0.34697
0.396803
0.452911
0.515979
0.586766
0.666104
0.754913
0.854196
0.965053
1.08868
1.22637
1.37953
1.54963
1.73827
1.94706
2.1777
2.43183
2.71103
3.01666
3.34977
3.71087
4.09971
4.51491
4.95368
5.41133
5.88092
6.35297
6.8154
7.25383
7.65242
7.99504
8.26679
8.45532
8.55184
0.0457902
0.0473545
0.050506
0.0552946
0.0617939
0.0701034
0.0803492
0.0926855
0.107296
0.124395
0.144232
0.167091
0.193297
0.223214
0.257256
0.295884
0.339616
0.38903
0.44477
0.507553
0.578177
0.657526
0.746582
0.846431
0.958274
1.08343
1.22336
1.37965
1.55404
1.74839
1.96471
2.2051
2.47175
2.76685
3.0925
3.45055
3.84243
4.26882
4.72926
5.22169
5.74179
6.28237
6.83277
7.37856
7.90172
8.38167
8.79707
9.12809
9.35838
9.47647
0.0429028
0.0444189
0.0474737
0.0521165
0.0584199
0.0664821
0.076428
0.08841
0.10261
0.119243
0.138555
0.160831
0.186394
0.215613
0.248902
0.286729
0.329621
0.378166
0.433026
0.494941
0.564741
0.643351
0.731808
0.831269
0.943026
1.06852
1.20936
1.36732
1.54438
1.74272
1.96471
2.21294
2.49019
2.79935
3.1434
3.52522
3.94743
4.41205
4.92003
5.47063
6.06055
6.68294
7.3263
7.97361
8.6022
9.18495
9.69305
10.0997
10.3833
10.5289
0.0399128
0.041368
0.0443005
0.0487581
0.054812
0.0625582
0.0721185
0.0836425
0.0973089
0.113327
0.131942
0.153433
0.178121
0.20637
0.238595
0.275262
0.316898
0.364099
0.417534
0.477958
0.546219
0.623275
0.710203
0.808219
0.918691
1.04316
1.18337
1.34129
1.5191
1.71929
1.94463
2.19819
2.48337
2.80388
3.16367
3.56689
4.01765
4.51976
5.07622
5.68846
6.35524
7.07113
7.8246
8.59622
9.35749
10.0719
10.6996
11.2037
11.5555
11.7361
0.0368246
0.0382061
0.0409904
0.0452237
0.0509745
0.0583354
0.0674243
0.0783858
0.0913929
0.106649
0.124392
0.144894
0.168468
0.195472
0.226312
0.261447
0.301401
0.346764
0.398205
0.45648
0.522448
0.597082
0.681483
0.776906
0.884777
1.00672
1.14458
1.30048
1.47681
1.67634
1.90218
2.15792
2.44757
2.77568
3.14731
3.56802
4.04373
4.58054
5.18425
5.85957
6.60882
7.42984
8.31304
9.23759
10.1681
11.0544
11.8383
12.4686
12.9078
13.1327
0.0336425
0.0349377
0.0375485
0.0415187
0.0469135
0.0538209
0.0623534
0.0726488
0.0848724
0.0992191
0.115916
0.135225
0.157447
0.182928
0.21206
0.245289
0.283126
0.326147
0.375009
0.43046
0.493352
0.564655
0.645479
0.737093
0.840952
0.95873
1.09235
1.24405
1.41638
1.61233
1.83535
2.08944
2.37924
2.71012
3.08826
3.52073
4.0155
4.5814
5.22782
5.96407
6.7981
7.73403
8.76788
9.88089
11.031
12.1471
13.1389
13.933
14.4825
14.7624
0.0303715
0.0315683
0.033981
0.0376505
0.0426379
0.0490256
0.056919
0.0664476
0.0777665
0.0910592
0.10654
0.124455
0.145092
0.168775
0.19588
0.226831
0.262117
0.302292
0.347989
0.399933
0.458952
0.525998
0.602162
0.688703
0.787075
0.898965
1.02633
1.17146
1.33702
1.52616
1.74256
1.99058
2.27537
2.60303
2.9808
3.41724
3.92244
4.50822
5.1882
5.97758
6.89242
7.94737
9.15078
10.4944
11.9352
13.3716
14.6449
15.6495
16.3343
16.6797
0.0270172
0.0281041
0.0302953
0.0336284
0.0381594
0.0439642
0.0511396
0.0598049
0.0701032
0.0822038
0.0963044
0.112634
0.131458
0.15308
0.177847
0.206159
0.238471
0.275305
0.31726
0.365021
0.419378
0.481239
0.551656
0.631846
0.723227
0.827454
0.946465
1.08255
1.23839
1.41721
1.62282
1.85981
2.13367
2.45107
2.8201
3.25059
3.75457
4.34678
5.04524
5.87188
6.85299
8.01874
9.40004
11.0175
12.8506
14.7661
16.4264
17.6926
18.5327
18.9494
0.0235861
0.0245522
0.0265003
0.0294637
0.0334927
0.0386556
0.0450393
0.0527511
0.0619201
0.0726989
0.085266
0.0998289
0.116627
0.135936
0.158073
0.183401
0.212336
0.245358
0.283016
0.325944
0.374872
0.430648
0.494253
0.566833
0.64973
0.744519
0.853061
0.977565
1.12066
1.28552
1.47593
1.69654
1.95299
2.25222
2.60281
3.01548
3.50367
4.08443
4.77957
5.61732
6.63464
7.8804
9.41906
11.331
13.6898
16.4219
18.6083
20.1683
21.1607
21.642
0.0200853
0.0209211
0.0226064
0.0251699
0.0286555
0.0331226
0.0386474
0.0453236
0.0532641
0.0626025
0.0734954
0.0861249
0.100701
0.117468
0.136703
0.158729
0.183914
0.212684
0.245528
0.283013
0.325793
0.374631
0.430415
0.494185
0.567166
0.650802
0.746814
0.857256
0.984597
1.13182
1.30258
1.50131
1.73355
2.00616
2.32776
2.7093
3.16478
3.71241
4.37612
5.18813
6.19288
7.45433
9.07006
11.2029
14.161
18.6288
21.422
23.217
24.3052
24.8216
0.0165231
0.0172202
0.0186256
0.0207628
0.0236683
0.0273923
0.0319988
0.0375666
0.0441908
0.0519838
0.0610777
0.0716261
0.0838066
0.0978249
0.113917
0.132357
0.153457
0.17758
0.205144
0.236634
0.272614
0.313739
0.360778
0.414633
0.476372
0.547263
0.628818
0.722858
0.831584
0.957678
1.10443
1.27591
1.4772
1.71469
1.99648
2.33298
2.73769
3.22833
3.82854
4.57043
5.49878
6.67839
8.20845
10.2542
13.1269
17.5152
20.2385
21.9774
23.0262
23.5224
0.0129083
0.0134596
0.0145715
0.0162598
0.0185542
0.0214948
0.0251325
0.0295302
0.0347635
0.0409219
0.0481106
0.056452
0.066088
0.0771827
0.0899254
0.104534
0.121261
0.140398
0.16228
0.1873
0.215912
0.248649
0.286135
0.329108
0.378441
0.435175
0.50056
0.576103
0.663639
0.765415
0.884204
1.02346
1.18752
1.38187
1.61355
1.89162
2.22793
2.63804
3.14271
3.76979
4.55701
5.55567
6.83487
8.48223
10.5813
13.0704
15.0434
16.4317
17.3039
17.7234
0.00925036
0.0096489
0.0104571
0.0116786
0.0133367
0.0154614
0.0180899
0.0212679
0.0250504
0.0295024
0.0347005
0.0407337
0.0477054
0.0557352
0.0649611
0.0755425
0.0876637
0.101538
0.117411
0.135572
0.156355
0.180152
0.207425
0.238719
0.274683
0.316093
0.36388
0.419175
0.483359
0.558127
0.645584
0.74836
0.869775
1.01405
1.18662
1.39451
1.64689
1.95582
2.33716
2.81176
3.40659
4.15528
5.09604
6.26155
7.64844
9.14476
10.4361
11.4052
12.0372
12.3469
0.00556003
0.00579375
0.00628344
0.00702247
0.00802508
0.00930949
0.0108984
0.0128197
0.0151066
0.0177987
0.0209425
0.024592
0.0288101
0.0336695
0.0392542
0.0456613
0.053003
0.0614093
0.071031
0.0820437
0.0946523
0.109097
0.125662
0.144681
0.166555
0.19176
0.220875
0.254599
0.293789
0.339501
0.39305
0.456083
0.530685
0.619516
0.726001
0.85458
1.01104
1.20296
1.44017
1.73535
2.10419
2.56477
3.13442
3.82149
4.60819
5.4261
6.15323
6.71778
7.09498
7.2823
0.00185413
0.00192767
0.00209019
0.00233723
0.00267258
0.00310217
0.0036336
0.00427619
0.00504111
0.00594162
0.00699331
0.00821431
0.0096257
0.0112519
0.0131211
0.0152658
0.0177239
0.020539
0.0237617
0.0274512
0.0316765
0.0365186
0.0420728
0.0484524
0.0557922
0.0642537
0.0740322
0.0853648
0.098542
0.113923
0.131954
0.153196
0.17836
0.208355
0.24435
0.287863
0.34087
0.405946
0.48642
0.58651
0.711318
0.86644
1.05668
1.28313
1.53806
1.79956
2.03425
2.21908
2.34397
2.4064
)
;

boundaryField
{
    walls
    {
        type            calculated;
        value           nonuniform List<scalar> 
200
(
0
0
0
0
0
0
0
0
0
0
0
0
0
0
0
0
0
0
0
0
0
0
0
0
0
0
0
0
0
0
0
0
0
0
0
0
0
0
0
0
0
0
0
0
0
0
0
0
0
0
0.00289709
0.00866342
0.0143645
0.0199642
0.0254166
0.0306833
0.0357285
0.0405194
0.0450269
0.0492254
0.0530936
0.0566143
0.0597746
0.0625661
0.0649842
0.0670287
0.0687029
0.0700137
0.070971
0.0715874
0.0718775
0.0718578
0.071546
0.0709603
0.0701194
0.0690416
0.0677449
0.0662462
0.0645612
0.0627043
0.0606885
0.0585251
0.0562239
0.0537933
0.0512403
0.0485709
0.0457902
0.0429028
0.0399128
0.0368246
0.0336425
0.0303715
0.0270172
0.0235861
0.0200853
0.0165231
0.0129083
0.00925036
0.00556003
0.00185413
0.0258958
0.0779605
0.130859
0.185162
0.241447
0.300301
0.362332
0.428171
0.498472
0.573923
0.655245
0.7432
0.838591
0.942273
1.05515
1.17821
1.31247
1.45905
1.61916
1.79411
1.9853
2.19428
2.42278
2.67266
2.94604
3.2453
3.57311
3.93258
4.32725
4.76129
5.23963
5.76814
6.3539
7.00555
7.73377
8.55184
9.47647
10.5289
11.7361
13.1327
14.7624
16.6797
18.9494
21.642
24.8216
23.5224
17.7234
12.3469
7.2823
2.4064
0
0
0
0
0
0
0
0
0
0
0
0
0
0
0
0
0
0
0
0
0
0
0
0
0
0
0
0
0
0
0
0
0
0
0
0
0
0
0
0
0
0
0
0
0
0
0
0
0
0
)
;
    }
    frontAndBack
    {
        type            empty;
    }
}


// ************************************************************************* //
