/*--------------------------------*- C++ -*----------------------------------*\
| =========                 |                                                 |
| \\      /  F ield         | OpenFOAM: The Open Source CFD Toolbox           |
|  \\    /   O peration     | Version:  2406                                  |
|   \\  /    A nd           | Website:  www.openfoam.com                      |
|    \\/     M anipulation  |                                                 |
\*---------------------------------------------------------------------------*/
FoamFile
{
    version     2.0;
    format      ascii;
    arch        "LSB;label=32;scalar=64";
    class       volScalarField;
    location    "1.05";
    object      T;
}
// * * * * * * * * * * * * * * * * * * * * * * * * * * * * * * * * * * * * * //

dimensions      [0 0 0 1 0 0 0];

internalField   nonuniform List<scalar> 
2500
(
0.187791
0.187906
0.188137
0.188481
0.188936
0.189498
0.190163
0.190927
0.191784
0.192728
0.193753
0.194852
0.196017
0.197243
0.19852
0.199842
0.201201
0.20259
0.204002
0.205429
0.206865
0.208304
0.20974
0.211166
0.212578
0.213971
0.21534
0.216681
0.217989
0.219263
0.220498
0.22169
0.222839
0.223939
0.22499
0.225989
0.226933
0.227821
0.228649
0.229417
0.230122
0.230763
0.231337
0.231844
0.232281
0.232647
0.232942
0.233163
0.233312
0.233386
0.187906
0.188023
0.188255
0.188602
0.18906
0.189626
0.190296
0.191066
0.19193
0.192882
0.193916
0.195024
0.196201
0.197439
0.198729
0.200066
0.201441
0.202847
0.204277
0.205724
0.207181
0.208642
0.210102
0.211553
0.212991
0.214411
0.215809
0.217179
0.218519
0.219823
0.22109
0.222315
0.223496
0.224629
0.225713
0.226744
0.22772
0.228638
0.229497
0.230293
0.231025
0.23169
0.232288
0.232815
0.23327
0.233651
0.233958
0.23419
0.234344
0.234422
0.188137
0.188255
0.188491
0.188842
0.189307
0.189881
0.190562
0.191343
0.192221
0.193189
0.194241
0.195369
0.196568
0.19783
0.199148
0.200513
0.20192
0.203361
0.204828
0.206314
0.207814
0.20932
0.210827
0.212328
0.213819
0.215294
0.216749
0.218179
0.21958
0.220947
0.222278
0.223568
0.224815
0.226014
0.227164
0.22826
0.229299
0.23028
0.231198
0.232052
0.232838
0.233554
0.234197
0.234766
0.235257
0.23567
0.236002
0.236253
0.236421
0.236504
0.188481
0.188602
0.188842
0.189201
0.189675
0.190263
0.190958
0.191758
0.192656
0.193648
0.194727
0.195886
0.197118
0.198417
0.199775
0.201185
0.202639
0.204132
0.205655
0.207201
0.208765
0.210339
0.211917
0.213495
0.215066
0.216624
0.218166
0.219686
0.22118
0.222642
0.224071
0.22546
0.226806
0.228106
0.229355
0.23055
0.231687
0.232762
0.233771
0.234712
0.23558
0.236373
0.237086
0.237718
0.238265
0.238725
0.239095
0.239375
0.239562
0.239656
0.188936
0.18906
0.189307
0.189675
0.190163
0.190767
0.191483
0.192307
0.193234
0.194258
0.195372
0.196572
0.197849
0.199198
0.20061
0.20208
0.203599
0.205161
0.206759
0.208387
0.210036
0.211702
0.213378
0.215058
0.216737
0.218408
0.220068
0.221709
0.223329
0.224921
0.226481
0.228004
0.229485
0.230921
0.232305
0.233634
0.234903
0.236106
0.237239
0.238298
0.239278
0.240175
0.240984
0.241701
0.242324
0.242847
0.24327
0.24359
0.243804
0.243911
0.189498
0.189626
0.189881
0.190263
0.190767
0.191392
0.192134
0.192989
0.193951
0.195015
0.196176
0.197426
0.19876
0.200172
0.201653
0.203198
0.204799
0.20645
0.208144
0.209873
0.211633
0.213415
0.215215
0.217025
0.21884
0.220655
0.222464
0.224261
0.22604
0.227797
0.229524
0.231218
0.232873
0.234481
0.236039
0.237539
0.238976
0.240343
0.241635
0.242845
0.243968
0.244998
0.245929
0.246757
0.247476
0.248082
0.248571
0.248941
0.24919
0.249314
0.190163
0.190296
0.190562
0.190958
0.191483
0.192134
0.192908
0.193799
0.194804
0.195918
0.197134
0.198447
0.19985
0.201338
0.202904
0.20454
0.206241
0.208
0.20981
0.211665
0.213557
0.215482
0.217433
0.219402
0.221386
0.223376
0.225368
0.227355
0.229331
0.231289
0.233223
0.235127
0.236994
0.238816
0.240586
0.242297
0.243941
0.245511
0.246998
0.248396
0.249695
0.25089
0.251972
0.252936
0.253774
0.254481
0.255054
0.255487
0.255777
0.255923
0.190927
0.191066
0.191343
0.191758
0.192307
0.192989
0.193799
0.194735
0.195791
0.196962
0.198244
0.199631
0.201116
0.202695
0.20436
0.206105
0.207925
0.209812
0.21176
0.213764
0.215816
0.21791
0.22004
0.222201
0.224384
0.226584
0.228795
0.23101
0.23322
0.235421
0.237603
0.239758
0.24188
0.243958
0.245984
0.247949
0.249843
0.251656
0.253379
0.255002
0.256515
0.257908
0.259173
0.2603
0.261283
0.262113
0.262785
0.263294
0.263636
0.263807
0.191784
0.19193
0.192221
0.192656
0.193234
0.193951
0.194804
0.195791
0.196906
0.198145
0.199503
0.200975
0.202556
0.20424
0.206022
0.207894
0.209852
0.211888
0.213999
0.216176
0.218414
0.220706
0.223047
0.22543
0.227849
0.230295
0.232763
0.235245
0.237733
0.240218
0.242691
0.245144
0.247566
0.249947
0.252276
0.254541
0.256731
0.258833
0.260835
0.262725
0.264491
0.26612
0.267601
0.268924
0.270078
0.271055
0.271846
0.272445
0.272848
0.273049
0.192728
0.192882
0.193189
0.193648
0.194258
0.195015
0.195918
0.196962
0.198145
0.199461
0.200907
0.202478
0.204168
0.205973
0.207888
0.209906
0.212022
0.214231
0.216528
0.218905
0.221358
0.223879
0.226464
0.229105
0.231795
0.234527
0.237293
0.240085
0.242894
0.24571
0.248523
0.251322
0.254095
0.256829
0.259511
0.262127
0.264663
0.267103
0.269433
0.271636
0.273698
0.275605
0.277341
0.278893
0.280249
0.281397
0.282328
0.283034
0.283508
0.283746
0.193753
0.193916
0.194241
0.194727
0.195372
0.196176
0.197134
0.198244
0.199503
0.200907
0.202452
0.204134
0.205949
0.207891
0.209957
0.212141
0.214438
0.216843
0.219352
0.221957
0.224655
0.227438
0.230301
0.233237
0.236239
0.239298
0.242407
0.245556
0.248734
0.251932
0.255136
0.258334
0.261512
0.264655
0.267746
0.270769
0.273705
0.276538
0.279248
0.281816
0.284223
0.286452
0.288485
0.290304
0.291896
0.293244
0.294339
0.295169
0.295727
0.296006
0.194852
0.195024
0.195369
0.195886
0.196572
0.197426
0.198447
0.199631
0.200975
0.202478
0.204134
0.205941
0.207895
0.209993
0.212228
0.214599
0.2171
0.219727
0.222475
0.225339
0.228314
0.231394
0.234573
0.237844
0.241199
0.244631
0.24813
0.251685
0.255286
0.25892
0.262572
0.266228
0.26987
0.273482
0.277043
0.280534
0.283932
0.287217
0.290366
0.293355
0.296161
0.298764
0.30114
0.303269
0.305133
0.306714
0.307998
0.308972
0.309627
0.309956
0.196017
0.196201
0.196568
0.197118
0.197849
0.19876
0.19985
0.201116
0.202556
0.204168
0.205949
0.207895
0.210005
0.212275
0.214701
0.217281
0.22001
0.222885
0.225902
0.229056
0.232343
0.235756
0.239291
0.24294
0.246696
0.250549
0.254489
0.258506
0.262586
0.266715
0.270877
0.275053
0.279226
0.283373
0.287471
0.291497
0.295426
0.299229
0.302881
0.306354
0.30962
0.312652
0.315424
0.31791
0.320089
0.321938
0.323441
0.324582
0.325349
0.325734
0.197243
0.197439
0.19783
0.198417
0.199198
0.200172
0.201338
0.202695
0.20424
0.205973
0.207891
0.209993
0.212275
0.214736
0.217374
0.220186
0.223169
0.22632
0.229637
0.233115
0.23675
0.240538
0.244471
0.248544
0.252749
0.257076
0.261514
0.266051
0.270672
0.275361
0.280099
0.284867
0.289641
0.294396
0.299107
0.303743
0.308275
0.312671
0.3169
0.320926
0.324718
0.328243
0.331469
0.334367
0.336907
0.339065
0.34082
0.342153
0.343049
0.343499
0.19852
0.198729
0.199148
0.199775
0.20061
0.201653
0.202904
0.20436
0.206022
0.207888
0.209957
0.212228
0.214701
0.217374
0.220245
0.223314
0.226578
0.230036
0.233686
0.237524
0.241547
0.24575
0.250128
0.254675
0.259382
0.264239
0.269235
0.274355
0.279584
0.284904
0.290293
0.295728
0.301182
0.306627
0.31203
0.31736
0.322579
0.32765
0.332535
0.337194
0.341587
0.345676
0.349422
0.35279
0.355745
0.358258
0.360302
0.361855
0.3629
0.363425
0.199842
0.200066
0.200513
0.201185
0.20208
0.203198
0.20454
0.206105
0.207894
0.209906
0.212141
0.214599
0.217281
0.220186
0.223314
0.226665
0.23024
0.234036
0.238053
0.242289
0.246741
0.251405
0.256277
0.26135
0.266616
0.272065
0.277683
0.283457
0.289367
0.295395
0.301514
0.3077
0.31392
0.320143
0.326331
0.332445
0.338443
0.34428
0.349912
0.355291
0.36037
0.365102
0.369443
0.373349
0.376779
0.379698
0.382073
0.383879
0.385095
0.385706
0.201201
0.201441
0.20192
0.202639
0.203599
0.204799
0.206241
0.207925
0.209852
0.212022
0.214438
0.2171
0.22001
0.223169
0.226578
0.23024
0.234154
0.238321
0.242742
0.247417
0.252342
0.257516
0.262934
0.26859
0.274476
0.280582
0.286893
0.293394
0.300065
0.306883
0.313822
0.320849
0.327931
0.33503
0.342102
0.349102
0.355981
0.362687
0.369166
0.375363
0.381222
0.386688
0.391706
0.396226
0.4002
0.403583
0.406338
0.408433
0.409845
0.410554
0.20259
0.202847
0.203361
0.204132
0.205161
0.20645
0.208
0.209812
0.211888
0.214231
0.216843
0.219727
0.222885
0.22632
0.230036
0.234036
0.238321
0.242895
0.247759
0.252914
0.258359
0.264093
0.270113
0.276413
0.282984
0.289817
0.296897
0.304206
0.311724
0.319424
0.327276
0.335246
0.343294
0.351376
0.359443
0.367441
0.375315
0.383003
0.390441
0.397566
0.404312
0.410612
0.416404
0.421625
0.426218
0.430132
0.433321
0.435748
0.437383
0.438204
0.204002
0.204277
0.204828
0.205655
0.206759
0.208144
0.20981
0.21176
0.213999
0.216528
0.219352
0.222475
0.225902
0.229637
0.233686
0.238053
0.242742
0.247759
0.253106
0.258786
0.264801
0.271149
0.277829
0.284836
0.292163
0.299798
0.307728
0.315932
0.324389
0.33307
0.34194
0.350962
0.36009
0.369273
0.378457
0.387579
0.396573
0.40537
0.413894
0.422071
0.429823
0.437072
0.443742
0.449762
0.455063
0.459583
0.463269
0.466074
0.467965
0.468916
0.205429
0.205724
0.206314
0.207201
0.208387
0.209873
0.211665
0.213764
0.216176
0.218905
0.221957
0.225339
0.229056
0.233115
0.237524
0.242289
0.247417
0.252914
0.258786
0.265038
0.271673
0.278693
0.286095
0.293878
0.302034
0.310552
0.319418
0.328611
0.338107
0.347875
0.357877
0.36807
0.378403
0.388818
0.399253
0.409637
0.419892
0.429939
0.43969
0.449057
0.457949
0.466276
0.473947
0.480876
0.486984
0.492197
0.49645
0.499689
0.501873
0.502971
0.206865
0.207181
0.207814
0.208765
0.210036
0.211633
0.213557
0.215816
0.218414
0.221358
0.224655
0.228314
0.232343
0.23675
0.241547
0.246741
0.252342
0.258359
0.264801
0.271673
0.278983
0.286732
0.294923
0.303553
0.312617
0.322103
0.331998
0.34228
0.352923
0.363893
0.375149
0.386643
0.398317
0.410108
0.421943
0.43374
0.445413
0.456868
0.468003
0.478716
0.488901
0.49845
0.507259
0.515225
0.522254
0.528257
0.533159
0.536894
0.539413
0.54068
0.208304
0.208642
0.20932
0.210339
0.211702
0.213415
0.215482
0.21791
0.220706
0.223879
0.227438
0.231394
0.235756
0.240538
0.24575
0.251405
0.257516
0.264093
0.271149
0.278693
0.286732
0.295274
0.304322
0.313875
0.323928
0.334474
0.345496
0.356974
0.368879
0.381175
0.393818
0.406753
0.419919
0.433241
0.446639
0.46002
0.473283
0.486321
0.499017
0.511252
0.5229
0.533838
0.54394
0.553087
0.561166
0.568073
0.573716
0.578019
0.580922
0.582383
0.20974
0.210102
0.210827
0.211917
0.213378
0.215215
0.217433
0.22004
0.223047
0.226464
0.230301
0.234573
0.239291
0.244471
0.250128
0.256277
0.262934
0.270113
0.277829
0.286095
0.294923
0.304322
0.314297
0.324851
0.335982
0.347681
0.359935
0.372722
0.386013
0.399768
0.413941
0.428471
0.44329
0.458315
0.473455
0.488606
0.503652
0.518469
0.532924
0.546877
0.560184
0.572696
0.58427
0.594763
0.60404
0.611979
0.618471
0.623425
0.626768
0.628451
0.211166
0.211553
0.212328
0.213495
0.215058
0.217025
0.219402
0.222201
0.22543
0.229105
0.233237
0.237844
0.24294
0.248544
0.254675
0.26135
0.26859
0.276413
0.284836
0.293878
0.303553
0.313875
0.324851
0.336488
0.348787
0.36174
0.375335
0.389552
0.404359
0.419716
0.435572
0.451862
0.46851
0.485426
0.502505
0.519631
0.536673
0.553488
0.569924
0.585817
0.601
0.615301
0.628548
0.640575
0.651221
0.660342
0.667807
0.673506
0.677355
0.679294
0.212578
0.212991
0.213819
0.215066
0.216737
0.21884
0.221386
0.224384
0.227849
0.231795
0.236239
0.241199
0.246696
0.252749
0.259382
0.266616
0.274476
0.282984
0.292163
0.302034
0.312617
0.323928
0.335982
0.348787
0.362346
0.376657
0.391709
0.407481
0.423943
0.441054
0.458757
0.476985
0.495653
0.514662
0.533897
0.553225
0.572499
0.591556
0.61022
0.628304
0.645611
0.661942
0.677094
0.690871
0.703084
0.713558
0.722138
0.728695
0.733126
0.735357
0.213971
0.214411
0.215294
0.216624
0.218408
0.220655
0.223376
0.226584
0.230295
0.234527
0.239298
0.244631
0.250549
0.257076
0.264239
0.272065
0.280582
0.289817
0.299798
0.310552
0.322103
0.334474
0.347681
0.36174
0.376657
0.392434
0.409061
0.426521
0.444785
0.463808
0.483535
0.50389
0.524785
0.546109
0.567735
0.589515
0.611282
0.632852
0.654023
0.674578
0.694291
0.712928
0.73025
0.746026
0.760031
0.772058
0.781921
0.789465
0.794565
0.797135
0.21534
0.215809
0.216749
0.218166
0.220068
0.222464
0.225368
0.228795
0.232763
0.237293
0.242407
0.24813
0.254489
0.261514
0.269235
0.277683
0.286893
0.296897
0.307728
0.319418
0.331998
0.345496
0.359935
0.375335
0.391709
0.409061
0.427388
0.446674
0.466891
0.487996
0.509931
0.532618
0.55596
0.579838
0.604112
0.628617
0.653167
0.677552
0.701541
0.724887
0.747324
0.768581
0.788378
0.806439
0.8225
0.836312
0.847653
0.856334
0.862208
0.865169
0.216681
0.217179
0.218179
0.219686
0.221709
0.224261
0.227355
0.23101
0.235245
0.240085
0.245556
0.251685
0.258506
0.266051
0.274355
0.283457
0.293394
0.304206
0.315932
0.328611
0.34228
0.356974
0.372722
0.389552
0.407481
0.426521
0.446674
0.467927
0.490256
0.51362
0.53796
0.563193
0.589219
0.615909
0.64311
0.67064
0.698291
0.725826
0.752984
0.779478
0.805003
0.82924
0.851861
0.872542
0.890964
0.906832
0.919878
0.929876
0.936645
0.94006
0.217989
0.218519
0.21958
0.22118
0.223329
0.22604
0.229331
0.23322
0.237733
0.242894
0.248734
0.255286
0.262586
0.270672
0.279584
0.289367
0.300065
0.311724
0.324389
0.338107
0.352923
0.368879
0.386013
0.404359
0.423943
0.444785
0.466891
0.490256
0.514861
0.540667
0.567614
0.595623
0.624584
0.654363
0.684793
0.715675
0.746778
0.777836
0.808553
0.8386
0.867626
0.895256
0.921107
0.944791
0.965933
0.984175
0.999196
1.01072
1.01853
1.02247
0.219263
0.219823
0.220947
0.222642
0.224921
0.227797
0.231289
0.235421
0.240218
0.24571
0.251932
0.25892
0.266715
0.275361
0.284904
0.295395
0.306883
0.319424
0.33307
0.347875
0.363893
0.381175
0.399768
0.419716
0.441054
0.463808
0.487996
0.51362
0.540667
0.569102
0.59887
0.629891
0.662054
0.695217
0.729201
0.763791
0.798732
0.833727
0.86844
0.902498
0.935494
0.966992
0.99654
1.02368
1.04796
1.06895
1.08627
1.09957
1.10859
1.11315
0.220498
0.22109
0.222278
0.224071
0.226481
0.229524
0.233223
0.237603
0.242691
0.248523
0.255136
0.262572
0.270877
0.280099
0.290293
0.301514
0.313822
0.327276
0.34194
0.357877
0.375149
0.393818
0.413941
0.435572
0.458757
0.483535
0.509931
0.53796
0.567614
0.59887
0.631678
0.665958
0.701602
0.738461
0.776348
0.81503
0.85423
0.893619
0.932818
0.971404
1.00891
1.04482
1.07861
1.10973
1.13765
1.16183
1.18182
1.1972
1.20765
1.21292
0.22169
0.222315
0.223568
0.22546
0.228004
0.231218
0.235127
0.239758
0.245144
0.251322
0.258334
0.266228
0.275053
0.284867
0.295728
0.3077
0.320849
0.335246
0.350962
0.36807
0.386643
0.406753
0.428471
0.451862
0.476985
0.50389
0.532618
0.563193
0.595623
0.629891
0.665958
0.703752
0.743165
0.784049
0.826209
0.869399
0.913317
0.957603
1.00183
1.04553
1.08815
1.12911
1.16777
1.2035
1.23564
1.26355
1.28667
1.30449
1.31661
1.32274
0.222839
0.223496
0.224815
0.226806
0.229485
0.232873
0.236994
0.24188
0.247566
0.254095
0.261512
0.26987
0.279226
0.289641
0.301182
0.31392
0.327931
0.343294
0.36009
0.378403
0.398317
0.419919
0.44329
0.46851
0.495653
0.524785
0.55596
0.589219
0.624584
0.662054
0.701602
0.743165
0.786645
0.831895
0.878718
0.926858
0.975992
1.02573
1.0756
1.12506
1.1735
1.22023
1.26452
1.30558
1.34264
1.37492
1.40172
1.42242
1.43652
1.44365
0.223939
0.224629
0.226014
0.228106
0.230921
0.234481
0.238816
0.243958
0.249947
0.256829
0.264655
0.273482
0.283373
0.294396
0.306627
0.320143
0.33503
0.351376
0.369273
0.388818
0.410108
0.433241
0.458315
0.485426
0.514662
0.546109
0.579838
0.615909
0.654363
0.695217
0.738461
0.784049
0.831895
0.881862
0.933755
0.987312
1.0422
1.09799
1.15417
1.21014
1.2652
1.31855
1.36932
1.41659
1.45941
1.49684
1.52799
1.55211
1.56856
1.57689
0.22499
0.225713
0.227164
0.229355
0.232305
0.236039
0.240586
0.245984
0.252276
0.259511
0.267746
0.277043
0.287471
0.299107
0.31203
0.326331
0.342102
0.359443
0.378457
0.399253
0.421943
0.446639
0.473455
0.502505
0.533897
0.567735
0.604112
0.64311
0.684793
0.729201
0.776348
0.826209
0.878718
0.933755
0.991134
1.0506
1.1118
1.1743
1.23754
1.30085
1.36343
1.42438
1.48266
1.53718
1.58677
1.63029
1.66663
1.69483
1.7141
1.72387
0.225989
0.226744
0.22826
0.23055
0.233634
0.237539
0.242297
0.247949
0.254541
0.262127
0.270769
0.280534
0.291497
0.303743
0.31736
0.332445
0.349102
0.367441
0.387579
0.409637
0.43374
0.46002
0.488606
0.519631
0.553225
0.589515
0.628617
0.67064
0.715675
0.763791
0.81503
0.869399
0.926858
0.987312
1.0506
1.11647
1.18459
1.25449
1.3256
1.39717
1.46832
1.538
1.60501
1.66802
1.72563
1.77639
1.81895
1.85206
1.87473
1.88624
0.226933
0.22772
0.229299
0.231687
0.234903
0.238976
0.243941
0.249843
0.256731
0.264663
0.273705
0.283932
0.295426
0.308275
0.322579
0.338443
0.355981
0.375315
0.396573
0.419892
0.445413
0.473283
0.503652
0.536673
0.572499
0.611282
0.653167
0.698291
0.746778
0.798732
0.85423
0.913317
0.975992
1.0422
1.1118
1.18459
1.26024
1.33829
1.41813
1.49899
1.57988
1.65961
1.73678
1.8098
1.87693
1.93639
1.98643
2.0255
2.05231
2.06595
0.227821
0.228638
0.23028
0.232762
0.236106
0.240343
0.245511
0.251656
0.258833
0.267103
0.276538
0.287217
0.299229
0.312671
0.32765
0.34428
0.362687
0.383003
0.40537
0.429939
0.456868
0.486321
0.518469
0.553488
0.591556
0.632852
0.677552
0.725826
0.777836
0.833727
0.893619
0.957603
1.02573
1.09799
1.1743
1.25449
1.33829
1.42525
1.51477
1.60604
1.69799
1.78929
1.87832
1.96316
2.0417
2.11166
2.17083
2.21718
2.24906
2.2653
0.228649
0.229497
0.231198
0.233771
0.237239
0.241635
0.246998
0.253379
0.260835
0.269433
0.279248
0.290366
0.302881
0.3169
0.332535
0.349912
0.369166
0.390441
0.413894
0.43969
0.468003
0.499017
0.532924
0.569924
0.61022
0.654023
0.701541
0.752984
0.808553
0.86844
0.932818
1.00183
1.0756
1.15417
1.23754
1.3256
1.41813
1.51477
1.61493
1.71782
1.8223
1.92693
2.02983
2.12874
2.22102
2.30378
2.37416
2.42949
2.46764
2.4871
0.229417
0.230293
0.232052
0.234712
0.238298
0.242845
0.248396
0.255002
0.262725
0.271636
0.281816
0.293355
0.306354
0.320926
0.337194
0.355291
0.375363
0.397566
0.422071
0.449057
0.478716
0.511252
0.546877
0.585817
0.628304
0.674578
0.724887
0.779478
0.8386
0.902498
0.971404
1.04553
1.12506
1.21014
1.30085
1.39717
1.49899
1.60604
1.71782
1.83358
1.9522
2.07214
2.1913
2.30701
2.416
2.51454
2.59881
2.66533
2.71128
2.73474
0.230122
0.231025
0.232838
0.23558
0.239278
0.243968
0.249695
0.256515
0.264491
0.273698
0.284223
0.296161
0.30962
0.324718
0.341587
0.36037
0.381222
0.404312
0.429823
0.457949
0.488901
0.5229
0.560184
0.601
0.645611
0.694291
0.747324
0.805003
0.867626
0.935494
1.00891
1.08815
1.1735
1.2652
1.36343
1.46832
1.57988
1.69799
1.8223
1.9522
2.08666
2.22412
2.36235
2.49824
2.62774
2.74596
2.84769
2.92824
2.98395
3.01241
0.230763
0.23169
0.233554
0.236373
0.240175
0.244998
0.25089
0.257908
0.26612
0.275605
0.286452
0.298764
0.312652
0.328243
0.345676
0.365102
0.386688
0.410612
0.437072
0.466276
0.49845
0.533838
0.572696
0.615301
0.661942
0.712928
0.768581
0.82924
0.895256
0.966992
1.04482
1.12911
1.22023
1.31855
1.42438
1.538
1.65961
1.78929
1.92693
2.07214
2.22412
2.3815
2.54202
2.70225
2.85723
3.00042
3.12437
3.22265
3.29058
3.32524
0.231337
0.232288
0.234197
0.237086
0.240984
0.245929
0.251972
0.259173
0.267601
0.277341
0.288485
0.30114
0.315424
0.331469
0.349422
0.369443
0.391706
0.416404
0.443742
0.473947
0.507259
0.54394
0.58427
0.628548
0.677094
0.73025
0.788378
0.851861
0.921107
0.99654
1.07861
1.16777
1.26452
1.36932
1.48266
1.60501
1.73678
1.87832
2.02983
2.1913
2.36235
2.54202
2.72838
2.91802
3.10515
3.28082
3.43349
3.55422
3.63733
3.67959
0.231844
0.232815
0.234766
0.237718
0.241701
0.246757
0.252936
0.2603
0.268924
0.278893
0.290304
0.303269
0.31791
0.334367
0.35279
0.373349
0.396226
0.421625
0.449762
0.480876
0.515225
0.553087
0.594763
0.640575
0.690871
0.746026
0.806439
0.872542
0.944791
1.02368
1.10973
1.2035
1.30558
1.41659
1.53718
1.66802
1.8098
1.96316
2.12874
2.30701
2.49824
2.70225
2.91802
3.14295
3.37126
3.59106
3.78143
3.93035
4.03189
4.08321
0.232281
0.23327
0.235257
0.238265
0.242324
0.247476
0.253774
0.261283
0.270078
0.280249
0.291896
0.305133
0.320089
0.336907
0.355745
0.376779
0.4002
0.426218
0.455063
0.486984
0.522254
0.561166
0.60404
0.651221
0.703084
0.760031
0.8225
0.890964
0.965933
1.04796
1.13765
1.23564
1.34264
1.45941
1.58677
1.72563
1.87693
2.0417
2.22102
2.416
2.62774
2.85723
3.10515
3.37126
3.65274
3.9377
4.17782
4.36095
4.48375
4.54528
0.232647
0.233651
0.23567
0.238725
0.242847
0.248082
0.254481
0.262113
0.271055
0.281397
0.293244
0.306714
0.321938
0.339065
0.358258
0.379698
0.403583
0.430132
0.459583
0.492197
0.528257
0.568073
0.611979
0.660342
0.713558
0.772058
0.836312
0.906832
0.984175
1.06895
1.16183
1.26355
1.37492
1.49684
1.63029
1.77639
1.93639
2.11166
2.30378
2.51454
2.74596
3.00042
3.28082
3.59106
3.9377
4.33622
4.63831
4.85904
5.0041
5.07608
0.232942
0.233958
0.236002
0.239095
0.24327
0.248571
0.255054
0.262785
0.271846
0.282328
0.294339
0.307998
0.323441
0.34082
0.360302
0.382073
0.406338
0.433321
0.463269
0.49645
0.533159
0.573716
0.618471
0.667807
0.722138
0.781921
0.847653
0.919878
0.999196
1.08627
1.18182
1.28667
1.40172
1.52799
1.66663
1.81895
1.98643
2.17083
2.37416
2.59881
2.84769
3.12437
3.43349
3.78143
4.17782
4.63831
4.98736
5.24004
5.4048
5.48617
0.233163
0.23419
0.236253
0.239375
0.24359
0.248941
0.255487
0.263294
0.272445
0.283034
0.295169
0.308972
0.324582
0.342153
0.361855
0.383879
0.408433
0.435748
0.466074
0.499689
0.536894
0.578019
0.623425
0.673506
0.728695
0.789465
0.856334
0.929876
1.01072
1.09957
1.1972
1.30449
1.42242
1.55211
1.69483
1.85206
2.0255
2.21718
2.42949
2.66533
2.92824
3.22265
3.55422
3.93035
4.36095
4.85904
5.24004
5.5163
5.69625
5.78501
0.233312
0.234344
0.236421
0.239562
0.243804
0.24919
0.255777
0.263636
0.272848
0.283508
0.295727
0.309627
0.325349
0.343049
0.3629
0.385095
0.409845
0.437383
0.467965
0.501873
0.539413
0.580922
0.626768
0.677355
0.733126
0.794565
0.862208
0.936645
1.01853
1.10859
1.20765
1.31661
1.43652
1.56856
1.7141
1.87473
2.05231
2.24906
2.46764
2.71128
2.98395
3.29058
3.63733
4.03189
4.48375
5.0041
5.4048
5.69625
5.88629
5.98005
0.233386
0.234422
0.236504
0.239656
0.243911
0.249314
0.255923
0.263807
0.273049
0.283746
0.296006
0.309956
0.325734
0.343499
0.363425
0.385706
0.410554
0.438204
0.468916
0.502971
0.54068
0.582383
0.628451
0.679294
0.735357
0.797135
0.865169
0.94006
1.02247
1.11315
1.21292
1.32274
1.44365
1.57689
1.72387
1.88624
2.06595
2.2653
2.4871
2.73474
3.01241
3.32524
3.67959
4.08321
4.54528
5.07608
5.48617
5.78501
5.98005
6.07631
)
;

boundaryField
{
    walls
    {
        type            zeroGradient;
    }
    frontAndBack
    {
        type            empty;
    }
}


// ************************************************************************* //
