/*--------------------------------*- C++ -*----------------------------------*\
| =========                 |                                                 |
| \\      /  F ield         | OpenFOAM: The Open Source CFD Toolbox           |
|  \\    /   O peration     | Version:  2406                                  |
|   \\  /    A nd           | Website:  www.openfoam.com                      |
|    \\/     M anipulation  |                                                 |
\*---------------------------------------------------------------------------*/
FoamFile
{
    version     2.0;
    format      ascii;
    arch        "LSB;label=32;scalar=64";
    class       volScalarField;
    location    "0.7";
    object      nu;
}
// * * * * * * * * * * * * * * * * * * * * * * * * * * * * * * * * * * * * * //

dimensions      [0 2 -1 0 0 0 0];

internalField   nonuniform List<scalar> 
1800
(
0.011889
0.0117866
0.0108935
0.00999513
0.00933724
0.00894076
0.00870398
0.00852111
0.00845596
0.00879628
0.0180831
0.0143477
0.0110266
0.00958742
0.00894059
0.00865458
0.00853678
0.00847023
0.00859997
0.00865128
0.0405002
0.0138756
0.0101084
0.00901086
0.00861304
0.00850323
0.00852884
0.00858549
0.00889824
0.00884629
0.0183456
0.0108595
0.00903576
0.0084893
0.00835942
0.00841723
0.00856295
0.00870383
0.00910841
0.00886473
0.0120011
0.00913714
0.00829533
0.00812094
0.00821661
0.00844276
0.00871293
0.00893184
0.00937262
0.00873838
0.00951846
0.00817969
0.00782194
0.00790967
0.00821192
0.00860857
0.00898273
0.00921162
0.00945775
0.00863199
0.00822402
0.00759691
0.00755647
0.00787991
0.00839986
0.00895691
0.00935116
0.00943805
0.00932799
0.00858704
0.00744537
0.00723814
0.00745895
0.00802915
0.0087767
0.00941861
0.00965207
0.00945817
0.00912812
0.00873865
0.00694595
0.00702986
0.0074981
0.00833616
0.00928899
0.00986892
0.00980401
0.00940895
0.00913195
0.00918505
0.00661515
0.00692406
0.00764017
0.00876315
0.00986779
0.0102567
0.00991074
0.00947893
0.00942332
0.00998629
0.00746039
0.010243
0.014176
0.0155691
0.0154315
0.015136
0.0147521
0.014256
0.0137492
0.0133998
0.00727781
0.00996646
0.0146484
0.0167292
0.0163059
0.0156684
0.015024
0.0143397
0.0136996
0.013249
0.00715898
0.00976363
0.0154804
0.02006
0.0187119
0.0170942
0.0159209
0.0148668
0.0139572
0.0133157
0.00708639
0.0095785
0.0165762
0.0355379
0.0305464
0.0213863
0.0176416
0.0157998
0.0144739
0.0135725
0.0070801
0.00947151
0.0169663
0.058496
0.10261
0.0380646
0.0224352
0.0175982
0.0153057
0.0140117
0.00717148
0.00933118
0.0144153
0.0237388
0.0291179
0.0263961
0.0222236
0.018943
0.0161149
0.0144163
0.00737967
0.00924932
0.0124428
0.0156021
0.016996
0.0171997
0.0170325
0.0166444
0.0152136
0.0140876
0.00774828
0.00928114
0.0111824
0.0125119
0.0129831
0.0131065
0.0132674
0.0135446
0.0132559
0.013148
0.00840333
0.00956867
0.0105728
0.0110326
0.0110242
0.0109166
0.0109137
0.0110973
0.0111441
0.0116566
0.00958408
0.0103062
0.0105587
0.0103904
0.0100203
0.00972751
0.00957259
0.009537
0.00943892
0.0102246
0.0144868
0.0129836
0.0146428
0.016971
0.019865
0.0243381
0.0295945
0.0356496
0.0387548
0.0501048
0.0145666
0.0132676
0.0144057
0.016503
0.0191522
0.023555
0.029015
0.0354219
0.0388733
0.050366
0.0147827
0.0139765
0.0142516
0.0160592
0.0183715
0.0224739
0.0277306
0.0339418
0.0374888
0.0480311
0.0152792
0.0150086
0.0138132
0.0151817
0.0171344
0.0206665
0.0252657
0.0306463
0.0339709
0.0422414
0.0156756
0.0147408
0.012612
0.0134694
0.0150468
0.0177534
0.0213456
0.0255116
0.0284448
0.0340266
0.014801
0.0126555
0.0113059
0.0117647
0.012866
0.0146793
0.0171437
0.0200397
0.0223727
0.0258887
0.0130698
0.0111931
0.0105875
0.0107739
0.0114456
0.0125658
0.0141163
0.01597
0.0175681
0.0197632
0.0111102
0.0107297
0.0105196
0.0104793
0.0108239
0.011491
0.0124521
0.0136219
0.0146255
0.0160113
0.0104216
0.0108776
0.0108622
0.010688
0.0107951
0.0111666
0.0117752
0.0125543
0.0131864
0.0141154
0.0095422
0.0104443
0.0109787
0.0110376
0.0111717
0.011418
0.0118189
0.0123662
0.0127644
0.0134415
0.00977337
0.0104144
0.0105066
0.0109786
0.0117002
0.0122856
0.0127199
0.0131999
0.0134556
0.0139923
0.00891591
0.00959096
0.00983872
0.0103443
0.0114926
0.0129332
0.0141355
0.0150149
0.0153994
0.0159321
0.0096053
0.0111217
0.0112892
0.0113275
0.0122146
0.0139299
0.0160133
0.0180123
0.0193504
0.0206211
0.0134524
0.0152382
0.012752
0.012473
0.0134137
0.0156999
0.0192583
0.0240823
0.0286078
0.0365589
0.0281871
0.0161575
0.0130216
0.012917
0.0140354
0.0166978
0.0213097
0.0284524
0.036045
0.0631963
0.0308819
0.0154112
0.0132746
0.0133131
0.0143283
0.0163167
0.0192057
0.0222992
0.0250566
0.0279069
0.0150498
0.0122063
0.0110817
0.0110643
0.0117404
0.0127038
0.0137156
0.0145373
0.0152182
0.0156622
0.00949216
0.00886961
0.00871859
0.00901286
0.00957398
0.0101265
0.0105848
0.0109313
0.0111797
0.0113702
0.00739394
0.00744589
0.00773453
0.00817554
0.00862746
0.00896455
0.00919639
0.00935834
0.00944969
0.00954277
0.00697694
0.00749108
0.00814358
0.00874993
0.00902401
0.00902305
0.00893578
0.00886043
0.00879321
0.00879403
0.0127123
0.0109459
0.00984353
0.00910756
0.00876841
0.00860698
0.00848034
0.00867312
0.00817287
0.00927102
0.015766
0.0161737
0.0124331
0.0117831
0.00986112
0.00962759
0.00852618
0.00873108
0.00802297
0.00862488
0.0167187
0.0173116
0.0141955
0.0149869
0.0118901
0.012168
0.0101711
0.00995681
0.00916235
0.00869046
0.0190534
0.0160242
0.0176566
0.0146754
0.0165346
0.0136167
0.0151599
0.0118679
0.0129445
0.010359
0.0182964
0.016517
0.0196093
0.0158729
0.0214938
0.015669
0.0264125
0.0153985
0.0236058
0.0142421
0.0157404
0.0165758
0.0179301
0.0185774
0.0209523
0.0202856
0.0247892
0.0219822
0.0314402
0.0221263
0.01241
0.0129871
0.0130196
0.0138488
0.0137315
0.0145936
0.0142773
0.0154911
0.0150956
0.0170965
0.00946605
0.00959518
0.00945812
0.00967569
0.00954349
0.00978503
0.00962817
0.00991238
0.00972617
0.0101224
0.00764198
0.00758457
0.00756651
0.00753462
0.00752323
0.0075121
0.00750831
0.00751306
0.00751942
0.00756181
0.00642585
0.0064215
0.0064459
0.00644938
0.00649084
0.00650329
0.00656882
0.00658528
0.00669449
0.00670615
0.0106837
0.0122475
0.0125916
0.0124872
0.0123367
0.0124085
0.0126254
0.0105033
0.00742932
0.00600534
0.0112346
0.0122361
0.0127349
0.0127754
0.0126812
0.0128193
0.0129093
0.0102524
0.00730408
0.0059629
0.011277
0.0119411
0.0126861
0.0132755
0.0135869
0.0140271
0.0137179
0.0100145
0.00718596
0.0059347
0.0111297
0.0114959
0.0123267
0.0136881
0.0150758
0.0164009
0.0148008
0.00975639
0.00708851
0.00592729
0.0111086
0.0111817
0.0118515
0.0136466
0.0164678
0.0189166
0.014726
0.0094146
0.00701695
0.00594471
0.0114861
0.0111793
0.011506
0.0131144
0.0161596
0.0179689
0.0133464
0.00904538
0.006967
0.00598478
0.0119666
0.0111942
0.0111577
0.0122482
0.0142969
0.01498
0.0118769
0.00869926
0.00693086
0.00604504
0.0123144
0.0110672
0.0107528
0.0113669
0.0125564
0.0127716
0.0107503
0.0083857
0.00690258
0.00612664
0.0120176
0.0106343
0.0102489
0.0106368
0.0113974
0.0114076
0.00992287
0.00810276
0.0068837
0.00623709
0.011051
0.00997972
0.0097718
0.0101542
0.0107018
0.0105285
0.00928606
0.00785073
0.00688458
0.00639165
0.0125108
0.0122804
0.0120788
0.0118882
0.0116875
0.0114912
0.0112994
0.0109372
0.00987242
0.00786276
0.0124249
0.0121833
0.0119757
0.0117795
0.0115759
0.0113833
0.0112082
0.0107964
0.00941576
0.0073871
0.01242
0.0122007
0.0120148
0.0118165
0.0115936
0.0113796
0.0111937
0.0106925
0.00901739
0.00703695
0.0123106
0.0120845
0.0119053
0.011719
0.011523
0.0113549
0.0112334
0.0106887
0.00872985
0.00678887
0.0123832
0.0121481
0.011961
0.0117398
0.0114957
0.0112865
0.0111432
0.0105202
0.00842254
0.00658201
0.0124158
0.0122578
0.0121605
0.0119926
0.0117855
0.0116169
0.0115078
0.010665
0.00821192
0.00642861
0.0123089
0.0121259
0.0119965
0.0117898
0.0115668
0.0114277
0.0114081
0.0105749
0.00801382
0.00630463
0.0126877
0.0125314
0.0125035
0.0122859
0.0119973
0.0117992
0.0117046
0.0105316
0.00782181
0.00620059
0.0132004
0.01295
0.0127838
0.012515
0.0122574
0.0121537
0.0121614
0.0106193
0.00767767
0.00611975
0.0127434
0.0129996
0.013131
0.0128316
0.0125021
0.012431
0.0125465
0.0106499
0.00755268
0.00605683
0.0274027
0.0283514
0.0326285
0.0449569
0.0501069
0.0536091
0.0340797
0.0262395
0.0170632
0.0131932
0.0271357
0.0273077
0.0324729
0.0428486
0.0490094
0.0632762
0.0380908
0.0266048
0.0172067
0.0130937
0.0268693
0.0263327
0.0319677
0.0397312
0.0472264
0.0767458
0.0434933
0.0270049
0.0174464
0.0130184
0.0265694
0.0253303
0.0309304
0.0365202
0.0474938
0.0984841
0.0494036
0.0274617
0.0177856
0.0128237
0.0262046
0.0242817
0.0294215
0.0351421
0.0532685
0.125381
0.0528597
0.0279968
0.0181042
0.0129408
0.025793
0.0233014
0.0281589
0.0387656
0.0664428
0.119344
0.0500897
0.0277215
0.0179849
0.0127149
0.0254131
0.0225513
0.0279003
0.0519963
0.0737073
0.074877
0.0395794
0.0262132
0.0174847
0.0123234
0.0253572
0.0219849
0.0282623
0.0719712
0.0509622
0.0389105
0.0272689
0.022564
0.0157034
0.0129027
0.0262852
0.0211896
0.0281699
0.0484161
0.0276292
0.0230673
0.0197358
0.0191242
0.0147005
0.0119454
0.0286924
0.0200613
0.0253369
0.0257754
0.0185971
0.0166205
0.0154722
0.0151298
0.0129983
0.0131581
0.0317656
0.0189011
0.0213675
0.0190328
0.0155803
0.0146239
0.0130951
0.0137279
0.011099
0.0141638
0.0361117
0.0172543
0.0186909
0.0175212
0.0150385
0.0146048
0.0122253
0.0140662
0.0103693
0.0133532
0.0410224
0.0157694
0.0178885
0.0182767
0.0165247
0.0155435
0.0130684
0.0141542
0.0111122
0.0116782
0.0462593
0.0149098
0.0170333
0.0193702
0.0205743
0.0171121
0.0162216
0.0143608
0.013446
0.0112462
0.0543247
0.014714
0.0161212
0.0194363
0.0268873
0.0190672
0.0262707
0.0151067
0.0153411
0.012204
0.0717523
0.0149609
0.0157878
0.0189202
0.0251459
0.022822
0.0281436
0.0167899
0.0162279
0.0142436
0.101305
0.0160488
0.016117
0.0172037
0.0173303
0.0210662
0.0163728
0.01958
0.0154599
0.0150858
0.0579039
0.0192809
0.0146427
0.0132443
0.0123216
0.0127509
0.0118299
0.0133225
0.0116394
0.0122288
0.029135
0.0146901
0.0109809
0.0102885
0.00986314
0.00967748
0.00964941
0.00937296
0.00937026
0.0091509
0.00803647
0.00791639
0.00875441
0.00851313
0.00840746
0.00818045
0.00806362
0.00758361
0.00766924
0.0071108
0.0119015
0.0121582
0.0119834
0.0119262
0.0120537
0.0126799
0.0136238
0.0153435
0.015754
0.0147458
0.0114055
0.011151
0.0111604
0.0113749
0.0117642
0.0123832
0.0131547
0.0148301
0.0158708
0.0186583
0.011516
0.0114877
0.0117804
0.0122732
0.0130689
0.0137311
0.014647
0.015556
0.0168647
0.0180981
0.0121897
0.0124431
0.0129886
0.0135783
0.0143886
0.0146764
0.0154463
0.0153397
0.0171531
0.0165786
0.0135503
0.0138183
0.014341
0.014654
0.0148942
0.0147618
0.0150605
0.0150626
0.0161361
0.0160295
0.0144553
0.0141326
0.0141307
0.0141095
0.01411
0.0139807
0.0140453
0.0142364
0.0145417
0.0150602
0.0136544
0.0131084
0.012861
0.0127468
0.0126809
0.0125718
0.0124158
0.0124377
0.0122357
0.0125458
0.0114002
0.0110512
0.0107571
0.0105646
0.010362
0.0102057
0.0100077
0.00988591
0.00967884
0.00965848
0.00892658
0.00874106
0.008565
0.00841754
0.00826849
0.00813175
0.0080032
0.00788635
0.00778564
0.00769449
0.00696387
0.00685932
0.00675934
0.0066683
0.00659511
0.00654237
0.00650348
0.00646681
0.00644309
0.00642228
0.00618957
0.00712045
0.00912449
0.0139333
0.0242407
0.020143
0.0152087
0.0122898
0.01009
0.00852861
0.00626011
0.00702378
0.00865559
0.0131803
0.0404798
0.0314762
0.0159769
0.0118368
0.00980771
0.00847423
0.00638886
0.00697299
0.00820402
0.011365
0.0229501
0.0345075
0.0172699
0.0119775
0.0098129
0.00857702
0.00659703
0.00699085
0.00784579
0.00986653
0.0149506
0.0230931
0.0182508
0.01278
0.0101835
0.00882953
0.00690924
0.00710164
0.00763653
0.00890884
0.011598
0.0160978
0.0175655
0.0140437
0.0110577
0.00933178
0.00735751
0.00733153
0.00760287
0.008393
0.00995268
0.0124888
0.0148932
0.014519
0.0122628
0.0101928
0.0079754
0.00770311
0.00775825
0.00823062
0.0091856
0.0106722
0.0123957
0.0133513
0.0128448
0.0112859
0.00877528
0.0082333
0.00811689
0.00837016
0.00896313
0.00985483
0.0108871
0.011721
0.0120997
0.0115175
0.00965223
0.00890824
0.00869246
0.00879436
0.00914141
0.00966311
0.0102424
0.0107407
0.0112323
0.011073
0.0103138
0.00965769
0.00949167
0.00950652
0.00964133
0.0098553
0.0100785
0.0102313
0.0104064
0.0106359
0.010512
0.0103776
0.0105337
0.0105891
0.0105283
0.010451
0.0103877
0.0103232
0.0102912
0.0112667
0.0103761
0.0110221
0.0118549
0.0122074
0.0119701
0.0115975
0.0112919
0.0110933
0.0109652
0.011666
0.0101512
0.0116061
0.0135595
0.0148086
0.0143733
0.0136452
0.013084
0.0127143
0.0123854
0.0126839
0.00996182
0.0121568
0.0160353
0.0212201
0.0208602
0.0184349
0.0164372
0.0151878
0.0142341
0.0138937
0.00969962
0.0123532
0.0180139
0.0363343
0.0774915
0.0297924
0.0204063
0.0175627
0.0159727
0.0150193
0.00927023
0.0123124
0.0185597
0.0320181
0.0412441
0.0294077
0.0214022
0.0184649
0.0169939
0.0157882
0.00880131
0.012034
0.0171631
0.0213465
0.0228219
0.0217838
0.0192098
0.0174417
0.0164383
0.015556
0.00838168
0.0115728
0.0155748
0.0173625
0.0178946
0.0178352
0.0169931
0.0160519
0.0153676
0.0148153
0.00801539
0.0110628
0.0146008
0.0158262
0.0160595
0.0160408
0.0156566
0.0150888
0.0145679
0.0141831
0.00770606
0.0106073
0.0141612
0.0153202
0.0153725
0.0152607
0.0149603
0.0145065
0.0140401
0.0137173
0.0128487
0.0148948
0.0210377
0.0387188
0.0389395
0.032375
0.031822
0.0341965
0.0360739
0.0465534
0.0126106
0.0148042
0.0199166
0.027731
0.0321988
0.0310346
0.0315934
0.0346745
0.0380107
0.0537196
0.0126772
0.0152944
0.0195455
0.0260593
0.0292015
0.029832
0.0310014
0.0343212
0.0381285
0.0544734
0.0130108
0.0158062
0.0191196
0.0246592
0.0269871
0.0283621
0.030014
0.0334831
0.0372867
0.0522556
0.0134071
0.0156664
0.0182893
0.0229435
0.0251281
0.027032
0.0290722
0.0325933
0.0360865
0.0492891
0.0137399
0.0149692
0.0173261
0.0213372
0.0237631
0.0262143
0.0286424
0.0322181
0.0352658
0.0469965
0.013994
0.0141863
0.0164754
0.0200183
0.0227864
0.0258272
0.0287489
0.0325241
0.0351989
0.045983
0.0141981
0.0135724
0.0158267
0.0189863
0.0219963
0.0255933
0.0291241
0.0333027
0.035798
0.0461755
0.0143465
0.0131643
0.0153493
0.018179
0.0212742
0.0253187
0.0294998
0.0342558
0.036783
0.047216
0.0144342
0.0129664
0.0149661
0.0175268
0.0205716
0.0249167
0.0297032
0.0351307
0.0378776
0.0487093
0.00941357
0.0115025
0.0128165
0.0135389
0.0128418
0.0120344
0.0114318
0.0109394
0.0106825
0.010524
0.00997754
0.0112694
0.0126163
0.0130517
0.0129182
0.0125002
0.0121556
0.011819
0.0116569
0.0114668
0.0123347
0.0133218
0.0161783
0.0171036
0.0167083
0.01587
0.0152827
0.0147987
0.0145011
0.0140933
0.0145267
0.016221
0.0239913
0.0357198
0.0277507
0.0235508
0.0219842
0.0213448
0.0206554
0.0201301
0.013727
0.0157393
0.0238039
0.12283
0.0391295
0.0303739
0.0288975
0.0297001
0.0296529
0.0321281
0.00634703
0.00649591
0.00670312
0.00696638
0.0072781
0.00762458
0.00796406
0.00827644
0.00860357
0.00868724
0.00661979
0.00676239
0.00697064
0.00722808
0.00751089
0.00781689
0.00812052
0.00853726
0.00893448
0.00946641
0.00692845
0.00705405
0.00725232
0.00749493
0.00775898
0.00806963
0.00844057
0.00909181
0.0096171
0.0109856
0.00729558
0.00739053
0.00757472
0.00781173
0.00809662
0.00847029
0.00903702
0.00986488
0.0104174
0.0118009
0.00773743
0.00778593
0.00796124
0.00822401
0.00859796
0.0091426
0.00997763
0.0107005
0.0108916
0.0120344
0.0132657
0.0135336
0.0140822
0.0140947
0.013767
0.0133212
0.0127812
0.0117837
0.00979996
0.00758241
0.0144948
0.0141483
0.0137864
0.0132686
0.0128301
0.0125038
0.0121997
0.0116415
0.0102246
0.00797504
0.0136904
0.0133636
0.0132044
0.0129681
0.0127436
0.0125516
0.0123362
0.0119304
0.010866
0.00854416
0.0136806
0.0134173
0.0132536
0.013007
0.0127457
0.0125058
0.0122697
0.012003
0.0115035
0.0093764
0.0135217
0.0132184
0.0129935
0.0127322
0.0124706
0.0122455
0.012076
0.0120544
0.0123425
0.0109271
0.0133447
0.0130367
0.0127815
0.0125083
0.0122308
0.0119903
0.0118421
0.0120038
0.013191
0.0144409
0.0131276
0.012831
0.0125733
0.0123139
0.0120482
0.0118127
0.011661
0.0117802
0.0130773
0.0181225
0.0129238
0.0126566
0.0124224
0.0122001
0.0119758
0.0117726
0.0116087
0.011566
0.0120824
0.0124299
0.0127515
0.012507
0.0122919
0.012094
0.011895
0.0117096
0.0115337
0.0113432
0.0111647
0.00979815
0.0126112
0.0123751
0.0121671
0.0119757
0.0117798
0.011591
0.0114027
0.0111147
0.0104454
0.00858428
0.00883912
0.0106876
0.0131148
0.0154374
0.0168978
0.0172842
0.0139114
0.00952467
0.00723887
0.00616163
0.00949953
0.0115592
0.013692
0.0150062
0.0152938
0.014874
0.0131341
0.0097768
0.00737415
0.00616933
0.0104437
0.0123719
0.0137865
0.0142107
0.0139317
0.0133813
0.0123365
0.0099103
0.00752402
0.00620831
0.0113465
0.0127953
0.01366
0.0137855
0.0133558
0.0127272
0.0118892
0.0100132
0.00768629
0.00627307
0.012081
0.0131942
0.0137382
0.0135859
0.0129546
0.0122333
0.0114747
0.0100161
0.00785802
0.00636429
0.012886
0.0137736
0.0138591
0.0131944
0.0123406
0.0116733
0.0111291
0.0100691
0.0080765
0.006489
0.0137289
0.0140455
0.0133336
0.0123684
0.0116808
0.011291
0.011005
0.0102252
0.00833504
0.00664289
0.0139707
0.0132909
0.012197
0.0115143
0.0112373
0.0111748
0.0111336
0.01055
0.00866506
0.00683339
0.0127497
0.0118466
0.0112741
0.0111633
0.0113072
0.0115192
0.0116476
0.0110905
0.00905428
0.00705342
0.0110143
0.0112535
0.0115171
0.0118666
0.012215
0.012465
0.012485
0.0116736
0.00945761
0.00730034
0.0293323
0.0831165
0.0303763
0.029224
0.0278555
0.0289011
0.0328451
0.0338058
0.0256601
0.0183703
0.0296183
0.0670445
0.0297324
0.0286943
0.0280503
0.0285392
0.0303415
0.0272811
0.0247516
0.0156463
0.0295462
0.055516
0.0292971
0.0292689
0.0288588
0.028931
0.0294189
0.0260348
0.0246086
0.0150636
0.0292895
0.0478674
0.0296382
0.0310784
0.0303804
0.0296854
0.0288404
0.0257603
0.0231628
0.0149917
0.0290388
0.0424363
0.0303109
0.0337179
0.0324143
0.0305913
0.0282905
0.0256309
0.0214293
0.014865
0.0288002
0.0384594
0.0310007
0.036801
0.034935
0.0318028
0.0278561
0.0255003
0.0198083
0.014599
0.0285445
0.0354153
0.0315942
0.0400093
0.0380883
0.0336591
0.0277909
0.0254193
0.0185589
0.0142311
0.0282652
0.0330052
0.0320547
0.0429123
0.0418992
0.0364678
0.0282855
0.0254301
0.0177422
0.0138601
0.0279728
0.0310916
0.0323788
0.044952
0.0459128
0.0405114
0.0294196
0.0255795
0.017275
0.0135622
0.0276822
0.0295757
0.0325746
0.0456867
0.0490372
0.0461221
0.0312873
0.0258725
0.0170718
0.0133502
0.00729274
0.00756218
0.00907981
0.00915588
0.00972938
0.00985454
0.0101125
0.00991349
0.00987394
0.00843501
0.014655
0.0106438
0.0101964
0.0106096
0.0108549
0.0112401
0.011731
0.0119166
0.0123729
0.0115872
0.0267155
0.0171994
0.0127912
0.0132541
0.013221
0.0139377
0.0148775
0.0166624
0.0173215
0.0165982
0.0300097
0.0353776
0.018409
0.0187943
0.018088
0.0194922
0.0217014
0.0317559
0.033977
0.0156252
0.029715
0.078729
0.0263216
0.0259194
0.0241822
0.0257329
0.0297424
0.0445962
0.0378938
0.01657
0.00803578
0.00768262
0.00732546
0.00699855
0.00671854
0.00649676
0.00634089
0.0062526
0.00622547
0.0062557
0.0106183
0.0098017
0.00904918
0.00839376
0.00781613
0.00732693
0.00695287
0.00670761
0.00657995
0.00655398
0.0135423
0.0121389
0.0109614
0.0100139
0.00918532
0.00843776
0.0077888
0.00731024
0.00702496
0.00690689
0.0142048
0.0132193
0.012366
0.0115068
0.0105974
0.00971528
0.00883717
0.00808385
0.00758813
0.00734122
0.01461
0.0142775
0.0134529
0.0125824
0.0116662
0.0108206
0.00995906
0.00905278
0.00832324
0.00789086
)
;

boundaryField
{
    left
    {
        type            calculated;
        value           nonuniform List<scalar> 
35
(
0.020322
0.0172072
0.0154468
0.014684
0.0145617
0.0148633
0.0155435
0.0165545
0.0168221
0.00797698
0.0225149
0.0225884
0.0226574
0.022723
0.0228082
0.0229579
0.0232042
0.0235589
0.0237884
0.0229185
0.0214415
0.0216334
0.0217076
0.0217901
0.0219173
0.0220565
0.0221791
0.0222793
0.0223634
0.0224402
0.00725117
0.0132531
0.0195426
0.0209892
0.0212884
)
;
    }
    right
    {
        type            calculated;
        value           nonuniform List<scalar> 
35
(
0.0105253
0.0114734
0.0141307
0.0203732
0.0338467
0.0538239
0.0672431
0.070622
0.0683257
0.064228
0.0611577
0.0604348
0.0621605
0.065997
0.0715442
0.0777787
0.0814211
0.0767589
0.0619102
0.0438876
0.0299324
0.0213748
0.0167483
0.0145474
0.0137718
0.0143324
0.0163903
0.0215266
0.0413476
0.0768384
0.0280597
0.0157135
0.0113915
0.00955095
0.00879561
)
;
    }
    down
    {
        type            calculated;
        value           nonuniform List<scalar> 
40
(
0.00641859
0.00686393
0.00877176
0.00866793
0.00937383
0.00938527
0.00956555
0.00929549
0.00906843
0.00765809
0.00734009
0.00707984
0.00680852
0.00656354
0.00636407
0.00621742
0.00612381
0.00608083
0.00608282
0.00612869
0.00622735
0.00637818
0.00658389
0.00684757
0.0071719
0.0075488
0.00793178
0.00825886
0.00856908
0.00853547
0.00955079
0.0125841
0.0143133
0.0156124
0.0139229
0.0124996
0.0115591
0.0108786
0.0105186
0.0103398
)
;
    }
    up
    {
        type            calculated;
        value           nonuniform List<scalar> 
40
(
0.00708139
0.00814428
0.0093325
0.0101239
0.00997548
0.00948325
0.00907326
0.00881499
0.00864968
0.00860231
0.00606222
0.00608018
0.00610833
0.0061342
0.00618213
0.00621704
0.00629922
0.00633821
0.00648427
0.00650356
0.00643114
0.00634401
0.00626138
0.00618886
0.00613418
0.0060984
0.00607327
0.00605671
0.00604793
0.00605017
0.0068318
0.00695125
0.0081589
0.00796137
0.00791938
0.00769539
0.00750875
0.00706721
0.00709998
0.00656146
)
;
    }
    cylinder
    {
        type            calculated;
        value           nonuniform List<scalar> 
80
(
0.00681035
0.00666686
0.00657878
0.0065331
0.00654416
0.00665079
0.00687742
0.00727244
0.00796901
0.0092247
0.0116741
0.0181362
0.0481086
0.0415849
0.0170441
0.0112726
0.00896837
0.0077572
0.00703317
0.00656972
0.00567247
0.00564412
0.0056303
0.00563689
0.00566738
0.00572119
0.00579861
0.00590459
0.00605164
0.0062617
0.00719886
0.00679101
0.00649788
0.00629132
0.00612328
0.00599909
0.0059002
0.00581897
0.00575645
0.0057093
0.00695293
0.00727442
0.00774227
0.00845382
0.0098374
0.0133228
0.0196448
0.0118093
0.00897545
0.00783629
0.00587287
0.0058542
0.00586893
0.00591039
0.00597735
0.00607314
0.00619472
0.00634627
0.00652244
0.00672199
0.00593179
0.00604162
0.00622016
0.00649143
0.00688525
0.00744683
0.00823948
0.0093123
0.0104889
0.0111318
0.0108625
0.0102212
0.00966599
0.00929398
0.00894639
0.00845869
0.0079736
0.0075833
0.00726676
0.00700951
)
;
    }
    defaultFaces
    {
        type            empty;
    }
}


// ************************************************************************* //
