/*--------------------------------*- C++ -*----------------------------------*\
| =========                 |                                                 |
| \\      /  F ield         | OpenFOAM: The Open Source CFD Toolbox           |
|  \\    /   O peration     | Version:  2406                                  |
|   \\  /    A nd           | Website:  www.openfoam.com                      |
|    \\/     M anipulation  |                                                 |
\*---------------------------------------------------------------------------*/
FoamFile
{
    version     2.0;
    format      ascii;
    arch        "LSB;label=32;scalar=64";
    class       volScalarField;
    location    "0.7";
    object      p;
}
// * * * * * * * * * * * * * * * * * * * * * * * * * * * * * * * * * * * * * //

dimensions      [0 2 -2 0 0 0 0];

internalField   nonuniform List<scalar> 
1800
(
-1.63179
-1.61484
-1.6092
-1.60712
-1.60915
-1.61798
-1.63631
-1.66634
-1.70965
-1.76749
-1.61715
-1.60387
-1.59739
-1.59096
-1.58631
-1.58723
-1.59564
-1.61231
-1.63731
-1.6713
-1.61452
-1.61037
-1.60459
-1.59559
-1.588
-1.58486
-1.58748
-1.59603
-1.60962
-1.63128
-1.64549
-1.63396
-1.62561
-1.61627
-1.60742
-1.60108
-1.5983
-1.59913
-1.60277
-1.61373
-1.68378
-1.66982
-1.66074
-1.65065
-1.63995
-1.63022
-1.62253
-1.61706
-1.61357
-1.61681
-1.72964
-1.71413
-1.70382
-1.69156
-1.6775
-1.66331
-1.65016
-1.63842
-1.62836
-1.62299
-1.77981
-1.76256
-1.75009
-1.73428
-1.71553
-1.69598
-1.67685
-1.65847
-1.64094
-1.62499
-1.82881
-1.80973
-1.79389
-1.77315
-1.74867
-1.72312
-1.69764
-1.67214
-1.64623
-1.61948
-1.86956
-1.84868
-1.82821
-1.80148
-1.77079
-1.73907
-1.70697
-1.67378
-1.63849
-1.60039
-1.89404
-1.87132
-1.8452
-1.81184
-1.77488
-1.73707
-1.69839
-1.65743
-1.61297
-1.56477
-1.11938
-1.12312
-1.12052
-1.11443
-1.10615
-1.09688
-1.08707
-1.07669
-1.06565
-1.05397
-1.21924
-1.22143
-1.21858
-1.21336
-1.20681
-1.20003
-1.19341
-1.18677
-1.17979
-1.17221
-1.32238
-1.32272
-1.31954
-1.31505
-1.31105
-1.30825
-1.30618
-1.30459
-1.30314
-1.30143
-1.42213
-1.42051
-1.41739
-1.41367
-1.41212
-1.41444
-1.41853
-1.42351
-1.42907
-1.43479
-1.51488
-1.51069
-1.50801
-1.50695
-1.50875
-1.51496
-1.52423
-1.53563
-1.54873
-1.56224
-1.58978
-1.58212
-1.5806
-1.58464
-1.59227
-1.6021
-1.61595
-1.63407
-1.65498
-1.67691
-1.63945
-1.62892
-1.62769
-1.63329
-1.64463
-1.66077
-1.6813
-1.70626
-1.73484
-1.76469
-1.66334
-1.65019
-1.64894
-1.6554
-1.66873
-1.68843
-1.71393
-1.745
-1.78066
-1.81725
-1.66517
-1.64968
-1.64749
-1.65304
-1.66568
-1.68555
-1.71267
-1.747
-1.7875
-1.82897
-1.65096
-1.63397
-1.62986
-1.63194
-1.64003
-1.65541
-1.67927
-1.71247
-1.75471
-1.80146
-0.984191
-0.689028
-0.480752
-0.282841
-0.16771
-0.0921726
-0.0468416
-0.0211549
-0.0061161
-0.000299141
-1.10408
-0.771289
-0.514399
-0.288142
-0.160976
-0.0821719
-0.0376252
-0.0142452
-0.00165228
0.000995288
-1.24404
-0.86978
-0.555957
-0.29578
-0.153777
-0.0711069
-0.0273834
-0.00652551
0.00341734
0.00254739
-1.40064
-0.983199
-0.605674
-0.305475
-0.145619
-0.0585856
-0.0158491
0.00216778
0.00919518
0.00449217
-1.56615
-1.10885
-0.664146
-0.317797
-0.136771
-0.044767
-0.00310768
0.0117729
0.015641
0.00690205
-1.72615
-1.24477
-0.732041
-0.334843
-0.128998
-0.0309157
0.0100115
0.0217698
0.0224415
0.00969513
-1.86678
-1.38802
-0.810212
-0.360094
-0.125597
-0.019406
0.0219137
0.0311482
0.0289643
0.0126019
-1.9758
-1.53057
-0.897382
-0.396509
-0.130381
-0.0132548
0.0304637
0.0385159
0.0342999
0.0151778
-2.05027
-1.65824
-0.988963
-0.442917
-0.144595
-0.014562
0.0336147
0.0423299
0.0373488
0.0168637
-2.07211
-1.76713
-1.08399
-0.496603
-0.166447
-0.0228044
0.031029
0.0419724
0.0374667
0.0172419
-2.11874
-1.86595
-1.1473
-0.528465
-0.182304
-0.0342957
0.02275
0.0367144
0.0339467
0.0159519
-2.21678
-1.86088
-1.12873
-0.526828
-0.197128
-0.0575468
0.000558495
0.020353
0.0230037
0.0112817
-2.13207
-1.75899
-1.0759
-0.528301
-0.221379
-0.0855045
-0.0237364
0.00322283
0.0120762
0.00677365
-1.91949
-1.58508
-1.01347
-0.544376
-0.265889
-0.127012
-0.0540967
-0.0157214
0.00182152
0.00364778
-1.69307
-1.42904
-0.967213
-0.568822
-0.313025
-0.169123
-0.0846522
-0.0351906
-0.00842537
0.000631309
-1.481
-1.2883
-0.926235
-0.599585
-0.367069
-0.214897
-0.116459
-0.0560779
-0.0208386
-0.00503234
-1.28655
-1.17841
-0.912749
-0.644285
-0.426262
-0.261125
-0.146946
-0.0752852
-0.0313702
-0.00859803
-1.12391
-1.10529
-0.91634
-0.68627
-0.473516
-0.29544
-0.167715
-0.0870494
-0.0369981
-0.00974559
-1.01322
-1.06779
-0.920759
-0.71062
-0.499395
-0.314144
-0.179415
-0.0939768
-0.0404568
-0.0106162
-0.966109
-1.0741
-0.936009
-0.721863
-0.505445
-0.319821
-0.184027
-0.0969773
-0.0421888
-0.01143
-1.46739
-1.5206
-1.55827
-1.58337
-1.59851
-1.60875
-1.62487
-1.66814
-1.74476
-1.88613
-1.32095
-1.38857
-1.44445
-1.49544
-1.53963
-1.5916
-1.64471
-1.71831
-1.79237
-1.92911
-1.18702
-1.26425
-1.33057
-1.39972
-1.46062
-1.53681
-1.60412
-1.69383
-1.77898
-1.90492
-1.0615
-1.14344
-1.21472
-1.29005
-1.35546
-1.43308
-1.50315
-1.58912
-1.67438
-1.77617
-0.946224
-1.02686
-1.10018
-1.17175
-1.23672
-1.3046
-1.37108
-1.44391
-1.51805
-1.59917
-0.84323
-0.920295
-0.991858
-1.05725
-1.11796
-1.17537
-1.23336
-1.29194
-1.35235
-1.41786
-0.755998
-0.829516
-0.897052
-0.955692
-1.00866
-1.05504
-1.1002
-1.14454
-1.1904
-1.23797
-0.686921
-0.759729
-0.822254
-0.874143
-0.917128
-0.948975
-0.980511
-1.00833
-1.03919
-1.07127
-0.647874
-0.71718
-0.775184
-0.822254
-0.856781
-0.879593
-0.901014
-0.914615
-0.933636
-0.952394
-0.63382
-0.703535
-0.760742
-0.803972
-0.835056
-0.856671
-0.873051
-0.884709
-0.899288
-0.909176
-0.0211789
-0.0863535
-0.152168
-0.215306
-0.277517
-0.340609
-0.403882
-0.463877
-0.515986
-0.54851
-0.208031
-0.275541
-0.342453
-0.407896
-0.473671
-0.541084
-0.609018
-0.673681
-0.729853
-0.766948
-0.414308
-0.480916
-0.546771
-0.612492
-0.679468
-0.748348
-0.817933
-0.884998
-0.94334
-0.984226
-0.620198
-0.686434
-0.751953
-0.818167
-0.886005
-0.955238
-1.02455
-1.09225
-1.15221
-1.1946
-0.815248
-0.883252
-0.9498
-1.01666
-1.08478
-1.15305
-1.22076
-1.28764
-1.3471
-1.38936
-0.997005
-1.06829
-1.13585
-1.20244
-1.26843
-1.3334
-1.39811
-1.46269
-1.5196
-1.55949
-1.16262
-1.23433
-1.3018
-1.36635
-1.42846
-1.48884
-1.54933
-1.60966
-1.66159
-1.69753
-1.30533
-1.37486
-1.43974
-1.5005
-1.55764
-1.61282
-1.66806
-1.72234
-1.76777
-1.79943
-1.42093
-1.48521
-1.54499
-1.60022
-1.65159
-1.70117
-1.75048
-1.79787
-1.8365
-1.86441
-1.50615
-1.5633
-1.61625
-1.6648
-1.71001
-1.75379
-1.79697
-1.83731
-1.86951
-1.89448
1.1017
1.09678
1.09209
1.08731
1.08235
1.07725
1.07219
1.06785
1.06677
1.07713
1.0461
1.03838
1.03081
1.02306
1.01504
1.00677
0.998473
0.991154
0.987618
0.995774
0.975002
0.964187
0.953281
0.942052
0.930442
0.918425
0.90626
0.895227
0.888391
0.893509
0.888001
0.87323
0.858116
0.842555
0.8265
0.809877
0.793002
0.77749
0.766662
0.768237
0.786043
0.767566
0.748407
0.728495
0.70783
0.686282
0.664171
0.643384
0.627721
0.625378
0.670373
0.646898
0.622112
0.596487
0.570155
0.542909
0.515136
0.4889
0.467948
0.460827
0.540209
0.512759
0.483624
0.453047
0.421123
0.387638
0.353134
0.320179
0.293083
0.281653
0.40117
0.368657
0.333187
0.296022
0.257697
0.217904
0.177113
0.13791
0.10451
0.0883712
0.25473
0.217754
0.176436
0.132499
0.0869167
0.0396278
-0.00856105
-0.0548041
-0.0949352
-0.11683
0.108093
0.0618884
0.0108763
-0.0413879
-0.0943444
-0.148845
-0.204154
-0.257097
-0.303379
-0.330852
1.29903
1.21417
1.2427
1.19699
1.17688
1.15446
1.14122
1.12508
1.13298
1.13065
1.29708
1.21209
1.24059
1.1933
1.17282
1.14855
1.13492
1.1134
1.1152
1.09797
1.29605
1.21022
1.23858
1.18896
1.16794
1.14222
1.12786
1.09928
1.09295
1.05536
1.2959
1.20863
1.23662
1.18393
1.16233
1.13567
1.12
1.08286
1.06678
1.00314
1.29657
1.20739
1.23461
1.1783
1.15647
1.1289
1.11117
1.06442
1.03688
0.93972
1.29799
1.20654
1.2324
1.17254
1.15101
1.12147
1.10134
1.04418
1.0042
0.8662
1.30012
1.20613
1.2298
1.16724
1.14552
1.11244
1.09072
1.02288
0.969231
0.780229
1.30298
1.2061
1.22684
1.16158
1.13802
1.10176
1.07969
1.00054
0.930894
0.680723
1.30671
1.20635
1.22406
1.15372
1.12804
1.09081
1.0685
0.976935
0.889035
0.568634
1.31149
1.2074
1.22189
1.14392
1.1173
1.08053
1.05736
0.9533
0.845612
0.44719
1.31529
1.2104
1.22185
1.13667
1.10714
1.06964
1.04562
0.927094
0.801787
0.344989
1.32468
1.21842
1.22829
1.13529
1.09888
1.05722
1.03271
0.903966
0.774471
0.364429
1.332
1.22881
1.2391
1.13937
1.09271
1.04402
1.01611
0.879461
0.746968
0.382511
1.34089
1.23957
1.24982
1.14526
1.08729
1.02969
0.995995
0.854894
0.712628
0.390913
1.35149
1.24689
1.25488
1.14827
1.08126
1.01584
0.971826
0.831085
0.67405
0.392422
1.36293
1.24891
1.25106
1.14424
1.0751
1.00355
0.946944
0.812888
0.634403
0.388648
1.37572
1.24315
1.23831
1.13284
1.06872
0.993777
0.926862
0.803009
0.599452
0.388378
1.39232
1.24008
1.22163
1.11901
1.062
0.987608
0.91154
0.799667
0.574632
0.397948
1.41123
1.24279
1.20844
1.10594
1.05681
0.983498
0.899598
0.799478
0.558562
0.412503
1.4515
1.24911
1.20444
1.10623
1.05767
0.983296
0.901235
0.80054
0.557907
0.436641
-0.00832131
-0.175683
-0.367509
-0.558538
-0.736359
-0.899142
-1.04786
-1.1846
-1.30183
-1.39596
-0.0271273
-0.172544
-0.327085
-0.481873
-0.629109
-0.767732
-0.898891
-1.02697
-1.14236
-1.24184
-0.0130444
-0.151001
-0.286002
-0.416185
-0.542852
-0.667964
-0.789441
-0.905629
-1.00958
-1.10485
0.0181539
-0.113548
-0.238876
-0.351702
-0.458805
-0.566599
-0.674791
-0.780825
-0.881951
-0.976268
0.0576569
-0.0644068
-0.179936
-0.279913
-0.372366
-0.467233
-0.567592
-0.669413
-0.768393
-0.860254
0.103049
-0.00462597
-0.110149
-0.203883
-0.290429
-0.378963
-0.473937
-0.572573
-0.669281
-0.759408
0.153707
0.0603123
-0.0380796
-0.130974
-0.218073
-0.304496
-0.395348
-0.490275
-0.584846
-0.674598
0.201814
0.118358
0.025383
-0.0674532
-0.15725
-0.243812
-0.332107
-0.422629
-0.515365
-0.6056
0.231481
0.15161
0.0619595
-0.0300529
-0.119458
-0.205943
-0.29618
-0.389214
-0.483216
-0.57051
0.253057
0.172212
0.0842787
-0.00651831
-0.0970943
-0.189008
-0.282935
-0.376543
-0.467552
-0.554076
-0.626973
-0.602267
-0.567677
-0.528739
-0.489087
-0.452904
-0.421157
-0.393056
-0.370405
-0.354242
-0.715375
-0.689974
-0.656465
-0.617669
-0.578447
-0.542671
-0.511781
-0.485173
-0.464014
-0.449482
-0.777468
-0.752628
-0.721654
-0.684371
-0.646944
-0.612345
-0.582405
-0.557522
-0.53744
-0.52333
-0.8144
-0.79108
-0.764192
-0.730437
-0.694782
-0.661204
-0.632156
-0.608619
-0.589668
-0.575727
-0.830265
-0.809375
-0.787361
-0.758162
-0.725072
-0.692651
-0.663969
-0.640636
-0.622277
-0.608452
-0.830999
-0.81333
-0.79594
-0.771459
-0.741632
-0.710714
-0.681987
-0.657686
-0.638604
-0.624373
-0.8216
-0.80762
-0.794032
-0.773576
-0.746806
-0.717356
-0.688537
-0.662736
-0.641627
-0.626013
-0.804886
-0.794681
-0.783873
-0.766467
-0.74236
-0.714469
-0.686052
-0.659508
-0.636827
-0.620009
-0.782542
-0.775678
-0.766459
-0.750964
-0.729047
-0.702945
-0.675529
-0.64904
-0.625666
-0.609149
-0.758174
-0.753815
-0.745139
-0.73055
-0.710433
-0.686606
-0.661375
-0.636673
-0.614184
-0.598292
-0.737906
-0.735256
-0.72675
-0.712622
-0.694203
-0.673032
-0.650761
-0.628983
-0.608071
-0.58682
-0.727397
-0.725885
-0.717903
-0.704357
-0.687997
-0.670034
-0.651331
-0.632884
-0.614653
-0.594131
-0.728579
-0.727952
-0.721037
-0.708664
-0.694047
-0.679359
-0.664268
-0.648902
-0.632976
-0.614323
-0.74011
-0.740685
-0.735771
-0.725703
-0.71175
-0.699103
-0.686492
-0.672803
-0.657948
-0.640595
-0.757415
-0.759
-0.755715
-0.748162
-0.736403
-0.725255
-0.714177
-0.700698
-0.685745
-0.668519
-0.783364
-0.78642
-0.784769
-0.780243
-0.770673
-0.757197
-0.74389
-0.730541
-0.716306
-0.700455
-0.824261
-0.828883
-0.828185
-0.823759
-0.814371
-0.80102
-0.786728
-0.772412
-0.757628
-0.742154
-0.87918
-0.884556
-0.883665
-0.878358
-0.868842
-0.856206
-0.842012
-0.827121
-0.811653
-0.795823
-0.947053
-0.952443
-0.950877
-0.944776
-0.935178
-0.923265
-0.909869
-0.895496
-0.880376
-0.864895
-1.02758
-1.0324
-1.03023
-1.02384
-1.0146
-1.00369
-0.991688
-0.978793
-0.965111
-0.95092
-0.569689
-0.473161
-0.408781
-0.329471
-0.249911
-0.176817
-0.117144
-0.0715088
-0.0376828
-0.0105723
-0.584249
-0.470087
-0.402814
-0.3172
-0.239297
-0.168516
-0.111162
-0.0677631
-0.0356328
-0.0100064
-0.60076
-0.469156
-0.399569
-0.309193
-0.229674
-0.160126
-0.104764
-0.0634187
-0.0329444
-0.00902833
-0.619091
-0.471514
-0.398822
-0.302005
-0.220713
-0.151767
-0.0981477
-0.0587476
-0.0299378
-0.00786752
-0.64028
-0.477477
-0.399919
-0.295162
-0.212047
-0.143419
-0.0913785
-0.0538716
-0.0267777
-0.00668592
-0.666104
-0.48794
-0.403208
-0.289021
-0.203719
-0.135144
-0.0845371
-0.0488947
-0.0235772
-0.00556088
-0.699807
-0.505333
-0.409566
-0.284083
-0.195807
-0.126929
-0.0776218
-0.0438476
-0.0203788
-0.00451093
-0.7445
-0.532952
-0.419746
-0.280746
-0.188316
-0.118671
-0.0705327
-0.0386638
-0.017134
-0.00350679
-0.805661
-0.571163
-0.434364
-0.27931
-0.181204
-0.110229
-0.063133
-0.0332316
-0.0137445
-0.00249911
-0.885001
-0.622672
-0.454384
-0.279953
-0.174382
-0.101453
-0.0552847
-0.0274356
-0.010107
-0.00144343
-0.539621
-0.475328
-0.414198
-0.335119
-0.252956
-0.179128
-0.119349
-0.0718946
-0.0368332
-0.0104251
-0.531801
-0.469243
-0.412176
-0.33563
-0.25401
-0.180273
-0.120253
-0.0726035
-0.037133
-0.0103925
-0.530059
-0.465677
-0.40934
-0.335645
-0.253861
-0.180426
-0.120301
-0.0726538
-0.0372145
-0.0102326
-0.532496
-0.463017
-0.404238
-0.333393
-0.254684
-0.181272
-0.12077
-0.0731945
-0.0378409
-0.0103306
-0.544936
-0.465523
-0.403469
-0.329001
-0.254949
-0.181357
-0.12062
-0.0734946
-0.0384932
-0.0106433
-0.34232
-0.433758
-0.504846
-0.55607
-0.589902
-0.608717
-0.614754
-0.610517
-0.597933
-0.575271
-0.339926
-0.432015
-0.502629
-0.552668
-0.585197
-0.603407
-0.609431
-0.605304
-0.594198
-0.571546
-0.34041
-0.433401
-0.504323
-0.554283
-0.58637
-0.603828
-0.607967
-0.602731
-0.58961
-0.5705
-0.342591
-0.436983
-0.508737
-0.559091
-0.590888
-0.607114
-0.608759
-0.601444
-0.586477
-0.573258
-0.346645
-0.44268
-0.515609
-0.566698
-0.598455
-0.613531
-0.613472
-0.604327
-0.589851
-0.583729
0.912355
0.907023
0.899143
0.891159
0.883723
0.87655
0.869754
0.864205
0.861866
0.868182
0.97686
0.975429
0.971509
0.966829
0.962129
0.957375
0.952735
0.949008
0.948351
0.95673
1.03277
1.03252
1.03068
1.02838
1.02614
1.02392
1.02175
1.02011
1.02098
1.0309
1.08267
1.08366
1.08357
1.08313
1.08267
1.08214
1.08148
1.08082
1.08213
1.09296
1.12288
1.12438
1.12535
1.12614
1.12693
1.12767
1.12816
1.1282
1.12953
1.14039
1.15278
1.1545
1.15613
1.15772
1.15938
1.16108
1.16261
1.16347
1.16479
1.17337
1.17066
1.17207
1.17367
1.17535
1.17714
1.17909
1.18111
1.18269
1.1841
1.19066
1.17525
1.17576
1.17657
1.17743
1.17831
1.17925
1.18018
1.18081
1.18249
1.19378
1.16575
1.16488
1.16434
1.16381
1.16321
1.1626
1.16196
1.16134
1.16262
1.17513
1.1414
1.13872
1.13635
1.13394
1.13141
1.12883
1.12628
1.12414
1.12466
1.13656
-0.239176
-0.258204
-0.28283
-0.311834
-0.344297
-0.379909
-0.418023
-0.456687
-0.491083
-0.513764
-0.10826
-0.130541
-0.156915
-0.186321
-0.21844
-0.25328
-0.290049
-0.326733
-0.359593
-0.37975
0.0334472
0.00816617
-0.0197034
-0.0494229
-0.0809663
-0.114504
-0.149356
-0.183504
-0.213856
-0.2301
0.176775
0.149666
0.121168
0.091849
0.0616351
0.0303325
-0.00156825
-0.0323371
-0.0589583
-0.0710557
0.312652
0.285593
0.25813
0.23078
0.203278
0.175254
0.147025
0.120231
0.0980867
0.0897191
0.437539
0.412758
0.388364
0.364511
0.340603
0.31623
0.291785
0.269031
0.25123
0.246478
0.551257
0.530526
0.510507
0.490715
0.470472
0.449686
0.429002
0.410265
0.396596
0.39516
0.656805
0.640351
0.624383
0.608068
0.590986
0.573374
0.556049
0.540907
0.530835
0.532048
0.759344
0.745317
0.73115
0.716713
0.701865
0.686859
0.67252
0.660597
0.653498
0.656539
0.855902
0.842838
0.828128
0.814168
0.801108
0.788763
0.777542
0.768632
0.763917
0.768375
1.37452
1.24638
1.2577
1.1991
1.18606
1.16684
1.14092
1.11631
1.07734
1.00239
1.36174
1.24165
1.25827
1.20231
1.18791
1.17007
1.14647
1.12409
1.09625
1.04232
1.35019
1.23759
1.25797
1.20443
1.18888
1.1722
1.15103
1.13226
1.11639
1.08105
1.3399
1.23396
1.25715
1.20589
1.18932
1.17347
1.1546
1.13921
1.13284
1.11391
1.33086
1.23054
1.25579
1.20661
1.18914
1.1737
1.15679
1.14406
1.14508
1.13976
1.32297
1.22731
1.25395
1.20657
1.18833
1.17284
1.15747
1.14668
1.15337
1.1585
1.31619
1.22429
1.2518
1.20585
1.18696
1.17094
1.1567
1.14709
1.15779
1.16971
1.31044
1.22149
1.24951
1.20452
1.18514
1.16808
1.15458
1.14522
1.15822
1.17298
1.30568
1.21888
1.24719
1.2026
1.18291
1.16432
1.15121
1.14098
1.15441
1.16784
1.30189
1.21644
1.2449
1.20009
1.1802
1.15975
1.14671
1.13428
1.14606
1.15385
1.49144
1.25578
1.23936
1.17833
1.1724
1.14942
1.11714
1.08325
1.02278
0.935891
1.45444
1.25925
1.24521
1.18087
1.17458
1.15144
1.11841
1.08399
1.02156
0.928529
1.43106
1.2574
1.2487
1.18405
1.17636
1.15393
1.12125
1.08797
1.02665
0.931392
1.40823
1.25531
1.25279
1.18931
1.17962
1.15823
1.12733
1.09649
1.03567
0.940768
1.38945
1.25193
1.25574
1.1944
1.18301
1.16257
1.13382
1.10409
1.05018
0.953409
0.782355
0.71738
0.638828
0.545094
0.435549
0.310217
0.17313
0.0313902
-0.105808
-0.23164
0.775847
0.711091
0.63319
0.541313
0.435108
0.313339
0.178467
0.0369472
-0.101532
-0.228734
0.784848
0.71849
0.638495
0.545681
0.43958
0.318385
0.183804
0.0415991
-0.0984173
-0.22742
0.804981
0.730979
0.645964
0.551131
0.444123
0.322689
0.18793
0.0448004
-0.0969029
-0.227855
0.840396
0.751415
0.656222
0.556829
0.447518
0.325075
0.189936
0.0460034
-0.0973145
-0.23025
)
;

boundaryField
{
    left
    {
        type            zeroGradient;
    }
    right
    {
        type            fixedValue;
        value           uniform 0;
    }
    down
    {
        type            zeroGradient;
    }
    up
    {
        type            zeroGradient;
    }
    cylinder
    {
        type            zeroGradient;
    }
    defaultFaces
    {
        type            empty;
    }
}


// ************************************************************************* //
