/*--------------------------------*- C++ -*----------------------------------*\
| =========                 |                                                 |
| \\      /  F ield         | OpenFOAM: The Open Source CFD Toolbox           |
|  \\    /   O peration     | Version:  2406                                  |
|   \\  /    A nd           | Website:  www.openfoam.com                      |
|    \\/     M anipulation  |                                                 |
\*---------------------------------------------------------------------------*/
FoamFile
{
    version     2.0;
    format      ascii;
    arch        "LSB;label=32;scalar=64";
    class       surfaceScalarField;
    location    "0.7";
    object      phi;
}
// * * * * * * * * * * * * * * * * * * * * * * * * * * * * * * * * * * * * * //

dimensions      [0 3 -1 0 0 0 0];

oriented        oriented;

internalField   nonuniform List<scalar> 
3485
(
0.00243021
0.00195597
-0.00438618
0.00835189
0.00570576
-0.0116274
0.0168296
0.00709238
-0.0155701
0.027893
0.00532599
-0.0163893
0.041657
0.00102973
-0.0147937
0.0582151
-0.00485813
-0.0117
0.0774769
-0.0112962
-0.00796568
0.0993733
-0.0177995
-0.0040969
0.123965
-0.0246646
7.30091e-05
-0.0278419
0.00288076
0.148926
0.0014317
0.000524269
0.00577045
0.00136701
0.0134266
-0.000563767
0.0246429
-0.00589029
0.0391558
-0.0134832
0.056254
-0.0219564
0.0753511
-0.0303932
0.0959778
-0.0384263
0.117654
-0.0463404
-0.0509205
0.140732
0.00052778
-3.51122e-06
0.00429511
-0.00240031
0.0126079
-0.00887659
0.025145
-0.0184273
0.0409449
-0.0292832
0.059009
-0.0400204
0.0785344
-0.0499186
0.0989491
-0.058841
0.119723
-0.0671142
-0.0722481
0.14105
0.000726355
-0.000729866
0.00564288
-0.00731684
0.0155337
-0.0187674
0.029614
-0.0325077
0.0465178
-0.0461869
0.0650357
-0.0585384
0.0843356
-0.0692185
0.103957
-0.0784625
0.123642
-0.0867995
-0.092198
0.143592
0.00158605
-0.00231592
0.00848518
-0.014216
0.0205213
-0.0308035
0.0361838
-0.0481702
0.0537924
-0.0637955
0.0721329
-0.0768789
0.0905818
-0.0876673
0.109
-0.0968809
0.127494
-0.105293
-0.111872
0.147168
0.00262072
-0.00493664
0.011549
-0.0231443
0.0254194
-0.0446739
0.0418954
-0.0646462
0.0591004
-0.0810006
0.0760775
-0.093856
0.0926669
-0.104257
0.109228
-0.113442
0.126374
-0.12244
-0.131234
0.145735
0.0037111
-0.00864775
0.0143726
-0.0338058
0.0291686
-0.0594698
0.0451228
-0.0806004
0.0605807
-0.0964585
0.0751845
-0.10846
0.0893735
-0.118446
0.10395
-0.128018
0.119773
-0.138263
-0.149412
0.137951
0.00476907
-0.0134168
0.0164848
-0.0455215
0.0308697
-0.0738548
0.044914
-0.0946447
0.0576835
-0.109228
0.0695436
-0.12032
0.0813846
-0.130287
0.0941596
-0.140793
0.108484
-0.152588
-0.165253
0.124325
0.00562409
-0.0190409
0.0173993
-0.0572967
0.0301487
-0.0866042
0.0415354
-0.106031
0.0514862
-0.119179
0.0608242
-0.129658
0.0705164
-0.139979
0.0812761
-0.151552
0.0930871
-0.164399
-0.177085
0.104919
0.00609985
-0.0251407
0.0169697
-0.0681666
0.0274491
-0.0970836
0.0361805
-0.114763
0.0436551
-0.126653
0.0507468
-0.13675
0.0582037
-0.147436
0.0663288
-0.159677
0.0746141
-0.172684
0.0819452
-0.184416
-0.0021234
0.0198656
-0.0177422
-0.00579715
0.0348305
-0.0311568
-0.00986132
0.0399019
-0.0358377
-0.0140092
0.0415737
-0.0374258
-0.0181088
0.0416669
-0.0375673
-0.0220587
0.0407346
-0.0367848
-0.0257829
0.039009
-0.0352848
-0.029212
0.0365489
-0.0331198
-0.0322558
0.0333517
-0.0303079
0.0294843
-0.0348123
-0.0269279
-0.00168284
0.0215484
-0.00479757
0.0379453
-0.00825688
0.0433612
-0.0118367
0.0451536
-0.0154603
0.0452904
-0.0190475
0.0443219
-0.0225267
0.0424882
-0.0258255
0.0398477
-0.0288528
0.0363791
0.0321355
-0.031504
-0.00101706
0.0225655
-0.00325938
0.0401876
-0.00577319
0.045875
-0.00825199
0.0476324
-0.0108968
0.0479353
-0.0137158
0.0471409
-0.016558
0.0453304
-0.0193341
0.0426238
-0.0219664
0.0390114
0.0345204
-0.0243513
-0.000335933
0.0229014
-0.00148886
0.0413405
-0.00267802
0.0470642
-0.00355781
0.0485121
-0.00457273
0.0489502
-0.00602855
0.0485967
-0.00781118
0.047113
-0.00968184
0.0444945
-0.0115138
0.0408433
0.0361422
-0.0131356
0.00100945
0.021892
0.00186154
0.0404884
0.00239453
0.0465312
0.00272717
0.0481795
0.00299243
0.0486849
0.00309848
0.0484906
0.00291124
0.0473002
0.00246806
0.0449377
0.00188799
0.0414234
0.0367202
0.00131004
0.00248658
0.0194054
0.00546558
0.0375094
0.0078325
0.0441643
0.00957107
0.0464409
0.0111833
0.0470727
0.0129595
0.0467144
0.0148301
0.0454297
0.0166106
0.0431571
0.0182606
0.0397734
0.0349394
0.0200413
0.00351459
0.0158908
0.00840291
0.0326211
0.0128676
0.0396996
0.0168477
0.0424608
0.0207229
0.0431975
0.0247199
0.0427174
0.0288461
0.0413035
0.0329815
0.0390217
0.0370653
0.0356896
0.0306582
0.0413465
0.00407263
0.0118182
0.0105572
0.0261365
0.0172312
0.0330256
0.0238136
0.0358785
0.0304936
0.0365175
0.0374012
0.0358098
0.0444994
0.0342053
0.0516356
0.0318855
0.0586711
0.028654
0.0234884
0.065841
0.00407247
0.00774571
0.0114878
0.0187212
0.0199718
0.0245416
0.0290362
0.0268141
0.0387715
0.0267821
0.0492636
0.0253177
0.0604002
0.0230687
0.0718619
0.0204237
0.0831603
0.0173556
0.0126267
0.094022
0.00335954
0.0104533
0.0194247
0.0298496
0.041838
0.0554557
0.0705588
0.0868856
0.104314
0.119822
-0.0207773
0.0605867
-0.0746217
0.0304236
-0.200531
0.14933
0.0735834
-0.243685
0.200525
0.107346
-0.243587
0.209824
0.130192
-0.211317
0.18847
0.144459
-0.170888
0.156622
0.152607
-0.131621
0.123473
0.156691
-0.0959803
0.0918967
0.15833
-0.0668075
0.0651679
-0.0311851
0.0316337
-0.0256121
0.0546949
0.019789
-0.245932
0.0657256
-0.289621
0.102383
-0.280244
0.127716
-0.23665
0.143591
-0.186763
0.152729
-0.14076
0.157424
-0.100675
0.15956
-0.0689426
-0.0309692
-0.027964
0.0583075
0.00979494
-0.283691
0.0577392
-0.337566
0.096894
-0.319399
0.124568
-0.264324
0.142062
-0.204258
0.152312
-0.151009
0.157764
-0.106128
0.160585
-0.0717639
-0.0311594
-0.0249437
0.0701156
0.00500928
-0.313644
0.0531165
-0.385673
0.0933414
-0.359624
0.122293
-0.293275
0.140832
-0.222797
0.151979
-0.162156
0.158149
-0.112298
0.161742
-0.0753571
-0.0318994
-0.0136206
0.0850462
0.0100674
-0.337332
0.0564936
-0.432099
0.0954968
-0.398627
0.123585
-0.321363
0.14171
-0.240922
0.152943
-0.173389
0.15943
-0.118785
0.163674
-0.0796011
-0.0332666
0.00642039
0.0986672
0.027171
-0.358082
0.071299
-0.476227
0.10725
-0.434578
0.132012
-0.346125
0.147543
-0.256453
0.157313
-0.183159
0.163171
-0.124643
0.167578
-0.0840082
-0.0352026
0.0315206
0.108493
0.0533617
-0.379923
0.0955739
-0.518439
0.129142
-0.468146
0.149903
-0.366886
0.161269
-0.267819
0.167868
-0.189758
0.171777
-0.128552
0.175436
-0.0876671
-0.0374594
0.0602415
0.114093
0.0802315
-0.399913
0.121206
-0.559413
0.155678
-0.502619
0.175048
-0.386256
0.183157
-0.275928
0.186252
-0.192853
0.187476
-0.129775
0.189525
-0.089716
-0.039751
0.0875321
0.120582
0.101032
-0.413413
0.140208
-0.598589
0.178825
-0.541236
0.20112
-0.408552
0.20919
-0.283997
0.210546
-0.19421
0.20989
-0.129119
0.210463
-0.0902893
-0.0421714
0.115391
0.125013
0.116754
-0.414777
0.150719
-0.632554
0.193901
-0.584417
0.222079
-0.43673
0.233468
-0.295386
0.235771
-0.196513
0.235139
-0.128487
0.235532
-0.0906821
-0.0453683
0.352664
-0.00434121
-0.22331
0.433301
-0.495414
0.472015
-0.671267
0.490039
-0.602442
0.489
-0.435691
0.474129
-0.280514
0.453558
-0.175942
0.435007
-0.109937
0.421543
-0.0772182
-0.0400086
0.547404
-0.152677
-0.399068
0.607023
-0.555032
0.600435
-0.664679
0.571909
-0.573917
0.545331
-0.409113
0.522548
-0.257731
0.501687
-0.155081
0.484491
-0.0927408
0.471609
-0.0643366
-0.0342878
0.75621
-0.260382
-0.648505
0.768833
-0.567655
0.723571
-0.619417
0.662108
-0.512455
0.60806
-0.355065
0.568266
-0.217937
0.540258
-0.127072
0.521008
-0.0734916
0.507255
-0.0505831
-0.0281143
0.869656
-0.308729
-0.82131
0.830412
-0.528411
0.760139
-0.549144
0.691533
-0.443849
0.632356
-0.295888
0.587694
-0.173275
0.55698
-0.0963583
0.536737
-0.0532488
0.522399
-0.0362445
-0.0219039
0.926757
-0.323199
-0.912286
0.880757
-0.482411
0.804297
-0.472684
0.722289
-0.36184
0.649353
-0.222952
0.595642
-0.119564
0.560812
-0.0615278
0.53909
-0.0315271
0.524059
-0.0212133
-0.0154327
0.95178
-0.317801
-0.957178
0.886995
-0.417627
0.796668
-0.382357
0.708272
-0.273443
0.634919
-0.1496
0.582621
-0.0672659
0.549807
-0.0287136
0.530224
-0.0119445
0.517457
-0.00844567
-0.00937802
0.950867
-0.294227
-0.974442
0.867905
-0.334665
0.758593
-0.273045
0.658291
-0.173141
0.585668
-0.0769771
0.540447
-0.0220454
0.514586
-0.00285177
0.500188
0.00245256
0.490861
0.000881542
-0.0040745
0.882913
-0.236838
-0.940301
0.765541
-0.217293
0.636575
-0.144079
0.536107
-0.0726739
0.477051
-0.0179205
0.447783
0.00722276
0.433636
0.0112951
0.426753
0.00933536
0.42217
0.005465
-0.000446884
0.642274
-0.120603
-0.758509
0.498723
-0.0737428
0.385118
-0.0304731
0.319307
-0.00686295
0.294273
0.0071138
0.289711
0.0117847
0.290789
0.0102167
0.292917
0.00720759
0.294031
0.00435048
0.000737345
0.177277
-0.29788
0.103534
0.0730611
0.0661981
0.0733119
0.0850966
0.0953134
0.102521
0.106871
0.552352
0.0822206
-0.552627
0.545153
0.112118
0.530323
0.139155
0.503428
0.164847
0.466331
0.182833
0.41632
0.197179
0.361048
0.198865
0.304254
0.197844
0.254087
0.1909
0.179703
0.587626
0.074142
-0.579547
0.592957
0.106786
0.598631
0.133482
0.596807
0.16667
0.590327
0.189314
0.574267
0.213238
0.545508
0.227624
0.507723
0.235629
0.451266
0.247357
0.2319
0.614409
0.0650293
-0.605296
0.626134
0.0950609
0.639581
0.120034
0.654388
0.151863
0.666655
0.177046
0.677827
0.202066
0.682233
0.223218
0.68114
0.236722
0.673547
0.254949
0.256943
0.636728
0.0555793
-0.627278
0.65186
0.0799295
0.668519
0.103375
0.690266
0.130116
0.712619
0.154694
0.736089
0.178595
0.760826
0.198481
0.781942
0.215606
0.807237
0.229654
0.242871
0.652998
0.0442129
-0.641632
0.669935
0.0629926
0.689458
0.0838523
0.714066
0.105508
0.741572
0.127188
0.771768
0.1484
0.804554
0.165695
0.83803
0.18213
0.875032
0.192653
0.205616
0.659466
0.031028
-0.646281
0.677326
0.0451326
0.698698
0.0624798
0.72499
0.0792161
0.754915
0.0972622
0.78937
0.113945
0.826738
0.128327
0.867566
0.141303
0.910566
0.149652
0.159004
0.648152
0.0172289
-0.634353
0.666107
0.0271772
0.688467
0.04012
0.715768
0.0519149
0.747557
0.0654732
0.785082
0.0764204
0.826299
0.0871108
0.872576
0.0950248
0.921865
0.100364
0.106427
0.603183
0.00518394
-0.591138
0.619231
0.0111291
0.640434
0.0189177
0.6663
0.0260482
0.698459
0.0333144
0.736397
0.0384821
0.780117
0.0433906
0.829365
0.0457772
0.88276
0.0469691
0.0488852
0.491373
-0.00181386
-0.484375
0.502325
0.000176651
0.518523
0.00271928
0.53987
0.00470198
0.56681
0.00637404
0.598324
0.00696773
0.634218
0.00749701
0.673295
0.00669988
0.714454
0.00580989
0.00483108
0.252102
-0.253916
0.252279
0.254998
0.2597
0.266074
0.273042
0.280539
0.287239
0.293049
0.0576135
0.131362
-0.119645
-0.0693306
0.0482489
0.127826
-0.118461
0.0402378
0.125383
-0.117372
0.0328513
0.123705
-0.116318
0.0257596
0.122328
-0.115236
0.0189378
0.120736
-0.113914
0.0125029
0.117953
-0.111518
0.00665855
0.111967
-0.106123
0.00203552
0.0963941
-0.0917711
0.05276
-0.0507245
0.0539861
0.141624
-0.0642487
0.0449526
0.136859
0.0370466
0.133289
0.0298609
0.13089
0.0230842
0.129104
0.01667
0.12715
0.0107099
0.123913
0.00538131
0.117296
0.00145395
0.100321
0.054214
0.0454766
0.151397
-0.0552491
0.0366819
0.145654
0.0291322
0.140838
0.02256
0.137463
0.0166813
0.134983
0.0114133
0.132418
0.00674035
0.128586
0.00274056
0.121296
0.000235497
0.102827
0.0544495
0.033352
0.16084
-0.0427954
0.0247822
0.154224
0.0176547
0.147966
0.0119419
0.143175
0.00738266
0.139542
0.00377257
0.136028
0.000918884
0.13144
-0.000991511
0.123206
-0.00122458
0.10306
0.0532249
0.0206381
0.169803
-0.0296006
0.0124945
0.162367
0.00589231
0.154568
0.0010995
0.147968
-0.00209708
0.142739
-0.00405254
0.137984
-0.00498943
0.132377
-0.00467013
0.122887
-0.0026555
0.101045
0.0505694
0.00781563
0.177421
-0.0154335
0.000913618
0.169269
-0.00458689
0.160069
-0.00824667
0.151628
-0.0101722
0.144664
-0.0107024
0.138514
-0.00995319
0.131627
-0.00765455
0.120588
-0.00376015
0.0971506
0.0468092
-0.00441547
0.183248
-0.00141138
-0.00956071
0.174415
-0.013529
0.164037
-0.0158575
0.153956
-0.0165336
0.145341
-0.0157808
0.137761
-0.0136249
0.129471
-0.00984063
0.116804
-0.00455987
0.0918698
0.0422494
-0.0182291
0.186658
0.0148189
-0.0209871
0.177173
-0.0226996
0.165749
-0.0231208
0.154378
-0.0222446
0.144464
-0.0201493
0.135666
-0.0167347
0.126057
-0.0117018
0.111771
-0.00521434
0.0853823
0.037035
-0.0349582
0.187321
0.0342951
-0.0346232
0.176838
-0.0333263
0.164452
-0.0312391
0.15229
-0.0284425
0.141668
-0.0248212
0.132045
-0.020036
0.121272
-0.0136015
0.105337
-0.00577108
0.0775519
0.031264
-0.0543631
0.0572681
-0.0502093
-0.0454344
-0.0405798
-0.0356616
-0.0302705
-0.0237615
-0.0155085
-0.00612321
0.0733146
0.0389844
-0.0827032
-0.0295958
0.0640607
0.0391978
-0.0299439
0.0549481
0.0393133
-0.0302007
0.0459761
0.0393612
-0.0303892
0.0371308
0.0393571
-0.0305118
0.0284029
0.0391926
-0.0304647
0.0198307
0.0384724
-0.0299001
0.0115914
0.0362832
-0.0280439
0.00429551
0.0306879
-0.023392
0.0168363
-0.0125408
0.0745849
0.0484854
-0.0840858
0.0651855
0.0485971
0.0559203
0.0485786
0.0467928
0.0484886
0.037795
0.0483549
0.0289186
0.0480691
0.0201984
0.0471925
0.0118049
0.0446767
0.00436003
0.0381327
0.0211963
0.0752144
0.0580608
-0.0847898
0.065811
0.0580005
0.0565466
0.057843
0.0474105
0.0576247
0.0383761
0.0573893
0.0294272
0.057018
0.0206043
0.0560154
0.0120829
0.0531982
0.00448147
0.0457341
0.0256778
0.0741111
0.067586
-0.0836364
0.0646523
0.0674594
0.0553626
0.0671327
0.0462473
0.06674
0.0372965
0.0663401
0.0284948
0.0658197
0.0198644
0.0646458
0.0115605
0.0615021
0.00420927
0.0530853
0.0298871
0.0759628
0.0772087
-0.0855854
0.0665296
0.0768926
0.0571736
0.0764888
0.0478967
0.0760169
0.0386978
0.0755389
0.0295949
0.0749226
0.02066
0.0735807
0.0120729
0.0700892
0.00444098
0.0607173
0.034328
0.069764
0.0864302
-0.0789855
0.060679
0.0859775
0.0518635
0.0853043
0.0432941
0.0845863
0.0349104
0.0839227
0.0266539
0.083179
0.018532
0.0817027
0.0107017
0.0779194
0.00380368
0.0676153
0.0381317
0.0718299
0.0958298
-0.0812294
0.0626378
0.0951696
0.0535323
0.0944098
0.0445267
0.093592
0.0356677
0.0927816
0.0270145
0.0918322
0.0186506
0.0900666
0.0107347
0.0858353
0.00382197
0.0745281
0.0419537
0.0658177
0.104696
-0.0746841
0.0572563
0.103731
0.0489957
0.10267
0.0409303
0.101657
0.032952
0.10076
0.0250349
0.0997493
0.0172595
0.097842
0.00983078
0.093264
0.00341805
0.0809408
0.0453717
0.0612502
0.112646
-0.0692
0.0533854
0.111596
0.0454566
0.110599
0.0376362
0.109478
0.0300195
0.108377
0.022621
0.107148
0.0154758
0.104987
0.00871657
0.100023
0.00294732
0.08671
0.0483191
0.054201
-0.0611998
0.0473356
0.040563
0.0337228
0.0268635
0.020097
0.0135662
0.00746648
0.00240545
0.201646
0.0222778
-0.0259341
0.197878
0.168123
-0.164354
0.191721
0.198588
-0.192431
0.187408
0.169118
-0.164805
0.184268
0.146535
-0.143395
0.180841
0.143724
-0.140297
0.174417
0.149684
-0.14326
0.16321
0.176484
-0.165278
0.135239
0.216226
-0.188255
0.298756
-0.246221
0.201302
0.0189657
0.19658
0.172845
0.18979
0.205377
0.185036
0.173872
0.181761
0.14981
0.178721
0.146764
0.173213
0.155193
0.162329
0.187368
0.135284
0.24327
0.349955
0.200855
0.0161007
0.194923
0.178777
0.187174
0.213127
0.181665
0.179381
0.178081
0.153394
0.175257
0.149588
0.170444
0.160006
0.159613
0.1982
0.133931
0.268952
0.399096
0.200335
0.0137553
0.19293
0.186182
0.183773
0.222283
0.177327
0.185827
0.173504
0.157217
0.170749
0.152343
0.166226
0.164529
0.155206
0.209219
0.130704
0.293455
0.446163
0.199802
0.0119434
0.190625
0.195359
0.179534
0.233374
0.172347
0.193015
0.168512
0.161052
0.165457
0.155398
0.160685
0.169301
0.149087
0.220818
0.128028
0.314514
0.488605
0.1993
0.0106333
0.188034
0.206625
0.174772
0.246637
0.167509
0.200277
0.163589
0.164972
0.159541
0.159445
0.154086
0.174756
0.14193
0.232974
0.121366
0.335077
0.530986
0.198801
0.00982183
0.185333
0.220093
0.170414
0.261556
0.163648
0.207043
0.158935
0.169685
0.153275
0.165105
0.147003
0.181028
0.133473
0.246504
0.11716
0.351391
0.566916
0.198242
0.00956983
0.183039
0.235295
0.16741
0.277186
0.160829
0.213624
0.154847
0.175667
0.147576
0.172375
0.140286
0.188319
0.125449
0.261341
0.11159
0.36525
0.603821
0.197569
0.00999071
0.181739
0.251125
0.166364
0.292562
0.159287
0.220701
0.152895
0.182059
0.144763
0.180506
0.136217
0.196865
0.1197
0.277857
0.104834
0.380117
0.639455
0.19684
0.011141
0.181784
0.26618
0.168077
0.306269
0.161722
0.227056
0.156024
0.187758
0.146504
0.190026
0.134444
0.208925
0.113926
0.298375
0.102518
0.391525
0.680774
0.311805
0.00134626
0.316785
0.2612
0.319742
0.303313
0.323087
0.22371
0.329128
0.181717
0.328071
0.191083
0.332936
0.20406
0.334221
0.29709
0.376402
0.349344
0.612893
0.444283
0.312509
-0.00915252
0.338452
0.235257
0.360194
0.28157
0.373293
0.210611
0.383504
0.171506
0.391477
0.18311
0.395785
0.199752
0.408733
0.284142
0.428659
0.329418
0.558654
0.482898
0.311359
-0.018501
0.357461
0.189155
0.39737
0.241662
0.4199
0.188081
0.433448
0.157958
0.452394
0.164164
0.454804
0.197343
0.482714
0.256231
0.504725
0.307407
0.509243
0.554136
0.309032
-0.0255224
0.367935
0.130252
0.421952
0.187644
0.452433
0.1576
0.468888
0.141503
0.496003
0.137048
0.502134
0.191212
0.535219
0.223147
0.575808
0.266818
0.456737
0.628314
0.306735
-0.0302476
0.369996
0.0669908
0.433271
0.12437
0.469332
0.121539
0.48959
0.121245
0.519372
0.107266
0.532921
0.177663
0.56618
0.189888
0.622516
0.210481
0.3961
0.683153
0.305915
-0.0341519
0.36723
0.00567495
0.433386
0.0582138
0.472094
0.0828314
0.497156
0.0961828
0.524958
0.0794645
0.548658
0.153962
0.584079
0.154467
0.641176
0.153385
0.33104
0.706235
0.307357
-0.0394989
0.360066
-0.0470338
0.42015
-0.00187063
0.457528
0.0454542
0.487393
0.0663169
0.512132
0.054726
0.546703
0.119391
0.585814
0.115356
0.632516
0.106682
0.257436
0.70612
0.309631
-0.0471192
0.342917
-0.0803203
0.382638
-0.0415912
0.411816
0.0162759
0.44318
0.0349526
0.464087
0.0338188
0.507487
0.0759918
0.552184
0.0706589
0.588045
0.0708212
0.170499
0.674982
0.304294
-0.0494026
0.297383
-0.0734094
0.297419
-0.0416278
0.311401
0.00229442
0.335294
0.0110598
0.354422
0.0146908
0.400139
0.030274
0.441201
0.0295976
0.478865
0.0331571
0.0720875
0.577276
0.252608
0.179198
0.13757
0.139865
0.150925
0.165615
0.195889
0.225487
0.258644
0.330732
0.460347
-0.0853946
0.471973
-0.0758745
0.484491
-0.0677678
0.498293
-0.0565974
0.51338
-0.0446869
0.526889
-0.0289432
0.538209
-0.012731
0.54517
0.00785799
0.550466
0.0289988
0.0551068
0.496356
-0.0988527
0.510229
-0.0897476
0.522746
-0.0802841
0.534165
-0.0680165
0.544699
-0.055221
0.553678
-0.0379227
0.562011
-0.0210634
0.568387
0.00148149
0.574673
0.0227127
0.050233
0.559647
-0.104364
0.567664
-0.0977643
0.574154
-0.0867741
0.57907
-0.0729319
0.582534
-0.0586853
0.586124
-0.041513
0.589787
-0.024726
0.593314
-0.00204545
0.598663
0.0173637
0.0436
0.625801
-0.10185
0.62258
-0.0945435
0.619256
-0.0834504
0.616306
-0.0699815
0.613332
-0.0557111
0.611897
-0.0400787
0.611526
-0.0243549
0.614741
-0.00526052
0.618903
0.0132021
0.0352246
0.670772
-0.0894694
0.658007
-0.0817786
0.646574
-0.0720169
0.637405
-0.0608126
0.630391
-0.0486979
0.626329
-0.0360161
0.624774
-0.0227999
0.627357
-0.00784318
0.632134
0.0084242
0.0257274
0.68826
-0.0714945
0.670423
-0.0639412
0.655265
-0.0568592
0.643567
-0.0491148
0.635205
-0.0403354
0.630405
-0.0312166
0.628807
-0.0212019
0.630895
-0.00993117
0.636431
0.00288854
0.0158778
0.683947
-0.0493211
0.664745
-0.0447389
0.648474
-0.0405889
0.635877
-0.0365179
0.626716
-0.0311735
0.621197
-0.0256981
0.618868
-0.0188726
0.62
-0.0110634
0.625167
-0.0022781
0.00669164
0.652741
-0.0270795
0.633659
-0.0256574
0.617089
-0.024019
0.60334
-0.0227687
0.59279
-0.0206229
0.585447
-0.0183553
0.581004
-0.0144302
0.580226
-0.0102855
0.583538
-0.00558966
-0.000908525
0.558836
-0.00863921
0.541724
-0.00854546
0.526174
-0.00846913
0.512071
-0.00866583
0.500427
-0.00897829
0.491205
-0.00913417
0.484886
-0.00811108
0.481506
-0.00690557
0.481271
-0.00535412
-0.00401241
0.322092
0.313547
0.305078
0.296412
0.287434
0.278299
0.270188
0.263283
0.257929
0.00328292
0.0367282
-0.0400111
0.00555429
0.0813046
-0.083576
0.00538459
0.10379
-0.10362
0.0039647
0.113453
-0.112033
0.00255263
0.117108
-0.115696
0.000954936
0.118706
-0.117109
-0.000678624
0.118416
-0.116783
-0.00164181
0.115551
-0.114588
-0.00148963
0.109451
-0.109604
0.0984323
-0.000103846
-0.0998181
0.0046822
0.032046
0.00987139
0.0761154
0.0125146
0.101146
0.0132749
0.112693
0.0136544
0.116729
0.013834
0.118527
0.0135504
0.1187
0.0133159
0.115786
0.0136198
0.109147
0.0977627
0.0142895
0.00560528
0.0264407
0.0137557
0.067965
0.0198153
0.0950867
0.0233367
0.109171
0.0253265
0.114739
0.0269168
0.116937
0.0281554
0.117461
0.0287772
0.115164
0.0289582
0.108966
0.0981828
0.0285382
0.0058115
0.0206292
0.0162001
0.0575764
0.0256973
0.0855895
0.0324062
0.102462
0.0366755
0.11047
0.039844
0.113768
0.0425553
0.11475
0.0443325
0.113386
0.0447692
0.10853
0.0993652
0.0435868
0.00534128
0.0152879
0.0166286
0.0462892
0.0287998
0.0734183
0.0387815
0.0924807
0.0459437
0.103307
0.0512238
0.108488
0.05553
0.110444
0.0588235
0.110093
0.0604254
0.106928
0.100114
0.0596762
0.0044683
0.0108196
0.0152052
0.0355523
0.0285601
0.0600633
0.0411812
0.0798596
0.0514424
0.0930462
0.0594127
0.100518
0.0658004
0.104056
0.0709901
0.104903
0.0746188
0.103299
0.0988338
0.0758995
0.00340856
0.00741107
0.0124328
0.026528
0.0251191
0.0473771
0.0387986
0.06618
0.0514069
0.0804379
0.0621293
0.0897951
0.0710523
0.095133
0.0785057
0.0974498
0.0845095
0.0972952
0.0946859
0.0886574
0.00228264
0.00512842
0.00895526
0.0198554
0.0194812
0.0368511
0.0323369
0.0533243
0.0457205
0.0670544
0.0583786
0.077137
0.0697833
0.0837283
0.0798707
0.0873624
0.0886515
0.0885144
0.0873382
0.0959992
0.00115857
0.00396985
0.0053295
0.0156845
0.0129613
0.0292193
0.0235624
0.0427232
0.0359468
0.05467
0.0489104
0.0641734
0.0616197
0.0710189
0.0736257
0.0753565
0.0847679
0.0773722
0.0768747
0.0952313
0.000194279
0.00377557
0.00222865
0.0136501
0.00713086
0.0243171
0.0150758
0.0347783
0.0254809
0.0442649
0.0374839
0.0521704
0.0503199
0.0581829
0.0634323
0.0622442
0.0764466
0.0643579
0.0644475
0.0888739
-0.000469493
0.00424506
0.000108063
0.0130726
0.00296155
0.0214636
0.00855459
0.0291853
0.0166961
0.0361234
0.0268724
0.0419942
0.038516
0.0465392
0.0510764
0.0496838
0.0638329
0.0516013
0.053047
0.0752334
-0.000754429
0.00499949
-0.00090737
0.0132255
0.000676819
0.0198794
0.00450014
0.0253619
0.0105313
0.0300922
0.018432
0.0340934
0.0277705
0.0372007
0.0380434
0.0394109
0.048637
0.0410077
0.0426425
0.0590416
-0.000757752
0.00575725
-0.00119834
0.0136661
-0.000400753
0.0190818
0.00203931
0.0229219
0.00620821
0.0259233
0.0116954
0.0286063
0.0182033
0.0306928
0.0254158
0.0321985
0.0330368
0.0333867
0.0345998
0.0410795
-0.000664997
0.00642224
-0.00127487
0.014276
-0.00118034
0.0189873
-7.53889e-05
0.0218169
0.00202369
0.0238242
0.00498067
0.0256493
0.00873485
0.0269386
0.013187
0.0277464
0.0182372
0.0283364
0.0288559
0.0239812
-0.00100855
0.00743079
-0.00227518
0.0155426
-0.00310778
0.0198199
-0.00337582
0.022085
-0.00315022
0.0235986
-0.00226248
0.0247615
-0.000607646
0.0252837
0.00175931
0.0253794
0.00479382
0.0253019
0.0251042
0.00854552
-0.00165177
0.00908256
-0.00378614
0.017677
-0.00548597
0.0215197
-0.00672747
0.0233265
-0.00758084
0.024452
-0.00800096
0.0251817
-0.00798829
0.0252711
-0.0074229
0.024814
-0.00621116
0.0240902
0.0232002
-0.00430718
-0.00194136
0.0110239
-0.00464548
0.0203811
-0.00724329
0.0241175
-0.00963385
0.025717
-0.0116799
0.0264981
-0.0132656
0.0267674
-0.0144283
0.0264338
-0.0151405
0.0255262
-0.0152778
0.0242275
0.0226502
-0.0147278
-0.00211757
0.0131415
-0.00536042
0.0236239
-0.00880555
0.0275627
-0.0121931
0.0291046
-0.0152924
0.0295974
-0.0179492
0.0294241
-0.0201644
0.0286491
-0.0219328
0.0272945
-0.023164
0.0254587
0.0232459
-0.0237596
-0.00228423
0.0154257
-0.00596414
0.0273039
-0.00999131
0.0315898
-0.0140214
0.0331347
-0.0178356
0.0334116
-0.0212958
0.0328843
-0.0243548
0.031708
-0.0269823
0.0299221
-0.0290983
0.0275747
0.0247556
-0.0306081
-0.00231648
-0.00616942
-0.0104173
-0.0147084
-0.0188641
-0.0227646
-0.0263414
-0.0295391
-0.0322723
-0.0344446
0.0695855
0.20097
-0.195322
0.0651634
0.151641
-0.147219
0.0714933
0.0583934
-0.0647233
0.0818839
-0.00660292
-0.00378763
0.0932801
-0.0416907
0.0302945
0.104909
-0.052394
0.0407649
0.115815
-0.0501829
0.0392766
0.125368
-0.0425323
0.03298
0.133713
-0.0321393
0.0237946
-0.0175552
0.0119098
0.0580641
0.201947
0.0601541
0.149551
0.0723229
0.0462246
0.0860897
-0.0203698
0.0986175
-0.0542185
0.110109
-0.0638851
0.120398
-0.0604718
0.129125
-0.0512594
0.136493
-0.0395075
-0.0222014
0.0452091
0.197818
0.0554848
0.139275
0.0733911
0.0283183
0.0898708
-0.0368494
0.103658
-0.0680061
0.115097
-0.0753237
0.124751
-0.0701255
0.132572
-0.0590809
0.138905
-0.0458409
-0.0259186
0.0330855
0.188713
0.0524538
0.119907
0.0754227
0.00534938
0.0941539
-0.0555805
0.108882
-0.0827345
0.120254
-0.0866953
0.129231
-0.0791026
0.136074
-0.0659239
0.141331
-0.0510979
-0.0287616
0.022426
0.174833
0.0510338
0.0912992
0.0782523
-0.0218691
0.0989925
-0.0763207
0.114455
-0.0981973
0.125701
-0.0979415
0.133965
-0.0873658
0.139798
-0.0717571
0.143957
-0.0552567
-0.0307602
0.0131995
0.157326
0.05052
0.0539787
0.0812268
-0.0525759
0.103892
-0.0989859
0.120001
-0.114306
0.131135
-0.109075
0.138743
-0.0949743
0.143653
-0.0766669
0.146783
-0.0583863
-0.0319651
0.00513387
0.137465
0.0499762
0.00913631
0.083504
-0.0861037
0.108074
-0.123556
0.124876
-0.131108
0.136033
-0.120233
0.143168
-0.10211
0.147363
-0.0808612
0.149649
-0.0606729
-0.032484
-0.00193784
0.115643
0.0484208
-0.0412224
0.0842971
-0.12198
0.110839
-0.150097
0.128548
-0.148817
0.139975
-0.13166
0.146899
-0.109034
0.150648
-0.0846096
0.152352
-0.0623766
-0.0324764
-0.00893649
0.0939712
0.0449944
-0.0951532
0.0830811
-0.160067
0.111753
-0.17877
0.130726
-0.16779
0.142736
-0.14367
0.149751
-0.116049
0.153336
-0.0881949
0.15474
-0.0637809
-0.0321284
-0.015095
0.0390814
0.0795396
0.110594
0.131275
0.144226
0.151651
0.155353
0.15674
0.025913
0.0189506
-0.0448636
0.0153125
0.0106004
0.0116166
0.00369598
0.012118
-0.000501396
0.0154602
-0.00334228
0.0193701
-0.00390987
0.0228843
-0.00351419
0.025945
-0.00306067
0.0277475
-0.00180251
-0.000673583
0.0895699
0.0553324
-0.125952
0.0613335
0.0388368
0.0500625
0.014967
0.0498075
-0.000246335
0.0554463
-0.00898114
0.0625885
-0.011052
0.069229
-0.0101548
0.0748408
-0.00867247
0.0783308
-0.00529247
-0.00215583
0.129514
0.0994125
-0.173594
0.0939271
0.0744237
0.0781375
0.0307566
0.0767114
0.00117976
0.0829031
-0.0151728
0.0915866
-0.0197355
0.100137
-0.0187056
0.107305
-0.0158397
0.112331
-0.010319
-0.00469633
0.144148
0.14812
-0.192855
0.107083
0.111489
0.0895862
0.0482532
0.0877171
0.00304884
0.0948106
-0.0222663
0.104849
-0.0297743
0.114789
-0.0286449
0.12309
-0.0241411
0.129518
-0.0167474
-0.00817355
0.144132
-0.191334
0.108402
0.0919316
0.0911928
0.0992209
0.110211
0.120843
0.129682
0.136729
0.00752503
0.000178489
-0.00770352
0.00821864
-0.000693613
0.00964137
-0.00142272
0.0116793
-0.00203797
0.0142306
-0.00255128
0.0174092
-0.00317859
0.0216804
-0.00427119
0.0273663
-0.00568595
0.0355129
-0.00814652
-0.00935069
0.0196391
0.00047643
-0.0199371
0.0215096
-0.00256412
0.0253493
-0.00526239
0.0311104
-0.00779908
0.0389332
-0.010374
0.0494093
-0.0136547
0.063222
-0.0180839
0.0804733
-0.0229373
0.102182
-0.0298549
-0.0331207
0.02948
0.000679438
-0.029683
0.0324222
-0.00550634
0.038393
-0.0112332
0.047553
-0.0169591
0.0603076
-0.0231286
0.0773331
-0.0306803
0.0983596
-0.0391104
0.122745
-0.0473231
0.149198
-0.0563074
-0.0575169
0.0374263
0.000603141
-0.03735
0.0413566
-0.00943666
0.0492033
-0.01908
0.0613339
-0.0290897
0.0782168
-0.0400115
0.0998573
-0.0523208
0.124648
-0.0639014
0.150866
-0.0735404
0.174487
-0.0799289
-0.0758849
0.0437763
-0.043277
0.0486292
0.0580874
0.0725845
0.0922491
0.115828
0.140584
0.163043
0.178345
0.051944
-0.0442073
0.0515755
-0.0593122
0.044999
-0.043081
0.050026
0.0386303
-0.042202
0.0485707
0.0325382
-0.0413281
0.0474202
0.0264706
-0.0403782
0.0464458
0.0203207
-0.0392066
0.0453566
0.0141347
-0.0374768
0.0436627
0.00812358
-0.0344848
0.040496
0.00287714
-0.0286612
0.0339076
-0.0157065
0.0185836
0.0577615
-0.0371923
-0.0647764
0.050855
-0.0361745
0.0437901
-0.0351372
0.0365936
-0.0341317
0.0293586
-0.0331431
0.0222
-0.032048
0.0152517
-0.0305285
0.00872199
-0.0279551
0.0031296
-0.0230688
-0.0125769
0.0580628
-0.029615
-0.0656401
0.0504795
-0.0285911
0.0429855
-0.0276432
0.0356214
-0.0267676
0.028422
-0.0259437
0.0214206
-0.0250467
0.0146831
-0.0237909
0.00837779
-0.0216498
0.00299622
-0.0176872
-0.00958069
0.0588785
-0.0218515
-0.066642
0.0512379
-0.0209505
0.043705
-0.0201103
0.0362857
-0.0193484
0.0289875
-0.0186454
0.021846
-0.0179052
0.0149611
-0.016906
0.00854908
-0.0152378
0.00310026
-0.0122384
-0.00648043
0.0602325
-0.013921
-0.068163
0.0523703
-0.0130883
0.0445875
-0.0123275
0.0368903
-0.0116512
0.0292962
-0.0110513
0.0218653
-0.0104743
0.014754
-0.00979478
0.00827488
-0.00875863
0.00296625
-0.00692977
-0.00351418
0.0618232
-0.00574152
-0.0700027
0.0537132
-0.00497828
0.0456637
-0.00427803
0.0376676
-0.00365511
0.0297294
-0.00311305
0.0219097
-0.00265462
0.0144115
-0.00229661
0.00769526
-0.00204237
0.00252228
-0.0017568
-0.000991896
0.0639946
0.00270628
-0.0724424
0.0556217
0.00339461
0.0473174
0.00402634
0.0390695
0.00459278
0.0308722
0.00508425
0.0227666
0.00545094
0.0149256
0.00554436
0.00780907
0.00507419
0.00235606
0.00369622
0.00136416
0.0665475
0.0114203
-0.0752615
0.0579314
0.0120107
0.0494214
0.0125364
0.0410156
0.0129986
0.0327138
0.013386
0.0245463
0.0136184
0.0166345
0.0134562
0.00929889
0.0124098
0.00323902
0.00975608
0.00460318
0.0691281
0.020393
-0.0781009
0.0602736
0.0208653
0.0515496
0.0212604
0.0429587
0.0215894
0.0344996
0.0218452
0.0261867
0.0219312
0.0180944
0.0215484
0.0104432
0.020061
0.00382525
0.0163741
0.00842843
0.0714837
-0.0806865
0.0624051
0.0534647
0.0446649
0.0359983
0.0274648
0.0191132
0.0111303
0.00411235
0.0160252
-0.100893
-0.0149501
0.0152011