/*--------------------------------*- C++ -*----------------------------------*\
| =========                 |                                                 |
| \\      /  F ield         | OpenFOAM: The Open Source CFD Toolbox           |
|  \\    /   O peration     | Version:  2406                                  |
|   \\  /    A nd           | Website:  www.openfoam.com                      |
|    \\/     M anipulation  |                                                 |
\*---------------------------------------------------------------------------*/
FoamFile
{
    version     2.0;
    format      ascii;
    arch        "LSB;label=32;scalar=64";
    class       volVectorField;
    location    "0.7";
    object      U;
}
// * * * * * * * * * * * * * * * * * * * * * * * * * * * * * * * * * * * * * //

dimensions      [0 1 -1 0 0 0 0];

internalField   nonuniform List<vector> 
1800
(
(-0.0218239 0.0317045 0)
(-0.0594803 0.09081 -8.33086e-21)
(-0.0562663 0.146243 -4.90425e-20)
(-0.0182307 0.183883 -1.6373e-20)
(0.0496243 0.207085 -8.61629e-20)
(0.138876 0.224225 -4.55068e-20)
(0.24066 0.242362 4.98553e-20)
(0.348627 0.26514 4.20485e-19)
(0.465389 0.291097 0)
(0.548457 0.349223 -6.37944e-21)
(-0.0065959 0.0121874 -3.6793e-20)
(-0.0221816 0.0368563 -1.34824e-19)
(-0.000437415 0.0644964 5.85607e-20)
(0.0650053 0.0803771 7.0475e-20)
(0.164722 0.0865174 -1.28049e-20)
(0.284301 0.0907821 6.10452e-20)
(0.41164 0.0973038 -4.67352e-20)
(0.54046 0.107005 -3.68638e-19)
(0.673252 0.11678 1.39392e-19)
(0.762632 0.155098 2.11061e-19)
(-0.00106968 0.00175682 4.29385e-21)
(0.00819292 0.00199313 -3.6516e-20)
(0.0698039 0.00588087 -2.16189e-20)
(0.179106 0.00332908 2.33794e-20)
(0.316939 0.000170555 -6.16847e-21)
(0.464582 0.00186754 -4.18814e-21)
(0.609749 0.00965982 -1.87391e-21)
(0.747501 0.0226314 1.90977e-19)
(0.881384 0.0406117 -2.05541e-19)
(0.971514 0.0641534 -5.1756e-19)
(0.00238791 -0.000424079 2.98284e-20)
(0.0530752 -0.0182732 8.52459e-20)
(0.172876 -0.0337598 -6.10357e-20)
(0.334906 -0.0466049 -6.33235e-22)
(0.510798 -0.0521635 8.35676e-20)
(0.68164 -0.0483943 -9.20927e-21)
(0.838364 -0.0369334 4.90148e-21)
(0.980016 -0.0201428 1.18426e-20)
(1.11279 0.00209426 -2.05868e-21)
(1.19904 0.0222915 -6.47678e-20)
(0.0159401 -0.00391953 -2.38028e-20)
(0.125449 -0.0361691 5.17996e-20)
(0.309393 -0.0569829 5.10384e-20)
(0.521384 -0.0682235 -8.02867e-20)
(0.727211 -0.0678744 -2.87741e-20)
(0.910782 -0.0570573 3.44276e-20)
(1.06901 -0.0392966 1.54374e-20)
(1.20689 -0.0173428 1.33429e-20)
(1.33333 0.00881325 -1.30698e-20)
(1.42165 0.0265924 7.49796e-21)
(0.041984 -0.00931205 4.84474e-22)
(0.225397 -0.0502175 1.75077e-19)
(0.475263 -0.0667197 9.7306e-20)
(0.728021 -0.0683377 -1.18034e-19)
(0.949446 -0.0580022 8.66121e-20)
(1.13197 -0.0396514 -9.09487e-21)
(1.28227 -0.0174216 6.74172e-20)
(1.41288 0.00647761 9.83489e-20)
(1.53611 0.0320173 -9.73031e-20)
(1.64417 0.0479507 -7.75337e-20)
(0.0817105 -0.0139906 -3.36469e-20)
(0.35142 -0.0550292 -2.52776e-19)
(0.661253 -0.0585915 2.49597e-20)
(0.936947 -0.0463803 2.88978e-19)
(1.15511 -0.0263415 -1.89557e-20)
(1.32383 -0.00309872 -1.54679e-19)
(1.46171 0.0205056 -8.4902e-20)
(1.58792 0.0438127 2.72638e-19)
(1.7173 0.0671688 2.90869e-19)
(1.8542 0.0859225 2.91003e-20)
(0.135819 -0.0150327 3.42934e-20)
(0.497165 -0.0446411 3.99785e-20)
(0.850102 -0.0293078 -1.16779e-19)
(1.12638 -0.00407026 5.96392e-20)
(1.32649 0.0217888 -1.43183e-21)
(1.47741 0.046145 -5.0908e-19)
(1.60729 0.0688944 -9.38335e-21)
(1.73824 0.0913049 3.7285e-19)
(1.88364 0.114524 -2.40345e-19)
(2.04545 0.13695 -2.74502e-19)
(0.202581 -0.00928982 1.22351e-19)
(0.649494 -0.0151055 1.21362e-19)
(1.02161 0.0204802 -2.87128e-19)
(1.28051 0.0549182 -6.33315e-20)
(1.45758 0.0830339 3.35635e-21)
(1.59477 0.106962 1.8896e-19)
(1.72418 0.129164 -3.63395e-19)
(1.86624 0.152011 -2.03742e-19)
(2.02675 0.17639 5.22762e-19)
(2.19373 0.201785 1.29656e-19)
(0.277393 0.00589391 2.91546e-20)
(0.792729 0.0339674 2.80811e-19)
(1.16216 0.0876076 -2.47619e-19)
(1.39575 0.127579 -1.00396e-19)
(1.5525 0.156585 1.01715e-19)
(1.68171 0.180487 -1.20194e-19)
(1.81467 0.203198 2.39009e-19)
(1.96656 0.227178 2.26846e-20)
(2.13201 0.252046 -2.30778e-19)
(2.28743 0.27476 -8.22598e-20)
(-0.0157748 0.235113 -3.25234e-20)
(-0.0383471 0.41201 1.2412e-19)
(-0.0637266 0.472252 8.01515e-20)
(-0.0859092 0.491684 -1.03992e-19)
(-0.106251 0.492081 -1.15912e-22)
(-0.124235 0.480312 4.15619e-20)
(-0.139561 0.459211 2.75785e-20)
(-0.152306 0.429485 -5.78755e-20)
(-0.162182 0.391221 2.62709e-22)
(-0.168785 0.345285 3.04437e-21)
(-0.035221 0.257557 4.05837e-20)
(-0.0714587 0.451391 4.46647e-23)
(-0.0987904 0.514473 2.68573e-20)
(-0.119449 0.533629 -1.3429e-19)
(-0.137207 0.532675 -1.12574e-19)
(-0.152377 0.518607 -6.30909e-20)
(-0.164719 0.494336 5.74255e-20)
(-0.174318 0.46064 0)
(-0.180843 0.417461 -1.74843e-20)
(-0.183696 0.365536 6.34663e-20)
(-0.0561615 0.271226 -7.49516e-24)
(-0.106855 0.478715 -1.58625e-19)
(-0.134981 0.544596 -1.034e-19)
(-0.152055 0.56507 9.89313e-20)
(-0.164818 0.564568 -1.57962e-20)
(-0.174988 0.55014 -5.9331e-20)
(-0.18264 0.52491 -1.04221e-20)
(-0.18741 0.489539 -4.17351e-21)
(-0.188811 0.443676 -1.41481e-20)
(-0.18622 0.387869 -8.51798e-20)
(-0.0774552 0.275541 3.56538e-20)
(-0.143628 0.493106 3.91675e-20)
(-0.171399 0.560626 6.98849e-21)
(-0.180957 0.579501 9.429e-20)
(-0.187262 0.583368 -2.28737e-20)
(-0.190156 0.573728 3.32593e-20)
(-0.191245 0.549787 -2.20817e-20)
(-0.18982 0.514454 0)
(-0.18472 0.468134 -6.24297e-20)
(-0.175069 0.410631 -2.04976e-19)
(-0.0938104 0.267214 -5.51278e-20)
(-0.170147 0.488044 2.58263e-20)
(-0.191737 0.556991 1.09532e-19)
(-0.195679 0.572626 -2.14094e-20)
(-0.196739 0.57808 1.66754e-20)
(-0.19589 0.577608 3.38304e-20)
(-0.191253 0.563486 -5.7684e-20)
(-0.182625 0.533254 1.08415e-19)
(-0.169802 0.489377 -1.46705e-19)
(-0.1511 0.432526 -1.42564e-19)
(-0.101008 0.241169 -5.0027e-20)
(-0.184075 0.458205 -1.28281e-20)
(-0.203576 0.536865 -6.81344e-20)
(-0.206178 0.56318 1.69361e-20)
(-0.201896 0.57266 1.44661e-19)
(-0.194002 0.571385 -1.68308e-19)
(-0.181009 0.560269 -1.87349e-20)
(-0.162911 0.537209 1.20451e-19)
(-0.139764 0.500515 -3.35866e-19)
(-0.108877 0.448236 -1.06621e-19)
(-0.0982312 0.200849 3.00131e-21)
(-0.185891 0.404707 3.23944e-20)
(-0.204731 0.493838 3.76656e-21)
(-0.202406 0.531938 1.89128e-19)
(-0.190702 0.548261 2.48134e-21)
(-0.172952 0.551689 -2.58192e-19)
(-0.149706 0.544691 -2.18941e-19)
(-0.121833 0.527248 -2.06497e-19)
(-0.088602 0.497503 5.04767e-19)
(-0.044143 0.451021 3.97323e-19)
(-0.0856092 0.15319 -8.97792e-23)
(-0.172075 0.333086 -2.00811e-20)
(-0.189518 0.429121 2.16002e-20)
(-0.181254 0.47815 -8.50585e-20)
(-0.160098 0.503355 -2.04242e-19)
(-0.130687 0.514564 1.29415e-19)
(-0.0952999 0.515675 -1.34379e-19)
(-0.0558269 0.507181 1.92608e-20)
(-0.0114417 0.486614 4.47723e-19)
(0.0484192 0.448524 -1.03041e-20)
(-0.0650343 0.104401 -1.40459e-20)
(-0.141603 0.248793 -1.9838e-21)
(-0.155231 0.342791 -5.26589e-21)
(-0.140057 0.398423 4.35591e-20)
(-0.107563 0.431389 1.08278e-20)
(-0.0634674 0.451084 2.60151e-19)
(-0.0118798 0.462746 6.73211e-20)
(0.0436105 0.467591 1.93109e-19)
(0.102254 0.462215 -6.07144e-21)
(0.180485 0.438972 -7.3785e-19)
(-0.0423471 0.0621315 -2.24803e-20)
(-0.101853 0.16341 -3.05873e-20)
(-0.109548 0.242783 6.03609e-21)
(-0.0866571 0.294858 -8.31025e-20)
(-0.041351 0.328108 9.91785e-20)
(0.0197465 0.351114 4.02832e-19)
(0.0899436 0.370559 1.33999e-19)
(0.163234 0.389701 -4.48766e-19)
(0.236671 0.407682 -5.97346e-19)
(0.327655 0.418814 -6.3494e-19)
(-0.188003 0.0920451 -5.20308e-19)
(0.0149171 -0.244332 -5.62304e-19)
(0.275387 -0.307908 -1.79213e-19)
(0.441954 -0.314653 3.31526e-20)
(0.582011 -0.277835 4.51091e-20)
(0.673403 -0.228044 4.47386e-21)
(0.729417 -0.178022 -6.60305e-20)
(0.765672 -0.131506 2.31513e-20)
(0.785081 -0.0927452 -1.46351e-20)
(0.797102 -0.0448017 -8.03264e-21)
(-0.182282 0.0776016 -5.02042e-19)
(-0.0142423 -0.311595 1.89783e-20)
(0.257406 -0.369778 -9.79677e-20)
(0.433231 -0.364071 -3.89079e-20)
(0.581774 -0.312326 5.18439e-20)
(0.677575 -0.250394 -9.48882e-20)
(0.735555 -0.191723 4.0642e-20)
(0.772202 -0.139519 7.2835e-22)
(0.792124 -0.0974257 -2.77792e-20)
(0.80453 -0.0465778 1.68002e-20)
(-0.160312 0.0755058 8.42388e-19)
(-0.0306105 -0.368208 7.09601e-19)
(0.248474 -0.433921 7.91155e-20)
(0.429871 -0.416174 -3.03128e-20)
(0.583607 -0.349216 -6.78261e-20)
(0.682032 -0.274161 1.53603e-21)
(0.74113 -0.206189 1.78933e-20)
(0.778108 -0.14792 -2.51557e-20)
(0.798484 -0.102478 5.66487e-22)
(0.811789 -0.0484857 -5.42866e-22)
(-0.121162 0.0857335 8.61878e-19)
(-0.0136594 -0.41129 -1.49814e-20)
(0.267676 -0.497541 4.8557e-20)
(0.446226 -0.468879 2.61701e-20)
(0.596755 -0.387119 1.99572e-20)
(0.692491 -0.298559 1.89152e-20)
(0.749749 -0.22108 -3.29827e-20)
(0.785914 -0.156577 0)
(0.806034 -0.10791 0)
(0.820398 -0.0505749 -2.29148e-23)
(-0.0601146 0.104076 -6.40586e-20)
(0.0569117 -0.442232 -7.09076e-19)
(0.339697 -0.557748 -1.1749e-20)
(0.503538 -0.519373 -2.76126e-20)
(0.636865 -0.423651 1.27276e-21)
(0.719641 -0.322144 7.50079e-20)
(0.768514 -0.235647 1.83013e-21)
(0.800527 -0.165111 -1.36504e-20)
(0.818422 -0.113583 -4.03058e-20)
(0.833239 -0.0528743 -1.67835e-21)
(0.0248891 0.123143 -1.97399e-19)
(0.195775 -0.468223 -3.26788e-19)
(0.481458 -0.613313 -6.83272e-19)
(0.622443 -0.564826 8.72838e-21)
(0.723741 -0.455672 2.08708e-22)
(0.779898 -0.342562 4.00256e-20)
(0.809768 -0.24841 1.39359e-20)
(0.83093 -0.172662 -5.96891e-20)
(0.842526 -0.11907 6.70983e-22)
(0.855645 -0.0553283 -1.94802e-20)
(0.139947 0.133967 -4.25894e-21)
(0.400802 -0.49624 7.73822e-21)
(0.6827 -0.665391 3.19618e-19)
(0.803461 -0.604429 -8.22594e-20)
(0.868248 -0.4805 -1.35831e-20)
(0.888767 -0.356693 -3.59659e-20)
(0.889057 -0.256822 -2.89599e-21)
(0.890445 -0.177543 1.35412e-20)
(0.889655 -0.123366 1.62922e-20)
(0.896649 -0.0576578 8.87454e-21)
(0.285859 0.149777 1.25755e-19)
(0.635589 -0.521832 1.73156e-18)
(0.904182 -0.714632 4.9617e-19)
(1.01597 -0.641988 3.43244e-20)
(1.05576 -0.500002 -2.96632e-20)
(1.04524 -0.36391 1.1755e-20)
(1.01394 -0.259007 -3.81402e-20)
(0.990186 -0.177897 3.53293e-20)
(0.97216 -0.124914 -2.07545e-22)
(0.967591 -0.0592624 -3.16566e-21)
(0.482949 0.132244 3.34475e-19)
(0.855942 -0.532333 5.424e-19)
(1.10462 -0.752826 -8.27939e-19)
(1.21816 -0.678431 3.62745e-19)
(1.25206 -0.518028 -8.49597e-20)
(1.22609 -0.36725 -1.43348e-20)
(1.17224 -0.256218 -3.84131e-21)
(1.1264 -0.173698 2.31109e-22)
(1.09203 -0.122839 -5.08864e-21)
(1.07364 -0.0595059 -3.36297e-21)
(0.672163 0.179547 1.70046e-19)
(1.06386 -0.509327 -1.20549e-18)
(1.28014 -0.775861 -6.65977e-19)
(1.38788 -0.71149 2.87349e-19)
(1.42692 -0.535098 -1.16751e-19)
(1.40172 -0.368414 2.1158e-20)
(1.33857 -0.250247 -6.14905e-20)
(1.27882 -0.166424 -3.08633e-22)
(1.23379 -0.117948 -3.04858e-21)
(1.20391 -0.0583327 -4.07802e-21)
(1.01705 0.105396 -3.2789e-19)
(1.37639 -0.558982 -1.55681e-19)
(1.54166 -0.818918 -7.77071e-20)
(1.59971 -0.755231 -1.29897e-19)
(1.62096 -0.556709 8.32505e-20)
(1.59809 -0.366105 5.61618e-21)
(1.53437 -0.235702 2.37596e-20)
(1.46741 -0.150586 1.89004e-20)
(1.41628 -0.106143 -4.02864e-20)
(1.37589 -0.0541922 5.07276e-21)
(1.68642 -0.122721 1.01023e-19)
(2.02809 -0.690194 -2.83214e-19)
(2.04928 -0.863907 -1.89043e-19)
(1.93037 -0.754196 7.40855e-23)
(1.82816 -0.538371 1.03423e-19)
(1.75905 -0.341326 1.35496e-19)
(1.69009 -0.20911 1.19343e-19)
(1.62688 -0.127741 -1.51382e-20)
(1.58179 -0.0892483 5.80461e-20)
(1.54085 -0.046762 1.47401e-20)
(2.46733 -0.264601 1.78094e-20)
(2.63848 -0.683753 -5.00763e-20)
(2.50794 -0.778162 8.69783e-20)
(2.28266 -0.665306 2.45542e-35)
(2.07408 -0.473234 -3.12863e-20)
(1.92947 -0.296836 -5.42471e-34)
(1.82402 -0.17644 8.40387e-21)
(1.74958 -0.103862 3.91287e-35)
(1.70014 -0.0720838 -8.55902e-23)
(1.65792 -0.0393791 -1.51467e-21)
(2.94348 -0.360648 1.8681e-20)
(2.89872 -0.701678 4.36365e-19)
(2.64754 -0.757762 1.43802e-19)
(2.3905 -0.621182 0)
(2.1664 -0.420599 -1.21236e-19)
(2.00146 -0.251571 -1.10554e-19)
(1.88239 -0.142589 -8.56358e-20)
(1.80285 -0.0797002 6.42225e-34)
(1.75047 -0.0539023 -2.74859e-20)
(1.70815 -0.0303637 5.9455e-22)
(3.13912 -0.402463 9.34423e-21)
(3.06126 -0.62563 1.68613e-20)
(2.8124 -0.619907 0)
(2.52152 -0.488114 0)
(2.24527 -0.316709 0)
(2.03888 -0.180195 0)
(1.89891 -0.0975118 3.22838e-21)
(1.81197 -0.0524215 7.66609e-34)
(1.75707 -0.0354133 -8.60867e-22)
(1.71276 -0.0234471 2.30001e-36)
(3.24613 -0.402374 1.75956e-19)
(3.10513 -0.564878 0)
(2.80118 -0.546892 0)
(2.48198 -0.409759 0)
(2.19981 -0.239387 0)
(1.99373 -0.118848 0)
(1.8588 -0.0569002 -7.37422e-21)
(1.77864 -0.0273119 5.29264e-20)
(1.73133 -0.0186365 -1.22895e-21)
(1.69272 -0.0160209 1.04158e-20)
(3.26251 -0.387198 0)
(3.06742 -0.478402 1.59383e-19)
(2.70521 -0.414724 8.62018e-21)
(2.32843 -0.280458 0)
(2.03127 -0.139946 -9.27128e-20)
(1.84145 -0.0525562 -7.01313e-20)
(1.73208 -0.0167717 -5.32535e-20)
(1.67088 -0.00366151 -2.69512e-20)
(1.6395 -0.0032202 2.65073e-20)
(1.60708 -0.00755244 -6.91497e-21)
(3.08776 -0.342184 1.74657e-20)
(2.77335 -0.358994 9.65988e-21)
(2.3188 -0.273881 -1.95017e-20)
(1.9104 -0.157466 -6.71311e-36)
(1.64701 -0.0555063 1.8186e-20)
(1.51148 -0.0036772 -4.19871e-34)
(1.44863 0.00961921 -9.69401e-21)
(1.4172 0.0100595 -1.82404e-20)
(1.40643 0.00558176 -1.72795e-21)
(1.38479 -0.00220447 3.10743e-21)
(2.35111 -0.243549 0)
(1.89454 -0.177787 -2.71912e-20)
(1.43502 -0.0807789 1.71474e-20)
(1.12925 -0.0212747 0)
(0.994442 0.0117561 2.78297e-20)
(0.956984 0.0222775 2.12493e-20)
(0.956708 0.0191465 3.9704e-21)
(0.962844 0.0135236 8.6518e-21)
(0.974294 0.00804212 -1.10616e-20)
(0.968287 0.00114862 -1.87787e-21)
(0.722427 -0.0599386 1.32541e-20)
(0.428611 -0.0145044 0)
(0.275129 0.000584728 0)
(0.217511 0.00361445 0)
(0.226343 0.00720334 0)
(0.261496 0.00791663 0)
(0.299048 0.00623664 -1.0361e-20)
(0.327768 0.00425235 3.14984e-35)
(0.348588 0.00259013 -2.0661e-21)
(0.355168 0.000577886 -3.5987e-21)
(2.51394 0.308309 4.23408e-19)
(2.48223 0.249724 1.64556e-19)
(2.39454 0.204062 2.89348e-19)
(2.25856 0.149075 -2.71837e-19)
(2.05479 0.113995 6.76127e-20)
(1.81754 0.0745974 2.60813e-20)
(1.52391 0.0570774 -9.99638e-20)
(1.24323 0.0834453 -4.00872e-20)
(1.0065 0.115369 1.31497e-19)
(0.71655 0.353459 1.36593e-19)
(2.65209 0.272953 -2.36457e-19)
(2.65978 0.246685 4.83992e-20)
(2.64731 0.201378 1.70754e-19)
(2.59813 0.189716 1.41012e-19)
(2.51646 0.138484 -1.9498e-19)
(2.36516 0.14232 2.08646e-20)
(2.23311 0.0867355 -1.74897e-19)
(1.92214 0.13777 -4.76322e-20)
(1.83188 0.0687395 -1.70268e-19)
(1.26754 0.230689 -2.20415e-19)
(2.78882 0.239884 3.18834e-20)
(2.76497 0.227382 -1.61237e-19)
(2.83963 0.17199 -2.2016e-19)
(2.76342 0.184219 4.6406e-19)
(2.84137 0.122011 2.16975e-20)
(2.66582 0.145592 -6.93341e-20)
(2.7602 0.0609654 -9.61691e-20)
(2.44044 0.116115 -7.93318e-20)
(2.57358 0.00920549 1.42097e-19)
(2.09028 0.121435 -9.71008e-21)
(2.89262 0.211661 6.55687e-20)
(2.86673 0.192513 -2.15723e-19)
(2.96599 0.145941 3.36162e-20)
(2.89279 0.148991 -1.59379e-19)
(3.01677 0.0963942 2.87827e-19)
(2.87277 0.110133 -7.95383e-20)
(3.01482 0.0237566 9.63667e-20)
(2.79437 0.051698 -1.48734e-19)
(2.94236 -0.0633817 -3.646e-19)
(2.67229 -0.00542906 -1.72578e-19)
(2.95149 0.174217 1.15118e-19)
(2.95899 0.14237 -3.44504e-19)
(3.03341 0.10949 -2.32056e-20)
(3.01526 0.0948596 -3.67467e-20)
(3.09464 0.0608784 -1.1957e-20)
(3.04453 0.0544403 -2.72996e-21)
(3.12105 -0.00521175 5.49403e-20)
(3.03407 -0.0146934 -8.82964e-20)
(3.10295 -0.107139 -1.64237e-19)
(2.99355 -0.107142 -2.48634e-19)
(2.9689 0.129098 2.13628e-19)
(3.00111 0.0956829 4.39276e-20)
(3.05798 0.0732166 -2.38796e-19)
(3.07558 0.052074 1.36539e-19)
(3.12697 0.03049 1.39699e-19)
(3.12934 0.013459 -7.00724e-20)
(3.17385 -0.0257915 1.43449e-19)
(3.15751 -0.0541637 3.23234e-20)
(3.19264 -0.122222 -2.20989e-19)
(3.15303 -0.156735 -2.95727e-19)
(2.91153 0.0753521 1.52686e-20)
(2.95634 0.0465533 7.8769e-20)
(3.00474 0.0327256 -9.12935e-20)
(3.04128 0.0132175 -3.29022e-20)
(3.08435 0.000949623 1.57084e-19)
(3.11511 -0.0196346 9.58304e-21)
(3.15473 -0.0478822 1.13704e-19)
(3.17693 -0.0824501 1.34091e-19)
(3.20819 -0.136048 5.42495e-20)
(3.21875 -0.181504 1.23836e-19)
(2.70525 0.0258676 2.40904e-20)
(2.7579 0.00668651 -3.19394e-22)
(2.7855 0.00129832 -8.75968e-20)
(2.84001 -0.0134694 -6.99958e-20)
(2.86557 -0.0161668 -1.35934e-20)
(2.92918 -0.0404201 -3.21451e-20)
(2.95262 -0.0559834 -4.45085e-21)
(3.02928 -0.0990925 1.08556e-19)
(3.0384 -0.13814 -8.72019e-20)
(3.11826 -0.191957 -1.01435e-19)
(2.20231 -0.017812 7.56449e-20)
(2.24985 -0.0235676 -3.28158e-20)
(2.24579 -0.0261586 -2.57421e-20)
(2.3112 -0.0312435 3.0096e-20)
(2.31277 -0.0408162 -4.25484e-21)
(2.39175 -0.0604074 2.20317e-20)
(2.38824 -0.0793759 -1.02135e-19)
(2.4805 -0.112914 1.41729e-20)
(2.44323 -0.138862 3.93238e-20)
(2.54441 -0.175189 -4.04266e-20)
(1.14694 -0.0157557 0)
(1.13637 -0.0189428 3.21107e-21)
(1.12281 -0.0209309 -4.13241e-20)
(1.12049 -0.0262808 -5.11666e-20)
(1.10345 -0.0283981 2.89704e-20)
(1.10703 -0.0350931 8.33864e-20)
(1.07246 -0.0364126 -1.87561e-20)
(1.08312 -0.0444023 -5.24394e-20)
(1.01065 -0.0459081 -6.20624e-21)
(1.04313 -0.0530588 5.42026e-21)
(1.3525 0.859359 -5.08825e-20)
(1.29816 0.862983 -1.09368e-19)
(1.26106 0.871092 -6.04584e-19)
(1.2282 0.882835 1.32856e-19)
(1.19546 0.89622 8.16323e-19)
(1.15938 0.908515 6.52066e-20)
(1.11291 0.911082 -8.79917e-20)
(1.03846 0.886926 -1.71861e-19)
(0.879105 0.784019 -2.5403e-19)
(0.475962 0.439755 -2.68192e-20)
(1.50564 0.843696 -4.38418e-19)
(1.44205 0.840281 1.14472e-18)
(1.39331 0.84306 4.82127e-19)
(1.35484 0.852362 -5.88599e-19)
(1.32077 0.865182 1.91892e-19)
(1.28425 0.877029 1.55186e-19)
(1.2357 0.878604 4.91188e-19)
(1.15497 0.853834 -7.58849e-19)
(0.977549 0.750743 -5.66658e-20)
(0.525765 0.41641 9.97386e-20)
(1.64851 0.825238 1.20065e-19)
(1.57505 0.818991 8.89413e-19)
(1.51365 0.818176 1.52383e-20)
(1.46786 0.824229 -3.56274e-19)
(1.43117 0.833816 1.35063e-19)
(1.3937 0.841435 2.24994e-20)
(1.34346 0.838279 -5.0773e-20)
(1.25758 0.810283 -2.98226e-19)
(1.06226 0.703567 1.19229e-19)
(0.564836 0.382186 -1.95755e-19)
(1.78641 0.801995 -4.82448e-19)
(1.70195 0.795656 3.95111e-19)
(1.62527 0.792194 -5.95077e-19)
(1.56778 0.793847 -1.94922e-19)
(1.52405 0.797397 9.67278e-19)
(1.48212 0.797005 -5.67897e-19)
(1.42867 0.785988 -6.32874e-19)
(1.33725 0.75217 3.06859e-19)
(1.12266 0.640824 -1.29283e-19)
(0.585854 0.337844 -4.20282e-20)
(1.92704 0.763756 5.89298e-19)
(1.83188 0.75859 4.51478e-19)
(1.73714 0.752712 -1.78752e-19)
(1.66129 0.748666 6.58036e-19)
(1.6035 0.744359 6.59337e-20)
(1.55178 0.73509 -2.72681e-19)
(1.49101 0.716745 2.83799e-19)
(1.38884 0.675955 -4.18056e-19)
(1.15268 0.560055 -4.97543e-19)
(0.586472 0.283994 -2.93358e-20)
(2.05772 0.705075 8.10331e-19)
(1.95571 0.699968 9.02269e-19)
(1.84465 0.691713 -8.03121e-19)
(1.7477 0.681835 -7.00373e-19)
(1.67114 0.669971 1.20613e-19)
(1.60512 0.653578 -4.5639e-19)
(1.53171 0.628964 -1.63818e-19)
(1.41284 0.581392 1.17506e-19)
(1.1533 0.465808 9.0563e-20)
(0.568041 0.225364 1.66075e-20)
(2.17281 0.622265 7.48388e-19)
(2.06468 0.616864 -8.91229e-19)
(1.93961 0.607322 -6.95757e-19)
(1.82237 0.593258 3.94896e-19)
(1.72537 0.576192 -3.51255e-19)
(1.64194 0.555131 9.05855e-19)
(1.55164 0.525967 -8.66349e-20)
(1.41217 0.474884 -7.49914e-19)
(1.12844 0.366328 3.32037e-19)
(0.533467 0.167429 4.34168e-20)
(2.2595 0.529773 -4.85477e-19)
(2.14554 0.522585 -6.13184e-19)
(2.00906 0.510229 -6.93674e-19)
(1.87482 0.492377 4.22203e-20)
(1.75936 0.471798 2.24575e-19)
(1.65865 0.44803 1.94505e-19)
(1.55038 0.416734 2.57518e-19)
(1.38877 0.366125 -8.28031e-20)
(1.08091 0.269254 3.09222e-20)
(0.485065 0.114254 5.92295e-20)
(2.31198 0.43754 2.32796e-19)
(2.18927 0.427117 -8.16424e-20)
(2.0413 0.410368 3.44003e-19)
(1.89399 0.388937 8.37412e-19)
(1.76534 0.366257 -2.33082e-19)
(1.65098 0.341531 -7.66681e-19)
(1.52606 0.310315 5.51002e-19)
(1.34185 0.262724 5.3926e-19)
(1.01042 0.179469 -2.95322e-19)
(0.424311 0.0684272 -3.76484e-20)
(2.32447 0.352735 -4.66953e-19)
(2.18679 0.336228 -4.5412e-21)
(2.02737 0.314398 4.98592e-19)
(1.87334 0.290681 4.21973e-19)
(1.73916 0.267473 2.61922e-19)
(1.61605 0.243038 -3.97021e-19)
(1.47581 0.212972 5.75619e-20)
(1.2679 0.169107 -2.51887e-19)
(0.914655 0.100039 -3.45724e-19)
(0.353529 0.0318648 2.5894e-21)
(0.376364 0.414153 -7.51932e-21)
(0.343513 0.419054 1.08966e-19)
(0.308633 0.422789 1.33877e-20)
(0.272231 0.425714 -8.78043e-20)
(0.234205 0.427937 -3.82871e-20)
(0.194082 0.428148 -8.52453e-20)
(0.151332 0.421722 4.08631e-20)
(0.105428 0.398131 -3.62467e-20)
(0.056908 0.335821 9.0126e-20)
(0.0217943 0.18274 1.80459e-20)
(0.427704 0.49968 -5.16832e-20)
(0.39465 0.505489 -1.06864e-20)
(0.359394 0.510132 -1.15518e-19)
(0.322503 0.514149 1.27732e-20)
(0.283927 0.517825 2.24239e-20)
(0.243042 0.519846 3.58496e-20)
(0.198888 0.515036 1.72214e-19)
(0.150186 0.491172 -5.47775e-20)
(0.0947146 0.421342 6.27163e-20)
(0.0420882 0.23414 -1.56629e-20)
(0.492165 0.582115 3.1282e-20)
(0.459282 0.589537 1.41791e-19)
(0.424344 0.595655 9.03829e-20)
(0.387739 0.601086 1.31859e-19)
(0.349291 0.606297 3.80839e-20)
(0.308156 0.610091 1.76072e-19)
(0.262897 0.606927 -6.32485e-20)
(0.211247 0.583052 -7.37757e-20)
(0.147387 0.506181 9.62034e-23)
(0.0710554 0.285082 9.27906e-21)
(0.563315 0.655524 3.78073e-19)
(0.529879 0.663113 2.7538e-19)
(0.494484 0.669541 -3.32756e-19)
(0.457665 0.675907 -1.53379e-19)
(0.419451 0.682867 3.25828e-20)
(0.37886 0.689001 -7.86285e-20)
(0.333817 0.687976 -2.53784e-19)
(0.280652 0.664513 7.65578e-20)
(0.209109 0.581802 -5.3483e-20)
(0.106184 0.330593 -9.15093e-20)
(0.664482 0.723269 -1.28724e-19)
(0.631791 0.733236 -2.88925e-19)
(0.596828 0.741552 2.5429e-19)
(0.559812 0.749174 -8.8514e-20)
(0.520671 0.757032 -1.62132e-19)
(0.478484 0.764199 2.10645e-19)
(0.430921 0.764409 8.97934e-20)
(0.373009 0.741214 -1.21487e-19)
(0.289476 0.653164 -2.25821e-19)
(0.150986 0.373174 4.85133e-20)
(0.739374 0.781883 -2.37754e-20)
(0.706186 0.791792 -2.51305e-20)
(0.672337 0.800165 -4.10612e-20)
(0.637852 0.808791 7.21549e-20)
(0.602452 0.818548 2.09299e-19)
(0.564528 0.827805 -1.91026e-19)
(0.520563 0.82935 -1.22385e-19)
(0.463346 0.805902 -2.66432e-20)
(0.371773 0.712501 6.47199e-20)
(0.198297 0.40766 1.35081e-19)
(0.86715 0.823617 -2.58047e-19)
(0.834189 0.835088 1.22085e-19)
(0.799046 0.84412 3.41246e-19)
(0.761862 0.852602 -2.02209e-19)
(0.723127 0.862228 -4.07888e-19)
(0.682007 0.872165 1.87878e-19)
(0.634944 0.875008 5.18097e-19)
(0.573055 0.852353 1.48603e-19)
(0.468523 0.756457 5.87835e-21)
(0.252458 0.433151 1.99457e-19)
(0.96711 0.860412 -4.47343e-19)
(0.933087 0.871065 -1.47715e-19)
(0.900546 0.880042 3.26091e-19)
(0.868068 0.889624 -1.17686e-19)
(0.834254 0.900636 8.06877e-20)
(0.79696 0.911284 3.54065e-19)
(0.75163 0.913873 -3.33567e-19)
(0.687373 0.890129 -3.08097e-19)
(0.569704 0.790283 2.20193e-19)
(0.308655 0.451429 -2.55296e-20)
(1.08132 0.881053 -1.63047e-20)
(1.05043 0.892385 4.83892e-20)
(1.01733 0.899923 -2.35509e-19)
(0.98322 0.907906 -6.81294e-20)
(0.948979 0.918304 4.28214e-19)
(0.912792 0.929194 1.06295e-19)
(0.868841 0.9319 -7.66069e-20)
(0.803176 0.907958 0)
(0.673414 0.806019 -1.63473e-19)
(0.366067 0.458622 -9.47008e-20)
(1.1797 0.878779 0)
(1.15073 0.891664 0)
(1.12587 0.901221 6.05987e-19)
(1.09772 0.90995 1.15753e-19)
(1.06643 0.919975 -1.59476e-19)
(1.03152 0.930026 3.13126e-19)
(0.987636 0.931622 -1.66454e-19)
(0.919147 0.906887 -5.21211e-19)
(0.776263 0.803579 2.85928e-19)
(0.422005 0.454304 1.59776e-19)
(0.939239 0.034821 -1.25216e-20)
(1.04813 0.232208 -6.16804e-21)
(0.937719 0.272816 7.5479e-21)
(0.928602 0.233222 5.92885e-21)
(0.896855 0.202748 1.97885e-20)
(0.875255 0.198708 3.26032e-20)
(0.849533 0.204992 -1.55943e-20)
(0.795553 0.238606 -2.85168e-20)
(0.747048 0.282006 -9.13732e-20)
(0.527609 0.379355 1.12098e-19)
(0.938813 0.032678 -1.22441e-21)
(1.04866 0.240562 7.66285e-21)
(0.936314 0.283852 8.02531e-23)
(0.927851 0.241593 1.48237e-20)
(0.895159 0.209225 1.55593e-20)
(0.875718 0.205231 -4.34349e-20)
(0.8575 0.215297 -1.42793e-20)
(0.810366 0.25556 -2.73905e-24)
(0.772162 0.321599 2.39976e-19)
(0.573357 0.452579 -5.06331e-21)
(0.938316 0.0307547 3.72125e-21)
(1.0496 0.249493 1.38777e-20)
(0.934274 0.29492 -1.06167e-20)
(0.925366 0.249888 -1.94535e-21)
(0.891053 0.215227 -1.86626e-20)
(0.87399 0.210607 3.46745e-21)
(0.86237 0.22366 1.97881e-20)
(0.823615 0.271443 -1.9771e-20)
(0.796621 0.358618 1.13095e-19)
(0.629495 0.521035 -3.46654e-19)
(0.937779 0.0290186 1.85741e-21)
(1.05121 0.259099 -2.43141e-21)
(0.931491 0.306291 -1.26895e-20)
(0.920239 0.258156 -4.0749e-20)
(0.885195 0.220653 4.07872e-20)
(0.871522 0.214806 2.14527e-20)
(0.864816 0.230213 -2.43713e-20)
(0.835127 0.286239 9.45428e-20)
(0.821296 0.39286 -1.01989e-19)
(0.691237 0.587759 -3.36177e-19)
(0.937337 0.0273729 1.83638e-21)
(1.05396 0.269516 -9.87559e-21)
(0.927644 0.318459 6.16615e-21)
(0.912362 0.26623 6.49469e-20)
(0.880202 0.225282 1.41411e-20)
(0.869603 0.217939 4.63275e-20)
(0.865684 0.23547 3.08527e-20)
(0.844706 0.300267 6.91666e-20)
(0.844449 0.421296 -1.61107e-20)
(0.777259 0.641179 2.68737e-19)
(0.937177 0.0256244 3.08489e-21)
(1.05817 0.280935 3.77475e-22)
(0.922415 0.33177 -4.51503e-21)
(0.905709 0.274 1.6943e-20)
(0.879541 0.228804 -4.20313e-20)
(0.868904 0.220616 6.42965e-21)
(0.866105 0.240111 -7.95684e-21)
(0.852634 0.313218 -2.00951e-19)
(0.871988 0.446663 0)
(0.843865 0.698127 -2.92983e-20)
(0.937368 0.023604 -4.19851e-21)
(1.0635 0.293444 -1.26154e-21)
(0.917579 0.345691 1.66997e-21)
(0.907773 0.280232 -7.69897e-20)
(0.884045 0.231077 -1.67713e-20)
(0.870375 0.223537 -6.72197e-20)
(0.868529 0.244515 3.84483e-21)
(0.862074 0.326178 7.20748e-21)
(0.895569 0.463917 -4.33155e-21)
(0.947708 0.733165 9.12917e-19)
(0.937705 0.0212422 -4.0607e-20)
(1.06944 0.306336 -2.51997e-21)
(0.918987 0.359569 2.40534e-20)
(0.919597 0.283002 4.08309e-20)
(0.893746 0.232682 -8.57834e-20)
(0.877865 0.227419 1.53393e-20)
(0.879146 0.248823 -3.70511e-21)
(0.875924 0.339414 1.69661e-20)
(0.931732 0.479047 1.46502e-19)
(1.05112 0.778367 -1.07166e-19)
(0.936808 0.0186229 1.3804e-20)
(1.07661 0.318368 -2.65548e-21)
(0.93255 0.37181 -9.38058e-21)
(0.939329 0.283994 1.05391e-19)
(0.915416 0.235018 7.66134e-21)
(0.903712 0.232086 2.23761e-20)
(0.909983 0.25218 -3.86403e-20)
(0.906204 0.348943 5.89105e-20)
(0.980288 0.479304 2.65293e-19)
(1.12172 0.795015 -6.37068e-19)
(0.931493 0.0163096 2.35439e-20)
(1.08829 0.329388 1.43889e-20)
(0.958425 0.379279 1.15054e-21)
(0.977205 0.283664 -3.77851e-20)
(0.968693 0.235811 8.38369e-20)
(0.962642 0.236502 -2.74467e-20)
(0.969567 0.259342 -1.00977e-20)
(0.954861 0.369949 5.1665e-20)
(1.04774 0.503364 -7.49305e-20)
(1.27762 0.842278 4.12818e-19)
(0.915024 0.00904223 -4.9143e-21)
(1.11322 0.335895 -1.46e-20)
(1.01972 0.386464 -5.28597e-21)
(1.06987 0.284401 -5.61364e-20)
(1.08701 0.232736 -4.83816e-20)
(1.09482 0.23773 -3.80935e-20)
(1.09723 0.259664 6.01994e-21)
(1.08891 0.368531 -1.35735e-19)
(1.16818 0.447907 -4.16249e-19)
(1.2943 0.824751 -4.88924e-20)
(0.885112 -0.00500909 -1.64002e-20)
(1.14685 0.31775 -2.43353e-20)
(1.13288 0.372427 1.92694e-21)
(1.22025 0.275046 -7.13438e-21)
(1.26851 0.221113 3.81545e-20)
(1.27559 0.237562 7.08318e-20)
(1.34232 0.248199 1.33467e-20)
(1.25497 0.37103 1.14007e-19)
(1.49933 0.421416 1.06989e-19)
(1.31679 0.736331 4.14643e-19)
(0.855408 -0.0181075 -4.68998e-21)
(1.16958 0.272166 -6.38949e-21)
(1.23791 0.333739 6.31127e-21)
(1.35947 0.252813 1.03281e-20)
(1.43528 0.2067 9.14467e-35)
(1.44015 0.218199 -5.40802e-21)
(1.5836 0.247736 -5.04367e-34)
(1.40104 0.338391 1.90081e-20)
(1.84318 0.398194 -5.82332e-20)
(1.49403 0.671528 -3.19876e-19)
(0.836878 -0.028201 2.95726e-20)
(1.17365 0.20322 -5.38283e-35)
(1.30423 0.273121 -6.65542e-21)
(1.45508 0.218919 1.17622e-20)
(1.55234 0.187153 -1.51216e-20)
(1.5571 0.188937 -3.30072e-20)
(1.75642 0.243531 -6.12306e-34)
(1.54042 0.29688 -7.71456e-20)
(2.04772 0.365807 -1.29237e-19)
(1.78068 0.605044 3.44351e-19)
(0.832622 -0.0352156 0)
(1.16336 0.123616 -1.17752e-34)
(1.32846 0.197465 0)
(1.50588 0.176277 0)
(1.61143 0.164757 0)
(1.63505 0.151264 0)
(1.83091 0.230307 -4.26422e-34)
(1.67274 0.25636 0)
(2.11347 0.299292 -2.03854e-20)
(2.03687 0.531574 1.98477e-19)
(0.839324 -0.0405201 5.27818e-21)
(1.15152 0.0446296 4.95027e-21)
(1.32162 0.113129 -7.38894e-21)
(1.51396 0.127179 0)
(1.62245 0.137424 0)
(1.67417 0.115087 5.94549e-21)
(1.82501 0.209576 3.90386e-20)
(1.78944 0.214935 -1.45157e-20)
(2.10385 0.221818 -2.99492e-20)
(2.17733 0.456423 1.39319e-19)
(0.853772 -0.0454348 -5.61434e-20)
(1.14518 -0.0316884 -7.97994e-21)
(1.28003 0.0303086 -7.7874e-21)
(1.46853 0.0772214 -2.19461e-20)
(1.57503 0.102348 -1.13921e-20)
(1.65717 0.083046 -7.27746e-21)
(1.75343 0.174988 -3.0787e-20)
(1.8581 0.171511 -2.67058e-20)
(2.02863 0.156902 -8.12968e-20)
(2.20333 0.373248 1.04073e-19)
(0.872715 -0.0523525 -9.3036e-21)
(1.13817 -0.0872676 -1.96589e-20)
(1.17145 -0.0354541 -8.33141e-21)
(1.33124 0.0344165 -7.42095e-21)
(1.41349 0.0619119 6.32669e-35)
(1.52654 0.0545998 6.99414e-21)
(1.55942 0.122961 -8.7992e-34)
(1.81104 0.118514 -1.56617e-20)
(1.82361 0.108151 1.86823e-20)
(2.12183 0.275649 2.47345e-20)
(0.891456 -0.0688304 1.34747e-19)
(1.08063 -0.114101 -8.16687e-21)
(0.923968 -0.0702596 -9.67225e-21)
(1.01865 0.00413385 1.11337e-20)
(1.06312 0.0235886 3.76973e-21)
(1.16099 0.0285484 1.10722e-20)
(1.1908 0.0630238 8.98006e-21)
(1.48026 0.057459 -1.66297e-20)
(1.40252 0.0651665 -1.27859e-20)
(1.82186 0.145678 1.04734e-19)
(0.841683 -0.0460679 9.49606e-21)
(0.786769 -0.064577 -8.46379e-35)
(0.427407 -0.0317748 -1.00945e-20)
(0.466937 0.00242792 0)
(0.4729 0.0052602 0)
(0.525612 0.00915354 7.27604e-21)
(0.57612 0.0153916 -9.63652e-36)
(0.737852 0.0175854 -1.59715e-20)
(0.723918 0.0207255 -2.5721e-20)
(1.03055 0.0419161 -3.84542e-20)
(1.54462 0.845989 1.5234e-19)
(1.66374 0.839266 -9.08547e-20)
(1.80282 0.82249 -3.14614e-21)
(1.94594 0.794887 6.90775e-20)
(2.09086 0.749391 -2.79048e-19)
(2.21847 0.688862 -5.22398e-19)