/*--------------------------------*- C++ -*----------------------------------*\
| =========                 |                                                 |
| \\      /  F ield         | OpenFOAM: The Open Source CFD Toolbox           |
|  \\    /   O peration     | Version:  2406                                  |
|   \\  /    A nd           | Website:  www.openfoam.com                      |
|    \\/     M anipulation  |                                                 |
\*---------------------------------------------------------------------------*/
FoamFile
{
    version     2.0;
    format      ascii;
    arch        "LSB;label=32;scalar=64";
    class       volScalarField;
    location    "0.9";
    object      nu;
}
// * * * * * * * * * * * * * * * * * * * * * * * * * * * * * * * * * * * * * //

dimensions      [0 2 -1 0 0 0 0];

internalField   nonuniform List<scalar> 
1800
(
0.021567
0.014348
0.0119544
0.0105919
0.00963833
0.00903358
0.00865453
0.0083796
0.00827484
0.00844915
0.0510671
0.0255274
0.0135438
0.0105011
0.0093273
0.00876661
0.00848214
0.00831131
0.00842728
0.00831682
0.0860363
0.0192441
0.011462
0.00951984
0.00878474
0.00847192
0.00836642
0.00833527
0.00863915
0.0084208
0.0358751
0.0123176
0.00941253
0.00858714
0.0082871
0.00822478
0.00829448
0.0083917
0.00879526
0.00848584
0.0155633
0.00963412
0.00833899
0.00800064
0.00798638
0.00814044
0.00837803
0.00860058
0.00904497
0.00850804
0.0108046
0.00835027
0.00773547
0.00769462
0.00790969
0.00826064
0.00864006
0.00892798
0.00919845
0.00863661
0.00875637
0.00763058
0.0074051
0.00760746
0.00803962
0.00856627
0.00902141
0.00925728
0.00930032
0.00892915
0.00767968
0.00719709
0.0072536
0.00768028
0.00831724
0.00897603
0.00943644
0.00958858
0.00957315
0.009615
0.00703722
0.00693295
0.0072223
0.00786467
0.00870427
0.00949854
0.0100085
0.0101895
0.0103196
0.0107518
0.00662376
0.00677102
0.00726908
0.00814339
0.00924867
0.0102983
0.0109962
0.0112718
0.0114867
0.0121647
0.00722677
0.00938701
0.0126356
0.0144203
0.0145777
0.0144475
0.0142777
0.0140649
0.0138361
0.0136795
0.00708031
0.00913154
0.01284
0.0156487
0.0157095
0.0153037
0.0149582
0.0145749
0.0142111
0.0139455
0.0070028
0.00891575
0.0129278
0.0186117
0.0204565
0.0184106
0.0167012
0.0157848
0.0151845
0.0146732
0.00698105
0.0087253
0.0128386
0.0244929
0.0555142
0.042397
0.025244
0.0192065
0.0170334
0.0159901
0.00704998
0.00858717
0.0119419
0.0193722
0.0334988
0.0494763
0.0476311
0.0309215
0.0218612
0.0185082
0.00725489
0.00851657
0.0108193
0.0141784
0.017517
0.0200646
0.0214996
0.0212618
0.0195231
0.0191207
0.00764695
0.00856863
0.0100469
0.0117706
0.0130707
0.0138943
0.0144991
0.014895
0.0147796
0.015779
0.00834444
0.00881572
0.009648
0.0105624
0.0111534
0.0114689
0.0116969
0.011915
0.0119505
0.012865
0.00968432
0.00943023
0.00967916
0.010054
0.01019
0.0101678
0.0101347
0.0101612
0.0100886
0.0107019
0.0126723
0.0108209
0.0103368
0.010149
0.00980906
0.00946108
0.00920347
0.00903574
0.00878899
0.00942969
0.0147256
0.0129515
0.0138917
0.0154505
0.0174179
0.0207678
0.0248297
0.0298148
0.0326071
0.0421097
0.0151545
0.0134003
0.0138356
0.0151035
0.0167653
0.0198851
0.0238809
0.0289444
0.0319335
0.0412622
0.0160408
0.0145919
0.013895
0.014715
0.0160375
0.0187926
0.0224832
0.0272624
0.0302491
0.0386413
0.0179778
0.0163462
0.0133777
0.0136403
0.0147248
0.0170137
0.020226
0.0244043
0.0272665
0.034034
0.0204385
0.0157899
0.0121217
0.0121022
0.012919
0.0146134
0.0171497
0.0204975
0.0231344
0.02815
0.0186183
0.0132922
0.0112001
0.0110553
0.0115178
0.0125869
0.0143261
0.0167211
0.0188547
0.0224062
0.0149842
0.0118754
0.0109525
0.010708
0.0108647
0.0114319
0.0125006
0.0140742
0.0155568
0.0179763
0.0123478
0.0113654
0.0110774
0.0108061
0.0108118
0.0110375
0.0116296
0.0126257
0.013566
0.0151762
0.0112452
0.0112654
0.0109826
0.0108732
0.0110344
0.011169
0.0114681
0.0120908
0.0126595
0.0137441
0.0100847
0.0101824
0.0103757
0.01057
0.011111
0.0115572
0.0118501
0.0122772
0.0125966
0.0133472
0.0098104
0.00995032
0.00996264
0.0100694
0.0108162
0.0118651
0.012667
0.0132671
0.0135315
0.0141021
0.00895033
0.00939163
0.0100326
0.0101244
0.0106271
0.0118876
0.0134934
0.0149296
0.0156533
0.016326
0.00915917
0.0110144
0.0124023
0.0119726
0.0119743
0.0129941
0.0149359
0.0174733
0.0195583
0.02166
0.0110051
0.0177208
0.0142638
0.0126018
0.0128256
0.0142844
0.0170937
0.021786
0.026903
0.0379547
0.0149998
0.0337695
0.0146522
0.0129959
0.0133023
0.0148637
0.0179923
0.0235513
0.0295428
0.0466951
0.0198764
0.0240576
0.0138014
0.0125847
0.0130532
0.0143497
0.0164672
0.0192289
0.0217224
0.0247921
0.0161106
0.0129556
0.0109041
0.0104378
0.0108281
0.0116427
0.0126539
0.0136229
0.0144079
0.015113
0.0099142
0.0088544
0.00841115
0.00854919
0.00906203
0.00967093
0.0102197
0.0106641
0.0109696
0.0112457
0.00746275
0.00733482
0.00751024
0.00793492
0.00843695
0.00884543
0.00912756
0.00932379
0.00942603
0.00953563
0.00690245
0.00734901
0.00809213
0.00895038
0.00941546
0.0094138
0.00922845
0.00906262
0.00892476
0.00888597
0.0150804
0.01315
0.0115117
0.0100586
0.00929542
0.00882608
0.00856714
0.00863303
0.00814451
0.00869686
0.0164533
0.0190989
0.0151062
0.0142838
0.011149
0.0106573
0.0090282
0.00910234
0.00823825
0.00852711
0.0167972
0.0211569
0.0165458
0.0202149
0.0131935
0.0140065
0.0108368
0.0106193
0.00962451
0.00888716
0.0185035
0.0184826
0.020568
0.0187891
0.0179378
0.0151094
0.0151101
0.0121677
0.0129244
0.0105025
0.0181532
0.0172917
0.0224294
0.0181271
0.0286945
0.0162491
0.0228195
0.0141889
0.0172653
0.0132228
0.0155097
0.0159716
0.0173551
0.0177919
0.0207246
0.0194306
0.0244474
0.018701
0.021822
0.0176412
0.0128446
0.01329
0.013317
0.0140394
0.0140599
0.0155327
0.0154667
0.0179056
0.0173461
0.0203679
0.00996542
0.0100762
0.00986379
0.0100572
0.00985655
0.0102034
0.0100044
0.0105093
0.0102885
0.0108995
0.00782394
0.00776196
0.00771992
0.00769217
0.00768019
0.00767915
0.007686
0.00771544
0.00770948
0.00777192
0.0064109
0.00640499
0.00643084
0.00643643
0.00648719
0.00649682
0.00657714
0.00658277
0.00669205
0.00669326
0.0102726
0.0112352
0.0113658
0.0113698
0.0114386
0.0117473
0.0122325
0.0101491
0.00720899
0.00590217
0.0109973
0.0113226
0.0113789
0.011392
0.0115103
0.0119565
0.0125559
0.00999506
0.00710211
0.00586593
0.0118125
0.0119638
0.0119303
0.011938
0.012059
0.0125546
0.0129368
0.00972998
0.00699505
0.00583983
0.0128392
0.0131098
0.0130346
0.0130043
0.0131226
0.0137147
0.0134563
0.0094015
0.00688923
0.00582625
0.0137445
0.014372
0.0144708
0.014626
0.015102
0.0159955
0.0136913
0.00902044
0.00679068
0.00583023
0.0144548
0.0154216
0.0161391
0.0173584
0.0191344
0.0192454
0.0130581
0.0086076
0.0067057
0.00585743
0.0148207
0.0159462
0.0174533
0.020525
0.0233661
0.0185198
0.0116421
0.00819079
0.00664296
0.00591452
0.0148465
0.0155099
0.0168835
0.0192375
0.0188702
0.0143342
0.0102188
0.00783032
0.00661347
0.00600832
0.0145239
0.0143544
0.0149102
0.0154778
0.0142083
0.0116165
0.00920899
0.00756028
0.00662272
0.00614671
0.0134788
0.0128961
0.0128926
0.0127143
0.0116897
0.0101179
0.00856
0.00737889
0.00667342
0.00634331
0.0121227
0.0118278
0.0115746
0.0113454
0.0111241
0.010921
0.0107266
0.0103951
0.00952838
0.00775614
0.0119981
0.0117148
0.0114681
0.0112373
0.0110161
0.0108217
0.0106512
0.0102844
0.00910369
0.00726215
0.011945
0.0116821
0.0114513
0.0112222
0.0109915
0.0107855
0.0106134
0.0101803
0.00871996
0.00690378
0.011802
0.0115869
0.0114006
0.0111979
0.0109962
0.0108341
0.0107217
0.0102293
0.00844862
0.00665485
0.0117419
0.0115229
0.0113306
0.0111116
0.0108924
0.0107264
0.0106398
0.0101225
0.00817939
0.00645784
0.0118158
0.0116562
0.0115039
0.0112871
0.0110626
0.0109018
0.0108238
0.010145
0.00795179
0.00630359
0.0116844
0.0116107
0.0115265
0.0113352
0.0111284
0.0110145
0.0110193
0.010205
0.00776921
0.0061844
0.0116849
0.0115759
0.0115336
0.0113691
0.0111908
0.0111326
0.011224
0.0102358
0.00760913
0.00609023
0.0122713
0.0121404
0.0119195
0.0115713
0.0112978
0.011234
0.0113653
0.0101716
0.00745759
0.00601243
0.0119944
0.0120886
0.0121657
0.0119586
0.0116998
0.0116682
0.0118366
0.0101668
0.00732284
0.0059498
0.0392039
0.0273639
0.0347353
0.0447519
0.0454817
0.050375
0.0355832
0.0275411
0.0181124
0.0132977
0.0395222
0.0263402
0.034276
0.0444545
0.0448241
0.05577
0.0402699
0.0280907
0.0183131
0.0131608
0.0397952
0.0254159
0.0336545
0.0429803
0.0434289
0.0620306
0.0468423
0.0285875
0.0186297
0.0130691
0.040002
0.0245121
0.0327349
0.0405887
0.0428674
0.0715046
0.0544793
0.0290144
0.0189788
0.0128381
0.0400541
0.0235958
0.0315478
0.0386155
0.0452094
0.0850851
0.0592801
0.0293821
0.0192621
0.0127733
0.0398286
0.0227434
0.0303691
0.0393722
0.0515088
0.0942578
0.0565556
0.0293772
0.0189186
0.0127389
0.039484
0.0221202
0.0294125
0.0443603
0.0578029
0.0842651
0.0461651
0.0280645
0.0182422
0.012257
0.040243
0.021788
0.0285057
0.0511821
0.0541775
0.0562658
0.0329483
0.0251709
0.016274
0.0124408
0.044171
0.0215257
0.0273205
0.0497423
0.0380167
0.0313908
0.0232234
0.0216744
0.015359
0.012034
0.0501819
0.0211764
0.0254987
0.0337202
0.0238346
0.0200059
0.0173819
0.0169625
0.0136252
0.0130145
0.0614017
0.0209937
0.022758
0.0231558
0.0176488
0.0163277
0.0138425
0.0150125
0.0116506
0.0132198
0.0951776
0.0200642
0.0195989
0.0190091
0.0156733
0.0158342
0.0123423
0.0153884
0.0105774
0.0135009
0.109883
0.0184834
0.0177788
0.018111
0.0165304
0.0165103
0.0127731
0.0155493
0.0111463
0.0127862
0.0691545
0.0173805
0.0166187
0.0177643
0.0203684
0.0171132
0.0157945
0.0150926
0.0138092
0.0118747
0.0560855
0.0172551
0.0158168
0.0173657
0.0264862
0.0181024
0.0263919
0.0155601
0.0167583
0.0121881
0.0600304
0.0177405
0.0156353
0.0172032
0.0234716
0.0208996
0.0284602
0.0176697
0.0171851
0.0136707
0.0810671
0.0191106
0.0164842
0.0170143
0.0169908
0.0218817
0.0164333
0.0204381
0.0163209
0.0156428
0.0590762
0.0244404
0.0165549
0.0141663
0.0125643
0.0134153
0.0118908
0.0139943
0.0120773
0.0129708
0.0280601
0.0165406
0.0116033
0.0106031
0.0100299
0.00979724
0.00976178
0.00955251
0.00946755
0.00938
0.00798189
0.00788705
0.0086244
0.0085135
0.00840773
0.00815265
0.00811573
0.0075341
0.00764954
0.0071502
0.0116239
0.0120013
0.0121884
0.0126716
0.013063
0.0135659
0.0138387
0.0144019
0.0150497
0.0156075
0.0119502
0.0117464
0.0117711
0.0119983
0.0121558
0.0125636
0.0127429
0.0135492
0.0139267
0.0159299
0.0120675
0.0118808
0.0120366
0.0123045
0.0126635
0.0131099
0.0135005
0.0144298
0.0148707
0.0166407
0.0122947
0.0123447
0.0127361
0.0131024
0.0137886
0.0140573
0.0148737
0.0150732
0.0163377
0.0164743
0.0132129
0.0134576
0.0140104
0.0144208
0.0150022
0.0149286
0.0154672
0.0151832
0.0162326
0.0160318
0.0145733
0.0145372
0.0146195
0.0146344
0.0146022
0.0144609
0.014412
0.0142874
0.0145164
0.0147572
0.0145145
0.0138915
0.0134615
0.0132807
0.0130649
0.0130213
0.0127526
0.012711
0.0125747
0.0127966
0.0119556
0.0115322
0.011189
0.0110049
0.0108131
0.0106996
0.0104253
0.0103511
0.0101247
0.0101711
0.00916511
0.00897883
0.00879775
0.00864237
0.00850129
0.00836075
0.00823334
0.00810699
0.00800472
0.00790073
0.0070017
0.00689307
0.0067925
0.00670098
0.00662193
0.00655261
0.00650328
0.00645936
0.00643564
0.00640999
0.00612015
0.00703318
0.00900057
0.0140387
0.0319481
0.0262705
0.0166005
0.0126794
0.0102239
0.00849635
0.00618652
0.00695543
0.00860393
0.0130534
0.0357509
0.0409921
0.0182557
0.0125874
0.0100412
0.008442
0.00629948
0.00690833
0.00820914
0.0114178
0.0212813
0.0309026
0.0188328
0.01283
0.0101205
0.00857626
0.00647823
0.00690751
0.0078547
0.0100294
0.0151494
0.0221562
0.018957
0.0135098
0.0105059
0.0088712
0.00674953
0.00698027
0.007595
0.00900972
0.0119573
0.0166721
0.0181856
0.0146378
0.0113394
0.0093813
0.00714879
0.00716365
0.00748371
0.00835422
0.0100857
0.013
0.0158341
0.0153703
0.0126598
0.010218
0.00771843
0.00749431
0.00755909
0.00804687
0.00906557
0.0107812
0.0130233
0.0144298
0.0137204
0.011475
0.00850621
0.00800433
0.00784799
0.00806163
0.00865029
0.009654
0.0110301
0.0124077
0.0131728
0.012121
0.00952483
0.00871236
0.00838081
0.00839259
0.00870252
0.00929117
0.0100919
0.010947
0.0118641
0.0115704
0.0105899
0.00957764
0.00918662
0.00906279
0.00915755
0.00945199
0.0098796
0.0103179
0.0108274
0.0111043
0.0111522
0.0103964
0.0102389
0.0101256
0.0100256
0.0100243
0.0101252
0.0102642
0.0103313
0.0110747
0.0109365
0.0109209
0.0113909
0.0116612
0.0114476
0.0111032
0.0108736
0.0107395
0.0105451
0.0110341
0.0103931
0.0111755
0.0125008
0.0138223
0.0137981
0.0130091
0.0124252
0.0120173
0.01154
0.0116841
0.0099725
0.0114268
0.0138992
0.0180784
0.020405
0.0183322
0.0161416
0.0146033
0.0132989
0.0128041
0.00951796
0.0113781
0.0145297
0.0221574
0.052422
0.0493657
0.0242333
0.0180543
0.0155127
0.0141653
0.00896888
0.0112031
0.0150087
0.0223916
0.0343911
0.0393008
0.0260854
0.0195879
0.01695
0.0153003
0.00847251
0.0109207
0.0145301
0.0181014
0.0202754
0.0213042
0.0199612
0.0177291
0.0162332
0.015106
0.00806478
0.0105379
0.0136953
0.0155383
0.0162587
0.0167168
0.0165516
0.0158137
0.015083
0.0144696
0.00772146
0.0101073
0.0130295
0.0143952
0.0147748
0.0149995
0.0149851
0.0146957
0.0143156
0.0139899
0.0074408
0.00971384
0.0126814
0.0140542
0.0142861
0.0143482
0.0143118
0.0141424
0.0139023
0.0137199
0.0120764
0.0139302
0.0192148
0.035752
0.0410858
0.0309707
0.0292765
0.0307843
0.0320128
0.0405824
0.012046
0.0137431
0.0186753
0.0265242
0.0320965
0.0293931
0.0289944
0.0311295
0.0333912
0.0456869
0.0121106
0.0139686
0.0182742
0.0238831
0.0280532
0.0281175
0.0285044
0.0309125
0.0335384
0.0463583
0.0124089
0.0145242
0.0179085
0.0225929
0.0255417
0.0267036
0.0277224
0.0303561
0.0330143
0.0449581
0.0127932
0.0149221
0.0172297
0.0212618
0.0236384
0.025413
0.0269414
0.0297477
0.0322284
0.0429947
0.013218
0.0147805
0.0164031
0.0198789
0.0221588
0.0244505
0.0264502
0.0294322
0.0316559
0.0414238
0.0135573
0.014231
0.0156356
0.0186279
0.020971
0.0237347
0.026242
0.0294974
0.031539
0.0406684
0.0138407
0.0136278
0.0150189
0.0175732
0.0199486
0.023082
0.0261222
0.0297833
0.0318136
0.0406949
0.0141238
0.0131764
0.0145407
0.0167031
0.019024
0.0223813
0.0259071
0.0300596
0.0322559
0.0412244
0.0144143
0.0129326
0.0141568
0.0159914
0.0181761
0.021605
0.0254929
0.0301277
0.0326108
0.0418684
0.00972425
0.0120552
0.0140505
0.0155305
0.0146422
0.0132766
0.0122805
0.0115179
0.0111099
0.0108399
0.00986213
0.0112338
0.0128577
0.0135841
0.013507
0.0129848
0.0125333
0.0121029
0.011877
0.0116312
0.011271
0.0126778
0.0155262
0.0171684
0.0170838
0.0161912
0.0155081
0.0149661
0.0146269
0.0141828
0.012422
0.0145275
0.0203122
0.0320877
0.028347
0.0234442
0.021576
0.0209018
0.0202572
0.0198435
0.0125487
0.0145399
0.0205241
0.0642706
0.0428927
0.0293556
0.0270114
0.027436
0.0273884
0.0298837
0.00618487
0.00631116
0.00649644
0.00674283
0.00704531
0.00740831
0.00779134
0.00818737
0.00865492
0.00881855
0.00643973
0.00655574
0.00674188
0.00698866
0.00727293
0.0075948
0.00789543
0.00826753
0.00865212
0.00903983
0.00674814
0.0068448
0.0070254
0.00726669
0.00753984
0.00784716
0.00814874
0.0086449
0.00899968
0.00976197
0.00713709
0.00720378
0.00737943
0.00762726
0.00793047
0.00827416
0.00873405
0.00942221
0.00986718
0.0108991
0.00762598
0.00764947
0.00782379
0.00810489
0.00849823
0.00900027
0.0098125
0.0106365
0.0109872
0.0122313
0.0135446
0.0136484
0.0138435
0.0135668
0.0130884
0.0126178
0.0121605
0.0112652
0.00926047
0.00717618
0.0143765
0.0140111
0.0135234
0.0128963
0.0123808
0.0120184
0.0117345
0.0111941
0.00964874
0.00749032
0.0135119
0.0131785
0.0129247
0.0125988
0.0123057
0.0120722
0.0118537
0.011429
0.0101761
0.00791804
0.0134705
0.0131662
0.0129051
0.0125791
0.0122597
0.0119808
0.0117293
0.0114236
0.0106889
0.00851809
0.0133075
0.0129448
0.0126293
0.0122973
0.0119861
0.0117263
0.0115297
0.011431
0.0113653
0.00954127
0.0131091
0.0127249
0.0123874
0.0120566
0.0117433
0.0114777
0.0112999
0.0113672
0.0120885
0.0115846
0.012868
0.0124806
0.0121399
0.01182
0.0115121
0.0112423
0.0110534
0.011133
0.0123292
0.0160513
0.0126375
0.0122721
0.0119544
0.0116681
0.0113945
0.0111486
0.0109481
0.0109055
0.0116102
0.0134577
0.012436
0.0120995
0.0118097
0.0115549
0.0113154
0.0111002
0.0109019
0.0107248
0.0107484
0.00998314
0.0122645
0.011949
0.0116774
0.0114374
0.0112108
0.0110051
0.0108065
0.0105406
0.0100708
0.00854479
0.00879789
0.0106233
0.0128899
0.0153805
0.0181474
0.0195222
0.0140817
0.0093573
0.00713003
0.00608832
0.00938115
0.0111346
0.01286
0.0142603
0.0151957
0.0154161
0.0134235
0.00963098
0.00724471
0.00608526
0.0101383
0.0115556
0.0126887
0.0134313
0.0137687
0.0136999
0.0126333
0.00980383
0.00737409
0.00610765
0.0108317
0.0118267
0.0125515
0.0129499
0.0129749
0.0127003
0.0119549
0.0098785
0.0075129
0.00615406
0.0113929
0.0121076
0.0125434
0.0126176
0.0123599
0.0119632
0.0114184
0.009926
0.00767458
0.00622653
0.0119203
0.0124146
0.0125262
0.0122714
0.0118492
0.0114804
0.0111325
0.0100369
0.00787084
0.00632461
0.0124463
0.0126549
0.0123481
0.0118531
0.0114508
0.0112296
0.0110792
0.0102429
0.00810247
0.00644612
0.0128129
0.0125421
0.01191
0.011451
0.0112475
0.0112303
0.011262
0.0105761
0.00837642
0.00659174
0.0124877
0.0119147
0.0114607
0.0113244
0.0113859
0.0115417
0.0116728
0.0109832
0.00867062
0.0067563
0.0114276
0.011675
0.0117984
0.011937
0.0120709
0.01217
0.0121373
0.0112811
0.00896866
0.00694637
0.0321702
0.0677226
0.0344114
0.0288251
0.0270341
0.0279416
0.0315901
0.0368187
0.0271811
0.019745
0.0334698
0.0535451
0.0369194
0.0291074
0.027466
0.0277581
0.0297104
0.0284871
0.0254127
0.0161995
0.0344607
0.0464776
0.0375248
0.0295028
0.0281542
0.0281817
0.0290987
0.0264031
0.0249218
0.0152645
0.035188
0.0420346
0.0376813
0.0306009
0.0293795
0.0289858
0.0286542
0.0256389
0.0234595
0.0151624
0.0358296
0.0388002
0.0375957
0.0324836
0.0312102
0.0301366
0.0283576
0.0254897
0.0219406
0.0150668
0.0364855
0.0361458
0.0372351
0.0349359
0.0335914
0.0316939
0.0282423
0.0256055
0.0205757
0.0148224
0.0371528
0.0338198
0.0367114
0.037641
0.0364335
0.0338198
0.0284104
0.0258157
0.0194688
0.01446
0.0377884
0.0317752
0.0361514
0.0402563
0.039551
0.0367119
0.0290433
0.0260937
0.0187018
0.0140741
0.0383511
0.0300262
0.0356274
0.0424641
0.0425225
0.0405041
0.030314
0.0264751
0.0182546
0.013742
0.0388211
0.0285696
0.0351621
0.0440238
0.0446922
0.0451642
0.0324041
0.0269746
0.0180744
0.0134929
0.00725569
0.00750521
0.00882408
0.00912409
0.00970285
0.00981532
0.0100465
0.00980706
0.009773
0.00828622
0.0148193
0.0105731
0.010078
0.0104725
0.0107778
0.0111557
0.011651
0.0118603
0.0122595
0.011757
0.0264177
0.0180458
0.0127163
0.0129723
0.0129899
0.0136862
0.0146064
0.0164657
0.017071
0.0162665
0.0298011
0.0491223
0.0180953
0.0179044
0.0173407
0.0186087
0.0205535
0.0297752
0.0338734
0.0157491
0.0307766
0.104673
0.02678
0.0242924
0.0228661
0.0242624
0.027632
0.0446519
0.0421324
0.0174133
0.00785478
0.0075093
0.00716816
0.00686305
0.00660455
0.00639549
0.00624005
0.00614172
0.00610077
0.00611488
0.0106872
0.00981563
0.00902664
0.00835158
0.00775788
0.00725495
0.00686504
0.00659865
0.00644949
0.00640125
0.0133897
0.0120783
0.0109521
0.01004
0.00919899
0.00841666
0.00773707
0.00722495
0.00690735
0.00675969
0.0136703
0.0127372
0.0119797
0.0113043
0.0105198
0.00966213
0.00878968
0.00802344
0.00749737
0.00721876
0.0140666
0.0132754
0.0124567
0.0118149
0.0111799
0.0105122
0.00976601
0.00894654
0.00824772
0.00780796
)
;

boundaryField
{
    left
    {
        type            calculated;
        value           nonuniform List<scalar> 
35
(
0.0202783
0.0181702
0.0170845
0.016641
0.0168978
0.0177458
0.0189689
0.0200194
0.0188467
0.0079391
0.0296911
0.029235
0.0287169
0.0281483
0.0275468
0.0269431
0.0263429
0.025589
0.0242979
0.0223791
0.0275385
0.0284268
0.0290038
0.0294371
0.0298355
0.0301814
0.030406
0.0304603
0.0303386
0.0300691
0.00721897
0.0135648
0.0218037
0.0247855
0.0262835
)
;
    }
    right
    {
        type            calculated;
        value           nonuniform List<scalar> 
35
(
0.0108416
0.0116396
0.01423
0.0201317
0.0316036
0.0466126
0.0561473
0.0589023
0.057865
0.0555605
0.0538272
0.0536115
0.0550595
0.0578685
0.0613931
0.0643151
0.0642709
0.0587261
0.0478119
0.0355273
0.0257675
0.0194823
0.0159409
0.0142265
0.0137378
0.0145274
0.0169235
0.0229747
0.0455028
0.0540611
0.0252137
0.0152158
0.0112814
0.00954809
0.00888838
)
;
    }
    down
    {
        type            calculated;
        value           nonuniform List<scalar> 
40
(
0.00639122
0.00682352
0.00844866
0.00868104
0.00936442
0.00936018
0.00949762
0.00917535
0.00896508
0.00747421
0.00713559
0.0068871
0.00663744
0.00641918
0.00624508
0.00611418
0.00602403
0.00597382
0.00596423
0.00599628
0.00607617
0.00620632
0.00639091
0.00663572
0.00694442
0.00733055
0.00776694
0.00823141
0.00877886
0.00889315
0.0101475
0.0139899
0.0174733
0.0219535
0.0183256
0.0148781
0.0129507
0.0117396
0.0111214
0.010774
)
;
    }
    up
    {
        type            calculated;
        value           nonuniform List<scalar> 
40
(
0.00690763
0.00799101
0.00985507
0.0118161
0.01174
0.0106214
0.00972087
0.00919206
0.00887401
0.00875004
0.00601346
0.00602739
0.00605991
0.00608552
0.0061405
0.00616952
0.00625628
0.00627473
0.00641316
0.00640606
0.00643844
0.00634862
0.00626573
0.00619278
0.00613026
0.00608152
0.00604539
0.0060208
0.00600797
0.00600359
0.00679529
0.0068851
0.00789571
0.00791255
0.00787837
0.00764882
0.00752916
0.00698812
0.00706765
0.00657222
)
;
    }
    cylinder
    {
        type            calculated;
        value           nonuniform List<scalar> 
80
(
0.00668019
0.00656998
0.00652516
0.00653601
0.00663812
0.00689014
0.00736551
0.00823899
0.0100458
0.0147112
0.0323599
0.0648395
0.0402846
0.0363218
0.0411354
0.0160771
0.010323
0.00827617
0.00725279
0.00665436
0.00559449
0.00557163
0.0055594
0.00556086
0.00558187
0.0056294
0.00571099
0.00583506
0.0060142
0.00627211
0.00713231
0.00670063
0.00639718
0.00618847
0.00602681
0.00590227
0.00580722
0.00573338
0.00567377
0.00562757
0.00661247
0.00686607
0.00721254
0.00771291
0.00858893
0.0104584
0.0158051
0.0135456
0.00927606
0.00784957
0.00580932
0.005783
0.00578383
0.00580956
0.00586024
0.00593372
0.00602784
0.00614235
0.00627343
0.00642634
0.00586813
0.0059689
0.0061277
0.00636737
0.00671709
0.00721642
0.00792271
0.00892544
0.0103025
0.0117726
0.0121888
0.0112696
0.0101854
0.00950394
0.00892917
0.00830076
0.00778106
0.00739388
0.00709054
0.00685344
)
;
    }
    defaultFaces
    {
        type            empty;
    }
}


// ************************************************************************* //
