/*--------------------------------*- C++ -*----------------------------------*\
| =========                 |                                                 |
| \\      /  F ield         | OpenFOAM: The Open Source CFD Toolbox           |
|  \\    /   O peration     | Version:  2406                                  |
|   \\  /    A nd           | Website:  www.openfoam.com                      |
|    \\/     M anipulation  |                                                 |
\*---------------------------------------------------------------------------*/
FoamFile
{
    version     2.0;
    format      ascii;
    arch        "LSB;label=32;scalar=64";
    class       volScalarField;
    location    "0.9";
    object      p;
}
// * * * * * * * * * * * * * * * * * * * * * * * * * * * * * * * * * * * * * //

dimensions      [0 2 -2 0 0 0 0];

internalField   nonuniform List<scalar> 
1800
(
-1.40957
-1.39519
-1.38627
-1.37647
-1.36662
-1.36006
-1.36026
-1.36995
-1.39143
-1.42585
-1.39321
-1.38547
-1.37947
-1.3697
-1.35695
-1.34607
-1.34007
-1.34056
-1.34798
-1.36495
-1.40638
-1.40715
-1.40107
-1.39098
-1.37907
-1.36834
-1.36089
-1.35761
-1.35786
-1.36778
-1.45464
-1.44731
-1.44018
-1.43032
-1.41895
-1.40782
-1.39825
-1.39079
-1.38487
-1.38699
-1.50823
-1.49553
-1.48795
-1.47821
-1.46644
-1.45395
-1.44186
-1.43067
-1.42044
-1.416
-1.56256
-1.54811
-1.53946
-1.52846
-1.51465
-1.49927
-1.48349
-1.4679
-1.45283
-1.44027
-1.61715
-1.60088
-1.5906
-1.57679
-1.55902
-1.53905
-1.51832
-1.49732
-1.47597
-1.45424
-1.66888
-1.65012
-1.63635
-1.61717
-1.59288
-1.56622
-1.53883
-1.51091
-1.48169
-1.45044
-1.71171
-1.69002
-1.67021
-1.64277
-1.60951
-1.57424
-1.53866
-1.50252
-1.4646
-1.42407
-1.73882
-1.71351
-1.68493
-1.64652
-1.60234
-1.55704
-1.51221
-1.46727
-1.42081
-1.3718
-1.20424
-1.20728
-1.20431
-1.1988
-1.19196
-1.18494
-1.17822
-1.17173
-1.16546
-1.15976
-1.2875
-1.28844
-1.28523
-1.2807
-1.27593
-1.27199
-1.26924
-1.26748
-1.26655
-1.26663
-1.3678
-1.36623
-1.36269
-1.35885
-1.35567
-1.35571
-1.3589
-1.36364
-1.36948
-1.37674
-1.43766
-1.43339
-1.43033
-1.42947
-1.4301
-1.43268
-1.43966
-1.45076
-1.46431
-1.47941
-1.49213
-1.48468
-1.48227
-1.48424
-1.48999
-1.49838
-1.51048
-1.52735
-1.54729
-1.56958
-1.52208
-1.51104
-1.50858
-1.51238
-1.52221
-1.53708
-1.5556
-1.5776
-1.6033
-1.63244
-1.52557
-1.51145
-1.50849
-1.51229
-1.52259
-1.53923
-1.56159
-1.58912
-1.62075
-1.65523
-1.50702
-1.49054
-1.48637
-1.48856
-1.49715
-1.51259
-1.53477
-1.5634
-1.59738
-1.63413
-1.47508
-1.4573
-1.45104
-1.4496
-1.45348
-1.46393
-1.48157
-1.50684
-1.53928
-1.5754
-1.43955
-1.42202
-1.41365
-1.40745
-1.4043
-1.4065
-1.41606
-1.43477
-1.46342
-1.49993
-1.1256
-0.91307
-0.665989
-0.41496
-0.253343
-0.142159
-0.0741351
-0.0351838
-0.0123647
-0.00147595
-1.24745
-1.02764
-0.724095
-0.434011
-0.250524
-0.131541
-0.0628276
-0.0263072
-0.00651157
0.000326797
-1.38541
-1.16318
-0.796379
-0.45871
-0.248262
-0.119963
-0.050291
-0.0164341
7.62481e-05
0.00249074
-1.53182
-1.31571
-0.88257
-0.488915
-0.246366
-0.107219
-0.0363491
-0.00545644
0.00745394
0.00513032
-1.67288
-1.47683
-0.981521
-0.52521
-0.24573
-0.094034
-0.0214539
0.00636731
0.0154713
0.00825809
-1.79067
-1.63727
-1.09124
-0.569172
-0.248633
-0.0823675
-0.00700735
0.0181733
0.0236212
0.0116967
-1.87083
-1.78854
-1.20844
-0.623052
-0.258387
-0.0750889
0.00481426
0.0285409
0.0310185
0.0150396
-1.90504
-1.92321
-1.32764
-0.686919
-0.27746
-0.0750052
0.0115332
0.0357217
0.0365035
0.0176914
-1.89111
-2.02911
-1.44279
-0.758383
-0.305248
-0.0828754
0.0114545
0.0381324
0.0388564
0.019011
-1.83267
-2.08923
-1.55351
-0.836001
-0.339974
-0.097368
0.00485735
0.0354279
0.0375384
0.0186476
-1.78705
-2.16854
-1.63136
-0.882374
-0.36061
-0.11108
-0.00707424
0.0267887
0.0315857
0.0161227
-1.74499
-2.14105
-1.59336
-0.86817
-0.368653
-0.131861
-0.0311957
0.00687927
0.0177288
0.00993842
-1.68357
-2.00575
-1.49357
-0.845224
-0.393263
-0.16744
-0.0621537
-0.0150317
0.0042372
0.0046305
-1.57023
-1.79006
-1.37322
-0.824786
-0.430328
-0.216822
-0.10229
-0.0407326
-0.00945667
0.00062293
-1.42522
-1.57667
-1.26577
-0.818224
-0.475754
-0.267848
-0.141693
-0.0663652
-0.0232755
-0.00380884
-1.27416
-1.38776
-1.17139
-0.82063
-0.529236
-0.32488
-0.183746
-0.0934477
-0.0386438
-0.0100989
-1.11687
-1.23208
-1.10888
-0.84527
-0.59146
-0.381439
-0.22234
-0.117144
-0.0509087
-0.0138989
-0.962615
-1.11789
-1.07731
-0.877199
-0.642764
-0.422756
-0.248178
-0.13154
-0.0572373
-0.0146203
-0.855535
-1.06098
-1.05723
-0.89187
-0.669914
-0.444765
-0.262491
-0.140003
-0.0613286
-0.0158067
-0.796598
-1.06268
-1.06948
-0.899178
-0.671037
-0.446413
-0.266331
-0.143199
-0.063214
-0.0166956
-1.27224
-1.33826
-1.38187
-1.40449
-1.4075
-1.3974
-1.38154
-1.38223
-1.40731
-1.49409
-1.12599
-1.20163
-1.25851
-1.30134
-1.32689
-1.34981
-1.37011
-1.40689
-1.449
-1.5143
-0.991175
-1.07198
-1.13554
-1.19541
-1.23696
-1.28398
-1.32647
-1.3781
-1.43905
-1.51121
-0.867895
-0.950015
-1.01838
-1.0873
-1.14089
-1.19703
-1.2476
-1.30313
-1.36654
-1.44102
-0.757639
-0.837295
-0.908815
-0.976584
-1.03579
-1.0936
-1.14536
-1.20059
-1.25601
-1.32271
-0.660553
-0.736967
-0.807303
-0.871907
-0.930818
-0.985887
-1.03523
-1.08639
-1.13505
-1.19072
-0.578417
-0.651997
-0.71939
-0.780421
-0.835332
-0.886027
-0.92921
-0.972652
-1.01233
-1.05619
-0.513736
-0.584441
-0.64944
-0.70572
-0.757714
-0.802152
-0.838943
-0.871949
-0.899143
-0.92749
-0.474371
-0.543101
-0.606835
-0.659155
-0.708471
-0.744137
-0.774497
-0.795786
-0.811616
-0.825576
-0.458277
-0.528652
-0.592443
-0.647384
-0.695159
-0.730506
-0.759437
-0.773426
-0.784754
-0.781385
0.174437
0.106759
0.0341784
-0.0380048
-0.110895
-0.186148
-0.262833
-0.336871
-0.402174
-0.44359
-0.0133665
-0.0825355
-0.155053
-0.229202
-0.306361
-0.387489
-0.470742
-0.551206
-0.622012
-0.66867
-0.220358
-0.288781
-0.359748
-0.433616
-0.511804
-0.594914
-0.680808
-0.764501
-0.838281
-0.888314
-0.41857
-0.487375
-0.558655
-0.633275
-0.712427
-0.796492
-0.883414
-0.968494
-1.04439
-1.09435
-0.600077
-0.670335
-0.742899
-0.818694
-0.898767
-0.983165
-1.06992
-1.15555
-1.23025
-1.28037
-0.766232
-0.837478
-0.910705
-0.987035
-1.0672
-1.15042
-1.23483
-1.31815
-1.39094
-1.44014
-0.919735
-0.990787
-1.06328
-1.13809
-1.21511
-1.29387
-1.37428
-1.45418
-1.52239
-1.56855
-1.06089
-1.12983
-1.19883
-1.26845
-1.33906
-1.41166
-1.48652
-1.56008
-1.6205
-1.66187
-1.18703
-1.25093
-1.31349
-1.37554
-1.43836
-1.50333
-1.56992
-1.63339
-1.68365
-1.71932
-1.2918
-1.34879
-1.40364
-1.45742
-1.51163
-1.56731
-1.62315
-1.67416
-1.71339
-1.7434
1.24263
1.24242
1.24215
1.24131
1.23976
1.23747
1.23454
1.23153
1.23105
1.24271
1.19153
1.18857
1.1852
1.18104
1.17596
1.16992
1.16306
1.15637
1.15285
1.16187
1.1235
1.1172
1.11018
1.10212
1.09293
1.08254
1.07111
1.05993
1.0524
1.05786
1.03995
1.02969
1.01798
1.00481
0.990234
0.974142
0.956813
0.93993
0.927242
0.928096
0.93968
0.925169
0.908771
0.89048
0.870359
0.848204
0.824317
0.800802
0.782079
0.778213
0.825429
0.806097
0.783874
0.759244
0.732523
0.703509
0.672562
0.642019
0.616543
0.60715
0.698707
0.674452
0.646419
0.615303
0.581494
0.544763
0.505669
0.466985
0.433607
0.418589
0.562829
0.533643
0.498848
0.460018
0.418088
0.372875
0.325087
0.277945
0.236543
0.215374
0.422216
0.387915
0.346057
0.299072
0.248392
0.193926
0.136623
0.080259
0.0304919
0.00260225
0.289075
0.242268
0.187477
0.12924
0.0687141
0.00502887
-0.0611477
-0.125979
-0.183558
-0.218336
1.33811
1.28147
1.29358
1.26134
1.24259
1.22107
1.21221
1.20283
1.21574
1.24721
1.33639
1.27927
1.29172
1.25809
1.23855
1.21495
1.20557
1.19147
1.19774
1.21788
1.3354
1.27738
1.29001
1.25437
1.23377
1.20813
1.19807
1.17759
1.17519
1.17843
1.3351
1.27586
1.28843
1.25015
1.22831
1.2008
1.18964
1.16121
1.1486
1.12905
1.33539
1.27478
1.28697
1.24551
1.22245
1.19308
1.18023
1.14249
1.1184
1.06849
1.33616
1.27424
1.28556
1.24066
1.21652
1.18479
1.16981
1.12159
1.0852
0.996196
1.33729
1.27436
1.28408
1.23575
1.21049
1.17524
1.15833
1.09893
1.04993
0.912278
1.33875
1.27516
1.2825
1.23047
1.2034
1.16374
1.14582
1.07477
1.01193
0.815362
1.34075
1.27662
1.28094
1.22392
1.19425
1.15093
1.13266
1.04918
0.970156
0.703167
1.34278
1.27903
1.27983
1.21593
1.18342
1.13816
1.11933
1.02329
0.928453
0.585418
1.34336
1.28274
1.27985
1.20946
1.1728
1.12507
1.10487
0.995392
0.881578
0.483544
1.35024
1.28846
1.28461
1.2069
1.16482
1.11248
1.08992
0.971396
0.844087
0.500658
1.3624
1.29318
1.29244
1.2093
1.1602
1.10141
1.07341
0.947879
0.808696
0.511523
1.37343
1.29873
1.3016
1.21443
1.15688
1.09114
1.05432
0.927142
0.773077
0.512676
1.38249
1.30392
1.30667
1.21727
1.15263
1.08168
1.032
0.908032
0.73828
0.507241
1.39263
1.30638
1.30423
1.21259
1.14744
1.07264
1.00849
0.893828
0.706445
0.496867
1.40387
1.30388
1.29298
1.19971
1.14124
1.06437
0.988492
0.888222
0.681369
0.486023
1.41699
1.30237
1.27776
1.18549
1.13394
1.05827
0.972251
0.891739
0.663367
0.482661
1.4338
1.3059
1.26683
1.17285
1.12772
1.05404
0.959722
0.895773
0.652293
0.489317
1.47675
1.30951
1.26284
1.17115
1.12762
1.05254
0.963461
0.899512
0.650504
0.512096
0.175675
0.0121502
-0.175787
-0.355938
-0.520651
-0.673064
-0.815613
-0.95002
-1.07461
-1.18371
0.14916
0.00939517
-0.142083
-0.289458
-0.42762
-0.559631
-0.686374
-0.810853
-0.927969
-1.03503
0.156792
0.0267766
-0.104458
-0.229755
-0.34901
-0.466625
-0.582173
-0.695903
-0.802665
-0.903575
0.178355
0.0574409
-0.0621623
-0.172893
-0.277101
-0.380344
-0.484086
-0.588005
-0.686984
-0.782976
0.207784
0.0957868
-0.0144415
-0.114178
-0.206419
-0.29744
-0.39112
-0.487349
-0.582202
-0.67384
0.238293
0.137986
0.037965
-0.053467
-0.138311
-0.222313
-0.309223
-0.399431
-0.490314
-0.57825
0.26935
0.18307
0.0927807
0.00642947
-0.0756633
-0.156871
-0.239713
-0.325291
-0.412582
-0.497617
0.301893
0.227196
0.144346
0.0607491
-0.021314
-0.101348
-0.181112
-0.263538
-0.349074
-0.433609
0.324107
0.254274
0.175882
0.0936473
0.0106379
-0.0692326
-0.147542
-0.229003
-0.31351
-0.396649
0.347212
0.276491
0.199068
0.117131
0.03449
-0.0474669
-0.130585
-0.215343
-0.300072
-0.381574
-0.801466
-0.77328
-0.732225
-0.685532
-0.638332
-0.594713
-0.556069
-0.521891
-0.493632
-0.47252
-0.89379
-0.865922
-0.826858
-0.780541
-0.733793
-0.690703
-0.652993
-0.620093
-0.592868
-0.573087
-0.956818
-0.929861
-0.894024
-0.850182
-0.805542
-0.763513
-0.726452
-0.695102
-0.668977
-0.649551
-0.99263
-0.967153
-0.93582
-0.896408
-0.854436
-0.81419
-0.778617
-0.748785
-0.723929
-0.704698
-1.00623
-0.982889
-0.957059
-0.923238
-0.88522
-0.847507
-0.813326
-0.784484
-0.76072
-0.741834
-1.00446
-0.98405
-0.963607
-0.935652
-0.902314
-0.86765
-0.834805
-0.806196
-0.782699
-0.764017
-0.994066
-0.977152
-0.961331
-0.938667
-0.909799
-0.87798
-0.846209
-0.817023
-0.792296
-0.77274
-0.9796
-0.966537
-0.954495
-0.93617
-0.911121
-0.88164
-0.850651
-0.820671
-0.794078
-0.772843
-0.962228
-0.953254
-0.944116
-0.929084
-0.90716
-0.879723
-0.849411
-0.818649
-0.790129
-0.768136
-0.941241
-0.936153
-0.928812
-0.915721
-0.896049
-0.870598
-0.841394
-0.810465
-0.779756
-0.754904
-0.918001
-0.916133
-0.90963
-0.897299
-0.879145
-0.856046
-0.829516
-0.801441
-0.772738
-0.742485
-0.898052
-0.898446
-0.892459
-0.880359
-0.863181
-0.842419
-0.819108
-0.794493
-0.768949
-0.740125
-0.887411
-0.888931
-0.883731
-0.872502
-0.856155
-0.83753
-0.817689
-0.796703
-0.774253
-0.748322
-0.888227
-0.890475
-0.886945
-0.87806
-0.863147
-0.845555
-0.828537
-0.810708
-0.790878
-0.767502
-0.895564
-0.89872
-0.896064
-0.889816
-0.878604
-0.862729
-0.847725
-0.832328
-0.814251
-0.791308
-0.913558
-0.91794
-0.915926
-0.91113
-0.903065
-0.889585
-0.873618
-0.858043
-0.841954
-0.824315
-0.947281
-0.952693
-0.95167
-0.947386
-0.939299
-0.926595
-0.911176
-0.895532
-0.879933
-0.864171
-0.994681
-1.00047
-0.999377
-0.994417
-0.985911
-0.974243
-0.960391
-0.94559
-0.930545
-0.915828
-1.05425
-1.05977
-1.05802
-1.05232
-1.04367
-1.03302
-1.02099
-1.00806
-0.994781
-0.981921
-1.12495
-1.12955
-1.12713
-1.12121
-1.11308
-1.10389
-1.09412
-1.0839
-1.0735
-1.06355
-0.690243
-0.579527
-0.512134
-0.42415
-0.329995
-0.237616
-0.159603
-0.098307
-0.0522733
-0.0146414
-0.699289
-0.578132
-0.509092
-0.413928
-0.318137
-0.227911
-0.152257
-0.0935027
-0.0495544
-0.0137984
-0.714578
-0.580449
-0.509263
-0.406165
-0.307523
-0.218218
-0.14454
-0.0881417
-0.0462453
-0.0125815
-0.735467
-0.58777
-0.512818
-0.399446
-0.298051
-0.208678
-0.136621
-0.0824528
-0.0426213
-0.0112027
-0.760603
-0.60078
-0.519261
-0.393841
-0.289282
-0.199222
-0.128525
-0.0765183
-0.0388075
-0.00979594
-0.78932
-0.620661
-0.528806
-0.38973
-0.281184
-0.189862
-0.120289
-0.0704035
-0.0348855
-0.00842165
-0.825503
-0.650062
-0.542299
-0.387745
-0.273845
-0.180575
-0.11189
-0.0641153
-0.0308805
-0.00709452
-0.874707
-0.690876
-0.561136
-0.388595
-0.267343
-0.171276
-0.103223
-0.0575781
-0.0267382
-0.00578912
-0.939803
-0.746437
-0.586808
-0.392952
-0.261734
-0.161855
-0.0941455
-0.0506686
-0.0223527
-0.00445636
-1.02296
-0.819653
-0.621054
-0.401489
-0.257057
-0.152193
-0.0845046
-0.043251
-0.0176029
-0.00304023
-0.669099
-0.584329
-0.516179
-0.429506
-0.331504
-0.239833
-0.16263
-0.0998756
-0.0521892
-0.0146705
-0.661642
-0.577791
-0.513636
-0.429593
-0.332891
-0.241322
-0.163844
-0.10081
-0.0526928
-0.0147685
-0.659057
-0.573407
-0.511044
-0.429481
-0.333151
-0.241586
-0.163929
-0.100833
-0.052777
-0.0146395
-0.659975
-0.569916
-0.507049
-0.426818
-0.334337
-0.242501
-0.164306
-0.10119
-0.0532994
-0.0147391
-0.669724
-0.570964
-0.50615
-0.422485
-0.334884
-0.242658
-0.163904
-0.101088
-0.0536479
-0.0149654
-0.454702
-0.551693
-0.626076
-0.679488
-0.715146
-0.73646
-0.745059
-0.744295
-0.735216
-0.715628
-0.45234
-0.549886
-0.623266
-0.6749
-0.708524
-0.728527
-0.7366
-0.735647
-0.728276
-0.708381
-0.45358
-0.551585
-0.624991
-0.676436
-0.709885
-0.72996
-0.737182
-0.735675
-0.726747
-0.70735
-0.456698
-0.55601
-0.630118
-0.682159
-0.716213
-0.736491
-0.742976
-0.74015
-0.729698
-0.712767
-0.462328
-0.563215
-0.638531
-0.691793
-0.727113
-0.747926
-0.754665
-0.751123
-0.740398
-0.728862
0.970611
0.964559
0.955399
0.945753
0.93633
0.92676
0.917124
0.90855
0.903501
0.908251
1.04407
1.0427
1.03864
1.03364
1.02831
1.02248
1.01627
1.01073
1.00838
1.01587
1.11081
1.11151
1.11037
1.10852
1.10642
1.10392
1.10108
1.09851
1.0985
1.10807
1.17053
1.17301
1.17433
1.17514
1.17568
1.1758
1.17539
1.17469
1.1759
1.18708
1.22029
1.22396
1.22706
1.22981
1.23228
1.23433
1.2357
1.23626
1.23801
1.25
1.2592
1.26374
1.26815
1.27236
1.27631
1.27988
1.28272
1.28432
1.28617
1.29721
1.28552
1.29042
1.29551
1.30051
1.3053
1.30984
1.3139
1.31678
1.31895
1.32687
1.29809
1.30256
1.30737
1.31206
1.31649
1.32062
1.3243
1.32708
1.32988
1.34049
1.29544
1.29895
1.30273
1.30626
1.30935
1.31197
1.31402
1.31531
1.31756
1.33117
1.27714
1.27907
1.28114
1.28282
1.28392
1.28443
1.28436
1.28389
1.28525
1.29859
-0.347713
-0.371161
-0.400922
-0.435886
-0.475176
-0.518693
-0.565664
-0.612353
-0.653638
-0.680931
-0.201972
-0.228293
-0.259644
-0.295351
-0.335071
-0.378325
-0.423738
-0.468742
-0.509613
-0.535063
-0.0428907
-0.0718682
-0.104573
-0.140627
-0.179849
-0.221854
-0.265372
-0.308008
-0.346116
-0.369112
0.119444
0.0888942
0.0557105
0.0202396
-0.0174159
-0.0570715
-0.0977493
-0.137128
-0.171715
-0.190139
0.276677
0.246212
0.214068
0.180607
0.145735
0.109372
0.0722749
0.0367705
0.00658227
-0.0073268
0.42316
0.394712
0.365398
0.335388
0.304298
0.271912
0.238973
0.207919
0.182663
0.172399
0.556654
0.531904
0.506839
0.481214
0.454418
0.426311
0.39777
0.371347
0.350852
0.344144
0.678961
0.658612
0.638161
0.616933
0.594324
0.570409
0.546235
0.524348
0.50822
0.504602
0.795463
0.778332
0.760717
0.742468
0.723241
0.703183
0.683289
0.665783
0.653581
0.652673
0.903291
0.888171
0.871181
0.854652
0.838574
0.822652
0.807339
0.794149
0.785506
0.787267
1.41246
1.31479
1.30857
1.26398
1.24889
1.23173
1.21024
1.18707
1.1465
1.07132
1.39893
1.31095
1.30919
1.26692
1.25139
1.23523
1.21632
1.19577
1.16761
1.11876
1.38697
1.30734
1.30886
1.26881
1.25288
1.23756
1.22124
1.20491
1.18986
1.16413
1.37663
1.30361
1.30789
1.2701
1.25374
1.23899
1.22511
1.21292
1.20845
1.20268
1.36773
1.29987
1.3064
1.27072
1.25397
1.23942
1.22758
1.21878
1.22274
1.23355
1.36013
1.29627
1.30449
1.27063
1.25352
1.23879
1.22851
1.22226
1.23289
1.25673
1.35371
1.29286
1.3023
1.26985
1.25245
1.23711
1.22792
1.22332
1.23879
1.27199
1.34837
1.28966
1.30001
1.26847
1.25082
1.23445
1.22589
1.22192
1.24024
1.27903
1.34405
1.28669
1.29775
1.26656
1.24866
1.23086
1.22251
1.21805
1.237
1.27747
1.34065
1.28396
1.2956
1.26417
1.24594
1.22639
1.2179
1.21169
1.22886
1.26698
1.53252
1.32543
1.29416
1.24298
1.23282
1.21314
1.18439
1.14935
1.08552
0.996364
1.49428
1.32909
1.3008
1.24659
1.2352
1.21501
1.18559
1.15017
1.08425
0.987766
1.46998
1.32857
1.30375
1.24976
1.23729
1.21764
1.18863
1.15456
1.09029
0.991174
1.44662
1.32645
1.30631
1.25483
1.241
1.2221
1.19492
1.16378
1.10066
1.00173
1.42775
1.32103
1.30751
1.2596
1.24498
1.22687
1.20215
1.17283
1.11637
1.01748
0.822299
0.7475
0.655132
0.543576
0.414507
0.270045
0.115116
-0.0427801
-0.195408
-0.334582
0.81506
0.741073
0.650071
0.540925
0.415196
0.273896
0.120707
-0.0372127
-0.191253
-0.331963
0.825763
0.749925
0.656887
0.547027
0.421334
0.280097
0.126512
-0.0325857
-0.188441
-0.331175
0.848365
0.764709
0.666479
0.554795
0.428087
0.285912
0.131243
-0.0294752
-0.187467
-0.332465
0.886217
0.787476
0.678768
0.562636
0.433673
0.289991
0.133999
-0.0284267
-0.188682
-0.336113
)
;

boundaryField
{
    left
    {
        type            zeroGradient;
    }
    right
    {
        type            fixedValue;
        value           uniform 0;
    }
    down
    {
        type            zeroGradient;
    }
    up
    {
        type            zeroGradient;
    }
    cylinder
    {
        type            zeroGradient;
    }
    defaultFaces
    {
        type            empty;
    }
}


// ************************************************************************* //
