/*--------------------------------*- C++ -*----------------------------------*\
| =========                 |                                                 |
| \\      /  F ield         | OpenFOAM: The Open Source CFD Toolbox           |
|  \\    /   O peration     | Version:  2406                                  |
|   \\  /    A nd           | Website:  www.openfoam.com                      |
|    \\/     M anipulation  |                                                 |
\*---------------------------------------------------------------------------*/
FoamFile
{
    version     2.0;
    format      ascii;
    arch        "LSB;label=32;scalar=64";
    class       surfaceScalarField;
    location    "0.9";
    object      phi;
}
// * * * * * * * * * * * * * * * * * * * * * * * * * * * * * * * * * * * * * //

dimensions      [0 3 -1 0 0 0 0];

oriented        oriented;

internalField   nonuniform List<scalar> 
3485
(
0.000734532
0.000249274
-0.000983806
0.0043547
0.00186558
-0.00548575
0.010879
0.00336801
-0.00989229
0.0202764
0.00290711
-0.0123045
0.0326359
4.78254e-05
-0.0124074
0.0480915
-0.00489579
-0.0105598
0.0666166
-0.0111844
-0.0073407
0.088251
-0.0183434
-0.00329103
0.113251
-0.0265993
0.00159913
-0.0311212
0.00574032
0.138632
3.92564e-07
0.000248881
0.00138037
0.000485604
0.00587368
-0.0011253
0.0143655
-0.00558466
0.0268477
-0.0124344
0.0427912
-0.0208393
0.0616054
-0.0299987
0.0826555
-0.0393934
0.105108
-0.0490518
-0.0550048
0.128992
-0.000144624
0.000393506
0.00115708
-0.000816104
0.00648254
-0.00645076
0.0165891
-0.0156912
0.031035
-0.0268803
0.0489053
-0.0387096
0.0691847
-0.0502781
0.0909629
-0.0611716
0.113398
-0.0714872
-0.0781151
0.136509
0.000227612
0.000165893
0.0034225
-0.00401099
0.0115913
-0.0146196
0.0246614
-0.0287613
0.0416231
-0.0438419
0.0611519
-0.0582384
0.0820708
-0.0711971
0.103569
-0.08267
0.125159
-0.0930776
-0.10009
0.147134
0.000870854
-0.000704961
0.00682032
-0.00996046
0.0183574
-0.0261567
0.0344076
-0.0448115
0.0532457
-0.06268
0.0732904
-0.0782831
0.0935502
-0.0914569
0.113659
-0.102779
0.133622
-0.11304
-0.12133
0.154861
0.00210267
-0.00280763
0.0107505
-0.0186083
0.0251248
-0.040531
0.0429578
-0.0626445
0.0619737
-0.0816959
0.0807722
-0.0970816
0.0989202
-0.109605
0.116658
-0.120516
0.134533
-0.130916
-0.140998
0.154202
0.00354709
-0.00635471
0.0146393
-0.0297005
0.0308425
-0.0567342
0.0488714
-0.0806733
0.0665439
-0.0993685
0.0831208
-0.113658
0.0988129
-0.125297
0.114233
-0.135936
0.130015
-0.146698
-0.157807
0.146824
0.00491686
-0.0112716
0.0178441
-0.0426278
0.0345523
-0.0734424
0.0514639
-0.0975849
0.067073
-0.114978
0.0813136
-0.127899
0.094684
-0.138667
0.107717
-0.148969
0.120658
-0.159639
-0.170392
0.133244
0.00609901
-0.0173706
0.0199634
-0.0564922
0.0360706
-0.0895495
0.0512743
-0.112789
0.0647669
-0.12847
0.0767757
-0.139908
0.0877069
-0.149599
0.0978014
-0.159064
0.106982
-0.168819
-0.178284
0.114873
0.00696042
-0.024331
0.0208664
-0.0703982
0.0356892
-0.104372
0.0489199
-0.126019
0.0601684
-0.139719
0.0697191
-0.149458
0.0778537
-0.157733
0.0846922
-0.165902
0.0902114
-0.174339
0.094393
-0.182466
-0.00201652
0.0214854
-0.0194688
-0.00595797
0.0400474
-0.0361059
-0.0105587
0.0471757
-0.042575
-0.0153765
0.0499088
-0.045091
-0.0202484
0.0506473
-0.0457753
-0.0250425
0.050138
-0.0453439
-0.0296628
0.0487338
-0.0441135
-0.0340416
0.0466053
-0.0422265
-0.0381243
0.0438575
-0.0397748
0.0406523
-0.0418833
-0.0368933
-0.0012375
0.0227229
-0.00419587
0.0430057
-0.00785233
0.0508321
-0.0117595
0.0538159
-0.0158697
0.0547575
-0.0200654
0.0543336
-0.0242276
0.0528959
-0.0282905
0.0506682
-0.0322075
0.0477745
0.0443864
-0.0359416
-0.000224081
0.022947
-0.00181727
0.0445989
-0.00414142
0.0531563
-0.00656407
0.0562386
-0.00903816
0.0572316
-0.011787
0.0570825
-0.0148586
0.0559675
-0.0180777
0.0538872
-0.0212871
0.050984
0.0474989
-0.0243996
0.000902817
0.0220441
0.00110281
0.0443989
0.000686474
0.0535726
0.000223037
0.056702
-0.000173149
0.0576278
-0.000802654
0.057712
-0.00193501
0.0570999
-0.00359295
0.0555452
-0.0055456
0.0529366
0.0494898
-0.00753648
0.002639
0.0194051
0.00565954
0.0413784
0.00797141
0.0512607
0.00957699
0.0550964
0.0107299
0.0564749
0.0117026
0.0567393
0.0125759
0.0562266
0.0132079
0.0549133
0.0135518
0.0525927
0.0492593
0.0137823
0.00400084
0.0154043
0.00961846
0.0357608
0.014664
0.0462152
0.0188198
0.0509406
0.0223573
0.0529375
0.0255898
0.0535067
0.0287281
0.0530883
0.0318586
0.0517828
0.0349757
0.0494756
0.0460342
0.0382008
0.00456456
0.0108397
0.0120816
0.0282437
0.0196572
0.0386397
0.0266133
0.0439845
0.0330968
0.046454
0.0393523
0.0472512
0.0455243
0.0469162
0.0516659
0.0456412
0.0578083
0.0433331
0.039637
0.0642055
0.0043447
0.00649502
0.0127621
0.0198264
0.0222539
0.0291478
0.0317806
0.0344578
0.0412374
0.0369972
0.0507536
0.0377351
0.0604157
0.0372542
0.0701932
0.0358636
0.0799612
0.0335651
0.0294707
0.0901275
0.00345333
0.0030417
0.0115219
0.0117578
0.0217315
0.0189382
0.0329112
0.0232781
0.0447729
0.0251355
0.0573631
0.0251448
0.0707362
0.0238811
0.0847978
0.021802
0.0992414
0.0191215
0.0144336
0.114278
0.00205789
0.00832992
0.0173759
0.0283494
0.0410775
0.0556626
0.072203
0.090714
0.111435
0.131609
-0.0430982
0.191328
-0.190113
-0.00274779
-0.0991144
0.0587639
0.0417444
-0.214954
0.170462
0.0816752
-0.259067
0.219137
0.112109
-0.246945
0.216511
0.1326
-0.20996
0.189469
0.145249
-0.166687
0.154037
0.152318
-0.124174
0.117105
0.156109
-0.0898157
0.0860245
-0.0440309
0.0434361
-0.0469216
0.202308
-0.0147152
-0.131321
0.0321918
-0.261861
0.0753773
-0.302253
0.108922
-0.280489
0.131502
-0.232541
0.14546
-0.180644
0.153281
-0.131995
0.15767
-0.0942043
-0.0449082
-0.0452965
0.223205
-0.0225114
-0.154106
0.025515
-0.309888
0.0707651
-0.347503
0.106419
-0.316143
0.13051
-0.256631
0.145559
-0.195694
0.154096
-0.140532
0.159178
-0.0992857
-0.04622
-0.034933
0.250601
-0.020545
-0.168494
0.0264737
-0.356907
0.071691
-0.39272
0.107254
-0.351706
0.131298
-0.280675
0.146578
-0.210974
0.155424
-0.149378
0.161085
-0.104947
-0.0480545
-0.0144189
0.278802
-0.00521968
-0.177693
0.0390291
-0.401155
0.0823011
-0.435992
0.115024
-0.384429
0.136543
-0.302195
0.150325
-0.224755
0.158475
-0.157528
0.164226
-0.110698
-0.0503626
0.0138673
0.303136
0.0201247
-0.183951
0.0624373
-0.443468
0.103888
-0.477442
0.132599
-0.41314
0.149386
-0.318982
0.159416
-0.234784
0.165226
-0.163339
0.17004
-0.115512
-0.0528553
0.0460681
0.321273
0.0502535
-0.188136
0.089014
-0.482228
0.131207
-0.519635
0.158556
-0.44049
0.171085
-0.331511
0.176155
-0.239854
0.178079
-0.165263
0.180581
-0.118014
-0.0549991
0.0791732
0.332228
0.0783473
-0.18731
0.110894
-0.514775
0.155346
-0.564087
0.186161
-0.471305
0.198445
-0.343794
0.200148
-0.241557
0.198225
-0.163341
0.197626
-0.117415
-0.0563648
0.111232
0.335274
0.103576
-0.179654
0.128062
-0.539261
0.172238
-0.608263
0.208585
-0.507652
0.225199
-0.360408
0.227316
-0.243674
0.223724
-0.159749
0.220817
-0.114508
-0.057196
0.142156
0.324726
0.129815
-0.167312
0.145059
-0.554505
0.185071
-0.648275
0.224153
-0.546734
0.246325
-0.38258
0.252165
-0.249514
0.24992
-0.157505
0.24691
-0.111498
-0.058529
0.34093
0.223688
-0.239892
0.437181
-0.263564
0.491386
-0.60871
0.509502
-0.666391
0.508622
-0.545854
0.498247
-0.372205
0.479303
-0.23057
0.457641
-0.135843
0.438621
-0.0924775
-0.0497383
0.530244
0.109518
-0.416074
0.63389
-0.367209
0.660715
-0.635535
0.633398
-0.639074
0.589401
-0.501857
0.552911
-0.335715
0.525049
-0.202708
0.503235
-0.114029
0.485631
-0.0748736
-0.041108
0.733147
0.00913639
-0.632765
0.787456
-0.421518
0.771457
-0.619536
0.719783
-0.5874
0.65766
-0.439734
0.603086
-0.281141
0.563255
-0.162876
0.536818
-0.0875928
0.517965
-0.0560201
-0.032105
0.865066
-0.0696846
-0.786245
0.869661
-0.426113
0.818476
-0.568351
0.747955
-0.516879
0.677846
-0.369626
0.61937
-0.222665
0.577114
-0.12062
0.549632
-0.0601114
0.530151
-0.0365387
-0.0230729
0.931441
-0.124137
-0.876989
0.919476
-0.414148
0.861508
-0.510383
0.781304
-0.436675
0.697592
-0.285913
0.627748
-0.152821
0.57939
-0.0722618
0.549814
-0.0305357
0.530107
-0.0168321
-0.014174
0.968279
-0.165468
-0.926949
0.940754
-0.386622
0.858678
-0.428308
0.759983
-0.33798
0.671951
-0.197882
0.605521
-0.0863904
0.561951
-0.0286915
0.536423
-0.00500786
0.520321
-0.000730131
-0.00626031
0.973437
-0.193054
-0.945851
0.924604
-0.337789
0.819532
-0.323236
0.70319
-0.221638
0.61052
-0.105211
0.550748
-0.0266191
0.516991
0.00506554
0.499507
0.0124763
0.489211
0.00956618
-0.000265261
0.910371
-0.19223
-0.911196
0.816899
-0.244317
0.680328
-0.186665
0.557586
-0.0988961
0.479171
-0.0267959
0.440828
0.0117238
0.424769
0.0211251
0.418936
0.0183094
0.416132
0.0123702
0.00261855
0.681239
-0.124873
-0.748597
0.531789
-0.094866
0.391834
-0.04671
0.305306
-0.0123682
0.271564
0.00694629
0.267984
0.0153036
0.273808
0.0153007
0.280535
0.0115823
0.285339
0.0075665
0.00218221
0.197087
-0.321959
0.102221
0.0555106
0.0431424
0.0500887
0.0653923
0.080693
0.0922753
0.0998418
0.542548
0.0895547
-0.53771
0.543633
0.113788
0.539587
0.13729
0.524967
0.161444
0.498324
0.180845
0.454765
0.19842
0.398949
0.20295
0.334339
0.201119
0.275014
0.188316
0.173755
0.575557
0.0792302
-0.565232
0.582863
0.106482
0.590996
0.129157
0.594546
0.157894
0.595044
0.180346
0.586266
0.207198
0.564369
0.224847
0.528984
0.236504
0.469808
0.247492
0.227489
0.599707
0.0679572
-0.588434
0.610462
0.095728
0.623253
0.116366
0.636123
0.145024
0.650325
0.166144
0.663794
0.193729
0.671645
0.216996
0.672455
0.235693
0.660939
0.259008
0.255663
0.618499
0.0568476
-0.60739
0.632288
0.0819397
0.647991
0.100663
0.666121
0.126894
0.686863
0.145402
0.709378
0.171213
0.734339
0.192036
0.756353
0.21368
0.778771
0.236589
0.24819
0.629306
0.0451386
-0.617597
0.64567
0.0655752
0.664168
0.0821651
0.686631
0.104431
0.711408
0.120625
0.73989
0.142732
0.772478
0.159448
0.805911
0.180247
0.844417
0.198083
0.215618
0.630651
0.032269
-0.617781
0.64868
0.0475463
0.669645
0.0611992
0.695607
0.0784698
0.724471
0.0917608
0.757682
0.109521
0.794888
0.122241
0.83508
0.140055
0.880998
0.152165
0.169667
0.619165
0.0189449
-0.605841
0.637818
0.0288941
0.660024
0.0389925
0.687873
0.0506208
0.719598
0.0600362
0.755948
0.0731706
0.797329
0.0808606
0.841872
0.0955121
0.892899
0.101137
0.116715
0.582493
0.00688092
-0.570429
0.59961
0.0117765
0.620953
0.0176495
0.64806
0.023514
0.679159
0.0289371
0.716032
0.0362977
0.757042
0.0398508
0.803381
0.0491728
0.854789
0.0497298
0.0603085
0.488493
-0.00112374
-0.480488
0.500078
0.000191427
0.515512
0.00221525
0.535193
0.0038336
0.558424
0.00570576
0.587308
0.00741393
0.618805
0.00835343
0.657791
0.0101868
0.698663
0.00885766
0.0103754
0.264826
-0.26595
0.265017
0.267233
0.271066
0.276772
0.284186
0.292539
0.302726
0.311584
0.0632875
0.136036
-0.123592
-0.0757316
0.0528105
0.134755
-0.124278
0.0437651
0.134026
-0.12498
0.0355327
0.133862
-0.125629
0.0277543
0.133777
-0.125998
0.0203415
0.13315
-0.125737
0.0133719
0.130838
-0.123868
0.00701964
0.124613
-0.118261
0.00202854
0.107183
-0.102192
0.057992
-0.0559634
0.0608419
0.146835
-0.0716405
0.0505536
0.145044
0.0411184
0.143461
0.0325727
0.142408
0.0247674
0.141582
0.0176244
0.140293
0.0111597
0.137302
0.00549088
0.130282
0.00135644
0.111318
0.0593484
0.0534091
0.156176
-0.0627507
0.0442302
0.154223
0.035599
0.152092
0.0276969
0.15031
0.0205185
0.148761
0.0140482
0.146763
0.00831149
0.143039
0.00348802
0.135105
0.000372509
0.114433
0.0597209
0.0412186
0.163878
-0.0489201
0.0337633
0.161678
0.0266909
0.159164
0.0201156
0.156885
0.0141079
0.154768
0.00877256
0.152098
0.00417187
0.14764
0.000557336
0.13872
-0.000888103
0.115879
0.0588328
0.0260242
0.17031
-0.0324563
0.0201049
0.167597
0.0146335
0.164636
0.00962983
0.161888
0.00521464
0.159183
0.00149883
0.155814
-0.0015008
0.150639
-0.00321157
0.14043
-0.00252875
0.115196
0.0563041
0.008093
0.175625
-0.0134084
0.00352507
0.172165
-0.000372057
0.168533
-0.00356642
0.165083
-0.00600052
0.161618
-0.0077191
0.157533
-0.00864475
0.151565
-0.00784248
0.139628
-0.00431249
0.111666
0.0519916
-0.0117296
0.179816
0.00753903
-0.0149329
0.175368
-0.0171478
0.170748
-0.0184182
0.166353
-0.0188405
0.16204
-0.0184229
0.157115
-0.016688
0.14983
-0.0126001
0.13554
-0.0058822
0.104948
0.0461094
-0.0319381
0.182676
0.0290784
-0.033624
0.177054
-0.034117
0.171241
-0.0335127
0.165749
-0.031861
0.160388
-0.0289316
0.154186
-0.0240616
0.14496
-0.0165262
0.128005
-0.00693598
0.0953579
0.0391734
-0.0521997
0.183685
0.0511905
-0.0519861
0.176841
-0.0505041
0.169759
-0.0477593
0.163004
-0.0436538
0.156283
-0.0378527
0.148385
-0.0297983
0.136906
-0.0191887
0.117395
-0.00742463
0.0835938
0.0317488
-0.0716423
0.0728616
-0.0691401
-0.0652836
-0.0600127
-0.0531886
-0.0445227
-0.0336365
-0.0206133
-0.00741777
0.0826652
0.0388805
-0.0927387
-0.028807
0.0726088
0.0395712
-0.0295147
0.0625764
0.0402114
-0.030179
0.0525783
0.0407749
-0.0307768
0.0426171
0.041222
-0.0312608
0.0327016
0.0414024
-0.0314868
0.0228925
0.040876
-0.0310669
0.0134098
0.0386392
-0.0291566
0.00497748
0.0325921
-0.0241597
0.0176997
-0.0127222
0.0838855
0.0490718
-0.0940768
0.073689
0.0497677
0.0635054
0.050395
0.0533481
0.0509321
0.0432275
0.0513426
0.0331592
0.0514706
0.0232048
0.0508304
0.0135772
0.0482668
0.0050136
0.0411557
0.0227133
0.0848657
0.0592849
-0.0950788
0.0746679
0.0599655
0.0644773
0.0605857
0.0542934
0.061116
0.0441086
0.0615274
0.0339267
0.0616525
0.0238139
0.0609432
0.0139915
0.0580893
0.00519566
0.0499515
0.027909
0.082703
0.0695269
-0.092945
0.0724927
0.0701757
0.0623464
0.0707319
0.0522832
0.0711792
0.0423048
0.0715059
0.0324108
0.0715466
0.0226456
0.0707084
0.0132013
0.0675335
0.00480754
0.0583453
0.0327165
0.0841061
0.0797131
-0.0942923
0.0739259
0.0803559
0.0637301
0.0809277
0.0535254
0.0813839
0.0433282
0.0817031
0.0331768
0.0816981
0.0231658
0.0807193
0.0135153
0.0771841
0.00493834
0.0669222
0.0376548
0.0799191
0.0896043
-0.0898103
0.0700813
0.0901937
0.0603017
0.0907073
0.0505875
0.0910981
0.0409213
0.0913692
0.0312971
0.0913223
0.0217813
0.0902351
0.0125935
0.0863719
0.00448379
0.075032
0.0421386
0.0768334
0.099343
-0.0865721
0.0672494
0.0997777
0.0577413
0.100215
0.0482816
0.100558
0.0388772
0.100774
0.0295676
0.100632
0.0204515
0.0993511
0.0117396
0.0950838
0.00413237
0.0826392
0.046271
0.0729426
0.108968
-0.082568
0.0635096
0.109211
0.0542809
0.109444
0.0452311
0.109608
0.0363059
0.109699
0.0274962
0.109441
0.0188888
0.107959
0.0107055
0.103267
0.00367165
0.089673
0.0499426
0.0694515
0.117076
-0.0775593
0.061185
0.117477
0.0525589
0.11807
0.0437601
0.118407
0.0349623
0.118497
0.0262926
0.118111
0.0178937
0.116357
0.00999401
0.111167
0.00333218
0.0963349
0.0532748
0.0592119
-0.0657277
0.0524107
0.0455007
0.0382778
0.030776
0.0231503
0.0156398
0.00854609
0.00268861
0.203101
-0.0107187
0.00560733
0.202719
0.112659
-0.112277
0.197806
0.183855
-0.178942
0.192868
0.180144
-0.175206
0.188882
0.157764
-0.153778
0.184859
0.151502
-0.147479
0.178624
0.149875
-0.14364
0.168381
0.172309
-0.162066
0.143239
0.203568
-0.178426
0.276752
-0.226252
0.202863
-0.0155922
0.201634
0.113889
0.195969
0.18952
0.19054
0.185572
0.186299
0.162006
0.18255
0.155251
0.177263
0.155162
0.167546
0.182026
0.143373
0.227741
0.326048
0.202539
-0.0201417
0.200291
0.116137
0.1936
0.196211
0.187328
0.191844
0.182613
0.166722
0.178959
0.158904
0.174421
0.1597
0.164902
0.191545
0.142093
0.250549
0.373062
0.202143
-0.0242949
0.198714
0.119566
0.190632
0.204293
0.183208
0.199269
0.178013
0.171916
0.174386
0.162532
0.170252
0.163835
0.16062
0.201177
0.138918
0.272252
0.419035
0.201708
-0.0280132
0.196936
0.124338
0.186998
0.21423
0.178365
0.207902
0.172902
0.17738
0.169131
0.166303
0.164925
0.168041
0.154616
0.211485
0.135576
0.291293
0.460319
0.20127
-0.0312938
0.194956
0.130653
0.182799
0.226387
0.173352
0.217349
0.167767
0.182964
0.163377
0.170693
0.158612
0.172805
0.147553
0.222545
0.130222
0.308624
0.500731
0.20081
-0.0341137
0.192768
0.138695
0.178505
0.24065
0.168852
0.227002
0.162879
0.188937
0.157255
0.176318
0.151715
0.178345
0.139332
0.234928
0.124169
0.323786
0.538328
0.200193
-0.036317
0.190503
0.148385
0.174743
0.25641
0.165138
0.236607
0.158352
0.195723
0.151171
0.183498
0.144859
0.184657
0.130935
0.248851
0.118934
0.335787
0.574694
0.199196
-0.0375231
0.188476
0.159104
0.172051
0.272835
0.162262
0.246395
0.154765
0.203221
0.146412
0.191851
0.139306
0.191763
0.124327
0.263831
0.112409
0.347705
0.609544
0.19777
-0.0373033
0.186965
0.169909
0.170914
0.288887
0.16124
0.256069
0.154182
0.210279
0.14513
0.200903
0.135925
0.200968
0.117393
0.282362
0.107752
0.357346
0.651569
0.308776
-0.044069
0.315076
0.163609
0.314974
0.288989
0.314692
0.256351
0.319507
0.205464
0.318215
0.202194
0.324931
0.194252
0.32348
0.283814
0.373338
0.307488
0.572462
0.452444
0.305817
-0.0478762
0.325408
0.144018
0.343443
0.270953
0.356546
0.243249
0.368117
0.193893
0.376345
0.193966
0.38261
0.187988
0.390111
0.276312
0.419741
0.277858
0.513251
0.478952
0.301867
-0.0477333
0.334918
0.110968
0.372954
0.232917
0.400043
0.21616
0.415069
0.178866
0.436339
0.172696
0.439377
0.18495
0.460751
0.254938
0.484662
0.253947
0.46616
0.531754
0.298566
-0.0442892
0.340473
0.069061
0.394286
0.179104
0.432804
0.177642
0.450292
0.161379
0.481385
0.141603
0.487305
0.17903
0.513088
0.229155
0.547294
0.219741
0.418737
0.594716
0.296781
-0.0390599
0.341085
0.0247571
0.404725
0.115464
0.450311
0.132056
0.472303
0.139387
0.506066
0.10784
0.519495
0.165601
0.544733
0.203918
0.590202
0.174271
0.359142
0.649797
0.297267
-0.0343167
0.339239
-0.0172144
0.405341
0.0493615
0.453222
0.0841746
0.481845
0.110764
0.513307
0.0763778
0.535274
0.143634
0.563761
0.175431
0.61239
0.125642
0.292638
0.678894
0.300257
-0.0325636
0.335787
-0.0527444
0.395106
-0.00995748
0.439545
0.0397359
0.474444
0.0758651
0.501796
0.0490252
0.532044
0.113386
0.570604
0.136871
0.612256
0.0839902
0.224206
0.680688
0.306839
-0.0373923
0.329289
-0.0751945
0.366741
-0.0474094
0.398769
0.00770797
0.435713
0.0389213
0.456603
0.0281346
0.494056
0.0759342
0.545887
0.085039
0.576424
0.053453
0.151844
0.648787
0.306304
-0.0416863
0.298929
-0.0678197
0.297237
-0.045717
0.308832
-0.00388664
0.335948
0.0118055
0.351512
0.0125703
0.395695
0.0317507
0.446077
0.0346574
0.472954
0.0265758
0.0675939
0.557204
0.260324
0.192504
0.146787
0.142901
0.154706
0.167276
0.199027
0.233684
0.26026
0.327854
0.467783
-0.0910697
0.475262
-0.0791199
0.481626
-0.0691147
0.487679
-0.0549728
0.495205
-0.039983
0.5032
-0.0214033
0.512438
-0.00169876
0.521763
0.0197535
0.530746
0.0422077
0.0658976
0.486452
-0.0985702
0.493978
-0.0866454
0.50118
-0.0763167
0.508342
-0.062135
0.516829
-0.0484701
0.525144
-0.0297179
0.535615
-0.01217
0.545044
0.010324
0.555957
0.0312952
0.0566219
0.533592
-0.100409
0.538667
-0.0917199
0.543697
-0.0813469
0.54858
-0.0670179
0.553404
-0.0532941
0.558536
-0.0348495
0.564725
-0.018359
0.570828
0.00422106
0.579577
0.0225459
0.0477646
0.592444
-0.0981363
0.590818
-0.0900934
0.589018
-0.0795472
0.588035
-0.0660356
0.586944
-0.0522024
0.587465
-0.0353711
0.588769
-0.019663
0.592787
0.000203167
0.598551
0.0167818
0.0389262
0.64009
-0.0884301
0.630074
-0.080077
0.62054
-0.0700135
0.612773
-0.0582682
0.606273
-0.0457024
0.60277
-0.0318682
0.600985
-0.0178779
0.603635
-0.0024472
0.608256
0.0121618
0.029585
0.662418
-0.0719541
0.645589
-0.0632486
0.630599
-0.0550228
0.618444
-0.0461134
0.609164
-0.0364228
0.603551
-0.0262548
0.600977
-0.0153041
0.6029
-0.0043699
0.60789
0.00717146
0.0196941
0.658181
-0.0494468
0.638311
-0.0433788
0.62125
-0.0379621
0.60766
-0.0325228
0.597687
-0.0264498
0.591487
-0.0200548
0.588998
-0.0128158
0.590733
-0.00610471
0.595925
0.00197947
0.00977788
0.625558
-0.0262177
0.605997
-0.0238177
0.589389
-0.0213545
0.575998
-0.019132
0.565882
-0.0163335
0.559389
-0.0135612
0.556662
-0.0100894
0.557561
-0.00700348
0.562161
-0.00262033
0.00151005
0.539013
-0.00802679
0.522894
-0.00769915
0.50909
-0.00755064
0.497337
-0.00737883
0.487864
-0.00685993
0.480862
-0.00655946
0.476677
-0.00590435
0.474861
-0.00518755
0.476208
-0.00396748
-0.00277015
0.319827
0.312128
0.304578
0.297199
0.290339
0.283779
0.277875
0.272687
0.26872
0.00347035
0.0393424
-0.0428128
0.00613425
0.086491
-0.0891549
0.00663561
0.109983
-0.110484
0.00603694
0.120223
-0.119625
0.00547699
0.124329
-0.123769
0.00471517
0.126602
-0.12584
0.00353449
0.127363
-0.126182
0.00240797
0.125594
-0.124468
0.00179077
0.120507
-0.11989
0.110186
0.00201984
-0.110415
0.00475521
0.0345872
0.009951
0.0812952
0.0129279
0.107006
0.0142967
0.118854
0.0151863
0.12344
0.0159583
0.12583
0.0164022
0.126919
0.016617
0.12538
0.0169378
0.120187
0.109803
0.0173203
0.00568194
0.0289053
0.0135072
0.07347
0.0192698
0.101243
0.022839
0.115285
0.0251292
0.12115
0.0271031
0.123856
0.0289795
0.125043
0.03044
0.123919
0.0314713
0.119155
0.109483
0.0317919
0.00602086
0.0228844
0.0162246
0.0632663
0.0250687
0.092399
0.0312049
0.109149
0.0353123
0.117042
0.0386222
0.120546
0.0417058
0.121959
0.0442668
0.121358
0.0458741
0.117548
0.109285
0.0460718
0.0056925
0.0171919
0.017366
0.0515928
0.0292585
0.0805065
0.0385224
0.0998851
0.0450577
0.110507
0.0500367
0.115567
0.0543484
0.117647
0.0580192
0.117687
0.0604168
0.11515
0.108911
0.0607909
0.00487319
0.0123187
0.0166138
0.0398522
0.0306432
0.0664771
0.043184
0.0873443
0.0528725
0.100818
0.0602084
0.108231
0.0661569
0.111699
0.0711837
0.112661
0.0749228
0.111411
0.107353
0.076481
0.00384398
0.00847474
0.0142581
0.0294381
0.028582
0.0521532
0.0433399
0.0725864
0.056205
0.0879532
0.0665677
0.0978684
0.0748647
0.103402
0.0816851
0.10584
0.0871338
0.105963
0.103792
0.0906941
0.00281614
0.0056586
0.0110253
0.0212289
0.0236642
0.0395143
0.0385105
0.05774
0.0532203
0.0732434
0.0663673
0.0847214
0.0775428
0.0922264
0.0869292
0.0964539
0.0947455
0.0981463
0.0976565
0.100881
0.00181006
0.00384853
0.00745086
0.0155881
0.0170641
0.0299011
0.0298089
0.0449952
0.0440748
0.0589776
0.058325
0.0704712
0.0715896
0.0789617
0.0834776
0.0845659
0.0940147
0.0876092
0.0881099
0.103561
0.000789761
0.00305877
0.0038514
0.0125265
0.00999009
0.0237624
0.0193478
0.0356374
0.0311912
0.0471342
0.044373
0.0572894
0.0578541
0.0654806
0.0709137
0.0715063
0.0831748
0.0753481
0.0767258
0.0945589
-0.000157638
0.00321641
0.000700644
0.0116682
0.00376101
0.0207021
0.00967971
0.0297187
0.0183687
0.0384452
0.0292051
0.046453
0.0414256
0.0532601
0.0543523
0.0585796
0.0673151
0.0623853
0.0649688
0.0790721
-0.000848033
0.00406444
-0.00145152
0.0122717
-0.000519229
0.0197698
0.00271912
0.0264804
0.0085341
0.0326302
0.016644
0.0383431
0.0265497
0.0433545
0.0376984
0.0474309
0.0494828
0.0506008
0.0531512
0.0613005
-0.00111525
0.00517969
-0.00235815
0.0135146
-0.00257379
0.0199854
-0.00107621
0.0249828
0.00248892
0.0290651
0.00801966
0.0328124
0.0150702
0.0363039
0.0232913
0.0392099
0.032356
0.041536
0.0433981
0.0421091
-0.00101739
0.00619708
-0.00237737
0.0148746
-0.00316422
0.0207723
-0.00296641
0.024785
-0.00148988
0.0275886
0.00126706
0.0300554
0.00519509
0.0323759
0.0102253
0.0341797
0.0162496
0.0355117
0.0363787
0.023269
-0.00149465
0.00769173
-0.00364935
0.0170293
-0.00541643
0.0225393
-0.00645345
0.025822
-0.00676076
0.0278959
-0.0063321
0.0296268
-0.00494906
0.0309928
-0.00250938
0.03174
0.000887778
0.0321145
0.0322144
0.00505207
-0.00210051
0.00979225
-0.00508593
0.0200147
-0.00767485
0.0251283
-0.00959137
0.0277385
-0.0109757
0.0292802
-0.0118045
0.0304556
-0.0120156
0.0312039
-0.0115635
0.0312879
-0.0103425
0.0308935
0.0301668
-0.0082949
-0.00229075
0.012083
-0.00574814
0.0234721
-0.00914083
0.0285209
-0.0122424
0.0308401
-0.0149828
0.0320206
-0.0171843
0.032657
-0.0187735
0.0327931
-0.0197962
0.0323107
-0.0202131
0.0313103
0.0299257
-0.019972
-0.0024261
0.0145091
-0.00636606
0.0274121
-0.010604
0.0327589
-0.0148058
0.0350419
-0.0187526
0.0359675
-0.0222185
0.0361229
-0.025105
0.0356797
-0.0274463
0.034652
-0.0292454
0.0331094
0.0311649
-0.0304846
-0.00252956
0.0170387
-0.00685282
0.0317353
-0.0116841
0.0375902
-0.0165935
0.0399513
-0.0213304
0.0407044
-0.0257062
0.0404987
-0.0296211
0.0395946
-0.033055
0.0380859
-0.0359945
0.0360489
0.0335993
-0.0384289
-0.00243019
-0.0068008
-0.0117856
-0.0169253
-0.0219962
-0.0268415
-0.0313603
-0.0355009
-0.0392268
-0.0425209
0.0714469
0.251673
-0.244048
0.0617452
0.178082
-0.16838
0.0629096
0.0828552
-0.0840196
0.0718271
0.00612913
-0.0150466
0.0832768
-0.0390038
0.0275541
0.0958842
-0.0568305
0.044223
0.108036
-0.0577084
0.045557
0.11881
-0.0503181
0.039544
0.128311
-0.0394749
0.0299738
-0.0222069
0.0159097
0.058928
0.254046
0.0548686
0.182141
0.0624012
0.0753226
0.0754115
-0.00688116
0.0885477
-0.05214
0.101319
-0.0696021
0.113003
-0.0693922
0.123022
-0.0603367
0.131567
-0.0480202
-0.0275161
0.0439071
0.252248
0.0471836
0.178865
0.0616501
0.060856
0.0782855
-0.0235166
0.0933816
-0.0672361
0.106445
-0.082666
0.117677
-0.0806237
0.126876
-0.0695355
0.134406
-0.0555506
-0.0319072
0.0284629
0.247054
0.0405682
0.166759
0.0615959
0.0398284
0.0814381
-0.0433588
0.0981548
-0.0839528
0.111572
-0.0960827
0.122371
-0.0914233
0.130718
-0.0778825
0.137217
-0.0620498
-0.035444
0.0144708
0.237635
0.0357325
0.145498
0.0623076
0.0132532
0.084964
-0.0660151
0.103053
-0.102042
0.11681
-0.10984
0.127195
-0.101808
0.134702
-0.0853899
0.140185
-0.0675329
-0.0381704
0.00234726
0.226993
0.0321054
0.11574
0.0631323
-0.0177737
0.0883808
-0.0912636
0.10776
-0.121421
0.121899
-0.12398
0.131961
-0.11187
0.138744
-0.092173
0.143311
-0.0720998
-0.0401489
-0.00936414
0.216385
0.0286818
0.0776937
0.0631413
-0.0522333
0.0909179
-0.11904
0.11168
-0.142183
0.126371
-0.13867
0.136314
-0.121813
0.142594
-0.098453
0.146448
-0.0759536
-0.041492
-0.0197633
0.205664
0.0243518
0.0335786
0.0614427
-0.0893242
0.0918334
-0.149431
0.114276
-0.164626
0.129821
-0.154215
0.139935
-0.131927
0.145991
-0.104509
0.149403
-0.0793653
-0.0423609
-0.0287805
0.196016
0.0180204
-0.0132223
0.0573864
-0.12869
0.0906361
-0.182681
0.115229
-0.189219
0.13202
-0.171005
0.142645
-0.142552
0.148768
-0.110632
0.15203
-0.0826272
-0.0429436
-0.0366183
0.00892335
0.0506955
0.0871515
0.114443
0.132907
0.144392
0.150865
0.154262
0.0212334
0.017598
-0.0388314
0.0112967
0.00993673
0.00696272
0.00433395
0.00652563
0.000437087
0.00966702
-0.00314139
0.0139668
-0.00429981
0.0181774
-0.00421059
0.0219271
-0.00374969
0.0243721
-0.00244499
-0.00115782
0.0828745
0.0569916
-0.122268
0.0544949
0.0383164
0.0412549
0.0175739
0.039317
0.002375
0.0449398
-0.00876416
0.0529577
-0.0123177
0.0608872
-0.0121401
0.0677731
-0.0106356
0.0724332
-0.00710507
-0.00343909
0.127687
0.11378
-0.184475
0.0884728
0.0775301
0.0690324
0.0370143
0.0652103
0.00619718
0.0709969
-0.0145507
0.0804804
-0.0218013
0.0904192
-0.0220788
0.0990614
-0.0192778
0.105493
-0.0135363
-0.00689551
0.149315
0.180922
-0.216457
0.104598
0.122247
0.0815008
0.0601119
0.0766734
0.0110246
0.0828154
-0.0206927
0.0935483
-0.0325342
0.104901
-0.0334318
0.114738
-0.0291151
0.122632
-0.0214299
-0.0112826
0.154783
-0.217909
0.108649
0.0847417
0.0807197
0.0875811
0.0992698
0.111395
0.121824
0.130368
0.00865239
0.000125487
-0.00877788
0.00950632
-0.000853926
0.0111639
-0.00165759
0.013459
-0.00229505
0.0161719
-0.00271293
0.0191512
-0.00297927
0.0226344
-0.00348322
0.0265218
-0.00388745
0.0320682
-0.0055464
-0.00676316
0.0226591
0.000195944
-0.0227296
0.0249783
-0.00317313
0.0294124
-0.00609171
0.0357531
-0.00863576
0.0438488
-0.0108086
0.0539255
-0.013056
0.0666309
-0.0161886
0.0817734
-0.01903
0.101149
-0.0249223
-0.027882
0.0339377
-3.31547e-05
-0.0337086
0.0375695
-0.00680501
0.0443529
-0.012875
0.0542126
-0.0184955
0.0672418
-0.0238378
0.084101
-0.0299152
0.105063
-0.0371509
0.129657
-0.043624
0.158347
-0.0536122
-0.0540098
0.0428375
-0.000741631
-0.042129
0.0476068
-0.0115744
0.0563134
-0.0215816
0.0690423
-0.0312244
0.0861438
-0.0409393
0.108171
-0.0519428
0.134321
-0.0633008
0.163914
-0.0732167
0.193317
-0.0830148
-0.0771499
0.0497024
-0.0484242
0.0554482
0.0656586
0.080506
0.100358
0.124896
0.152289
0.179954
0.2005
0.0567649
-0.0492367
0.0560249
-0.0635531
0.0500225
-0.0487354
0.0554778
0.043513
-0.0484479
0.0549574
0.0369984
-0.0481223
0.0546369
0.0302911
-0.0476607
0.054368
0.0233495
-0.0468934
0.053835
0.016292
-0.045426
0.0524835
0.00939875
-0.0424
0.0492932
0.00334893
-0.0357938
0.0418437
-0.0199023
0.0232513
0.0629055
-0.0421703
-0.0699719
0.0557824
-0.0416123
0.0483715
-0.041037
0.0406898
-0.0404406
0.0328358
-0.0398067
0.0249524
-0.03901
0.0172165
-0.0376901
0.00988393
-0.0350674
0.00355304
-0.029463
-0.0163493
0.0634306
-0.0343073
-0.0712936
0.0554948
-0.0336764
0.0475469
-0.0330891
0.0396317
-0.0325255
0.0317951
-0.0319701
0.0240873
-0.0313022
0.0165946
-0.0301973
0.00951335
-0.0279862
0.00340921
-0.0233588
-0.0129401
0.0650438
-0.0261868
-0.0731644
0.0569543
-0.0255869
0.0488758
-0.0250106
0.0408172
-0.0244668
0.0327949
-0.0239478
0.0248584
-0.0233658
0.0171269
-0.0224657
0.00984474
-0.0207041
0.00358035
-0.0170944
-0.00935974
0.067118
-0.0178117
-0.0754931
0.0587176
-0.0171865
0.0502987
-0.0165916
0.0418733
-0.0160415
0.0334733
-0.0155479
0.025179
-0.0150715
0.017166
-0.0144527
0.00975817
-0.0132963
0.00354336
-0.0108796
-0.00581638
0.0693524
-0.00911002
-0.078054
0.0606207
-0.00845484
0.051852
-0.00782298
0.04305
-0.00723939
0.0342373
-0.00673519
0.0254991
-0.00633331
0.0170672
-0.00602074
0.00941859
-0.00564768
0.00330091
-0.00476194
-0.00251548
0.0720483
-5.78006e-05
-0.0811005
0.062971
0.000622484
0.0538486
0.00129943
0.0446746
0.00193452
0.0354542
0.00248524
0.0262464
0.00287454
0.017266
0.0029596
0.00907894
0.0025394
0.00279695
0.00152006
0.000281469
0.0750806
0.00929151
-0.08443
0.0657022
0.0100009
0.0563076
0.0106941
0.0468978
0.0113443
0.0374792
0.0119038
0.0280928
0.0122609
0.0188948
0.0121576
0.0103267
0.0111075
0.00338656
0.0084602
0.00366802
0.0780464
0.0189292
-0.0876842
0.0684069
0.0196404
0.0587775
0.0203235
0.0491695
0.0209524
0.0395959
0.0214774
0.0300909
0.0217659
0.0207633
0.0214852
0.0119162
0.0199547
0.00431777
0.0160586
0.00798579
0.0806798
-0.0905576
0.0708055
0.06095
0.0511255
0.0413422
0.0316212
0.0220394
0.0128375
0.00473642
0.0136461
-0.11005
-0.0140108
0.0117923
-0.118036
0.00926627
-0.121942
0.00650711
-0.123423
0.00384931