/*--------------------------------*- C++ -*----------------------------------*\
| =========                 |                                                 |
| \\      /  F ield         | OpenFOAM: The Open Source CFD Toolbox           |
|  \\    /   O peration     | Version:  2406                                  |
|   \\  /    A nd           | Website:  www.openfoam.com                      |
|    \\/     M anipulation  |                                                 |
\*---------------------------------------------------------------------------*/
FoamFile
{
    version     2.0;
    format      ascii;
    arch        "LSB;label=32;scalar=64";
    class       volVectorField;
    location    "0.9";
    object      U;
}
// * * * * * * * * * * * * * * * * * * * * * * * * * * * * * * * * * * * * * //

dimensions      [0 1 -1 0 0 0 0];

internalField   nonuniform List<vector> 
1800
(
(-0.00189078 0.0044811 0)
(-0.0216479 0.0326323 -1.01739e-20)
(-0.0284529 0.0806845 -9.42657e-20)
(-0.00982173 0.124102 6.57857e-20)
(0.0378797 0.156343 6.99764e-20)
(0.112512 0.179984 -5.04536e-21)
(0.208429 0.199256 -1.12968e-21)
(0.320064 0.21782 1.77787e-19)
(0.449423 0.2324 0)
(0.547901 0.285744 -3.41455e-20)
(-0.00189844 0.00170294 -1.86248e-20)
(-0.00833727 0.00673399 -9.08382e-20)
(0.000475059 0.0187228 7.36251e-20)
(0.0453431 0.0312241 1.28008e-19)
(0.126214 0.0380516 -3.06924e-20)
(0.235986 0.042083 -1.18389e-19)
(0.364825 0.0455735 8.85772e-21)
(0.505157 0.0494672 -6.84294e-20)
(0.656978 0.051988 5.97369e-20)
(0.76279 0.0799261 1.00488e-19)
(-0.00370576 0.0018339 8.8979e-21)
(-0.00151527 -0.00115353 -5.32119e-20)
(0.0428986 -0.00937276 -4.86475e-20)
(0.137968 -0.02046 3.09581e-20)
(0.268892 -0.0294598 -1.71512e-20)
(0.421092 -0.0332062 2.65991e-20)
(0.581331 -0.0313799 -3.31068e-20)
(0.741152 -0.0248735 -2.67261e-20)
(0.901508 -0.0114515 -5.23523e-20)
(1.00872 0.00274507 -2.06514e-19)
(-0.0032396 0.00313026 1.87247e-20)
(0.0206799 -0.00880809 8.19277e-20)
(0.125046 -0.0282415 -6.2889e-20)
(0.283118 -0.04781 -5.24552e-22)
(0.46802 -0.0601993 1.27382e-19)
(0.659209 -0.0629234 -2.26424e-20)
(0.842734 -0.0574481 -4.37508e-20)
(1.01295 -0.0461487 -3.60615e-20)
(1.17445 -0.0272486 -1.94994e-20)
(1.28024 -0.0146736 2.58953e-20)
(0.00058867 0.000519537 -1.50311e-20)
(0.0774257 -0.0222328 6.46223e-20)
(0.251136 -0.0436382 3.40937e-20)
(0.47239 -0.0593678 -8.03305e-20)
(0.702236 -0.0641607 -3.4068e-20)
(0.916914 -0.058216 4.90153e-20)
(1.10687 -0.0448937 2.78931e-20)
(1.27373 -0.0271704 3.76382e-20)
(1.4261 -0.00473053 -1.13948e-19)
(1.53514 0.00798148 -7.89236e-20)
(0.0178032 -0.00274539 4.43334e-22)
(0.169921 -0.0348136 1.45463e-19)
(0.419345 -0.0511751 1.02404e-19)
(0.694999 -0.0550517 -1.11232e-19)
(0.950068 -0.0470755 8.27131e-20)
(1.16673 -0.0309573 -1.14751e-20)
(1.34697 -0.0110941 8.50579e-20)
(1.50252 0.00976332 1.39919e-19)
(1.64637 0.0309607 -1.76045e-19)
(1.77582 0.043115 -1.63464e-19)
(0.0537295 -0.00710794 -3.59357e-20)
(0.296788 -0.0409 -2.33415e-19)
(0.618496 -0.0424429 2.69831e-20)
(0.927716 -0.0286414 2.62167e-19)
(1.18322 -0.00668717 -2.06294e-20)
(1.38429 0.018292 -1.61982e-19)
(1.54763 0.0427838 -9.32863e-20)
(1.69308 0.065241 3.22552e-19)
(1.83617 0.0852609 3.75476e-19)
(1.98266 0.0999017 4.22575e-20)
(0.107513 -0.0095361 3.4711e-20)
(0.452215 -0.0335094 3.13088e-20)
(0.830769 -0.0122369 -1.13109e-19)
(1.14825 0.0205855 5.73701e-20)
(1.38652 0.0544633 -2.09454e-21)
(1.5661 0.0859607 -5.39475e-19)
(1.71433 0.113611 -5.35482e-21)
(1.85343 0.137121 4.11968e-19)
(1.99645 0.15665 -2.77419e-19)
(2.14389 0.171226 -3.14447e-19)
(0.177804 -0.0058056 1.27846e-19)
(0.62455 -0.00626036 1.22045e-19)
(1.03717 0.041856 -2.87674e-19)
(1.34364 0.0919783 -7.16295e-20)
(1.55736 0.135216 -7.33023e-22)
(1.71517 0.171392 2.04367e-19)
(1.84833 0.200963 -3.88243e-19)
(1.97723 0.224445 -2.19606e-19)
(2.10979 0.241899 5.54323e-19)
(2.23909 0.252961 1.39368e-19)
(0.260633 0.00778488 3.042e-20)
(0.799415 0.0439676 3.10341e-19)
(1.22526 0.119372 -2.82082e-19)
(1.50993 0.18326 -1.18191e-19)
(1.69606 0.232221 1.16871e-19)
(1.83039 0.269747 -1.51023e-19)
(1.94454 0.298254 2.61756e-19)
(2.05635 0.319123 3.68669e-20)
(2.17079 0.332456 -2.25894e-19)
(2.28067 0.339057 -8.47641e-20)
(-0.0158086 0.256536 -2.77102e-20)
(-0.0401747 0.476154 1.01145e-19)
(-0.0694155 0.560263 6.76106e-20)
(-0.0955103 0.591968 -8.72378e-20)
(-0.119805 0.599506 1.27036e-21)
(-0.141978 0.59229 3.20646e-20)
(-0.161458 0.57453 1.8058e-20)
(-0.178193 0.548251 -3.44794e-20)
(-0.192238 0.514738 1.38432e-22)
(-0.204325 0.47555 -1.19375e-20)
(-0.0354281 0.275885 3.05385e-20)
(-0.0750852 0.516645 1.36459e-22)
(-0.106531 0.607007 3.41365e-20)
(-0.130486 0.640012 -1.07769e-19)
(-0.151458 0.647331 -7.31727e-20)
(-0.170232 0.638673 -5.11281e-20)
(-0.186298 0.618685 1.94087e-20)
(-0.199636 0.589392 0)
(-0.210391 0.552106 -1.50835e-20)
(-0.219382 0.508548 5.23242e-20)
(-0.0552556 0.282151 2.92598e-23)
(-0.111103 0.539608 -1.15831e-19)
(-0.144315 0.638143 -6.20231e-20)
(-0.164299 0.674684 7.37803e-20)
(-0.178995 0.686014 -2.01892e-22)
(-0.190421 0.678688 -5.31846e-20)
(-0.199444 0.657638 2.27727e-20)
(-0.207032 0.62698 1.4537e-20)
(-0.212484 0.588399 5.82803e-20)
(-0.216321 0.542957 9.02412e-21)
(-0.0730134 0.275134 2.90775e-20)
(-0.144973 0.543482 6.0136e-20)
(-0.177615 0.649793 6.12833e-21)
(-0.190866 0.684768 8.94287e-20)
(-0.195548 0.694687 -1.86382e-20)
(-0.198069 0.695298 1.4657e-20)
(-0.199946 0.685357 -1.45384e-20)
(-0.200136 0.660371 0)
(-0.198093 0.623004 -1.56927e-19)
(-0.194366 0.577349 -2.78155e-19)
(-0.0819394 0.250294 -2.29897e-20)
(-0.163864 0.519241 1.22162e-20)
(-0.19113 0.635906 5.47105e-20)
(-0.197111 0.678112 -3.30594e-20)
(-0.196247 0.69165 1.04728e-20)
(-0.193022 0.693489 3.74211e-21)
(-0.188318 0.688048 -3.28407e-20)
(-0.181113 0.674008 1.24308e-19)
(-0.170375 0.646706 -2.27478e-19)
(-0.156033 0.605712 -2.48786e-19)
(-0.0799873 0.206285 -2.17883e-20)
(-0.168158 0.461677 -1.91071e-20)
(-0.193186 0.591365 -1.51346e-20)
(-0.195138 0.649636 3.47455e-20)
(-0.188843 0.676099 1.22354e-19)
(-0.178357 0.686626 -2.4011e-19)
(-0.164472 0.685604 -5.15824e-20)
(-0.147321 0.674199 1.94766e-19)
(-0.125653 0.65197 -3.99285e-19)
(-0.0983444 0.616918 -2.22243e-19)
(-0.0679086 0.151771 -1.59933e-20)
(-0.156895 0.377298 4.76684e-20)
(-0.181833 0.51536 -4.6765e-21)
(-0.18041 0.589403 1.38367e-19)
(-0.166985 0.629268 4.76275e-20)
(-0.147016 0.650316 -2.16107e-19)
(-0.122604 0.658517 -2.79977e-19)
(-0.0943412 0.655487 -1.59221e-19)
(-0.0606805 0.640604 5.71624e-19)
(-0.0188833 0.61108 4.28068e-19)
(-0.0486975 0.0973673 -5.90655e-22)
(-0.130151 0.278291 -2.91796e-20)
(-0.154751 0.414257 -2.19278e-20)
(-0.151004 0.499542 -4.61706e-20)
(-0.131174 0.551966 -1.10616e-19)
(-0.101412 0.584441 1.17831e-19)
(-0.0650783 0.603486 -1.6176e-19)
(-0.0241142 0.611378 -2.28724e-20)
(0.0224793 0.607493 3.55399e-19)
(0.0818629 0.586536 1.19979e-20)
(-0.027154 0.051177 -1.61228e-20)
(-0.0914557 0.177518 -1.04693e-20)
(-0.112767 0.296278 1.06827e-20)
(-0.106586 0.382146 5.80434e-20)
(-0.0808125 0.44115 1.49701e-20)
(-0.0408211 0.482041 1.45918e-19)
(0.00922425 0.510903 1.08785e-20)
(0.0656175 0.530952 1.1377e-19)
(0.126808 0.542349 -5.09062e-21)
(0.20924 0.534814 -6.20643e-19)
(-0.0100184 0.019546 -2.79021e-20)
(-0.0517722 0.0910992 -3.76992e-20)
(-0.0669321 0.177905 7.80623e-20)
(-0.057365 0.248779 1.80811e-20)
(-0.024802 0.301388 2.60405e-20)
(0.0275944 0.340449 1.20533e-19)
(0.0953688 0.371207 1.28715e-19)
(0.173351 0.397644 -2.81932e-19)
(0.257872 0.422105 -3.94684e-19)
(0.369995 0.433186 -5.01565e-19)
(-0.258099 0.26244 -5.29131e-19)
(-0.130108 -0.111462 -7.77811e-19)
(0.116684 -0.266507 -3.11231e-19)
(0.301635 -0.331364 1.42318e-19)
(0.480035 -0.321623 2.36629e-20)
(0.603652 -0.277693 6.68623e-21)
(0.685141 -0.223413 -8.25765e-20)
(0.738197 -0.168492 3.06665e-20)
(0.769431 -0.123144 -1.961e-20)
(0.790894 -0.0618984 -1.17443e-20)
(-0.259287 0.269594 -5.54739e-19)
(-0.171995 -0.162308 1.84613e-20)
(0.0864621 -0.330011 -1.20573e-19)
(0.286871 -0.389465 -1.04717e-19)
(0.477167 -0.366888 5.65692e-20)
(0.607684 -0.308828 -1.04693e-19)
(0.692502 -0.243414 5.06065e-20)
(0.746512 -0.180615 1.18277e-21)
(0.778248 -0.130781 -3.66375e-20)
(0.800242 -0.0651054 2.35165e-20)
(-0.237657 0.290068 7.17222e-19)
(-0.187497 -0.200258 9.99568e-19)
(0.0804992 -0.395068 1.24667e-19)
(0.29072 -0.449989 -1.40997e-19)
(0.485161 -0.414666 -5.24153e-20)
(0.617231 -0.341503 2.10069e-21)
(0.702206 -0.264289 2.32205e-20)
(0.755851 -0.193121 -3.22816e-20)
(0.787362 -0.138801 1.18786e-21)
(0.810054 -0.0684609 -4.14731e-22)
(-0.189792 0.32154 8.4572e-19)
(-0.153151 -0.223807 -1.9394e-20)
(0.123959 -0.458207 9.23063e-20)
(0.334652 -0.509866 1.07132e-19)
(0.51967 -0.462141 1.57157e-20)
(0.642422 -0.373852 2.02092e-20)
(0.720452 -0.285025 -3.92734e-20)
(0.770132 -0.205509 0)
(0.799452 -0.147017 0)
(0.82226 -0.0719704 -4.61627e-23)
(-0.113697 0.357069 4.78212e-20)
(-0.0565683 -0.236745 -8.60003e-19)
(0.237138 -0.517053 -1.47401e-20)
(0.440303 -0.566288 -9.35852e-20)
(0.600727 -0.505843 -1.73448e-20)
(0.698893 -0.403192 6.26584e-20)
(0.758022 -0.303912 3.02944e-21)
(0.796481 -0.216806 -1.62597e-20)
(0.819508 -0.15494 -4.88139e-20)
(0.840343 -0.0755546 -1.88864e-21)
(-0.0160804 0.389799 -8.51752e-20)
(0.105184 -0.246063 -3.82434e-19)
(0.416291 -0.571775 -1.03039e-18)
(0.611456 -0.617728 1.21884e-20)
(0.741759 -0.542507 6.96067e-20)
(0.803577 -0.426017 3.33077e-20)
(0.829988 -0.318205 1.14403e-20)
(0.846272 -0.225245 -6.93009e-20)
(0.856147 -0.161554 8.13516e-22)
(0.870332 -0.0789255 -2.31126e-20)
(0.0998708 0.411968 -7.65781e-20)
(0.317326 -0.254432 -1.16006e-20)
(0.624454 -0.62275 4.41616e-19)
(0.817443 -0.667026 -1.13853e-19)
(0.930126 -0.572892 -2.45523e-20)
(0.959985 -0.440289 -9.71507e-21)
(0.947944 -0.324845 -5.92096e-21)
(0.932274 -0.228285 1.39112e-20)
(0.921243 -0.165068 1.81359e-20)
(0.921387 -0.0814258 9.70697e-21)
(0.233607 0.429037 -3.18584e-20)
(0.543285 -0.2573 1.51309e-18)
(0.827067 -0.66375 6.81652e-19)
(1.01501 -0.716851 4.68466e-20)
(1.12757 -0.60325 -8.54596e-20)
(1.14636 -0.449527 -3.21691e-20)
(1.1064 -0.323822 -2.15433e-20)
(1.05871 -0.224403 2.98077e-20)
(1.02371 -0.163534 -1.0564e-22)
(1.00311 -0.0820803 -3.53226e-21)
(0.400699 0.42322 -1.28791e-19)
(0.763066 -0.246343 4.19736e-19)
(1.02705 -0.684553 -1.01697e-18)
(1.19314 -0.761702 5.36702e-19)
(1.30292 -0.63623 -1.48826e-19)
(1.32865 -0.459349 -3.01385e-20)
(1.28082 -0.319136 -2.93209e-20)
(1.21253 -0.215237 1.48014e-21)
(1.15897 -0.156736 -1.68103e-21)
(1.11722 -0.080259 -1.51194e-21)
(0.549804 0.433936 9.55837e-20)
(0.982151 -0.201309 -7.84593e-19)
(1.25111 -0.689239 -7.41044e-19)
(1.37865 -0.797515 3.98186e-19)
(1.45791 -0.668844 -1.7535e-19)
(1.48581 -0.471575 3.38554e-20)
(1.44368 -0.314364 -1.13536e-19)
(1.36948 -0.203771 -2.53547e-21)
(1.30774 -0.146442 -5.03778e-21)
(1.25135 -0.0762815 -7.48829e-21)
(0.86179 0.358687 1.58315e-19)
(1.34476 -0.247826 -7.79508e-20)
(1.61749 -0.720408 -7.0783e-20)
(1.68234 -0.832949 -1.61637e-19)
(1.67522 -0.701508 9.9452e-20)
(1.6649 -0.48555 -2.97141e-21)
(1.62046 -0.30688 2.31204e-20)
(1.54715 -0.186058 2.52694e-20)
(1.4854 -0.128812 -5.61428e-20)
(1.42048 -0.0684698 7.14003e-21)
(1.42808 0.198281 2.95768e-19)
(2.04266 -0.412782 -4.31066e-19)
(2.24911 -0.794907 -3.64809e-19)
(2.17451 -0.826629 1.68118e-20)
(2.00242 -0.662036 8.64405e-20)
(1.86941 -0.447625 1.4916e-19)
(1.7747 -0.273543 1.39266e-19)
(1.69338 -0.157117 -1.89036e-20)
(1.63816 -0.105057 7.22343e-20)
(1.57731 -0.0570498 1.73451e-20)
(2.17559 0.0664781 6.07837e-20)
(2.64934 -0.489082 -9.00751e-21)
(2.66118 -0.77092 8.20005e-20)
(2.48684 -0.757286 3.16143e-35)
(2.26216 -0.584638 -4.78948e-20)
(2.06387 -0.385536 -6.6623e-34)
(1.91435 -0.229575 1.44398e-20)
(1.8084 -0.126606 1.58655e-34)
(1.7449 -0.0820791 -4.73967e-22)
(1.68379 -0.0459331 -8.47318e-22)
(2.72331 -0.0424252 1.03327e-19)
(2.98228 -0.535143 5.66748e-19)
(2.85788 -0.757526 3.013e-19)
(2.59927 -0.709742 0)
(2.33912 -0.519808 -1.09141e-19)
(2.12539 -0.322701 -1.32798e-19)
(1.9639 -0.180799 -1.13307e-19)
(1.85232 -0.0931916 1.02141e-33)
(1.78546 -0.0573674 -3.72759e-20)
(1.72417 -0.0335133 -3.53647e-22)
(3.00997 -0.127582 9.18216e-20)
(3.14561 -0.526372 3.69408e-21)
(3.00688 -0.66652 0)
(2.7329 -0.583147 0)
(2.431 -0.400263 0)
(2.1698 -0.23022 0)
(1.97772 -0.118736 4.8602e-21)
(1.8543 -0.0559176 1.19411e-33)
(1.78484 -0.0328874 -1.50522e-21)
(1.72445 -0.0234208 -1.51508e-34)
(3.16018 -0.182567 1.33236e-19)
(3.24467 -0.498534 0)
(3.0348 -0.593716 0)
(2.68071 -0.49847 0)
(2.34751 -0.313266 0)
(2.09052 -0.153661 0)
(1.91286 -0.0635664 -1.07524e-20)
(1.80343 -0.0216829 6.70798e-20)
(1.74655 -0.0102709 -2.0084e-21)
(1.69567 -0.0128615 1.00172e-20)
(3.20979 -0.225266 0)
(3.22208 -0.462529 2.34899e-19)
(2.93822 -0.480349 8.19575e-20)
(2.51569 -0.353297 0)
(2.14508 -0.187889 -9.89025e-20)
(1.89435 -0.0663005 -8.52477e-20)
(1.74851 -0.0101782 -6.83914e-20)
(1.66888 0.00839141 -3.31577e-20)
(1.6359 0.00819447 2.98694e-20)
(1.5988 -0.00288853 -8.40414e-21)
(3.06272 -0.245035 3.28234e-20)
(2.93027 -0.377487 -5.33736e-21)
(2.50816 -0.33562 -1.12025e-20)
(2.02392 -0.208194 -1.41826e-35)
(1.6802 -0.0789625 2.11488e-20)
(1.49747 -0.00138818 -5.01977e-34)
(1.41906 0.0230853 -1.35485e-20)
(1.38659 0.0235026 -2.66465e-20)
(1.38399 0.0163612 -2.61366e-21)
(1.36649 0.00239444 4.74354e-21)
(2.4175 -0.231199 0)
(2.03972 -0.227111 -4.81297e-20)
(1.50933 -0.122607 -6.82521e-21)
(1.10815 -0.0350563 0)
(0.926414 0.0120508 2.46435e-20)
(0.880696 0.0307878 2.06185e-20)
(0.892253 0.0302539 1.63862e-21)
(0.913759 0.0225669 1.01606e-20)
(0.940132 0.0145932 -1.34186e-20)
(0.944053 0.00405747 -3.23815e-21)
(0.803767 -0.074486 1.58472e-20)
(0.45773 -0.0200576 0)
(0.233473 -0.000273854 0)
(0.145177 0.00367742 0)
(0.147244 0.00711505 0)
(0.189699 0.00960828 0)
(0.242813 0.00891646 -1.40955e-20)
(0.287196 0.00645859 4.45078e-35)
(0.320798 0.00406802 -3.05507e-21)
(0.335974 0.00120585 -5.33144e-21)
(2.45632 0.346988 4.27367e-19)
(2.45242 0.26858 1.81259e-19)
(2.40904 0.204988 3.19507e-19)
(2.32562 0.146167 -3.07097e-19)
(2.17007 0.100852 4.42099e-20)
(1.96749 0.0595262 1.2176e-20)
(1.68274 0.0284956 2.43598e-20)
(1.38321 0.0214101 -8.68342e-21)
(1.0943 0.0160027 4.605e-20)
(0.791736 0.236328 1.19184e-19)
(2.59013 0.302873 -2.36119e-19)
(2.61466 0.248696 4.88452e-20)
(2.60068 0.18823 1.5998e-19)
(2.57916 0.152496 1.34914e-19)
(2.5171 0.108048 -2.15022e-19)
(2.40692 0.105083 7.88662e-20)
(2.29039 0.0607108 -7.90226e-20)
(2.01204 0.102679 -2.8184e-20)
(1.8895 0.0277041 -8.34227e-20)
(1.36505 0.142404 -1.25141e-19)
(2.71011 0.26276 3.47069e-20)
(2.70955 0.231765 -1.64127e-19)
(2.75712 0.165266 -2.18087e-19)
(2.69933 0.153353 4.46993e-19)
(2.756 0.0871709 -8.01763e-21)
(2.61458 0.117104 -1.75126e-20)
(2.69983 0.0500359 -8.11847e-20)
(2.42541 0.115732 -6.52955e-20)
(2.51238 0.043415 8.68623e-20)
(2.07872 0.0991298 -1.23939e-21)
(2.80768 0.220308 6.35965e-20)
(2.78239 0.204201 -2.13124e-19)
(2.88004 0.138519 3.97194e-20)
(2.79345 0.141232 -1.56736e-19)
(2.91523 0.0644932 2.38989e-19)
(2.76195 0.099039 -7.08057e-20)
(2.91126 0.025506 6.44542e-20)
(2.70135 0.0794762 -1.03652e-19)
(2.83788 0.0234041 -2.69949e-19)
(2.57998 0.0551698 -1.4344e-19)
(2.84906 0.180662 1.12848e-19)
(2.84396 0.163597 -3.32792e-19)
(2.93342 0.111505 -2.33108e-20)
(2.88999 0.108855 -3.32476e-20)
(2.98698 0.0463578 -1.06989e-20)
(2.90261 0.0592279 -2.22567e-21)
(3.00854 -0.00246309 4.62291e-20)
(2.90214 0.0227619 -6.57755e-20)
(2.99753 -0.0235301 -1.2338e-19)
(2.88141 -0.00309883 -1.86256e-19)
(2.84315 0.135776 2.08245e-19)
(2.86556 0.114791 4.11618e-20)
(2.93683 0.0778709 -2.29859e-19)
(2.94075 0.0663103 1.3347e-19)
(3.00992 0.0232336 1.22336e-19)
(2.99397 0.0177322 -7.09044e-20)
(3.05787 -0.0274646 1.23267e-19)
(3.02763 -0.0252263 3.89325e-20)
(3.0864 -0.0672723 -1.79441e-19)
(3.04967 -0.057353 -2.41958e-19)
(2.78406 0.084129 1.76107e-20)
(2.82261 0.0634015 7.47728e-20)
(2.88379 0.035453 -8.90133e-20)
(2.91232 0.0218282 -4.00759e-20)
(2.97381 -0.0111646 1.2878e-19)
(2.99286 -0.0199744 2.9892e-20)
(3.04746 -0.0584446 1.01249e-19)
(3.05949 -0.0598773 1.00911e-19)
(3.10458 -0.103204 3.5567e-20)
(3.1161 -0.0982617 9.39383e-20)
(2.61224 0.0365059 2.40802e-20)
(2.66451 0.0156434 -2.4397e-22)
(2.7008 -0.000504673 -9.27218e-20)
(2.75576 -0.0174708 -8.02054e-20)
(2.78938 -0.0405865 2.81656e-20)
(2.84775 -0.0490444 -3.88705e-20)
(2.87322 -0.0827648 -2.15429e-20)
(2.93062 -0.0789135 1.02109e-19)
(2.95032 -0.123246 -7.62841e-20)
(3.00809 -0.114028 -8.46285e-20)
(2.1885 -0.0105623 7.6208e-20)
(2.23726 -0.0239546 -3.48556e-20)
(2.23657 -0.0327895 -3.15835e-20)
(2.2965 -0.0452962 3.79794e-20)
(2.28097 -0.0518144 -1.89137e-20)
(2.36089 -0.0614064 5.31961e-21)
(2.32631 -0.0722782 -6.47824e-20)
(2.42576 -0.0785934 1.60857e-20)
(2.38468 -0.104177 3.21432e-20)
(2.49093 -0.108464 -3.6263e-20)
(1.20216 -0.0158336 0)
(1.19542 -0.018858 3.40354e-21)
(1.17623 -0.019901 -4.83912e-20)
(1.17331 -0.0229815 -7.28923e-20)
(1.14635 -0.0252672 3.93541e-20)
(1.15477 -0.0314264 1.43755e-19)
(1.11162 -0.0347719 -1.21075e-20)
(1.14061 -0.0437155 -5.02949e-20)
(1.0647 -0.0492362 -4.07189e-22)
(1.12205 -0.0613805 3.50269e-21)
(1.41099 0.873919 -5.07763e-20)
(1.36945 0.896959 -1.06068e-19)
(1.34585 0.92309 -6.99942e-19)
(1.32607 0.952193 1.92253e-19)
(1.30463 0.980766 9.77157e-19)
(1.27658 1.00476 1.07186e-19)
(1.23336 1.01411 -8.55189e-20)
(1.15501 0.99042 -2.40766e-19)
(0.977177 0.874302 -2.89717e-19)
(0.523509 0.485047 -3.47833e-20)
(1.57828 0.856416 -4.40238e-19)
(1.53466 0.875212 1.2097e-18)
(1.49917 0.896461 5.21673e-19)
(1.47014 0.921855 -7.04559e-19)
(1.44359 0.948063 2.28312e-19)
(1.41245 0.969986 1.98787e-19)
(1.36577 0.976866 6.29863e-19)
(1.28075 0.951705 -9.3673e-19)
(1.08357 0.835135 -5.52708e-20)
(0.575739 0.456979 1.44189e-19)
(1.72744 0.832653 1.19049e-19)
(1.68736 0.84888 9.26939e-19)
(1.64727 0.865613 1.68053e-20)
(1.61204 0.885005 -4.09825e-19)
(1.58018 0.905325 1.35138e-19)
(1.54438 0.921939 -1.76523e-20)
(1.49237 0.924497 -4.98081e-20)
(1.39845 0.897094 -3.43404e-19)
(1.17917 0.779937 8.15598e-20)
(0.618238 0.418383 -2.03966e-19)
(1.85139 0.799382 -4.82689e-19)
(1.81448 0.811936 4.17824e-19)
(1.77429 0.823894 -6.24833e-19)
(1.73693 0.837351 -2.16987e-19)
(1.70216 0.851673 1.16792e-18)
(1.66274 0.862387 -7.06122e-19)
(1.60546 0.859811 -7.83221e-19)
(1.50205 0.828836 3.54871e-19)
(1.25712 0.710761 -1.26019e-19)
(0.645416 0.371217 -4.95451e-20)
(1.95705 0.755031 5.92669e-19)
(1.9189 0.764101 4.57233e-19)
(1.878 0.772128 -1.9708e-19)
(1.83975 0.780982 7.39991e-19)
(1.80317 0.789671 1.12589e-19)
(1.76022 0.793003 -3.17253e-19)
(1.69769 0.783972 3.98147e-19)
(1.58291 0.749349 -5.14041e-19)
(1.30827 0.629061 -5.9427e-19)
(0.652 0.315356 -1.8903e-20)
(2.04866 0.704605 7.81177e-19)
(2.00542 0.710855 9.14719e-19)
(1.96076 0.715627 -8.70191e-19)
(1.91909 0.719558 -8.23421e-19)
(1.87798 0.720774 1.72405e-19)
(1.83011 0.715842 -5.60141e-19)
(1.76242 0.700961 -2.89418e-19)
(1.63186 0.66013 2.33102e-19)
(1.324 0.534278 8.12265e-20)
(0.633408 0.252396 3.62339e-21)
(2.12854 0.64857 7.16129e-19)
(2.07676 0.652308 -8.97423e-19)
(2.02379 0.653474 -7.42741e-19)
(1.97413 0.651519 4.88481e-19)
(1.926 0.645254 -4.35646e-19)
(1.87202 0.633716 1.22641e-18)
(1.79439 0.611827 -1.55444e-19)
(1.64033 0.559707 -1.00652e-18)
(1.29615 0.42837 4.47546e-19)
(0.588572 0.187028 4.00225e-20)
(2.19799 0.583326 -4.71164e-19)
(2.13407 0.584518 -6.20704e-19)
(2.06868 0.582064 -7.52593e-19)
(2.0079 0.574892 4.12677e-20)
(1.94982 0.562903 2.55765e-19)
(1.88431 0.544467 2.41299e-19)
(1.78728 0.51212 4.28087e-19)
(1.60174 0.447654 -1.85921e-19)
(1.22258 0.317173 2.86832e-20)
(0.521567 0.125436 6.52802e-20)
(2.25101 0.509323 2.20116e-19)
(2.17325 0.507859 -8.92211e-20)
(2.09321 0.502012 3.67051e-19)
(2.01831 0.490209 9.65095e-19)
(1.94553 0.472211 -2.99139e-19)
(1.8612 0.445317 -1.0372e-18)
(1.73687 0.402393 7.47672e-19)
(1.51562 0.330287 7.04252e-19)
(1.10879 0.210356 -3.75771e-19)
(0.439551 0.0732479 -3.3113e-20)
(2.28123 0.425958 -4.48723e-19)
(2.18805 0.422344 -4.56767e-21)
(2.09177 0.413268 5.34002e-19)
(1.99953 0.396916 4.77486e-19)
(1.90711 0.372855 3.2116e-19)
(1.7985 0.338684 -5.10254e-19)
(1.64295 0.289573 7.23534e-20)
(1.38732 0.217632 -3.07863e-19)
(0.964304 0.117167 -4.1737e-19)
(0.350142 0.0337802 3.62389e-22)
(0.421267 0.406763 5.14954e-21)
(0.386253 0.416996 2.88094e-20)
(0.348636 0.426697 1.70997e-21)
(0.308804 0.435591 -3.66723e-20)
(0.266561 0.443117 -3.58261e-20)
(0.221438 0.447439 -7.39047e-20)
(0.172915 0.443396 2.61515e-20)
(0.120292 0.419444 -3.49174e-20)
(0.0643264 0.352395 9.3052e-20)
(0.0243686 0.189212 1.61509e-20)
(0.472851 0.497486 -3.55346e-20)
(0.438063 0.5103 7.43547e-22)
(0.40072 0.522493 -8.91998e-20)
(0.36103 0.533914 1.23558e-20)
(0.318737 0.544159 2.84237e-20)
(0.273209 0.551382 3.5086e-20)
(0.223483 0.54984 1.62011e-19)
(0.168089 0.5261 -5.54158e-20)
(0.104783 0.450786 6.42039e-20)
(0.0459205 0.248486 -1.4249e-20)
(0.540057 0.583456 -3.87294e-21)
(0.506345 0.599414 1.05204e-19)
(0.470263 0.614841 7.86538e-20)
(0.431774 0.629555 9.98912e-20)
(0.390393 0.643141 3.16505e-20)
(0.345163 0.653746 1.71751e-19)
(0.29453 0.655193 -6.17668e-20)
(0.235953 0.632285 -7.7311e-20)
(0.163237 0.549332 1.14453e-22)
(0.0778272 0.307761 9.87793e-21)
(0.609628 0.66412 2.72258e-19)
(0.576034 0.682298 1.88312e-19)
(0.540754 0.699599 -2.82587e-19)
(0.503425 0.71634 -1.32389e-19)
(0.463562 0.732457 1.80804e-20)
(0.420076 0.746013 -7.95363e-20)
(0.370773 0.750047 -2.64163e-19)
(0.311553 0.727649 8.26415e-20)
(0.231132 0.637761 -5.88157e-20)
(0.116399 0.360804 -9.71015e-20)
(0.710561 0.732628 -8.30286e-20)
(0.678874 0.753749 -2.4956e-19)
(0.64525 0.773827 2.17816e-19)
(0.609015 0.793141 -8.50883e-20)
(0.569533 0.811706 -1.62534e-19)
(0.525624 0.82779 2.2871e-19)
(0.474704 0.834278 1.02276e-19)
(0.41134 0.812932 -1.25417e-19)
(0.318627 0.71767 -2.51901e-19)
(0.165276 0.408532 4.66075e-20)
(0.800817 0.796466 -1.33473e-20)
(0.770505 0.819517 -1.65721e-20)
(0.73948 0.841121 -2.7113e-20)
(0.706535 0.862289 7.14778e-20)
(0.670742 0.883212 2.13465e-19)
(0.63042 0.901788 -2.0627e-19)
(0.581927 0.910124 -1.35003e-19)
(0.517528 0.888847 -3.89129e-20)
(0.413844 0.787534 9.13265e-20)
(0.218989 0.449018 1.45211e-19)
(0.907464 0.843508 -2.22172e-19)
(0.879287 0.869225 1.10465e-19)
(0.85084 0.892717 3.38465e-19)
(0.820172 0.915313 -2.16411e-19)
(0.786352 0.937612 -4.38169e-19)
(0.747847 0.957742 1.91347e-19)
(0.700588 0.967335 5.81859e-19)
(0.634648 0.946118 1.54201e-19)
(0.518796 0.840497 -1.7473e-20)
(0.277727 0.478891 2.10024e-19)
(1.02463 0.880453 -4.03046e-19)
(0.994896 0.905981 -1.38044e-19)
(0.967261 0.929288 3.35179e-19)
(0.939083 0.952436 -1.163e-19)
(0.908438 0.975811 9.44707e-20)
(0.872829 0.996989 3.91933e-19)
(0.827109 1.00695 -3.9637e-19)
(0.759118 0.985128 -3.55523e-19)
(0.629735 0.875795 2.78062e-19)
(0.339168 0.497583 -1.42244e-20)
(1.14746 0.899424 -1.53261e-20)
(1.12566 0.926297 4.60676e-20)
(1.10243 0.948791 -2.46043e-19)
(1.07604 0.971128 -8.1498e-20)
(1.04622 0.994592 4.8022e-19)
(1.01115 1.0165 1.30961e-19)
(0.964902 1.02704 -1.02565e-19)
(0.8927 1.00518 0)
(0.747271 0.893479 -1.89502e-19)
(0.40297 0.50539 -1.02962e-19)
(1.23395 0.901116 0)
(1.21831 0.929719 0)
(1.20849 0.954719 6.65151e-19)
(1.19392 0.978289 1.41372e-19)
(1.17269 1.00181 -2.03656e-19)
(1.14331 1.02301 3.71528e-19)
(1.09982 1.03215 -2.31266e-19)
(1.02524 1.00891 -6.56298e-19)
(0.864167 0.894212 3.43394e-19)
(0.4653 0.501685 1.84073e-19)
(0.960008 -0.00992567 -1.14617e-20)
(1.05002 0.157542 -7.7429e-21)
(0.975598 0.253221 7.09074e-21)
(0.955324 0.248127 5.81463e-21)
(0.921855 0.21775 1.98468e-20)
(0.893993 0.209112 3.28237e-20)
(0.870236 0.205454 -1.5702e-20)
(0.813473 0.233631 -2.55014e-20)
(0.772023 0.266538 -9.4608e-20)
(0.580086 0.350252 8.89897e-20)
(0.959527 -0.014006 -8.60926e-22)
(1.05056 0.161329 7.49231e-21)
(0.974711 0.262759 9.9115e-23)
(0.955135 0.257437 1.26033e-20)
(0.921137 0.22553 1.54316e-20)
(0.894119 0.216536 -4.53117e-20)
(0.877266 0.215543 -1.53089e-20)
(0.827972 0.249227 1.0701e-22)
(0.795584 0.302298 2.38347e-19)
(0.624942 0.421022 -1.97652e-21)
(0.958932 -0.0179093 2.5073e-21)
(1.05166 0.165711 1.29719e-20)
(0.973864 0.272529 -8.45022e-21)
(0.954187 0.266694 -1.56188e-21)
(0.918454 0.232975 -1.83255e-20)
(0.892576 0.222956 3.2181e-21)
(0.881609 0.223609 2.03672e-20)
(0.841241 0.263462 -1.94138e-20)
(0.818092 0.335607 1.17588e-19)
(0.680096 0.486648 -3.08602e-19)
(0.958183 -0.0216698 1.78679e-21)
(1.05351 0.170695 -1.92583e-21)
(0.973083 0.282722 -9.99782e-21)
(0.951722 0.276103 -3.3881e-20)
(0.913954 0.240051 4.03826e-20)
(0.890613 0.228325 2.51264e-20)
(0.884121 0.229768 -2.53688e-20)
(0.853167 0.276481 9.44021e-20)
(0.840562 0.365776 -1.04822e-19)
(0.739959 0.551188 -3.08523e-19)
(0.957266 -0.0253556 1.24471e-21)
(1.05649 0.17627 -7.63795e-21)
(0.972247 0.293692 4.01037e-21)
(0.94724 0.285793 5.39522e-20)
(0.90948 0.246538 1.47855e-20)
(0.889605 0.232549 5.3362e-20)
(0.885785 0.234479 3.08722e-20)
(0.863733 0.288722 7.17217e-20)
(0.861132 0.391731 -9.63168e-21)
(0.818906 0.604305 2.4548e-19)
(0.956235 -0.029096 1.3508e-21)
(1.06094 0.182467 2.75993e-22)
(0.970866 0.305784 -1.39279e-21)
(0.942471 0.295649 1.49189e-20)
(0.908377 0.252048 -4.62193e-20)
(0.890306 0.235894 7.67169e-21)
(0.887623 0.238347 -6.66536e-21)
(0.87276 0.300326 -2.10099e-19)
(0.885165 0.412792 0)
(0.895241 0.657378 -2.79748e-20)
(0.955204 -0.0330585 -1.62329e-21)
(1.06663 0.189363 -3.905e-21)
(0.968895 0.318934 1.35769e-21)
(0.942077 0.304662 -7.22973e-20)
(0.912571 0.256195 -1.69731e-20)
(0.89298 0.238903 -7.18933e-20)
(0.891115 0.241741 4.44461e-21)
(0.882351 0.311839 6.84563e-21)
(0.90876 0.428991 -3.3316e-21)
(0.978582 0.69553 8.59979e-19)
(0.953996 -0.0372949 -2.12341e-20)
(1.07247 0.196681 -8.54911e-21)
(0.968694 0.332613 1.15849e-20)
(0.948887 0.311385 3.60304e-20)
(0.921941 0.259134 -7.95132e-20)
(0.89888 0.242159 1.71494e-20)
(0.8999 0.24473 -3.56202e-21)
(0.895392 0.323377 2.01273e-20)
(0.938293 0.441017 1.40097e-19)
(1.08762 0.739464 -8.48285e-20)
(0.951205 -0.0412746 6.4519e-21)
(1.07754 0.203666 2.86808e-21)
(0.974432 0.345591 -5.38397e-21)
(0.962755 0.315761 8.61464e-20)
(0.937887 0.261422 7.69896e-21)
(0.91385 0.246201 2.59812e-20)
(0.921946 0.246978 -4.51628e-20)
(0.917632 0.333221 6.18265e-20)
(0.982828 0.439428 2.60324e-19)
(1.16171 0.755411 -6.47166e-19)
(0.944571 -0.044666 7.47794e-21)
(1.08275 0.210957 2.65221e-20)
(0.988384 0.356434 1.112e-21)
(0.986145 0.317831 -3.05113e-20)
(0.970174 0.262479 8.77329e-20)
(0.953108 0.249996 -3.41911e-20)
(0.967567 0.250789 -1.32531e-20)
(0.955993 0.348541 4.67704e-20)
(1.04035 0.462404 -9.47285e-20)
(1.29639 0.808378 3.9428e-19)
(0.930607 -0.0509979 -2.8295e-21)
(1.09068 0.212846 -1.28056e-20)
(1.02159 0.365702 -3.39997e-21)
(1.04274 0.322677 -5.4293e-20)
(1.0554 0.262502 -5.11118e-20)
(1.05623 0.252088 -4.2749e-20)
(1.07346 0.248022 1.04592e-20)
(1.05877 0.352765 -1.3595e-19)
(1.12269 0.400742 -4.41813e-19)
(1.32708 0.782739 -6.84597e-20)
(0.909803 -0.0585702 -2.1182e-20)
(1.09255 0.197057 -1.37813e-20)
(1.09035 0.356761 -6.67829e-23)
(1.15836 0.317026 4.10179e-22)
(1.21834 0.250514 3.33101e-20)
(1.21577 0.251516 6.60257e-20)
(1.30353 0.235659 1.42296e-20)
(1.20681 0.354538 1.14226e-19)
(1.41607 0.36268 1.59659e-19)
(1.36329 0.6795 3.63361e-19)
(0.891883 -0.0602331 -3.10724e-21)
(1.0842 0.163646 -4.80549e-21)
(1.16366 0.322043 5.91783e-21)
(1.27853 0.292176 9.33012e-21)
(1.38546 0.23403 6.13874e-35)
(1.35982 0.231931 -6.1261e-21)
(1.55897 0.232119 -4.70847e-34)
(1.3254 0.334018 1.86904e-20)
(1.76302 0.331976 -5.11299e-20)
(1.47618 0.611967 -2.80109e-19)
(0.880533 -0.0583638 2.8915e-20)
(1.07217 0.115212 -4.31371e-35)
(1.21425 0.262785 -5.94945e-21)
(1.36825 0.250212 1.05316e-20)
(1.51068 0.212939 -9.99736e-21)
(1.46765 0.197265 -2.13125e-20)
(1.74928 0.22885 -5.74189e-34)
(1.45388 0.300047 -6.57557e-20)
(1.97547 0.298936 -1.22413e-19)
(1.69281 0.556604 3.02106e-19)
(0.880264 -0.052327 0)
(1.05929 0.0585757 -9.64331e-35)
(1.23184 0.186596 0)
(1.41988 0.195823 0)
(1.57294 0.188897 0)
(1.55238 0.154913 0)
(1.82452 0.215238 -3.99362e-34)
(1.59718 0.268088 0)
(2.03274 0.247336 -1.86207e-20)
(1.92458 0.487514 1.74387e-19)
(0.889325 -0.0452249 4.00155e-21)
(1.05311 0.00433691 4.62702e-23)
(1.2256 0.102148 -6.62073e-21)
(1.43054 0.134022 0)
(1.58262 0.158644 0)
(1.60686 0.113155 6.44789e-21)
(1.81303 0.194588 3.777e-20)
(1.72261 0.237843 -1.40258e-20)
(2.01937 0.183734 -2.80165e-20)
(2.085 0.406269 1.16747e-19)
(0.902083 -0.0407071 -4.71285e-20)
(1.05903 -0.0484675 -3.62289e-21)
(1.19612 0.0187751 -7.35323e-21)
(1.39265 0.0730372 -2.3577e-20)
(1.53387 0.117586 -1.1747e-20)
(1.6067 0.0766403 -5.40126e-21)
(1.73234 0.163855 -3.15155e-20)
(1.79679 0.200602 -1.60785e-20)
(1.9669 0.127298 -6.58782e-20)
(2.1351 0.32325 1.26843e-19)
(0.912786 -0.0409597 -7.01078e-21)
(1.08844 -0.0848361 -1.60209e-20)
(1.12232 -0.0447703 -8.04044e-21)
(1.28028 0.0246852 -6.68524e-21)
(1.37919 0.0702307 5.12014e-35)
(1.50637 0.0464142 7.51497e-21)
(1.5261 0.119517 -8.02659e-34)
(1.77171 0.144189 -1.43568e-20)
(1.80579 0.0818495 1.90223e-20)
(2.0588 0.240139 2.33708e-20)
(0.920449 -0.0558019 1.34084e-19)
(1.07268 -0.101411 -6.45138e-21)
(0.935132 -0.0752038 -9.40165e-21)
(1.00982 -0.00673758 1.24947e-20)
(1.05509 0.0250219 5.50243e-21)
(1.16976 0.0229578 1.28149e-20)
(1.15651 0.0657265 7.65943e-21)
(1.49794 0.0684893 -2.10775e-20)
(1.41153 0.0494713 -1.75286e-20)
(1.76746 0.134391 9.04691e-20)
(0.864081 -0.0401175 7.84744e-21)
(0.82021 -0.0648702 -7.13384e-35)
(0.478795 -0.0374394 -9.77559e-21)
(0.477888 -0.00217635 0)
(0.482236 0.00557692 0)
(0.537957 0.00898968 7.63524e-21)
(0.569845 0.017031 -9.34839e-36)
(0.773813 0.0194485 -1.45588e-20)
(0.738463 0.018877 -2.73833e-20)
(1.0228 0.0423139 -3.6436e-20)
(1.57347 0.81083 1.5879e-19)
(1.68455 0.804956 -7.68572e-20)
(1.80709 0.786612 -3.1518e-21)
(1.91961 0.75941 6.66067e-20)
(2.02756 0.720485 -2.68942e-19)
(2.12789 0.675951 -4.79881e-19)
(2.22131 0.624479 -2.34668e-19)