/*--------------------------------*- C++ -*----------------------------------*\
| =========                 |                                                 |
| \\      /  F ield         | OpenFOAM: The Open Source CFD Toolbox           |
|  \\    /   O peration     | Version:  2406                                  |
|   \\  /    A nd           | Website:  www.openfoam.com                      |
|    \\/     M anipulation  |                                                 |
\*---------------------------------------------------------------------------*/
FoamFile
{
    version     2.0;
    format      ascii;
    arch        "LSB;label=32;scalar=64";
    class       volVectorField;
    location    "2.15";
    object      flux;
}
// * * * * * * * * * * * * * * * * * * * * * * * * * * * * * * * * * * * * * //

dimensions      [0 1 -1 1 0 0 0];

internalField   nonuniform List<vector> 
2500
(
(0.00127645 0.00127645 0)
(0.00382395 0.00128303 0)
(0.00636298 0.00129651 0)
(0.00889054 0.00131668 0)
(0.0113985 0.00134356 0)
(0.0138811 0.00137718 0)
(0.0163325 0.00141754 0)
(0.0187465 0.00146465 0)
(0.0211168 0.00151854 0)
(0.0234369 0.00157919 0)
(0.0257 0.0016466 0)
(0.027899 0.00172076 0)
(0.0300268 0.00180166 0)
(0.0320757 0.00188924 0)
(0.034038 0.00198345 0)
(0.0359057 0.00208423 0)
(0.0376705 0.00219146 0)
(0.0393241 0.00230503 0)
(0.0408579 0.00242477 0)
(0.0422634 0.00255049 0)
(0.0435319 0.00268196 0)
(0.0446548 0.00281892 0)
(0.0456237 0.00296104 0)
(0.0464302 0.00310795 0)
(0.0470664 0.00325925 0)
(0.0475246 0.00341447 0)
(0.0477976 0.00357308 0)
(0.047879 0.00373451 0)
(0.0477629 0.00389811 0)
(0.0474443 0.00406322 0)
(0.046919 0.00422907 0)
(0.046184 0.00439488 0)
(0.0452374 0.0045598 0)
(0.0440784 0.00472296 0)
(0.0427078 0.00488342 0)
(0.0411276 0.00504025 0)
(0.0393414 0.00519247 0)
(0.0373542 0.0053391 0)
(0.0351726 0.00547916 0)
(0.032805 0.00561166 0)
(0.0302611 0.00573568 0)
(0.0275521 0.00585028 0)
(0.0246909 0.0059546 0)
(0.0216917 0.00604783 0)
(0.01857 0.00612925 0)
(0.0153423 0.00619821 0)
(0.0120263 0.00625418 0)
(0.0086405 0.00629671 0)
(0.00520408 0.00632525 0)
(0.00173784 0.00633827 0)
(0.00128303 0.00382395 0)
(0.00384402 0.00384402 0)
(0.00639664 0.00388439 0)
(0.00893759 0.00394486 0)
(0.011459 0.00402549 0)
(0.0139551 0.00412633 0)
(0.01642 0.00424741 0)
(0.0188475 0.00438876 0)
(0.0212313 0.00455042 0)
(0.023565 0.00473239 0)
(0.0258416 0.00493466 0)
(0.0280541 0.00515719 0)
(0.0301953 0.00539993 0)
(0.0322575 0.00566275 0)
(0.034233 0.0059455 0)
(0.0361137 0.00624795 0)
(0.0378913 0.00656981 0)
(0.0395574 0.0069107 0)
(0.0411034 0.00727014 0)
(0.0425206 0.00764758 0)
(0.0438003 0.00804231 0)
(0.0449339 0.00845352 0)
(0.0459127 0.00888028 0)
(0.0467284 0.00932149 0)
(0.0473729 0.0097759 0)
(0.0478384 0.0102421 0)
(0.0481177 0.0107186 0)
(0.0482041 0.0112035 0)
(0.0480916 0.0116951 0)
(0.0477752 0.0121912 0)
(0.0472507 0.0126895 0)
(0.0465147 0.0131879 0)
(0.0455654 0.0136836 0)
(0.044402 0.014174 0)
(0.0430251 0.0146564 0)
(0.0414367 0.0151279 0)
(0.0396402 0.0155855 0)
(0.0376409 0.0160264 0)
(0.0354452 0.0164476 0)
(0.0330615 0.0168461 0)
(0.0304997 0.0172191 0)
(0.027771 0.0175638 0)
(0.0248885 0.0178776 0)
(0.0218664 0.0181581 0)
(0.0187203 0.018403 0)
(0.0154672 0.0186104 0)
(0.0121248 0.0187787 0)
(0.00871157 0.0189068 0)
(0.00524564 0.0189934 0)
(0.00175086 0.0190352 0)
(0.00129651 0.00636298 0)
(0.00388439 0.00639664 0)
(0.00646382 0.00646382 0)
(0.00903164 0.0065646 0)
(0.01158 0.00669901 0)
(0.0141031 0.00686712 0)
(0.0165949 0.00706899 0)
(0.0190495 0.00730469 0)
(0.0214604 0.00757425 0)
(0.0238211 0.00787769 0)
(0.0261248 0.00821503 0)
(0.0283643 0.00858619 0)
(0.0305324 0.00899109 0)
(0.0326213 0.00942953 0)
(0.0346232 0.00990126 0)
(0.03653 0.0104059 0)
(0.0383332 0.010943 0)
(0.0400244 0.011512 0)
(0.0415948 0.012112 0)
(0.0430356 0.0127421 0)
(0.0443379 0.0134011 0)
(0.0454928 0.0140879 0)
(0.0464917 0.0148006 0)
(0.0473258 0.0155377 0)
(0.047987 0.0162969 0)
(0.0484672 0.017076 0)
(0.048759 0.0178723 0)
(0.0488555 0.018683 0)
(0.0487506 0.0195048 0)
(0.0484388 0.0203344 0)
(0.0479157 0.021168 0)
(0.047178 0.0220016 0)
(0.0462235 0.022831 0)
(0.0450512 0.0236517 0)
(0.0436617 0.0244592 0)
(0.0420568 0.0252485 0)
(0.04024 0.0260148 0)
(0.0382163 0.0267532 0)
(0.0359923 0.0274586 0)
(0.0335765 0.0281262 0)
(0.0309787 0.0287511 0)
(0.0282106 0.0293286 0)
(0.0252852 0.0298545 0)
(0.0222171 0.0303245 0)
(0.0190223 0.0307349 0)
(0.0157181 0.0310825 0)
(0.0123227 0.0313645 0)
(0.00885512 0.0315786 0)
(0.0053325 0.0317233 0)
(0.00177966 0.0317956 0)
(0.00131668 0.00889054 0)
(0.00394486 0.00893759 0)
(0.0065646 0.00903164 0)
(0.00917277 0.00917277 0)
(0.0117615 0.00936105 0)
(0.0143251 0.00959655 0)
(0.0168575 0.00987937 0)
(0.0193527 0.0102096 0)
(0.0218043 0.0105873 0)
(0.0242057 0.0110125 0)
(0.0265501 0.0114853 0)
(0.0288302 0.0120056 0)
(0.0310386 0.0125732 0)
(0.0331677 0.0131879 0)
(0.0352094 0.0138494 0)
(0.0371554 0.0145572 0)
(0.0389973 0.0153107 0)
(0.0407263 0.0161089 0)
(0.0423335 0.0169509 0)
(0.0438098 0.0178354 0)
(0.0451461 0.0187607 0)
(0.0463334 0.019725 0)
(0.0473625 0.0207261 0)
(0.0482247 0.0217616 0)
(0.0489112 0.0228285 0)
(0.0494138 0.0239236 0)
(0.0497247 0.0250433 0)
(0.0498366 0.0261834 0)
(0.0497431 0.0273396 0)
(0.0494384 0.0285069 0)
(0.0489179 0.0296803 0)
(0.0481777 0.0308539 0)
(0.0472156 0.032022 0)
(0.0460302 0.0331781 0)
(0.0446219 0.0343159 0)
(0.0429923 0.0354284 0)
(0.0411449 0.0365087 0)
(0.0390846 0.0375499 0)
(0.0368182 0.0385449 0)
(0.034354 0.0394867 0)
(0.0317021 0.0403684 0)
(0.0288744 0.0411836 0)
(0.0258843 0.0419258 0)
(0.0227468 0.0425894 0)
(0.0194784 0.0431689 0)
(0.0160968 0.0436596 0)
(0.0126209 0.0440575 0)
(0.0090704 0.0443592 0)
(0.00546258 0.0445621 0)
(0.00182311 0.044664 0)
(0.00134356 0.0113985 0)
(0.00402549 0.011459 0)
(0.00669901 0.01158 0)
(0.00936105 0.0117615 0)
(0.0120038 0.0120038 0)
(0.0146214 0.0123068 0)
(0.017208 0.0126707 0)
(0.0197574 0.0130957 0)
(0.0222634 0.0135818 0)
(0.0247191 0.0141292 0)
(0.0271178 0.0147379 0)
(0.0294522 0.0154078 0)
(0.0317147 0.0161389 0)
(0.0338975 0.0169307 0)
(0.0359925 0.0177831 0)
(0.0379912 0.0186952 0)
(0.0398849 0.0196664 0)
(0.0416646 0.0206957 0)
(0.0433212 0.0217816 0)
(0.0448453 0.0229226 0)
(0.0462275 0.0241166 0)
(0.0474583 0.0253614 0)
(0.0485283 0.0266542 0)
(0.0494282 0.0279916 0)
(0.050149 0.0293702 0)
(0.050682 0.0307857 0)
(0.0510188 0.0322334 0)
(0.0511518 0.0337081 0)
(0.0510741 0.0352041 0)
(0.0507795 0.0367152 0)
(0.0502627 0.0382345 0)
(0.0495197 0.0397549 0)
(0.0485477 0.0412685 0)
(0.0473451 0.0427673 0)
(0.0459119 0.0442426 0)
(0.0442497 0.0456858 0)
(0.0423615 0.0470878 0)
(0.0402524 0.0484394 0)
(0.0379291 0.0497314 0)
(0.0354001 0.0509547 0)
(0.0326756 0.0521003 0)
(0.029768 0.0531597 0)
(0.026691 0.0541245 0)
(0.0234601 0.0549872 0)
(0.0200925 0.0557408 0)
(0.0166067 0.0563789 0)
(0.0130223 0.0568962 0)
(0.00935977 0.0572883 0)
(0.00563729 0.0575518 0)
(0.00188152 0.0576841 0)
(0.00137718 0.0138811 0)
(0.00412633 0.0139551 0)
(0.00686712 0.0141031 0)
(0.00959655 0.0143251 0)
(0.0123068 0.0146214 0)
(0.014992 0.014992 0)
(0.0176465 0.0154373 0)
(0.0202639 0.0159573 0)
(0.0228379 0.0165522 0)
(0.0253618 0.0172222 0)
(0.0278287 0.0179674 0)
(0.0302311 0.0187877 0)
(0.0325615 0.019683 0)
(0.0348119 0.0206531 0)
(0.0369739 0.0216975 0)
(0.0390388 0.0228155 0)
(0.0409978 0.0240063 0)
(0.0428414 0.0252686 0)
(0.0445604 0.0266009 0)
(0.0461448 0.0280012 0)
(0.047585 0.0294673 0)
(0.0488709 0.0309961 0)
(0.0499928 0.0325846 0)
(0.0509407 0.0342286 0)
(0.0517052 0.0359239 0)
(0.052277 0.0376653 0)
(0.0526471 0.0394472 0)
(0.0528074 0.0412632 0)
(0.0527502 0.0431062 0)
(0.0524688 0.0449686 0)
(0.0519575 0.0468421 0)
(0.0512117 0.0487176 0)
(0.0502279 0.0505858 0)
(0.0490043 0.0524365 0)
(0.0475404 0.0542591 0)
(0.0458375 0.0560427 0)
(0.0438985 0.0577762 0)
(0.0417282 0.059448 0)
(0.0393335 0.0610468 0)
(0.0367229 0.0625611 0)
(0.0339071 0.0639798 0)
(0.0308986 0.0652921 0)
(0.0277119 0.0664876 0)
(0.024363 0.0675569 0)
(0.02087 0.068491 0)
(0.0172522 0.0692821 0)
(0.0135304 0.0699236 0)
(0.009726 0.0704098 0)
(0.00585835 0.0707364 0)
(0.00195542 0.0709004 0)
(0.00141754 0.0163325 0)
(0.00424741 0.01642 0)
(0.00706899 0.0165949 0)
(0.00987937 0.0168575 0)
(0.0126707 0.017208 0)
(0.0154373 0.0176465 0)
(0.0181732 0.0181732 0)
(0.0208724 0.0187886 0)
(0.0235283 0.0194927 0)
(0.0261343 0.0202858 0)
(0.0286833 0.021168 0)
(0.0311678 0.0221395 0)
(0.0335801 0.0232001 0)
(0.035912 0.0243496 0)
(0.038155 0.0255876 0)
(0.0403 0.0269133 0)
(0.042338 0.0283258 0)
(0.0442592 0.0298237 0)
(0.0460538 0.0314053 0)
(0.0477116 0.0330683 0)
(0.0492224 0.0348102 0)
(0.0505756 0.0366275 0)
(0.0517608 0.0385166 0)
(0.0527676 0.0404728 0)
(0.0535857 0.0424909 0)
(0.0542052 0.0445651 0)
(0.0546166 0.0466886 0)
(0.0548108 0.0488539 0)
(0.0547795 0.0510526 0)
(0.0545153 0.0532758 0)
(0.0540117 0.0555134 0)
(0.0532635 0.0577547 0)
(0.0522665 0.0599885 0)
(0.0510184 0.0622026 0)
(0.0495182 0.0643843 0)
(0.0477667 0.0665205 0)
(0.0457668 0.0685976 0)
(0.043523 0.070602 0)
(0.0410422 0.0725197 0)
(0.0383331 0.0743369 0)
(0.0354066 0.0760401 0)
(0.0322758 0.0776162 0)
(0.0289558 0.0790526 0)
(0.0254635 0.0803377 0)
(0.0218178 0.0814606 0)
(0.0180393 0.0824119 0)
(0.0141499 0.0831833 0)
(0.0101725 0.083768 0)
(0.00612788 0.0841608 0)
(0.00204553 0.0843581 0)
(0.00146465 0.0187465 0)
(0.00438876 0.0188475 0)
(0.00730469 0.0190495 0)
(0.0102096 0.0193527 0)
(0.0130957 0.0197574 0)
(0.0159573 0.0202639 0)
(0.0187886 0.0208724 0)
(0.0215833 0.0215833 0)
(0.0243351 0.022397 0)
(0.0270372 0.0233137 0)
(0.0296824 0.0243338 0)
(0.0322632 0.0254573 0)
(0.0347716 0.0266843 0)
(0.0371994 0.0280147 0)
(0.0395376 0.0294479 0)
(0.041777 0.0309833 0)
(0.0439081 0.0326199 0)
(0.0459209 0.0343563 0)
(0.047805 0.0361905 0)
(0.0495497 0.0381201 0)
(0.0511442 0.0401422 0)
(0.0525773 0.0422532 0)
(0.053838 0.0444486 0)
(0.0549151 0.0467234 0)
(0.0557976 0.0490717 0)
(0.0564746 0.0514866 0)
(0.0569358 0.0539604 0)
(0.0571714 0.0564846 0)
(0.0571721 0.0590495 0)
(0.0569296 0.0616445 0)
(0.0564365 0.0642582 0)
(0.0556868 0.066878 0)
(0.0546758 0.0694906 0)
(0.0534001 0.0720818 0)
(0.0518583 0.0746369 0)
(0.0500508 0.0771402 0)
(0.04798 0.0795759 0)
(0.0456503 0.0819275 0)
(0.0430684 0.0841788 0)
(0.0402434 0.0863133 0)
(0.0371864 0.0883149 0)
(0.0339111 0.090168 0)
(0.0304333 0.0918576 0)
(0.0267711 0.0933697 0)
(0.0229443 0.0946916 0)
(0.018975 0.0958117 0)
(0.0148865 0.0967202 0)
(0.0107035 0.0974089 0)
(0.0064484 0.0978716 0)
(0.00215269 0.098104 0)
(0.00151854 0.0211168 0)
(0.00455042 0.0212313 0)
(0.00757425 0.0214604 0)
(0.0105873 0.0218043 0)
(0.0135818 0.0222634 0)
(0.0165522 0.0228379 0)
(0.0194927 0.0235283 0)
(0.022397 0.0243351 0)
(0.0252587 0.0252587 0)
(0.0280711 0.0262996 0)
(0.0308269 0.0274582 0)
(0.0335183 0.0287347 0)
(0.0361374 0.0301293 0)
(0.0386755 0.0316419 0)
(0.0411236 0.0332722 0)
(0.0434721 0.0350195 0)
(0.045711 0.0368829 0)
(0.0478298 0.0388609 0)
(0.0498177 0.0409514 0)
(0.0516634 0.043152 0)
(0.0533554 0.0454595 0)
(0.0548819 0.0478697 0)
(0.056231 0.0503781 0)
(0.0573906 0.0529789 0)
(0.0583489 0.0556655 0)
(0.059094 0.0584303 0)
(0.0596147 0.0612647 0)
(0.0598999 0.0641588 0)
(0.0599394 0.0671018 0)
(0.059724 0.0700817 0)
(0.0592452 0.0730852 0)
(0.0584959 0.0760981 0)
(0.0574704 0.079105 0)
(0.0561647 0.0820897 0)
(0.0545766 0.0850348 0)
(0.0527057 0.0879224 0)
(0.0505541 0.090734 0)
(0.048126 0.0934505 0)
(0.045428 0.0960528 0)
(0.0424692 0.0985217 0)
(0.0392613 0.100838 0)
(0.0358185 0.102984 0)
(0.0321575 0.104941 0)
(0.0282974 0.106694 0)
(0.0242598 0.108227 0)
(0.0200679 0.109526 0)
(0.0157471 0.11058 0)
(0.0113239 0.111379 0)
(0.00682297 0.111916 0)
(0.00227792 0.112186 0)
(0.00157919 0.0234369 0)
(0.00473239 0.023565 0)
(0.00787769 0.0238211 0)
(0.0110125 0.0242057 0)
(0.0141292 0.0247191 0)
(0.0172222 0.0253618 0)
(0.0202858 0.0261343 0)
(0.0233137 0.0270372 0)
(0.0262996 0.0280711 0)
(0.0292367 0.0292367 0)
(0.0321175 0.0305344 0)
(0.0349343 0.0319648 0)
(0.0376788 0.0335281 0)
(0.0403422 0.0352245 0)
(0.0429152 0.0370538 0)
(0.0453877 0.0390153 0)
(0.0477495 0.0411083 0)
(0.0499894 0.0433313 0)
(0.0520962 0.0456823 0)
(0.0540577 0.0481586 0)
(0.0558619 0.0507568 0)
(0.057496 0.0534728 0)
(0.0589472 0.0563014 0)
(0.0602025 0.0592363 0)
(0.061249 0.0622705 0)
(0.0620738 0.0653956 0)
(0.0626643 0.0686019 0)
(0.0630086 0.0718785 0)
(0.063095 0.0752133 0)
(0.062913 0.0785928 0)
(0.062453 0.0820021 0)
(0.0617067 0.085425 0)
(0.0606673 0.088844 0)
(0.0593299 0.0922407 0)
(0.0576911 0.0955953 0)
(0.0557501 0.0988871 0)
(0.0535081 0.102095 0)
(0.0509691 0.105197 0)
(0.0481395 0.10817 0)
(0.0450287 0.110993 0)
(0.0416487 0.113644 0)
(0.0380144 0.116101 0)
(0.0341435 0.118344 0)
(0.0300565 0.120353 0)
(0.0257763 0.122111 0)
(0.0213283 0.123601 0)
(0.0167399 0.124811 0)
(0.0120398 0.125728 0)
(0.0072552 0.126345 0)
(0.00242244 0.126655 0)
(0.0016466 0.0257 0)
(0.00493466 0.0258416 0)
(0.00821503 0.0261248 0)
(0.0114853 0.0265501 0)
(0.0147379 0.0271178 0)
(0.0179674 0.0278287 0)
(0.021168 0.0286833 0)
(0.0243338 0.0296824 0)
(0.0274582 0.0308269 0)
(0.0305344 0.0321175 0)
(0.033555 0.033555 0)
(0.0365121 0.0351401 0)
(0.0393972 0.0368733 0)
(0.0422012 0.038755 0)
(0.0449144 0.0407851 0)
(0.0475267 0.0429633 0)
(0.0500269 0.0452889 0)
(0.0524037 0.0477605 0)
(0.054645 0.0503761 0)
(0.056738 0.0531332 0)
(0.0586697 0.0560282 0)
(0.0604265 0.0590568 0)
(0.0619946 0.0622134 0)
(0.0633598 0.0654917 0)
(0.0645081 0.0688836 0)
(0.0654253 0.0723803 0)
(0.0660976 0.0759712 0)
(0.0665113 0.0796443 0)
(0.0666537 0.0833863 0)
(0.0665127 0.087182 0)
(0.0660773 0.0910149 0)
(0.0653378 0.0948669 0)
(0.0642861 0.0987184 0)
(0.0629159 0.102548 0)
(0.061223 0.106335 0)
(0.0592053 0.110053 0)
(0.0568637 0.113681 0)
(0.0542014 0.117191 0)
(0.0512247 0.12056 0)
(0.0479431 0.12376 0)
(0.044369 0.126768 0)
(0.0405181 0.129557 0)
(0.0364092 0.132105 0)
(0.0320643 0.134389 0)
(0.0275081 0.136389 0)
(0.0227682 0.138085 0)
(0.0178743 0.139462 0)
(0.012858 0.140507 0)
(0.00774932 0.141209 0)
(0.00258766 0.141562 0)
(0.00172076 0.027899 0)
(0.00515719 0.0280541 0)
(0.00858619 0.0283643 0)
(0.0120056 0.0288302 0)
(0.0154078 0.0294522 0)
(0.0187877 0.0302311 0)
(0.0221395 0.0311678 0)
(0.0254573 0.0322632 0)
(0.0287347 0.0335183 0)
(0.0319648 0.0349343 0)
(0.0351401 0.0365121 0)
(0.0382526 0.0382526 0)
(0.0412937 0.0401568 0)
(0.044254 0.0422251 0)
(0.0471235 0.044458 0)
(0.0498915 0.0468552 0)
(0.0525466 0.0494163 0)
(0.0550767 0.0521401 0)
(0.0574689 0.0550249 0)
(0.0597098 0.0580681 0)
(0.0617854 0.0612661 0)
(0.0636812 0.0646146 0)
(0.065382 0.0681079 0)
(0.0668727 0.0717391 0)
(0.0681377 0.0754999 0)
(0.0691613 0.0793807 0)
(0.0699284 0.0833701 0)
(0.0704236 0.0874552 0)
(0.0706326 0.0916212 0)
(0.0705416 0.0958516 0)
(0.0701379 0.100128 0)
(0.0694102 0.104431 0)
(0.0683488 0.108737 0)
(0.066946 0.113025 0)
(0.0651961 0.117268 0)
(0.0630962 0.12144 0)
(0.0606459 0.125513 0)
(0.057848 0.129459 0)
(0.0547085 0.133249 0)
(0.0512368 0.136854 0)
(0.0474458 0.140244 0)
(0.043352 0.143391 0)
(0.0389754 0.146268 0)
(0.0343398 0.148848 0)
(0.0294718 0.151109 0)
(0.0244016 0.153027 0)
(0.0191617 0.154585 0)
(0.0137869 0.155768 0)
(0.00831031 0.156563 0)
(0.00277527 0.156962 0)
(0.00180166 0.0300268 0)
(0.00539993 0.0301953 0)
(0.00899109 0.0305324 0)
(0.0125732 0.0310386 0)
(0.0161389 0.0317147 0)
(0.019683 0.0325615 0)
(0.0232001 0.0335801 0)
(0.0266843 0.0347716 0)
(0.0301293 0.0361374 0)
(0.0335281 0.0376788 0)
(0.0368733 0.0393972 0)
(0.0401568 0.0412937 0)
(0.0433696 0.0433696 0)
(0.0465023 0.0456259 0)
(0.0495445 0.0480632 0)
(0.052485 0.0506817 0)
(0.0553119 0.0534812 0)
(0.0580123 0.056461 0)
(0.0605729 0.0596194 0)
(0.0629792 0.0629541 0)
(0.0652162 0.0664617 0)
(0.0672682 0.0701378 0)
(0.069119 0.0739767 0)
(0.0707519 0.0779712 0)
(0.0721498 0.0821128 0)
(0.0732955 0.0863911 0)
(0.074172 0.0907941 0)
(0.0747624 0.095308 0)
(0.0750502 0.0999166 0)
(0.0750197 0.104602 0)
(0.0746565 0.109345 0)
(0.0739471 0.114122 0)
(0.0728802 0.118909 0)
(0.0714461 0.123681 0)
(0.0696378 0.128409 0)
(0.0674506 0.133063 0)
(0.0648833 0.137613 0)
(0.0619378 0.142025 0)
(0.0586196 0.146268 0)
(0.054938 0.150307 0)
(0.0509063 0.15411 0)
(0.0465419 0.157643 0)
(0.0418662 0.160875 0)
(0.0369047 0.163777 0)
(0.0316867 0.16632 0)
(0.0262448 0.16848 0)
(0.0206151 0.170235 0)
(0.0148357 0.171568 0)
(0.00894394 0.172464 0)
(0.00298719 0.172914 0)
(0.00188924 0.0320757 0)
(0.00566275 0.0322575 0)
(0.00942953 0.0326213 0)
(0.0131879 0.0331677 0)
(0.0169307 0.0338975 0)
(0.0206531 0.0348119 0)
(0.0243496 0.035912 0)
(0.0280147 0.0371994 0)
(0.0316419 0.0386755 0)
(0.0352245 0.0403422 0)
(0.038755 0.0422012 0)
(0.0422251 0.044254 0)
(0.0456259 0.0465023 0)
(0.0489475 0.0489475 0)
(0.0521793 0.0515907 0)
(0.0553096 0.0544325 0)
(0.0583259 0.0574732 0)
(0.0612148 0.0607124 0)
(0.063962 0.0641489 0)
(0.0665522 0.0677806 0)
(0.0689692 0.0716045 0)
(0.0711961 0.0756161 0)
(0.0732154 0.0798099 0)
(0.0750088 0.0841787 0)
(0.0765575 0.0887135 0)
(0.0778427 0.0934037 0)
(0.0788452 0.0982366 0)
(0.0795461 0.103197 0)
(0.0799268 0.108269 0)
(0.0799695 0.113432 0)
(0.0796572 0.118664 0)
(0.0789747 0.123942 0)
(0.077908 0.129239 0)
(0.0764455 0.134525 0)
(0.0745783 0.139769 0)
(0.0723002 0.144939 0)
(0.0696082 0.149999 0)
(0.0665034 0.154913 0)
(0.0629905 0.159643 0)
(0.0590786 0.164151 0)
(0.0547816 0.1684 0)
(0.0501175 0.172353 0)
(0.0451093 0.175971 0)
(0.0397845 0.179223 0)
(0.0341749 0.182075 0)
(0.0283167 0.184498 0)
(0.0222495 0.186469 0)
(0.0160156 0.187966 0)
(0.00965692 0.188973 0)
(0.00322567 0.189479 0)
(0.00198345 0.034038 0)
(0.0059455 0.034233 0)
(0.00990126 0.0346232 0)
(0.0138494 0.0352094 0)
(0.0177831 0.0359925 0)
(0.0216975 0.0369739 0)
(0.0255876 0.038155 0)
(0.0294479 0.0395376 0)
(0.0332722 0.0411236 0)
(0.0370538 0.0429152 0)
(0.0407851 0.0449144 0)
(0.044458 0.0471235 0)
(0.0480632 0.0495445 0)
(0.0515907 0.0521793 0)
(0.0550295 0.0550295 0)
(0.0583675 0.0580964 0)
(0.0615918 0.0613808 0)
(0.064688 0.0648827 0)
(0.0676411 0.0686015 0)
(0.0704348 0.0725356 0)
(0.0730517 0.0766822 0)
(0.0754737 0.0810374 0)
(0.0776815 0.0855957 0)
(0.0796554 0.0903499 0)
(0.0813748 0.0952912 0)
(0.0828187 0.100408 0)
(0.0839657 0.105688 0)
(0.0847947 0.111116 0)
(0.0852846 0.116672 0)
(0.0854151 0.122336 0)
(0.0851668 0.128086 0)
(0.0845214 0.133893 0)
(0.0834628 0.13973 0)
(0.0819768 0.145564 0)
(0.080052 0.15136 0)
(0.0776803 0.157082 0)
(0.0748571 0.162691 0)
(0.0715818 0.168145 0)
(0.0678583 0.173402 0)
(0.0636956 0.17842 0)
(0.0591073 0.183154 0)
(0.0541128 0.187562 0)
(0.0487364 0.191603 0)
(0.0430079 0.195237 0)
(0.0369623 0.198428 0)
(0.0306392 0.201141 0)
(0.0240824 0.203348 0)
(0.0173394 0.205026 0)
(0.010457 0.206154 0)
(0.00349333 0.206722 0)
(0.00208423 0.0359057 0)
(0.00624795 0.0361137 0)
(0.0104059 0.03653 0)
(0.0145572 0.0371554 0)
(0.0186952 0.0379912 0)
(0.0228155 0.0390388 0)
(0.0269133 0.0403 0)
(0.0309833 0.041777 0)
(0.0350195 0.0434721 0)
(0.0390153 0.0453877 0)
(0.0429633 0.0475267 0)
(0.0468552 0.0498915 0)
(0.0506817 0.052485 0)
(0.0544325 0.0553096 0)
(0.0580964 0.0583675 0)
(0.0616608 0.0616608 0)
(0.0651122 0.0651909 0)
(0.0684356 0.0689584 0)
(0.0716149 0.0729635 0)
(0.0746329 0.077205 0)
(0.077471 0.0816809 0)
(0.0801096 0.0863876 0)
(0.0825279 0.09132 0)
(0.0847043 0.0964712 0)
(0.086616 0.101832 0)
(0.08824 0.107392 0)
(0.0895524 0.113138 0)
(0.0905296 0.119052 0)
(0.0911476 0.125116 0)
(0.0913832 0.131308 0)
(0.091214 0.137603 0)
(0.0906188 0.143972 0)
(0.0895785 0.150383 0)
(0.0880759 0.156802 0)
(0.0860969 0.163189 0)
(0.0836309 0.169505 0)
(0.0806709 0.175705 0)
(0.0772148 0.181744 0)
(0.0732652 0.187573 0)
(0.0688304 0.193144 0)
(0.0639243 0.198408 0)
(0.0585669 0.203316 0)
(0.0527842 0.20782 0)
(0.0466087 0.211874 0)
(0.0400785 0.215437 0)
(0.0332374 0.21847 0)
(0.0261342 0.220938 0)
(0.0188218 0.222815 0)
(0.0113533 0.224079 0)
(0.00379321 0.224715 0)
(0.00219146 0.0376705 0)
(0.00656981 0.0378913 0)
(0.010943 0.0383332 0)
(0.0153107 0.0389973 0)
(0.0196664 0.0398849 0)
(0.0240063 0.0409978 0)
(0.0283258 0.042338 0)
(0.0326199 0.0439081 0)
(0.0368829 0.045711 0)
(0.0411083 0.0477495 0)
(0.0452889 0.0500269 0)
(0.0494163 0.0525466 0)
(0.0534812 0.0553119 0)
(0.0574732 0.0583259 0)
(0.0613808 0.0615918 0)
(0.0651909 0.0651122 0)
(0.0688894 0.0688894 0)
(0.0724606 0.0729249 0)
(0.0758877 0.0772196 0)
(0.0791522 0.0817732 0)
(0.0822342 0.0865844 0)
(0.0851127 0.0916503 0)
(0.0877652 0.0969663 0)
(0.0901679 0.102526 0)
(0.092296 0.108321 0)
(0.094124 0.11434 0)
(0.0956253 0.12057 0)
(0.0967733 0.126993 0)
(0.097541 0.13359 0)
(0.097902 0.140337 0)
(0.0978303 0.147209 0)
(0.0973014 0.154173 0)
(0.0962924 0.161196 0)
(0.0947829 0.16824 0)
(0.0927554 0.175262 0)
(0.0901962 0.182217 0)
(0.0870957 0.189057 0)
(0.0834496 0.195729 0)
(0.0792588 0.202181 0)
(0.0745307 0.208357 0)
(0.069279 0.214201 0)
(0.0635244 0.219657 0)
(0.0572949 0.224671 0)
(0.0506253 0.22919 0)
(0.0435577 0.233165 0)
(0.0361405 0.236551 0)
(0.0284282 0.23931 0)
(0.0204801 0.241408 0)
(0.0123562 0.242822 0)
(0.00412882 0.243533 0)
(0.00230503 0.0393241 0)
(0.0069107 0.0395574 0)
(0.011512 0.0400244 0)
(0.0161089 0.0407263 0)
(0.0206957 0.0416646 0)
(0.0252686 0.0428414 0)
(0.0298237 0.0442592 0)
(0.0343563 0.0459209 0)
(0.0388609 0.0478298 0)
(0.0433313 0.0499894 0)
(0.0477605 0.0524037 0)
(0.0521401 0.0550767 0)
(0.056461 0.0580123 0)
(0.0607124 0.0612148 0)
(0.0648827 0.064688 0)
(0.0689584 0.0684356 0)
(0.0729249 0.0724606 0)
(0.0767658 0.0767658 0)
(0.0804632 0.0813529 0)
(0.0839977 0.0862226 0)
(0.087348 0.0913746 0)
(0.0904915 0.0968068 0)
(0.0934037 0.102516 0)
(0.096059 0.108495 0)
(0.09843 0.114738 0)
(0.100488 0.121232 0)
(0.102205 0.127965 0)
(0.10355 0.13492 0)
(0.104492 0.142076 0)
(0.105002 0.149409 0)
(0.10505 0.15689 0)
(0.104606 0.164487 0)
(0.103645 0.172162 0)
(0.102142 0.179876 0)
(0.100074 0.18758 0)
(0.0974258 0.195226 0)
(0.0941833 0.202759 0)
(0.0903394 0.210121 0)
(0.0858931 0.217253 0)
(0.0808504 0.224091 0)
(0.0752244 0.230573 0)
(0.0690366 0.236634 0)
(0.0623166 0.242211 0)
(0.0551022 0.247244 0)
(0.0474395 0.251676 0)
(0.0393824 0.255456 0)
(0.0309917 0.258538 0)
(0.0223342 0.260884 0)
(0.0134779 0.262465 0)
(0.00450426 0.263261 0)
(0.00242477 0.0408579 0)
(0.00727014 0.0411034 0)
(0.012112 0.0415948 0)
(0.0169509 0.0423335 0)
(0.0217816 0.0433212 0)
(0.0266009 0.0445604 0)
(0.0314053 0.0460538 0)
(0.0361905 0.047805 0)
(0.0409514 0.0498177 0)
(0.0456823 0.0520962 0)
(0.0503761 0.054645 0)
(0.0550249 0.0574689 0)
(0.0596194 0.0605729 0)
(0.0641489 0.063962 0)
(0.0686015 0.0676411 0)
(0.0729635 0.0716149 0)
(0.0772196 0.0758877 0)
(0.0813529 0.0804632 0)
(0.0853445 0.0853445 0)
(0.0891739 0.0905335 0)
(0.0928184 0.0960309 0)
(0.0962538 0.101836 0)
(0.0994537 0.107946 0)
(0.10239 0.114357 0)
(0.105033 0.12106 0)
(0.107352 0.128047 0)
(0.109313 0.135303 0)
(0.110884 0.142813 0)
(0.112029 0.150555 0)
(0.112716 0.158504 0)
(0.112908 0.16663 0)
(0.112574 0.174899 0)
(0.111681 0.183272 0)
(0.1102 0.191703 0)
(0.108106 0.200142 0)
(0.105375 0.208535 0)
(0.101991 0.216821 0)
(0.097944 0.224936 0)
(0.0932292 0.232812 0)
(0.0878507 0.240378 0)
(0.0818212 0.247563 0)
(0.0751622 0.254293 0)
(0.067905 0.260495 0)
(0.0600907 0.266101 0)
(0.0517699 0.271043 0)
(0.0430024 0.275263 0)
(0.0338564 0.278707 0)
(0.0244073 0.281331 0)
(0.0147326 0.283099 0)
(0.00492431 0.28399 0)
(0.00255049 0.0422634 0)
(0.00764758 0.0425206 0)
(0.0127421 0.0430356 0)
(0.0178354 0.0438098 0)
(0.0229226 0.0448453 0)
(0.0280012 0.0461448 0)
(0.0330683 0.0477116 0)
(0.0381201 0.0495497 0)
(0.043152 0.0516634 0)
(0.0481586 0.0540577 0)
(0.0531332 0.056738 0)
(0.0580681 0.0597098 0)
(0.0629541 0.0629792 0)
(0.0677806 0.0665522 0)
(0.0725356 0.0704348 0)
(0.077205 0.0746329 0)
(0.0817732 0.0791522 0)
(0.0862226 0.0839977 0)
(0.0905335 0.0891739 0)
(0.0946841 0.0946841 0)
(0.0986506 0.100531 0)
(0.102407 0.106714 0)
(0.105924 0.113233 0)
(0.109173 0.120085 0)
(0.11212 0.127262 0)
(0.114732 0.134757 0)
(0.116971 0.142557 0)
(0.118801 0.150645 0)
(0.120183 0.159001 0)
(0.121077 0.167599 0)
(0.121445 0.176408 0)
(0.121248 0.185392 0)
(0.120449 0.194509 0)
(0.119012 0.20371 0)
(0.116906 0.212942 0)
(0.114104 0.222144 0)
(0.110584 0.231249 0)
(0.106331 0.240187 0)
(0.101336 0.24888 0)
(0.0956016 0.257249 0)
(0.0891386 0.265212 0)
(0.0819686 0.272684 0)
(0.0741244 0.279583 0)
(0.0656503 0.285828 0)
(0.056602 0.291342 0)
(0.0470461 0.296056 0)
(0.0370592 0.299907 0)
(0.0267266 0.302843 0)
(0.016137 0.304823 0)
(0.00539456 0.305821 0)
(0.00268196 0.0435319 0)
(0.00804231 0.0438003 0)
(0.0134011 0.0443379 0)
(0.0187607 0.0451461 0)
(0.0241166 0.0462275 0)
(0.0294673 0.047585 0)
(0.0348102 0.0492224 0)
(0.0401422 0.0511442 0)
(0.0454595 0.0533554 0)
(0.0507568 0.0558619 0)
(0.0560282 0.0586697 0)
(0.0612661 0.0617854 0)
(0.0664617 0.0652162 0)
(0.0716045 0.0689692 0)
(0.0766822 0.0730517 0)
(0.0816809 0.077471 0)
(0.0865844 0.0822342 0)
(0.0913746 0.087348 0)
(0.0960309 0.0928184 0)
(0.100531 0.0986506 0)
(0.104848 0.104848 0)
(0.108956 0.111414 0)
(0.112824 0.118349 0)
(0.116419 0.12565 0)
(0.119706 0.133314 0)
(0.122646 0.141333 0)
(0.125201 0.149696 0)
(0.127327 0.158386 0)
(0.128983 0.167384 0)
(0.130122 0.176664 0)
(0.130701 0.186195 0)
(0.130675 0.195939 0)
(0.13 0.205851 0)
(0.128634 0.215881 0)
(0.126539 0.225968 0)
(0.123682 0.236048 0)
(0.120034 0.246047 0)
(0.115575 0.255885 0)
(0.110292 0.265478 0)
(0.104182 0.274734 0)
(0.097256 0.28356 0)
(0.0895334 0.29186 0)
(0.0810488 0.299537 0)
(0.07185 0.306499 0)
(0.0619979 0.312657 0)
(0.0515669 0.317927 0)
(0.0406434 0.322238 0)
(0.0293239 0.325527 0)
(0.0177106 0.327748 0)
(0.00592159 0.328867 0)
(0.00281892 0.0446548 0)
(0.00845352 0.0449339 0)
(0.0140879 0.0454928 0)
(0.019725 0.0463334 0)
(0.0253614 0.0474583 0)
(0.0309961 0.0488709 0)
(0.0366275 0.0505756 0)
(0.0422532 0.0525773 0)
(0.0478697 0.0548819 0)
(0.0534728 0.057496 0)
(0.0590568 0.0604265 0)
(0.0646146 0.0636812 0)
(0.0701378 0.0672682 0)
(0.0756161 0.0711961 0)
(0.0810374 0.0754737 0)
(0.0863876 0.0801096 0)
(0.0916503 0.0851127 0)
(0.0968068 0.0904915 0)
(0.101836 0.0962538 0)
(0.106714 0.102407 0)
(0.111414 0.108956 0)
(0.115907 0.115907 0)
(0.12016 0.123262 0)
(0.124139 0.131021 0)
(0.127803 0.139182 0)
(0.131113 0.147739 0)
(0.134024 0.156683 0)
(0.13649 0.165999 0)
(0.138461 0.175668 0)
(0.139888 0.185666 0)
(0.14072 0.195959 0)
(0.140904 0.20651 0)
(0.14039 0.217272 0)
(0.139129 0.22819 0)
(0.137073 0.239202 0)
(0.134183 0.250235 0)
(0.130422 0.26121 0)
(0.125762 0.272037 0)
(0.120185 0.282622 0)
(0.113684 0.292861 0)
(0.106264 0.302648 0)
(0.0979459 0.311872 0)
(0.0887641 0.320424 0)
(0.0787697 0.328193 0)
(0.0680299 0.335077 0)
(0.0566273 0.340978 0)
(0.0446596 0.345811 0)
(0.0322368 0.349503 0)
(0.0194762 0.351997 0)
(0.00651313 0.353253 0)
(0.00296104 0.0456237 0)
(0.00888028 0.0459127 0)
(0.0148006 0.0464917 0)
(0.0207261 0.0473625 0)
(0.0266542 0.0485283 0)
(0.0325846 0.0499928 0)
(0.0385166 0.0517608 0)
(0.0444486 0.053838 0)
(0.0503781 0.056231 0)
(0.0563014 0.0589472 0)
(0.0622134 0.0619946 0)
(0.0681079 0.065382 0)
(0.0739767 0.069119 0)
(0.0798099 0.0732154 0)
(0.0855957 0.0776815 0)
(0.09132 0.0825279 0)
(0.0969663 0.0877652 0)
(0.102516 0.0934037 0)
(0.107946 0.0994537 0)
(0.113233 0.105924 0)
(0.118349 0.112824 0)
(0.123262 0.12016 0)
(0.127938 0.127938 0)
(0.132339 0.13616 0)
(0.136424 0.144827 0)
(0.140147 0.153936 0)
(0.143461 0.163478 0)
(0.146313 0.173442 0)
(0.148649 0.183811 0)
(0.150413 0.19456 0)
(0.151546 0.205658 0)
(0.151988 0.217065 0)
(0.15168 0.228734 0)
(0.150564 0.240608 0)
(0.148584 0.252618 0)
(0.14569 0.264688 0)
(0.141836 0.276729 0)
(0.136987 0.288643 0)
(0.131115 0.300324 0)
(0.124208 0.311655 0)
(0.116267 0.322515 0)
(0.107309 0.332777 0)
(0.09737 0.342313 0)
(0.0865033 0.350995 0)
(0.0747827 0.358703 0)
(0.0623008 0.365322 0)
(0.0491678 0.37075 0)
(0.0355095 0.374901 0)
(0.0214612 0.377708 0)
(0.00717836 0.379123 0)
(0.00310795 0.0464302 0)
(0.00932149 0.0467284 0)
(0.0155377 0.0473258 0)
(0.0217616 0.0482247 0)
(0.0279916 0.0494282 0)
(0.0342286 0.0509407 0)
(0.0404728 0.0527676 0)
(0.0467234 0.0549151 0)
(0.0529789 0.0573906 0)
(0.0592363 0.0602025 0)
(0.0654917 0.0633598 0)
(0.0717391 0.0668727 0)
(0.0779712 0.0707519 0)
(0.0841787 0.0750088 0)
(0.0903499 0.0796554 0)
(0.0964712 0.0847043 0)
(0.102526 0.0901679 0)
(0.108495 0.096059 0)
(0.114357 0.10239 0)
(0.120085 0.109173 0)
(0.12565 0.116419 0)
(0.131021 0.124139 0)
(0.13616 0.132339 0)
(0.141028 0.141028 0)
(0.145578 0.150207 0)
(0.149764 0.159877 0)
(0.153531 0.170033 0)
(0.156823 0.180667 0)
(0.159579 0.191762 0)
(0.161735 0.203297 0)
(0.163225 0.215242 0)
(0.163981 0.227557 0)
(0.163933 0.240193 0)
(0.163012 0.253092 0)
(0.161154 0.266181 0)
(0.158294 0.279378 0)
(0.154377 0.292586 0)
(0.149357 0.305697 0)
(0.143197 0.318592 0)
(0.135875 0.331139 0)
(0.127386 0.3432 0)
(0.117744 0.354629 0)
(0.106983 0.365278 0)
(0.0951602 0.374997 0)
(0.0823563 0.383644 0)
(0.0686742 0.391083 0)
(0.0542389 0.397194 0)
(0.0391945 0.401873 0)
(0.0236978 0.405039 0)
(0.00792818 0.406636 0)
(0.00325925 0.0470664 0)
(0.0097759 0.0473729 0)
(0.0162969 0.047987 0)
(0.0228285 0.0489112 0)
(0.0293702 0.050149 0)
(0.0359239 0.0517052 0)
(0.0424909 0.0535857 0)
(0.0490717 0.0557976 0)
(0.0556655 0.0583489 0)
(0.0622705 0.061249 0)
(0.0688836 0.0645081 0)
(0.0754999 0.0681377 0)
(0.0821128 0.0721498 0)
(0.0887135 0.0765575 0)
(0.0952912 0.0813748 0)
(0.101832 0.086616 0)
(0.108321 0.092296 0)
(0.114738 0.09843 0)
(0.12106 0.105033 0)
(0.127262 0.11212 0)
(0.133314 0.119706 0)
(0.139182 0.127803 0)
(0.144827 0.136424 0)
(0.150207 0.145578 0)
(0.155273 0.155273 0)
(0.159974 0.165512 0)
(0.164251 0.176295 0)
(0.168042 0.187617 0)
(0.17128 0.199464 0)
(0.173893 0.211818 0)
(0.175805 0.224652 0)
(0.17694 0.237926 0)
(0.177215 0.251593 0)
(0.176552 0.265591 0)
(0.17487 0.279846 0)
(0.172094 0.294268 0)
(0.168155 0.308753 0)
(0.162992 0.323184 0)
(0.156557 0.337425 0)