/*--------------------------------*- C++ -*----------------------------------*\
| =========                 |                                                 |
| \\      /  F ield         | OpenFOAM: The Open Source CFD Toolbox           |
|  \\    /   O peration     | Version:  2406                                  |
|   \\  /    A nd           | Website:  www.openfoam.com                      |
|    \\/     M anipulation  |                                                 |
\*---------------------------------------------------------------------------*/
FoamFile
{
    version     2.0;
    format      ascii;
    arch        "LSB;label=32;scalar=64";
    class       volScalarField;
    location    "2.15";
    object      gradTx;
}
// * * * * * * * * * * * * * * * * * * * * * * * * * * * * * * * * * * * * * //

dimensions      [0 -1 0 1 0 0 0];

internalField   nonuniform List<scalar> 
2500
(
0.0127645
0.0382395
0.0636298
0.0889054
0.113985
0.138811
0.163325
0.187465
0.211168
0.234369
0.257
0.27899
0.300268
0.320757
0.34038
0.359057
0.376705
0.393241
0.408579
0.422634
0.435319
0.446548
0.456237
0.464302
0.470664
0.475246
0.477976
0.47879
0.477629
0.474443
0.46919
0.46184
0.452374
0.440784
0.427078
0.411276
0.393414
0.373542
0.351726
0.32805
0.302611
0.275521
0.246909
0.216917
0.1857
0.153423
0.120263
0.086405
0.0520408
0.0173784
0.0128303
0.0384402
0.0639664
0.0893759
0.11459
0.139551
0.1642
0.188475
0.212313
0.23565
0.258416
0.280541
0.301953
0.322575
0.34233
0.361137
0.378913
0.395574
0.411034
0.425206
0.438003
0.449339
0.459127
0.467284
0.473729
0.478384
0.481177
0.482041
0.480916
0.477752
0.472507
0.465147
0.455654
0.44402
0.430251
0.414367
0.396402
0.376409
0.354452
0.330615
0.304997
0.27771
0.248885
0.218664
0.187203
0.154672
0.121248
0.0871157
0.0524564
0.0175086
0.0129651
0.0388439
0.0646382
0.0903164
0.1158
0.141031
0.165949
0.190495
0.214604
0.238211
0.261248
0.283643
0.305324
0.326213
0.346232
0.3653
0.383332
0.400244
0.415948
0.430356
0.443379
0.454928
0.464917
0.473258
0.47987
0.484672
0.48759
0.488555
0.487506
0.484388
0.479157
0.47178
0.462235
0.450512
0.436617
0.420568
0.4024
0.382163
0.359923
0.335765
0.309787
0.282106
0.252852
0.222171
0.190223
0.157181
0.123227
0.0885512
0.053325
0.0177966
0.0131668
0.0394486
0.065646
0.0917277
0.117615
0.143251
0.168575
0.193527
0.218043
0.242057
0.265501
0.288302
0.310386
0.331677
0.352094
0.371554
0.389973
0.407263
0.423335
0.438098
0.451461
0.463334
0.473625
0.482247
0.489112
0.494138
0.497247
0.498366
0.497431
0.494384
0.489179
0.481777
0.472156
0.460302
0.446219
0.429923
0.411449
0.390846
0.368182
0.34354
0.317021
0.288744
0.258843
0.227468
0.194784
0.160968
0.126209
0.090704
0.0546258
0.0182311
0.0134356
0.0402549
0.0669901
0.0936105
0.120038
0.146214
0.17208
0.197574
0.222634
0.247191
0.271178
0.294522
0.317147
0.338975
0.359925
0.379912
0.398849
0.416646
0.433212
0.448453
0.462275
0.474583
0.485283
0.494282
0.50149
0.50682
0.510188
0.511518
0.510741
0.507795
0.502627
0.495197
0.485477
0.473451
0.459119
0.442497
0.423615
0.402524
0.379291
0.354001
0.326756
0.29768
0.26691
0.234601
0.200925
0.166067
0.130223
0.0935977
0.0563729
0.0188152
0.0137718
0.0412633
0.0686712
0.0959655
0.123068
0.14992
0.176465
0.202639
0.228379
0.253618
0.278287
0.302311
0.325615
0.348119
0.369739
0.390388
0.409978
0.428414
0.445604
0.461448
0.47585
0.488709
0.499928
0.509407
0.517052
0.52277
0.526471
0.528074
0.527502
0.524688
0.519575
0.512117
0.502279
0.490043
0.475404
0.458375
0.438985
0.417282
0.393335
0.367229
0.339071
0.308986
0.277119
0.24363
0.2087
0.172522
0.135304
0.09726
0.0585835
0.0195542
0.0141754
0.0424741
0.0706899
0.0987937
0.126707
0.154373
0.181732
0.208724
0.235283
0.261343
0.286833
0.311678
0.335801
0.35912
0.38155
0.403
0.42338
0.442592
0.460538
0.477116
0.492224
0.505756
0.517608
0.527676
0.535857
0.542052
0.546166
0.548108
0.547795
0.545153
0.540117
0.532635
0.522665
0.510184
0.495182
0.477667
0.457668
0.43523
0.410422
0.383331
0.354066
0.322758
0.289558
0.254635
0.218178
0.180393
0.141499
0.101725
0.0612788
0.0204553
0.0146465
0.0438876
0.0730469
0.102096
0.130957
0.159573
0.187886
0.215833
0.243351
0.270372
0.296824
0.322632
0.347716
0.371994
0.395376
0.41777
0.439081
0.459209
0.47805
0.495497
0.511442
0.525773
0.53838
0.549151
0.557976
0.564746
0.569358
0.571714
0.571721
0.569296
0.564365
0.556868
0.546758
0.534001
0.518583
0.500508
0.4798
0.456503
0.430684
0.402434
0.371864
0.339111
0.304333
0.267711
0.229443
0.18975
0.148865
0.107035
0.064484
0.0215269
0.0151854
0.0455042
0.0757425
0.105873
0.135818
0.165522
0.194927
0.22397
0.252587
0.280711
0.308269
0.335183
0.361374
0.386755
0.411236
0.434721
0.45711
0.478298
0.498177
0.516634
0.533554
0.548819
0.56231
0.573906
0.583489
0.59094
0.596147
0.598999
0.599394
0.59724
0.592452
0.584959
0.574704
0.561647
0.545766
0.527057
0.505541
0.48126
0.45428
0.424692
0.392613
0.358185
0.321575
0.282974
0.242598
0.200679
0.157471
0.113239
0.0682297
0.0227792
0.0157919
0.0473239
0.0787769
0.110125
0.141292
0.172222
0.202858
0.233137
0.262996
0.292367
0.321175
0.349343
0.376788
0.403422
0.429152
0.453877
0.477495
0.499894
0.520962
0.540577
0.558619
0.57496
0.589472
0.602025
0.61249
0.620738
0.626643
0.630086
0.63095
0.62913
0.62453
0.617067
0.606673
0.593299
0.576911
0.557501
0.535081
0.509691
0.481395
0.450287
0.416487
0.380144
0.341435
0.300565
0.257763
0.213283
0.167399
0.120398
0.072552
0.0242244
0.016466
0.0493466
0.0821503
0.114853
0.147379
0.179674
0.21168
0.243338
0.274582
0.305344
0.33555
0.365121
0.393972
0.422012
0.449144
0.475267
0.500269
0.524037
0.54645
0.56738
0.586697
0.604265
0.619946
0.633598
0.645081
0.654253
0.660976
0.665113
0.666537
0.665127
0.660773
0.653378
0.642861
0.629159
0.61223
0.592053
0.568637
0.542014
0.512247
0.479431
0.44369
0.405181
0.364092
0.320643
0.275081
0.227682
0.178743
0.12858
0.0774932
0.0258766
0.0172076
0.0515719
0.0858619
0.120056
0.154078
0.187877
0.221395
0.254573
0.287347
0.319648
0.351401
0.382526
0.412937
0.44254
0.471235
0.498915
0.525466
0.550767
0.574689
0.597098
0.617854
0.636812
0.65382
0.668727
0.681377
0.691613
0.699284
0.704236
0.706326
0.705416
0.701379
0.694102
0.683488
0.66946
0.651961
0.630962
0.606459
0.57848
0.547085
0.512368
0.474458
0.43352
0.389754
0.343398
0.294718
0.244016
0.191617
0.137869
0.0831031
0.0277527
0.0180166
0.0539993
0.0899109
0.125732
0.161389
0.19683
0.232001
0.266843
0.301293
0.335281
0.368733
0.401568
0.433696
0.465023
0.495445
0.52485
0.553119
0.580123
0.605729
0.629792
0.652162
0.672682
0.69119
0.707519
0.721498
0.732955
0.74172
0.747624
0.750502
0.750197
0.746565
0.739471
0.728802
0.714461
0.696378
0.674506
0.648833
0.619378
0.586196
0.54938
0.509063
0.465419
0.418662
0.369047
0.316867
0.262448
0.206151
0.148357
0.0894394
0.0298719
0.0188924
0.0566275
0.0942953
0.131879
0.169307
0.206531
0.243496
0.280147
0.316419
0.352245
0.38755
0.422251
0.456259
0.489475
0.521793
0.553096
0.583259
0.612148
0.63962
0.665522
0.689692
0.711961
0.732154
0.750088
0.765575
0.778427
0.788452
0.795461
0.799268
0.799695
0.796572
0.789747
0.77908
0.764455
0.745783
0.723002
0.696082
0.665034
0.629905
0.590786
0.547816
0.501175
0.451093
0.397845
0.341749
0.283167
0.222495
0.160156
0.0965692
0.0322567
0.0198345
0.059455
0.0990126
0.138494
0.177831
0.216975
0.255876
0.294479
0.332722
0.370538
0.407851
0.44458
0.480632
0.515907
0.550295
0.583675
0.615918
0.64688
0.676411
0.704348
0.730517
0.754737
0.776815
0.796554
0.813748
0.828187
0.839657
0.847947
0.852846
0.854151
0.851668
0.845214
0.834628
0.819768
0.80052
0.776803
0.748571
0.715818
0.678583
0.636956
0.591073
0.541128
0.487364
0.430079
0.369623
0.306392
0.240824
0.173394
0.10457
0.0349333
0.0208423
0.0624795
0.104059
0.145572
0.186952
0.228155
0.269133
0.309833
0.350195
0.390153
0.429633
0.468552
0.506817
0.544325
0.580964
0.616608
0.651122
0.684356
0.716149
0.746329
0.77471
0.801096
0.825279
0.847043
0.86616
0.8824
0.895524
0.905296
0.911476
0.913832
0.91214
0.906188
0.895785
0.880759
0.860969
0.836309
0.806709
0.772148
0.732652
0.688304
0.639243
0.585669
0.527842
0.466087
0.400785
0.332374
0.261342
0.188218
0.113533
0.0379321
0.0219146
0.0656981
0.10943
0.153107
0.196664
0.240063
0.283258
0.326199
0.368829
0.411083
0.452889
0.494163
0.534812
0.574732
0.613808
0.651909
0.688894
0.724606
0.758877
0.791522
0.822342
0.851127
0.877652
0.901679
0.92296
0.94124
0.956253
0.967733
0.97541
0.97902
0.978303
0.973014
0.962924
0.947829
0.927554
0.901962
0.870957
0.834496
0.792588
0.745307
0.69279
0.635244
0.572949
0.506253
0.435577
0.361405
0.284282
0.204801
0.123562
0.0412882
0.0230503
0.069107
0.11512
0.161089
0.206957
0.252686
0.298237
0.343563
0.388609
0.433313
0.477605
0.521401
0.56461
0.607124
0.648827
0.689584
0.729249
0.767658
0.804632
0.839977
0.87348
0.904915
0.934037
0.96059
0.9843
1.00488
1.02205
1.0355
1.04492
1.05002
1.0505
1.04606
1.03645
1.02142
1.00074
0.974258
0.941833
0.903394
0.858931
0.808504
0.752244
0.690366
0.623166
0.551022
0.474395
0.393824
0.309917
0.223342
0.134779
0.0450426
0.0242477
0.0727014
0.12112
0.169509
0.217816
0.266009
0.314053
0.361905
0.409514
0.456823
0.503761
0.550249
0.596194
0.641489
0.686015
0.729635
0.772196
0.813529
0.853445
0.891739
0.928184
0.962538
0.994537
1.0239
1.05033
1.07352
1.09313
1.10884
1.12029
1.12716
1.12908
1.12574
1.11681
1.102
1.08106
1.05375
1.01991
0.97944
0.932292
0.878507
0.818212
0.751622
0.67905
0.600907
0.517699
0.430024
0.338564
0.244073
0.147326
0.0492431
0.0255049
0.0764758
0.127421
0.178354
0.229226
0.280012
0.330683
0.381201
0.43152
0.481586
0.531332
0.580681
0.629541
0.677806
0.725356
0.77205
0.817732
0.862226
0.905335
0.946841
0.986506
1.02407
1.05924
1.09173
1.1212
1.14732
1.16971
1.18801
1.20183
1.21077
1.21445
1.21248
1.20449
1.19012
1.16906
1.14104
1.10584
1.06331
1.01336
0.956016
0.891386
0.819686
0.741244
0.656503
0.56602
0.470461
0.370592
0.267266
0.16137
0.0539456
0.0268196
0.0804231
0.134011
0.187607
0.241166
0.294673
0.348102
0.401422
0.454595
0.507568
0.560282
0.612661
0.664617
0.716045
0.766822
0.816809
0.865844
0.913746
0.960309
1.00531
1.04848
1.08956
1.12824
1.16419
1.19706
1.22646
1.25201
1.27327
1.28983
1.30122
1.30701
1.30675
1.3
1.28634
1.26539
1.23682
1.20034
1.15575
1.10292
1.04182
0.97256
0.895334
0.810488
0.7185
0.619979
0.515669
0.406434
0.293239
0.177106
0.0592159
0.0281892
0.0845352
0.140879
0.19725
0.253614
0.309961
0.366275
0.422532
0.478697
0.534728
0.590568
0.646146
0.701378
0.756161
0.810374
0.863876
0.916503
0.968068
1.01836
1.06714
1.11414
1.15907
1.2016
1.24139
1.27803
1.31113
1.34024
1.3649
1.38461
1.39888
1.4072
1.40904
1.4039
1.39129
1.37073
1.34183
1.30422
1.25762
1.20185
1.13684
1.06264
0.979459
0.887641
0.787697
0.680299
0.566273
0.446596
0.322368
0.194762
0.0651313
0.0296104
0.0888028
0.148006
0.207261
0.266542
0.325846
0.385166
0.444486
0.503781
0.563014
0.622134
0.681079
0.739767
0.798099
0.855957
0.9132
0.969663
1.02516
1.07946
1.13233
1.18349
1.23262
1.27938
1.32339
1.36424
1.40147
1.43461
1.46313
1.48649
1.50413
1.51546
1.51988
1.5168
1.50564
1.48584
1.4569
1.41836
1.36987
1.31115
1.24208
1.16267
1.07309
0.9737
0.865033
0.747827
0.623008
0.491678
0.355095
0.214612
0.0717836
0.0310795
0.0932149
0.155377
0.217616
0.279916
0.342286
0.404728
0.467234
0.529789
0.592363
0.654917
0.717391
0.779712
0.841787
0.903499
0.964712
1.02526
1.08495
1.14357
1.20085
1.2565
1.31021
1.3616
1.41028
1.45578
1.49764
1.53531
1.56823
1.59579
1.61735
1.63225
1.63981
1.63933
1.63012
1.61154
1.58294
1.54377
1.49357
1.43197
1.35875
1.27386
1.17744
1.06983
0.951602
0.823563
0.686742
0.542389
0.391945
0.236978
0.0792818
0.0325925
0.097759
0.162969
0.228285
0.293702
0.359239
0.424909
0.490717
0.556655
0.622705
0.688836
0.754999
0.821128
0.887135
0.952912
1.01832
1.08321
1.14738
1.2106
1.27262
1.33314
1.39182
1.44827
1.50207
1.55273
1.59974
1.64251
1.68042
1.7128
1.73893
1.75805
1.7694
1.77215
1.76552
1.7487
1.72094
1.68155
1.62992
1.56557
1.48817
1.39758
1.29387
1.17738
1.04869
0.908685
0.758505
0.599574
0.433547
0.262247
0.0877567
0.0341447
0.102421
0.17076
0.239236
0.307857
0.376653
0.445651
0.514866
0.584303
0.653956
0.723803
0.793807
0.863911
0.934037
1.00408
1.07392
1.1434
1.21232
1.28047
1.34757
1.41333
1.47739
1.53936
1.59877
1.65512
1.70786
1.75635
1.79991
1.8378
1.86923
1.89333
1.90922
1.91598
1.91265
1.8983
1.87201
1.83293
1.78028
1.71343
1.63189
1.53543
1.42402
1.29795
1.15783
1.00459
0.839527
0.664244
0.480654
0.290885
0.0973656
0.0357308
0.107186
0.178723
0.250433
0.322334
0.394472
0.466886
0.539604
0.612647
0.686019
0.759712
0.833701
0.907941
0.982366
1.05688
1.13138
1.2057
1.27965
1.35303
1.42557
1.49696
1.56683
1.63478
1.70033
1.76295
1.82205
1.87693
1.92688
1.97106
2.0086
2.03854
2.05987
2.07152
2.07239
2.06136
2.03733
1.99925
1.94615
1.87718
1.79169
1.68926
1.56976
1.43342
1.28081
1.11296
0.931281
0.737617
0.534177
0.323455
0.108299
0.0373451
0.112035
0.18683
0.261834
0.337081
0.412632
0.488539
0.564846
0.641588
0.718785
0.796443
0.874552
0.95308
1.03197
1.11116
1.19052
1.26993
1.3492
1.42813
1.50645
1.58386
1.65999
1.73442
1.80667
1.87617
1.94229
2.00431
2.06144
2.11278
2.15736
2.19412
2.22191
2.2395
2.24562
2.23896
2.21819
2.18201
2.1292
2.05869
1.96957
1.86121
1.73332
1.58599
1.4198
1.23579
1.03555
0.82117
0.595224
0.360643
0.12079
0.0389811
0.116951
0.195048
0.273396
0.352041
0.431062
0.510526
0.590495
0.671018
0.752133
0.833863
0.916212
0.999166
1.08269
1.16672
1.25116
1.3359
1.42076
1.50555
1.59001
1.67384
1.75668
1.83811
1.91762
1.99464
2.06851
2.13846
2.20365
2.26311
2.31577
2.36046
2.39588
2.42065
2.43329
2.43225
2.41595
2.38281
2.33132
2.26007
2.16786
2.05377
1.91728
1.75831
1.57735
1.37549
1.15448
0.916703
0.665149
0.403292
0.135123
0.0406322
0.121912
0.203344
0.285069
0.367152
0.449686
0.532758
0.616445
0.700817
0.785928
0.87182
0.958516
1.04602
1.13432
1.22336
1.31308
1.40337
1.49409
1.58504
1.67599
1.76664
1.85666
1.9456
2.03297
2.11818
2.20055
2.27929
2.35348
2.4221
2.484
2.53787
2.58227
2.61565
2.63629
2.64239
2.63208
2.60344
2.55457
2.48369
2.38921
2.26984
2.12471
1.95351
1.75658
1.53502
1.29073
1.02643
0.745626
0.452443
0.151654
0.0422907
0.126895
0.21168
0.296803
0.382345
0.468421
0.555134
0.642582
0.730852
0.820021
0.910149
1.00128
1.09345
1.18664
1.28086
1.37603
1.47209
1.5689
1.6663
1.76408
1.86195
1.95959
2.05658
2.15242
2.24652
2.33818
2.4266
2.51081
2.58974
2.66214
2.72659
2.78151
2.82513
2.85552
2.87058
2.8681
2.84576
2.80122
2.73222
2.63666
2.51276
2.35921
2.17533
1.96123
1.71794
1.44753
1.15309
0.838733
0.509396
0.170823
0.0439488
0.131879
0.220016
0.308539
0.397549
0.487176
0.577547
0.66878
0.760981
0.85425
0.948669
1.04431
1.14122
1.23942
1.33893
1.43972
1.54173
1.64487
1.74899
1.85392
1.95939
2.0651
2.17065
2.27557
2.37926
2.48104
2.58008
2.67539
2.76585
2.85013
2.92671
2.99386
3.04962
3.09179
3.11798
3.12557
3.11178
3.07376
3.00864
2.91369
2.78647
2.62508
2.42829
2.19586
1.92867
1.62891
1.3001
0.947077
0.575784
0.193186
0.045598
0.136836
0.22831
0.32022
0.412685
0.505858
0.599885
0.694906
0.79105
0.88844
0.987184
1.08737
1.18909
1.29239
1.3973
1.50383
1.61196
1.72162
1.83272
1.94509
2.05851
2.17272
2.28734
2.40193
2.51593
2.62865
2.73928
2.84682
2.95011
3.04776
3.13817
3.21946
3.28949
3.3458
3.38565
3.406
3.40357
3.37484
3.31623
3.22422
3.09551
2.92736
2.71782
2.46606
2.17267
1.83991
1.47176
1.07395
0.653675
0.21945
0.0472296
0.14174
0.236517
0.331781
0.427673
0.524365
0.622026
0.720818
0.820897
0.922407
1.02548
1.13025
1.23681
1.34525
1.45564
1.56802
1.6824
1.79876
1.91703
2.0371
2.15881
2.2819
2.40608
2.53092
2.65591
2.7804
2.9036
3.02452
3.142
3.25461
3.36068
3.45822
3.54491
3.61804
3.67452
3.71087
3.72318
3.70725
3.6586
3.5727
3.44516
3.2721
3.05051
2.7787
2.45675
2.08687
1.67354
1.22356
0.745715
0.250518
0.0488342
0.146564
0.244592
0.343159
0.442426
0.542591
0.643843
0.746369
0.850348
0.955953
1.06335
1.17268
1.28409
1.39769
1.5136
1.63189
1.75262
1.8758
2.00142
2.12942
2.25968
2.39202
2.52618
2.66181
2.79846
2.93552
3.07225
3.20772
3.34077
3.47
3.59368
3.70975
3.81573
3.90872
3.98526
4.04141
4.07262
4.07386
4.03962
3.9641
3.84152
3.66644
3.43436
3.14231
2.78949
2.37785
1.91242
1.4013
0.855314
0.287555
0.0504025
0.151279
0.252485
0.354284
0.456858
0.560427
0.665205
0.771402
0.879224
0.988871
1.10053
1.2144
1.33063
1.44939
1.57082
1.69505
1.82217
1.95226
2.08535
2.22144
2.36048
2.50235
2.64688
2.79378
2.94268
3.09306
3.24426
3.39541
3.54543
3.69295
3.83627
3.97329
4.10145
4.21765
4.31816
4.39855
4.45363
4.47745
4.46331
4.40388
4.29156
4.11886
3.87916
3.56754
3.18177
2.72322
2.19744
1.61417
0.986896
0.332072
0.0519247
0.155855
0.260148
0.365087
0.470878
0.577762
0.685976
0.795759
0.90734
1.02095
1.13681
1.25513
1.37613
1.49999
1.62691
1.75705
1.89057
2.02759
2.16821
2.31249
2.46047
2.6121
2.76729
2.92586
3.08753
3.25191
3.41842
3.58634
3.75467
3.92215
4.08716
4.24765
4.40103
4.54412
4.67294
4.78268
4.86752
4.92054
4.93369
4.89787
4.80318
4.63939
4.39686
4.06777
3.64755
3.13643
2.5404
1.87134
1.14624
0.386042
0.053391
0.160264
0.267532
0.375499
0.484394
0.59448
0.70602
0.819275
0.934505
1.05197
1.17191
1.29459
1.42025
1.54913
1.68145
1.81744
1.95729
2.10121
2.24936
2.40187
2.55885
2.72037
2.88643
3.05697
3.23184
3.41076
3.59333
3.77897
3.96686
4.1559
4.34461
4.53109
4.71285
4.88671
5.04861
5.19344
5.31486
5.40502
5.45448
5.45209
5.38511
5.23975
5.00213
4.65999
4.20498
3.63517
2.95685
2.18481
1.34089
0.452035
0.0547916
0.164476
0.274586
0.385449
0.497314
0.610468
0.725197
0.841788
0.960528
1.0817
1.2056
1.33249
1.46268
1.59643
1.73402
1.87573
2.02181
2.17253
2.32812
2.4888
2.65478
2.82622
3.00324
3.18592
3.37425
3.56813
3.76735
3.97151
4.18004
4.39205
4.60635
4.82126
5.03453
5.24314
5.44315
5.62936
5.79509
5.93176
6.02859
6.07223
6.04667
5.93349
5.71292
5.36595
4.87795
4.24302
3.46751
2.57045
1.5807
0.533375
0.0561166
0.168461
0.281262
0.394867
0.509547
0.625611
0.743369
0.863133
0.985217
1.10993
1.2376
1.36854
1.50307
1.64151
1.7842
1.93144
2.08357
2.24091
2.40378
2.57249
2.74734
2.92861
3.11655
3.31139
3.5133
3.72236
3.9386
4.16187
4.39186
4.62805
4.86956
5.1151
5.36282
5.61009
5.85331
6.08752
6.30603
6.49992
6.65735
6.76293
6.7971
6.73578
6.5511
6.21383
5.69862
4.99206
4.10019
3.04907
1.8783
0.634275
0.0573568
0.172191
0.287511
0.403684
0.521003
0.639798
0.760401
0.883149
1.00838
1.13644
1.26768
1.40244
1.5411
1.684
1.83154
1.98408
2.14201
2.30573
2.47563
2.65212
2.8356
3.02648
3.22515
3.432
3.64739
3.87165
4.10502
4.34768
4.59968
4.86086
5.13083
5.40881
5.69354
5.98303
6.27433
6.56313
6.84329
7.10611
7.33943
7.52644
7.64426
7.66256
7.54291
7.24054
6.71141
5.92704
4.89259
3.64763
2.24939
0.759834
0.0585028
0.175638
0.293286
0.411836
0.531597
0.652921
0.776162
0.90168
1.02984
1.16101
1.29557
1.43391
1.57643
1.72353
1.87562
2.03316
2.19657
2.36634
2.54293
2.72684
2.9186
3.11872
3.32777
3.54629
3.77486
4.01404
4.26438
4.52638
4.80049
5.08704
5.3862
5.69785
6.02151
6.3561
6.6997
7.04917
7.39959
7.74341
8.06933
8.36053
8.59222
8.72845
8.71845
8.4949
7.98021
7.11272
5.89602
4.39974
2.71202
0.915644
0.059546
0.178776
0.298545
0.419258
0.541245
0.664876
0.790526
0.918576
1.04941
1.18344
1.32105
1.46268
1.60875
1.75971
1.91603
2.0782
2.24671
2.42211
2.60495
2.79583
2.99537
3.20424
3.42313
3.65278
3.89398
4.14754
4.41432
4.6952
4.99107
5.3028
5.6312
5.97696
6.34057
6.72211
7.12109
7.53608
7.96418
8.40022
8.83546
9.25551
9.63694
9.94174
10.1086
10.0413
9.60258
8.64825
7.17951
5.34357
3.28353
1.10651
0.0604783
0.181581
0.303245
0.425894
0.549872
0.675569
0.803377
0.933697
1.06694
1.20353
1.34389
1.48848
1.63777
1.79223
1.95237
2.11874
2.2919
2.47244
2.66101
2.85828
3.06499
3.28193
3.50995
3.74997
4.00299
4.27008
4.55242
4.85128
5.16801
5.50406
5.86098
6.24034
6.64373
7.07264
7.52835
8.01167
8.52255
9.05946
9.6183
10.1905
10.7596
11.2941
11.7339
11.9601
11.7413
10.6989
8.83067
6.51182
3.97225
1.3335
0.0612925
0.18403
0.307349
0.431689
0.557408
0.68491
0.814606
0.946916
1.08227
1.22111
1.36389
1.51109
1.6632
1.82075
1.98428
2.15437
2.33165
2.51676
2.71043
2.91342
3.12657
3.35077
3.58703
3.83644
4.1002
4.37966
4.67629
4.99174
5.32785
5.68667
6.07048
6.48179
6.92341
7.39836
7.90992
8.46153
9.05663
9.6984
10.3893
11.1301
11.918
12.7425
13.5738
14.3249
14.7045
13.5758
10.933
7.90107
4.76037
1.58891
0.0619821
0.186104
0.310825
0.436596
0.563789
0.692821
0.824119
0.958117
1.09526
1.23601
1.38085
1.53027
1.6848
1.84498
2.01141
2.1847
2.36551
2.55456
2.75263
2.96056
3.17927
3.40978
3.65322
3.91083
4.18402
4.47436
4.78362
5.11381
5.46724
5.84651
6.25463
6.69507
7.17181
7.68946
8.25337
8.86973
9.54576
10.2899
11.1119
12.024
13.0412
14.1853
15.495
17.062
19.1766
17.9676
13.4249
9.3994
5.57948
1.85082
0.0625418
0.187787
0.313645
0.440575
0.568962
0.699236
0.831833
0.967202
1.1058
1.24811
1.39462
1.54585
1.70235
1.86469
2.03348
2.20938
2.3931
2.58538
2.78707
2.99907
3.22238
3.45811
3.7075
3.97194
4.25299
4.55243
4.87231
5.21494
5.58303
5.97972
6.40866
6.87418
7.38136
7.9363
8.54628
9.22011
9.96857
10.805
11.7462
12.8141
14.0387
15.4637
17.1599
19.2524
21.9733
20.6938
15.4002
10.6924
6.30758
2.08583
0.0629671
0.189068
0.315786
0.443592
0.572883
0.704098
0.83768
0.974089
1.11379
1.25728
1.40507
1.55768
1.71568
1.87966
2.05026
2.22815
2.41408
2.60884
2.81331
3.02843
3.25527
3.49503
3.74901
4.01873
4.30587
4.6124
4.94054
5.2929
5.6725
6.08289
6.5283
7.01374
7.54525
8.13011
8.77727
9.49771
10.3052
11.217
12.2553
13.4491
14.837
16.4722
18.4297
20.8155
23.7709
22.4348
16.7902
11.6627
6.87287
2.2709
0.0632525
0.189934
0.317233
0.445621
0.575518
0.707364
0.841608
0.978716
1.11916
1.26345
1.41209
1.56563
1.72464
1.88973
2.06154
2.24079
2.42822
2.62465
2.83099
3.04823
3.27748
3.51997
3.77708
4.05039
4.3417
4.65306
4.98688
5.34591
5.73343
6.1533
6.61011
7.1094
7.65785
8.26365
8.93689
9.69015
10.5392
11.5041
12.6105
13.8913
15.3893
17.1597
19.272
21.8099
24.8608
23.4851
17.6635
12.2955
7.25056
2.39596
0.0633827
0.190352
0.317956
0.44664
0.576841
0.709004
0.843581
0.98104
1.12186
1.26655
1.41562
1.56962
1.72914
1.89479
2.06722
2.24715
2.43533
2.63261
2.8399
3.05821
3.28867
3.53253
3.79123
4.06636
4.35978
4.67361
5.0103
5.37273
5.7643
6.189
6.65164
7.15802
7.71518
8.33175
9.01845
9.78864
10.6592
11.6514
12.7927
14.1177
15.6707
17.5064
19.6899
22.2923
25.3781
23.9821
18.0835
12.6056
7.43814
2.45848
)
;

boundaryField
{
    walls
    {
        type            calculated;
        value           nonuniform List<scalar> 
200
(
0.0633827
0.190352
0.317956
0.44664
0.576841
0.709004
0.843581
0.98104
1.12186
1.26655
1.41562
1.56962
1.72914
1.89479
2.06722
2.24715
2.43533
2.63261
2.8399
3.05821
3.28867
3.53253
3.79123
4.06636
4.35978
4.67361
5.0103
5.37273
5.7643
6.189
6.65164
7.15802
7.71518
8.33175
9.01845
9.78864
10.6592
11.6514
12.7927
14.1177
15.6707
17.5064
19.6899
22.2923
25.3781
23.9821
18.0835
12.6056
7.43814
2.45848
0
0
0
0
0
0
0
0
0
0
0
0
0
0
0
0
0
0
0
0
0
0
0
0
0
0
0
0
0
0
0
0
0
0
0
0
0
0
0
0
0
0
0
0
0
0
0
0
0
0
0
0
0
0
0
0
0
0
0
0
0
0
0
0
0
0
0
0
0
0
0
0
0
0
0
0
0
0
0
0
0
0
0
0
0
0
0
0
0
0
0
0
0
0
0
0
0
0
0
0
0.0127645
0.0382395
0.0636298
0.0889054
0.113985
0.138811
0.163325
0.187465
0.211168
0.234369
0.257
0.27899
0.300268
0.320757
0.34038
0.359057
0.376705
0.393241
0.408579
0.422634
0.435319
0.446548
0.456237
0.464302
0.470664
0.475246
0.477976
0.47879
0.477629
0.474443
0.46919
0.46184
0.452374
0.440784
0.427078
0.411276
0.393414
0.373542
0.351726
0.32805
0.302611
0.275521
0.246909
0.216917
0.1857
0.153423
0.120263
0.086405
0.0520408
0.0173784
)
;
    }
    frontAndBack
    {
        type            empty;
    }
}


// ************************************************************************* //
