/*--------------------------------*- C++ -*----------------------------------*\
| =========                 |                                                 |
| \\      /  F ield         | OpenFOAM: The Open Source CFD Toolbox           |
|  \\    /   O peration     | Version:  2406                                  |
|   \\  /    A nd           | Website:  www.openfoam.com                      |
|    \\/     M anipulation  |                                                 |
\*---------------------------------------------------------------------------*/
FoamFile
{
    version     2.0;
    format      ascii;
    arch        "LSB;label=32;scalar=64";
    class       volScalarField;
    location    "2.15";
    object      gradTy;
}
// * * * * * * * * * * * * * * * * * * * * * * * * * * * * * * * * * * * * * //

dimensions      [0 -1 0 1 0 0 0];

internalField   nonuniform List<scalar> 
2500
(
0.0127645
0.0128303
0.0129651
0.0131668
0.0134356
0.0137718
0.0141754
0.0146465
0.0151854
0.0157919
0.016466
0.0172076
0.0180166
0.0188924
0.0198345
0.0208423
0.0219146
0.0230503
0.0242477
0.0255049
0.0268196
0.0281892
0.0296104
0.0310795
0.0325925
0.0341447
0.0357308
0.0373451
0.0389811
0.0406322
0.0422907
0.0439488
0.045598
0.0472296
0.0488342
0.0504025
0.0519247
0.053391
0.0547916
0.0561166
0.0573568
0.0585028
0.059546
0.0604783
0.0612925
0.0619821
0.0625418
0.0629671
0.0632525
0.0633827
0.0382395
0.0384402
0.0388439
0.0394486
0.0402549
0.0412633
0.0424741
0.0438876
0.0455042
0.0473239
0.0493466
0.0515719
0.0539993
0.0566275
0.059455
0.0624795
0.0656981
0.069107
0.0727014
0.0764758
0.0804231
0.0845352
0.0888028
0.0932149
0.097759
0.102421
0.107186
0.112035
0.116951
0.121912
0.126895
0.131879
0.136836
0.14174
0.146564
0.151279
0.155855
0.160264
0.164476
0.168461
0.172191
0.175638
0.178776
0.181581
0.18403
0.186104
0.187787
0.189068
0.189934
0.190352
0.0636298
0.0639664
0.0646382
0.065646
0.0669901
0.0686712
0.0706899
0.0730469
0.0757425
0.0787769
0.0821503
0.0858619
0.0899109
0.0942953
0.0990126
0.104059
0.10943
0.11512
0.12112
0.127421
0.134011
0.140879
0.148006
0.155377
0.162969
0.17076
0.178723
0.18683
0.195048
0.203344
0.21168
0.220016
0.22831
0.236517
0.244592
0.252485
0.260148
0.267532
0.274586
0.281262
0.287511
0.293286
0.298545
0.303245
0.307349
0.310825
0.313645
0.315786
0.317233
0.317956
0.0889054
0.0893759
0.0903164
0.0917277
0.0936105
0.0959655
0.0987937
0.102096
0.105873
0.110125
0.114853
0.120056
0.125732
0.131879
0.138494
0.145572
0.153107
0.161089
0.169509
0.178354
0.187607
0.19725
0.207261
0.217616
0.228285
0.239236
0.250433
0.261834
0.273396
0.285069
0.296803
0.308539
0.32022
0.331781
0.343159
0.354284
0.365087
0.375499
0.385449
0.394867
0.403684
0.411836
0.419258
0.425894
0.431689
0.436596
0.440575
0.443592
0.445621
0.44664
0.113985
0.11459
0.1158
0.117615
0.120038
0.123068
0.126707
0.130957
0.135818
0.141292
0.147379
0.154078
0.161389
0.169307
0.177831
0.186952
0.196664
0.206957
0.217816
0.229226
0.241166
0.253614
0.266542
0.279916
0.293702
0.307857
0.322334
0.337081
0.352041
0.367152
0.382345
0.397549
0.412685
0.427673
0.442426
0.456858
0.470878
0.484394
0.497314
0.509547
0.521003
0.531597
0.541245
0.549872
0.557408
0.563789
0.568962
0.572883
0.575518
0.576841
0.138811
0.139551
0.141031
0.143251
0.146214
0.14992
0.154373
0.159573
0.165522
0.172222
0.179674
0.187877
0.19683
0.206531
0.216975
0.228155
0.240063
0.252686
0.266009
0.280012
0.294673
0.309961
0.325846
0.342286
0.359239
0.376653
0.394472
0.412632
0.431062
0.449686
0.468421
0.487176
0.505858
0.524365
0.542591
0.560427
0.577762
0.59448
0.610468
0.625611
0.639798
0.652921
0.664876
0.675569
0.68491
0.692821
0.699236
0.704098
0.707364
0.709004
0.163325
0.1642
0.165949
0.168575
0.17208
0.176465
0.181732
0.187886
0.194927
0.202858
0.21168
0.221395
0.232001
0.243496
0.255876
0.269133
0.283258
0.298237
0.314053
0.330683
0.348102
0.366275
0.385166
0.404728
0.424909
0.445651
0.466886
0.488539
0.510526
0.532758
0.555134
0.577547
0.599885
0.622026
0.643843
0.665205
0.685976
0.70602
0.725197
0.743369
0.760401
0.776162
0.790526
0.803377
0.814606
0.824119
0.831833
0.83768
0.841608
0.843581
0.187465
0.188475
0.190495
0.193527
0.197574
0.202639
0.208724
0.215833
0.22397
0.233137
0.243338
0.254573
0.266843
0.280147
0.294479
0.309833
0.326199
0.343563
0.361905
0.381201
0.401422
0.422532
0.444486
0.467234
0.490717
0.514866
0.539604
0.564846
0.590495
0.616445
0.642582
0.66878
0.694906
0.720818
0.746369
0.771402
0.795759
0.819275
0.841788
0.863133
0.883149
0.90168
0.918576
0.933697
0.946916
0.958117
0.967202
0.974089
0.978716
0.98104
0.211168
0.212313
0.214604
0.218043
0.222634
0.228379
0.235283
0.243351
0.252587
0.262996
0.274582
0.287347
0.301293
0.316419
0.332722
0.350195
0.368829
0.388609
0.409514
0.43152
0.454595
0.478697
0.503781
0.529789
0.556655
0.584303
0.612647
0.641588
0.671018
0.700817
0.730852
0.760981
0.79105
0.820897
0.850348
0.879224
0.90734
0.934505
0.960528
0.985217
1.00838
1.02984
1.04941
1.06694
1.08227
1.09526
1.1058
1.11379
1.11916
1.12186
0.234369
0.23565
0.238211
0.242057
0.247191
0.253618
0.261343
0.270372
0.280711
0.292367
0.305344
0.319648
0.335281
0.352245
0.370538
0.390153
0.411083
0.433313
0.456823
0.481586
0.507568
0.534728
0.563014
0.592363
0.622705
0.653956
0.686019
0.718785
0.752133
0.785928
0.820021
0.85425
0.88844
0.922407
0.955953
0.988871
1.02095
1.05197
1.0817
1.10993
1.13644
1.16101
1.18344
1.20353
1.22111
1.23601
1.24811
1.25728
1.26345
1.26655
0.257
0.258416
0.261248
0.265501
0.271178
0.278287
0.286833
0.296824
0.308269
0.321175
0.33555
0.351401
0.368733
0.38755
0.407851
0.429633
0.452889
0.477605
0.503761
0.531332
0.560282
0.590568
0.622134
0.654917
0.688836
0.723803
0.759712
0.796443
0.833863
0.87182
0.910149
0.948669
0.987184
1.02548
1.06335
1.10053
1.13681
1.17191
1.2056
1.2376
1.26768
1.29557
1.32105
1.34389
1.36389
1.38085
1.39462
1.40507
1.41209
1.41562
0.27899
0.280541
0.283643
0.288302
0.294522
0.302311
0.311678
0.322632
0.335183
0.349343
0.365121
0.382526
0.401568
0.422251
0.44458
0.468552
0.494163
0.521401
0.550249
0.580681
0.612661
0.646146
0.681079
0.717391
0.754999
0.793807
0.833701
0.874552
0.916212
0.958516
1.00128
1.04431
1.08737
1.13025
1.17268
1.2144
1.25513
1.29459
1.33249
1.36854
1.40244
1.43391
1.46268
1.48848
1.51109
1.53027
1.54585
1.55768
1.56563
1.56962
0.300268
0.301953
0.305324
0.310386
0.317147
0.325615
0.335801
0.347716
0.361374
0.376788
0.393972
0.412937
0.433696
0.456259
0.480632
0.506817
0.534812
0.56461
0.596194
0.629541
0.664617
0.701378
0.739767
0.779712
0.821128
0.863911
0.907941
0.95308
0.999166
1.04602
1.09345
1.14122
1.18909
1.23681
1.28409
1.33063
1.37613
1.42025
1.46268
1.50307
1.5411
1.57643
1.60875
1.63777
1.6632
1.6848
1.70235
1.71568
1.72464
1.72914
0.320757
0.322575
0.326213
0.331677
0.338975
0.348119
0.35912
0.371994
0.386755
0.403422
0.422012
0.44254
0.465023
0.489475
0.515907
0.544325
0.574732
0.607124
0.641489
0.677806
0.716045
0.756161
0.798099
0.841787
0.887135
0.934037
0.982366
1.03197
1.08269
1.13432
1.18664
1.23942
1.29239
1.34525
1.39769
1.44939
1.49999
1.54913
1.59643
1.64151
1.684
1.72353
1.75971
1.79223
1.82075
1.84498
1.86469
1.87966
1.88973
1.89479
0.34038
0.34233
0.346232
0.352094
0.359925
0.369739
0.38155
0.395376
0.411236
0.429152
0.449144
0.471235
0.495445
0.521793
0.550295
0.580964
0.613808
0.648827
0.686015
0.725356
0.766822
0.810374
0.855957
0.903499
0.952912
1.00408
1.05688
1.11116
1.16672
1.22336
1.28086
1.33893
1.3973
1.45564
1.5136
1.57082
1.62691
1.68145
1.73402
1.7842
1.83154
1.87562
1.91603
1.95237
1.98428
2.01141
2.03348
2.05026
2.06154
2.06722
0.359057
0.361137
0.3653
0.371554
0.379912
0.390388
0.403
0.41777
0.434721
0.453877
0.475267
0.498915
0.52485
0.553096
0.583675
0.616608
0.651909
0.689584
0.729635
0.77205
0.816809
0.863876
0.9132
0.964712
1.01832
1.07392
1.13138
1.19052
1.25116
1.31308
1.37603
1.43972
1.50383
1.56802
1.63189
1.69505
1.75705
1.81744
1.87573
1.93144
1.98408
2.03316
2.0782
2.11874
2.15437
2.1847
2.20938
2.22815
2.24079
2.24715
0.376705
0.378913
0.383332
0.389973
0.398849
0.409978
0.42338
0.439081
0.45711
0.477495
0.500269
0.525466
0.553119
0.583259
0.615918
0.651122
0.688894
0.729249
0.772196
0.817732
0.865844
0.916503
0.969663
1.02526
1.08321
1.1434
1.2057
1.26993
1.3359
1.40337
1.47209
1.54173
1.61196
1.6824
1.75262
1.82217
1.89057
1.95729
2.02181
2.08357
2.14201
2.19657
2.24671
2.2919
2.33165
2.36551
2.3931
2.41408
2.42822
2.43533
0.393241
0.395574
0.400244
0.407263
0.416646
0.428414
0.442592
0.459209
0.478298
0.499894
0.524037
0.550767
0.580123
0.612148
0.64688
0.684356
0.724606
0.767658
0.813529
0.862226
0.913746
0.968068
1.02516
1.08495
1.14738
1.21232
1.27965
1.3492
1.42076
1.49409
1.5689
1.64487
1.72162
1.79876
1.8758
1.95226
2.02759
2.10121
2.17253
2.24091
2.30573
2.36634
2.42211
2.47244
2.51676
2.55456
2.58538
2.60884
2.62465
2.63261
0.408579
0.411034
0.415948
0.423335
0.433212
0.445604
0.460538
0.47805
0.498177
0.520962
0.54645
0.574689
0.605729
0.63962
0.676411
0.716149
0.758877
0.804632
0.853445
0.905335
0.960309
1.01836
1.07946
1.14357
1.2106
1.28047
1.35303
1.42813
1.50555
1.58504
1.6663
1.74899
1.83272
1.91703
2.00142
2.08535
2.16821
2.24936
2.32812
2.40378
2.47563
2.54293
2.60495
2.66101
2.71043
2.75263
2.78707
2.81331
2.83099
2.8399
0.422634
0.425206
0.430356
0.438098
0.448453
0.461448
0.477116
0.495497
0.516634
0.540577
0.56738
0.597098
0.629792
0.665522
0.704348
0.746329
0.791522
0.839977
0.891739
0.946841
1.00531
1.06714
1.13233
1.20085
1.27262
1.34757
1.42557
1.50645
1.59001
1.67599
1.76408
1.85392
1.94509
2.0371
2.12942
2.22144
2.31249
2.40187
2.4888
2.57249
2.65212
2.72684
2.79583
2.85828
2.91342
2.96056
2.99907
3.02843
3.04823
3.05821
0.435319
0.438003
0.443379
0.451461
0.462275
0.47585
0.492224
0.511442
0.533554
0.558619
0.586697
0.617854
0.652162
0.689692
0.730517
0.77471
0.822342
0.87348
0.928184
0.986506
1.04848
1.11414
1.18349
1.2565
1.33314
1.41333
1.49696
1.58386
1.67384
1.76664
1.86195
1.95939
2.05851
2.15881
2.25968
2.36048
2.46047
2.55885
2.65478
2.74734
2.8356
2.9186
2.99537
3.06499
3.12657
3.17927
3.22238
3.25527
3.27748
3.28867
0.446548
0.449339
0.454928
0.463334
0.474583
0.488709
0.505756
0.525773
0.548819
0.57496
0.604265
0.636812
0.672682
0.711961
0.754737
0.801096
0.851127
0.904915
0.962538
1.02407
1.08956
1.15907
1.23262
1.31021
1.39182
1.47739
1.56683
1.65999
1.75668
1.85666
1.95959
2.0651
2.17272
2.2819
2.39202
2.50235
2.6121
2.72037
2.82622
2.92861
3.02648
3.11872
3.20424
3.28193
3.35077
3.40978
3.45811
3.49503
3.51997
3.53253
0.456237
0.459127
0.464917
0.473625
0.485283
0.499928
0.517608
0.53838
0.56231
0.589472
0.619946
0.65382
0.69119
0.732154
0.776815
0.825279
0.877652
0.934037
0.994537
1.05924
1.12824
1.2016
1.27938
1.3616
1.44827
1.53936
1.63478
1.73442
1.83811
1.9456
2.05658
2.17065
2.28734
2.40608
2.52618
2.64688
2.76729
2.88643
3.00324
3.11655
3.22515
3.32777
3.42313
3.50995
3.58703
3.65322
3.7075
3.74901
3.77708
3.79123
0.464302
0.467284
0.473258
0.482247
0.494282
0.509407
0.527676
0.549151
0.573906
0.602025
0.633598
0.668727
0.707519
0.750088
0.796554
0.847043
0.901679
0.96059
1.0239
1.09173
1.16419
1.24139
1.32339
1.41028
1.50207
1.59877
1.70033
1.80667
1.91762
2.03297
2.15242
2.27557
2.40193
2.53092
2.66181
2.79378
2.92586
3.05697
3.18592
3.31139
3.432
3.54629
3.65278
3.74997
3.83644
3.91083
3.97194
4.01873
4.05039
4.06636
0.470664
0.473729
0.47987
0.489112
0.50149
0.517052
0.535857
0.557976
0.583489
0.61249
0.645081
0.681377
0.721498
0.765575
0.813748
0.86616
0.92296
0.9843
1.05033
1.1212
1.19706
1.27803
1.36424
1.45578
1.55273
1.65512
1.76295
1.87617
1.99464
2.11818
2.24652
2.37926
2.51593
2.65591
2.79846
2.94268
3.08753
3.23184
3.37425
3.5133
3.64739
3.77486
3.89398
4.00299
4.1002
4.18402
4.25299
4.30587
4.3417
4.35978
0.475246
0.478384
0.484672
0.494138
0.50682
0.52277
0.542052
0.564746
0.59094
0.620738
0.654253
0.691613
0.732955
0.778427
0.828187
0.8824
0.94124
1.00488
1.07352
1.14732
1.22646
1.31113
1.40147
1.49764
1.59974
1.70786
1.82205
1.94229
2.06851
2.20055
2.33818
2.48104
2.62865
2.7804
2.93552
3.09306
3.25191
3.41076
3.56813
3.72236
3.87165
4.01404
4.14754
4.27008
4.37966
4.47436
4.55243
4.6124
4.65306
4.67361
0.477976
0.481177
0.48759
0.497247
0.510188
0.526471
0.546166
0.569358
0.596147
0.626643
0.660976
0.699284
0.74172
0.788452
0.839657
0.895524
0.956253
1.02205
1.09313
1.16971
1.25201
1.34024
1.43461
1.53531
1.64251
1.75635
1.87693
2.00431
2.13846
2.27929
2.4266
2.58008
2.73928
2.9036
3.07225
3.24426
3.41842
3.59333
3.76735
3.9386
4.10502
4.26438
4.41432
4.55242
4.67629
4.78362
4.87231
4.94054
4.98688
5.0103
0.47879
0.482041
0.488555
0.498366
0.511518
0.528074
0.548108
0.571714
0.598999
0.630086
0.665113
0.704236
0.747624
0.795461
0.847947
0.905296
0.967733
1.0355
1.10884
1.18801
1.27327
1.3649
1.46313
1.56823
1.68042
1.79991
1.92688
2.06144
2.20365
2.35348
2.51081
2.67539
2.84682
3.02452
3.20772
3.39541
3.58634
3.77897
3.97151
4.16187
4.34768
4.52638
4.6952
4.85128
4.99174
5.11381
5.21494
5.2929
5.34591
5.37273
0.477629
0.480916
0.487506
0.497431
0.510741
0.527502
0.547795
0.571721
0.599394
0.63095
0.666537
0.706326
0.750502
0.799268
0.852846
0.911476
0.97541
1.04492
1.12029
1.20183
1.28983
1.38461
1.48649
1.59579
1.7128
1.8378
1.97106
2.11278
2.26311
2.4221
2.58974
2.76585
2.95011
3.142
3.34077
3.54543
3.75467
3.96686
4.18004
4.39186
4.59968
4.80049
4.99107
5.16801
5.32785
5.46724
5.58303
5.6725
5.73343
5.7643
0.474443
0.477752
0.484388
0.494384
0.507795
0.524688
0.545153
0.569296
0.59724
0.62913
0.665127
0.705416
0.750197
0.799695
0.854151
0.913832
0.97902
1.05002
1.12716
1.21077
1.30122
1.39888
1.50413
1.61735
1.73893
1.86923
2.0086
2.15736
2.31577
2.484
2.66214
2.85013
3.04776
3.25461
3.47
3.69295
3.92215
4.1559
4.39205
4.62805
4.86086
5.08704
5.3028
5.50406
5.68667
5.84651
5.97972
6.08289
6.1533
6.189
0.46919
0.472507
0.479157
0.489179
0.502627
0.519575
0.540117
0.564365
0.592452
0.62453
0.660773
0.701379
0.746565
0.796572
0.851668
0.91214
0.978303
1.0505
1.12908
1.21445
1.30701
1.4072
1.51546
1.63225
1.75805
1.89333
2.03854
2.19412
2.36046
2.53787
2.72659
2.92671
3.13817
3.36068
3.59368
3.83627
4.08716
4.34461
4.60635
4.86956
5.13083
5.3862
5.6312
5.86098
6.07048
6.25463
6.40866
6.5283
6.61011
6.65164
0.46184
0.465147
0.47178
0.481777
0.495197
0.512117
0.532635
0.556868
0.584959
0.617067
0.653378
0.694102
0.739471
0.789747
0.845214
0.906188
0.973014
1.04606
1.12574
1.21248
1.30675
1.40904
1.51988
1.63981
1.7694
1.90922
2.05987
2.22191
2.39588
2.58227
2.78151
2.99386
3.21946
3.45822
3.70975
3.97329
4.24765
4.53109
4.82126
5.1151
5.40881
5.69785
5.97696
6.24034
6.48179
6.69507
6.87418
7.01374
7.1094
7.15802
0.452374
0.455654
0.462235
0.472156
0.485477
0.502279
0.522665
0.546758
0.574704
0.606673
0.642861
0.683488
0.728802
0.77908
0.834628
0.895785
0.962924
1.03645
1.11681
1.20449
1.3
1.4039
1.5168
1.63933
1.77215
1.91598
2.07152
2.2395
2.42065
2.61565
2.82513
3.04962
3.28949
3.54491
3.81573
4.10145
4.40103
4.71285
5.03453
5.36282
5.69354
6.02151
6.34057
6.64373
6.92341
7.17181
7.38136
7.54525
7.65785
7.71518
0.440784
0.44402
0.450512
0.460302
0.473451
0.490043
0.510184
0.534001
0.561647
0.593299
0.629159
0.66946
0.714461
0.764455
0.819768
0.880759
0.947829
1.02142
1.102
1.19012
1.28634
1.39129
1.50564
1.63012
1.76552
1.91265
2.07239
2.24562
2.43329
2.63629
2.85552
3.09179
3.3458
3.61804
3.90872
4.21765
4.54412
4.88671
5.24314
5.61009
5.98303
6.3561
6.72211
7.07264
7.39836
7.68946
7.9363
8.13011
8.26365
8.33175
0.427078
0.430251
0.436617
0.446219
0.459119
0.475404
0.495182
0.518583
0.545766
0.576911
0.61223
0.651961
0.696378
0.745783
0.80052
0.860969
0.927554
1.00074
1.08106
1.16906
1.26539
1.37073
1.48584
1.61154
1.7487
1.8983
2.06136
2.23896
2.43225
2.64239
2.87058
3.11798
3.38565
3.67452
3.98526
4.31816
4.67294
5.04861
5.44315
5.85331
6.27433
6.6997
7.12109
7.52835
7.90992
8.25337
8.54628
8.77727
8.93689
9.01845
0.411276
0.414367
0.420568
0.429923
0.442497
0.458375
0.477667
0.500508
0.527057
0.557501
0.592053
0.630962
0.674506
0.723002
0.776803
0.836309
0.901962
0.974258
1.05375
1.14104
1.23682
1.34183
1.4569
1.58294
1.72094
1.87201
2.03733
2.21819
2.41595
2.63208
2.8681
3.12557
3.406
3.71087
4.04141
4.39855
4.78268
5.19344
5.62936
6.08752
6.56313
7.04917
7.53608
8.01167
8.46153
8.86973
9.22011
9.49771
9.69015
9.78864
0.393414
0.396402
0.4024
0.411449
0.423615
0.438985
0.457668
0.4798
0.505541
0.535081
0.568637
0.606459
0.648833
0.696082
0.748571
0.806709
0.870957
0.941833
1.01991
1.10584
1.20034
1.30422
1.41836
1.54377
1.68155
1.83293
1.99925
2.18201
2.38281
2.60344
2.84576
3.11178
3.40357
3.72318
4.07262
4.45363
4.86752
5.31486
5.79509
6.30603
6.84329
7.39959
7.96418
8.52255
9.05663
9.54576
9.96857
10.3052
10.5392
10.6592
0.373542
0.376409
0.382163
0.390846
0.402524
0.417282
0.43523
0.456503
0.48126
0.509691
0.542014
0.57848
0.619378
0.665034
0.715818
0.772148
0.834496
0.903394
0.97944
1.06331
1.15575
1.25762
1.36987
1.49357
1.62992
1.78028
1.94615
2.1292
2.33132
2.55457
2.80122
3.07376
3.37484
3.70725
4.07386
4.47745
4.92054
5.40502
5.93176
6.49992
7.10611
7.74341
8.40022
9.05946
9.6984
10.2899
10.805
11.217
11.5041
11.6514
0.351726
0.354452
0.359923
0.368182
0.379291
0.393335
0.410422
0.430684
0.45428
0.481395
0.512247
0.547085
0.586196
0.629905
0.678583
0.732652
0.792588
0.858931
0.932292
1.01336
1.10292
1.20185
1.31115
1.43197
1.56557
1.71343
1.87718
2.05869
2.26007
2.48369
2.73222
3.00864
3.31623
3.6586
4.03962
4.46331
4.93369
5.45448
6.02859
6.65735
7.33943
8.06933
8.83546
9.6183
10.3893
11.1119
11.7462
12.2553
12.6105
12.7927
0.32805
0.330615
0.335765
0.34354
0.354001
0.367229
0.383331
0.402434
0.424692
0.450287
0.479431
0.512368
0.54938
0.590786
0.636956
0.688304
0.745307
0.808504
0.878507
0.956016
1.04182
1.13684
1.24208
1.35875
1.48817
1.63189
1.79169
1.96957
2.16786
2.38921
2.63666
2.91369
3.22422
3.5727
3.9641
4.40388
4.89787
5.45209
6.07223
6.76293
7.52644
8.36053
9.25551
10.1905
11.1301
12.024
12.8141
13.4491
13.8913
14.1177
0.302611
0.304997
0.309787
0.317021
0.326756
0.339071
0.354066
0.371864
0.392613
0.416487
0.44369
0.474458
0.509063
0.547816
0.591073
0.639243
0.69279
0.752244
0.818212
0.891386
0.97256
1.06264
1.16267
1.27386
1.39758
1.53543
1.68926
1.86121
2.05377
2.26984
2.51276
2.78647
3.09551
3.44516
3.84152
4.29156
4.80318
5.38511
6.04667
6.7971
7.64426
8.59222
9.63694
10.7596
11.918
13.0412
14.0387
14.837
15.3893
15.6707
0.275521
0.27771
0.282106
0.288744
0.29768
0.308986
0.322758
0.339111
0.358185
0.380144
0.405181
0.43352
0.465419
0.501175
0.541128
0.585669
0.635244
0.690366
0.751622
0.819686
0.895334
0.979459
1.07309
1.17744
1.29387
1.42402
1.56976
1.73332
1.91728
2.12471
2.35921
2.62508
2.92736
3.2721
3.66644
4.11886
4.63939
5.23975
5.93349
6.73578
7.66256
8.72845
9.94174
11.2941
12.7425
14.1853
15.4637
16.4722
17.1597
17.5064
0.246909
0.248885
0.252852
0.258843
0.26691
0.277119
0.289558
0.304333
0.321575
0.341435
0.364092
0.389754
0.418662
0.451093
0.487364
0.527842
0.572949
0.623166
0.67905
0.741244
0.810488
0.887641
0.9737
1.06983
1.17738
1.29795
1.43342
1.58599
1.75831
1.95351
2.17533
2.42829
2.71782
3.05051
3.43436
3.87916
4.39686
5.00213
5.71292
6.5511
7.54291
8.71845
10.1086
11.7339
13.5738
15.495
17.1599
18.4297
19.272
19.6899
0.216917
0.218664
0.222171
0.227468
0.234601
0.24363
0.254635
0.267711
0.282974
0.300565
0.320643
0.343398
0.369047
0.397845
0.430079
0.466087
0.506253
0.551022
0.600907
0.656503
0.7185
0.787697
0.865033
0.951602
1.04869
1.15783
1.28081
1.4198
1.57735
1.75658
1.96123
2.19586
2.46606
2.7787
3.14231
3.56754
4.06777
4.65999
5.36595
6.21383
7.24054
8.4949
10.0413
11.9601
14.3249
17.062
19.2524
20.8155
21.8099
22.2923
0.1857
0.187203
0.190223
0.194784
0.200925
0.2087
0.218178
0.229443
0.242598
0.257763
0.275081
0.294718
0.316867
0.341749
0.369623
0.400785
0.435577
0.474395
0.517699
0.56602
0.619979
0.680299
0.747827
0.823563
0.908685
1.00459
1.11296
1.23579
1.37549
1.53502
1.71794
1.92867
2.17267
2.45675
2.78949
3.18177
3.64755
4.20498
4.87795
5.69862
6.71141
7.98021
9.60258
11.7413
14.7045
19.1766
21.9733
23.7709
24.8608
25.3781
0.153423
0.154672
0.157181
0.160968
0.166067
0.172522
0.180393
0.18975
0.200679
0.213283
0.227682
0.244016
0.262448
0.283167
0.306392
0.332374
0.361405
0.393824
0.430024
0.470461
0.515669
0.566273
0.623008
0.686742
0.758505
0.839527
0.931281
1.03555
1.15448
1.29073
1.44753
1.62891
1.83991
2.08687
2.37785
2.72322
3.13643
3.63517
4.24302
4.99206
5.92704
7.11272
8.64825
10.6989
13.5758
17.9676
20.6938
22.4348
23.4851
23.9821
0.120263
0.121248
0.123227
0.126209
0.130223
0.135304
0.141499
0.148865
0.157471
0.167399
0.178743
0.191617
0.206151
0.222495
0.240824
0.261342
0.284282
0.309917
0.338564
0.370592
0.406434
0.446596
0.491678
0.542389
0.599574
0.664244
0.737617
0.82117
0.916703
1.02643
1.15309
1.3001
1.47176
1.67354
1.91242
2.19744
2.5404
2.95685
3.46751
4.10019
4.89259
5.89602
7.17951
8.83067
10.933
13.4249
15.4002
16.7902
17.6635
18.0835
0.086405
0.0871157
0.0885512
0.090704
0.0935977
0.09726
0.101725
0.107035
0.113239
0.120398
0.12858
0.137869
0.148357
0.160156
0.173394
0.188218
0.204801
0.223342
0.244073
0.267266
0.293239
0.322368
0.355095
0.391945
0.433547
0.480654
0.534177
0.595224
0.665149
0.745626
0.838733
0.947077
1.07395
1.22356
1.4013
1.61417
1.87134
2.18481
2.57045
3.04907
3.64763
4.39974
5.34357
6.51182
7.90107
9.3994
10.6924
11.6627
12.2955
12.6056
0.0520408
0.0524564
0.053325
0.0546258
0.0563729
0.0585835
0.0612788
0.064484
0.0682297
0.072552
0.0774932
0.0831031
0.0894394
0.0965692
0.10457
0.113533
0.123562
0.134779
0.147326
0.16137
0.177106
0.194762
0.214612
0.236978
0.262247
0.290885
0.323455
0.360643
0.403292
0.452443
0.509396
0.575784
0.653675
0.745715
0.855314
0.986896
1.14624
1.34089
1.5807
1.8783
2.24939
2.71202
3.28353
3.97225
4.76037
5.57948
6.30758
6.87287
7.25056
7.43814
0.0173784
0.0175086
0.0177966
0.0182311
0.0188152
0.0195542
0.0204553
0.0215269
0.0227792
0.0242244
0.0258766
0.0277527
0.0298719
0.0322567
0.0349333
0.0379321
0.0412882
0.0450426
0.0492431
0.0539456
0.0592159
0.0651313
0.0717836
0.0792818
0.0877567
0.0973656
0.108299
0.12079
0.135123
0.151654
0.170823
0.193186
0.21945
0.250518
0.287555
0.332072
0.386042
0.452035
0.533375
0.634275
0.759834
0.915644
1.10651
1.3335
1.58891
1.85082
2.08583
2.2709
2.39596
2.45848
)
;

boundaryField
{
    walls
    {
        type            calculated;
        value           nonuniform List<scalar> 
200
(
0
0
0
0
0
0
0
0
0
0
0
0
0
0
0
0
0
0
0
0
0
0
0
0
0
0
0
0
0
0
0
0
0
0
0
0
0
0
0
0
0
0
0
0
0
0
0
0
0
0
0.0127645
0.0382395
0.0636298
0.0889054
0.113985
0.138811
0.163325
0.187465
0.211168
0.234369
0.257
0.27899
0.300268
0.320757
0.34038
0.359057
0.376705
0.393241
0.408579
0.422634
0.435319
0.446548
0.456237
0.464302
0.470664
0.475246
0.477976
0.47879
0.477629
0.474443
0.46919
0.46184
0.452374
0.440784
0.427078
0.411276
0.393414
0.373542
0.351726
0.32805
0.302611
0.275521
0.246909
0.216917
0.1857
0.153423
0.120263
0.086405
0.0520408
0.0173784
0.0633827
0.190352
0.317956
0.44664
0.576841
0.709004
0.843581
0.98104
1.12186
1.26655
1.41562
1.56962
1.72914
1.89479
2.06722
2.24715
2.43533
2.63261
2.8399
3.05821
3.28867
3.53253
3.79123
4.06636
4.35978
4.67361
5.0103
5.37273
5.7643
6.189
6.65164
7.15802
7.71518
8.33175
9.01845
9.78864
10.6592
11.6514
12.7927
14.1177
15.6707
17.5064
19.6899
22.2923
25.3781
23.9821
18.0835
12.6056
7.43814
2.45848
0
0
0
0
0
0
0
0
0
0
0
0
0
0
0
0
0
0
0
0
0
0
0
0
0
0
0
0
0
0
0
0
0
0
0
0
0
0
0
0
0
0
0
0
0
0
0
0
0
0
)
;
    }
    frontAndBack
    {
        type            empty;
    }
}


// ************************************************************************* //
