/*--------------------------------*- C++ -*----------------------------------*\
| =========                 |                                                 |
| \\      /  F ield         | OpenFOAM: The Open Source CFD Toolbox           |
|  \\    /   O peration     | Version:  2406                                  |
|   \\  /    A nd           | Website:  www.openfoam.com                      |
|    \\/     M anipulation  |                                                 |
\*---------------------------------------------------------------------------*/
FoamFile
{
    version     2.0;
    format      ascii;
    arch        "LSB;label=32;scalar=64";
    class       volScalarField;
    location    "2.15";
    object      T;
}
// * * * * * * * * * * * * * * * * * * * * * * * * * * * * * * * * * * * * * //

dimensions      [0 0 0 1 0 0 0];

internalField   nonuniform List<scalar> 
2500
(
0.343954
0.344465
0.345484
0.34701
0.34904
0.351569
0.354592
0.358102
0.362091
0.366549
0.371466
0.376829
0.382625
0.38884
0.395456
0.402455
0.409818
0.417523
0.425547
0.433866
0.442453
0.451279
0.460315
0.469528
0.478887
0.488355
0.497897
0.507474
0.517048
0.526579
0.536026
0.545347
0.5545
0.563442
0.572131
0.580525
0.588582
0.596261
0.603524
0.610331
0.616646
0.622435
0.627667
0.632311
0.636343
0.639739
0.64248
0.64455
0.645936
0.646631
0.344465
0.344978
0.346002
0.347537
0.349577
0.35212
0.355159
0.358688
0.362698
0.367181
0.372124
0.377517
0.383346
0.389595
0.396249
0.403289
0.410694
0.418445
0.426517
0.434886
0.443526
0.452407
0.461499
0.470772
0.480191
0.489721
0.499326
0.508968
0.518608
0.528205
0.537718
0.547105
0.556324
0.565331
0.574084
0.582541
0.590659
0.598397
0.605715
0.612575
0.61894
0.624775
0.630048
0.63473
0.638795
0.642219
0.644982
0.647069
0.648466
0.649167
0.345484
0.346002
0.347037
0.348588
0.35065
0.35322
0.356291
0.359858
0.363911
0.368442
0.37344
0.378892
0.384785
0.391105
0.397834
0.404954
0.412446
0.420287
0.428456
0.436925
0.44567
0.45466
0.463867
0.473257
0.482797
0.492452
0.502184
0.511955
0.521726
0.531456
0.541102
0.550622
0.559973
0.569111
0.577994
0.586576
0.594816
0.602672
0.610103
0.617069
0.623533
0.62946
0.634818
0.639575
0.643704
0.647183
0.649992
0.652113
0.653534
0.654246
0.34701
0.347537
0.348588
0.350162
0.352257
0.354867
0.357987
0.36161
0.365728
0.370332
0.37541
0.380952
0.386942
0.393367
0.400209
0.407451
0.415072
0.42305
0.431362
0.439983
0.448886
0.458042
0.467419
0.476987
0.486709
0.496551
0.506475
0.516441
0.526409
0.536338
0.546185
0.555905
0.565456
0.574792
0.583868
0.59264
0.601065
0.609098
0.616699
0.623826
0.63044
0.636507
0.64199
0.64686
0.651089
0.654652
0.657528
0.6597
0.661156
0.661885
0.34904
0.349577
0.35065
0.352257
0.354395
0.357058
0.360243
0.363942
0.368146
0.372847
0.378034
0.383694
0.389815
0.39638
0.403374
0.410777
0.41857
0.426731
0.435236
0.444059
0.453174
0.46255
0.472157
0.481962
0.491929
0.502021
0.512201
0.522429
0.532662
0.542858
0.552974
0.562964
0.572782
0.582383
0.59172
0.600747
0.60942
0.617692
0.625521
0.632864
0.639681
0.645934
0.651588
0.65661
0.660972
0.664647
0.667615
0.669856
0.671359
0.672111
0.351569
0.35212
0.35322
0.354867
0.357058
0.35979
0.363055
0.366848
0.371161
0.375983
0.381306
0.387115
0.393398
0.40014
0.407323
0.414929
0.422938
0.431328
0.440075
0.449152
0.458533
0.468186
0.478081
0.488183
0.498457
0.508865
0.519368
0.529924
0.540491
0.551024
0.561479
0.571807
0.581963
0.591899
0.601565
0.610915
0.6199
0.628474
0.636591
0.644208
0.651281
0.65777
0.66364
0.668855
0.673385
0.677203
0.680286
0.682615
0.684176
0.684959
0.354592
0.355159
0.356291
0.357987
0.360243
0.363055
0.366418
0.370325
0.374767
0.379736
0.385221
0.391209
0.397688
0.404641
0.412053
0.419903
0.428173
0.436838
0.445876
0.45526
0.464961
0.474949
0.485191
0.495653
0.506298
0.517087
0.52798
0.538934
0.549905
0.560846
0.571711
0.582451
0.593016
0.603357
0.613423
0.623165
0.63253
0.641471
0.649939
0.657888
0.665273
0.672051
0.678183
0.683633
0.688368
0.69236
0.695584
0.69802
0.699653
0.700471
0.358102
0.358688
0.359858
0.36161
0.363942
0.366848
0.370325
0.374364
0.378958
0.384098
0.389773
0.395971
0.402678
0.409879
0.417558
0.425694
0.434269
0.443258
0.452637
0.46238
0.472457
0.482837
0.493488
0.504373
0.515454
0.526692
0.538044
0.549466
0.560912
0.572335
0.583684
0.594909
0.605959
0.61678
0.627319
0.637523
0.647339
0.656715
0.665599
0.673942
0.681697
0.688817
0.695261
0.70099
0.705969
0.710168
0.713559
0.716123
0.717841
0.718702
0.362091
0.362698
0.363911
0.365728
0.368146
0.371161
0.374767
0.378958
0.383726
0.389061
0.394954
0.401392
0.408362
0.415847
0.423832
0.432297
0.441221
0.450581
0.460352
0.470508
0.481018
0.49185
0.502971
0.514343
0.525927
0.537682
0.549564
0.561528
0.573524
0.585504
0.597414
0.609202
0.620812
0.63219
0.643278
0.654021
0.664361
0.674242
0.683611
0.692413
0.700599
0.708118
0.714926
0.720981
0.726245
0.730685
0.734272
0.736984
0.738802
0.739713
0.366549
0.367181
0.368442
0.370332
0.372847
0.375983
0.379736
0.384098
0.389061
0.394618
0.400756
0.407465
0.41473
0.422536
0.430867
0.439702
0.449022
0.458802
0.469018
0.47964
0.490641
0.501985
0.513639
0.525564
0.53772
0.550064
0.562549
0.575129
0.587753
0.600367
0.612918
0.625349
0.637601
0.649615
0.661333
0.672692
0.683633
0.694095
0.70402
0.713351
0.722032
0.73001
0.737238
0.743668
0.74926
0.753978
0.757791
0.760674
0.762607
0.763576
0.371466
0.372124
0.37344
0.37541
0.378034
0.381306
0.385221
0.389773
0.394954
0.400756
0.407168
0.414178
0.421773
0.429937
0.438653
0.447903
0.457664
0.467913
0.478625
0.489771
0.501321
0.513239
0.525491
0.538037
0.550835
0.56384
0.577005
0.590279
0.60361
0.616941
0.630215
0.643372
0.65635
0.669086
0.681516
0.693575
0.705198
0.716321
0.726879
0.736811
0.746056
0.754558
0.762264
0.769122
0.775089
0.780125
0.784196
0.787275
0.78934
0.790375
0.376829
0.377517
0.378892
0.380952
0.383694
0.387115
0.391209
0.395971
0.401392
0.407465
0.414178
0.421521
0.429479
0.438038
0.447181
0.456888
0.467137
0.477906
0.489168
0.500894
0.513052
0.525608
0.538524
0.551761
0.565273
0.579016
0.592938
0.606987
0.621107
0.63524
0.649324
0.663295
0.677088
0.690635
0.703867
0.716713
0.729105
0.740972
0.752244
0.762855
0.772739
0.781833
0.79008
0.797424
0.803816
0.809212
0.813576
0.816877
0.819091
0.820201
0.382625
0.383346
0.384785
0.386942
0.389815
0.393398
0.397688
0.402678
0.408362
0.41473
0.421773
0.429479
0.437835
0.446827
0.456436
0.466645
0.47743
0.488769
0.500635
0.512999
0.525827
0.539085
0.552734
0.566733
0.581035
0.595593
0.610353
0.625261
0.640258
0.655282
0.670266
0.685144
0.699845
0.714296
0.728423
0.742151
0.755404
0.768105
0.780179
0.791552
0.802154
0.811915
0.820771
0.828661
0.835533
0.841336
0.846031
0.849582
0.851965
0.85316
0.38884
0.389595
0.391105
0.393367
0.39638
0.40014
0.404641
0.409879
0.415847
0.422536
0.429937
0.438038
0.446827
0.456288
0.466406
0.47716
0.48853
0.500491
0.513016
0.526075
0.539637
0.553663
0.568115
0.582949
0.598119
0.613572
0.629256
0.64511
0.661074
0.677081
0.693062
0.708944
0.724652
0.740107
0.75523
0.769938
0.78415
0.797782
0.810751
0.822978
0.834383
0.844891
0.85443
0.862934
0.870344
0.876604
0.88167
0.885504
0.888077
0.889367
0.395456
0.396249
0.397834
0.400209
0.403374
0.407323
0.412053
0.417558
0.423832
0.430867
0.438653
0.447181
0.456436
0.466406
0.477073
0.488418
0.50042
0.513054
0.526295
0.540111
0.554469
0.569332
0.584658
0.600404
0.61652
0.632954
0.649648
0.66654
0.683566
0.700654
0.717732
0.734721
0.75154
0.768106
0.784331
0.800127
0.815403
0.83007
0.844036
0.857213
0.869514
0.880856
0.891159
0.900351
0.908362
0.915135
0.920618
0.924768
0.927554
0.928951
0.402455
0.403289
0.404954
0.407451
0.410777
0.414929
0.419903
0.425694
0.432297
0.439702
0.447903
0.456888
0.466645
0.47716
0.488418
0.500399
0.513082
0.526444
0.540456
0.55509
0.570309
0.586078
0.602353
0.619089
0.636235
0.653736
0.671531
0.689557
0.707743
0.726016
0.744296
0.762501
0.780544
0.798333
0.815774
0.832771
0.849226
0.86504
0.880112
0.894346
0.907644
0.919915
0.931071
0.941029
0.949715
0.957061
0.96301
0.967514
0.970538
0.972056
0.409818
0.410694
0.412446
0.415072
0.41857
0.422938
0.428173
0.434269
0.441221
0.449022
0.457664
0.467137
0.47743
0.48853
0.50042
0.513082
0.526496
0.540638
0.55548
0.570993
0.587141
0.603887
0.621186
0.638993
0.657253
0.675911
0.694903
0.714161
0.733612
0.753178
0.772773
0.79231
0.811694
0.830827
0.849607
0.867929
0.885685
0.902767
0.919065
0.934471
0.948877
0.962182
0.974287
0.9851
0.994537
1.00252
1.00899
1.01389
1.01719
1.01884
0.417523
0.418445
0.420287
0.42305
0.426731
0.431328
0.436838
0.443258
0.450581
0.458802
0.467913
0.477906
0.488769
0.500491
0.513054
0.526444
0.540638
0.555614
0.571344
0.587799
0.604943
0.622738
0.64114
0.6601
0.679563
0.699472
0.719759
0.740354
0.761179
0.78215
0.80318
0.82417
0.845022
0.865628
0.885879
0.905658
0.924849
0.943331
0.960985
0.977689
0.993325
1.00778
1.02094
1.03271
1.04298
1.05168
1.05873
1.06408
1.06767
1.06947
0.425547
0.426517
0.428456
0.431362
0.435236
0.440075
0.445876
0.452637
0.460352
0.469018
0.478625
0.489168
0.500635
0.513016
0.526295
0.540456
0.55548
0.571344
0.588021
0.605482
0.623691
0.642609
0.662193
0.682391
0.703149
0.724404
0.746089
0.768129
0.790443
0.812941
0.835529
0.858104
0.880559
0.902777
0.924639
0.946019
0.966789
0.986816
1.00597
1.02411
1.04111
1.05684
1.07117
1.084
1.09521
1.10471
1.11241
1.11825
1.12217
1.12414
0.433866
0.434886
0.436925
0.439983
0.444059
0.449152
0.45526
0.46238
0.470508
0.47964
0.489771
0.500894
0.512999
0.526075
0.540111
0.55509
0.570993
0.587799
0.605482
0.624012
0.643356
0.663473
0.684318
0.705842
0.727988
0.75069
0.77388
0.797479
0.821401
0.845552
0.869831
0.89413
0.918331
0.94231
0.965936
0.989072
1.01158
1.03331
1.05411
1.07384
1.09235
1.1095
1.12514
1.13915
1.1514
1.16179
1.17022
1.17661
1.18091
1.18306
0.442453
0.443526
0.44567
0.448886
0.453174
0.458533
0.464961
0.472457
0.481018
0.490641
0.501321
0.513052
0.525827
0.539637
0.554469
0.570309
0.587141
0.604943
0.623691
0.643356
0.663903
0.685295
0.707486
0.730425
0.754053
0.778307
0.803112
0.828387
0.854043
0.87998
0.906092
0.932261
0.958362
0.984261
1.00982
1.03488
1.05929
1.08289
1.10552
1.12701
1.14719
1.16591
1.183
1.19833
1.21174
1.22313
1.23237
1.23939
1.2441
1.24647
0.451279
0.452407
0.45466
0.458042
0.46255
0.468186
0.474949
0.482837
0.49185
0.501985
0.513239
0.525608
0.539085
0.553663
0.569332
0.586078
0.603887
0.622738
0.642609
0.663473
0.685295
0.708038
0.731658
0.756102
0.781313
0.807224
0.833758
0.860833
0.888354
0.916218
0.94431
0.972506
1.00067
1.02866
1.05632
1.08349
1.11
1.13566
1.1603
1.18373
1.20577
1.22624
1.24495
1.26175
1.27646
1.28896
1.29911
1.30682
1.31201
1.31461
0.460315
0.461499
0.463867
0.467419
0.472157
0.478081
0.485191
0.493488
0.502971
0.513639
0.525491
0.538524
0.552734
0.568115
0.584658
0.602353
0.621186
0.64114
0.662193
0.684318
0.707486
0.731658
0.756791
0.782833
0.809726
0.837403
0.865785
0.894787
0.92431
0.954247
0.984476
1.01487
1.04527
1.07554
1.1055
1.13497
1.16377
1.19171
1.21857
1.24415
1.26825
1.29066
1.31117
1.32961
1.34578
1.35952
1.3707
1.37919
1.3849
1.38777
0.469528
0.470772
0.473257
0.476987
0.481962
0.488183
0.495653
0.504373
0.514343
0.525564
0.538037
0.551761
0.566733
0.582949
0.600404
0.619089
0.638993
0.6601
0.682391
0.705842
0.730425
0.756102
0.782833
0.810567
0.839244
0.868798
0.89915
0.93021
0.961879
0.994042
1.02657
1.05933
1.09217
1.1249
1.15737
1.18937
1.22069
1.25112
1.28043
1.3084
1.33478
1.35935
1.38188
1.40214
1.41994
1.43509
1.44741
1.45678
1.46309
1.46626
0.478887
0.480191
0.482797
0.486709
0.491929
0.498457
0.506298
0.515454
0.525927
0.53772
0.550835
0.565273
0.581035
0.598119
0.61652
0.636235
0.657253
0.679563
0.703149
0.727988
0.754053
0.781313
0.809726
0.839244
0.869809
0.901353
0.933799
0.967054
1.00102
1.03557
1.07057
1.10589
1.14135
1.17677
1.21197
1.24672
1.28081
1.31398
1.346
1.37661
1.40553
1.43251
1.45729
1.47961
1.49923
1.51595
1.52957
1.53994
1.54692
1.55043
0.488355
0.489721
0.492452
0.496551
0.502021
0.508865
0.517087
0.526692
0.537682
0.550064
0.56384
0.579016
0.595593
0.613572
0.632954
0.653736
0.675911
0.699472
0.724404
0.75069
0.778307
0.807224
0.837403
0.868798
0.901353
0.935003
0.969668
1.00526
1.04166
1.07877
1.11643
1.1545
1.1928
1.23114
1.26931
1.30707
1.34419
1.38039
1.4154
1.44893
1.48068
1.51034
1.53764
1.56226
1.58395
1.60245
1.61753
1.62902
1.63676
1.64065
0.497897
0.499326
0.502184
0.506475
0.512201
0.519368
0.52798
0.538044
0.549564
0.562549
0.577005
0.592938
0.610353
0.629256
0.649648
0.671531
0.694903
0.719759
0.746089
0.77388
0.803112
0.833758
0.865785
0.89915
0.933799
0.969668
1.00668
1.04475
1.08376
1.12359
1.1641
1.20513
1.24649
1.28799
1.32939
1.37044
1.41088
1.45041
1.48873
1.5255
1.5604
1.59307
1.62319
1.65041
1.67442
1.69493
1.71167
1.72443
1.73304
1.73737
0.507474
0.508968
0.511955
0.516441
0.522429
0.529924
0.538934
0.549466
0.561528
0.575129
0.590279
0.606987
0.625261
0.64511
0.66654
0.689557
0.714161
0.740354
0.768129
0.797479
0.828387
0.860833
0.894787
0.93021
0.967054
1.00526
1.04475
1.08543
1.1272
1.16994
1.2135
1.25771
1.30237
1.34729
1.3922
1.43684
1.48093
1.52412
1.56609
1.60647
1.64488
1.68092
1.71421
1.74436
1.771
1.79379
1.81242
1.82664
1.83623
1.84106
0.517048
0.518608
0.521726
0.526409
0.532662
0.540491
0.549905
0.560912
0.573524
0.587753
0.60361
0.621107
0.640258
0.661074
0.683566
0.707743
0.733612
0.761179
0.790443
0.821401
0.854043
0.888354
0.92431
0.961879
1.00102
1.04166
1.08376
1.1272
1.1719
1.21773
1.26453
1.31215
1.36037
1.40897
1.4577
1.50626
1.55434
1.60157
1.64759
1.69198
1.7343
1.77413
1.81099
1.84446
1.87409
1.89948
1.92027
1.93615
1.94687
1.95228
0.526579
0.528205
0.531456
0.536338
0.542858
0.551024
0.560846
0.572335
0.585504
0.600367
0.616941
0.63524
0.655282
0.677081
0.700654
0.726016
0.753178
0.78215
0.812941
0.845552
0.87998
0.916218
0.954247
0.994042
1.03557
1.07877
1.12359
1.16994
1.21773
1.26682
1.31709
1.36834
1.42038
1.47297
1.52583
1.57866
1.63111
1.6828
1.7333
1.78215
1.82886
1.87294
1.91385
1.95108
1.98412
2.01248
2.03574
2.05354
2.06557
2.07164
0.536026
0.537718
0.541102
0.546185
0.552974
0.561479
0.571711
0.583684
0.597414
0.612918
0.630215
0.649324
0.670266
0.693062
0.717732
0.744296
0.772773
0.80318
0.835529
0.869831
0.906092
0.94431
0.984476
1.02657
1.07057
1.11643
1.1641
1.2135
1.26453
1.31709
1.37102
1.42615
1.48228
1.53916
1.5965
1.65398
1.71122
1.76781
1.82327
1.8771
1.92874
1.97761
2.02311
2.06462
2.10156
2.13334
2.15946
2.17946
2.19301
2.19984
0.545347
0.547105
0.550622
0.555905
0.562964
0.571807
0.582451
0.594909
0.609202
0.625349
0.643372
0.663295
0.685144
0.708944
0.734721
0.762501
0.79231
0.82417
0.858104
0.89413
0.932261
0.972506
1.01487
1.05933
1.10589
1.1545
1.20513
1.25771
1.31215
1.36834
1.42615
1.48541
1.5459
1.60739
1.66958
1.73211
1.7946
1.85658
1.91755
1.97693
2.0341
2.08839
2.1391
2.18552
2.22693
2.26267
2.29209
2.31467
2.32997
2.3377
0.5545
0.556324
0.559973
0.565456
0.572782
0.581963
0.593016
0.605959
0.620812
0.637601
0.65635
0.677088
0.699845
0.724652
0.75154
0.780544
0.811694
0.845022
0.880559
0.918331
0.958362
1.00067
1.04527
1.09217
1.14135
1.1928
1.24649
1.30237
1.36037
1.42038
1.48228
1.5459
1.61106
1.67748
1.74489
1.81291
1.88113
1.94905
2.01612
2.0817
2.14509
2.20552
2.26219
2.31424
2.36083
2.40114
2.43442
2.46001
2.47738
2.48616
0.563442
0.565331
0.569111
0.574792
0.582383
0.591899
0.603357
0.61678
0.63219
0.649615
0.669086
0.690635
0.714296
0.740107
0.768106
0.798333
0.830827
0.865628
0.902777
0.94231
0.984261
1.02866
1.07554
1.1249
1.17677
1.23114
1.28799
1.34729
1.40897
1.47297
1.53916
1.60739
1.67748
1.74919
1.82221
1.89617
1.97064
2.0451
2.11893
2.19144
2.26184
2.32925
2.39272
2.45127
2.50387
2.54954
2.58735
2.61648
2.63629
2.64631
0.572131
0.574084
0.577994
0.583868
0.59172
0.601565
0.613423
0.627319
0.643278
0.661333
0.681516
0.703867
0.728423
0.75523
0.784331
0.815774
0.849607
0.885879
0.924639
0.965936
1.00982
1.05632
1.1055
1.15737
1.21197
1.26931
1.32939
1.3922
1.4577
1.52583
1.5965
1.66958
1.74489
1.82221
1.90124
1.98162
2.06289
2.14452
2.22585
2.30611
2.38441
2.45977
2.53107
2.59714
2.65676
2.70872
2.75188
2.78522
2.80793
2.81943
0.580525
0.582541
0.586576
0.59264
0.600747
0.610915
0.623165
0.637523
0.654021
0.672692
0.693575
0.716713
0.742151
0.769938
0.800127
0.832771
0.867929
0.905658
0.946019
0.989072
1.03488
1.08349
1.13497
1.18937
1.24672
1.30707
1.37044
1.43684
1.50626
1.57866
1.65398
1.73211
1.81291
1.89617
1.98162
2.0689
2.15756
2.24704
2.33666
2.42557
2.51281
2.59724
2.67757
2.7524
2.82027
2.87967
2.9292
2.96757
2.99376
3.00705
0.588582
0.590659
0.594816
0.601065
0.60942
0.6199
0.63253
0.647339
0.664361
0.683633
0.705198
0.729105
0.755404
0.78415
0.815403
0.849226
0.885685
0.924849
0.966789
1.01158
1.05929
1.11
1.16377
1.22069
1.28081
1.34419
1.41088
1.48093
1.55434
1.63111
1.71122
1.7946
1.88113
1.97064
2.06289
2.15756
2.2542
2.35226
2.45102
2.54961
2.64694
2.74173
2.83251
2.91761
2.99522
3.06351
3.12068
3.16513
3.19553
3.21098
0.596261
0.598397
0.602672
0.609098
0.617692
0.628474
0.641471
0.656715
0.674242
0.694095
0.716321
0.740972
0.768105
0.797782
0.83007
0.86504
0.902767
0.943331
0.986816
1.03331
1.08289
1.13566
1.19171
1.25112
1.31398
1.38039
1.45041
1.52412
1.60157
1.6828
1.76781
1.85658
1.94905
2.0451
2.14452
2.24704
2.35226
2.45964
2.56846
2.67781
2.78654
2.89322
2.99613
3.0933
3.18253
3.2615
3.32794
3.37978
3.41533
3.43341
0.603524
0.605715
0.610103
0.616699
0.625521
0.636591
0.649939
0.665599
0.683611
0.70402
0.726879
0.752244
0.780179
0.810751
0.844036
0.880112
0.919065
0.960985
1.00597
1.05411
1.10552
1.1603
1.21857
1.28043
1.346
1.4154
1.48873
1.56609
1.64759
1.7333
1.82327
1.91755
2.01612
2.11893
2.22585
2.33666
2.45102
2.56846
2.68829
2.8096
2.93118
3.05147
3.16852
3.27999
3.38316
3.4751
3.55288
3.6138
3.6557
3.67703
0.610331
0.612575
0.617069
0.623826
0.632864
0.644208
0.657888
0.673942
0.692413
0.713351
0.736811
0.762855
0.791552
0.822978
0.857213
0.894346
0.934471
0.977689
1.02411
1.07384
1.12701
1.18373
1.24415
1.3084
1.37661
1.44893
1.5255
1.60647
1.69198
1.78215
1.8771
1.97693
2.0817
2.19144
2.30611
2.42557
2.54961
2.67781
2.8096
2.94411
3.08012
3.21599
3.34955
3.47804
3.5981
3.70598
3.79779
3.86999
3.91975
3.94512
0.616646
0.61894
0.623533
0.63044
0.639681
0.651281
0.665273
0.681697
0.700599
0.722032
0.746056
0.772739
0.802154
0.834383
0.869514
0.907644
0.948877
0.993325
1.04111
1.09235
1.14719
1.20577
1.26825
1.33478
1.40553
1.48068
1.5604
1.64488
1.7343
1.82886
1.92874
2.0341
2.14509
2.26184
2.38441
2.51281
2.64694
2.78654
2.93118
3.08012
3.23224
3.38589
3.53874
3.68761
3.82836
3.95606
4.06544
4.15177
4.21135
4.24174
0.622435
0.624775
0.62946
0.636507
0.645934
0.65777
0.672051
0.688817
0.708118
0.73001
0.754558
0.781833
0.811915
0.844891
0.880856
0.919915
0.962182
1.00778
1.05684
1.1095
1.16591
1.22624
1.29066
1.35935
1.43251
1.51034
1.59307
1.68092
1.77413
1.87294
1.97761
2.08839
2.20552
2.32925
2.45977
2.59724
2.74173
2.89322
3.05147
3.21599
3.38589
3.55968
3.73503
3.90842
4.07483
4.22763
4.35933
4.46347
4.53532
4.57195
0.627667
0.630048
0.634818
0.64199
0.651588
0.66364
0.678183
0.695261
0.714926
0.737238
0.762264
0.79008
0.820771
0.85443
0.891159
0.931071
0.974287
1.02094
1.07117
1.12514
1.183
1.24495
1.31117
1.38188
1.45729
1.53764
1.62319
1.71421
1.81099
1.91385
2.02311
2.1391
2.26219
2.39272
2.53107
2.67757
2.83251
2.99613
3.16852
3.34955
3.53874
3.73503
3.93641
4.13937
4.33806
4.52348
4.68399
4.81066
4.89774
4.942
0.632311
0.63473
0.639575
0.64686
0.65661
0.668855
0.683633
0.70099
0.720981
0.743668
0.769122
0.797424
0.828661
0.862934
0.900351
0.941029
0.9851
1.03271
1.084
1.13915
1.19833
1.26175
1.32961
1.40214
1.47961
1.56226
1.65041
1.74436
1.84446
1.95108
2.06462
2.18552
2.31424
2.45127
2.59714
2.7524
2.91761
3.0933
3.27999
3.47804
3.68761
3.90842
4.13937
4.37778
4.61778
4.84743
5.04573
5.20065
5.3062
5.35954
0.636343
0.638795
0.643704
0.651089
0.660972
0.673385
0.688368
0.705969
0.726245
0.74926
0.775089
0.803816
0.835533
0.870344
0.908362
0.949715
0.994537
1.04298
1.09521
1.1514
1.21174
1.27646
1.34578
1.41994
1.49923
1.58395
1.67442
1.771
1.87409
1.98412
2.10156
2.22693
2.36083
2.50387
2.65676
2.82027
2.99522
3.18253
3.38316
3.5981
3.82836
4.07483
4.33806
4.61778
4.91106
5.20596
5.45409
5.64328
5.77013
5.83369
0.639739
0.642219
0.647183
0.654652
0.664647
0.677203
0.69236
0.710168
0.730685
0.753978
0.780125
0.809212
0.841336
0.876604
0.915135
0.957061
1.00252
1.05168
1.10471
1.16179
1.22313
1.28896
1.35952
1.43509
1.51595
1.60245
1.69493
1.79379
1.89948
2.01248
2.13334
2.26267
2.40114
2.54954
2.70872
2.87967
3.06351
3.2615
3.4751
3.70598
3.95606
4.22763
4.52348
4.84743
5.20596
5.61449
5.92466
6.15149
6.30064
6.37467
0.64248
0.644982
0.649992
0.657528
0.667615
0.680286
0.695584
0.713559
0.734272
0.757791
0.784196
0.813576
0.846031
0.88167
0.920618
0.96301
1.00899
1.05873
1.11241
1.17022
1.23237
1.29911
1.3707
1.44741
1.52957
1.61753
1.71167
1.81242
1.92027
2.03574
2.15946
2.29209
2.43442
2.58735
2.75188
2.9292
3.12068
3.32794
3.55288
3.79779
4.06544
4.35933
4.68399
5.04573
5.45409
5.92466
6.28184
6.54067
6.70954
6.79297
0.64455
0.647069
0.652113
0.6597
0.669856
0.682615
0.69802
0.716123
0.736984
0.760674
0.787275
0.816877
0.849582
0.885504
0.924768
0.967514
1.01389
1.06408
1.11825
1.17661
1.23939
1.30682
1.37919
1.45678
1.53994
1.62902
1.72443
1.82664
1.93615
2.05354
2.17946
2.31467
2.46001
2.61648
2.78522
2.96757
3.16513
3.37978
3.6138
3.86999
4.15177
4.46347
4.81066
5.20065
5.64328
6.15149
6.54067
6.8231
7.00718
7.09801
0.645936
0.648466
0.653534
0.661156
0.671359
0.684176
0.699653
0.717841
0.738802
0.762607
0.78934
0.819091
0.851965
0.888077
0.927554
0.970538
1.01719
1.06767
1.12217
1.18091
1.2441
1.31201
1.3849
1.46309
1.54692
1.63676
1.73304
1.83623
1.94687
2.06557
2.19301
2.32997
2.47738
2.63629
2.80793
2.99376
3.19553
3.41533
3.6557
3.91975
4.21135
4.53532
4.89774
5.3062
5.77013
6.30064
6.70954
7.00718
7.20136
7.2972
0.646631
0.649167
0.654246
0.661885
0.672111
0.684959
0.700471
0.718702
0.739713
0.763576
0.790375
0.820201
0.85316
0.889367
0.928951
0.972056
1.01884
1.06947
1.12414
1.18306
1.24647
1.31461
1.38777
1.46626
1.55043
1.64065
1.73737
1.84106
1.95228
2.07164
2.19984
2.3377
2.48616
2.64631
2.81943
3.00705
3.21098
3.43341
3.67703
3.94512
4.24174
4.57195
4.942
5.35954
5.83369
6.37467
6.79297
7.09801
7.2972
7.39554
)
;

boundaryField
{
    walls
    {
        type            zeroGradient;
    }
    frontAndBack
    {
        type            empty;
    }
}


// ************************************************************************* //
