/*--------------------------------*- C++ -*----------------------------------*\
| =========                 |                                                 |
| \\      /  F ield         | OpenFOAM: The Open Source CFD Toolbox           |
|  \\    /   O peration     | Version:  2406                                  |
|   \\  /    A nd           | Website:  www.openfoam.com                      |
|    \\/     M anipulation  |                                                 |
\*---------------------------------------------------------------------------*/
FoamFile
{
    version     2.0;
    format      ascii;
    arch        "LSB;label=32;scalar=64";
    class       volVectorField;
    location    "1.7";
    object      flux;
}
// * * * * * * * * * * * * * * * * * * * * * * * * * * * * * * * * * * * * * //

dimensions      [0 1 -1 1 0 0 0];

internalField   nonuniform List<vector> 
2500
(
(0.000791607 0.000791607 0)
(0.00237202 0.000797136 0)
(0.00394887 0.000808399 0)
(0.00552147 0.000825271 0)
(0.00708586 0.000847787 0)
(0.00863947 0.000875976 0)
(0.0101796 0.000909872 0)
(0.0117033 0.000949507 0)
(0.0132074 0.000994916 0)
(0.0146885 0.00104613 0)
(0.0161428 0.00110319 0)
(0.0175664 0.00116611 0)
(0.0189549 0.00123491 0)
(0.0203037 0.0013096 0)
(0.0216077 0.00139018 0)
(0.0228618 0.0014766 0)
(0.0240602 0.00156884 0)
(0.0251971 0.00166683 0)
(0.0262662 0.00177045 0)
(0.0272613 0.00187958 0)
(0.0281756 0.00199406 0)
(0.0290025 0.00211367 0)
(0.0297352 0.00223818 0)
(0.0303668 0.00236727 0)
(0.0308906 0.00250061 0)
(0.0312999 0.0026378 0)
(0.0315885 0.00277839 0)
(0.0317502 0.00292187 0)
(0.0317795 0.00306768 0)
(0.0316712 0.0032152 0)
(0.0314211 0.00336376 0)
(0.0310253 0.00351264 0)
(0.0304811 0.00366106 0)
(0.0297864 0.0038082 0)
(0.0289406 0.00395322 0)
(0.0279438 0.00409523 0)
(0.0267974 0.00423331 0)
(0.0255041 0.00436655 0)
(0.0240679 0.00449402 0)
(0.0224939 0.00461479 0)
(0.0207887 0.00472796 0)
(0.0189603 0.00483267 0)
(0.0170175 0.0049281 0)
(0.0149707 0.00501346 0)
(0.0128312 0.00508806 0)
(0.0106115 0.00515129 0)
(0.00832458 0.00520264 0)
(0.00598445 0.00524166 0)
(0.00360569 0.00526785 0)
(0.00120426 0.00527982 0)
(0.000797136 0.00237202 0)
(0.00238881 0.00238881 0)
(0.00397701 0.00242255 0)
(0.00556086 0.00247315 0)
(0.00713656 0.0025407 0)
(0.00870156 0.00262528 0)
(0.0102531 0.00272698 0)
(0.0117883 0.00284591 0)
(0.013304 0.00298217 0)
(0.0147968 0.00313587 0)
(0.0162628 0.0033071 0)
(0.0176981 0.00349593 0)
(0.0190984 0.00370243 0)
(0.0204589 0.00392663 0)
(0.0217747 0.00416848 0)
(0.0230405 0.00442794 0)
(0.0242504 0.00470486 0)
(0.0253987 0.00499904 0)
(0.026479 0.00531018 0)
(0.0274849 0.00563789 0)
(0.0284097 0.00598168 0)
(0.0292467 0.00634093 0)
(0.0299888 0.00671489 0)
(0.0306292 0.00710268 0)
(0.0311611 0.00750326 0)
(0.0315777 0.00791544 0)
(0.0318725 0.00833787 0)
(0.0320395 0.00876904 0)
(0.0320728 0.00920724 0)
(0.0319673 0.00965064 0)
(0.0317185 0.0100972 0)
(0.0313226 0.0105448 0)
(0.0307766 0.010991 0)
(0.0300786 0.0114334 0)
(0.0292276 0.0118695 0)
(0.0282239 0.0122966 0)
(0.0270687 0.0127119 0)
(0.0257648 0.0131127 0)
(0.0243161 0.0134961 0)
(0.0227278 0.0138594 0)
(0.0210066 0.0141999 0)
(0.0191604 0.014515 0)
(0.0171983 0.0148021 0)
(0.0151307 0.015059 0)
(0.0129691 0.0152835 0)
(0.0107261 0.0154737 0)
(0.00841495 0.0156282 0)
(0.00604966 0.0157457 0)
(0.00364385 0.0158252 0)
(0.00121624 0.0158636 0)
(0.000808399 0.00394887 0)
(0.00242255 0.00397701 0)
(0.00403322 0.00403322 0)
(0.00563962 0.00411759 0)
(0.00723798 0.00423025 0)
(0.00882575 0.00437133 0)
(0.0104002 0.00454099 0)
(0.0119585 0.00473939 0)
(0.0134974 0.00496672 0)
(0.0150134 0.00522317 0)
(0.0165029 0.00550888 0)
(0.0179617 0.00582401 0)
(0.0193856 0.00616866 0)
(0.0207697 0.00654286 0)
(0.0221091 0.0069466 0)
(0.0233982 0.00737977 0)
(0.0246313 0.00784216 0)
(0.0258024 0.00833343 0)
(0.0269051 0.0088531 0)
(0.0279328 0.00940053 0)
(0.0288787 0.0099749 0)
(0.0297358 0.0105752 0)
(0.030497 0.0112002 0)
(0.0311552 0.0118484 0)
(0.0317034 0.0125181 0)
(0.0321345 0.0132073 0)
(0.0324421 0.0139138 0)
(0.0326196 0.0146351 0)
(0.0326611 0.0153682 0)
(0.0325612 0.0161102 0)
(0.0323152 0.0168576 0)
(0.0319191 0.0176068 0)
(0.0313697 0.018354 0)
(0.030665 0.0190949 0)
(0.0298038 0.0198254 0)
(0.0287862 0.0205408 0)
(0.0276135 0.0212367 0)
(0.0262883 0.0219083 0)
(0.0248146 0.022551 0)
(0.0231977 0.02316 0)
(0.0214443 0.0237309 0)
(0.0195624 0.0242592 0)
(0.0175615 0.0247407 0)
(0.015452 0.0251715 0)
(0.013246 0.025548 0)
(0.0109562 0.0258671 0)
(0.00859658 0.026126 0)
(0.00618146 0.0263228 0)
(0.0037236 0.0264557 0)
(0.00124268 0.0265221 0)
(0.000825271 0.00552147 0)
(0.00247315 0.00556086 0)
(0.00411759 0.00563962 0)
(0.0057579 0.0057579 0)
(0.0073903 0.00591584 0)
(0.00901229 0.00611363 0)
(0.0106212 0.00635151 0)
(0.0122141 0.00662973 0)
(0.0137878 0.00694854 0)
(0.0153389 0.00730822 0)
(0.0168636 0.00770899 0)
(0.0183579 0.00815109 0)
(0.0198173 0.00863466 0)
(0.0212369 0.00915979 0)
(0.0226117 0.00972646 0)
(0.023936 0.0103345 0)
(0.0252041 0.0109838 0)
(0.0264096 0.0116737 0)
(0.0275461 0.0124036 0)
(0.0286067 0.0131727 0)
(0.0295844 0.0139799 0)
(0.030472 0.0148237 0)
(0.031262 0.0157024 0)
(0.0319472 0.016614 0)
(0.0325201 0.017556 0)
(0.0329734 0.0185258 0)
(0.0333003 0.0195202 0)
(0.0334939 0.0205355 0)
(0.0335479 0.021568 0)
(0.0334567 0.0226131 0)
(0.0332152 0.0236662 0)
(0.032819 0.0247222 0)
(0.0322647 0.0257755 0)
(0.03155 0.0268204 0)
(0.0306735 0.0278507 0)
(0.0296352 0.0288602 0)
(0.0284362 0.0298423 0)
(0.0270791 0.0307904 0)
(0.0255678 0.0316978 0)
(0.0239078 0.032558 0)
(0.0221058 0.0333645 0)
(0.0201702 0.0341109 0)
(0.0181105 0.0347913 0)
(0.015938 0.0354001 0)
(0.0136647 0.0359323 0)
(0.0113041 0.0363832 0)
(0.00887066 0.036749 0)
(0.00637935 0.0370266 0)
(0.00384319 0.0372133 0)
(0.00128264 0.037307 0)
(0.000847787 0.00708586 0)
(0.0025407 0.00713656 0)
(0.00423025 0.00723798 0)
(0.00591584 0.0073903 0)
(0.00759372 0.00759372 0)
(0.00926143 0.00784849 0)
(0.0109163 0.00815492 0)
(0.0125555 0.00851336 0)
(0.0141758 0.00892415 0)
(0.0157739 0.00938766 0)
(0.0173458 0.00990423 0)
(0.0188874 0.0104741 0)
(0.0203943 0.0110976 0)
(0.0218615 0.0117749 0)
(0.0232838 0.0125058 0)
(0.0246555 0.0132904 0)
(0.0259704 0.0141283 0)
(0.0272222 0.0150189 0)
(0.0284041 0.0159615 0)
(0.0295091 0.0169549 0)
(0.0305296 0.0179978 0)
(0.0314582 0.0190883 0)
(0.0322872 0.0202244 0)
(0.0330088 0.0214034 0)
(0.0336152 0.0226222 0)
(0.0340987 0.0238774 0)
(0.0344518 0.0251648 0)
(0.0346674 0.0264799 0)
(0.0347387 0.0278176 0)
(0.0346595 0.0291723 0)
(0.0344243 0.0305378 0)
(0.0340284 0.0319075 0)
(0.0334679 0.0332744 0)
(0.0327402 0.0346307 0)
(0.0318436 0.0359687 0)
(0.0307777 0.0372801 0)
(0.0295437 0.0385563 0)
(0.0281439 0.0397888 0)
(0.0265823 0.0409688 0)
(0.0248644 0.0420877 0)
(0.0229972 0.043137 0)
(0.0209893 0.0441084 0)
(0.0188507 0.0449941 0)
(0.016593 0.0457868 0)
(0.0142291 0.0464798 0)
(0.011773 0.047067 0)
(0.00923996 0.0475434 0)
(0.0066457 0.0479046 0)
(0.00400404 0.0481474 0)
(0.00133641 0.0482693 0)
(0.000875976 0.00863947 0)
(0.00262528 0.00870156 0)
(0.00437133 0.00882575 0)
(0.00611363 0.00901229 0)
(0.00784849 0.00926143 0)
(0.0095735 0.0095735 0)
(0.0112861 0.0099489 0)
(0.0129833 0.0103881 0)
(0.0146621 0.0108914 0)
(0.016319 0.0114595 0)
(0.0179501 0.0120928 0)
(0.0195513 0.0127916 0)
(0.021118 0.0135563 0)
(0.0226451 0.0143871 0)
(0.0241272 0.0152841 0)
(0.0255585 0.0162471 0)
(0.0269325 0.0172759 0)
(0.0282428 0.0183698 0)
(0.0294821 0.019528 0)
(0.030643 0.0207491 0)
(0.0317178 0.0220314 0)
(0.0326986 0.023373 0)
(0.0335771 0.0247711 0)
(0.034345 0.0262226 0)
(0.034994 0.0277238 0)
(0.035516 0.0292705 0)
(0.0359028 0.0308576 0)
(0.0361467 0.0324797 0)
(0.0362403 0.0341303 0)
(0.0361769 0.0358028 0)
(0.0359504 0.0374894 0)
(0.0355555 0.0391821 0)
(0.0349879 0.0408719 0)
(0.0342443 0.0425496 0)
(0.0333229 0.0442053 0)
(0.0322228 0.0458288 0)
(0.0309449 0.0474095 0)
(0.0294916 0.0489366 0)
(0.0278668 0.0503994 0)
(0.026076 0.0517869 0)
(0.0241265 0.0530885 0)
(0.0220273 0.054294 0)
(0.019789 0.0553934 0)
(0.0174236 0.0563776 0)
(0.0149449 0.0572382 0)
(0.0123677 0.0579675 0)
(0.00970825 0.0585592 0)
(0.00698336 0.0590079 0)
(0.00420791 0.0593094 0)
(0.00140457 0.0594608 0)
(0.000909872 0.0101796 0)
(0.00272698 0.0102531 0)
(0.00454099 0.0104002 0)
(0.00635151 0.0106212 0)
(0.00815492 0.0109163 0)
(0.0099489 0.0112861 0)
(0.0117309 0.0117309 0)
(0.0134981 0.0122514 0)
(0.0152473 0.0128481 0)
(0.0169752 0.0135216 0)
(0.0186778 0.0142726 0)
(0.0203509 0.0151015 0)
(0.0219898 0.0160089 0)
(0.0235893 0.016995 0)
(0.0251439 0.01806 0)
(0.0266473 0.0192039 0)
(0.0280931 0.0204264 0)
(0.0294743 0.0217267 0)
(0.0307834 0.023104 0)
(0.0320125 0.0245567 0)
(0.0331535 0.0260831 0)
(0.0341979 0.0276807 0)
(0.0351369 0.0293464 0)
(0.0359616 0.0310767 0)
(0.0366631 0.0328672 0)
(0.0372325 0.0347129 0)
(0.037661 0.0366079 0)
(0.0379401 0.0385457 0)
(0.0380618 0.0405188 0)
(0.0380186 0.0425191 0)
(0.0378035 0.0445375 0)
(0.0374108 0.0465643 0)
(0.0368354 0.0485888 0)
(0.0360736 0.0506 0)
(0.0351227 0.0525859 0)
(0.0339819 0.0545342 0)
(0.0326515 0.0564322 0)
(0.0311338 0.0582668 0)
(0.0294325 0.0600249 0)
(0.0275535 0.0616933 0)
(0.0255043 0.0632592 0)
(0.0232941 0.0647099 0)
(0.0209344 0.0660336 0)
(0.0184378 0.0672189 0)
(0.015819 0.0682556 0)
(0.0130941 0.0691344 0)
(0.0102803 0.0698474 0)
(0.00739585 0.0703882 0)
(0.00445695 0.0707515 0)
(0.00148783 0.070934 0)
(0.000949507 0.0117033 0)
(0.00284591 0.0117883 0)
(0.00473939 0.0119585 0)
(0.00662973 0.0122141 0)
(0.00851336 0.0125555 0)
(0.0103881 0.0129833 0)
(0.0122514 0.0134981 0)
(0.0141005 0.0141005 0)
(0.0159324 0.0147913 0)
(0.0177435 0.0155713 0)
(0.01953 0.0164411 0)
(0.0212876 0.0174016 0)
(0.0230115 0.0184533 0)
(0.0246962 0.0195967 0)
(0.0263361 0.0208321 0)
(0.0279248 0.0221595 0)
(0.0294553 0.0235787 0)
(0.0309204 0.025089 0)
(0.0323121 0.0266895 0)
(0.0336222 0.0283786 0)
(0.0348418 0.0301543 0)
(0.0359619 0.0320138 0)
(0.0369731 0.0339537 0)
(0.0378658 0.0359701 0)
(0.0386302 0.0380579 0)
(0.0392567 0.0402114 0)
(0.0397356 0.042424 0)
(0.0400576 0.0446879 0)
(0.0402137 0.0469947 0)
(0.0401956 0.0493347 0)
(0.0399956 0.0516976 0)
(0.0396068 0.0540719 0)
(0.0390236 0.0564451 0)
(0.0382414 0.0588043 0)
(0.0372571 0.0611353 0)
(0.0360691 0.0634237 0)
(0.0346775 0.0656544 0)
(0.0330843 0.0678119 0)
(0.0312933 0.0698806 0)
(0.0293103 0.0718449 0)
(0.0271431 0.0736894 0)
(0.0248017 0.0753991 0)
(0.0222979 0.0769597 0)
(0.0196456 0.0783577 0)
(0.0168604 0.0795809 0)
(0.0139596 0.0806181 0)
(0.010962 0.0814598 0)
(0.00788746 0.0820982 0)
(0.00475377 0.0825273 0)
(0.00158707 0.0827428 0)
(0.000994916 0.0132074 0)
(0.00298217 0.013304 0)
(0.00496672 0.0134974 0)
(0.00694854 0.0137878 0)
(0.00892415 0.0141758 0)
(0.0108914 0.0146621 0)
(0.0128481 0.0152473 0)
(0.0147913 0.0159324 0)
(0.0167181 0.0167181 0)
(0.018625 0.0176055 0)
(0.0205082 0.0185955 0)
(0.0223631 0.0196891 0)
(0.0241849 0.0208869 0)
(0.0259681 0.0221897 0)
(0.0277066 0.023598 0)
(0.0293939 0.0251119 0)
(0.0310227 0.0267313 0)
(0.0325851 0.0284556 0)
(0.034073 0.0302839 0)
(0.0354773 0.0322145 0)
(0.0367887 0.0342454 0)
(0.0379974 0.0363735 0)
(0.0390932 0.0385952 0)
(0.0400658 0.0409059 0)
(0.0409044 0.0433003 0)
(0.0415985 0.0457717 0)
(0.0421374 0.0483128 0)
(0.0425108 0.0509149 0)
(0.0427086 0.0535683 0)
(0.0427215 0.056262 0)
(0.0425407 0.0589842 0)
(0.0421583 0.0617215 0)
(0.0415678 0.0644599 0)
(0.0407637 0.067184 0)
(0.0397422 0.0698777 0)
(0.038501 0.0725242 0)
(0.0370397 0.0751057 0)
(0.03536 0.0776043 0)
(0.0334655 0.0800017 0)
(0.0313623 0.0822796 0)
(0.0290585 0.0844198 0)
(0.0265644 0.0864047 0)
(0.023893 0.0882174 0)
(0.021059 0.089842 0)
(0.0180794 0.091264 0)
(0.014973 0.0924702 0)
(0.0117605 0.0934494 0)
(0.00846333 0.0941922 0)
(0.00510151 0.0946915 0)
(0.00170334 0.0949423 0)
(0.00104613 0.0146885 0)
(0.00313587 0.0147968 0)
(0.00522317 0.0150134 0)
(0.00730822 0.0153389 0)
(0.00938766 0.0157739 0)
(0.0114595 0.016319 0)
(0.0135216 0.0169752 0)
(0.0155713 0.0177435 0)
(0.0176055 0.018625 0)
(0.0196209 0.0196209 0)
(0.0216136 0.0207324 0)
(0.023579 0.0219605 0)
(0.0255121 0.0233064 0)
(0.0274073 0.024771 0)
(0.0292583 0.0263548 0)
(0.0310581 0.0280584 0)
(0.0327991 0.0298817 0)
(0.034473 0.0318244 0)
(0.036071 0.0338854 0)
(0.0375836 0.0360634 0)
(0.0390007 0.0383559 0)
(0.0403117 0.04076 0)
(0.0415056 0.0432718 0)
(0.0425709 0.0458862 0)
(0.043496 0.0485974 0)
(0.0442692 0.0513982 0)
(0.0448788 0.0542803 0)
(0.045313 0.0572342 0)
(0.0455609 0.0602488 0)
(0.0456115 0.0633121 0)
(0.0454551 0.0664104 0)
(0.0450825 0.0695287 0)
(0.0444861 0.0726509 0)
(0.0436592 0.0757597 0)
(0.0425972 0.0788364 0)
(0.041297 0.0818617 0)
(0.0397577 0.0848152 0)
(0.0379803 0.0876761 0)
(0.0359686 0.0904233 0)
(0.0337284 0.0930353 0)
(0.0312682 0.0954912 0)
(0.0285993 0.0977704 0)
(0.0257353 0.0998531 0)
(0.0226922 0.101721 0)
(0.0194885 0.103356 0)
(0.016145 0.104744 0)
(0.012684 0.105871 0)
(0.00912957 0.106726 0)
(0.00550387 0.107301 0)
(0.00183788 0.10759 0)
(0.00110319 0.0161428 0)
(0.0033071 0.0162628 0)
(0.00550888 0.0165029 0)
(0.00770899 0.0168636 0)
(0.00990423 0.0173458 0)
(0.0120928 0.0179501 0)
(0.0142726 0.0186778 0)
(0.0164411 0.01953 0)
(0.0185955 0.0205082 0)
(0.0207324 0.0216136 0)
(0.0228478 0.0228478 0)
(0.0249371 0.0242121 0)
(0.0269953 0.025708 0)
(0.0290165 0.0273366 0)
(0.0309941 0.0290988 0)
(0.0329208 0.0309954 0)
(0.0347887 0.0330266 0)
(0.0365889 0.0351922 0)
(0.038312 0.0374914 0)
(0.0399477 0.0399228 0)
(0.0414853 0.0424841 0)
(0.0429132 0.0451723 0)
(0.0442194 0.0479831 0)
(0.0453914 0.0509114 0)
(0.0464164 0.0539508 0)
(0.0472814 0.0570936 0)
(0.0479734 0.0603306 0)
(0.0484793 0.0636514 0)
(0.0487866 0.0670439 0)
(0.048883 0.0704944 0)
(0.0487573 0.0739879 0)
(0.0483989 0.0775075 0)
(0.0477988 0.0810349 0)
(0.0469492 0.0845506 0)
(0.0458442 0.0880335 0)
(0.0444797 0.0914614 0)
(0.0428541 0.0948112 0)
(0.0409681 0.0980588 0)
(0.0388248 0.10118 0)
(0.0364303 0.10415 0)
(0.0337935 0.106945 0)
(0.0309263 0.109541 0)
(0.0278432 0.111914 0)
(0.0245619 0.114044 0)
(0.0211025 0.115909 0)
(0.0174877 0.117493 0)
(0.0137425 0.11878 0)
(0.00989335 0.119757 0)
(0.00596521 0.120413 0)
(0.00199215 0.120743 0)
(0.00116611 0.0175664 0)
(0.00349593 0.0176981 0)
(0.00582401 0.0179617 0)
(0.00815109 0.0183579 0)
(0.0104741 0.0188874 0)
(0.0127916 0.0195513 0)
(0.0151015 0.0203509 0)
(0.0174016 0.0212876 0)
(0.0196891 0.0223631 0)
(0.0219605 0.023579 0)
(0.0242121 0.0249371 0)
(0.0264392 0.0264392 0)
(0.0286366 0.028087 0)
(0.0307982 0.029882 0)
(0.0329171 0.0318255 0)
(0.0349858 0.0339185 0)
(0.0369958 0.0361616 0)
(0.0389378 0.0385549 0)
(0.0408017 0.0410979 0)
(0.0425764 0.0437892 0)
(0.0442502 0.0466268 0)
(0.0458107 0.0496076 0)
(0.0472447 0.0527273 0)
(0.0485386 0.0559806 0)
(0.0496782 0.0593605 0)
(0.050649 0.062859 0)
(0.0514366 0.0664662 0)
(0.0520263 0.0701707 0)
(0.0524039 0.0739592 0)
(0.0525555 0.0778168 0)
(0.0524681 0.0817266 0)
(0.0521296 0.0856701 0)
(0.0515292 0.0896269 0)
(0.0506578 0.0935747 0)
(0.049508 0.09749 0)
(0.0480747 0.101348 0)
(0.0463551 0.105121 0)
(0.0443492 0.108784 0)
(0.04206 0.112307 0)
(0.0394934 0.115663 0)
(0.0366586 0.118823 0)
(0.0335683 0.12176 0)
(0.0302382 0.124448 0)
(0.0266874 0.126862 0)
(0.0229382 0.128978 0)
(0.0190157 0.130775 0)
(0.0149475 0.132236 0)
(0.010763 0.133345 0)
(0.00649061 0.134091 0)
(0.00216785 0.134465 0)
(0.00123491 0.0189549 0)
(0.00370243 0.0190984 0)
(0.00616866 0.0193856 0)
(0.00863466 0.0198173 0)
(0.0110976 0.0203943 0)
(0.0135563 0.021118 0)
(0.0160089 0.0219898 0)
(0.0184533 0.0230115 0)
(0.0208869 0.0241849 0)
(0.0233064 0.0255121 0)
(0.025708 0.0269953 0)
(0.028087 0.0286366 0)
(0.030438 0.030438 0)
(0.0327549 0.0324017 0)
(0.0350306 0.0345292 0)
(0.0372569 0.036822 0)
(0.0394251 0.0392811 0)
(0.0415252 0.041907 0)
(0.0435463 0.0446995 0)
(0.0454767 0.0476576 0)
(0.0473037 0.0507793 0)
(0.0490137 0.0540618 0)
(0.0505923 0.0575007 0)
(0.0520246 0.0610906 0)
(0.0532949 0.0648245 0)
(0.0543871 0.0686935 0)
(0.0552851 0.0726874 0)
(0.0559723 0.0767938 0)
(0.0564327 0.0809983 0)
(0.0566505 0.0852847 0)
(0.0566106 0.0896345 0)
(0.0562992 0.0940271 0)
(0.0557034 0.0984399 0)
(0.0548124 0.102848 0)
(0.0536171 0.107225 0)
(0.0521109 0.111543 0)
(0.0502901 0.115772 0)
(0.0481535 0.119881 0)
(0.0457037 0.123837 0)
(0.0429465 0.12761 0)
(0.0398914 0.131167 0)
(0.0365518 0.134476 0)
(0.0329448 0.137506 0)
(0.0290912 0.140229 0)
(0.0250155 0.142618 0)
(0.0207456 0.144648 0)
(0.0163122 0.146299 0)
(0.0117483 0.147552 0)
(0.00708597 0.148396 0)
(0.00236698 0.14882 0)
(0.0013096 0.0203037 0)
(0.00392663 0.0204589 0)
(0.00654286 0.0207697 0)
(0.00915979 0.0212369 0)
(0.0117749 0.0218615 0)
(0.0143871 0.0226451 0)
(0.016995 0.0235893 0)
(0.0195967 0.0246962 0)
(0.0221897 0.0259681 0)
(0.024771 0.0274073 0)
(0.0273366 0.0290165 0)
(0.029882 0.0307982 0)
(0.0324017 0.0327549 0)
(0.0348893 0.0348893 0)
(0.0373374 0.0372034 0)
(0.0397378 0.0396993 0)
(0.0420809 0.0423785 0)
(0.0443562 0.0452418 0)
(0.0465522 0.0482896 0)
(0.0486562 0.0515213 0)
(0.0506544 0.0549352 0)
(0.0525321 0.0585287 0)
(0.0542736 0.0622978 0)
(0.0558623 0.0662367 0)
(0.0572811 0.0703385 0)
(0.058512 0.074594 0)
(0.0595368 0.0789923 0)
(0.0603372 0.0835203 0)
(0.0608948 0.0881626 0)
(0.0611917 0.0929016 0)
(0.0612105 0.0977171 0)
(0.060935 0.102587 0)
(0.0603503 0.107485 0)
(0.0594433 0.112385 0)
(0.058203 0.117257 0)
(0.0566212 0.12207 0)
(0.0546925 0.126789 0)
(0.0524147 0.131379 0)
(0.0497897 0.135806 0)
(0.0468228 0.140032 0)
(0.043524 0.144019 0)
(0.0399074 0.147733 0)
(0.0359915 0.151138 0)
(0.031799 0.154199 0)
(0.0273571 0.156887 0)
(0.0226967 0.159173 0)
(0.0178521 0.161032 0)
(0.0128604 0.162446 0)
(0.00775815 0.163397 0)
(0.00259183 0.163875 0)
(0.00139018 0.0216077 0)
(0.00416848 0.0217747 0)
(0.0069466 0.0221091 0)
(0.00972646 0.0226117 0)
(0.0125058 0.0232838 0)
(0.0152841 0.0241272 0)
(0.01806 0.0251439 0)
(0.0208321 0.0263361 0)
(0.023598 0.0277066 0)
(0.0263548 0.0292583 0)
(0.0290988 0.0309941 0)
(0.0318255 0.0329171 0)
(0.0345292 0.0350306 0)
(0.0372034 0.0373374 0)
(0.0398406 0.0398406 0)
(0.042432 0.0425426 0)
(0.0449676 0.0454456 0)
(0.0474363 0.0485511 0)
(0.0498258 0.0518599 0)
(0.0521223 0.055372 0)
(0.0543111 0.0590863 0)
(0.0563762 0.0630004 0)
(0.0583003 0.0671106 0)
(0.0600653 0.0714115 0)
(0.0616521 0.0758959 0)
(0.0630409 0.0805546 0)
(0.0642113 0.0853762 0)
(0.0651426 0.0903469 0)
(0.065814 0.0954504 0)
(0.066205 0.100668 0)
(0.0662956 0.105977 0)
(0.0660671 0.111354 0)
(0.0655019 0.116771 0)
(0.0645845 0.122197 0)
(0.0633014 0.127601 0)
(0.0616424 0.132946 0)
(0.0596 0.138195 0)
(0.057171 0.143309 0)
(0.0543559 0.148246 0)
(0.0511599 0.152965 0)
(0.0475929 0.157424 0)
(0.0436699 0.161581 0)
(0.0394108 0.165395 0)
(0.0348406 0.168829 0)
(0.0299892 0.171846 0)
(0.0248912 0.174414 0)
(0.019585 0.176505 0)
(0.0141125 0.178094 0)
(0.00851508 0.179164 0)
(0.00284507 0.179702 0)
(0.0014766 0.0228618 0)
(0.00442794 0.0230405 0)
(0.00737977 0.0233982 0)
(0.0103345 0.023936 0)
(0.0132904 0.0246555 0)
(0.0162471 0.0255585 0)
(0.0192039 0.0266473 0)
(0.0221595 0.0279248 0)
(0.0251119 0.0293939 0)
(0.0280584 0.0310581 0)
(0.0309954 0.0329208 0)
(0.0339185 0.0349858 0)
(0.036822 0.0372569 0)
(0.0396993 0.0397378 0)
(0.0425426 0.042432 0)
(0.0453428 0.0453428 0)
(0.0480893 0.048473 0)
(0.0507705 0.051825 0)
(0.0533732 0.0554003 0)
(0.0558826 0.0591995 0)
(0.0582828 0.0632222 0)
(0.0605564 0.0674665 0)
(0.0626847 0.0719293 0)
(0.0646476 0.0766053 0)
(0.0664242 0.0814876 0)
(0.0679923 0.086567 0)
(0.0693291 0.0918317 0)
(0.0704114 0.0972675 0)
(0.0712156 0.102857 0)
(0.0717184 0.108581 0)
(0.0718967 0.114414 0)
(0.0717287 0.120332 0)
(0.0711938 0.126303 0)
(0.0702735 0.132294 0)
(0.0689517 0.13827 0)
(0.0672154 0.144191 0)
(0.065055 0.150014 0)
(0.0624653 0.155696 0)
(0.0594457 0.161189 0)
(0.0560005 0.166447 0)
(0.0521398 0.171423 0)
(0.0478792 0.176067 0)
(0.0432401 0.180334 0)
(0.0382501 0.184178 0)
(0.0329422 0.18756 0)
(0.0273549 0.19044 0)
(0.0215316 0.192786 0)
(0.0155195 0.194571 0)
(0.00936594 0.195772 0)
(0.00312977 0.196377 0)
(0.00156884 0.0240602 0)
(0.00470486 0.0242504 0)
(0.00784216 0.0246313 0)
(0.0109838 0.0252041 0)
(0.0141283 0.0259704 0)
(0.0172759 0.0269325 0)
(0.0204264 0.0280931 0)
(0.0235787 0.0294553 0)
(0.0267313 0.0310227 0)
(0.0298817 0.0327991 0)
(0.0330266 0.0347887 0)
(0.0361616 0.0369958 0)
(0.0392811 0.0394251 0)
(0.0423785 0.0420809 0)
(0.0454456 0.0449676 0)
(0.048473 0.0480893 0)
(0.0514498 0.0514498 0)
(0.0543636 0.0550523 0)
(0.0572003 0.058899 0)
(0.0599442 0.0629917 0)
(0.0625782 0.0673305 0)
(0.0650833 0.0719145 0)
(0.0674391 0.076741 0)
(0.0696237 0.0818055 0)
(0.0716138 0.0871013 0)
(0.0733851 0.0926194 0)
(0.0749119 0.0983481 0)
(0.0761681 0.104272 0)
(0.077127 0.110375 0)
(0.077762 0.116634 0)
(0.0780467 0.123025 0)
(0.0779556 0.129519 0)
(0.0774647 0.136083 0)
(0.0765519 0.142682 0)
(0.0751978 0.149275 0)
(0.0733861 0.155818 0)
(0.0711048 0.162265 0)
(0.0683462 0.168566 0)
(0.0651079 0.174668 0)
(0.0613933 0.180518 0)
(0.0572122 0.18606 0)
(0.0525808 0.191242 0)
(0.0475224 0.196008 0)
(0.0420668 0.200309 0)
(0.0362508 0.204094 0)
(0.0301175 0.207322 0)
(0.0237157 0.209953 0)
(0.0170989 0.211955 0)
(0.0103214 0.213304 0)
(0.00344952 0.213983 0)
(0.00166683 0.0251971 0)
(0.00499904 0.0253987 0)
(0.00833343 0.0258024 0)
(0.0116737 0.0264096 0)
(0.0150189 0.0272222 0)
(0.0183698 0.0282428 0)
(0.0217267 0.0294743 0)
(0.025089 0.0309204 0)
(0.0284556 0.0325851 0)
(0.0318244 0.034473 0)
(0.0351922 0.0365889 0)
(0.0385549 0.0389378 0)
(0.041907 0.0415252 0)
(0.0452418 0.0443562 0)
(0.0485511 0.0474363 0)
(0.051825 0.0507705 0)
(0.0550523 0.0543636 0)
(0.0582197 0.0582197 0)
(0.0613126 0.0623424 0)
(0.064314 0.0667342 0)
(0.0672056 0.0713965 0)
(0.0699669 0.0763291 0)
(0.0725757 0.0815304 0)
(0.075008 0.0869966 0)
(0.0772381 0.0927217 0)
(0.079239 0.0986969 0)
(0.0809822 0.104911 0)
(0.0824383 0.111348 0)
(0.0835771 0.117991 0)
(0.0843682 0.124818 0)
(0.0847813 0.1318 0)
(0.084787 0.13891 0)
(0.084357 0.14611 0)
(0.0834652 0.153362 0)
(0.082088 0.160621 0)
(0.0802057 0.16784 0)
(0.0778025 0.174966 0)
(0.074868 0.181942 0)
(0.0713977 0.188712 0)
(0.0673934 0.195212 0)
(0.0628642 0.201381 0)
(0.0578271 0.207157 0)
(0.0523067 0.212478 0)
(0.0463359 0.217285 0)
(0.0399553 0.221521 0)
(0.0332133 0.225136 0)
(0.0261649 0.228086 0)
(0.018871 0.230332 0)
(0.0113938 0.231846 0)
(0.00380847 0.232608 0)
(0.00177045 0.0262662 0)
(0.00531018 0.026479 0)
(0.0088531 0.0269051 0)
(0.0124036 0.0275461 0)
(0.0159615 0.0284041 0)
(0.019528 0.0294821 0)
(0.023104 0.0307834 0)
(0.0266895 0.0323121 0)
(0.0302839 0.034073 0)
(0.0338854 0.036071 0)
(0.0374914 0.038312 0)
(0.0410979 0.0408017 0)
(0.0446995 0.0435463 0)
(0.0482896 0.0465522 0)
(0.0518599 0.0498258 0)
(0.0554003 0.0533732 0)
(0.058899 0.0572003 0)
(0.0623424 0.0613126 0)
(0.0657147 0.0657147 0)
(0.0689982 0.0704106 0)
(0.0721731 0.0754028 0)
(0.0752172 0.0806925 0)
(0.0781066 0.0862791 0)
(0.0808149 0.0921599 0)
(0.0833141 0.0983297 0)
(0.0855742 0.104781 0)
(0.0875634 0.111501 0)
(0.0892487 0.118477 0)
(0.0905962 0.12569 0)
(0.0915711 0.133116 0)
(0.0921388 0.140729 0)
(0.092265 0.148495 0)
(0.0919169 0.156377 0)
(0.0910632 0.164332 0)
(0.0896759 0.172312 0)
(0.0877305 0.180265 0)
(0.0852073 0.18813 0)
(0.0820921 0.195847 0)
(0.0783774 0.203349 0)
(0.0740632 0.210567 0)
(0.0691576 0.21743 0)
(0.0636777 0.223866 0)
(0.0576497 0.229804 0)
(0.0511095 0.235175 0)
(0.0441023 0.239916 0)
(0.0366822 0.243966 0)
(0.0289115 0.247273 0)
(0.0208594 0.249794 0)
(0.0125975 0.251494 0)
(0.00421148 0.252349 0)
(0.00187958 0.0272613 0)
(0.00563789 0.0274849 0)
(0.00940053 0.0279328 0)
(0.0131727 0.0286067 0)
(0.0169549 0.0295091 0)
(0.0207491 0.030643 0)
(0.0245567 0.0320125 0)
(0.0283786 0.0336222 0)
(0.0322145 0.0354773 0)
(0.0360634 0.0375836 0)
(0.0399228 0.0399477 0)
(0.0437892 0.0425764 0)
(0.0476576 0.0454767 0)
(0.0515213 0.0486562 0)
(0.055372 0.0521223 0)
(0.0591995 0.0558826 0)
(0.0629917 0.0599442 0)
(0.0667342 0.064314 0)
(0.0704106 0.0689982 0)
(0.0740021 0.0740021 0)
(0.0774875 0.0793298 0)
(0.0808432 0.084984 0)
(0.084043 0.0909655 0)
(0.0870585 0.097273 0)
(0.0898588 0.103903 0)
(0.0924107 0.110847 0)
(0.0946791 0.118097 0)
(0.096627 0.125637 0)
(0.0982161 0.13345 0)
(0.099407 0.141511 0)
(0.10016 0.149792 0)
(0.100435 0.158259 0)
(0.100194 0.166873 0)
(0.0994006 0.175586 0)
(0.0980203 0.184346 0)
(0.0960235 0.193096 0)
(0.0933853 0.20177 0)
(0.0900871 0.210299 0)
(0.0861176 0.218608 0)
(0.0814739 0.226619 0)
(0.0761628 0.234251 0)
(0.070201 0.241421 0)
(0.0636165 0.248049 0)
(0.056448 0.254054 0)
(0.0487457 0.25936 0)
(0.0405704 0.2639 0)
(0.0319927 0.26761 0)
(0.0230915 0.27044 0)
(0.0139494 0.27235 0)
(0.00466419 0.273312 0)
(0.00199406 0.0281756 0)
(0.00598168 0.0284097 0)
(0.0099749 0.0288787 0)
(0.0139799 0.0295844 0)
(0.0179978 0.0305296 0)
(0.0220314 0.0317178 0)
(0.0260831 0.0331535 0)
(0.0301543 0.0348418 0)
(0.0342454 0.0367887 0)
(0.0383559 0.0390007 0)
(0.0424841 0.0414853 0)
(0.0466268 0.0442502 0)
(0.0507793 0.0473037 0)
(0.0549352 0.0506544 0)
(0.0590863 0.0543111 0)
(0.0632222 0.0582828 0)
(0.0673305 0.0625782 0)
(0.0713965 0.0672056 0)
(0.0754028 0.0721731 0)
(0.0793298 0.0774875 0)
(0.0831549 0.0831549 0)
(0.0868529 0.0891798 0)
(0.0903956 0.0955647 0)
(0.093752 0.10231 0)
(0.0968885 0.109414 0)
(0.0997686 0.11687 0)
(0.102353 0.12467 0)
(0.104601 0.132801 0)
(0.10647 0.141243 0)
(0.107914 0.149975 0)
(0.108887 0.158966 0)
(0.109346 0.168182 0)
(0.109243 0.177579 0)
(0.108537 0.187109 0)
(0.107186 0.196714 0)
(0.105154 0.206332 0)
(0.10241 0.21589 0)
(0.0989301 0.22531 0)
(0.0946976 0.23451 0)
(0.0897062 0.2434 0)
(0.0839602 0.251888 0)
(0.0774758 0.259879 0)
(0.070282 0.26728 0)
(0.062421 0.273996 0)
(0.0539482 0.279941 0)
(0.0449319 0.285033 0)
(0.0354522 0.289201 0)
(0.0255995 0.292382 0)
(0.0154692 0.29453 0)
(0.00517324 0.295613 0)
(0.00211367 0.0290025 0)
(0.00634093 0.0292467 0)
(0.0105752 0.0297358 0)
(0.0148237 0.030472 0)
(0.0190883 0.0314582 0)
(0.023373 0.0326986 0)
(0.0276807 0.0341979 0)
(0.0320138 0.0359619 0)
(0.0363735 0.0379974 0)
(0.04076 0.0403117 0)
(0.0451723 0.0429132 0)
(0.0496076 0.0458107 0)
(0.0540618 0.0490137 0)
(0.0585287 0.0525321 0)
(0.0630004 0.0563762 0)
(0.0674665 0.0605564 0)
(0.0719145 0.0650833 0)
(0.0763291 0.0699669 0)
(0.0806925 0.0752172 0)
(0.084984 0.0808432 0)
(0.0891798 0.0868529 0)
(0.0932529 0.0932529 0)
(0.0971733 0.100048 0)
(0.100908 0.107241 0)
(0.104419 0.114832 0)
(0.107667 0.122816 0)
(0.11061 0.131188 0)
(0.1132 0.139934 0)
(0.11539 0.149037 0)
(0.11713 0.158476 0)
(0.118367 0.16822 0)
(0.119048 0.178234 0)
(0.119121 0.188471 0)
(0.118536 0.198881 0)
(0.117243 0.209402 0)
(0.115199 0.219965 0)
(0.112364 0.230491 0)
(0.108708 0.240893 0)
(0.104207 0.251077 0)
(0.0988518 0.260944 0)
(0.0926419 0.270386 0)
(0.0855925 0.279297 0)
(0.0777333 0.287566 0)
(0.0691097 0.295086 0)
(0.0597829 0.301754 0)
(0.0498298 0.307473 0)
(0.0393413 0.31216 0)
(0.0284213 0.315741 0)
(0.0171799 0.318162 0)
(0.00574644 0.319381 0)
(0.00223818 0.0297352 0)
(0.00671489 0.0299888 0)
(0.0112002 0.030497 0)
(0.0157024 0.031262 0)
(0.0202244 0.0322872 0)
(0.0247711 0.0335771 0)
(0.0293464 0.0351369 0)
(0.0339537 0.0369731 0)
(0.0385952 0.0390932 0)
(0.0432718 0.0415056 0)
(0.0479831 0.0442194 0)
(0.0527273 0.0472447 0)
(0.0575007 0.0505923 0)
(0.0622978 0.0542736 0)
(0.0671106 0.0583003 0)
(0.0719293 0.0626847 0)
(0.076741 0.0674391 0)
(0.0815304 0.0725757 0)
(0.0862791 0.0781066 0)
(0.0909655 0.084043 0)
(0.0955647 0.0903956 0)
(0.100048 0.0971733 0)
(0.104384 0.104384 0)
(0.108535 0.112032 0)
(0.112464 0.120121 0)
(0.116124 0.128648 0)
(0.119471 0.13761 0)
(0.122451 0.146997 0)
(0.125012 0.156792 0)
(0.127096 0.166975 0)
(0.128645 0.177516 0)
(0.129596 0.188378 0)
(0.129891 0.199516 0)
(0.129468 0.210874 0)
(0.128269 0.222387 0)
(0.126242 0.23398 0)
(0.123338 0.245565 0)
(0.119517 0.257049 0)
(0.114749 0.268324 0)
(0.109015 0.279277 0)
(0.102314 0.289788 0)
(0.0946555 0.299732 0)
(0.0860709 0.308981 0)
(0.0766084 0.317411 0)
(0.0663354 0.3249 0)
(0.0553382 0.331334 0)
(0.0437204 0.336614 0)
(0.0316014 0.340654 0)
(0.0191092 0.343386 0)
(0.00639304 0.344763 0)
(0.00236727 0.0303668 0)
(0.00710268 0.0306292 0)
(0.0118484 0.0311552 0)
(0.016614 0.0319472 0)
(0.0214034 0.0330088 0)
(0.0262226 0.034345 0)
(0.0310767 0.0359616 0)
(0.0359701 0.0378658 0)
(0.0409059 0.0400658 0)
(0.0458862 0.0425709 0)
(0.0509114 0.0453914 0)
(0.0559806 0.0485386 0)
(0.0610906 0.0520246 0)
(0.0662367 0.0558623 0)
(0.0714115 0.0600653 0)
(0.0766053 0.0646476 0)
(0.0818055 0.0696237 0)
(0.0869966 0.075008 0)
(0.0921599 0.0808149 0)
(0.097273 0.0870585 0)
(0.10231 0.093752 0)
(0.107241 0.100908 0)
(0.112032 0.108535 0)
(0.116644 0.116644 0)
(0.121035 0.12524 0)
(0.125157 0.134323 0)
(0.128958 0.143894 0)
(0.132382 0.153944 0)
(0.135369 0.16446 0)
(0.137854 0.175424 0)
(0.13977 0.186806 0)
(0.141048 0.198571 0)
(0.141617 0.210671 0)
(0.141407 0.223049 0)
(0.140349 0.235636 0)
(0.138377 0.248351 0)
(0.135433 0.261099 0)
(0.131466 0.273775 0)
(0.126436 0.28626 0)
(0.120316 0.298426 0)
(0.113097 0.310135 0)
(0.104786 0.321243 0)
(0.0954122 0.331602 0)
(0.0850278 0.341066 0)
(0.0737063 0.349492 0)
(0.0615445 0.356745 0)
(0.0486609 0.362706 0)
(0.0351927 0.367272 0)
(0.0212894 0.370363 0)
(0.00712402 0.371923 0)
(0.00250061 0.0308906 0)
(0.00750326 0.0311611 0)
(0.0125181 0.0317034 0)
(0.017556 0.0325201 0)
(0.0226222 0.0336152 0)
(0.0277238 0.034994 0)
(0.0328672 0.0366631 0)
(0.0380579 0.0386302 0)
(0.0433003 0.0409044 0)
(0.0485974 0.043496 0)
(0.0539508 0.0464164 0)
(0.0593605 0.0496782 0)
(0.0648245 0.0532949 0)
(0.0703385 0.0572811 0)
(0.0758959 0.0616521 0)
(0.0814876 0.0664242 0)
(0.0871013 0.0716138 0)
(0.0927217 0.0772381 0)
(0.0983297 0.0833141 0)
(0.103903 0.0898588 0)
(0.109414 0.0968885 0)
(0.114832 0.104419 0)
(0.120121 0.112464 0)
(0.12524 0.121035 0)
(0.130143 0.130143 0)
(0.134779 0.139792 0)
(0.139091 0.149986 0)
(0.143018 0.16072 0)