/*--------------------------------*- C++ -*----------------------------------*\
| =========                 |                                                 |
| \\      /  F ield         | OpenFOAM: The Open Source CFD Toolbox           |
|  \\    /   O peration     | Version:  2406                                  |
|   \\  /    A nd           | Website:  www.openfoam.com                      |
|    \\/     M anipulation  |                                                 |
\*---------------------------------------------------------------------------*/
FoamFile
{
    version     2.0;
    format      ascii;
    arch        "LSB;label=32;scalar=64";
    class       volScalarField;
    location    "1.7";
    object      gradTx;
}
// * * * * * * * * * * * * * * * * * * * * * * * * * * * * * * * * * * * * * //

dimensions      [0 -1 0 1 0 0 0];

internalField   nonuniform List<scalar> 
2500
(
0.00791607
0.0237202
0.0394887
0.0552147
0.0708586
0.0863947
0.101796
0.117033
0.132074
0.146885
0.161428
0.175664
0.189549
0.203037
0.216077
0.228618
0.240602
0.251971
0.262662
0.272613
0.281756
0.290025
0.297352
0.303668
0.308906
0.312999
0.315885
0.317502
0.317795
0.316712
0.314211
0.310253
0.304811
0.297864
0.289406
0.279438
0.267974
0.255041
0.240679
0.224939
0.207887
0.189603
0.170175
0.149707
0.128312
0.106115
0.0832458
0.0598445
0.0360569
0.0120426
0.00797136
0.0238881
0.0397701
0.0556086
0.0713656
0.0870156
0.102531
0.117883
0.13304
0.147968
0.162628
0.176981
0.190984
0.204589
0.217747
0.230405
0.242504
0.253987
0.26479
0.274849
0.284097
0.292467
0.299888
0.306292
0.311611
0.315777
0.318725
0.320395
0.320728
0.319673
0.317185
0.313226
0.307766
0.300786
0.292276
0.282239
0.270687
0.257648
0.243161
0.227278
0.210066
0.191604
0.171983
0.151307
0.129691
0.107261
0.0841495
0.0604966
0.0364385
0.0121624
0.00808399
0.0242255
0.0403322
0.0563962
0.0723798
0.0882575
0.104002
0.119585
0.134974
0.150134
0.165029
0.179617
0.193856
0.207697
0.221091
0.233982
0.246313
0.258024
0.269051
0.279328
0.288787
0.297358
0.30497
0.311552
0.317034
0.321345
0.324421
0.326196
0.326611
0.325612
0.323152
0.319191
0.313697
0.30665
0.298038
0.287862
0.276135
0.262883
0.248146
0.231977
0.214443
0.195624
0.175615
0.15452
0.13246
0.109562
0.0859658
0.0618146
0.037236
0.0124268
0.00825271
0.0247315
0.0411759
0.057579
0.073903
0.0901229
0.106212
0.122141
0.137878
0.153389
0.168636
0.183579
0.198173
0.212369
0.226117
0.23936
0.252041
0.264096
0.275461
0.286067
0.295844
0.30472
0.31262
0.319472
0.325201
0.329734
0.333003
0.334939
0.335479
0.334567
0.332152
0.32819
0.322647
0.3155
0.306735
0.296352
0.284362
0.270791
0.255678
0.239078
0.221058
0.201702
0.181105
0.15938
0.136647
0.113041
0.0887066
0.0637935
0.0384319
0.0128264
0.00847787
0.025407
0.0423025
0.0591584
0.0759372
0.0926143
0.109163
0.125555
0.141758
0.157739
0.173458
0.188874
0.203943
0.218615
0.232838
0.246555
0.259704
0.272222
0.284041
0.295091
0.305296
0.314582
0.322872
0.330088
0.336152
0.340987
0.344518
0.346674
0.347387
0.346595
0.344243
0.340284
0.334679
0.327402
0.318436
0.307777
0.295437
0.281439
0.265823
0.248644
0.229972
0.209893
0.188507
0.16593
0.142291
0.11773
0.0923996
0.066457
0.0400404
0.0133641
0.00875976
0.0262528
0.0437133
0.0611363
0.0784849
0.095735
0.112861
0.129833
0.146621
0.16319
0.179501
0.195513
0.21118
0.226451
0.241272
0.255585
0.269325
0.282428
0.294821
0.30643
0.317178
0.326986
0.335771
0.34345
0.34994
0.35516
0.359028
0.361467
0.362403
0.361769
0.359504
0.355555
0.349879
0.342443
0.333229
0.322228
0.309449
0.294916
0.278668
0.26076
0.241265
0.220273
0.19789
0.174236
0.149449
0.123677
0.0970825
0.0698336
0.0420791
0.0140457
0.00909872
0.0272698
0.0454099
0.0635151
0.0815492
0.099489
0.117309
0.134981
0.152473
0.169752
0.186778
0.203509
0.219898
0.235893
0.251439
0.266473
0.280931
0.294743
0.307834
0.320125
0.331535
0.341979
0.351369
0.359616
0.366631
0.372325
0.37661
0.379401
0.380618
0.380186
0.378035
0.374108
0.368354
0.360736
0.351227
0.339819
0.326515
0.311338
0.294325
0.275535
0.255043
0.232941
0.209344
0.184378
0.15819
0.130941
0.102803
0.0739585
0.0445695
0.0148783
0.00949507
0.0284591
0.0473939
0.0662973
0.0851336
0.103881
0.122514
0.141005
0.159324
0.177435
0.1953
0.212876
0.230115
0.246962
0.263361
0.279248
0.294553
0.309204
0.323121
0.336222
0.348418
0.359619
0.369731
0.378658
0.386302
0.392567
0.397356
0.400576
0.402137
0.401956
0.399956
0.396068
0.390236
0.382414
0.372571
0.360691
0.346775
0.330843
0.312933
0.293103
0.271431
0.248017
0.222979
0.196456
0.168604
0.139596
0.10962
0.0788746
0.0475377
0.0158707
0.00994916
0.0298217
0.0496672
0.0694854
0.0892415
0.108914
0.128481
0.147913
0.167181
0.18625
0.205082
0.223631
0.241849
0.259681
0.277066
0.293939
0.310227
0.325851
0.34073
0.354773
0.367887
0.379974
0.390932
0.400658
0.409044
0.415985
0.421374
0.425108
0.427086
0.427215
0.425407
0.421583
0.415678
0.407637
0.397422
0.38501
0.370397
0.3536
0.334655
0.313623
0.290585
0.265644
0.23893
0.21059
0.180794
0.14973
0.117605
0.0846333
0.0510151
0.0170334
0.0104613
0.0313587
0.0522317
0.0730822
0.0938766
0.114595
0.135216
0.155713
0.176055
0.196209
0.216136
0.23579
0.255121
0.274073
0.292583
0.310581
0.327991
0.34473
0.36071
0.375836
0.390007
0.403117
0.415056
0.425709
0.43496
0.442692
0.448788
0.45313
0.455609
0.456115
0.454551
0.450825
0.444861
0.436592
0.425972
0.41297
0.397577
0.379803
0.359686
0.337284
0.312682
0.285993
0.257353
0.226922
0.194885
0.16145
0.12684
0.0912957
0.0550387
0.0183788
0.0110319
0.033071
0.0550888
0.0770899
0.0990423
0.120928
0.142726
0.164411
0.185955
0.207324
0.228478
0.249371
0.269953
0.290165
0.309941
0.329208
0.347887
0.365889
0.38312
0.399477
0.414853
0.429132
0.442194
0.453914
0.464164
0.472814
0.479734
0.484793
0.487866
0.48883
0.487573
0.483989
0.477988
0.469492
0.458442
0.444797
0.428541
0.409681
0.388248
0.364303
0.337935
0.309263
0.278432
0.245619
0.211025
0.174877
0.137425
0.0989335
0.0596521
0.0199215
0.0116611
0.0349593
0.0582401
0.0815109
0.104741
0.127916
0.151015
0.174016
0.196891
0.219605
0.242121
0.264392
0.286366
0.307982
0.329171
0.349858
0.369958
0.389378
0.408017
0.425764
0.442502
0.458107
0.472447
0.485386
0.496782
0.50649
0.514366
0.520263
0.524039
0.525555
0.524681
0.521296
0.515292
0.506578
0.49508
0.480747
0.463551
0.443492
0.4206
0.394934
0.366586
0.335683
0.302382
0.266874
0.229382
0.190157
0.149475
0.10763
0.0649061
0.0216785
0.0123491
0.0370243
0.0616866
0.0863466
0.110976
0.135563
0.160089
0.184533
0.208869
0.233064
0.25708
0.28087
0.30438
0.327549
0.350306
0.372569
0.394251
0.415252
0.435463
0.454767
0.473037
0.490137
0.505923
0.520246
0.532949
0.543871
0.552851
0.559723
0.564327
0.566505
0.566106
0.562992
0.557034
0.548124
0.536171
0.521109
0.502901
0.481535
0.457037
0.429465
0.398914
0.365518
0.329448
0.290912
0.250155
0.207456
0.163122
0.117483
0.0708597
0.0236698
0.013096
0.0392663
0.0654286
0.0915979
0.117749
0.143871
0.16995
0.195967
0.221897
0.24771
0.273366
0.29882
0.324017
0.348893
0.373374
0.397378
0.420809
0.443562
0.465522
0.486562
0.506544
0.525321
0.542736
0.558623
0.572811
0.58512
0.595368
0.603372
0.608948
0.611917
0.612105
0.60935
0.603503
0.594433
0.58203
0.566212
0.546925
0.524147
0.497897
0.468228
0.43524
0.399074
0.359915
0.31799
0.273571
0.226967
0.178521
0.128604
0.0775815
0.0259183
0.0139018
0.0416848
0.069466
0.0972646
0.125058
0.152841
0.1806
0.208321
0.23598
0.263548
0.290988
0.318255
0.345292
0.372034
0.398406
0.42432
0.449676
0.474363
0.498258
0.521223
0.543111
0.563762
0.583003
0.600653
0.616521
0.630409
0.642113
0.651426
0.65814
0.66205
0.662956
0.660671
0.655019
0.645845
0.633014
0.616424
0.596
0.57171
0.543559
0.511599
0.475929
0.436699
0.394108
0.348406
0.299892
0.248912
0.19585
0.141125
0.0851508
0.0284507
0.014766
0.0442794
0.0737977
0.103345
0.132904
0.162471
0.192039
0.221595
0.251119
0.280584
0.309954
0.339185
0.36822
0.396993
0.425426
0.453428
0.480893
0.507705
0.533732
0.558826
0.582828
0.605564
0.626847
0.646476
0.664242
0.679923
0.693291
0.704114
0.712156
0.717184
0.718967
0.717287
0.711938
0.702735
0.689517
0.672154
0.65055
0.624653
0.594457
0.560005
0.521398
0.478792
0.432401
0.382501
0.329422
0.273549
0.215316
0.155195
0.0936594
0.0312977
0.0156884
0.0470486
0.0784216
0.109838
0.141283
0.172759
0.204264
0.235787
0.267313
0.298817
0.330266
0.361616
0.392811
0.423785
0.454456
0.48473
0.514498
0.543636
0.572003
0.599442
0.625782
0.650833
0.674391
0.696237
0.716138
0.733851
0.749119
0.761681
0.77127
0.77762
0.780467
0.779556
0.774647
0.765519
0.751978
0.733861
0.711048
0.683462
0.651079
0.613933
0.572122
0.525808
0.475224
0.420668
0.362508
0.301175
0.237157
0.170989
0.103214
0.0344952
0.0166683
0.0499904
0.0833343
0.116737
0.150189
0.183698
0.217267
0.25089
0.284556
0.318244
0.351922
0.385549
0.41907
0.452418
0.485511
0.51825
0.550523
0.582197
0.613126
0.64314
0.672056
0.699669
0.725757
0.75008
0.772381
0.79239
0.809822
0.824383
0.835771
0.843682
0.847813
0.84787
0.84357
0.834652
0.82088
0.802057
0.778025
0.74868
0.713977
0.673934
0.628642
0.578271
0.523067
0.463359
0.399553
0.332133
0.261649
0.18871
0.113938
0.0380847
0.0177045
0.0531018
0.088531
0.124036
0.159615
0.19528
0.23104
0.266895
0.302839
0.338854
0.374914
0.410979
0.446995
0.482896
0.518599
0.554003
0.58899
0.623424
0.657147
0.689982
0.721731
0.752172
0.781066
0.808149
0.833141
0.855742
0.875634
0.892487
0.905962
0.915711
0.921388
0.92265
0.919169
0.910632
0.896759
0.877305
0.852073
0.820921
0.783774
0.740632
0.691576
0.636777
0.576497
0.511095
0.441023
0.366822
0.289115
0.208594
0.125975
0.0421148
0.0187958
0.0563789
0.0940053
0.131727
0.169549
0.207491
0.245567
0.283786
0.322145
0.360634
0.399228
0.437892
0.476576
0.515213
0.55372
0.591995
0.629917
0.667342
0.704106
0.740021
0.774875
0.808432
0.84043
0.870585
0.898588
0.924107
0.946791
0.96627
0.982161
0.99407
1.0016
1.00435
1.00194
0.994006
0.980203
0.960235
0.933853
0.900871
0.861176
0.814739
0.761628
0.70201
0.636165
0.56448
0.487457
0.405704
0.319927
0.230915
0.139494
0.0466419
0.0199406
0.0598168
0.099749
0.139799
0.179978
0.220314
0.260831
0.301543
0.342454
0.383559
0.424841
0.466268
0.507793
0.549352
0.590863
0.632222
0.673305
0.713965
0.754028
0.793298
0.831549
0.868529
0.903956
0.93752
0.968885
0.997686
1.02353
1.04601
1.0647
1.07914
1.08887
1.09346
1.09243
1.08537
1.07186
1.05154
1.0241
0.989301
0.946976
0.897062
0.839602
0.774758
0.70282
0.62421
0.539482
0.449319
0.354522
0.255995
0.154692
0.0517324
0.0211367
0.0634093
0.105752
0.148237
0.190883
0.23373
0.276807
0.320138
0.363735
0.4076
0.451723
0.496076
0.540618
0.585287
0.630004
0.674665
0.719145
0.763291
0.806925
0.84984
0.891798
0.932529
0.971733
1.00908
1.04419
1.07667
1.1061
1.132
1.1539
1.1713
1.18367
1.19048
1.19121
1.18536
1.17243
1.15199
1.12364
1.08708
1.04207
0.988518
0.926419
0.855925
0.777333
0.691097
0.597829
0.498298
0.393413
0.284213
0.171799
0.0574644
0.0223818
0.0671489
0.112002
0.157024
0.202244
0.247711
0.293464
0.339537
0.385952
0.432718
0.479831
0.527273
0.575007
0.622978
0.671106
0.719293
0.76741
0.815304
0.862791
0.909655
0.955647
1.00048
1.04384
1.08535
1.12464
1.16124
1.19471
1.22451
1.25012
1.27096
1.28645
1.29596
1.29891
1.29468
1.28269
1.26242
1.23338
1.19517
1.14749
1.09015
1.02314
0.946555
0.860709
0.766084
0.663354
0.553382
0.437204
0.316014
0.191092
0.0639304
0.0236727
0.0710268
0.118484
0.16614
0.214034
0.262226
0.310767
0.359701
0.409059
0.458862
0.509114
0.559806
0.610906
0.662367
0.714115
0.766053
0.818055
0.869966
0.921599
0.97273
1.0231
1.07241
1.12032
1.16644
1.21035
1.25157
1.28958
1.32382
1.35369
1.37854
1.3977
1.41048
1.41617
1.41407
1.40349
1.38377
1.35433
1.31466
1.26436
1.20316
1.13097
1.04786
0.954122
0.850278
0.737063
0.615445
0.486609
0.351927
0.212894
0.0712402
0.0250061
0.0750326
0.125181
0.17556
0.226222
0.277238
0.328672
0.380579
0.433003
0.485974
0.539508
0.593605
0.648245
0.703385
0.758959
0.814876
0.871013
0.927217
0.983297
1.03903
1.09414
1.14832
1.20121
1.2524
1.30143
1.34779
1.39091
1.43018
1.46492
1.49442
1.51792
1.53461
1.54369
1.54433
1.53571
1.51705
1.48762
1.44678
1.394
1.3289
1.2513
1.16123
1.05894
0.944975
0.820142
0.685526
0.542478
0.392585
0.237595
0.0795252
0.026378
0.0791544
0.132073
0.185258
0.238774
0.292705
0.347129
0.402114
0.457717
0.513982
0.570936
0.62859
0.686935
0.74594
0.805546
0.86567
0.926194
0.986969
1.04781
1.10847
1.1687
1.22816
1.28648
1.34323
1.39792
1.45
1.49886
1.54382
1.58414
1.61901
1.64759
1.66896
1.68219
1.68631
1.68035
1.66338
1.63449
1.59288
1.53787
1.46893
1.38576
1.2883
1.17677
1.05171
0.914
0.764858
0.605827
0.438745
0.265663
0.0889434
0.0277839
0.0833787
0.139138
0.195202
0.251648
0.308576
0.366079
0.42424
0.483128
0.542803
0.603306
0.664662
0.726874
0.789923
0.853762
0.918317
0.983481
1.04911
1.11501
1.18097
1.2467
1.31188
1.3761
1.43894
1.49986
1.55829
1.61356
1.66493
1.7116
1.75268
1.78719
1.81413
1.83241
1.84089
1.83846
1.82396
1.79631
1.75449
1.69763
1.62503
1.5362
1.43097
1.30949
1.17229
1.02032
0.854923
0.677879
0.491321
0.297663
0.0996863
0.0292187
0.0876904
0.146351
0.205355
0.264799
0.324797
0.385457
0.446879
0.509149
0.572342
0.636514
0.701707
0.767938
0.835203
0.903469
0.972675
1.04272
1.11348
1.18477
1.25637
1.32801
1.39934
1.46997
1.53944
1.6072
1.67265
1.73507
1.79366
1.84755
1.89575
1.93719
1.97072
1.99509
2.009
2.01112
2.00009
1.97457
1.93331
1.87518
1.79923
1.70477
1.59146
1.45933
1.30888
1.1411
0.957507
0.760117
0.551425
0.334283
0.111987
0.0306768
0.0920724
0.153682
0.21568
0.278176
0.341303
0.405188
0.469947
0.535683
0.602488
0.670439
0.739592
0.809983
0.881626
0.954504
1.02857
1.10375
1.17991
1.2569
1.3345
1.41243
1.49037
1.56792
1.6446
1.71986
1.79304
1.8634
1.93009
1.99215
2.04852
2.09799
2.13928
2.17098
2.19158
2.19951
2.19317
2.17093
2.13123
2.07263
1.99387
1.89399
1.77239
1.62894
1.46407
1.27879
1.07477
0.854346
0.620415
0.376369
0.126132
0.032152
0.0965064
0.161102
0.226131
0.291723
0.358028
0.425191
0.493347
0.56262
0.633121
0.704944
0.778168
0.852847
0.929016
1.00668
1.08581
1.16634
1.24818
1.33116
1.41511
1.49975
1.58476
1.66975
1.75424
1.83765
1.91933
1.99848
2.07421
2.1455
2.21118
2.26994
2.32034
2.36078
2.38956
2.40483
2.40468
2.38716
2.35033
2.29236
2.21162
2.10674
1.97682
1.82146
1.64095
1.43631
1.20937
0.962784
0.699967
0.424964
0.142477
0.0336376
0.100972
0.168576
0.236662
0.305378
0.374894
0.445375
0.516976
0.589842
0.664104
0.739879
0.817266
0.896345
0.977171
1.05977
1.14414
1.23025
1.318
1.40729
1.49792
1.58966
1.6822
1.77516
1.86806
1.96033
2.05129
2.14014
2.22593
2.30758
2.38384
2.45328
2.51431
2.56516
2.60385
2.62826
2.63615
2.62516
2.5929
2.53708
2.45553
2.34642
2.20837
2.04065
1.84329
1.61727
1.36455
1.08818
0.792166
0.48137
0.161463
0.0351264
0.105448
0.176068
0.247222
0.319075
0.391821
0.465643
0.540719
0.617215
0.695287
0.775075
0.856701
0.940271
1.02587
1.11354
1.20332
1.29519
1.3891
1.48495
1.58259
1.68182
1.78234
1.88378
1.98571
2.08754
2.18861
2.28808
2.38501
2.47825
2.56647
2.64814
2.72153
2.78464
2.83528
2.871
2.88916
2.88694
2.86144
2.80975
2.72908
2.61694
2.47135
2.29103
2.07567
1.82607
1.54435
1.23395
0.899621
0.547222
0.183648
0.0366106
0.10991
0.18354
0.257755
0.332744
0.408719
0.485888
0.564451
0.644599
0.726509
0.810349
0.896269
0.984399
1.07485
1.16771
1.26303
1.36083
1.4611
1.56377
1.66873
1.77579
1.88471
1.99516
2.10671
2.21881
2.33081
2.44189
2.55108
2.6572
2.75887
2.85447
2.94212
3.01964
3.08457
3.13413
3.16526
3.1746
3.15863
3.1137
3.03622
2.92287
2.77082
2.57805
2.34367
2.0682
1.7538
1.4044
1.02563
0.624591
0.209737
0.038082
0.114334
0.190949
0.268204
0.346307
0.425496
0.506
0.588043
0.67184
0.757597
0.845506
0.935747
1.02848
1.12385
1.22197
1.32294
1.42682
1.53362
1.64332
1.75586
1.87109
1.98881
2.10874
2.23049
2.35356
2.47732
2.60098
2.72358
2.84394
2.96064
3.072
3.17601
3.27033
3.35224
3.4186
3.46591
3.49022
3.48726
3.45253
3.38143
3.26951
3.11283
2.9083
2.65418
2.35046
1.99926
1.605
1.1744
0.716125
0.240636
0.0395322
0.118695
0.198254
0.278507
0.359687
0.442053
0.525859
0.611353
0.698777
0.788364
0.880335
0.9749
1.07225
1.17257
1.27601
1.3827
1.49275
1.60621
1.72312
1.84346
1.96714
2.09402
2.22387
2.35636
2.49105
2.62738
2.76459
2.90176
3.03775
3.17114
3.30019
3.42284
3.5366
3.6385
3.7251
3.79238
3.83579
3.85023
3.83013
3.76966
3.66296
3.50453
3.28981
3.01573
2.68144
2.2888
1.84275
1.35132
0.825235
0.277509
0.0409523
0.122966
0.205408
0.288602
0.372801
0.458288
0.545342
0.634237
0.725242
0.818617
0.914614
1.01348
1.11543
1.2207
1.32946
1.44191
1.55818
1.6784
1.80265
1.93096
2.06332
2.19965
2.3398
2.48351
2.63043
2.78006
2.93175
3.08464
3.23764
3.38939
3.53818
3.68188
3.81793
3.9432
4.05392
4.14563
4.2131
4.25032
4.25055
4.2064
4.11021
3.95442
3.73235
3.43898
3.07203
2.63278
2.12668
1.56342
0.956349
0.32187
0.0423331
0.127119
0.212367
0.298423
0.385563
0.474095
0.564322
0.656544
0.751057
0.848152
0.948112
1.05121
1.15772
1.26789
1.38195
1.50014
1.62265
1.74966
1.8813
2.0177
2.1589
2.30491
2.45565
2.61099
2.77066
2.93428
3.1013
3.27098
3.44234
3.61412
3.78467
3.95195
4.11334
4.26563
4.40482
4.52605
4.62345
4.69007
4.71781
4.6975
4.61917
4.47254
4.2479
3.93733
3.53621
3.04466
2.46861
1.81984
1.11524
0.37569
0.0436655
0.131127
0.219083
0.307904
0.397888
0.489366
0.582668
0.678119
0.776043
0.876761
0.980588
1.08784
1.19881
1.31379
1.43309
1.55696
1.68566
1.81942
1.95847
2.10299
2.2531
2.40893
2.57049
2.73775
2.91059
3.08875
3.27183
3.45926
3.65023
3.84362
4.03796
4.23133
4.42121
4.60439
4.7768
4.93328
5.06744
5.17139
5.23564
5.24897
5.19858
5.07062
4.85112
4.52776
4.09211
3.54214
2.88408
2.13261
1.30948
0.441541
0.0449402
0.134961
0.22551
0.316978
0.409688
0.503994
0.600249
0.698806
0.800017
0.904233
1.0118
1.12307
1.23837
1.35806
1.48246
1.61189
1.74668
1.88712
2.03349
2.18608
2.3451
2.51077
2.68324
2.8626
3.04888
3.24199
3.44173
3.64771
3.85936
4.07579
4.29579
4.51767
4.73916
4.95723
5.16788
5.36589
5.54452
5.69516
5.80697
5.86653
5.85777
5.76222
5.55999
5.23205
4.76365
4.14882
3.39382
2.51759
1.54889
0.522748
0.0461479
0.138594
0.2316
0.32558
0.420877
0.517869
0.616933
0.718449
0.822796
0.930353
1.0415
1.15663
1.2761
1.40032
1.52965
1.66447
1.80518
1.95212
2.10567
2.26619
2.434
2.60944
2.79277
2.98426
3.18409
3.39238
3.60914
3.83426
4.06741
4.30807
4.55535
4.80795
5.06399
5.32083
5.57481
5.82096
6.05253
6.26055
6.43313
6.55483
6.60599
6.5625
6.39639
6.07836
5.58299
4.89676
4.02564
2.99559
1.84612
0.623524
0.0472796
0.141999
0.237309
0.333645
0.43137
0.530885
0.632592
0.736894
0.844198
0.954912
1.06945
1.18823
1.31167
1.44019
1.57424
1.71423
1.8606
2.01381
2.1743
2.34251
2.51888
2.70386
2.89788
3.10135
3.31465
3.53812
3.77203
4.01655
4.27174
4.53745
4.81325
5.09837
5.39151
5.69067
5.99285
6.29372
6.58708
6.86419
7.11283
7.31612
7.45112
7.48743
7.38655
7.10363
6.59454
5.83072
4.81725
3.59358
2.21686
0.748969
0.0483267
0.14515
0.242592
0.341109
0.441084
0.54294
0.647099
0.753991
0.864047
0.977704
1.09541
1.2176
1.34476
1.47733
1.61581
1.76067
1.91242
2.07157
2.23866
2.41421
2.59879
2.79297
2.99732
3.21243
3.43889
3.67728
3.92816
4.19204
4.46938
4.7605
5.06555
5.38441
5.71656
6.06091
6.41551
6.77717
7.14091
7.49916
7.84054
8.14818
8.39722
8.55164
8.56059
8.35668
7.86222
7.01548
5.81995
4.34517
2.67918
0.904674
0.049281
0.148021
0.247407
0.347913
0.449941
0.553934
0.660336
0.769597
0.882174
0.998531
1.11914
1.24448
1.37506
1.51138
1.65395
1.80334
1.96008
2.12478
2.29804
2.48049
2.6728
2.87566
3.08981
3.31602
3.55509
3.80786
4.07519
4.35797
4.6571
4.97343
5.30778
5.66082
6.03299
6.42438
6.83445
7.26173
7.70328
8.15387
8.60471
9.04134
9.44026
9.76341
9.94938
9.90191
9.48358
8.55018
7.10279
5.28854
3.25041
1.09544
0.0501346
0.15059
0.251715
0.354001
0.457868
0.563776
0.672189
0.783577
0.89842
1.01721
1.14044
1.26862
1.40229
1.54199
1.68829
1.84178
2.00309
2.17285
2.35175
2.54054
2.73996
2.95086
3.17411
3.41066
3.66153
3.92783
4.21072
4.5115
4.83151
5.17221
5.53512
5.9218
6.33383
6.77267
7.23956
7.73526
8.25969
8.81125
9.38581
9.97473
10.5614
11.1145
11.5735
11.8197
11.6214
10.6
8.75338
6.45637
3.93888
1.32236
0.0508806
0.152835
0.25548
0.359323
0.464798
0.572382
0.682556
0.795809
0.91264
1.03356
1.15909
1.28978
1.42618
1.56887
1.71846
1.8756
2.04094
2.21521
2.39916
2.5936
2.79941
3.01754
3.249
3.49492
3.75652
4.03518
4.33236
4.64975
4.98917
5.35266
5.7425
6.16119
6.6115
7.09644
7.61926
8.18333
8.79206
9.44859
10.1553
10.9129
11.7186
12.5617
13.4124
14.1835
14.5838
13.4764
10.8552
7.84527
4.72679
1.57769
0.0515129
0.154737
0.258671
0.363832
0.47067
0.579675
0.691344
0.806181
0.924702
1.04744
1.17493
1.30775
1.44648
1.59173
1.74414
1.9044
2.07322
2.25136
2.43966
2.639
2.85033
3.07473
3.31334
3.56745
3.83847
4.128
4.43783
4.76997
5.12671
5.51069
5.92488
6.37273
6.85822
7.38591
7.96113
8.59003
9.27977
10.0387
10.8767
11.8056
12.8407
14.0035
15.3327
16.9199
19.0553
17.8677
13.3467
9.34329
5.54572
1.83954
0.0520264
0.156282
0.26126
0.36749
0.475434
0.585592
0.698474
0.814598
0.934494
1.05871
1.1878
1.32236
1.46299
1.61032
1.76505
1.92786
2.09953
2.28086
2.47273
2.6761
2.89201
3.1216
3.36614
3.62706
3.90594
4.20457
4.52501
4.8696
5.24103
5.64244
6.07748
6.55044
7.06641
7.63144
8.25278
8.9392
9.70142
10.5527
11.5099
12.5948
13.8373
15.2811
16.9969
19.1097
21.8514
20.5934
15.3217
10.636
6.27367
2.0745
0.0524166
0.157457
0.263228
0.370266
0.479046
0.590079
0.703882
0.820982
0.941922
1.06726
1.19757
1.33345
1.47552
1.62446
1.78094
1.94571
2.11955
2.30332
2.49794
2.7044
2.92382
3.15741
3.40654
3.67272
3.95769
4.2634
4.59212
4.94643
5.32938
5.74452
6.19604
6.68896
7.22927
7.82426
8.48281
9.21589
10.0372
10.9639
12.0182
13.2291
14.635
16.289
18.2661
20.6723
23.6487
22.3341
16.7114
11.6061
6.83884
2.25954
0.0526785
0.158252
0.264557
0.372133
0.481474
0.593094
0.707515
0.825273
0.946915
1.07301
1.20413
1.34091
1.48396
1.63397
1.79164
1.95772
2.13304
2.31846
2.51494
2.7235
2.9453
3.18162
3.43386
3.70363
3.99275
4.30331
4.63769
4.99869
5.38957
5.81419
6.27713
6.7839
7.34119
7.95713
8.6418
9.40771
10.2706
11.2505
12.3729
13.6708
15.1869
16.9761
19.1081
21.6664
24.7383
23.3842
17.5845
12.2389
7.21646
2.38457
0.0527982
0.158636
0.265221
0.37307
0.482693
0.594608
0.70934
0.827428
0.949423
1.0759
1.20743
1.34465
1.4882
1.63875
1.79702
1.96377
2.13983
2.32608
2.52349
2.73312
2.95613
3.19381
3.44763
3.71923
4.01046
4.32347
4.66074
5.02514
5.42006
5.84952
6.3183
6.83218
7.39817
8.0249
8.72303
9.50589
10.3903
11.3976
12.5549
13.897
15.468
17.3226
19.5258
22.1487
25.2555
23.881
18.0045
12.5489
7.40401
2.44708
)
;

boundaryField
{
    walls
    {
        type            calculated;
        value           nonuniform List<scalar> 
200
(
0.0527982
0.158636
0.265221
0.37307
0.482693
0.594608
0.70934
0.827428
0.949423
1.0759
1.20743
1.34465
1.4882
1.63875
1.79702
1.96377
2.13983
2.32608
2.52349
2.73312
2.95613
3.19381
3.44763
3.71923
4.01046
4.32347
4.66074
5.02514
5.42006
5.84952
6.3183
6.83218
7.39817
8.0249
8.72303
9.50589
10.3903
11.3976
12.5549
13.897
15.468
17.3226
19.5258
22.1487
25.2555
23.881
18.0045
12.5489
7.40401
2.44708
0
0
0
0
0
0
0
0
0
0
0
0
0
0
0
0
0
0
0
0
0
0
0
0
0
0
0
0
0
0
0
0
0
0
0
0
0
0
0
0
0
0
0
0
0
0
0
0
0
0
0
0
0
0
0
0
0
0
0
0
0
0
0
0
0
0
0
0
0
0
0
0
0
0
0
0
0
0
0
0
0
0
0
0
0
0
0
0
0
0
0
0
0
0
0
0
0
0
0
0
0.00791607
0.0237202
0.0394887
0.0552147
0.0708586
0.0863947
0.101796
0.117033
0.132074
0.146885
0.161428
0.175664
0.189549
0.203037
0.216077
0.228618
0.240602
0.251971
0.262662
0.272613
0.281756
0.290025
0.297352
0.303668
0.308906
0.312999
0.315885
0.317502
0.317795
0.316712
0.314211
0.310253
0.304811
0.297864
0.289406
0.279438
0.267974
0.255041
0.240679
0.224939
0.207887
0.189603
0.170175
0.149707
0.128312
0.106115
0.0832458
0.0598445
0.0360569
0.0120426
)
;
    }
    frontAndBack
    {
        type            empty;
    }
}


// ************************************************************************* //
