/*--------------------------------*- C++ -*----------------------------------*\
| =========                 |                                                 |
| \\      /  F ield         | OpenFOAM: The Open Source CFD Toolbox           |
|  \\    /   O peration     | Version:  2406                                  |
|   \\  /    A nd           | Website:  www.openfoam.com                      |
|    \\/     M anipulation  |                                                 |
\*---------------------------------------------------------------------------*/
FoamFile
{
    version     2.0;
    format      ascii;
    arch        "LSB;label=32;scalar=64";
    class       volScalarField;
    location    "1.7";
    object      T;
}
// * * * * * * * * * * * * * * * * * * * * * * * * * * * * * * * * * * * * * //

dimensions      [0 0 0 1 0 0 0];

internalField   nonuniform List<scalar> 
2500
(
0.250404
0.250721
0.251353
0.2523
0.253561
0.255135
0.257017
0.259206
0.261699
0.264489
0.267574
0.270947
0.274601
0.278529
0.282722
0.287172
0.291867
0.296796
0.301946
0.307302
0.31285
0.318572
0.324451
0.330467
0.336598
0.342823
0.349118
0.355458
0.361818
0.36817
0.374486
0.380738
0.386896
0.392931
0.398811
0.404507
0.409989
0.415226
0.42019
0.424853
0.429188
0.433169
0.436772
0.439976
0.44276
0.445108
0.447005
0.448438
0.449399
0.44988
0.250721
0.25104
0.251676
0.25263
0.253901
0.255485
0.257381
0.259586
0.262097
0.264908
0.268015
0.271413
0.275095
0.279052
0.283278
0.287762
0.292494
0.297462
0.302654
0.308054
0.313648
0.319418
0.325346
0.331413
0.337598
0.343878
0.350229
0.356627
0.363045
0.369456
0.375832
0.382143
0.388361
0.394454
0.400392
0.406145
0.411682
0.416973
0.421988
0.426699
0.431079
0.435102
0.438743
0.441981
0.444795
0.447169
0.449086
0.450535
0.451506
0.451992
0.251353
0.251676
0.252322
0.25329
0.254578
0.256185
0.258108
0.260345
0.262891
0.265744
0.268897
0.272345
0.276082
0.280099
0.284389
0.288943
0.293749
0.298795
0.30407
0.309557
0.315243
0.321109
0.327137
0.333308
0.339599
0.345989
0.352453
0.358966
0.365501
0.37203
0.378525
0.384956
0.391293
0.397504
0.403559
0.409426
0.415073
0.420471
0.425589
0.430397
0.434868
0.438975
0.442693
0.445999
0.448874
0.451298
0.453256
0.454736
0.455729
0.456226
0.2523
0.25263
0.25329
0.254277
0.255593
0.257234
0.259198
0.261482
0.264083
0.266997
0.270219
0.273743
0.277562
0.281669
0.286057
0.290714
0.295631
0.300796
0.306195
0.311814
0.317638
0.323648
0.329826
0.336153
0.342605
0.349161
0.355795
0.362481
0.369192
0.3759
0.382575
0.389186
0.395703
0.402092
0.408322
0.414361
0.420177
0.425736
0.431008
0.435963
0.440571
0.444805
0.448639
0.45205
0.455015
0.457515
0.459536
0.461064
0.462088
0.462601
0.253561
0.253901
0.254578
0.255593
0.256944
0.25863
0.260649
0.262997
0.265671
0.268667
0.27198
0.275605
0.279535
0.283763
0.28828
0.293077
0.298142
0.303465
0.309031
0.314826
0.320835
0.327038
0.333418
0.339953
0.346622
0.353399
0.360261
0.36718
0.374128
0.381075
0.387992
0.394845
0.401603
0.408232
0.414699
0.42097
0.42701
0.432787
0.438268
0.44342
0.448214
0.452619
0.456609
0.460159
0.463246
0.465851
0.467956
0.469547
0.470614
0.471148
0.255135
0.255485
0.256185
0.257234
0.25863
0.260373
0.26246
0.264887
0.267653
0.270752
0.27418
0.277932
0.282001
0.286379
0.291059
0.29603
0.301282
0.306803
0.31258
0.318596
0.324837
0.331283
0.337916
0.344714
0.351654
0.358712
0.365861
0.373073
0.380319
0.387569
0.39479
0.401949
0.409012
0.415944
0.42271
0.429273
0.435599
0.441651
0.447396
0.452798
0.457826
0.462449
0.466637
0.470364
0.473606
0.476342
0.478554
0.480226
0.481347
0.481909
0.257017
0.257381
0.258108
0.259198
0.260649
0.26246
0.264628
0.267152
0.270027
0.273251
0.276818
0.280722
0.284958
0.289518
0.294394
0.299575
0.305053
0.310813
0.316842
0.323126
0.329647
0.336387
0.343326
0.350442
0.357711
0.365107
0.372604
0.380172
0.38778
0.395397
0.402988
0.410518
0.417952
0.425252
0.432381
0.439301
0.445974
0.452362
0.458428
0.464135
0.469449
0.474337
0.478767
0.48271
0.486142
0.489038
0.491379
0.49315
0.494338
0.494933
0.259206
0.259586
0.260345
0.261482
0.262997
0.264887
0.267152
0.269788
0.272792
0.276161
0.27989
0.283973
0.288405
0.293177
0.298283
0.303712
0.309453
0.315494
0.321821
0.328419
0.33527
0.342356
0.349655
0.357145
0.364801
0.372597
0.380504
0.388491
0.396527
0.404577
0.412605
0.420575
0.428448
0.436184
0.443744
0.451087
0.458172
0.464958
0.471406
0.477475
0.48313
0.488333
0.49305
0.497252
0.500909
0.503996
0.506493
0.508381
0.509648
0.510282
0.261699
0.262097
0.262891
0.264083
0.265671
0.267653
0.270027
0.272792
0.275944
0.279479
0.283394
0.287683
0.292339
0.297357
0.302726
0.308439
0.314484
0.320848
0.327518
0.334478
0.341709
0.349193
0.356908
0.36483
0.372934
0.381192
0.389574
0.398047
0.406578
0.41513
0.423667
0.432147
0.44053
0.448774
0.456835
0.464671
0.472236
0.479487
0.48638
0.492873
0.498925
0.504496
0.50955
0.514053
0.517974
0.521285
0.523963
0.525989
0.527349
0.52803
0.264489
0.264908
0.265744
0.266997
0.268667
0.270752
0.273251
0.276161
0.279479
0.283203
0.287328
0.291848
0.296759
0.302053
0.307722
0.313757
0.320146
0.326876
0.333935
0.341305
0.348968
0.356905
0.365093
0.373507
0.382121
0.390906
0.399829
0.408857
0.417954
0.427081
0.436199
0.445263
0.454232
0.463058
0.471695
0.480097
0.488214
0.496
0.503406
0.510387
0.516898
0.522895
0.528337
0.533189
0.537414
0.540984
0.543872
0.546058
0.547524
0.548259
0.267574
0.268015
0.268897
0.270219
0.27198
0.27418
0.276818
0.27989
0.283394
0.287328
0.291687
0.296467
0.301662
0.307265
0.313268
0.319663
0.326437
0.333578
0.341072
0.348903
0.357051
0.365497
0.374217
0.383185
0.392373
0.401751
0.411286
0.420941
0.430677
0.440455
0.450231
0.459958
0.46959
0.479078
0.48837
0.497415
0.506162
0.514557
0.522549
0.530087
0.537121
0.543604
0.549492
0.554742
0.559316
0.563183
0.566312
0.56868
0.570269
0.571066
0.270947
0.271413
0.272345
0.273743
0.275605
0.277932
0.280722
0.283973
0.287683
0.291848
0.296467
0.301533
0.307043
0.312988
0.319362
0.326155
0.333356
0.340953
0.348931
0.357274
0.365962
0.374974
0.384286
0.393872
0.403702
0.413743
0.423961
0.434318
0.444772
0.455279
0.465794
0.476266
0.486646
0.496878
0.506909
0.516681
0.526139
0.535223
0.543878
0.552047
0.559676
0.566711
0.573103
0.578806
0.583778
0.587981
0.591384
0.59396
0.59569
0.596557
0.274601
0.275095
0.276082
0.277562
0.279535
0.282001
0.284958
0.288405
0.292339
0.296759
0.301662
0.307043
0.312897
0.319218
0.325999
0.33323
0.340901
0.349
0.357511
0.366419
0.375702
0.38534
0.395308
0.405577
0.416117
0.426895
0.437872
0.449009
0.460261
0.471582
0.482921
0.494226
0.505441
0.516508
0.527366
0.537954
0.54821
0.55807
0.567472
0.576352
0.58465
0.592309
0.599271
0.605486
0.610908
0.615493
0.619206
0.622018
0.623905
0.624852
0.278529
0.279052
0.280099
0.281669
0.283763
0.286379
0.289518
0.293177
0.297357
0.302053
0.307265
0.312988
0.319218
0.325949
0.333173
0.340884
0.349069
0.357716
0.366811
0.376337
0.386274
0.396599
0.407286
0.418308
0.429631
0.44122
0.453036
0.465035
0.477171
0.489393
0.501648
0.513877
0.526022
0.538017
0.549799
0.561299
0.572447
0.583176
0.593413
0.603092
0.612142
0.620501
0.628105
0.634898
0.640825
0.645841
0.649904
0.652981
0.655048
0.656085
0.282722
0.283278
0.284389
0.286057
0.28828
0.291059
0.294394
0.298283
0.302726
0.307722
0.313268
0.319362
0.325999
0.333173
0.34088
0.34911
0.357853
0.367097
0.376827
0.387027
0.397676
0.408752
0.420227
0.432072
0.444253
0.456732
0.469469
0.482417
0.495526
0.508743
0.522008
0.535261
0.548435
0.561462
0.574269
0.586782
0.598926
0.610622
0.621794
0.632365
0.642258
0.651402
0.659726
0.667166
0.673662
0.679162
0.683619
0.686996
0.689264
0.690402
0.287172
0.287762
0.288943
0.290714
0.293077
0.29603
0.299575
0.303712
0.308439
0.313757
0.319663
0.326155
0.33323
0.340884
0.34911
0.357901
0.367247
0.377136
0.387555
0.398486
0.409908
0.421799
0.434131
0.446873
0.45999
0.473442
0.487187
0.501174
0.515351
0.52966
0.544039
0.558419
0.57273
0.586896
0.600839
0.614477
0.627726
0.640499
0.652712
0.664277
0.675112
0.685133
0.694264
0.702429
0.709564
0.715606
0.720506
0.724219
0.726713
0.727965
0.291867
0.292494
0.293749
0.295631
0.298142
0.301282
0.305053
0.309453
0.314484
0.320146
0.326437
0.333356
0.340901
0.349069
0.357853
0.367247
0.377242
0.387827
0.398987
0.410707
0.422965
0.435738
0.448998
0.462714
0.476848
0.491359
0.506202
0.521324
0.536669
0.552175
0.567774
0.583394
0.598956
0.614379
0.629577
0.644459
0.658931
0.6729
0.68627
0.698944
0.710827
0.721828
0.73186
0.740837
0.748686
0.755338
0.760733
0.764824
0.767573
0.768953
0.296796
0.297462
0.298795
0.300796
0.303465
0.306803
0.310813
0.315494
0.320848
0.326876
0.333578
0.340953
0.349
0.357716
0.367097
0.377136
0.387827
0.399157
0.411115
0.423682
0.43684
0.450565
0.464827
0.479595
0.49483
0.51049
0.526526
0.542883
0.559501
0.576314
0.593248
0.610226
0.627163
0.643969
0.660549
0.676804
0.692632
0.707925
0.722579
0.736484
0.749536
0.76163
0.772667
0.782553
0.791201
0.798535
0.804487
0.809001
0.812035
0.813558
0.301946
0.302654
0.30407
0.306195
0.309031
0.31258
0.316842
0.321821
0.327518
0.333935
0.341072
0.348931
0.357511
0.366811
0.376827
0.387555
0.398987
0.411115
0.423924
0.437401
0.451524
0.46627
0.481611
0.497512
0.513936
0.530838
0.548166
0.565863
0.583866
0.602102
0.620494
0.638957
0.6574
0.675724
0.693825
0.711594
0.728918
0.745677
0.761754
0.777028
0.79138
0.804691
0.816851
0.827751
0.837295
0.845392
0.851967
0.856957
0.860311
0.861996
0.307302
0.308054
0.309557
0.311814
0.314826
0.318596
0.323126
0.328419
0.334478
0.341305
0.348903
0.357274
0.366419
0.376337
0.387027
0.398486
0.410707
0.423682
0.437401
0.451847
0.467001
0.482842
0.499339
0.516459
0.534162
0.552402
0.571126
0.590274
0.609777
0.62956
0.64954
0.669624
0.689714
0.709702
0.729474
0.74891
0.767884
0.786264
0.803918
0.820711
0.836508
0.851176
0.864588
0.876623
0.887168
0.896121
0.903396
0.908918
0.912632
0.914498
0.31285
0.313648
0.315243
0.317638
0.320835
0.324837
0.329647
0.33527
0.341709
0.348968
0.357051
0.365962
0.375702
0.386274
0.397676
0.409908
0.422965
0.43684
0.451524
0.467001
0.483256
0.500263
0.517997
0.536422
0.555498
0.575177
0.595405
0.616118
0.637246
0.658706
0.680411
0.702261
0.724149
0.745958
0.767564
0.788833
0.809625
0.829797
0.849198
0.867676
0.88508
0.90126
0.91607
0.929373
0.941039
0.950952
0.959011
0.965133
0.969251
0.971321
0.318572
0.319418
0.321109
0.323648
0.327038
0.331283
0.336387
0.342356
0.349193
0.356905
0.365497
0.374974
0.38534
0.396599
0.408752
0.421799
0.435738
0.450565
0.46627
0.482842
0.500263
0.518513
0.537565
0.557383
0.577928
0.59915
0.620994
0.643394
0.666275
0.68955
0.713126
0.736897
0.760746
0.784546
0.80816
0.831443
0.85424
0.876388
0.897723
0.918071
0.937263
0.955128
0.9715
0.986221
0.999144
1.01013
1.01908
1.02587
1.03044
1.03274
0.324451
0.325346
0.327137
0.329826
0.333418
0.337916
0.343326
0.349655
0.356908
0.365093
0.374217
0.384286
0.395308
0.407286
0.420227
0.434131
0.448998
0.464827
0.481611
0.499339
0.517997
0.537565
0.558016
0.579318
0.60143
0.624304
0.64788
0.672092
0.696861
0.722097
0.747699
0.773555
0.799538
0.825511
0.851325
0.876819
0.901822
0.926154
0.949628
0.972053
0.993235
1.01298
1.0311
1.04741
1.06174
1.07394
1.08388
1.09143
1.09652
1.09907
0.330467
0.331413
0.333308
0.336153
0.339953
0.344714
0.350442
0.357145
0.36483
0.373507
0.383185
0.393872
0.405577
0.418308
0.432072
0.446873
0.462714
0.479595
0.497512
0.516459
0.536422
0.557383
0.579318
0.602196
0.625976
0.65061
0.676039
0.702193
0.728991
0.75634
0.784133
0.812248
0.840552
0.868895
0.897115
0.925035
0.952466
0.979208
1.00505
1.02978
1.05318
1.07502
1.09509
1.11319
1.1291
1.14267
1.15372
1.16213
1.1678
1.17065
0.336598
0.337598
0.339599
0.342605
0.346622
0.351654
0.357711
0.364801
0.372934
0.382121
0.392373
0.403702
0.416117
0.429631
0.444253
0.45999
0.476848
0.49483
0.513936
0.534162
0.555498
0.577928
0.60143
0.625976
0.651526
0.678033
0.705438
0.733669
0.762645
0.792266
0.822422
0.852983
0.883806
0.914731
0.945579
0.976159
1.00626
1.03566
1.06413
1.09142
1.11729
1.14148
1.16374
1.18383
1.20154
1.21664
1.22896
1.23834
1.24466
1.24784
0.342823
0.343878
0.345989
0.349161
0.353399
0.358712
0.365107
0.372597
0.381192
0.390906
0.401751
0.413743
0.426895
0.44122
0.456732
0.473442
0.491359
0.51049
0.530838
0.552402
0.575177
0.59915
0.624304
0.65061
0.678033
0.706527
0.736033
0.766481
0.797786
0.829847
0.862546
0.89575
0.929305
0.963038
0.996757
1.03025
1.06329
1.09563
1.12701
1.15715
1.18576
1.21258
1.2373
1.25965
1.27936
1.29621
1.30996
1.32044
1.32751
1.33107
0.349118
0.350229
0.352453
0.355795
0.360261
0.365861
0.372604
0.380504
0.389574
0.399829
0.411286
0.423961
0.437872
0.453036
0.469469
0.487187
0.506202
0.526526
0.548166
0.571126
0.595405
0.620994
0.64788
0.676039
0.705438
0.736033
0.767769
0.800575
0.834366
0.869039
0.904473
0.940527
0.977039
1.01382
1.05067
1.08736
1.12363
1.15921
1.19381
1.22712
1.25881
1.28857
1.31605
1.34095
1.36294
1.38176
1.39714
1.40887
1.41679
1.42078
0.355458
0.356627
0.358966
0.362481
0.36718
0.373073
0.380172
0.388491
0.398047
0.408857
0.420941
0.434318
0.449009
0.465035
0.482417
0.501174
0.521324
0.542883
0.565863
0.590274
0.616118
0.643394
0.672092
0.702193
0.733669
0.766481
0.800575
0.835884
0.872322
0.909786
0.948152
0.987273
1.02698
1.06708
1.10734
1.14752
1.18734
1.2265
1.26468
1.30151
1.33665
1.3697
1.4003
1.42808
1.45266
1.47372
1.49096
1.50412
1.51302
1.5175
0.361818
0.363045
0.365501
0.369192
0.374128
0.380319
0.38778
0.396527
0.406578
0.417954
0.430677
0.444772
0.460261
0.477171
0.495526
0.515351
0.536669
0.559501
0.583866
0.609777
0.637246
0.666275
0.696861
0.728991
0.762645
0.797786
0.834366
0.872322
0.91157
0.952008
0.99351
1.03593
1.07908
1.12277
1.16674
1.21075
1.25447
1.29758
1.33972
1.38049
1.41948
1.45625
1.49037
1.52141
1.54893
1.57256
1.59192
1.60673
1.61674
1.62179
0.36817
0.369456
0.37203
0.3759
0.381075
0.387569
0.395397
0.404577
0.41513
0.427081
0.440455
0.455279
0.471582
0.489393
0.508743
0.52966
0.552175
0.576314
0.602102
0.62956
0.658706
0.68955
0.722097
0.75634
0.792266
0.829847
0.869039
0.909786
0.952008
0.995606
1.04045
1.0864
1.13327
1.18083
1.22885
1.27703
1.32504
1.37251
1.41905
1.46421
1.50752
1.54848
1.58659
1.62134
1.65223
1.67879
1.7006
1.7173
1.7286
1.7343
0.374486
0.375832
0.378525
0.382575
0.387992
0.39479
0.402988
0.412605
0.423667
0.436199
0.450231
0.465794
0.482921
0.501648
0.522008
0.544039
0.567774
0.593248
0.620494
0.64954
0.680411
0.713126
0.747699
0.784133
0.822422
0.862546
0.904473
0.948152
0.99351
1.04045
1.08886
1.13859
1.18944
1.24119
1.29359
1.34632
1.39904
1.45133
1.50275
1.55281
1.60097
1.64667
1.68931
1.72829
1.76304
1.79299
1.81762
1.83651
1.84931
1.85577
0.380738
0.382143
0.384956
0.389186
0.394845
0.401949
0.410518
0.420575
0.432147
0.445263
0.459958
0.476266
0.494226
0.513877
0.535261
0.558419
0.583394
0.610226
0.638957
0.669624
0.702261
0.736897
0.773555
0.812248
0.852983
0.89575
0.940527
0.987273
1.03593
1.0864
1.13859
1.19233
1.24745
1.30371
1.36086
1.41855
1.47642
1.53403
1.59088
1.64642
1.70005
1.7511
1.7989
1.84274
1.88193
1.91578
1.9437
1.96514
1.97968
1.98703
0.386896
0.388361
0.391293
0.395703
0.401603
0.409012
0.417952
0.428448
0.44053
0.454232
0.46959
0.486646
0.505441
0.526022
0.548435
0.57273
0.598956
0.627163
0.6574
0.689714
0.724149
0.760746
0.799538
0.840552
0.883806
0.929305
0.977039
1.02698
1.07908
1.13327
1.18944
1.24745
1.30712
1.36823
1.4305
1.4936
1.55711
1.62058
1.68346
1.74513
1.80491
1.86204
1.91574
1.96517
2.00949
2.04789
2.07964
2.10407
2.12067
2.12905
0.392931
0.394454
0.397504
0.402092
0.408232
0.415944
0.425252
0.436184
0.448774
0.463058
0.479078
0.496878
0.516508
0.538017
0.561462
0.586896
0.614379
0.643969
0.675724
0.709702
0.745958
0.784546
0.825511
0.868895
0.914731
0.963038
1.01382
1.06708
1.12277
1.18083
1.24119
1.30371
1.36823
1.43453
1.50232
1.57127
1.64096
1.71088
1.78045
1.84898
1.91571
1.97976
2.04022
2.09609
2.14639
2.19011
2.22636
2.25431
2.27333
2.28296
0.398811
0.400392
0.403559
0.408322
0.414699
0.42271
0.432381
0.443744
0.456835
0.471695
0.48837
0.506909
0.527366
0.549799
0.574269
0.600839
0.629577
0.660549
0.693825
0.729474
0.767564
0.80816
0.851325
0.897115
0.945579
0.996757
1.05067
1.10734
1.16674
1.22885
1.29359
1.36086
1.4305
1.50232
1.57604
1.65133
1.72774
1.80476
1.88175
1.95796
2.03254
2.10448
2.17272
2.23607
2.29335
2.34333
2.3849
2.41704
2.43895
2.45005
0.404507
0.406145
0.409426
0.414361
0.42097
0.429273
0.439301
0.451087
0.464671
0.480097
0.497415
0.516681
0.537954
0.561299
0.586782
0.614477
0.644459
0.676804
0.711594
0.74891
0.788833
0.831443
0.876819
0.925035
0.976159
1.03025
1.08736
1.14752
1.21075
1.27703
1.34632
1.41855
1.4936
1.57127
1.65133
1.73343
1.81715
1.90195
1.98716
2.07197
2.15542
2.23638
2.3136
2.38568
2.45116
2.50856
2.55647
2.59363
2.619
2.63188
0.409989
0.411682
0.415073
0.420177
0.42701
0.435599
0.445974
0.458172
0.472236
0.488214
0.506162
0.526139
0.54821
0.572447
0.598926
0.627726
0.658931
0.692632
0.728918
0.767884
0.809625
0.85424
0.901822
0.952466
1.00626
1.06329
1.12363
1.18734
1.25447
1.32504
1.39904
1.47642
1.55711
1.64096
1.72774
1.81715
1.90878
2.00209
2.09638
2.1908
2.28428
2.37557
2.46319
2.54548
2.62068
2.68693
2.74247
2.78568
2.81526
2.83029
0.415226
0.416973
0.420471
0.425736
0.432787
0.441651
0.452362
0.464958
0.479487
0.496
0.514557
0.535223
0.55807
0.583176
0.610622
0.640499
0.6729
0.707925
0.745677
0.786264
0.829797
0.876388
0.926154
0.979208
1.03566
1.09563
1.15921
1.2265
1.29758
1.37251
1.45133
1.53403
1.62058
1.71088
1.80476
1.90195
2.00209
2.10465
2.20894
2.31408
2.4189
2.52202
2.62173
2.71606
2.80284
2.87975
2.94452
2.99511
3.02983
3.04749
0.42019
0.421988
0.425589
0.431008
0.438268
0.447396
0.458428
0.471406
0.48638
0.503406
0.522549
0.543878
0.567472
0.593413
0.621794
0.652712
0.68627
0.722579
0.761754
0.803918
0.849198
0.897723
0.949628
1.00505
1.06413
1.12701
1.19381
1.26468
1.33972
1.41905
1.50275
1.59088
1.68346
1.78045
1.88175
1.98716
2.09638
2.20894
2.32419
2.44122
2.55885
2.67553
2.78934
2.89793
2.99862
3.08848
3.16457
3.22423
3.26528
3.28619
0.424853
0.426699
0.430397
0.435963
0.44342
0.452798
0.464135
0.477475
0.492873
0.510387
0.530087
0.552047
0.576352
0.603092
0.632365
0.664277
0.698944
0.736484
0.777028
0.820711
0.867676
0.918071
0.972053
1.02978
1.09142
1.15715
1.22712
1.30151
1.38049
1.46421
1.55281
1.64642
1.74513
1.84898
1.95796
2.07197
2.1908
2.31408
2.44122
2.5714
2.70342
2.83564
2.96592
3.0915
3.20905
3.31482
3.40492
3.47584
3.52475
3.54969
0.429188
0.431079
0.434868
0.440571
0.448214
0.457826
0.469449
0.48313
0.498925
0.516898
0.537121
0.559676
0.58465
0.612142
0.642258
0.675112
0.710827
0.749536
0.79138
0.836508
0.88508
0.937263
0.993235
1.05318
1.11729
1.18576
1.25881
1.33665
1.41948
1.50752
1.60097
1.70005
1.80491
1.91571
2.03254
2.15542
2.28428
2.4189
2.55885
2.70342
2.8515
3.00146
3.15099
3.29692
3.43514
3.56071
3.66837
3.7534
3.81211
3.84207
0.433169
0.435102
0.438975
0.444805
0.452619
0.462449
0.474337
0.488333
0.504496
0.522895
0.543604
0.566711
0.592309
0.620501
0.651402
0.685133
0.721828
0.76163
0.804691
0.851176
0.90126
0.955128
1.01298
1.07502
1.14148
1.21258
1.28857
1.3697
1.45625
1.54848
1.64667
1.7511
1.86204
1.97976
2.10448
2.23638
2.37557
2.52202
2.67553
2.83564
3.00146
3.17153
3.34353
3.51395
3.67779
3.82844
3.95841
4.06124
4.13222
4.16841
0.436772
0.438743
0.442693
0.448639
0.456609
0.466637
0.478767
0.49305
0.50955
0.528337
0.549492
0.573103
0.599271
0.628105
0.659726
0.694264
0.73186
0.772667
0.816851
0.864588
0.91607
0.9715
1.0311
1.09509
1.16374
1.2373
1.31605
1.4003
1.49037
1.58659
1.68931
1.7989
1.91574
2.04022
2.17272
2.3136
2.46319
2.62173
2.78934
2.96592
3.15099
3.34353
3.54153
3.7415
3.93761
4.12085
4.27961
4.40496
4.49116
4.53497
0.439976
0.441981
0.445999
0.45205
0.460159
0.470364
0.48271
0.497252
0.514053
0.533189
0.554742
0.578806
0.605486
0.634898
0.667166
0.702429
0.740837
0.782553
0.827751
0.876623
0.929373
0.986221
1.04741
1.11319
1.18383
1.25965
1.34095
1.42808
1.52141
1.62134
1.72829
1.84274
1.96517
2.09609
2.23607
2.38568
2.54548
2.71606
2.89793
3.0915
3.29692
3.51395
3.7415
3.97689
4.21429
4.44175
4.63829
4.79188
4.89655
4.94944
0.44276
0.444795
0.448874
0.455015
0.463246
0.473606
0.486142
0.500909
0.517974
0.537414
0.559316
0.583778
0.610908
0.640825
0.673662
0.709564
0.748686
0.791201
0.837295
0.887168
0.941039
0.999144
1.06174
1.1291
1.20154
1.27936
1.36294
1.45266
1.54893
1.65223
1.76304
1.88193
2.00949
2.14639
2.29335
2.45116
2.62068
2.80284
2.99862
3.20905
3.43514
3.67779
3.93761
4.21429
4.50495
4.79764
5.044
5.23185
5.35781
5.42092
0.445108
0.447169
0.451298
0.457515
0.465851
0.476342
0.489038
0.503996
0.521285
0.540984
0.563183
0.587981
0.615493
0.645841
0.679162
0.715606
0.755338
0.798535
0.845392
0.896121
0.950952
1.01013
1.07394
1.14267
1.21664
1.29621
1.38176
1.47372
1.57256
1.67879
1.79299
1.91578
2.04789
2.19011
2.34333
2.50856
2.68693
2.87975
3.08848
3.31482
3.56071
3.82844
4.12085
4.44175
4.79764
5.20396
5.51235
5.73783
5.88608
5.95966
0.447005
0.449086
0.453256
0.459536
0.467956
0.478554
0.491379
0.506493
0.523963
0.543872
0.566312
0.591384
0.619206
0.649904
0.683619
0.720506
0.760733
0.804487
0.851967
0.903396
0.959011
1.01908
1.08388
1.15372
1.22896
1.30996
1.39714
1.49096
1.59192
1.7006
1.81762
1.9437
2.07964
2.22636
2.3849
2.55647
2.74247
2.94452
3.16457
3.40492
3.66837
3.95841
4.27961
4.63829
5.044
5.51235
5.86774
6.12521
6.29318
6.37616
0.448438
0.450535
0.454736
0.461064
0.469547
0.480226
0.49315
0.508381
0.525989
0.546058
0.56868
0.59396
0.622018
0.652981
0.686996
0.724219
0.764824
0.809001
0.856957
0.908918
0.965133
1.02587
1.09143
1.16213
1.23834
1.32044
1.40887
1.50412
1.60673
1.7173
1.83651
1.96514
2.10407
2.25431
2.41704
2.59363
2.78568
2.99511
3.22423
3.47584
3.7534
4.06124
4.40496
4.79188
5.23185
5.73783
6.12521
6.40629
6.58946
6.67984
0.449399
0.451506
0.455729
0.462088
0.470614
0.481347
0.494338
0.509648
0.527349
0.547524
0.570269
0.59569
0.623905
0.655048
0.689264
0.726713
0.767573
0.812035
0.860311
0.912632
0.969251
1.03044
1.09652
1.1678
1.24466
1.32751
1.41679
1.51302
1.61674
1.7286
1.84931
1.97968
2.12067
2.27333
2.43895
2.619
2.81526
3.02983
3.26528
3.52475
3.81211
4.13222
4.49116
4.89655
5.35781
5.88608
6.29318
6.58946
6.78273
6.87812
0.44988
0.451992
0.456226
0.462601
0.471148
0.481909
0.494933
0.510282
0.52803
0.548259
0.571066
0.596557
0.624852
0.656085
0.690402
0.727965
0.768953
0.813558
0.861996
0.914498
0.971321
1.03274
1.09907
1.17065
1.24784
1.33107
1.42078
1.5175
1.62179
1.7343
1.85577
1.98703
2.12905
2.28296
2.45005
2.63188
2.83029
3.04749
3.28619
3.54969
3.84207
4.16841
4.53497
4.94944
5.42092
5.95966
6.37616
6.67984
6.87812
6.976
)
;

boundaryField
{
    walls
    {
        type            zeroGradient;
    }
    frontAndBack
    {
        type            empty;
    }
}


// ************************************************************************* //
