# Force       
# CofR        : (0.000000e+00 0.000000e+00 0.000000e+00)
#
# Time        	total_x total_y total_z	pressure_x pressure_y pressure_z	viscous_x viscous_y viscous_z
0.005          -2.010518e-03 6.819939e-04 0.000000e+00 0.000000e+00 6.820389e-04 0.000000e+00 -2.010518e-03 -4.502101e-08 0.000000e+00
0.01           -1.478233e-03 1.426735e-05 0.000000e+00 0.000000e+00 1.013198e-05 0.000000e+00 -1.478233e-03 4.135371e-06 0.000000e+00
0.015          -1.364543e-03 1.677282e-04 0.000000e+00 0.000000e+00 1.630834e-04 0.000000e+00 -1.364543e-03 4.644814e-06 0.000000e+00
0.02           -1.316618e-03 5.929167e-05 0.000000e+00 0.000000e+00 5.475580e-05 0.000000e+00 -1.316618e-03 4.535863e-06 0.000000e+00
0.025          -1.293462e-03 7.403739e-05 0.000000e+00 0.000000e+00 6.966569e-05 0.000000e+00 -1.293462e-03 4.371697e-06 0.000000e+00
0.03           -1.279811e-03 6.674434e-05 0.000000e+00 0.000000e+00 6.248475e-05 0.000000e+00 -1.279811e-03 4.259594e-06 0.000000e+00
0.035          -1.271193e-03 5.819676e-05 0.000000e+00 0.000000e+00 5.400770e-05 0.000000e+00 -1.271193e-03 4.189058e-06 0.000000e+00
0.04           -1.265487e-03 7.596249e-05 0.000000e+00 0.000000e+00 7.182183e-05 0.000000e+00 -1.265487e-03 4.140663e-06 0.000000e+00
0.045          -1.261454e-03 6.364435e-05 0.000000e+00 0.000000e+00 5.953795e-05 0.000000e+00 -1.261454e-03 4.106402e-06 0.000000e+00
0.05           -1.258669e-03 6.370470e-05 0.000000e+00 0.000000e+00 5.962100e-05 0.000000e+00 -1.258669e-03 4.083699e-06 0.000000e+00
0.055          -1.256643e-03 6.366301e-05 0.000000e+00 0.000000e+00 5.959670e-05 0.000000e+00 -1.256643e-03 4.066306e-06 0.000000e+00
0.06           -1.255157e-03 6.388457e-05 0.000000e+00 0.000000e+00 5.983053e-05 0.000000e+00 -1.255157e-03 4.054041e-06 0.000000e+00
0.065          -1.254056e-03 6.336370e-05 0.000000e+00 0.000000e+00 5.931880e-05 0.000000e+00 -1.254056e-03 4.044903e-06 0.000000e+00
0.07           -1.253226e-03 6.440058e-05 0.000000e+00 0.000000e+00 6.036245e-05 0.000000e+00 -1.253226e-03 4.038136e-06 0.000000e+00
0.075          -1.252599e-03 6.231867e-05 0.000000e+00 0.000000e+00 5.828576e-05 0.000000e+00 -1.252599e-03 4.032918e-06 0.000000e+00
0.08           -1.252124e-03 6.408628e-05 0.000000e+00 0.000000e+00 6.005705e-05 0.000000e+00 -1.252124e-03 4.029235e-06 0.000000e+00
0.085          -1.251752e-03 6.283367e-05 0.000000e+00 0.000000e+00 5.880753e-05 0.000000e+00 -1.251752e-03 4.026137e-06 0.000000e+00
0.09           -1.251476e-03 6.393207e-05 0.000000e+00 0.000000e+00 5.990821e-05 0.000000e+00 -1.251476e-03 4.023861e-06 0.000000e+00
0.095          -1.251257e-03 6.329041e-05 0.000000e+00 0.000000e+00 5.926841e-05 0.000000e+00 -1.251257e-03 4.021995e-06 0.000000e+00
0.1            -1.251090e-03 6.383345e-05 0.000000e+00 0.000000e+00 5.981280e-05 0.000000e+00 -1.251090e-03 4.020656e-06 0.000000e+00
0.105          -1.250958e-03 6.351792e-05 0.000000e+00 0.000000e+00 5.949838e-05 0.000000e+00 -1.250958e-03 4.019546e-06 0.000000e+00
0.11           -1.250857e-03 6.379539e-05 0.000000e+00 0.000000e+00 5.977666e-05 0.000000e+00 -1.250857e-03 4.018732e-06 0.000000e+00
0.115          -1.250777e-03 6.363268e-05 0.000000e+00 0.000000e+00 5.961463e-05 0.000000e+00 -1.250777e-03 4.018053e-06 0.000000e+00
0.12           -1.250715e-03 6.396160e-05 0.000000e+00 0.000000e+00 5.994405e-05 0.000000e+00 -1.250715e-03 4.017541e-06 0.000000e+00
0.125          -1.250665e-03 6.372618e-05 0.000000e+00 0.000000e+00 5.970907e-05 0.000000e+00 -1.250665e-03 4.017112e-06 0.000000e+00
0.13           -1.250628e-03 6.379994e-05 0.000000e+00 0.000000e+00 5.978313e-05 0.000000e+00 -1.250628e-03 4.016816e-06 0.000000e+00
0.135          -1.250597e-03 6.373621e-05 0.000000e+00 0.000000e+00 5.971962e-05 0.000000e+00 -1.250597e-03 4.016592e-06 0.000000e+00
0.14           -1.250573e-03 6.375175e-05 0.000000e+00 0.000000e+00 5.973535e-05 0.000000e+00 -1.250573e-03 4.016398e-06 0.000000e+00
0.145          -1.250555e-03 6.371784e-05 0.000000e+00 0.000000e+00 5.970160e-05 0.000000e+00 -1.250555e-03 4.016245e-06 0.000000e+00
0.15           -1.250540e-03 6.374954e-05 0.000000e+00 0.000000e+00 5.973342e-05 0.000000e+00 -1.250540e-03 4.016117e-06 0.000000e+00
0.155          -1.250528e-03 6.375754e-05 0.000000e+00 0.000000e+00 5.974152e-05 0.000000e+00 -1.250528e-03 4.016018e-06 0.000000e+00
0.16           -1.250519e-03 6.375464e-05 0.000000e+00 0.000000e+00 5.973870e-05 0.000000e+00 -1.250519e-03 4.015936e-06 0.000000e+00
0.165          -1.250512e-03 6.375517e-05 0.000000e+00 0.000000e+00 5.973929e-05 0.000000e+00 -1.250512e-03 4.015885e-06 0.000000e+00
0.17           -1.250505e-03 6.376965e-05 0.000000e+00 0.000000e+00 5.975381e-05 0.000000e+00 -1.250505e-03 4.015833e-06 0.000000e+00
0.175          -1.250501e-03 6.372679e-05 0.000000e+00 0.000000e+00 5.971100e-05 0.000000e+00 -1.250501e-03 4.015782e-06 0.000000e+00
0.18           -1.250498e-03 6.373923e-05 0.000000e+00 0.000000e+00 5.972347e-05 0.000000e+00 -1.250498e-03 4.015760e-06 0.000000e+00
0.185          -1.250494e-03 6.374317e-05 0.000000e+00 0.000000e+00 5.972742e-05 0.000000e+00 -1.250494e-03 4.015745e-06 0.000000e+00
0.19           -1.250492e-03 6.374372e-05 0.000000e+00 0.000000e+00 5.972799e-05 0.000000e+00 -1.250492e-03 4.015733e-06 0.000000e+00
0.195          -1.250491e-03 6.374282e-05 0.000000e+00 0.000000e+00 5.972711e-05 0.000000e+00 -1.250491e-03 4.015708e-06 0.000000e+00
0.2            -1.250489e-03 6.374298e-05 0.000000e+00 0.000000e+00 5.972727e-05 0.000000e+00 -1.250489e-03 4.015706e-06 0.000000e+00
0.205          -1.250488e-03 6.374173e-05 0.000000e+00 0.000000e+00 5.972602e-05 0.000000e+00 -1.250488e-03 4.015701e-06 0.000000e+00
0.21           -1.250487e-03 6.374123e-05 0.000000e+00 0.000000e+00 5.972554e-05 0.000000e+00 -1.250487e-03 4.015690e-06 0.000000e+00
0.215          -1.250486e-03 6.374113e-05 0.000000e+00 0.000000e+00 5.972545e-05 0.000000e+00 -1.250486e-03 4.015677e-06 0.000000e+00
0.22           -1.250486e-03 6.374027e-05 0.000000e+00 0.000000e+00 5.972460e-05 0.000000e+00 -1.250486e-03 4.015671e-06 0.000000e+00
0.225          -1.250486e-03 6.374027e-05 0.000000e+00 0.000000e+00 5.972459e-05 0.000000e+00 -1.250486e-03 4.015680e-06 0.000000e+00
0.23           -1.250485e-03 6.374081e-05 0.000000e+00 0.000000e+00 5.972514e-05 0.000000e+00 -1.250485e-03 4.015668e-06 0.000000e+00
0.235          -1.250485e-03 6.374075e-05 0.000000e+00 0.000000e+00 5.972510e-05 0.000000e+00 -1.250485e-03 4.015656e-06 0.000000e+00
0.24           -1.250485e-03 6.374082e-05 0.000000e+00 0.000000e+00 5.972517e-05 0.000000e+00 -1.250485e-03 4.015653e-06 0.000000e+00
0.245          -1.250484e-03 6.374121e-05 0.000000e+00 0.000000e+00 5.972555e-05 0.000000e+00 -1.250484e-03 4.015652e-06 0.000000e+00
0.25           -1.250484e-03 6.374110e-05 0.000000e+00 0.000000e+00 5.972544e-05 0.000000e+00 -1.250484e-03 4.015654e-06 0.000000e+00
0.255          -1.250483e-03 6.374104e-05 0.000000e+00 0.000000e+00 5.972539e-05 0.000000e+00 -1.250483e-03 4.015651e-06 0.000000e+00
0.26           -1.250483e-03 6.374120e-05 0.000000e+00 0.000000e+00 5.972555e-05 0.000000e+00 -1.250483e-03 4.015647e-06 0.000000e+00
0.265          -1.250483e-03 6.374135e-05 0.000000e+00 0.000000e+00 5.972571e-05 0.000000e+00 -1.250483e-03 4.015644e-06 0.000000e+00
0.27           -1.250482e-03 6.374157e-05 0.000000e+00 0.000000e+00 5.972594e-05 0.000000e+00 -1.250482e-03 4.015634e-06 0.000000e+00
0.275          -1.250482e-03 6.374137e-05 0.000000e+00 0.000000e+00 5.972574e-05 0.000000e+00 -1.250482e-03 4.015636e-06 0.000000e+00
0.28           -1.250482e-03 6.374135e-05 0.000000e+00 0.000000e+00 5.972571e-05 0.000000e+00 -1.250482e-03 4.015632e-06 0.000000e+00
0.285          -1.250481e-03 6.374131e-05 0.000000e+00 0.000000e+00 5.972567e-05 0.000000e+00 -1.250481e-03 4.015644e-06 0.000000e+00
0.29           -1.250481e-03 6.374148e-05 0.000000e+00 0.000000e+00 5.972584e-05 0.000000e+00 -1.250481e-03 4.015637e-06 0.000000e+00
0.295          -1.250481e-03 6.374159e-05 0.000000e+00 0.000000e+00 5.972596e-05 0.000000e+00 -1.250481e-03 4.015631e-06 0.000000e+00
0.3            -1.250480e-03 6.374164e-05 0.000000e+00 0.000000e+00 5.972600e-05 0.000000e+00 -1.250480e-03 4.015638e-06 0.000000e+00
0.305          -1.250480e-03 6.374174e-05 0.000000e+00 0.000000e+00 5.972611e-05 0.000000e+00 -1.250480e-03 4.015632e-06 0.000000e+00
0.31           -1.250480e-03 6.374177e-05 0.000000e+00 0.000000e+00 5.972614e-05 0.000000e+00 -1.250480e-03 4.015627e-06 0.000000e+00
0.315          -1.250480e-03 6.374177e-05 0.000000e+00 0.000000e+00 5.972614e-05 0.000000e+00 -1.250480e-03 4.015627e-06 0.000000e+00
0.32           -1.250479e-03 6.374177e-05 0.000000e+00 0.000000e+00 5.972615e-05 0.000000e+00 -1.250479e-03 4.015622e-06 0.000000e+00
0.325          -1.250479e-03 6.374179e-05 0.000000e+00 0.000000e+00 5.972617e-05 0.000000e+00 -1.250479e-03 4.015624e-06 0.000000e+00
0.33           -1.250479e-03 6.374181e-05 0.000000e+00 0.000000e+00 5.972619e-05 0.000000e+00 -1.250479e-03 4.015621e-06 0.000000e+00
0.335          -1.250479e-03 6.374187e-05 0.000000e+00 0.000000e+00 5.972625e-05 0.000000e+00 -1.250479e-03 4.015619e-06 0.000000e+00
0.34           -1.250479e-03 6.374186e-05 0.000000e+00 0.000000e+00 5.972625e-05 0.000000e+00 -1.250479e-03 4.015617e-06 0.000000e+00
0.345          -1.250478e-03 6.374189e-05 0.000000e+00 0.000000e+00 5.972627e-05 0.000000e+00 -1.250478e-03 4.015618e-06 0.000000e+00
0.35           -1.250478e-03 6.374190e-05 0.000000e+00 0.000000e+00 5.972628e-05 0.000000e+00 -1.250478e-03 4.015616e-06 0.000000e+00
0.355          -1.250478e-03 6.374192e-05 0.000000e+00 0.000000e+00 5.972630e-05 0.000000e+00 -1.250478e-03 4.015614e-06 0.000000e+00
0.36           -1.250478e-03 6.374191e-05 0.000000e+00 0.000000e+00 5.972630e-05 0.000000e+00 -1.250478e-03 4.015614e-06 0.000000e+00
0.365          -1.250478e-03 6.374193e-05 0.000000e+00 0.000000e+00 5.972632e-05 0.000000e+00 -1.250478e-03 4.015611e-06 0.000000e+00
0.37           -1.250478e-03 6.374192e-05 0.000000e+00 0.000000e+00 5.972630e-05 0.000000e+00 -1.250478e-03 4.015613e-06 0.000000e+00
0.375          -1.250478e-03 6.374193e-05 0.000000e+00 0.000000e+00 5.972632e-05 0.000000e+00 -1.250478e-03 4.015609e-06 0.000000e+00
0.38           -1.250477e-03 6.374193e-05 0.000000e+00 0.000000e+00 5.972632e-05 0.000000e+00 -1.250477e-03 4.015610e-06 0.000000e+00
0.385          -1.250477e-03 6.374196e-05 0.000000e+00 0.000000e+00 5.972636e-05 0.000000e+00 -1.250477e-03 4.015609e-06 0.000000e+00
0.39           -1.250477e-03 6.374195e-05 0.000000e+00 0.000000e+00 5.972634e-05 0.000000e+00 -1.250477e-03 4.015609e-06 0.000000e+00
0.395          -1.250477e-03 6.374196e-05 0.000000e+00 0.000000e+00 5.972634e-05 0.000000e+00 -1.250477e-03 4.015612e-06 0.000000e+00
0.4            -1.250477e-03 6.374199e-05 0.000000e+00 0.000000e+00 5.972638e-05 0.000000e+00 -1.250477e-03 4.015605e-06 0.000000e+00
0.405          -1.250477e-03 6.374198e-05 0.000000e+00 0.000000e+00 5.972637e-05 0.000000e+00 -1.250477e-03 4.015608e-06 0.000000e+00
0.41           -1.250477e-03 6.374200e-05 0.000000e+00 0.000000e+00 5.972639e-05 0.000000e+00 -1.250477e-03 4.015606e-06 0.000000e+00
0.415          -1.250477e-03 6.374198e-05 0.000000e+00 0.000000e+00 5.972637e-05 0.000000e+00 -1.250477e-03 4.015605e-06 0.000000e+00
0.42           -1.250477e-03 6.374198e-05 0.000000e+00 0.000000e+00 5.972637e-05 0.000000e+00 -1.250477e-03 4.015608e-06 0.000000e+00
0.425          -1.250477e-03 6.374199e-05 0.000000e+00 0.000000e+00 5.972639e-05 0.000000e+00 -1.250477e-03 4.015601e-06 0.000000e+00
0.43           -1.250477e-03 6.374196e-05 0.000000e+00 0.000000e+00 5.972636e-05 0.000000e+00 -1.250477e-03 4.015605e-06 0.000000e+00
0.435          -1.250477e-03 6.374197e-05 0.000000e+00 0.000000e+00 5.972636e-05 0.000000e+00 -1.250477e-03 4.015607e-06 0.000000e+00
0.44           -1.250476e-03 6.374198e-05 0.000000e+00 0.000000e+00 5.972638e-05 0.000000e+00 -1.250476e-03 4.015600e-06 0.000000e+00
0.445          -1.250476e-03 6.374195e-05 0.000000e+00 0.000000e+00 5.972635e-05 0.000000e+00 -1.250476e-03 4.015603e-06 0.000000e+00
0.45           -1.250476e-03 6.374195e-05 0.000000e+00 0.000000e+00 5.972635e-05 0.000000e+00 -1.250476e-03 4.015606e-06 0.000000e+00
0.455          -1.250476e-03 6.374196e-05 0.000000e+00 0.000000e+00 5.972636e-05 0.000000e+00 -1.250476e-03 4.015599e-06 0.000000e+00
0.46           -1.250476e-03 6.374193e-05 0.000000e+00 0.000000e+00 5.972633e-05 0.000000e+00 -1.250476e-03 4.015602e-06 0.000000e+00
0.465          -1.250476e-03 6.374193e-05 0.000000e+00 0.000000e+00 5.972633e-05 0.000000e+00 -1.250476e-03 4.015604e-06 0.000000e+00
0.47           -1.250476e-03 6.374193e-05 0.000000e+00 0.000000e+00 5.972633e-05 0.000000e+00 -1.250476e-03 4.015598e-06 0.000000e+00
0.475          -1.250476e-03 6.374190e-05 0.000000e+00 0.000000e+00 5.972630e-05 0.000000e+00 -1.250476e-03 4.015601e-06 0.000000e+00
0.48           -1.250476e-03 6.374190e-05 0.000000e+00 0.000000e+00 5.972630e-05 0.000000e+00 -1.250476e-03 4.015602e-06 0.000000e+00
0.485          -1.250476e-03 6.374190e-05 0.000000e+00 0.000000e+00 5.972630e-05 0.000000e+00 -1.250476e-03 4.015599e-06 0.000000e+00
0.49           -1.250476e-03 6.374187e-05 0.000000e+00 0.000000e+00 5.972628e-05 0.000000e+00 -1.250476e-03 4.015599e-06 0.000000e+00
0.495          -1.250476e-03 6.374188e-05 0.000000e+00 0.000000e+00 5.972628e-05 0.000000e+00 -1.250476e-03 4.015601e-06 0.000000e+00
0.5            -1.250476e-03 6.374188e-05 0.000000e+00 0.000000e+00 5.972628e-05 0.000000e+00 -1.250476e-03 4.015602e-06 0.000000e+00
