# Moment      
# CofR        : (0.000000e+00 0.000000e+00 0.000000e+00)
#
# Time        	total_x total_y total_z	pressure_x pressure_y pressure_z	viscous_x viscous_y viscous_z
0.005          -3.409970e-06 -1.005259e-05 2.894468e-04 -3.410195e-06 0.000000e+00 9.834799e-05 2.251051e-10 -1.005259e-05 1.910988e-04
0.01           -7.133675e-08 -7.391167e-06 1.787747e-04 -5.065989e-08 0.000000e+00 4.380315e-05 -2.067686e-08 -7.391167e-06 1.349716e-04
0.015          -8.386412e-07 -6.822717e-06 1.735771e-04 -8.154171e-07 0.000000e+00 5.041175e-05 -2.322407e-08 -6.822717e-06 1.231653e-04
0.02           -2.964583e-07 -6.583089e-06 1.619196e-04 -2.737790e-07 0.000000e+00 4.375082e-05 -2.267931e-08 -6.583089e-06 1.181687e-04
0.025          -3.701869e-07 -6.467309e-06 1.597856e-04 -3.483285e-07 0.000000e+00 4.402583e-05 -2.185848e-08 -6.467309e-06 1.157598e-04
0.03           -3.337217e-07 -6.399057e-06 1.577116e-04 -3.124237e-07 0.000000e+00 4.337300e-05 -2.129797e-08 -6.399057e-06 1.143386e-04
0.035          -2.909838e-07 -6.355967e-06 1.562075e-04 -2.700385e-07 0.000000e+00 4.276573e-05 -2.094529e-08 -6.355967e-06 1.134418e-04
0.04           -3.798125e-07 -6.327433e-06 1.564079e-04 -3.591091e-07 0.000000e+00 4.355998e-05 -2.070332e-08 -6.327433e-06 1.128480e-04
0.045          -3.182218e-07 -6.307268e-06 1.552892e-04 -2.976898e-07 0.000000e+00 4.286102e-05 -2.053201e-08 -6.307268e-06 1.124282e-04
0.05           -3.185235e-07 -6.293345e-06 1.549538e-04 -2.981050e-07 0.000000e+00 4.281514e-05 -2.041850e-08 -6.293345e-06 1.121386e-04
0.055          -3.183150e-07 -6.283216e-06 1.547055e-04 -2.979835e-07 0.000000e+00 4.277758e-05 -2.033153e-08 -6.283216e-06 1.119279e-04
0.06           -3.194228e-07 -6.275787e-06 1.545363e-04 -2.991526e-07 0.000000e+00 4.276301e-05 -2.027021e-08 -6.275787e-06 1.117733e-04
0.065          -3.168185e-07 -6.270278e-06 1.543791e-04 -2.965940e-07 0.000000e+00 4.272031e-05 -2.022451e-08 -6.270278e-06 1.116588e-04
0.07           -3.220029e-07 -6.266129e-06 1.543323e-04 -3.018122e-07 0.000000e+00 4.275980e-05 -2.019068e-08 -6.266129e-06 1.115725e-04
0.075          -3.115934e-07 -6.262993e-06 1.541537e-04 -2.914288e-07 0.000000e+00 4.264647e-05 -2.016459e-08 -6.262993e-06 1.115072e-04
0.08           -3.204314e-07 -6.260618e-06 1.541880e-04 -3.002852e-07 0.000000e+00 4.273019e-05 -2.014618e-08 -6.260618e-06 1.114578e-04
0.085          -3.141684e-07 -6.258758e-06 1.540797e-04 -2.940377e-07 0.000000e+00 4.266053e-05 -2.013069e-08 -6.258758e-06 1.114191e-04
0.09           -3.196604e-07 -6.257382e-06 1.541031e-04 -2.995411e-07 0.000000e+00 4.271255e-05 -2.011931e-08 -6.257382e-06 1.113905e-04
0.095          -3.164520e-07 -6.256286e-06 1.540453e-04 -2.963421e-07 0.000000e+00 4.267753e-05 -2.010998e-08 -6.256286e-06 1.113677e-04
0.1            -3.191673e-07 -6.255452e-06 1.540533e-04 -2.990640e-07 0.000000e+00 4.270294e-05 -2.010328e-08 -6.255452e-06 1.113504e-04
0.105          -3.175896e-07 -6.254790e-06 1.540221e-04 -2.974919e-07 0.000000e+00 4.268545e-05 -2.009773e-08 -6.254790e-06 1.113366e-04
0.11           -3.189770e-07 -6.254287e-06 1.540243e-04 -2.988833e-07 0.000000e+00 4.269818e-05 -2.009366e-08 -6.254287e-06 1.113262e-04
0.115          -3.181634e-07 -6.253885e-06 1.540071e-04 -2.980732e-07 0.000000e+00 4.268925e-05 -2.009026e-08 -6.253885e-06 1.113178e-04
0.12           -3.198080e-07 -6.253577e-06 1.540167e-04 -2.997203e-07 0.000000e+00 4.270527e-05 -2.008771e-08 -6.253577e-06 1.113114e-04
0.125          -3.186309e-07 -6.253327e-06 1.539986e-04 -2.985453e-07 0.000000e+00 4.269235e-05 -2.008556e-08 -6.253327e-06 1.113062e-04
0.13           -3.189997e-07 -6.253138e-06 1.539983e-04 -2.989156e-07 0.000000e+00 4.269600e-05 -2.008408e-08 -6.253138e-06 1.113023e-04
0.135          -3.186810e-07 -6.252986e-06 1.539915e-04 -2.985981e-07 0.000000e+00 4.269237e-05 -2.008296e-08 -6.252986e-06 1.112991e-04
0.14           -3.187587e-07 -6.252865e-06 1.539896e-04 -2.986768e-07 0.000000e+00 4.269295e-05 -2.008199e-08 -6.252865e-06 1.112966e-04
0.145          -3.185892e-07 -6.252775e-06 1.539857e-04 -2.985080e-07 0.000000e+00 4.269100e-05 -2.008122e-08 -6.252775e-06 1.112947e-04
0.15           -3.187477e-07 -6.252702e-06 1.539857e-04 -2.986671e-07 0.000000e+00 4.269250e-05 -2.008059e-08 -6.252702e-06 1.112932e-04
0.155          -3.187877e-07 -6.252639e-06 1.539847e-04 -2.987076e-07 0.000000e+00 4.269275e-05 -2.008009e-08 -6.252639e-06 1.112919e-04
0.16           -3.187732e-07 -6.252596e-06 1.539835e-04 -2.986935e-07 0.000000e+00 4.269253e-05 -2.007968e-08 -6.252596e-06 1.112910e-04
0.165          -3.187759e-07 -6.252559e-06 1.539827e-04 -2.986964e-07 0.000000e+00 4.269249e-05 -2.007943e-08 -6.252559e-06 1.112903e-04
0.17           -3.188482e-07 -6.252526e-06 1.539827e-04 -2.987691e-07 0.000000e+00 4.269313e-05 -2.007917e-08 -6.252526e-06 1.112896e-04
0.175          -3.186339e-07 -6.252506e-06 1.539800e-04 -2.985550e-07 0.000000e+00 4.269090e-05 -2.007891e-08 -6.252506e-06 1.112891e-04
0.18           -3.186962e-07 -6.252488e-06 1.539803e-04 -2.986174e-07 0.000000e+00 4.269149e-05 -2.007880e-08 -6.252488e-06 1.112888e-04
0.185          -3.187158e-07 -6.252469e-06 1.539800e-04 -2.986371e-07 0.000000e+00 4.269162e-05 -2.007873e-08 -6.252469e-06 1.112884e-04
0.19           -3.187186e-07 -6.252461e-06 1.539798e-04 -2.986400e-07 0.000000e+00 4.269161e-05 -2.007867e-08 -6.252461e-06 1.112882e-04
0.195          -3.187141e-07 -6.252453e-06 1.539796e-04 -2.986356e-07 0.000000e+00 4.269155e-05 -2.007854e-08 -6.252453e-06 1.112880e-04
0.2            -3.187149e-07 -6.252446e-06 1.539794e-04 -2.986364e-07 0.000000e+00 4.269154e-05 -2.007853e-08 -6.252446e-06 1.112879e-04
0.205          -3.187086e-07 -6.252439e-06 1.539792e-04 -2.986301e-07 0.000000e+00 4.269149e-05 -2.007851e-08 -6.252439e-06 1.112878e-04
0.21           -3.187061e-07 -6.252434e-06 1.539791e-04 -2.986277e-07 0.000000e+00 4.269145e-05 -2.007845e-08 -6.252434e-06 1.112876e-04
0.215          -3.187056e-07 -6.252429e-06 1.539790e-04 -2.986273e-07 0.000000e+00 4.269145e-05 -2.007838e-08 -6.252429e-06 1.112875e-04
0.22           -3.187013e-07 -6.252429e-06 1.539790e-04 -2.986230e-07 0.000000e+00 4.269148e-05 -2.007836e-08 -6.252429e-06 1.112875e-04
0.225          -3.187014e-07 -6.252428e-06 1.539790e-04 -2.986230e-07 0.000000e+00 4.269148e-05 -2.007840e-08 -6.252428e-06 1.112875e-04
0.23           -3.187041e-07 -6.252427e-06 1.539790e-04 -2.986257e-07 0.000000e+00 4.269155e-05 -2.007834e-08 -6.252427e-06 1.112875e-04
0.235          -3.187038e-07 -6.252425e-06 1.539790e-04 -2.986255e-07 0.000000e+00 4.269154e-05 -2.007828e-08 -6.252425e-06 1.112875e-04
0.24           -3.187041e-07 -6.252423e-06 1.539789e-04 -2.986259e-07 0.000000e+00 4.269153e-05 -2.007826e-08 -6.252423e-06 1.112874e-04
0.245          -3.187060e-07 -6.252421e-06 1.539789e-04 -2.986278e-07 0.000000e+00 4.269155e-05 -2.007826e-08 -6.252421e-06 1.112874e-04
0.25           -3.187055e-07 -6.252419e-06 1.539789e-04 -2.986272e-07 0.000000e+00 4.269155e-05 -2.007827e-08 -6.252419e-06 1.112873e-04
0.255          -3.187052e-07 -6.252417e-06 1.539788e-04 -2.986270e-07 0.000000e+00 4.269154e-05 -2.007826e-08 -6.252417e-06 1.112873e-04
0.26           -3.187060e-07 -6.252415e-06 1.539788e-04 -2.986278e-07 0.000000e+00 4.269154e-05 -2.007824e-08 -6.252415e-06 1.112873e-04
0.265          -3.187068e-07 -6.252413e-06 1.539788e-04 -2.986285e-07 0.000000e+00 4.269155e-05 -2.007822e-08 -6.252413e-06 1.112872e-04
0.27           -3.187079e-07 -6.252411e-06 1.539787e-04 -2.986297e-07 0.000000e+00 4.269157e-05 -2.007817e-08 -6.252411e-06 1.112872e-04
0.275          -3.187069e-07 -6.252410e-06 1.539787e-04 -2.986287e-07 0.000000e+00 4.269156e-05 -2.007818e-08 -6.252410e-06 1.112871e-04
0.28           -3.187067e-07 -6.252408e-06 1.539787e-04 -2.986286e-07 0.000000e+00 4.269155e-05 -2.007816e-08 -6.252408e-06 1.112871e-04
0.285          -3.187066e-07 -6.252407e-06 1.539786e-04 -2.986283e-07 0.000000e+00 4.269155e-05 -2.007822e-08 -6.252407e-06 1.112871e-04
0.29           -3.187074e-07 -6.252405e-06 1.539786e-04 -2.986292e-07 0.000000e+00 4.269155e-05 -2.007818e-08 -6.252405e-06 1.112870e-04
0.295          -3.187080e-07 -6.252403e-06 1.539786e-04 -2.986298e-07 0.000000e+00 4.269155e-05 -2.007816e-08 -6.252403e-06 1.112870e-04
0.3            -3.187082e-07 -6.252402e-06 1.539785e-04 -2.986300e-07 0.000000e+00 4.269155e-05 -2.007819e-08 -6.252402e-06 1.112870e-04
0.305          -3.187087e-07 -6.252401e-06 1.539785e-04 -2.986306e-07 0.000000e+00 4.269155e-05 -2.007816e-08 -6.252401e-06 1.112870e-04
0.31           -3.187088e-07 -6.252399e-06 1.539785e-04 -2.986307e-07 0.000000e+00 4.269155e-05 -2.007813e-08 -6.252399e-06 1.112869e-04
0.315          -3.187088e-07 -6.252398e-06 1.539785e-04 -2.986307e-07 0.000000e+00 4.269155e-05 -2.007814e-08 -6.252398e-06 1.112869e-04
0.32           -3.187089e-07 -6.252397e-06 1.539784e-04 -2.986308e-07 0.000000e+00 4.269155e-05 -2.007811e-08 -6.252397e-06 1.112869e-04
0.325          -3.187090e-07 -6.252396e-06 1.539784e-04 -2.986308e-07 0.000000e+00 4.269155e-05 -2.007812e-08 -6.252396e-06 1.112869e-04
0.33           -3.187091e-07 -6.252395e-06 1.539784e-04 -2.986310e-07 0.000000e+00 4.269155e-05 -2.007810e-08 -6.252395e-06 1.112868e-04
0.335          -3.187093e-07 -6.252394e-06 1.539784e-04 -2.986312e-07 0.000000e+00 4.269155e-05 -2.007809e-08 -6.252394e-06 1.112868e-04
0.34           -3.187093e-07 -6.252393e-06 1.539783e-04 -2.986312e-07 0.000000e+00 4.269155e-05 -2.007808e-08 -6.252393e-06 1.112868e-04
0.345          -3.187094e-07 -6.252392e-06 1.539783e-04 -2.986313e-07 0.000000e+00 4.269155e-05 -2.007809e-08 -6.252392e-06 1.112868e-04
0.35           -3.187095e-07 -6.252392e-06 1.539783e-04 -2.986314e-07 0.000000e+00 4.269155e-05 -2.007808e-08 -6.252392e-06 1.112868e-04
0.355          -3.187096e-07 -6.252391e-06 1.539783e-04 -2.986315e-07 0.000000e+00 4.269154e-05 -2.007807e-08 -6.252391e-06 1.112867e-04
0.36           -3.187096e-07 -6.252390e-06 1.539783e-04 -2.986315e-07 0.000000e+00 4.269154e-05 -2.007807e-08 -6.252390e-06 1.112867e-04
0.365          -3.187096e-07 -6.252389e-06 1.539783e-04 -2.986316e-07 0.000000e+00 4.269154e-05 -2.007806e-08 -6.252389e-06 1.112867e-04
0.37           -3.187096e-07 -6.252389e-06 1.539782e-04 -2.986315e-07 0.000000e+00 4.269154e-05 -2.007806e-08 -6.252389e-06 1.112867e-04
0.375          -3.187097e-07 -6.252388e-06 1.539782e-04 -2.986316e-07 0.000000e+00 4.269154e-05 -2.007804e-08 -6.252388e-06 1.112867e-04
0.38           -3.187096e-07 -6.252387e-06 1.539782e-04 -2.986316e-07 0.000000e+00 4.269154e-05 -2.007805e-08 -6.252387e-06 1.112867e-04
0.385          -3.187098e-07 -6.252387e-06 1.539782e-04 -2.986318e-07 0.000000e+00 4.269154e-05 -2.007805e-08 -6.252387e-06 1.112867e-04
0.39           -3.187098e-07 -6.252386e-06 1.539782e-04 -2.986317e-07 0.000000e+00 4.269154e-05 -2.007804e-08 -6.252386e-06 1.112867e-04
0.395          -3.187098e-07 -6.252386e-06 1.539782e-04 -2.986317e-07 0.000000e+00 4.269154e-05 -2.007806e-08 -6.252386e-06 1.112866e-04
0.4            -3.187099e-07 -6.252385e-06 1.539782e-04 -2.986319e-07 0.000000e+00 4.269154e-05 -2.007803e-08 -6.252385e-06 1.112866e-04
0.405          -3.187099e-07 -6.252385e-06 1.539782e-04 -2.986318e-07 0.000000e+00 4.269154e-05 -2.007804e-08 -6.252385e-06 1.112866e-04
0.41           -3.187100e-07 -6.252385e-06 1.539782e-04 -2.986320e-07 0.000000e+00 4.269153e-05 -2.007803e-08 -6.252385e-06 1.112866e-04
0.415          -3.187099e-07 -6.252384e-06 1.539781e-04 -2.986319e-07 0.000000e+00 4.269153e-05 -2.007802e-08 -6.252384e-06 1.112866e-04
0.42           -3.187099e-07 -6.252384e-06 1.539781e-04 -2.986319e-07 0.000000e+00 4.269153e-05 -2.007804e-08 -6.252384e-06 1.112866e-04
0.425          -3.187099e-07 -6.252383e-06 1.539781e-04 -2.986319e-07 0.000000e+00 4.269153e-05 -2.007801e-08 -6.252383e-06 1.112866e-04
0.43           -3.187098e-07 -6.252383e-06 1.539781e-04 -2.986318e-07 0.000000e+00 4.269153e-05 -2.007802e-08 -6.252383e-06 1.112866e-04
0.435          -3.187098e-07 -6.252383e-06 1.539781e-04 -2.986318e-07 0.000000e+00 4.269153e-05 -2.007803e-08 -6.252383e-06 1.112866e-04
0.44           -3.187099e-07 -6.252382e-06 1.539781e-04 -2.986319e-07 0.000000e+00 4.269153e-05 -2.007800e-08 -6.252382e-06 1.112866e-04
0.445          -3.187098e-07 -6.252382e-06 1.539781e-04 -2.986317e-07 0.000000e+00 4.269153e-05 -2.007802e-08 -6.252382e-06 1.112866e-04
0.45           -3.187098e-07 -6.252382e-06 1.539781e-04 -2.986317e-07 0.000000e+00 4.269153e-05 -2.007803e-08 -6.252382e-06 1.112866e-04
0.455          -3.187098e-07 -6.252382e-06 1.539781e-04 -2.986318e-07 0.000000e+00 4.269153e-05 -2.007800e-08 -6.252382e-06 1.112866e-04
0.46           -3.187097e-07 -6.252381e-06 1.539781e-04 -2.986317e-07 0.000000e+00 4.269153e-05 -2.007801e-08 -6.252381e-06 1.112866e-04
0.465          -3.187097e-07 -6.252381e-06 1.539781e-04 -2.986317e-07 0.000000e+00 4.269153e-05 -2.007802e-08 -6.252381e-06 1.112865e-04
0.47           -3.187097e-07 -6.252381e-06 1.539781e-04 -2.986317e-07 0.000000e+00 4.269152e-05 -2.007799e-08 -6.252381e-06 1.112865e-04
0.475          -3.187095e-07 -6.252381e-06 1.539781e-04 -2.986315e-07 0.000000e+00 4.269152e-05 -2.007800e-08 -6.252381e-06 1.112865e-04
0.48           -3.187095e-07 -6.252380e-06 1.539781e-04 -2.986315e-07 0.000000e+00 4.269152e-05 -2.007801e-08 -6.252380e-06 1.112865e-04
0.485          -3.187095e-07 -6.252380e-06 1.539781e-04 -2.986315e-07 0.000000e+00 4.269152e-05 -2.007800e-08 -6.252380e-06 1.112865e-04
0.49           -3.187094e-07 -6.252380e-06 1.539780e-04 -2.986314e-07 0.000000e+00 4.269152e-05 -2.007799e-08 -6.252380e-06 1.112865e-04
0.495          -3.187094e-07 -6.252380e-06 1.539780e-04 -2.986314e-07 0.000000e+00 4.269152e-05 -2.007800e-08 -6.252380e-06 1.112865e-04
0.5            -3.187094e-07 -6.252380e-06 1.539780e-04 -2.986314e-07 0.000000e+00 4.269152e-05 -2.007801e-08 -6.252380e-06 1.112865e-04
