/*--------------------------------*- C++ -*----------------------------------*\
| =========                 |                                                 |
| \\      /  F ield         | OpenFOAM: The Open Source CFD Toolbox           |
|  \\    /   O peration     | Version:  2406                                  |
|   \\  /    A nd           | Website:  www.openfoam.com                      |
|    \\/     M anipulation  |                                                 |
\*---------------------------------------------------------------------------*/
FoamFile
{
    version     2.0;
    format      ascii;
    arch        "LSB;label=32;scalar=64";
    class       volVectorField;
    location    "1.5";
    object      flux;
}
// * * * * * * * * * * * * * * * * * * * * * * * * * * * * * * * * * * * * * //

dimensions      [0 1 -1 1 0 0 0];

internalField   nonuniform List<vector> 
2500
(
(0.000573864 0.000573864 0)
(0.00171972 0.000578577 0)
(0.00286352 0.000588155 0)
(0.0040051 0.000602517 0)
(0.00514193 0.000621703 0)
(0.00627247 0.000645752 0)
(0.00739508 0.000674707 0)
(0.00850791 0.000708619 0)
(0.00960893 0.00074754 0)
(0.0106959 0.000791526 0)
(0.0117664 0.000840629 0)
(0.0128176 0.000894903 0)
(0.0138465 0.000954394 0)
(0.01485 0.00101914 0)
(0.0158243 0.00108917 0)
(0.0167656 0.00116449 0)
(0.0176698 0.00124509 0)
(0.0185325 0.00133095 0)
(0.0193489 0.00142202 0)
(0.0201142 0.00151819 0)
(0.0208232 0.00161937 0)
(0.0214705 0.00172538 0)
(0.0220507 0.00183603 0)
(0.0225584 0.00195108 0)
(0.0229879 0.00207023 0)
(0.0233338 0.00219315 0)
(0.0235907 0.00231943 0)
(0.0237534 0.00244863 0)
(0.0238171 0.00258025 0)
(0.0237772 0.00271372 0)
(0.0236298 0.00284843 0)
(0.0233712 0.00298372 0)
(0.0229988 0.00311887 0)
(0.0225104 0.00325312 0)
(0.0219047 0.00338567 0)
(0.0211813 0.00351568 0)
(0.0203408 0.00364231 0)
(0.0193849 0.00376468 0)
(0.0183161 0.00388191 0)
(0.0171382 0.00399313 0)
(0.0158561 0.00409748 0)
(0.0144757 0.00419412 0)
(0.0130039 0.00428227 0)
(0.0114489 0.00436119 0)
(0.00981939 0.00443022 0)
(0.00812531 0.00448876 0)
(0.00637715 0.00453632 0)
(0.00458604 0.00457247 0)
(0.00276371 0.00459674 0)
(0.000923125 0.00460786 0)
(0.000578577 0.00171972 0)
(0.00173402 0.00173402 0)
(0.00288746 0.00176272 0)
(0.00403865 0.00180581 0)
(0.00518516 0.00186338 0)
(0.00632548 0.00193555 0)
(0.00745795 0.00202245 0)
(0.00858074 0.00212423 0)
(0.00969184 0.00224105 0)
(0.010789 0.00237308 0)
(0.0118698 0.00252047 0)
(0.0129314 0.0026834 0)
(0.0139708 0.002862 0)
(0.0149847 0.00305639 0)
(0.0159696 0.00326664 0)
(0.0169215 0.00349281 0)
(0.0178363 0.00373486 0)
(0.0187094 0.00399272 0)
(0.0195362 0.00426622 0)
(0.0203116 0.0045551 0)
(0.0210303 0.00485902 0)
(0.0216871 0.0051775 0)
(0.0222764 0.00550995 0)
(0.0227926 0.00585564 0)
(0.02323 0.00621369 0)
(0.023583 0.0065831 0)
(0.0238462 0.00696266 0)
(0.0240142 0.00735103 0)
(0.0240822 0.0077467 0)
(0.0240454 0.00814799 0)
(0.0238998 0.00855305 0)
(0.0236417 0.00895988 0)
(0.0232682 0.00936633 0)
(0.0227772 0.00977011 0)
(0.0221672 0.0101688 0)
(0.0214379 0.01056 0)
(0.0205898 0.0109409 0)
(0.0196245 0.0113091 0)
(0.0185445 0.0116619 0)
(0.0173538 0.0119966 0)
(0.0160571 0.0123106 0)
(0.0146605 0.0126015 0)
(0.013171 0.0128668 0)
(0.0115968 0.0131044 0)
(0.00994695 0.0133122 0)
(0.00823141 0.0134884 0)
(0.00646087 0.0136315 0)
(0.00464646 0.0137404 0)
(0.00279909 0.0138141 0)
(0.000934241 0.0138498 0)
(0.000588155 0.00286352 0)
(0.00176272 0.00288746 0)
(0.00293531 0.00293531 0)
(0.00410576 0.0030072 0)
(0.00527167 0.00310327 0)
(0.00643154 0.00322371 0)
(0.00758376 0.00336875 0)
(0.00872651 0.00353863 0)
(0.00985778 0.00373363 0)
(0.0109753 0.00395404 0)
(0.0120767 0.00420012 0)
(0.0131591 0.00447216 0)
(0.0142195 0.0047704 0)
(0.0152546 0.00509504 0)
(0.0162607 0.00544622 0)
(0.0172338 0.00582402 0)
(0.0181698 0.00622842 0)
(0.0190639 0.00665928 0)
(0.0199113 0.00711634 0)
(0.020707 0.0075992 0)
(0.0214456 0.00810726 0)
(0.0221214 0.00863975 0)
(0.0227289 0.00919569 0)
(0.0232621 0.00977389 0)
(0.0237154 0.0103729 0)
(0.0240827 0.010991 0)
(0.0243586 0.0116262 0)
(0.0245374 0.0122762 0)
(0.024614 0.0129386 0)
(0.0245836 0.0136106 0)
(0.0244417 0.014289 0)
(0.0241845 0.0149704 0)
(0.023809 0.0156514 0)
(0.0233129 0.0163281 0)
(0.0226945 0.0169963 0)
(0.0219534 0.017652 0)
(0.02109 0.0182908 0)
(0.0201058 0.0189082 0)
(0.0190035 0.0194999 0)
(0.017787 0.0200613 0)
(0.016461 0.0205882 0)
(0.0150319 0.0210763 0)
(0.0135068 0.0215215 0)
(0.0118942 0.0219202 0)
(0.0102034 0.0222689 0)
(0.00844466 0.0225646 0)
(0.0066292 0.0228047 0)
(0.00476863 0.0229872 0)
(0.00287303 0.0231105 0)
(0.000958766 0.0231721 0)
(0.000602517 0.0040051 0)
(0.00180581 0.00403865 0)
(0.0030072 0.00410576 0)
(0.00420661 0.00420661 0)
(0.00540167 0.0043414 0)
(0.00659096 0.00451039 0)
(0.00777287 0.00471392 0)
(0.00894563 0.00495233 0)
(0.0101072 0.00522602 0)
(0.0112555 0.00553539 0)
(0.0123879 0.00588086 0)
(0.0135016 0.00626282 0)
(0.0145937 0.00668162 0)
(0.0156606 0.00713757 0)
(0.0166986 0.00763089 0)
(0.0177037 0.0081617 0)
(0.0186716 0.00872999 0)
(0.0195974 0.0093356 0)
(0.0204761 0.00997818 0)
(0.0213025 0.0106572 0)
(0.0220709 0.0113718 0)
(0.0227756 0.0121209 0)
(0.0234106 0.0129033 0)
(0.0239698 0.0137171 0)
(0.024447 0.0145605 0)
(0.0248363 0.015431 0)
(0.0251314 0.0163258 0)
(0.0253267 0.0172419 0)
(0.0254165 0.0181756 0)
(0.0253957 0.019123 0)
(0.0252596 0.0200798 0)
(0.0250041 0.0210412 0)
(0.0246258 0.0220022 0)
(0.0241221 0.0229574 0)
(0.0234912 0.0239009 0)
(0.0227324 0.024827 0)
(0.021846 0.0257294 0)
(0.0208336 0.0266019 0)
(0.0196976 0.0274382 0)
(0.0184421 0.0282319 0)
(0.017072 0.0289769 0)
(0.0155938 0.0296672 0)
(0.014015 0.030297 0)
(0.0123442 0.0308611 0)
(0.0105914 0.0313545 0)
(0.00876721 0.0317728 0)
(0.00688345 0.0321123 0)
(0.00495226 0.03237 0)
(0.00298402 0.0325434 0)
(0.00099585 0.0326305 0)
(0.000621703 0.00514193 0)
(0.00186338 0.00518516 0)
(0.00310327 0.00527167 0)
(0.0043414 0.00540167 0)
(0.00557545 0.00557545 0)
(0.00680406 0.00579336 0)
(0.00802569 0.0060558 0)
(0.00923861 0.00636328 0)
(0.0104408 0.0067163 0)
(0.0116302 0.00711541 0)
(0.0128041 0.00756116 0)
(0.0139599 0.00805408 0)
(0.0150943 0.00859466 0)
(0.0162039 0.00918332 0)
(0.0172848 0.00982037 0)
(0.0183329 0.010506 0)
(0.0193437 0.0112403 0)
(0.0203121 0.0120229 0)
(0.0212329 0.0128537 0)
(0.0221006 0.0137317 0)
(0.0229093 0.0146561 0)
(0.0236529 0.0156255 0)
(0.0243251 0.0166382 0)
(0.0249194 0.0176921 0)
(0.0254292 0.0187846 0)
(0.0258481 0.0199126 0)
(0.0261695 0.0210726 0)
(0.0263872 0.0222605 0)
(0.0264952 0.0234718 0)
(0.0264878 0.0247014 0)
(0.0263599 0.0259436 0)
(0.0261069 0.0271923 0)
(0.0257252 0.028441 0)
(0.0252116 0.0296825 0)
(0.0245641 0.0309094 0)
(0.0237819 0.0321139 0)
(0.0228649 0.0332882 0)
(0.0218146 0.0344239 0)
(0.0206335 0.0355127 0)
(0.0193257 0.0365466 0)
(0.0178963 0.0375172 0)
(0.016352 0.0384167 0)
(0.0147007 0.0392377 0)
(0.0129516 0.0399731 0)
(0.0111151 0.0406164 0)
(0.00920255 0.041162 0)
(0.00722646 0.0416047 0)
(0.00519972 0.0419406 0)
(0.00313349 0.0421664 0)
(0.00104583 0.0422798 0)
(0.000645752 0.00627247 0)
(0.00193555 0.00632548 0)
(0.00322371 0.00643154 0)
(0.00451039 0.00659096 0)
(0.00579336 0.00680406 0)
(0.00707131 0.00707131 0)
(0.00834279 0.00739323 0)
(0.00960612 0.00777043 0)
(0.0108594 0.00820358 0)
(0.0121004 0.00869338 0)
(0.0133266 0.00924053 0)
(0.0145351 0.00984573 0)
(0.0157229 0.0105096 0)
(0.0168863 0.0112327 0)
(0.0180213 0.0120155 0)
(0.0191236 0.0128583 0)
(0.0201885 0.0137611 0)
(0.0212108 0.0147238 0)
(0.0221849 0.015746 0)
(0.0231049 0.0168268 0)
(0.0239647 0.0179651 0)
(0.0247577 0.0191594 0)
(0.0254772 0.0204075 0)
(0.0261161 0.0217069 0)
(0.0266675 0.0230545 0)
(0.0271243 0.0244466 0)
(0.0274794 0.0258789 0)
(0.027726 0.0273463 0)
(0.0278574 0.0288434 0)
(0.0278675 0.0303637 0)
(0.0277506 0.0319004 0)
(0.0275015 0.0334459 0)
(0.0271159 0.0349921 0)
(0.0265905 0.0365301 0)
(0.0259227 0.0380508 0)
(0.0251112 0.0395444 0)
(0.024156 0.0410011 0)
(0.0230581 0.0424106 0)
(0.0218203 0.0437626 0)
(0.0204465 0.0450466 0)
(0.0189422 0.0462526 0)
(0.0173144 0.0473707 0)
(0.0155713 0.0483915 0)
(0.0137229 0.049306 0)
(0.0117802 0.0501063 0)
(0.00975546 0.0507849 0)
(0.00766206 0.0513358 0)
(0.00551392 0.0517536 0)
(0.00332323 0.0520345 0)
(0.00110926 0.0521755 0)
(0.000674707 0.00739508 0)
(0.00202245 0.00745795 0)
(0.00336875 0.00758376 0)
(0.00471392 0.00777287 0)
(0.0060558 0.00802569 0)
(0.00739323 0.00834279 0)
(0.00872482 0.00872482 0)
(0.010049 0.00917253 0)
(0.0113638 0.00968675 0)
(0.0126671 0.0102684 0)
(0.0139565 0.0109182 0)
(0.015229 0.0116373 0)
(0.0164813 0.0124262 0)
(0.0177098 0.0132859 0)
(0.0189104 0.0142169 0)
(0.0200785 0.0152195 0)
(0.0212092 0.016294 0)
(0.0222969 0.0174403 0)
(0.0233359 0.0186578 0)
(0.0243197 0.0199459 0)
(0.0252419 0.0213031 0)
(0.0260953 0.0227277 0)
(0.0268726 0.0242174 0)
(0.0275664 0.0257691 0)
(0.0281689 0.0273792 0)
(0.0286724 0.0290434 0)
(0.0290692 0.0307565 0)
(0.0293517 0.0325128 0)
(0.0295126 0.0343055 0)
(0.0295448 0.0361272 0)
(0.0294421 0.0379695 0)
(0.0291986 0.0398235 0)
(0.0288093 0.0416793 0)
(0.0282703 0.0435265 0)
(0.0275785 0.0453538 0)
(0.0267323 0.0471497 0)
(0.0257311 0.0489021 0)
(0.024576 0.0505985 0)
(0.0232695 0.0522265 0)
(0.0218158 0.0537735 0)
(0.0202204 0.0552271 0)
(0.0184909 0.0565753 0)
(0.016636 0.0578066 0)
(0.0146664 0.0589101 0)
(0.012594 0.0598759 0)
(0.010432 0.0606952 0)
(0.00819514 0.0613603 0)
(0.00589843 0.0618648 0)
(0.00355543 0.062204 0)
(0.0011869 0.0623743 0)
(0.000708619 0.00850791 0)
(0.00212423 0.00858074 0)
(0.00353863 0.00872651 0)
(0.00495233 0.00894563 0)
(0.00636328 0.00923861 0)
(0.00777043 0.00960612 0)
(0.00917253 0.010049 0)
(0.0105681 0.0105681 0)
(0.0119552 0.0111644 0)
(0.0133318 0.0118391 0)
(0.0146954 0.0125932 0)
(0.0160431 0.0134278 0)
(0.0173716 0.0143439 0)
(0.0186769 0.0153425 0)
(0.0199549 0.0164243 0)
(0.0212008 0.01759 0)
(0.0224093 0.0188397 0)
(0.0235746 0.0201736 0)
(0.0246905 0.0215912 0)
(0.0257502 0.0230917 0)
(0.0267466 0.0246736 0)
(0.027672 0.0263351 0)
(0.0285185 0.0280734 0)
(0.0292779 0.0298852 0)
(0.0299418 0.0317665 0)
(0.0305016 0.0337121 0)
(0.0309488 0.0357164 0)
(0.0312749 0.0377725 0)
(0.0314718 0.0398726 0)
(0.0315315 0.0420082 0)
(0.0314469 0.0441694 0)
(0.0312113 0.0463459 0)
(0.0308189 0.0485259 0)
(0.030265 0.0506972 0)
(0.0295459 0.0528467 0)
(0.0286595 0.0549606 0)
(0.0276048 0.0570245 0)
(0.0263826 0.0590238 0)
(0.0249953 0.0609435 0)
(0.0234471 0.0627687 0)
(0.021744 0.0644847 0)
(0.0198938 0.0660769 0)
(0.0179061 0.0675317 0)
(0.0157923 0.0688361 0)
(0.0135653 0.0699781 0)
(0.0112398 0.0709471 0)
(0.0088317 0.071734 0)
(0.00635764 0.072331 0)
(0.00383274 0.0727323 0)
(0.00127962 0.0729339 0)
(0.00074754 0.00960893 0)
(0.00224105 0.00969184 0)
(0.00373363 0.00985778 0)
(0.00522602 0.0101072 0)
(0.0067163 0.0104408 0)
(0.00820358 0.0108594 0)
(0.00968675 0.0113638 0)
(0.0111644 0.0119552 0)
(0.0126348 0.0126348 0)
(0.0140959 0.0134039 0)
(0.0155452 0.0142638 0)
(0.0169797 0.0152159 0)
(0.018396 0.0162615 0)
(0.0197902 0.0174016 0)
(0.0211579 0.0186373 0)
(0.022494 0.0199695 0)
(0.0237929 0.0213985 0)
(0.0250484 0.0229246 0)
(0.0262539 0.0245474 0)
(0.0274021 0.0262661 0)
(0.0284853 0.0280793 0)
(0.029495 0.0299849 0)
(0.0304228 0.03198 0)
(0.0312595 0.034061 0)
(0.0319958 0.0362232 0)
(0.0326224 0.0384612 0)
(0.0331296 0.0407683 0)
(0.0335079 0.0431368 0)
(0.0337482 0.0455581 0)
(0.0338416 0.048022 0)
(0.0337798 0.0505176 0)
(0.033555 0.0530327 0)
(0.0331607 0.055554 0)
(0.0325911 0.0580671 0)
(0.0318419 0.0605569 0)
(0.03091 0.0630072 0)
(0.0297943 0.0654014 0)
(0.028495 0.0677223 0)
(0.0270145 0.0699523 0)
(0.0253569 0.0720739 0)
(0.0235286 0.0740697 0)
(0.0215379 0.0759226 0)
(0.0193952 0.0776165 0)
(0.0171128 0.0791359 0)
(0.014705 0.0804667 0)
(0.0121879 0.0815964 0)
(0.00957897 0.0825138 0)
(0.00689679 0.0832101 0)
(0.00415838 0.0836783 0)
(0.0013885 0.0839135 0)
(0.000791526 0.0106959 0)
(0.00237308 0.010789 0)
(0.00395404 0.0109753 0)
(0.00553539 0.0112555 0)
(0.00711541 0.0116302 0)
(0.00869338 0.0121004 0)
(0.0102684 0.0126671 0)
(0.0118391 0.0133318 0)
(0.0134039 0.0140959 0)
(0.0149609 0.0149609 0)
(0.0165075 0.0159284 0)
(0.0180407 0.017 0)
(0.0195572 0.0181773 0)
(0.0210528 0.0194617 0)
(0.0225228 0.0208547 0)
(0.023962 0.0223571 0)
(0.0253644 0.0239698 0)
(0.0267235 0.025693 0)
(0.028032 0.0275267 0)
(0.0292821 0.0294701 0)
(0.0304653 0.0315218 0)
(0.0315726 0.0336796 0)
(0.0325946 0.0359406 0)
(0.0335211 0.0383007 0)
(0.034342 0.040755 0)
(0.0350467 0.0432974 0)
(0.0356245 0.0459206 0)
(0.0360647 0.048616 0)
(0.036357 0.0513738 0)
(0.0364911 0.0541828 0)
(0.0364576 0.0570304 0)
(0.0362476 0.0599027 0)
(0.0358533 0.0627847 0)
(0.0352679 0.06566 0)
(0.034486 0.068511 0)
(0.033504 0.0713192 0)
(0.0323199 0.0740654 0)
(0.0309335 0.0767297 0)
(0.0293469 0.0792916 0)
(0.0275645 0.0817307 0)
(0.0255928 0.0840268 0)
(0.0234406 0.08616 0)
(0.0211194 0.0881111 0)
(0.0186425 0.0898622 0)
(0.0160258 0.0913967 0)
(0.0132869 0.0926997 0)
(0.0104455 0.0937584 0)
(0.00752211 0.0945621 0)
(0.0045361 0.0951025 0)
(0.00151481 0.095374 0)
(0.000840629 0.0117664 0)
(0.00252047 0.0118698 0)
(0.00420012 0.0120767 0)
(0.00588086 0.0123879 0)
(0.00756116 0.0128041 0)
(0.00924053 0.0133266 0)
(0.0109182 0.0139565 0)
(0.0125932 0.0146954 0)
(0.0142638 0.0155452 0)
(0.0159284 0.0165075 0)
(0.0175843 0.0175843 0)
(0.0192286 0.0187775 0)
(0.0208578 0.0200891 0)
(0.0224676 0.0215208 0)
(0.0240533 0.0230744 0)
(0.0256091 0.0247511 0)
(0.0271288 0.026552 0)
(0.0286053 0.0284778 0)
(0.030031 0.0305284 0)
(0.0313972 0.0327034 0)
(0.0326948 0.0350014 0)
(0.0339138 0.0374204 0)
(0.0350439 0.0399571 0)
(0.036074 0.0426075 0)
(0.0369926 0.0453661 0)
(0.037788 0.0482264 0)
(0.0384481 0.0511804 0)
(0.0389611 0.0542187 0)
(0.039315 0.0573303 0)
(0.0394982 0.0605029 0)
(0.0394997 0.0637223 0)
(0.0393094 0.0669731 0)
(0.0389179 0.0702379 0)
(0.0383173 0.0734984 0)
(0.0375011 0.0767346 0)
(0.0364645 0.0799253 0)
(0.0352047 0.0830484 0)
(0.0337212 0.0860811 0)
(0.0320156 0.0889999 0)
(0.0300922 0.0917811 0)
(0.0279579 0.0944012 0)
(0.0256222 0.0968371 0)
(0.0230974 0.0990667 0)
(0.0203984 0.101069 0)
(0.0175426 0.102824 0)
(0.0145496 0.104316 0)
(0.0114413 0.105528 0)
(0.00824089 0.106448 0)
(0.00497035 0.107068 0)
(0.00166003 0.107379 0)
(0.000894903 0.0128176 0)
(0.0026834 0.0129314 0)
(0.00447216 0.0131591 0)
(0.00626282 0.0135016 0)
(0.00805408 0.0139599 0)
(0.00984573 0.0145351 0)
(0.0116373 0.015229 0)
(0.0134278 0.0160431 0)
(0.0152159 0.0169797 0)
(0.017 0.0180407 0)
(0.0187775 0.0192286 0)
(0.0205456 0.0205456 0)
(0.0223005 0.0219939 0)
(0.0240381 0.023576 0)
(0.0257531 0.0252936 0)
(0.0274396 0.0271488 0)
(0.0290911 0.0291428 0)
(0.0306999 0.0312766 0)
(0.0322576 0.0335507 0)
(0.0337551 0.0359646 0)
(0.0351823 0.0385174 0)
(0.0365283 0.0412069 0)
(0.0377817 0.0440301 0)
(0.0389301 0.0469826 0)
(0.039961 0.0500589 0)
(0.040861 0.0532518 0)
(0.0416168 0.0565528 0)
(0.0422147 0.0599516 0)
(0.0426412 0.0634363 0)
(0.0428831 0.0669932 0)
(0.0429278 0.0706066 0)
(0.0427632 0.0742593 0)
(0.0423786 0.0779319 0)
(0.0417645 0.0816037 0)
(0.0409129 0.0852521 0)
(0.0398179 0.0888531 0)
(0.0384757 0.0923815 0)
(0.0368849 0.0958113 0)
(0.0350469 0.0991154 0)
(0.0329658 0.102267 0)
(0.0306488 0.105238 0)
(0.0281062 0.108003 0)
(0.0253512 0.110536 0)
(0.0224002 0.112811 0)
(0.0192727 0.114808 0)
(0.0159904 0.116505 0)
(0.0125781 0.117885 0)
(0.00906165 0.118933 0)
(0.0054663 0.119638 0)
(0.0018259 0.119993 0)
(0.000954394 0.0138465 0)
(0.002862 0.0139708 0)
(0.0047704 0.0142195 0)
(0.00668162 0.0145937 0)
(0.00859466 0.0150943 0)
(0.0105096 0.0157229 0)
(0.0124262 0.0164813 0)
(0.0143439 0.0173716 0)
(0.0162615 0.018396 0)
(0.0181773 0.0195572 0)
(0.0200891 0.0208578 0)
(0.0219939 0.0223005 0)
(0.0238882 0.0238882 0)
(0.0257673 0.0256234 0)
(0.0276261 0.0275088 0)
(0.0294582 0.0295465 0)
(0.0312566 0.0317385 0)
(0.0330132 0.0340862 0)
(0.034719 0.0365903 0)
(0.0363639 0.039251 0)
(0.0379371 0.0420673 0)
(0.0394265 0.0450374 0)
(0.0408196 0.0481584 0)
(0.0421027 0.0514258 0)
(0.0432617 0.054834 0)
(0.0442819 0.0583754 0)
(0.045148 0.0620409 0)
(0.0458447 0.0658196 0)
(0.0463566 0.0696984 0)
(0.0466685 0.0736623 0)
(0.0467658 0.0776943 0)
(0.0466347 0.081775 0)
(0.0462623 0.0858832 0)
(0.0456375 0.0899954 0)
(0.0447505 0.0940864 0)
(0.043594 0.0981291 0)
(0.0421629 0.102095 0)
(0.0404551 0.105954 0)
(0.0384711 0.109676 0)
(0.036215 0.11323 0)
(0.0336942 0.116584 0)
(0.0309196 0.119708 0)
(0.0279058 0.122571 0)
(0.0246708 0.125146 0)
(0.0212362 0.127407 0)
(0.0176265 0.12933 0)
(0.0138693 0.130894 0)
(0.00999427 0.132083 0)
(0.00602996 0.132883 0)
(0.00201443 0.133285 0)
(0.00101914 0.01485 0)
(0.00305639 0.0149847 0)
(0.00509504 0.0152546 0)
(0.00713757 0.0156606 0)
(0.00918332 0.0162039 0)
(0.0112327 0.0168863 0)
(0.0132859 0.0177098 0)
(0.0153425 0.0186769 0)
(0.0174016 0.0197902 0)
(0.0194617 0.0210528 0)
(0.0215208 0.0224676 0)
(0.023576 0.0240381 0)
(0.0256234 0.0257673 0)
(0.0276587 0.0276587 0)
(0.0296762 0.0297152 0)
(0.0316694 0.0319397 0)
(0.0336308 0.0343346 0)
(0.0355517 0.0369018 0)
(0.0374224 0.0396428 0)
(0.0392321 0.042558 0)
(0.0409687 0.0456469 0)
(0.0426194 0.0489081 0)
(0.0441701 0.0523388 0)
(0.0456057 0.0559347 0)
(0.0469105 0.0596899 0)
(0.0480679 0.0635967 0)
(0.049061 0.0676457 0)
(0.0498721 0.071825 0)
(0.0504839 0.0761207 0)
(0.050879 0.0805166 0)
(0.0510405 0.0849939 0)
(0.0509521 0.0895316 0)
(0.050599 0.094106 0)
(0.0499677 0.0986911 0)
(0.0490466 0.103259 0)
(0.0478265 0.107778 0)
(0.0463008 0.112218 0)
(0.0444662 0.116543 0)
(0.0423225 0.12072 0)
(0.0398734 0.124712 0)
(0.0371265 0.128484 0)
(0.0340935 0.132001 0)
(0.0307901 0.135228 0)
(0.0272364 0.138133 0)
(0.0234563 0.140684 0)
(0.0194774 0.142856 0)
(0.0153309 0.144624 0)
(0.0110502 0.145967 0)
(0.00666828 0.146872 0)
(0.00222797 0.147327 0)
(0.00108917 0.0158243 0)
(0.00326664 0.0159696 0)
(0.00544622 0.0162607 0)
(0.00763089 0.0166986 0)
(0.00982037 0.0172848 0)
(0.0120155 0.0180213 0)
(0.0142169 0.0189104 0)
(0.0164243 0.0199549 0)
(0.0186373 0.0211579 0)
(0.0208547 0.0225228 0)
(0.0230744 0.0240533 0)
(0.0252936 0.0257531 0)
(0.0275088 0.0276261 0)
(0.0297152 0.0296762 0)
(0.0319071 0.0319071 0)
(0.0340776 0.0343222 0)
(0.0362188 0.0369248 0)
(0.0383215 0.0397174 0)
(0.0403751 0.042702 0)
(0.0423681 0.0458796 0)
(0.0442872 0.0492505 0)
(0.0461184 0.0528134 0)
(0.0478461 0.0565661 0)
(0.0494538 0.0605044 0)
(0.0509238 0.0646226 0)
(0.0522377 0.0689129 0)
(0.0533762 0.0733653 0)
(0.0543197 0.0779676 0)
(0.0550482 0.0827048 0)
(0.0555417 0.0875596 0)
(0.0557808 0.0925116 0)
(0.0557467 0.0975378 0)
(0.0554218 0.102612 0)
(0.0547901 0.107706 0)
(0.0538376 0.112788 0)
(0.052553 0.117824 0)
(0.0509279 0.122777 0)
(0.0489573 0.12761 0)
(0.0466401 0.132283 0)
(0.0439795 0.136756 0)
(0.0409831 0.140987 0)
(0.0376633 0.144936 0)
(0.0340373 0.148563 0)
(0.0301271 0.151831 0)
(0.0259596 0.154704 0)
(0.0215657 0.157151 0)
(0.0169807 0.159144 0)
(0.0122426 0.16066 0)
(0.00738931 0.161681 0)
(0.00246921 0.162194 0)
(0.00116449 0.0167656 0)
(0.00349281 0.0169215 0)
(0.00582402 0.0172338 0)
(0.0081617 0.0177037 0)
(0.010506 0.0183329 0)
(0.0128583 0.0191236 0)
(0.0152195 0.0200785 0)
(0.01759 0.0212008 0)
(0.0199695 0.022494 0)
(0.0223571 0.023962 0)
(0.0247511 0.0256091 0)
(0.0271488 0.0274396 0)
(0.0295465 0.0294582 0)
(0.0319397 0.0316694 0)
(0.0343222 0.0340776 0)
(0.0366871 0.0366871 0)
(0.0390259 0.0395019 0)
(0.0413288 0.0425253 0)
(0.0435846 0.04576 0)
(0.0457805 0.049208 0)
(0.0479026 0.0528699 0)
(0.0499351 0.0567455 0)
(0.0518611 0.0608327 0)
(0.0536622 0.065128 0)
(0.055319 0.0696257 0)
(0.0568106 0.0743181 0)
(0.0581156 0.0791952 0)
(0.0592116 0.084244 0)
(0.060076 0.089449 0)
(0.0606858 0.0947917 0)
(0.0610187 0.10025 0)
(0.0610527 0.105799 0)
(0.0607672 0.111411 0)
(0.0601433 0.117053 0)
(0.0591642 0.122691 0)
(0.0578158 0.128286 0)
(0.0560875 0.133799 0)
(0.0539724 0.139186 0)
(0.051468 0.144403 0)
(0.0485769 0.149402 0)
(0.0453064 0.154138 0)
(0.0416696 0.158564 0)
(0.0376853 0.162634 0)
(0.0333778 0.166304 0)
(0.0287768 0.169535 0)
(0.0239176 0.172288 0)
(0.0188397 0.174532 0)
(0.0135868 0.176239 0)
(0.00820236 0.17739 0)
(0.00274127 0.177968 0)
(0.00124509 0.0176698 0)
(0.00373486 0.0178363 0)
(0.00622842 0.0181698 0)
(0.00872999 0.0186716 0)
(0.0112403 0.0193437 0)
(0.0137611 0.0201885 0)
(0.016294 0.0212092 0)
(0.0188397 0.0224093 0)
(0.0213985 0.0237929 0)
(0.0239698 0.0253644 0)
(0.026552 0.0271288 0)
(0.0291428 0.0290911 0)
(0.0317385 0.0312566 0)
(0.0343346 0.0336308 0)
(0.0369248 0.0362188 0)
(0.0395019 0.0390259 0)
(0.042057 0.042057 0)
(0.0445796 0.0453162 0)
(0.0470578 0.0488073 0)
(0.049478 0.0525331 0)
(0.0518247 0.0564953 0)
(0.0540812 0.0606941 0)
(0.0562286 0.0651285 0)
(0.0582467 0.0697953 0)
(0.060114 0.0746895 0)
(0.0618072 0.0798035 0)
(0.0633021 0.0851272 0)
(0.0645736 0.0906476 0)
(0.0655958 0.0963483 0)
(0.0663427 0.10221 0)
(0.0667883 0.108209 0)
(0.0669073 0.114318 0)
(0.0666753 0.120507 0)
(0.06607 0.126741 0)
(0.0650712 0.132981 0)
(0.0636617 0.139185 0)
(0.0618279 0.145308 0)
(0.0595608 0.151301 0)
(0.056856 0.157113 0)
(0.0537149 0.162693 0)
(0.0501446 0.167986 0)
(0.0461588 0.172939 0)
(0.0417777 0.1775 0)
(0.0370281 0.181618 0)
(0.0319434 0.185246 0)
(0.026563 0.188341 0)
(0.0209321 0.190866 0)
(0.0151005 0.192788 0)
(0.00911821 0.194083 0)
(0.00304779 0.194735 0)
(0.00133095 0.0185325 0)
(0.00399272 0.0187094 0)
(0.00665928 0.0190639 0)
(0.0093356 0.0195974 0)
(0.0120229 0.0203121 0)
(0.0147238 0.0212108 0)
(0.0174403 0.0222969 0)
(0.0201736 0.0235746 0)
(0.0229246 0.0250484 0)
(0.025693 0.0267235 0)
(0.0284778 0.0286053 0)
(0.0312766 0.0306999 0)
(0.0340862 0.0330132 0)
(0.0369018 0.0355517 0)
(0.0397174 0.0383215 0)
(0.0425253 0.0413288 0)
(0.0453162 0.0445796 0)
(0.0480792 0.0480792 0)
(0.0508015 0.0518324 0)
(0.0534685 0.0558431 0)
(0.0560635 0.060114 0)
(0.0585683 0.0646465 0)
(0.0609623 0.0694404 0)
(0.0632232 0.0744935 0)
(0.0653272 0.0798013 0)
(0.0672484 0.0853567 0)
(0.0689597 0.0911499 0)
(0.0704327 0.0971678 0)
(0.0716381 0.103393 0)
(0.0725461 0.109807 0)
(0.0731268 0.116382 0)
(0.0733509 0.123092 0)
(0.0731898 0.129902 0)
(0.072617 0.136775 0)
(0.0716083 0.143668 0)
(0.0701428 0.150534 0)
(0.0682034 0.157323 0)
(0.0657781 0.16398 0)
(0.0628602 0.170449 0)
(0.0594496 0.176668 0)
(0.0555528 0.182578 0)
(0.0511838 0.188117 0)
(0.0463643 0.193225 0)
(0.041124 0.197842 0)
(0.0354999 0.201915 0)
(0.0295368 0.205392 0)
(0.023286 0.208231 0)
(0.0168041 0.210394 0)
(0.0101494 0.211852 0)
(0.00339297 0.212586 0)
(0.00142202 0.0193489 0)
(0.00426622 0.0195362 0)
(0.00711634 0.0199113 0)
(0.00997818 0.0204761 0)
(0.0128537 0.0212329 0)
(0.015746 0.0221849 0)
(0.0186578 0.0233359 0)
(0.0215912 0.0246905 0)
(0.0245474 0.0262539 0)
(0.0275267 0.028032 0)
(0.0305284 0.030031 0)
(0.0335507 0.0322576 0)
(0.0365903 0.034719 0)
(0.0396428 0.0374224 0)
(0.042702 0.0403751 0)
(0.04576 0.0435846 0)
(0.0488073 0.0470578 0)
(0.0518324 0.0508015 0)
(0.0548217 0.0548217 0)
(0.0577595 0.0591235 0)
(0.0606282 0.0637112 0)
(0.0634076 0.0685872 0)
(0.0660755 0.0737526 0)
(0.0686076 0.0792062 0)
(0.0709772 0.0849447 0)
(0.0731559 0.0909616 0)
(0.0751131 0.0972476 0)
(0.0768171 0.10379 0)
(0.0782346 0.110571 0)
(0.0793317 0.11757 0)
(0.0800738 0.124762 0)
(0.080427 0.132115 0)
(0.0803581 0.139594 0)
(0.0798355 0.147157 0)
(0.0788304 0.154758 0)
(0.077317 0.162346 0)
(0.0752744 0.169864 0)
(0.0726866 0.17725 0)
(0.0695441 0.184442 0)
(0.0658445 0.191369 0)
(0.0615934 0.197964 0)
(0.056805 0.204154 0)
(0.0515024 0.209872 0)
(0.0457181 0.215048 0)
(0.0394936 0.219619 0)
(0.0328793 0.223527 0)
(0.0259336 0.226719 0)
(0.0187215 0.229154 0)
(0.0113104 0.230796 0)
(0.0037817 0.231623 0)
(0.00151819 0.0201142 0)
(0.0045551 0.0203116 0)
(0.0075992 0.020707 0)
(0.0106572 0.0213025 0)
(0.0137317 0.0221006 0)
(0.0168268 0.0231049 0)
(0.0199459 0.0243197 0)
(0.0230917 0.0257502 0)
(0.0262661 0.0274021 0)
(0.0294701 0.0292821 0)
(0.0327034 0.0313972 0)
(0.0359646 0.0337551 0)
(0.039251 0.0363639 0)
(0.042558 0.0392321 0)
(0.0458796 0.0423681 0)
(0.049208 0.0457805 0)
(0.0525331 0.049478 0)
(0.0558431 0.0534685 0)
(0.0591235 0.0577595 0)
(0.0623579 0.0623579 0)
(0.0655272 0.0672693 0)
(0.0686097 0.0724978 0)
(0.0715813 0.0780458 0)
(0.0744153 0.0839138 0)
(0.0770825 0.0900995 0)
(0.0795513 0.0965977 0)
(0.0817878 0.1034 0)
(0.0837561 0.110494 0)
(0.0854187 0.117862 0)
(0.086737 0.125484 0)
(0.0876714 0.133332 0)
(0.0881826 0.141374 0)
(0.0882317 0.149572 0)
(0.0877815 0.157882 0)
(0.0867974 0.166253 0)
(0.0852484 0.174627 0)
(0.0831081 0.182943 0)
(0.0803561 0.191132 0)
(0.076979 0.199121 0)
(0.0729716 0.206834 0)
(0.0683379 0.21419 0)
(0.0630918 0.221108 0)
(0.0572579 0.227508 0)
(0.0508714 0.233312 0)
(0.0439789 0.238445 0)
(0.0366372 0.242838 0)
(0.0289128 0.24643 0)
(0.0208804 0.249172 0)
(0.0126182 0.251022 0)
(0.00421968 0.251954 0)
(0.00161937 0.0208232 0)
(0.00485902 0.0210303 0)
(0.00810726 0.0214456 0)
(0.0113718 0.0220709 0)
(0.0146561 0.0229093 0)
(0.0179651 0.0239647 0)
(0.0213031 0.0252419 0)
(0.0246736 0.0267466 0)
(0.0280793 0.0284853 0)
(0.0315218 0.0304653 0)
(0.0350014 0.0326948 0)
(0.0385174 0.0351823 0)
(0.0420673 0.0379371 0)
(0.0456469 0.0409687 0)
(0.0492505 0.0442872 0)
(0.0528699 0.0479026 0)
(0.0564953 0.0518247 0)
(0.060114 0.0560635 0)
(0.0637112 0.0606282 0)
(0.0672693 0.0655272 0)
(0.070768 0.070768 0)
(0.0741841 0.0763567 0)
(0.0774916 0.0822975 0)
(0.0806613 0.0885926 0)
(0.0836611 0.0952413 0)
(0.0864562 0.10224 0)
(0.089009 0.109582 0)
(0.0912793 0.117255 0)
(0.0932248 0.125243 0)
(0.0948015 0.133524 0)
(0.0959643 0.142072 0)
(0.0966675 0.150852 0)
(0.0968659 0.159824 0)
(0.0965157 0.16894 0)
(0.0955755 0.178146 0)
(0.0940076 0.18738 0)
(0.0917794 0.196571 0)
(0.0888649 0.205643 0)
(0.0852456 0.214515 0)
(0.0809128 0.223099 0)
(0.0758678 0.231304 0)
(0.0701238 0.239037 0)
(0.0637065 0.246205 0)
(0.0566544 0.252715 0)
(0.0490191 0.258482 0)
(0.0408648 0.263424 0)
(0.0322676 0.267471 0)
(0.0233133 0.270561 0)
(0.0140927 0.272649 0)
(0.00471361 0.2737 0)
(0.00172538 0.0214705 0)
(0.0051775 0.0216871 0)
(0.00863975 0.0221214 0)
(0.0121209 0.0227756 0)
(0.0156255 0.0236529 0)
(0.0191594 0.0247577 0)
(0.0227277 0.0260953 0)
(0.0263351 0.027672 0)
(0.0299849 0.029495 0)
(0.0336796 0.0315726 0)
(0.0374204 0.0339138 0)
(0.0412069 0.0365283 0)
(0.0450374 0.0394265 0)
(0.0489081 0.0426194 0)
(0.0528134 0.0461184 0)
(0.0567455 0.0499351 0)
(0.0606941 0.0540812 0)
(0.0646465 0.0585683 0)
(0.0685872 0.0634076 0)
(0.0724978 0.0686097 0)
(0.0763567 0.0741841 0)
(0.0801392 0.0801392 0)
(0.0838172 0.0864813 0)
(0.0873592 0.0932148 0)
(0.0907301 0.100341 0)
(0.0938917 0.107859 0)
(0.0968022 0.115763 0)
(0.0994168 0.124042 0)
(0.101688 0.132682 0)
(0.103566 0.141661 0)
(0.104999 0.150953 0)
(0.105935 0.160522 0)
(0.10632 0.170326 0)
(0.106104 0.180314 0)
(0.105237 0.190427 0)
(0.103673 0.200598 0)
(0.101372 0.210749 0)
(0.0983008 0.220796 0)
(0.0944351 0.230647 0)
(0.0897608 0.240201 0)
(0.0842759 0.249355 0)
(0.0779922 0.258002 0)
(0.0709359 0.266034 0)
(0.0631487 0.273344 0)
(0.0546878 0.279829 0)
(0.0456259 0.285396 0)
(0.0360496 0.289959 0)
(0.0260582 0.293448 0)
(0.0157573 0.295806 0)
(0.00527136 0.296995 0)
(0.00183603 0.0220507 0)
(0.00550995 0.0222764 0)
(0.00919569 0.0227289 0)
(0.0129033 0.0234106 0)
(0.0166382 0.0243251 0)
(0.0204075 0.0254772 0)
(0.0242174 0.0268726 0)
(0.0280734 0.0285185 0)
(0.03198 0.0304228 0)
(0.0359406 0.0325946 0)
(0.0399571 0.0350439 0)
(0.0440301 0.0377817 0)
(0.0481584 0.0408196 0)
(0.0523388 0.0441701 0)
(0.0565661 0.0478461 0)
(0.0608327 0.0518611 0)
(0.0651285 0.0562286 0)
(0.0694404 0.0609623 0)
(0.0737526 0.0660755 0)
(0.0780458 0.0715813 0)
(0.0822975 0.0774916 0)
(0.0864813 0.0838172 0)
(0.0905672 0.0905672 0)
(0.0945212 0.0977487 0)
(0.0983054 0.105366 0)
(0.101878 0.113419 0)
(0.105192 0.121906 0)
(0.108198 0.130818 0)
(0.110844 0.140142 0)
(0.113072 0.149858 0)
(0.114825 0.159939 0)
(0.11604 0.17035 0)
(0.116658 0.181047 0)
(0.116618 0.191977 0)
(0.11586 0.203076 0)
(0.11433 0.21427 0)
(0.111978 0.225476 0)
(0.108762 0.236598 0)
(0.10465 0.247534 0)
(0.0996213 0.25817 0)
(0.0936691 0.268388 0)
(0.0868025 0.278064 0)
(0.0790478 0.287072 0)
(0.0704496 0.295288 0)
(0.0610714 0.302592 0)
(0.050995 0.308871 0)
(0.0403197 0.314026 0)
(0.0291601 0.317971 0)
(0.0176394 0.32064 0)
(0.00590222 0.321986 0)
(0.00195108 0.0225584 0)
(0.00585564 0.0227926 0)
(0.00977389 0.0232621 0)
(0.0137171 0.0239698 0)
(0.0176921 0.0249194 0)
(0.0217069 0.0261161 0)
(0.0257691 0.0275664 0)
(0.0298852 0.0292779 0)
(0.034061 0.0312595 0)
(0.0383007 0.0335211 0)
(0.0426075 0.036074 0)
(0.0469826 0.0389301 0)
(0.0514258 0.0421027 0)
(0.0559347 0.0456057 0)
(0.0605044 0.0494538 0)
(0.065128 0.0536622 0)
(0.0697953 0.0582467 0)
(0.0744935 0.0632232 0)
(0.0792062 0.0686076 0)
(0.0839138 0.0744153 0)
(0.0885926 0.0806613 0)
(0.0932148 0.0873592 0)
(0.0977487 0.0945212 0)
(0.102158 0.102158 0)
(0.106401 0.110276 0)
(0.110432 0.11888 0)
(0.114201 0.127969 0)
(0.117653 0.137539 0)
(0.120728 0.147579 0)
(0.123363 0.15807 0)
(0.125491 0.168987 0)
(0.127043 0.180294 0)
(0.127947 0.191948 0)
(0.128133 0.203893 0)
(0.12753 0.216061 0)
(0.126073 0.228373 0)
(0.1237 0.240737 0)
(0.120359 0.253048 0)
(0.116007 0.265189 0)
(0.110615 0.277034 0)
(0.10417 0.288446 0)
(0.0966763 0.299283 0)
(0.0881602 0.309398 0)
(0.0786684 0.318646 0)
(0.0682709 0.326884 0)
(0.0570601 0.333981 0)
(0.0451497 0.339815 0)
(0.0326722 0.344286 0)
(0.0197719 0.347313 0)
(0.00661724 0.34884 0)
(0.00207023 0.0229879 0)
(0.00621369 0.02323 0)
(0.0103729 0.0237154 0)
(0.0145605 0.024447 0)
(0.0187846 0.0254292 0)
(0.0230545 0.0266675 0)
(0.0273792 0.0281689 0)
(0.0317665 0.0299418 0)
(0.0362232 0.0319958 0)
(0.040755 0.034342 0)
(0.0453661 0.0369926 0)
(0.0500589 0.039961 0)
(0.054834 0.0432617 0)
(0.0596899 0.0469105 0)
(0.0646226 0.0509238 0)
(0.0696257 0.055319 0)
(0.0746895 0.060114 0)
(0.0798013 0.0653272 0)
(0.0849447 0.0709772 0)