/*--------------------------------*- C++ -*----------------------------------*\
| =========                 |                                                 |
| \\      /  F ield         | OpenFOAM: The Open Source CFD Toolbox           |
|  \\    /   O peration     | Version:  2406                                  |
|   \\  /    A nd           | Website:  www.openfoam.com                      |
|    \\/     M anipulation  |                                                 |
\*---------------------------------------------------------------------------*/
FoamFile
{
    version     2.0;
    format      ascii;
    arch        "LSB;label=32;scalar=64";
    class       volScalarField;
    location    "1.5";
    object      gradTx;
}
// * * * * * * * * * * * * * * * * * * * * * * * * * * * * * * * * * * * * * //

dimensions      [0 -1 0 1 0 0 0];

internalField   nonuniform List<scalar> 
2500
(
0.00573864
0.0171972
0.0286352
0.040051
0.0514193
0.0627247
0.0739508
0.0850791
0.0960893
0.106959
0.117664
0.128176
0.138465
0.1485
0.158243
0.167656
0.176698
0.185325
0.193489
0.201142
0.208232
0.214705
0.220507
0.225584
0.229879
0.233338
0.235907
0.237534
0.238171
0.237772
0.236298
0.233712
0.229988
0.225104
0.219047
0.211813
0.203408
0.193849
0.183161
0.171382
0.158561
0.144757
0.130039
0.114489
0.0981939
0.0812531
0.0637715
0.0458604
0.0276371
0.00923125
0.00578577
0.0173402
0.0288746
0.0403865
0.0518516
0.0632548
0.0745795
0.0858074
0.0969184
0.10789
0.118698
0.129314
0.139708
0.149847
0.159696
0.169215
0.178363
0.187094
0.195362
0.203116
0.210303
0.216871
0.222764
0.227926
0.2323
0.23583
0.238462
0.240142
0.240822
0.240454
0.238998
0.236417
0.232682
0.227772
0.221672
0.214379
0.205898
0.196245
0.185445
0.173538
0.160571
0.146605
0.13171
0.115968
0.0994695
0.0823141
0.0646087
0.0464646
0.0279909
0.00934241
0.00588155
0.0176272
0.0293531
0.0410576
0.0527167
0.0643154
0.0758376
0.0872651
0.0985778
0.109753
0.120767
0.131591
0.142195
0.152546
0.162607
0.172338
0.181698
0.190639
0.199113
0.20707
0.214456
0.221214
0.227289
0.232621
0.237154
0.240827
0.243586
0.245374
0.24614
0.245836
0.244417
0.241845
0.23809
0.233129
0.226945
0.219534
0.2109
0.201058
0.190035
0.17787
0.16461
0.150319
0.135068
0.118942
0.102034
0.0844466
0.066292
0.0476863
0.0287303
0.00958766
0.00602517
0.0180581
0.030072
0.0420661
0.0540167
0.0659096
0.0777287
0.0894563
0.101072
0.112555
0.123879
0.135016
0.145937
0.156606
0.166986
0.177037
0.186716
0.195974
0.204761
0.213025
0.220709
0.227756
0.234106
0.239698
0.24447
0.248363
0.251314
0.253267
0.254165
0.253957
0.252596
0.250041
0.246258
0.241221
0.234912
0.227324
0.21846
0.208336
0.196976
0.184421
0.17072
0.155938
0.14015
0.123442
0.105914
0.0876721
0.0688345
0.0495226
0.0298402
0.0099585
0.00621703
0.0186338
0.0310327
0.043414
0.0557545
0.0680406
0.0802569
0.0923861
0.104408
0.116302
0.128041
0.139599
0.150943
0.162039
0.172848
0.183329
0.193437
0.203121
0.212329
0.221006
0.229093
0.236529
0.243251
0.249194
0.254292
0.258481
0.261695
0.263872
0.264952
0.264878
0.263599
0.261069
0.257252
0.252116
0.245641
0.237819
0.228649
0.218146
0.206335
0.193257
0.178963
0.16352
0.147007
0.129516
0.111151
0.0920255
0.0722646
0.0519972
0.0313349
0.0104583
0.00645752
0.0193555
0.0322371
0.0451039
0.0579336
0.0707131
0.0834279
0.0960612
0.108594
0.121004
0.133266
0.145351
0.157229
0.168863
0.180213
0.191236
0.201885
0.212108
0.221849
0.231049
0.239647
0.247577
0.254772
0.261161
0.266675
0.271243
0.274794
0.27726
0.278574
0.278675
0.277506
0.275015
0.271159
0.265905
0.259227
0.251112
0.24156
0.230581
0.218203
0.204465
0.189422
0.173144
0.155713
0.137229
0.117802
0.0975546
0.0766206
0.0551392
0.0332323
0.0110926
0.00674707
0.0202245
0.0336875
0.0471392
0.060558
0.0739323
0.0872482
0.10049
0.113638
0.126671
0.139565
0.15229
0.164813
0.177098
0.189104
0.200785
0.212092
0.222969
0.233359
0.243197
0.252419
0.260953
0.268726
0.275664
0.281689
0.286724
0.290692
0.293517
0.295126
0.295448
0.294421
0.291986
0.288093
0.282703
0.275785
0.267323
0.257311
0.24576
0.232695
0.218158
0.202204
0.184909
0.16636
0.146664
0.12594
0.10432
0.0819514
0.0589843
0.0355543
0.011869
0.00708619
0.0212423
0.0353863
0.0495233
0.0636328
0.0777043
0.0917253
0.105681
0.119552
0.133318
0.146954
0.160431
0.173716
0.186769
0.199549
0.212008
0.224093
0.235746
0.246905
0.257502
0.267466
0.27672
0.285185
0.292779
0.299418
0.305016
0.309488
0.312749
0.314718
0.315315
0.314469
0.312113
0.308189
0.30265
0.295459
0.286595
0.276048
0.263826
0.249953
0.234471
0.21744
0.198938
0.179061
0.157923
0.135653
0.112398
0.088317
0.0635764
0.0383274
0.0127962
0.0074754
0.0224105
0.0373363
0.0522602
0.067163
0.0820358
0.0968675
0.111644
0.126348
0.140959
0.155452
0.169797
0.18396
0.197902
0.211579
0.22494
0.237929
0.250484
0.262539
0.274021
0.284853
0.29495
0.304228
0.312595
0.319958
0.326224
0.331296
0.335079
0.337482
0.338416
0.337798
0.33555
0.331607
0.325911
0.318419
0.3091
0.297943
0.28495
0.270145
0.253569
0.235286
0.215379
0.193952
0.171128
0.14705
0.121879
0.0957897
0.0689679
0.0415838
0.013885
0.00791526
0.0237308
0.0395404
0.0553539
0.0711541
0.0869338
0.102684
0.118391
0.134039
0.149609
0.165075
0.180407
0.195572
0.210528
0.225228
0.23962
0.253644
0.267235
0.28032
0.292821
0.304653
0.315726
0.325946
0.335211
0.34342
0.350467
0.356245
0.360647
0.36357
0.364911
0.364576
0.362476
0.358533
0.352679
0.34486
0.33504
0.323199
0.309335
0.293469
0.275645
0.255928
0.234406
0.211194
0.186425
0.160258
0.132869
0.104455
0.0752211
0.045361
0.0151481
0.00840629
0.0252047
0.0420012
0.0588086
0.0756116
0.0924053
0.109182
0.125932
0.142638
0.159284
0.175843
0.192286
0.208578
0.224676
0.240533
0.256091
0.271288
0.286053
0.30031
0.313972
0.326948
0.339138
0.350439
0.36074
0.369926
0.37788
0.384481
0.389611
0.39315
0.394982
0.394997
0.393094
0.389179
0.383173
0.375011
0.364645
0.352047
0.337212
0.320156
0.300922
0.279579
0.256222
0.230974
0.203984
0.175426
0.145496
0.114413
0.0824089
0.0497035
0.0166003
0.00894903
0.026834
0.0447216
0.0626282
0.0805408
0.0984573
0.116373
0.134278
0.152159
0.17
0.187775
0.205456
0.223005
0.240381
0.257531
0.274396
0.290911
0.306999
0.322576
0.337551
0.351823
0.365283
0.377817
0.389301
0.39961
0.40861
0.416168
0.422147
0.426412
0.428831
0.429278
0.427632
0.423786
0.417645
0.409129
0.398179
0.384757
0.368849
0.350469
0.329658
0.306488
0.281062
0.253512
0.224002
0.192727
0.159904
0.125781
0.0906165
0.054663
0.018259
0.00954394
0.02862
0.047704
0.0668162
0.0859466
0.105096
0.124262
0.143439
0.162615
0.181773
0.200891
0.219939
0.238882
0.257673
0.276261
0.294582
0.312566
0.330132
0.34719
0.363639
0.379371
0.394265
0.408196
0.421027
0.432617
0.442819
0.45148
0.458447
0.463566
0.466685
0.467658
0.466347
0.462623
0.456375
0.447505
0.43594
0.421629
0.404551
0.384711
0.36215
0.336942
0.309196
0.279058
0.246708
0.212362
0.176265
0.138693
0.0999427
0.0602996
0.0201443
0.0101914
0.0305639
0.0509504
0.0713757
0.0918332
0.112327
0.132859
0.153425
0.174016
0.194617
0.215208
0.23576
0.256234
0.276587
0.296762
0.316694
0.336308
0.355517
0.374224
0.392321
0.409687
0.426194
0.441701
0.456057
0.469105
0.480679
0.49061
0.498721
0.504839
0.50879
0.510405
0.509521
0.50599
0.499677
0.490466
0.478265
0.463008
0.444662
0.423225
0.398734
0.371265
0.340935
0.307901
0.272364
0.234563
0.194774
0.153309
0.110502
0.0666828
0.0222797
0.0108917
0.0326664
0.0544622
0.0763089
0.0982037
0.120155
0.142169
0.164243
0.186373
0.208547
0.230744
0.252936
0.275088
0.297152
0.319071
0.340776
0.362188
0.383215
0.403751
0.423681
0.442872
0.461184
0.478461
0.494538
0.509238
0.522377
0.533762
0.543197
0.550482
0.555417
0.557808
0.557467
0.554218
0.547901
0.538376
0.52553
0.509279
0.489573
0.466401
0.439795
0.409831
0.376633
0.340373
0.301271
0.259596
0.215657
0.169807
0.122426
0.0738931
0.0246921
0.0116449
0.0349281
0.0582402
0.081617
0.10506
0.128583
0.152195
0.1759
0.199695
0.223571
0.247511
0.271488
0.295465
0.319397
0.343222
0.366871
0.390259
0.413288
0.435846
0.457805
0.479026
0.499351
0.518611
0.536622
0.55319
0.568106
0.581156
0.592116
0.60076
0.606858
0.610187
0.610527
0.607672
0.601433
0.591642
0.578158
0.560875
0.539724
0.51468
0.485769
0.453064
0.416696
0.376853
0.333778
0.287768
0.239176
0.188397
0.135868
0.0820236
0.0274127
0.0124509
0.0373486
0.0622842
0.0872999
0.112403
0.137611
0.16294
0.188397
0.213985
0.239698
0.26552
0.291428
0.317385
0.343346
0.369248
0.395019
0.42057
0.445796
0.470578
0.49478
0.518247
0.540812
0.562286
0.582467
0.60114
0.618072
0.633021
0.645736
0.655958
0.663427
0.667883
0.669073
0.666753
0.6607
0.650712
0.636617
0.618279
0.595608
0.56856
0.537149
0.501446
0.461588
0.417777
0.370281
0.319434
0.26563
0.209321
0.151005
0.0911821
0.0304779
0.0133095
0.0399272
0.0665928
0.093356
0.120229
0.147238
0.174403
0.201736
0.229246
0.25693
0.284778
0.312766
0.340862
0.369018
0.397174
0.425253
0.453162
0.480792
0.508015
0.534685
0.560635
0.585683
0.609623
0.632232
0.653272
0.672484
0.689597
0.704327
0.716381
0.725461
0.731268
0.733509
0.731898
0.72617
0.716083
0.701428
0.682034
0.657781
0.628602
0.594496
0.555528
0.511838
0.463643
0.41124
0.354999
0.295368
0.23286
0.168041
0.101494
0.0339297
0.0142202
0.0426622
0.0711634
0.0997818
0.128537
0.15746
0.186578
0.215912
0.245474
0.275267
0.305284
0.335507
0.365903
0.396428
0.42702
0.4576
0.488073
0.518324
0.548217
0.577595
0.606282
0.634076
0.660755
0.686076
0.709772
0.731559
0.751131
0.768171
0.782346
0.793317
0.800738
0.80427
0.803581
0.798355
0.788304
0.77317
0.752744
0.726866
0.695441
0.658445
0.615934
0.56805
0.515024
0.457181
0.394936
0.328793
0.259336
0.187215
0.113104
0.037817
0.0151819
0.045551
0.075992
0.106572
0.137317
0.168268
0.199459
0.230917
0.262661
0.294701
0.327034
0.359646
0.39251
0.42558
0.458796
0.49208
0.525331
0.558431
0.591235
0.623579
0.655272
0.686097
0.715813
0.744153
0.770825
0.795513
0.817878
0.837561
0.854187
0.86737
0.876714
0.881826
0.882317
0.877815
0.867974
0.852484
0.831081
0.803561
0.76979
0.729716
0.683379
0.630918
0.572579
0.508714
0.439789
0.366372
0.289128
0.208804
0.126182
0.0421968
0.0161937
0.0485902
0.0810726
0.113718
0.146561
0.179651
0.213031
0.246736
0.280793
0.315218
0.350014
0.385174
0.420673
0.456469
0.492505
0.528699
0.564953
0.60114
0.637112
0.672693
0.70768
0.741841
0.774916
0.806613
0.836611
0.864562
0.89009
0.912793
0.932248
0.948015
0.959643
0.966675
0.968659
0.965157
0.955755
0.940076
0.917794
0.888649
0.852456
0.809128
0.758678
0.701238
0.637065
0.566544
0.490191
0.408648
0.322676
0.233133
0.140927
0.0471361
0.0172538
0.051775
0.0863975
0.121209
0.156255
0.191594
0.227277
0.263351
0.299849
0.336796
0.374204
0.412069
0.450374
0.489081
0.528134
0.567455
0.606941
0.646465
0.685872
0.724978
0.763567
0.801392
0.838172
0.873592
0.907301
0.938917
0.968022
0.994168
1.01688
1.03566
1.04999
1.05935
1.0632
1.06104
1.05237
1.03673
1.01372
0.983008
0.944351
0.897608
0.842759
0.779922
0.709359
0.631487
0.546878
0.456259
0.360496
0.260582
0.157573
0.0527136
0.0183603
0.0550995
0.0919569
0.129033
0.166382
0.204075
0.242174
0.280734
0.3198
0.359406
0.399571
0.440301
0.481584
0.523388
0.565661
0.608327
0.651285
0.694404
0.737526
0.780458
0.822975
0.864813
0.905672
0.945212
0.983054
1.01878
1.05192
1.08198
1.10844
1.13072
1.14825
1.1604
1.16658
1.16618
1.1586
1.1433
1.11978
1.08762
1.0465
0.996213
0.936691
0.868025
0.790478
0.704496
0.610714
0.50995
0.403197
0.291601
0.176394
0.0590222
0.0195108
0.0585564
0.0977389
0.137171
0.176921
0.217069
0.257691
0.298852
0.34061
0.383007
0.426075
0.469826
0.514258
0.559347
0.605044
0.65128
0.697953
0.744935
0.792062
0.839138
0.885926
0.932148
0.977487
1.02158
1.06401
1.10432
1.14201
1.17653
1.20728
1.23363
1.25491
1.27043
1.27947
1.28133
1.2753
1.26073
1.237
1.20359
1.16007
1.10615
1.0417
0.966763
0.881602
0.786684
0.682709
0.570601
0.451497
0.326722
0.197719
0.0661724
0.0207023
0.0621369
0.103729
0.145605
0.187846
0.230545
0.273792
0.317665
0.362232
0.40755
0.453661
0.500589
0.54834
0.596899
0.646226
0.696257
0.746895
0.798013
0.849447
0.900995
0.952413
1.00341
1.05366
1.10276
1.15027
1.19571
1.23851
1.27808
1.31375
1.3448
1.37049
1.39002
1.40257
1.4073
1.4034
1.39005
1.36652
1.33214
1.28636
1.22879
1.15918
1.07755
0.984107
0.879356
0.764058
0.639255
0.506249
0.366579
0.221938
0.0742963
0.0219315
0.065831
0.10991
0.15431
0.199126
0.244466
0.290434
0.337121
0.384612
0.432974
0.482264
0.532518
0.583754
0.635967
0.689129
0.743181
0.798035
0.853567
0.909616
0.965977
1.0224
1.07859
1.13419
1.1888
1.24193
1.29307
1.34161
1.38688
1.42816
1.46465
1.4955
1.51981
1.53662
1.54497
1.54388
1.5324
1.5096
1.47466
1.42688
1.36569
1.29077
1.20202
1.09961
0.984051
0.856176
0.717153
0.568476
0.411934
0.249521
0.0835525
0.0231943
0.0696266
0.116262
0.163258
0.210726
0.258789
0.307565
0.357164
0.407683
0.459206
0.511804
0.565528
0.620409
0.676457
0.733653
0.791952
0.851272
0.911499
0.972476
1.034
1.09582
1.15763
1.21906
1.27969
1.33902
1.39648
1.45143
1.50315
1.55082
1.59357
1.63044
1.66041
1.68238
1.69524
1.69782
1.68899
1.66762
1.63268
1.58328
1.51866
1.43834
1.34208
1.23
1.10259
0.960749
0.80578
0.639403
0.463703
0.281035
0.0941329
0.0244863
0.0735103
0.122762
0.172419
0.222605
0.273463
0.325128
0.377725
0.431368
0.48616
0.542187
0.599516
0.658196
0.71825
0.779676
0.84244
0.906476
0.971678
1.0379
1.10494
1.17255
1.24042
1.30818
1.37539
1.44153
1.50599
1.56809
1.62704
1.68197
1.7319
1.77578
1.81243
1.84062
1.85904
1.86634
1.86114
1.84209
1.80792
1.75746
1.68974
1.60404
1.49997
1.37752
1.23715
1.0798
0.90693
0.720519
0.523001
0.31717
0.106272
0.0258025
0.077467
0.129386
0.181756
0.234718
0.288434
0.343055
0.398726
0.455581
0.513738
0.573303
0.634363
0.696984
0.761207
0.827048
0.89449
0.963483
1.03393
1.10571
1.17862
1.25243
1.32682
1.40142
1.47579
1.54937
1.62155
1.69159
1.75866
1.8218
1.87996
1.93195
1.97646
2.01209
2.03733
2.0506
2.05026
2.03468
2.00228
1.95157
1.88128
1.7904
1.67831
1.54482
1.3903
1.21575
1.02277
0.813632
0.591191
0.358774
0.120256
0.0271372
0.0814799
0.136106
0.19123
0.247014
0.303637
0.361272
0.420082
0.48022
0.541828
0.605029
0.669932
0.736623
0.805166
0.875596
0.947917
1.0221
1.09807
1.1757
1.25484
1.33524
1.41661
1.49858
1.5807
1.66241
1.74306
1.82189
1.89802
1.97043
2.03796
2.09931
2.15303
2.19752
2.23107
2.25183
2.25785
2.24718
2.21785
2.16801
2.09596
2.00034
1.88018
1.73505
1.56519
1.37156
1.15596
0.920967
0.669952
0.406893
0.136441
0.0284843
0.0855305
0.14289
0.200798
0.259436
0.319004
0.379695
0.441694
0.505176
0.570304
0.637223
0.706066
0.776943
0.849939
0.925116
1.0025
1.08209
1.16382
1.24762
1.33332
1.42072
1.50953
1.59939
1.68987
1.78039
1.87031
1.95884
2.04505
2.12786
2.20602
2.27813
2.34258
2.39759
2.44118
2.47124
2.48547
2.48151
2.45695
2.40946
2.33684
2.23723
2.10921
1.95199
1.76555
1.55083
1.30975
1.04527
0.76137
0.462829
0.15527
0.0298372
0.0895988
0.149704
0.210412
0.271923
0.334459
0.398235
0.463459
0.530327
0.599027
0.669731
0.742593
0.81775
0.895316
0.975378
1.05799
1.14318
1.23092
1.32115
1.41374
1.50852
1.60522
1.7035
1.80294
1.903
2.00301
2.10217
2.19953
2.29396
2.38414
2.46856
2.54545
2.61285
2.66852
2.71002
2.73469
2.73969
2.72209
2.67894
2.60743
2.50503
2.36971
2.20015
1.99599
1.75798
1.48818
1.18997
0.868059
0.52822
0.177301
0.0311887
0.0936633
0.156514
0.220022
0.28441
0.349921
0.416793
0.485259
0.55554
0.627847
0.702379
0.779319
0.858832
0.94106
1.02612
1.11411
1.20507
1.29902
1.39594
1.49572
1.59824
1.70326
1.81047
1.91948
2.02978
2.1407
2.25146
2.3611
2.46845
2.57214
2.67056
2.7618
2.84371
2.91381
2.9693
3.00709
3.02383
3.01594
2.97977
2.91168
2.8083
2.66676
2.48501
2.2621
1.99849
1.6963
1.35939
0.993319
0.605138
0.20324
0.0325312
0.0977011
0.163281
0.229574
0.296825
0.365301
0.435265
0.506972
0.580671
0.6566
0.734984
0.816037
0.899954
0.986911
1.07706
1.17053
1.26741
1.36775
1.47157
1.57882
1.6894
1.80314
1.91977
2.03893
2.16015
2.28282
2.40616
2.52923
2.65086
2.76964
2.88388
2.99158
3.09039
3.17758
3.25002
3.30415
3.33602
3.34134
3.31557
3.25406
3.15235
3.00642
2.81316
2.57077
2.27918
1.94046
1.55898
1.14136
0.696235
0.233992
0.0338567
0.101688
0.169963
0.239009
0.309094
0.380508
0.453538
0.528467
0.605569
0.68511
0.767346
0.852521
0.940864
1.03259
1.12788
1.22691
1.32981
1.43668
1.54758
1.66253
1.78146
1.90427
2.03076
2.16061
2.29342
2.42864
2.56553
2.70319
2.84048
2.97599
3.108
3.23443
3.35278
3.46009
3.55289
3.62715
3.67829
3.70118
3.69024
3.63957
3.54329
3.39585
3.19264
2.93054
2.60864
2.22875
1.79574
1.31758
0.804922
0.270724
0.0351568
0.1056
0.17652
0.24827
0.321139
0.395444
0.471497
0.549606
0.630072
0.713192
0.799253
0.888531
0.981291
1.07778
1.17824
1.28286
1.39185
1.50534
1.62346
1.74627
1.8738
2.00598
2.1427
2.28373
2.42874
2.57725
2.72862
2.88201
3.03635
3.19027
3.34207
3.48964
3.63039
3.76117
3.87822
3.97705
4.05242
4.09827
4.10783
4.0737
3.98813
3.84356
3.63323
3.35209
2.99778
2.57153
2.07873
1.529
0.93563
0.314949
0.0364231
0.109409
0.182908
0.257294
0.332882
0.410011
0.489021
0.570245
0.654014
0.740654
0.830484
0.923815
1.02095
1.12218
1.22777
1.33799
1.45308
1.57323
1.69864
1.82943
1.96571
2.10749
2.25476
2.40737
2.56509
2.72757
2.89427
3.06447
3.2372
3.4112
3.58484
3.75605
3.92223
4.08015
4.22579
4.35428
4.45973
4.53515
4.5724
4.56229
4.4948
4.35959
4.14692
3.8488
3.46056
2.98227
2.41976
1.78478
1.09414
0.368639
0.0376468
0.113091
0.189082
0.266019
0.344239
0.424106
0.505985
0.590238
0.677223
0.767297
0.860811
0.958113
1.05954
1.16543
1.2761
1.39186
1.51301
1.6398
1.7725
1.91132
2.05643
2.20796
2.36598
2.53048
2.70134
2.87834
3.06111
3.24908
3.44144
3.6371
3.83458
4.03196
4.22672
4.41564
4.59462
4.75849
4.90084
5.01375
5.08768
5.11139
5.07203
4.95569
4.74838
4.43769
4.01514
3.47866
2.83438
2.09694
1.288
0.434367
0.0388191
0.116619
0.194999
0.274382
0.355127
0.437626
0.522265
0.609435
0.699523
0.792916
0.889999
0.991154
1.09676
1.2072
1.32283
1.44403
1.57113
1.70449
1.84442
1.99121
2.14515
2.30647
2.47534
2.65189
2.83617
3.02811
3.22753
3.43406
3.64713
3.86587
4.08907
4.31504
4.54149
4.76539
4.98272
5.18825
5.37521
5.53496
5.6566
5.72672
5.72917
5.64543
5.45559
5.14052
4.68544
4.0843
3.34331
2.48134
1.52706
0.515458
0.0399313
0.119966
0.200613
0.282319
0.365466
0.450466
0.537735
0.627687
0.720739
0.817307
0.917811
1.02267
1.1323
1.24712
1.36756
1.49402
1.62693
1.76668
1.91369
2.06834
2.23099
2.40201
2.5817
2.77034
2.96815
3.17525
3.3917
3.61737
3.85198
4.09499
4.34552
4.60226
4.86335
5.12611
5.38688
5.64066
5.88069
6.09795
6.28053
6.41293
6.47547
6.44397
6.29043
5.98547
5.50361
4.83129
3.97438
2.95881
1.82397
0.616126
0.0409748
0.123106
0.205882
0.289769
0.375172
0.462526
0.552271
0.644847
0.740697
0.840268
0.944012
1.05238
1.16584
1.28484
1.40987
1.54138
1.67986
1.82578
1.97964
2.1419
2.31304
2.49355
2.68388
2.88446
3.09571
3.31799
3.55158
3.79668
4.05335
4.32144
4.60054
4.88987
5.18813
5.49329
5.80236
6.11097
6.4129
6.69938
6.95815
7.17229
7.31883
7.3673
7.27915
7.00948
6.51409
5.76436
4.7653
3.5563
2.19441
0.74147
0.0419412
0.126015
0.210763
0.296672
0.384167
0.473707
0.565753
0.660769
0.759226
0.8616
0.968371
1.08003
1.19708
1.32001
1.44936
1.58564
1.72939
1.88117
2.04154
2.21108
2.39037
2.58002
2.78064
2.99283
3.21722
3.45441
3.70497
3.96944
4.24828
4.54181
4.8502
5.17333
5.51067
5.8611
6.22267
6.59217
6.96459
7.33232
7.68397
8.00259
8.26332
8.43004
8.45188
8.26138
7.78079
6.94831
5.76737
4.30744
2.65646
0.897084
0.0428227
0.128668
0.215215
0.30297
0.392377
0.483915
0.578066
0.675317
0.776165
0.881111
0.990667
1.10536
1.22571
1.35228
1.48563
1.62634
1.775
1.93225
2.09872
2.27508
2.46205
2.66034
2.87072
3.09398
3.33096
3.58252
3.84953
4.13291
4.43355
4.75234
5.09007
5.44742
5.82484
6.22238
6.6395
7.07471
7.52503
7.98522
8.44643
8.89417
9.3049
9.64049
9.83949
9.80558
9.40126
8.48228
7.04964
5.2504
3.22744
1.08777
0.0436119
0.131044
0.219202
0.308611
0.399731
0.49306
0.589101
0.688361
0.791359
0.898622
1.01069
1.12811
1.25146
1.38133
1.51831
1.66304
1.81618
1.97842
2.15048
2.33312
2.52715
2.73344
2.95288
3.18646
3.43523
3.7003
3.98288
4.28426
4.60581
4.94898
5.31531
5.70636
6.12368
6.56873
7.04274
7.54645
8.07973
8.64099
9.22602
9.82616
10.4248
10.9904
11.4626
11.7224
11.5383
10.5315
8.69972
6.41787
3.91569
1.31461
0.0443022
0.133122
0.222689
0.313545
0.406164
0.501063
0.598759
0.699781
0.804667
0.913967
1.02824
1.14808
1.27407
1.40684
1.54704
1.69535
1.85246
2.01915
2.19619
2.38445
2.58482
2.79829
3.02592
3.26884
3.52833
3.80575
4.10263
4.42062
4.76159
5.12759
5.52088
5.94397
6.39962
6.89083
7.42082
7.99296
8.61063
9.27693
9.99421
10.7631
11.5808
12.4366
13.3005
14.0855
14.5
13.4073
10.8011
7.80645
4.70341
1.56988
0.0448876
0.134884
0.225646
0.317728
0.41162
0.507849
0.606952
0.709471
0.815964
0.926997
1.04316
1.16505
1.2933
1.42856
1.57151
1.72288
1.88341
2.05392
2.23527
2.42838
2.63424
2.85396
3.08871
3.33981
3.60869
3.89699
4.2065
4.53926
4.89757
5.28406
5.70173
6.15401
6.64487
7.17888
7.76133
8.39836
9.0971
9.86587
10.7145
11.6548
12.7019
13.8775
15.2201
16.8212
18.971
17.7981
13.2923
9.30421
5.52219
1.83168
0.0453632
0.136315
0.228047
0.321123
0.416047
0.513358
0.613603
0.71734
0.825138
0.937584
1.05528
1.17885
1.30894
1.44624
1.59144
1.74532
1.90866
2.08231
2.26719
2.4643
2.67471
2.89959
3.14026
3.39815
3.67488
3.97228
4.29241
4.63762
5.01062
5.41456
5.8531
6.33052
6.8519
7.42328
8.05189
8.74648
9.51776
10.379
11.3468
12.4432
13.6978
15.1545
16.8837
19.0105
21.7666
20.5235
15.2669
10.5967
6.25001
2.0666
0.0457247
0.137404
0.229872
0.3237
0.419406
0.517536
0.618648
0.72331
0.832101
0.945621
1.06448
1.18933
1.32083
1.45967
1.6066
1.76239
1.92788
2.10394
2.29154
2.49172
2.70561
2.93448
3.17971
3.44286
3.72567
4.03014
4.35854
4.71349
5.09802
5.5157
5.97074
6.46813
7.01387
7.61524
8.28109
9.02238
9.85275
10.7894
11.8545
13.0768
14.4949
16.1619
18.1524
20.5727
23.5635
22.2639
16.6564
11.5667
6.81509
2.2516
0.0459674
0.138141
0.231105
0.325434
0.421664
0.520345
0.62204
0.727323
0.836783
0.951025
1.07068
1.19638
1.32883
1.46872
1.61681
1.7739
1.94083
2.11852
2.30796
2.51022
2.72649
2.95806
3.2064
3.47313
3.7601
4.0694
4.40347
4.7651
5.15757
5.58474
6.05121
6.56247
7.1252
7.74754
8.43953
9.21368
10.0857
11.0755
12.2087
13.5181
15.0465
16.8486
18.9941
21.5665
24.653
23.3138
17.5294
12.1993
7.19264
2.37661
0.0460786
0.138498
0.231721
0.326305
0.422798
0.521755
0.623743
0.729339
0.839135
0.95374
1.07379
1.19993
1.33285
1.47327
1.62194
1.77968
1.94735
2.12586
2.31623
2.51954
2.737
2.96995
3.21986
3.4884
3.77748
4.08924
4.42619
4.79123
5.18774
5.61976
6.09207
6.61044
7.18189
7.81502
8.52049
9.31159
10.2051
11.2223
12.3905
13.7442
15.3274
17.1949
19.4117
22.0486
25.17
23.8105
17.9493
12.5093
7.38015
2.43911
)
;

boundaryField
{
    walls
    {
        type            calculated;
        value           nonuniform List<scalar> 
200
(
0.0460786
0.138498
0.231721
0.326305
0.422798
0.521755
0.623743
0.729339
0.839135
0.95374
1.07379
1.19993
1.33285
1.47327
1.62194
1.77968
1.94735
2.12586
2.31623
2.51954
2.737
2.96995
3.21986
3.4884
3.77748
4.08924
4.42619
4.79123
5.18774
5.61976
6.09207
6.61044
7.18189
7.81502
8.52049
9.31159
10.2051
11.2223
12.3905
13.7442
15.3274
17.1949
19.4117
22.0486
25.17
23.8105
17.9493
12.5093
7.38015
2.43911
0
0
0
0
0
0
0
0
0
0
0
0
0
0
0
0
0
0
0
0
0
0
0
0
0
0
0
0
0
0
0
0
0
0
0
0
0
0
0
0
0
0
0
0
0
0
0
0
0
0
0
0
0
0
0
0
0
0
0
0
0
0
0
0
0
0
0
0
0
0
0
0
0
0
0
0
0
0
0
0
0
0
0
0
0
0
0
0
0
0
0
0
0
0
0
0
0
0
0
0
0.00573864
0.0171972
0.0286352
0.040051
0.0514193
0.0627247
0.0739508
0.0850791
0.0960893
0.106959
0.117664
0.128176
0.138465
0.1485
0.158243
0.167656
0.176698
0.185325
0.193489
0.201142
0.208232
0.214705
0.220507
0.225584
0.229879
0.233338
0.235907
0.237534
0.238171
0.237772
0.236298
0.233712
0.229988
0.225104
0.219047
0.211813
0.203408
0.193849
0.183161
0.171382
0.158561
0.144757
0.130039
0.114489
0.0981939
0.0812531
0.0637715
0.0458604
0.0276371
0.00923125
)
;
    }
    frontAndBack
    {
        type            empty;
    }
}


// ************************************************************************* //
