/*--------------------------------*- C++ -*----------------------------------*\
| =========                 |                                                 |
| \\      /  F ield         | OpenFOAM: The Open Source CFD Toolbox           |
|  \\    /   O peration     | Version:  2406                                  |
|   \\  /    A nd           | Website:  www.openfoam.com                      |
|    \\/     M anipulation  |                                                 |
\*---------------------------------------------------------------------------*/
FoamFile
{
    version     2.0;
    format      ascii;
    arch        "LSB;label=32;scalar=64";
    class       volScalarField;
    location    "1.5";
    object      T;
}
// * * * * * * * * * * * * * * * * * * * * * * * * * * * * * * * * * * * * * //

dimensions      [0 0 0 1 0 0 0];

internalField   nonuniform List<scalar> 
2500
(
0.22314
0.22337
0.223828
0.224515
0.22543
0.226572
0.227939
0.22953
0.231342
0.233374
0.235621
0.23808
0.240748
0.243619
0.246688
0.249949
0.253394
0.257016
0.260807
0.264756
0.268853
0.273085
0.277441
0.281906
0.286464
0.291101
0.295798
0.300537
0.305299
0.310064
0.31481
0.319516
0.324159
0.328715
0.333163
0.337477
0.341635
0.345613
0.349389
0.35294
0.356244
0.359282
0.362035
0.364484
0.366614
0.368412
0.369864
0.370963
0.371699
0.372068
0.22337
0.223601
0.224063
0.224756
0.225679
0.22683
0.228209
0.229814
0.231641
0.23369
0.235957
0.238438
0.24113
0.244026
0.247123
0.250414
0.253892
0.257549
0.261376
0.265363
0.2695
0.273775
0.278175
0.282686
0.287292
0.291978
0.296726
0.301516
0.306331
0.311149
0.315949
0.320709
0.325406
0.330017
0.334517
0.338883
0.343092
0.347119
0.350942
0.354537
0.357883
0.36096
0.363748
0.366228
0.368386
0.370207
0.371679
0.372792
0.373538
0.373911
0.223828
0.224063
0.224533
0.225238
0.226176
0.227346
0.228748
0.23038
0.232239
0.234323
0.236629
0.239154
0.241893
0.244841
0.247994
0.251346
0.254888
0.258614
0.262514
0.266578
0.270796
0.275156
0.279645
0.284248
0.28895
0.293734
0.298583
0.303477
0.308398
0.313323
0.318231
0.3231
0.327905
0.332623
0.33723
0.341701
0.346012
0.350137
0.354054
0.357739
0.361169
0.364323
0.367181
0.369726
0.371939
0.373807
0.375317
0.376459
0.377224
0.377608
0.224515
0.224756
0.225238
0.225959
0.22692
0.22812
0.229557
0.231229
0.233135
0.235272
0.237637
0.240227
0.243038
0.246064
0.249302
0.252744
0.256383
0.260213
0.264222
0.268403
0.272743
0.277231
0.281854
0.286596
0.291442
0.296374
0.301376
0.306427
0.311507
0.316594
0.321665
0.326697
0.331667
0.336548
0.341315
0.345944
0.350408
0.354683
0.358742
0.362562
0.366119
0.369391
0.372356
0.374997
0.377294
0.379233
0.380801
0.381986
0.382782
0.38318
0.22543
0.225679
0.226176
0.22692
0.227912
0.22915
0.230634
0.232361
0.234329
0.236537
0.238981
0.241659
0.244565
0.247696
0.251047
0.25461
0.25838
0.262348
0.266505
0.270841
0.275345
0.280005
0.284806
0.289735
0.294774
0.299906
0.305113
0.310374
0.315668
0.320972
0.326263
0.331516
0.336706
0.341806
0.346791
0.351632
0.356303
0.360778
0.365029
0.369031
0.372759
0.37619
0.3793
0.38207
0.384481
0.386516
0.388162
0.389407
0.390242
0.39066
0.226572
0.22683
0.227346
0.22812
0.22915
0.230437
0.231979
0.233774
0.235821
0.238118
0.240662
0.243449
0.246476
0.249738
0.25323
0.256946
0.26088
0.265022
0.269364
0.273896
0.278606
0.283482
0.288509
0.293672
0.298955
0.304339
0.309805
0.315331
0.320895
0.326474
0.332042
0.337574
0.343043
0.348421
0.353679
0.35879
0.363724
0.368452
0.372947
0.37718
0.381126
0.384757
0.388051
0.390986
0.393541
0.395698
0.397443
0.398763
0.399648
0.400092
0.227939
0.228209
0.228748
0.229557
0.230634
0.231979
0.233591
0.235469
0.237611
0.240014
0.242678
0.245597
0.248769
0.252189
0.255853
0.259754
0.263884
0.268237
0.272803
0.277572
0.282531
0.287668
0.292969
0.298417
0.303996
0.309685
0.315465
0.321313
0.327205
0.333118
0.339023
0.344895
0.350703
0.356418
0.362011
0.36745
0.372704
0.377742
0.382534
0.38705
0.391261
0.395138
0.398657
0.401793
0.404523
0.40683
0.408696
0.410108
0.411056
0.41153
0.22953
0.229814
0.23038
0.231229
0.232361
0.233774
0.235469
0.237443
0.239696
0.242225
0.245029
0.248104
0.251446
0.255052
0.258917
0.263034
0.267397
0.271998
0.276827
0.281874
0.287127
0.292573
0.298196
0.30398
0.309907
0.315957
0.322108
0.328336
0.334618
0.340925
0.34723
0.353504
0.359715
0.365831
0.371821
0.37765
0.383285
0.388692
0.393838
0.39869
0.403216
0.407387
0.411174
0.41455
0.417491
0.419976
0.421987
0.423509
0.42453
0.425042
0.231342
0.231641
0.232239
0.233135
0.234329
0.235821
0.237611
0.239696
0.242076
0.24475
0.247715
0.250968
0.254507
0.258326
0.262423
0.26679
0.27142
0.276307
0.28144
0.286808
0.292401
0.298202
0.304199
0.310372
0.316702
0.32317
0.329751
0.336422
0.343154
0.349921
0.356691
0.363433
0.370113
0.376697
0.38315
0.389434
0.395514
0.401352
0.406912
0.412157
0.417054
0.421569
0.42567
0.429327
0.432515
0.435209
0.43739
0.439041
0.440149
0.440704
0.233374
0.23369
0.234323
0.235272
0.236537
0.238118
0.240014
0.242225
0.24475
0.247587
0.250734
0.25419
0.257951
0.262013
0.266372
0.271022
0.275957
0.281168
0.286646
0.29238
0.298359
0.304567
0.310988
0.317604
0.324396
0.331341
0.338415
0.345591
0.352841
0.360134
0.367437
0.374717
0.381936
0.389058
0.396044
0.402853
0.409445
0.415781
0.421819
0.427519
0.432844
0.437756
0.442221
0.446204
0.449678
0.452614
0.454992
0.456793
0.458001
0.458607
0.235621
0.235957
0.236629
0.237637
0.238981
0.240662
0.242678
0.245029
0.247715
0.250734
0.254086
0.257768
0.261778
0.266111
0.270765
0.275732
0.281008
0.286584
0.29245
0.298596
0.305009
0.311674
0.318575
0.325692
0.333004
0.340489
0.34812
0.355868
0.363704
0.371594
0.379503
0.387394
0.395227
0.402961
0.410554
0.417962
0.42514
0.432044
0.438628
0.44485
0.450665
0.456033
0.460914
0.465272
0.469073
0.472289
0.474893
0.476865
0.47819
0.478854
0.23808
0.238438
0.239154
0.240227
0.241659
0.243449
0.245597
0.248104
0.250968
0.25419
0.257768
0.261701
0.265986
0.270621
0.275602
0.280922
0.286577
0.292559
0.298857
0.305462
0.312359
0.319535
0.326971
0.334647
0.342543
0.350632
0.358887
0.367279
0.375773
0.384335
0.392926
0.401506
0.410032
0.418458
0.426737
0.434823
0.442664
0.450213
0.457418
0.464232
0.470605
0.476491
0.481847
0.486632
0.490807
0.494341
0.497204
0.499372
0.500828
0.501559
0.240748
0.24113
0.241893
0.243038
0.244565
0.246476
0.248769
0.251446
0.254507
0.257951
0.261778
0.265986
0.270575
0.275542
0.280882
0.286592
0.292665
0.299095
0.305871
0.312982
0.320416
0.328157
0.336187
0.344485
0.353028
0.36179
0.370741
0.379849
0.389079
0.398391
0.407746
0.417098
0.4264
0.435603
0.444655
0.453503
0.462092
0.470368
0.478274
0.485756
0.49276
0.499234
0.505128
0.510396
0.514997
0.518891
0.522047
0.524439
0.526045
0.526851
0.243619
0.244026
0.244841
0.246064
0.247696
0.249738
0.252189
0.255052
0.258326
0.262013
0.266111
0.270621
0.275542
0.280871
0.286605
0.292741
0.299273
0.306193
0.313493
0.321162
0.329186
0.33755
0.346234
0.355218
0.364476
0.373982
0.383703
0.393606
0.403652
0.4138
0.424004
0.434216
0.444385
0.454456
0.464372
0.474074
0.483502
0.492595
0.501289
0.509524
0.517238
0.524374
0.530876
0.53669
0.54177
0.546073
0.549561
0.552205
0.553981
0.554872
0.246688
0.247123
0.247994
0.249302
0.251047
0.25323
0.255853
0.258917
0.262423
0.266372
0.270765
0.275602
0.280882
0.286605
0.292768
0.299368
0.306399
0.313855
0.321728
0.330005
0.338675
0.34772
0.357122
0.366859
0.376904
0.387228
0.397799
0.408579
0.419527
0.430598
0.441744
0.45291
0.464042
0.475079
0.485958
0.496614
0.506979
0.516985
0.526562
0.535641
0.544154
0.552035
0.559219
0.56565
0.57127
0.576033
0.579897
0.582826
0.584794
0.585781
0.249949
0.250414
0.251346
0.252744
0.25461
0.256946
0.259754
0.263034
0.26679
0.271022
0.275732
0.280922
0.286592
0.292741
0.299368
0.30647
0.314043
0.32208
0.330574
0.339514
0.348886
0.358675
0.36886
0.37942
0.390325
0.401547
0.41305
0.424793
0.436734
0.448824
0.461009
0.473231
0.48543
0.497538
0.509487
0.521204
0.532613
0.543639
0.554202
0.564226
0.573633
0.582349
0.590301
0.597423
0.603652
0.608933
0.613219
0.616469
0.618654
0.61975
0.253394
0.253892
0.254888
0.256383
0.25838
0.26088
0.263884
0.267397
0.27142
0.275957
0.281008
0.286577
0.292665
0.299273
0.306399
0.314043
0.3222
0.330865
0.340032
0.349689
0.359823
0.370419
0.381455
0.39291
0.404754
0.416956
0.429477
0.442276
0.455306
0.468515
0.481844
0.49523
0.508606
0.5219
0.535034
0.547929
0.560499
0.57266
0.584323
0.595402
0.605809
0.61546
0.624273
0.632171
0.639084
0.644949
0.649709
0.653321
0.65575
0.656969
0.257016
0.257549
0.258614
0.260213
0.262348
0.265022
0.268237
0.271998
0.276307
0.281168
0.286584
0.292559
0.299095
0.306193
0.313855
0.32208
0.330865
0.340207
0.350097
0.360527
0.371485
0.382953
0.394912
0.407338
0.420201
0.433469
0.447101
0.461052
0.475274
0.489708
0.504292
0.518958
0.533632
0.548234
0.562679
0.576878
0.590736
0.604159
0.617048
0.629303
0.640827
0.651524
0.661301
0.67007
0.67775
0.68427
0.689565
0.693584
0.696287
0.697644
0.260807
0.261376
0.262514
0.264222
0.266505
0.269364
0.272803
0.276827
0.28144
0.286646
0.29245
0.298857
0.305871
0.313493
0.321728
0.330574
0.340032
0.350097
0.360765
0.372026
0.383869
0.396277
0.409232
0.422707
0.436675
0.451098
0.465937
0.481143
0.496664
0.512437
0.528396
0.544467
0.560567
0.57661
0.592502
0.608142
0.623428
0.638252
0.652503
0.66607
0.678841
0.690707
0.701563
0.711308
0.71985
0.727105
0.733002
0.737479
0.74049
0.742003
0.264756
0.265363
0.266578
0.268403
0.270841
0.273896
0.277572
0.281874
0.286808
0.29238
0.298596
0.305462
0.312982
0.321162
0.330005
0.339514
0.349689
0.360527
0.372026
0.384177
0.396969
0.410388
0.424413
0.43902
0.454179
0.469853
0.486
0.502568
0.519502
0.536736
0.554197
0.571804
0.58947
0.607097
0.624582
0.641816
0.658682
0.675059
0.690824
0.705851
0.720013
0.733186
0.74525
0.756089
0.765598
0.773681
0.780253
0.785246
0.788605
0.790293
0.268853
0.2695
0.270796
0.272743
0.275345
0.278606
0.282531
0.287127
0.292401
0.298359
0.305009
0.312359
0.320416
0.329186
0.338675
0.348886
0.359823
0.371485
0.383869
0.396969
0.410776
0.425276
0.44045
0.456273
0.472714
0.489737
0.507297
0.525341
0.543809
0.562631
0.581729
0.601017
0.620396
0.639763
0.659003
0.677993
0.696606
0.714705
0.732152
0.748803
0.764517
0.77915
0.792566
0.804633
0.815228
0.82424
0.831574
0.837147
0.840899
0.842785
0.273085
0.273775
0.275156
0.277231
0.280005
0.283482
0.287668
0.292573
0.298202
0.304567
0.311674
0.319535
0.328157
0.33755
0.34772
0.358675
0.370419
0.382953
0.396277
0.410388
0.425276
0.44093
0.457332
0.474457
0.492276
0.510749
0.529832
0.54947
0.569599
0.590145
0.611025
0.632145
0.653399
0.674673
0.695841
0.716768
0.73731
0.757316
0.77663
0.795091
0.812535
0.828801
0.843732
0.857175
0.868991
0.87905
0.887241
0.89347
0.897665
0.899773
0.277441
0.278175
0.279645
0.281854
0.284806
0.288509
0.292969
0.298196
0.304199
0.310988
0.318575
0.326971
0.336187
0.346234
0.357122
0.36886
0.381455
0.394912
0.409232
0.424413
0.44045
0.457332
0.475042
0.493559
0.512851
0.532881
0.553602
0.574958
0.596881
0.619295
0.64211
0.665225
0.688526
0.711888
0.735173
0.758232
0.780905
0.803023
0.82441
0.844883
0.864259
0.882351
0.89898
0.91397
0.92716
0.938399
0.947558
0.954527
0.959222
0.961582
0.281906
0.282686
0.284248
0.286596
0.289735
0.293672
0.298417
0.30398
0.310372
0.317604
0.325692
0.334647
0.344485
0.355218
0.366859
0.37942
0.39291
0.407338
0.422707
0.43902
0.456273
0.474457
0.493559
0.513557
0.534422
0.556117
0.578595
0.601797
0.625656
0.650089
0.675001
0.700285
0.725818
0.751464
0.777071
0.802476
0.8275
0.851956
0.875644
0.898359
0.91989
0.940026
0.95856
0.97529
0.990028
1.0026
1.01285
1.02066
1.02592
1.02857
0.286464
0.287292
0.28895
0.291442
0.294774
0.298955
0.303996
0.309907
0.316702
0.324396
0.333004
0.342543
0.353028
0.364476
0.376904
0.390325
0.404754
0.420201
0.436675
0.454179
0.472714
0.492276
0.512851
0.534422
0.556961
0.580433
0.60479
0.629973
0.655913
0.682523
0.709705
0.737343
0.765306
0.793446
0.821598
0.849582
0.8772
0.904242
0.930486
0.955697
0.979637
1.00206
1.02274
1.04143
1.05791
1.07199
1.08348
1.09224
1.09815
1.10112
0.291101
0.291978
0.293734
0.296374
0.299906
0.304339
0.309685
0.315957
0.32317
0.331341
0.340489
0.350632
0.36179
0.373982
0.387228
0.401547
0.416956
0.433469
0.451098
0.469853
0.489737
0.510749
0.532881
0.556117
0.580433
0.605794
0.632155
0.659458
0.687631
0.716585
0.746217
0.776405
0.807009
0.83787
0.868808
0.899625
0.930104
0.960009
0.989091
1.01708
1.04372
1.06872
1.0918
1.1127
1.13116
1.14695
1.15985
1.16969
1.17632
1.17967
0.295798
0.296726
0.298583
0.301376
0.305113
0.309805
0.315465
0.322108
0.329751
0.338415
0.34812
0.358887
0.370741
0.383703
0.397799
0.41305
0.429477
0.447101
0.465937
0.486
0.507297
0.529832
0.553602
0.578595
0.60479
0.632155
0.660649
0.690213
0.720775
0.752246
0.784517
0.817463
0.850934
0.884759
0.918743
0.952671
0.986303
1.01938
1.05161
1.08271
1.11236
1.14024
1.16604
1.18944
1.21014
1.22787
1.24237
1.25345
1.26092
1.26469
0.300537
0.301516
0.303477
0.306427
0.310374
0.315331
0.321313
0.328336
0.336422
0.345591
0.355868
0.367279
0.379849
0.393606
0.408579
0.424793
0.442276
0.461052
0.481143
0.502568
0.525341
0.54947
0.574958
0.601797
0.629973
0.659458
0.690213
0.722182
0.755294
0.789461
0.82457
0.860492
0.897068
0.934117
0.971429
1.00877
1.04587
1.08245
1.11819
1.15275
1.18578
1.21691
1.24578
1.27201
1.29527
1.31521
1.33154
1.34403
1.35246
1.35671
0.305299
0.306331
0.308398
0.311507
0.315668
0.320895
0.327205
0.334618
0.343154
0.352841
0.363704
0.375773
0.389079
0.403652
0.419527
0.436734
0.455306
0.475274
0.496664
0.519502
0.543809
0.569599
0.596881
0.625656
0.655913
0.687631
0.720775
0.755294
0.791121
0.828166
0.866319
0.905444
0.945378
0.985928
1.02687
1.06795
1.10888
1.14934
1.18897
1.2274
1.26422
1.29902
1.33136
1.36081
1.38697
1.40944
1.42788
1.44199
1.45153
1.45634
0.310064
0.311149
0.313323
0.316594
0.320972
0.326474
0.333118
0.340925
0.349921
0.360134
0.371594
0.384335
0.398391
0.4138
0.430598
0.448824
0.468515
0.489708
0.512437
0.536736
0.562631
0.590145
0.619295
0.650089
0.682523
0.716585
0.752246
0.789461
0.828166
0.868278
0.909685
0.95225
0.995806
1.04015
1.08505
1.13022
1.17536
1.22011
1.26408
1.30683
1.34792
1.38685
1.42312
1.45625
1.48573
1.51111
1.53197
1.54795
1.55877
1.56422
0.31481
0.315949
0.318231
0.321665
0.326263
0.332042
0.339023
0.34723
0.356691
0.367437
0.379503
0.392926
0.407746
0.424004
0.441744
0.461009
0.481844
0.504292
0.528396
0.554197
0.581729
0.611025
0.64211
0.675001
0.709705
0.746217
0.784517
0.82457
0.866319
0.909685
0.95456
1.00081
1.04826
1.09671
1.14591
1.19556
1.24533
1.29482
1.34361
1.3912
1.43708
1.48069
1.52145
1.55877
1.59207
1.6208
1.64446
1.66261
1.67492
1.68113
0.319516
0.320709
0.3231
0.326697
0.331516
0.337574
0.344895
0.353504
0.363433
0.374717
0.387394
0.401506
0.417098
0.434216
0.45291
0.473231
0.49523
0.518958
0.544467
0.571804
0.601017
0.632145
0.665225
0.700285
0.737343
0.776405
0.817463
0.860492
0.905444
0.95225
1.00081
1.05099
1.10263
1.15551
1.20937
1.26391
1.31876
1.37349
1.42764
1.48065
1.53194
1.58085
1.62673
1.66886
1.70656
1.73918
1.76609
1.78678
1.80081
1.80791
0.324159
0.325406
0.327905
0.331667
0.336706
0.343043
0.350703
0.359715
0.370113
0.381936
0.395227
0.410032
0.4264
0.444385
0.464042
0.48543
0.508606
0.533632
0.560567
0.58947
0.620396
0.653399
0.688526
0.725818
0.765306
0.807009
0.850934
0.897068
0.945378
0.995806
1.04826
1.10263
1.15874
1.21638
1.27529
1.33515
1.39557
1.4561
1.51621
1.57529
1.63268
1.68762
1.73935
1.78702
1.82983
1.86696
1.89768
1.92134
1.93742
1.94555
0.328715
0.330017
0.332623
0.336548
0.341806
0.348421
0.356418
0.365831
0.376697
0.389058
0.402961
0.418458
0.435603
0.454456
0.475079
0.497538
0.5219
0.548234
0.57661
0.607097
0.639763
0.674673
0.711888
0.751464
0.793446
0.83787
0.884759
0.934117
0.985928
1.04015
1.09671
1.15551
1.21638
1.27912
1.34348
1.40912
1.47565
1.54256
1.6093
1.67519
1.73946
1.80128
1.85972
1.91381
1.96255
2.00497
2.04017
2.06733
2.08582
2.09518
0.333163
0.334517
0.33723
0.341315
0.346791
0.353679
0.362011
0.371821
0.38315
0.396044
0.410554
0.426737
0.444655
0.464372
0.485958
0.509487
0.535034
0.562679
0.592502
0.624582
0.659003
0.695841
0.735173
0.777071
0.821598
0.868808
0.918743
0.971429
1.02687
1.08505
1.14591
1.20937
1.27529
1.34348
1.41369
1.4856
1.55878
1.63273
1.70682
1.78034
1.85241
1.92207
1.98824
2.04977
2.10546
2.15412
2.19461
2.22595
2.24732
2.25815
0.337477
0.338883
0.341701
0.345944
0.351632
0.35879
0.36745
0.37765
0.389434
0.402853
0.417962
0.434823
0.453503
0.474074
0.496614
0.521204
0.547929
0.576878
0.608142
0.641816
0.677993
0.716768
0.758232
0.802476
0.849582
0.899625
0.952671
1.00877
1.06795
1.13022
1.19556
1.26391
1.33515
1.40912
1.4856
1.56425
1.64468
1.72635
1.80861
1.89066
1.97156
2.05019
2.1253
2.19552
2.25938
2.31543
2.36224
2.39858
2.4234
2.436
0.341635
0.343092
0.346012
0.350408
0.356303
0.363724
0.372704
0.383285
0.395514
0.409445
0.42514
0.442664
0.462092
0.483502
0.506979
0.532613
0.560499
0.590736
0.623428
0.658682
0.696606
0.73731
0.780905
0.8275
0.8772
0.930104
0.986303
1.04587
1.10888
1.17536
1.24533
1.31876
1.39557
1.47565
1.55878
1.64468
1.73295
1.82307
1.91435
2.00596
2.09685
2.18575
2.27123
2.35163
2.42518
2.49005
2.54447
2.58684
2.61586
2.63061
0.345613
0.347119
0.350137
0.354683
0.360778
0.368452
0.377742
0.388692
0.401352
0.415781
0.432044
0.450213
0.470368
0.492595
0.516985
0.543639
0.57266
0.604159
0.638252
0.675059
0.714705
0.757316
0.803023
0.851956
0.904242
0.960009
1.01938
1.08245
1.14934
1.22011
1.29482
1.37349
1.4561
1.54256
1.63273
1.72635
1.82307
1.92238
2.02362
2.12589
2.22807
2.32877
2.4263
2.51871
2.60381
2.67931
2.74295
2.79269
2.82683
2.84421
0.349389
0.350942
0.354054
0.358742
0.365029
0.372947
0.382534
0.393838
0.406912
0.421819
0.438628
0.457418
0.478274
0.501289
0.526562
0.554202
0.584323
0.617048
0.652503
0.690824
0.732152
0.77663
0.82441
0.875644
0.930486
0.989091
1.05161
1.11819
1.18897
1.26408
1.34361
1.42764
1.51621
1.6093
1.70682
1.80861
1.91435
2.02362
2.13575
2.24988
2.36482
2.47905
2.59064
2.69727
2.79626
2.88469
2.95963
3.01842
3.05889
3.0795
0.35294
0.354537
0.357739
0.362562
0.369031
0.37718
0.38705
0.39869
0.412157
0.427519
0.44485
0.464232
0.485756
0.509524
0.535641
0.564226
0.595402
0.629303
0.66607
0.705851
0.748803
0.795091
0.844883
0.898359
0.955697
1.01708
1.08271
1.15275
1.2274
1.30683
1.3912
1.48065
1.57529
1.67519
1.78034
1.89066
2.00596
2.12589
2.24988
2.37711
2.5064
2.63613
2.76416
2.88775
3.00358
3.10789
3.19683
3.26687
3.31518
3.33982
0.356244
0.357883
0.361169
0.366119
0.372759
0.381126
0.391261
0.403216
0.417054
0.432844
0.450665
0.470605
0.49276
0.517238
0.544154
0.573633
0.605809
0.640827
0.678841
0.720013
0.764517
0.812535
0.864259
0.91989
0.979637
1.04372
1.11236
1.18578
1.26422
1.34792
1.43708
1.53194
1.63268
1.73946
1.85241
1.97156
2.09685
2.22807
2.36482
2.5064
2.65171
2.79915
2.94641
3.09032
3.22678
3.35088
3.45736
3.54149
3.59961
3.62927
0.359282
0.36096
0.364323
0.369391
0.37619
0.384757
0.395138
0.407387
0.421569
0.437756
0.456033
0.476491
0.499234
0.524374
0.552035
0.582349
0.61546
0.651524
0.690707
0.733186
0.77915
0.828801
0.882351
0.940026
1.00206
1.06872
1.14024
1.21691
1.29902
1.38685
1.48069
1.58085
1.68762
1.80128
1.92207
2.05019
2.18575
2.32877
2.47905
2.63613
2.79915
2.96666
3.13635
3.30474
3.46681
3.61597
3.74474
3.84666
3.91704
3.95292
0.362035
0.363748
0.367181
0.372356
0.3793
0.388051
0.398657
0.411174
0.42567
0.442221
0.460914
0.481847
0.505128
0.530876
0.559219
0.590301
0.624273
0.661301
0.701563
0.74525
0.792566
0.843732
0.89898
0.95856
1.02274
1.0918
1.16604
1.24578
1.33136
1.42312
1.52145
1.62673
1.73935
1.85972
1.98824
2.1253
2.27123
2.4263
2.59064
2.76416
2.94641
3.13635
3.33203
3.52993
3.72425
3.90598
4.06354
4.18797
4.27356
4.31707
0.364484
0.366228
0.369726
0.374997
0.38207
0.390986
0.401793
0.41455
0.429327
0.446204
0.465272
0.486632
0.510396
0.53669
0.56565
0.597423
0.632171
0.67007
0.711308
0.756089
0.804633
0.857175
0.91397
0.97529
1.04143
1.1127
1.18944
1.27201
1.36081
1.45625
1.55877
1.66886
1.78702
1.91381
2.04977
2.19552
2.35163
2.51871
2.69727
2.88775
3.09032
3.30474
3.52993
3.76324
3.99883
4.22477
4.42009
4.57276
4.6768
4.72939
0.366614
0.368386
0.371939
0.377294
0.384481
0.393541
0.404523
0.417491
0.432515
0.449678
0.469073
0.490807
0.514997
0.54177
0.57127
0.603652
0.639084
0.67775
0.71985
0.765598
0.815228
0.868991
0.92716
0.990028
1.05791
1.13116
1.21014
1.29527
1.38697
1.48573
1.59207
1.70656
1.82983
1.96255
2.10546
2.25938
2.42518
2.60381
2.79626
3.00358
3.22678
3.46681
3.72425
3.99883
4.28767
4.57883
4.82396
5.01087
5.13622
5.19901
0.368412
0.370207
0.373807
0.379233
0.386516
0.395698
0.40683
0.419976
0.435209
0.452614
0.472289
0.494341
0.518891
0.546073
0.576033
0.608933
0.644949
0.68427
0.727105
0.773681
0.82424
0.87905
0.938399
1.0026
1.07199
1.14695
1.22787
1.31521
1.40944
1.51111
1.6208
1.73918
1.86696
2.00497
2.15412
2.31543
2.49005
2.67931
2.88469
3.10789
3.35088
3.61597
3.90598
4.22477
4.57883
4.98361
5.29075
5.5153
5.66292
5.73619
0.369864
0.371679
0.375317
0.380801
0.388162
0.397443
0.408696
0.421987
0.43739
0.454992
0.474893
0.497204
0.522047
0.549561
0.579897
0.613219
0.649709
0.689565
0.733002
0.780253
0.831574
0.887241
0.947558
1.01285
1.08348
1.15985
1.24237
1.33154
1.42788
1.53197
1.64446
1.76609
1.89768
2.04017
2.19461
2.36224
2.54447
2.74295
2.95963
3.19683
3.45736
3.74474
4.06354
4.42009
4.82396
5.29075
5.6449
5.90143
6.06877
6.15143
0.370963
0.372792
0.376459
0.381986
0.389407
0.398763
0.410108
0.423509
0.439041
0.456793
0.476865
0.499372
0.524439
0.552205
0.582826
0.616469
0.653321
0.693584
0.737479
0.785246
0.837147
0.89347
0.954527
1.02066
1.09224
1.16969
1.25345
1.34403
1.44199
1.54795
1.66261
1.78678
1.92134
2.06733
2.22595
2.39858
2.58684
2.79269
3.01842
3.26687
3.54149
3.84666
4.18797
4.57276
5.01087
5.5153
5.90143
6.18156
6.3641
6.45416
0.371699
0.373538
0.377224
0.382782
0.390242
0.399648
0.411056
0.42453
0.440149
0.458001
0.47819
0.500828
0.526045
0.553981
0.584794
0.618654
0.65575
0.696287
0.74049
0.788605
0.840899
0.897665
0.959222
1.02592
1.09815
1.17632
1.26092
1.35246
1.45153
1.55877
1.67492
1.80081
1.93742
2.08582
2.24732
2.4234
2.61586
2.82683
3.05889
3.31518
3.59961
3.91704
4.27356
4.6768
5.13622
5.66292
6.06877
6.3641
6.55674
6.6518
0.372068
0.373911
0.377608
0.38318
0.39066
0.400092
0.41153
0.425042
0.440704
0.458607
0.478854
0.501559
0.526851
0.554872
0.585781
0.61975
0.656969
0.697644
0.742003
0.790293
0.842785
0.899773
0.961582
1.02857
1.10112
1.17967
1.26469
1.35671
1.45634
1.56422
1.68113
1.80791
1.94555
2.09518
2.25815
2.436
2.63061
2.84421
3.0795
3.33982
3.62927
3.95292
4.31707
4.72939
5.19901
5.73619
6.15143
6.45416
6.6518
6.74937
)
;

boundaryField
{
    walls
    {
        type            zeroGradient;
    }
    frontAndBack
    {
        type            empty;
    }
}


// ************************************************************************* //
