/*--------------------------------*- C++ -*----------------------------------*\
| =========                 |                                                 |
| \\      /  F ield         | OpenFOAM: The Open Source CFD Toolbox           |
|  \\    /   O peration     | Version:  2406                                  |
|   \\  /    A nd           | Website:  www.openfoam.com                      |
|    \\/     M anipulation  |                                                 |
\*---------------------------------------------------------------------------*/
FoamFile
{
    version     2.0;
    format      ascii;
    arch        "LSB;label=32;scalar=64";
    class       volScalarField;
    location    "0.05";
    object      nu;
}
// * * * * * * * * * * * * * * * * * * * * * * * * * * * * * * * * * * * * * //

dimensions      [0 2 -1 0 0 0 0];

internalField   nonuniform List<scalar> 
1800
(
0.00948377
0.0093015
0.0105259
0.0111788
0.0107798
0.0103317
0.0103248
0.00963887
0.00939081
0.00838572
0.00855958
0.00866161
0.00974239
0.0106505
0.0107477
0.0105197
0.0105576
0.0091032
0.00878048
0.00772112
0.0079722
0.00827116
0.00946781
0.0108026
0.0112992
0.0112378
0.0110951
0.00927377
0.00847507
0.00784784
0.00758406
0.00800645
0.00933909
0.0111824
0.0120841
0.0121693
0.0116399
0.0093424
0.00827376
0.00782435
0.0073169
0.00782465
0.00928943
0.0117506
0.0131897
0.013284
0.0120928
0.00936317
0.00813104
0.00785217
0.00712598
0.00769687
0.0092663
0.012406
0.0145469
0.0147523
0.0126253
0.00938136
0.00806005
0.00782953
0.00698444
0.0076089
0.00926724
0.0131599
0.0162474
0.0163434
0.0130383
0.00939746
0.00803594
0.0078178
0.00687688
0.00754906
0.00927053
0.0138728
0.0182958
0.0183138
0.0133908
0.00938516
0.00801611
0.00777375
0.0067948
0.00751457
0.00929163
0.0146307
0.0215924
0.0209969
0.0136354
0.00935655
0.00799479
0.00773098
0.00673313
0.00750083
0.00931703
0.0152716
0.0285596
0.0271052
0.0139285
0.00930887
0.00797174
0.0077174
0.0673052
0.0211216
0.0195377
0.0207194
0.0214107
0.022022
0.0217731
0.0198286
0.0170379
0.0149949
0.0312993
0.0176775
0.0184784
0.0205256
0.0213424
0.0219026
0.0215
0.0190218
0.016006
0.0141374
0.0225281
0.0155368
0.0174388
0.0202614
0.0212966
0.0218232
0.0212398
0.0182868
0.0150388
0.0133283
0.0185722
0.0140829
0.0165389
0.0201016
0.0214145
0.0218928
0.0210845
0.0175895
0.0141771
0.0125698
0.016183
0.0130793
0.0157613
0.0199955
0.0217812
0.0222643
0.0211079
0.0170602
0.0134508
0.0119413
0.0146154
0.0123392
0.0151187
0.0200266
0.0225109
0.023214
0.0216858
0.016853
0.0129372
0.0114184
0.0134707
0.0117525
0.014584
0.0200734
0.0233385
0.0255224
0.0241363
0.0173061
0.0124842
0.0108584
0.0125193
0.0112366
0.014068
0.0195432
0.0217635
0.0260429
0.0342597
0.0193822
0.01225
0.0107176
0.0115962
0.0107083
0.0133194
0.0172347
0.017187
0.0188246
0.0315519
0.028725
0.0137563
0.0108536
0.0106207
0.0101176
0.0121919
0.0138187
0.0128363
0.0123286
0.0130261
0.0167884
0.0129819
0.0116984
0.0140237
0.014264
0.0188372
0.0248841
0.0322036
0.0422823
0.050077
0.0577286
0.0601412
0.0805502
0.0137336
0.0145156
0.0187317
0.0251464
0.0332454
0.0449124
0.0555186
0.0635629
0.0655854
0.0850214
0.0134229
0.0149894
0.0187381
0.0256884
0.0340275
0.0483568
0.0614749
0.0738398
0.0708908
0.0956318
0.0131011
0.0158155
0.0189762
0.0265768
0.0350878
0.0520495
0.0676147
0.0838074
0.0797633
0.102818
0.0129314
0.0165285
0.0190199
0.0260375
0.0336259
0.0470428
0.0590755
0.0713449
0.0693472
0.077179
0.0124722
0.0160856
0.0175248
0.0219909
0.0261888
0.0313916
0.034937
0.0374528
0.0373718
0.03806
0.0122809
0.0138913
0.0150603
0.0175339
0.0199981
0.022465
0.0242058
0.0253246
0.0253654
0.0258928
0.0112616
0.0120835
0.0119781
0.0130987
0.0141539
0.0151462
0.0159424
0.0165755
0.0170155
0.0173278
0.0106161
0.0112897
0.0113414
0.012091
0.0127616
0.0133549
0.0138202
0.0141738
0.014368
0.0146927
0.00979729
0.00976053
0.0104013
0.0111505
0.0117963
0.0123162
0.0127269
0.0130769
0.0133194
0.0137029
0.00925465
0.0101899
0.0103636
0.0110047
0.0116469
0.0121971
0.0126663
0.0130712
0.0133653
0.0138007
0.0141572
0.0107975
0.0112285
0.0119805
0.012833
0.0135378
0.0141323
0.0146371
0.0149661
0.015439
0.0101897
0.0121031
0.0118991
0.0130956
0.0144158
0.0155785
0.0166345
0.0175529
0.0182642
0.0188111
0.0127503
0.0125938
0.0132674
0.0150324
0.0176132
0.0200338
0.0224653
0.0247754
0.0263789
0.0282564
0.0123876
0.0129765
0.0140204
0.0162893
0.0202411
0.0247376
0.0305943
0.0383332
0.0486051
0.0613285
0.0148068
0.0131494
0.0152475
0.0177759
0.0225646
0.0272905
0.0319839
0.0348769
0.037552
0.0342767
0.0132325
0.0122884
0.013853
0.0148517
0.0158729
0.0164226
0.0167947
0.0169216
0.0170564
0.0166548
0.00961466
0.00996986
0.0104268
0.0108065
0.011112
0.0113306
0.0115034
0.0116064
0.011691
0.0116416
0.00787772
0.00835315
0.00863319
0.00893034
0.00914293
0.00929672
0.00941425
0.00948977
0.00954458
0.00957061
0.00712861
0.00757382
0.00781877
0.00810743
0.00827317
0.00838307
0.00846275
0.00851253
0.00854772
0.00859399
0.00817265
0.00819141
0.00823914
0.00827612
0.00826491
0.00820783
0.00810352
0.00804438
0.00821595
0.00784421
0.0101069
0.00995188
0.009724
0.00946905
0.00929539
0.00919015
0.00944097
0.0100209
0.0108857
0.0107867
0.0426988
0.026277
0.0170741
0.013889
0.0124276
0.011539
0.0109695
0.0106064
0.0106167
0.0104643
0.0160303
0.0161684
0.0154484
0.0142579
0.0130843
0.0121209
0.011658
0.0117674
0.0121392
0.0122837
0.0150703
0.0150799
0.0148478
0.0141771
0.0133169
0.0128837
0.0128627
0.0133419
0.013667
0.0151248
0.0160775
0.0158792
0.0155764
0.0150261
0.0145005
0.0145012
0.0149614
0.0156898
0.0155462
0.018366
0.013295
0.0132508
0.0132765
0.0133511
0.0135934
0.0140672
0.0145133
0.0147129
0.0140365
0.0161317
0.00921449
0.00922832
0.00928941
0.0094066
0.00959137
0.00980513
0.00995388
0.00996716
0.00983567
0.0101134
0.00724653
0.00725464
0.00727905
0.00732127
0.00738165
0.00745332
0.00752092
0.00757018
0.00762169
0.00769466
0.00645117
0.00645932
0.00647397
0.00649517
0.00652335
0.00655676
0.00659713
0.00664335
0.00671304
0.00681119
0.00784612
0.00908453
0.009963
0.0107174
0.0106762
0.0109815
0.011815
0.0116121
0.00961531
0.00778581
0.00777575
0.00842116
0.00886519
0.0101157
0.0104486
0.0106486
0.0109068
0.0103633
0.00890106
0.00742397
0.00789392
0.00826761
0.00876824
0.0102719
0.0108788
0.0109868
0.0109129
0.00992685
0.00845181
0.00713779
0.00797101
0.00818597
0.00878323
0.0105768
0.0116344
0.011717
0.0113225
0.00975361
0.00814845
0.00693387
0.00801373
0.00810736
0.00882497
0.010988
0.0127794
0.0128979
0.0120302
0.00966304
0.00793029
0.00679841
0.00802881
0.00804909
0.00888562
0.0114769
0.0145937
0.0148949
0.0130516
0.00959983
0.00777214
0.00671438
0.00801256
0.00801136
0.008958
0.0120155
0.0174373
0.0182512
0.0142044
0.00953497
0.00765968
0.00666919
0.00794154
0.00797673
0.0090245
0.0125525
0.0225905
0.0259191
0.0153324
0.00947129
0.00757981
0.00665185
0.00784641
0.00795687
0.00909685
0.0131006
0.0328059
0.0552059
0.0160281
0.00939886
0.00752665
0.0066587
0.00776783
0.00795749
0.00918274
0.0135874
0.0383999
0.04763
0.0159118
0.00934588
0.00750281
0.00668769
0.0150547
0.0164378
0.0182972
0.0191749
0.0188162
0.0181941
0.0178278
0.0175634
0.0164981
0.0118548
0.0142874
0.0155821
0.0177706
0.0189877
0.0186734
0.0180927
0.0178039
0.0171903
0.0151177
0.0107742
0.0134893
0.0146841
0.0171769
0.0188214
0.0185936
0.0180601
0.017827
0.0167923
0.0140247
0.0100391
0.0127292
0.0138904
0.0166662
0.0188058
0.0187224
0.0182467
0.0180072
0.0164081
0.0131417
0.00950248
0.0120834
0.0132448
0.0163141
0.019083
0.0191857
0.0187427
0.0184141
0.0160584
0.0124484
0.00910506
0.0116525
0.0128488
0.0162534
0.0198052
0.0202523
0.0197931
0.0191443
0.0157679
0.0118961
0.00880892
0.0108699
0.0123083
0.0163277
0.0213713
0.0223473
0.0212807
0.0200479
0.0154746
0.0114477
0.00858683
0.0108077
0.0117436
0.0171159
0.027194
0.0260278
0.0221267
0.0207862
0.0152385
0.0110608
0.00840956
0.0102287
0.0122515
0.017401
0.0551065
0.0257673
0.0196363
0.0198889
0.0147528
0.0106749
0.00824775
0.0112815
0.013674
0.0214523
0.0158237
0.0135409
0.0139791
0.0160823
0.0141473
0.0103348
0.00807899
0.0136762
0.0178294
0.023641
0.05922
0.0695111
0.0370657
0.0266756
0.0195007
0.0143432
0.0138736
0.0135141
0.0175573
0.0233372
0.0602627
0.0891277
0.0397357
0.027673
0.0194724
0.0146162
0.0136212
0.0133243
0.0173419
0.0229242
0.0568675
0.102702
0.0427791
0.0292088
0.0195502
0.0151406
0.0133297
0.0130954
0.0171913
0.022503
0.0520552
0.100413
0.0463332
0.0315216
0.0200317
0.0160139
0.0130234
0.012858
0.0171696
0.0223595
0.0534347
0.0960876
0.0466061
0.0326346
0.0205722
0.0167657
0.0129058
0.0126444
0.0178619
0.0239973
0.0723279
0.0626916
0.0346354
0.0264266
0.019066
0.0164931
0.0123789
0.0123646
0.0192427
0.0252189
0.0352923
0.0302556
0.023879
0.0204468
0.0169372
0.0146045
0.0123162
0.0121569
0.0221924
0.0195913
0.018451
0.0170432
0.015464
0.0142573
0.012735
0.0123937
0.0109414
0.0119863
0.019461
0.0161162
0.0150773
0.0143023
0.0134005
0.0126879
0.0117664
0.0116617
0.0107133
0.0120586
0.0169313
0.015001
0.0140565
0.013238
0.0123984
0.0117201
0.010884
0.0101484
0.0115655
0.0121607
0.0155978
0.0152958
0.0138609
0.0129522
0.0121256
0.0113883
0.0105613
0.0102926
0.00939965
0.0122516
0.0147544
0.0169089
0.0148619
0.0139219
0.0129944
0.0120861
0.0112741
0.0104524
0.013155
0.012436
0.0135434
0.0215023
0.0172612
0.0158176
0.0145388
0.0132907
0.0118789
0.012335
0.0106282
0.0127888
0.0128358
0.0286372
0.0223128
0.0195238
0.0176102
0.0152949
0.0133972
0.0128833
0.0121969
0.0132315
0.0124642
0.0280308
0.0269891
0.0226065
0.0202611
0.0167905
0.014255
0.013764
0.0117926
0.0138345
0.0123201
0.0236415
0.0274205
0.0234371
0.0220951
0.0179933
0.015721
0.0133919
0.012949
0.0148545
0.012388
0.0166232
0.0170698
0.0161162
0.0158976
0.0149974
0.0144211
0.0124673
0.0125182
0.0152446
0.011997
0.0118228
0.0117559
0.0113908
0.0112038
0.0109572
0.010642
0.0102222
0.00976789
0.0126928
0.0106658
0.00964336
0.0096557
0.00942089
0.00924944
0.00905398
0.00874656
0.00853375
0.00805052
0.00917499
0.00810045
0.00876196
0.00872467
0.00850963
0.00833687
0.00813935
0.00781807
0.00759221
0.00716834
0.00802314
0.0087494
0.00876877
0.00869442
0.0086069
0.00857838
0.00856775
0.00849942
0.00836774
0.00824266
0.0117334
0.0121816
0.0117099
0.0107857
0.010143
0.00988124
0.00984599
0.00995808
0.0100762
0.0100938
0.0104754
0.010828
0.0110819
0.0111485
0.0112199
0.0116033
0.0122864
0.0134183
0.0155303
0.0215885
0.0127781
0.0133748
0.0137902
0.0132414
0.0126077
0.0124458
0.0126858
0.0132083
0.0139566
0.0148361
0.0142537
0.0156569
0.0161669
0.0154271
0.0145376
0.0141358
0.0141824
0.0145045
0.0148394
0.0150087
0.0163633
0.0180607
0.0170165
0.0165482
0.0165289
0.0162505
0.0161294
0.0162576
0.0163529
0.0162649
0.0140487
0.0147138
0.013521
0.0130683
0.0136332
0.0141396
0.0141778
0.0139678
0.0136976
0.0134504
0.00984381
0.00984456
0.00958979
0.00945001
0.00952478
0.00959911
0.00954865
0.009432
0.00932334
0.00925025
0.00782977
0.00770887
0.00759881
0.00750794
0.00744604
0.0073966
0.00734648
0.00730244
0.00727017
0.00725126
0.00689027
0.00674584
0.00665309
0.00658423
0.00653127
0.00649576
0.00647291
0.00645852
0.00645082
0.00644851
0.00643926
0.00706559
0.00847791
0.0131649
0.0472259
0.0152069
0.0113752
0.00963015
0.00864384
0.008103
0.00648103
0.00707774
0.0084345
0.0121895
0.0200028
0.0143843
0.011627
0.00986183
0.00885713
0.00831075
0.00655771
0.00712645
0.00843522
0.0114512
0.0144176
0.0131496
0.0117236
0.0103233
0.00940856
0.00885308
0.00667283
0.00721619
0.0084572
0.0107453
0.0120737
0.0118454
0.0114896
0.010949
0.0104912
0.0100141
0.00682963
0.00736058
0.00855705
0.0103516
0.0110188
0.0109342
0.0109186
0.0111267
0.0117833
0.0120692
0.00703466
0.00756747
0.00872716
0.0101485
0.0104865
0.0104531
0.0105798
0.0110794
0.0126846
0.0150406
0.00729599
0.007852
0.00899989
0.0101622
0.0103429
0.01031
0.0104856
0.0110578
0.012914
0.0160689
0.00762446
0.00822631
0.00936528
0.01032
0.0104021
0.0104044
0.0106614
0.0112133
0.0130734
0.0152292
0.00803818
0.00871881
0.00986147
0.0106137
0.0105875
0.0105384
0.0107622
0.0110682
0.0122746
0.0123967
0.0085671
0.00939697
0.0106226
0.0111718
0.0109221
0.0107291
0.0108277
0.0109726
0.0117481
0.0115457
0.00917724
0.0102835
0.0118769
0.0125628
0.0121917
0.0120745
0.0124322
0.0138108
0.0144596
0.0151836
0.00980746
0.0112451
0.0131696
0.0141254
0.0139477
0.0142547
0.015827
0.0190269
0.0203669
0.0153477
0.0105171
0.0123745
0.0145211
0.0155292
0.0154963
0.0160127
0.0177423
0.0197397
0.0179193
0.0151394
0.0113642
0.0137554
0.0159471
0.0167987
0.0168398
0.0174028
0.0186795
0.0194829
0.0179206
0.0152024
0.0124255
0.0155222
0.0174591
0.0179456
0.0179838
0.0184632
0.0193131
0.0196134
0.0182434
0.0159449
0.0138343
0.0179096
0.0190664
0.0190405
0.0190902
0.0195777
0.0202284
0.0202896
0.019065
0.0167984
0.0158564
0.0212332
0.0206159
0.0199904
0.0201327
0.0206868
0.0211945
0.0210163
0.0196377
0.0173437
0.0190564
0.0258171
0.0217671
0.0206197
0.0209144
0.0215454
0.0218675
0.0213024
0.0195954
0.0172364
0.0255737
0.0296527
0.0219857
0.0208614
0.0213387
0.0220091
0.0221253
0.0211108
0.0190162
0.0166684
0.0452274
0.0264377
0.0208537
0.0208399
0.0214442
0.0221014
0.022046
0.0205842
0.0181065
0.0158679
0.0138847
0.0182158
0.0231405
0.0326722
0.0357519
0.0405467
0.0455033
0.0587341
0.071673
0.107331
0.0131779
0.0203342
0.0247873
0.0336147
0.0347117
0.0396812
0.0440548
0.0568989
0.0695527
0.109397
0.013071
0.0211188
0.0257839
0.0356364
0.0350278
0.0386972
0.0430115
0.0523301
0.064129
0.108355
0.0136444
0.0208632
0.0248408
0.0296289
0.0295588
0.0329546
0.0368798
0.0448264
0.0550958
0.0928247
0.0138648
0.0194226
0.0234874
0.0278499
0.0290018
0.0320025
0.0360619
0.0420878
0.0509937
0.0784846
0.0143387
0.0169492
0.021071
0.0249154
0.0277682
0.0309049
0.0354113
0.0409481
0.0487953
0.0704576
0.0145888
0.0152996
0.0204212
0.0244636
0.0283833
0.0323414
0.0371497
0.042755
0.0498317
0.068576
0.0144156
0.0144152
0.0198581
0.0241264
0.0292577
0.0339766
0.0395313
0.04512
0.0513377
0.0706411
0.0142854
0.014255
0.0195199
0.0242386
0.0302789
0.0362054
0.0424222
0.0484081
0.0543323
0.0723185
0.0142
0.0141995
0.0191552
0.0245719
0.0313228
0.0389851
0.0457765
0.0523224
0.0564478
0.0763681
0.00893205
0.0104541
0.010628
0.0107143
0.0104583
0.0102432
0.0100846
0.00994909
0.00993033
0.00992063
0.010129
0.0117813
0.0120585
0.0121432
0.0118986
0.011655
0.0114644
0.0113001
0.0112593
0.0111309
0.0133378
0.0149975
0.0164571
0.0158916
0.0152503
0.0148211
0.0145322
0.0142756
0.014168
0.0139097
0.0189332
0.0217814
0.0542717
0.0319503
0.0257502
0.0239925
0.0231143
0.0222899
0.0216511
0.0207063
0.0137277
0.0168012
0.0267022
0.0429023
0.0433972
0.0448826
0.0458406
0.0471218
0.0440132
0.0422039
0.00717437
0.00720534
0.00720691
0.00717725
0.0071859
0.00725105
0.00739039
0.00755822
0.0077993
0.00816919
0.00742495
0.00744336
0.0074952
0.00754001
0.00765349
0.00783259
0.00814921
0.00854205
0.00889456
0.00935315
0.00762982
0.0076736
0.00783948
0.00810826
0.00856143
0.00921641
0.010183
0.0116505
0.0130425
0.0150868
0.0077714
0.00787838
0.00820726
0.00885477
0.0101502
0.0127629
0.0179558
0.0289548
0.0502775
0.0210335
0.00786508
0.00805177
0.00855644
0.00959382
0.0116858
0.0163113
0.0229318
0.0278756
0.0161406
0.0114298
0.0137478
0.0145783
0.0149991
0.0135005
0.0127559
0.0126211
0.0128787
0.0123209
0.0106164
0.00898794
0.0145471
0.0180627
0.0194553
0.0170802
0.0150192
0.014304
0.0142335
0.0134111
0.0115186
0.00971673
0.0146026
0.0166686
0.0189892
0.0180625
0.0163337
0.0155311
0.0153199
0.0144648
0.0125757
0.010643
0.0146465
0.0168984
0.0187183
0.0184681
0.0173068
0.0165241
0.0161672
0.0154192
0.0138049
0.0119094
0.0153577
0.017293
0.0186977
0.0186656
0.0178543
0.0171563
0.016754
0.0162447
0.0153082
0.0139036
0.0160388
0.0177547
0.0188949
0.0189283
0.0183092
0.0176444
0.0171805
0.0169535
0.0171095
0.0177758
0.0163619
0.0179282
0.018956
0.0190822
0.0185622
0.0179003
0.017404
0.0174009
0.0190624
0.0270589
0.0163757
0.0178931
0.0189533
0.0191774
0.0187406
0.0180818
0.0175477
0.0177
0.020442
0.0245945
0.0161447
0.0176377
0.0188825
0.0192658
0.018864
0.0182118
0.0177168
0.017913
0.0198215
0.016887
0.0156813
0.0171388
0.0186543
0.0192668
0.0189012
0.0182622
0.0178292
0.0178509
0.0181362
0.0135801
0.00813555
0.00868539
0.00963578
0.0112887
0.0142879
0.0268362
0.0132921
0.0085529
0.00708413
0.0064231
0.00849538
0.00908199
0.00998967
0.0115205
0.0134281
0.016195
0.0124841
0.00861351
0.00713357
0.00643227
0.00929873
0.00996683
0.0106225
0.0115069
0.012208
0.0128361
0.0115918
0.00869479
0.00722387
0.00647673
0.0109248
0.0115691
0.0113589
0.0112355
0.0112577
0.0114
0.0109195
0.00880976
0.00735831
0.0065573
0.0142072
0.0134888
0.0117279
0.0109254
0.0106787
0.0106846
0.0105083
0.00896836
0.00754477
0.00668211
0.0187314
0.014382
0.0117664
0.0107884
0.010458
0.0104071
0.0103386
0.00918004
0.00778963
0.00685531
0.0190374
0.0144974
0.0118586
0.0108923
0.0104879
0.010378
0.010345
0.0094514
0.00810673
0.00709013
0.0150884
0.0136775
0.0118263
0.0110874
0.0106776
0.0105368
0.0105125
0.00980716
0.00850628
0.00739669
0.0117148
0.0121285
0.0113341
0.0110725
0.0107897
0.0107135
0.0107789
0.0102688
0.00901991
0.00780196
0.0103853
0.0117041
0.0114415
0.0112567
0.0110676
0.0111259
0.0113839
0.0110536
0.0097243
0.00833747
0.0169114
0.0200916
0.0208686
0.0273211
0.0316439
0.0282295
0.0285044
0.0223682
0.0189246
0.0136421
0.0160233
0.020246
0.021135
0.0283242
0.0318519
0.027875
0.0283318
0.0236875
0.020075
0.0133183
0.0154576
0.0205728
0.021683
0.0308528
0.033914
0.0289922
0.0293898
0.0245189
0.0206451
0.0130989
0.0150864
0.0205142
0.0223351
0.0318829
0.0324062
0.0269574
0.0262869
0.0229039
0.0204776
0.0135719
0.0147833
0.0201804
0.0227214
0.0332486
0.0325423
0.0271935
0.0258802
0.02216
0.0191637
0.0137858
0.0145383
0.0197347
0.0231407
0.0348845
0.0324427
0.027282
0.0243317
0.0209271
0.0164875
0.0141549
0.0143231
0.0192621
0.0235401
0.0381518
0.0354429
0.0288228
0.0243944
0.0207513
0.0151828
0.0141588
0.0141321
0.0188404
0.0237809
0.0426657
0.0395501
0.0307674
0.024502
0.0201889
0.0145836
0.014066
0.0139703
0.0184736
0.0238863
0.0483667
0.0455143
0.0327023
0.0249202
0.0198679
0.0143662
0.0140964
0.0138253
0.0181355
0.0238367
0.0545933
0.0544292
0.0347924
0.0257496
0.0196789
0.0142728
0.0140306
0.0084745
0.00780664
0.00939372
0.00979621
0.00978518
0.0101327
0.0104305
0.0103797
0.0102582
0.00886088
0.011434
0.0113613
0.0100595
0.0109606
0.0110586
0.0114236
0.0118117
0.0119062
0.0119243
0.0103643
0.0142072
0.0158128
0.0127873
0.0137839
0.0139534
0.0144915
0.0152965
0.0162258
0.0154582
0.0136833
0.0164088
0.0221716
0.0190343
0.0211918
0.0221565
0.0232031
0.0281067
0.0503097
0.0237988
0.0182456
0.017712
0.0211053
0.0225164
0.0294898
0.0358214
0.0328316
0.0378407
0.0272287
0.0180087
0.0131573
0.00821622
0.00779642
0.00751266
0.00731194
0.00714692
0.00702583
0.00698406
0.007015
0.007071
0.00713488
0.00949775
0.00891616
0.00851039
0.00814943
0.00781168
0.00759283
0.00747512
0.00742284
0.00741518
0.00743488
0.0133174
0.0123953
0.0114835
0.0102029
0.00911602
0.00849396
0.00808582
0.00781657
0.00768767
0.0076531
0.0251009
0.0278401
0.0209216
0.0160892
0.0125399
0.010308
0.00901581
0.00829269
0.00793332
0.00779322
0.011409
0.0149827
0.0287542
0.0420486
0.0200739
0.0130506
0.0101802
0.00883355
0.00816921
0.00788519
)
;

boundaryField
{
    left
    {
        type            calculated;
        value           nonuniform List<scalar> 
35
(
0.0089745
0.00947905
0.0101296
0.010789
0.0112626
0.0114401
0.0112131
0.0103172
0.00915592
0.00803589
0.008791
0.00873673
0.00868218
0.00862947
0.00858485
0.00855314
0.00851478
0.00851698
0.00854989
0.00869574
0.00976227
0.0095852
0.00944399
0.00932149
0.00921355
0.00911965
0.0090371
0.00896602
0.00890254
0.00884576
0.00781918
0.00892505
0.00951469
0.00981139
0.00991695
)
;
    }
    right
    {
        type            calculated;
        value           nonuniform List<scalar> 
35
(
0.0099219
0.011131
0.0139305
0.0207917
0.0441164
0.161644
0.152795
0.17668
0.141734
0.106748
0.0908334
0.0880877
0.0931395
0.096252
0.106091
0.116971
0.127886
0.162283
0.19201
0.112924
0.0425056
0.0273157
0.0177377
0.0149105
0.0138805
0.0139666
0.0156901
0.0192323
0.0296933
0.0711684
0.0330223
0.0165656
0.011632
0.00956968
0.00859416
)
;
    }
    down
    {
        type            calculated;
        value           nonuniform List<scalar> 
40
(
0.00755472
0.00698551
0.00948153
0.00945698
0.00937177
0.00973297
0.0100209
0.0099306
0.00980933
0.00841579
0.00783668
0.00746931
0.0072262
0.00707643
0.00694815
0.00684541
0.00681644
0.00685472
0.00691493
0.00698905
0.00705814
0.00710999
0.00711484
0.00708893
0.00707293
0.00710656
0.00719962
0.00731171
0.00752449
0.007882
0.00863621
0.0102261
0.0102683
0.0103178
0.0100112
0.00978801
0.00963546
0.00950847
0.00950669
0.00955765
)
;
    }
    up
    {
        type            calculated;
        value           nonuniform List<scalar> 
40
(
0.00690575
0.00733342
0.00756746
0.00785819
0.00800318
0.00809429
0.00815982
0.00819999
0.00823046
0.00827728
0.00623594
0.00624456
0.00625708
0.00627391
0.00629552
0.00632007
0.00635228
0.00639044
0.0064589
0.00657505
0.0065931
0.00646005
0.00637423
0.00631306
0.00627041
0.0062471
0.00623557
0.00623009
0.00622928
0.00623147
0.00836721
0.00733526
0.00856321
0.00844198
0.00821133
0.00803591
0.00783694
0.00750973
0.00727654
0.00686782
)
;
    }
    cylinder
    {
        type            calculated;
        value           nonuniform List<scalar> 
80
(
0.0327907
0.0416857
0.0623074
0.127304
0.0545992
0.0321862
0.0240054
0.0194283
0.0160462
0.0132044
0.010626
0.00901477
0.00815338
0.00763073
0.00728498
0.0070403
0.00685788
0.00671616
0.00660422
0.00651567
0.00722369
0.00693487
0.0067017
0.00653888
0.00643671
0.00638084
0.00636012
0.00636529
0.00639417
0.00644562
0.0102177
0.00941214
0.00886178
0.0084592
0.00816068
0.00793964
0.00777846
0.00765768
0.00755434
0.00744327
0.00844032
0.00910178
0.00996285
0.0111931
0.0132758
0.0180669
0.0308737
0.0198315
0.0139674
0.0115073
0.00623019
0.00622346
0.00624927
0.00630914
0.00641043
0.00655604
0.00675704
0.0070231
0.00738025
0.00785831
0.00626024
0.00631737
0.00641165
0.00654415
0.00671492
0.00692772
0.00718756
0.00750192
0.00788475
0.00836089
0.00888025
0.0093799
0.00992125
0.0105489
0.0113057
0.0122615
0.0135669
0.0154468
0.018839
0.025264
)
;
    }
    defaultFaces
    {
        type            empty;
    }
}


// ************************************************************************* //
