/*--------------------------------*- C++ -*----------------------------------*\
| =========                 |                                                 |
| \\      /  F ield         | OpenFOAM: The Open Source CFD Toolbox           |
|  \\    /   O peration     | Version:  2406                                  |
|   \\  /    A nd           | Website:  www.openfoam.com                      |
|    \\/     M anipulation  |                                                 |
\*---------------------------------------------------------------------------*/
FoamFile
{
    version     2.0;
    format      ascii;
    arch        "LSB;label=32;scalar=64";
    class       volScalarField;
    location    "0.05";
    object      p;
}
// * * * * * * * * * * * * * * * * * * * * * * * * * * * * * * * * * * * * * //

dimensions      [0 2 -2 0 0 0 0];

internalField   nonuniform List<scalar> 
1800
(
-1.96487
-1.94983
-1.93592
-1.92201
-1.9115
-1.90447
-1.90163
-1.90344
-1.89933
-1.89387
-2.1042
-2.08676
-2.07048
-2.05313
-2.03728
-2.02298
-2.01066
-1.99962
-1.98387
-1.96682
-2.25362
-2.23729
-2.2213
-2.20379
-2.18768
-2.17373
-2.16272
-2.15331
-2.14151
-2.12667
-2.40957
-2.39592
-2.38129
-2.36499
-2.35055
-2.3396
-2.33297
-2.32862
-2.32269
-2.31346
-2.56361
-2.55307
-2.54021
-2.52558
-2.51365
-2.5068
-2.50591
-2.50816
-2.50919
-2.50598
-2.70589
-2.69806
-2.68679
-2.67361
-2.66378
-2.66049
-2.66451
-2.67223
-2.67813
-2.6779
-2.82662
-2.8209
-2.81082
-2.7987
-2.79059
-2.79033
-2.79845
-2.81034
-2.81935
-2.81901
-2.91783
-2.91342
-2.90401
-2.89239
-2.88506
-2.88658
-2.89731
-2.91167
-2.92247
-2.92166
-2.97309
-2.96934
-2.96012
-2.94835
-2.941
-2.94313
-2.95472
-2.9693
-2.97976
-2.97763
-2.98903
-2.98533
-2.97562
-2.96297
-2.95478
-2.956
-2.96552
-2.97682
-2.984
-2.97913
-0.802272
-0.797011
-0.790997
-0.780654
-0.767799
-0.753106
-0.736956
-0.719638
-0.700772
-0.679176
-0.881566
-0.872039
-0.865235
-0.855117
-0.842614
-0.828315
-0.812628
-0.795809
-0.777197
-0.755162
-0.972148
-0.96346
-0.95576
-0.94537
-0.933125
-0.919463
-0.904703
-0.889015
-0.8713
-0.849355
-1.07798
-1.06888
-1.06036
-1.04983
-1.03807
-1.02548
-1.01231
-0.998594
-0.982899
-0.962334
-1.1927
-1.18409
-1.17561
-1.16557
-1.15483
-1.14388
-1.13299
-1.12208
-1.10936
-1.09119
-1.3116
-1.30524
-1.29815
-1.28949
-1.28039
-1.27159
-1.26366
-1.25659
-1.2483
-1.23438
-1.43715
-1.43209
-1.42625
-1.41903
-1.41173
-1.40514
-1.40004
-1.39706
-1.39385
-1.38454
-1.56647
-1.56169
-1.55629
-1.54991
-1.54453
-1.54038
-1.53684
-1.53667
-1.53888
-1.53365
-1.69704
-1.6908
-1.68411
-1.67697
-1.67314
-1.67313
-1.67495
-1.67779
-1.68326
-1.68237
-1.82836
-1.81804
-1.80709
-1.79548
-1.78724
-1.78326
-1.78151
-1.78336
-1.77924
-1.75547
-0.550279
-0.361861
-0.241424
-0.120669
-0.0475496
0.00314653
0.0250251
0.0362435
0.0298773
0.00444287
-0.604742
-0.381872
-0.244735
-0.115767
-0.0403471
0.00995733
0.0297922
0.0390059
0.0311881
0.00485004
-0.671315
-0.40404
-0.249176
-0.110172
-0.0324671
0.017491
0.0346138
0.0414842
0.0321216
0.00535286
-0.753162
-0.426951
-0.254583
-0.104962
-0.0242173
0.0252111
0.03946
0.0436042
0.0328448
0.0061863
-0.851254
-0.452147
-0.260848
-0.100601
-0.0163998
0.0329374
0.0444399
0.0458855
0.0335704
0.00726632
-0.969087
-0.482971
-0.267874
-0.0967812
-0.00981193
0.0396847
0.0487377
0.0479192
0.0343036
0.00797639
-1.10999
-0.532609
-0.279462
-0.0949358
-0.00357101
0.0459706
0.0532284
0.0503699
0.0357073
0.00969119
-1.26023
-0.603017
-0.300249
-0.103068
-0.00686281
0.0439688
0.0519433
0.0493697
0.035938
0.0113181
-1.41622
-0.693434
-0.331043
-0.116535
-0.013598
0.0388785
0.049156
0.0478211
0.0356605
0.0122931
-1.56028
-0.834707
-0.393647
-0.157387
-0.0423225
0.0172934
0.0356771
0.0393144
0.0317365
0.012051
-1.5966
-0.814184
-0.385137
-0.158654
-0.0482394
0.00696246
0.027566
0.0328454
0.0276635
0.0104748
-1.37442
-0.812766
-0.399419
-0.175687
-0.0664601
-0.011716
0.0127839
0.0215862
0.0206032
0.00828555
-1.45412
-0.828541
-0.438783
-0.210198
-0.0943115
-0.0359265
-0.005501
0.00884994
0.01278
0.00561168
-1.30247
-0.814584
-0.474626
-0.247192
-0.125233
-0.0614213
-0.0244741
-0.00438807
0.00439977
0.00255519
-1.24404
-0.809565
-0.512783
-0.290385
-0.159792
-0.0882968
-0.0439414
-0.017515
-0.003534
-0.000312468
-1.16114
-0.799213
-0.546262
-0.331883
-0.194125
-0.114899
-0.0636052
-0.0313314
-0.0122093
-0.00347917
-1.09392
-0.800294
-0.580255
-0.37328
-0.229065
-0.141548
-0.0832992
-0.0451119
-0.0205289
-0.00615955
-1.03824
-0.807744
-0.609814
-0.40741
-0.257975
-0.162501
-0.09811
-0.054923
-0.0263006
-0.00803145
-0.979187
-0.810371
-0.626837
-0.427382
-0.276077
-0.175238
-0.106957
-0.0608318
-0.0294282
-0.00877056
-1.03881
-0.850618
-0.653861
-0.447325
-0.292688
-0.186381
-0.11433
-0.0656305
-0.0328356
-0.0104012
-2.93009
-2.93501
-2.88769
-2.80037
-2.68579
-2.54399
-2.36128
-2.18238
-1.97689
-1.93615
-2.71799
-2.73887
-2.72418
-2.68956
-2.62543
-2.50872
-2.30959
-2.07133
-1.86126
-1.76721
-2.45273
-2.49152
-2.50115
-2.48801
-2.44334
-2.33597
-2.15878
-1.9886
-1.85621
-1.8019
-2.2141
-2.25514
-2.27566
-2.27036
-2.22366
-2.11725
-1.97248
-1.85712
-1.76419
-1.70961
-2.02766
-2.06844
-2.08824
-2.07601
-2.02103
-1.93037
-1.83111
-1.75539
-1.68128
-1.61365
-1.88541
-1.91798
-1.92952
-1.90937
-1.85556
-1.7834
-1.71351
-1.65096
-1.57464
-1.49393
-1.77577
-1.79896
-1.80125
-1.77586
-1.72524
-1.6637
-1.59981
-1.53266
-1.45577
-1.37023
-1.69628
-1.71142
-1.70598
-1.6768
-1.62727
-1.56421
-1.49167
-1.41361
-1.34315
-1.26278
-1.64915
-1.65814
-1.64734
-1.6158
-1.56557
-1.49839
-1.41577
-1.32522
-1.24948
-1.1619
-1.63496
-1.64308
-1.63251
-1.60299
-1.55541
-1.49073
-1.41087
-1.32416
-1.24498
-1.17562
-1.74552
-1.76554
-1.76424
-1.75801
-1.75791
-1.76069
-1.7666
-1.77081
-1.7705
-1.76343
-1.89304
-1.90735
-1.90328
-1.89728
-1.89756
-1.90065
-1.90711
-1.9132
-1.91522
-1.90837
-2.02254
-2.03477
-2.03431
-2.03473
-2.03962
-2.04567
-2.05392
-2.06214
-2.06688
-2.06203
-2.13797
-2.15796
-2.16595
-2.17431
-2.18479
-2.19505
-2.20626
-2.2171
-2.22462
-2.2223
-2.26242
-2.2905
-2.30536
-2.31935
-2.33369
-2.34705
-2.36066
-2.37388
-2.38395
-2.38411
-2.403
-2.43464
-2.45214
-2.46761
-2.48284
-2.49721
-2.51174
-2.52643
-2.5385
-2.54038
-2.55284
-2.58347
-2.59921
-2.61216
-2.62543
-2.63857
-2.6524
-2.66751
-2.68141
-2.68387
-2.70242
-2.72701
-2.73686
-2.74394
-2.75279
-2.76294
-2.77502
-2.78909
-2.80454
-2.8079
-2.8405
-2.85365
-2.85374
-2.85264
-2.85625
-2.8625
-2.87248
-2.88601
-2.89803
-2.90232
-2.92734
-2.93837
-2.9365
-2.93048
-2.92584
-2.92726
-2.93631
-2.94982
-2.9604
-2.96442
-0.48783
-0.498604
-0.509193
-0.51846
-0.525966
-0.532046
-0.537065
-0.540802
-0.541455
-0.535588
-0.562136
-0.573384
-0.584938
-0.595388
-0.603968
-0.611029
-0.616877
-0.621016
-0.621785
-0.616569
-0.646716
-0.658233
-0.670853
-0.682644
-0.692382
-0.700432
-0.707092
-0.711688
-0.712785
-0.708437
-0.73983
-0.75227
-0.766632
-0.780234
-0.79141
-0.800577
-0.808064
-0.813143
-0.814681
-0.811291
-0.841913
-0.856303
-0.873032
-0.888686
-0.901337
-0.911524
-0.919714
-0.925268
-0.927359
-0.925067
-0.958201
-0.974397
-0.993006
-1.01012
-1.02364
-1.03424
-1.04264
-1.04835
-1.05084
-1.04954
-1.08753
-1.10678
-1.12739
-1.14547
-1.15888
-1.16884
-1.17669
-1.18208
-1.18466
-1.18405
-1.25849
-1.2719
-1.28749
-1.30093
-1.30954
-1.31607
-1.32186
-1.3258
-1.32755
-1.32672
-1.41312
-1.43399
-1.44861
-1.4568
-1.46213
-1.46773
-1.47261
-1.47527
-1.47593
-1.47406
-1.72781
-1.70096
-1.67593
-1.65417
-1.64091
-1.63597
-1.63428
-1.63211
-1.62884
-1.62324
0.570412
-1.39057
-0.135124
-0.116985
-0.210222
-0.205038
-0.213192
-0.215122
-0.283996
-0.430274
0.567944
-1.39958
-0.138422
-0.123765
-0.212341
-0.206354
-0.217089
-0.224623
-0.309063
-0.492023
0.568043
-1.41205
-0.140378
-0.130837
-0.214342
-0.208121
-0.223183
-0.236795
-0.340784
-0.566895
0.571031
-1.4283
-0.140859
-0.137266
-0.215385
-0.209888
-0.230469
-0.251883
-0.378136
-0.65169
0.577196
-1.44863
-0.139941
-0.140582
-0.214034
-0.211194
-0.238216
-0.269175
-0.422289
-0.740802
0.586912
-1.47322
-0.136967
-0.139366
-0.21014
-0.212243
-0.244172
-0.284659
-0.468226
-0.833241
0.60116
-1.50155
-0.131114
-0.135247
-0.205744
-0.212915
-0.250132
-0.304523
-0.532088
-0.9301
0.621681
-1.5316
-0.123307
-0.127257
-0.195758
-0.208134
-0.25043
-0.317568
-0.580557
-1.02528
0.651218
-1.56085
-0.114673
-0.116581
-0.184876
-0.201954
-0.251496
-0.336392
-0.648698
-1.1554
0.6906
-1.5836
-0.101583
-0.102873
-0.169956
-0.187245
-0.24118
-0.346584
-0.670778
-1.31123
0.757341
-1.58543
-0.104904
-0.0897269
-0.159374
-0.181632
-0.240174
-0.359811
-0.705902
-1.5127
0.849761
-1.55378
-0.126127
-0.081713
-0.153735
-0.184818
-0.249928
-0.398165
-0.706561
-1.59664
0.923769
-1.50389
-0.138777
-0.0818773
-0.156133
-0.197594
-0.27324
-0.421118
-0.683842
-1.49384
0.967634
-1.44753
-0.144878
-0.0874654
-0.164456
-0.216398
-0.300524
-0.44709
-0.647119
-1.40248
0.981557
-1.39454
-0.147277
-0.0967792
-0.176161
-0.237164
-0.330119
-0.466446
-0.628926
-1.29083
0.967226
-1.34976
-0.147492
-0.107915
-0.187865
-0.256345
-0.357115
-0.483471
-0.624867
-1.16686
0.931542
-1.31318
-0.147613
-0.121286
-0.198609
-0.272356
-0.380112
-0.497872
-0.636305
-1.04987
0.88689
-1.28099
-0.14657
-0.136432
-0.208316
-0.285091
-0.397561
-0.508092
-0.655094
-0.949435
0.842059
-1.24503
-0.14075
-0.150711
-0.21631
-0.294666
-0.409185
-0.516077
-0.671719
-0.908462
0.90011
-1.17445
-0.114242
-0.15501
-0.214932
-0.292056
-0.401785
-0.502672
-0.655824
-0.850147
-1.7201
-1.89909
-2.02539
-2.11181
-2.20777
-2.32946
-2.46535
-2.61446
-2.75568
-2.86735
-1.77587
-1.85779
-1.9386
-2.0237
-2.10747
-2.19352
-2.29285
-2.40591
-2.53121
-2.64968
-1.65802
-1.6996
-1.74471
-1.82291
-1.92039
-2.01507
-2.10545
-2.1992
-2.29759
-2.38782
-1.66183
-1.70355
-1.71666
-1.74451
-1.79794
-1.86433
-1.93405
-2.00569
-2.07901
-2.15091
-1.56642
-1.62314
-1.65158
-1.66719
-1.69005
-1.73448
-1.79274
-1.85492
-1.91639
-1.97493
-1.44331
-1.50998
-1.5565
-1.58543
-1.60695
-1.63958
-1.68688
-1.74012
-1.7923
-1.84143
-1.31837
-1.39486
-1.43767
-1.47001
-1.50726
-1.55001
-1.59836
-1.64894
-1.69681
-1.73974
-1.21702
-1.29801
-1.32219
-1.34437
-1.39789
-1.46249
-1.52318
-1.57806
-1.62618
-1.66639
-1.17905
-1.25215
-1.25826
-1.27127
-1.328
-1.40375
-1.47402
-1.53435
-1.58485
-1.62406
-1.08348
-1.14618
-1.18118
-1.22345
-1.28943
-1.36811
-1.44444
-1.51162
-1.56679
-1.60834
-0.972584
-0.961492
-0.934455
-0.898029
-0.861663
-0.830871
-0.806451
-0.78843
-0.776621
-0.769766
-0.989211
-0.976854
-0.950056
-0.91422
-0.879477
-0.848798
-0.825846
-0.809266
-0.798252
-0.791653
-0.979497
-0.965409
-0.938418
-0.90302
-0.86887
-0.840501
-0.819518
-0.805446
-0.797574
-0.794907
-0.947381
-0.931269
-0.904586
-0.870946
-0.839129
-0.813335
-0.794102
-0.781535
-0.775
-0.773707
-0.899664
-0.881963
-0.856025
-0.824447
-0.795174
-0.771818
-0.754217
-0.741913
-0.734527
-0.732898
-0.84493
-0.826115
-0.801554
-0.772804
-0.746689
-0.726222
-0.710966
-0.699647
-0.691562
-0.688479
-0.790572
-0.771463
-0.749044
-0.723819
-0.701529
-0.684519
-0.672398
-0.663474
-0.656652
-0.653021
-0.742477
-0.723735
-0.703893
-0.682565
-0.664173
-0.650419
-0.640868
-0.633685
-0.628519
-0.625502
-0.703918
-0.686202
-0.66892
-0.65112
-0.636029
-0.624452
-0.615933
-0.608542
-0.602203
-0.598462
-0.67629
-0.660713
-0.646426
-0.632594
-0.621612
-0.613744
-0.608795
-0.604936
-0.601492
-0.599907
-0.656516
-0.643861
-0.632576
-0.622196
-0.614496
-0.609715
-0.60705
-0.607203
-0.606298
-0.598163
-0.643461
-0.633325
-0.625048
-0.618237
-0.614031
-0.612248
-0.612147
-0.613768
-0.61719
-0.616085
-0.634083
-0.62504
-0.618114
-0.612566
-0.608763
-0.606078
-0.603911
-0.602738
-0.602998
-0.599895
-0.627775
-0.618814
-0.612193
-0.606586
-0.60176
-0.597104
-0.592346
-0.588134
-0.584852
-0.578658
-0.625792
-0.616418
-0.609715
-0.603583
-0.597319
-0.590483
-0.58309
-0.575687
-0.568282
-0.557987
-0.629911
-0.619991
-0.613208
-0.606474
-0.598698
-0.589753
-0.579901
-0.5696
-0.558905
-0.545863
-0.641922
-0.631716
-0.625107
-0.61786
-0.608651
-0.59778
-0.585734
-0.572924
-0.559389
-0.54382
-0.66345
-0.653649
-0.647493
-0.639768
-0.6292
-0.616624
-0.602704
-0.587778
-0.571856
-0.553966
-0.696073
-0.687921
-0.682015
-0.673677
-0.661967
-0.648144
-0.632897
-0.616517
-0.598962
-0.579375
-0.740561
-0.736188
-0.729894
-0.720425
-0.707872
-0.693343
-0.67735
-0.660189
-0.641688
-0.620938
-0.556198
-0.383184
-0.326092
-0.217057
-0.135225
-0.0701635
-0.0311559
-0.00826209
-0.00316086
-0.00564229
-0.514019
-0.350704
-0.309217
-0.199424
-0.119006
-0.0567746
-0.0215893
-0.00249059
-0.000401915
-0.00615651
-0.481752
-0.343795
-0.30976
-0.18454
-0.105327
-0.045359
-0.0132589
0.00355253
0.00360516
-0.00538853
-0.459657
-0.336567
-0.294122
-0.164632
-0.0906566
-0.0343124
-0.0048824
0.00984125
0.00848285
-0.00346192
-0.451643
-0.337548
-0.278061
-0.148308
-0.0805196
-0.0260425
0.00119689
0.015188
0.0129696
-0.00128998
-0.449154
-0.331828
-0.259732
-0.135508
-0.0728112
-0.019397
0.00615156
0.0199983
0.0171069
0.000465177
-0.448749
-0.322311
-0.248964
-0.129617
-0.0677753
-0.0149803
0.0099717
0.0238474
0.020447
0.0016802
-0.455455
-0.323493
-0.241885
-0.127249
-0.0635725
-0.0112893
0.0134091
0.027355
0.0235024
0.00268056
-0.475023
-0.33234
-0.23989
-0.126259
-0.0590361
-0.00739237
0.0169473
0.0305943
0.0261567
0.00343601
-0.506988
-0.345243
-0.239812
-0.124221
-0.0537729
-0.00269716
0.0207785
0.0334073
0.0282623
0.00399835
-0.567869
-0.407566
-0.331952
-0.227427
-0.148029
-0.0846685
-0.0418853
-0.0143417
-0.00458841
-0.00297073
-0.542837
-0.393674
-0.327442
-0.226079
-0.147138
-0.0840712
-0.0415026
-0.0141217
-0.00443668
-0.00313075
-0.550554
-0.391054
-0.327561
-0.225385
-0.146376
-0.0827872
-0.0403037
-0.0129614
-0.00343282
-0.00295636
-0.54805
-0.383316
-0.321272
-0.225862
-0.146611
-0.0822797
-0.039887
-0.0126608
-0.00342766
-0.00250322
-0.557321
-0.385412
-0.323675
-0.224122
-0.144319
-0.0790379
-0.0374326
-0.0116237
-0.00379953
-0.00449081
-0.763411
-0.782769
-0.798448
-0.790604
-0.766065
-0.737626
-0.711695
-0.689498
-0.66875
-0.641434
-0.763646
-0.783899
-0.799195
-0.790193
-0.763553
-0.73012
-0.698717
-0.676715
-0.657719
-0.621013
-0.7646
-0.785487
-0.799726
-0.789514
-0.762106
-0.727526
-0.696143
-0.67467
-0.656195
-0.628204
-0.765849
-0.787089
-0.798898
-0.786073
-0.755279
-0.716885
-0.681881
-0.659227
-0.633741
-0.614895
-0.767385
-0.788746
-0.796428
-0.778135
-0.740156
-0.696152
-0.65788
-0.630656
-0.605451
-0.61174
-0.270155
-0.264912
-0.262665
-0.26158
-0.261291
-0.263271
-0.266296
-0.268269
-0.267005
-0.259139
-0.226873
-0.229495
-0.235656
-0.239965
-0.243396
-0.247213
-0.250932
-0.25304
-0.251961
-0.244964
-0.217632
-0.221908
-0.229578
-0.23532
-0.2393
-0.242947
-0.246276
-0.248106
-0.246994
-0.24031
-0.219002
-0.224095
-0.232292
-0.238865
-0.243495
-0.247244
-0.250365
-0.252121
-0.251155
-0.244493
-0.234035
-0.238888
-0.246315
-0.25259
-0.257127
-0.260574
-0.263267
-0.264894
-0.264129
-0.25725
-0.258467
-0.263334
-0.269921
-0.275544
-0.27965
-0.282594
-0.284693
-0.285953
-0.285276
-0.278085
-0.290187
-0.295366
-0.301523
-0.306754
-0.310597
-0.313197
-0.314777
-0.315561
-0.315207
-0.310707
-0.327608
-0.33399
-0.340703
-0.346342
-0.350598
-0.353587
-0.35559
-0.357152
-0.357627
-0.353352
-0.371666
-0.379816
-0.387816
-0.394529
-0.399759
-0.403712
-0.40679
-0.409461
-0.4103
-0.404631
-0.424464
-0.434205
-0.443627
-0.45164
-0.45802
-0.463057
-0.467162
-0.470467
-0.471198
-0.465067
-0.719981
-0.730384
-0.745233
-0.765958
-0.793125
-0.82325
-0.858525
-0.89481
-0.922246
-0.931889
-0.661111
-0.67541
-0.692335
-0.713256
-0.739169
-0.768706
-0.801827
-0.835079
-0.861479
-0.868471
-0.595462
-0.613007
-0.630471
-0.649486
-0.672104
-0.699134
-0.729112
-0.758857
-0.781833
-0.787534
-0.529572
-0.546748
-0.560988
-0.575897
-0.594466
-0.618184
-0.644982
-0.671268
-0.691073
-0.694772
-0.465709
-0.481368
-0.4911
-0.501409
-0.516019
-0.536043
-0.559229
-0.581904
-0.598535
-0.599973
-0.409605
-0.421964
-0.427506
-0.433866
-0.444876
-0.461001
-0.480104
-0.49864
-0.511645
-0.510551
-0.364274
-0.373342
-0.376655
-0.379448
-0.386405
-0.397879
-0.412228
-0.426253
-0.435496
-0.43205
-0.335555
-0.343098
-0.342452
-0.339951
-0.341909
-0.348377
-0.357873
-0.367348
-0.372797
-0.36709
-0.310734
-0.317287
-0.313679
-0.307744
-0.3065
-0.309538
-0.315605
-0.3217
-0.324124
-0.316792
-0.270016
-0.278147
-0.278785
-0.275749
-0.276141
-0.279357
-0.28452
-0.288788
-0.289184
-0.281092
0.673787
-1.39261
0.0234477
-0.059869
-0.181718
-0.19986
-0.213825
-0.198606
-0.243668
-0.237666
0.663197
-1.39429
-0.00477217
-0.0640056
-0.187177
-0.207683
-0.222074
-0.198751
-0.25774
-0.24863
0.650708
-1.39344
-0.0306174
-0.0693422
-0.190841
-0.211329
-0.225832
-0.195492
-0.247905
-0.257455
0.63756
-1.39115
-0.0536509
-0.0760637
-0.194549
-0.214181
-0.228962
-0.200906
-0.244748
-0.266658
0.624405
-1.38819
-0.0738381
-0.0824351
-0.197271
-0.213259
-0.229133
-0.202136
-0.233007
-0.27062
0.611822
-1.38519
-0.0911731
-0.0884611
-0.199498
-0.210699
-0.226471
-0.203528
-0.239484
-0.280272
0.600279
-1.38276
-0.105185
-0.0940667
-0.201369
-0.208004
-0.221008
-0.202608
-0.242352
-0.296366
0.590106
-1.38146
-0.116256
-0.0994346
-0.20329
-0.205689
-0.215653
-0.201368
-0.245865
-0.317712
0.581612
-1.38193
-0.124553
-0.104894
-0.205534
-0.204405
-0.212299
-0.202576
-0.251474
-0.344969
0.575021
-1.38479
-0.130602
-0.110716
-0.207919
-0.204303
-0.211604
-0.207576
-0.264697
-0.381818
0.762799
-1.3028
0.0304169
-0.101112
-0.179465
-0.199947
-0.220098
-0.218618
-0.253221
-0.241248
0.720128
-1.32644
0.0253286
-0.0833195
-0.177688
-0.198986
-0.220338
-0.221009
-0.262652
-0.266346
0.707939
-1.34856
0.0245401
-0.0729257
-0.177063
-0.197886
-0.218909
-0.216587
-0.26197
-0.265042
0.696598
-1.36819
0.0288502
-0.0640425
-0.175997
-0.195475
-0.214279
-0.21419
-0.261661
-0.271333
0.683889
-1.38457
0.035219
-0.0598672
-0.177692
-0.195985
-0.212562
-0.207836
-0.252656
-0.264449
-0.247146
-0.24615
-0.267131
-0.312934
-0.377312
-0.45067
-0.520555
-0.585615
-0.653373
-0.711705
-0.278273
-0.263637
-0.272672
-0.314874
-0.376651
-0.447864
-0.516545
-0.581945
-0.650923
-0.711086
-0.274858
-0.263432
-0.271741
-0.312041
-0.374046
-0.444358
-0.512838
-0.579454
-0.649443
-0.711221
-0.279565
-0.284604
-0.291799
-0.326771
-0.382226
-0.445452
-0.512096
-0.579508
-0.649776
-0.71236
-0.26136
-0.297429
-0.322456
-0.352241
-0.39527
-0.451593
-0.516258
-0.58327
-0.652401
-0.7146
)
;

boundaryField
{
    left
    {
        type            zeroGradient;
    }
    right
    {
        type            fixedValue;
        value           uniform 0;
    }
    down
    {
        type            zeroGradient;
    }
    up
    {
        type            zeroGradient;
    }
    cylinder
    {
        type            zeroGradient;
    }
    defaultFaces
    {
        type            empty;
    }
}


// ************************************************************************* //
