/*--------------------------------*- C++ -*----------------------------------*\
| =========                 |                                                 |
| \\      /  F ield         | OpenFOAM: The Open Source CFD Toolbox           |
|  \\    /   O peration     | Version:  2406                                  |
|   \\  /    A nd           | Website:  www.openfoam.com                      |
|    \\/     M anipulation  |                                                 |
\*---------------------------------------------------------------------------*/
FoamFile
{
    version     2.0;
    format      ascii;
    arch        "LSB;label=32;scalar=64";
    class       surfaceScalarField;
    location    "0.05";
    object      phi;
}
// * * * * * * * * * * * * * * * * * * * * * * * * * * * * * * * * * * * * * //

dimensions      [0 3 -1 0 0 0 0];

oriented        oriented;

internalField   nonuniform List<scalar> 
3485
(
0.00213773
-0.00507688
0.00293915
0.00741013
-0.0208972
0.0156248
0.0147627
-0.0316163
0.0242638
0.0235001
-0.0368389
0.0281014
0.0332671
-0.0385079
0.0287409
0.0442057
-0.0384997
0.0275611
0.0569541
-0.0393895
0.0266411
0.0711703
-0.0415699
0.0273538
0.0905296
-0.0522982
0.0329389
-0.0616436
0.042666
0.109507
0.00246739
-0.00754427
0.00841103
-0.0268408
0.0164931
-0.0396984
0.0257842
-0.04613
0.0358433
-0.048567
0.0467142
-0.0493706
0.0586414
-0.0513168
0.0724746
-0.0554031
0.0882641
-0.0680877
-0.0812483
0.107869
0.002512
-0.0100563
0.00834746
-0.0326763
0.0160665
-0.0474174
0.0246548
-0.0547183
0.0336642
-0.0575764
0.0430989
-0.0588053
0.0531303
-0.0613481
0.064691
-0.0669637
0.0775946
-0.0809914
-0.0982815
0.0946278
0.0024341
-0.0124904
0.00779563
-0.0380378
0.0147192
-0.054341
0.0222161
-0.0622152
0.0298903
-0.0652506
0.03771
-0.066625
0.0458073
-0.0694454
0.0550122
-0.0761687
0.0654973
-0.0914765
-0.111543
0.078759
0.0022721
-0.0147625
0.00695382
-0.0427195
0.0128666
-0.0602537
0.0191346
-0.0684832
0.0254875
-0.0716035
0.0319853
-0.0731228
0.0387156
-0.0761757
0.0462825
-0.0837356
0.0549299
-0.100124
-0.122194
0.0655802
0.00213548
-0.016898
0.00618786
-0.0467719
0.0111865
-0.0652524
0.0163714
-0.0736681
0.0215569
-0.076789
0.0267952
-0.0783611
0.0321034
-0.0814839
0.0379858
-0.089618
0.0445583
-0.106696
-0.130038
0.0524029
0.00196103
-0.018859
0.00535726
-0.0501681
0.0094392
-0.0693343
0.0136122
-0.0778411
0.0178164
-0.0809932
0.0221723
-0.0827171
0.0266146
-0.0859261
0.0314923
-0.0944958
0.0368548
-0.112059
-0.136201
0.0430178
0.00184708
-0.0207061
0.00471501
-0.0530361
0.0080412
-0.0726605
0.0113909
-0.0811908
0.0147718
-0.0843742
0.0183267
-0.086272
0.0218682
-0.0894676
0.0257075
-0.0983351
0.0299499
-0.116301
-0.14117
0.0349191
0.00164998
-0.022356
0.00391411
-0.0553002
0.0064245
-0.0751709
0.00892255
-0.0836888
0.0114596
-0.0869113
0.0142923
-0.0891047
0.0171491
-0.0923244
0.0203119
-0.101498
0.02385
-0.119839
-0.145162
0.0278413
0.0015002
-0.0238562
0.00326793
-0.0570679
0.00508293
-0.0769859
0.00681711
-0.085423
0.00841813
-0.0885123
0.0102342
-0.0909207
0.0120346
-0.0941248
0.0142057
-0.103669
0.0167599
-0.122393
0.0193815
-0.147783
0.000181579
0.000459541
-0.00064112
0.00136413
-0.00126493
8.23699e-05
0.00324075
-0.00331657
0.00143996
0.00540685
-0.00442566
0.00225956
0.00767921
-0.00492627
0.0026539
0.00999517
-0.00524441
0.00292845
0.0123987
-0.00576531
0.00336176
0.0150202
-0.00681635
0.00419488
0.01806
-0.00872452
0.00568475
-0.0116812
0.0216889
0.00805224
0.000130035
0.000329507
0.00136354
-0.00249843
0.00322303
-0.00517606
0.00537767
-0.00658029
0.00765366
-0.00720226
0.00998667
-0.00757742
0.0124128
-0.00819145
0.0150635
-0.00946703
0.0181631
-0.0118241
-0.0154159
0.0218978
0.000125715
0.000203793
0.00135446
-0.00372717
0.00322071
-0.00704232
0.00538128
-0.00874086
0.00766606
-0.00948704
0.010016
-0.00992738
0.0124593
-0.0106347
0.0151181
-0.0121258
0.0182385
-0.0149445
-0.0192423
0.0220649
0.0001476
5.61929e-05
0.00136268
-0.00494225
0.00320881
-0.00888846
0.00534488
-0.0108769
0.00761153
-0.0117537
0.00995416
-0.01227
0.0123884
-0.0130689
0.0150228
-0.0147603
0.0181202
-0.0180419
-0.0231057
0.0219835
0.000199076
-0.000142883
0.00140405
-0.00614722
0.00322185
-0.0107063
0.00531013
-0.0129652
0.00751587
-0.0139594
0.00980155
-0.0145557
0.0121776
-0.0154449
0.0147081
-0.0172908
0.0176522
-0.020986
-0.0268303
0.0213768
0.000253163
-0.000396046
0.00145051
-0.00734457
0.00324539
-0.0125011
0.00527187
-0.0149917
0.00736663
-0.0160542
0.0095118
-0.0167009
0.0117386
-0.0176717
0.0140268
-0.019579
0.0166283
-0.0235875
-0.030311
0.020109
0.000316446
-0.000712492
0.00160405
-0.00863216
0.00349699
-0.0143941
0.00557328
-0.017068
0.00759425
-0.0180752
0.00949182
-0.0185984
0.0114138
-0.0195937
0.0133186
-0.0214838
0.0155055
-0.0257744
-0.033755
0.0189495
0.00042387
-0.00113636
0.00197843
-0.0101867
0.00421031
-0.016626
0.00664369
-0.0195014
0.00890584
-0.0203373
0.0106316
-0.0203242
0.0119781
-0.0209402
0.0132687
-0.0227744
0.0147133
-0.0272191
-0.0356303
0.0165886
0.000659767
-0.00179613
0.00282266
-0.0123496
0.00587725
-0.0196805
0.00928373
-0.0229078
0.0125292
-0.0235828
0.0150535
-0.0228485
0.0165179
-0.0224046
0.0178409
-0.0240974
0.0184482
-0.0278264
-0.0393132
0.0221311
0.00114302
0.00441817
0.0090014
0.014195
0.0193531
0.0240658
0.0283022
0.0315586
0.0366711
0.040024
0.0716058
-0.259359
0.209443
0.120051
-0.270179
0.221733
0.143115
-0.200726
0.177663
0.156228
-0.152503
0.139389
0.161802
-0.111438
0.105864
0.163841
-0.0815912
0.079552
0.163341
-0.0572549
0.0577548
0.161595
-0.0370727
0.038819
0.159425
-0.0211282
0.0232982
-0.00583454
0.00818071
0.0708845
-0.308346
0.117554
-0.316849
0.140941
-0.224113
0.154599
-0.166161
0.160935
-0.117774
0.163531
-0.084187
0.163491
-0.057215
0.162085
-0.0356671
0.160218
-0.0192607
-0.0037414
0.068351
-0.354632
0.112365
-0.360862
0.136606
-0.248355
0.150947
-0.180502
0.158504
-0.125331
0.161998
-0.0876804
0.162819
-0.0580363
0.162098
-0.0349459
0.160619
-0.0177813
-0.0019582
0.0649297
-0.397578
0.104871
-0.400803
0.130556
-0.27404
0.145681
-0.195626
0.154635
-0.134285
0.159272
-0.0923177
0.161257
-0.0600207
0.161433
-0.0351225
0.160713
-0.0170607
-0.00071385
0.060322
-0.436524
0.0960608
-0.436542
0.122687
-0.300667
0.138995
-0.211934
0.14948
-0.144771
0.155588
-0.0984252
0.158964
-0.063397
0.160383
-0.0365412
0.160588
-0.0172659
-3.71758e-05
0.056409
-0.472824
0.0879508
-0.468084
0.114867
-0.327583
0.13241
-0.229477
0.144364
-0.156724
0.152021
-0.106082
0.156895
-0.0682712
0.159802
-0.0394487
0.161249
-0.0187127
-0.000282918
0.0553227
-0.509197
0.0853395
-0.498101
0.112346
-0.35459
0.131001
-0.248131
0.144102
-0.169825
0.153046
-0.115026
0.159202
-0.0744267
0.163464
-0.0437112
0.166067
-0.0213157
-0.00150113
0.0460284
-0.538636
0.0828804
-0.534953
0.111402
-0.383112
0.131367
-0.268096
0.145846
-0.184304
0.156445
-0.125626
0.164156
-0.0821377
0.169894
-0.0494489
0.173741
-0.0251628
-0.00392467
0.0709538
-0.587459
0.100306
-0.564304
0.13128
-0.414087
0.151046
-0.287862
0.165515
-0.198773
0.176334
-0.136444
0.184307
-0.0901106
0.190154
-0.0552959
0.194743
-0.0297522
-0.00772295
0.0342178
-0.581653
0.0957107
-0.625797
0.132478
-0.450854
0.157871
-0.313254
0.176006
-0.216908
0.18969
-0.150129
0.200187
-0.100607
0.208486
-0.0635954
0.215114
-0.0363804
-0.0131583
0.469212
-0.641391
-0.409474
0.434958
-0.591542
0.424931
-0.440827
0.414577
-0.302901
0.406072
-0.208403
0.399878
-0.143934
0.395489
-0.0962189
0.393502
-0.0616083
0.392978
-0.0358563
-0.01387
0.49906
-0.61493
-0.525521
0.517129
-0.609612
0.496961
-0.420658
0.47981
-0.28575
0.466256
-0.194849
0.456437
-0.134115
0.449856
-0.0896384
0.446592
-0.0583444
0.444507
-0.0337713
-0.0130401
0.634645
-0.580168
-0.669408
0.593964
-0.56893
0.566388
-0.393083
0.541249
-0.260611
0.52175
-0.17535
0.507381
-0.119746
0.497486
-0.0797435
0.491099
-0.0519578
0.487765
-0.0304368
-0.0123664
0.703539
-0.525234
-0.758473
0.650592
-0.515983
0.607321
-0.349812
0.573765
-0.227055
0.549054
-0.150639
0.531354
-0.102046
0.51929
-0.0676795
0.511507
-0.0441748
0.507434
-0.0263631
-0.0112983
0.767311
-0.471838
-0.820706
0.689311
-0.437983
0.633346
-0.293847
0.593102
-0.186811
0.564461
-0.121998
0.544376
-0.0819617
0.530757
-0.0540601
0.521885
-0.0353025
0.517603
-0.0220818
-0.0104699
0.802518
-0.416262
-0.858094
0.710382
-0.345847
0.644152
-0.227617
0.598259
-0.140919
0.566435
-0.0901737
0.544552
-0.0600791
0.529916
-0.0394241
0.520423
-0.0258092
0.515809
-0.0174678
-0.00939335
0.803295
-0.340852
-0.878705
0.699161
-0.241713
0.626809
-0.155265
0.578478
-0.0925872
0.545799
-0.0574948
0.523652
-0.0379322
0.508956
-0.0247283
0.499357
-0.01621
0.493816
-0.0119265
-0.00726618
0.737063
-0.220131
-0.857784
0.627211
-0.131861
0.55605
-0.0841037
0.510745
-0.0472827
0.481105
-0.0278545
0.461276
-0.0181035
0.448179
-0.0116311
0.439543
-0.00757398
0.433889
-0.00627269
-0.00451679
0.550185
-0.0722079
-0.698108
0.45665
-0.038327
0.39885
-0.0263037
0.364896
-0.0133285
0.344069
-0.00702695
0.330499
-0.00453349
0.321768
-0.00290083
0.316108
-0.00191337
0.311588
-0.00175269
-0.00155278
0.219561
-0.291769
0.181234
0.15493
0.141602
0.134575
0.130041
0.12714
0.125227
0.123474
0.528834
0.0220299
-0.531482
0.520927
0.0357484
0.508005
0.0478411
0.491295
0.0597274
0.471343
0.0723552
0.453137
0.0837866
0.438616
0.0932793
0.42965
0.103594
0.414295
0.123223
0.114328
0.675447
0.0217915
-0.675209
0.67105
0.0401453
0.661458
0.0574338
0.647154
0.0740309
0.631835
0.087674
0.61451
0.101112
0.590133
0.117656
0.560972
0.132756
0.544168
0.140027
0.132975
0.730165
0.0193432
-0.727716
0.730886
0.0394239
0.72873
0.0595899
0.724911
0.0778494
0.72001
0.0925752
0.712561
0.108561
0.701327
0.128889
0.693499
0.140584
0.681802
0.151725
0.145369
0.734867
0.015282
-0.730805
0.738003
0.0362875
0.740959
0.0566336
0.745114
0.0736944
0.747554
0.0901357
0.748486
0.107629
0.751796
0.12558
0.754179
0.138202
0.757856
0.148048
0.144751
0.720178
0.0112562
-0.716153
0.725541
0.0309245
0.732732
0.0494428
0.740976
0.0654508
0.749703
0.0814089
0.759318
0.0980138
0.772114
0.112784
0.786267
0.124048
0.803666
0.130649
0.127711
0.705816
0.00776013
-0.70232
0.71216
0.0245805
0.721388
0.0402146
0.732486
0.0543524
0.745505
0.0683898
0.761924
0.0815951
0.781658
0.09305
0.804778
0.100927
0.830483
0.104945
0.100099
0.688599
0.00476714
-0.685606
0.695597
0.0175825
0.706192
0.0296198
0.719796
0.0407481
0.736811
0.051375
0.757708
0.0606978
0.782435
0.068323
0.81089
0.0724729
0.842926
0.0729087
0.0643206
0.644226
0.00212759
-0.641587
0.651785
0.010024
0.663945
0.0174593
0.680257
0.024436
0.70081
0.0308224
0.725235
0.0362723
0.753478
0.0400803
0.785402
0.040549
0.821641
0.0366694
0.0281778
0.509021
0.000305828
-0.5072
0.515968
0.0030773
0.527894
0.0055332
0.544383
0.0079475
0.565167
0.0100384
0.589443
0.0119962
0.616433
0.0130903
0.644869
0.0121133
0.673631
0.00790686
0.00370084
0.216365
-0.216059
0.219442
0.224975
0.232923
0.242961
0.254957
0.268048
0.280161
0.288068
0.081344
0.0807686
-0.0583988
-0.103714
0.0623559
0.0628784
-0.0438903
0.0490323
0.0502779
-0.0369543
0.0382405
0.04553
-0.0347382
0.0291579
0.0445395
-0.035457
0.0210515
0.0452293
-0.0371229
0.0136002
0.0448965
-0.0374452
0.0071104
0.0413833
-0.0348935
0.00226388
0.032532
-0.0276855
0.0161832
-0.0139193
0.0923848
0.0971986
-0.108815
0.0751511
0.0801121
0.060158
0.065271
0.0473137
0.0583743
0.0361213
0.0557318
0.0260809
0.0552697
0.0169208
0.0540566
0.00891593
0.0493882
0.0028867
0.0385612
0.0190699
0.0836501
0.111823
-0.0982748
0.0694871
0.094275
0.0567413
0.0780169
0.0454647
0.0696509
0.0351616
0.0660349
0.0255587
0.0648727
0.0166125
0.0630028
0.00868678
0.0573139
0.00272986
0.0445181
0.0217998
0.0689396
0.124328
-0.0814438
0.0577424
0.105472
0.0477691
0.0879902
0.0387524
0.0786675
0.030206
0.0745813
0.0220199
0.0730588
0.0142691
0.0707535
0.00734618
0.0642369
0.00220827
0.049656
0.024008
0.0526732
0.134118
-0.0624635
0.044449
0.113696
0.0371565
0.0952827
0.0303928
0.0854313
0.0237351
0.081239
0.0172315
0.0795625
0.0110145
0.0769705
0.005446
0.0698054
0.0014634
0.0536387
0.0254714
0.0367767
0.141
-0.0436593
0.0313096
0.119163
0.0263478
0.100244
0.0216104
0.0901687
0.0167962
0.0860532
0.0120861
0.0842726
0.00757707
0.0814795
0.00353022
0.0738522
0.000772022
0.0563968
0.0262434
0.0229114
0.145607
-0.0275175
0.0196132
0.122462
0.0165605
0.103297
0.0135604
0.0931688
0.0103566
0.0892569
0.00726674
0.0873625
0.00431928
0.0844269
0.00169696
0.0764745
0.000109869
0.0579839
0.0263533
0.0109224
0.148334
-0.0136499
0.0093364
0.124048
0.00781288
0.104821
0.00626391
0.0947178
0.00446714
0.0910537
0.00292447
0.0889052
0.00142117
0.0859302
0.000118224
0.0777775
-0.000408212
0.0585104
0.0259451
0.000240713
0.148932
-0.000838316
0.000382541
0.123906
0.000312103
0.104891
5.40729e-05
0.0949758
-0.000456241
0.091564
-0.000710964
0.0891599
-0.00101623
0.0862355
-0.00117621
0.0779375
-0.000858281
0.0581924
0.0250868
-0.00899574
0.0101441
-0.00748323
-0.00626115
-0.00541013
-0.00476685
-0.00411924
-0.00330673
-0.00235513
-0.00123059
0.0268213
0.0183424
-0.0313506
-0.0138132
0.022873
0.0155105
-0.0115623
0.0193339
0.0136191
-0.0100799
0.0160118
0.0126297
-0.00930756
0.0127735
0.0122524
-0.00901406
0.00956561
0.0121565
-0.00894859
0.00644458
0.0119256
-0.00880461
0.00358123
0.0110853
-0.00822192
0.00125745
0.00917853
-0.00685475
0.00530168
-0.00404424
0.0270999
0.0230292
-0.0317867
0.0230481
0.0195624
0.0194465
0.0172207
0.0160744
0.0160018
0.0127967
0.0155301
0.0095642
0.0153889
0.00643119
0.0150586
0.0035596
0.0139569
0.001237
0.0115011
0.00653868
0.0271089
0.0278279
-0.0319076
0.0229888
0.0236825
0.0193571
0.0208523
0.01596
0.0193989
0.0126626
0.0188275
0.0094254
0.0186261
0.0063061
0.0181779
0.0034609
0.0168021
0.00118636
0.0137757
0.00772504
0.0265148
0.0326367
-0.0313235
0.0224298
0.0277675
0.0188475
0.0244346
0.0154932
0.0227532
0.0122487
0.022072
0.00908707
0.0217878
0.00605829
0.0212067
0.00330646
0.0195539
0.00112831
0.0159538
0.00885335
0.0251561
0.0372545
-0.0297739
0.0212858
0.0316378
0.0178833
0.027837
0.0146703
0.0259661
0.0115596
0.0251827
0.00854478
0.0248026
0.00566802
0.0240835
0.00305778
0.0221641
0.00102412
0.0179875
0.00987747
0.0227285
0.041414
-0.026888
0.019342
0.0350243
0.0163032
0.0308759
0.013364
0.0289053
0.010532
0.0280147
0.00779939
0.0275353
0.0051706
0.0267123
0.00276562
0.0245691
0.000911804
0.0198413
0.0107893
0.0203307
0.0461591
-0.0250758
0.0171639
0.0381911
0.0145197
0.03352
0.0119459
0.0314792
0.00951793
0.0304426
0.00710484
0.0299484
0.00469733
0.0291198
0.00244924
0.0268172
0.000753751
0.0215368
0.011543
0.0163262
0.0484846
-0.0186517
0.0140558
0.0404615
0.0123926
0.0351832
0.0106676
0.0332042
0.00891465
0.0321955
0.00680335
0.0320596
0.0045088
0.0314143
0.00231442
0.0290116
0.000664811
0.0231864
0.0122078
0.0155149
0.0536273
-0.0206577
0.0141206
0.0418558
0.0127896
0.0365143
0.011939
0.0340547
0.0103122
0.0338224
0.00789739
0.0344744
0.00520124
0.0341105
0.00264019
0.0315726
0.000709361
0.0251172
0.0129172
0.017667
-0.0224384
0.0156325
0.0151924
0.014509
0.0128744
0.0102259
0.00689125
0.00357037
0.00100212
0.181506
0.381438
-0.364954
0.175665
0.205248
-0.199406
0.173791
0.132814
-0.13094
0.172102
0.123367
-0.121678
0.169401
0.134023
-0.131322
0.163843
0.146624
-0.141066
0.151234
0.17875
-0.16614
0.129567
0.216604
-0.194938
0.0823216
0.288644
-0.241398
0.29335
-0.242379
0.179946
0.399481
0.173531
0.211663
0.171534
0.134811
0.169458
0.125442
0.166956
0.136526
0.160932
0.152648
0.148382
0.1913
0.126548
0.238438
0.0809835
0.334209
0.342547
0.178001
0.41947
0.170682
0.218982
0.168304
0.137189
0.165567
0.128179
0.162936
0.139157
0.15618
0.159404
0.143574
0.203906
0.121166
0.260845
0.0789937
0.376381
0.389633
0.175871
0.441589
0.167154
0.227699
0.164148
0.140195
0.160555
0.131772
0.157561
0.142152
0.149992
0.166972
0.137126
0.216773
0.113982
0.283989
0.0766048
0.413759
0.434914
0.173813
0.465766
0.163108
0.238404
0.159279
0.144023
0.154788
0.136263
0.151099
0.14584
0.142471
0.175601
0.128972
0.230271
0.105206
0.307756
0.0727336
0.446231
0.477874
0.172123
0.491633
0.159202
0.251325
0.15478
0.148446
0.14943
0.141613
0.144426
0.150844
0.134413
0.185614
0.119783
0.244902
0.095605
0.331933
0.0667026
0.475133
0.517688
0.172347
0.517275
0.1587
0.264973
0.15432
0.152825
0.148014
0.147919
0.141767
0.157092
0.131039
0.196342
0.115785
0.260156
0.0921546
0.355563
0.0685448
0.498743
0.561157
0.176037
0.539227
0.161366
0.279644
0.157065
0.157126
0.149781
0.155203
0.141429
0.165444
0.128454
0.209317
0.110402
0.278207
0.0850303
0.380935
0.0471299
0.536643
0.589636
0.18594
0.551277
0.174944
0.290641
0.173443
0.158626
0.166231
0.162416
0.157532
0.174142
0.144385
0.222464
0.127223
0.295369
0.100392
0.407766
0.0822007
0.554835
0.651179
0.200427
0.54884
0.190757
0.300311
0.188157
0.161226
0.178982
0.17159
0.16785
0.185275
0.151213
0.239101
0.127693
0.31889
0.0959832
0.439476
0.033262
0.617556
0.662002
0.359937
0.490914
0.363042
0.297205
0.367825
0.156444
0.376888
0.162527
0.38331
0.178853
0.391895
0.230516
0.402015
0.308769
0.407097
0.434394
0.440093
0.584559
0.651323
0.450773
0.390296
0.402628
0.409474
0.278027
0.417964
0.147954
0.431664
0.148827
0.443276
0.16724
0.458366
0.215426
0.475474
0.291661
0.505362
0.404506
0.50509
0.584831
0.62168
0.534733
0.406187
0.298451
0.444771
0.239443
0.462511
0.130214
0.480583
0.130755
0.4977
0.150124
0.518974
0.194152
0.545785
0.264851
0.578604
0.371687
0.618604
0.544832
0.583928
0.656355
0.409036
0.191425
0.459608
0.188872
0.48434
0.105481
0.505366
0.109729
0.526528
0.128962
0.553039
0.16764
0.587084
0.230806
0.633409
0.325362
0.684556
0.493686
0.538105
0.730379
0.405865
0.0875704
0.464868
0.129869
0.495421
0.0749276
0.518332
0.086819
0.542329
0.104964
0.572495
0.137475
0.612296
0.191005
0.665766
0.271892
0.741003
0.418448
0.481982
0.797126
0.3995
-0.00991957
0.461736
0.0676331
0.49545
0.0412136
0.519157
0.0631123
0.545075
0.079046
0.578128
0.104421
0.622782
0.14635
0.682325
0.212349
0.775012
0.325762
0.411595
0.845399
0.386717
-0.0946259
0.444192
0.0101575
0.476507
0.00889863
0.499432
0.040187
0.5258
0.0526782
0.560161
0.0700606
0.607528
0.0989835
0.671686
0.148191
0.774328
0.22312
0.317835
0.868088
0.354635
-0.147251
0.395264
-0.0304715
0.418545
-0.0143827
0.438168
0.0205642
0.462801
0.0280454
0.495509
0.0373528
0.541416
0.0530761
0.605668
0.0839387
0.707631
0.121157
0.197025
0.828442
0.285612
-0.130853
0.292517
-0.0373767
0.296929
-0.0187948
0.31102
0.00647374
0.330132
0.00893335
0.355752
0.0117329
0.392222
0.0166061
0.447473
0.0286877
0.530079
0.0385512
0.0670504
0.660053
0.171158
0.133781
0.114986
0.12146
0.130393
0.142126
0.158732
0.18742
0.225971
0.293021
0.462543
-0.115484
0.466776
-0.113048
0.472094
-0.103592
0.480731
-0.0900811
0.49276
-0.0744922
0.505802
-0.0567009
0.516706
-0.0384217
0.524815
-0.0217587
0.529955
-0.00597848
0.00861651
0.550861
-0.131613
0.560902
-0.123089
0.573847
-0.116538
0.592225
-0.108459
0.612451
-0.0947178
0.631973
-0.0762233
0.649087
-0.0555353
0.661789
-0.0344611
0.67046
-0.0146497
0.00386787
0.656967
-0.132224
0.662202
-0.128324
0.670354
-0.124689
0.678161
-0.116267
0.686472
-0.103029
0.695799
-0.0855496
0.705953
-0.0656895
0.715605
-0.044113
0.723178
-0.0222226
-0.000670586
0.726619
-0.128465
0.720367
-0.122071
0.714196
-0.118519
0.711363
-0.113433
0.710804
-0.10247
0.712266
-0.087011
0.715499
-0.0689225
0.720256
-0.0488705
0.725576
-0.0275424
-0.00589999
0.782013
-0.113352
0.764905
-0.104963
0.747171
-0.100786
0.732877
-0.0991395
0.723203
-0.0927955
0.716848
-0.0806554
0.713257
-0.0653315
0.712208
-0.0478217
0.713329
-0.0286634
-0.0087234
0.820162
-0.0881149
0.794107
-0.0789084
0.769051
-0.0757295
0.747207
-0.0772954
0.730296
-0.0758846
0.71802
-0.0683794
0.709343
-0.0566549
0.703909
-0.0423876
0.701632
-0.0263866
-0.00941112
0.835493
-0.0555199
0.804605
-0.0480212
0.775943
-0.0470672
0.750652
-0.0520045
0.729527
-0.0547597
0.712926
-0.0517783
0.700292
-0.0440211
0.691476
-0.0335717
0.686547
-0.0214568
-0.00847053
0.79765
-0.0247283
0.770575
-0.0209461
0.745773
-0.0222655
0.721651
-0.0278828
0.6991
-0.032208
0.679376
-0.0320547
0.663291
-0.0279358
0.651353
-0.0216343
0.644009
-0.0141127
-0.00604792
0.641435
-0.00611012
0.625789
-0.00530025
0.610151
-0.00662673
0.591611
-0.00934282
0.570979
-0.011577
0.550719
-0.0117945
0.533159
-0.0103756
0.519564
-0.00803955
0.51079
-0.00533805
-0.00245773
0.286911
0.281611
0.274984
0.265641
0.254064
0.24227
0.231894
0.223855
0.218517
0.00102105
0.0278745
-0.0288956
0.00222352
0.0692923
-0.0704948
0.0033623
0.0948257
-0.0959645
0.00417427
0.10645
-0.107262
0.00469785
0.110008
-0.110531
0.00514833
0.11039
-0.11084
0.00545068
0.106955
-0.107258
0.00555659
0.100128
-0.100234
0.00546463
0.0881093
-0.0880174
0.0723411
0.00494497
-0.0718214
0.00184943
0.0260251
0.00478393
0.0663578
0.00813509
0.0914746
0.0114047
0.103181
0.0142259
0.107187
0.0172875
0.107328
0.0199049
0.104338
0.0216735
0.098359
0.0221275
0.0876553
0.0741268
0.0203418
0.00227556
0.0237495
0.00645641
0.0621769
0.0115483
0.0863827
0.0168372
0.0978917
0.0220166
0.102007
0.027174
0.102171
0.0318268
0.0996852
0.0353685
0.0948172
0.0368585
0.0861654
0.0757735
0.0352117
0.00258769
0.0211618
0.0079749
0.0567897
0.0149016
0.079456
0.0224135
0.0903798
0.0301279
0.0942928
0.0378236
0.094475
0.0449874
0.0925215
0.0509479
0.0888566
0.0543699
0.0827434
0.0759565
0.0541869
0.00261989
0.018542
0.00873594
0.0506737
0.0169336
0.0712583
0.0260733
0.0812401
0.035639
0.0847271
0.0453321
0.0847818
0.0546287
0.0832248
0.0628637
0.0806217
0.0685742
0.0770329
0.0734493
0.0710814
0.00258299
0.015959
0.00914364
0.044113
0.0181942
0.0622077
0.0284664
0.0709679
0.039313
0.0738805
0.0503373
0.0737576
0.0610319
0.0725302
0.070838
0.0708155
0.0784222
0.0694488
0.0682988
0.0835727
0.00239929
0.0135597
0.00894784
0.0375645
0.0181772
0.0529784
0.0287556
0.0603895
0.0399455
0.0626906
0.051361
0.0623421
0.0625878
0.0613033
0.0731576
0.0602458
0.0819499
0.0606564
0.0614677
0.088781
0.00220901
0.0113507
0.00852115
0.0312523
0.0175335
0.0439661
0.027915
0.0500079
0.0388839
0.0517217
0.0500066
0.0512194
0.0609615
0.0503484
0.0714722
0.0497351
0.0807115
0.0514172
0.0536283
0.0885509
0.00197218
0.00937848
0.00777381
0.0254507
0.0161474
0.0355925
0.0258575
0.0402978
0.0361684
0.0414109
0.0467414
0.0406464
0.0574004
0.0396894
0.0679674
0.039168
0.07796
0.0414245
0.0444855
0.0871028
0.00173055
0.00764793
0.00682638
0.0203549
0.0142339
0.028185
0.0229033
0.0316284
0.0322067
0.0321075
0.0419004
0.0309528
0.0520595
0.0295303
0.062476
0.0287516
0.0738178
0.0300828
0.0331615
0.0851417
0.00124183
0.0064061
0.00513354
0.0164632
0.0107914
0.0225271
0.0172559
0.0251639
0.023862
0.0255014
0.0302021
0.0246126
0.0361887
0.0235437
0.0415623
0.0233779
0.0470962
0.0245489
0.0279459
0.0523119
0.000988809
0.00541729
0.00407687
0.0133751
0.00853795
0.018066
0.0135899
0.020112
0.018688
0.0204033
0.0234647
0.0198359
0.0276751
0.0193334
0.031444
0.019609
0.0350275
0.0209653
0.0234697
0.0395037
0.000842459
0.00457484
0.00339109
0.0108265
0.00703182
0.0144253
0.0111307
0.0160131
0.0152569
0.0162771
0.0191463
0.0159465
0.0227293
0.0157503
0.0262168
0.0161215
0.0300005
0.0171817
0.0191043
0.0343658
0.000739034
0.0038358
0.00291697
0.00864855
0.00599561
0.0113466
0.00946585
0.0125428
0.0129962
0.0127467
0.0164183
0.0125245
0.0197644
0.0124043
0.0232131
0.0126727
0.0270144
0.0133804
0.0145568
0.0315619
0.00066632
0.00316948
0.00257858
0.00673629
0.00525514
0.00867007
0.00828763
0.00951033
0.0114132
0.0096211
0.0145171
0.00942066
0.0176502
0.00927117
0.0209645
0.00935843
0.0246692
0.00967564
0.0101487
0.0290773
0.000614163
0.00255532
0.00231405
0.0050364
0.00467395
0.00631018
0.00736404
0.00682024
0.0101565
0.00682864
0.0129514
0.0066258
0.0157927
0.00642982
0.018814
0.00633717
0.0221972
0.00629243
0.00616841
0.0261775
0.000570252
0.00198507
0.00208451
0.00352214
0.00419519
0.0041995
0.0066285
0.00438693
0.00916559
0.00429155
0.0117125
0.00407894
0.0143071
0.00383514
0.0170753
0.00356898
0.0201913
0.00317643
0.00250094
0.0238588
0.0005436
0.00144147
0.00187903
0.00218671
0.00380978
0.00226875
0.00607919
0.00211751
0.00845244
0.00191831
0.0108384
0.001693
0.0132769
0.00139659
0.0158928
0.000953137
0.0188601
0.000209109
-0.00101851
0.0223795
0.000491901
0.000949567
0.00166001
0.0010186
0.00349944
0.000429322
0.00569281
-7.58534e-05
0.00798832
-0.000377201
0.0103042
-0.000622838
0.0126836
-0.000982844
0.0152509
-0.00161417
0.0181814
-0.00272136
-0.00451467
0.0216775
0.000308448
0.00140941
0.00327869
0.0054624
0.0077391
0.0100447
0.0124236
0.0150043
0.0179677
0.0215053
0.0633058
0.144908
-0.155902
0.0758123
0.0772526
-0.0897591
0.0908616
0.00183879
-0.0168882
0.102575
-0.0287133
0.0170001
0.113383
-0.0370685
0.02626
0.122958
-0.0345791
0.0250039
0.131665
-0.0288978
0.020191
0.138775
-0.0226387
0.0155286
0.144694
-0.0134589
0.00754067
-0.00671967
0.00221972
0.0706528
0.113759
0.0819834
0.065922
0.096961
-0.0131388
0.107716
-0.0394687
0.117709
-0.0470615
0.12624
-0.0431094
0.134012
-0.0366703
0.140205
-0.0288313
0.145285
-0.0185386
-0.0102715
0.0641009
0.0840237
0.0812217
0.0488012
0.0987354
-0.0306525
0.110724
-0.0514575
0.120821
-0.0571587
0.128919
-0.0512073
0.135998
-0.0437496
0.141501
-0.0343337
0.145857
-0.0228945
-0.0129411
0.0651158
0.0504698
0.087065
0.0268519
0.106291
-0.0498785
0.118288
-0.0634546
0.127634
-0.0665045
0.134424
-0.0579974
0.140093
-0.0494187
0.144074
-0.0383146
0.147228
-0.0260479
-0.0145742
0.0638074
0.0157397
0.0925589
-0.00189954
0.11317
-0.07049
0.125514
-0.0757979
0.134216
-0.075207
0.140025
-0.0638059
0.144365
-0.0537589
0.147059
-0.0410092
0.149026
-0.0280149
-0.015221
0.0638936
-0.0219763
0.100159
-0.0381652
0.121444
-0.0917746
0.133843
-0.088197
0.141505
-0.0828689
0.14624
-0.0685417
0.149062
-0.0565806
0.150443
-0.0423904
0.151115
-0.0286865
-0.0150024
0.0658354
-0.0639529
0.10752
-0.0798497
0.128596
-0.112851
0.141341
-0.100942
0.148062
-0.089589
0.151812
-0.0722919
0.153359
-0.0581275
0.153593
-0.0426245
0.153275
-0.0283686
-0.0139891
0.0689661
-0.11054
0.114198
-0.125081
0.134973
-0.133627
0.147788
-0.113757
0.153649
-0.0954499
0.1566
-0.0752427
0.157093
-0.0586202
0.156412
-0.0419435
0.155208
-0.0271649
-0.0124393
0.0706379
-0.1595
0.118424
-0.172867
0.139912
-0.155115
0.15276
-0.126605
0.158003
-0.100692
0.160341
-0.0775814
0.160073
-0.058352
0.158725
-0.0405956
0.156924
-0.0253634
-0.0103881
0.071448
0.120314
0.142863
0.155646
0.160819
0.162789
0.162192
0.160415
0.15835
0.0374291
0.0207694
-0.0581985
0.0298235
0.00760559
0.0280361
0.00178736
0.0298851
-0.00184897
0.0319642
-0.00207906
0.0337967
-0.00183249
0.0350671
-0.00127047
0.0361725
-0.00110538
0.0358134
0.000359174
0.00076226
0.10058
0.0659728
-0.145783
0.0796271
0.0285585
0.0745971
0.00681738
0.0769772
-0.0042291
0.0810468
-0.00614862
0.085088
-0.00587372
0.0882934
-0.00447585
0.0908836
-0.00369562
0.0915574
-0.000314625
0.00106063
0.13435
0.110668
-0.179045
0.109092
0.0538164
0.104226
0.0116835
0.107238
-0.00724077
0.112905
-0.0118161
0.118538
-0.0115065
0.12307
-0.00900782
0.126375
-0.00700016
0.127823
-0.00176246
0.000632121
0.14194
0.138519
-0.169791
0.121176
0.0745806
0.116533
0.0163269
0.120631
-0.0113387
0.127246
-0.0184313
0.133581
-0.0178415
0.138806
-0.0142326
0.142771
-0.0109657
0.145118
-0.00410954
-0.000493545
0.132523
-0.149906
0.117344
0.116783
0.122444
0.130273
0.137436
0.143394
0.147957
0.151388
0.00423741
-6.0381e-05
-0.00417703
0.00537645
-0.00113904
0.00732285
-0.0019464
0.0107284
-0.00340556
0.0161428
-0.00541439
0.023464
-0.00732124
0.0325589
-0.00909486
0.0426849
-0.010126
0.0513463
-0.00866133
-0.00685223
0.0117476
-0.000612841
-0.0111952
0.0148541
-0.00424556
0.0204602
-0.00755248
0.0300564
-0.0130017
0.0442171
-0.0195751
0.0625729
-0.0256771
0.0832216
-0.0297435
0.104772
-0.0316765
0.126103
-0.029992
-0.0265329
0.0183505
-0.00168593
-0.0172774
0.0228866
-0.00878173
0.0309162
-0.0155821
0.0438643
-0.0259498
0.0616479
-0.0373586
0.0837523
-0.0477815
0.108206
-0.0541976
0.131809
-0.0552788
0.155538
-0.0537212
-0.0500404
0.0244297
-0.003194
-0.0229217
0.0299881
-0.0143401
0.0395457
-0.0251396
0.0538128
-0.0402169
0.0715745
-0.0551203
0.0913387
-0.0675457
0.11137
-0.0742292
0.130977
-0.0748857
0.149734
-0.0724776
-0.0700978
0.029988
-0.028237
0.0359896
0.0460618
0.0600317
0.0759928
0.0920199
0.106572
0.120237
0.134862
0.0455414
-0.0285818
0.0354451
-0.0524047
0.0397073
-0.0246742
0.0305082
0.0346467
-0.0228494
0.0279101
0.0294875
-0.0223744
0.0275335
0.023973
-0.0230176
0.0285321
0.0180587
-0.0238486
0.0297628
0.0120036
-0.0238208
0.029876
0.00635145
-0.0218073
0.0274595
0.00197642
-0.0166563
0.0210313
-0.0073214
0.00929782
0.036338
-0.0231981
-0.0417218
0.0322853
-0.0206215
0.0283939
-0.018958
0.0243312
-0.0183116
0.0198147
-0.0185012
0.0149361
-0.01897
0.0099497
-0.0188344
0.00530194
-0.0171596
0.00167918
-0.0130335
-0.00564223
0.0325468
-0.018303
-0.0374418
0.028345
-0.0164197
0.0245723
-0.0151853
0.0208476
-0.0145869
0.0169098
-0.0145634
0.0127272
-0.0147874
0.00848115
-0.0145883
0.00452972
-0.0132082
0.00144066
-0.00994443
-0.00420157
0.0304903
-0.0132796
-0.0355137
0.0262561
-0.0121856
0.022454
-0.0113832
0.0188147
-0.0109475
0.0151431
-0.0108918
0.0113572
-0.0110015
0.00756849
-0.0107996
0.00406498
-0.00970465
0.00131195
-0.0071914
-0.00288962
0.0289869
-0.00850779
-0.0337587
0.0248555
-0.00805413
0.0211233
-0.00765108
0.0175836
-0.00740782
0.0140732
-0.00738144
0.0105168
-0.00744508
0.00699949
-0.0072823
0.00376651
-0.00647167
0.00122074
-0.00464562
-0.00166888
0.0277551
-0.00398801
-0.0322748
0.0237634
-0.00406251
0.0201452
-0.0040328
0.0167203
-0.00398293
0.0133466
-0.00400776
0.00995651
-0.004055
0.00662195
-0.00394773
0.00357234
-0.00342206
0.00116244
-0.00223573
-0.000506437
0.0271268
0.000517236
-0.0316321
0.0231802
-0.000115877
0.0196113
-0.000463954
0.0162431
-0.000614703
0.0129307
-0.000695367
0.00960946
-0.000733755
0.00634261
-0.00068088
0.00335223
-0.000431686
0.00103329
8.32087e-05
0.000526855
0.0267286
0.00496854
-0.0311799
0.0228228
0.00378989
0.0192916
0.00306725
0.0159638
0.00271313
0.0127001
0.00256833
0.0094329
0.00253344
0.00621512
0.0025369
0.0032766
0.00250683
0.00104492
0.00231489
0.00157178
0.0265761
0.00938069