/*--------------------------------*- C++ -*----------------------------------*\
| =========                 |                                                 |
| \\      /  F ield         | OpenFOAM: The Open Source CFD Toolbox           |
|  \\    /   O peration     | Version:  2406                                  |
|   \\  /    A nd           | Website:  www.openfoam.com                      |
|    \\/     M anipulation  |                                                 |
\*---------------------------------------------------------------------------*/
FoamFile
{
    version     2.0;
    format      ascii;
    arch        "LSB;label=32;scalar=64";
    class       volVectorField;
    location    "0.05";
    object      U;
}
// * * * * * * * * * * * * * * * * * * * * * * * * * * * * * * * * * * * * * //

dimensions      [0 1 -1 0 0 0 0];

internalField   nonuniform List<vector> 
1800
(
(0.0391193 -0.0282006 0)
(0.180615 -0.133983 8.72105e-20)
(0.294807 -0.186738 3.44269e-20)
(0.364993 -0.192823 2.03984e-19)
(0.405985 -0.167556 2.15274e-19)
(0.430998 -0.12583 6.07156e-20)
(0.469488 -0.0818809 4.17935e-20)
(0.50126 -0.057244 -1.26378e-20)
(0.656239 -0.052792 0)
(0.73332 -0.0961485 1.28771e-19)
(0.0659915 -0.0427999 -5.05065e-20)
(0.250814 -0.162714 -2.34566e-19)
(0.394019 -0.22035 1.92495e-19)
(0.481025 -0.229555 8.79177e-20)
(0.532078 -0.20839 4.88949e-20)
(0.566963 -0.174872 -1.59354e-19)
(0.616765 -0.143514 8.10655e-20)
(0.671867 -0.138451 2.40537e-19)
(0.852906 -0.153346 -2.02482e-20)
(0.953695 -0.22858 -1.91617e-19)
(0.0960138 -0.0552064 5.34567e-20)
(0.326071 -0.184597 -2.94465e-19)
(0.493901 -0.245873 -2.59879e-19)
(0.590384 -0.257716 4.689e-20)
(0.642826 -0.24015 -7.70124e-20)
(0.677056 -0.213352 -6.12463e-20)
(0.727392 -0.190587 -1.8309e-19)
(0.797752 -0.19745 -1.84304e-19)
(0.978432 -0.22638 2.03742e-19)
(1.14496 -0.314691 2.12205e-19)
(0.127323 -0.063087 3.92736e-20)
(0.400901 -0.19428 2.33223e-19)
(0.590146 -0.255898 -1.35952e-19)
(0.692443 -0.26899 1.05102e-21)
(0.74328 -0.254627 2.21639e-19)
(0.774728 -0.232511 8.86668e-21)
(0.822512 -0.216873 8.54435e-20)
(0.904505 -0.231331 -2.76439e-20)
(1.09331 -0.271671 -1.15067e-19)
(1.30592 -0.368712 2.67091e-19)
(0.158478 -0.0659225 2.2648e-20)
(0.47141 -0.190592 1.94483e-19)
(0.678469 -0.249061 -8.5016e-21)
(0.783931 -0.261991 -7.28494e-20)
(0.831844 -0.250171 -2.36478e-20)
(0.859954 -0.232386 4.59566e-20)
(0.906377 -0.219908 -3.19789e-20)
(0.998065 -0.236086 -1.27993e-19)
(1.19646 -0.281438 -1.77751e-19)
(1.44838 -0.372551 -5.77757e-20)
(0.188764 -0.0633959 2.41492e-22)
(0.535358 -0.17359 3.33111e-20)
(0.757409 -0.224856 2.27422e-19)
(0.864677 -0.235752 -1.00508e-19)
(0.909953 -0.225787 -7.24359e-20)
(0.935777 -0.211342 -2.99283e-20)
(0.980313 -0.202675 -3.20071e-20)
(1.07955 -0.219262 -3.38115e-21)
(1.28672 -0.264679 -4.02985e-20)
(1.56541 -0.347031 -2.52293e-19)
(0.217534 -0.0560662 -7.309e-20)
(0.591434 -0.145722 -2.11896e-19)
(0.825127 -0.186925 6.06029e-20)
(0.932933 -0.194949 1.39871e-19)
(0.975898 -0.186378 -5.17593e-20)
(1.00042 -0.174589 8.04044e-20)
(1.04402 -0.166586 1.64656e-19)
(1.14957 -0.179272 -7.11798e-20)
(1.36434 -0.218153 -1.70438e-20)
(1.66099 -0.281501 7.52512e-20)
(0.244417 -0.0439838 2.89748e-20)
(0.638894 -0.107957 -5.94733e-20)
(0.881338 -0.136284 -1.54119e-19)
(0.989282 -0.140205 2.40437e-20)
(1.03107 -0.132341 1.52873e-20)
(1.05584 -0.122553 1.22647e-19)
(1.09838 -0.115628 -6.15434e-20)
(1.20872 -0.123934 -1.56633e-19)
(1.43024 -0.152789 8.48139e-20)
(1.73877 -0.196149 -5.70703e-20)
(0.268669 -0.0279744 4.08493e-20)
(0.676735 -0.0636629 4.58949e-20)
(0.924374 -0.0778899 -1.24862e-19)
(1.0317 -0.0777635 2.11703e-21)
(1.07281 -0.0709025 1.515e-20)
(1.0992 -0.0631424 -2.48397e-20)
(1.1407 -0.0562348 1.20055e-19)
(1.25434 -0.0578343 7.52527e-20)
(1.48107 -0.072909 -5.6492e-20)
(1.79724 -0.0930105 2.50052e-20)
(0.289536 -0.0079073 1.10016e-20)
(0.704324 -0.0131915 7.06106e-20)
(0.95386 -0.0120057 -9.69243e-20)
(1.06038 -0.00718547 -2.84481e-20)
(1.10083 -0.00153334 5.75197e-21)
(1.1301 0.00380421 9.80481e-21)
(1.16973 0.00912361 -6.90336e-20)
(1.28533 0.0123817 1.06019e-20)
(1.51668 0.0114488 1.78043e-20)
(1.8357 0.0118889 -2.17223e-20)
(0.000146034 0.00639931 -2.67596e-20)
(0.0027029 -0.00770292 3.74668e-20)
(0.0139813 -0.0290815 5.63681e-20)
(0.0257101 -0.0407402 -3.67593e-20)
(0.0372267 -0.0458547 -1.98824e-20)
(0.0482457 -0.0490969 5.17941e-20)
(0.0586341 -0.0546175 4.46602e-20)
(0.0694782 -0.0659289 -9.59466e-20)
(0.0813714 -0.0865849 4.62143e-22)
(0.0962431 -0.119236 4.39856e-20)
(-0.000519036 0.0049139 1.05643e-21)
(0.00510872 -0.0232202 9.41218e-22)
(0.0188993 -0.0512906 1.23492e-19)
(0.0318324 -0.065541 -9.10996e-20)
(0.0438577 -0.0711562 -2.2307e-19)
(0.0553174 -0.0741363 -4.81678e-20)
(0.0662999 -0.0799896 1.37929e-19)
(0.0783411 -0.0932338 0)
(0.0926695 -0.118359 -1.22174e-20)
(0.111927 -0.157102 5.14221e-20)
(-0.00085385 0.0032059 1.47421e-22)
(0.0100624 -0.0379482 -1.5239e-19)
(0.0274683 -0.0726976 -1.37002e-20)
(0.0421926 -0.0895419 9.47356e-20)
(0.0549323 -0.0956963 -1.28145e-19)
(0.0668247 -0.0984861 -2.27199e-20)
(0.0785003 -0.10457 -8.57924e-20)
(0.0920841 -0.119524 -4.5429e-20)
(0.109302 -0.149041 -1.76188e-19)
(0.134742 -0.194287 -2.51547e-19)
(-0.000601888 0.00150383 4.00942e-20)
(0.0174278 -0.0518131 1.45188e-19)
(0.0394978 -0.0928285 -2.43277e-20)
(0.056339 -0.112038 -2.68648e-20)
(0.0697768 -0.118765 1.00761e-20)
(0.0821012 -0.12146 8.3173e-20)
(0.0944412 -0.127765 -2.391e-20)
(0.109741 -0.144213 0)
(0.130644 -0.177966 2.00705e-19)
(0.163059 -0.229925 1.12892e-19)
(0.000275992 -0.000334773 -6.39273e-20)
(0.0270922 -0.0643295 3.6954e-20)
(0.0548003 -0.110871 1.63432e-19)
(0.0741451 -0.132113 2.90723e-20)
(0.0883117 -0.139411 2.36959e-20)
(0.100853 -0.142195 1.05955e-19)
(0.113742 -0.148713 -7.16841e-20)
(0.130834 -0.166184 -2.45327e-20)
(0.155323 -0.203904 1.71429e-19)
(0.195844 -0.26239 2.31728e-19)
(0.00169962 -0.00290488 -8.30941e-20)
(0.0386245 -0.075293 -1.92923e-20)
(0.0729511 -0.126447 -1.43093e-19)
(0.095089 -0.14913 -7.76478e-20)
(0.109874 -0.156729 7.01489e-20)
(0.122449 -0.159682 1.16483e-19)
(0.135584 -0.166515 7.28614e-20)
(0.153929 -0.184474 -1.62068e-19)
(0.181783 -0.225238 1.14363e-19)
(0.23 -0.290016 2.659e-19)
(0.0036999 -0.00571123 3.74586e-20)
(0.0523379 -0.0848741 3.06792e-20)
(0.0947376 -0.139409 5.36499e-20)
(0.120295 -0.162341 -7.6292e-20)
(0.135716 -0.169092 -1.33044e-19)
(0.147893 -0.171639 -7.14747e-20)
(0.160577 -0.179104 1.2129e-19)
(0.179012 -0.196395 -1.24996e-19)
(0.20927 -0.239161 -1.09035e-19)
(0.268016 -0.31166 -7.3301e-20)
(0.00666987 -0.00887153 1.35291e-21)
(0.0692548 -0.0938741 -1.44009e-20)
(0.121808 -0.150247 4.00857e-20)
(0.151786 -0.171809 4.61709e-20)
(0.16789 -0.175363 -6.27511e-20)
(0.178906 -0.173734 -4.63843e-20)
(0.189705 -0.180222 1.05908e-19)
(0.205371 -0.196868 9.27849e-20)
(0.237576 -0.242008 1.65509e-19)
(0.309703 -0.324588 -4.67744e-20)
(0.0116427 -0.0128638 -5.55811e-21)
(0.0921354 -0.103669 4.31809e-20)
(0.158272 -0.160189 2.09139e-20)
(0.195601 -0.178767 -1.76593e-19)
(0.214314 -0.176388 -3.0811e-20)
(0.223353 -0.164257 3.76659e-20)
(0.231486 -0.16466 9.43705e-20)
(0.250437 -0.180277 1.02447e-19)
(0.284429 -0.222767 -3.47283e-22)
(0.34897 -0.301549 -1.22237e-20)
(0.0206433 -0.0184121 3.41165e-20)
(0.125436 -0.11574 -3.11336e-20)
(0.209941 -0.17036 1.70789e-19)
(0.258133 -0.183411 2.37159e-19)
(0.280999 -0.17044 -1.20784e-19)
(0.287861 -0.142424 -5.84916e-20)
(0.287892 -0.118743 -1.66172e-19)
(0.314413 -0.116741 1.40686e-20)
(0.332926 -0.149337 9.65538e-20)
(0.500726 -0.228592 2.83265e-19)
(0.193518 -0.324569 -2.39039e-19)
(0.476298 -0.34031 -1.45342e-19)
(0.641974 -0.261914 -1.10926e-20)
(0.71842 -0.202843 -4.06421e-20)
(0.76714 -0.15153 4.42923e-20)
(0.789369 -0.113028 2.65472e-21)
(0.797284 -0.0811713 -3.31428e-20)
(0.80408 -0.0543134 8.63624e-21)
(0.793893 -0.0323862 -2.89728e-21)
(0.79541 -0.011 1.07631e-21)
(0.237541 -0.392691 -1.45253e-19)
(0.496406 -0.404309 1.03145e-20)
(0.657031 -0.294256 -5.37229e-20)
(0.728325 -0.222128 1.31992e-20)
(0.774432 -0.162213 3.97681e-20)
(0.795283 -0.118136 -6.28537e-20)
(0.802109 -0.0835193 1.96261e-20)
(0.808871 -0.0544962 -1.16775e-23)
(0.798183 -0.0319581 -5.0397e-21)
(0.800613 -0.0104055 5.29697e-21)
(0.292708 -0.457405 5.68998e-19)
(0.517096 -0.463847 1.23012e-19)
(0.669118 -0.325104 1.85856e-20)
(0.733449 -0.242555 4.75648e-20)
(0.778117 -0.17276 -5.75491e-20)
(0.7976 -0.12469 8.72383e-22)
(0.804625 -0.0857137 7.55419e-21)
(0.811449 -0.0552338 -6.69307e-21)
(0.802212 -0.031693 -2.21631e-21)
(0.803864 -0.00942294 -2.07367e-21)
(0.362739 -0.519513 3.50673e-19)
(0.538432 -0.517825 -3.22468e-21)
(0.67915 -0.359375 -1.60924e-21)
(0.735238 -0.263487 -2.72144e-20)
(0.777859 -0.186139 1.49245e-20)
(0.796427 -0.131442 1.06958e-20)
(0.803929 -0.0893082 -1.30804e-20)
(0.811668 -0.0561864 0)
(0.80405 -0.0315622 0)
(0.806921 -0.00920617 7.80049e-23)
(0.433642 -0.575708 -2.20159e-19)
(0.559204 -0.563369 -1.62143e-19)
(0.684288 -0.392611 -4.72456e-21)
(0.732955 -0.284432 1.76072e-20)
(0.774075 -0.199058 4.81717e-21)
(0.792394 -0.138926 3.90542e-20)
(0.801234 -0.0932275 4.61904e-22)
(0.810557 -0.0578072 -3.17704e-21)
(0.805374 -0.0321036 -6.77035e-21)
(0.809171 -0.00884656 -2.31814e-21)
(0.515163 -0.621859 -2.53533e-19)
(0.589879 -0.604779 -7.62214e-20)
(0.695311 -0.428768 -1.10778e-19)
(0.735645 -0.308281 3.70621e-21)
(0.774108 -0.215579 -1.7574e-20)
(0.791912 -0.149353 2.00677e-20)
(0.801736 -0.099808 5.56749e-21)
(0.812806 -0.0614988 -1.27474e-20)
(0.81003 -0.0337182 -3.66468e-23)
(0.817193 -0.00919949 -9.5939e-21)
(0.612038 -0.668342 1.37238e-19)
(0.653453 -0.635269 2.22779e-20)
(0.736774 -0.455565 7.42111e-20)
(0.767835 -0.324197 -3.32719e-20)
(0.801042 -0.225815 -5.31306e-21)
(0.816384 -0.155928 -7.86401e-21)
(0.825436 -0.104095 -3.16441e-22)
(0.837105 -0.0645342 1.39366e-21)
(0.836407 -0.0356614 -1.81727e-22)
(0.846328 -0.00998817 5.41467e-21)
(0.630455 -0.700341 2.94672e-19)
(0.744281 -0.70851 1.05464e-18)
(0.805228 -0.506639 1.21552e-19)
(0.822477 -0.359733 1.31345e-20)
(0.846299 -0.250889 -1.76744e-20)
(0.857409 -0.173331 -2.44823e-20)
(0.864735 -0.115735 1.33947e-20)
(0.876755 -0.0721304 -7.80291e-21)
(0.8784 -0.0397667 -8.72139e-22)
(0.890773 -0.0113702 -2.73757e-21)
(0.92181 -0.68957 8.11036e-19)
(0.908921 -0.693217 5.21613e-19)
(0.985779 -0.509647 -4.17651e-19)
(0.98237 -0.361191 1.94675e-19)
(0.990472 -0.252306 -9.12687e-20)
(0.989777 -0.175043 -2.62385e-20)
(0.988101 -0.117649 -4.59854e-20)
(0.993761 -0.0744876 -6.47047e-22)
(0.98986 -0.0422376 6.42974e-21)
(1.00367 -0.0141703 -1.16569e-21)
(0.683517 -0.787806 -2.94639e-20)
(1.05588 -0.815672 -8.32212e-19)
(1.09719 -0.590783 -3.18652e-19)
(1.09304 -0.410898 1.41683e-19)
(1.09692 -0.285752 -1.12668e-19)
(1.09517 -0.197649 2.77756e-20)
(1.09355 -0.13182 -1.32921e-19)
(1.10106 -0.0825749 1.07307e-22)
(1.10228 -0.0466168 -6.64513e-21)
(1.1144 -0.0160491 -5.03826e-21)
(1.7726 -0.547804 4.26834e-19)
(1.428 -0.668097 -4.06076e-20)
(1.44786 -0.51214 -8.6554e-20)
(1.38349 -0.364472 -4.89193e-20)
(1.3554 -0.25439 4.78515e-20)
(1.33209 -0.177776 1.04594e-20)
(1.31401 -0.121299 2.14576e-20)
(1.30798 -0.0787494 1.64641e-20)
(1.29714 -0.0466021 -3.27841e-20)
(1.30418 -0.0185423 3.5158e-21)
(1.58697 -0.958267 -3.29965e-19)
(1.76888 -0.79463 3.80074e-20)
(1.69999 -0.568733 1.42008e-19)
(1.6119 -0.38516 -2.33167e-20)
(1.5618 -0.263536 1.21907e-19)
(1.52449 -0.181582 1.13463e-19)
(1.49637 -0.120808 8.59164e-20)
(1.4839 -0.0771915 -1.08469e-20)
(1.47272 -0.0443263 3.96793e-20)
(1.46958 -0.016468 8.53189e-21)
(2.18401 -0.659746 -1.21721e-19)
(2.00571 -0.717904 -4.81378e-20)
(1.95 -0.492235 4.36924e-20)
(1.82575 -0.330615 9.89357e-36)
(1.7538 -0.223798 -1.23059e-20)
(1.69983 -0.153458 -3.86451e-34)
(1.65903 -0.102706 4.23992e-21)
(1.63628 -0.0675315 -1.38076e-35)
(1.61523 -0.0396279 7.80794e-23)
(1.61336 -0.0162071 -1.38575e-21)
(2.3578 -0.730314 -2.67119e-19)
(2.2224 -0.690643 2.51083e-20)
(2.10412 -0.477138 -9.78974e-20)
(1.94463 -0.313223 0)
(1.85066 -0.209762 -8.65329e-20)
(1.78382 -0.143001 -6.91625e-20)
(1.73421 -0.0952413 -5.33748e-20)
(1.7052 -0.0620104 3.55247e-34)
(1.68169 -0.0364364 -2.16616e-20)
(1.67716 -0.0147707 5.62688e-22)
(2.6389 -0.603335 -2.76529e-19)
(2.36058 -0.595156 1.7e-20)
(2.20669 -0.400854 0)
(2.01765 -0.256896 0)
(1.90649 -0.168592 0)
(1.83006 -0.113343 0)
(1.77442 -0.0747826 1.70247e-21)
(1.74082 -0.048708 4.04392e-34)
(1.71486 -0.0296846 -4.12511e-22)
(1.71153 -0.013397 1.99968e-36)
(2.79269 -0.559322 6.44529e-20)
(2.44271 -0.493083 0)
(2.25512 -0.329006 0)
(2.04273 -0.207161 0)
(1.91685 -0.134253 0)
(1.83288 -0.0900656 0)
(1.77293 -0.059385 -3.8707e-21)
(1.73655 -0.0390101 3.63406e-20)
(1.7097 -0.0252102 -6.68896e-22)
(1.70474 -0.0127492 6.59893e-21)
(2.83875 -0.476158 0)
(2.41538 -0.368179 -7.4305e-21)
(2.20336 -0.239441 -5.53311e-20)
(1.98065 -0.145785 0)
(1.84945 -0.0920512 -5.5551e-20)
(1.76381 -0.0610244 -4.13998e-20)
(1.7037 -0.0399832 -3.44767e-20)
(1.66677 -0.0261694 -2.05075e-20)
(1.64035 -0.0187021 2.35553e-20)
(1.62837 -0.0106939 -5.9168e-21)
(2.6542 -0.363554 -9.81532e-20)
(2.17949 -0.231249 1.99337e-20)
(1.96304 -0.146375 -1.86238e-20)
(1.75195 -0.084763 -4.75784e-36)
(1.63113 -0.0511336 1.13907e-20)
(1.55401 -0.0332932 -2.66201e-34)
(1.50049 -0.0213697 -5.00283e-21)
(1.46736 -0.0138578 -1.00181e-20)
(1.44396 -0.010684 -1.04797e-21)
(1.42781 -0.00728381 2.36378e-21)
(2.01932 -0.161356 0)
(1.59721 -0.0895267 3.73732e-20)
(1.41831 -0.0586808 3.83922e-20)
(1.25281 -0.0304989 0)
(1.16565 -0.0167211 3.02525e-20)
(1.11228 -0.0108382 2.08106e-20)
(1.07618 -0.00703932 8.81085e-21)
(1.05437 -0.00473431 9.3309e-21)
(1.03967 -0.00442082 -1.26477e-20)
(1.02212 -0.00356601 -4.80591e-22)
(0.813321 -0.0370218 -2.81355e-20)
(0.632671 -0.0152912 0)
(0.558218 -0.0125232 0)
(0.485209 -0.00582887 0)
(0.454177 -0.00274417 0)
(0.436397 -0.00172543 0)
(0.424396 -0.00099806 -5.61552e-21)
(0.417299 -0.000560454 1.97616e-35)
(0.412013 -0.000419048 -1.33402e-21)
(0.4041 -0.000655165 -3.01316e-21)
(2.4109 0.0182065 3.77143e-19)
(2.37062 -0.121142 8.29715e-20)
(2.29204 -0.257242 3.38965e-19)
(2.18692 -0.377076 -7.90248e-20)
(2.07323 -0.472454 -2.75605e-19)
(1.94387 -0.52741 -2.02097e-19)
(1.82925 -0.546891 5.97516e-19)
(1.68608 -0.50961 1.23093e-19)
(1.62452 -0.463945 -2.55251e-19)
(1.33699 -0.406145 -8.61987e-20)
(3.07432 0.00109444 -4.07754e-19)
(3.04562 -0.130145 1.45504e-19)
(2.98057 -0.25836 -6.26473e-20)
(2.88751 -0.374721 7.55975e-20)
(2.77215 -0.470759 -2.12893e-19)
(2.63457 -0.547028 2.8952e-19)
(2.47121 -0.593777 6.02045e-19)
(2.24589 -0.640946 1.26977e-19)
(2.02985 -0.689506 2.23494e-19)
(1.82264 -0.729249 1.8827e-19)
(3.31395 0.000988271 -8.64268e-22)
(3.31038 -0.112939 -2.47596e-19)
(3.27479 -0.222262 -2.61708e-19)
(3.21189 -0.32261 6.19124e-19)
(3.12427 -0.408176 -2.23195e-19)
(3.01362 -0.480156 4.73147e-19)
(2.86204 -0.53496 -1.97952e-19)
(2.66795 -0.588767 -1.54861e-19)
(2.50677 -0.61009 -1.93911e-19)
(2.28693 -0.698072 -2.77197e-20)
(3.33831 -0.00871529 1.1555e-19)
(3.33868 -0.0896211 -4.52238e-19)
(3.31652 -0.166478 2.99295e-19)
(3.27569 -0.238247 -3.93823e-19)
(3.2124 -0.306339 1.16525e-19)
(3.1181 -0.371793 -3.39546e-19)
(2.9939 -0.432168 -1.91718e-19)
(2.85833 -0.480581 1.58128e-19)
(2.74057 -0.525882 3.30775e-19)
(2.60177 -0.592356 2.93691e-19)
(3.26936 -0.0140329 6.77043e-20)
(3.27395 -0.0656584 -3.49294e-19)
(3.26339 -0.116954 1.08727e-19)
(3.23652 -0.167049 -3.42658e-19)
(3.18829 -0.219655 -1.3587e-19)
(3.11761 -0.274874 1.70768e-21)
(3.03351 -0.319142 3.93871e-19)
(2.94998 -0.361647 3.00185e-20)
(2.87811 -0.404161 7.24766e-21)
(2.77893 -0.493982 -9.4929e-21)
(3.20248 -0.0165657 1.50257e-19)
(3.20584 -0.048862 6.19454e-20)
(3.19956 -0.0824346 -1.37067e-19)
(3.18079 -0.117752 -7.33418e-20)
(3.1446 -0.15642 1.92682e-19)
(3.09727 -0.19706 3.27039e-19)
(3.04521 -0.231432 -1.46673e-19)
(2.99578 -0.270636 -3.31319e-19)
(2.94725 -0.319932 1.6844e-19)
(2.87921 -0.416436 1.25872e-19)
(3.12273 -0.0168909 -2.88594e-20)
(3.1249 -0.0360724 1.01832e-19)
(3.12176 -0.0571134 -5.05377e-20)
(3.11033 -0.0811476 1.10319e-19)
(3.08794 -0.108409 2.53167e-19)
(3.06084 -0.137778 -2.33906e-19)
(3.03019 -0.167988 -5.98762e-20)
(3.00015 -0.209222 1.16531e-19)
(2.96577 -0.265959 1.32769e-19)
(2.93424 -0.373166 8.28773e-20)
(2.91914 -0.0144936 -2.02715e-20)
(2.92191 -0.0247794 -2.74718e-21)
(2.92446 -0.036176 2.53377e-20)
(2.92445 -0.051006 6.08816e-20)
(2.91992 -0.0676854 -2.37096e-19)
(2.91423 -0.0879303 5.42089e-20)
(2.90304 -0.112437 1.5286e-19)
(2.89226 -0.154065 -1.55176e-19)
(2.87418 -0.218012 1.89288e-19)
(2.87375 -0.326976 2.30784e-19)
(2.30475 -0.009731 3.15117e-20)
(2.30786 -0.011157 1.89547e-20)
(2.31574 -0.0149009 3.8735e-20)
(2.32717 -0.0198444 -3.24978e-20)
(2.34008 -0.0273989 6.00422e-20)
(2.35422 -0.0364838 8.64704e-20)
(2.36396 -0.0507469 -1.60419e-19)
(2.36979 -0.0780612 -7.30535e-20)
(2.3636 -0.125913 2.77894e-20)
(2.35343 -0.180642 -1.62561e-20)
(0.980115 -0.0022432 0)
(0.97981 -0.00333654 3.07695e-21)
(0.983776 -0.0049001 1.28371e-20)
(0.991205 -0.00570822 5.82441e-20)
(1.00108 -0.00690313 -4.48159e-20)
(1.0139 -0.00787961 -3.28157e-19)
(1.02382 -0.0115068 9.33205e-21)
(1.03207 -0.0208842 3.27301e-19)
(1.0239 -0.0370301 5.84385e-20)
(0.989428 -0.0442434 -1.02919e-20)
(0.902639 0.302773 -2.26325e-20)
(0.719028 0.185784 -6.55864e-20)
(0.563928 0.1551 1.18533e-19)
(0.502278 0.165763 -1.57541e-19)
(0.474174 0.19992 -1.22468e-20)
(0.460336 0.242628 -8.15768e-20)
(0.436093 0.273318 -6.96021e-20)
(0.38463 0.276129 7.09945e-20)
(0.289437 0.234203 -7.7937e-20)
(0.141226 0.121408 7.96536e-21)
(1.13428 0.347678 -8.15373e-20)
(0.966542 0.23037 8.91411e-20)
(0.773113 0.192352 6.60978e-20)
(0.679055 0.190382 1.34719e-19)
(0.625894 0.218144 7.08806e-21)
(0.595627 0.257283 -1.81572e-20)
(0.558032 0.289009 -1.32484e-20)
(0.489209 0.293444 -8.84507e-20)
(0.366958 0.250076 -4.71568e-20)
(0.177997 0.129257 -8.6558e-20)
(1.3062 0.403025 6.89644e-20)
(1.12642 0.294276 1.48225e-19)
(0.921542 0.248571 -4.57775e-24)
(0.814523 0.233331 -1.43141e-20)
(0.752913 0.25112 9.06358e-20)
(0.717525 0.283012 1.21197e-19)
(0.674751 0.310632 -3.87192e-20)
(0.595046 0.312291 -1.06828e-19)
(0.448599 0.264737 1.98179e-19)
(0.217323 0.135416 -1.09264e-19)
(1.45077 0.442115 -2.03357e-19)
(1.25102 0.340348 8.54435e-20)
(1.03724 0.288376 -1.90602e-19)
(0.921933 0.26455 -4.82621e-20)
(0.859083 0.275496 1.25502e-19)
(0.824915 0.300465 -8.93921e-20)
(0.781935 0.322686 -1.34645e-19)
(0.695247 0.320007 1.15639e-19)
(0.527325 0.268259 -1.00051e-19)
(0.254131 0.134784 2.28236e-21)
(1.57668 0.453897 3.01235e-19)
(1.35221 0.358554 1.95042e-19)
(1.12944 0.303202 -3.91498e-20)
(1.00923 0.27555 1.81188e-19)
(0.948577 0.282045 -5.50775e-20)
(0.917606 0.300986 -1.08297e-19)
(0.875921 0.317595 -3.02292e-21)
(0.784098 0.311079 -1.12269e-19)
(0.596239 0.257249 -9.54594e-20)
(0.284101 0.126359 -5.7701e-20)
(1.67986 0.435079 4.85073e-19)
(1.43044 0.348356 3.66732e-19)
(1.20086 0.293652 -2.33574e-19)
(1.07747 0.266533 -1.44279e-19)
(1.02053 0.26998 -1.79622e-20)
(0.992856 0.282797 -1.51045e-19)
(0.952898 0.293534 1.00022e-19)
(0.857379 0.283815 -1.31733e-19)
(0.6518 0.231089 9.25977e-20)
(0.305552 0.110396 5.27394e-20)
(1.7594 0.383648 4.4444e-19)
(1.48765 0.310302 -3.61103e-19)
(1.25324 0.261572 -2.27459e-19)
(1.12835 0.23746 1.48747e-21)
(1.07561 0.238837 -7.48873e-20)
(1.04993 0.246219 1.07041e-19)
(1.01107 0.251946 5.46696e-20)
(0.912594 0.24091 -1.6388e-19)
(0.691711 0.19305 2.81075e-20)
(0.317758 0.0895587 4.86177e-20)
(1.81735 0.308502 -2.7767e-19)
(1.52605 0.252003 -2.11382e-19)
(1.28852 0.212733 -5.70052e-20)
(1.16297 0.193891 4.59947e-20)
(1.11463 0.193662 1.14996e-19)
(1.08926 0.195856 7.68371e-20)
(1.05089 0.197009 -1.11964e-19)
(0.950423 0.18561 1.38338e-19)
(0.71683 0.145667 3.78379e-20)
(0.321774 0.0652163 4.25372e-20)
(1.85014 0.21819 6.70202e-20)
(1.54418 0.179837 -5.99125e-20)
(1.30628 0.152006 -3.62777e-21)
(1.18159 0.13811 8.47969e-20)
(1.13744 0.136268 2.84088e-20)
(1.10868 0.134214 -3.81445e-20)
(1.07227 0.131802 1.11425e-19)
(0.969659 0.122323 1.93847e-19)
(0.726448 0.0935138 -9.37267e-20)
(0.317619 0.0399757 -5.90132e-20)
(1.85546 0.118496 -1.26368e-19)
(1.54052 0.0980596 -3.77109e-22)
(1.30463 0.0838509 -1.62488e-20)
(1.18261 0.0749856 -7.17433e-20)
(1.14233 0.0712262 -1.83598e-20)
(1.1112 0.0678122 -5.10211e-20)
(1.07414 0.0639754 6.93588e-20)
(0.969587 0.0556405 -1.45154e-19)
(0.721246 0.0398328 -1.00487e-19)
(0.306277 0.0150888 1.43747e-20)
(0.141919 0.195433 -2.05128e-20)
(0.123956 0.164396 2.1567e-19)
(0.108652 0.143955 2.73184e-20)
(0.0945781 0.13348 -1.37858e-19)
(0.0805012 0.129828 -4.68077e-20)
(0.0655496 0.129409 -9.90723e-20)
(0.049633 0.127702 3.69418e-20)
(0.0329672 0.119459 -4.01695e-20)
(0.0170994 0.0996313 8.41796e-20)
(0.00673813 0.0582967 2.35352e-20)
(0.165974 0.240557 -6.83928e-20)
(0.143363 0.203525 -1.84359e-20)
(0.125435 0.179153 -1.43916e-19)
(0.11005 0.16714 1.40803e-20)
(0.0954605 0.163587 2.71474e-20)
(0.0802361 0.163978 3.71735e-20)
(0.0640038 0.162435 1.46581e-19)
(0.0464829 0.152326 -6.18476e-20)
(0.0282522 0.127039 5.92894e-20)
(0.0128261 0.0731784 -1.9033e-20)
(0.197438 0.285173 2.74111e-20)
(0.168616 0.241998 1.54381e-19)
(0.147426 0.213328 9.4988e-20)
(0.13052 0.19965 1.21379e-19)
(0.115401 0.196025 2.79776e-20)
(0.099954 0.196965 1.51616e-19)
(0.0834004 0.19537 -3.00382e-20)
(0.0646963 0.183337 -2.44476e-20)
(0.043332 0.152702 -1.40599e-22)
(0.0211094 0.0868794 7.9195e-21)
(0.234379 0.328053 3.09647e-19)
(0.198197 0.278724 2.38048e-19)
(0.173399 0.245687 -3.03693e-19)
(0.154895 0.230483 -1.13671e-19)
(0.139406 0.226729 -4.32306e-20)
(0.124065 0.227974 -7.03616e-20)
(0.107426 0.226028 -1.53685e-19)
(0.0874239 0.212013 4.0347e-20)
(0.062254 0.176051 -2.96602e-20)
(0.0314959 0.0990887 -6.87289e-20)
(0.274951 0.367748 -6.9889e-20)
(0.230991 0.312104 -2.48446e-19)
(0.2026 0.274773 1.97471e-19)
(0.182656 0.258251 -6.54786e-20)
(0.167054 0.254204 -7.66253e-20)
(0.151955 0.255375 1.81294e-20)
(0.135332 0.252825 9.71222e-21)
(0.113823 0.236842 -9.78639e-20)
(0.0841027 0.1959 -1.13518e-19)
(0.0433719 0.109216 4.9034e-20)
(0.315119 0.400635 -2.07323e-21)
(0.264242 0.339415 -7.27872e-21)
(0.232917 0.298664 1.58915e-20)
(0.211993 0.28141 4.16197e-20)
(0.196667 0.276929 1.55288e-19)
(0.182389 0.27754 -8.06967e-20)
(0.166127 0.274192 -5.36098e-20)
(0.143131 0.256584 2.39067e-20)
(0.108338 0.211151 -3.58597e-20)
(0.0563523 0.116654 8.78485e-20)
(0.3612 0.427916 -1.47915e-19)
(0.299952 0.359057 6.97427e-20)
(0.265034 0.315727 2.18474e-19)
(0.243444 0.298379 -3.48411e-20)
(0.228696 0.292694 -1.57853e-19)
(0.215331 0.29254 1.5794e-19)
(0.199588 0.288971 1.78286e-19)
(0.174871 0.270569 1.15757e-19)
(0.133819 0.221677 8.31196e-20)
(0.0697255 0.121087 1.46467e-19)
(0.408294 0.453603 -2.26142e-19)
(0.330095 0.371228 -3.2933e-20)
(0.292751 0.322264 6.17496e-20)
(0.274161 0.305213 -1.1051e-19)
(0.261701 0.298011 -9.34702e-21)
(0.250871 0.298801 1.33746e-19)
(0.236402 0.296714 -3.95954e-20)
(0.209835 0.278976 -9.90607e-20)
(0.161438 0.227822 4.39689e-21)
(0.0834734 0.122575 -5.44994e-20)
(0.441085 0.447499 -3.94125e-20)
(0.383069 0.368828 6.89042e-20)
(0.332984 0.317032 -6.17532e-20)
(0.3142 0.297162 4.18656e-20)
(0.303771 0.288388 8.15403e-20)
(0.295854 0.295786 -1.57182e-20)
(0.28164 0.297858 3.22484e-20)
(0.251304 0.282316 0)
(0.192576 0.230877 -4.85339e-20)
(0.0979347 0.12189 -5.00439e-20)
(0.535185 0.41783 0)
(0.380056 0.315931 0)
(0.357413 0.267254 -2.75003e-19)
(0.334208 0.252751 -1.15409e-19)
(0.340163 0.260477 1.35881e-19)
(0.344613 0.280426 -2.11155e-20)
(0.334072 0.290908 1.19708e-19)
(0.299873 0.280314 7.30528e-20)
(0.229594 0.231485 1.97998e-20)
(0.114512 0.119981 3.56431e-20)
(0.585421 0.519027 2.35978e-20)
(1.02981 0.282837 1.359e-20)
(0.879045 0.185137 -7.33482e-20)
(0.812766 0.171479 1.45291e-20)
(0.834088 0.185685 1.20622e-20)
(0.805568 0.200379 5.70931e-21)
(0.756114 0.239537 -7.14045e-21)
(0.684317 0.284839 -3.52004e-20)
(0.529815 0.367107 -1.17035e-19)
(0.246802 0.372631 2.34107e-19)
(0.583365 0.54428 -2.44458e-20)
(1.02548 0.294257 5.48498e-20)
(0.872594 0.190643 -7.94067e-21)
(0.80946 0.176653 2.33943e-20)
(0.833209 0.191071 4.65803e-21)
(0.80842 0.209766 -1.05398e-20)
(0.763062 0.257069 -1.0855e-20)
(0.698522 0.31463 -7.35657e-22)
(0.551559 0.429888 3.681e-19)
(0.293105 0.443912 -1.09741e-20)
(0.580655 0.569985 8.59765e-20)
(1.01976 0.305528 1.30447e-19)
(0.863117 0.195758 -8.71654e-20)
(0.803117 0.18117 -2.13924e-21)
(0.828284 0.195912 -1.25163e-20)
(0.806912 0.218905 8.10111e-22)
(0.7654 0.274003 1.74051e-20)
(0.710772 0.342701 -1.89471e-20)
(0.57276 0.487467 1.44704e-19)
(0.353421 0.513294 -5.80618e-19)
(0.578986 0.596458 4.69967e-20)
(1.01273 0.31667 -2.91925e-20)
(0.850618 0.200384 6.10864e-20)
(0.793682 0.186609 -3.6346e-20)
(0.82028 0.200199 -8.9904e-22)
(0.801512 0.228984 4.73601e-21)
(0.764701 0.290709 -2.19259e-20)
(0.720969 0.372801 9.3997e-20)
(0.596898 0.538472 -1.3909e-19)
(0.426635 0.580037 -4.95166e-19)
(0.579993 0.62353 4.25347e-20)
(1.00516 0.328495 -1.95321e-19)
(0.835587 0.204513 1.81262e-20)
(0.782048 0.192008 2.14109e-20)
(0.810374 0.204358 -7.93729e-21)
(0.792825 0.238802 7.34549e-21)
(0.759838 0.30577 2.38837e-20)
(0.726583 0.400323 5.08229e-20)
(0.619499 0.578824 -6.03315e-20)
(0.505291 0.642617 3.35322e-19)
(0.584604 0.650528 -1.15287e-20)
(0.998896 0.341517 5.26689e-21)
(0.822934 0.209351 -1.17864e-19)
(0.77413 0.198129 -6.43181e-21)
(0.80304 0.209888 2.87259e-20)
(0.785527 0.250965 -1.92422e-21)
(0.755775 0.323739 -7.27394e-21)
(0.731337 0.431885 -1.75467e-19)
(0.646964 0.61964 0)
(0.577813 0.695495 -3.3869e-20)
(0.593176 0.676238 2.75096e-20)
(1.00807 0.354938 1.14854e-19)
(0.833697 0.21216 -3.6502e-20)
(0.786176 0.202254 1.01259e-19)
(0.815759 0.213442 2.02821e-20)
(0.80261 0.259656 1.64545e-20)
(0.778963 0.335385 5.42061e-22)
(0.765144 0.450319 1.31396e-20)
(0.702426 0.633209 -1.09388e-20)
(0.716594 0.743147 9.17887e-19)
(0.617259 0.697048 -3.21658e-19)
(1.03552 0.366737 1.70147e-19)
(0.863513 0.215399 3.19194e-20)
(0.81667 0.211023 -4.54008e-20)
(0.847451 0.225397 1.06083e-19)
(0.835173 0.281308 -8.21973e-21)
(0.814602 0.367495 -2.88127e-21)
(0.805107 0.498263 -3.38189e-21)
(0.777111 0.712822 2.37232e-19)
(0.651127 0.800668 -1.08383e-19)
(0.650009 0.705499 1.12059e-19)
(1.11366 0.376616 -1.2914e-19)
(0.964272 0.213208 5.84822e-20)
(0.923046 0.213478 -1.68646e-19)
(0.962002 0.226757 -5.25675e-21)
(0.960315 0.283983 -1.17864e-20)
(0.953411 0.3696 1.33404e-20)
(0.971665 0.496736 5.60516e-20)
(0.916896 0.682516 2.73999e-19)
(1.07881 0.784454 -8.28034e-19)
(0.70318 0.701484 2.56904e-19)
(1.217 0.378757 -1.79262e-19)
(1.06781 0.207676 -2.57903e-20)
(1.02266 0.219242 9.1307e-20)
(1.064 0.239053 -7.62698e-20)
(1.0634 0.308707 3.73328e-20)
(1.05979 0.411389 1.14398e-20)
(1.07242 0.573385 1.05898e-19)
(1.07097 0.794966 9.61094e-20)
(0.710839 0.909219 6.12532e-19)
(0.754773 0.660624 -1.0986e-19)
(1.3811 0.383671 -4.42304e-20)
(1.23405 0.200121 -1.64767e-20)
(1.19728 0.211718 6.23352e-20)
(1.2623 0.226501 2.68411e-20)
(1.28482 0.288238 5.10488e-22)
(1.30598 0.379856 -8.82549e-21)
(1.38093 0.514108 -1.71116e-19)
(1.32656 0.713446 -4.34322e-19)
(1.62256 0.627104 -4.0595e-19)
(0.793853 0.563755 -1.01052e-19)
(1.52904 0.364174 -1.07841e-19)
(1.40345 0.191934 8.85761e-20)
(1.37055 0.197351 -2.07583e-20)
(1.45053 0.220402 -8.57539e-21)
(1.4931 0.28529 4.6707e-20)
(1.54258 0.384572 1.49571e-20)
(1.63402 0.545067 1.41045e-19)
(1.7703 0.732349 -1.43111e-19)
(1.53795 0.922842 3.85984e-19)
(0.799652 0.4388 -1.11069e-19)
(1.62324 0.330127 -7.31302e-20)
(1.54655 0.175943 -1.0024e-19)
(1.52717 0.173544 1.22459e-21)
(1.6199 0.195598 8.38189e-35)
(1.68288 0.251209 -8.26914e-21)
(1.75232 0.341402 -6.8526e-34)
(1.89142 0.472579 2.9013e-20)
(1.98401 0.709923 -1.25691e-19)
(2.00794 0.691196 -2.80664e-19)
(0.789716 0.306731 1.87646e-19)
(1.65309 0.269116 -6.80695e-34)
(1.61274 0.149689 9.57645e-20)
(1.60696 0.151835 -1.9669e-20)
(1.70722 0.176936 -2.64552e-20)
(1.78529 0.229622 -4.59717e-20)
(1.87513 0.314357 -8.04795e-34)
(2.03917 0.444179 -7.60769e-20)
(2.1979 0.652462 5.1599e-21)
(2.20497 0.730763 3.67784e-19)
(0.77177 0.173593 0)
(1.65397 0.200861 -1.23301e-33)
(1.64349 0.114153 0)
(1.64922 0.122257 0)
(1.75386 0.145249 0)
(1.84243 0.189525 0)
(1.94591 0.262743 -5.0838e-34)
(2.13655 0.371908 0)
(2.30125 0.575621 -3.83255e-20)
(2.48022 0.627455 2.29109e-19)
(0.755541 0.0463027 1.08745e-19)
(1.63362 0.123008 -1.0764e-19)
(1.63937 0.0729134 8.75148e-20)
(1.65236 0.0941509 0)
(1.75881 0.115762 0)
(1.85499 0.152194 7.85505e-21)
(1.97031 0.212246 4.34856e-20)
(2.18262 0.304405 -1.24426e-20)
(2.35321 0.466989 -4.82734e-20)
(2.66678 0.564338 2.83697e-19)
(0.736073 -0.0701883 2.78226e-19)
(1.57659 0.0447315 6.22071e-20)
(1.57451 0.0298284 8.41169e-20)
(1.58966 0.063876 -2.47988e-20)
(1.69327 0.0819311 -1.77909e-20)
(1.79236 0.108744 -1.65775e-20)
(1.91405 0.153056 -3.52022e-20)
(2.13927 0.225093 -3.33431e-20)
(2.31419 0.342142 -6.53271e-20)
(2.72599 0.459082 -1.37044e-19)
(0.683641 -0.160066 -1.33917e-19)
(1.43198 -0.0209213 -1.19227e-19)
(1.38281 -0.00837477 7.88038e-20)
(1.39312 0.0359996 -2.87127e-21)
(1.48724 0.0488098 5.01333e-35)
(1.58066 0.0651456 8.80158e-21)
(1.6982 0.0925268 -1.028e-33)
(1.91788 0.142454 -1.19798e-20)
(2.08977 0.208535 2.05338e-20)
(2.54082 0.324773 3.60211e-20)
(0.560021 -0.217282 1.26464e-19)
(1.12888 -0.0582196 -9.64289e-20)
(0.977836 -0.0284919 7.73665e-20)
(0.984771 0.014199 1.61888e-20)
(1.05811 0.0197855 5.76522e-21)
(1.1305 0.0261747 1.50458e-20)
(1.22391 0.0370721 3.68128e-21)
(1.40201 0.0623015 -1.69432e-20)
(1.55436 0.0865696 -2.71131e-20)
(1.92978 0.144191 2.13175e-19)
(0.343113 -0.0824437 9.73859e-20)
(0.639981 -0.0255825 -3.9394e-34)
(0.358529 -0.0132601 7.20253e-20)
(0.380077 0.00327154 0)
(0.415968 0.0042251 0)
(0.448819 0.00540383 8.69008e-21)
(0.491471 0.00792951 -1.40846e-35)
(0.57677 0.0148608 -1.18169e-20)
(0.654506 0.0173898 -2.45604e-20)
(0.835021 0.0375837 -5.14662e-20)
(1.55913 0.620129 1.53202e-19)