/*--------------------------------*- C++ -*----------------------------------*\
| =========                 |                                                 |
| \\      /  F ield         | OpenFOAM: The Open Source CFD Toolbox           |
|  \\    /   O peration     | Version:  2406                                  |
|   \\  /    A nd           | Website:  www.openfoam.com                      |
|    \\/     M anipulation  |                                                 |
\*---------------------------------------------------------------------------*/
FoamFile
{
    version     2.0;
    format      ascii;
    arch        "LSB;label=32;scalar=64";
    class       volScalarField;
    location    "250";
    object      omega;
}
// * * * * * * * * * * * * * * * * * * * * * * * * * * * * * * * * * * * * * //

dimensions      [0 0 -1 0 0 0 0];

internalField   uniform 0.12;

boundaryField
{
    frontAndBack
    {
        type            omegaWallFunction;
        blending        binomial;
        n               2;
        value           uniform 0.12;
    }
    topAndBottom
    {
        type            omegaWallFunction;
        blending        binomial;
        n               2;
        value           uniform 0.12;
    }
    hot
    {
        type            omegaWallFunction;
        blending        binomial;
        n               2;
        value           uniform 0.12;
    }
    cold
    {
        type            omegaWallFunction;
        blending        binomial;
        n               2;
        value           uniform 0.12;
    }
}


// ************************************************************************* //
