/*--------------------------------*- C++ -*----------------------------------*\
| =========                 |                                                 |
| \\      /  F ield         | OpenFOAM: The Open Source CFD Toolbox           |
|  \\    /   O peration     | Version:  2406                                  |
|   \\  /    A nd           | Website:  www.openfoam.com                      |
|    \\/     M anipulation  |                                                 |
\*---------------------------------------------------------------------------*/
FoamFile
{
    version     2.0;
    format      ascii;
    arch        "LSB;label=32;scalar=64";
    class       volVectorField;
    location    "1";
    object      flux;
}
// * * * * * * * * * * * * * * * * * * * * * * * * * * * * * * * * * * * * * //

dimensions      [0 1 -1 1 0 0 0];

internalField   nonuniform List<vector> 
2500
(
(0.000297021 0.000297021 0)
(0.000887651 0.0002987 0)
(0.00146992 0.000302154 0)
(0.00203907 0.000307348 0)
(0.00258934 0.000314324 0)
(0.00311586 0.000323129 0)
(0.00361409 0.000333821 0)
(0.00407992 0.000346466 0)
(0.00450973 0.000361141 0)
(0.00490041 0.000377927 0)
(0.00524941 0.000396915 0)
(0.00555481 0.000418199 0)
(0.00581524 0.000441875 0)
(0.00602998 0.000468044 0)
(0.00619889 0.000496802 0)
(0.00632242 0.000528244 0)
(0.00640158 0.000562457 0)
(0.00643787 0.00059952 0)
(0.00643327 0.0006395 0)
(0.00639017 0.000682448 0)
(0.0063113 0.000728396 0)
(0.00619967 0.000777356 0)
(0.00605851 0.000829311 0)
(0.00589118 0.000884217 0)
(0.00570113 0.000941996 0)
(0.00549179 0.00100253 0)
(0.00526657 0.00106568 0)
(0.00502871 0.00113125 0)
(0.00478134 0.00119899 0)
(0.00452732 0.00126864 0)
(0.00426929 0.00133986 0)
(0.00400962 0.0014123 0)
(0.00375034 0.00148553 0)
(0.00349322 0.0015591 0)
(0.0032397 0.00163254 0)
(0.00299089 0.0017053 0)
(0.00274765 0.00177685 0)
(0.00251055 0.00184661 0)
(0.0022799 0.00191399 0)
(0.0020558 0.0019784 0)
(0.00183816 0.00203926 0)
(0.00162671 0.00209597 0)
(0.00142104 0.002148 0)
(0.00122066 0.00219481 0)
(0.00102494 0.00223592 0)
(0.000833205 0.00227092 0)
(0.000644704 0.00229944 0)
(0.000458627 0.00232117 0)
(0.000274204 0.00233578 0)
(9.1159e-05 0.00234247 0)
(0.0002987 0.000887651 0)
(0.000892784 0.000892784 0)
(0.00147857 0.000903156 0)
(0.00205124 0.000918776 0)
(0.00260512 0.000939756 0)
(0.00313535 0.000966239 0)
(0.00363743 0.000998399 0)
(0.00410724 0.00103644 0)
(0.00454119 0.00108058 0)
(0.00493618 0.00113107 0)
(0.00528969 0.00118819 0)
(0.00559977 0.00125222 0)
(0.00586508 0.00132346 0)
(0.0060849 0.00140219 0)
(0.00625909 0.00148873 0)
(0.00638808 0.00158334 0)
(0.00647286 0.0016863 0)
(0.00651491 0.00179785 0)
(0.0065162 0.00191819 0)
(0.00647907 0.00204748 0)
(0.00640621 0.00218581 0)
(0.00630059 0.00233322 0)
(0.00616537 0.00248967 0)
(0.00600386 0.00265502 0)
(0.00581944 0.00282904 0)
(0.00561548 0.0030114 0)
(0.00539528 0.00320164 0)
(0.00516202 0.00339917 0)
(0.00491873 0.00360331 0)
(0.00466819 0.00381319 0)
(0.00441295 0.00402786 0)
(0.00415528 0.00424619 0)
(0.00389715 0.00446696 0)
(0.00364024 0.0046888 0)
(0.0033859 0.00491022 0)
(0.00313521 0.00512966 0)
(0.00288896 0.00534545 0)
(0.00264769 0.00555586 0)
(0.00241169 0.00575912 0)
(0.00218107 0.00595344 0)
(0.00195573 0.00613704 0)
(0.00173545 0.00630818 0)
(0.00151988 0.00646516 0)
(0.00130858 0.00660642 0)
(0.00110105 0.00673051 0)
(0.000896719 0.00683612 0)
(0.000694955 0.00692218 0)
(0.000494971 0.00698781 0)
(0.000295506 0.00703229 0)
(9.78513e-05 0.00705382 0)
(0.000302154 0.00146992 0)
(0.000903156 0.00147857 0)
(0.00149591 0.00149591 0)
(0.00207567 0.00152206 0)
(0.0026368 0.00155719 0)
(0.0031745 0.00160154 0)
(0.00368428 0.00165541 0)
(0.0041621 0.00171913 0)
(0.00460437 0.00179308 0)
(0.00500802 0.00187769 0)
(0.00537057 0.00197341 0)
(0.00569007 0.00208073 0)
(0.00596521 0.00220015 0)
(0.00619525 0.00233216 0)
(0.00638004 0.00247728 0)
(0.00652 0.00263598 0)
(0.00661609 0.00280872 0)
(0.00666976 0.0029959 0)
(0.0066829 0.00319788 0)
(0.00665779 0.00341492 0)
(0.00659705 0.0036472 0)
(0.00650353 0.00389478 0)
(0.00638031 0.0041576 0)
(0.00623055 0.00443544 0)
(0.00605751 0.00472792 0)
(0.00586439 0.00503448 0)
(0.00565434 0.00535436 0)
(0.00543038 0.0056866 0)
(0.00519536 0.00603001 0)
(0.00495187 0.00638319 0)
(0.0047023 0.00674449 0)
(0.00444872 0.00711205 0)
(0.00419295 0.00748379 0)
(0.00393649 0.00785741 0)
(0.00368056 0.00823043 0)
(0.00342612 0.00860017 0)
(0.00317385 0.00896384 0)
(0.00292422 0.00931851 0)
(0.00267748 0.00966119 0)
(0.00243372 0.00998886 0)
(0.00219289 0.0102985 0)
(0.00195483 0.0105871 0)
(0.00171929 0.010852 0)
(0.001486 0.0110903 0)
(0.00125464 0.0112996 0)
(0.00102488 0.0114778 0)
(0.000796394 0.0116229 0)
(0.000568744 0.0117335 0)
(0.000340217 0.0118083 0)
(0.000112689 0.0118457 0)
(0.000307348 0.00203907 0)
(0.000918776 0.00205124 0)
(0.00152206 0.00207567 0)
(0.00211251 0.00211251 0)
(0.00268461 0.00216204 0)
(0.00323357 0.00222457 0)
(0.00375501 0.00230053 0)
(0.00424491 0.0023904 0)
(0.00469975 0.00249473 0)
(0.00511651 0.00261412 0)
(0.00549273 0.00274923 0)
(0.0058265 0.00290075 0)
(0.00611652 0.00306938 0)
(0.00636204 0.00325587 0)
(0.00656291 0.00346092 0)
(0.00671952 0.00368524 0)
(0.00683278 0.00392947 0)
(0.00690408 0.00419422 0)
(0.00693522 0.00447999 0)
(0.00692839 0.00478717 0)
(0.00688607 0.00511604 0)
(0.00681099 0.0054667 0)
(0.00670603 0.00583906 0)
(0.00657418 0.00623285 0)
(0.00641848 0.00664754 0)
(0.00624192 0.00708235 0)
(0.0060474 0.00753621 0)
(0.00583767 0.00800778 0)
(0.00561531 0.00849537 0)
(0.00538267 0.00899701 0)
(0.00514182 0.00951036 0)
(0.00489458 0.0100328 0)
(0.00464251 0.0105613 0)
(0.00438687 0.0110927 0)
(0.00412865 0.0116234 0)
(0.00386861 0.0121497 0)
(0.0036073 0.0126674 0)
(0.00334504 0.0131724 0)
(0.00308204 0.0136606 0)
(0.00281837 0.0141274 0)
(0.00255402 0.0145687 0)
(0.00228893 0.0149801 0)
(0.00202303 0.0153577 0)
(0.00175625 0.0156975 0)
(0.00148857 0.015996 0)
(0.00122001 0.0162501 0)
(0.000950621 0.0164569 0)
(0.000680362 0.0166143 0)
(0.000407768 0.0167204 0)
(0.000135271 0.0167736 0)
(0.000314324 0.00258934 0)
(0.000939756 0.00260512 0)
(0.00155719 0.0026368 0)
(0.00216204 0.00268461 0)
(0.00274886 0.00274886 0)
(0.003313 0.00283002 0)
(0.00385011 0.00292862 0)
(0.0043563 0.0030453 0)
(0.00482808 0.00318079 0)
(0.00526252 0.00333589 0)
(0.00565719 0.00351146 0)
(0.00601022 0.00370842 0)
(0.00632033 0.00392772 0)
(0.00658678 0.00417031 0)
(0.00680941 0.00443717 0)
(0.00698855 0.00472921 0)
(0.00712508 0.00504732 0)
(0.00722028 0.00539229 0)
(0.00727585 0.00576482 0)
(0.00729384 0.00616544 0)
(0.00727657 0.00659454 0)
(0.00722655 0.00705227 0)
(0.00714646 0.00753857 0)
(0.00703903 0.00805309 0)
(0.006907 0.00859517 0)
(0.00675306 0.00916382 0)
(0.00657977 0.00975768 0)
(0.00638955 0.010375 0)
(0.00618459 0.0110136 0)
(0.00596686 0.0116709 0)
(0.00573809 0.0123438 0)
(0.0054997 0.013029 0)
(0.00525289 0.0137225 0)
(0.00499859 0.01442 0)
(0.00473748 0.0151169 0)
(0.00447005 0.0158082 0)
(0.00419663 0.0164887 0)
(0.0039174 0.0171527 0)
(0.00363245 0.0177947 0)
(0.00334184 0.0184089 0)
(0.00304561 0.0189897 0)
(0.00274383 0.0195314 0)
(0.00243667 0.0200285 0)
(0.00212435 0.0204761 0)
(0.00180723 0.0208694 0)
(0.00148578 0.0212041 0)
(0.00116059 0.0214766 0)
(0.000832159 0.0216838 0)
(0.000499572 0.0218233 0)
(0.00016598 0.0218934 0)
(0.000323129 0.00311586 0)
(0.000966239 0.00313535 0)
(0.00160154 0.0031745 0)
(0.00222457 0.00323357 0)
(0.00283002 0.003313 0)
(0.00341333 0.00341333 0)
(0.00397029 0.00353526 0)
(0.00449708 0.00367959 0)
(0.00499034 0.00384724 0)
(0.00544718 0.00403922 0)
(0.00586526 0.00425663 0)
(0.00624276 0.00450062 0)
(0.00657841 0.0047724 0)
(0.00687148 0.0050732 0)
(0.0071218 0.00540423 0)
(0.00732967 0.00576669 0)
(0.00749586 0.0061617 0)
(0.00762157 0.0065903 0)
(0.00770837 0.00705338 0)
(0.00775811 0.00755166 0)
(0.0077729 0.00808565 0)
(0.00775502 0.0086556 0)
(0.00770685 0.00926147 0)
(0.00763078 0.00990286 0)
(0.00752921 0.010579 0)
(0.00740442 0.0112887 0)
(0.00725856 0.0120303 0)
(0.00709357 0.0128016 0)
(0.00691119 0.0136 0)
(0.0067129 0.0144222 0)
(0.00649993 0.0152645 0)
(0.00627324 0.0161226 0)
(0.00603354 0.0169916 0)
(0.00578133 0.0178662 0)
(0.00551689 0.0187404 0)
(0.00524035 0.019608 0)
(0.00495176 0.0204625 0)
(0.00465108 0.0212967 0)
(0.00433827 0.0221036 0)
(0.00401336 0.0228759 0)
(0.00367644 0.0236064 0)
(0.00332778 0.024288 0)
(0.00296778 0.0249139 0)
(0.00259709 0.0254774 0)
(0.00221654 0.0259727 0)
(0.00182719 0.0263943 0)
(0.0014303 0.0267375 0)
(0.0010271 0.0269985 0)
(0.000617443 0.0271743 0)
(0.000205407 0.0272626 0)
(0.000333821 0.00361409 0)
(0.000998399 0.00363743 0)
(0.00165541 0.00368428 0)
(0.00230053 0.00375501 0)
(0.00292862 0.00385011 0)
(0.00353526 0.00397029 0)
(0.00411638 0.00411638 0)
(0.00466828 0.00428936 0)
(0.00518772 0.00449037 0)
(0.00567191 0.00472065 0)
(0.00611859 0.00498154 0)
(0.006526 0.00527448 0)
(0.00689291 0.00560095 0)
(0.00721861 0.00596246 0)
(0.0075029 0.00636055 0)
(0.00774603 0.00679667 0)
(0.00794869 0.00727226 0)
(0.00811195 0.0077886 0)
(0.00823721 0.00834683 0)
(0.00832611 0.00894789 0)
(0.00838051 0.00959245 0)
(0.00840237 0.0102809 0)
(0.00839372 0.0110132 0)
(0.00835657 0.011789 0)
(0.00829284 0.0126073 0)
(0.00820434 0.0134669 0)
(0.00809268 0.0143657 0)
(0.00795925 0.0153012 0)
(0.0078052 0.0162702 0)
(0.00763141 0.0172688 0)
(0.00743848 0.0182926 0)
(0.00722678 0.0193361 0)
(0.00699643 0.0203937 0)
(0.00674736 0.0214587 0)
(0.00647935 0.022524 0)
(0.0061921 0.0235819 0)
(0.00588526 0.0246243 0)
(0.00555852 0.0256426 0)
(0.00521168 0.0266282 0)
(0.0048447 0.027572 0)
(0.00445774 0.0284651 0)
(0.00405127 0.0292988 0)
(0.00362605 0.0300646 0)
(0.00318317 0.0307544 0)
(0.0027241 0.0313608 0)
(0.00225062 0.0318771 0)
(0.00176483 0.0322976 0)
(0.00126891 0.0326173 0)
(0.000763648 0.0328326 0)
(0.00025431 0.0329408 0)
(0.000346466 0.00407992 0)
(0.00103644 0.00410724 0)
(0.00171913 0.0041621 0)
(0.0023904 0.00424491 0)
(0.0030453 0.0043563 0)
(0.00367959 0.00449708 0)
(0.00428936 0.00466828 0)
(0.00487108 0.00487108 0)
(0.00542163 0.00510683 0)
(0.00593836 0.00537704 0)
(0.00641909 0.00568333 0)
(0.00686216 0.00602743 0)
(0.00726639 0.00641114 0)
(0.00763108 0.00683631 0)
(0.00795601 0.00730478 0)
(0.00824138 0.00781837 0)
(0.00848779 0.00837881 0)
(0.00869615 0.0089877 0)
(0.00886766 0.00964648 0)
(0.00900373 0.0103563 0)
(0.00910589 0.0111181 0)
(0.00917576 0.0119324 0)
(0.00921492 0.0127992 0)
(0.00922492 0.0137182 0)
(0.00920715 0.0146884 0)
(0.00916281 0.0157083 0)
(0.00909288 0.0167756 0)
(0.00899807 0.0178874 0)
(0.00887881 0.0190399 0)
(0.00873525 0.0202286 0)
(0.00856723 0.021448 0)
(0.00837438 0.0226922 0)
(0.00815609 0.0239539 0)
(0.00791162 0.0252255 0)
(0.0076401 0.0264984 0)
(0.00734066 0.0277633 0)
(0.00701251 0.0290106 0)
(0.00665496 0.0302299 0)
(0.0062676 0.0314107 0)
(0.00585028 0.0325421 0)
(0.00540326 0.0336134 0)
(0.00492723 0.0346139 0)
(0.00442336 0.0355333 0)
(0.00389331 0.0363619 0)
(0.00333929 0.0370905 0)
(0.00276396 0.0377111 0)
(0.00217047 0.0382166 0)
(0.00156214 0.0386011 0)
(0.000940961 0.03886 0)
(0.000313619 0.0389901 0)
(0.000361141 0.00450973 0)
(0.00108058 0.00454119 0)
(0.00179308 0.00460437 0)
(0.00249473 0.00469975 0)
(0.00318079 0.00482808 0)
(0.00384724 0.00499034 0)
(0.00449037 0.00518772 0)
(0.00510683 0.00542163 0)
(0.00569368 0.00569368 0)
(0.00624841 0.00600566 0)
(0.00676898 0.0063595 0)
(0.00725381 0.00675726 0)
(0.00770179 0.0072011 0)
(0.00811225 0.00769323 0)
(0.00848495 0.00823587 0)
(0.00882005 0.00883122 0)
(0.00911802 0.00948137 0)
(0.00937962 0.0101883 0)
(0.00960582 0.0109538 0)
(0.00979774 0.0117793 0)
(0.00995656 0.0126659 0)
(0.0100835 0.0136144 0)
(0.0101796 0.0146251 0)
(0.0102458 0.0156975 0)
(0.010283 0.0168307 0)
(0.0102915 0.018023 0)
(0.0102718 0.0192718 0)
(0.0102235 0.0205739 0)
(0.0101464 0.0219248 0)
(0.0100396 0.0233194 0)
(0.0099021 0.0247514 0)
(0.00973266 0.0262137 0)
(0.00952977 0.027698 0)
(0.00929182 0.0291951 0)
(0.0090172 0.030695 0)
(0.00870434 0.0321868 0)
(0.00835184 0.0336588 0)
(0.00795859 0.035099 0)
(0.00752386 0.0364946 0)
(0.0070474 0.0378329 0)
(0.00652953 0.0391008 0)
(0.00597119 0.0402856 0)
(0.00537403 0.041375 0)
(0.0047404 0.0423572 0)
(0.00407337 0.0432214 0)
(0.0033767 0.0439577 0)
(0.00265477 0.0445575 0)
(0.0019123 0.0450139 0)
(0.00115272 0.0453213 0)
(0.000384452 0.0454758 0)
(0.000377927 0.00490041 0)
(0.00113107 0.00493618 0)
(0.00187769 0.00500802 0)
(0.00261412 0.00511651 0)
(0.00333589 0.00526252 0)
(0.00403922 0.00544718 0)
(0.00472065 0.00567191 0)
(0.00537704 0.00593836 0)
(0.00600566 0.00624841 0)
(0.00660417 0.00660417 0)
(0.0071707 0.00700793 0)
(0.00770377 0.0074621 0)
(0.00820236 0.00796926 0)
(0.00866585 0.00853201 0)
(0.009094 0.00915301 0)
(0.00948688 0.00983489 0)
(0.00984487 0.0105802 0)
(0.0101685 0.0113912 0)
(0.0104586 0.0122703 0)
(0.0107159 0.0132191 0)
(0.0109411 0.0142391 0)
(0.0111349 0.0153314 0)
(0.011298 0.0164963 0)
(0.0114306 0.0177337 0)
(0.0115326 0.0190424 0)
(0.0116039 0.0204208 0)
(0.0116437 0.021866 0)
(0.011651 0.0233742 0)
(0.0116243 0.0249407 0)
(0.0115619 0.0265594 0)
(0.0114615 0.0282233 0)
(0.0113209 0.0299239 0)
(0.0111375 0.0316518 0)
(0.0109086 0.0333964 0)
(0.0106318 0.0351458 0)
(0.0103045 0.0368873 0)
(0.00992474 0.0386074 0)
(0.00949076 0.0402916 0)
(0.00900146 0.041925 0)
(0.00845643 0.0434925 0)
(0.00785602 0.0449787 0)
(0.00720148 0.0463684 0)
(0.00649498 0.047647 0)
(0.00573969 0.0488004 0)
(0.00493972 0.0498157 0)
(0.00410009 0.050681 0)
(0.00322669 0.0513863 0)
(0.0023259 0.051923 0)
(0.00140287 0.0522846 0)
(0.000468135 0.0524664 0)
(0.000396915 0.00524941 0)
(0.00118819 0.00528969 0)
(0.00197341 0.00537057 0)
(0.00274923 0.00549273 0)
(0.00351146 0.00565719 0)
(0.00425663 0.00586526 0)
(0.00498154 0.00611859 0)
(0.00568333 0.00641909 0)
(0.0063595 0.00676898 0)
(0.00700793 0.0071707 0)
(0.00762691 0.00762691 0)
(0.00821514 0.00814048 0)
(0.00877169 0.00871438 0)
(0.009296 0.00935173 0)
(0.00978783 0.0100556 0)
(0.0102472 0.0108293 0)
(0.0106744 0.0116756 0)
(0.0110697 0.0125975 0)
(0.0114336 0.0135975 0)
(0.0117666 0.0146781 0)
(0.0120689 0.015841 0)
(0.0123407 0.0170875 0)
(0.0125818 0.0184183 0)
(0.0127919 0.0198334 0)
(0.0129701 0.0213317 0)
(0.0131151 0.0229115 0)
(0.0132252 0.0245696 0)
(0.0132982 0.026302 0)
(0.0133316 0.0281033 0)
(0.0133221 0.0299667 0)
(0.0132666 0.0318841 0)
(0.0131612 0.0338461 0)
(0.0130022 0.0358417 0)
(0.0127858 0.0378587 0)
(0.0125082 0.0398833 0)
(0.0121659 0.041901 0)
(0.0117561 0.0438957 0)
(0.0112762 0.0458506 0)
(0.0107248 0.0477484 0)
(0.0101011 0.0495711 0)
(0.00940544 0.0513006 0)
(0.0086395 0.0529191 0)
(0.00780602 0.0544092 0)
(0.00690907 0.0557543 0)
(0.005954 0.0569388 0)
(0.00494735 0.057949 0)
(0.00389675 0.0587726 0)
(0.00281058 0.0593995 0)
(0.00169607 0.059822 0)
(0.000566226 0.0600344 0)
(0.000418199 0.00555481 0)
(0.00125222 0.00559977 0)
(0.00208073 0.00569007 0)
(0.00290075 0.0058265 0)
(0.00370842 0.00601022 0)
(0.00450062 0.00624276 0)
(0.00527448 0.006526 0)
(0.00602743 0.00686216 0)
(0.00675726 0.00725381 0)
(0.0074621 0.00770377 0)
(0.00814048 0.00821514 0)
(0.00879124 0.00879124 0)
(0.00941362 0.00943557 0)
(0.0100071 0.0101517 0)
(0.0105715 0.0109434 0)
(0.0111068 0.0118143 0)
(0.0116131 0.012768 0)
(0.0120905 0.0138079 0)
(0.0125392 0.0149372 0)
(0.0129593 0.0161587 0)
(0.0133505 0.0174746 0)
(0.0137123 0.0188868 0)
(0.0140439 0.0203962 0)
(0.014344 0.022003 0)
(0.0146107 0.0237064 0)
(0.0148418 0.0255044 0)
(0.0150343 0.0273939 0)
(0.0151847 0.0293703 0)
(0.015289 0.0314278 0)
(0.0153427 0.0335589 0)
(0.0153409 0.0357544 0)
(0.0152785 0.0380035 0)
(0.01515 0.0402939 0)
(0.0149503 0.0426115 0)
(0.0146741 0.0449407 0)
(0.0143168 0.0472644 0)
(0.0138744 0.0495641 0)
(0.0133435 0.0518204 0)
(0.0127219 0.0540128 0)
(0.0120087 0.0561206 0)
(0.0112041 0.0581224 0)
(0.0103101 0.0599973 0)
(0.0093301 0.0617246 0)
(0.00826931 0.063285 0)
(0.00713445 0.06466 0)
(0.00593385 0.0658332 0)
(0.00467721 0.0667901 0)
(0.00337528 0.0675187 0)
(0.00203773 0.0680098 0)
(0.000680543 0.0682568 0)
(0.000441875 0.00581524 0)
(0.00132346 0.00586508 0)
(0.00220015 0.00596521 0)
(0.00306938 0.00611652 0)
(0.00392772 0.00632033 0)
(0.0047724 0.00657841 0)
(0.00560095 0.00689291 0)
(0.00641114 0.00726639 0)
(0.0072011 0.00770179 0)
(0.00796926 0.00820236 0)
(0.00871438 0.00877169 0)
(0.00943557 0.00941362 0)
(0.0101322 0.0101322 0)
(0.0108039 0.0109316 0)
(0.0114504 0.0118162 0)
(0.0120718 0.0127903 0)
(0.012668 0.0138581 0)
(0.0132389 0.0150236 0)
(0.0137844 0.0162908 0)
(0.014304 0.0176629 0)
(0.014797 0.019143 0)
(0.0152623 0.0207331 0)
(0.015698 0.0224348 0)
(0.0161021 0.0242485 0)
(0.0164714 0.0261737 0)
(0.0168026 0.0282083 0)
(0.0170912 0.0303493 0)
(0.0173322 0.0325917 0)
(0.0175201 0.0349291 0)
(0.0176486 0.0373533 0)
(0.0177112 0.0398539 0)
(0.0177008 0.042419 0)
(0.0176102 0.0450346 0)
(0.0174326 0.0476846 0)
(0.017161 0.0503511 0)
(0.0167893 0.0530146 0)
(0.0163121 0.0556538 0)
(0.015725 0.0582462 0)
(0.015025 0.060768 0)
(0.0142106 0.0631948 0)
(0.0132821 0.065502 0)
(0.0122418 0.0676649 0)
(0.0110937 0.0696593 0)
(0.00984441 0.0714622 0)
(0.00850218 0.073052 0)
(0.00707742 0.0744092 0)
(0.0055823 0.0755168 0)
(0.00403035 0.0763605 0)
(0.00243415 0.0769293 0)
(0.000813198 0.0772154 0)
(0.000468044 0.00602998 0)
(0.00140219 0.0060849 0)
(0.00233216 0.00619525 0)
(0.00325587 0.00636204 0)
(0.00417031 0.00658678 0)
(0.0050732 0.00687148 0)
(0.00596246 0.00721861 0)
(0.00683631 0.00763108 0)
(0.00769323 0.00811225 0)
(0.00853201 0.00866585 0)
(0.00935173 0.009296 0)
(0.0101517 0.0100071 0)
(0.0109316 0.0108039 0)
(0.0116911 0.0116911 0)
(0.0124302 0.0126739 0)
(0.0131486 0.0137573 0)
(0.0138464 0.0149461 0)
(0.0145232 0.0162454 0)
(0.0151786 0.0176595 0)
(0.0158115 0.0191927 0)
(0.0164206 0.0208484 0)
(0.0170041 0.0226296 0)
(0.0175593 0.0245382 0)
(0.0180828 0.0265752 0)
(0.0185705 0.0287401 0)
(0.0190175 0.0310314 0)
(0.0194177 0.0334457 0)
(0.0197645 0.0359779 0)
(0.0200505 0.0386211 0)
(0.0202675 0.0413662 0)
(0.0204067 0.044202 0)
(0.0204592 0.047115 0)
(0.0204156 0.0500894 0)
(0.0202668 0.0531071 0)
(0.0200041 0.0561479 0)
(0.0196195 0.0591892 0)
(0.0191059 0.0622067 0)
(0.0184576 0.0651744 0)
(0.0176706 0.0680648 0)
(0.0167427 0.0708496 0)
(0.0156741 0.0734999 0)
(0.0144673 0.075987 0)
(0.0131274 0.0782825 0)
(0.011662 0.0803593 0)
(0.0100815 0.082192 0)
(0.00839865 0.0837576 0)
(0.00662847 0.0850359 0)
(0.00478777 0.08601 0)
(0.00289262 0.0866669 0)
(0.000966638 0.0869974 0)
(0.000496802 0.00619889 0)
(0.00148873 0.00625909 0)
(0.00247728 0.00638004 0)
(0.00346092 0.00656291 0)
(0.00443717 0.00680941 0)
(0.00540423 0.0071218 0)
(0.00636055 0.0075029 0)
(0.00730478 0.00795601 0)
(0.00823587 0.00848495 0)
(0.00915301 0.009094 0)
(0.0100556 0.00978783 0)
(0.0109434 0.0105715 0)
(0.0118162 0.0114504 0)
(0.0126739 0.0124302 0)
(0.0135166 0.0135166 0)
(0.014344 0.0147154 0)
(0.0151561 0.0160326 0)
(0.0159523 0.0174738 0)
(0.0167317 0.0190443 0)
(0.0174929 0.0207492 0)
(0.018234 0.0225929 0)
(0.0189521 0.0245789 0)
(0.0196436 0.0267099 0)
(0.020304 0.0289873 0)
(0.0209277 0.0314114 0)
(0.0215081 0.0339806 0)
(0.0220377 0.0366917 0)
(0.0225076 0.0395395 0)
(0.0229084 0.0425165 0)
(0.0232295 0.045613 0)
(0.02346 0.0488167 0)
(0.0235881 0.0521126 0)
(0.0236024 0.0554831 0)
(0.023491 0.0589078 0)
(0.0232431 0.0623638 0)
(0.0228481 0.0658254 0)
(0.0222973 0.0692648 0)
(0.0215831 0.0726521 0)
(0.0207002 0.0759555 0)
(0.0196458 0.0791423 0)
(0.0184195 0.0821788 0)
(0.0170243 0.0850314 0)
(0.015466 0.087667 0)
(0.0137539 0.0900536 0)
(0.0119005 0.0921616 0)
(0.00992128 0.0939635 0)
(0.00783471 0.0954356 0)
(0.00566141 0.0965579 0)
(0.00342158 0.0973151 0)
(0.00114369 0.0976961 0)
(0.000528244 0.00632242 0)
(0.00158334 0.00638808 0)
(0.00263598 0.00652 0)
(0.00368524 0.00671952 0)
(0.00472921 0.00698855 0)
(0.00576669 0.00732967 0)
(0.00679667 0.00774603 0)
(0.00781837 0.00824138 0)
(0.00883122 0.00882005 0)
(0.00983489 0.00948688 0)
(0.0108293 0.0102472 0)
(0.0118143 0.0111068 0)
(0.0127903 0.0120718 0)
(0.0137573 0.0131486 0)
(0.0147154 0.014344 0)
(0.0156647 0.0156647 0)
(0.0166048 0.0171174 0)
(0.017535 0.018709 0)
(0.018454 0.0204456 0)
(0.0193601 0.0223333 0)
(0.0202503 0.0243775 0)
(0.0211211 0.0265826 0)
(0.0219677 0.028952 0)
(0.0227843 0.0314881 0)
(0.0235638 0.0341916 0)
(0.0242978 0.0370613 0)
(0.0249766 0.0400943 0)
(0.0255894 0.0432853 0)
(0.0261241 0.0466265 0)
(0.0265677 0.0501074 0)
(0.0269063 0.0537146 0)
(0.0271256 0.0574317 0)
(0.0272108 0.0612392 0)
(0.0271475 0.0651143 0)
(0.0269217 0.0690309 0)
(0.0265206 0.0729602 0)
(0.0259326 0.0768703 0)
(0.0251483 0.0807269 0)
(0.0241608 0.0844935 0)
(0.022966 0.0881321 0)
(0.0215632 0.0916037 0)
(0.0199555 0.0948689 0)
(0.0181496 0.0978892 0)
(0.0161566 0.100627 0)
(0.0139914 0.103047 0)
(0.0116727 0.105118 0)
(0.00922292 0.10681 0)
(0.00666727 0.108101 0)
(0.00403076 0.108973 0)
(0.00134763 0.109411 0)
(0.000562457 0.00640158 0)
(0.0016863 0.00647286 0)
(0.00280872 0.00661609 0)
(0.00392947 0.00683278 0)
(0.00504732 0.00712508 0)
(0.0061617 0.00749586 0)
(0.00727226 0.00794869 0)
(0.00837881 0.00848779 0)
(0.00948137 0.00911802 0)
(0.0105802 0.00984487 0)
(0.0116756 0.0106744 0)
(0.012768 0.0116131 0)
(0.0138581 0.012668 0)
(0.0149461 0.0138464 0)
(0.0160326 0.0151561 0)
(0.0171174 0.0166048 0)
(0.0182004 0.0182004 0)
(0.0192804 0.0199506 0)
(0.0203561 0.0218631 0)
(0.0214248 0.0239448 0)
(0.0224832 0.0262023 0)
(0.0235266 0.0286411 0)
(0.0245492 0.0312657 0)
(0.0255435 0.0340793 0)
(0.0265009 0.0370834 0)
(0.0274109 0.0402774 0)
(0.0282616 0.0436588 0)
(0.0290398 0.0472223 0)
(0.0297304 0.0509599 0)
(0.0303177 0.0548606 0)
(0.0307843 0.05891 0)
(0.0311128 0.0630901 0)
(0.0312849 0.0673793 0)
(0.0312827 0.0717523 0)
(0.031089 0.07618 0)
(0.0306875 0.0806295 0)
(0.030064 0.0850648 0)
(0.0292063 0.0894465 0)
(0.0281054 0.0937327 0)
(0.0267559 0.0978795 0)
(0.0251564 0.101842 0)
(0.0233098 0.105573 0)
(0.0212241 0.109029 0)
(0.0189119 0.112165 0)
(0.0163912 0.11494 0)
(0.0136844 0.117317 0)
(0.0108184 0.119261 0)
(0.00782383 0.120744 0)
(0.00473143 0.121746 0)
(0.00158224 0.12225 0)
(0.00059952 0.00643787 0)
(0.00179785 0.00651491 0)
(0.0029959 0.00666976 0)
(0.00419422 0.00690408 0)
(0.00539229 0.00722028 0)
(0.0065903 0.00762157 0)
(0.0077886 0.00811195 0)
(0.0089877 0.00869615 0)
(0.0101883 0.00937962 0)
(0.0113912 0.0101685 0)
(0.0125975 0.0110697 0)
(0.0138079 0.0120905 0)
(0.0150236 0.0132389 0)
(0.0162454 0.0145232 0)
(0.0174738 0.0159523 0)
(0.018709 0.017535 0)
(0.0199506 0.0192804 0)
(0.0211977 0.0211977 0)
(0.0224482 0.0232955 0)
(0.0236993 0.0255824 0)
(0.0249466 0.0280661 0)
(0.0261845 0.0307535 0)
(0.027406 0.0336503 0)
(0.028602 0.0367607 0)
(0.0297619 0.0400872 0)
(0.0308732 0.0436303 0)
(0.0319215 0.0473877 0)
(0.0328905 0.0513547 0)
(0.0337625 0.0555232 0)
(0.0345178 0.0598816 0)
(0.0351358 0.0644146 0)
(0.0355949 0.0691028 0)
(0.035873 0.0739224 0)
(0.0359481 0.0788455 0)
(0.0357989 0.0838395 0)
(0.0354054 0.0888676 0)
(0.0347495 0.0938886 0)
(0.0338162 0.0988579 0)
(0.0325938 0.103727 0)
(0.0310749 0.108446 0)
(0.029257 0.112962 0)
(0.027143 0.117221 0)
(0.0247417 0.121171 0)
(0.022068 0.124759 0)
(0.0191427 0.127939 0)
(0.0159927 0.130663 0)
(0.0126504 0.132894 0)
(0.0091525 0.134598 0)
(0.00553665 0.135748 0)
(0.00185191 0.136328 0)
(0.0006395 0.00643327 0)
(0.00191819 0.0065162 0)
(0.00319788 0.0066829 0)
(0.00447999 0.00693522 0)
(0.00576482 0.00727585 0)
(0.00705338 0.00770837 0)
(0.00834683 0.00823721 0)
(0.00964648 0.00886766 0)
(0.0109538 0.00960582 0)
(0.0122703 0.0104586 0)
(0.0135975 0.0114336 0)
(0.0149372 0.0125392 0)
(0.0162908 0.0137844 0)
(0.0176595 0.0151786 0)
(0.0190443 0.0167317 0)
(0.0204456 0.018454 0)
(0.0218631 0.0203561 0)
(0.0232955 0.0224482 0)
(0.0247408 0.0247408 0)
(0.0261954 0.0272438 0)
(0.0276543 0.0299664 0)
(0.0291108 0.0329171 0)
(0.0305563 0.036103 0)
(0.0319805 0.0395298 0)
(0.0333705 0.0432012 0)
(0.0347114 0.0471187 0)
(0.0359861 0.0512811 0)
(0.0371752 0.0556839 0)
(0.0382573 0.0603194 0)
(0.039209 0.0651756 0)
(0.0400055 0.0702365 0)
(0.0406206 0.0754813 0)
(0.0410277 0.0808841 0)
(0.0411998 0.0864142 0)
(0.041111 0.0920354 0)
(0.0407366 0.0977062 0)
(0.0400543 0.10338 0)
(0.0390448 0.109007 0)
(0.0376935 0.114531 0)
(0.0359903 0.119894 0)
(0.0339312 0.125034 0)
(0.0315188 0.129891 0)
(0.0287627 0.134401 0)
(0.02568 0.138505 0)
(0.0222951 0.142145 0)
(0.0186398 0.145268 0)
(0.0147528 0.147827 0)
(0.0106781 0.149782 0)
(0.00646157 0.151104 0)
(0.00216174 0.151769 0)
(0.000682448 0.00639017 0)
(0.00204748 0.00647907 0)
(0.00341492 0.00665779 0)
(0.00478717 0.00692839 0)
(0.00616544 0.00729384 0)
(0.00755166 0.00775811 0)
(0.00894789 0.00832611 0)
(0.0103563 0.00900373 0)
(0.0117793 0.00979774 0)
(0.0132191 0.0107159 0)
(0.0146781 0.0117666 0)
(0.0161587 0.0129593 0)
(0.0176629 0.014304 0)
(0.0191927 0.0158115 0)
(0.0207492 0.0174929 0)
(0.0223333 0.0193601 0)
(0.0239448 0.0214248 0)
(0.0255824 0.0236993 0)
(0.0272438 0.0261954 0)
(0.0289249 0.0289249 0)
(0.0306199 0.0318987 0)
(0.0323211 0.0351271 0)
(0.0340187 0.038619 0)
(0.0357002 0.0423817 0)
(0.0373508 0.0464205 0)
(0.038953 0.0507383 0)
(0.0404866 0.055335 0)
(0.0419288 0.0602071 0)
(0.0432542 0.0653473 0)
(0.0444349 0.0707436 0)
(0.0454415 0.0763795 0)
(0.0462425 0.0822328 0)
(0.0468059 0.0882757 0)
(0.0470993 0.0944746 0)
(0.0470909 0.100789 0)
(0.0467505 0.107174 0)
(0.0460503 0.113576 0)
(0.0449667 0.119938 0)
(0.0434803 0.126196 0)
(0.0415782 0.132284 0)
(0.0392542 0.138131 0)
(0.0365101 0.143665 0)
(0.0333561 0.148813 0)
(0.0298116 0.153503 0)
(0.0259052 0.157669 0)
(0.0216743 0.161247 0)
(0.0171648 0.164182 0)
(0.0124295 0.166427 0)
(0.00752382 0.167944 0)
(0.00251765 0.168709 0)
(0.000728396 0.0063113 0)
(0.00218581 0.00640621 0)
(0.0036472 0.00659705 0)
(0.00511604 0.00688607 0)
(0.00659454 0.00727657 0)
(0.00808565 0.0077729 0)
(0.00959245 0.00838051 0)
(0.0111181 0.00910589 0)
(0.0126659 0.00995656 0)
(0.0142391 0.0109411 0)
(0.015841 0.0120689 0)
(0.0174746 0.0133505 0)
(0.019143 0.014797 0)
(0.0208484 0.0164206 0)
(0.0225929 0.018234 0)
(0.0243775 0.0202503 0)
(0.0262023 0.0224832 0)
(0.0280661 0.0249466 0)
(0.0299664 0.0276543 0)
(0.0318987 0.0306199 0)
(0.0338565 0.0338565 0)
(0.035831 0.0373764 0)
(0.0378109 0.0411905 0)
(0.039782 0.0453081 0)
(0.0417271 0.0497366 0)
(0.0436259 0.0544806 0)
(0.045455 0.0595416 0)
(0.0471875 0.0649173 0)
(0.0487938 0.0706011 0)
(0.0502413 0.0765817 0)
(0.0514946 0.0828421 0)
(0.0525169 0.0893591 0)
(0.0532695 0.0961031 0)
(0.0537135 0.103038 0)
(0.0538104 0.110119 0)
(0.0535233 0.117295 0)
(0.0528182 0.124508 0)
(0.0516652 0.131691 0)
(0.0500399 0.138775 0)
(0.0479251 0.14568 0)
(0.0453117 0.152325 0)
(0.0422001 0.158627 0)
(0.0386011 0.1645 0)
(0.0345364 0.16986 0)
(0.030039 0.174627 0)
(0.0251528 0.178728 0)
(0.0199322 0.182094 0)
(0.0144403 0.184671 0)
(0.00874399 0.186415 0)
(0.00292657 0.187294 0)
(0.000777356 0.00619967 0)
(0.00233322 0.00630059 0)
(0.00389478 0.00650353 0)
(0.0054667 0.00681099 0)
(0.00705227 0.00722655 0)
(0.0086556 0.00775502 0)
(0.0102809 0.00840237 0)
(0.0119324 0.00917576 0)
(0.0136144 0.0100835 0)
(0.0153314 0.0111349 0)
(0.0170875 0.0123407 0)
(0.0188868 0.0137123 0)
(0.0207331 0.0152623 0)
(0.0226296 0.0170041 0)
(0.0245789 0.0189521 0)
(0.0265826 0.0211211 0)
(0.0286411 0.0235266 0)
(0.0307535 0.0261845 0)
(0.0329171 0.0291108 0)
(0.0351271 0.0323211 0)
(0.0373764 0.035831 0)
(0.0396551 0.0396551 0)
(0.0419504 0.0438067 0)
(0.0442464 0.0482976 0)
(0.0465233 0.0531375 0)
(0.0487579 0.0583331 0)
(0.0509233 0.0638881 0)
(0.0529884 0.0698019 0)
(0.0549186 0.0760694 0)
(0.0566759 0.0826798 0)
(0.0582188 0.0896163 0)
(0.0595036 0.0968553 0)
(0.0604844 0.104365 0)
(0.0611147 0.112107 0)
(0.0613481 0.120033 0)
(0.0611395 0.128086 0)
(0.0604471 0.136201 0)
(0.0592338 0.144304 0)
(0.0574685 0.152313 0)
(0.0551287 0.160139 0)
(0.0522013 0.167688 0)
(0.0486846 0.174862 0)
(0.0445893 0.181562 0)
(0.0399395 0.187687 0)
(0.034773 0.193145 0)
(0.0291413 0.197845 0)
(0.0231085 0.201709 0)
(0.0167499 0.204669 0)
(0.0101462 0.206673 0)
(0.00339665 0.207684 0)
(0.000829311 0.00605851 0)
(0.00248967 0.00616537 0)
(0.0041576 0.00638031 0)
(0.00583906 0.00670603 0)
(0.00753857 0.00714646 0)
(0.00926147 0.00770685 0)
(0.0110132 0.00839372 0)
(0.0127992 0.00921492 0)
(0.0146251 0.0101796 0)
(0.0164963 0.011298 0)
(0.0184183 0.0125818 0)
(0.0203962 0.0140439 0)
(0.0224348 0.015698 0)
(0.0245382 0.0175593 0)
(0.0267099 0.0196436 0)
(0.028952 0.0219677 0)
(0.0312657 0.0245492 0)
(0.0336503 0.027406 0)
(0.036103 0.0305563 0)
(0.038619 0.0340187 0)
(0.0411905 0.0378109 0)
(0.0438067 0.0419504 0)
(0.0464534 0.0464534 0)
(0.0491128 0.0513346 0)
(0.0517626 0.0566062 0)
(0.0543765 0.0622781 0)
(0.0569238 0.0683563 0)
(0.0593688 0.0748426 0)
(0.0616717 0.0817338 0)
(0.0637882 0.0890206 0)
(0.0656702 0.0966869 0)
(0.067266 0.104709 0)
(0.0685216 0.113054 0)
(0.0693813 0.12168 0)
(0.0697895 0.130536 0)
(0.0696915 0.13956 0)
(0.0690361 0.148678 0)
(0.0677769 0.157807 0)
(0.0658749 0.166855 0)
(0.0633002 0.17572 0)
(0.0600347 0.184292 0)
(0.0560733 0.192458 0)
(0.0514262 0.200101 0)
(0.0461195 0.207103 0)
(0.0401964 0.213353 0)
(0.0337168 0.218744 0)
(0.0267564 0.223182 0)
(0.0194047 0.226586 0)
(0.011759 0.228892 0)
(0.00393747 0.230055 0)
(0.000884217 0.00589118 0)
(0.00265502 0.00600386 0)
(0.00443544 0.00623055 0)
(0.00623285 0.00657418 0)
(0.00805309 0.00703903 0)
(0.00990286 0.00763078 0)
(0.011789 0.00835657 0)
(0.0137182 0.00922492 0)
(0.0156975 0.0102458 0)
(0.0177337 0.0114306 0)
(0.0198334 0.0127919 0)
(0.022003 0.014344 0)
(0.0242485 0.0161021 0)
(0.0265752 0.0180828 0)
(0.0289873 0.020304 0)
(0.0314881 0.0227843 0)
(0.0340793 0.0255435 0)
(0.0367607 0.028602 0)
(0.0395298 0.0319805 0)
(0.0423817 0.0357002 0)
(0.0453081 0.039782 0)
(0.0482976 0.0442464 0)
(0.0513346 0.0491128 0)
(0.0543992 0.0543992 0)
(0.0574668 0.0601214 0)
(0.060508 0.0662924 0)
(0.0634878 0.0729216 0)
(0.0663659 0.0800139 0)
(0.0690966 0.0875686 0)