/*--------------------------------*- C++ -*----------------------------------*\
| =========                 |                                                 |
| \\      /  F ield         | OpenFOAM: The Open Source CFD Toolbox           |
|  \\    /   O peration     | Version:  2406                                  |
|   \\  /    A nd           | Website:  www.openfoam.com                      |
|    \\/     M anipulation  |                                                 |
\*---------------------------------------------------------------------------*/
FoamFile
{
    version     2.0;
    format      ascii;
    arch        "LSB;label=32;scalar=64";
    class       volScalarField;
    location    "1";
    object      gradTx;
}
// * * * * * * * * * * * * * * * * * * * * * * * * * * * * * * * * * * * * * //

dimensions      [0 -1 0 1 0 0 0];

internalField   nonuniform List<scalar> 
2500
(
0.00297021
0.00887651
0.0146992
0.0203907
0.0258934
0.0311586
0.0361409
0.0407992
0.0450973
0.0490041
0.0524941
0.0555481
0.0581524
0.0602998
0.0619889
0.0632242
0.0640158
0.0643787
0.0643327
0.0639017
0.063113
0.0619967
0.0605851
0.0589118
0.0570113
0.0549179
0.0526657
0.0502871
0.0478134
0.0452732
0.0426929
0.0400962
0.0375034
0.0349322
0.032397
0.0299089
0.0274765
0.0251055
0.022799
0.020558
0.0183816
0.0162671
0.0142104
0.0122066
0.0102494
0.00833205
0.00644704
0.00458627
0.00274204
0.00091159
0.002987
0.00892784
0.0147857
0.0205124
0.0260512
0.0313535
0.0363743
0.0410724
0.0454119
0.0493618
0.0528969
0.0559977
0.0586508
0.060849
0.0625909
0.0638808
0.0647286
0.0651491
0.065162
0.0647907
0.0640621
0.0630059
0.0616537
0.0600386
0.0581944
0.0561548
0.0539528
0.0516202
0.0491873
0.0466819
0.0441295
0.0415528
0.0389715
0.0364024
0.033859
0.0313521
0.0288896
0.0264769
0.0241169
0.0218107
0.0195573
0.0173545
0.0151988
0.0130858
0.0110105
0.00896719
0.00694955
0.00494971
0.00295506
0.000978513
0.00302154
0.00903156
0.0149591
0.0207567
0.026368
0.031745
0.0368428
0.041621
0.0460437
0.0500802
0.0537057
0.0569007
0.0596521
0.0619525
0.0638004
0.0652
0.0661609
0.0666976
0.066829
0.0665779
0.0659705
0.0650353
0.0638031
0.0623055
0.0605751
0.0586439
0.0565434
0.0543038
0.0519536
0.0495187
0.047023
0.0444872
0.0419295
0.0393649
0.0368056
0.0342612
0.0317385
0.0292422
0.0267748
0.0243372
0.0219289
0.0195483
0.0171929
0.01486
0.0125464
0.0102488
0.00796394
0.00568744
0.00340217
0.00112689
0.00307348
0.00918776
0.0152206
0.0211251
0.0268461
0.0323357
0.0375501
0.0424491
0.0469975
0.0511651
0.0549273
0.058265
0.0611652
0.0636204
0.0656291
0.0671952
0.0683278
0.0690408
0.0693522
0.0692839
0.0688607
0.0681099
0.0670603
0.0657418
0.0641848
0.0624192
0.060474
0.0583767
0.0561531
0.0538267
0.0514182
0.0489458
0.0464251
0.0438687
0.0412865
0.0386861
0.036073
0.0334504
0.0308204
0.0281837
0.0255402
0.0228893
0.0202303
0.0175625
0.0148857
0.0122001
0.00950621
0.00680362
0.00407768
0.00135271
0.00314324
0.00939756
0.0155719
0.0216204
0.0274886
0.03313
0.0385011
0.043563
0.0482808
0.0526252
0.0565719
0.0601022
0.0632033
0.0658678
0.0680941
0.0698855
0.0712508
0.0722028
0.0727585
0.0729384
0.0727657
0.0722655
0.0714646
0.0703903
0.06907
0.0675306
0.0657977
0.0638955
0.0618459
0.0596686
0.0573809
0.054997
0.0525289
0.0499859
0.0473748
0.0447005
0.0419663
0.039174
0.0363245
0.0334184
0.0304561
0.0274383
0.0243667
0.0212435
0.0180723
0.0148578
0.0116059
0.00832159
0.00499572
0.0016598
0.00323129
0.00966239
0.0160154
0.0222457
0.0283002
0.0341333
0.0397029
0.0449708
0.0499034
0.0544718
0.0586526
0.0624276
0.0657841
0.0687148
0.071218
0.0732967
0.0749586
0.0762157
0.0770837
0.0775811
0.077729
0.0775502
0.0770685
0.0763078
0.0752921
0.0740442
0.0725856
0.0709357
0.0691119
0.067129
0.0649993
0.0627324
0.0603354
0.0578133
0.0551689
0.0524035
0.0495176
0.0465108
0.0433827
0.0401336
0.0367644
0.0332778
0.0296778
0.0259709
0.0221654
0.0182719
0.014303
0.010271
0.00617443
0.00205407
0.00333821
0.00998399
0.0165541
0.0230053
0.0292862
0.0353526
0.0411638
0.0466828
0.0518772
0.0567191
0.0611859
0.06526
0.0689291
0.0721861
0.075029
0.0774603
0.0794869
0.0811195
0.0823721
0.0832611
0.0838051
0.0840237
0.0839372
0.0835657
0.0829284
0.0820434
0.0809268
0.0795925
0.078052
0.0763141
0.0743848
0.0722678
0.0699643
0.0674736
0.0647935
0.061921
0.0588526
0.0555852
0.0521168
0.048447
0.0445774
0.0405127
0.0362605
0.0318317
0.027241
0.0225062
0.0176483
0.0126891
0.00763648
0.0025431
0.00346466
0.0103644
0.0171913
0.023904
0.030453
0.0367959
0.0428936
0.0487108
0.0542163
0.0593836
0.0641909
0.0686216
0.0726639
0.0763108
0.0795601
0.0824138
0.0848779
0.0869615
0.0886766
0.0900373
0.0910589
0.0917576
0.0921492
0.0922492
0.0920715
0.0916281
0.0909288
0.0899807
0.0887881
0.0873525
0.0856723
0.0837438
0.0815609
0.0791162
0.076401
0.0734066
0.0701251
0.0665496
0.062676
0.0585028
0.0540326
0.0492723
0.0442336
0.0389331
0.0333929
0.0276396
0.0217047
0.0156214
0.00940961
0.00313619
0.00361141
0.0108058
0.0179308
0.0249473
0.0318079
0.0384724
0.0449037
0.0510683
0.0569368
0.0624841
0.0676898
0.0725381
0.0770179
0.0811225
0.0848495
0.0882005
0.0911802
0.0937962
0.0960582
0.0979774
0.0995656
0.100835
0.101796
0.102458
0.10283
0.102915
0.102718
0.102235
0.101464
0.100396
0.099021
0.0973266
0.0952977
0.0929182
0.090172
0.0870434
0.0835184
0.0795859
0.0752386
0.070474
0.0652953
0.0597119
0.0537403
0.047404
0.0407337
0.033767
0.0265477
0.019123
0.0115272
0.00384452
0.00377927
0.0113107
0.0187769
0.0261412
0.0333589
0.0403922
0.0472065
0.0537704
0.0600566
0.0660417
0.071707
0.0770377
0.0820236
0.0866585
0.09094
0.0948688
0.0984487
0.101685
0.104586
0.107159
0.109411
0.111349
0.11298
0.114306
0.115326
0.116039
0.116437
0.11651
0.116243
0.115619
0.114615
0.113209
0.111375
0.109086
0.106318
0.103045
0.0992474
0.0949076
0.0900146
0.0845643
0.0785602
0.0720148
0.0649498
0.0573969
0.0493972
0.0410009
0.0322669
0.023259
0.0140287
0.00468135
0.00396915
0.0118819
0.0197341
0.0274923
0.0351146
0.0425663
0.0498154
0.0568333
0.063595
0.0700793
0.0762691
0.0821514
0.0877169
0.09296
0.0978783
0.102472
0.106744
0.110697
0.114336
0.117666
0.120689
0.123407
0.125818
0.127919
0.129701
0.131151
0.132252
0.132982
0.133316
0.133221
0.132666
0.131612
0.130022
0.127858
0.125082
0.121659
0.117561
0.112762
0.107248
0.101011
0.0940544
0.086395
0.0780602
0.0690907
0.05954
0.0494735
0.0389675
0.0281058
0.0169607
0.00566226
0.00418199
0.0125222
0.0208073
0.0290075
0.0370842
0.0450062
0.0527448
0.0602743
0.0675726
0.074621
0.0814048
0.0879124
0.0941362
0.100071
0.105715
0.111068
0.116131
0.120905
0.125392
0.129593
0.133505
0.137123
0.140439
0.14344
0.146107
0.148418
0.150343
0.151847
0.15289
0.153427
0.153409
0.152785
0.1515
0.149503
0.146741
0.143168
0.138744
0.133435
0.127219
0.120087
0.112041
0.103101
0.093301
0.0826931
0.0713445
0.0593385
0.0467721
0.0337528
0.0203773
0.00680543
0.00441875
0.0132346
0.0220015
0.0306938
0.0392772
0.047724
0.0560095
0.0641114
0.072011
0.0796926
0.0871438
0.0943557
0.101322
0.108039
0.114504
0.120718
0.12668
0.132389
0.137844
0.14304
0.14797
0.152623
0.15698
0.161021
0.164714
0.168026
0.170912
0.173322
0.175201
0.176486
0.177112
0.177008
0.176102
0.174326
0.17161
0.167893
0.163121
0.15725
0.15025
0.142106
0.132821
0.122418
0.110937
0.0984441
0.0850218
0.0707742
0.055823
0.0403035
0.0243415
0.00813198
0.00468044
0.0140219
0.0233216
0.0325587
0.0417031
0.050732
0.0596246
0.0683631
0.0769323
0.0853201
0.0935173
0.101517
0.109316
0.116911
0.124302
0.131486
0.138464
0.145232
0.151786
0.158115
0.164206
0.170041
0.175593
0.180828
0.185705
0.190175
0.194177
0.197645
0.200505
0.202675
0.204067
0.204592
0.204156
0.202668
0.200041
0.196195
0.191059
0.184576
0.176706
0.167427
0.156741
0.144673
0.131274
0.11662
0.100815
0.0839865
0.0662847
0.0478777
0.0289262
0.00966638
0.00496802
0.0148873
0.0247728
0.0346092
0.0443717
0.0540423
0.0636055
0.0730478
0.0823587
0.0915301
0.100556
0.109434
0.118162
0.126739
0.135166
0.14344
0.151561
0.159523
0.167317
0.174929
0.18234
0.189521
0.196436
0.20304
0.209277
0.215081
0.220377
0.225076
0.229084
0.232295
0.2346
0.235881
0.236024
0.23491
0.232431
0.228481
0.222973
0.215831
0.207002
0.196458
0.184195
0.170243
0.15466
0.137539
0.119005
0.0992128
0.0783471
0.0566141
0.0342158
0.0114369
0.00528244
0.0158334
0.0263598
0.0368524
0.0472921
0.0576669
0.0679667
0.0781837
0.0883122
0.0983489
0.108293
0.118143
0.127903
0.137573
0.147154
0.156647
0.166048
0.17535
0.18454
0.193601
0.202503
0.211211
0.219677
0.227843
0.235638
0.242978
0.249766
0.255894
0.261241
0.265677
0.269063
0.271256
0.272108
0.271475
0.269217
0.265206
0.259326
0.251483
0.241608
0.22966
0.215632
0.199555
0.181496
0.161566
0.139914
0.116727
0.0922292
0.0666727
0.0403076
0.0134763
0.00562457
0.016863
0.0280872
0.0392947
0.0504732
0.061617
0.0727226
0.0837881
0.0948137
0.105802
0.116756
0.12768
0.138581
0.149461
0.160326
0.171174
0.182004
0.192804
0.203561
0.214248
0.224832
0.235266
0.245492
0.255435
0.265009
0.274109
0.282616
0.290398
0.297304
0.303177
0.307843
0.311128
0.312849
0.312827
0.31089
0.306875
0.30064
0.292063
0.281054
0.267559
0.251564
0.233098
0.212241
0.189119
0.163912
0.136844
0.108184
0.0782383
0.0473143
0.0158224
0.0059952
0.0179785
0.029959
0.0419422
0.0539229
0.065903
0.077886
0.089877
0.101883
0.113912
0.125975
0.138079
0.150236
0.162454
0.174738
0.18709
0.199506
0.211977
0.224482
0.236993
0.249466
0.261845
0.27406
0.28602
0.297619
0.308732
0.319215
0.328905
0.337625
0.345178
0.351358
0.355949
0.35873
0.359481
0.357989
0.354054
0.347495
0.338162
0.325938
0.310749
0.29257
0.27143
0.247417
0.22068
0.191427
0.159927
0.126504
0.091525
0.0553665
0.0185191
0.006395
0.0191819
0.0319788
0.0447999
0.0576482
0.0705338
0.0834683
0.0964648
0.109538
0.122703
0.135975
0.149372
0.162908
0.176595
0.190443
0.204456
0.218631
0.232955
0.247408
0.261954
0.276543
0.291108
0.305563
0.319805
0.333705
0.347114
0.359861
0.371752
0.382573
0.39209
0.400055
0.406206
0.410277
0.411998
0.41111
0.407366
0.400543
0.390448
0.376935
0.359903
0.339312
0.315188
0.287627
0.2568
0.222951
0.186398
0.147528
0.106781
0.0646157
0.0216174
0.00682448
0.0204748
0.0341492
0.0478717
0.0616544
0.0755166
0.0894789
0.103563
0.117793
0.132191
0.146781
0.161587
0.176629
0.191927
0.207492
0.223333
0.239448
0.255824
0.272438
0.289249
0.306199
0.323211
0.340187
0.357002
0.373508
0.38953
0.404866
0.419288
0.432542
0.444349
0.454415
0.462425
0.468059
0.470993
0.470909
0.467505
0.460503
0.449667
0.434803
0.415782
0.392542
0.365101
0.333561
0.298116
0.259052
0.216743
0.171648
0.124295
0.0752382
0.0251765
0.00728396
0.0218581
0.036472
0.0511604
0.0659454
0.0808565
0.0959245
0.111181
0.126659
0.142391
0.15841
0.174746
0.19143
0.208484
0.225929
0.243775
0.262023
0.280661
0.299664
0.318987
0.338565
0.35831
0.378109
0.39782
0.417271
0.436259
0.45455
0.471875
0.487938
0.502413
0.514946
0.525169
0.532695
0.537135
0.538104
0.535233
0.528182
0.516652
0.500399
0.479251
0.453117
0.422001
0.386011
0.345364
0.30039
0.251528
0.199322
0.144403
0.0874399
0.0292657
0.00777356
0.0233322
0.0389478
0.054667
0.0705227
0.086556
0.102809
0.119324
0.136144
0.153314
0.170875
0.188868
0.207331
0.226296
0.245789
0.265826
0.286411
0.307535
0.329171
0.351271
0.373764
0.396551
0.419504
0.442464
0.465233
0.487579
0.509233
0.529884
0.549186
0.566759
0.582188
0.595036
0.604844
0.611147
0.613481
0.611395
0.604471
0.592338
0.574685
0.551287
0.522013
0.486846
0.445893
0.399395
0.34773
0.291413
0.231085
0.167499
0.101462
0.0339665
0.00829311
0.0248967
0.041576
0.0583906
0.0753857
0.0926147
0.110132
0.127992
0.146251
0.164963
0.184183
0.203962
0.224348
0.245382
0.267099
0.28952
0.312657
0.336503
0.36103
0.38619
0.411905
0.438067
0.464534
0.491128
0.517626
0.543765
0.569238
0.593688
0.616717
0.637882
0.656702
0.67266
0.685216
0.693813
0.697895
0.696915
0.690361
0.677769
0.658749
0.633002
0.600347
0.560733
0.514262
0.461195
0.401964
0.337168
0.267564
0.194047
0.11759
0.0393747
0.00884217
0.0265502
0.0443544
0.0623285
0.0805309
0.0990286
0.11789
0.137182
0.156975
0.177337
0.198334
0.22003
0.242485
0.265752
0.289873
0.314881
0.340793
0.367607
0.395298
0.423817
0.453081
0.482976
0.513346
0.543992
0.574668
0.60508
0.634878
0.663659
0.690966
0.71629
0.73907
0.758706
0.77456
0.785973
0.792276
0.79281
0.786946
0.774112
0.753812
0.725658
0.689395
0.644929
0.592342
0.531917
0.464139
0.389702
0.309499
0.224595
0.136159
0.0456038
0.00941996
0.0282904
0.0472792
0.0664754
0.0859517
0.10579
0.126073
0.146884
0.168307
0.190424
0.213317
0.237064
0.261737
0.287401
0.314114
0.341916
0.370834
0.400872
0.432012
0.464205
0.497366
0.531375
0.566062
0.601214
0.636558
0.671768
0.706453
0.740158
0.772365
0.802491
0.829891
0.853866
0.87367
0.888522
0.897627
0.900188
0.89544
0.88267
0.861254
0.830688
0.790623
0.740895
0.681559
0.612906
0.535482
0.450086
0.357768
0.259794
0.157571
0.0527893
0.0100253
0.030114
0.0503448
0.0708235
0.0916382
0.112887
0.134669
0.157083
0.18023
0.204208
0.229115
0.255044
0.282083
0.310314
0.339806
0.370613
0.402774
0.436303
0.471187
0.507383
0.544806
0.583331
0.622781
0.662924
0.703467
0.744049
0.784238
0.823527
0.861332
0.896991
0.929765
0.958848
0.983369
1.00241
1.01503
1.02026
1.01718
1.0049
0.982631
0.949728
0.905712
0.850327
0.783575
0.705747
0.617446
0.519592
0.413415
0.300421
0.182305
0.0610931
0.0106568
0.0320164
0.0535436
0.0753621
0.0975768
0.120303
0.143657
0.167756
0.192718
0.21866
0.245696
0.273939
0.303493
0.334457
0.366917
0.400943
0.436588
0.473877
0.512811
0.55335
0.595416
0.638881
0.683563
0.729216
0.775527
0.822105
0.868475
0.914078
0.958261
1.00028
1.03929
1.07437
1.10451
1.12864
1.14563
1.15434
1.15362
1.14241
1.11969
1.08464
1.0366
0.975193
0.900337
0.812307
0.711757
0.599739
0.477693
0.347413
0.21094
0.0707112
0.0113125
0.0339917
0.056866
0.0800778
0.10375
0.128016
0.153012
0.178874
0.205739
0.233742
0.26302
0.293703
0.325917
0.359779
0.395395
0.432853
0.472223
0.513547
0.556839
0.602071
0.649173
0.698019
0.748426
0.800139
0.852827
0.906071
0.95936
1.01208
1.06351
1.11281
1.15904
1.20115
1.23796
1.26824
1.29065
1.30382
1.30638
1.297
1.27441
1.23754
1.18552
1.11779
1.03414
0.934802
0.820476
0.692353
0.552117
0.401902
0.244178
0.0818814
0.0119899
0.0360331
0.0603001
0.0849537
0.110136
0.136
0.162702
0.190399
0.219248
0.249407
0.281033
0.314278
0.349291
0.386211
0.425165
0.466265
0.509599
0.555232
0.603194
0.653473
0.706011
0.760694
0.817338
0.875686
0.935396
0.996025
1.05703
1.11774
1.17737
1.23499
1.28956
1.33987
1.38459
1.42227
1.45136
1.47023
1.47721
1.47066
1.44901
1.41086
1.35506
1.2808
1.18769
1.07588
0.946079
0.79964
0.638523
0.465274
0.282878
0.0948948
0.0126864
0.0381319
0.0638319
0.0899701
0.116709
0.144222
0.172688
0.202286
0.233194
0.265594
0.299667
0.335589
0.373533
0.413662
0.45613
0.501074
0.548606
0.598816
0.651756
0.707436
0.765817
0.826798
0.890206
0.955787
1.02319
1.09197
1.16153
1.23118
1.30006
1.36717
1.43132
1.49117
1.54522
1.5918
1.62908
1.65515
1.66798
1.66558
1.64597
1.60735
1.5482
1.46736
1.3642
1.2387
1.09156
0.924289
0.739165
0.539226
0.328099
0.110111
0.0133986
0.0402786
0.0674449
0.0951036
0.123438
0.152645
0.182926
0.21448
0.247514
0.282233
0.318841
0.357544
0.398539
0.44202
0.488167
0.537146
0.5891
0.644146
0.702365
0.763795
0.828421
0.896163
0.966869
1.0403
1.1161
1.19381
1.27285
1.35245
1.43172
1.50957
1.58469
1.65562
1.72064
1.77785
1.82514
1.86023
1.88073
1.88415
1.86807
1.83017
1.76842
1.6812
1.56751
1.42708
1.26057
1.0696
0.856821
0.625868
0.381157
0.127978
0.014123
0.0424619
0.0711205
0.100328
0.13029
0.161226
0.193361
0.226922
0.262137
0.299239
0.338461
0.380035
0.42419
0.47115
0.521126
0.574317
0.630901
0.691028
0.754813
0.822328
0.893591
0.968553
1.04709
1.12898
1.21389
1.30137
1.39081
1.48145
1.57234
1.6623
1.74996
1.83366
1.91153
1.98139
2.04083
2.08717
2.11756
2.12899
2.11842
2.08289
2.01972
1.92667
1.8022
1.64567
1.45757
1.23965
0.994951
0.727834
0.443701
0.149057
0.0148553
0.0446696
0.0748379
0.105613
0.137225
0.169916
0.203937
0.239539
0.27698
0.316518
0.358417
0.402939
0.450346
0.500894
0.554831
0.612392
0.673793
0.739224
0.808841
0.882757
0.961031
1.04365
1.13054
1.2215
1.31624
1.41432
1.51515
1.61795
1.72175
1.82532
1.92719
2.02558
2.11841
2.20326
2.27737
2.33765
2.3807
2.40288
2.40042
2.36956
2.30676
2.20894
2.07379
1.90012
1.6881
1.43952
1.15789
0.848448
0.51782
0.174059
0.015591
0.046888
0.0785741
0.110927
0.1442
0.178662
0.214587
0.252255
0.291951
0.333964
0.378587
0.426115
0.476846
0.531071
0.589078
0.651143
0.717523
0.788455
0.864142
0.944746
1.03038
1.12107
1.2168
1.31743
1.4227
1.53221
1.64541
1.76153
1.87959
1.99835
2.11626
2.23143
2.34161
2.44411
2.53584
2.61324
2.67233
2.70873
2.7178
2.69474
2.63492
2.53412
2.38896
2.19738
1.95902
1.6756
1.35115
0.991939
0.606175
0.203895
0.0163254
0.0491022
0.0823043
0.116234
0.151169
0.187404
0.22524
0.264984
0.30695
0.351458
0.398833
0.449407
0.503511
0.561479
0.623638
0.690309
0.7618
0.838395
0.920354
1.00789
1.10119
1.20033
1.30536
1.41621
1.53268
1.65443
1.78097
1.91158
2.0453
2.18089
2.31678
2.45099
2.58113
2.7043
2.81705
2.91535
2.99459
3.04954
3.07453
3.06351
3.0104
2.90946
2.75581
2.54605
2.27897
1.95603
1.58176
1.16374
0.712195
0.239735
0.017053
0.0512966
0.0860017
0.121497
0.158082
0.19608
0.235819
0.277633
0.321868
0.368873
0.41901
0.472644
0.530146
0.591892
0.658254
0.729602
0.806295
0.888676
0.977062
1.07174
1.17295
1.28086
1.3956
1.51716
1.64545
1.78021
1.92103
2.06726
2.21803
2.37213
2.528
2.68367
2.83662
2.98379
3.12142
3.24504
3.34934
3.42822
3.47477
3.48143
3.44029
3.34354
3.18417
2.95685
2.6589
2.2912
1.85879
1.37088
0.840322
0.283096
0.0177685
0.0534545
0.0896384
0.126674
0.164887
0.204625
0.246243
0.290106
0.336588
0.386074
0.438957
0.495641
0.556538
0.622067
0.692648
0.768703
0.850648
0.938886
1.0338
1.13576
1.24508
1.36201
1.48678
1.61948
1.76013
1.90858
2.06453
2.22748
2.39663
2.5709
2.7488
2.92841
3.1072
3.282
3.44885
3.60284
3.73804
3.8474
3.92265
3.95445
3.93257
3.84646
3.68611
3.44324
3.11284
2.69463
2.19409
1.62254
0.996348
0.335958
0.0184661
0.0555586
0.0931851
0.131724
0.171527
0.212967
0.256426
0.302299
0.35099
0.402916
0.458506
0.518204
0.582462
0.651744
0.726521
0.807269
0.894465
0.988579
1.09007
1.19938
1.31691
1.44304
1.57807
1.72224
1.87568
2.03839
2.21024
2.39085
2.57963
2.77564
2.97758
3.18364
3.39139
3.59768
3.79844
3.9885
4.16138
4.30911
4.42201
4.48868
4.49608
4.43006
4.27636
4.02227
3.65898
3.18405
2.60324
1.93077
1.18784
0.400894
0.0191399
0.0575912
0.0966119
0.136606
0.177947
0.221036
0.266282
0.314107
0.364946
0.41925
0.477484
0.540128
0.60768
0.680648
0.759555
0.844935
0.937327
1.03727
1.14531
1.26196
1.38775
1.52313
1.66855
1.82438
1.99091
2.16832
2.35664
2.55573
2.76521
2.98439
3.21222
3.44713
3.68694
3.92867
4.16833
4.40069
4.61893
4.81432
4.97585
5.08993
5.14022
5.10796
4.97295
4.71576
4.32128
3.78309
3.10699
2.31145
1.42467
0.481235
0.019784
0.0595344
0.0998886
0.141274
0.184089
0.228759
0.27572
0.325421
0.378329
0.434925
0.495711
0.561206
0.631948
0.708496
0.791423
0.881321
0.978795
1.08446
1.19894
1.32284
1.4568
1.60139
1.7572
1.92475
2.1045
2.29683
2.50202
2.72016
2.95118
3.19471
3.45004
3.71598
3.99076
4.27178
4.55541
4.83662
5.10863
5.36231
5.58563
5.76294
5.87433
5.89539
5.79783
5.55196
5.13196
4.52388
3.73321
2.78543
1.71947
0.581199
0.0203926
0.0613704
0.102985
0.145687
0.189897
0.236064
0.284651
0.336134
0.391008
0.449787
0.513006
0.581224
0.65502
0.734999
0.821788
0.916037
1.01842
1.12962
1.25034
1.38131
1.52325
1.67688
1.84292
2.02207
2.21498
2.42227
2.64445
2.88195
3.13502
3.40371
3.68776
3.98652
4.29879
4.62262
4.95502
5.29163
5.62618
5.9498
6.25012
6.51004
6.70637
6.80841
6.7773
6.56784
6.13548
5.4512
4.51962
3.37968
2.08796
0.705891
0.0209597
0.0630818
0.105871
0.149801
0.195314
0.24288
0.292988
0.346139
0.402856
0.463684
0.529191
0.599973
0.676649
0.75987
0.850314
0.948689
1.05573
1.17221
1.29891
1.43665
1.58627
1.74862
1.92458
2.11502
2.32081
2.54281
2.78183
3.03862
3.31386
3.60807
3.92155
4.25433
4.60597
4.97543
5.36077
5.75879
6.16442
6.56996
6.96389
7.32909
7.64047
7.86168
7.94155
7.81228
7.39579
6.62987
5.51755
4.12784
2.54821
0.860906
0.02148
0.0646516
0.10852
0.153577
0.200285
0.249139
0.300646
0.355333
0.41375
0.47647
0.544092
0.617246
0.696593
0.782825
0.87667
0.978892
1.09029
1.21171
1.34401
1.48813
1.645
1.81562
2.00101
2.20223
2.42038
2.65656
2.91191
3.18755
3.4846
3.80411
4.14706
4.51426
4.90624
5.32314
5.76444
6.22863
6.7127
7.2113
7.71545
8.21049
8.67266
9.06357
9.32148
9.34974
9.01049
8.15907
6.79607
5.06812
3.11758
1.05105
0.0219481
0.0660642
0.110903
0.156975
0.204761
0.254774
0.307544
0.363619
0.423572
0.488004
0.557543
0.63285
0.714622
0.803593
0.900536
1.00627
1.12165
1.24759
1.38505
1.53503
1.6986
1.87687
2.07103
2.28232
2.51205
2.76159
3.03239
3.32597
3.64392
3.98789
4.35955
4.76061
5.19274
5.65744
6.15598
6.68909
7.2566
7.8568
8.48536
9.13344
9.78418
10.4059
10.9377
11.2606
11.1424
10.2041
8.44284
6.2332
3.80439
1.27741
0.0223592
0.0673051
0.112996
0.15996
0.208694
0.259727
0.313608
0.370905
0.432214
0.498157
0.569388
0.6466
0.73052
0.82192
0.921616
1.03047
1.1494
1.27939
1.42145
1.57669
1.74627
1.93145
2.13353
2.35394
2.59421
2.85596
3.14096
3.45112
3.78849
4.15532
4.55404
4.9873
5.45795
5.96907
6.52391
7.12582
7.77812
8.48382
9.24514
10.0626
10.933
11.8455
12.7698
13.6184
14.0997
13.0762
10.5413
7.61971
4.59086
1.53226
0.0227092
0.0683612
0.114778
0.162501
0.212041
0.263943
0.318771
0.377111
0.439577
0.50681
0.57949
0.658332
0.744092
0.837576
0.939635
1.05118
1.17317
1.30663
1.45268
1.61247
1.78728
1.97845
2.18744
2.41584
2.66535
2.93786
3.23542
3.5603
3.91501
4.30238
4.72556
5.18814
5.69418
6.24831
6.85586
7.52296
8.25668
9.06525
9.95834
10.9476
12.048
13.2809
14.6844
16.3498
18.5669
17.4639
13.0301
9.11572
5.40858
1.7937
0.0229944
0.0692218
0.116229
0.164569
0.214766
0.267375
0.322976
0.382166
0.445575
0.513863
0.587726
0.667901
0.755168
0.850359
0.954356
1.0681
1.19261
1.32894
1.47827
1.64182
1.82094
2.01709
2.23182
2.46686
2.7241
3.00562
3.31372
3.65102
4.02043
4.42528
4.8694
5.35722
5.89391
6.48559
7.13951
7.86442
8.67096
9.57228
10.585
11.7307
13.039
14.5533
16.344
18.5355
21.3595
20.1867
15.0027
10.4068
6.13556
2.02834
0.0232117
0.0698781
0.117335
0.166143
0.216838
0.269985
0.326173
0.386011
0.450139
0.51923
0.593995
0.675187
0.763605
0.8601
0.965579
1.08101
1.20744
1.34598
1.49782
1.66427
1.84671
2.04669
2.26586
2.50604
2.76927
3.05779
3.37412
3.72112
4.10206
4.52068
4.98135
5.48922
6.05038
6.67218
7.3635
8.13529
9.00113
9.97815
11.0883
12.3603
13.8324
15.5573
17.6096
20.095
23.1541
21.9252
16.3907
11.3757
6.69999
2.21313
0.0233578
0.0703229
0.118083
0.167204
0.218233
0.271743
0.328326
0.3886
0.453213
0.522846
0.59822
0.680098
0.769293
0.866669
0.973151
1.08973
1.21746
1.35748
1.51104
1.67944
1.86415
2.06673
2.28892
2.53261
2.79993
3.09324
3.41521
3.76888
4.15775
4.58587
5.058
5.5798
6.15802
6.80088
7.51845
8.32322
9.23085
10.2612
11.4396
12.7989
14.3814
16.2418
18.4493
21.0871
24.242
22.9739
17.2627
12.0076
7.07711
2.33799
0.0234247
0.0705382
0.118457
0.167736
0.218934
0.272626
0.329408
0.389901
0.454758
0.524664
0.600344
0.682568
0.772154
0.869974
0.976961
1.09411
1.2225
1.36328
1.51769
1.68709
1.87294
2.07684
2.30055
2.54602
2.81542
3.11116
3.43599
3.79306
4.18598
4.61895
5.09695
5.62588
6.21286
6.86655
7.59765
8.41944
9.34865
10.4065
11.6199
13.0236
14.6611
16.5869
18.8658
21.5683
24.7583
23.4699
17.6821
12.3173
7.2644
2.40042
)
;

boundaryField
{
    walls
    {
        type            calculated;
        value           nonuniform List<scalar> 
200
(
0.0234247
0.0705382
0.118457
0.167736
0.218934
0.272626
0.329408
0.389901
0.454758
0.524664
0.600344
0.682568
0.772154
0.869974
0.976961
1.09411
1.2225
1.36328
1.51769
1.68709
1.87294
2.07684
2.30055
2.54602
2.81542
3.11116
3.43599
3.79306
4.18598
4.61895
5.09695
5.62588
6.21286
6.86655
7.59765
8.41944
9.34865
10.4065
11.6199
13.0236
14.6611
16.5869
18.8658
21.5683
24.7583
23.4699
17.6821
12.3173
7.2644
2.40042
0
0
0
0
0
0
0
0
0
0
0
0
0
0
0
0
0
0
0
0
0
0
0
0
0
0
0
0
0
0
0
0
0
0
0
0
0
0
0
0
0
0
0
0
0
0
0
0
0
0
0
0
0
0
0
0
0
0
0
0
0
0
0
0
0
0
0
0
0
0
0
0
0
0
0
0
0
0
0
0
0
0
0
0
0
0
0
0
0
0
0
0
0
0
0
0
0
0
0
0
0.00297021
0.00887651
0.0146992
0.0203907
0.0258934
0.0311586
0.0361409
0.0407992
0.0450973
0.0490041
0.0524941
0.0555481
0.0581524
0.0602998
0.0619889
0.0632242
0.0640158
0.0643787
0.0643327
0.0639017
0.063113
0.0619967
0.0605851
0.0589118
0.0570113
0.0549179
0.0526657
0.0502871
0.0478134
0.0452732
0.0426929
0.0400962
0.0375034
0.0349322
0.032397
0.0299089
0.0274765
0.0251055
0.022799
0.020558
0.0183816
0.0162671
0.0142104
0.0122066
0.0102494
0.00833205
0.00644704
0.00458627
0.00274204
0.00091159
)
;
    }
    frontAndBack
    {
        type            empty;
    }
}


// ************************************************************************* //
