/*--------------------------------*- C++ -*----------------------------------*\
| =========                 |                                                 |
| \\      /  F ield         | OpenFOAM: The Open Source CFD Toolbox           |
|  \\    /   O peration     | Version:  2406                                  |
|   \\  /    A nd           | Website:  www.openfoam.com                      |
|    \\/     M anipulation  |                                                 |
\*---------------------------------------------------------------------------*/
FoamFile
{
    version     2.0;
    format      ascii;
    arch        "LSB;label=32;scalar=64";
    class       volScalarField;
    location    "1";
    object      gradTy;
}
// * * * * * * * * * * * * * * * * * * * * * * * * * * * * * * * * * * * * * //

dimensions      [0 -1 0 1 0 0 0];

internalField   nonuniform List<scalar> 
2500
(
0.00297021
0.002987
0.00302154
0.00307348
0.00314324
0.00323129
0.00333821
0.00346466
0.00361141
0.00377927
0.00396915
0.00418199
0.00441875
0.00468044
0.00496802
0.00528244
0.00562457
0.0059952
0.006395
0.00682448
0.00728396
0.00777356
0.00829311
0.00884217
0.00941996
0.0100253
0.0106568
0.0113125
0.0119899
0.0126864
0.0133986
0.014123
0.0148553
0.015591
0.0163254
0.017053
0.0177685
0.0184661
0.0191399
0.019784
0.0203926
0.0209597
0.02148
0.0219481
0.0223592
0.0227092
0.0229944
0.0232117
0.0233578
0.0234247
0.00887651
0.00892784
0.00903156
0.00918776
0.00939756
0.00966239
0.00998399
0.0103644
0.0108058
0.0113107
0.0118819
0.0125222
0.0132346
0.0140219
0.0148873
0.0158334
0.016863
0.0179785
0.0191819
0.0204748
0.0218581
0.0233322
0.0248967
0.0265502
0.0282904
0.030114
0.0320164
0.0339917
0.0360331
0.0381319
0.0402786
0.0424619
0.0446696
0.046888
0.0491022
0.0512966
0.0534545
0.0555586
0.0575912
0.0595344
0.0613704
0.0630818
0.0646516
0.0660642
0.0673051
0.0683612
0.0692218
0.0698781
0.0703229
0.0705382
0.0146992
0.0147857
0.0149591
0.0152206
0.0155719
0.0160154
0.0165541
0.0171913
0.0179308
0.0187769
0.0197341
0.0208073
0.0220015
0.0233216
0.0247728
0.0263598
0.0280872
0.029959
0.0319788
0.0341492
0.036472
0.0389478
0.041576
0.0443544
0.0472792
0.0503448
0.0535436
0.056866
0.0603001
0.0638319
0.0674449
0.0711205
0.0748379
0.0785741
0.0823043
0.0860017
0.0896384
0.0931851
0.0966119
0.0998886
0.102985
0.105871
0.10852
0.110903
0.112996
0.114778
0.116229
0.117335
0.118083
0.118457
0.0203907
0.0205124
0.0207567
0.0211251
0.0216204
0.0222457
0.0230053
0.023904
0.0249473
0.0261412
0.0274923
0.0290075
0.0306938
0.0325587
0.0346092
0.0368524
0.0392947
0.0419422
0.0447999
0.0478717
0.0511604
0.054667
0.0583906
0.0623285
0.0664754
0.0708235
0.0753621
0.0800778
0.0849537
0.0899701
0.0951036
0.100328
0.105613
0.110927
0.116234
0.121497
0.126674
0.131724
0.136606
0.141274
0.145687
0.149801
0.153577
0.156975
0.15996
0.162501
0.164569
0.166143
0.167204
0.167736
0.0258934
0.0260512
0.026368
0.0268461
0.0274886
0.0283002
0.0292862
0.030453
0.0318079
0.0333589
0.0351146
0.0370842
0.0392772
0.0417031
0.0443717
0.0472921
0.0504732
0.0539229
0.0576482
0.0616544
0.0659454
0.0705227
0.0753857
0.0805309
0.0859517
0.0916382
0.0975768
0.10375
0.110136
0.116709
0.123438
0.13029
0.137225
0.1442
0.151169
0.158082
0.164887
0.171527
0.177947
0.184089
0.189897
0.195314
0.200285
0.204761
0.208694
0.212041
0.214766
0.216838
0.218233
0.218934
0.0311586
0.0313535
0.031745
0.0323357
0.03313
0.0341333
0.0353526
0.0367959
0.0384724
0.0403922
0.0425663
0.0450062
0.047724
0.050732
0.0540423
0.0576669
0.061617
0.065903
0.0705338
0.0755166
0.0808565
0.086556
0.0926147
0.0990286
0.10579
0.112887
0.120303
0.128016
0.136
0.144222
0.152645
0.161226
0.169916
0.178662
0.187404
0.19608
0.204625
0.212967
0.221036
0.228759
0.236064
0.24288
0.249139
0.254774
0.259727
0.263943
0.267375
0.269985
0.271743
0.272626
0.0361409
0.0363743
0.0368428
0.0375501
0.0385011
0.0397029
0.0411638
0.0428936
0.0449037
0.0472065
0.0498154
0.0527448
0.0560095
0.0596246
0.0636055
0.0679667
0.0727226
0.077886
0.0834683
0.0894789
0.0959245
0.102809
0.110132
0.11789
0.126073
0.134669
0.143657
0.153012
0.162702
0.172688
0.182926
0.193361
0.203937
0.214587
0.22524
0.235819
0.246243
0.256426
0.266282
0.27572
0.284651
0.292988
0.300646
0.307544
0.313608
0.318771
0.322976
0.326173
0.328326
0.329408
0.0407992
0.0410724
0.041621
0.0424491
0.043563
0.0449708
0.0466828
0.0487108
0.0510683
0.0537704
0.0568333
0.0602743
0.0641114
0.0683631
0.0730478
0.0781837
0.0837881
0.089877
0.0964648
0.103563
0.111181
0.119324
0.127992
0.137182
0.146884
0.157083
0.167756
0.178874
0.190399
0.202286
0.21448
0.226922
0.239539
0.252255
0.264984
0.277633
0.290106
0.302299
0.314107
0.325421
0.336134
0.346139
0.355333
0.363619
0.370905
0.377111
0.382166
0.386011
0.3886
0.389901
0.0450973
0.0454119
0.0460437
0.0469975
0.0482808
0.0499034
0.0518772
0.0542163
0.0569368
0.0600566
0.063595
0.0675726
0.072011
0.0769323
0.0823587
0.0883122
0.0948137
0.101883
0.109538
0.117793
0.126659
0.136144
0.146251
0.156975
0.168307
0.18023
0.192718
0.205739
0.219248
0.233194
0.247514
0.262137
0.27698
0.291951
0.30695
0.321868
0.336588
0.35099
0.364946
0.378329
0.391008
0.402856
0.41375
0.423572
0.432214
0.439577
0.445575
0.450139
0.453213
0.454758
0.0490041
0.0493618
0.0500802
0.0511651
0.0526252
0.0544718
0.0567191
0.0593836
0.0624841
0.0660417
0.0700793
0.074621
0.0796926
0.0853201
0.0915301
0.0983489
0.105802
0.113912
0.122703
0.132191
0.142391
0.153314
0.164963
0.177337
0.190424
0.204208
0.21866
0.233742
0.249407
0.265594
0.282233
0.299239
0.316518
0.333964
0.351458
0.368873
0.386074
0.402916
0.41925
0.434925
0.449787
0.463684
0.47647
0.488004
0.498157
0.50681
0.513863
0.51923
0.522846
0.524664
0.0524941
0.0528969
0.0537057
0.0549273
0.0565719
0.0586526
0.0611859
0.0641909
0.0676898
0.071707
0.0762691
0.0814048
0.0871438
0.0935173
0.100556
0.108293
0.116756
0.125975
0.135975
0.146781
0.15841
0.170875
0.184183
0.198334
0.213317
0.229115
0.245696
0.26302
0.281033
0.299667
0.318841
0.338461
0.358417
0.378587
0.398833
0.41901
0.438957
0.458506
0.477484
0.495711
0.513006
0.529191
0.544092
0.557543
0.569388
0.57949
0.587726
0.593995
0.59822
0.600344
0.0555481
0.0559977
0.0569007
0.058265
0.0601022
0.0624276
0.06526
0.0686216
0.0725381
0.0770377
0.0821514
0.0879124
0.0943557
0.101517
0.109434
0.118143
0.12768
0.138079
0.149372
0.161587
0.174746
0.188868
0.203962
0.22003
0.237064
0.255044
0.273939
0.293703
0.314278
0.335589
0.357544
0.380035
0.402939
0.426115
0.449407
0.472644
0.495641
0.518204
0.540128
0.561206
0.581224
0.599973
0.617246
0.63285
0.6466
0.658332
0.667901
0.675187
0.680098
0.682568
0.0581524
0.0586508
0.0596521
0.0611652
0.0632033
0.0657841
0.0689291
0.0726639
0.0770179
0.0820236
0.0877169
0.0941362
0.101322
0.109316
0.118162
0.127903
0.138581
0.150236
0.162908
0.176629
0.19143
0.207331
0.224348
0.242485
0.261737
0.282083
0.303493
0.325917
0.349291
0.373533
0.398539
0.42419
0.450346
0.476846
0.503511
0.530146
0.556538
0.582462
0.60768
0.631948
0.65502
0.676649
0.696593
0.714622
0.73052
0.744092
0.755168
0.763605
0.769293
0.772154
0.0602998
0.060849
0.0619525
0.0636204
0.0658678
0.0687148
0.0721861
0.0763108
0.0811225
0.0866585
0.09296
0.100071
0.108039
0.116911
0.126739
0.137573
0.149461
0.162454
0.176595
0.191927
0.208484
0.226296
0.245382
0.265752
0.287401
0.310314
0.334457
0.359779
0.386211
0.413662
0.44202
0.47115
0.500894
0.531071
0.561479
0.591892
0.622067
0.651744
0.680648
0.708496
0.734999
0.75987
0.782825
0.803593
0.82192
0.837576
0.850359
0.8601
0.866669
0.869974
0.0619889
0.0625909
0.0638004
0.0656291
0.0680941
0.071218
0.075029
0.0795601
0.0848495
0.09094
0.0978783
0.105715
0.114504
0.124302
0.135166
0.147154
0.160326
0.174738
0.190443
0.207492
0.225929
0.245789
0.267099
0.289873
0.314114
0.339806
0.366917
0.395395
0.425165
0.45613
0.488167
0.521126
0.554831
0.589078
0.623638
0.658254
0.692648
0.726521
0.759555
0.791423
0.821788
0.850314
0.87667
0.900536
0.921616
0.939635
0.954356
0.965579
0.973151
0.976961
0.0632242
0.0638808
0.0652
0.0671952
0.0698855
0.0732967
0.0774603
0.0824138
0.0882005
0.0948688
0.102472
0.111068
0.120718
0.131486
0.14344
0.156647
0.171174
0.18709
0.204456
0.223333
0.243775
0.265826
0.28952
0.314881
0.341916
0.370613
0.400943
0.432853
0.466265
0.501074
0.537146
0.574317
0.612392
0.651143
0.690309
0.729602
0.768703
0.807269
0.844935
0.881321
0.916037
0.948689
0.978892
1.00627
1.03047
1.05118
1.0681
1.08101
1.08973
1.09411
0.0640158
0.0647286
0.0661609
0.0683278
0.0712508
0.0749586
0.0794869
0.0848779
0.0911802
0.0984487
0.106744
0.116131
0.12668
0.138464
0.151561
0.166048
0.182004
0.199506
0.218631
0.239448
0.262023
0.286411
0.312657
0.340793
0.370834
0.402774
0.436588
0.472223
0.509599
0.548606
0.5891
0.630901
0.673793
0.717523
0.7618
0.806295
0.850648
0.894465
0.937327
0.978795
1.01842
1.05573
1.09029
1.12165
1.1494
1.17317
1.19261
1.20744
1.21746
1.2225
0.0643787
0.0651491
0.0666976
0.0690408
0.0722028
0.0762157
0.0811195
0.0869615
0.0937962
0.101685
0.110697
0.120905
0.132389
0.145232
0.159523
0.17535
0.192804
0.211977
0.232955
0.255824
0.280661
0.307535
0.336503
0.367607
0.400872
0.436303
0.473877
0.513547
0.555232
0.598816
0.644146
0.691028
0.739224
0.788455
0.838395
0.888676
0.938886
0.988579
1.03727
1.08446
1.12962
1.17221
1.21171
1.24759
1.27939
1.30663
1.32894
1.34598
1.35748
1.36328
0.0643327
0.065162
0.066829
0.0693522
0.0727585
0.0770837
0.0823721
0.0886766
0.0960582
0.104586
0.114336
0.125392
0.137844
0.151786
0.167317
0.18454
0.203561
0.224482
0.247408
0.272438
0.299664
0.329171
0.36103
0.395298
0.432012
0.471187
0.512811
0.556839
0.603194
0.651756
0.702365
0.754813
0.808841
0.864142
0.920354
0.977062
1.0338
1.09007
1.14531
1.19894
1.25034
1.29891
1.34401
1.38505
1.42145
1.45268
1.47827
1.49782
1.51104
1.51769
0.0639017
0.0647907
0.0665779
0.0692839
0.0729384
0.0775811
0.0832611
0.0900373
0.0979774
0.107159
0.117666
0.129593
0.14304
0.158115
0.174929
0.193601
0.214248
0.236993
0.261954
0.289249
0.318987
0.351271
0.38619
0.423817
0.464205
0.507383
0.55335
0.602071
0.653473
0.707436
0.763795
0.822328
0.882757
0.944746
1.00789
1.07174
1.13576
1.19938
1.26196
1.32284
1.38131
1.43665
1.48813
1.53503
1.57669
1.61247
1.64182
1.66427
1.67944
1.68709
0.063113
0.0640621
0.0659705
0.0688607
0.0727657
0.077729
0.0838051
0.0910589
0.0995656
0.109411
0.120689
0.133505
0.14797
0.164206
0.18234
0.202503
0.224832
0.249466
0.276543
0.306199
0.338565
0.373764
0.411905
0.453081
0.497366
0.544806
0.595416
0.649173
0.706011
0.765817
0.828421
0.893591
0.961031
1.03038
1.10119
1.17295
1.24508
1.31691
1.38775
1.4568
1.52325
1.58627
1.645
1.6986
1.74627
1.78728
1.82094
1.84671
1.86415
1.87294
0.0619967
0.0630059
0.0650353
0.0681099
0.0722655
0.0775502
0.0840237
0.0917576
0.100835
0.111349
0.123407
0.137123
0.152623
0.170041
0.189521
0.211211
0.235266
0.261845
0.291108
0.323211
0.35831
0.396551
0.438067
0.482976
0.531375
0.583331
0.638881
0.698019
0.760694
0.826798
0.896163
0.968553
1.04365
1.12107
1.20033
1.28086
1.36201
1.44304
1.52313
1.60139
1.67688
1.74862
1.81562
1.87687
1.93145
1.97845
2.01709
2.04669
2.06673
2.07684
0.0605851
0.0616537
0.0638031
0.0670603
0.0714646
0.0770685
0.0839372
0.0921492
0.101796
0.11298
0.125818
0.140439
0.15698
0.175593
0.196436
0.219677
0.245492
0.27406
0.305563
0.340187
0.378109
0.419504
0.464534
0.513346
0.566062
0.622781
0.683563
0.748426
0.817338
0.890206
0.966869
1.04709
1.13054
1.2168
1.30536
1.3956
1.48678
1.57807
1.66855
1.7572
1.84292
1.92458
2.00101
2.07103
2.13353
2.18744
2.23182
2.26586
2.28892
2.30055
0.0589118
0.0600386
0.0623055
0.0657418
0.0703903
0.0763078
0.0835657
0.0922492
0.102458
0.114306
0.127919
0.14344
0.161021
0.180828
0.20304
0.227843
0.255435
0.28602
0.319805
0.357002
0.39782
0.442464
0.491128
0.543992
0.601214
0.662924
0.729216
0.800139
0.875686
0.955787
1.0403
1.12898
1.2215
1.31743
1.41621
1.51716
1.61948
1.72224
1.82438
1.92475
2.02207
2.11502
2.20223
2.28232
2.35394
2.41584
2.46686
2.50604
2.53261
2.54602
0.0570113
0.0581944
0.0605751
0.0641848
0.06907
0.0752921
0.0829284
0.0920715
0.10283
0.115326
0.129701
0.146107
0.164714
0.185705
0.209277
0.235638
0.265009
0.297619
0.333705
0.373508
0.417271
0.465233
0.517626
0.574668
0.636558
0.703467
0.775527
0.852827
0.935396
1.02319
1.1161
1.21389
1.31624
1.4227
1.53268
1.64545
1.76013
1.87568
1.99091
2.1045
2.21498
2.32081
2.42038
2.51205
2.59421
2.66535
2.7241
2.76927
2.79993
2.81542
0.0549179
0.0561548
0.0586439
0.0624192
0.0675306
0.0740442
0.0820434
0.0916281
0.102915
0.116039
0.131151
0.148418
0.168026
0.190175
0.215081
0.242978
0.274109
0.308732
0.347114
0.38953
0.436259
0.487579
0.543765
0.60508
0.671768
0.744049
0.822105
0.906071
0.996025
1.09197
1.19381
1.30137
1.41432
1.53221
1.65443
1.78021
1.90858
2.03839
2.16832
2.29683
2.42227
2.54281
2.65656
2.76159
2.85596
2.93786
3.00562
3.05779
3.09324
3.11116
0.0526657
0.0539528
0.0565434
0.060474
0.0657977
0.0725856
0.0809268
0.0909288
0.102718
0.116437
0.132252
0.150343
0.170912
0.194177
0.220377
0.249766
0.282616
0.319215
0.359861
0.404866
0.45455
0.509233
0.569238
0.634878
0.706453
0.784238
0.868475
0.95936
1.05703
1.16153
1.27285
1.39081
1.51515
1.64541
1.78097
1.92103
2.06453
2.21024
2.35664
2.50202
2.64445
2.78183
2.91191
3.03239
3.14096
3.23542
3.31372
3.37412
3.41521
3.43599
0.0502871
0.0516202
0.0543038
0.0583767
0.0638955
0.0709357
0.0795925
0.0899807
0.102235
0.11651
0.132982
0.151847
0.173322
0.197645
0.225076
0.255894
0.290398
0.328905
0.371752
0.419288
0.471875
0.529884
0.593688
0.663659
0.740158
0.823527
0.914078
1.01208
1.11774
1.23118
1.35245
1.48145
1.61795
1.76153
1.91158
2.06726
2.22748
2.39085
2.55573
2.72016
2.88195
3.03862
3.18755
3.32597
3.45112
3.5603
3.65102
3.72112
3.76888
3.79306
0.0478134
0.0491873
0.0519536
0.0561531
0.0618459
0.0691119
0.078052
0.0887881
0.101464
0.116243
0.133316
0.15289
0.175201
0.200505
0.229084
0.261241
0.297304
0.337625
0.382573
0.432542
0.487938
0.549186
0.616717
0.690966
0.772365
0.861332
0.958261
1.06351
1.17737
1.30006
1.43172
1.57234
1.72175
1.87959
2.0453
2.21803
2.39663
2.57963
2.76521
2.95118
3.13502
3.31386
3.4846
3.64392
3.78849
3.91501
4.02043
4.10206
4.15775
4.18598
0.0452732
0.0466819
0.0495187
0.0538267
0.0596686
0.067129
0.0763141
0.0873525
0.100396
0.115619
0.133221
0.153427
0.176486
0.202675
0.232295
0.265677
0.303177
0.345178
0.39209
0.444349
0.502413
0.566759
0.637882
0.71629
0.802491
0.896991
1.00028
1.11281
1.23499
1.36717
1.50957
1.6623
1.82532
1.99835
2.18089
2.37213
2.5709
2.77564
2.98439
3.19471
3.40371
3.60807
3.80411
3.98789
4.15532
4.30238
4.42528
4.52068
4.58587
4.61895
0.0426929
0.0441295
0.047023
0.0514182
0.0573809
0.0649993
0.0743848
0.0856723
0.099021
0.114615
0.132666
0.153409
0.177112
0.204067
0.2346
0.269063
0.307843
0.351358
0.400055
0.454415
0.514946
0.582188
0.656702
0.73907
0.829891
0.929765
1.03929
1.15904
1.28956
1.43132
1.58469
1.74996
1.92719
2.11626
2.31678
2.528
2.7488
2.97758
3.21222
3.45004
3.68776
3.92155
4.14706
4.35955
4.55404
4.72556
4.8694
4.98135
5.058
5.09695
0.0400962
0.0415528
0.0444872
0.0489458
0.054997
0.0627324
0.0722678
0.0837438
0.0973266
0.113209
0.131612
0.152785
0.177008
0.204592
0.235881
0.271256
0.311128
0.355949
0.406206
0.462425
0.525169
0.595036
0.67266
0.758706
0.853866
0.958848
1.07437
1.20115
1.33987
1.49117
1.65562
1.83366
2.02558
2.23143
2.45099
2.68367
2.92841
3.18364
3.44713
3.71598
3.98652
4.25433
4.51426
4.76061
4.9873
5.18814
5.35722
5.48922
5.5798
5.62588
0.0375034
0.0389715
0.0419295
0.0464251
0.0525289
0.0603354
0.0699643
0.0815609
0.0952977
0.111375
0.130022
0.1515
0.176102
0.204156
0.236024
0.272108
0.312849
0.35873
0.410277
0.468059
0.532695
0.604844
0.685216
0.77456
0.87367
0.983369
1.10451
1.23796
1.38459
1.54522
1.72064
1.91153
2.11841
2.34161
2.58113
2.83662
3.1072
3.39139
3.68694
3.99076
4.29879
4.60597
4.90624
5.19274
5.45795
5.69418
5.89391
6.05038
6.15802
6.21286
0.0349322
0.0364024
0.0393649
0.0438687
0.0499859
0.0578133
0.0674736
0.0791162
0.0929182
0.109086
0.127858
0.149503
0.174326
0.202668
0.23491
0.271475
0.312827
0.359481
0.411998
0.470993
0.537135
0.611147
0.693813
0.785973
0.888522
1.00241
1.12864
1.26824
1.42227
1.5918
1.77785
1.98139
2.20326
2.44411
2.7043
2.98379
3.282
3.59768
3.92867
4.27178
4.62262
4.97543
5.32314
5.65744
5.96907
6.24831
6.48559
6.67218
6.80088
6.86655
0.032397
0.033859
0.0368056
0.0412865
0.0473748
0.0551689
0.0647935
0.076401
0.090172
0.106318
0.125082
0.146741
0.17161
0.200041
0.232431
0.269217
0.31089
0.357989
0.41111
0.470909
0.538104
0.613481
0.697895
0.792276
0.897627
1.01503
1.14563
1.29065
1.45136
1.62908
1.82514
2.04083
2.27737
2.53584
2.81705
3.12142
3.44885
3.79844
4.16833
4.55541
4.95502
5.36077
5.76444
6.15598
6.52391
6.85586
7.13951
7.3635
7.51845
7.59765
0.0299089
0.0313521
0.0342612
0.0386861
0.0447005
0.0524035
0.061921
0.0734066
0.0870434
0.103045
0.121659
0.143168
0.167893
0.196195
0.228481
0.265206
0.306875
0.354054
0.407366
0.467505
0.535233
0.611395
0.696915
0.79281
0.900188
1.02026
1.15434
1.30382
1.47023
1.65515
1.86023
2.08717
2.33765
2.61324
2.91535
3.24504
3.60284
3.9885
4.40069
4.83662
5.29163
5.75879
6.22863
6.68909
7.12582
7.52296
7.86442
8.13529
8.32322
8.41944
0.0274765
0.0288896
0.0317385
0.036073
0.0419663
0.0495176
0.0588526
0.0701251
0.0835184
0.0992474
0.117561
0.138744
0.163121
0.191059
0.222973
0.259326
0.30064
0.347495
0.400543
0.460503
0.528182
0.604471
0.690361
0.786946
0.89544
1.01718
1.15362
1.30638
1.47721
1.66798
1.88073
2.11756
2.3807
2.67233
2.99459
3.34934
3.73804
4.16138
4.61893
5.10863
5.62618
6.16442
6.7127
7.2566
7.77812
8.25668
8.67096
9.00113
9.23085
9.34865
0.0251055
0.0264769
0.0292422
0.0334504
0.039174
0.0465108
0.0555852
0.0665496
0.0795859
0.0949076
0.112762
0.133435
0.15725
0.184576
0.215831
0.251483
0.292063
0.338162
0.390448
0.449667
0.516652
0.592338
0.677769
0.774112
0.88267
1.0049
1.14241
1.297
1.47066
1.66558
1.88415
2.12899
2.40288
2.70873
3.04954
3.42822
3.8474
4.30911
4.81432
5.36231
5.9498
6.56996
7.2113
7.8568
8.48382
9.06525
9.57228
9.97815
10.2612
10.4065
0.022799
0.0241169
0.0267748
0.0308204
0.0363245
0.0433827
0.0521168
0.062676
0.0752386
0.0900146
0.107248
0.127219
0.15025
0.176706
0.207002
0.241608
0.281054
0.325938
0.376935
0.434803
0.500399
0.574685
0.658749
0.753812
0.861254
0.982631
1.11969
1.27441
1.44901
1.64597
1.86807
2.11842
2.40042
2.7178
3.07453
3.47477
3.92265
4.42201
4.97585
5.58563
6.25012
6.96389
7.71545
8.48536
9.24514
9.95834
10.585
11.0883
11.4396
11.6199
0.020558
0.0218107
0.0243372
0.0281837
0.0334184
0.0401336
0.048447
0.0585028
0.070474
0.0845643
0.101011
0.120087
0.142106
0.167427
0.196458
0.22966
0.267559
0.310749
0.359903
0.415782
0.479251
0.551287
0.633002
0.725658
0.830688
0.949728
1.08464
1.23754
1.41086
1.60735
1.83017
2.08289
2.36956
2.69474
3.06351
3.48143
3.95445
4.48868
5.08993
5.76294
6.51004
7.32909
8.21049
9.13344
10.0626
10.9476
11.7307
12.3603
12.7989
13.0236
0.0183816
0.0195573
0.0219289
0.0255402
0.0304561
0.0367644
0.0445774
0.0540326
0.0652953
0.0785602
0.0940544
0.112041
0.132821
0.156741
0.184195
0.215632
0.251564
0.29257
0.339312
0.392542
0.453117
0.522013
0.600347
0.689395
0.790623
0.905712
1.0366
1.18552
1.35506
1.5482
1.76842
2.01972
2.30676
2.63492
3.0104
3.44029
3.93257
4.49608
5.14022
5.87433
6.70637
7.64047
8.67266
9.78418
10.933
12.048
13.039
13.8324
14.3814
14.6611
0.0162671
0.0173545
0.0195483
0.0228893
0.0274383
0.0332778
0.0405127
0.0492723
0.0597119
0.0720148
0.086395
0.103101
0.122418
0.144673
0.170243
0.199555
0.233098
0.27143
0.315188
0.365101
0.422001
0.486846
0.560733
0.644929
0.740895
0.850327
0.975193
1.11779
1.2808
1.46736
1.6812
1.92667
2.20894
2.53412
2.90946
3.34354
3.84646
4.43006
5.10796
5.89539
6.80841
7.86168
9.06357
10.4059
11.8455
13.2809
14.5533
15.5573
16.2418
16.5869
0.0142104
0.0151988
0.0171929
0.0202303
0.0243667
0.0296778
0.0362605
0.0442336
0.0537403
0.0649498
0.0780602
0.093301
0.110937
0.131274
0.15466
0.181496
0.212241
0.247417
0.287627
0.333561
0.386011
0.445893
0.514262
0.592342
0.681559
0.783575
0.900337
1.03414
1.18769
1.3642
1.56751
1.8022
2.07379
2.38896
2.75581
3.18417
3.68611
4.27636
4.97295
5.79783
6.7773
7.94155
9.32148
10.9377
12.7698
14.6844
16.344
17.6096
18.4493
18.8658
0.0122066
0.0130858
0.01486
0.0175625
0.0212435
0.0259709
0.0318317
0.0389331
0.047404
0.0573969
0.0690907
0.0826931
0.0984441
0.11662
0.137539
0.161566
0.189119
0.22068
0.2568
0.298116
0.345364
0.399395
0.461195
0.531917
0.612906
0.705747
0.812307
0.934802
1.07588
1.2387
1.42708
1.64567
1.90012
2.19738
2.54605
2.95685
3.44324
4.02227
4.71576
5.55196
6.56784
7.81228
9.34974
11.2606
13.6184
16.3498
18.5355
20.095
21.0871
21.5683
0.0102494
0.0110105
0.0125464
0.0148857
0.0180723
0.0221654
0.027241
0.0333929
0.0407337
0.0493972
0.05954
0.0713445
0.0850218
0.100815
0.119005
0.139914
0.163912
0.191427
0.222951
0.259052
0.30039
0.34773
0.401964
0.464139
0.535482
0.617446
0.711757
0.820476
0.946079
1.09156
1.26057
1.45757
1.6881
1.95902
2.27897
2.6589
3.11284
3.65898
4.32128
5.13196
6.13548
7.39579
9.01049
11.1424
14.0997
18.5669
21.3595
23.1541
24.242
24.7583
0.00833205
0.00896719
0.0102488
0.0122001
0.0148578
0.0182719
0.0225062
0.0276396
0.033767
0.0410009
0.0494735
0.0593385
0.0707742
0.0839865
0.0992128
0.116727
0.136844
0.159927
0.186398
0.216743
0.251528
0.291413
0.337168
0.389702
0.450086
0.519592
0.599739
0.692353
0.79964
0.924289
1.0696
1.23965
1.43952
1.6756
1.95603
2.2912
2.69463
3.18405
3.78309
4.52388
5.4512
6.62987
8.15907
10.2041
13.0762
17.4639
20.1867
21.9252
22.9739
23.4699
0.00644704
0.00694955
0.00796394
0.00950621
0.0116059
0.014303
0.0176483
0.0217047
0.0265477
0.0322669
0.0389675
0.0467721
0.055823
0.0662847
0.0783471
0.0922292
0.108184
0.126504
0.147528
0.171648
0.199322
0.231085
0.267564
0.309499
0.357768
0.413415
0.477693
0.552117
0.638523
0.739165
0.856821
0.994951
1.15789
1.35115
1.58176
1.85879
2.19409
2.60324
3.10699
3.73321
4.51962
5.51755
6.79607
8.44284
10.5413
13.0301
15.0027
16.3907
17.2627
17.6821
0.00458627
0.00494971
0.00568744
0.00680362
0.00832159
0.010271
0.0126891
0.0156214
0.019123
0.023259
0.0281058
0.0337528
0.0403035
0.0478777
0.0566141
0.0666727
0.0782383
0.091525
0.106781
0.124295
0.144403
0.167499
0.194047
0.224595
0.259794
0.300421
0.347413
0.401902
0.465274
0.539226
0.625868
0.727834
0.848448
0.991939
1.16374
1.37088
1.62254
1.93077
2.31145
2.78543
3.37968
4.12784
5.06812
6.2332
7.61971
9.11572
10.4068
11.3757
12.0076
12.3173
0.00274204
0.00295506
0.00340217
0.00407768
0.00499572
0.00617443
0.00763648
0.00940961
0.0115272
0.0140287
0.0169607
0.0203773
0.0243415
0.0289262
0.0342158
0.0403076
0.0473143
0.0553665
0.0646157
0.0752382
0.0874399
0.101462
0.11759
0.136159
0.157571
0.182305
0.21094
0.244178
0.282878
0.328099
0.381157
0.443701
0.51782
0.606175
0.712195
0.840322
0.996348
1.18784
1.42467
1.71947
2.08796
2.54821
3.11758
3.80439
4.59086
5.40858
6.13556
6.69999
7.07711
7.2644
0.00091159
0.000978513
0.00112689
0.00135271
0.0016598
0.00205407
0.0025431
0.00313619
0.00384452
0.00468135
0.00566226
0.00680543
0.00813198
0.00966638
0.0114369
0.0134763
0.0158224
0.0185191
0.0216174
0.0251765
0.0292657
0.0339665
0.0393747
0.0456038
0.0527893
0.0610931
0.0707112
0.0818814
0.0948948
0.110111
0.127978
0.149057
0.174059
0.203895
0.239735
0.283096
0.335958
0.400894
0.481235
0.581199
0.705891
0.860906
1.05105
1.27741
1.53226
1.7937
2.02834
2.21313
2.33799
2.40042
)
;

boundaryField
{
    walls
    {
        type            calculated;
        value           nonuniform List<scalar> 
200
(
0
0
0
0
0
0
0
0
0
0
0
0
0
0
0
0
0
0
0
0
0
0
0
0
0
0
0
0
0
0
0
0
0
0
0
0
0
0
0
0
0
0
0
0
0
0
0
0
0
0
0.00297021
0.00887651
0.0146992
0.0203907
0.0258934
0.0311586
0.0361409
0.0407992
0.0450973
0.0490041
0.0524941
0.0555481
0.0581524
0.0602998
0.0619889
0.0632242
0.0640158
0.0643787
0.0643327
0.0639017
0.063113
0.0619967
0.0605851
0.0589118
0.0570113
0.0549179
0.0526657
0.0502871
0.0478134
0.0452732
0.0426929
0.0400962
0.0375034
0.0349322
0.032397
0.0299089
0.0274765
0.0251055
0.022799
0.020558
0.0183816
0.0162671
0.0142104
0.0122066
0.0102494
0.00833205
0.00644704
0.00458627
0.00274204
0.00091159
0.0234247
0.0705382
0.118457
0.167736
0.218934
0.272626
0.329408
0.389901
0.454758
0.524664
0.600344
0.682568
0.772154
0.869974
0.976961
1.09411
1.2225
1.36328
1.51769
1.68709
1.87294
2.07684
2.30055
2.54602
2.81542
3.11116
3.43599
3.79306
4.18598
4.61895
5.09695
5.62588
6.21286
6.86655
7.59765
8.41944
9.34865
10.4065
11.6199
13.0236
14.6611
16.5869
18.8658
21.5683
24.7583
23.4699
17.6821
12.3173
7.2644
2.40042
0
0
0
0
0
0
0
0
0
0
0
0
0
0
0
0
0
0
0
0
0
0
0
0
0
0
0
0
0
0
0
0
0
0
0
0
0
0
0
0
0
0
0
0
0
0
0
0
0
0
)
;
    }
    frontAndBack
    {
        type            empty;
    }
}


// ************************************************************************* //
