/*--------------------------------*- C++ -*----------------------------------*\
| =========                 |                                                 |
| \\      /  F ield         | OpenFOAM: The Open Source CFD Toolbox           |
|  \\    /   O peration     | Version:  2406                                  |
|   \\  /    A nd           | Website:  www.openfoam.com                      |
|    \\/     M anipulation  |                                                 |
\*---------------------------------------------------------------------------*/
FoamFile
{
    version     2.0;
    format      ascii;
    arch        "LSB;label=32;scalar=64";
    class       volScalarField;
    location    "1";
    object      T;
}
// * * * * * * * * * * * * * * * * * * * * * * * * * * * * * * * * * * * * * //

dimensions      [0 0 0 1 0 0 0];

internalField   nonuniform List<scalar> 
2500
(
0.184868
0.184987
0.185223
0.185575
0.186039
0.186611
0.187285
0.188057
0.188917
0.18986
0.190878
0.19196
0.1931
0.194286
0.195512
0.196766
0.19804
0.199327
0.200616
0.2019
0.203172
0.204424
0.205652
0.206848
0.208008
0.209128
0.210205
0.211235
0.212216
0.213147
0.214027
0.214855
0.215631
0.216355
0.217028
0.217651
0.218225
0.21875
0.219229
0.219662
0.220051
0.220397
0.220702
0.220966
0.22119
0.221376
0.221523
0.221634
0.221707
0.221743
0.184987
0.185107
0.185344
0.185698
0.186165
0.18674
0.187419
0.188195
0.189062
0.190012
0.191036
0.192128
0.193276
0.194474
0.19571
0.196977
0.198265
0.199566
0.200871
0.202173
0.203463
0.204735
0.205983
0.207201
0.208385
0.209529
0.210631
0.211687
0.212696
0.213655
0.214563
0.21542
0.216225
0.216979
0.217681
0.218333
0.218935
0.219489
0.219994
0.220453
0.220867
0.221236
0.221561
0.221844
0.222085
0.222284
0.222443
0.222562
0.222641
0.22268
0.185223
0.185344
0.185585
0.185943
0.186415
0.186997
0.187685
0.188471
0.18935
0.190313
0.191353
0.192461
0.193629
0.194847
0.196107
0.197399
0.198715
0.200046
0.201383
0.202719
0.204046
0.205358
0.206647
0.20791
0.20914
0.210333
0.211485
0.212595
0.213658
0.214673
0.215638
0.216554
0.217418
0.218231
0.218992
0.219703
0.220363
0.220973
0.221533
0.222044
0.222506
0.222921
0.223288
0.223608
0.223882
0.22411
0.224292
0.224429
0.22452
0.224565
0.185575
0.185698
0.185943
0.186307
0.186788
0.187381
0.188081
0.188883
0.189779
0.190763
0.191826
0.19296
0.194156
0.195406
0.196701
0.198032
0.199389
0.200765
0.202151
0.203539
0.204922
0.206293
0.207646
0.208976
0.210276
0.211543
0.212773
0.213962
0.215108
0.216208
0.217261
0.218265
0.219219
0.220122
0.220973
0.221773
0.222521
0.223216
0.223859
0.224449
0.224986
0.225471
0.225902
0.22628
0.226604
0.226875
0.227092
0.227256
0.227365
0.227419
0.186039
0.186165
0.186415
0.186788
0.18728
0.187887
0.188605
0.189427
0.190348
0.191359
0.192453
0.193621
0.194857
0.19615
0.197491
0.198873
0.200287
0.201723
0.203175
0.204634
0.206092
0.207544
0.208983
0.210403
0.211799
0.213166
0.2145
0.215798
0.217056
0.218271
0.219442
0.220567
0.221642
0.222668
0.223642
0.224563
0.22543
0.226241
0.226997
0.227694
0.228333
0.228913
0.229431
0.229887
0.230281
0.23061
0.230875
0.231075
0.231208
0.231274
0.186611
0.18674
0.186997
0.187381
0.187887
0.188513
0.189253
0.190101
0.191051
0.192097
0.19323
0.194443
0.195727
0.197075
0.198476
0.199923
0.201408
0.202922
0.204457
0.206005
0.20756
0.209114
0.210662
0.212197
0.213714
0.215209
0.216676
0.218112
0.219513
0.220876
0.222198
0.223476
0.224708
0.22589
0.22702
0.228097
0.229116
0.230077
0.230977
0.231813
0.232582
0.233283
0.233913
0.23447
0.234952
0.235357
0.235683
0.235929
0.236094
0.236176
0.187285
0.187419
0.187685
0.188081
0.188605
0.189253
0.190019
0.190899
0.191886
0.192974
0.194155
0.195422
0.196766
0.198179
0.199653
0.20118
0.202751
0.204359
0.205996
0.207654
0.209327
0.211007
0.212688
0.214364
0.21603
0.217681
0.219312
0.220918
0.222496
0.22404
0.225548
0.227016
0.228439
0.229814
0.231138
0.232406
0.233615
0.23476
0.235838
0.236845
0.237776
0.238628
0.239397
0.240078
0.24067
0.241168
0.24157
0.241874
0.242078
0.242179
0.188057
0.188195
0.188471
0.188883
0.189427
0.190101
0.190899
0.191817
0.192848
0.193985
0.195223
0.196553
0.197968
0.19946
0.20102
0.202642
0.204317
0.206037
0.207795
0.209584
0.211397
0.213226
0.215067
0.216912
0.218757
0.220595
0.222422
0.224232
0.226021
0.227784
0.229515
0.231211
0.232865
0.234473
0.23603
0.237529
0.238966
0.240334
0.241628
0.242841
0.243968
0.245003
0.245939
0.246772
0.247496
0.248108
0.248602
0.248976
0.249227
0.249352
0.188917
0.189062
0.18935
0.189779
0.190348
0.191051
0.191886
0.192848
0.193929
0.195125
0.196429
0.197833
0.19933
0.200913
0.202575
0.204307
0.206103
0.207955
0.209855
0.211797
0.213774
0.21578
0.217807
0.219851
0.221906
0.223965
0.226022
0.228073
0.230112
0.232132
0.234127
0.236093
0.238021
0.239905
0.241737
0.243511
0.245219
0.246852
0.248402
0.249862
0.251221
0.252473
0.25361
0.254623
0.255506
0.256252
0.256857
0.257314
0.257622
0.257775
0.18986
0.190012
0.190313
0.190763
0.191359
0.192097
0.192974
0.193985
0.195125
0.196388
0.197767
0.199256
0.200848
0.202537
0.204315
0.206174
0.208109
0.210112
0.212177
0.214296
0.216463
0.218672
0.220917
0.223191
0.225489
0.227804
0.230131
0.232462
0.234791
0.237112
0.239416
0.241696
0.243944
0.246151
0.248308
0.250404
0.25243
0.254374
0.256226
0.257975
0.259609
0.261117
0.262489
0.263715
0.264785
0.265691
0.266425
0.266981
0.267355
0.267543
0.190878
0.191036
0.191353
0.191826
0.192453
0.19323
0.194155
0.195223
0.196429
0.197767
0.199232
0.200817
0.202518
0.204326
0.206236
0.208241
0.210335
0.212511
0.214763
0.217085
0.21947
0.221912
0.224406
0.226945
0.229523
0.232133
0.234769
0.237423
0.240088
0.242756
0.245417
0.248062
0.250681
0.253263
0.255796
0.258266
0.260662
0.262969
0.265172
0.267259
0.269213
0.271021
0.272669
0.274143
0.275432
0.276525
0.277411
0.278084
0.278535
0.278762
0.19196
0.192128
0.192461
0.19296
0.193621
0.194443
0.195422
0.196553
0.197833
0.199256
0.200817
0.202512
0.204334
0.206278
0.208337
0.210506
0.21278
0.215151
0.217616
0.220167
0.222799
0.225507
0.228284
0.231125
0.234022
0.236969
0.239959
0.242983
0.246033
0.249098
0.25217
0.255235
0.258281
0.261295
0.264261
0.267164
0.269988
0.272714
0.275325
0.277803
0.280129
0.282285
0.284253
0.286017
0.287561
0.28887
0.289934
0.290741
0.291284
0.291556
0.1931
0.193276
0.193629
0.194156
0.194857
0.195727
0.196766
0.197968
0.19933
0.200848
0.202518
0.204334
0.206292
0.208387
0.210614
0.212967
0.215442
0.218034
0.220738
0.223548
0.226459
0.229467
0.232564
0.235746
0.239005
0.242335
0.245726
0.249171
0.252659
0.256179
0.259719
0.263264
0.266799
0.270308
0.273772
0.277172
0.280488
0.283697
0.286778
0.289707
0.292462
0.29502
0.297359
0.299457
0.301296
0.302858
0.304127
0.305091
0.305739
0.306065
0.194286
0.194474
0.194847
0.195406
0.19615
0.197075
0.198179
0.19946
0.200913
0.202537
0.204326
0.206278
0.208387
0.21065
0.213063
0.215622
0.218323
0.221161
0.224132
0.227232
0.230457
0.2338
0.237258
0.240824
0.244491
0.248252
0.252098
0.25602
0.260004
0.26404
0.268111
0.272202
0.276295
0.280369
0.284402
0.28837
0.292249
0.296013
0.299632
0.303081
0.30633
0.309351
0.312117
0.314602
0.316781
0.318634
0.320141
0.321286
0.322056
0.322443
0.195512
0.19571
0.196107
0.196701
0.197491
0.198476
0.199653
0.20102
0.202575
0.204315
0.206236
0.208337
0.210614
0.213063
0.215683
0.21847
0.221421
0.224532
0.227802
0.231225
0.234799
0.238519
0.24238
0.246376
0.250501
0.254747
0.259104
0.263562
0.268108
0.272726
0.277399
0.28211
0.286835
0.291551
0.296231
0.300848
0.30537
0.309767
0.314004
0.318047
0.321862
0.325415
0.328672
0.331601
0.334173
0.336361
0.338142
0.339495
0.340406
0.340864
0.196766
0.196977
0.197399
0.198032
0.198873
0.199923
0.20118
0.202642
0.204307
0.206174
0.208241
0.210506
0.212967
0.215622
0.21847
0.221508
0.224736
0.22815
0.23175
0.235532
0.239494
0.243632
0.247942
0.252419
0.257056
0.261845
0.266775
0.271835
0.277011
0.282285
0.287638
0.293047
0.298488
0.303932
0.309347
0.3147
0.319955
0.325073
0.330015
0.334738
0.339201
0.343363
0.347183
0.350623
0.353646
0.35622
0.358315
0.359909
0.360982
0.361521
0.19804
0.198265
0.198715
0.199389
0.200287
0.201408
0.202751
0.204317
0.206103
0.208109
0.210335
0.21278
0.215442
0.218323
0.221421
0.224736
0.228268
0.232016
0.23598
0.240158
0.24455
0.249152
0.25396
0.258971
0.264178
0.269572
0.275142
0.280876
0.286758
0.292769
0.298885
0.305082
0.31133
0.317596
0.323843
0.330032
0.336118
0.342057
0.347801
0.3533
0.358503
0.363362
0.367827
0.371852
0.375392
0.378408
0.380866
0.382736
0.383995
0.384628
0.199327
0.199566
0.200046
0.200765
0.201723
0.202922
0.204359
0.206037
0.207955
0.210112
0.212511
0.215151
0.218034
0.221161
0.224532
0.22815
0.232016
0.236131
0.240495
0.24511
0.249975
0.255088
0.260449
0.266051
0.271889
0.277956
0.284239
0.290724
0.297395
0.304229
0.311202
0.318284
0.32544
0.332633
0.339819
0.346952
0.353981
0.360852
0.367508
0.37389
0.379938
0.385592
0.390795
0.395489
0.399622
0.403146
0.406019
0.408206
0.40968
0.410421
0.200616
0.200871
0.201383
0.202151
0.203175
0.204457
0.205996
0.207795
0.209855
0.212177
0.214763
0.217616
0.220738
0.224132
0.227802
0.23175
0.23598
0.240495
0.245298
0.250391
0.255776
0.261453
0.267421
0.273676
0.280213
0.287024
0.294097
0.301418
0.308967
0.316721
0.324651
0.332723
0.340899
0.349134
0.357379
0.365579
0.373674
0.381601
0.389292
0.396678
0.403688
0.41025
0.416295
0.421756
0.426567
0.430674
0.434023
0.436575
0.438295
0.439159
0.2019
0.202173
0.202719
0.203539
0.204634
0.206005
0.207654
0.209584
0.211797
0.214296
0.217085
0.220167
0.223548
0.227232
0.231225
0.235532
0.240158
0.24511
0.250391
0.256007
0.261961
0.268255
0.27489
0.281863
0.28917
0.296803
0.304751
0.312998
0.321523
0.330299
0.339297
0.348476
0.357794
0.367198
0.376633
0.386035
0.395333
0.404455
0.41332
0.421847
0.429951
0.437549
0.444555
0.450891
0.45648
0.461253
0.46515
0.468119
0.470122
0.471129
0.203172
0.203463
0.204046
0.204922
0.206092
0.20756
0.209327
0.211397
0.213774
0.216463
0.21947
0.222799
0.226459
0.230457
0.234799
0.239494
0.24455
0.249975
0.255776
0.261961
0.268536
0.275504
0.282868
0.290628
0.298781
0.307319
0.316231
0.325501
0.335106
0.345019
0.355203
0.365616
0.37621
0.386924
0.397695
0.408448
0.419104
0.429576
0.43977
0.449592
0.45894
0.467716
0.47582
0.483157
0.489635
0.495172
0.499696
0.503145
0.505472
0.506643
0.204424
0.204735
0.205358
0.206293
0.207544
0.209114
0.211007
0.213226
0.21578
0.218672
0.221912
0.225507
0.229467
0.2338
0.238519
0.243632
0.249152
0.255088
0.261453
0.268255
0.275504
0.283206
0.291366
0.299986
0.309064
0.318595
0.328568
0.338965
0.349763
0.360932
0.372433
0.38422
0.396235
0.408413
0.420681
0.432953
0.445136
0.457131
0.46883
0.480119
0.490881
0.500999
0.510355
0.518835
0.526331
0.532744
0.537988
0.541988
0.544688
0.546046
0.205652
0.205983
0.206647
0.207646
0.208983
0.210662
0.212688
0.215067
0.217807
0.220917
0.224406
0.228284
0.232564
0.237258
0.24238
0.247942
0.25396
0.260449
0.267421
0.27489
0.282868
0.291366
0.300391
0.309947
0.320036
0.330652
0.341787
0.353422
0.365534
0.378091
0.391049
0.404359
0.417956
0.431767
0.445708
0.459683
0.473585
0.487297
0.500696
0.513647
0.526016
0.537661
0.548445
0.558232
0.566893
0.57431
0.58038
0.585013
0.588141
0.589716
0.206848
0.207201
0.20791
0.208976
0.210403
0.212197
0.214364
0.216912
0.219851
0.223191
0.226945
0.231125
0.235746
0.240824
0.246376
0.252419
0.258971
0.266051
0.273676
0.281863
0.290628
0.299986
0.309947
0.32052
0.331707
0.343507
0.35591
0.368902
0.382457
0.39654
0.411108
0.426103
0.441456
0.457086
0.472895
0.488777
0.504608
0.520254
0.535572
0.550407
0.564598
0.577983
0.590396
0.601676
0.611672
0.620242
0.62726
0.632622
0.636244
0.638068
0.208008
0.208385
0.20914
0.210276
0.211799
0.213714
0.21603
0.218757
0.221906
0.225489
0.229523
0.234022
0.239005
0.244491
0.250501
0.257056
0.264178
0.271889
0.280213
0.28917
0.298781
0.309064
0.320036
0.331707
0.344084
0.357169
0.370955
0.385427
0.400562
0.416322
0.432661
0.449518
0.466816
0.484464
0.502357
0.52037
0.538364
0.556187
0.573671
0.590637
0.606899
0.622262
0.636534
0.649525
0.661051
0.670944
0.679054
0.685255
0.689446
0.691557
0.209128
0.209529
0.210333
0.211543
0.213166
0.215209
0.217681
0.220595
0.223965
0.227804
0.232133
0.236969
0.242335
0.248252
0.254747
0.261845
0.269572
0.277956
0.287024
0.296803
0.307319
0.318595
0.330652
0.343507
0.357169
0.371645
0.386931
0.403015
0.419872
0.437468
0.455752
0.474659
0.494106
0.513993
0.534202
0.554595
0.575013
0.595282
0.615209
0.634587
0.653198
0.670815
0.687211
0.702158
0.715441
0.726856
0.736224
0.743393
0.748241
0.750685
0.210205
0.210631
0.211485
0.212773
0.2145
0.216676
0.219312
0.222422
0.226022
0.230131
0.234769
0.239959
0.245726
0.252098
0.259104
0.266775
0.275142
0.284239
0.294097
0.304751
0.316231
0.328568
0.341787
0.35591
0.370955
0.386931
0.403839
0.42167
0.440403
0.460001
0.480414
0.501572
0.523388
0.545753
0.568534
0.591578
0.614707
0.637723
0.660404
0.682511
0.703789
0.723975
0.742797
0.759988
0.775289
0.788458
0.799279
0.807566
0.813175
0.816004
0.211235
0.211687
0.212595
0.213962
0.215798
0.218112
0.220918
0.224232
0.228073
0.232462
0.237423
0.242983
0.249171
0.25602
0.263562
0.271835
0.280876
0.290724
0.301418
0.312998
0.325501
0.338965
0.353422
0.368902
0.385427
0.403015
0.42167
0.441389
0.462153
0.483929
0.506666
0.530291
0.554712
0.57981
0.605441
0.631436
0.657594
0.683691
0.709474
0.734667
0.758976
0.782088
0.803687
0.823454
0.841079
0.856273
0.868773
0.878358
0.884849
0.888125
0.212216
0.212696
0.213658
0.215108
0.217056
0.219513
0.222496
0.226021
0.230112
0.234791
0.240088
0.246033
0.252659
0.260004
0.268108
0.277011
0.286758
0.297395
0.308967
0.321523
0.335106
0.349763
0.365534
0.382457
0.400562
0.419872
0.440403
0.462153
0.485112
0.509248
0.534512
0.56083
0.588106
0.616214
0.644997
0.674268
0.703806
0.733357
0.762633
0.791317
0.819067
0.845519
0.870299
0.893027
0.913334
0.93087
0.94532
0.956411
0.96393
0.967726
0.213147
0.213655
0.214673
0.216208
0.218271
0.220876
0.22404
0.227784
0.232132
0.237112
0.242756
0.249098
0.256179
0.26404
0.272726
0.282285
0.292769
0.304229
0.316721
0.330299
0.345019
0.360932
0.378091
0.39654
0.416322
0.437468
0.460001
0.483929
0.509248
0.535932
0.563935
0.593185
0.623582
0.654993
0.687253
0.720157
0.753459
0.786876
0.820082
0.852715
0.884376
0.914643
0.943071
0.969211
0.992619
1.01287
1.02959
1.04244
1.05116
1.05556
0.214027
0.214563
0.215638
0.217261
0.219442
0.222198
0.225548
0.229515
0.234127
0.239416
0.245417
0.25217
0.259719
0.268111
0.277399
0.287638
0.298885
0.311202
0.324651
0.339297
0.355203
0.372433
0.391049
0.411108
0.432661
0.455752
0.480414
0.506666
0.534512
0.563935
0.594894
0.627323
0.661119
0.696148
0.732233
0.769154
0.806642
0.844383
0.882008
0.919106
0.955215
0.989842
1.02246
1.05254
1.07955
1.10297
1.12233
1.13724
1.14737
1.15248
0.214855
0.21542
0.216554
0.218265
0.220567
0.223476
0.227016
0.231211
0.236093
0.241696
0.248062
0.255235
0.263264
0.272202
0.28211
0.293047
0.305082
0.318284
0.332723
0.348476
0.365616
0.38422
0.404359
0.426103
0.449518
0.474659
0.501572
0.530291
0.56083
0.593185
0.627323
0.663183
0.700669
0.739644
0.779925
0.821277
0.863411
0.905979
0.948571
0.990716
1.03189
1.0715
1.10895
1.14359
1.17478
1.2019
1.22437
1.24169
1.25348
1.25944
0.215631
0.216225
0.217418
0.219219
0.221642
0.224708
0.228439
0.232865
0.238021
0.243944
0.250681
0.258281
0.266799
0.276295
0.286835
0.298488
0.31133
0.32544
0.340899
0.357794
0.37621
0.396235
0.417956
0.441456
0.466816
0.494106
0.523388
0.554712
0.588106
0.623582
0.661119
0.700669
0.742142
0.785405
0.830273
0.8765
0.923779
0.971728
1.01989
1.06774
1.11468
1.16002
1.20303
1.24297
1.27904
1.31049
1.33662
1.35681
1.37056
1.37752
0.216355
0.216979
0.218231
0.220122
0.222668
0.22589
0.229814
0.234473
0.239905
0.246151
0.253263
0.261295
0.270308
0.280369
0.291551
0.303932
0.317596
0.332633
0.349134
0.367198
0.386924
0.408413
0.431767
0.457086
0.484464
0.513993
0.545753
0.57981
0.616214
0.654993
0.696148
0.739644
0.785405
0.833308
0.88317
0.934742
0.9877
1.04163
1.09605
1.15035
1.20384
1.25574
1.3052
1.3513
1.3931
1.42966
1.46012
1.48371
1.4998
1.50796
0.217028
0.217681
0.218992
0.220973
0.223642
0.22702
0.231138
0.23603
0.241737
0.248308
0.255796
0.264261
0.273772
0.284402
0.296231
0.309347
0.323843
0.339819
0.357379
0.376633
0.397695
0.420681
0.445708
0.472895
0.502357
0.534202
0.568534
0.605441
0.644997
0.687253
0.732233
0.779925
0.830273
0.88317
0.938445
0.995852
1.05506
1.11564
1.17704
1.23862
1.29958
1.35903
1.41596
1.46926
1.5178
1.56042
1.59604
1.62369
1.64259
1.65218
0.217651
0.218333
0.219703
0.221773
0.224563
0.228097
0.232406
0.237529
0.243511
0.250404
0.258266
0.267164
0.277172
0.28837
0.300848
0.3147
0.330032
0.346952
0.365579
0.386035
0.408448
0.432953
0.459683
0.488777
0.52037
0.554595
0.591578
0.631436
0.674268
0.720157
0.769154
0.821277
0.8765
0.934742
0.995852
1.0596
1.12565
1.19357
1.26278
1.33256
1.40204
1.47017
1.53578
1.59754
1.65405
1.7039
1.7457
1.77825
1.80054
1.81186
0.218225
0.218935
0.220363
0.222521
0.22543
0.229116
0.233615
0.238966
0.245219
0.25243
0.260662
0.269988
0.280488
0.292249
0.30537
0.319955
0.336118
0.353981
0.373674
0.395333
0.419104
0.445136
0.473585
0.504608
0.538364
0.575013
0.614707
0.657594
0.703806
0.753459
0.806642
0.863411
0.923779
0.9877
1.05506
1.12565
1.19917
1.27518
1.35307
1.43208
1.51125
1.58938
1.6651
1.73683
1.80283
1.86134
1.91062
1.94911
1.97552
1.98896
0.21875
0.219489
0.220973
0.223216
0.226241
0.230077
0.23476
0.240334
0.246852
0.254374
0.262969
0.272714
0.283697
0.296013
0.309767
0.325073
0.342057
0.360852
0.381601
0.404455
0.429576
0.457131
0.487297
0.520254
0.556187
0.595282
0.637723
0.683691
0.733357
0.786876
0.844383
0.905979
0.971728
1.04163
1.11564
1.19357
1.27518
1.36003
1.44754
1.53691
1.62709
1.71675
1.80429
1.88781
1.96518
2.03416
2.09254
2.13829
2.16977
2.18581
0.219229
0.219994
0.221533
0.223859
0.226997
0.230977
0.235838
0.241628
0.248402
0.256226
0.265172
0.275325
0.286778
0.299632
0.314004
0.330015
0.347801
0.367508
0.389292
0.41332
0.43977
0.46883
0.500696
0.535572
0.573671
0.615209
0.660404
0.709474
0.762633
0.820082
0.882008
0.948571
1.01989
1.09605
1.17704
1.26278
1.35307
1.44754
1.54564
1.64657
1.74924
1.85218
1.95356
2.0511
2.14219
2.22395
2.29351
2.34823
2.38597
2.40522
0.219662
0.220453
0.222044
0.224449
0.227694
0.231813
0.236845
0.242841
0.249862
0.257975
0.267259
0.277803
0.289707
0.303081
0.318047
0.334738
0.3533
0.37389
0.396678
0.421847
0.449592
0.480119
0.513647
0.550407
0.590637
0.634587
0.682511
0.734667
0.791317
0.852715
0.919106
0.990716
1.06774
1.15035
1.23862
1.33256
1.43208
1.53691
1.64657
1.76033
1.87709
1.99531
2.11291
2.22722
2.33499
2.4325
2.51594
2.58183
2.62736
2.65061
0.220051
0.220867
0.222506
0.224986
0.228333
0.232582
0.237776
0.243968
0.251221
0.259609
0.269213
0.280129
0.292462
0.30633
0.321862
0.339201
0.358503
0.379938
0.403688
0.429951
0.45894
0.490881
0.526016
0.564598
0.606899
0.653198
0.703789
0.758976
0.819067
0.884376
0.955215
1.03189
1.11468
1.20384
1.29958
1.40204
1.51125
1.62709
1.74924
1.87709
2.00964
2.14535
2.28198
2.41644
2.54469
2.66186
2.76274
2.84264
2.89792
2.92616
0.220397
0.221236
0.222921
0.225471
0.228913
0.233283
0.238628
0.245003
0.252473
0.261117
0.271021
0.282285
0.29502
0.309351
0.325415
0.343363
0.363362
0.385592
0.41025
0.437549
0.467716
0.500999
0.537661
0.577983
0.622262
0.670815
0.723975
0.782088
0.845519
0.914643
0.989842
1.0715
1.16002
1.25574
1.35903
1.47017
1.58938
1.71675
1.85218
1.99531
2.14535
2.30093
2.45981
2.61859
2.7723
2.91442
3.0375
3.13512
3.20261
3.23705
0.220702
0.221561
0.223288
0.225902
0.229431
0.233913
0.239397
0.245939
0.25361
0.262489
0.272669
0.284253
0.297359
0.312117
0.328672
0.347183
0.367827
0.390795
0.416295
0.444555
0.47582
0.510355
0.548445
0.590396
0.636534
0.687211
0.742797
0.803687
0.870299
0.943071
1.02246
1.10895
1.20303
1.3052
1.41596
1.53578
1.6651
1.80429
1.95356
2.11291
2.28198
2.45981
2.64452
2.83267
3.01851
3.19309
3.34487
3.46493
3.5476
3.58964
0.220966
0.221844
0.223608
0.22628
0.229887
0.23447
0.240078
0.246772
0.254623
0.263715
0.274143
0.286017
0.299457
0.314602
0.331601
0.350623
0.371852
0.395489
0.421756
0.450891
0.483157
0.518835
0.558232
0.601676
0.649525
0.702158
0.759988
0.823454
0.893027
0.969211
1.05254
1.14359
1.24297
1.3513
1.46926
1.59754
1.73683
1.88781
2.0511
2.22722
2.41644
2.61859
2.83267
3.0561
3.2831
3.50179
3.69126
3.83951
3.94059
3.99168
0.22119
0.222085
0.223882
0.226604
0.230281
0.234952
0.24067
0.247496
0.255506
0.264785
0.275432
0.287561
0.301296
0.316781
0.334173
0.353646
0.375392
0.399622
0.426567
0.45648
0.489635
0.526331
0.566893
0.611672
0.661051
0.715441
0.775289
0.841079
0.913334
0.992619
1.07955
1.17478
1.27904
1.3931
1.5178
1.65405
1.80283
1.96518
2.14219
2.33499
2.54469
2.7723
3.01851
3.2831
3.56325
3.84708
4.08629
4.26874
4.39108
4.45237
0.221376
0.222284
0.22411
0.226875
0.23061
0.235357
0.241168
0.248108
0.256252
0.265691
0.276525
0.28887
0.302858
0.318634
0.336361
0.35622
0.378408
0.403146
0.430674
0.461253
0.495172
0.532744
0.57431
0.620242
0.670944
0.726856
0.788458
0.856273
0.93087
1.01287
1.10297
1.2019
1.31049
1.42966
1.56042
1.7039
1.86134
2.03416
2.22395
2.4325
2.66186
2.91442
3.19309
3.50179
3.84708
4.24447
4.54564
4.76567
4.91027
4.98201
0.221523
0.222443
0.224292
0.227092
0.230875
0.235683
0.24157
0.248602
0.256857
0.266425
0.277411
0.289934
0.304127
0.320141
0.338142
0.358315
0.380866
0.406019
0.434023
0.46515
0.499696
0.537988
0.58038
0.62726
0.679054
0.736224
0.799279
0.868773
0.94532
1.02959
1.12233
1.22437
1.33662
1.46012
1.59604
1.7457
1.91062
2.09254
2.29351
2.51594
2.76274
3.0375
3.34487
3.69126
4.08629
4.54564
4.89376
5.14575
5.31003
5.39117
0.221634
0.222562
0.224429
0.227256
0.231075
0.235929
0.241874
0.248976
0.257314
0.266981
0.278084
0.290741
0.305091
0.321286
0.339495
0.359909
0.382736
0.408206
0.436575
0.468119
0.503145
0.541988
0.585013
0.632622
0.685255
0.743393
0.807566
0.878358
0.956411
1.04244
1.13724
1.24169
1.35681
1.48371
1.62369
1.77825
1.94911
2.13829
2.34823
2.58183
2.84264
3.13512
3.46493
3.83951
4.26874
4.76567
5.14575
5.4213
5.60077
5.6893
0.221707
0.222641
0.22452
0.227365
0.231208
0.236094
0.242078
0.249227
0.257622
0.267355
0.278535
0.291284
0.305739
0.322056
0.340406
0.360982
0.383995
0.40968
0.438295
0.470122
0.505472
0.544688
0.588141
0.636244
0.689446
0.748241
0.813175
0.884849
0.96393
1.05116
1.14737
1.25348
1.37056
1.4998
1.64259
1.80054
1.97552
2.16977
2.38597
2.62736
2.89792
3.20261
3.5476
3.94059
4.39108
4.91027
5.31003
5.60077
5.79034
5.88386
0.221743
0.22268
0.224565
0.227419
0.231274
0.236176
0.242179
0.249352
0.257775
0.267543
0.278762
0.291556
0.306065
0.322443
0.340864
0.361521
0.384628
0.410421
0.439159
0.471129
0.506643
0.546046
0.589716
0.638068
0.691557
0.750685
0.816004
0.888125
0.967726
1.05556
1.15248
1.25944
1.37752
1.50796
1.65218
1.81186
1.98896
2.18581
2.40522
2.65061
2.92616
3.23705
3.58964
3.99168
4.45237
4.98201
5.39117
5.6893
5.88386
5.97988
)
;

boundaryField
{
    walls
    {
        type            zeroGradient;
    }
    frontAndBack
    {
        type            empty;
    }
}


// ************************************************************************* //
