/*--------------------------------*- C++ -*----------------------------------*\
| =========                 |                                                 |
| \\      /  F ield         | OpenFOAM: The Open Source CFD Toolbox           |
|  \\    /   O peration     | Version:  2406                                  |
|   \\  /    A nd           | Website:  www.openfoam.com                      |
|    \\/     M anipulation  |                                                 |
\*---------------------------------------------------------------------------*/
FoamFile
{
    version     2.0;
    format      ascii;
    arch        "LSB;label=32;scalar=64";
    class       volScalarField;
    location    "1";
    object      nu;
}
// * * * * * * * * * * * * * * * * * * * * * * * * * * * * * * * * * * * * * //

dimensions      [0 2 -1 0 0 0 0];

internalField   nonuniform List<scalar> 
1800
(
0.0420086
0.0182401
0.0135015
0.0113173
0.0100201
0.00924459
0.00876884
0.0084356
0.00831797
0.00843599
0.0410841
0.0721402
0.0166546
0.0113063
0.00970164
0.00895388
0.00856777
0.0083354
0.0084463
0.00820923
0.0423856
0.0241569
0.0126054
0.00985257
0.00892411
0.00851648
0.00834758
0.00826685
0.00855481
0.00823374
0.113009
0.0134699
0.0096073
0.00863496
0.00825587
0.00814908
0.00818853
0.00826504
0.00865622
0.00833788
0.0185998
0.00998581
0.00836425
0.00795132
0.00788338
0.00800171
0.00822276
0.00845561
0.00890766
0.00848615
0.0113693
0.00846683
0.00769926
0.00759022
0.00775332
0.00807036
0.00845344
0.00880677
0.00916938
0.00881405
0.00895794
0.00764591
0.00732612
0.00745479
0.00782238
0.00832047
0.00883597
0.00925117
0.0095321
0.00939228
0.00774029
0.00716017
0.0071323
0.00747171
0.0080379
0.00871378
0.00936599
0.00987698
0.0102345
0.0104692
0.00704024
0.00685877
0.00706065
0.00761017
0.00840944
0.00933524
0.010242
0.0110019
0.0115897
0.012052
0.0065972
0.00667097
0.00708283
0.00788647
0.0090415
0.0104173
0.0118012
0.0129066
0.0135384
0.0140304
0.0072008
0.0091581
0.0121816
0.0141749
0.0145263
0.0145018
0.0144297
0.0143133
0.0141514
0.0140138
0.00706756
0.00890926
0.012273
0.0153573
0.0157859
0.0154118
0.015229
0.0150544
0.0147884
0.0145239
0.00700791
0.00869146
0.0121268
0.0174359
0.0208675
0.0199339
0.0178413
0.0166645
0.0161238
0.0156549
0.00701276
0.00850192
0.0117564
0.0198063
0.0433436
0.0718051
0.0390418
0.0247826
0.0200781
0.0181295
0.00712434
0.00837271
0.0108838
0.0156669
0.0234751
0.0339941
0.044253
0.0446824
0.0330586
0.0250328
0.00740182
0.00834016
0.0100396
0.0125043
0.0150511
0.0172121
0.0189614
0.0198864
0.0195645
0.0211614
0.00793002
0.0084639
0.00950573
0.0108712
0.0120408
0.0128565
0.0134568
0.0138872
0.0140363
0.0153487
0.00891112
0.00884063
0.00932722
0.0100681
0.0106363
0.0109777
0.0112152
0.0114124
0.0114662
0.012272
0.0109715
0.00970037
0.00959623
0.00986639
0.0100017
0.00999291
0.00995608
0.00995125
0.00983966
0.0102893
0.0166931
0.0117207
0.0106416
0.0103137
0.00991429
0.00951372
0.0092092
0.0089899
0.0087043
0.0092886
0.0149857
0.0130916
0.0136897
0.0149131
0.0164807
0.0193348
0.0228408
0.0273143
0.0299031
0.0385491
0.0156609
0.0136761
0.0138025
0.0146803
0.0159075
0.0184836
0.0218379
0.0262924
0.0290179
0.0373872
0.0171278
0.0152771
0.014025
0.0143032
0.0151843
0.0173943
0.0204442
0.0246042
0.0273121
0.0347986
0.020679
0.0178178
0.0134611
0.0131432
0.013823
0.0156141
0.0182732
0.0219316
0.024568
0.0307039
0.0274734
0.0171054
0.0121977
0.0117789
0.0122255
0.0134829
0.0155547
0.0185021
0.0209549
0.0256867
0.0220249
0.0140498
0.0114176
0.0110268
0.0111917
0.0119048
0.0132785
0.0153819
0.0173534
0.0208469
0.0158913
0.0124334
0.0112612
0.0108676
0.0108472
0.0111395
0.0119231
0.0132931
0.0146527
0.017107
0.0127243
0.0116723
0.0112552
0.0108893
0.010921
0.011015
0.0113844
0.0122239
0.0130697
0.0147352
0.0113513
0.0114115
0.0108813
0.01065
0.0109787
0.0112367
0.0114396
0.0119412
0.0124241
0.0135479
0.0101552
0.0101947
0.0101661
0.0101995
0.0107521
0.011451
0.0118801
0.0122864
0.0125431
0.0133086
0.00978411
0.00983677
0.00993144
0.00988788
0.0103609
0.0114046
0.01246
0.0132563
0.0135824
0.0141839
0.00899561
0.00923805
0.0101337
0.0103672
0.0105268
0.0114349
0.0129945
0.0146983
0.0157238
0.0165715
0.00900758
0.0105873
0.0127338
0.0124574
0.0121768
0.0127682
0.0143917
0.0169712
0.0194376
0.0221921
0.0103888
0.0154367
0.0156332
0.0127768
0.0126314
0.0137581
0.0161241
0.0204327
0.0254892
0.0376584
0.0132504
0.028961
0.0164781
0.0132141
0.0130942
0.0142274
0.0167056
0.0214151
0.0266834
0.0406064
0.0168168
0.0311623
0.0149399
0.0124165
0.0125207
0.0135623
0.015347
0.0178624
0.0202135
0.0233176
0.0165174
0.0135596
0.0109392
0.0102006
0.0104391
0.0111673
0.0121432
0.013154
0.0139804
0.014809
0.0102985
0.00897562
0.00832172
0.0083492
0.0088154
0.00943539
0.0100222
0.010516
0.0108536
0.0111749
0.00754757
0.00732191
0.00742092
0.00781866
0.00833738
0.00878107
0.00909136
0.00930714
0.00941581
0.00953319
0.00687795
0.00726753
0.00801252
0.00900825
0.00964544
0.00967646
0.00942979
0.00920106
0.00901301
0.00894496
0.0161811
0.0143239
0.0126127
0.0108195
0.00976359
0.00906299
0.00863387
0.00860695
0.00813111
0.00852144
0.0155626
0.0177209
0.0155976
0.0155213
0.01195
0.0114097
0.00941891
0.00929516
0.00840663
0.00845293
0.0156903
0.0185826
0.0165724
0.0208125
0.0143192
0.0150196
0.0116238
0.0109248
0.0100864
0.00902854
0.0175399
0.017941
0.0198233
0.0190935
0.0200712
0.0162522
0.0167944
0.0127902
0.0134298
0.0107858
0.0179178
0.0174343
0.020928
0.0185918
0.0278239
0.0180397
0.0263438
0.015648
0.0178748
0.0135439
0.0154535
0.0158899
0.0169311
0.0178093
0.0195331
0.0206749
0.0238328
0.0211526
0.0234734
0.0178608
0.0129487
0.0134016
0.0133779
0.0143459
0.0141263
0.0158801
0.0154711
0.0183533
0.0175776
0.0216826
0.0101738
0.0103172
0.0100974
0.0103694
0.0100993
0.0105127
0.0101989
0.0107769
0.0104591
0.0111598
0.00792292
0.00785919
0.00781273
0.00778294
0.00776579
0.00776847
0.00776063
0.00780744
0.0077828
0.00787677
0.0064103
0.00640044
0.00642735
0.00642881
0.00648265
0.00648842
0.00657008
0.00657733
0.00668344
0.00668918
0.0101926
0.0110179
0.0110584
0.011022
0.011069
0.0113573
0.0118822
0.0100213
0.00714259
0.00586737
0.0108238
0.0110956
0.011095
0.0110473
0.0111283
0.0115623
0.0122418
0.00986719
0.00703244
0.00583054
0.0114814
0.0115642
0.0114883
0.0114534
0.0115857
0.0121695
0.0127945
0.00963152
0.00692594
0.00580541
0.0123238
0.012452
0.0123302
0.0122909
0.0124896
0.0132904
0.0135108
0.00932678
0.00682437
0.00579378
0.0133121
0.0137215
0.0136427
0.0136211
0.0140602
0.0153466
0.0138204
0.00895055
0.00673044
0.00579883
0.014627
0.0154793
0.0156749
0.0161217
0.0174976
0.0187114
0.0131305
0.00854375
0.00664559
0.00582359
0.0164328
0.0182453
0.0196204
0.0220954
0.024982
0.0197854
0.0117733
0.00812285
0.0065725
0.00587467
0.0183727
0.0211842
0.0241981
0.0273378
0.0236828
0.0155484
0.0103007
0.00773164
0.0065248
0.00596216
0.018752
0.0198465
0.0206367
0.0197192
0.0161503
0.0121019
0.00914751
0.00741514
0.00651739
0.0060985
0.0164072
0.0162476
0.015915
0.0145751
0.0123846
0.0101484
0.00836802
0.00719808
0.00656259
0.00630089
0.012022
0.0116973
0.0114176
0.0111672
0.0109314
0.0107199
0.0105218
0.0102054
0.00942702
0.00774374
0.0118798
0.0115762
0.0113107
0.0110635
0.0108309
0.0106309
0.0104595
0.0101125
0.00901288
0.00723218
0.0118122
0.0115273
0.0112726
0.0110238
0.0107821
0.0105731
0.010406
0.0100078
0.00863505
0.00686676
0.011669
0.0114425
0.0112385
0.0110178
0.0108025
0.010632
0.0105179
0.0100588
0.00836087
0.00661236
0.0115466
0.0113317
0.0111402
0.0109222
0.0107104
0.0105589
0.0104947
0.0100155
0.00810829
0.0064177
0.0116006
0.0114245
0.0112487
0.0110156
0.0107888
0.0106396
0.0105946
0.0100056
0.00788217
0.00626452
0.0115579
0.0114874
0.0113774
0.0111518
0.0109173
0.0107855
0.0107891
0.0100438
0.0076918
0.00614395
0.0114509
0.0113665
0.0113249
0.0111616
0.0109948
0.010959
0.0110921
0.010147
0.00753798
0.00605156
0.0118958
0.011758
0.0115417
0.0112139
0.0109777
0.0109722
0.0112107
0.0101214
0.0073953
0.00597699
0.0117362
0.0117089
0.0117139
0.0115151
0.0112904
0.0113003
0.0115699
0.0100802
0.00726082
0.00591565
0.0488088
0.0278802
0.0346184
0.0452135
0.0440894
0.0479966
0.0358735
0.0279646
0.0185993
0.0133896
0.0500694
0.0268663
0.0337126
0.0454313
0.0438422
0.0518955
0.0405754
0.0285973
0.0188466
0.0132313
0.0512633
0.0259469
0.032793
0.0446777
0.0428478
0.0560408
0.0473081
0.0291359
0.0192223
0.0131313
0.0523722
0.0250495
0.0317619
0.0429634
0.0422416
0.0620211
0.0556518
0.0295549
0.0196097
0.0128975
0.0531847
0.0241372
0.0306715
0.0410962
0.0436503
0.0705378
0.0617743
0.0298534
0.019895
0.0127496
0.0533065
0.0232812
0.0296867
0.0408268
0.0479254
0.0776637
0.0596139
0.0299364
0.0194454
0.0127365
0.0531705
0.0226605
0.0288227
0.0431819
0.0527131
0.0758563
0.0493278
0.0288798
0.0186409
0.0123199
0.0554484
0.0223849
0.0278647
0.0465734
0.0519102
0.0608818
0.036014
0.0263899
0.016597
0.0123725
0.0613722
0.0223108
0.0265991
0.0458844
0.04158
0.0371569
0.0253422
0.0229381
0.0156386
0.0120177
0.0640817
0.0222948
0.0251369
0.0358469
0.0272239
0.0225711
0.0186016
0.017941
0.0138976
0.0131797
0.0970718
0.0228662
0.0230885
0.0256048
0.0191401
0.0175746
0.0143306
0.015652
0.0120035
0.0130631
0.240537
0.0222161
0.0201294
0.0201291
0.0161073
0.0166768
0.0124563
0.0160048
0.0107542
0.0131556
0.091403
0.0205191
0.0181276
0.0182171
0.0164881
0.0171372
0.0126807
0.0162714
0.011177
0.0130486
0.057157
0.0193129
0.0168752
0.0172071
0.0200373
0.017189
0.015597
0.0154565
0.013811
0.0123215
0.0488871
0.0192633
0.016089
0.016632
0.0258077
0.0177483
0.025825
0.0156554
0.0174347
0.0124923
0.0528443
0.0198289
0.0159692
0.0165896
0.0226433
0.0201182
0.0275089
0.0179297
0.0180091
0.0136587
0.0678994
0.0212211
0.0170919
0.0169619
0.0168171
0.0218132
0.0164458
0.0209761
0.0167658
0.0157107
0.0541767
0.0275846
0.0178779
0.0147796
0.0126944
0.0137998
0.0119125
0.0142458
0.0123269
0.0133331
0.0270228
0.0174256
0.0119448
0.0107887
0.0101251
0.00986293
0.00980603
0.00964269
0.00951844
0.00946859
0.00796605
0.00787849
0.00856863
0.00851752
0.00841458
0.00813545
0.00815026
0.00752237
0.0076312
0.00716524
0.0114064
0.0116989
0.0118497
0.0123384
0.0128835
0.0136702
0.0145023
0.0156083
0.0164929
0.0167517
0.012007
0.0118753
0.0119165
0.0122396
0.0124917
0.0129872
0.0131786
0.013928
0.0141769
0.0154207
0.0123866
0.01219
0.0123133
0.0125924
0.0128922
0.0133718
0.0135342
0.0142927
0.0144288
0.0158952
0.0125782
0.0125289
0.0128436
0.0131263
0.0137147
0.0140383
0.0146726
0.0149587
0.0157583
0.0162649
0.0132674
0.0134072
0.0139086
0.0142641
0.0149284
0.0149412
0.015588
0.0153649
0.0163036
0.0160814
0.0145208
0.0145772
0.0147744
0.0148397
0.014894
0.0146822
0.0147222
0.0145607
0.0147841
0.0148322
0.0148548
0.014293
0.0138248
0.013602
0.0133287
0.0132042
0.0129982
0.0129453
0.0128104
0.0129524
0.0122335
0.0117837
0.0113949
0.0111897
0.010965
0.0108855
0.0106396
0.0105739
0.0103347
0.0103777
0.00925973
0.00907173
0.00889221
0.00873394
0.00859482
0.00845807
0.00833413
0.0082096
0.00810269
0.00800585
0.00702201
0.00691353
0.00681253
0.00672006
0.00664173
0.00656987
0.00651703
0.00646791
0.00644075
0.00641193
0.00608047
0.00696852
0.00888601
0.0139562
0.0363621
0.0278508
0.0165151
0.0125393
0.0101805
0.00846596
0.00615006
0.00690009
0.00850524
0.0127602
0.0316597
0.0387824
0.0185585
0.0127147
0.0100764
0.00841737
0.00626314
0.0068626
0.00814298
0.0112145
0.0196168
0.0270795
0.01879
0.0130739
0.0102237
0.00856442
0.00643567
0.00686561
0.0078218
0.00996581
0.0146755
0.0203207
0.0184055
0.0136974
0.0106408
0.00887659
0.00669235
0.00693014
0.00757226
0.00902208
0.011943
0.0162554
0.0176532
0.0146664
0.0114482
0.00939729
0.00706888
0.00709264
0.00744183
0.00836001
0.0101631
0.0131278
0.0158731
0.0154293
0.012748
0.0102254
0.00760915
0.00739561
0.00748043
0.00799957
0.00907386
0.0108982
0.0132983
0.0147583
0.0139399
0.0115148
0.00836405
0.00787792
0.00772567
0.00794809
0.00855878
0.00962386
0.0111468
0.0127437
0.0136203
0.0123567
0.00937601
0.0085686
0.00821362
0.00821133
0.00852017
0.0091359
0.010021
0.0110302
0.012136
0.0118075
0.0105659
0.00945785
0.00898641
0.00882111
0.00890669
0.00922859
0.00973513
0.0103088
0.0110052
0.0113916
0.0114422
0.0103715
0.0100395
0.00983891
0.00972648
0.00976364
0.00994638
0.0102083
0.0103768
0.0111109
0.0113906
0.0109487
0.0111803
0.0113252
0.0111124
0.0108129
0.010646
0.0105944
0.0104347
0.0108994
0.0107345
0.0111198
0.012119
0.0132479
0.0133831
0.012646
0.0120646
0.0116994
0.0112365
0.0113608
0.0101586
0.0112339
0.0130999
0.0162239
0.019067
0.0176325
0.0156233
0.0142036
0.0129141
0.0123964
0.00958858
0.0111236
0.0136035
0.0186731
0.0324379
0.0517113
0.0270944
0.01892
0.0155154
0.0138529
0.00896917
0.0108786
0.0138696
0.0192811
0.0304977
0.0503072
0.0334335
0.0214991
0.0173072
0.0152275
0.00843773
0.0105876
0.013682
0.0172054
0.0201169
0.0222324
0.0218333
0.0189211
0.0166879
0.0152004
0.00802077
0.0102395
0.0131348
0.0151552
0.0160857
0.0167835
0.0169868
0.0162977
0.015378
0.0145931
0.00767976
0.00984467
0.0125941
0.0141111
0.0146093
0.0149603
0.0151246
0.0149364
0.0145378
0.0141434
0.00740599
0.00947444
0.0122705
0.0137959
0.0141508
0.0143093
0.014394
0.0143306
0.0141338
0.0139377
0.0117544
0.0134933
0.0181968
0.033324
0.0428732
0.0306188
0.028274
0.0294091
0.030357
0.0382186
0.0117906
0.0133266
0.0179434
0.0257666
0.0321676
0.0288333
0.0279361
0.029669
0.0314944
0.0425185
0.0118993
0.0134517
0.0176424
0.0229044
0.0275767
0.0274436
0.027454
0.0294704
0.0316127
0.0430882
0.0121981
0.0139434
0.0173634
0.0216463
0.0248909
0.0259805
0.0267123
0.0289834
0.0311682
0.0419243
0.0125474
0.0145001
0.0167853
0.0204712
0.0229358
0.0246527
0.0259541
0.0284438
0.030503
0.0402798
0.0129993
0.0146576
0.0160228
0.0192018
0.0214024
0.0236011
0.0254064
0.0281191
0.0299983
0.0389418
0.0134144
0.0143112
0.0153033
0.0179971
0.0201384
0.0227382
0.0250476
0.0280611
0.0298388
0.0382551
0.0137569
0.013769
0.014703
0.0169487
0.0190375
0.0219184
0.0247144
0.0281251
0.0299579
0.0381815
0.0141112
0.0133117
0.0142253
0.0160743
0.0180568
0.0210707
0.0242676
0.028118
0.0301556
0.0384623
0.0145135
0.0130525
0.0138676
0.0153807
0.0171946
0.0201974
0.0236458
0.0278858
0.0302092
0.0387344
0.00989214
0.0124241
0.0148461
0.0170357
0.0160645
0.014205
0.0128761
0.0119021
0.0113845
0.0110354
0.00976121
0.0112237
0.0129956
0.0139262
0.0138854
0.0132943
0.0127678
0.0122758
0.0120108
0.0117291
0.0107896
0.0123417
0.0151711
0.017162
0.0172653
0.0163741
0.0156325
0.0150568
0.0146958
0.0142335
0.0117726
0.0137554
0.0188177
0.0298772
0.0287041
0.0234977
0.0214165
0.0207015
0.0200642
0.0197093
0.0121962
0.0139677
0.019107
0.0492383
0.046481
0.0291745
0.0262875
0.0265158
0.0264233
0.0289277
0.00612202
0.00623907
0.00641314
0.00664795
0.00693886
0.00729915
0.00768927
0.0081065
0.00862449
0.00883036
0.00637124
0.00647496
0.00664623
0.00687918
0.00715342
0.00747523
0.00777921
0.00813532
0.00852914
0.0088375
0.0066803
0.00676306
0.00692802
0.00715606
0.00742235
0.00772881
0.00802042
0.0084791
0.00881182
0.00941594
0.00707764
0.00713107
0.00729402
0.00753234
0.00783506
0.00817617
0.00860909
0.0092856
0.00967774
0.0107492
0.00758253
0.00759684
0.00776406
0.00804057
0.00843688
0.00893002
0.00972865
0.0106298
0.0109864
0.0125312
0.0135603
0.0135754
0.0136263
0.0132655
0.0127645
0.0123129
0.0119114
0.0110698
0.00904289
0.0070138
0.0141998
0.0138409
0.0133348
0.012699
0.0121803
0.0118232
0.0115624
0.0110315
0.00941224
0.00729629
0.0133785
0.0130593
0.0127838
0.0124349
0.0121229
0.011879
0.0116655
0.0112335
0.00988951
0.00767069
0.0133545
0.0130492
0.0127594
0.0124063
0.0120648
0.0117707
0.0115147
0.011193
0.0103538
0.00818864
0.0132111
0.0128385
0.012495
0.0121371
0.0118046
0.0115276
0.0113164
0.0111818
0.0109673
0.00904318
0.0130251
0.0126212
0.012256
0.0119022
0.0115715
0.0112912
0.0110955
0.011114
0.0116283
0.0106532
0.0127922
0.0123753
0.0120037
0.0116594
0.0113324
0.0110451
0.0108377
0.0108997
0.0119882
0.0143888
0.0125621
0.0121615
0.0118097
0.0114936
0.0111943
0.0109255
0.0107073
0.0106651
0.0114434
0.0141199
0.0123561
0.0119831
0.0116605
0.011378
0.0111154
0.010881
0.0106687
0.0104994
0.0106223
0.0101928
0.0121779
0.0118294
0.0115285
0.0112641
0.0110185
0.0107994
0.0105923
0.0103369
0.00995904
0.00858295
0.00875633
0.0104962
0.0125322
0.0147972
0.017882
0.0202285
0.0140874
0.0092472
0.00705866
0.00604407
0.00931344
0.0109141
0.0124283
0.013737
0.01482
0.0154356
0.0135529
0.00954522
0.00716696
0.00603502
0.0100299
0.0112729
0.0122466
0.0129563
0.0134135
0.0135585
0.012636
0.00973336
0.00729207
0.0060517
0.0106719
0.011509
0.0121064
0.012462
0.0125569
0.0124479
0.0118957
0.00983016
0.00743012
0.00609286
0.0111525
0.0117139
0.0120464
0.012125
0.0119848
0.0117651
0.0114012
0.00991874
0.00758905
0.00615844
0.011575
0.0119459
0.0120263
0.011862
0.0115924
0.0113769
0.0111672
0.0100599
0.007775
0.00624645
0.0120229
0.0121966
0.011979
0.0116226
0.0113343
0.0112019
0.0111409
0.0102769
0.00799121
0.00635516
0.0124329
0.0122615
0.0117756
0.0114038
0.0112323
0.0112348
0.0113078
0.0105775
0.00823599
0.00648355
0.0123754
0.0119254
0.0115233
0.0113683
0.0113767
0.0114884
0.0116139
0.0108908
0.00849466
0.00663003
0.0115889
0.0118228
0.0118707
0.0119066
0.0119397
0.0119703
0.0119279
0.0110932
0.0087637
0.0068027
0.0331473
0.0600167
0.0374865
0.0289091
0.0266682
0.0274579
0.0309941
0.0380052
0.0276376
0.0200365
0.035182
0.0491786
0.0425961
0.0297881
0.0272648
0.0273507
0.0293256
0.02891
0.025637
0.0163192
0.0368819
0.0437162
0.0449122
0.0303854
0.0279537
0.0277788
0.0288739
0.0265406
0.0249785
0.0152757
0.0383729
0.0402089
0.0453272
0.0313578
0.0290298
0.0285469
0.0285021
0.0255314
0.0234823
0.0151804
0.0398029
0.0376712
0.0443062
0.0330191
0.0306845
0.0297099
0.028292
0.0253023
0.022042
0.0151182
0.0412691
0.0356049
0.0424194
0.0352824
0.032906
0.0313282
0.0283019
0.025476
0.0208042
0.0149083
0.0428086
0.0337368
0.0403385
0.0378501
0.0355633
0.0334904
0.0285827
0.0258039
0.0197949
0.0145724
0.0443952
0.0319991
0.038459
0.0403717
0.0384289
0.0363073
0.0292827
0.0262094
0.0190835
0.0141965
0.0459633
0.0304256
0.0368996
0.0425517
0.041126
0.0398132
0.0305848
0.0267055
0.0186712
0.0138599
0.0474452
0.0290533
0.0356442
0.0442053
0.043154
0.0438475
0.0326892
0.0273052
0.0185217
0.013599
0.0072476
0.00748274
0.00871284
0.00910205
0.00968599
0.00980018
0.0100166
0.00975363
0.00972238
0.00821817
0.0148816
0.0105591
0.0100112
0.0103995
0.010735
0.0111118
0.0116069
0.0118238
0.0121812
0.0117937
0.0258781
0.0187455
0.0126962
0.0128257
0.0128742
0.0135578
0.0144684
0.0163456
0.0169008
0.0160168
0.0295316
0.0636198
0.0181749
0.0175056
0.0170063
0.0182101
0.0200669
0.0289282
0.0333531
0.0157969
0.0310637
0.083424
0.0275174
0.0237451
0.0222995
0.0236125
0.0267983
0.0447472
0.0430733
0.0176901
0.00776974
0.007426
0.00708907
0.0067906
0.00654099
0.00634044
0.00619077
0.00609379
0.00605014
0.00605924
0.0106954
0.00980666
0.00900056
0.00831443
0.00771402
0.00720883
0.00681926
0.00655125
0.00639722
0.00634218
0.013257
0.01201
0.010915
0.0100238
0.00918678
0.00839352
0.00770442
0.00718544
0.00685954
0.00670281
0.0134541
0.0125371
0.0118038
0.0111888
0.0104741
0.00964239
0.00876683
0.00799386
0.00745834
0.00717006
0.0138208
0.0129387
0.0121281
0.011536
0.0109909
0.0104049
0.00970491
0.00890577
0.00821158
0.00777023
)
;

boundaryField
{
    left
    {
        type            calculated;
        value           nonuniform List<scalar> 
35
(
0.0208948
0.0194979
0.0183907
0.0180792
0.0185712
0.0197092
0.0211645
0.0221222
0.0195404
0.00792751
0.0317515
0.03082
0.029864
0.0288948
0.0279298
0.0269963
0.0260761
0.0250324
0.0237196
0.022238
0.0304269
0.0319455
0.0329361
0.033607
0.0340704
0.0343209
0.0343034
0.0339875
0.0334045
0.0326318
0.00721178
0.0136472
0.0222503
0.0260224
0.0283488
)
;
    }
    right
    {
        type            calculated;
        value           nonuniform List<scalar> 
35
(
0.0110374
0.0117387
0.0142867
0.0200238
0.0306667
0.0438421
0.0519433
0.0543564
0.0536407
0.0518732
0.0505533
0.0504611
0.0517017
0.0539427
0.0564867
0.0581057
0.0569971
0.0515612
0.0422109
0.0319997
0.0238515
0.0185292
0.0154986
0.0140538
0.0137369
0.0146723
0.0172856
0.0238583
0.0467802
0.0462386
0.0238065
0.0149339
0.0112186
0.0095483
0.00894797
)
;
    }
    down
    {
        type            calculated;
        value           nonuniform List<scalar> 
40
(
0.00638469
0.00680698
0.00832035
0.00867971
0.00935611
0.00935405
0.00946881
0.00911632
0.00891983
0.00739563
0.00704493
0.00679933
0.00655572
0.00634572
0.00618155
0.00605965
0.00597557
0.00592724
0.00591556
0.00594323
0.00601691
0.00613931
0.00631474
0.00654951
0.0068461
0.00722656
0.00766819
0.00816803
0.00879784
0.00902151
0.0105345
0.0150634
0.0200614
0.0304434
0.0236793
0.0171078
0.01406
0.0123554
0.0115269
0.0110515
)
;
    }
    up
    {
        type            calculated;
        value           nonuniform List<scalar> 
40
(
0.00681563
0.00782257
0.00986486
0.0128716
0.0133564
0.0116135
0.0102294
0.00946823
0.00902923
0.0088467
0.0059987
0.0060083
0.00603996
0.00606128
0.00611826
0.00614139
0.00623286
0.00624527
0.00638458
0.00637246
0.00644828
0.00635857
0.00627475
0.00620107
0.00613796
0.00608675
0.00604729
0.00601734
0.00600061
0.00599142
0.0067877
0.00686186
0.0077892
0.00789197
0.00786443
0.00762329
0.00755366
0.00696183
0.00704498
0.00657925
)
;
    }
    cylinder
    {
        type            calculated;
        value           nonuniform List<scalar> 
80
(
0.00668836
0.00659157
0.00656781
0.00661181
0.00677094
0.00712646
0.00781133
0.00917799
0.0125391
0.0257966
0.131396
0.0337919
0.0265993
0.0326106
0.0216417
0.0176921
0.0107789
0.00841329
0.00730139
0.00666583
0.00556725
0.00554416
0.00553332
0.00553674
0.00555855
0.00560435
0.00568307
0.00580685
0.00599159
0.00626234
0.00713046
0.00667965
0.00636857
0.00615503
0.00599483
0.00587103
0.00577503
0.00570281
0.00564593
0.0056008
0.00647719
0.00670406
0.00700573
0.00743352
0.00815434
0.00958864
0.0135459
0.0147656
0.00955675
0.00790547
0.00577226
0.00574078
0.00573653
0.00575729
0.00580216
0.00586764
0.0059513
0.00605193
0.0061684
0.00630697
0.00583497
0.00593771
0.006095
0.00632743
0.00666304
0.00714051
0.00781264
0.00876001
0.0100967
0.0117843
0.0128744
0.0121593
0.010769
0.00982777
0.00908656
0.00836451
0.00779864
0.0073947
0.00708815
0.00685431
)
;
    }
    defaultFaces
    {
        type            empty;
    }
}


// ************************************************************************* //
