/*--------------------------------*- C++ -*----------------------------------*\
| =========                 |                                                 |
| \\      /  F ield         | OpenFOAM: The Open Source CFD Toolbox           |
|  \\    /   O peration     | Version:  2406                                  |
|   \\  /    A nd           | Website:  www.openfoam.com                      |
|    \\/     M anipulation  |                                                 |
\*---------------------------------------------------------------------------*/
FoamFile
{
    version     2.0;
    format      ascii;
    arch        "LSB;label=32;scalar=64";
    class       volScalarField;
    location    "1";
    object      p;
}
// * * * * * * * * * * * * * * * * * * * * * * * * * * * * * * * * * * * * * //

dimensions      [0 2 -2 0 0 0 0];

internalField   nonuniform List<scalar> 
1800
(
-1.25838
-1.24281
-1.23322
-1.22227
-1.20894
-1.19659
-1.18876
-1.1884
-1.19798
-1.21922
-1.24072
-1.23322
-1.22857
-1.22148
-1.20749
-1.19296
-1.18166
-1.17533
-1.17457
-1.18411
-1.2684
-1.26393
-1.25544
-1.24676
-1.23556
-1.22366
-1.21351
-1.20629
-1.20148
-1.20752
-1.29624
-1.30252
-1.29931
-1.28969
-1.27867
-1.2674
-1.25684
-1.24768
-1.23953
-1.2397
-1.36859
-1.34666
-1.34277
-1.33472
-1.32412
-1.31245
-1.30066
-1.28937
-1.27883
-1.27362
-1.41153
-1.39619
-1.38921
-1.37982
-1.3674
-1.35303
-1.33789
-1.3227
-1.30797
-1.29535
-1.4617
-1.44478
-1.43489
-1.42174
-1.40446
-1.3846
-1.36369
-1.34254
-1.32131
-1.30009
-1.51037
-1.49039
-1.4761
-1.45615
-1.43056
-1.40214
-1.37289
-1.34357
-1.31399
-1.28366
-1.55354
-1.52999
-1.50848
-1.47835
-1.44149
-1.4022
-1.36281
-1.32393
-1.28516
-1.24568
-1.58545
-1.55767
-1.52603
-1.48296
-1.4331
-1.38191
-1.33176
-1.2831
-1.23526
-1.18706
-1.19981
-1.20275
-1.20009
-1.19539
-1.18978
-1.18431
-1.17945
-1.17517
-1.17152
-1.169
-1.26917
-1.26978
-1.2669
-1.26324
-1.25964
-1.25738
-1.25668
-1.25731
-1.25924
-1.26296
-1.33277
-1.33062
-1.32743
-1.32466
-1.32224
-1.32294
-1.32794
-1.33544
-1.34442
-1.35542
-1.3833
-1.3782
-1.3754
-1.37525
-1.37757
-1.38208
-1.38937
-1.40048
-1.41572
-1.43367
-1.41589
-1.4073
-1.40494
-1.40762
-1.4153
-1.42651
-1.4398
-1.45669
-1.47812
-1.50308
-1.42367
-1.41133
-1.40855
-1.41194
-1.42146
-1.4368
-1.45695
-1.48084
-1.50774
-1.53801
-1.40693
-1.39152
-1.38769
-1.38999
-1.3984
-1.41319
-1.434
-1.46029
-1.49097
-1.52496
-1.37218
-1.3548
-1.34916
-1.34859
-1.35346
-1.36468
-1.38236
-1.40636
-1.43582
-1.46878
-1.32951
-1.31131
-1.30335
-1.29832
-1.29707
-1.30125
-1.31169
-1.32906
-1.35326
-1.38208
-1.28888
-1.27117
-1.26154
-1.2521
-1.24376
-1.23892
-1.23978
-1.24843
-1.26601
-1.29209
-1.15457
-1.0017
-0.766373
-0.493122
-0.306806
-0.173531
-0.0907629
-0.0432138
-0.0155318
-0.00195965
-1.27035
-1.12724
-0.842082
-0.522972
-0.308918
-0.164003
-0.0788942
-0.0334613
-0.00897035
0.000136784
-1.39838
-1.27439
-0.935315
-0.560783
-0.312625
-0.153757
-0.0657329
-0.0226111
-0.00160382
0.00265113
-1.52899
-1.43752
-1.04456
-0.606512
-0.317888
-0.14275
-0.0511994
-0.0106036
0.00659384
0.0056838
-1.64677
-1.60491
-1.16697
-0.66024
-0.325721
-0.132002
-0.0360032
0.00215229
0.0153942
0.00920877
-1.73372
-1.76456
-1.29824
-0.722624
-0.338326
-0.123717
-0.0218697
0.0145607
0.0241561
0.0129789
-1.77473
-1.90717
-1.4326
-0.794651
-0.35859
-0.120753
-0.0112175
0.0249623
0.0318347
0.0164907
-1.76242
-2.02631
-1.56356
-0.875046
-0.388003
-0.125358
-0.00648241
0.0314749
0.037139
0.0190613
-1.69556
-2.12117
-1.6847
-0.960789
-0.425564
-0.13756
-0.00889468
0.0326343
0.0388306
0.0200362
-1.58553
-2.13385
-1.79223
-1.04972
-0.469568
-0.15606
-0.0178421
0.0283218
0.0364701
0.0191373
-1.48421
-2.21431
-1.87097
-1.10189
-0.494554
-0.171372
-0.0314366
0.0176965
0.0289129
0.0158084
-1.42526
-2.18465
-1.82723
-1.07742
-0.499077
-0.192732
-0.0571439
-0.00422173
0.0133647
0.00879188
-1.38392
-2.04418
-1.70873
-1.03524
-0.516467
-0.231901
-0.0932545
-0.0296677
-0.00206245
0.00296571
-1.31652
-1.81661
-1.55919
-0.993084
-0.542948
-0.281958
-0.13839
-0.0597874
-0.0182501
-0.0017498
-1.21625
-1.5861
-1.41468
-0.9638
-0.58202
-0.336647
-0.183092
-0.0893584
-0.0344175
-0.00701452
-1.10465
-1.38048
-1.2864
-0.945664
-0.630445
-0.398179
-0.231356
-0.120544
-0.0520449
-0.0136615
-0.978838
-1.20715
-1.19026
-0.95339
-0.69117
-0.459635
-0.274781
-0.147297
-0.0647965
-0.0173925
-0.848119
-1.07765
-1.13047
-0.974493
-0.742963
-0.504499
-0.303811
-0.163484
-0.0721008
-0.0188003
-0.75082
-1.01329
-1.09293
-0.979045
-0.768545
-0.527394
-0.319576
-0.172908
-0.0767184
-0.0199594
-0.691574
-1.00733
-1.1029
-0.984207
-0.766123
-0.526208
-0.322364
-0.176043
-0.0787193
-0.0208414
-1.0921
-1.1633
-1.21678
-1.25091
-1.26347
-1.25611
-1.23175
-1.2114
-1.2095
-1.26554
-0.955051
-1.03384
-1.0973
-1.14765
-1.17853
-1.19924
-1.20948
-1.22609
-1.25095
-1.28524
-0.82827
-0.909357
-0.976108
-1.03776
-1.0834
-1.12457
-1.16067
-1.19432
-1.23515
-1.2792
-0.712293
-0.792423
-0.86154
-0.927865
-0.984377
-1.03671
-1.08337
-1.12644
-1.17083
-1.22377
-0.60769
-0.684945
-0.755534
-0.821364
-0.881079
-0.93646
-0.985454
-1.03512
-1.07926
-1.13235
-0.515244
-0.589669
-0.658269
-0.721915
-0.779768
-0.83396
-0.882348
-0.93095
-0.975287
-1.02586
-0.437015
-0.508698
-0.574034
-0.635028
-0.68861
-0.740102
-0.783933
-0.8271
-0.86726
-0.909817
-0.375229
-0.444092
-0.507579
-0.56405
-0.614034
-0.66029
-0.697953
-0.734299
-0.764804
-0.796973
-0.337151
-0.403331
-0.46643
-0.518904
-0.567247
-0.606388
-0.637354
-0.663784
-0.682553
-0.702445
-0.321838
-0.389397
-0.45213
-0.505756
-0.554635
-0.591896
-0.625224
-0.645427
-0.662181
-0.667114
0.311619
0.244039
0.170214
0.0958179
0.0198567
-0.0594335
-0.14116
-0.220751
-0.291198
-0.335874
0.127141
0.0579206
-0.0160378
-0.0927461
-0.173514
-0.259369
-0.348415
-0.435196
-0.511807
-0.562305
-0.0784887
-0.147042
-0.219559
-0.296245
-0.378481
-0.466891
-0.559138
-0.64973
-0.729901
-0.784093
-0.275271
-0.344314
-0.41741
-0.49529
-0.579078
-0.669104
-0.762927
-0.85512
-0.938244
-0.991491
-0.454115
-0.525117
-0.599987
-0.679496
-0.764658
-0.855448
-0.949605
-1.04254
-1.12362
-1.17677
-0.615622
-0.688125
-0.763918
-0.843919
-0.929324
-1.01955
-1.11157
-1.20196
-1.28068
-1.3323
-0.7611
-0.83349
-0.908754
-0.987952
-1.07117
-1.1572
-1.24466
-1.33106
-1.40488
-1.45328
-0.893192
-0.963319
-1.03546
-1.10994
-1.18686
-1.26631
-1.34786
-1.42788
-1.49364
-1.53752
-1.01049
-1.07512
-1.14026
-1.20678
-1.27561
-1.34735
-1.42089
-1.49102
-1.54634
-1.58485
-1.1085
-1.16524
-1.22194
-1.27985
-1.34
-1.40242
-1.46508
-1.5222
-1.56577
-1.59861
1.35187
1.35388
1.35577
1.35699
1.35731
1.35666
1.35506
1.35297
1.35298
1.36536
1.30322
1.30257
1.30139
1.29922
1.2959
1.29132
1.28557
1.27954
1.27631
1.28588
1.23697
1.23298
1.22809
1.22192
1.21434
1.2052
1.19461
1.18379
1.17627
1.18209
1.15502
1.14713
1.13749
1.12603
1.11282
1.09769
1.08084
1.06391
1.05081
1.05163
1.05648
1.0443
1.0297
1.01275
0.993526
0.971781
0.947764
0.923603
0.903906
0.899496
0.943313
0.92641
0.906005
0.882568
0.856439
0.827349
0.795606
0.763671
0.736596
0.726417
0.818079
0.796074
0.769514
0.739199
0.705604
0.668426
0.62812
0.587527
0.551918
0.535641
0.685508
0.658275
0.624355
0.58556
0.542981
0.496418
0.446558
0.396717
0.352302
0.329028
0.54872
0.516265
0.474871
0.42729
0.375121
0.31823
0.257624
0.197405
0.143752
0.113192
0.420944
0.374868
0.319547
0.259859
0.197067
0.130162
0.0597858
-0.00978167
-0.0718719
-0.10956
1.40788
1.36165
1.36736
1.33982
1.32232
1.30167
1.29375
1.28767
1.3026
1.34551
1.40633
1.35945
1.36559
1.33687
1.3185
1.29574
1.28719
1.27677
1.28524
1.31771
1.40545
1.35755
1.36399
1.33354
1.31401
1.28903
1.27972
1.26331
1.26325
1.27968
1.40518
1.35602
1.36256
1.32981
1.30892
1.28167
1.27128
1.24727
1.23713
1.23144
1.40542
1.3549
1.36126
1.3257
1.30341
1.27378
1.26179
1.22873
1.20738
1.17214
1.40604
1.35432
1.36007
1.32135
1.29771
1.26527
1.25126
1.20784
1.17451
1.10062
1.40686
1.35438
1.3589
1.31684
1.29177
1.25571
1.23967
1.18491
1.13942
1.01711
1.40793
1.35513
1.35768
1.31198
1.28498
1.24438
1.22695
1.16028
1.1017
0.921619
1.40953
1.35666
1.35646
1.30625
1.27653
1.23135
1.21329
1.13413
1.06016
0.810804
1.41033
1.35939
1.35564
1.29958
1.26634
1.21784
1.19919
1.10758
1.0185
0.694937
1.40881
1.36289
1.35535
1.29403
1.25637
1.20397
1.18357
1.07905
0.970461
0.593729
1.42188
1.36393
1.35931
1.29172
1.24882
1.19123
1.16766
1.05508
0.929965
0.609224
1.43619
1.36526
1.36779
1.29374
1.24478
1.18105
1.15109
1.03224
0.890807
0.618496
1.443
1.37149
1.37693
1.29845
1.24206
1.17279
1.13254
1.01266
0.854402
0.616944
1.45
1.37618
1.38183
1.30087
1.23812
1.16565
1.11126
0.995271
0.821714
0.608748
1.45933
1.37911
1.37975
1.29557
1.23291
1.15845
1.08881
0.982367
0.794297
0.596901
1.47004
1.37761
1.36943
1.28186
1.22645
1.15119
1.06896
0.978354
0.774122
0.584575
1.4831
1.37766
1.35517
1.26734
1.21875
1.14528
1.05221
0.984199
0.760283
0.578096
1.49885
1.38224
1.34574
1.25483
1.21204
1.14102
1.03946
0.989905
0.751957
0.581818
1.54274
1.38499
1.34184
1.25271
1.21195
1.1389
1.04361
0.995367
0.750165
0.602663
0.309681
0.150438
-0.0358477
-0.214212
-0.375231
-0.521949
-0.657185
-0.782929
-0.899892
-1.00403
0.280241
0.145257
-0.00470114
-0.150692
-0.28545
-0.412451
-0.533337
-0.65042
-0.761429
-0.864588
0.283931
0.158331
0.029448
-0.09417
-0.210215
-0.323044
-0.432668
-0.540808
-0.642875
-0.741144
0.300006
0.183987
0.0681404
-0.0402555
-0.141857
-0.241655
-0.340762
-0.440515
-0.535411
-0.628434
0.324352
0.217269
0.111129
0.0137865
-0.0767249
-0.165567
-0.255421
-0.347204
-0.437512
-0.525805
0.349812
0.253162
0.156632
0.0677535
-0.0151791
-0.0969338
-0.180328
-0.265812
-0.351641
-0.43571
0.374524
0.290642
0.203793
0.120771
0.041596
-0.036653
-0.116343
-0.197383
-0.279257
-0.359781
0.400646
0.32817
0.249512
0.170136
0.0917593
0.0146512
-0.0619586
-0.139172
-0.219185
-0.298351
0.419368
0.351991
0.278081
0.200639
0.121558
0.0436436
-0.0319384
-0.107155
-0.185054
-0.261829
0.442232
0.374586
0.301393
0.223616
0.144282
0.0656359
-0.0127306
-0.0917371
-0.170817
-0.247985
-0.870594
-0.839857
-0.794824
-0.743467
-0.691923
-0.644244
-0.601882
-0.564629
-0.533781
-0.510511
-0.966254
-0.936506
-0.893955
-0.843079
-0.792116
-0.745102
-0.703707
-0.667571
-0.637362
-0.614943
-1.03046
-1.00224
-0.96345
-0.91541
-0.866362
-0.820299
-0.7794
-0.744354
-0.714842
-0.692378
-1.06562
-1.03932
-1.00553
-0.962429
-0.916239
-0.87181
-0.83216
-0.79829
-0.769666
-0.74707
-1.07732
-1.05328
-1.02546
-0.9886
-0.94693
-0.905297
-0.867132
-0.834302
-0.806693
-0.784348
-1.07293
-1.05174
-1.0297
-0.999375
-0.96318
-0.92535
-0.88914
-0.857093
-0.830207
-0.808441
-1.05985
-1.04201
-1.02492
-1.00053
-0.969681
-0.935695
-0.90153
-0.86979
-0.842464
-0.820456
-1.04363
-1.02943
-1.01639
-0.99691
-0.970638
-0.939808
-0.907196
-0.87532
-0.846686
-0.823292
-1.02648
-1.01625
-1.00652
-0.990985
-0.968507
-0.940272
-0.908765
-0.876408
-0.846042
-0.822009
-1.00729
-1.00118
-0.993878
-0.981048
-0.961418
-0.935405
-0.904831
-0.871689
-0.837944
-0.809564
-0.985015
-0.982565
-0.976773
-0.965345
-0.947713
-0.924281
-0.896387
-0.865976
-0.83413
-0.799832
-0.962318
-0.962962
-0.95794
-0.94701
-0.930382
-0.909147
-0.884372
-0.857395
-0.828736
-0.795814
-0.94601
-0.948262
-0.944037
-0.933852
-0.917885
-0.898179
-0.876559
-0.85327
-0.827944
-0.798339
-0.940218
-0.943322
-0.940425
-0.932376
-0.918479
-0.899875
-0.880444
-0.860739
-0.838812
-0.812491
-0.941532
-0.945637
-0.943465
-0.937489
-0.926738
-0.910409
-0.893496
-0.877106
-0.858343
-0.833803
-0.952917
-0.958041
-0.956124
-0.951328
-0.944029
-0.931689
-0.915302
-0.89905
-0.882527
-0.864175
-0.979695
-0.985565
-0.984558
-0.980573
-0.973559
-0.962067
-0.946841
-0.930913
-0.915291
-0.89963
-1.01982
-1.02589
-1.02498
-1.02065
-1.01325
-1.00278
-0.989711
-0.975366
-0.960867
-0.946924
-1.07117
-1.07685
-1.0754
-1.07045
-1.06289
-1.05349
-1.0427
-1.03097
-1.019
-1.00773
-1.13218
-1.13685
-1.13475
-1.12962
-1.12264
-1.11483
-1.10667
-1.09822
-1.08985
-1.08232
-0.731486
-0.614918
-0.551384
-0.464391
-0.367019
-0.266977
-0.180548
-0.111525
-0.0593725
-0.0165886
-0.736625
-0.615113
-0.55042
-0.455873
-0.355232
-0.257003
-0.172757
-0.106304
-0.0563609
-0.0156213
-0.749283
-0.619997
-0.55302
-0.449237
-0.344974
-0.247145
-0.164632
-0.100549
-0.0527798
-0.0142945
-0.76928
-0.630861
-0.559603
-0.444214
-0.336221
-0.237556
-0.156329
-0.0944706
-0.048883
-0.0128127
-0.794271
-0.64842
-0.569865
-0.44082
-0.328458
-0.228138
-0.147856
-0.0881307
-0.0447775
-0.0112979
-0.822976
-0.673913
-0.584051
-0.439475
-0.321635
-0.218886
-0.139231
-0.0815751
-0.0405294
-0.00980382
-0.859937
-0.708637
-0.603072
-0.440917
-0.315871
-0.209784
-0.13042
-0.0747952
-0.0361515
-0.00834196
-0.909527
-0.755553
-0.628651
-0.446003
-0.311319
-0.200771
-0.121315
-0.0677057
-0.0315822
-0.00688519
-0.974132
-0.818397
-0.662681
-0.455681
-0.308151
-0.191775
-0.111775
-0.0601759
-0.0267087
-0.00538081
-1.05552
-0.900634
-0.707353
-0.470996
-0.306571
-0.182722
-0.101647
-0.0520618
-0.0214019
-0.0037646
-0.714827
-0.621009
-0.554324
-0.468021
-0.366536
-0.268029
-0.183286
-0.11331
-0.0595351
-0.016662
-0.70743
-0.614403
-0.551506
-0.468161
-0.368024
-0.269758
-0.184725
-0.11441
-0.0601689
-0.0168407
-0.704563
-0.609614
-0.548948
-0.468054
-0.368602
-0.270196
-0.184901
-0.114455
-0.0602639
-0.0167268
-0.704689
-0.60568
-0.545442
-0.46566
-0.370168
-0.271359
-0.185372
-0.114791
-0.0607561
-0.0168328
-0.713734
-0.605849
-0.544576
-0.461984
-0.371224
-0.271877
-0.185035
-0.114588
-0.0609856
-0.0170234
-0.489644
-0.590001
-0.665356
-0.718283
-0.753121
-0.774633
-0.783948
-0.78491
-0.777678
-0.760801
-0.487302
-0.588277
-0.662395
-0.713222
-0.745612
-0.765395
-0.773965
-0.774543
-0.769198
-0.751538
-0.488958
-0.590274
-0.664277
-0.71474
-0.746942
-0.767117
-0.775608
-0.775993
-0.769872
-0.751742
-0.492583
-0.595282
-0.669945
-0.72097
-0.754077
-0.775106
-0.783946
-0.783538
-0.776494
-0.759527
-0.498957
-0.603409
-0.679356
-0.731747
-0.766674
-0.789077
-0.799157
-0.798728
-0.791244
-0.77876
1.03486
1.0282
1.01813
1.00739
0.996705
0.985638
0.974248
0.963807
0.957058
0.960733
1.11373
1.11218
1.10775
1.10225
1.09626
1.08952
1.08217
1.07535
1.07182
1.07852
1.18637
1.18728
1.18619
1.18426
1.18191
1.17898
1.17549
1.17217
1.17142
1.18053
1.25147
1.25442
1.25616
1.25731
1.25807
1.25826
1.25773
1.25678
1.25771
1.26882
1.30642
1.3109
1.31476
1.31823
1.32131
1.32382
1.32546
1.32615
1.32798
1.34033
1.35019
1.35584
1.36136
1.36661
1.37151
1.37586
1.37927
1.3812
1.38332
1.39532
1.38111
1.38739
1.3939
1.40029
1.40638
1.41205
1.41695
1.42031
1.42288
1.43211
1.39767
1.40388
1.41048
1.41696
1.42307
1.42875
1.43379
1.43762
1.44087
1.45058
1.39874
1.40418
1.40995
1.41543
1.42036
1.42467
1.42816
1.43053
1.43334
1.44728
1.38366
1.38769
1.39187
1.39559
1.39858
1.40078
1.4021
1.40263
1.40451
1.41855
-0.379096
-0.40444
-0.43655
-0.474445
-0.517223
-0.564894
-0.617005
-0.668169
-0.713866
-0.744302
-0.224569
-0.252632
-0.286199
-0.324801
-0.368159
-0.415731
-0.465967
-0.515635
-0.561707
-0.590281
-0.0550223
-0.0856845
-0.120563
-0.15947
-0.202312
-0.248663
-0.297039
-0.344721
-0.387503
-0.414468
0.119515
0.0871647
0.0516757
0.0132312
-0.028154
-0.0722849
-0.117967
-0.162426
-0.201704
-0.224038
0.289661
0.257177
0.222497
0.185855
0.147097
0.106181
0.0640814
0.0235499
-0.0113758
-0.0288289
0.448278
0.417591
0.385522
0.352204
0.317246
0.28045
0.242702
0.206802
0.176992
0.163687
0.592283
0.565236
0.537419
0.508647
0.478308
0.446203
0.413279
0.38241
0.357791
0.348111
0.723324
0.700829
0.677922
0.654007
0.628426
0.601151
0.573246
0.547521
0.527804
0.521516
0.847219
0.828303
0.808724
0.788371
0.766814
0.744084
0.721162
0.700469
0.68528
0.682241
0.961333
0.944936
0.92657
0.908547
0.890765
0.872829
0.855172
0.839476
0.828515
0.828743
1.48097
1.39413
1.38297
1.34169
1.32593
1.30905
1.28832
1.26486
1.22098
1.14278
1.46721
1.39082
1.38377
1.34464
1.32886
1.31292
1.29492
1.27435
1.24379
1.19454
1.45521
1.38733
1.38342
1.34653
1.33073
1.31559
1.30032
1.28437
1.26763
1.24377
1.44491
1.38359
1.38229
1.34782
1.33194
1.31735
1.30461
1.29326
1.28777
1.28562
1.43613
1.37987
1.3806
1.34848
1.33246
1.31812
1.30748
1.29996
1.30354
1.31944
1.4287
1.37632
1.37848
1.34844
1.3323
1.31784
1.3088
1.30423
1.31506
1.34523
1.4225
1.37296
1.37613
1.34774
1.33148
1.31651
1.30856
1.30599
1.32219
1.36283
1.41741
1.36981
1.37374
1.34644
1.33006
1.31419
1.30684
1.30521
1.3247
1.37197
1.41334
1.36686
1.37144
1.34465
1.32806
1.31092
1.30371
1.30189
1.32237
1.37234
1.41019
1.36414
1.36931
1.34243
1.32549
1.30674
1.29931
1.29604
1.31501
1.36363
1.60232
1.40482
1.36969
1.32059
1.30846
1.28938
1.26099
1.2241
1.15606
1.0636
1.56373
1.40833
1.37663
1.32469
1.31095
1.29123
1.2622
1.22498
1.15481
1.0543
1.53932
1.40857
1.37943
1.32788
1.31321
1.29396
1.26528
1.22961
1.16137
1.05789
1.51613
1.40608
1.38089
1.33282
1.31719
1.29861
1.2718
1.23915
1.17246
1.06894
1.49693
1.3996
1.38153
1.33734
1.32152
1.30371
1.2795
1.24932
1.18892
1.08605
0.877507
0.797361
0.697805
0.576818
0.436569
0.280138
0.113433
-0.0550694
-0.216753
-0.363644
0.869731
0.790574
0.692721
0.574582
0.437996
0.284778
0.119611
-0.0492214
-0.212542
-0.361116
0.881098
0.8
0.700117
0.581427
0.445036
0.291842
0.126019
-0.0443447
-0.209758
-0.360543
0.904689
0.815679
0.710486
0.590089
0.452809
0.298582
0.131365
-0.0410129
-0.208898
-0.362196
0.943681
0.83946
0.72361
0.598764
0.459299
0.303521
0.13472
-0.0397664
-0.210316
-0.366362
)
;

boundaryField
{
    left
    {
        type            zeroGradient;
    }
    right
    {
        type            fixedValue;
        value           uniform 0;
    }
    down
    {
        type            zeroGradient;
    }
    up
    {
        type            zeroGradient;
    }
    cylinder
    {
        type            zeroGradient;
    }
    defaultFaces
    {
        type            empty;
    }
}


// ************************************************************************* //
