/*--------------------------------*- C++ -*----------------------------------*\
| =========                 |                                                 |
| \\      /  F ield         | OpenFOAM: The Open Source CFD Toolbox           |
|  \\    /   O peration     | Version:  2406                                  |
|   \\  /    A nd           | Website:  www.openfoam.com                      |
|    \\/     M anipulation  |                                                 |
\*---------------------------------------------------------------------------*/
FoamFile
{
    version     2.0;
    format      ascii;
    arch        "LSB;label=32;scalar=64";
    class       surfaceScalarField;
    location    "1";
    object      phi;
}
// * * * * * * * * * * * * * * * * * * * * * * * * * * * * * * * * * * * * * //

dimensions      [0 3 -1 0 0 0 0];

oriented        oriented;

internalField   nonuniform List<scalar> 
3485
(
7.82792e-05
0.000179914
-0.000258193
0.00219773
0.000953381
-0.00307283
0.00705178
0.00219489
-0.00704893
0.0148635
0.00199816
-0.00980992
0.0258084
-0.000413774
-0.0105311
0.0399655
-0.00487345
-0.00928364
0.0573341
-0.0108723
-0.00649632
0.0779728
-0.0180018
-0.00263687
0.10203
-0.0263427
0.00228505
-0.0310801
0.00686422
0.126246
-0.000394519
0.000574432
-0.000174449
0.000733312
0.00260512
-0.000584688
0.00935277
-0.00474948
0.020309
-0.01137
0.0351278
-0.0196922
0.0532431
-0.0289876
0.0739772
-0.0387359
0.0964704
-0.0488359
-0.0550984
0.120489
0.000128639
0.000445793
0.000741249
0.000120702
0.00476229
-0.00460573
0.0135794
-0.0135666
0.0271214
-0.024912
0.044605
-0.0371759
0.0650001
-0.0493827
0.0872865
-0.0610223
0.110572
-0.0721216
-0.0792884
0.134762
-8.84318e-05
0.000534225
0.00250402
-0.00247175
0.0102941
-0.0123958
0.0231625
-0.026435
0.0402623
-0.0420119
0.0603425
-0.0572561
0.0821406
-0.0711807
0.104694
-0.0835761
0.127382
-0.0948094
-0.102502
0.150595
0.000949005
-0.00041478
0.00664632
-0.00816906
0.0180932
-0.0238427
0.0345386
-0.0428804
0.0542388
-0.061712
0.0754645
-0.0784818
0.0970146
-0.0927308
0.118315
-0.104877
0.139178
-0.115673
-0.124421
0.161098
0.00194645
-0.00236123
0.0107479
-0.0169705
0.0257058
-0.0388006
0.044687
-0.0618616
0.0652798
-0.0823048
0.0858026
-0.0990046
0.105531
-0.112459
0.124443
-0.123788
0.142857
-0.134087
-0.143794
0.16223
0.0035186
-0.00587983
0.0150627
-0.0285146
0.0324716
-0.0562095
0.0523729
-0.0817628
0.072234
-0.102166
0.0909149
-0.117686
0.108275
-0.12982
0.124628
-0.140141
0.140379
-0.149838
-0.159431
0.156016
0.00496622
-0.0108461
0.0187387
-0.0422871
0.0372906
-0.0747615
0.0566452
-0.101117
0.0747339
-0.120255
0.0910356
-0.133987
0.105736
-0.14452
0.119158
-0.153563
0.131483
-0.162162
-0.17063
0.142681
0.00623816
-0.0170842
0.0213902
-0.0574391
0.0397769
-0.0931482
0.0574969
-0.118837
0.0731151
-0.135873
0.0865528
-0.147425
0.098134
-0.156102
0.108138
-0.163567
0.116682
-0.170706
-0.177717
0.12377
0.00725313
-0.0243373
0.0227497
-0.0729357
0.0397398
-0.110138
0.0548152
-0.133913
0.0672001
-0.148258
0.0772249
-0.15745
0.0853853
-0.164262
0.0920275
-0.170209
0.0973271
-0.176006
0.101356
-0.181746
-0.00184801
0.0212376
-0.0193896
-0.00570522
0.0408779
-0.0370207
-0.0103349
0.0488701
-0.0442403
-0.0152326
0.0521075
-0.0472098
-0.0202205
0.0532048
-0.0482169
-0.0251595
0.0529974
-0.0480585
-0.0299436
0.0518801
-0.047096
-0.0345123
0.0500728
-0.0455041
-0.0388299
0.0477064
-0.0433888
0.0449549
-0.0428988
-0.040886
-0.000921137
0.0221587
-0.00359478
0.0435515
-0.00712837
0.0524036
-0.0109966
0.0559758
-0.0150902
0.0572984
-0.0193586
0.0572658
-0.023619
0.0561406
-0.0277813
0.0542351
-0.0318224
0.0517475
0.0488809
-0.0357485
0.000225623
0.0219331
-0.000864451
0.0446416
-0.0029064
0.0544456
-0.00521622
0.0582856
-0.00756645
0.0596486
-0.010101
0.0598004
-0.0129496
0.0589892
-0.0160579
0.0573434
-0.0192541
0.0549437
0.052014
-0.0223872
0.00150901
0.0204241
0.00252305
0.0436276
0.00268408
0.0542846
0.00251871
0.058451
0.00234139
0.0598259
0.00207534
0.0600665
0.00140354
0.059661
0.0001849
0.058562
-0.00148007
0.0566087
0.0539256
-0.00339169
0.003243
0.0171811
0.0072943
0.0395762
0.010562
0.0510169
0.0129841
0.0560288
0.0147793
0.0580307
0.0162198
0.0586259
0.0175087
0.0583721
0.0186797
0.0573909
0.0196828
0.0556056
0.0529693
0.0206392
0.00441509
0.012766
0.0111252
0.0328661
0.0174232
0.0447189
0.0227727
0.0506793
0.0273627
0.0534408
0.0314932
0.0544954
0.0353951
0.0544703
0.0392275
0.0535586
0.0431145
0.0517186
0.0488843
0.0471995
0.00463608
0.0081299
0.0130046
0.0244976
0.021848
0.0358756
0.0301349
0.0423924
0.0378474
0.0457282
0.0452104
0.0471324
0.0524144
0.0472662
0.0595611
0.0464119
0.066718
0.0445616
0.0414151
0.0741873
0.00399384
0.00413606
0.0126903
0.0158011
0.0230427
0.0255231
0.0336669
0.0317682
0.044228
0.0351671
0.0547863
0.0365742
0.0654526
0.0365999
0.0762461
0.0356184
0.0870818
0.033726
0.0299737
0.0985231
0.00271802
0.00141803
0.0103076
0.00821155
0.0205788
0.015252
0.032153
0.020194
0.044519
0.0228012
0.0576179
0.0234752
0.0715038
0.022714
0.0861528
0.0209694
0.101379
0.0184996
0.0136593
0.117694
0.00115984
0.00629857
0.0145016
0.0248856
0.0371557
0.0513473
0.067565
0.0858975
0.106682
0.127206
-0.0501357
0.25042
-0.243183
-0.0172376
-0.0330051
0.000107009
0.0250762
-0.185213
0.142899
0.0669365
-0.258265
0.216405
0.101147
-0.262603
0.228392
0.125168
-0.23071
0.20669
0.14055
-0.186683
0.171301
0.149461
-0.140582
0.131671
0.154595
-0.103464
0.0983304
-0.051709
0.0504483
-0.0528383
0.26751
-0.0289965
-0.0568468
0.0153012
-0.229511
0.0603656
-0.30333
0.0978026
-0.30004
0.124051
-0.256959
0.140871
-0.203503
0.150596
-0.150307
0.156374
-0.109242
-0.0532809
-0.0487134
0.293836
-0.0346562
-0.0709041
0.010278
-0.274445
0.0570768
-0.350128
0.0962335
-0.339197
0.12369
-0.284415
0.14144
-0.221253
0.151781
-0.160647
0.158212
-0.115673
-0.0552925
-0.0345801
0.325024
-0.0288332
-0.076651
0.0147247
-0.318003
0.0613452
-0.396749
0.0996633
-0.377515
0.126229
-0.310981
0.143582
-0.238607
0.15384
-0.170906
0.160644
-0.122477
-0.0577783
-0.0101443
0.355808
-0.00937416
-0.0774212
0.0313702
-0.358747
0.0766048
-0.441984
0.111743
-0.412653
0.13472
-0.333959
0.149459
-0.253345
0.158223
-0.17967
0.164637
-0.128892
-0.0605822
0.0214894
0.381518
0.0192574
-0.0751891
0.0570028
-0.396493
0.101545
-0.486526
0.133889
-0.444997
0.151924
-0.351993
0.161784
-0.263205
0.167103
-0.184989
0.171768
-0.133557
-0.0632501
0.0571208
0.398584
0.0512393
-0.0693076
0.0830264
-0.42828
0.128376
-0.531875
0.161901
-0.478522
0.177363
-0.367455
0.182142
-0.267983
0.18269
-0.185537
0.184075
-0.134942
-0.0650923
0.0932322
0.403875
0.0822475
-0.058323
0.105009
-0.451041
0.14982
-0.576687
0.187919
-0.516621
0.205879
-0.385416
0.20867
-0.270774
0.205359
-0.182226
0.20295
-0.132533
-0.0656714
0.127645
0.393923
0.111877
-0.0425548
0.126492
-0.465656
0.166587
-0.616782
0.207632
-0.557665
0.231152
-0.408935
0.236303
-0.275926
0.232231
-0.178154
0.227418
-0.12772
-0.0654186
0.157531
0.363599
0.143327
-0.0283509
0.150786
-0.473115
0.183827
-0.649823
0.223017
-0.596855
0.250265
-0.436184
0.259965
-0.285625
0.258336
-0.176525
0.253859
-0.123243
-0.0656549
0.331231
0.26758
-0.235213
0.435457
-0.132577
0.504767
-0.542425
0.528375
-0.673431
0.523623
-0.592103
0.510925
-0.423486
0.492291
-0.266992
0.470117
-0.154351
0.448723
-0.101849
-0.0550006
0.514461
0.179696
-0.426577
0.631125
-0.249241
0.680209
-0.591509
0.66576
-0.658982
0.619119
-0.545462
0.573527
-0.377894
0.539201
-0.232667
0.514059
-0.129209
0.493812
-0.0816013
-0.0446921
0.718285
0.0962043
-0.634793
0.787115
-0.318071
0.786125
-0.59052
0.743484
-0.61634
0.683552
-0.485529
0.624286
-0.318628
0.577723
-0.186104
0.546461
-0.0979469
0.524327
-0.0594668
-0.0339475
0.856395
0.0171468
-0.777337
0.880343
-0.34202
0.84428
-0.554457
0.777589
-0.54965
0.70396
-0.4119
0.638841
-0.253509
0.589824
-0.137087
0.557627
-0.0657507
0.53492
-0.0367594
-0.0232338
0.927375
-0.0505139
-0.859715
0.932818
-0.347462
0.8872
-0.508838
0.811018
-0.473468
0.724554
-0.325436
0.647488
-0.176443
0.59138
-0.0809785
0.556607
-0.0309785
0.533813
-0.0139648
-0.0128284
0.964502
-0.107942
-0.907074
0.960265
-0.343224
0.891208
-0.439782
0.790287
-0.372547
0.693905
-0.229053
0.619392
-0.101931
0.569469
-0.0310552
0.540118
-0.00162744
0.52189
0.00426324
-0.00387275
0.97139
-0.152319
-0.927013
0.946041
-0.317875
0.850941
-0.344683
0.73011
-0.251716
0.626546
-0.125489
0.557583
-0.0329684
0.518508
0.00802061
0.498776
0.0181044
0.487885
0.0151537
0.00237185
0.913669
-0.167922
-0.898066
0.839584
-0.243791
0.704656
-0.209754
0.571555
-0.118615
0.481664
-0.0355987
0.436987
0.0117093
0.419133
0.0258745
0.413714
0.023523
0.41211
0.0167577
0.00464382
0.694754
-0.120547
-0.742128
0.553243
-0.10228
0.400524
-0.0570349
0.299928
-0.0180188
0.259302
0.00502701
0.255033
0.0159785
0.263182
0.0177252
0.272646
0.0140588
0.279841
0.00956268
0.00309842
0.210496
-0.331043
0.108216
0.0511808
0.0331619
0.0381889
0.0541674
0.0718926
0.0859514
0.0955141
0.533547
0.0953397
-0.527531
0.536833
0.120483
0.536097
0.143418
0.526415
0.165698
0.505705
0.18294
0.467444
0.199359
0.413479
0.20456
0.34484
0.203402
0.276082
0.189246
0.167115
0.564225
0.0833015
-0.552187
0.574198
0.110511
0.58435
0.133265
0.589904
0.160145
0.59245
0.180393
0.5873
0.204509
0.570127
0.221733
0.540839
0.23269
0.482916
0.24717
0.223455
0.588357
0.0705819
-0.575638
0.600996
0.0978725
0.615653
0.118608
0.629644
0.146154
0.643454
0.166583
0.657369
0.190594
0.665643
0.213459
0.670397
0.227935
0.661854
0.255713
0.250516
0.607528
0.0586564
-0.595602
0.621938
0.0834628
0.6389
0.101646
0.657927
0.127128
0.678349
0.146161
0.700296
0.168646
0.723321
0.190435
0.744733
0.206523
0.768106
0.23234
0.241285
0.617897
0.0467432
-0.605984
0.634129
0.0672309
0.653166
0.0826092
0.67603
0.104263
0.701082
0.12111
0.728528
0.1412
0.759717
0.159247
0.790371
0.175868
0.827542
0.195169
0.209112
0.617824
0.0340038
-0.605084
0.635556
0.0494986
0.656521
0.0616441
0.682122
0.0786621
0.711404
0.0918281
0.743657
0.108947
0.780534
0.12237
0.818559
0.137843
0.862584
0.151144
0.164622
0.60565
0.0207614
-0.592407
0.624112
0.0310366
0.646409
0.0393466
0.673353
0.0517188
0.705383
0.0597974
0.740703
0.0736265
0.782128
0.0809449
0.825641
0.0943304
0.875483
0.101303
0.113091
0.571757
0.00840978
-0.559406
0.589297
0.0134973
0.610386
0.0182568
0.637008
0.0250974
0.668
0.0288053
0.704237
0.0373893
0.745984
0.0391982
0.791584
0.0487304
0.84358
0.0493064
0.0586049
0.485231
-0.000330106
-0.476491
0.4977
0.00102904
0.513248
0.0027081
0.533761
0.004585
0.556738
0.00582788
0.586018
0.00810928
0.617061
0.00815558
0.654839
0.0109521
0.694972
0.00917353
0.0114485
0.269054
-0.269384
0.270083
0.272791
0.277376
0.283204
0.291313
0.299469
0.310421
0.319594
0.0658583
0.136644
-0.1243
-0.0782023
0.0553539
0.13618
-0.125675
0.0462145
0.136205
-0.127066
0.0377874
0.136819
-0.128392
0.0296904
0.137463
-0.129366
0.0218497
0.137438
-0.129598
0.0143926
0.135503
-0.128046
0.00755844
0.129322
-0.122487
0.00218405
0.111326
-0.105951
0.0600879
-0.0579039
0.0633953
0.147594
-0.0743447
0.0529411
0.146634
0.0433009
0.145846
0.0344968
0.145623
0.0263524
0.145607
0.0188003
0.144991
0.0119055
0.142398
0.00582721
0.1354
0.00140966
0.115743
0.0614976
0.0557727
0.157256
-0.0654349
0.0461682
0.156238
0.0370676
0.154946
0.028719
0.153971
0.021154
0.153172
0.0143755
0.151769
0.00841073
0.148363
0.00342438
0.140386
0.00023983
0.118928
0.0617374
0.043558
0.165347
-0.0516496
0.0355256
0.164271
0.0278018
0.16267
0.0206445
0.161129
0.0142044
0.159612
0.0086049
0.157369
0.00389325
0.153075
0.000251937
0.144028
-0.00104905
0.120229
0.0606884
0.0285535
0.171918
-0.0351237
0.022257
0.170567
0.0162453
0.168682
0.0106669
0.166707
0.00574197
0.164537
0.00166758
0.161443
-0.00152791
0.15627
-0.00331436
0.145814
-0.00264901
0.119564
0.0580393
0.0113919
0.177037
-0.0165112
0.00675527
0.175204
0.00250936
0.172927
-0.00122793
0.170444
-0.00423507
0.167544
-0.00646747
0.163675
-0.00789571
0.157698
-0.00758485
0.145503
-0.0043813
0.11636
0.053658
-0.00833748
0.180734
0.00464087
-0.0112917
0.178158
-0.013593
0.175229
-0.0152049
0.172056
-0.0161367
0.168476
-0.0164325
0.163971
-0.0156202
0.156886
-0.0124027
0.142286
-0.00607292
0.11003
0.0475851
-0.029691
0.182887
0.027538
-0.0308888
0.179356
-0.0312516
0.175591
-0.0308924
0.171697
-0.0298475
0.167431
-0.0278366
0.16196
-0.0239791
0.153028
-0.0170877
0.135394
-0.00737256
0.100315
0.0402126
-0.0522391
0.183288
0.051838
-0.0515936
0.178711
-0.0500248
0.174023
-0.0475943
0.169267
-0.0441371
0.163974
-0.0390968
0.15692
-0.0315177
0.145449
-0.0206643
0.124541
-0.00798275
0.0876336
0.0322298
-0.0752384
0.0767798
-0.0725339
-0.0687203
-0.0637158
-0.0571917
-0.0485295
-0.0369931
-0.0225904
-0.00789247
0.0864545
0.0382435
-0.0967696
-0.0279284
0.076105
0.0390682
-0.0287187
0.0657288
0.0398742
-0.029498
0.0553367
0.040627
-0.0302348
0.0449347
0.0412683
-0.0308664
0.0345374
0.041628
-0.0312307
0.0242142
0.0412421
-0.0309189
0.0142043
0.0390659
-0.029056
0.00528071
0.0329452
-0.0240216
0.0178336
-0.0125529
0.0875683
0.0486913
-0.0980162
0.0770825
0.0495539
0.0665619
0.0503949
0.0560205
0.0511684
0.0454709
0.0518179
0.0349349
0.052164
0.024483
0.051694
0.0143451
0.0492038
0.00530478
0.0419855
0.0231384
0.0887188
0.059119
-0.0991465
0.0782386
0.060034
0.0677103
0.0609232
0.0571309
0.0617478
0.0464967
0.0624521
0.0358189
0.0628418
0.0251747
0.0623382
0.0148065
0.059572
0.00550298
0.051289
0.0286414
0.0864069
0.0695999
-0.0968878
0.0759354
0.0705056
0.0654729
0.0713857
0.0550375
0.0721832
0.0446313
0.0728583
0.0342587
0.0732145
0.0239771
0.0726198
0.0140014
0.0695477
0.00510944
0.060181
0.0337509
0.0867834
0.0800202
-0.0972036
0.0763361
0.0809529
0.0658565
0.0818653
0.0553543
0.0826854
0.0448456
0.083367
0.0343662
0.0836939
0.0240104
0.0829755
0.0140065
0.0795517
0.00510413
0.0690833
0.038855
0.0838257
0.0901453
-0.0939509
0.0736904
0.0910882
0.0635323
0.0920233
0.0533687
0.0928491
0.0432034
0.0935323
0.0330545
0.0938428
0.0230111
0.0930189
0.0133144
0.0892484
0.00474511
0.0776526
0.0436001
0.0797657
0.099927
-0.0895473
0.0701044
0.100749
0.060453
0.101675
0.0507589
0.102543
0.0410164
0.103275
0.0312733
0.103586
0.02166
0.102632
0.0124333
0.0984751
0.00437448
0.0857115
0.0479746
0.0745177
0.109711
-0.0843015
0.064946
0.110321
0.0555794
0.111041
0.0463861
0.111737
0.0372948
0.112366
0.0282808
0.1126
0.0194338
0.111479
0.0109938
0.106915
0.00373524
0.09297
0.0517098
0.0717363
0.117972
-0.0799971
0.0632149
0.118843
0.0542602
0.119996
0.0451049
0.120892
0.0359631
0.121508
0.026985
0.121578
0.018324
0.12014
0.0102077
0.115031
0.00337702
0.0998007
0.0550868
0.0616098
-0.0679384
0.0547772
0.0477072
0.0402075
0.0323497
0.0243299
0.0164238
0.00896783
0.00281704
0.203277
-0.0184289
0.0131419
0.204557
0.0857024
-0.0869827
0.200626
0.170223
-0.166292
0.195659
0.181807
-0.17684
0.191295
0.163005
-0.158642
0.186907
0.155908
-0.15152
0.180498
0.1513
-0.144891
0.170453
0.171089
-0.161044
0.146308
0.199055
-0.174909
0.265503
-0.215965
0.203077
-0.0235163
0.203568
0.0852115
0.198831
0.174961
0.193341
0.187297
0.188684
0.167662
0.184488
0.160103
0.179015
0.156773
0.169568
0.180536
0.146453
0.22217
0.313939
0.202792
-0.0283185
0.202357
0.0856468
0.196568
0.180749
0.190205
0.193661
0.185013
0.172854
0.18081
0.164307
0.1761
0.161482
0.166892
0.189744
0.145172
0.24389
0.359965
0.202428
-0.0327565
0.200946
0.0871287
0.19379
0.187905
0.186216
0.201235
0.180433
0.178637
0.176158
0.168581
0.171916
0.165724
0.162606
0.199055
0.142079
0.264418
0.405156
0.20201
-0.0367769
0.19937
0.0897688
0.190441
0.196834
0.181503
0.210173
0.175282
0.184858
0.170838
0.173025
0.166641
0.169921
0.156632
0.209065
0.138433
0.282616
0.446385
0.201571
-0.0403584
0.197632
0.0937079
0.186555
0.207911
0.176493
0.220236
0.170016
0.191335
0.16506
0.17798
0.160422
0.174559
0.149538
0.219949
0.133423
0.298731
0.485857
0.20109
-0.0434589
0.195693
0.0991047
0.182422
0.221182
0.17175
0.230907
0.164934
0.198152
0.158957
0.183956
0.153594
0.179923
0.141415
0.232128
0.12718
0.312966
0.52349
0.200413
-0.0458822
0.19357
0.105948
0.178509
0.236243
0.167598
0.241818
0.160152
0.205598
0.152797
0.191312
0.146671
0.186049
0.132928
0.245871
0.121576
0.324317
0.560765
0.199302
-0.0471941
0.191432
0.113818
0.175293
0.252382
0.164147
0.252964
0.156024
0.21372
0.147438
0.199898
0.140597
0.19289
0.125956
0.260512
0.115201
0.335072
0.595969
0.197748
-0.0469526
0.189486
0.122081
0.173219
0.268649
0.162012
0.264171
0.154036
0.221697
0.144771
0.209162
0.136449
0.201213
0.118756
0.278204
0.110035
0.343793
0.638066
0.307297
-0.0522391
0.314908
0.11447
0.314613
0.268943
0.312563
0.266222
0.316114
0.218146
0.314282
0.210994
0.322031
0.193464
0.319787
0.280448
0.369708
0.293872
0.55613
0.451643
0.303414
-0.0536425
0.320066
0.0978171
0.336971
0.252038
0.349064
0.254128
0.360816
0.206395
0.36901
0.2028
0.376986
0.185488
0.381867
0.275567
0.412913
0.262826
0.491089
0.477955
0.299765
-0.0513972
0.325902
0.0716796
0.361621
0.216319
0.38992
0.22583
0.405728
0.190586
0.427905
0.180623
0.432829
0.180564
0.450852
0.257544
0.476972
0.236706
0.442047
0.526014
0.296489
-0.0458764
0.329333
0.0388357
0.380375
0.165278
0.422153
0.184052
0.44045
0.172288
0.473264
0.147809
0.480863
0.172965
0.503655
0.234752
0.53756
0.202801
0.397095
0.582512
0.294801
-0.0386669
0.329221
0.00441496
0.389967
0.104533
0.439726
0.134292
0.462957
0.149057
0.498574
0.112193
0.513525
0.158013
0.536535
0.211743
0.5777
0.161636
0.340816
0.633978
0.2957
-0.0323571
0.327974
-0.0278588
0.390926
0.0415807
0.442704
0.0825151
0.473374
0.118387
0.506895
0.0786714
0.529455
0.135453
0.556196
0.185002
0.599467
0.118365
0.275801
0.664482
0.29954
-0.0298872
0.326806
-0.0551241
0.382591
-0.0142047
0.429589
0.0355176
0.467069
0.0809064
0.496571
0.0491694
0.525329
0.106696
0.563511
0.146819
0.602345
0.0795316
0.208823
0.669323
0.306496
-0.0343733
0.32376
-0.0723881
0.358814
-0.0492589
0.391362
0.00297042
0.431035
0.041233
0.453465
0.026739
0.487499
0.072662
0.541179
0.0931388
0.571699
0.0490121
0.141042
0.63948
0.30689
-0.0392533
0.299231
-0.0647292
0.296901
-0.0469288
0.306895
-0.00702345
0.335891
0.0122368
0.350786
0.0118444
0.392221
0.031227
0.447551
0.0378084
0.472352
0.024211
0.0639561
0.549438
0.262757
0.198028
0.151099
0.144075
0.156312
0.168157
0.199384
0.237192
0.261403
0.325359
0.46796
-0.0945196
0.475825
-0.0822091
0.482025
-0.0716355
0.487464
-0.0570877
0.493592
-0.0412526
0.499608
-0.0225265
0.506278
-0.0020292
0.513301
0.0205149
0.520603
0.0445361
0.0698521
0.484805
-0.10137
0.490751
-0.0881552
0.496132
-0.077017
0.501249
-0.0622042
0.507847
-0.0478511
0.514377
-0.0290562
0.523209
-0.0108615
0.531691
0.0120332
0.54211
0.0341171
0.0597747
0.526056
-0.101412
0.529027
-0.091127
0.532465
-0.0804546
0.536031
-0.0657705
0.54018
-0.0519994
0.544517
-0.033394
0.550553
-0.0168968
0.556822
0.00576407
0.566106
0.024833
0.0502428
0.578806
-0.097705
0.576665
-0.0889858
0.574667
-0.0784572
0.573763
-0.0648659
0.573038
-0.051275
0.57381
-0.0341658
0.57573
-0.0188169
0.579947
0.00154729
0.586573
0.0182068
0.0412137
0.624536
-0.0882633
0.615375
-0.0798242
0.606678
-0.0697608
0.599757
-0.057944
0.593832
-0.0453502
0.590763
-0.0310973
0.58932
-0.0173736
0.591873
-0.0010055
0.596743
0.0133365
0.0319728
0.649016
-0.0727971
0.63318
-0.0639886
0.618868
-0.0554484
0.607133
-0.0462095
0.597862
-0.0360791
0.592232
-0.0254673
0.589345
-0.0144862
0.590873
-0.00253399
0.59546
0.0087504
0.0223479
0.647333
-0.0508073
0.627617
-0.0442721
0.610458
-0.0382895
0.596572
-0.0323239
0.586131
-0.0256384
0.579655
-0.0189906
0.576558
-0.011389
0.577845
-0.0038212
0.582562
0.00403306
0.0125025
0.615689
-0.0270166
0.59553
-0.024113
0.578415
-0.0211748
0.564671
-0.0185795
0.554397
-0.0153644
0.547722
-0.0123159
0.544693
-0.00835967
0.545732
-0.00485998
0.550447
-0.000682417
0.00354384
0.530619
-0.00819772
0.514123
-0.00761629
0.500218
-0.00726979
0.488714
-0.00707603
0.479804
-0.0064544
0.473335
-0.00584707
0.469857
-0.00488078
0.469011
-0.00401473
0.471174
-0.00284499
-0.00177372
0.317162
0.309545
0.302275
0.295199
0.288745
0.282898
0.278017
0.274002
0.271157
0.00380705
0.040696
-0.044503
0.00698156
0.0896217
-0.0927962
0.00795491
0.114078
-0.115051
0.00773148
0.124764
-0.124541
0.00748824
0.129047
-0.128804
0.00696172
0.131486
-0.130959
0.00584087
0.132419
-0.131298
0.00451429
0.130775
-0.129449
0.0034683
0.125774
-0.124728
0.115516
0.00311705
-0.115165
0.00502188
0.0356741
0.010684
0.0839595
0.0142112
0.11055
0.0160939
0.122881
0.0173113
0.127829
0.0183443
0.130453
0.019023
0.13174
0.019272
0.130526
0.0193437
0.125702
0.1156
0.0192605
0.00585207
0.029822
0.01394
0.0758715
0.0201053
0.104385
0.0241488
0.118838
0.0268826
0.125096
0.0292182
0.128117
0.0314048
0.129553
0.0331022
0.128829
0.0341854
0.124619
0.115423
0.034362
0.006126
0.023696
0.0163795
0.065618
0.0252972
0.0954675
0.0316568
0.112478
0.0361267
0.120626
0.0398177
0.124426
0.0432388
0.126132
0.0461574
0.12591
0.0481271
0.122649
0.114915
0.0486347
0.00579895
0.0178971
0.0175105
0.0539064
0.0292464
0.0837316
0.0383678
0.103357
0.0449433
0.11405
0.0501145
0.119255
0.0546797
0.121567
0.0586781
0.121912
0.0615364
0.119791
0.113969
0.062483
0.00499663
0.0129005
0.0169663
0.0419368
0.0309797
0.0697182
0.0432525
0.091084
0.0526491
0.104654
0.05983
0.112074
0.0657821
0.115615
0.0709515
0.116743
0.074998
0.115744
0.111944
0.0770225
0.00396342
0.00893706
0.0148166
0.0310837
0.0295573
0.0549775
0.0444104
0.0762308
0.0570688
0.0919952
0.0671102
0.102033
0.0751418
0.107583
0.0818334
0.110051
0.0873096
0.110268
0.108231
0.0910224
0.00294288
0.00599417
0.0117128
0.0223137
0.0251575
0.0415328
0.0406785
0.0607097
0.0557065
0.0769673
0.0688176
0.0889218
0.0797375
0.0966633
0.088799
0.100989
0.0963112
0.102756
0.102395
0.102147
0.00201599
0.00397818
0.00830917
0.0160206
0.0189131
0.0309289
0.032735
0.0468878
0.0478953
0.0618069
0.0627072
0.0741099
0.076191
0.0831796
0.088039
0.0891414
0.0983865
0.0924083
0.0931329
0.107649
0.00108769
0.0028905
0.00482158
0.0122867
0.0118767
0.0238738
0.0222888
0.0364757
0.0351666
0.0489292
0.049191
0.0600854
0.0631954
0.0691751
0.0763969
0.0759399
0.088414
0.0803912
0.0822447
0.0993022
0.000147189
0.00274331
0.00150262
0.0109312
0.00514021
0.0202363
0.0117151
0.0299008
0.0211314
0.0395128
0.0326728
0.0485441
0.0454456
0.0564023
0.0586743
0.0627112
0.0716774
0.0673881
0.0705766
0.0833456
-0.000684357
0.00342766
-0.00114119
0.0113881
-0.00011963
0.0192147
0.00322601
0.0265552
0.00924862
0.0334902
0.0177035
0.0400892
0.0280201
0.0460858
0.0395766
0.0511547
0.0517426
0.0552221
0.0583878
0.0639313
-0.00114619
0.00457386
-0.00256952
0.0128114
-0.00305507
0.0197002
-0.00185103
0.0253511
0.00149786
0.0301413
0.00708048
0.0345065
0.0144408
0.0387255
0.0231415
0.042454
0.0328178
0.0455458
0.0479264
0.0432792
-0.00117472
0.00574857
-0.0028808
0.0145175
-0.00406422
0.0208837
-0.00421639
0.0255033
-0.0030048
0.0289297
-0.000276851
0.0317786
0.00385457
0.0345941
0.00923968
0.0370689
0.0157701
0.0390154
0.0402426
0.0234539
-0.00162954
0.00737812
-0.00409744
0.0169854
-0.00622155
0.0230078
-0.0075762
0.026858
-0.00811143
0.029465
-0.00785893
0.0315261
-0.00659054
0.0333257
-0.00414963
0.0346279
-0.000555445
0.0354212
0.0358123
0.00387486
-0.00223794
0.00961606
-0.00556144
0.0203089
-0.00857181
0.0260181
-0.0108509
0.029137
-0.0124134
0.0310274
-0.0133347
0.0324475
-0.0135986
0.0335895
-0.0130991
0.0341285
-0.0117324
0.0340545
0.0335147
-0.00943477
-0.00240608
0.0120221
-0.00614929
0.0240521
-0.0098402
0.029709
-0.0131463
0.0324432
-0.0160148
0.0338959
-0.0183346
0.0347673
-0.0199911
0.035246
-0.0210005
0.0351379
-0.0213791
0.034433
0.0332548
-0.0211191
-0.0024836
0.0145057
-0.00661238
0.0281809
-0.0110513
0.034148
-0.0154269
0.0368187
-0.0195484
0.0380175
-0.0232052
0.038424
-0.0262287
0.0382695
-0.0286479
0.0375571
-0.0305217
0.0363069
0.0346146
-0.0318816
-0.002528
0.0170337
-0.00696455
0.0326174
-0.0119564
0.0391399
-0.0170478
0.0419101
-0.0219876
0.0429574
-0.0265739
0.0430103
-0.0306772
0.0423727
-0.0342751
0.0411551
-0.0373923
0.039424
0.0372842
-0.0400619
-0.00235581
-0.00675905
-0.0118595
-0.0171593
-0.0224188
-0.027467
-0.0321903
-0.0365393
-0.0405041
-0.0441059
0.0733868
0.279147
-0.269188
0.0606375
0.192779
-0.18003
0.0586526
0.096511
-0.0945261
0.066447
0.0138616
-0.0216559
0.0777272
-0.0363092
0.0250291
0.0907575
-0.0583956
0.0453653
0.103568
-0.0614516
0.0486416
0.115011
-0.0544923
0.043049
0.125164
-0.04353
0.0333766
-0.0247931
0.0181183
0.0602225
0.282856
0.0528948
0.200107
0.0574325
0.0919734
0.069578
0.00171603
0.0828597
-0.0495909
0.0962372
-0.0717732
0.108682
-0.0738959
0.119424
-0.0652345
0.128647
-0.0527529
-0.0304942
0.0444528
0.281682
0.0438579
0.200701
0.0557263
0.0801049
0.0719144
-0.014472
0.0874749
-0.0651513
0.101359
-0.0856577
0.113471
-0.086008
0.123459
-0.0752218
0.131694
-0.0609879
-0.0352912
0.0277521
0.277384
0.0354372
0.193016
0.0545218
0.0610203
0.0743664
-0.0343166
0.0919114
-0.0826964
0.106398
-0.100145
0.118232
-0.0978412
0.127453
-0.0844431
0.134696
-0.0682312
-0.0392512
0.012329
0.26893
0.0287532
0.176592
0.0540505
0.035723
0.077089
-0.057355
0.0963579
-0.101965
0.111459
-0.115246
0.123061
-0.109443
0.131552
-0.0929344
0.137837
-0.0745167
-0.0424244
-0.00126349
0.260759
0.023505
0.151824
0.0536752
0.00555286
0.0796022
-0.0832821
0.100513
-0.122876
0.116291
-0.131024
0.127777
-0.120929
0.135672
-0.100829
0.141117
-0.0799617
-0.0448802
-0.0144726
0.254112
0.0186734
0.118678
0.0524263
-0.0282001
0.0811215
-0.111977
0.103796
-0.14555
0.120447
-0.147675
0.132041
-0.132523
0.139571
-0.108359
0.144391
-0.0847812
-0.0467359
-0.0257938
0.248024
0.013054
0.0798298
0.0493202
-0.0644662
0.0808803
-0.143537
0.105663
-0.170333
0.123531
-0.165543
0.135547
-0.144539
0.143
-0.115812
0.147473
-0.0892535
-0.0481551
-0.0355337
0.243496
0.0054381
0.038858
0.0436893
-0.102717
0.0783791
-0.178227
0.1058
-0.197754
0.125322
-0.185065
0.138126
-0.157344
0.145803
-0.123489
0.150225
-0.0936751
-0.0493271
-0.0437929
-0.00482794
0.0353539
0.0735316
0.10417
0.125795
0.139752
0.147934
0.152589
0.0186718
0.0179444
-0.0366162
0.00932351
0.00934832
0.00482312
0.00450038
0.00391377
0.00090935
0.00673161
-0.00281783
0.0111005
-0.0043689
0.0156157
-0.00451517
0.0197242
-0.00410847
0.0225138
-0.00278969
-0.00141047
0.0792232
0.0608462
-0.122125
0.0508755
0.037696
0.0367457
0.0186302
0.0338852
0.00376983
0.0392661
-0.00819873
0.0476464
-0.0127492
0.0562266
-0.0130954
0.0638083
-0.0116902
0.0691203
-0.00810166
-0.00413139
0.127084
0.124774
-0.191011
0.0857338
0.0790457
0.0643679
0.0399961
0.0592483
0.00888952
0.0646154
-0.0135658
0.0744043
-0.0225381
0.0850317
-0.0237229
0.0944606
-0.021119
0.101662
-0.0153027
-0.00809195
0.152895
0.199963
-0.228085
0.103802
0.128139
0.0775358
0.0662623
0.0709785
0.0154468
0.0764338
-0.0190211
0.0873706
-0.0334749
0.0994179
-0.0357702
0.11007
-0.0317709
0.118768
-0.0240005
-0.0129854
0.161676
-0.2309
0.109785
0.0815214
0.0753123
0.0813202
0.0932106
0.106082
0.11736
0.126736
0.00916982
0.000103673
-0.0092735
0.0100991
-0.000929253
0.0118797
-0.00178063
0.0143326
-0.00245292
0.0171977
-0.00286505
0.0201906
-0.00299293
0.0234889
-0.00329826
0.0267373
-0.0032484
0.0312569
-0.0045196
-0.00535932
0.0240399
5.76168e-05
-0.0239938
0.026614
-0.00350343
0.0314316
-0.00659823
0.0382216
-0.00924289
0.0466873
-0.0113308
0.0568184
-0.013124
0.0692884
-0.0157683
0.0836134
-0.0175734
0.102149
-0.0230549
-0.0253356
0.0359669
-0.000398747
-0.0355105
0.0400284
-0.00756492
0.0474113
-0.0139812
0.057924
-0.0197555
0.0714295
-0.0248363
0.0884134
-0.0301079
0.109383
-0.036738
0.133809
-0.0419997
0.163453
-0.052699
-0.0528937
0.0452904
-0.00143665
-0.0442525
0.0506159
-0.0128904
0.0600448
-0.0234101
0.0734752
-0.0331859
0.091004
-0.0423651
0.113214
-0.0523178
0.139587
-0.063111
0.170125
-0.0725383
0.201922
-0.0844951
-0.0790567
0.0523871
-0.0507067
0.0587572
0.0697091
0.0851579
0.105276
0.129981
0.157892
0.187501
0.210655
0.0591196
-0.0518587
0.0584469
-0.0657079
0.0524117
-0.0516433
0.0583511
0.0457953
-0.0516342
0.0582507
0.0390625
-0.0515755
0.0583082
0.0320539
-0.0513648
0.0583734
0.0247513
-0.0508212
0.0581238
0.0172972
-0.049516
0.0569701
0.00999737
-0.0465036
0.0538034
0.00357046
-0.039518
0.0459449
-0.0220975
0.0256679
0.0651603
-0.0447183
-0.0723006
0.0578995
-0.0443825
0.0503081
-0.0440428
0.0424041
-0.0436715
0.0342874
-0.0432482
0.0261064
-0.0426402
0.0180477
-0.0414573
0.0103799
-0.0388358
0.0037328
-0.0328709
-0.0183647
0.0657873
-0.0367061
-0.0737995
0.0576848
-0.03628
0.0495366
-0.0358946
0.0413864
-0.0355213
0.03328
-0.0351418
0.0252701
-0.0346302
0.0174487
-0.0336359
0.0100236
-0.0314107
0.00359397
-0.0264413
-0.0147707
0.0677935
-0.0284249
-0.0760747
0.0595101
-0.0279967
0.0512007
-0.0275851
0.0428704
-0.027191
0.0345348
-0.0268062
0.026246
-0.0263414
0.0181304
-0.0255203
0.0104464
-0.0237268
0.00380176
-0.0197966
-0.0109689
0.070148
-0.0198614
-0.0787116
0.0615261
-0.0193747
0.0528472
-0.0189063
0.0441217
-0.0184655
0.0353822
-0.0180667
0.0267123
-0.0176715
0.0182917
-0.0170997
0.0104494
-0.0158845
0.00380524
-0.0131524
-0.00716368
0.0726211
-0.0109521
-0.0815304
0.0636446
-0.0103982
0.0545921
-0.00985383
0.0454686
-0.00934194
0.0363
-0.00889809
0.0271761
-0.00854758
0.0183319
-0.00825555
0.0102411
-0.00779365
0.00365622
-0.00656755
-0.00350746
0.0754885
-0.00167554
-0.0847651
0.066139
-0.00104859
0.056697
-0.000411921
0.0471614
0.000193668
0.0375363
0.000727085
0.0278862
0.00110249
0.0184444
0.00118628
0.00981271
0.000838005
0.00311619
0.000128967
-0.000391267
0.0786373
0.00792189
-0.0882347
0.0689704
0.00861828
0.0592357
0.00932276
0.0494242
0.0100051
0.0395423
0.010609
0.0296325
0.0110123
0.019866
0.0109528
0.0107453
0.0099587
0.0034341
0.00744015
0.00304283
0.0817152
0.0178058
-0.0915991
0.071781
0.0185525
0.0618045
0.0192992
0.0517947
0.020015
0.0417655
0.0206382
0.0317559
0.0210219
0.02189
0.0208187
0.0125165
0.0193322
0.00450188
0.0154548
0.00754471
0.0844209
-0.0945436
0.0742547
0.0640559
0.0538361
0.0436079
0.0333991
0.0232989
0.0135751
0.00500823
0.012776
-0.114242
-0.013699
0.0104898
-0.122441
0.00767207
-0.126631
0.00476511
-0.128391
0.00214545
-0.12834
-0.000147598
-0.126511
-0.00224177