/*--------------------------------*- C++ -*----------------------------------*\
| =========                 |                                                 |
| \\      /  F ield         | OpenFOAM: The Open Source CFD Toolbox           |
|  \\    /   O peration     | Version:  2406                                  |
|   \\  /    A nd           | Website:  www.openfoam.com                      |
|    \\/     M anipulation  |                                                 |
\*---------------------------------------------------------------------------*/
FoamFile
{
    version     2.0;
    format      ascii;
    arch        "LSB;label=32;scalar=64";
    class       volVectorField;
    location    "1";
    object      U;
}
// * * * * * * * * * * * * * * * * * * * * * * * * * * * * * * * * * * * * * //

dimensions      [0 1 -1 0 0 0 0];

internalField   nonuniform List<vector> 
1800
(
(-0.00101915 0.000167858 0)
(-0.0104198 0.012787 -1.01942e-20)
(-0.0204124 0.0489388 -1.00288e-19)
(-0.0101165 0.0885179 8.75855e-20)
(0.0276355 0.120438 1.27131e-19)
(0.0931035 0.144498 1.39616e-20)
(0.182059 0.163437 -2.2324e-20)
(0.289996 0.180105 5.17486e-20)
(0.417736 0.192229 0)
(0.515993 0.241426 -3.14699e-20)
(-0.00471158 0.00161363 -1.95267e-20)
(-0.00866412 0.00397244 -7.50493e-20)
(-0.00706705 0.00530357 5.44768e-20)
(0.0306963 0.0127634 1.1546e-19)
(0.10305 0.0161308 -3.30126e-20)
(0.206085 0.0178759 -1.7892e-19)
(0.331681 0.0195588 3.16176e-20)
(0.47263 0.0215451 6.47762e-20)
(0.627631 0.0239548 2.60888e-20)
(0.734466 0.0467768 4.4528e-20)
(-0.00590643 0.00498944 8.60556e-21)
(-0.00554638 0.00458932 -6.88941e-20)
(0.0256486 -0.00667402 -5.65926e-20)
(0.112853 -0.020901 2.79553e-20)
(0.240469 -0.0336462 -1.93696e-20)
(0.393098 -0.040909 3.23686e-20)
(0.557699 -0.0418962 -4.2674e-20)
(0.724949 -0.0375936 -1.04539e-19)
(0.895387 -0.0244997 2.534e-21)
(1.00791 -0.0141951 -8.97838e-20)
(-0.00439747 0.00289266 -1.39759e-20)
(0.00258372 -0.00392877 2.84587e-20)
(0.098102 -0.0185227 -5.03518e-20)
(0.252307 -0.0402037 -4.78063e-22)
(0.440683 -0.054558 1.26738e-19)
(0.640375 -0.0593131 -2.39978e-20)
(0.835311 -0.0555704 -5.31695e-20)
(1.01782 -0.045561 -4.65732e-20)
(1.19201 -0.0269937 -2.3934e-20)
(1.30646 -0.0165164 4.7754e-20)
(-0.00176841 0.00803176 -3.77013e-20)
(0.0566361 -0.016404 6.00603e-20)
(0.223195 -0.0325866 1.46806e-20)
(0.445868 -0.0482719 -6.89726e-20)
(0.685521 -0.0537333 -3.12521e-20)
(0.914519 -0.0481841 4.65948e-20)
(1.11949 -0.0347941 2.79379e-20)
(1.29955 -0.0167676 3.95043e-20)
(1.46241 0.00569346 -1.20161e-19)
(1.58068 0.0177666 -8.31167e-20)
(0.0134333 -0.00151999 4.698e-22)
(0.148196 -0.0282933 1.41752e-19)
(0.394007 -0.0410438 9.00249e-20)
(0.678904 -0.0431331 -9.7847e-20)
(0.950762 -0.0332129 7.80595e-20)
(1.18562 -0.0145561 -9.95991e-21)
(1.3812 0.00821791 8.21953e-20)
(1.54703 0.0316854 1.34307e-19)
(1.69535 0.0542904 -1.71098e-19)
(1.82735 0.0668541 -1.52439e-19)
(0.0476526 -0.00566828 -3.33185e-20)
(0.278401 -0.0356229 -2.3135e-19)
(0.603993 -0.0335836 2.41758e-20)
(0.931044 -0.0155022 2.54063e-19)
(1.20889 0.0118643 -1.70217e-20)
(1.42913 0.042828 -1.6613e-19)
(1.60442 0.0730662 -1.03765e-19)
(1.75281 0.100047 3.15004e-19)
(1.88988 0.122557 3.64122e-19)
(2.02375 0.137282 3.51e-20)
(0.101542 -0.0084596 3.54859e-20)
(0.4414 -0.0303126 3.87593e-20)
(0.835356 -0.0039201 -1.0987e-19)
(1.17953 0.0365997 6.01771e-20)
(1.44279 0.0792206 -4.04805e-21)
(1.63815 0.119007 -5.76318e-19)
(1.79003 0.153418 3.11663e-21)
(1.91997 0.181375 4.20264e-19)
(2.04243 0.202596 -2.80129e-19)
(2.16296 0.215536 -3.06008e-19)
(0.17288 -0.00534581 1.38755e-19)
(0.627113 -0.00427462 1.32432e-19)
(1.06858 0.0521301 -3.14919e-19)
(1.40729 0.112943 -8.13999e-20)
(1.64293 0.165908 -2.64786e-21)
(1.80775 0.209454 2.2495e-19)
(1.93287 0.243664 -4.18993e-19)
(2.03988 0.269163 -2.29671e-19)
(2.1408 0.286399 5.49352e-19)
(2.23863 0.295505 1.36123e-19)
(0.258383 0.00785805 2.78713e-20)
(0.820994 0.047294 3.45982e-19)
(1.28603 0.134333 -3.11177e-19)
(1.60138 0.20887 -1.33196e-19)
(1.80052 0.264423 1.34136e-19)
(1.93122 0.304882 -1.67036e-19)
(2.02812 0.333733 2.88672e-19)
(2.11159 0.353496 3.78976e-20)
(2.19194 0.36558 -2.24896e-19)
(2.27147 0.371328 -8.23717e-20)
(-0.0150843 0.254793 -2.30088e-20)
(-0.0390507 0.487485 8.56468e-20)
(-0.0687747 0.581631 5.65941e-20)
(-0.0955267 0.619328 -7.32837e-20)
(-0.12053 0.631051 1.84706e-21)
(-0.143558 0.627346 2.5333e-20)
(-0.163953 0.612982 1.24762e-20)
(-0.181608 0.590423 -2.1415e-20)
(-0.196749 0.561262 7.12431e-23)
(-0.210546 0.527062 -1.81904e-20)
(-0.0337593 0.271326 2.44776e-20)
(-0.0731013 0.526026 1.34564e-22)
(-0.105018 0.628005 3.03349e-20)
(-0.129516 0.667663 -8.75186e-20)
(-0.15097 0.679651 -4.89248e-20)
(-0.170527 0.674731 -4.15413e-20)
(-0.187647 0.658389 6.67867e-23)
(-0.201996 0.633393 0)
(-0.213912 0.601229 -1.28075e-20)
(-0.224841 0.563505 4.3076e-20)
(-0.0519853 0.273187 4.02127e-23)
(-0.107581 0.544811 -8.66819e-20)
(-0.14144 0.657529 -4.32441e-20)
(-0.162543 0.702008 5.57285e-20)
(-0.177428 0.718694 3.96685e-21)
(-0.189896 0.717762 -4.512e-20)
(-0.198758 0.700528 3.56077e-20)
(-0.206194 0.67302 2.25546e-20)
(-0.212523 0.639062 8.86162e-20)
(-0.218298 0.59998 5.45832e-20)
(-0.0668727 0.260241 2.3616e-20)
(-0.138014 0.541721 6.47119e-20)
(-0.171121 0.665624 3.00534e-21)
(-0.185666 0.711734 8.03855e-20)
(-0.190942 0.725454 -1.92519e-20)
(-0.192793 0.72724 3.886e-21)
(-0.193549 0.721974 -1.01184e-20)
(-0.194493 0.705742 0)
(-0.193676 0.676527 -1.79589e-19)
(-0.191399 0.638295 -2.89046e-19)
(-0.0720394 0.22844 -6.46399e-21)
(-0.152604 0.507225 4.94242e-21)
(-0.180792 0.644441 2.33291e-20)
(-0.18761 0.701603 -3.53434e-20)
(-0.186419 0.722978 6.1884e-21)
(-0.181942 0.728359 -1.61269e-20)
(-0.175971 0.724478 -1.99547e-20)
(-0.168645 0.713513 1.1763e-19)
(-0.158825 0.694398 -2.41891e-19)
(-0.145598 0.664147 -2.78759e-19)
(-0.0662599 0.17869 -8.40785e-21)
(-0.151687 0.437351 -2.14837e-20)
(-0.177806 0.587607 1.00342e-20)
(-0.179899 0.662412 3.84609e-20)
(-0.172278 0.698802 9.57533e-20)
(-0.160384 0.715843 -2.57275e-19)
(-0.145745 0.720614 -6.80903e-20)
(-0.128118 0.714865 2.28574e-19)
(-0.106322 0.698623 -4.05701e-19)
(-0.0799966 0.671071 -2.5921e-19)
(-0.0513815 0.121572 -2.35993e-20)
(-0.134918 0.341164 5.39238e-20)
(-0.161182 0.496479 -6.92086e-21)
(-0.160787 0.587771 9.37283e-20)
(-0.146908 0.63979 6.21927e-20)
(-0.125774 0.669396 -1.7162e-19)
(-0.100199 0.684531 -2.81576e-19)
(-0.0710778 0.688058 -1.22496e-19)
(-0.0369778 0.680314 5.60422e-19)
(0.0040878 0.658883 4.07148e-19)
(-0.0317442 0.068942 -7.60484e-22)
(-0.104339 0.234612 -3.2641e-20)
(-0.130349 0.3806 -4.22568e-20)
(-0.129299 0.480816 -1.80575e-20)
(-0.110991 0.54587 -4.8774e-20)
(-0.0815843 0.588035 9.60342e-20)
(-0.0449608 0.614745 -1.541e-19)
(-0.00347515 0.629434 -4.03653e-20)
(0.043509 0.632661 2.72283e-19)
(0.102637 0.618753 2.17071e-20)
(-0.0131254 0.0289198 -1.64007e-20)
(-0.066115 0.134065 -1.28869e-20)
(-0.0885948 0.253583 1.83528e-20)
(-0.0869129 0.348483 5.49736e-20)
(-0.0654934 0.417441 1.45882e-20)
(-0.0287945 0.466933 6.77631e-20)
(0.019062 0.502662 -1.81488e-20)
(0.0742878 0.528359 5.95532e-20)
(0.135139 0.54549 -3.93849e-21)
(0.218508 0.541154 -4.78559e-19)
(-0.00191932 0.00623829 -2.79073e-20)
(-0.0316023 0.0558135 -3.96345e-20)
(-0.0477618 0.135561 1.04364e-19)
(-0.0443902 0.208298 6.61827e-20)
(-0.0191474 0.265778 -1.53114e-20)
(0.0266354 0.30982 -4.15032e-20)
(0.0894132 0.344325 1.04507e-19)
(0.164569 0.372887 -1.55796e-19)
(0.249411 0.398683 -2.37213e-19)
(0.365489 0.404004 -3.56934e-19)
(-0.275632 0.340014 -5.04199e-19)
(-0.185967 -0.025133 -8.43239e-19)
(0.0364845 -0.226508 -4.09444e-19)
(0.223611 -0.328698 2.30051e-19)
(0.419499 -0.340548 -4.66082e-21)
(0.560342 -0.303914 8.0983e-21)
(0.656915 -0.249184 -8.79752e-20)
(0.720518 -0.189943 3.4367e-20)
(0.758898 -0.141129 -2.22019e-20)
(0.786439 -0.072085 -1.38005e-20)
(-0.278742 0.355246 -5.4882e-19)
(-0.231089 -0.0650806 1.63309e-20)
(0.0020965 -0.286839 -1.22802e-19)
(0.207546 -0.38941 -1.54546e-19)
(0.416493 -0.391079 5.20137e-20)
(0.564969 -0.339968 -9.82663e-20)
(0.665315 -0.272991 5.37949e-20)
(0.730076 -0.204599 1.4955e-21)
(0.768904 -0.150607 -4.12226e-20)
(0.797024 -0.0762052 2.73873e-20)
(-0.255243 0.38342 6.01514e-19)
(-0.243828 -0.0915603 1.09365e-18)
(0.000403733 -0.348208 1.51119e-19)
(0.218738 -0.452134 -2.27657e-19)
(0.431069 -0.443799 -2.62444e-20)
(0.579386 -0.377353 2.39857e-21)
(0.678465 -0.297588 2.55986e-20)
(0.741971 -0.219572 -3.56085e-20)
(0.779954 -0.16044 1.5888e-21)
(0.808502 -0.080479 -3.75912e-22)
(-0.200718 0.420968 7.76453e-19)
(-0.201229 -0.103924 -2.02975e-20)
(0.056432 -0.407298 1.21123e-19)
(0.280183 -0.513909 1.68622e-19)
(0.481791 -0.495341 8.76501e-21)
(0.616461 -0.413571 1.86798e-20)
(0.704416 -0.321469 -4.05246e-20)
(0.761156 -0.234062 0)
(0.795321 -0.170272 0)
(0.823074 -0.0848636 -5.76766e-23)
(-0.116192 0.45962 1.00485e-19)
(-0.0968133 -0.106644 -8.68101e-19)
(0.184519 -0.462362 -1.5117e-20)
(0.408496 -0.572526 -1.41133e-19)
(0.58784 -0.542159 -3.32347e-20)
(0.693603 -0.445379 4.25776e-20)
(0.756037 -0.342299 3.91459e-21)
(0.796192 -0.246656 -1.71332e-20)
(0.820921 -0.179342 -5.27564e-20)
(0.844615 -0.0891793 -2.02966e-21)
(-0.0119409 0.494067 -2.11789e-20)
(0.0684481 -0.106109 -3.81092e-19)
(0.370175 -0.513066 -1.18719e-18)
(0.593277 -0.627556 1.38747e-20)
(0.752715 -0.582145 1.24831e-19)
(0.824198 -0.469351 2.4028e-20)
(0.848503 -0.356778 7.72244e-21)
(0.859432 -0.25503 -7.21132e-20)
(0.866348 -0.186216 8.81064e-22)
(0.879571 -0.0929573 -2.48328e-20)
(0.105617 0.516293 -1.05321e-19)
(0.27997 -0.102609 -2.34544e-20)
(0.574575 -0.557406 4.85797e-19)
(0.794072 -0.682039 -1.28534e-19)
(0.948549 -0.618799 -3.16317e-20)
(1.00043 -0.485542 1.27781e-20)
(0.988119 -0.3624 -8.31311e-21)
(0.961964 -0.256439 1.31385e-20)
(0.943284 -0.188688 1.86094e-20)
(0.937092 -0.0952971 9.85015e-21)
(0.233885 0.527076 -1.18507e-19)
(0.505059 -0.0926487 1.32424e-18)
(0.779352 -0.587348 7.55604e-19)
(0.982589 -0.734449 5.23605e-20)
(1.13554 -0.65816 -1.26767e-19)
(1.19032 -0.49995 -6.35179e-20)
(1.16034 -0.361153 -7.41025e-21)
(1.1027 -0.25016 2.33025e-20)
(1.05786 -0.184844 -8.50383e-24)
(1.0256 -0.0950643 -3.70345e-21)
(0.38683 0.514271 -4.34577e-19)
(0.727662 -0.0790075 3.0934e-19)
(0.999764 -0.59613 -1.03893e-18)
(1.17456 -0.776261 6.26652e-19)
(1.30247 -0.69864 -1.95675e-19)
(1.36311 -0.517492 -4.07288e-20)
(1.33588 -0.358452 -4.64423e-20)
(1.26331 -0.239149 2.54897e-21)
(1.20134 -0.175136 1.04966e-21)
(1.1447 -0.0917507 -4.42669e-23)
(0.512993 0.492382 3.31633e-21)
(0.943877 -0.0243421 -4.76605e-19)
(1.25194 -0.588585 -7.00289e-19)
(1.39893 -0.804604 4.44689e-19)
(1.47149 -0.733562 -2.18978e-19)
(1.51312 -0.536961 4.25923e-20)
(1.49153 -0.357673 -1.43338e-19)
(1.41862 -0.227258 -4.39041e-21)
(1.35211 -0.162157 -6.30199e-21)
(1.28058 -0.0860203 -9.73674e-21)
(0.797329 0.400161 3.29381e-19)
(1.30009 -0.0710655 -4.93304e-20)
(1.6453 -0.619528 -5.41035e-20)
(1.75805 -0.830314 -1.63769e-19)
(1.73494 -0.760408 1.12931e-19)
(1.70337 -0.554527 -8.22772e-21)
(1.66182 -0.355293 2.12689e-20)
(1.58877 -0.210796 2.88712e-20)
(1.52532 -0.142243 -6.59863e-20)
(1.44747 -0.0762017 8.3612e-21)
(1.30855 0.270159 3.20352e-19)
(1.98157 -0.253926 -4.50516e-19)
(2.29114 -0.724531 -4.29537e-19)
(2.28392 -0.841705 3.01637e-20)
(2.11887 -0.715519 5.80119e-20)
(1.94912 -0.504902 1.60207e-19)
(1.82779 -0.315255 1.54795e-19)
(1.73148 -0.178428 -2.14108e-20)
(1.67066 -0.115093 8.15829e-20)
(1.5987 -0.0625617 1.87539e-20)
(2.03591 0.169157 7.31024e-20)
(2.60229 -0.355219 1.54013e-20)
(2.70689 -0.729834 7.12814e-20)
(2.56294 -0.790766 3.42534e-35)
(2.35296 -0.642219 -5.67662e-20)
(2.14389 -0.43566 -7.01905e-34)
(1.97164 -0.263066 1.91634e-20)
(1.84468 -0.142857 2.61908e-34)
(1.77153 -0.0885033 -7.86716e-22)
(1.69895 -0.0491979 -3.19413e-22)
(2.60641 0.0709943 1.32628e-19)
(2.96836 -0.414693 6.05406e-19)
(2.94227 -0.724939 3.88823e-19)
(2.70721 -0.7443 0)
(2.43612 -0.573988 -8.67325e-20)
(2.20037 -0.365571 -1.38554e-19)
(2.01551 -0.205875 -1.29089e-19)
(1.88331 -0.10345 1.29763e-33)
(1.8067 -0.0597272 -4.40785e-20)
(1.7342 -0.0347955 -1.09558e-21)
(2.92237 -0.0262564 1.2279e-19)
(3.14795 -0.430604 -4.59855e-21)
(3.09032 -0.660979 0)
(2.83735 -0.630422 0)
(2.53069 -0.452381 0)
(2.24824 -0.263943 0)
(2.02867 -0.134056 5.96693e-21)
(1.88161 -0.0595026 1.50099e-33)
(1.80184 -0.0311322 -1.98249e-21)
(1.73154 -0.0226744 -2.66522e-34)
(3.07994 -0.101708 1.02204e-19)
(3.25755 -0.429323 0)
(3.14663 -0.596162 0)
(2.79948 -0.541547 0)
(2.43507 -0.35905 0)
(2.14847 -0.179649 0)
(1.94678 -0.0707226 -1.29023e-20)
(1.81869 -0.0194253 7.65633e-20)
(1.75501 -0.00493467 -2.57649e-21)
(1.69714 -0.0102169 9.27477e-21)
(3.13831 -0.163478 0)
(3.25029 -0.421925 2.63448e-19)
(3.04669 -0.504349 1.35826e-19)
(2.62599 -0.396365 0)
(2.21772 -0.220714 -9.80311e-20)
(1.92964 -0.0796668 -9.26146e-20)
(1.75993 -0.00901384 -7.76227e-20)
(1.66712 0.0148758 -3.73831e-20)
(1.63222 0.0153935 3.17761e-20)
(1.59319 0.000567519 -1.01022e-20)
(3.01762 -0.206141 4.65521e-20)
(2.97745 -0.363988 -1.3139e-20)
(2.60407 -0.36505 -4.80161e-21)
(2.09504 -0.241928 -1.91784e-35)
(1.70576 -0.0977845 2.18738e-20)
(1.49204 -0.00414551 -5.37403e-34)
(1.40145 0.0293866 -1.58662e-20)
(1.36674 0.0312818 -3.23376e-20)
(1.36862 0.023219 -3.23445e-21)
(1.35472 0.00560069 6.02968e-21)
(2.42025 -0.209976 0)
(2.11654 -0.24144 -6.13169e-20)
(1.56808 -0.149055 -2.40379e-20)
(1.10908 -0.0489025 0)
(0.89232 0.00840528 2.01879e-20)
(0.837017 0.0330123 1.89203e-20)
(0.852996 0.0356911 -3.27195e-22)
(0.88281 0.0278 1.09449e-20)
(0.918274 0.01866 -1.52322e-20)
(0.929024 0.00590733 -4.57812e-21)
(0.853021 -0.0817733 1.96603e-20)
(0.494452 -0.0238434 0)
(0.231749 -0.00113236 0)
(0.117874 0.00273865 0)
(0.108623 0.0059381 0)
(0.150333 0.00960857 0)
(0.209835 0.0101146 -1.6276e-20)
(0.262408 0.00774529 5.30074e-35)
(0.303595 0.00501279 -3.74799e-21)
(0.324301 0.00161133 -6.64638e-21)
(2.41132 0.376949 4.04316e-19)
(2.41447 0.307864 1.84341e-19)
(2.38307 0.24084 3.02831e-19)
(2.3178 0.174428 -3.18443e-19)
(2.18706 0.11896 5.89897e-20)
(2.00911 0.0691125 1.08351e-20)
(1.74201 0.0307087 7.35399e-20)
(1.43772 0.0142302 7.38221e-21)
(1.11816 -0.018208 -3.13873e-21)
(0.782072 0.169713 7.8853e-20)
(2.53286 0.328845 -2.21403e-19)
(2.56828 0.279133 4.1935e-20)
(2.56657 0.219449 1.81227e-19)
(2.55242 0.173693 1.44586e-19)
(2.50085 0.115963 -2.26602e-19)
(2.40242 0.1 9.8347e-20)
(2.30309 0.0466045 -3.72174e-20)
(2.04997 0.0819989 -1.71073e-20)
(1.92767 0.0197749 -4.40387e-20)
(1.43031 0.076197 -6.96086e-20)
(2.65164 0.279 3.56749e-20)
(2.66465 0.248852 -1.60464e-19)
(2.71533 0.186729 -2.18617e-19)
(2.67342 0.16752 4.62127e-19)
(2.72216 0.0961627 -1.17028e-20)
(2.59596 0.105311 -5.25907e-22)
(2.66189 0.0412715 -8.20407e-20)
(2.42716 0.0759367 -6.38812e-20)
(2.48633 0.0480069 4.59792e-20)
(2.1191 0.0492471 -3.78886e-21)
(2.75329 0.23152 6.00967e-20)
(2.73734 0.214997 -2.02292e-19)
(2.83089 0.151215 3.68047e-20)
(2.76369 0.148888 -1.54508e-19)
(2.87006 0.0783368 2.38319e-19)
(2.74019 0.0884453 -7.24202e-20)
(2.85599 0.0306614 5.33641e-20)
(2.67836 0.0419798 -7.72589e-20)
(2.77501 0.0268975 -1.87295e-19)
(2.57078 0.0231841 -9.92932e-20)
(2.79712 0.18908 1.09819e-19)
(2.79244 0.173895 -3.20765e-19)
(2.8806 0.119852 -2.39799e-20)
(2.84672 0.114621 -2.75921e-20)
(2.93698 0.0604513 -1.00479e-20)
(2.8671 0.0581205 -2.12198e-21)
(2.95243 0.0118649 4.65287e-20)
(2.86008 0.00652921 -5.69825e-20)
(2.92877 -0.018286 -1.01475e-19)
(2.83289 -0.0215092 -1.47862e-19)
(2.78685 0.14482 2.01058e-19)
(2.80519 0.126868 3.91104e-20)
(2.87962 0.084943 -2.23249e-19)
(2.88191 0.0730437 1.31188e-19)
(2.95323 0.0336892 1.17416e-19)
(2.94043 0.0239954 -7.2772e-20)
(2.99974 -0.0126775 1.18632e-19)
(2.97432 -0.0239041 3.83052e-20)
(3.01985 -0.0550979 -1.61372e-19)
(2.98836 -0.0665728 -2.11895e-19)
(2.72425 0.0939361 1.74125e-20)
(2.75936 0.0762939 7.13464e-20)
(2.82456 0.0422156 -8.63552e-20)
(2.85042 0.0305393 -4.11512e-20)
(2.91258 -0.0037988 1.22009e-19)
(2.933 -0.0115373 3.5712e-20)
(2.98673 -0.0461986 9.93598e-20)
(3.00206 -0.0554763 9.23654e-20)
(3.04379 -0.0885377 2.8458e-20)
(3.05612 -0.103442 8.15937e-20)
(2.56349 0.0455142 2.34538e-20)
(2.61638 0.0276662 -2.20645e-22)
(2.65569 0.00249581 -9.16798e-20)
(2.70781 -0.00553852 -7.88474e-20)
(2.74312 -0.0378631 3.16132e-20)
(2.79806 -0.0376453 -3.97943e-20)
(2.83055 -0.0777524 -2.64543e-20)
(2.88555 -0.0776793 1.084e-19)
(2.9119 -0.116623 -8.50677e-20)
(2.96728 -0.125194 -9.65694e-20)
(2.17136 -0.0035521 7.35695e-20)
(2.22653 -0.016859 -3.39478e-20)
(2.22346 -0.0276728 -3.18292e-20)
(2.29176 -0.0383971 3.76587e-20)
(2.2714 -0.0521302 -2.0553e-20)
(2.35533 -0.0572114 2.44879e-21)
(2.32322 -0.0784567 -5.50205e-20)
(2.41237 -0.0762435 1.96282e-20)
(2.38065 -0.10752 2.88278e-20)
(2.46702 -0.103213 -3.26565e-20)
(1.21905 -0.0146956 0)
(1.21732 -0.0182813 3.28587e-21)
(1.19863 -0.0202517 -4.74578e-20)
(1.20084 -0.0228846 -7.25406e-20)
(1.17058 -0.0242493 4.04319e-20)
(1.18521 -0.0295176 1.58019e-19)
(1.1353 -0.0321342 -1.1142e-20)
(1.17075 -0.0401627 -7.31847e-20)
(1.09001 -0.0454415 -6.4235e-21)
(1.15214 -0.0581275 3.76445e-21)
(1.42536 0.870847 -4.99816e-20)
(1.3904 0.900108 -1.03725e-19)
(1.37389 0.932392 -7.22525e-19)
(1.36087 0.967927 2.10379e-19)
(1.34493 1.00282 1.02808e-18)
(1.32057 1.03265 1.23301e-19)
(1.27874 1.04666 -8.37646e-20)
(1.19894 1.02521 -2.68832e-19)
(1.01458 0.906657 -3.02347e-19)
(0.54207 0.502299 -3.77274e-20)
(1.59258 0.851536 -4.38061e-19)
(1.55561 0.876983 1.2234e-18)
(1.52754 0.904616 5.31346e-19)
(1.50621 0.936915 -7.41379e-19)
(1.48676 0.970289 2.40462e-19)
(1.46109 0.99888 2.14905e-19)
(1.41714 1.01074 6.84636e-19)
(1.33111 0.987737 -1.00779e-18)
(1.12643 0.867991 -5.45703e-20)
(0.596591 0.473836 1.62187e-19)
(1.74359 0.828546 1.18797e-19)
(1.71072 0.852159 9.36985e-19)
(1.67794 0.876103 1.73377e-20)
(1.65029 0.903019 -4.29022e-19)
(1.62584 0.930791 1.3569e-19)
(1.5961 0.953684 -3.18084e-20)
(1.54738 0.960042 -4.97803e-20)
(1.45276 0.933613 -3.63046e-19)
(1.22537 0.811718 6.79537e-20)
(0.639702 0.433287 -2.0932e-19)
(1.87227 0.796745 -4.81643e-19)
(1.84454 0.817438 4.24812e-19)
(1.81233 0.837153 -6.39769e-19)
(1.78187 0.857911 -2.26737e-19)
(1.75308 0.878636 1.24892e-18)
(1.71826 0.894162 -7.6022e-19)
(1.66328 0.893917 -8.43324e-19)
(1.55894 0.862609 3.77245e-19)
(1.30459 0.739106 -1.26767e-19)
(0.666066 0.383642 -5.28014e-20)
(1.9812 0.752206 5.9547e-19)
(1.95608 0.768787 4.6366e-19)
(1.92525 0.783636 -2.05619e-19)
(1.89392 0.798528 7.79466e-19)
(1.86221 0.812611 1.29892e-19)
(1.82225 0.820008 -3.36015e-19)
(1.76006 0.812611 4.40686e-19)
(1.64282 0.777474 -5.53192e-19)
(1.35666 0.65259 -6.34286e-19)
(0.671988 0.325153 -1.53472e-20)
(2.0732 0.69742 7.82967e-19)
(2.04731 0.709521 9.33592e-19)
(2.01657 0.719841 -9.03661e-19)
(1.98433 0.729171 -8.7587e-19)
(1.94852 0.735511 1.93069e-19)
(1.9018 0.73403 -6.02158e-19)
(1.83235 0.72081 -3.3744e-19)
(1.69774 0.681295 2.77345e-19)
(1.37641 0.553979 7.70181e-20)
(0.653495 0.260358 -8.83066e-22)
(2.14829 0.638576 7.1527e-19)
(2.11797 0.646252 -9.08548e-19)
(2.08358 0.651561 -7.62977e-19)
(2.04641 0.653883 5.31852e-19)
(2.0046 0.651422 -4.7081e-19)
(1.95294 0.643259 1.34906e-18)
(1.87536 0.625359 -1.82344e-19)
(1.71683 0.577951 -1.09422e-18)
(1.35539 0.446728 4.83403e-19)
(0.608092 0.193422 3.69949e-20)
(2.20732 0.575466 -4.65648e-19)
(2.16798 0.578923 -6.2202e-19)
(2.12575 0.578977 -7.82924e-19)
(2.08194 0.575118 3.65654e-20)
(2.0345 0.567245 2.59065e-19)
(1.97564 0.553757 2.53281e-19)
(1.88139 0.527491 5.02973e-19)
(1.68983 0.467962 -2.37596e-19)
(1.28578 0.334464 2.5263e-20)
(0.537604 0.129741 6.40907e-20)
(2.2492 0.510056 2.20495e-19)
(2.19884 0.509716 -8.41102e-20)
(2.14682 0.505667 3.80878e-19)
(2.09437 0.497236 1.01864e-18)
(2.03737 0.483848 -3.38635e-19)
(1.96331 0.462271 -1.16342e-18)
(1.84178 0.424088 8.30121e-19)
(1.60838 0.352451 7.68293e-19)
(1.16674 0.223841 -4.05693e-19)
(0.449213 0.0752339 -2.56271e-20)
(2.27219 0.442362 -4.40056e-19)
(2.20831 0.439319 -4.58315e-21)
(2.14385 0.431622 5.54587e-19)
(2.07877 0.418121 5.23445e-19)
(2.00569 0.39734 3.59673e-19)
(1.90726 0.365526 -5.69326e-19)
(1.74881 0.315884 6.2795e-20)
(1.47095 0.237703 -3.24506e-19)
(1.00664 0.124929 -4.57319e-19)
(0.352936 0.0342382 -3.14042e-21)
(0.439054 0.396518 1.09857e-20)
(0.403344 0.408105 -9.86383e-21)
(0.364755 0.419598 -4.218e-21)
(0.323657 0.430612 -9.16322e-21)
(0.279813 0.440375 -3.42415e-20)
(0.232734 0.446803 -6.6733e-20)
(0.181887 0.444449 1.65537e-20)
(0.126466 0.421308 -3.37968e-20)
(0.0673475 0.353678 9.4292e-20)
(0.0254381 0.188959 1.47481e-20)
(0.489781 0.48921 -2.75816e-20)
(0.454369 0.504093 6.44794e-21)
(0.416273 0.518788 -7.47215e-20)
(0.375598 0.532996 1.2052e-20)
(0.331987 0.54608 3.19529e-20)
(0.284765 0.555939 3.43547e-20)
(0.232938 0.556528 1.52536e-19)
(0.174929 0.533879 -5.59071e-20)
(0.108501 0.457753 6.49024e-20)
(0.0473146 0.251806 -1.29358e-20)
(0.557516 0.576141 -2.16896e-20)
(0.523501 0.594647 8.57355e-20)
(0.487009 0.613143 7.18425e-20)
(0.447874 0.631323 7.98236e-20)
(0.405482 0.648512 2.70771e-20)
(0.358793 0.662537 1.66935e-19)
(0.306171 0.666846 -5.85647e-20)
(0.244945 0.645569 -7.58573e-20)
(0.168823 0.56179 9.74563e-23)
(0.0802047 0.314592 1.05545e-20)
(0.62691 0.659078 2.16844e-19)
(0.593334 0.68068 1.39411e-19)
(0.558184 0.701919 -2.49302e-19)
(0.520824 0.722918 -1.15592e-19)
(0.480523 0.743307 2.78842e-21)
(0.436071 0.760836 -7.934e-20)
(0.385161 0.768174 -2.62615e-19)
(0.323519 0.747632 8.35491e-20)
(0.239539 0.656502 -5.98229e-20)
(0.120305 0.371406 -9.82603e-20)
(0.723627 0.729243 -5.70819e-20)
(0.691947 0.754138 -2.24823e-19)
(0.658788 0.778461 1.91946e-19)
(0.62314 0.802429 -8.1291e-20)
(0.584094 0.825774 -1.5692e-19)
(0.540293 0.846356 2.266e-19)
(0.488942 0.856517 1.04457e-19)
(0.424309 0.837147 -1.26398e-19)
(0.328791 0.740377 -2.60319e-19)
(0.170408 0.421422 4.58264e-20)
(0.820672 0.79374 -7.25002e-21)
(0.791069 0.821099 -1.11189e-20)
(0.760869 0.847346 -1.5339e-20)
(0.728496 0.87339 6.90562e-20)
(0.692786 0.899217 2.1257e-19)
(0.651995 0.922456 -2.08949e-19)
(0.602367 0.934771 -1.38548e-19)
(0.535986 0.915812 -4.32576e-20)
(0.428542 0.81323 1.00855e-19)
(0.226464 0.463799 1.4825e-19)
(0.923267 0.842391 -1.97913e-19)
(0.897104 0.872833 1.00142e-19)
(0.871399 0.901522 3.25547e-19)
(0.843414 0.929711 -2.11924e-19)
(0.811593 0.957658 -4.39678e-19)
(0.774071 0.983051 1.91653e-19)
(0.72653 0.996998 6.00881e-19)
(0.658772 0.978172 1.55457e-19)
(0.538407 0.870793 -2.62726e-20)
(0.287683 0.496257 2.13109e-19)
(1.0356 0.881584 -3.76377e-19)
(1.00767 0.912312 -1.3111e-19)
(0.983074 0.94113 3.31878e-19)
(0.958404 0.970198 -1.14751e-19)
(0.931111 0.999589 9.77822e-20)
(0.898209 1.02633 4.01884e-19)
(0.854036 1.04063 -4.16433e-19)
(0.785777 1.02084 -3.72277e-19)
(0.652645 0.908833 3.00811e-19)
(0.351021 0.515916 -9.31387e-21)
(1.16302 0.899655 -1.50567e-20)
(1.14322 0.931983 4.48697e-20)
(1.12282 0.960042 -2.46695e-19)
(1.09945 0.988351 -8.56036e-20)
(1.07247 1.01801 4.96576e-19)
(1.03982 1.04572 1.39837e-19)
(0.995111 1.06067 -1.12392e-19)
(0.922857 1.04073 0)
(0.773682 0.926221 -2.00209e-19)
(0.416552 0.523071 -1.0635e-19)
(1.25039 0.901705 0)
(1.23932 0.935775 0)
(1.23463 0.966498 6.77735e-19)
(1.22462 0.995888 1.49019e-19)
(1.2069 1.02512 -2.18982e-19)
(1.17986 1.05164 3.93307e-19)
(1.13726 1.06491 -2.57628e-19)
(1.06168 1.04353 -7.10391e-19)
(0.895537 0.926259 3.65895e-19)
(0.481135 0.518876 1.93189e-19)
(0.966846 -0.0204853 -1.04569e-20)
(1.04875 0.121265 -8.00299e-21)
(0.991486 0.234972 6.97253e-21)
(0.968787 0.250422 5.40764e-21)
(0.934992 0.224769 1.88075e-20)
(0.903977 0.214975 3.15263e-20)
(0.879868 0.207327 -1.5239e-20)
(0.821767 0.232128 -2.33057e-20)
(0.780362 0.261025 -9.15067e-20)
(0.600084 0.335333 7.87103e-20)
(0.966364 -0.0247926 -7.15354e-22)
(1.04927 0.122801 7.36923e-21)
(0.99065 0.243278 1.09433e-22)
(0.968618 0.259832 1.13122e-20)
(0.934695 0.233122 1.45162e-20)
(0.904091 0.222968 -4.42379e-20)
(0.886318 0.21769 -1.52538e-20)
(0.835963 0.247442 1.5659e-22)
(0.803032 0.295399 2.29542e-19)
(0.644234 0.404915 -6.70242e-22)
(0.96573 -0.0289507 2.0593e-21)
(1.05036 0.124936 1.27844e-20)
(0.990095 0.25193 -7.61212e-21)
(0.968122 0.269221 -1.38741e-21)
(0.932778 0.241184 -1.73037e-20)
(0.902749 0.230061 3.12147e-21)
(0.890328 0.226026 2.01087e-20)
(0.849174 0.261301 -1.88398e-20)
(0.824526 0.327304 1.16038e-19)
(0.698631 0.469432 -2.92355e-19)
(0.964885 -0.0329919 1.50699e-21)
(1.05218 0.127639 -1.76641e-21)
(0.989887 0.261072 -9.13673e-21)
(0.966684 0.278817 -2.99165e-20)
(0.929208 0.248968 3.78403e-20)
(0.901027 0.236225 2.56772e-20)
(0.892789 0.232393 -2.52789e-20)
(0.861304 0.273914 9.26223e-20)
(0.845896 0.35589 -1.03601e-19)
(0.75813 0.5325 -2.9679e-19)
(0.963773 -0.0369663 1.03104e-21)
(1.05504 0.130849 -7.84654e-21)
(0.989991 0.270974 3.40725e-21)
(0.963817 0.288832 4.80776e-20)
(0.925361 0.256299 1.40319e-20)
(0.900267 0.241319 5.51075e-20)
(0.894691 0.237174 3.05192e-20)
(0.872376 0.285738 7.18357e-20)
(0.865467 0.380633 -7.41275e-21)
(0.83333 0.585842 2.34747e-19)
(0.962413 -0.0409812 9.13449e-22)
(1.05928 0.134541 2.54552e-22)
(0.989976 0.281935 -5.95556e-22)
(0.960444 0.299203 1.35389e-20)
(0.924133 0.262781 -4.51435e-20)
(0.901365 0.245462 7.91112e-21)
(0.897053 0.240949 -6.1215e-21)
(0.882108 0.297107 -2.11094e-19)
(0.887685 0.400249 0)
(0.912199 0.637554 -2.7427e-20)
(0.960886 -0.0452142 -9.29126e-22)
(1.06473 0.138749 -3.49971e-21)
(0.989473 0.294029 1.24872e-21)
(0.959736 0.309116 -6.65752e-20)
(0.927679 0.267977 -1.64756e-20)
(0.904603 0.249048 -7.16066e-20)
(0.901148 0.244114 4.55531e-21)
(0.892089 0.308352 6.55535e-21)
(0.91114 0.415447 -2.99641e-21)
(0.991497 0.676012 8.36703e-19)
(0.958926 -0.0496052 -1.63006e-20)
(1.07024 0.143216 -8.44642e-21)
(0.989696 0.306888 8.33473e-21)
(0.964438 0.317378 3.24244e-20)
(0.936325 0.271862 -7.46224e-20)
(0.910582 0.252498 1.71661e-20)
(0.909676 0.246737 -3.47077e-21)
(0.904921 0.319574 2.12733e-20)
(0.938875 0.42623 1.37369e-19)
(1.09624 0.720692 -7.42162e-20)
(0.955352 -0.0534318 3.79022e-21)
(1.07449 0.147442 3.89152e-21)
(0.99363 0.319468 -4.2583e-21)
(0.975278 0.323457 7.29548e-20)
(0.950776 0.274715 7.35767e-21)
(0.922766 0.256266 2.68458e-20)
(0.928771 0.248684 -4.71095e-20)
(0.924809 0.329571 6.23291e-20)
(0.98105 0.42413 2.59763e-19)
(1.17191 0.736859 -6.46971e-19)
(0.949212 -0.0571387 -1.09099e-21)
(1.0776 0.152448 2.80482e-20)
(1.00365 0.331077 1.04721e-21)
(0.993993 0.327277 -2.45668e-20)
(0.976723 0.275957 8.38977e-20)
(0.953467 0.259897 -3.61798e-20)
(0.968229 0.251608 -1.44786e-20)
(0.959292 0.343118 4.42599e-20)
(1.0363 0.445459 -1.03321e-19)
(1.30168 0.79182 3.84695e-19)
(0.938976 -0.0633311 -2.15202e-21)
(1.07922 0.15191 -7.40195e-21)
(1.028 0.340129 -2.0092e-21)
(1.0369 0.333444 -4.82922e-20)
(1.04545 0.277615 -4.9311e-20)
(1.04074 0.26311 -4.46932e-20)
(1.06312 0.247524 1.23498e-20)
(1.05055 0.348612 -1.35104e-19)
(1.10479 0.384248 -4.49285e-19)
(1.32182 0.766663 -7.72584e-20)
(0.926009 -0.0653991 -3.13399e-20)
(1.06673 0.134361 -3.12009e-21)
(1.07733 0.331804 5.22082e-22)
(1.13156 0.330308 7.59903e-22)
(1.1943 0.266736 3.06373e-20)
(1.18743 0.262603 6.43373e-20)
(1.28307 0.234243 1.46886e-20)
(1.19136 0.350828 1.12736e-19)
(1.37373 0.344649 1.79337e-19)
(1.37067 0.654613 3.39411e-19)
(0.911883 -0.0668007 -3.16811e-21)
(1.05324 0.109652 -4.69762e-21)
(1.13278 0.299623 5.04523e-21)
(1.23699 0.305781 8.67816e-21)
(1.35935 0.249367 5.16751e-35)
(1.31993 0.243124 -6.6122e-21)
(1.54251 0.227841 -4.56507e-34)
(1.30081 0.335284 1.83748e-20)
(1.71696 0.312224 -4.84792e-20)
(1.48058 0.580853 -2.62375e-19)
(0.902557 -0.0621634 2.08652e-20)
(1.03766 0.0713286 -3.945e-35)
(1.17291 0.243733 -5.15465e-21)
(1.31984 0.260902 9.42155e-21)
(1.48836 0.227287 -8.79864e-21)
(1.4213 0.206322 -1.52705e-20)
(1.74077 0.222439 -5.592e-34)
(1.42312 0.305975 -6.18e-20)
(1.93732 0.275994 -1.19333e-19)
(1.67208 0.527064 2.84203e-19)
(0.902798 -0.0529323 0)
(1.0247 0.0266931 -9.59351e-35)
(1.18579 0.171068 0)
(1.37039 0.201424 0)
(1.55225 0.201906 0)
(1.5087 0.161786 0)
(1.81685 0.206833 -3.85679e-34)
(1.5698 0.276412 0)
(1.99838 0.227951 -1.79554e-20)
(1.87956 0.463772 1.64648e-19)
(0.910625 -0.0434268 3.7291e-21)
(1.02228 -0.0150266 -1.88928e-21)
(1.1798 0.0905766 -5.89651e-21)
(1.38277 0.134082 0)
(1.56083 0.169775 0)
(1.57081 0.117321 6.68806e-21)
(1.80413 0.184309 3.67329e-20)
(1.69902 0.248739 -1.36748e-20)
(1.98406 0.172206 -2.72007e-20)
(2.03652 0.384206 1.09468e-19)
(0.920755 -0.0375921 -4.63158e-20)
(1.03647 -0.055961 -1.30547e-21)
(1.15719 0.0112274 -6.75722e-21)
(1.35021 0.0686235 -2.45559e-20)
(1.51072 0.125469 -1.23237e-20)
(1.57945 0.0780065 -4.1406e-21)
(1.72143 0.153572 -3.1824e-20)
(1.77189 0.213115 -1.2097e-20)
(1.93674 0.121567 -5.73899e-20)
(2.09944 0.301672 1.29757e-19)
(0.928484 -0.03733 -6.45729e-21)
(1.0722 -0.0831572 -1.47131e-20)
(1.09972 -0.0481149 -7.58737e-21)
(1.25171 0.0186117 -6.34069e-21)
(1.35881 0.0748177 4.17985e-35)
(1.49464 0.0451435 7.73988e-21)
(1.51184 0.112839 -7.84678e-34)
(1.74892 0.157272 -1.35679e-20)
(1.79494 0.0766412 1.88828e-20)
(2.03607 0.221703 2.30926e-20)
(0.931095 -0.0520965 1.33352e-19)
(1.06827 -0.0952214 -6.62123e-21)
(0.939756 -0.0760043 -9.00145e-21)
(1.00366 -0.0119838 1.27443e-20)
(1.04832 0.0260592 5.92394e-21)
(1.17578 0.0209038 1.35893e-20)
(1.13835 0.0642 7.49205e-21)
(1.49743 0.075602 -2.31085e-20)
(1.42128 0.0441632 -2.00354e-20)
(1.75051 0.125713 8.40565e-20)
(0.869109 -0.0378072 7.40267e-21)
(0.832622 -0.064117 -6.63381e-35)
(0.502532 -0.0400009 -9.346e-21)
(0.482579 -0.00454456 0)
(0.485526 0.00567215 0)
(0.544885 0.00890105 7.82927e-21)
(0.562725 0.0173678 -9.11717e-36)
(0.78627 0.0206362 -1.36513e-20)
(0.748681 0.017784 -2.77573e-20)
(1.01786 0.041612 -3.62768e-20)
(1.57316 0.792101 1.57478e-19)
(1.68505 0.785854 -7.17743e-20)
(1.8081 0.768772 -3.23439e-21)
(1.92089 0.742521 6.45607e-20)
(2.02388 0.70424 -2.65687e-19)
(2.11748 0.658232 -4.75949e-19)
(2.20083 0.608486 -2.23951e-19)