/*--------------------------------*- C++ -*----------------------------------*\
| =========                 |                                                 |
| \\      /  F ield         | OpenFOAM: The Open Source CFD Toolbox           |
|  \\    /   O peration     | Version:  2406                                  |
|   \\  /    A nd           | Website:  www.openfoam.com                      |
|    \\/     M anipulation  |                                                 |
\*---------------------------------------------------------------------------*/
FoamFile
{
    version     2.0;
    format      ascii;
    arch        "LSB;label=32;scalar=64";
    class       volScalarField;
    location    "1.85";
    object      nu;
}
// * * * * * * * * * * * * * * * * * * * * * * * * * * * * * * * * * * * * * //

dimensions      [0 2 -1 0 0 0 0];

internalField   nonuniform List<scalar> 
1800
(
0.0170124
0.0210137
0.0263982
0.0639552
0.0339918
0.0150546
0.0110894
0.00946703
0.00898426
0.0079848
0.0150102
0.0601378
0.100899
0.0227895
0.012773
0.00996723
0.00878358
0.00804674
0.00801709
0.00724333
0.0149333
0.183184
0.018635
0.0111825
0.00907635
0.00817068
0.00774909
0.00750081
0.00761634
0.00734492
0.0156131
0.0188476
0.0107577
0.00858826
0.00775365
0.00738935
0.007282
0.00733748
0.00760148
0.00781682
0.0287346
0.0114124
0.00844809
0.00747256
0.00711627
0.00706868
0.00723476
0.00759836
0.00822295
0.00916634
0.0158323
0.00880604
0.00735171
0.00692176
0.00689627
0.00714859
0.00768384
0.008604
0.0101931
0.0130574
0.0100796
0.007488
0.00680676
0.00673585
0.00703119
0.00769938
0.00889726
0.0109751
0.0145333
0.019777
0.00798715
0.00682765
0.00658021
0.00683418
0.00754187
0.00887893
0.0112341
0.0153941
0.0240877
0.0421876
0.00700217
0.00649185
0.0065704
0.00718019
0.00846077
0.0108957
0.0157639
0.0275697
0.0555014
0.0372847
0.00646695
0.0063406
0.00671193
0.00774418
0.00996539
0.0152384
0.0308723
0.056623
0.0289158
0.0188183
0.0117093
0.0105535
0.0111162
0.01254
0.0144924
0.0168704
0.0196847
0.0227973
0.0262544
0.0305665
0.0114721
0.0103382
0.0109188
0.0124346
0.0145531
0.0170239
0.019677
0.0223171
0.0246644
0.0264126
0.0119053
0.0102704
0.0106314
0.0120363
0.0141568
0.0166935
0.0193046
0.0216053
0.0230902
0.0231348
0.0134817
0.0104309
0.0103344
0.0114189
0.0132582
0.0155733
0.0179517
0.019889
0.0208215
0.0202296
0.0181039
0.0111173
0.0101935
0.0107941
0.0121321
0.0139388
0.0158799
0.0174939
0.0181743
0.0175837
0.0367344
0.0131034
0.0105891
0.0105048
0.0112454
0.0124239
0.0137723
0.0149583
0.0154743
0.0150548
0.0254887
0.0186842
0.0123496
0.0109872
0.0110965
0.0117026
0.0124543
0.0130704
0.0132453
0.0126818
0.0202924
0.0696983
0.0200783
0.0138392
0.0122951
0.0120622
0.0121961
0.0121707
0.0118656
0.011035
0.0210475
0.035039
0.0412686
0.0530149
0.0200089
0.0151854
0.0135897
0.0124662
0.0115494
0.0106206
0.0229398
0.0195253
0.0211556
0.0318692
0.0763671
0.0250433
0.0153788
0.0126492
0.0113431
0.0108418
0.0628373
0.02738
0.0153768
0.0158936
0.0161235
0.0152649
0.0146592
0.0155346
0.0156898
0.0189243
0.0326213
0.0355703
0.0179311
0.0199612
0.0168174
0.0143827
0.0134647
0.0142616
0.014496
0.017503
0.0212369
0.0311305
0.0280931
0.0269448
0.0157228
0.0130817
0.0122673
0.0128661
0.0131451
0.0159444
0.0167369
0.0201544
0.0344433
0.022578
0.0139951
0.0120936
0.0115057
0.0118735
0.0119857
0.0144137
0.0142976
0.0154052
0.0215961
0.0163021
0.01258
0.0113293
0.0110472
0.0113798
0.0112759
0.0131829
0.012729
0.0131663
0.0152309
0.0135847
0.0114517
0.0106484
0.0106267
0.0111402
0.0110166
0.0124215
0.0116158
0.0118809
0.0129146
0.0121772
0.0107736
0.0102567
0.0102637
0.0109064
0.011053
0.0121327
0.0109023
0.0108289
0.011643
0.0113445
0.0105446
0.0102688
0.0101852
0.0106907
0.0111946
0.0122309
0.0100208
0.0102123
0.011523
0.0112691
0.0105385
0.0104582
0.0104145
0.0106667
0.0113513
0.0126192
0.00933045
0.0094938
0.010964
0.0106364
0.010244
0.0105088
0.0107097
0.0108921
0.0115924
0.0132474
0.00878357
0.00944527
0.0106755
0.0103799
0.0104716
0.0107698
0.0110103
0.0113699
0.0120978
0.0144016
0.00838136
0.00964007
0.00993379
0.00983566
0.0109595
0.0115755
0.0113587
0.0119478
0.0129812
0.0166138
0.0098052
0.00992202
0.00985304
0.0108399
0.013755
0.0135322
0.0119627
0.0122987
0.0135711
0.0186447
0.0127616
0.011054
0.0109868
0.0132899
0.0204547
0.0157977
0.0127999
0.012682
0.013521
0.0181764
0.0153047
0.0125918
0.0131538
0.0158998
0.0814568
0.0150318
0.0121322
0.0123001
0.0129997
0.0160974
0.0177676
0.0154764
0.0143637
0.0160578
0.0144483
0.0109812
0.0103649
0.0108319
0.0115818
0.0136332
0.0248631
0.0172492
0.0139252
0.0123756
0.00938989
0.00867405
0.00883597
0.00952957
0.0103049
0.0116661
0.0137736
0.0122071
0.0106231
0.00846104
0.00767037
0.00780568
0.00829202
0.00896932
0.00954397
0.0102921
0.0085949
0.00817772
0.00751997
0.00725415
0.0075008
0.00816997
0.0088403
0.00928978
0.00941891
0.00960549
0.00677682
0.0068796
0.00705064
0.00756285
0.00893418
0.0116186
0.0153423
0.0148473
0.0121989
0.0107398
0.0171379
0.0227368
0.0468032
0.0684573
0.0233548
0.01459
0.0100951
0.00877601
0.00793533
0.00833142
0.0194732
0.0216825
0.0284596
0.0413657
0.0432778
0.0556195
0.0169456
0.0143135
0.0104596
0.00896077
0.0210977
0.0232511
0.0273558
0.0282453
0.0414597
0.029456
0.0276239
0.0182219
0.016272
0.0117386
0.0215874
0.0224679
0.0263893
0.0245193
0.0311216
0.0231284
0.0325023
0.0192995
0.023275
0.0155734
0.0215602
0.0224248
0.0254035
0.0247983
0.0282349
0.0237583
0.0271803
0.0211279
0.02262
0.0186139
0.0197696
0.0210294
0.0224033
0.0246813
0.0262715
0.0278805
0.0288785
0.0259519
0.0253246
0.0219687
0.0159934
0.0166465
0.0169285
0.0182019
0.0187237
0.0210096
0.0218883
0.0253552
0.0266426
0.027089
0.0114564
0.0116985
0.011566
0.0120318
0.0119094
0.0126424
0.0125124
0.0135532
0.0134078
0.0147517
0.00837244
0.00836185
0.00832683
0.00836547
0.00835809
0.008443
0.00845633
0.00857542
0.00860392
0.00873846
0.00653656
0.00651815
0.00653715
0.00652842
0.00656905
0.00656739
0.00662701
0.00663123
0.00670616
0.00671663
0.010384
0.0106527
0.0104285
0.0101921
0.0100564
0.0102194
0.0109975
0.0101425
0.00703906
0.0057869
0.0107537
0.0107026
0.010442
0.0101668
0.010033
0.0102901
0.0112921
0.0100123
0.00692255
0.00575
0.0109825
0.0109072
0.0106519
0.010361
0.0102265
0.0106014
0.0118687
0.00977037
0.00681082
0.00572486
0.0112094
0.0111567
0.0109061
0.010622
0.0105448
0.0111462
0.0128363
0.00944318
0.00670032
0.00570961
0.0113759
0.0113799
0.0111959
0.0109465
0.0109722
0.0120677
0.014437
0.00904958
0.0066015
0.00571174
0.0117159
0.0117288
0.0115409
0.0113819
0.0117366
0.0137718
0.0150431
0.00858652
0.00650749
0.00573025
0.0120391
0.0120874
0.01207
0.0121085
0.0131492
0.0187634
0.0138772
0.00812928
0.00642172
0.00577293
0.0126711
0.0128305
0.0127349
0.0131337
0.0168903
0.0297365
0.0116693
0.00768928
0.00635283
0.00584684
0.0136365
0.0135862
0.0140653
0.0185471
0.0591461
0.0198599
0.00987846
0.00728777
0.00630376
0.00596542
0.0146526
0.0158764
0.0215186
0.0504465
0.0310324
0.0129458
0.00858896
0.0069569
0.00629201
0.0061555
0.0119667
0.0114894
0.0110653
0.0106946
0.0103496
0.0100359
0.00975686
0.00951014
0.00932659
0.00822315
0.0118541
0.0114151
0.0110192
0.01066
0.0103229
0.0100213
0.00976721
0.00949601
0.00892975
0.00739975
0.0117165
0.0113211
0.0109543
0.0106051
0.0102751
0.00998876
0.00977416
0.00950392
0.00859077
0.00691327
0.0115771
0.01124
0.0109086
0.0105641
0.0102361
0.00996755
0.009805
0.00954503
0.00830258
0.00659498
0.0114577
0.0111813
0.0108883
0.0105506
0.0102215
0.0099637
0.00984784
0.00958901
0.00804189
0.00636591
0.011352
0.011137
0.0108827
0.0105492
0.0102273
0.010001
0.00995821
0.00968754
0.00781812
0.00619733
0.0113195
0.011169
0.0109402
0.0105868
0.0102434
0.0100309
0.0100661
0.00977044
0.00762025
0.00606836
0.0113101
0.0111736
0.0109697
0.010622
0.0102969
0.010137
0.0102911
0.00992134
0.00744925
0.00596897
0.0115299
0.0113553
0.0110499
0.0106044
0.0102479
0.0101427
0.0104591
0.0100314
0.00729996
0.0058933
0.0114598
0.0111629
0.0109261
0.0105831
0.0102852
0.0102584
0.0107514
0.0101249
0.00716085
0.00583235
0.231899
0.0644758
0.0389046
0.0405548
0.0446065
0.041239
0.0321164
0.0263337
0.019845
0.0141005
0.16698
0.0652026
0.0380827
0.0374884
0.0414755
0.0412683
0.0338861
0.026924
0.0205451
0.0139596
0.132978
0.0651689
0.0371308
0.0351346
0.0390915
0.0406007
0.0360721
0.0272306
0.0214985
0.0137926
0.113511
0.0641425
0.0360022
0.0332596
0.0372725
0.0397505
0.0387648
0.0272349
0.0226195
0.0135863
0.100593
0.0624233
0.0348103
0.031767
0.0358666
0.0389877
0.0418459
0.0270368
0.0236086
0.0133527
0.0917507
0.0604058
0.0337534
0.0306287
0.0347749
0.0383507
0.044414
0.0268875
0.023617
0.0131546
0.086473
0.0586893
0.0330276
0.0298182
0.0338995
0.0379052
0.0446447
0.0270471
0.0222848
0.0129111
0.0847097
0.0579239
0.0327236
0.0292416
0.0330673
0.0378297
0.0418982
0.0277862
0.0197048
0.0129835
0.0862074
0.0585834
0.0331633
0.0286744
0.0320655
0.03755
0.0380994
0.0284191
0.0184853
0.0127112
0.0899481
0.061319
0.0323289
0.0282404
0.0306021
0.0357575
0.033563
0.0265823
0.0160548
0.0141346
0.0924333
0.0705215
0.0320068
0.0286421
0.0276476
0.0343557
0.0249054
0.0242187
0.014654
0.0146286
0.0897503
0.0778795
0.0309416
0.0304742
0.0216034
0.0373604
0.0171071
0.021871
0.0131677
0.0143219
0.0827425
0.0889612
0.0318365
0.0281321
0.0176846
0.0335726
0.0143098
0.0192324
0.0127281
0.0143289
0.0765589
0.112075
0.0361072
0.0211972
0.0174955
0.0230087
0.0149522
0.0173453
0.014489
0.0133206
0.069417
0.12896
0.0427128
0.0181625
0.0203814
0.0187056
0.017824
0.0165972
0.0179406
0.0134589
0.0579605
0.0789749
0.0543939
0.0174935
0.0213034
0.0173595
0.0187715
0.0175374
0.0201659
0.0150059
0.0476172
0.0698671
0.10891
0.0201867
0.0184854
0.0178893
0.0167783
0.0197318
0.0186252
0.0170895
0.0350299
0.0991004
0.0396661
0.0402847
0.0147896
0.0172078
0.0130333
0.0156186
0.0136385
0.0151526
0.0216603
0.019845
0.014039
0.0126332
0.0113015
0.0108885
0.0102141
0.0103241
0.0100141
0.0100331
0.00792468
0.0078974
0.00827899
0.00850927
0.00878303
0.00807186
0.00832258
0.0076589
0.00759052
0.00720266
0.0116391
0.0114637
0.0113173
0.0114669
0.0116901
0.0120682
0.0124933
0.0131425
0.0141745
0.0153592
0.0124615
0.0121444
0.0120658
0.0122818
0.0126708
0.0132227
0.0138608
0.014816
0.0159873
0.0176163
0.0129866
0.0127712
0.0128976
0.0132736
0.0138343
0.0144963
0.0153359
0.016328
0.0175927
0.0191529
0.0134047
0.0134454
0.0137986
0.0143042
0.0149727
0.0155999
0.0164623
0.0172307
0.0184822
0.019518
0.0144061
0.0146649
0.0151763
0.0156892
0.0162688
0.016699
0.0173677
0.0179086
0.0189591
0.0197395
0.0159685
0.0161372
0.0164778
0.0167539
0.0169982
0.017139
0.0174192
0.0177271
0.0182472
0.0188571
0.0167343
0.0164663
0.0162762
0.0161785
0.0159729
0.0158388
0.0156466
0.0156544
0.0156061
0.0158879
0.0139902
0.0135505
0.0130645
0.0127892
0.0124015
0.0122234
0.0119012
0.0118233
0.0115761
0.01164
0.0097667
0.00954803
0.00933696
0.00916045
0.00899104
0.00885498
0.00871173
0.00861204
0.00850243
0.00844368
0.00709057
0.00699089
0.0069044
0.00682159
0.00675515
0.00669034
0.00664394
0.00659647
0.00657102
0.00653954
0.00574327
0.0064676
0.00833608
0.0149279
0.0263896
0.0142968
0.0119227
0.0108927
0.0096062
0.00812715
0.00582316
0.00639343
0.00783706
0.0123759
0.0439713
0.0191272
0.0130947
0.0110657
0.00954958
0.00805303
0.00594989
0.00635327
0.00742227
0.0102031
0.0184517
0.0202389
0.0145016
0.0115421
0.00972166
0.00819347
0.00614141
0.0063584
0.00710623
0.00889283
0.0128583
0.0171975
0.0154478
0.0123917
0.0102016
0.00848772
0.00642771
0.00642551
0.00689337
0.00806968
0.0104369
0.013908
0.0151612
0.0133461
0.0110483
0.00905215
0.0068577
0.00657836
0.00679233
0.00754986
0.009053
0.0115231
0.0139105
0.0139877
0.0122688
0.00980999
0.0075148
0.00685022
0.00681649
0.00725572
0.00820609
0.00983744
0.0120384
0.0135144
0.0133765
0.011124
0.00856065
0.00728457
0.00698115
0.00715814
0.0077339
0.00878251
0.0103928
0.0122431
0.0135822
0.0120549
0.0103949
0.00794448
0.00730383
0.00724188
0.00753877
0.00818851
0.00923905
0.0106293
0.0124468
0.0118258
0.0140596
0.00895997
0.00781341
0.00750858
0.00757586
0.0079482
0.00864118
0.0096577
0.0112538
0.0121722
0.0238655
0.0105617
0.00855681
0.00797147
0.00782402
0.00796474
0.0083726
0.00905774
0.00993408
0.0119979
0.0389405
0.0130375
0.00959978
0.0086594
0.00830829
0.00824789
0.00842803
0.00883636
0.00925887
0.0108685
0.0229111
0.0164763
0.0110818
0.00963848
0.0091128
0.00888851
0.00888356
0.00907866
0.0092028
0.0103389
0.0191937
0.0199954
0.0125689
0.0108387
0.0103072
0.0100276
0.00987078
0.00985316
0.00973991
0.0104971
0.0193374
0.0199804
0.0130457
0.0116624
0.0115555
0.0116114
0.0114912
0.0112509
0.0108697
0.0112278
0.0235419
0.0166719
0.0123438
0.0117606
0.012226
0.012993
0.0135586
0.0134668
0.0127703
0.012616
0.0361112
0.0140361
0.0116209
0.0117519
0.0125816
0.0138806
0.015605
0.0168569
0.016179
0.0152497
0.0214329
0.0123544
0.011345
0.0119357
0.0130637
0.0147022
0.0172876
0.0210891
0.023246
0.0213172
0.0151692
0.011428
0.0112819
0.0122268
0.0136911
0.0156929
0.0187214
0.0238571
0.0314639
0.0353431
0.012701
0.0109069
0.0112293
0.0124484
0.0142012
0.0165114
0.0196416
0.0240557
0.0308495
0.0399314
0.0113793
0.0114063
0.0126801
0.0165934
0.0297498
0.0660921
0.0278444
0.0240866
0.0223643
0.0267333
0.0112658
0.0115054
0.0129711
0.0170819
0.0275547
0.0375447
0.0261238
0.0236114
0.0222518
0.0274957
0.0109871
0.0115296
0.0131309
0.0168949
0.0233604
0.0279915
0.0243569
0.0230076
0.0218811
0.0271443
0.0110342
0.0117128
0.0133622
0.0164762
0.0206148
0.0233594
0.0224659
0.0221808
0.0213269
0.0263279
0.0115781
0.0121347
0.0137552
0.0161094
0.0188604
0.0204947
0.0206899
0.0212012
0.0206623
0.0253571
0.0125282
0.0128572
0.0142663
0.0157144
0.0173938
0.0184636
0.0191127
0.0201487
0.0199415
0.0243803
0.0139976
0.0140523
0.0147038
0.0151821
0.0161198
0.0169454
0.0177498
0.0190778
0.0191734
0.0234204
0.0165435
0.0159387
0.0149086
0.0146036
0.0151866
0.0159057
0.0166583
0.0180637
0.0183602
0.0224316
0.0218297
0.0186457
0.0149053
0.0142279
0.0147855
0.015387
0.015892
0.0171819
0.0175197
0.021366
0.040884
0.0225681
0.0149153
0.014433
0.0151019
0.0153337
0.015362
0.016416
0.0166548
0.0202015
0.0108844
0.0198669
0.0254363
0.0490193
0.0495562
0.0354922
0.0682549
0.0347988
0.0210532
0.0157077
0.00859755
0.0112607
0.0146741
0.0201208
0.026683
0.0271159
0.0209495
0.0164845
0.0145736
0.0133618
0.00849586
0.0100441
0.0127867
0.0163482
0.0200806
0.0209432
0.017856
0.0163921
0.0156266
0.014961
0.00928248
0.00998472
0.0122339
0.0164278
0.0235588
0.0283442
0.0228361
0.0203532
0.0189623
0.0189606
0.0112095
0.0112151
0.0126878
0.0167479
0.0309101
0.0597842
0.0268178
0.0231629
0.0214358
0.0236491
0.00578735
0.00588968
0.00603072
0.00623298
0.0064686
0.00676778
0.00712159
0.00747208
0.00802866
0.00828117
0.00599389
0.00607126
0.00619035
0.00635793
0.00654136
0.0067483
0.00699719
0.0071751
0.00756079
0.0076227
0.00628311
0.00633263
0.00644375
0.00660306
0.0067784
0.00700341
0.00719668
0.00748075
0.00772627
0.00800679
0.0066905
0.00670796
0.00683033
0.00701055
0.00724406
0.00757771
0.00780677
0.00852084
0.00856176
0.00985556
0.00723583
0.00721337
0.00735985
0.00759027
0.00797352
0.00844067
0.0090723
0.0102057
0.0103382
0.0135459
0.0120758
0.0117909
0.0115179
0.0111214
0.0107539
0.0105472
0.0105983
0.0102727
0.00796543
0.00623478
0.0123447
0.0120887
0.0116779
0.0111665
0.0107471
0.0105019
0.0104833
0.0102078
0.00819111
0.00637973
0.0120735
0.0118746
0.0115863
0.0111973
0.0108375
0.0105792
0.0104753
0.0101808
0.00844872
0.00656137
0.0121655
0.0119352
0.0116117
0.0112088
0.0108209
0.0105087
0.0103188
0.0100469
0.00872937
0.00680155
0.0121755
0.0118718
0.0115124
0.0111194
0.0107489
0.0104387
0.0102201
0.00998907
0.00907851
0.00714348
0.0122152
0.0118439
0.0114498
0.0110582
0.0106893
0.0103643
0.0101069
0.00990563
0.00944712
0.00765238
0.0122175
0.0117841
0.0113577
0.0109612
0.0105884
0.0102498
0.00996782
0.00981461
0.00985354
0.00854464
0.012179
0.0116986
0.0112491
0.0108475
0.0104682
0.0101154
0.00981335
0.00970113
0.0102218
0.0104682
0.012118
0.0116146
0.0111582
0.0107588
0.0103805
0.0100258
0.00971461
0.00957336
0.0102096
0.0130184
0.0120496
0.0115517
0.0111089
0.0107253
0.0103661
0.0100322
0.00972991
0.00953027
0.00979204
0.00998582
0.00842933
0.00981146
0.0107975
0.0113916
0.0121291
0.0146182
0.0159577
0.00884304
0.00656182
0.00569762
0.00898085
0.0100495
0.0105849
0.0108504
0.0111927
0.0122114
0.0140116
0.00932893
0.00666922
0.0056779
0.00953961
0.010129
0.0103499
0.0104288
0.0105473
0.0110662
0.0122053
0.00968526
0.006786
0.00568081
0.00982359
0.0100632
0.0101374
0.0101574
0.0102018
0.0104976
0.0112986
0.0098936
0.00690891
0.0057011
0.00992209
0.0100397
0.0100596
0.0100312
0.0100149
0.0101988
0.0108057
0.00996683
0.00703028
0.00573741
0.0100644
0.0101401
0.0101218
0.0100501
0.00998093
0.0100794
0.0105554
0.0100137
0.0071572
0.00578724
0.0103402
0.0103836
0.0103012
0.0101516
0.0100173
0.0100543
0.01044
0.010035
0.00728861
0.00584966
0.0107189
0.010682
0.0104973
0.0102647
0.010079
0.0100713
0.0103936
0.0100813
0.00743439
0.00592552
0.011033
0.0108644
0.0105949
0.0103289
0.0101386
0.0101237
0.0104139
0.0101625
0.00759502
0.00601397
0.0108906
0.0109541
0.0107344
0.0104957
0.010317
0.0102823
0.0105107
0.0102568
0.00777385
0.00611651
0.0388702
0.0362316
0.0858989
0.0493765
0.0270644
0.0249932
0.0275749
0.0428292
0.0254692
0.0169616
0.0438491
0.0381926
0.0626485
0.0935743
0.0324454
0.0260778
0.0266905
0.0298037
0.0262722
0.0149267
0.0505788
0.0408845
0.0536112
0.345472
0.0394437
0.0272991
0.0271269
0.0263845
0.0248083
0.014247
0.0598445
0.0435276
0.051296
0.339913
0.0451977
0.0280231
0.0269558
0.0241204
0.0223359
0.0142157
0.0724198
0.0479531
0.0502813
0.122039
0.0487327
0.0292976
0.0268476
0.0230927
0.0206401
0.0142853
0.0897847
0.0528338
0.047465
0.0811105
0.0548311
0.0309452
0.0270818
0.0229045
0.0197232
0.0143664
0.116691
0.0577351
0.0447384
0.068667
0.0570777
0.032954
0.027636
0.0232319
0.0192498
0.0143969
0.166299
0.0621621
0.0427966
0.0586496
0.0562449
0.0353683
0.0284396
0.0238762
0.0190729
0.0143671
0.25537
0.0645532
0.0411686
0.0505785
0.0528719
0.037935
0.0294495
0.024692
0.0191271
0.0142963
0.308218
0.0644806
0.0398518
0.0447374
0.0485464
0.0400891
0.0306625
0.0255514
0.0193836
0.0142028
0.007255
0.00742886
0.00812103
0.00875463
0.00941204
0.00963783
0.00978397
0.00924912
0.00923237
0.00773417
0.0149137
0.0109572
0.00967094
0.00978276
0.0102568
0.0106856
0.0111765
0.0113562
0.0113813
0.0112091
0.025834
0.0244924
0.0135417
0.0119609
0.0119349
0.0124996
0.0133256
0.0150931
0.0152182
0.0140211
0.0320253
0.0392828
0.0253492
0.0165674
0.0150851
0.0156768
0.0170889
0.0236357
0.0253881
0.0149984
0.0354892
0.0358527
0.0744669
0.0265139
0.0199069
0.0199531
0.022399
0.0432942
0.0320688
0.0166647
0.00722926
0.00690673
0.00660141
0.00633355
0.0061158
0.00594773
0.00582657
0.00575152
0.00572077
0.00573299
0.0103097
0.00949414
0.00868546
0.00798052
0.00735424
0.0068296
0.00643821
0.00618014
0.00603452
0.00597911
0.0119419
0.0110637
0.0102633
0.00959364
0.0089001
0.00812692
0.00739065
0.00683589
0.0064942
0.0063258
0.0121849
0.0113029
0.0106655
0.0102486
0.00985667
0.00932809
0.00854711
0.00771846
0.00712797
0.00680742
0.0120458
0.0112565
0.0106253
0.0102165
0.00991211
0.00965744
0.00928784
0.00863564
0.00793124
0.00744962
)
;

boundaryField
{
    left
    {
        type            calculated;
        value           nonuniform List<scalar> 
35
(
0.113975
0.163791
0.151337
0.113201
0.0874953
0.0651246
0.0485226
0.0330694
0.0192628
0.00788678
0.17347
0.185499
0.16965
0.141256
0.117366
0.100454
0.0898294
0.0849133
0.0857328
0.0935359
0.0338139
0.0380871
0.0437061
0.0510759
0.0605496
0.0727226
0.0891969
0.111886
0.135975
0.154846
0.00721691
0.0135946
0.0216536
0.0269228
0.0306525
)
;
    }
    right
    {
        type            calculated;
        value           nonuniform List<scalar> 
35
(
0.0157051
0.0133941
0.0150967
0.0195588
0.0256578
0.030759
0.0328098
0.0330518
0.0324766
0.0316017
0.0306883
0.0297704
0.0287441
0.0274923
0.0259376
0.0239941
0.0215703
0.018832
0.016321
0.0145004
0.013469
0.0131142
0.0132819
0.0138501
0.0147865
0.0166686
0.0204761
0.023454
0.0206621
0.0167038
0.0137537
0.0117463
0.0103638
0.00964245
0.0107554
)
;
    }
    down
    {
        type            calculated;
        value           nonuniform List<scalar> 
40
(
0.00638707
0.00674804
0.00769796
0.00845094
0.00914695
0.00927089
0.00927058
0.00858676
0.00851277
0.00693688
0.00653224
0.00630213
0.00608853
0.0059079
0.00577487
0.00568617
0.00563133
0.00560469
0.00560568
0.00563734
0.0057052
0.00581895
0.00597364
0.00619917
0.00647306
0.0068509
0.00729845
0.00784609
0.00858699
0.0091718
0.0170404
0.0505495
0.24953
0.161304
0.0279883
0.0210502
0.0268737
0.0386223
0.0886774
0.0219656
)
;
    }
    up
    {
        type            calculated;
        value           nonuniform List<scalar> 
40
(
0.00633023
0.00657517
0.00731672
0.00854817
0.0113564
0.0225519
0.0152601
0.0167462
0.0273972
0.0135976
0.00607599
0.00606518
0.00608752
0.00608282
0.00612332
0.0061218
0.00617866
0.00618016
0.00625089
0.00625738
0.00648174
0.00640403
0.0063366
0.00627299
0.00622216
0.00617359
0.00614098
0.00610738
0.00609291
0.00607207
0.00678838
0.00682941
0.00731397
0.00772487
0.00805901
0.00744096
0.00771762
0.00700633
0.0069354
0.00657417
)
;
    }
    cylinder
    {
        type            calculated;
        value           nonuniform List<scalar> 
80
(
0.0140629
0.0138167
0.0154329
0.0227047
0.0504783
0.0290268
0.0174329
0.0144113
0.0161017
0.0236328
0.0145616
0.0115433
0.0111368
0.0125815
0.0195743
0.0314549
0.0162856
0.00968869
0.00768271
0.00674583
0.00550105
0.00547894
0.00546876
0.00546984
0.00549001
0.00553154
0.00560584
0.00572589
0.00591733
0.00622732
0.00759086
0.00682572
0.00640081
0.00613256
0.00594433
0.00580883
0.00570696
0.00563037
0.00557409
0.00553088
0.00583404
0.00594839
0.0060925
0.00628512
0.00656277
0.00698788
0.00776748
0.00964597
0.0137627
0.00947979
0.00547839
0.00543638
0.00542082
0.00542469
0.00544608
0.00548128
0.00552859
0.00558799
0.0056584
0.00574019
0.00555391
0.00567661
0.00586722
0.00615528
0.00658933
0.00726067
0.00837522
0.010521
0.0164066
0.0396839
0.0282524
0.01933
0.0148423
0.0131359
0.0131563
0.0149455
0.0208728
0.0373359
0.0272645
0.0164764
)
;
    }
    defaultFaces
    {
        type            empty;
    }
}


// ************************************************************************* //
