/*--------------------------------*- C++ -*----------------------------------*\
| =========                 |                                                 |
| \\      /  F ield         | OpenFOAM: The Open Source CFD Toolbox           |
|  \\    /   O peration     | Version:  2406                                  |
|   \\  /    A nd           | Website:  www.openfoam.com                      |
|    \\/     M anipulation  |                                                 |
\*---------------------------------------------------------------------------*/
FoamFile
{
    version     2.0;
    format      ascii;
    arch        "LSB;label=32;scalar=64";
    class       volScalarField;
    location    "1.85";
    object      p;
}
// * * * * * * * * * * * * * * * * * * * * * * * * * * * * * * * * * * * * * //

dimensions      [0 2 -2 0 0 0 0];

internalField   nonuniform List<scalar> 
1800
(
-0.454023
-0.457984
-0.458438
-0.455945
-0.447899
-0.443263
-0.44138
-0.435489
-0.428247
-0.445504
-0.487542
-0.489463
-0.488982
-0.490826
-0.489081
-0.484142
-0.478801
-0.472856
-0.463507
-0.487006
-0.533078
-0.527728
-0.531748
-0.530325
-0.523977
-0.517204
-0.509618
-0.50069
-0.488924
-0.488604
-0.581151
-0.568387
-0.558887
-0.55492
-0.549608
-0.542123
-0.532168
-0.519788
-0.505659
-0.492292
-0.604086
-0.598799
-0.593473
-0.586568
-0.577717
-0.566039
-0.551164
-0.533618
-0.514371
-0.494631
-0.657575
-0.645556
-0.636651
-0.625371
-0.610622
-0.591927
-0.569679
-0.544733
-0.518025
-0.490995
-0.717529
-0.698938
-0.686555
-0.669685
-0.646502
-0.618178
-0.586809
-0.554057
-0.521279
-0.488325
-0.78261
-0.759376
-0.7423
-0.71631
-0.681086
-0.640697
-0.598526
-0.55595
-0.513384
-0.472595
-0.852166
-0.823625
-0.798312
-0.758928
-0.708891
-0.655211
-0.600917
-0.546166
-0.4932
-0.446448
-0.916236
-0.8826
-0.843833
-0.787672
-0.721922
-0.654129
-0.586361
-0.521102
-0.462846
-0.410417
-0.790512
-0.792848
-0.793921
-0.79484
-0.795706
-0.796494
-0.797309
-0.798404
-0.799741
-0.799975
-0.744272
-0.743676
-0.743696
-0.743788
-0.744003
-0.744423
-0.745138
-0.746292
-0.747994
-0.749751
-0.697403
-0.693468
-0.692097
-0.690923
-0.689926
-0.689298
-0.68912
-0.689518
-0.69068
-0.692371
-0.65018
-0.642588
-0.63944
-0.636407
-0.633483
-0.63103
-0.629168
-0.62803
-0.627792
-0.628057
-0.600501
-0.591655
-0.586966
-0.581703
-0.576177
-0.570992
-0.566366
-0.562458
-0.559359
-0.556382
-0.547323
-0.543487
-0.537927
-0.530296
-0.521794
-0.513057
-0.504444
-0.49623
-0.48851
-0.480559
-0.511021
-0.505239
-0.495805
-0.486195
-0.475277
-0.463079
-0.450008
-0.436459
-0.422774
-0.408908
-0.476536
-0.473132
-0.470168
-0.459752
-0.444226
-0.428657
-0.411521
-0.392703
-0.373064
-0.35401
-0.444379
-0.448859
-0.448556
-0.439152
-0.42528
-0.412601
-0.395095
-0.374421
-0.352085
-0.330184
-0.436592
-0.439818
-0.43872
-0.433095
-0.418512
-0.403608
-0.390904
-0.374109
-0.352796
-0.328195
-0.789174
-0.936102
-1.07154
-1.18207
-1.07793
-0.804965
-0.49245
-0.251984
-0.0949074
-0.0097596
-0.763183
-0.971452
-1.16049
-1.31582
-1.20167
-0.879024
-0.519165
-0.251221
-0.0856864
-0.00274523
-0.723814
-0.998687
-1.25114
-1.4617
-1.33766
-0.960346
-0.548747
-0.250197
-0.0755298
0.00503796
-0.667444
-1.01103
-1.33658
-1.60974
-1.48005
-1.04797
-0.581025
-0.24963
-0.0652501
0.0126601
-0.592994
-0.998014
-1.41013
-1.74502
-1.62352
-1.13912
-0.616144
-0.250654
-0.0562905
0.0187481
-0.501389
-0.956319
-1.45357
-1.86289
-1.759
-1.22991
-0.65372
-0.254371
-0.0501847
0.0221432
-0.398141
-0.884524
-1.46029
-1.95113
-1.87628
-1.31466
-0.692788
-0.261971
-0.0480079
0.0224993
-0.293126
-0.78411
-1.42931
-2.00137
-1.96612
-1.38802
-0.73245
-0.274938
-0.0506194
0.0200947
-0.205916
-0.65745
-1.3592
-2.01144
-2.02483
-1.44702
-0.771573
-0.293945
-0.0589665
0.0151638
-0.172056
-0.518261
-1.25708
-1.98126
-2.0541
-1.49242
-0.809253
-0.318075
-0.0732873
0.00770192
-0.11444
-0.391236
-1.17474
-1.9476
-2.04923
-1.49551
-0.82545
-0.341529
-0.0951997
-0.00477117
-0.140511
-0.348157
-1.12503
-1.85409
-1.94055
-1.42277
-0.814836
-0.370383
-0.129275
-0.0229908
-0.174502
-0.363169
-1.0516
-1.69961
-1.77581
-1.33978
-0.816006
-0.412867
-0.168993
-0.040892
-0.211629
-0.372629
-0.947885
-1.48473
-1.57601
-1.25852
-0.838934
-0.477195
-0.218963
-0.0597517
-0.22387
-0.357622
-0.818834
-1.25529
-1.37101
-1.19224
-0.883928
-0.559879
-0.278037
-0.0788932
-0.214855
-0.326901
-0.685588
-1.04145
-1.19159
-1.14808
-0.94734
-0.644196
-0.333054
-0.0936851
-0.183933
-0.285025
-0.559584
-0.848043
-1.04558
-1.12873
-1.01474
-0.718992
-0.374822
-0.102728
-0.144079
-0.233274
-0.439111
-0.692376
-0.932865
-1.10463
-1.03812
-0.745084
-0.39355
-0.106698
-0.0908927
-0.185647
-0.384428
-0.595162
-0.84078
-1.07008
-1.02749
-0.745352
-0.396402
-0.108534
-0.0682066
-0.152399
-0.369807
-0.636272
-0.864213
-1.04542
-0.995747
-0.721334
-0.389085
-0.107742
-0.321217
-0.366203
-0.3971
-0.42213
-0.442463
-0.458626
-0.467242
-0.467251
-0.426014
-0.392918
-0.213291
-0.263746
-0.30285
-0.333585
-0.359013
-0.378174
-0.374827
-0.369967
-0.343837
-0.338717
-0.121911
-0.174207
-0.216664
-0.250206
-0.275088
-0.298494
-0.301436
-0.307948
-0.294658
-0.292465
-0.0422848
-0.0951347
-0.139397
-0.176292
-0.204628
-0.231565
-0.244794
-0.260193
-0.258617
-0.263497
0.0254298
-0.0275129
-0.0729866
-0.112582
-0.144415
-0.173868
-0.19378
-0.213442
-0.221882
-0.234036
0.0816353
0.028936
-0.0170103
-0.0576568
-0.0913083
-0.121611
-0.144802
-0.166854
-0.181979
-0.199173
0.127293
0.0750487
0.0292345
-0.0112802
-0.0452033
-0.0750443
-0.0993424
-0.121533
-0.139604
-0.15828
0.163299
0.111415
0.0656309
0.0257548
-0.00779004
-0.0363602
-0.0597442
-0.0798716
-0.09704
-0.112993
0.185091
0.134125
0.0879894
0.0486407
0.0152086
-0.0117645
-0.033263
-0.0496182
-0.0620667
-0.0708439
0.19552
0.143595
0.0967749
0.0568971
0.022461
-0.00483662
-0.0268468
-0.0423403
-0.053141
-0.0583309
0.853461
0.798593
0.735087
0.667714
0.595292
0.515117
0.42714
0.33668
0.253766
0.199743
0.68883
0.630339
0.56491
0.493427
0.41411
0.324841
0.226496
0.125773
0.0343537
-0.0264825
0.508577
0.448595
0.382051
0.307964
0.224333
0.129352
0.0245236
-0.0828183
-0.179707
-0.245176
0.33624
0.274128
0.204905
0.127348
0.0397086
-0.0595952
-0.168745
-0.280676
-0.381291
-0.446653
0.180321
0.11545
0.0428689
-0.0384984
-0.130326
-0.233807
-0.345648
-0.461243
-0.56086
-0.625559
0.0390326
-0.0284522
-0.103608
-0.18722
-0.280752
-0.38565
-0.49825
-0.611236
-0.709114
-0.771497
-0.085837
-0.154468
-0.230421
-0.314957
-0.409376
-0.512255
-0.621449
-0.729751
-0.822624
-0.880116
-0.19565
-0.263228
-0.33774
-0.41952
-0.508886
-0.607491
-0.711791
-0.813093
-0.897014
-0.947845
-0.287973
-0.351471
-0.421425
-0.498283
-0.582705
-0.674866
-0.768724
-0.858389
-0.929018
-0.973325
-0.359288
-0.417708
-0.481619
-0.552224
-0.630775
-0.712453
-0.793258
-0.866916
-0.922002
-0.960514
1.82922
1.84257
1.85679
1.87074
1.88367
1.89508
1.90431
1.91056
1.91546
1.93258
1.78821
1.79961
1.81126
1.8222
1.83179
1.8395
1.84473
1.84717
1.84917
1.86396
1.72811
1.73674
1.74485
1.75169
1.75677
1.7595
1.75929
1.75635
1.75366
1.76416
1.65025
1.65558
1.65925
1.66086
1.66014
1.65641
1.64906
1.63882
1.62947
1.63408
1.55543
1.55666
1.55499
1.55044
1.54297
1.53178
1.51621
1.49743
1.48009
1.47793
1.44691
1.44369
1.43582
1.42394
1.40838
1.38827
1.36298
1.33421
1.30738
1.29765
1.32635
1.31806
1.30351
1.28388
1.2597
1.22995
1.19401
1.15415
1.11641
1.09892
1.20021
1.18616
1.16341
1.13424
1.09975
1.05894
1.01133
0.9598
0.910917
0.884373
1.07339
1.0528
1.021
0.981506
0.935758
0.882584
0.82171
0.756954
0.696084
0.659811
0.957014
0.922359
0.8759
0.822985
0.76467
0.698903
0.625163
0.547845
0.475845
0.430451
1.68864
1.67773
1.67156
1.65414
1.64317
1.63908
1.6417
1.65718
1.69068
1.7698
1.68519
1.6751
1.66922
1.65209
1.64125
1.63504
1.63651
1.64821
1.6765
1.7452
1.6825
1.67237
1.66697
1.6498
1.639
1.63015
1.63008
1.63634
1.65703
1.70966
1.68044
1.66969
1.66484
1.64733
1.63638
1.62445
1.62249
1.62155
1.63271
1.66293
1.67895
1.66703
1.66287
1.64469
1.63337
1.61795
1.61372
1.60382
1.60402
1.60452
1.67795
1.66437
1.6611
1.64191
1.62992
1.61066
1.60368
1.58312
1.57146
1.53417
1.67736
1.66167
1.65961
1.63893
1.62601
1.60263
1.5923
1.55955
1.53555
1.45154
1.67712
1.65895
1.65845
1.63572
1.62161
1.59381
1.57968
1.53326
1.49617
1.35797
1.67714
1.65629
1.6575
1.63236
1.61684
1.5842
1.56599
1.50448
1.45279
1.25295
1.67735
1.65374
1.65921
1.62931
1.61213
1.57415
1.55141
1.47422
1.40782
1.14566
1.67817
1.65089
1.64763
1.6241
1.60514
1.56219
1.53367
1.43996
1.35209
1.04185
1.68048
1.64964
1.65104
1.62158
1.60118
1.55114
1.51696
1.41285
1.30297
1.0356
1.68425
1.6496
1.65324
1.61928
1.59789
1.54183
1.5006
1.39411
1.26444
1.03433
1.68894
1.65044
1.65574
1.61785
1.59326
1.53822
1.48475
1.38257
1.23548
1.03012
1.69484
1.65264
1.65729
1.61645
1.58546
1.53981
1.469
1.3743
1.21358
1.02282
1.70413
1.65539
1.65471
1.61092
1.57417
1.54157
1.45318
1.36695
1.19846
1.01483
1.71823
1.65981
1.64919
1.59418
1.55936
1.54214
1.43769
1.36058
1.19132
1.01043
1.73812
1.66568
1.64839
1.58524
1.54589
1.54251
1.42267
1.35887
1.19171
1.01191
1.75208
1.66808
1.64872
1.58383
1.53613
1.54297
1.41056
1.3631
1.19394
1.01842
1.79772
1.66763
1.64468
1.57614
1.53377
1.5437
1.40727
1.37515
1.1979
1.03314
0.837452
0.70161
0.540989
0.386569
0.246697
0.119788
0.00518219
-0.0973731
-0.187554
-0.261773
0.794925
0.685102
0.558833
0.432634
0.31458
0.205069
0.102918
0.00814761
-0.0768993
-0.150971
0.781561
0.682416
0.575908
0.469219
0.366502
0.268915
0.176441
0.0897551
0.0107408
-0.0602279
0.783295
0.689557
0.5943
0.501623
0.411876
0.325003
0.241156
0.161287
0.0867278
0.0183995
0.792229
0.704596
0.617466
0.53453
0.454263
0.375262
0.297573
0.222344
0.151119
0.0850002
0.805085
0.72438
0.643847
0.567102
0.492557
0.418445
0.344695
0.272592
0.204048
0.139933
0.821103
0.746818
0.671449
0.598384
0.52684
0.455535
0.384206
0.314077
0.246841
0.184572
0.839389
0.769953
0.698252
0.627139
0.556858
0.486867
0.417213
0.349254
0.283652
0.221022
0.853171
0.785402
0.715524
0.645102
0.574759
0.504441
0.434745
0.367132
0.301944
0.241454
0.870294
0.803351
0.734296
0.663136
0.59097
0.519073
0.44858
0.380286
0.314818
0.253241
-1.6208
-1.55965
-1.46972
-1.36886
-1.2718
-1.18508
-1.10891
-1.04458
-0.991817
-0.951009
-1.71944
-1.66506
-1.58333
-1.48653
-1.39076
-1.30547
-1.23084
-1.16618
-1.11235
-1.07068
-1.7669
-1.71942
-1.64796
-1.55864
-1.46867
-1.38501
-1.31042
-1.24498
-1.18889
-1.14369
-1.76889
-1.72842
-1.66954
-1.59114
-1.50702
-1.42588
-1.35183
-1.28614
-1.22837
-1.1796
-1.73563
-1.70213
-1.65721
-1.59215
-1.51636
-1.43943
-1.36678
-1.30101
-1.24217
-1.19049
-1.68018
-1.65329
-1.62123
-1.5701
-1.50491
-1.43437
-1.36435
-1.29869
-1.23895
-1.1855
-1.61511
-1.59402
-1.57187
-1.5338
-1.48079
-1.41903
-1.3541
-1.29039
-1.23104
-1.17839
-1.54881
-1.53218
-1.51706
-1.48991
-1.44887
-1.3968
-1.33818
-1.27729
-1.21831
-1.16503
-1.48528
-1.47175
-1.46135
-1.4427
-1.41242
-1.37066
-1.32021
-1.26461
-1.20847
-1.15961
-1.42344
-1.41294
-1.40612
-1.39361
-1.37199
-1.3396
-1.29699
-1.24604
-1.18932
-1.13636
-1.36151
-1.35588
-1.35193
-1.34361
-1.32866
-1.3047
-1.27095
-1.22854
-1.17874
-1.12205
-1.30203
-1.30177
-1.29942
-1.29401
-1.28383
-1.2664
-1.2401
-1.2052
-1.16234
-1.10832
-1.24991
-1.24853
-1.24699
-1.2444
-1.23789
-1.22504
-1.20414
-1.17484
-1.13696
-1.0856
-1.19191
-1.19179
-1.19234
-1.1919
-1.18792
-1.17818
-1.16121
-1.13652
-1.1032
-1.05664
-1.12891
-1.13074
-1.13254
-1.13296
-1.13059
-1.12306
-1.10904
-1.08855
-1.0609
-1.02304
-1.06523
-1.06712
-1.06906
-1.06991
-1.06861
-1.06303
-1.05196
-1.03562
-1.01463
-0.98695
-1.0036
-1.00528
-1.00652
-1.00796
-1.00774
-1.00442
-0.996965
-0.985228
-0.970086
-0.951361
-0.94046
-0.946706
-0.94879
-0.950527
-0.951109
-0.949726
-0.945854
-0.939028
-0.929273
-0.916355
-0.885362
-0.892344
-0.894897
-0.89679
-0.897885
-0.897775
-0.896411
-0.893682
-0.888784
-0.880265
-0.837057
-0.841917
-0.843768
-0.8452
-0.846248
-0.846693
-0.846619
-0.846269
-0.845212
-0.841608
-0.934542
-0.689781
-0.637399
-0.645933
-0.630498
-0.547941
-0.418071
-0.2768
-0.150784
-0.0415284
-0.908712
-0.676849
-0.642127
-0.658149
-0.640612
-0.547752
-0.414925
-0.272494
-0.146807
-0.0398674
-0.885898
-0.674516
-0.654915
-0.676508
-0.654773
-0.551113
-0.413102
-0.26841
-0.142517
-0.0378724
-0.868927
-0.684917
-0.67662
-0.701909
-0.673792
-0.559041
-0.413054
-0.264712
-0.138009
-0.0356782
-0.856445
-0.706858
-0.706694
-0.735008
-0.69894
-0.571479
-0.414943
-0.261411
-0.133246
-0.0333094
-0.845506
-0.737536
-0.744889
-0.776863
-0.731968
-0.588971
-0.419064
-0.258533
-0.12817
-0.0307277
-0.83439
-0.774541
-0.791611
-0.828843
-0.774948
-0.61261
-0.425885
-0.25613
-0.122705
-0.0278421
-0.822981
-0.815444
-0.847942
-0.891925
-0.81645
-0.64418
-0.43608
-0.25429
-0.116763
-0.0245042
-0.813387
-0.856746
-0.913387
-0.970122
-0.884705
-0.686708
-0.45041
-0.253093
-0.110248
-0.0205192
-0.803664
-0.897152
-0.988202
-1.06642
-0.971583
-0.740297
-0.469277
-0.252454
-0.103032
-0.0156689
-0.917461
-0.738507
-0.668023
-0.640389
-0.60822
-0.518129
-0.403399
-0.26622
-0.147157
-0.0384831
-0.902664
-0.73035
-0.662827
-0.640469
-0.609512
-0.5194
-0.403149
-0.271258
-0.149315
-0.0409074
-0.900931
-0.721518
-0.656101
-0.639616
-0.612868
-0.52467
-0.404704
-0.27086
-0.150184
-0.0413108
-0.905658
-0.710741
-0.647696
-0.63833
-0.616236
-0.531351
-0.410084
-0.274322
-0.151702
-0.0420071
-0.925732
-0.695778
-0.63517
-0.636608
-0.619862
-0.540157
-0.416204
-0.277583
-0.152667
-0.0424286
-0.91066
-1.0244
-1.09202
-1.12396
-1.12301
-1.10782
-1.07634
-1.0473
-1.01179
-0.981071
-0.907854
-1.02155
-1.0867
-1.11478
-1.11016
-1.09031
-1.05727
-1.02378
-0.989971
-0.953058
-0.910747
-1.02498
-1.08967
-1.11663
-1.11255
-1.09174
-1.06384
-1.03003
-1.00436
-0.971927
-0.917727
-1.0337
-1.09956
-1.12729
-1.12622
-1.10795
-1.08737
-1.05748
-1.04007
-1.01333
-0.929372
-1.04783
-1.11626
-1.14662
-1.15063
-1.1387
-1.12609
-1.10533
-1.09399
-1.07274
1.27369
1.26001
1.23946
1.21588
1.19027
1.16148
1.12905
1.09543
1.06625
1.05433
1.38263
1.37839
1.36838
1.35499
1.33907
1.31992
1.29724
1.27309
1.25247
1.24679
1.48885
1.48945
1.48591
1.47978
1.47164
1.46091
1.44724
1.43198
1.41917
1.41956
1.58558
1.59009
1.59212
1.59244
1.5912
1.58781
1.58176
1.57375
1.56726
1.57322
1.67089
1.67881
1.68534
1.69072
1.69486
1.6972
1.69717
1.69495
1.69345
1.704
1.74175
1.7524
1.76263
1.77222
1.78086
1.78801
1.79299
1.79539
1.79752
1.81158
1.7967
1.8095
1.82266
1.83557
1.84769
1.85852
1.86725
1.87292
1.8772
1.89293
1.83406
1.84835
1.86358
1.87887
1.89353
1.90708
1.91871
1.927
1.9328
1.94712
1.85241
1.86734
1.88353
1.89991
1.91574
1.93057
1.94371
1.95367
1.96021
1.97152
1.85082
1.86541
1.88118
1.89699
1.91204
1.92587
1.93778
1.94656
1.95306
1.9692
-0.782486
-0.824428
-0.877533
-0.941924
-1.01837
-1.1067
-1.20603
-1.31031
-1.40402
-1.47009
-0.569391
-0.614064
-0.668661
-0.733811
-0.810732
-0.900235
-0.999855
-1.10624
-1.20171
-1.27018
-0.323692
-0.37206
-0.429128
-0.495709
-0.572968
-0.661844
-0.761082
-0.865104
-0.960802
-1.03037
-0.062957
-0.11479
-0.174171
-0.241687
-0.318461
-0.405574
-0.502022
-0.601917
-0.694071
-0.760696
0.192794
0.139269
0.0794407
0.0130087
-0.0610915
-0.144049
-0.235247
-0.32919
-0.415728
-0.475374
0.428299
0.376458
0.319452
0.257087
0.188323
0.111924
0.0283084
-0.0574263
-0.135942
-0.18715
0.638097
0.591308
0.540311
0.484819
0.423796
0.356021
0.281805
0.205871
0.136843
0.0945569
0.827322
0.787238
0.743789
0.696474
0.644162
0.585679
0.521351
0.455623
0.396485
0.36278
1.00528
0.97118
0.933695
0.893213
0.848677
0.798882
0.744122
0.688425
0.63903
0.613281
1.16727
1.13843
1.10456
1.06928
1.032
0.991158
0.946589
0.901444
0.861987
0.843513
1.7709
1.71005
1.68746
1.6578
1.63653
1.62574
1.60899
1.5928
1.52875
1.42221
1.7572
1.70681
1.68761
1.66304
1.64042
1.63226
1.61879
1.60571
1.56363
1.49904
1.74524
1.70288
1.68786
1.66466
1.64172
1.6373
1.62764
1.62189
1.59842
1.57253
1.73487
1.69899
1.6875
1.66054
1.64192
1.64078
1.6352
1.63633
1.62894
1.63512
1.72588
1.6952
1.68607
1.65962
1.64352
1.64326
1.64106
1.64821
1.65436
1.68693
1.71804
1.69156
1.68391
1.66006
1.64545
1.64492
1.64525
1.65729
1.67469
1.72791
1.71101
1.68803
1.68148
1.6597
1.64663
1.64571
1.64778
1.66339
1.68961
1.75813
1.70449
1.6848
1.679
1.65873
1.64672
1.64554
1.64865
1.66639
1.69875
1.77757
1.69844
1.68216
1.67646
1.65746
1.64601
1.64437
1.64788
1.66632
1.70196
1.78605
1.69309
1.68003
1.67396
1.65593
1.64478
1.64221
1.64553
1.66322
1.69923
1.78346
1.8889
1.7223
1.68126
1.63881
1.6138
1.59724
1.57092
1.53758
1.43574
1.33329
1.85034
1.72512
1.68897
1.6458
1.61759
1.59917
1.57122
1.5378
1.43485
1.31651
1.82863
1.72257
1.6893
1.64826
1.62062
1.60273
1.57545
1.54333
1.44476
1.31689
1.80637
1.71699
1.68972
1.65147
1.62561
1.60895
1.58337
1.55398
1.46094
1.32694
1.78696
1.71309
1.68918
1.65404
1.63098
1.61668
1.59455
1.56906
1.48409
1.34736
1.06819
0.954282
0.811305
0.632606
0.420418
0.181295
-0.0717477
-0.321496
-0.552278
-0.751625
1.05442
0.942444
0.802178
0.628257
0.422649
0.189366
-0.0612811
-0.312269
-0.546196
-0.748275
1.06758
0.953719
0.810587
0.636344
0.432424
0.20031
-0.0511711
-0.305069
-0.542792
-0.748423
1.09574
0.971908
0.821245
0.645484
0.442223
0.210006
-0.0432602
-0.300707
-0.542767
-0.752446
1.14509
1.00073
0.834891
0.653737
0.449116
0.216167
-0.0388613
-0.299805
-0.546442
-0.76063
)
;

boundaryField
{
    left
    {
        type            zeroGradient;
    }
    right
    {
        type            fixedValue;
        value           uniform 0;
    }
    down
    {
        type            zeroGradient;
    }
    up
    {
        type            zeroGradient;
    }
    cylinder
    {
        type            zeroGradient;
    }
    defaultFaces
    {
        type            empty;
    }
}


// ************************************************************************* //
