/*--------------------------------*- C++ -*----------------------------------*\
| =========                 |                                                 |
| \\      /  F ield         | OpenFOAM: The Open Source CFD Toolbox           |
|  \\    /   O peration     | Version:  2406                                  |
|   \\  /    A nd           | Website:  www.openfoam.com                      |
|    \\/     M anipulation  |                                                 |
\*---------------------------------------------------------------------------*/
FoamFile
{
    version     2.0;
    format      ascii;
    arch        "LSB;label=32;scalar=64";
    class       surfaceScalarField;
    location    "1.85";
    object      phi;
}
// * * * * * * * * * * * * * * * * * * * * * * * * * * * * * * * * * * * * * //

dimensions      [0 3 -1 0 0 0 0];

oriented        oriented;

internalField   nonuniform List<scalar> 
3485
(
-0.00160218
0.00249493
-0.000892751
-0.00346558
0.00343351
-0.0015701
-0.00489459
0.00333771
-0.0019087
-0.00551008
0.00271805
-0.00210257
-0.00459978
0.00122427
-0.00213457
-0.000336128
-0.00235689
-0.00190676
0.00868952
-0.00823592
-0.000789726
0.0231898
-0.0159179
0.00141764
0.0434894
-0.0250501
0.00475043
-0.0310606
0.00880875
0.0657413
-0.000918509
0.00341344
-0.00117171
0.00368671
-0.00116743
0.00333343
0.000387175
0.00116345
0.00577411
-0.00416266
0.016701
-0.0132838
0.0338254
-0.0253604
0.0572456
-0.0393381
0.0867239
-0.0545284
-0.0646558
0.120319
0.000225199
0.00318824
0.000296107
0.0036158
0.0023238
0.00130573
0.00894243
-0.00545518
0.0219849
-0.0172051
0.0417729
-0.0330717
0.0677302
-0.0513177
0.0984584
-0.0700663
0.132256
-0.0883258
-0.101686
0.169286
0.00156224
0.001626
0.00366574
0.0015123
0.00977832
-0.00480685
0.0228517
-0.0185286
0.0439126
-0.0382659
0.0718926
-0.0610518
0.104388
-0.0838126
0.138613
-0.104291
0.171744
-0.121457
-0.134009
0.204067
0.00093532
0.000690682
0.00553089
-0.00308327
0.0175669
-0.0168429
0.0387242
-0.0396859
0.0675904
-0.0671321
0.100597
-0.0940588
0.133821
-0.117036
0.164277
-0.134748
0.190186
-0.147367
-0.155534
0.211711
0.00120252
-0.000511836
0.00960751
-0.0114883
0.0284761
-0.0357115
0.0565674
-0.0677771
0.0888713
-0.099436
0.120068
-0.125256
0.146718
-0.143686
0.167601
-0.15563
0.18311
-0.162875
-0.167032
0.194608
0.00264946
-0.00316129
0.0160591
-0.0248979
0.0408223
-0.0604747
0.071151
-0.0981059
0.100001
-0.128286
0.12334
-0.148594
0.140468
-0.160814
0.152642
-0.167805
0.161585
-0.171819
-0.174195
0.168749
0.00486138
-0.00802267
0.0229436
-0.0429801
0.049894
-0.0874251
0.0766199
-0.124832
0.0977367
-0.149403
0.112528
-0.163385
0.122624
-0.170911
0.129883
-0.175063
0.135574
-0.17751
-0.179018
0.140397
0.00709608
-0.0151188
0.0278255
-0.0637096
0.0523806
-0.11198
0.0725025
-0.144954
0.0863258
-0.163226
0.0953353
-0.172395
0.101457
-0.177033
0.106035
-0.17964
0.109782
-0.181257
-0.182084
0.112848
0.00895828
-0.024077
0.0292888
-0.0840401
0.0487531
-0.131444
0.0624633
-0.158664
0.0709325
-0.171695
0.0760777
-0.17754
0.0796479
-0.180603
0.0824684
-0.182461
0.084345
-0.183134
0.0850546
-0.182794
-0.000351082
0.00208287
-0.00173179
-0.00149346
0.0107146
-0.00957218
-0.0032038
0.0192116
-0.0175013
-0.00513838
0.0255919
-0.0236573
-0.00701924
0.0300506
-0.0281698
-0.00868311
0.0332169
-0.031553
-0.0100644
0.0355694
-0.0341881
-0.0111618
0.0374199
-0.0363226
-0.0120093
0.0389741
-0.0381265
0.040346
-0.012641
-0.0397143
0.000201051
0.00188182
0.000295745
0.0106199
-0.000110585
0.019618
-0.000935284
0.0264166
-0.00194106
0.0310564
-0.00294216
0.034218
-0.00383014
0.0364574
-0.00454072
0.0381305
-0.0050311
0.0394645
0.0406176
-0.00530273
0.000685067
0.00119675
0.00217104
0.00913389
0.00339948
0.0183895
0.00408534
0.0257307
0.00437924
0.0307625
0.00450542
0.0340918
0.00463287
0.0363299
0.00487391
0.0378894
0.00530839
0.03903
0.0399396
0.00598644
0.000864977
0.000331774
0.0036705
0.00632837
0.00680756
0.0152525
0.0094578
0.0230805
0.0115422
0.0286781
0.0132666
0.0323674
0.0148631
0.0347334
0.0165168
0.0362357
0.0183742
0.0371726
0.0377324
0.0205814
0.000667138
-0.000335364
0.00413222
0.00286328
0.00900428
0.0103804
0.0138721
0.0182127
0.0181896
0.0243606
0.0219748
0.0285822
0.0254533
0.031255
0.028879
0.03281
0.0324942
0.0335574
0.033639
0.0365876
0.00054446
-0.000879824
0.00337404
3.36969e-05
0.00887434
0.00488012
0.0154395
0.0116475
0.0219538
0.0178463
0.0280387
0.0224973
0.0337225
0.0255711
0.0392093
0.0273232
0.0447852
0.0279815
0.0275332
0.0508911
0.000711682
-0.00159151
0.00225677
-0.00151139
0.00643131
0.000705579
0.012922
0.00515685
0.0203973
0.0103709
0.0280225
0.014872
0.0355023
0.0180913
0.042845
0.0199805
0.0502557
0.0205708
0.0195479
0.058241
0.000147136
-0.00173864
0.000426823
-0.00179108
0.00207876
-0.000946356
0.00609559
0.00114002
0.0122271
0.00423947
0.0194103
0.00768881
0.027056
0.0104457
0.0349988
0.0120377
0.0433539
0.0122157
0.0104065
0.0524953
-0.00103611
-0.000702531
-0.00196684
-0.000860354
-0.00268085
-0.00023234
-0.00235906
0.000818232
2.83774e-05
0.00185203
0.00437855
0.00333864
0.0101324
0.00469181
0.0170447
0.00512538
0.0250947
0.00416569
0.001348
0.0341532
-0.00159528
-0.00402574
-0.00616678
-0.00745111
-0.00773366
-0.00630178
-0.00239969
0.00414333
0.0130594
0.0232162
-0.00801016
0.416695
-0.421326
-0.0161204
0.458024
-0.449913
-0.0341001
0.344841
-0.326861
-0.0394249
0.16568
-0.160355
-0.0153991
-0.0760422
0.0520164
0.0241311
-0.253153
0.213622
0.0659316
-0.338434
0.296634
0.0986959
-0.320471
0.287707
0.125424
-0.291574
0.264846
-0.167721
0.153657
-0.0016092
0.413001
-0.0129497
0.469364
-0.0332943
0.365185
-0.0361709
0.168556
-0.00864421
-0.103569
0.0339328
-0.29573
0.076836
-0.381338
0.108454
-0.35209
0.133795
-0.316915
-0.18152
0.0116482
0.40734
-0.00121375
0.482226
-0.0214607
0.385432
-0.0223363
0.169432
0.00755226
-0.133457
0.0531144
-0.341292
0.0965269
-0.42475
0.125386
-0.380949
0.146778
-0.338307
-0.19358
0.0315765
0.396344
0.0203135
0.493489
-0.000337445
0.406083
0.00115677
0.167937
0.0311931
-0.163494
0.0793466
-0.389445
0.123918
-0.469321
0.150476
-0.407507
0.166046
-0.353877
-0.202165
0.0573476
0.375584
0.0486842
0.502152
0.0310105
0.423757
0.0323127
0.166635
0.0615112
-0.192692
0.109469
-0.437403
0.154975
-0.514827
0.181623
-0.434156
0.191874
-0.364127
-0.206274
0.0860195
0.340456
0.0837982
0.504374
0.0695021
0.438053
0.0713938
0.164744
0.0995667
-0.220865
0.144418
-0.482254
0.187296
-0.557705
0.214743
-0.461603
0.222227
-0.371612
-0.206564
0.113996
0.284701
0.123299
0.49507
0.113216
0.448137
0.115591
0.162368
0.144267
-0.249541
0.185693
-0.52368
0.222154
-0.594166
0.247379
-0.486828
0.253799
-0.378032
-0.204838
0.134864
0.202332
0.161254
0.46868
0.157549
0.451842
0.160031
0.159885
0.188454
-0.277964
0.228261
-0.563486
0.259317
-0.625222
0.279427
-0.506938
0.284078
-0.382683
-0.202476
0.145183
0.0913025
0.198403
0.415461
0.200173
0.450072
0.200563
0.159495
0.226875
-0.304276
0.265327
-0.601938
0.294529
-0.654423
0.310323
-0.522732
0.311888
-0.384247
-0.199777
0.134034
-0.019515
0.216567
0.332928
0.23207
0.434568
0.236332
0.155233
0.26046
-0.328405
0.296253
-0.637731
0.324756
-0.682927
0.338254
-0.53623
0.336511
-0.382505
-0.19664
0.266179
-0.031295
-0.254399
0.357946
0.241161
0.428815
0.363699
0.528983
0.0550652
0.62101
-0.420432
0.662225
-0.678945
0.655111
-0.675813
0.622996
-0.504115
0.577253
-0.336761
-0.167033
0.447181
0.0257944
-0.50427
0.475953
0.212389
0.567559
0.272094
0.689604
-0.0669805
0.766686
-0.497513
0.773747
-0.686006
0.730178
-0.632244
0.673035
-0.446973
0.612473
-0.276198
-0.130379
0.60427
0.0553758
-0.633851
0.624431
0.192227
0.719987
0.176539
0.819723
-0.166717
0.862871
-0.540661
0.845069
-0.668204
0.778212
-0.565387
0.700047
-0.368808
0.626936
-0.203087
-0.089067
0.698232
0.0525485
-0.695405
0.748034
0.142426
0.838197
0.0863754
0.909345
-0.237866
0.929079
-0.560395
0.891583
-0.630707
0.807664
-0.481467
0.71293
-0.274075
0.627302
-0.117459
-0.0430819
0.757852
0.0304399
-0.735744
0.822879
0.0773994
0.903465
0.00578914
0.957419
-0.291819
0.957426
-0.560403
0.890543
-0.563824
0.78414
-0.375064
0.683887
-0.173822
0.602246
-0.0358171
-0.000325392
0.797795
0.000198168
-0.767553
0.857418
0.0177765
0.92882
-0.0656134
0.973567
-0.336566
0.94164
-0.528475
0.83674
-0.458924
0.711864
-0.250189
0.611788
-0.0737462
0.544532
0.0314386
0.0310769
0.811776
-0.0266885
-0.78489
0.861884
-0.0323306
0.929101
-0.132831
0.937599
-0.345064
0.838916
-0.429792
0.691173
-0.311182
0.56802
-0.127036
0.491061
0.00321287
0.454219
0.0682814
0.0443218
0.79222
-0.0425829
-0.776325
0.835868
-0.0759785
0.871258
-0.168221
0.788764
-0.26257
0.60569
-0.246718
0.437892
-0.143384
0.348101
-0.037245
0.320443
0.0308706
0.32712
0.0616051
0.0360797
0.691517
-0.041509
-0.692591
0.701798
-0.0862592
0.633637
-0.10006
0.446432
-0.0753642
0.252763
-0.0530495
0.145842
-0.0364627
0.120147
-0.0115506
0.137499
0.013519
0.173377
0.0257266
0.0156509
0.33987
-0.381379
0.253611
0.153551
0.0781869
0.0251374
-0.0113254
-0.022876
-0.00935703
0.0163696
0.508548
0.0745863
-0.49808
0.519031
0.102366
0.529125
0.130303
0.539198
0.158676
0.549939
0.183867
0.551672
0.209978
0.529708
0.226031
0.472436
0.226558
0.361118
0.231638
0.17246
0.507408
0.064385
-0.497207
0.519684
0.0900899
0.533573
0.116414
0.548827
0.143422
0.563476
0.169218
0.581075
0.192379
0.587444
0.219662
0.586176
0.227826
0.563354
0.25446
0.231544
0.514464
0.055369
-0.505449
0.525815
0.0787395
0.539273
0.102956
0.555924
0.126771
0.572638
0.152504
0.592689
0.172327
0.611903
0.200448
0.628137
0.211592
0.642623
0.239973
0.240316
0.52452
0.0469662
-0.516117
0.535897
0.0673629
0.549342
0.0895108
0.566221
0.109891
0.585257
0.133469
0.60605
0.151534
0.630688
0.17581
0.652343
0.189938
0.678941
0.213375
0.223852
0.532273
0.0382369
-0.523544
0.544276
0.0553594
0.559242
0.074545
0.577181
0.0919531
0.598729
0.11192
0.621745
0.128518
0.649361
0.148194
0.675892
0.163406
0.707571
0.181696
0.195679
0.534286
0.0289738
-0.525023
0.546961
0.042684
0.5635
0.0580061
0.583063
0.0723905
0.606874
0.088109
0.632897
0.102494
0.663353
0.117739
0.695071
0.131688
0.731234
0.145534
0.15936
0.527135
0.0195215
-0.517683
0.540268
0.0295512
0.557737
0.0405374
0.57872
0.0514074
0.604296
0.0625323
0.632962
0.0738285
0.666248
0.0844529
0.702123
0.0958129
0.742458
0.105198
0.116929
0.502402
0.0103175
-0.493198
0.515564
0.0163891
0.533203
0.0228985
0.554829
0.0297816
0.581226
0.0361347
0.611481
0.0435735
0.646601
0.049333
0.685422
0.0569923
0.72898
0.0616402
0.0695832
0.435409
0.00241101
-0.427503
0.446983
0.00481502
0.462789
0.00709326
0.482718
0.00985214
0.506949
0.0119034
0.535441
0.0150818
0.568233
0.016541
0.605298
0.0199277
0.646518
0.02042
0.02351
0.252235
-0.249824
0.25705
0.264143
0.273996
0.285899
0.300981
0.317522
0.337449
0.357869
0.069714
0.130475
-0.120092
-0.0800979
0.059959
0.132619
-0.122864
0.0508367
0.134883
-0.12576
0.0419786
0.1378
-0.128941
0.0331548
0.141001
-0.132178
0.0243904
0.143743
-0.134979
0.0159666
0.144267
-0.135844
0.00827023
0.139607
-0.131911
0.00223752
0.121601
-0.115569
0.0655756
-0.0633381
0.0666395
0.139888
-0.0760522
0.0572369
0.142022
0.0480032
0.144116
0.0390399
0.146763
0.0302805
0.149761
0.0217813
0.152242
0.0138345
0.152214
0.00678099
0.146661
0.00158469
0.126798
0.0671603
0.0593739
0.148477
-0.0679632
0.0506059
0.15079
0.0418902
0.152832
0.0333974
0.155256
0.0251905
0.157968
0.0174109
0.160022
0.010342
0.159283
0.0042928
0.15271
0.000326672
0.130764
0.067487
0.0494032
0.156177
-0.0571025
0.0415914
0.158601
0.0337845
0.160639
0.0261535
0.162887
0.0188156
0.165306
0.0119958
0.166842
0.00608152
0.165197
0.00122681
0.157565
-0.000950064
0.132941
0.0665369
0.0365115
0.163153
-0.043488
0.029586
0.165527
0.0226962
0.167529
0.0159692
0.169614
0.00966407
0.171611
0.00417433
0.172331
-0.000189605
0.169561
-0.00300542
0.16038
-0.00286685
0.132802
0.0636701
0.0225639
0.169106
-0.0285173
0.0167679
0.171323
0.0110913
0.173205
0.00562778
0.175077
0.000575557
0.176663
-0.00342421
0.176331
-0.00614904
0.172286
-0.00721608
0.161448
-0.00467604
0.130262
0.058994
0.00505728
0.174403
-0.0103535
9.1675e-05
0.176288
-0.00458942
0.177886
-0.00886022
0.179348
-0.0122082
0.180011
-0.0139578
0.178081
-0.0146196
0.172948
-0.0127444
0.159572
-0.00680103
0.124319
0.052193
-0.0132304
0.178459
0.00917443
-0.0168519
0.17991
-0.0201858
0.18122
-0.0230083
0.182171
-0.0243058
0.181309
-0.0243493
0.178124
-0.0230023
0.171601
-0.0179723
0.154542
-0.00851484
0.114861
0.0436782
-0.0348292
0.181259
0.0320291
-0.037373
0.182454
-0.0392955
0.183143
-0.0396766
0.182552
-0.0385402
0.180172
-0.0366277
0.176212
-0.0321737
0.167147
-0.0230573
0.145426
-0.00967765
0.101482
0.0340005
-0.0589282
0.0573928
-0.0596086
-0.0589262
-0.0569777
-0.0543456
-0.0498294
-0.0413465
-0.027365
-0.0099235
0.103061
0.0303338
-0.114353
-0.0190417
0.0915355
0.0308755
-0.0193505
0.0797727
0.0315001
-0.0197373
0.0677567
0.0322159
-0.0201999
0.0554773
0.0330057
-0.0207263
0.042947
0.0337508
-0.0212204
0.0302673
0.0340251
-0.0213455
0.0178099
0.0327278
-0.0202704
0.00665966
0.027715
-0.0165647
0.0149056
-0.00824589
0.103235
0.0416534
-0.114555
0.0917214
0.0423892
0.0799785
0.043243
0.0679951
0.0441993
0.0557599
0.0452408
0.0432787
0.046232
0.0306347
0.0466692
0.018145
0.0452175
0.00682154
0.0390384
0.0217271
0.102715
0.0529017
-0.113963
0.0912529
0.0538513
0.0795659
0.05493
0.0676438
0.0561214
0.0554768
0.0574079
0.0430684
0.0586404
0.0304991
0.0592384
0.018073
0.0576436
0.00677637
0.050335
0.0285035
0.101027
0.0640766
-0.112202
0.0896909
0.0651878
0.0781257
0.0664952
0.0663222
0.067925
0.0542779
0.0694521
0.042016
0.0709024
0.029641
0.0716134
0.0174655
0.0698191
0.00646118
0.0613393
0.0349646
0.098734
0.0749782
-0.109636
0.0876549
0.0762669
0.0763766
0.0777736
0.0648692
0.0794323
0.0531064
0.081215
0.0410962
0.0829125
0.0289554
0.0837542
0.0170139
0.0817605
0.00623531
0.072118
0.0412
0.0947423
0.0856996
-0.105464
0.0839444
0.0870648
0.0729587
0.0887592
0.0617839
0.0906071
0.050411
0.0925879
0.03885
0.0944735
0.0272164
0.0953878
0.0158394
0.0931375
0.00565898
0.0822984
0.0468589
0.0903988
0.0958629
-0.100562
0.0801759
0.0972878
0.0697684
0.0991667
0.0591049
0.101271
0.0481611
0.103532
0.0369846
0.10565
0.0257578
0.106615
0.0148557
0.10404
0.00523382
0.0919203
0.0520928
0.0834493
0.105612
-0.0931989
0.0737389
0.106998
0.0639495
0.108956
0.0540334
0.111187
0.0439163
0.113649
0.0335854
0.115981
0.0232082
0.116992
0.0131749
0.114073
0.00445442
0.100641
0.0565472
0.0779667
0.113907
-0.0862613
0.0693767
0.115588
0.0602447
0.118088
0.0506885
0.120743
0.0408496
0.123488
0.0308678
0.125963
0.0209999
0.12686
0.0116453
0.123428
0.0037368
0.108549
0.060284
0.0683931
-0.0745775
0.0611172
0.053445
0.0452465
0.0365566
0.0275407
0.0185568
0.0100737
0.00305414
0.200779
0.000727577
-0.00351655
0.206273
-0.0131393
0.00764552
0.212756
0.0164595
-0.0229433
0.214525
0.0853833
-0.0871519
0.212074
0.135771
-0.13332
0.206713
0.167145
-0.161785
0.197657
0.169474
-0.160418
0.184681
0.173637
-0.160661
0.160987
0.186006
-0.162312
0.20555
-0.158916
0.200749
-0.00203157
0.206101
-0.0184913
0.211814
0.0107465
0.212532
0.0846654
0.209251
0.139052
0.203321
0.173075
0.194639
0.178157
0.18201
0.186265
0.15976
0.208257
0.250755
0.200568
-0.0046097
0.205725
-0.0236488
0.210611
0.00586132
0.210131
0.0851449
0.205848
0.143335
0.198979
0.179943
0.190551
0.186585
0.177889
0.198927
0.157257
0.228889
0.294049
0.20024
-0.00685951
0.205137
-0.028546
0.209135
0.00186264
0.207296
0.0869844
0.201829
0.148802
0.193765
0.188007
0.185512
0.194838
0.172403
0.212036
0.15364
0.247653
0.335486
0.199778
-0.00864778
0.204338
-0.033106
0.207382
-0.00118175
0.204003
0.0903642
0.197169
0.155635
0.187784
0.197392
0.179636
0.202986
0.165673
0.225999
0.148993
0.264333
0.374843
0.199188
-0.00984605
0.203316
-0.0372338
0.205325
-0.00319066
0.200227
0.095462
0.191888
0.163974
0.181167
0.208114
0.173002
0.211151
0.157964
0.241037
0.143515
0.278782
0.412895
0.198466
-0.0103223
0.202024
-0.0407916
0.202904
-0.00407052
0.195953
0.102413
0.186046
0.173882
0.174052
0.220107
0.165644
0.219559
0.149488
0.257193
0.137139
0.291131
0.449472
0.197602
-0.00993428
0.200385
-0.0435753
0.200041
-0.00372566
0.191197
0.111256
0.179729
0.185349
0.166571
0.233266
0.157624
0.228506
0.140593
0.274224
0.130391
0.301333
0.486664
0.196587
-0.0085315
0.198307
-0.0452957
0.196682
-0.00210069
0.186022
0.121916
0.173056
0.198316
0.158826
0.247496
0.149086
0.238246
0.131893
0.291418
0.123082
0.310143
0.523484
0.195482
-0.00602336
0.195628
-0.0454423
0.192922
0.000605992
0.180453
0.134385
0.166169
0.212599
0.150855
0.26281
0.140356
0.248745
0.122504
0.30927
0.116075
0.316571
0.564982
0.303219
-0.0072323
0.306856
-0.0490792
0.317852
-0.0103902
0.320282
0.131955
0.321559
0.211322
0.313365
0.271005
0.31893
0.243179
0.314559
0.313641
0.357859
0.273271
0.500158
0.422683
0.302845
-0.00806714
0.304323
-0.050557
0.316684
-0.0227512
0.323928
0.124711
0.331472
0.203778
0.329003
0.273474
0.341086
0.231096
0.34598
0.308747
0.373453
0.245798
0.437509
0.436102
0.302585
-0.00864181
0.302979
-0.0509512
0.313204
-0.0329762
0.330544
0.107371
0.345335
0.188988
0.3566
0.262208
0.376879
0.210816
0.393488
0.292139
0.411704
0.227582
0.381161
0.468052
0.302843
-0.00947447
0.30302
-0.0511279
0.307685
-0.037642
0.339399
0.0756577
0.361023
0.167363
0.387139
0.236093
0.418422
0.179533
0.441079
0.269482
0.462511
0.20615
0.329806
0.513867
0.303875
-0.0113393
0.303843
-0.0510963
0.304583
-0.0383817
0.345605
0.0346353
0.373742
0.139227
0.410232
0.199603
0.449366
0.140399
0.477866
0.240982
0.506041
0.177975
0.277259
0.558588
0.30592
-0.0152492
0.306098
-0.0512737
0.30767
-0.0399537
0.347828
-0.0055234
0.381415
0.10564
0.425914
0.155105
0.46654
0.0997726
0.501866
0.205656
0.53445
0.145391
0.223726
0.587983
0.308827
-0.0220664
0.309607
-0.052053
0.314192
-0.0445384
0.34359
-0.0349223
0.379863
0.0693678
0.428992
0.105976
0.466248
0.0625166
0.509306
0.162598
0.544284
0.110413
0.169087
0.598923
0.310496
-0.0305521
0.310364
-0.051921
0.315577
-0.049752
0.325903
-0.0452477
0.360717
0.0345536
0.410594
0.0560985
0.43916
0.0339511
0.490766
0.110992
0.529144
0.0720348
0.110424
0.587806
0.307891
-0.0364332
0.300363
-0.0443929
0.294815
-0.0442039
0.280743
-0.0311752
0.306857
0.00843892
0.344015
0.018941
0.361817
0.0161489
0.422221
0.0505881
0.462999
0.0312566
0.0480786
0.525345
0.265577
0.221184
0.17698
0.145805
0.154244
0.173185
0.189334
0.239922
0.271178
0.319257
0.434511
-0.0919259
0.439983
-0.0815242
0.445308
-0.0732884
0.451264
-0.0630583
0.458268
-0.0504919
0.465189
-0.0354387
0.472827
-0.0179906
0.480694
0.00130731
0.488818
0.0239052
0.0481302
0.440936
-0.0967602
0.446604
-0.0871927
0.451856
-0.0785403
0.457171
-0.0683732
0.462864
-0.0561842
0.468679
-0.041254
0.474997
-0.0243093
0.481394
-0.00508914
0.488772
0.0165269
0.0396952
0.469978
-0.098686
0.473517
-0.0907313
0.477011
-0.0820352
0.480014
-0.0713754
0.482762
-0.0589322
0.48569
-0.0441829
0.489023
-0.0276413
0.493
-0.00906674
0.498409
0.0111176
0.0326561
0.511972
-0.0967908
0.51033
-0.0890899
0.508597
-0.0803019
0.506783
-0.0695621
0.505035
-0.0571841
0.504142
-0.0432899
0.50424
-0.0277387
0.506162
-0.0109892
0.509885
0.00739494
0.0264236
0.549993
-0.0881957
0.541573
-0.0806704
0.533593
-0.0723214
0.526567
-0.0625364
0.520659
-0.0512762
0.516545
-0.0391759
0.514326
-0.0255193
0.514722
-0.0113849
0.517593
0.00452384
0.0204729
0.573249
-0.0734618
0.559328
-0.0667491
0.546741
-0.0597344
0.536008
-0.0518037
0.527343
-0.0426108
0.521142
-0.0329753
0.517506
-0.0218834
0.516838
-0.0107164
0.519253
0.002109
0.0147031
0.580004
-0.0545432
0.562773
-0.0495186
0.547465
-0.0444263
0.534455
-0.0387938
0.524009
-0.032164
0.516373
-0.0253393
0.511713
-0.0172232
0.51028
-0.00928413
0.512092
0.00029763
0.00911201
0.565981
-0.0327178
0.546757
-0.0302948
0.529724
-0.0273933
0.515154
-0.0242237
0.503419
-0.0204293
0.494522
-0.0164419
0.48889
-0.0115916
0.486531
-0.00692506
0.488177
-0.00134855
0.00409128
0.504551
-0.0119246
0.485421
-0.0111641
0.468489
-0.0104617
0.453856
-0.00959097
0.441876
-0.00844908
0.432555
-0.00712115
0.426437
-0.0054729
0.423291
-0.00377894
0.423676
-0.00173339
0.000263931
0.307332
0.296168
0.285707
0.276116
0.267667
0.260545
0.255073
0.251294
0.24956
0.0076466
0.0556118
-0.0632584
0.0142683
0.1266
-0.133221
0.0167353
0.159656
-0.162123
0.0169837
0.171772
-0.172021
0.0166247
0.17607
-0.175711
0.0148223
0.177837
-0.176034
0.0121616
0.176495
-0.173834
0.00939464
0.172821
-0.170054
0.00690653
0.166537
-0.164049
0.155182
0.0051655
-0.153441
0.009414
0.0461978
0.0200297
0.115984
0.0264677
0.153218
0.0295417
0.168698
0.0313317
0.17428
0.0322136
0.176955
0.0318777
0.176831
0.0308829
0.173815
0.02965
0.16777
0.156677
0.0281547
0.0101799
0.0360179
0.0244264
0.101737
0.0348977
0.142747
0.0412472
0.162349
0.045243
0.170284
0.0484658
0.173732
0.0506248
0.174672
0.0516247
0.172815
0.0516547
0.16774
0.157959
0.0503729
0.0097796
0.0262383
0.0268477
0.0846694
0.0414017
0.128193
0.0513799
0.152371
0.0581142
0.16355
0.0633533
0.168493
0.0675929
0.170432
0.0705426
0.169866
0.0719743
0.166308
0.158581
0.0713523
0.0084662
0.0177721
0.0268543
0.0662813
0.0450829
0.109964
0.0589878
0.138466
0.0688547
0.153683
0.076355
0.160993
0.0825468
0.16424
0.0874873
0.164925
0.0907502
0.163045
0.15776
0.0915711
0.00671136
0.0110607
0.0244701
0.0485225
0.0451941
0.0892404
0.0629301
0.12073
0.0762845
0.140328
0.0863213
0.150956
0.0943596
0.156202
0.100968
0.158317
0.105929
0.158084
0.155293
0.108396
0.00495411
0.00610663
0.0204162
0.0330604
0.0416609
0.0679957
0.0624132
0.0999775
0.0795011
0.12324
0.0927315
0.137726
0.103157
0.145776
0.111735
0.14974
0.118748
0.151071
0.15018
0.123861
0.00338941
0.00271722
0.0156701
0.0207797
0.0351852
0.0484806
0.0570542
0.0781085
0.0771329
0.103162
0.0937091
0.121149
0.106907
0.132579
0.117542
0.139104
0.126232
0.14238
0.143523
0.13289
0.00202639
0.000690831
0.0111024
0.0117037
0.0273116
0.0322714
0.0480012
0.0574188
0.0693853
0.0817777
0.0887757
0.101759
0.105179
0.116176
0.118789
0.125494
0.130334
0.130835
0.133149
0.140708
0.000960949
-0.000270118
0.00721888
0.00544577
0.0195538
0.0199365
0.0371209
0.0398517
0.0574307
0.0614679
0.0777206
0.081469
0.096103
0.0977933
0.111782
0.109815
0.124769
0.117848
0.122209
0.135709
0.000589747
-0.000859865
0.00448216
0.00155336
0.0130961
0.0113226
0.026558
0.0263898
0.0438256
0.0442003
0.0629409
0.0623537
0.0819397
0.0787945
0.099488
0.0922664
0.114893
0.102443
0.10987
0.127233
0.000568388
-0.00142825
0.00272465
-0.000602906
0.00830412
0.0057431
0.0177043
0.0169896
0.0308758
0.0310287
0.0469747
0.0462549
0.0645954
0.0611738
0.0823394
0.0745223
0.0990883
0.0856936
0.0950094
0.113949
0.000723476
-0.00215173
0.00181864
-0.00169807
0.00487622
0.00268553
0.0105466
0.0113192
0.0192767
0.0222986
0.0310739
0.0344577
0.0453036
0.0469441
0.0609374
0.0588886
0.0769168
0.0697141
0.0791752
0.0927509
0.000319119
-0.00247085
0.000702419
-0.00208137
0.00171249
0.00167546
0.00408765
0.00894406
0.00853347
0.0178528
0.0155208
0.0274704
0.0250586
0.0374063
0.0366654
0.0472818
0.0497102
0.0566693
0.0647929
0.0640926
-0.000324922
-0.00214593
-0.000795528
-0.00161077
-0.00160373
0.00248366
-0.00195658
0.00929691
-0.00102915
0.0169254
0.00175917
0.0246821
0.00675616
0.0324093
0.0140111
0.0400268
0.0233413
0.0473391
0.0535253
0.0346089
-0.000751608
-0.00139432
-0.00212597
-0.000236402
-0.0044674
0.00482508
-0.0066917
0.0115212
-0.00802606
0.0182597
-0.0080094
0.0246654
-0.00625071
0.0306506
-0.00244532
0.0362214
0.00350117
0.0413926
0.0458313
0.0111952
-0.000753327
-0.000640991
-0.00297292
0.00198319
-0.00625193
0.0081041
-0.00936922
0.0146385
-0.0117421
0.0206326
-0.0130731
0.0259965
-0.0131301
0.0307075
-0.0116677
0.034759
-0.00854864
0.0382736
0.0413017
-0.00401902
-0.000731732
9.07413e-05
-0.00352219
0.00477365
-0.00701356
0.0115955
-0.0102758
0.0179007
-0.0128876
0.0232445
-0.0146649
0.0277737
-0.0155433
0.031586
-0.0154889
0.0347046
-0.0144601
0.0372448
0.0394112
-0.0125696
-0.000863958
0.000954699
-0.00355676
0.00746645
-0.00679623
0.0148349
-0.00986377
0.0209682
-0.0124007
0.0257814
-0.0142541
0.0296271
-0.0154212
0.032753
-0.0160107
0.0352941
-0.0161398
0.0373739
0.0391427
-0.0158713
-0.000777089
-0.00288281
-0.00554917
-0.00823824
-0.0106266
-0.0125525
-0.0139875
-0.015016
-0.0157686
-0.0163401
0.113941
0.497445
-0.484154
0.0836625
0.310266
-0.279988
0.0487829
0.195188
-0.160309
0.0293384
0.114543
-0.0950986
0.0263387
0.0431731
-0.0401734
0.0343252
-0.0192625
0.011276
0.0495272
-0.0643898
0.0491879
0.0665648
-0.0800904
0.0630528
0.0838812
-0.0819441
0.0646277
-0.0525464
0.0412296
0.107025
0.504369
0.0756821
0.341609
0.043305
0.227565
0.0279749
0.129873
0.0278281
0.04332
0.0378842
-0.0293186
0.0539981
-0.0805036
0.0713335
-0.0974259
0.0885793
-0.0991899
-0.0633999
0.0930267
0.504093
0.0631764
0.37146
0.0357381
0.255003
0.0249328
0.140679
0.0277381
0.0405146
0.0401854
-0.0417659
0.0576132
-0.0979315
0.0754574
-0.11527
0.0927362
-0.116469
-0.0739174
0.0726882
0.495498
0.0476344
0.396513
0.0266226
0.276015
0.0201666
0.147135
0.0260722
0.034609
0.0412512
-0.0569449
0.060478
-0.117158
0.0791711
-0.133963
0.0967173
-0.134015
-0.0842466
0.0506937
0.479413
0.0312729
0.415934
0.0169952
0.290293
0.014269
0.149861
0.023129
0.0257489
0.0411117
-0.0749275
0.062579
-0.138626
0.0825316
-0.153916
0.100667
-0.15215
-0.0945555
0.0303245
0.460284
0.0160319
0.430227
0.00769078
0.298634
0.00741514
0.150136
0.0187451
0.014419
0.0395554
-0.0957379
0.063743
-0.162813
0.0854374
-0.17561
0.104568
-0.17128
-0.105055
0.012518
0.443747
0.00328291
0.439462
-0.00124761
0.303165
-0.000797139
0.149686
0.0124661
0.00115573
0.0363019
-0.119574
0.0637991
-0.19031
0.0877662
-0.199577
0.108344
-0.191859
-0.115996
-0.00137013
0.432547
-0.00571643
0.443808
-0.00969844
0.307147
-0.0109698
0.150957
0.00424822
-0.0140623
0.0314525
-0.146778
0.0628601
-0.221718
0.0895593
-0.226276
0.111984
-0.214283
-0.127641
-0.00936062
0.426036
-0.0117629
0.446211
-0.0188812
0.314265
-0.0226681
0.154744
-0.00512026
-0.0316102
0.0260648
-0.177963
0.0616624
-0.257316
0.0912218
-0.255836
0.115659
-0.23872
-0.140188
-0.0116295
-0.0153322
-0.0279285
-0.033539
-0.0131328
0.0225265
0.0618448
0.0937161
0.119843
0.00274478
0.0281927
-0.0309375
-0.000458872
0.00320365
0.000126431
-0.000585302
-0.00168015
0.00180658
-0.00501951
0.00333936
-0.00505436
3.48498e-05
-0.00331313
-0.00174123
-0.00104175
-0.00227139
0.00268584
-0.00372758
-0.00309088
0.0564255
0.12368
-0.151913
0.0233559
0.0362732
0.0119954
0.0107752
0.00227647
0.0115255
-0.00311273
0.00872857
-0.00201981
-0.00105807
0.00604163
-0.00980266
0.0180767
-0.0143064
0.0298861
-0.015537
-0.0104467
0.13551
0.257937
-0.269767
0.0681927
0.10359
0.036774
0.0421939
0.0183609
0.0299387
0.0105806
0.0165088
0.0143948
-0.00487219
0.0266431
-0.022051
0.0416588
-0.0293222
0.0563732
-0.0302513
-0.0197899
0.197607
0.389857
-0.329526
0.110901
0.190296
0.0607934
0.0923014
0.0334698
0.0572623
0.0230039
0.0269747
0.0264334
-0.00830174
0.0395521
-0.0351696
0.0558736
-0.0456436
0.0724468
-0.0468246
-0.0302607
0.237914
-0.332211
0.148222
0.0802149
0.0423786
0.0291799
0.0321541
0.0461723
0.0635815
0.0813846
0.0127132
0.000289503
-0.0130027
0.0138027
-0.00108958
0.015977
-0.00217421
0.0187216
-0.00274466
0.0220066
-0.00328499
0.024634
-0.00262742
0.0278893
-0.00325531
0.0291312
-0.0012419
0.0315891
-0.00245783
0.00065161
0.0337114
0.000323488
-0.0337454
0.0372901
-0.00466822
0.0441215
-0.0090057
0.0536549
-0.012278
0.0661038
-0.015734
0.0797987
-0.0163223
0.0968964
-0.020353
0.113074
-0.0174193
0.133311
-0.0226952
-0.01795
0.0503555
-0.000460312
-0.0495717
0.0563547
-0.0106674
0.0673512
-0.0200022
0.0831423
-0.0280691
0.103928
-0.0365198
0.128782
-0.041176
0.159001
-0.0505717
0.191579
-0.0499973
0.230378
-0.0614944
-0.0573391
0.0628191
-0.00229345
-0.0609859
0.0708064
-0.0186548
0.084932
-0.0341277
0.105275
-0.0484121
0.131454
-0.0626984
0.163938
-0.0736603
0.200419
-0.0870529
0.242345
-0.0919238
0.28691
-0.106059
-0.0999551
0.0717404
-0.0688684
0.0812403
0.0974855
0.120426
0.149298
0.184034
0.220842
0.261808
0.296457
0.0750068
-0.0727791
0.0793738
-0.0816015
0.0674642
-0.074183
0.0817255
0.0594898
-0.0760418
0.0840162
0.0510178
-0.0779908
0.0864628
0.0420193
-0.0799287
0.0889273
0.0325674
-0.0816035
0.0910554
0.0228846
-0.0822341
0.0919169
0.0133497
-0.0800203
0.0895552
0.00479651
-0.0705718
0.079125
-0.0405571
0.0453536
0.0811603
-0.0644988
-0.0894406
0.0725669
-0.0655895
0.0634787
-0.0669536
0.0539322
-0.0684443
0.0440264
-0.0700229
0.0338882
-0.0714653
0.0237098
-0.0720557
0.0138112
-0.0701216
0.00499001
-0.0617506
-0.0355671
0.0830726
-0.0551678
-0.0924036
0.0736449
-0.0561618
0.0640542
-0.0573629
0.0542949
-0.058685
0.0443472
-0.0600752
0.0342125
-0.0613306
0.0239954
-0.0618386
0.014
-0.0601263
0.00507127
-0.0528218
-0.0304958
0.0871727
-0.0455143
-0.0968262
0.0774025
-0.0463917
0.0674535
-0.0474138
0.0572782
-0.0485097
0.0468428
-0.0496398
0.0361678
-0.0506556
0.0253958
-0.0510666
0.0148718
-0.0496023
0.00546591
-0.043416
-0.0250299
0.0901396
-0.0354378
-0.100216
0.0799188
-0.0361709
0.0695016
-0.0369966
0.0588688
-0.037877
0.0480165
-0.0387875
0.036985
-0.0396241
0.025919
-0.0400007
0.015165
-0.0388482
0.00559886
-0.0338499
-0.019431
0.0931496
-0.0250628
-0.103525
0.0825983
-0.0256196
0.0718404
-0.0262387
0.0608582
-0.0268947
0.0496454
-0.0275748
0.0382387
-0.0282174
0.0267912
-0.0285531
0.0156924
-0.0277494
0.00585378
-0.0240112
-0.0135773
0.0958155
-0.0143817
-0.106497
0.0849366
-0.0147407
0.0738296
-0.0151317
0.0624734
-0.0155385
0.0508589
-0.0159603
0.0390254
-0.0163839
0.0271571
-0.0166848
0.0157508
-0.0163431
0.00585012
-0.0141106
-0.00772715
0.0981607
-0.00341403
-0.109128
0.0869774
-0.00355743
0.0755375
-0.00369181
0.0638095
-0.00381047
0.051769
-0.00391986
0.0394393
-0.00405413
0.0270218
-0.00426731
0.0151763
-0.00449765
0.00531361
-0.00424786
-0.00241354
0.100224
0.00776099
-0.111399
0.0888179
0.00784822
0.0771416
0.00798444
0.0651567
0.00817447
0.0528269
0.00840994
0.040151
0.00862179
0.0272901
0.00859354
0.0149193
0.00787315
0.00478179
0.00588966
0.00236825
0.101897
-0.113178
0.0903952
0.0786423
0.0666168
0.0543004
0.0417018
0.0289499