/*--------------------------------*- C++ -*----------------------------------*\
| =========                 |                                                 |
| \\      /  F ield         | OpenFOAM: The Open Source CFD Toolbox           |
|  \\    /   O peration     | Version:  2406                                  |
|   \\  /    A nd           | Website:  www.openfoam.com                      |
|    \\/     M anipulation  |                                                 |
\*---------------------------------------------------------------------------*/
FoamFile
{
    version     2.0;
    format      ascii;
    arch        "LSB;label=32;scalar=64";
    class       volVectorField;
    location    "1.85";
    object      U;
}
// * * * * * * * * * * * * * * * * * * * * * * * * * * * * * * * * * * * * * //

dimensions      [0 1 -1 0 0 0 0];

internalField   nonuniform List<vector> 
1800
(
(-0.0205542 0.00983965 0)
(-0.0377009 0.0149811 1.48556e-20)
(-0.0469491 0.00747051 1.75724e-20)
(-0.0449341 0.000940471 5.93854e-20)
(-0.0390413 -0.00352059 9.51262e-20)
(-0.0207624 -0.00780437 2.34167e-20)
(0.0290596 -0.00540574 6.05845e-21)
(0.107187 -3.64886e-05 -7.40622e-20)
(0.218013 0.0183618 0)
(0.31426 0.0170144 5.38166e-20)
(-0.0349953 0.0200147 4.91788e-21)
(-0.0405473 0.0242995 7.76948e-21)
(-0.0384493 0.0209398 3.33666e-21)
(-0.0299464 0.0152136 -2.59985e-20)
(0.00582462 0.009403 1.56719e-20)
(0.0896685 -0.00522919 -6.36779e-20)
(0.220442 -0.0205133 2.90571e-20)
(0.387943 -0.0322109 1.35697e-19)
(0.599259 -0.018742 6.14973e-20)
(0.726111 -0.0294875 4.44033e-20)
(-0.0358997 0.0261288 1.42253e-20)
(-0.0362795 0.0264223 -4.88079e-20)
(-0.0314038 0.0219985 -5.16712e-20)
(0.0201196 0.0175892 1.06582e-20)
(0.132549 0.00170763 -1.57411e-20)
(0.307083 -0.01477 1.68057e-20)
(0.529277 -0.0276874 -3.02224e-20)
(0.777887 -0.0360288 -1.79483e-19)
(1.05167 -0.0287193 7.45042e-20)
(1.24275 -0.03131 8.31042e-20)
(-0.0254406 0.0209329 3.4783e-20)
(-0.0304871 0.0355748 9.2902e-20)
(0.0181337 0.0221188 -4.82144e-20)
(0.150177 0.00767113 -6.36517e-23)
(0.363421 -0.00811993 7.40604e-20)
(0.639079 -0.0186678 -2.16527e-20)
(0.944057 -0.0203849 -8.30212e-20)
(1.24498 -0.0131528 -7.15334e-20)
(1.52188 0.00123642 -6.50282e-21)
(1.73605 0.0164542 7.83782e-20)
(-0.0105108 0.00768875 -2.14561e-21)
(0.0070023 0.00781669 4.8636e-20)
(0.128514 0.00086693 2.10573e-20)
(0.369281 -0.0102547 -5.93601e-20)
(0.698777 -0.014157 -2.91691e-20)
(1.0608 -0.00647148 4.79122e-20)
(1.40234 0.0105038 4.64776e-20)
(1.69094 0.0318765 1.02158e-19)
(1.91422 0.0538493 -2.2591e-19)
(2.07117 0.0708913 -2.05643e-19)
(-0.0022711 0.00195475 3.52065e-22)
(0.0772664 -0.0112891 1.29609e-19)
(0.321157 -0.0176258 9.65857e-20)
(0.696138 -0.0130185 -1.17327e-19)
(1.11631 0.00684198 1.12951e-19)
(1.49798 0.0357101 -8.66683e-21)
(1.79698 0.0651756 1.2855e-19)
(2.00578 0.0896632 2.19729e-19)
(2.13876 0.10671 -3.17384e-19)
(2.21318 0.116593 -2.4513e-19)
(0.0162265 -0.000874485 -4.14575e-20)
(0.213113 -0.0249123 -2.70489e-19)
(0.607745 -0.0150551 2.94249e-20)
(1.08911 0.017752 3.37545e-19)
(1.52189 0.0598621 -1.95763e-20)
(1.84039 0.0977429 -2.49012e-19)
(2.04394 0.125274 -1.69852e-19)
(2.16244 0.142141 4.77168e-19)
(2.22862 0.150136 5.50752e-19)
(2.26786 0.153559 5.04118e-20)
(0.0641556 -0.00372824 4.5896e-20)
(0.417214 -0.0236326 2.99124e-20)
(0.951553 0.0197347 -1.54965e-19)
(1.46059 0.0794304 8.12248e-20)
(1.82541 0.129461 -4.52586e-21)
(2.04505 0.162112 -8.25047e-19)
(2.16605 0.180315 -1.49972e-21)
(2.23317 0.189235 5.97201e-19)
(2.27209 0.193019 -3.63839e-19)
(2.29406 0.193073 -3.60127e-19)
(0.140713 -0.00261851 1.83063e-19)
(0.672466 0.00360977 1.65682e-19)
(1.28454 0.086382 -3.95905e-19)
(1.74292 0.1592 -9.48135e-20)
(2.01357 0.204354 4.95796e-21)
(2.15551 0.227799 3.15727e-19)
(2.22875 0.239689 -5.85904e-19)
(2.26752 0.245559 -2.97401e-19)
(2.29036 0.246249 6.34134e-19)
(2.30623 0.244435 1.3648e-19)
(0.243546 0.00936105 4.47012e-21)
(0.938429 0.0646237 4.40503e-19)
(1.55169 0.176249 -3.74323e-19)
(1.92978 0.248713 -1.74799e-19)
(2.12195 0.284629 1.89155e-19)
(2.21136 0.300053 -1.98647e-19)
(2.25431 0.307358 3.73032e-19)
(2.28095 0.308652 2.36525e-20)
(2.2992 0.307577 -2.58345e-19)
(2.30362 0.301476 -8.12183e-20)
(-0.00184568 0.0252377 1.88713e-20)
(-0.00921826 0.129633 -4.86402e-20)
(-0.0221677 0.231876 -4.29324e-20)
(-0.0355045 0.30911 7.29217e-20)
(-0.0474273 0.363993 -1.01441e-20)
(-0.0572558 0.403843 -1.0101e-20)
(-0.0648213 0.434132 -2.58272e-21)
(-0.0704806 0.45853 6.43196e-21)
(-0.0746118 0.479539 -1.7613e-23)
(-0.0763389 0.498367 1.28915e-20)
(-0.00237333 0.0263182 -1.69976e-20)
(-0.0141317 0.136574 3.31911e-23)
(-0.0277565 0.245405 2.67007e-20)
(-0.0411483 0.326133 7.85146e-20)
(-0.0528795 0.38127 5.54554e-21)
(-0.0625839 0.419377 3.19842e-20)
(-0.0703269 0.446984 -8.06566e-21)
(-0.0763377 0.468212 0)
(-0.0808499 0.485714 7.76711e-21)
(-0.0835494 0.501288 -2.5903e-20)
(-0.00214956 0.0205454 7.56535e-23)
(-0.0173606 0.127079 8.07264e-20)
(-0.0308302 0.241798 1.09593e-19)
(-0.0432726 0.32904 -5.49841e-20)
(-0.0534473 0.387861 -2.23799e-20)
(-0.0611871 0.427019 3.58195e-20)
(-0.0667995 0.453999 7.11037e-22)
(-0.0706102 0.473581 2.14015e-21)
(-0.072915 0.488762 1.24785e-20)
(-0.0735468 0.501761 4.63102e-20)
(-0.000850081 0.00926535 -1.72906e-21)
(-0.0168907 0.0998554 8.9075e-20)
(-0.0291717 0.217025 -3.35348e-20)
(-0.0397677 0.312943 -1.35255e-19)
(-0.0472135 0.379183 2.12685e-20)
(-0.051513 0.422646 -1.86596e-20)
(-0.0532851 0.451344 1.25023e-20)
(-0.05303 0.470905 0)
(-0.0510505 0.484862 -3.43669e-22)
(-0.0467396 0.495796 6.74133e-20)
(0.000637152 -0.000734059 3.84638e-20)
(-0.0113021 0.058039 -1.64554e-20)
(-0.0220583 0.16825 -7.20697e-20)
(-0.0308375 0.271827 4.56026e-20)
(-0.0352204 0.348817 -1.31009e-20)
(-0.0353106 0.400772 -2.37221e-20)
(-0.0321337 0.434567 3.72686e-20)
(-0.026462 0.45628 -4.34352e-20)
(-0.0185495 0.470057 3.30488e-20)
(-0.00693109 0.478827 2.43942e-20)
(0.00380725 -0.0053809 2.44308e-20)
(-0.000664271 0.0159329 -1.33683e-20)
(-0.00966358 0.100709 5.2421e-20)
(-0.0180219 0.202151 -3.33252e-20)
(-0.0208496 0.28867 -1.32099e-19)
(-0.0176618 0.352256 1.28334e-19)
(-0.00964226 0.395376 3.54253e-21)
(0.00202793 0.422853 -3.06616e-20)
(0.0169878 0.438746 1.34087e-19)
(0.0374647 0.445655 4.61067e-21)
(0.0101159 -0.0131517 -1.68555e-20)
(0.0128971 -0.00879176 4.17034e-20)
(0.00373345 0.0356351 1.50994e-20)
(-0.0048904 0.115801 -2.26725e-19)
(-0.00860592 0.199383 4.0021e-21)
(-0.00538345 0.269464 1.94331e-19)
(0.00453242 0.321765 1.19303e-19)
(0.0202334 0.357483 1.30489e-19)
(0.0413584 0.378653 -2.3968e-19)
(0.0702772 0.384997 -1.96193e-19)
(0.0142575 -0.0192434 -4.12192e-22)
(0.0141305 -0.0192591 -8.10311e-21)
(0.00939191 -0.00827701 -4.93858e-20)
(0.00330186 0.0327745 1.09105e-19)
(-0.00688204 0.0954697 2.05345e-19)
(-0.00803718 0.159687 -9.0599e-20)
(-0.000971189 0.21293 7.26458e-20)
(0.014493 0.252441 -2.42728e-20)
(0.0389661 0.277311 -2.68261e-19)
(0.0741908 0.281536 1.21952e-20)
(0.00680872 -0.0164497 3.66079e-21)
(0.00484713 -0.021305 -5.2614e-21)
(-0.0048529 -0.0170466 1.27501e-20)
(-0.0152197 -0.00563348 -1.60583e-20)
(-0.0224957 0.0129314 -2.44697e-21)
(-0.0269256 0.0495994 -1.69007e-19)
(-0.0246676 0.0888549 -5.73219e-20)
(-0.0108144 0.120545 -1.23029e-19)
(0.0171452 0.139653 3.27273e-21)
(0.060154 0.138002 4.17666e-19)
(-0.00335412 -0.00341215 4.3e-21)
(-0.0118917 -0.0112788 2.56673e-21)
(-0.0274522 -0.0167893 4.13771e-20)
(-0.0409761 -0.014125 1.15508e-19)
(-0.046965 -0.00908162 -9.43897e-20)
(-0.0530788 -0.00321219 -2.63809e-19)
(-0.0457738 0.011961 -7.2973e-20)
(-0.0224529 0.0269488 2.26111e-19)
(0.019287 0.0363224 2.92095e-19)
(0.0823894 0.0355408 3.19196e-19)
(-0.0679601 0.580954 9.50188e-20)
(-0.0561198 0.629137 -2.5928e-19)
(-0.132432 0.464275 -5.38483e-19)
(-0.219905 0.226647 1.1312e-18)
(-0.151335 -0.0886593 -7.42094e-19)
(0.0191658 -0.323819 2.29531e-20)
(0.234751 -0.441268 1.37033e-19)
(0.419667 -0.423223 3.73731e-20)
(0.558486 -0.387384 -4.14647e-20)
(0.698613 -0.224137 -5.0812e-20)
(-0.0826062 0.574681 1.03139e-19)
(-0.0668665 0.640105 -9.45013e-21)
(-0.166709 0.490808 6.98825e-20)
(-0.22276 0.231434 -5.53107e-19)
(-0.122139 -0.12435 -2.60166e-19)
(0.0762807 -0.38021 5.77848e-19)
(0.30658 -0.499981 -9.3078e-20)
(0.480749 -0.468701 1.05061e-20)
(0.609667 -0.425031 -6.55277e-20)
(0.738596 -0.245406 8.8727e-20)
(-0.0681292 0.565208 -3.22829e-19)
(-0.0523539 0.653031 1.97897e-19)
(-0.149811 0.517264 8.34067e-20)
(-0.174493 0.233252 -9.37384e-19)
(-0.0412053 -0.164107 6.71492e-19)
(0.184326 -0.439985 1.82727e-21)
(0.429482 -0.558159 -7.94701e-22)
(0.584082 -0.509973 -1.15943e-20)
(0.69364 -0.457946 1.61991e-20)
(0.794279 -0.264789 2.41443e-21)
(-0.0222776 0.550926 -3.03177e-19)
(-0.00612281 0.665929 4.71917e-22)
(-0.0787938 0.538462 1.14539e-19)
(-0.0816073 0.230146 5.60117e-19)
(0.090474 -0.20607 -1.62082e-19)
(0.333823 -0.503129 -9.52015e-20)
(0.59329 -0.616162 9.22246e-20)
(0.730788 -0.545961 0)
(0.819663 -0.482651 0)
(0.872892 -0.279891 -2.90947e-22)
(0.0500411 0.526124 9.25976e-20)
(0.0810993 0.673641 1.65292e-19)
(0.0172333 0.561393 8.6034e-21)
(0.0645543 0.224174 -3.59161e-19)
(0.269811 -0.247589 -2.10981e-19)
(0.517383 -0.567844 -5.80918e-19)
(0.777763 -0.675212 2.21859e-20)
(0.904176 -0.579062 1.26129e-20)
(0.984836 -0.497913 -2.81959e-20)
(0.97973 -0.28852 -2.79192e-22)
(0.14153 0.484984 1.52926e-19)
(0.202575 0.672794 1.09373e-19)
(0.15985 0.574865 -1.23872e-19)
(0.254504 0.216924 -4.57423e-21)
(0.499757 -0.286784 6.2467e-19)
(0.748059 -0.628513 -2.26664e-19)
(0.981857 -0.731781 -1.23046e-19)
(1.08398 -0.612016 2.06795e-21)
(1.17041 -0.506193 1.50922e-21)
(1.11311 -0.29016 -1.19922e-20)
(0.239817 0.422981 -3.28757e-20)
(0.3511 0.662282 -2.55584e-20)
(0.346526 0.581634 -9.27802e-20)
(0.477782 0.209726 5.16825e-20)
(0.773376 -0.323395 -4.58039e-20)
(1.02779 -0.680137 3.87012e-19)
(1.22056 -0.777767 -5.95514e-20)
(1.26886 -0.641907 -2.65437e-20)
(1.35428 -0.5105 1.74419e-20)
(1.26225 -0.286365 -3.42782e-21)
(0.322273 0.330736 -1.50685e-19)
(0.51005 0.627824 -1.47559e-18)
(0.553568 0.581587 -2.09116e-19)
(0.722447 0.203857 -2.47787e-20)
(1.06023 -0.356882 -3.19996e-19)
(1.31915 -0.723407 -4.56859e-19)
(1.48307 -0.810339 2.57462e-19)
(1.46786 -0.662747 -1.15765e-19)
(1.52663 -0.510489 6.36748e-21)
(1.4123 -0.278931 -1.89753e-22)
(0.348913 0.203881 -3.81447e-19)
(0.689913 0.584531 -6.13757e-19)
(0.781242 0.578321 7.48193e-19)
(0.974572 0.192605 -8.89294e-20)
(1.33853 -0.382844 -2.18669e-19)
(1.58955 -0.75846 -1.32329e-19)
(1.73326 -0.832922 -3.11001e-19)
(1.6746 -0.672676 3.74264e-20)
(1.68816 -0.504027 3.78949e-20)
(1.55172 -0.268389 2.06457e-20)
(0.353748 0.0164151 -1.31132e-19)
(0.815244 0.470738 1.53836e-18)
(0.95088 0.564153 7.55266e-19)
(1.19838 0.209238 -2.21101e-19)
(1.60779 -0.394839 -9.63399e-20)
(1.84625 -0.782828 9.26297e-20)
(1.9562 -0.847442 -4.73307e-19)
(1.86977 -0.673525 -6.34671e-20)
(1.83818 -0.490128 -5.71413e-21)
(1.67433 -0.254629 -3.11128e-20)
(0.636266 -0.0934119 1.14386e-19)
(1.08466 0.337724 2.19598e-19)
(1.22758 0.513809 -4.77985e-20)
(1.53807 0.157903 3.10766e-19)
(1.99076 -0.445164 -1.39494e-19)
(2.19431 -0.811762 -1.04407e-19)
(2.23013 -0.855216 -1.12618e-19)
(2.09369 -0.663148 3.97046e-20)
(2.00715 -0.460694 -1.56778e-19)
(1.80425 -0.23253 2.16486e-20)
(1.45482 0.00783244 -1.10281e-19)
(1.46365 0.260539 -7.43262e-20)
(1.60991 0.397299 -3.26064e-19)
(2.08525 -0.0166912 1.12231e-19)
(2.52804 -0.584077 -7.23746e-19)
(2.62968 -0.863788 -4.12194e-19)
(2.5287 -0.827254 -7.39474e-20)
(2.29103 -0.599935 -3.22718e-20)
(2.14349 -0.384575 1.86866e-19)
(1.89958 -0.185958 3.8201e-20)
(2.03411 0.0581026 -9.85625e-21)
(1.93082 0.252871 4.1602e-20)
(2.12033 0.277508 -9.44792e-20)
(2.58991 -0.150527 -2.08107e-35)
(2.88916 -0.643954 -2.54106e-20)
(2.89786 -0.837101 1.24169e-33)
(2.72791 -0.74294 8.78857e-20)
(2.41204 -0.511459 3.14694e-33)
(2.20614 -0.303753 -8.98179e-21)
(1.93343 -0.138764 1.36415e-20)
(2.29737 0.0753056 2.593e-21)
(2.30034 0.219913 7.34205e-21)
(2.57074 0.166058 3.08078e-19)
(2.93341 -0.251773 0)
(3.13296 -0.688641 5.33016e-19)
(3.07673 -0.821346 1.95077e-19)
(2.85375 -0.666144 -1.262e-19)
(2.48742 -0.408674 6.11907e-33)
(2.22344 -0.203318 -1.54323e-19)
(1.91974 -0.0836822 -1.86267e-20)
(2.45202 0.0580463 2.09104e-20)
(2.55014 0.14078 -1.38314e-20)
(2.8255 0.053933 0)
(3.12082 -0.329716 0)
(3.25524 -0.697568 0)
(3.12309 -0.750178 0)
(2.79881 -0.540971 1.52751e-20)
(2.39685 -0.282473 6.14611e-33)
(2.13212 -0.0935264 -1.16159e-20)
(1.84702 -0.0247923 -2.84003e-33)
(2.57716 0.0192965 1.70363e-20)
(2.69674 0.0545039 0)
(2.92022 -0.0386684 0)
(3.20612 -0.391782 0)
(3.2691 -0.696332 0)
(2.98756 -0.658868 0)
(2.57904 -0.401795 -2.34431e-20)
(2.15281 -0.156072 2.10616e-19)
(1.90768 0.00188846 -1.32991e-20)
(1.69224 0.0239177 2.59707e-21)
(2.64715 -0.0184948 0)
(2.72141 -0.00978169 8.14649e-20)
(2.93879 -0.122558 2.14594e-19)
(3.19862 -0.440938 0)
(3.02357 -0.626598 2.25434e-19)
(2.53025 -0.500966 3.78725e-20)
(2.07404 -0.236032 -9.81879e-20)
(1.71561 -0.0343676 -8.79178e-20)
(1.5531 0.0744935 9.05253e-20)
(1.45149 0.0543152 -4.37599e-20)
(2.60768 -0.0487729 2.16991e-20)
(2.63177 -0.0675311 -1.37195e-20)
(2.87054 -0.195623 2.13585e-20)
(2.87932 -0.415014 -6.59793e-35)
(2.32913 -0.45664 -1.91915e-20)
(1.66629 -0.281174 4.61374e-34)
(1.25831 -0.0773931 -1.67357e-20)
(1.0753 0.04383 -8.99934e-20)
(1.06486 0.098187 -1.42768e-20)
(1.101 0.0573869 3.35211e-20)
(2.28099 -0.0514635 0)
(2.2816 -0.120951 -7.04944e-20)
(2.3341 -0.230039 -6.04188e-20)
(1.86157 -0.219187 0)
(1.06981 -0.138564 -5.98538e-20)
(0.576736 -0.0699301 -5.16074e-20)
(0.404153 -0.0132149 -5.20271e-20)
(0.410913 0.0350451 -2.06926e-20)
(0.515196 0.0569067 -7.60959e-21)
(0.633454 0.032259 -3.30225e-20)
(1.22698 -0.0506559 5.6934e-21)
(1.01623 -0.0870743 0)
(0.642547 -0.0270012 0)
(0.36003 0.0141514 0)
(0.152177 -0.00587546 0)
(0.00565151 -0.0168225 0)
(-0.0779685 -0.0119256 -1.50406e-20)
(-0.0655155 0.00260296 1.14562e-34)
(0.00729708 0.0104092 -1.47543e-20)
(0.102302 0.00750572 -3.3502e-20)
(2.28447 0.27836 3.5504e-19)
(2.3169 0.237618 1.42882e-19)
(2.3224 0.194228 2.98111e-19)
(2.3151 0.160269 -3.3854e-19)
(2.29164 0.120796 1.03756e-19)
(2.2578 0.108142 6.25639e-20)
(2.14248 0.0590621 -2.1728e-20)
(1.89732 0.0379663 1.26672e-20)
(1.59724 -0.022331 8.60099e-20)
(0.911524 -0.065129 -4.32683e-20)
(2.27986 0.240302 -1.67219e-19)
(2.31119 0.208445 3.68747e-20)
(2.33493 0.180119 1.10832e-19)
(2.34235 0.158055 1.08581e-19)
(2.34507 0.127623 -2.04302e-19)
(2.31222 0.111623 1.244e-19)
(2.32737 0.0773529 1.08483e-20)
(2.15993 0.0461631 -1.27517e-20)
(2.15585 0.0330474 -2.05832e-21)
(1.7461 -0.0273081 4.50724e-20)
(2.31609 0.208291 2.36654e-20)
(2.33814 0.183423 -1.09091e-19)
(2.36349 0.158409 -1.42223e-19)
(2.3639 0.141649 3.09175e-19)
(2.38745 0.123053 -2.13671e-20)
(2.34438 0.102744 4.24697e-20)
(2.39049 0.0966906 -8.14473e-20)
(2.27839 0.0610933 -7.23367e-20)
(2.33053 0.0732417 -4.23979e-20)
(2.13388 0.024928 -1.85475e-20)
(2.3644 0.178968 3.99658e-20)
(2.38159 0.157357 -1.31818e-19)
(2.41055 0.139906 3.05584e-20)
(2.40629 0.120658 -1.02092e-19)
(2.43495 0.112613 1.37794e-19)
(2.40289 0.0915551 -5.73829e-20)
(2.43726 0.0944297 1.46583e-20)
(2.37591 0.0693457 -1.46083e-20)
(2.40556 0.081454 1.41014e-21)
(2.31655 0.0577187 2.3052e-20)
(2.39824 0.149415 7.71539e-20)
(2.41852 0.129686 -2.03303e-19)
(2.44953 0.11875 -1.63116e-20)
(2.45479 0.100447 -1.67142e-20)
(2.48148 0.0954915 -6.36427e-21)
(2.47042 0.0780791 -1.04049e-21)
(2.49371 0.0785054 3.34423e-20)
(2.46638 0.0643494 -2.09547e-20)
(2.48363 0.0678485 -3.18036e-20)
(2.44037 0.0628162 -4.02055e-20)
(2.40498 0.117347 1.38053e-19)
(2.43024 0.101157 2.24583e-20)
(2.46293 0.0928619 -1.37056e-19)
(2.47991 0.0789179 7.95192e-20)
(2.50752 0.0731131 5.99644e-20)
(2.51494 0.0615714 -3.91383e-20)
(2.53755 0.0567212 5.50794e-20)
(2.53388 0.0496674 1.07191e-20)
(2.55307 0.0440701 -5.65086e-20)
(2.53786 0.0472545 -6.9338e-20)
(2.37095 0.0829666 1.84819e-20)
(2.3999 0.0708942 4.02035e-20)
(2.43433 0.0636848 -5.34392e-20)
(2.45957 0.0541587 -3.13156e-20)
(2.49184 0.0475483 5.76483e-20)
(2.51226 0.0401453 2.57241e-20)
(2.54107 0.0328496 5.03829e-20)
(2.5561 0.0284148 4.05244e-20)
(2.58063 0.0187172 1.00813e-20)
(2.59043 0.0216448 3.08538e-20)
(2.25628 0.0517043 2.25859e-20)
(2.29182 0.042952 2.20675e-22)
(2.32158 0.0369139 -6.52391e-20)
(2.35924 0.030958 -5.44666e-20)
(2.38827 0.0242434 3.21934e-20)
(2.42777 0.0203808 -2.40642e-20)
(2.45443 0.0116634 -1.95965e-20)
(2.49585 0.00946885 5.74563e-20)
(2.51786 -0.00304206 -4.42774e-20)
(2.56212 -0.00281503 -4.89279e-20)
(1.94821 0.0131935 5.34218e-20)
(1.99425 0.00932378 -2.78654e-20)
(2.00393 0.00602068 -2.63752e-20)
(2.06199 0.00379283 2.73252e-20)
(2.06748 -0.000187484 -1.64776e-20)
(2.1369 -0.00155144 -4.87861e-21)
(2.13727 -0.00699356 -1.98822e-20)
(2.21623 -0.00900482 1.25407e-20)
(2.21121 -0.0170341 1.23037e-20)
(2.29706 -0.0214962 -1.37753e-20)
(1.13229 -0.00166744 0)
(1.15271 -0.00256092 2.2652e-21)
(1.14605 -0.00388898 -3.50161e-20)
(1.17643 -0.00389594 -5.27692e-20)
(1.16618 -0.00652801 2.84385e-20)
(1.20744 -0.0050376 1.10619e-19)
(1.19302 -0.0107587 -6.56957e-21)
(1.24243 -0.00779753 -5.18862e-20)
(1.22339 -0.0178851 -5.34802e-21)
(1.27588 -0.0143667 1.69902e-21)
(1.38937 0.815219 -4.55525e-20)
(1.37752 0.858937 -9.5282e-20)
(1.37909 0.905716 -6.3404e-19)
(1.38445 0.958441 1.95001e-19)
(1.38864 1.01488 1.01526e-18)
(1.38546 1.07019 1.41009e-19)
(1.36184 1.10897 -7.90974e-20)
(1.29308 1.10429 -3.30851e-19)
(1.1064 0.989676 -3.34196e-19)
(0.590979 0.549507 -4.6136e-20)
(1.53325 0.787981 -3.62067e-19)
(1.52756 0.830443 1.05987e-18)
(1.5272 0.875303 4.83395e-19)
(1.53224 0.92647 -7.17586e-19)
(1.53928 0.982202 2.43872e-19)
(1.53962 1.03665 2.37216e-19)
(1.51652 1.07278 7.94125e-19)
(1.44188 1.06544 -1.17345e-18)
(1.2331 0.949068 -5.08218e-20)
(0.651089 0.518082 2.12742e-19)
(1.66655 0.758314 1.05023e-19)
(1.66874 0.80017 8.40729e-19)
(1.67058 0.843052 1.63862e-20)
(1.67632 0.890269 -4.27304e-19)
(1.6848 0.941522 1.26973e-19)
(1.68645 0.990994 -6.77601e-20)
(1.66161 1.02071 -4.67505e-20)
(1.57873 1.00882 -4.06487e-19)
(1.3445 0.889394 1.79718e-20)
(0.698176 0.473665 -2.17058e-19)
(1.78674 0.717298 -4.27618e-19)
(1.79529 0.756829 3.94166e-19)
(1.80202 0.796957 -6.09081e-19)
(1.81155 0.840185 -2.28947e-19)
(1.82298 0.886318 1.35822e-18)
(1.82529 0.92953 -8.6739e-19)
(1.79681 0.951729 -9.92776e-19)
(1.70442 0.934632 4.3008e-19)
(1.43995 0.813112 -1.23279e-19)
(0.729598 0.419971 -6.48869e-20)
(1.89575 0.669468 5.36601e-19)
(1.90909 0.706651 4.33588e-19)
(1.91978 0.743495 -2.0679e-19)
(1.93098 0.781982 8.1745e-19)
(1.94237 0.82243 1.67098e-19)
(1.94254 0.857622 -3.75312e-19)
(1.90784 0.868884 5.60748e-19)
(1.80362 0.845585 -6.69572e-19)
(1.50264 0.722109 -7.61864e-19)
(0.736462 0.356578 -2.2109e-21)
(1.99408 0.609428 7.15143e-19)
(2.01023 0.641838 9.02381e-19)
(2.02475 0.673972 -9.27444e-19)
(2.04029 0.70734 -9.58842e-19)
(2.05317 0.740582 2.36658e-19)
(2.04734 0.766345 -7.09003e-19)
(2.00055 0.769383 -4.7332e-19)
(1.87909 0.74128 4.10108e-19)
(1.53516 0.615703 6.80759e-20)
(0.718223 0.285829 -1.56658e-20)
(2.07973 0.549765 6.65601e-19)
(2.09708 0.578937 -8.97067e-19)
(2.11247 0.607134 -7.97535e-19)
(2.12546 0.634974 6.28546e-19)
(2.13294 0.661685 -5.6549e-19)
(2.11822 0.673325 1.69799e-18)
(2.06011 0.667487 -2.58421e-19)
(1.91615 0.632974 -1.38408e-18)
(1.52277 0.501386 6.06728e-19)
(0.668171 0.212959 3.16513e-20)
(2.15815 0.482207 -4.37628e-19)
(2.17358 0.505495 -6.27581e-19)
(2.18661 0.527845 -8.7523e-19)
(2.20003 0.550001 3.06101e-20)
(2.20195 0.565591 2.84375e-19)
(2.16408 0.567357 2.9561e-19)
(2.09365 0.556022 7.08873e-19)
(1.91141 0.514432 -3.76639e-19)
(1.46184 0.380909 1.92523e-20)
(0.58849 0.143074 6.34821e-20)
(2.21783 0.417296 2.20856e-19)
(2.23162 0.436879 -7.42951e-20)
(2.24598 0.455899 4.32012e-19)
(2.25046 0.470146 1.15716e-18)
(2.22375 0.469914 -4.14881e-19)
(2.18091 0.464836 -1.45801e-18)
(2.0906 0.448382 1.06104e-18)
(1.85705 0.395603 9.62541e-19)
(1.34611 0.263076 -4.86896e-19)
(0.483216 0.0828036 -7.80723e-21)
(2.26758 0.357585 -4.53741e-19)
(2.28035 0.372644 -4.92484e-21)
(2.28141 0.3819 6.1438e-19)
(2.2609 0.383289 6.23505e-19)
(2.22764 0.379943 4.46006e-19)
(2.17251 0.371617 -7.17349e-19)
(2.04073 0.345794 3.37817e-20)
(1.74052 0.281477 -3.64225e-19)
(1.17033 0.154802 -5.5046e-19)
(0.362846 0.0374649 -1.35312e-20)
(0.513333 0.288656 4.1457e-20)
(0.475561 0.29554 -2.16605e-19)
(0.433058 0.303513 -3.93737e-20)
(0.386522 0.312714 1.65929e-19)
(0.335813 0.322966 -2.78838e-20)
(0.28029 0.332953 -2.02397e-20)
(0.219185 0.337905 -6.5773e-20)
(0.150719 0.325662 -2.80674e-20)
(0.077242 0.273549 1.0865e-19)
(0.0290439 0.142765 5.28671e-21)
(0.552368 0.387869 1.17885e-20)
(0.51507 0.400595 3.86445e-20)
(0.473704 0.414841 1.00015e-20)
(0.428643 0.430747 1.10402e-20)
(0.379541 0.448107 6.38596e-20)
(0.325539 0.465386 3.11191e-20)
(0.265287 0.476877 5.82432e-20)
(0.196163 0.467549 -7.07997e-20)
(0.116924 0.406187 7.65179e-20)
(0.0500531 0.224491 -3.69854e-22)
(0.606696 0.481475 -1.21269e-19)
(0.570469 0.499771 -2.41737e-20)
(0.530993 0.51985 3.08466e-20)
(0.48821 0.542009 -6.80969e-20)
(0.441541 0.566154 -1.23844e-20)
(0.389903 0.590703 1.23012e-19)
(0.33128 0.609165 -9.01653e-21)
(0.261978 0.603782 -2.53934e-20)
(0.176024 0.534975 -3.43799e-22)
(0.0830384 0.303958 1.93754e-20)
(0.67404 0.569806 -8.71619e-20)
(0.639403 0.593913 -1.56746e-19)
(0.602701 0.619785 -2.04473e-20)
(0.563118 0.647913 2.56109e-20)
(0.519696 0.6783 -1.64804e-19)
(0.471167 0.709239 -7.84732e-20)
(0.414917 0.733431 -1.94227e-19)
(0.345993 0.730676 6.7704e-20)
(0.25261 0.654218 -4.91109e-20)
(0.126796 0.376686 -9.21312e-20)
(0.754351 0.646665 9.3886e-20)
(0.722228 0.675775 -6.90875e-20)
(0.689527 0.706682 -2.25068e-20)
(0.654672 0.740284 -4.11695e-20)
(0.616204 0.776682 -5.83385e-20)
(0.572391 0.813957 6.87164e-20)
(0.51966 0.843969 6.38439e-20)
(0.451272 0.84422 -1.28748e-19)
(0.34857 0.761464 -2.44375e-19)
(0.18156 0.441308 5.43322e-20)
(0.843896 0.716872 2.77351e-20)
(0.814273 0.750799 2.35383e-20)
(0.785672 0.785797 8.48846e-20)
(0.755649 0.823581 3.83095e-20)
(0.722499 0.864664 1.87474e-19)
(0.684261 0.906898 -1.64555e-19)
(0.636298 0.941053 -1.24496e-19)
(0.569459 0.942571 -3.69017e-20)
(0.457043 0.853073 9.61297e-20)
(0.243369 0.494723 1.52784e-19)
(0.942045 0.769496 -4.94489e-20)
(0.917006 0.807441 2.56732e-20)
(0.894767 0.846061 1.95877e-19)
(0.871524 0.887593 -1.04069e-19)
(0.844936 0.932829 -3.42655e-19)
(0.812745 0.979546 1.91368e-19)
(0.769461 1.01749 5.73534e-19)
(0.703475 1.02016 1.58811e-19)
(0.578829 0.92547 -3.20359e-20)
(0.311574 0.535785 2.21728e-19)
(1.0433 0.81556 -2.06903e-19)
(1.02057 0.855644 -6.43273e-20)
(1.00343 0.895797 2.12402e-19)
(0.987275 0.939537 -1.11852e-19)
(0.968967 0.987627 7.79368e-20)
(0.945113 1.03715 3.78543e-19)
(0.908471 1.07658 -4.14921e-19)
(0.844374 1.07827 -3.91574e-19)
(0.707479 0.97751 3.3525e-19)
(0.382886 0.562656 -2.85054e-21)
(1.15264 0.836726 -1.71666e-20)
(1.13892 0.879589 4.2101e-20)
(1.12958 0.920757 -1.97904e-19)
(1.11964 0.965762 -6.70746e-20)
(1.10712 1.01627 4.54022e-19)
(1.08907 1.06877 1.35569e-19)
(1.05682 1.10976 -1.19278e-19)
(0.99222 1.11032 0)
(0.840627 1.0043 -2.21791e-19)
(0.454852 0.572979 -1.14475e-19)
(1.24306 0.844115 0)
(1.2378 0.888246 0)
(1.24261 0.931786 5.87008e-19)
(1.24624 0.978507 1.33315e-19)
(1.24515 1.02979 -2.09945e-19)
(1.23615 1.08235 4.00987e-19)
(1.2095 1.12192 -2.91998e-19)
(1.14414 1.11988 -8.13432e-19)
(0.976387 1.00921 4.19478e-19)
(0.525862 0.568925 2.17947e-19)
(0.997802 0.00449851 -2.11792e-20)
(1.00751 -0.0129635 -9.93052e-21)
(1.03377 0.0286965 8.58719e-21)
(1.04584 0.121081 3.92313e-21)
(1.03602 0.188186 9.4577e-21)
(1.00315 0.229821 1.90407e-20)
(0.966471 0.230674 -1.00187e-20)
(0.899886 0.233695 -1.04995e-20)
(0.824814 0.243454 -7.42195e-20)
(0.679538 0.254466 4.50117e-20)
(0.99738 0.00354487 -4.6326e-22)
(1.00869 -0.017479 8.23992e-21)
(1.03372 0.0232009 1.00307e-22)
(1.04436 0.1221 7.62355e-21)
(1.03459 0.194721 7.43674e-21)
(1.00193 0.239911 -2.94225e-20)
(0.968138 0.245232 -1.31114e-20)
(0.907247 0.253453 5.32416e-22)
(0.837898 0.277172 1.89286e-19)
(0.713535 0.319794 5.04276e-21)
(0.996565 0.00243872 4.89728e-22)
(1.00989 -0.0219435 1.66733e-20)
(1.03417 0.018518 -1.17107e-20)
(1.04374 0.12408 -8.05222e-22)
(1.03439 0.201711 -8.4586e-21)
(1.00168 0.25016 1.09537e-21)
(0.969642 0.25845 1.64465e-20)
(0.916335 0.272037 -1.64615e-20)
(0.851253 0.30779 1.09159e-19)
(0.758037 0.381625 -2.43416e-19)
(0.995511 0.00123631 5.24875e-21)
(1.01103 -0.0264713 -7.46945e-22)
(1.03512 0.0145494 -1.28966e-20)
(1.04395 0.12702 -2.00457e-20)
(1.03517 0.20917 2.01676e-20)
(1.00221 0.260755 2.17991e-20)
(0.971415 0.270208 -2.22084e-20)
(0.927193 0.289735 8.47367e-20)
(0.865264 0.334643 -1.0002e-19)
(0.812164 0.439038 -2.65681e-19)
(0.994327 -4.77359e-05 2.77026e-22)
(1.01209 -0.0311125 -2.06436e-20)
(1.0366 0.0112082 5.5263e-21)
(1.04495 0.130939 2.97071e-20)
(1.03671 0.217126 8.18087e-21)
(1.00348 0.271706 4.76199e-20)
(0.973951 0.280337 2.60407e-20)
(0.939864 0.30685 7.29514e-20)
(0.880237 0.35713 -1.58968e-22)
(0.874597 0.491147 1.96707e-19)
(0.99309 -0.00140279 -2.49461e-21)
(1.013 -0.0359059 2.34525e-22)
(1.03852 0.0084212 -3.10953e-21)
(1.0466 0.135865 8.70708e-21)
(1.03886 0.225578 -2.86114e-20)
(1.00568 0.282865 8.03182e-21)
(0.977708 0.288743 -3.32663e-21)
(0.954117 0.323559 -2.12576e-19)
(0.89661 0.374763 0)
(0.945446 0.539267 -2.54655e-20)
(0.991946 -0.00280688 1.85162e-21)
(1.01357 -0.0408551 1.20379e-20)
(1.04053 0.00614421 8.96497e-22)
(1.04863 0.141766 -4.52471e-20)
(1.04163 0.234426 -1.08972e-20)
(1.00917 0.293999 -5.90969e-20)
(0.983199 0.295576 4.74485e-21)
(0.969271 0.339827 4.93981e-21)
(0.916344 0.388111 -1.94611e-21)
(1.01901 0.579016 7.52352e-19)
(0.991158 -0.00421766 1.11102e-21)
(1.01349 -0.0458477 1.62887e-20)
(1.04201 0.00426924 8.28613e-21)
(1.05077 0.14842 1.97654e-20)
(1.04519 0.243413 -4.52864e-20)
(1.01421 0.304721 1.31406e-20)
(0.991128 0.301106 -2.86252e-21)
(0.984755 0.355336 2.64419e-20)
(0.941491 0.395902 1.3617e-19)
(1.10267 0.622344 -2.66522e-20)
(0.991046 -0.00558925 3.55467e-22)
(1.01241 -0.0506575 -9.41395e-21)
(1.04211 0.00228083 1.07868e-21)
(1.05295 0.1557 3.80462e-20)
(1.04997 0.252328 4.02037e-21)
(1.02086 0.31451 2.02551e-20)
(1.00206 0.305571 -4.73092e-20)
(1.00043 0.368662 6.56245e-20)
(0.975682 0.396012 2.76735e-19)
(1.16947 0.644185 -6.42032e-19)
(0.991842 -0.00692704 2.15884e-21)
(1.01004 -0.0550293 -2.67825e-20)
(1.0406 0.00263819 3.68265e-22)
(1.05554 0.165055 -1.69963e-20)
(1.0564 0.262202 4.77989e-20)
(1.02968 0.323687 -2.81131e-20)
(1.01591 0.309722 -1.60432e-20)
(1.01909 0.380378 3.40916e-20)
(1.01688 0.407944 -1.47958e-19)
(1.26996 0.696924 3.52055e-19)
(0.99393 -0.00841524 -1.25561e-21)
(1.00568 -0.0595189 5.21243e-21)
(1.03742 -0.00356163 1.80032e-20)
(1.05901 0.168769 -3.59605e-20)
(1.07071 0.266873 -3.21834e-20)
(1.04899 0.333442 -3.91022e-20)
(1.04208 0.308232 1.46863e-20)
(1.05603 0.390671 -1.4408e-19)
(1.06046 0.357558 -4.8883e-19)
(1.28278 0.687121 -1.41567e-19)
(0.997553 -0.00958879 -6.22751e-21)
(0.998299 -0.0625409 1.69235e-21)
(1.0297 -0.0211487 5.51002e-22)
(1.05548 0.161726 1.27076e-20)
(1.10118 0.26162 1.91439e-20)
(1.08057 0.34119 5.74827e-20)
(1.11704 0.297519 1.49317e-20)
(1.12556 0.392766 1.1113e-19)
(1.19409 0.318786 2.05242e-19)
(1.28829 0.58978 2.48359e-19)
(1.00076 -0.0104107 -1.5532e-21)
(0.99284 -0.0635514 -2.0947e-21)
(1.02654 -0.0360577 2.13045e-21)
(1.03412 0.148877 3.89678e-21)
(1.16847 0.248406 6.21568e-35)
(1.10348 0.338497 -6.84223e-21)
(1.27738 0.279228 -4.52334e-34)
(1.20581 0.378598 1.66584e-20)
(1.42014 0.295521 -4.21404e-20)
(1.33835 0.511241 -2.03516e-19)
(1.00287 -0.0112575 1.51345e-20)
(0.992053 -0.0635095 -1.98884e-35)
(1.02733 -0.0456536 -2.28806e-21)
(0.996291 0.120208 -3.73628e-21)
(1.26464 0.224807 -1.64175e-20)
(1.11353 0.31682 2.37204e-21)
(1.4659 0.247437 -5.26394e-34)
(1.30371 0.352356 -3.7761e-20)
(1.62251 0.272343 -9.21351e-20)
(1.48113 0.443254 2.26691e-19)
(1.00392 -0.012766 0)
(0.996911 -0.0635605 -6.08721e-35)
(1.02791 -0.047435 0)
(0.976185 0.0710083 0)
(1.32182 0.19248 0)
(1.15048 0.27554 0)
(1.57042 0.19999 -3.19804e-34)
(1.42027 0.319905 0)
(1.73016 0.240099 -1.63238e-20)
(1.66425 0.37724 1.36412e-19)
(1.00346 -0.0158688 2.26026e-21)
(1.0084 -0.0641607 -9.31309e-21)
(1.03194 -0.0487314 -3.10207e-21)
(0.993747 0.0176943 0)
(1.31517 0.154251 0)
(1.22322 0.22324 5.61851e-21)
(1.58256 0.149408 2.72275e-20)
(1.53026 0.279771 -1.18285e-20)
(1.77241 0.202354 -2.4838e-20)
(1.80812 0.311042 9.8627e-20)
(1.00048 -0.0225953 -6.9786e-20)
(1.0283 -0.0641944 9.16327e-21)
(1.03554 -0.052669 -4.56247e-21)
(1.03162 -0.032652 -2.22884e-20)
(1.25085 0.106983 -2.4584e-20)
(1.28575 0.162329 6.47267e-21)
(1.52911 0.0994565 -2.65401e-20)
(1.5875 0.23021 -1.8469e-20)
(1.76159 0.16121 -3.05727e-20)
(1.87967 0.245156 9.93016e-20)
(0.995045 -0.030481 -4.44816e-21)
(1.04135 -0.0641935 -1.02001e-20)
(1.02935 -0.0576331 -5.48575e-21)
(1.04553 -0.0539084 -4.74656e-21)
(1.11767 0.064461 -7.78197e-35)
(1.299 0.10178 5.72543e-21)
(1.38612 0.0548219 -8.62026e-34)
(1.55667 0.176066 -1.07323e-20)
(1.66678 0.117354 1.61279e-20)
(1.86956 0.178286 2.25617e-20)
(0.97374 -0.0501839 1.31958e-19)
(1.03906 -0.064917 -1.74886e-21)
(0.970764 -0.0644658 -5.94362e-21)
(0.964945 -0.0559212 7.91207e-21)
(0.894494 0.0198535 1.05585e-20)
(1.16899 0.0378742 4.80515e-21)
(1.07193 0.0278338 1.34198e-20)
(1.36153 0.0997307 -2.42612e-20)
(1.40486 0.0623209 -2.97597e-20)
(1.69164 0.0941495 8.07305e-20)
(0.871224 -0.0326743 6.1065e-21)
(0.852202 -0.0473467 -4.78791e-35)
(0.636779 -0.0485178 -6.46414e-21)
(0.520527 -0.0247821 0)
(0.446508 0.00213871 0)
(0.598074 0.00930758 5.88383e-21)
(0.520451 0.0136825 -6.29189e-36)
(0.76338 0.0312729 -9.739e-21)
(0.798914 0.0175583 -2.41745e-20)
(1.02254 0.0310143 -3.77847e-20)
(1.46476 0.709806 1.50166e-19)
(1.55932 0.694124 -4.46886e-20)
(1.66744 0.668812 -3.16597e-21)
(1.77391 0.632838 5.15174e-20)