/*--------------------------------*- C++ -*----------------------------------*\
| =========                 |                                                 |
| \\      /  F ield         | OpenFOAM: The Open Source CFD Toolbox           |
|  \\    /   O peration     | Version:  2406                                  |
|   \\  /    A nd           | Website:  www.openfoam.com                      |
|    \\/     M anipulation  |                                                 |
\*---------------------------------------------------------------------------*/
FoamFile
{
    version     2.0;
    format      ascii;
    arch        "LSB;label=32;scalar=64";
    class       volVectorField;
    location    "2.25";
    object      flux;
}
// * * * * * * * * * * * * * * * * * * * * * * * * * * * * * * * * * * * * * //

dimensions      [0 1 -1 1 0 0 0];

internalField   nonuniform List<vector> 
2500
(
(0.00137233 0.00137233 0)
(0.00411148 0.00137907 0)
(0.00684143 0.00139285 0)
(0.00955823 0.00141345 0)
(0.0122529 0.00144089 0)
(0.0149191 0.00147521 0)
(0.0175501 0.00151641 0)
(0.0201392 0.00156449 0)
(0.0226793 0.00161947 0)
(0.0251634 0.00168133 0)
(0.0275839 0.00175008 0)
(0.0299333 0.00182569 0)
(0.0322037 0.00190814 0)
(0.0343869 0.00199738 0)
(0.0364748 0.00209335 0)
(0.0384587 0.00219597 0)
(0.0403301 0.00230512 0)
(0.04208 0.00242069 0)
(0.0436995 0.00254249 0)
(0.0451798 0.00267033 0)
(0.0465117 0.00280398 0)
(0.0476865 0.00294315 0)
(0.0486954 0.00308751 0)
(0.0495299 0.0032367 0)
(0.0501819 0.00339028 0)
(0.0506437 0.00354779 0)
(0.050908 0.00370869 0)
(0.0509683 0.00387239 0)
(0.0508188 0.00403826 0)
(0.0504545 0.00420558 0)
(0.0498716 0.00437362 0)
(0.0490671 0.00454157 0)
(0.0480393 0.00470858 0)
(0.0467879 0.00487375 0)
(0.0453138 0.00503616 0)
(0.0436196 0.00519486 0)
(0.0417091 0.00534885 0)
(0.039588 0.00549717 0)
(0.0372635 0.0056388 0)
(0.0347442 0.00577278 0)
(0.0320407 0.00589815 0)
(0.0291648 0.00601399 0)
(0.0261301 0.00611943 0)
(0.0229514 0.00621365 0)
(0.019645 0.00629592 0)
(0.0162282 0.00636561 0)
(0.0127194 0.00642217 0)
(0.00913786 0.00646516 0)
(0.00550352 0.00649405 0)
(0.00183786 0.00650741 0)
(0.00137907 0.00411148 0)
(0.004132 0.004132 0)
(0.00687581 0.00417325 0)
(0.00960627 0.004235 0)
(0.0123147 0.00431733 0)
(0.0149946 0.00442027 0)
(0.0176394 0.00454386 0)
(0.0202422 0.00468812 0)
(0.0227962 0.00485306 0)
(0.025294 0.00503867 0)
(0.0277283 0.00524495 0)
(0.0300913 0.00547183 0)
(0.0323753 0.00571924 0)
(0.0345721 0.00598704 0)
(0.0366734 0.00627506 0)
(0.0386705 0.00658304 0)
(0.0405548 0.00691067 0)
(0.0423173 0.00725755 0)
(0.0439492 0.00762319 0)
(0.0454412 0.00800699 0)
(0.0467845 0.00840824 0)
(0.04797 0.0088261 0)
(0.0489889 0.0092596 0)
(0.0498327 0.00970761 0)
(0.050493 0.0101689 0)
(0.0509621 0.010642 0)
(0.0512326 0.0111253 0)
(0.0512978 0.0116171 0)
(0.051152 0.0121154 0)
(0.0507899 0.0126182 0)
(0.0502076 0.0131231 0)
(0.049402 0.0136278 0)
(0.0483715 0.0141298 0)
(0.0471155 0.0146263 0)
(0.0456349 0.0151145 0)
(0.0439322 0.0155916 0)
(0.0420114 0.0160546 0)
(0.039878 0.0165006 0)
(0.0375391 0.0169265 0)
(0.0350036 0.0173294 0)
(0.0322819 0.0177065 0)
(0.0293861 0.0180549 0)
(0.0263298 0.018372 0)
(0.0231279 0.0186554 0)
(0.019797 0.0189029 0)
(0.0163545 0.0191125 0)
(0.012819 0.0192826 0)
(0.00920974 0.019412 0)
(0.00554577 0.0194996 0)
(0.00185121 0.0195421 0)
(0.00139285 0.00684143 0)
(0.00417325 0.00687581 0)
(0.00694443 0.00694443 0)
(0.00970231 0.00704733 0)
(0.0124382 0.00718456 0)
(0.0151456 0.00735618 0)
(0.0178179 0.00756223 0)
(0.0204484 0.00780275 0)
(0.0230299 0.00807777 0)
(0.0255553 0.0083873 0)
(0.0280171 0.0087313 0)
(0.0304076 0.0091097 0)
(0.0327189 0.00952236 0)
(0.0349428 0.00996909 0)
(0.0370708 0.0104496 0)
(0.0390944 0.0109634 0)
(0.0410046 0.0115102 0)
(0.0427925 0.0120891 0)
(0.044449 0.0126994 0)
(0.0459648 0.0133401 0)
(0.0473308 0.01401 0)
(0.0485378 0.0147078 0)
(0.0495769 0.0154318 0)
(0.0504392 0.0161801 0)
(0.0511163 0.0169508 0)
(0.0516001 0.0177413 0)
(0.0518831 0.018549 0)
(0.0519584 0.0193711 0)
(0.0518199 0.0202042 0)
(0.0514623 0.0210449 0)
(0.0508813 0.0218894 0)
(0.0500737 0.0227337 0)
(0.0490377 0.0235735 0)
(0.0477726 0.0244043 0)
(0.0462791 0.0252215 0)
(0.0445597 0.0260201 0)
(0.0426181 0.0267953 0)
(0.0404599 0.0275421 0)
(0.0380923 0.0282554 0)
(0.0355242 0.0289303 0)
(0.0327662 0.029562 0)
(0.0298304 0.0301457 0)
(0.0267307 0.0306771 0)
(0.0234823 0.0311521 0)
(0.0201021 0.0315668 0)
(0.0166079 0.031918 0)
(0.0130189 0.0322029 0)
(0.00935482 0.0324192 0)
(0.0056336 0.0325654 0)
(0.00188034 0.0326385 0)
(0.00141345 0.00955823 0)
(0.004235 0.00960627 0)
(0.00704733 0.00970231 0)
(0.00984641 0.00984641 0)
(0.0126235 0.0100386 0)
(0.0153723 0.010279 0)
(0.018086 0.0105676 0)
(0.0207578 0.0109046 0)
(0.0233807 0.0112899 0)
(0.0259475 0.0117237 0)
(0.0284507 0.0122057 0)
(0.0308824 0.0127361 0)
(0.0332347 0.0133145 0)
(0.0354994 0.0139408 0)
(0.0376677 0.0146145 0)
(0.0397311 0.0153352 0)
(0.0416804 0.016102 0)
(0.0435066 0.0169142 0)
(0.0452002 0.0177706 0)
(0.0467519 0.0186698 0)
(0.0481522 0.0196102 0)
(0.0493918 0.0205899 0)
(0.0504613 0.0216068 0)
(0.0513517 0.022658 0)
(0.0520542 0.0237409 0)
(0.0525603 0.0248519 0)
(0.0528624 0.0259875 0)
(0.052953 0.0271435 0)
(0.0528258 0.0283154 0)
(0.0524751 0.0294982 0)
(0.0518964 0.0306868 0)
(0.0510861 0.0318754 0)
(0.0500421 0.0330579 0)
(0.0487634 0.0342281 0)
(0.0472507 0.0353794 0)
(0.0455061 0.0365049 0)
(0.0435334 0.0375977 0)
(0.041338 0.0386506 0)
(0.0389273 0.0396566 0)
(0.0363102 0.0406086 0)
(0.0334973 0.0414998 0)
(0.0305013 0.0423236 0)
(0.0273361 0.0430736 0)
(0.0240176 0.043744 0)
(0.0205629 0.0443295 0)
(0.0169905 0.0448252 0)
(0.0133202 0.0452271 0)
(0.00957232 0.0455319 0)
(0.00576503 0.0457369 0)
(0.00192425 0.0458398 0)
(0.00144089 0.0122529 0)
(0.00431733 0.0123147 0)
(0.00718456 0.0124382 0)
(0.0100386 0.0126235 0)
(0.0128708 0.0128708 0)
(0.0156747 0.0131801 0)
(0.0184436 0.0135514 0)
(0.0211707 0.013985 0)
(0.0238489 0.0144809 0)
(0.0264711 0.0150392 0)
(0.0290295 0.0156598 0)
(0.0315164 0.0163426 0)
(0.0339236 0.0170875 0)
(0.0362428 0.0178941 0)
(0.0384652 0.0187621 0)
(0.0405818 0.0196907 0)
(0.0425836 0.020679 0)
(0.044461 0.0217261 0)
(0.0462045 0.0228304 0)
(0.0478045 0.0239903 0)
(0.049251 0.0252037 0)
(0.0505344 0.0264682 0)
(0.051645 0.0277809 0)
(0.0525733 0.0291387 0)
(0.0533102 0.0305376 0)
(0.0538467 0.0319735 0)
(0.0541746 0.0334416 0)
(0.0542863 0.0349366 0)
(0.0541746 0.0364527 0)
(0.0538337 0.0379836 0)
(0.0532584 0.0395224 0)
(0.0524449 0.0410618 0)
(0.0513905 0.042594 0)
(0.0500941 0.0441107 0)
(0.0485559 0.0456035 0)
(0.0467779 0.0470633 0)
(0.0447637 0.0484811 0)
(0.0425188 0.0498477 0)
(0.0400503 0.0511538 0)
(0.0373675 0.0523902 0)
(0.0344812 0.0535479 0)
(0.0314042 0.0546183 0)
(0.0281511 0.0555931 0)
(0.0247382 0.0564646 0)
(0.0211832 0.0572257 0)
(0.0175056 0.0578702 0)
(0.0137256 0.0583927 0)
(0.00986459 0.0587887 0)
(0.00594149 0.0590548 0)
(0.00198325 0.0591884 0)
(0.00147521 0.0149191 0)
(0.00442027 0.0149946 0)
(0.00735618 0.0151456 0)
(0.010279 0.0153723 0)
(0.0131801 0.0156747 0)
(0.0160529 0.0160529 0)
(0.0188909 0.0165072 0)
(0.0216873 0.0170377 0)
(0.0244349 0.0176444 0)
(0.0271263 0.0183276 0)
(0.0297541 0.0190872 0)
(0.0323101 0.0199232 0)
(0.0347863 0.0208354 0)
(0.037174 0.0218234 0)
(0.0394643 0.0228868 0)
(0.041648 0.0240247 0)
(0.0437158 0.0252363 0)
(0.0456579 0.0265203 0)
(0.0474644 0.0278749 0)
(0.0491252 0.0292982 0)
(0.0506301 0.0307877 0)
(0.051969 0.0323406 0)
(0.0531318 0.0339533 0)
(0.0541083 0.0356219 0)
(0.054889 0.037342 0)
(0.0554643 0.0391082 0)
(0.0558255 0.0409148 0)
(0.0559642 0.0427554 0)
(0.0558728 0.0446228 0)
(0.0555448 0.0465093 0)
(0.0549746 0.0484064 0)
(0.0541577 0.0503052 0)
(0.053091 0.0521959 0)
(0.0517729 0.0540684 0)
(0.0502032 0.055912 0)
(0.0483837 0.0577159 0)
(0.0463178 0.0594685 0)
(0.0440107 0.0611586 0)
(0.0414698 0.0627745 0)
(0.0387043 0.0643047 0)
(0.0357255 0.0657381 0)
(0.0325465 0.0670638 0)
(0.0291824 0.0682714 0)
(0.0256502 0.0693513 0)
(0.0219685 0.0702947 0)
(0.0181575 0.0710936 0)
(0.0142387 0.0717413 0)
(0.0102344 0.0722322 0)
(0.00616473 0.0725619 0)
(0.00205788 0.0727275 0)
(0.00151641 0.0175501 0)
(0.00454386 0.0176394 0)
(0.00756223 0.0178179 0)
(0.0105676 0.018086 0)
(0.0135514 0.0184436 0)
(0.0165072 0.0188909 0)
(0.0194283 0.0194283 0)
(0.0223079 0.0200559 0)
(0.0251389 0.0207739 0)
(0.0279138 0.0215824 0)
(0.0306251 0.0224816 0)
(0.0332645 0.0234715 0)
(0.0358238 0.0245519 0)
(0.0382942 0.0257224 0)
(0.0406665 0.0269827 0)
(0.0429314 0.0283318 0)
(0.0450791 0.0297687 0)
(0.0470996 0.0312919 0)
(0.0489825 0.0328997 0)
(0.0507173 0.0345897 0)
(0.0522933 0.0363591 0)
(0.0536999 0.0382045 0)
(0.0549264 0.0401221 0)
(0.055962 0.0421071 0)
(0.0567964 0.0441543 0)
(0.0574196 0.0462575 0)
(0.0578219 0.04841 0)
(0.0579943 0.0506042 0)
(0.0579285 0.0528316 0)
(0.0576173 0.055083 0)
(0.0570543 0.0573483 0)
(0.0562343 0.0596168 0)
(0.0551537 0.061877 0)
(0.0538102 0.0641167 0)
(0.0522034 0.0663231 0)
(0.0503344 0.068483 0)
(0.0482065 0.0705827 0)
(0.0458247 0.0726084 0)
(0.0431965 0.0745462 0)
(0.0403311 0.0763821 0)
(0.0372402 0.0781025 0)
(0.0339375 0.0796943 0)
(0.0304386 0.0811449 0)
(0.0267614 0.0824424 0)
(0.0229255 0.0835762 0)
(0.0189522 0.0845366 0)
(0.0148642 0.0853153 0)
(0.0106852 0.0859056 0)
(0.00643684 0.086302 0)
(0.00214885 0.0865012 0)
(0.00156449 0.0201392 0)
(0.00468812 0.0202422 0)
(0.00780275 0.0204484 0)
(0.0109046 0.0207578 0)
(0.013985 0.0211707 0)
(0.0170377 0.0216873 0)
(0.0200559 0.0223079 0)
(0.0230328 0.0230328 0)
(0.0259614 0.0238624 0)
(0.0288341 0.0247968 0)
(0.0316431 0.0258362 0)
(0.0343804 0.0269808 0)
(0.0370372 0.0282304 0)
(0.0396047 0.0295848 0)
(0.0420736 0.0310435 0)
(0.044434 0.0326056 0)
(0.046676 0.0342701 0)
(0.0487889 0.0360355 0)
(0.0507621 0.0378996 0)
(0.0525846 0.0398601 0)
(0.054245 0.0419137 0)
(0.0557321 0.0440568 0)
(0.0570343 0.0462848 0)
(0.0581405 0.0485926 0)
(0.0590394 0.050974 0)
(0.0597201 0.0534222 0)
(0.0601722 0.0559293 0)
(0.0603857 0.0584865 0)
(0.0603516 0.0610841 0)
(0.0600616 0.0637114 0)
(0.0595085 0.0663568 0)
(0.0586864 0.0690076 0)
(0.0575909 0.0716504 0)
(0.0562189 0.074271 0)
(0.0545695 0.0768542 0)
(0.0526433 0.0793847 0)
(0.0504432 0.0818461 0)
(0.0479742 0.0842222 0)
(0.0452435 0.0864964 0)
(0.0422607 0.0886523 0)
(0.0390377 0.0906736 0)
(0.0355888 0.0925447 0)
(0.0319305 0.0942504 0)
(0.0280815 0.0957768 0)
(0.0240627 0.0971111 0)
(0.0198966 0.0982415 0)
(0.0156077 0.0991584 0)
(0.0112211 0.0998534 0)
(0.00676034 0.10032 0)
(0.00225701 0.100555 0)
(0.00161947 0.0226793 0)
(0.00485306 0.0227962 0)
(0.00807777 0.0230299 0)
(0.0112899 0.0233807 0)
(0.0144809 0.0238489 0)
(0.0176444 0.0244349 0)
(0.0207739 0.0251389 0)
(0.0238624 0.0259614 0)
(0.0269028 0.0269028 0)
(0.0298877 0.0279635 0)
(0.0328091 0.0291438 0)
(0.0356587 0.0304439 0)
(0.0384278 0.0318639 0)
(0.0411072 0.0334035 0)
(0.0436874 0.0350623 0)
(0.0461581 0.0368396 0)
(0.048509 0.0387343 0)
(0.0507291 0.0407448 0)
(0.0528071 0.0428689 0)
(0.0547314 0.0451041 0)
(0.0564901 0.0474469 0)
(0.058071 0.0498932 0)
(0.0594621 0.0524381 0)
(0.0606512 0.0550758 0)
(0.061626 0.0577997 0)
(0.0623748 0.0606018 0)
(0.0628861 0.0634734 0)
(0.0631491 0.0664046 0)
(0.0631535 0.0693843 0)
(0.06289 0.0724004 0)
(0.0623504 0.0754395 0)
(0.0615279 0.0784872 0)
(0.0604171 0.0815281 0)
(0.0590141 0.0845455 0)
(0.0573171 0.0875223 0)
(0.0553263 0.0904403 0)
(0.053044 0.0932808 0)
(0.0504751 0.0960247 0)
(0.0476266 0.0986527 0)
(0.0445083 0.101146 0)
(0.0411326 0.103484 0)
(0.0375143 0.10565 0)
(0.0336708 0.107626 0)
(0.0296221 0.109394 0)
(0.0253902 0.110941 0)
(0.0209995 0.112252 0)
(0.0164761 0.113315 0)
(0.0118472 0.114122 0)
(0.00713827 0.114663 0)
(0.00238337 0.114936 0)
(0.00168133 0.0251634 0)
(0.00503867 0.025294 0)
(0.0083873 0.0255553 0)
(0.0117237 0.0259475 0)
(0.0150392 0.0264711 0)
(0.0183276 0.0271263 0)
(0.0215824 0.0279138 0)
(0.0247968 0.0288341 0)
(0.0279635 0.0298877 0)
(0.0310751 0.0310751 0)
(0.0341235 0.0323969 0)
(0.0371004 0.0338533 0)
(0.0399967 0.0354446 0)
(0.0428032 0.0371708 0)
(0.0455098 0.0390316 0)
(0.0481061 0.0410263 0)
(0.0505811 0.0431539 0)
(0.0529236 0.0454128 0)
(0.0551214 0.0478009 0)
(0.0571625 0.0503154 0)
(0.0590341 0.0529527 0)
(0.0607233 0.0557084 0)
(0.062217 0.0585774 0)
(0.0635021 0.0615532 0)
(0.0645653 0.0646285 0)
(0.0653938 0.0677947 0)
(0.065975 0.0710421 0)
(0.0662966 0.0743597 0)
(0.0663474 0.0777351 0)
(0.0661168 0.0811546 0)
(0.0655953 0.0846031 0)
(0.064775 0.0880645 0)
(0.0636492 0.091521 0)
(0.0622132 0.094954 0)
(0.0604643 0.0983435 0)
(0.0584018 0.101669 0)
(0.0560276 0.104909 0)
(0.0533461 0.108041 0)
(0.0503643 0.111043 0)
(0.0470921 0.113892 0)
(0.0435423 0.116567 0)
(0.0397303 0.119047 0)
(0.0356748 0.121309 0)
(0.0313968 0.123336 0)
(0.0269202 0.125109 0)
(0.022271 0.126613 0)
(0.0174775 0.127833 0)
(0.0125692 0.128758 0)
(0.00757424 0.12938 0)
(0.00252914 0.129692 0)
(0.00175008 0.0275839 0)
(0.00524495 0.0277283 0)
(0.0087313 0.0280171 0)
(0.0122057 0.0284507 0)
(0.0156598 0.0290295 0)
(0.0190872 0.0297541 0)
(0.0224816 0.0306251 0)
(0.0258362 0.0316431 0)
(0.0291438 0.0328091 0)
(0.0323969 0.0341235 0)
(0.0355873 0.0355873 0)
(0.0387064 0.0372008 0)
(0.0417453 0.0389646 0)
(0.0446942 0.0408787 0)
(0.0475428 0.0429432 0)
(0.0502804 0.0451576 0)
(0.0528955 0.0475209 0)
(0.0553761 0.0500316 0)
(0.0577096 0.0526878 0)
(0.0598831 0.0554865 0)
(0.0618831 0.0584241 0)
(0.0636958 0.0614961 0)
(0.0653069 0.0646968 0)
(0.0667023 0.0680196 0)
(0.0678675 0.0714564 0)
(0.0687885 0.074998 0)
(0.0694511 0.0786338 0)
(0.069842 0.0823515 0)
(0.0699483 0.0861377 0)
(0.069758 0.0899771 0)
(0.0692604 0.0938528 0)
(0.0684458 0.0977468 0)
(0.0673065 0.101639 0)
(0.0658366 0.105509 0)
(0.064032 0.109333 0)
(0.0618914 0.113089 0)
(0.0594158 0.116751 0)
(0.0566091 0.120294 0)
(0.0534782 0.123694 0)
(0.0500331 0.126923 0)
(0.046287 0.129957 0)
(0.0422562 0.132771 0)
(0.0379603 0.135341 0)
(0.0334219 0.137644 0)
(0.0286667 0.13966 0)
(0.023723 0.141371 0)
(0.0186214 0.142759 0)
(0.0133943 0.143812 0)
(0.00807247 0.14452 0)
(0.00269574 0.144876 0)
(0.00182569 0.0299333 0)
(0.00547183 0.0300913 0)
(0.0091097 0.0304076 0)
(0.0127361 0.0308824 0)
(0.0163426 0.0315164 0)
(0.0199232 0.0323101 0)
(0.0234715 0.0332645 0)
(0.0269808 0.0343804 0)
(0.0304439 0.0356587 0)
(0.0338533 0.0371004 0)
(0.0372008 0.0387064 0)
(0.0404777 0.0404777 0)
(0.0436747 0.0424148 0)
(0.0467819 0.0445182 0)
(0.0497886 0.0467882 0)
(0.0526837 0.0492244 0)
(0.0554552 0.0518263 0)
(0.0580905 0.0545924 0)
(0.0605763 0.0575209 0)
(0.0628988 0.060609 0)
(0.0650437 0.063853 0)
(0.066996 0.0672484 0)
(0.0687405 0.0707892 0)
(0.0702616 0.0744685 0)
(0.0715438 0.0782777 0)
(0.0725712 0.082207 0)
(0.0733285 0.0862449 0)
(0.0738006 0.0903781 0)
(0.0739729 0.0945918 0)
(0.0738319 0.0988694 0)
(0.0733651 0.103192 0)
(0.0725613 0.10754 0)
(0.0714111 0.111891 0)
(0.0699071 0.116221 0)
(0.0680441 0.120505 0)
(0.0658194 0.124716 0)
(0.0632333 0.128827 0)
(0.060289 0.132809 0)
(0.0569932 0.136633 0)
(0.0533557 0.140269 0)
(0.0493903 0.143688 0)
(0.0451141 0.146861 0)
(0.0405479 0.149761 0)
(0.0357162 0.152363 0)
(0.0306465 0.154641 0)
(0.0253696 0.156574 0)
(0.0199191 0.158145 0)
(0.0143305 0.159336 0)
(0.00863792 0.160138 0)
(0.00288483 0.16054 0)
(0.00190814 0.0322037 0)
(0.00571924 0.0323753 0)
(0.00952236 0.0327189 0)
(0.0133145 0.0332347 0)
(0.0170875 0.0339236 0)
(0.0208354 0.0347863 0)
(0.0245519 0.0358238 0)
(0.0282304 0.0370372 0)
(0.0318639 0.0384278 0)
(0.0354446 0.0399967 0)
(0.0389646 0.0417453 0)
(0.0424148 0.0436747 0)
(0.0457859 0.0457859 0)
(0.0490676 0.0480797 0)
(0.052249 0.0505567 0)
(0.0553185 0.0532169 0)
(0.0582634 0.05606 0)
(0.0610707 0.059085 0)
(0.0637262 0.0622902 0)
(0.0662153 0.0656729 0)
(0.0685225 0.0692298 0)
(0.0706319 0.072956 0)
(0.072527 0.0768458 0)
(0.0741908 0.0808917 0)
(0.0756061 0.085085 0)
(0.0767556 0.0894152 0)
(0.0776223 0.0938701 0)
(0.078189 0.0984355 0)
(0.0784396 0.103095 0)
(0.0783584 0.107831 0)
(0.0779311 0.112623 0)
(0.0771445 0.117448 0)
(0.0759874 0.122283 0)
(0.0744507 0.1271 0)
(0.0725275 0.131872 0)
(0.0702138 0.136569 0)
(0.0675087 0.141159 0)
(0.0644146 0.14561 0)
(0.0609377 0.149888 0)
(0.0570879 0.153961 0)
(0.0528793 0.157794 0)
(0.0483298 0.161355 0)
(0.0434617 0.164613 0)
(0.0383013 0.167537 0)
(0.0328785 0.170099 0)
(0.027227 0.172275 0)
(0.0213835 0.174043 0)
(0.0153873 0.175386 0)
(0.00927634 0.176289 0)
(0.00309836 0.176742 0)
(0.00199738 0.0343869 0)
(0.00598704 0.0345721 0)
(0.00996909 0.0349428 0)
(0.0139408 0.0354994 0)
(0.0178941 0.0362428 0)
(0.0218234 0.037174 0)
(0.0257224 0.0382942 0)
(0.0295848 0.0396047 0)
(0.0334035 0.0411072 0)
(0.0371708 0.0428032 0)
(0.0408787 0.0446942 0)
(0.0445182 0.0467819 0)
(0.0480797 0.0490676 0)
(0.0515527 0.0515527 0)
(0.0549258 0.054238 0)
(0.0581871 0.0571241 0)
(0.0613233 0.0602111 0)
(0.0643206 0.0634983 0)
(0.0671642 0.0669844 0)
(0.0698384 0.0706671 0)
(0.0723267 0.0745432 0)
(0.074612 0.078608 0)
(0.0766762 0.0828558 0)
(0.0785009 0.0872791 0)
(0.0800673 0.0918689 0)
(0.0813563 0.0966142 0)
(0.0823488 0.101502 0)
(0.0830257 0.106518 0)
(0.0833686 0.111643 0)
(0.0833597 0.11686 0)
(0.0829824 0.122145 0)
(0.0822213 0.127474 0)
(0.0810631 0.132821 0)
(0.0794964 0.138155 0)
(0.0775126 0.143446 0)
(0.0751059 0.148661 0)
(0.072274 0.153764 0)
(0.0690183 0.158718 0)
(0.0653442 0.163486 0)
(0.0612617 0.16803 0)
(0.0567849 0.172312 0)
(0.0519329 0.176293 0)
(0.0467293 0.179939 0)
(0.0412024 0.183214 0)
(0.0353851 0.186086 0)
(0.029314 0.188527 0)
(0.0230297 0.190512 0)
(0.0165757 0.192019 0)
(0.00999442 0.193033 0)
(0.00333855 0.193543 0)
(0.00209335 0.0364748 0)
(0.00627506 0.0366734 0)
(0.0104496 0.0370708 0)
(0.0146145 0.0376677 0)
(0.0187621 0.0384652 0)
(0.0228868 0.0394643 0)
(0.0269827 0.0406665 0)
(0.0310435 0.0420736 0)
(0.0350623 0.0436874 0)
(0.0390316 0.0455098 0)
(0.0429432 0.0475428 0)
(0.0467882 0.0497886 0)
(0.0505567 0.052249 0)
(0.054238 0.0549258 0)
(0.0578205 0.0578205 0)
(0.0612916 0.0609341 0)
(0.0646376 0.0642672 0)
(0.067844 0.0678197 0)
(0.070895 0.0715908 0)
(0.0737741 0.0755786 0)
(0.0764634 0.0797803 0)
(0.0789446 0.0841916 0)
(0.0811981 0.0888068 0)
(0.0832038 0.0936185 0)
(0.0849411 0.0986177 0)
(0.0863888 0.103793 0)
(0.0875256 0.109131 0)
(0.0883303 0.114616 0)
(0.0887818 0.120229 0)
(0.0888599 0.12595 0)
(0.0885453 0.131755 0)
(0.0878202 0.137616 0)
(0.0866686 0.143506 0)
(0.0850766 0.149391 0)
(0.0830333 0.155237 0)
(0.080531 0.161006 0)
(0.0775655 0.16666 0)
(0.0741369 0.172156 0)
(0.0702498 0.177454 0)
(0.0659135 0.182508 0)
(0.0611427 0.187277 0)
(0.0559573 0.191717 0)
(0.0503824 0.195786 0)
(0.0444486 0.199445 0)
(0.0381918 0.202657 0)
(0.0316524 0.205388 0)
(0.0248752 0.20761 0)
(0.0179084 0.209298 0)
(0.0107999 0.210435 0)
(0.00360802 0.211006 0)
(0.00219597 0.0384587 0)
(0.00658304 0.0386705 0)
(0.0109634 0.0390944 0)
(0.0153352 0.0397311 0)
(0.0196907 0.0405818 0)
(0.0240247 0.041648 0)
(0.0283318 0.0429314 0)
(0.0326056 0.044434 0)
(0.0368396 0.0461581 0)
(0.0410263 0.0481061 0)
(0.0451576 0.0502804 0)
(0.0492244 0.0526837 0)
(0.0532169 0.0553185 0)
(0.0571241 0.0581871 0)
(0.0609341 0.0612916 0)
(0.0646337 0.0646337 0)
(0.0682089 0.0682148 0)
(0.0716442 0.0720354 0)
(0.0749232 0.0760952 0)
(0.0780279 0.080393 0)
(0.0809397 0.0849265 0)
(0.0836384 0.089692 0)
(0.0861031 0.094684 0)
(0.0883118 0.0998954 0)
(0.0902417 0.105317 0)
(0.0918696 0.110938 0)
(0.0931716 0.116744 0)
(0.0941239 0.122719 0)
(0.0947028 0.128843 0)
(0.0948852 0.135094 0)
(0.0946487 0.141447 0)
(0.0939725 0.147872 0)
(0.0928375 0.154339 0)
(0.0912272 0.160811 0)
(0.0891277 0.16725 0)
(0.0865288 0.173615 0)
(0.0834242 0.179862 0)
(0.0798123 0.185946 0)
(0.0756963 0.191817 0)
(0.0710851 0.197427 0)
(0.0659934 0.202727 0)
(0.0604419 0.207668 0)
(0.0544574 0.212201 0)
(0.0480732 0.216282 0)
(0.0413283 0.219867 0)
(0.0342673 0.222919 0)
(0.02694 0.225403 0)
(0.0194002 0.227291 0)
(0.0117018 0.228563 0)
(0.00390979 0.229202 0)
(0.00230512 0.0403301 0)
(0.00691067 0.0405548 0)
(0.0115102 0.0410046 0)
(0.016102 0.0416804 0)
(0.020679 0.0425836 0)
(0.0252363 0.0437158 0)
(0.0297687 0.0450791 0)
(0.0342701 0.046676 0)
(0.0387343 0.048509 0)
(0.0431539 0.0505811 0)
(0.0475209 0.0528955 0)
(0.0518263 0.0554552 0)
(0.05606 0.0582634 0)
(0.0602111 0.0613233 0)
(0.0642672 0.0646376 0)
(0.0682148 0.0682089 0)
(0.0720393 0.0720393 0)
(0.0757244 0.07613 0)
(0.0792527 0.0804817 0)
(0.0826054 0.085094 0)
(0.0857624 0.0899652 0)
(0.088702 0.0950922 0)
(0.0914016 0.10047 0)
(0.0938371 0.106093 0)
(0.0959838 0.111951 0)
(0.0978156 0.118033 0)
(0.0993063 0.124326 0)
(0.100429 0.130812 0)
(0.101157 0.137471 0)
(0.101464 0.14428 0)
(0.101324 0.151212 0)
(0.100712 0.158235 0)
(0.099607 0.165316 0)
(0.0979879 0.172415 0)
(0.0958378 0.179491 0)
(0.0931435 0.186498 0)
(0.089896 0.193387 0)
(0.0860914 0.200106 0)
(0.0817313 0.206602 0)
(0.0768238 0.212818 0)
(0.0713833 0.2187 0)
(0.0654313 0.22419 0)
(0.0589965 0.229234 0)
(0.0521147 0.23378 0)
(0.0448287 0.237779 0)
(0.0371879 0.241185 0)
(0.0292477 0.243959 0)
(0.0210683 0.24607 0)
(0.0127106 0.247492 0)
(0.00424738 0.248207 0)
(0.00242069 0.04208 0)
(0.00725755 0.0423173 0)
(0.0120891 0.0427925 0)
(0.0169142 0.0435066 0)
(0.0217261 0.044461 0)
(0.0265203 0.0456579 0)
(0.0312919 0.0470996 0)
(0.0360355 0.0487889 0)
(0.0407448 0.0507291 0)
(0.0454128 0.0529236 0)
(0.0500316 0.0553761 0)
(0.0545924 0.0580905 0)
(0.059085 0.0610707 0)
(0.0634983 0.0643206 0)
(0.0678197 0.067844 0)
(0.0720354 0.0716442 0)
(0.07613 0.0757244 0)
(0.0800867 0.0800867 0)
(0.0838872 0.0847328 0)
(0.0875114 0.0896633 0)
(0.0909379 0.0948774 0)
(0.0941435 0.100373 0)
(0.0971037 0.106146 0)
(0.0997923 0.112191 0)
(0.102182 0.118499 0)
(0.104245 0.125059 0)
(0.10595 0.131857 0)
(0.107269 0.138877 0)
(0.108171 0.146098 0)
(0.108626 0.153494 0)
(0.108604 0.161038 0)
(0.108077 0.168696 0)
(0.107017 0.176431 0)
(0.105402 0.184202 0)
(0.10321 0.191962 0)
(0.100424 0.199661 0)
(0.0970322 0.207245 0)
(0.0930271 0.214655 0)
(0.0884086 0.221832 0)
(0.0831833 0.228713 0)
(0.0773652 0.235234 0)
(0.0709766 0.24133 0)
(0.0640477 0.246939 0)
(0.0566174 0.252 0)
(0.0487326 0.256457 0)
(0.040448 0.260257 0)
(0.0318254 0.263355 0)
(0.0229325 0.265714 0)
(0.0138385 0.267303 0)
(0.00462487 0.268103 0)
(0.00254249 0.0436995 0)
(0.00762319 0.0439492 0)
(0.0126994 0.044449 0)
(0.0177706 0.0452002 0)
(0.0228304 0.0462045 0)
(0.0278749 0.0474644 0)
(0.0328997 0.0489825 0)
(0.0378996 0.0507621 0)
(0.0428689 0.0528071 0)
(0.0478009 0.0551214 0)
(0.0526878 0.0577096 0)
(0.0575209 0.0605763 0)
(0.0622902 0.0637262 0)
(0.0669844 0.0671642 0)
(0.0715908 0.070895 0)
(0.0760952 0.0749232 0)
(0.0804817 0.0792527 0)
(0.0847328 0.0838872 0)
(0.0888293 0.0888293 0)
(0.09275 0.0940809 0)
(0.096472 0.0996424 0)
(0.0999707 0.105513 0)
(0.103219 0.111689 0)
(0.10619 0.118167 0)
(0.108852 0.124938 0)
(0.111174 0.131992 0)
(0.113125 0.139316 0)
(0.114669 0.146892 0)
(0.115774 0.154701 0)
(0.116404 0.162715 0)
(0.116525 0.170906 0)
(0.116106 0.179238 0)
(0.115113 0.187672 0)
(0.113519 0.196163 0)
(0.111297 0.20466 0)
(0.108426 0.213107 0)
(0.10489 0.221445 0)
(0.100679 0.22961 0)
(0.095789 0.237533 0)
(0.0902248 0.245143 0)
(0.0839998 0.252368 0)
(0.0771364 0.259134 0)
(0.0696667 0.265369 0)
(0.0616326 0.271003 0)
(0.0530857 0.275971 0)
(0.0440867 0.280212 0)
(0.0347048 0.283673 0)
(0.0250161 0.286309 0)
(0.0150996 0.288087 0)
(0.00504705 0.288981 0)
(0.00267033 0.0451798 0)
(0.00800699 0.0454412 0)
(0.0133401 0.0459648 0)
(0.0186698 0.0467519 0)
(0.0239903 0.0478045 0)
(0.0292982 0.0491252 0)
(0.0345897 0.0507173 0)
(0.0398601 0.0525846 0)
(0.0451041 0.0547314 0)
(0.0503154 0.0571625 0)
(0.0554865 0.0598831 0)
(0.060609 0.0628988 0)
(0.0656729 0.0662153 0)
(0.0706671 0.0698384 0)
(0.0755786 0.0737741 0)
(0.080393 0.0780279 0)
(0.085094 0.0826054 0)
(0.0896633 0.0875114 0)
(0.0940809 0.09275 0)
(0.0983244 0.0983244 0)
(0.10237 0.104237 0)
(0.10619 0.110487 0)
(0.109758 0.117074 0)
(0.113041 0.123994 0)
(0.116007 0.131241 0)
(0.118623 0.138806 0)
(0.120851 0.146674 0)
(0.122654 0.154831 0)
(0.123994 0.163255 0)
(0.124831 0.17192 0)
(0.125127 0.180795 0)
(0.124843 0.189844 0)
(0.123942 0.199024 0)
(0.12239 0.208287 0)
(0.120155 0.217577 0)
(0.11721 0.226836 0)
(0.113535 0.235995 0)
(0.109114 0.244983 0)
(0.103941 0.253724 0)
(0.098018 0.262138 0)
(0.091356 0.270142 0)
(0.0839779 0.277651 0)
(0.0759174 0.284584 0)
(0.0672197 0.290858 0)
(0.0579412 0.296398 0)
(0.0481497 0.301134 0)
(0.0379226 0.305002 0)
(0.0273463 0.307951 0)
(0.0165105 0.30994 0)
(0.00551948 0.310942 0)
(0.00280398 0.0465117 0)
(0.00840824 0.0467845 0)
(0.01401 0.0473308 0)
(0.0196102 0.0481522 0)
(0.0252037 0.049251 0)
(0.0307877 0.0506301 0)
(0.0363591 0.0522933 0)
(0.0419137 0.054245 0)
(0.0474469 0.0564901 0)
(0.0529527 0.0590341 0)
(0.0584241 0.0618831 0)
(0.063853 0.0650437 0)
(0.0692298 0.0685225 0)
(0.0745432 0.0723267 0)
(0.0797803 0.0764634 0)
(0.0849265 0.0809397 0)
(0.0899652 0.0857624 0)
(0.0948774 0.0909379 0)
(0.0996424 0.096472 0)
(0.104237 0.10237 0)
(0.108635 0.108635 0)
(0.112808 0.115269 0)
(0.116727 0.122273 0)
(0.120357 0.129645 0)
(0.123663 0.137379 0)
(0.126608 0.145469 0)
(0.129151 0.153902 0)
(0.13125 0.162663 0)
(0.132863 0.17173 0)
(0.133944 0.181079 0)
(0.134449 0.190678 0)
(0.134334 0.200488 0)
(0.133556 0.210464 0)
(0.132072 0.220556 0)
(0.129846 0.230703 0)
(0.126844 0.240841 0)
(0.123038 0.250895 0)
(0.118409 0.260785 0)
(0.112944 0.270426 0)
(0.106642 0.279728 0)
(0.099513 0.288596 0)
(0.0915786 0.296933 0)
(0.0828738 0.304645 0)
(0.0734473 0.311638 0)
(0.063361 0.317821 0)
(0.0526901 0.323114 0)
(0.0415221 0.327442 0)
(0.0299546 0.330745 0)
(0.0180906 0.332974 0)
(0.00604873 0.334097 0)
(0.00294315 0.0476865 0)
(0.0088261 0.04797 0)
(0.0147078 0.0485378 0)
(0.0205899 0.0493918 0)
(0.0264682 0.0505344 0)
(0.0323406 0.051969 0)
(0.0382045 0.0536999 0)
(0.0440568 0.0557321 0)
(0.0498932 0.058071 0)
(0.0557084 0.0607233 0)
(0.0614961 0.0636958 0)
(0.0672484 0.066996 0)
(0.072956 0.0706319 0)
(0.078608 0.074612 0)
(0.0841916 0.0789446 0)
(0.089692 0.0836384 0)
(0.0950922 0.088702 0)
(0.100373 0.0941435 0)
(0.105513 0.0999707 0)
(0.110487 0.10619 0)
(0.115269 0.112808 0)
(0.119829 0.119829 0)
(0.124133 0.127254 0)
(0.128147 0.135084 0)
(0.131832 0.143317 0)
(0.135146 0.151946 0)
(0.138045 0.160962 0)
(0.140483 0.17035 0)
(0.142411 0.18009 0)
(0.143779 0.190157 0)
(0.144535 0.200519 0)
(0.144629 0.211137 0)
(0.14401 0.221964 0)
(0.142629 0.232946 0)
(0.14044 0.244019 0)
(0.137401 0.255111 0)
(0.133479 0.266141 0)
(0.128646 0.277021 0)
(0.122884 0.287655 0)
(0.116187 0.29794 0)
(0.108561 0.307769 0)
(0.100028 0.317033 0)
(0.0906216 0.325619 0)
(0.0803954 0.333419 0)
(0.0694171 0.340329 0)
(0.0577704 0.346252 0)
(0.0455539 0.351103 0)
(0.0328787 0.354808 0)
(0.019863 0.35731 0)
(0.00664252 0.358572 0)
(0.00308751 0.0486954 0)
(0.0092596 0.0489889 0)
(0.0154318 0.0495769 0)
(0.0216068 0.0504613 0)
(0.0277809 0.051645 0)
(0.0339533 0.0531318 0)
(0.0401221 0.0549264 0)
(0.0462848 0.0570343 0)
(0.0524381 0.0594621 0)
(0.0585774 0.062217 0)
(0.0646968 0.0653069 0)
(0.0707892 0.0687405 0)
(0.0768458 0.072527 0)
(0.0828558 0.0766762 0)
(0.0888068 0.0811981 0)
(0.094684 0.0861031 0)
(0.10047 0.0914016 0)
(0.106146 0.0971037 0)
(0.111689 0.103219 0)
(0.117074 0.109758 0)
(0.122273 0.116727 0)
(0.127254 0.124133 0)
(0.131982 0.131982 0)
(0.13642 0.140277 0)
(0.140525 0.149016 0)
(0.144252 0.158198 0)
(0.147554 0.167813 0)
(0.150378 0.17785 0)
(0.15267 0.18829 0)
(0.154373 0.19911 0)
(0.15543 0.210277 0)
(0.15578 0.221753 0)
(0.155365 0.233488 0)
(0.154127 0.245426 0)
(0.152011 0.257498 0)
(0.148966 0.269627 0)
(0.144948 0.281724 0)
(0.139923 0.293692 0)
(0.133863 0.305422 0)
(0.126756 0.3168 0)
(0.118605 0.327702 0)
(0.109428 0.338003 0)
(0.0992602 0.347573 0)
(0.0881575 0.356286 0)
(0.0761942 0.36402 0)
(0.0634638 0.370661 0)
(0.0500776 0.376106 0)
(0.0361624 0.380271 0)
(0.0218546 0.383086 0)
(0.00730998 0.384506 0)
(0.0032367 0.0495299 0)
(0.00970761 0.0498327 0)
(0.0161801 0.0504392 0)
(0.022658 0.0513517 0)
(0.0291387 0.0525733 0)
(0.0356219 0.0541083 0)
(0.0421071 0.055962 0)
(0.0485926 0.0581405 0)
(0.0550758 0.0606512 0)
(0.0615532 0.0635021 0)
(0.0680196 0.0667023 0)
(0.0744685 0.0702616 0)
(0.0808917 0.0741908 0)
(0.0872791 0.0785009 0)
(0.0936185 0.0832038 0)
(0.0998954 0.0883118 0)
(0.106093 0.0938371 0)
(0.112191 0.0997923 0)
(0.118167 0.10619 0)
(0.123994 0.113041 0)
(0.129645 0.120357 0)
(0.135084 0.128147 0)
(0.140277 0.13642 0)
(0.145181 0.145181 0)
(0.149752 0.154434 0)
(0.153942 0.164177 0)
(0.157697 0.174407 0)
(0.16096 0.185114 0)
(0.163671 0.196281 0)
(0.165766 0.207888 0)
(0.167178 0.219902 0)
(0.16784 0.232286 0)
(0.167683 0.244989 0)
(0.166638 0.257953 0)
(0.164641 0.271104 0)
(0.161628 0.28436 0)
(0.157544 0.297625 0)
(0.152344 0.310789 0)
(0.145992 0.323734 0)
(0.138467 0.336327 0)
(0.129764 0.348431 0)
(0.119899 0.359898 0)
(0.108905 0.370581 0)
(0.0968426 0.38033 0)
(0.0837916 0.389002 0)
(0.0698567 0.396462 0)
(0.0551639 0.402589 0)
(0.0398583 0.407281 0)
(0.0240977 0.410455 0)
(0.00806198 0.412057 0)
(0.00339028 0.0501819 0)
(0.0101689 0.050493 0)
(0.0169508 0.0511163 0)
(0.0237409 0.0520542 0)
(0.0305376 0.0533102 0)
(0.037342 0.054889 0)
(0.0441543 0.0567964 0)
(0.050974 0.0590394 0)
(0.0577997 0.061626 0)
(0.0646285 0.0645653 0)
(0.0714564 0.0678675 0)
(0.0782777 0.0715438 0)
(0.085085 0.0756061 0)
(0.0918689 0.0800673 0)
(0.0986177 0.0849411 0)
(0.105317 0.0902417 0)
(0.111951 0.0959838 0)
(0.118499 0.102182 0)
(0.124938 0.108852 0)
(0.131241 0.116007 0)
(0.137379 0.123663 0)
(0.143317 0.131832 0)
(0.149016 0.140525 0)
(0.154434 0.149752 0)
(0.159521 0.159521 0)
(0.164226 0.169834 0)
(0.16849 0.180691 0)
(0.172252 0.192086 0)
(0.175444 0.204006 0)
(0.177994 0.216432 0)
(0.179828 0.229335 0)
(0.180867 0.242679 0)
(0.181032 0.256413 0)
(0.180242 0.270475 0)
(0.178418 0.284792 0)
(0.175487 0.299274 0)
(0.171378 0.313816 0)
(0.166031 0.328299 0)
(0.159401 0.342589 0)
(0.151453 0.356539 0)