/*--------------------------------*- C++ -*----------------------------------*\
| =========                 |                                                 |
| \\      /  F ield         | OpenFOAM: The Open Source CFD Toolbox           |
|  \\    /   O peration     | Version:  2406                                  |
|   \\  /    A nd           | Website:  www.openfoam.com                      |
|    \\/     M anipulation  |                                                 |
\*---------------------------------------------------------------------------*/
FoamFile
{
    version     2.0;
    format      ascii;
    arch        "LSB;label=32;scalar=64";
    class       volScalarField;
    location    "2.25";
    object      gradTy;
}
// * * * * * * * * * * * * * * * * * * * * * * * * * * * * * * * * * * * * * //

dimensions      [0 -1 0 1 0 0 0];

internalField   nonuniform List<scalar> 
2500
(
0.0137233
0.0137907
0.0139285
0.0141345
0.0144089
0.0147521
0.0151641
0.0156449
0.0161947
0.0168133
0.0175008
0.0182569
0.0190814
0.0199738
0.0209335
0.0219597
0.0230512
0.0242069
0.0254249
0.0267033
0.0280398
0.0294315
0.0308751
0.032367
0.0339028
0.0354779
0.0370869
0.0387239
0.0403826
0.0420558
0.0437362
0.0454157
0.0470858
0.0487375
0.0503616
0.0519486
0.0534885
0.0549717
0.056388
0.0577278
0.0589815
0.0601399
0.0611943
0.0621365
0.0629592
0.0636561
0.0642217
0.0646516
0.0649405
0.0650741
0.0411148
0.04132
0.0417325
0.04235
0.0431733
0.0442027
0.0454386
0.0468812
0.0485306
0.0503867
0.0524495
0.0547183
0.0571924
0.0598704
0.0627506
0.0658304
0.0691067
0.0725755
0.0762319
0.0800699
0.0840824
0.088261
0.092596
0.0970761
0.101689
0.10642
0.111253
0.116171
0.121154
0.126182
0.131231
0.136278
0.141298
0.146263
0.151145
0.155916
0.160546
0.165006
0.169265
0.173294
0.177065
0.180549
0.18372
0.186554
0.189029
0.191125
0.192826
0.19412
0.194996
0.195421
0.0684143
0.0687581
0.0694443
0.0704733
0.0718456
0.0735618
0.0756223
0.0780275
0.0807777
0.083873
0.087313
0.091097
0.0952236
0.0996909
0.104496
0.109634
0.115102
0.120891
0.126994
0.133401
0.1401
0.147078
0.154318
0.161801
0.169508
0.177413
0.18549
0.193711
0.202042
0.210449
0.218894
0.227337
0.235735
0.244043
0.252215
0.260201
0.267953
0.275421
0.282554
0.289303
0.29562
0.301457
0.306771
0.311521
0.315668
0.31918
0.322029
0.324192
0.325654
0.326385
0.0955823
0.0960627
0.0970231
0.0984641
0.100386
0.10279
0.105676
0.109046
0.112899
0.117237
0.122057
0.127361
0.133145
0.139408
0.146145
0.153352
0.16102
0.169142
0.177706
0.186698
0.196102
0.205899
0.216068
0.22658
0.237409
0.248519
0.259875
0.271435
0.283154
0.294982
0.306868
0.318754
0.330579
0.342281
0.353794
0.365049
0.375977
0.386506
0.396566
0.406086
0.414998
0.423236
0.430736
0.43744
0.443295
0.448252
0.452271
0.455319
0.457369
0.458398
0.122529
0.123147
0.124382
0.126235
0.128708
0.131801
0.135514
0.13985
0.144809
0.150392
0.156598
0.163426
0.170875
0.178941
0.187621
0.196907
0.20679
0.217261
0.228304
0.239903
0.252037
0.264682
0.277809
0.291387
0.305376
0.319735
0.334416
0.349366
0.364527
0.379836
0.395224
0.410618
0.42594
0.441107
0.456035
0.470633
0.484811
0.498477
0.511538
0.523902
0.535479
0.546183
0.555931
0.564646
0.572257
0.578702
0.583927
0.587887
0.590548
0.591884
0.149191
0.149946
0.151456
0.153723
0.156747
0.160529
0.165072
0.170377
0.176444
0.183276
0.190872
0.199232
0.208354
0.218234
0.228868
0.240247
0.252363
0.265203
0.278749
0.292982
0.307877
0.323406
0.339533
0.356219
0.37342
0.391082
0.409148
0.427554
0.446228
0.465093
0.484064
0.503052
0.521959
0.540684
0.55912
0.577159
0.594685
0.611586
0.627745
0.643047
0.657381
0.670638
0.682714
0.693513
0.702947
0.710936
0.717413
0.722322
0.725619
0.727275
0.175501
0.176394
0.178179
0.18086
0.184436
0.188909
0.194283
0.200559
0.207739
0.215824
0.224816
0.234715
0.245519
0.257224
0.269827
0.283318
0.297687
0.312919
0.328997
0.345897
0.363591
0.382045
0.401221
0.421071
0.441543
0.462575
0.4841
0.506042
0.528316
0.55083
0.573483
0.596168
0.61877
0.641167
0.663231
0.68483
0.705827
0.726084
0.745462
0.763821
0.781025
0.796943
0.811449
0.824424
0.835762
0.845366
0.853153
0.859056
0.86302
0.865012
0.201392
0.202422
0.204484
0.207578
0.211707
0.216873
0.223079
0.230328
0.238624
0.247968
0.258362
0.269808
0.282304
0.295848
0.310435
0.326056
0.342701
0.360355
0.378996
0.398601
0.419137
0.440568
0.462848
0.485926
0.50974
0.534222
0.559293
0.584865
0.610841
0.637114
0.663568
0.690076
0.716504
0.74271
0.768542
0.793847
0.818461
0.842222
0.864964
0.886523
0.906736
0.925447
0.942504
0.957768
0.971111
0.982415
0.991584
0.998534
1.0032
1.00555
0.226793
0.227962
0.230299
0.233807
0.238489
0.244349
0.251389
0.259614
0.269028
0.279635
0.291438
0.304439
0.318639
0.334035
0.350623
0.368396
0.387343
0.407448
0.428689
0.451041
0.474469
0.498932
0.524381
0.550758
0.577997
0.606018
0.634734
0.664046
0.693843
0.724004
0.754395
0.784872
0.815281
0.845455
0.875223
0.904403
0.932808
0.960247
0.986527
1.01146
1.03484
1.0565
1.07626
1.09394
1.10941
1.12252
1.13315
1.14122
1.14663
1.14936
0.251634
0.25294
0.255553
0.259475
0.264711
0.271263
0.279138
0.288341
0.298877
0.310751
0.323969
0.338533
0.354446
0.371708
0.390316
0.410263
0.431539
0.454128
0.478009
0.503154
0.529527
0.557084
0.585774
0.615532
0.646285
0.677947
0.710421
0.743597
0.777351
0.811546
0.846031
0.880645
0.91521
0.94954
0.983435
1.01669
1.04909
1.08041
1.11043
1.13892
1.16567
1.19047
1.21309
1.23336
1.25109
1.26613
1.27833
1.28758
1.2938
1.29692
0.275839
0.277283
0.280171
0.284507
0.290295
0.297541
0.306251
0.316431
0.328091
0.341235
0.355873
0.372008
0.389646
0.408787
0.429432
0.451576
0.475209
0.500316
0.526878
0.554865
0.584241
0.614961
0.646968
0.680196
0.714564
0.74998
0.786338
0.823515
0.861377
0.899771
0.938528
0.977468
1.01639
1.05509
1.09333
1.13089
1.16751
1.20294
1.23694
1.26923
1.29957
1.32771
1.35341
1.37644
1.3966
1.41371
1.42759
1.43812
1.4452
1.44876
0.299333
0.300913
0.304076
0.308824
0.315164
0.323101
0.332645
0.343804
0.356587
0.371004
0.387064
0.404777
0.424148
0.445182
0.467882
0.492244
0.518263
0.545924
0.575209
0.60609
0.63853
0.672484
0.707892
0.744685
0.782777
0.82207
0.862449
0.903781
0.945918
0.988694
1.03192
1.0754
1.11891
1.16221
1.20505
1.24716
1.28827
1.32809
1.36633
1.40269
1.43688
1.46861
1.49761
1.52363
1.54641
1.56574
1.58145
1.59336
1.60138
1.6054
0.322037
0.323753
0.327189
0.332347
0.339236
0.347863
0.358238
0.370372
0.384278
0.399967
0.417453
0.436747
0.457859
0.480797
0.505567
0.532169
0.5606
0.59085
0.622902
0.656729
0.692298
0.72956
0.768458
0.808917
0.85085
0.894152
0.938701
0.984355
1.03095
1.07831
1.12623
1.17448
1.22283
1.271
1.31872
1.36569
1.41159
1.4561
1.49888
1.53961
1.57794
1.61355
1.64613
1.67537
1.70099
1.72275
1.74043
1.75386
1.76289
1.76742
0.343869
0.345721
0.349428
0.354994
0.362428
0.37174
0.382942
0.396047
0.411072
0.428032
0.446942
0.467819
0.490676
0.515527
0.54238
0.571241
0.602111
0.634983
0.669844
0.706671
0.745432
0.78608
0.828558
0.872791
0.918689
0.966142
1.01502
1.06518
1.11643
1.1686
1.22145
1.27474
1.32821
1.38155
1.43446
1.48661
1.53764
1.58718
1.63486
1.6803
1.72312
1.76293
1.79939
1.83214
1.86086
1.88527
1.90512
1.92019
1.93033
1.93543
0.364748
0.366734
0.370708
0.376677
0.384652
0.394643
0.406665
0.420736
0.436874
0.455098
0.475428
0.497886
0.52249
0.549258
0.578205
0.609341
0.642672
0.678197
0.715908
0.755786
0.797803
0.841916
0.888068
0.936185
0.986177
1.03793
1.09131
1.14616
1.20229
1.2595
1.31755
1.37616
1.43506
1.49391
1.55237
1.61006
1.6666
1.72156
1.77454
1.82508
1.87277
1.91717
1.95786
1.99445
2.02657
2.05388
2.0761
2.09298
2.10435
2.11006
0.384587
0.386705
0.390944
0.397311
0.405818
0.41648
0.429314
0.44434
0.461581
0.481061
0.502804
0.526837
0.553185
0.581871
0.612916
0.646337
0.682148
0.720354
0.760952
0.80393
0.849265
0.89692
0.94684
0.998954
1.05317
1.10938
1.16744
1.22719
1.28843
1.35094
1.41447
1.47872
1.54339
1.60811
1.6725
1.73615
1.79862
1.85946
1.91817
1.97427
2.02727
2.07668
2.12201
2.16282
2.19867
2.22919
2.25403
2.27291
2.28563
2.29202
0.403301
0.405548
0.410046
0.416804
0.425836
0.437158
0.450791
0.46676
0.48509
0.505811
0.528955
0.554552
0.582634
0.613233
0.646376
0.682089
0.720393
0.7613
0.804817
0.85094
0.899652
0.950922
1.0047
1.06093
1.11951
1.18033
1.24326
1.30812
1.37471
1.4428
1.51212
1.58235
1.65316
1.72415
1.79491
1.86498
1.93387
2.00106
2.06602
2.12818
2.187
2.2419
2.29234
2.3378
2.37779
2.41185
2.43959
2.4607
2.47492
2.48207
0.4208
0.423173
0.427925
0.435066
0.44461
0.456579
0.470996
0.487889
0.507291
0.529236
0.553761
0.580905
0.610707
0.643206
0.67844
0.716442
0.757244
0.800867
0.847328
0.896633
0.948774
1.00373
1.06146
1.12191
1.18499
1.25059
1.31857
1.38877
1.46098
1.53494
1.61038
1.68696
1.76431
1.84202
1.91962
1.99661
2.07245
2.14655
2.21832
2.28713
2.35234
2.4133
2.46939
2.52
2.56457
2.60257
2.63355
2.65714
2.67303
2.68103
0.436995
0.439492
0.44449
0.452002
0.462045
0.474644
0.489825
0.507621
0.528071
0.551214
0.577096
0.605763
0.637262
0.671642
0.70895
0.749232
0.792527
0.838872
0.888293
0.940809
0.996424
1.05513
1.11689
1.18167
1.24938
1.31992
1.39316
1.46892
1.54701
1.62715
1.70906
1.79238
1.87672
1.96163
2.0466
2.13107
2.21445
2.2961
2.37533
2.45143
2.52368
2.59134
2.65369
2.71003
2.75971
2.80212
2.83673
2.86309
2.88087
2.88981
0.451798
0.454412
0.459648
0.467519
0.478045
0.491252
0.507173
0.525846
0.547314
0.571625
0.598831
0.628988
0.662153
0.698384
0.737741
0.780279
0.826054
0.875114
0.9275
0.983244
1.04237
1.10487
1.17074
1.23994
1.31241
1.38806
1.46674
1.54831
1.63255
1.7192
1.80795
1.89844
1.99024
2.08287
2.17577
2.26836
2.35995
2.44983
2.53724
2.62138
2.70142
2.77651
2.84584
2.90858
2.96398
3.01134
3.05002
3.07951
3.0994
3.10942
0.465117
0.467845
0.473308
0.481522
0.49251
0.506301
0.522933
0.54245
0.564901
0.590341
0.618831
0.650437
0.685225
0.723267
0.764634
0.809397
0.857624
0.909379
0.96472
1.0237
1.08635
1.15269
1.22273
1.29645
1.37379
1.45469
1.53902
1.62663
1.7173
1.81079
1.90678
2.00488
2.10464
2.20556
2.30703
2.40841
2.50895
2.60785
2.70426
2.79728
2.88596
2.96933
3.04645
3.11638
3.17821
3.23114
3.27442
3.30745
3.32974
3.34097
0.476865
0.4797
0.485378
0.493918
0.505344
0.51969
0.536999
0.557321
0.58071
0.607233
0.636958
0.66996
0.706319
0.74612
0.789446
0.836384
0.88702
0.941435
0.999707
1.0619
1.12808
1.19829
1.27254
1.35084
1.43317
1.51946
1.60962
1.7035
1.8009
1.90157
2.00519
2.11137
2.21964
2.32946
2.44019
2.55111
2.66141
2.77021
2.87655
2.9794
3.07769
3.17033
3.25619
3.33419
3.40329
3.46252
3.51103
3.54808
3.5731
3.58572
0.486954
0.489889
0.495769
0.504613
0.51645
0.531318
0.549264
0.570343
0.594621
0.62217
0.653069
0.687405
0.72527
0.766762
0.811981
0.861031
0.914016
0.971037
1.03219
1.09758
1.16727
1.24133
1.31982
1.40277
1.49016
1.58198
1.67813
1.7785
1.8829
1.9911
2.10277
2.21753
2.33488
2.45426
2.57498
2.69627
2.81724
2.93692
3.05422
3.168
3.27702
3.38003
3.47573
3.56286
3.6402
3.70661
3.76106
3.80271
3.83086
3.84506
0.495299
0.498327
0.504392
0.513517
0.525733
0.541083
0.55962
0.581405
0.606512
0.635021
0.667023
0.702616
0.741908
0.785009
0.832038
0.883118
0.938371
0.997923
1.0619
1.13041
1.20357
1.28147
1.3642
1.45181
1.54434
1.64177
1.74407
1.85114
1.96281
2.07888
2.19902
2.32286
2.44989
2.57953
2.71104
2.8436
2.97625
3.10789
3.23734
3.36327
3.48431
3.59898
3.70581
3.8033
3.89002
3.96462
4.02589
4.07281
4.10455
4.12057
0.501819
0.50493
0.511163
0.520542
0.533102
0.54889
0.567964
0.590394
0.61626
0.645653
0.678675
0.715438
0.756061
0.800673
0.849411
0.902417
0.959838
1.02182
1.08852
1.16007
1.23663
1.31832
1.40525
1.49752
1.59521
1.69834
1.80691
1.92086
2.04006
2.16432
2.29335
2.42679
2.56413
2.70475
2.84792
2.99274
3.13816
3.28299
3.42589
3.56539
3.6999
3.82774
3.94717
4.05646
4.1539
4.23791
4.30702
4.36002
4.39591
4.41403
0.506437
0.509621
0.516001
0.525603
0.538467
0.554643
0.574196
0.597201
0.623748
0.653938
0.687885
0.725712
0.767556
0.813563
0.863888
0.918696
0.978156
1.04245
1.11174
1.18623
1.26608
1.35146
1.44252
1.53942
1.64226
1.75112
1.86604
1.98702
2.11397
2.24673
2.38506
2.52861
2.67689
2.82929
2.98502
3.14315
3.30255
3.46192
3.61976
3.77442
3.92408
4.06681
4.20058
4.32336
4.43312
4.52796
4.60614
4.66618
4.70689
4.72746
0.50908
0.512326
0.518831
0.528624
0.541746
0.558255
0.578219
0.601722
0.628861
0.65975
0.694511
0.733285
0.776223
0.823488
0.875256
0.931716
0.993063
1.0595
1.13125
1.20851
1.29151
1.38045
1.47554
1.57697
1.6849
1.79948
1.9208
2.04891
2.18378
2.32532
2.47333
2.6275
2.78736
2.95232
3.12158
3.29416
3.46886
3.64425
3.8187
3.99033
4.15706
4.31668
4.46681
4.60505
4.729
4.83637
4.92508
4.99332
5.03965
5.06307
0.509683
0.512978
0.519584
0.52953
0.542863
0.559642
0.579943
0.603857
0.631491
0.662966
0.69842
0.738006
0.78189
0.830257
0.883303
0.941239
1.00429
1.07269
1.14669
1.22654
1.3125
1.40483
1.50378
1.6096
1.72252
1.84275
1.97044
2.10573
2.24865
2.3992
2.55722
2.72248
2.89456
3.07288
3.25666
3.4449
3.63631
3.82938
4.02227
4.2129
4.39891
4.57771
4.74655
4.90257
5.04292
5.16485
5.26583
5.34364
5.39655
5.42331
0.508188
0.51152
0.518199
0.528258
0.541746
0.558728
0.579285
0.603516
0.631535
0.663474
0.699483
0.739729
0.784396
0.833686
0.887818
0.947028
1.01157
1.08171
1.15774
1.23994
1.32863
1.42411
1.5267
1.63671
1.75444
1.88017
2.01415
2.15658
2.30762
2.46731
2.63563
2.8124
2.99729
3.18977
3.3891
3.59424
3.80389
4.01641
4.22979
4.44171
4.64947
4.8501
5.04037
5.21689
5.37624
5.51511
5.63041
5.71945
5.78008
5.81078
0.504545
0.507899
0.514623
0.524751
0.538337
0.555448
0.576173
0.600616
0.6289
0.661168
0.69758
0.738319
0.783584
0.833597
0.888599
0.948852
1.01464
1.08626
1.16404
1.24831
1.33944
1.43779
1.54373
1.65766
1.77994
1.91095
2.05104
2.20051
2.35961
2.52852
2.70732
2.89595
3.09418
3.30158
3.51745
3.74079
3.97027
4.20414
4.44025
4.67598
4.9083
5.13376
5.34857
5.54873
5.73012
5.88873
6.0208
6.12301
6.19273
6.22806
0.498716
0.502076
0.508813
0.518964
0.532584
0.549746
0.570543
0.595085
0.623504
0.655953
0.692604
0.733651
0.779311
0.829824
0.885453
0.946487
1.01324
1.08604
1.16525
1.25127
1.34449
1.44535
1.5543
1.67178
1.79828
1.93425
2.08016
2.23643
2.40344
2.58151
2.77087
2.9716
3.18361
3.40659
3.63996
3.88278
4.13371
4.39095
4.65216
4.91448
5.17445
5.42811
5.67102
5.89841
6.10535
6.28695
6.43863
6.5563
6.6367
6.67749
0.490671
0.49402
0.500737
0.510861
0.524449
0.541577
0.562343
0.586864
0.615279
0.64775
0.684458
0.725613
0.771445
0.822213
0.878202
0.939725
1.00712
1.08077
1.16106
1.24843
1.34334
1.44629
1.5578
1.6784
1.80867
1.94918
2.1005
2.2632
2.43783
2.62486
2.82469
3.0376
3.26368
3.5028
3.75451
4.01801
4.292
4.57464
4.86347
5.15532
5.44631
5.73187
6.00682
6.26549
6.50195
6.71027
6.88481
7.02058
7.1135
7.16071
0.480393
0.483715
0.490377
0.500421
0.513905
0.53091
0.551537
0.575909
0.604171
0.636492
0.673065
0.714111
0.759874
0.810631
0.866686
0.928375
0.99607
1.07017
1.15113
1.23942
1.33556
1.4401
1.55365
1.67683
1.81032
1.9548
2.11099
2.27962
2.46139
2.65699
2.86702
3.09199
3.33222
3.58781
3.85855
4.14378
4.44232
4.75236
5.0713
5.39572
5.72126
6.0427
6.35397
6.64835
6.91871
7.15787
7.35893
7.51574
7.62327
7.67796
0.467879
0.471155
0.477726
0.487634
0.500941
0.517729
0.538102
0.562189
0.590141
0.622132
0.658366
0.699071
0.744507
0.794964
0.850766
0.912272
0.979879
1.05402
1.13519
1.2239
1.32072
1.42629
1.54127
1.66638
1.80242
1.95018
2.11054
2.2844
2.47265
2.67621
2.89592
3.13256
3.38675
3.65889
3.94903
4.25677
4.58113
4.92035
5.27178
5.63173
5.99538
6.35674
6.70876
7.04351
7.35244
7.62686
7.85837
8.03942
8.16381
8.22716
0.453138
0.456349
0.462791
0.472507
0.485559
0.502032
0.522034
0.545695
0.573171
0.604643
0.64032
0.680441
0.725275
0.775126
0.830333
0.891277
0.958378
1.0321
1.11297
1.20155
1.29846
1.4044
1.52011
1.64641
1.78418
1.93439
2.09804
2.27623
2.47006
2.6807
2.90928
3.15688
3.42449
3.71285
4.02237
4.35301
4.70402
5.07382
5.45976
5.8579
6.26293
6.66809
7.06521
7.44494
7.79712
8.11128
8.37725
8.58583
8.72941
8.80261
0.436196
0.439322
0.445597
0.455061
0.467779
0.483837
0.503344
0.526433
0.553263
0.584018
0.618914
0.658194
0.702138
0.751059
0.80531
0.865288
0.931435
1.00424
1.08426
1.1721
1.26844
1.37401
1.48966
1.61628
1.75487
1.90651
2.07239
2.25379
2.45204
2.66858
2.90487
3.16233
3.44235
3.74611
4.07446
4.42776
4.80564
5.20677
5.62855
6.06689
6.51599
6.96823
7.41424
7.84312
8.24285
8.60094
8.90514
9.14434
9.30933
9.39354
0.417091
0.420114
0.426181
0.435334
0.447637
0.463178
0.482065
0.504432
0.53044
0.560276
0.594158
0.632333
0.675087
0.72274
0.775655
0.834242
0.89896
0.970322
1.0489
1.13535
1.23038
1.33479
1.44948
1.57544
1.71378
1.86569
2.03254
2.21579
2.41702
2.63795
2.88037
3.14612
3.43701
3.7547
4.10059
4.47552
4.8796
5.31183
5.76977
6.24923
6.74394
7.24544
7.74307
8.22421
8.67483
9.08016
9.42566
9.69805
9.88627
9.98246
0.39588
0.39878
0.404599
0.41338
0.425188
0.440107
0.458247
0.479742
0.504751
0.533461
0.566091
0.60289
0.644146
0.690183
0.741369
0.798123
0.860914
0.930271
1.00679
1.09114
1.18409
1.28646
1.39923
1.52344
1.66031
1.81118
1.97753
2.16102
2.36348
2.58692
2.83346
3.10537
3.40493
3.73435
4.09559
4.49009
4.9185
5.38026
5.87319
6.39307
6.93323
7.48438
8.03453
8.5693
9.07245
9.52683
9.91538
10.2225
10.435
10.5438
0.372635
0.375391
0.380923
0.389273
0.400503
0.414698
0.431965
0.452435
0.476266
0.503643
0.534782
0.569932
0.609377
0.653442
0.702498
0.756963
0.817313
0.884086
0.95789
1.03941
1.12944
1.22884
1.33863
1.45992
1.59401
1.74233
1.90651
2.0884
2.29004
2.5137
2.76188
3.03723
3.34255
3.68059
4.05393
4.46467
4.91405
5.40206
5.92686
6.48429
7.06737
7.66601
8.26697
8.85408
9.40891
9.91179
10.3431
10.6848
10.9217
11.043
0.347442
0.350036
0.355242
0.363102
0.373675
0.387043
0.403311
0.422607
0.445083
0.470921
0.500331
0.533557
0.570879
0.612617
0.659135
0.710851
0.768238
0.831833
0.902248
0.98018
1.06642
1.16187
1.26756
1.38467
1.51453
1.65868
1.81886
1.99704
2.19549
2.41673
2.66355
2.93901
3.24638
3.58898
3.96998
4.39215
4.85742
5.36632
5.91746
6.50682
7.12724
7.76797
8.41459
9.04928
9.6515
10.1992
10.6702
11.0442
11.3038
11.4369
0.320407
0.322819
0.327662
0.334973
0.344812
0.357255
0.372402
0.390377
0.411326
0.435423
0.46287
0.493903
0.528793
0.567849
0.611427
0.659934
0.713833
0.773652
0.839998
0.91356
0.99513
1.08561
1.18605
1.29764
1.42176
1.55999
1.71415
1.88634
2.07896
2.29473
2.53673
2.80836
3.11329
3.45535
3.8383
4.26554
4.73964
5.26175
5.83095
6.44348
7.0921
7.76559
8.44859
9.12185
9.76303
10.348
10.8523
11.2533
11.5322
11.6753
0.291648
0.293861
0.298304
0.305013
0.314042
0.325465
0.339375
0.355888
0.375143
0.397303
0.422562
0.451141
0.483298
0.519329
0.559573
0.604419
0.654313
0.709766
0.771364
0.839779
0.915786
1.00028
1.09428
1.19899
1.31578
1.44625
1.59228
1.756
1.93992
2.14689
2.38019
2.64346
2.9407
3.27616
3.65409
4.07843
4.55235
5.07756
5.65364
6.27717
6.941
7.63366
8.33919
9.03733
9.70439
10.3146
10.8418
11.2618
11.5542
11.7044
0.261301
0.263298
0.267307
0.273361
0.281511
0.291824
0.304386
0.319305
0.336708
0.356748
0.379603
0.405479
0.434617
0.467293
0.503824
0.544574
0.589965
0.640477
0.696667
0.759174
0.828738
0.906216
0.992602
1.08905
1.19692
1.31777
1.45346
1.60614
1.77833
1.97293
2.1933
2.44323
2.72692
3.04887
3.41369
3.82572
4.28858
4.80449
5.37349
5.99256
6.6548
7.34882
8.05847
8.76306
9.43821
10.0573
10.5932
11.0208
11.3187
11.4718
0.229514
0.231279
0.234823
0.240176
0.247382
0.256502
0.267614
0.280815
0.296221
0.313968
0.334219
0.357162
0.383013
0.412024
0.444486
0.480732
0.521147
0.566174
0.616326
0.672197
0.734473
0.803954
0.881575
0.968426
1.06579
1.17516
1.29832
1.43735
1.5947
1.77322
1.97625
2.20756
2.47138
2.7723
3.11506
3.50421
3.94367
4.43598
4.98159
5.57791
6.2185
6.89236
7.5837
8.2721
8.93337
9.54093
10.0677
10.4885
10.782
10.9329
0.19645
0.19797
0.201021
0.205629
0.211832
0.219685
0.229255
0.240627
0.253902
0.269202
0.286667
0.306465
0.328785
0.353851
0.381918
0.413283
0.448287
0.487326
0.530857
0.579412
0.63361
0.694171
0.761942
0.837916
0.923264
1.01937
1.12787
1.25069
1.39015
1.54892
1.73015
1.93746
2.17493
2.44698
2.75828
3.11333
3.51609
3.96928
4.47362
5.02699
5.62354
6.25309
6.90078
7.5473
8.16961
8.74234
9.23963
9.63723
9.91469
10.0575
0.162282
0.163545
0.166079
0.169905
0.175056
0.181575
0.189522
0.198966
0.209995
0.22271
0.23723
0.253696
0.27227
0.29314
0.316524
0.342673
0.371879
0.40448
0.440867
0.481497
0.526901
0.577704
0.634638
0.698567
0.770513
0.851689
0.943538
1.04777
1.16644
1.30194
1.45711
1.63522
1.83997
2.07544
2.3459
2.65557
3.00818
3.4064
3.85111
4.3406
4.86985
5.42983
6.00728
6.58483
7.14167
7.65484
8.1009
8.45782
8.70703
8.83539
0.127194
0.12819
0.130189
0.133202
0.137256
0.142387
0.148642
0.156077
0.164761
0.174775
0.186214
0.199191
0.213835
0.230297
0.248752
0.2694
0.292477
0.318254
0.347048
0.379226
0.415221
0.455539
0.500776
0.551639
0.608964
0.67375
0.747187
0.830698
0.925977
1.03504
1.16026
1.30439
1.47057
1.66226
1.88313
2.1368
2.42653
2.75469
3.12216
3.52768
3.96713
4.43306
4.9144
5.39654
5.86201
6.29143
6.66498
6.96407
7.17299
7.28067
0.0913786
0.0920974
0.0935482
0.0957232
0.0986459
0.102344
0.106852
0.112211
0.118472
0.125692
0.133943
0.143305
0.153873
0.165757
0.179084
0.194002
0.210683
0.229325
0.250161
0.273463
0.299546
0.328787
0.361624
0.398583
0.440284
0.487472
0.541035
0.602039
0.671757
0.751709
0.843686
0.94978
1.07238
1.21412
1.37782
1.56628
1.78201
2.02688
2.30165
2.60544
2.93521
3.28539
3.6476
4.01084
4.36184
4.6859
4.96797
5.1939
5.35177
5.43322
0.0550352
0.0554577
0.056336
0.0576503
0.0594149
0.0616473
0.0643684
0.0676034
0.0713827
0.0757424
0.0807247
0.0863792
0.0927634
0.0999442
0.107999
0.117018
0.127106
0.138385
0.150996
0.165105
0.180906
0.19863
0.218546
0.240977
0.266306
0.294992
0.327584
0.364741
0.407255
0.456069
0.512302
0.577258
0.65243
0.739479
0.840169
0.956267
1.08937
1.24068
1.4107
1.59891
1.80345
2.02088
2.246
2.47193
2.6904
2.89222
3.06797
3.20882
3.30729
3.35827
0.0183786
0.0185121
0.0188034
0.0192425
0.0198325
0.0205788
0.0214885
0.0225701
0.0238337
0.0252914
0.0269574
0.0288483
0.0309836
0.0333855
0.0360802
0.0390979
0.0424738
0.0462487
0.0504705
0.0551948
0.0604873
0.0664252
0.0730998
0.0806198
0.0891146
0.0987392
0.10968
0.122159
0.136446
0.15286
0.171782
0.193655
0.218987
0.248345
0.282331
0.321549
0.366547
0.417739
0.475303
0.539072
0.608422
0.682183
0.758594
0.835321
0.909548
0.978148
1.03791
1.08583
1.11936
1.13681
)
;

boundaryField
{
    walls
    {
        type            calculated;
        value           nonuniform List<scalar> 
200
(
0
0
0
0
0
0
0
0
0
0
0
0
0
0
0
0
0
0
0
0
0
0
0
0
0
0
0
0
0
0
0
0
0
0
0
0
0
0
0
0
0
0
0
0
0
0
0
0
0
0
0.0137233
0.0411148
0.0684143
0.0955823
0.122529
0.149191
0.175501
0.201392
0.226793
0.251634
0.275839
0.299333
0.322037
0.343869
0.364748
0.384587
0.403301
0.4208
0.436995
0.451798
0.465117
0.476865
0.486954
0.495299
0.501819
0.506437
0.50908
0.509683
0.508188
0.504545
0.498716
0.490671
0.480393
0.467879
0.453138
0.436196
0.417091
0.39588
0.372635
0.347442
0.320407
0.291648
0.261301
0.229514
0.19645
0.162282
0.127194
0.0913786
0.0550352
0.0183786
0.0650741
0.195421
0.326385
0.458398
0.591884
0.727275
0.865012
1.00555
1.14936
1.29692
1.44876
1.6054
1.76742
1.93543
2.11006
2.29202
2.48207
2.68103
2.88981
3.10942
3.34097
3.58572
3.84506
4.12057
4.41403
4.72746
5.06307
5.42331
5.81078
6.22806
6.67749
7.16071
7.67796
8.22716
8.80261
9.39354
9.98246
10.5438
11.043
11.4369
11.6753
11.7044
11.4718
10.9329
10.0575
8.83539
7.28067
5.43322
3.35827
1.13681
0
0
0
0
0
0
0
0
0
0
0
0
0
0
0
0
0
0
0
0
0
0
0
0
0
0
0
0
0
0
0
0
0
0
0
0
0
0
0
0
0
0
0
0
0
0
0
0
0
0
)
;
    }
    frontAndBack
    {
        type            empty;
    }
}


// ************************************************************************* //
