/*--------------------------------*- C++ -*----------------------------------*\
| =========                 |                                                 |
| \\      /  F ield         | OpenFOAM: The Open Source CFD Toolbox           |
|  \\    /   O peration     | Version:  2406                                  |
|   \\  /    A nd           | Website:  www.openfoam.com                      |
|    \\/     M anipulation  |                                                 |
\*---------------------------------------------------------------------------*/
FoamFile
{
    version     2.0;
    format      ascii;
    arch        "LSB;label=32;scalar=64";
    class       volScalarField;
    location    "2.25";
    object      gradTx;
}
// * * * * * * * * * * * * * * * * * * * * * * * * * * * * * * * * * * * * * //

dimensions      [0 -1 0 1 0 0 0];

internalField   nonuniform List<scalar> 
2500
(
0.0137233
0.0411148
0.0684143
0.0955823
0.122529
0.149191
0.175501
0.201392
0.226793
0.251634
0.275839
0.299333
0.322037
0.343869
0.364748
0.384587
0.403301
0.4208
0.436995
0.451798
0.465117
0.476865
0.486954
0.495299
0.501819
0.506437
0.50908
0.509683
0.508188
0.504545
0.498716
0.490671
0.480393
0.467879
0.453138
0.436196
0.417091
0.39588
0.372635
0.347442
0.320407
0.291648
0.261301
0.229514
0.19645
0.162282
0.127194
0.0913786
0.0550352
0.0183786
0.0137907
0.04132
0.0687581
0.0960627
0.123147
0.149946
0.176394
0.202422
0.227962
0.25294
0.277283
0.300913
0.323753
0.345721
0.366734
0.386705
0.405548
0.423173
0.439492
0.454412
0.467845
0.4797
0.489889
0.498327
0.50493
0.509621
0.512326
0.512978
0.51152
0.507899
0.502076
0.49402
0.483715
0.471155
0.456349
0.439322
0.420114
0.39878
0.375391
0.350036
0.322819
0.293861
0.263298
0.231279
0.19797
0.163545
0.12819
0.0920974
0.0554577
0.0185121
0.0139285
0.0417325
0.0694443
0.0970231
0.124382
0.151456
0.178179
0.204484
0.230299
0.255553
0.280171
0.304076
0.327189
0.349428
0.370708
0.390944
0.410046
0.427925
0.44449
0.459648
0.473308
0.485378
0.495769
0.504392
0.511163
0.516001
0.518831
0.519584
0.518199
0.514623
0.508813
0.500737
0.490377
0.477726
0.462791
0.445597
0.426181
0.404599
0.380923
0.355242
0.327662
0.298304
0.267307
0.234823
0.201021
0.166079
0.130189
0.0935482
0.056336
0.0188034
0.0141345
0.04235
0.0704733
0.0984641
0.126235
0.153723
0.18086
0.207578
0.233807
0.259475
0.284507
0.308824
0.332347
0.354994
0.376677
0.397311
0.416804
0.435066
0.452002
0.467519
0.481522
0.493918
0.504613
0.513517
0.520542
0.525603
0.528624
0.52953
0.528258
0.524751
0.518964
0.510861
0.500421
0.487634
0.472507
0.455061
0.435334
0.41338
0.389273
0.363102
0.334973
0.305013
0.273361
0.240176
0.205629
0.169905
0.133202
0.0957232
0.0576503
0.0192425
0.0144089
0.0431733
0.0718456
0.100386
0.128708
0.156747
0.184436
0.211707
0.238489
0.264711
0.290295
0.315164
0.339236
0.362428
0.384652
0.405818
0.425836
0.44461
0.462045
0.478045
0.49251
0.505344
0.51645
0.525733
0.533102
0.538467
0.541746
0.542863
0.541746
0.538337
0.532584
0.524449
0.513905
0.500941
0.485559
0.467779
0.447637
0.425188
0.400503
0.373675
0.344812
0.314042
0.281511
0.247382
0.211832
0.175056
0.137256
0.0986459
0.0594149
0.0198325
0.0147521
0.0442027
0.0735618
0.10279
0.131801
0.160529
0.188909
0.216873
0.244349
0.271263
0.297541
0.323101
0.347863
0.37174
0.394643
0.41648
0.437158
0.456579
0.474644
0.491252
0.506301
0.51969
0.531318
0.541083
0.54889
0.554643
0.558255
0.559642
0.558728
0.555448
0.549746
0.541577
0.53091
0.517729
0.502032
0.483837
0.463178
0.440107
0.414698
0.387043
0.357255
0.325465
0.291824
0.256502
0.219685
0.181575
0.142387
0.102344
0.0616473
0.0205788
0.0151641
0.0454386
0.0756223
0.105676
0.135514
0.165072
0.194283
0.223079
0.251389
0.279138
0.306251
0.332645
0.358238
0.382942
0.406665
0.429314
0.450791
0.470996
0.489825
0.507173
0.522933
0.536999
0.549264
0.55962
0.567964
0.574196
0.578219
0.579943
0.579285
0.576173
0.570543
0.562343
0.551537
0.538102
0.522034
0.503344
0.482065
0.458247
0.431965
0.403311
0.372402
0.339375
0.304386
0.267614
0.229255
0.189522
0.148642
0.106852
0.0643684
0.0214885
0.0156449
0.0468812
0.0780275
0.109046
0.13985
0.170377
0.200559
0.230328
0.259614
0.288341
0.316431
0.343804
0.370372
0.396047
0.420736
0.44434
0.46676
0.487889
0.507621
0.525846
0.54245
0.557321
0.570343
0.581405
0.590394
0.597201
0.601722
0.603857
0.603516
0.600616
0.595085
0.586864
0.575909
0.562189
0.545695
0.526433
0.504432
0.479742
0.452435
0.422607
0.390377
0.355888
0.319305
0.280815
0.240627
0.198966
0.156077
0.112211
0.0676034
0.0225701
0.0161947
0.0485306
0.0807777
0.112899
0.144809
0.176444
0.207739
0.238624
0.269028
0.298877
0.328091
0.356587
0.384278
0.411072
0.436874
0.461581
0.48509
0.507291
0.528071
0.547314
0.564901
0.58071
0.594621
0.606512
0.61626
0.623748
0.628861
0.631491
0.631535
0.6289
0.623504
0.615279
0.604171
0.590141
0.573171
0.553263
0.53044
0.504751
0.476266
0.445083
0.411326
0.375143
0.336708
0.296221
0.253902
0.209995
0.164761
0.118472
0.0713827
0.0238337
0.0168133
0.0503867
0.083873
0.117237
0.150392
0.183276
0.215824
0.247968
0.279635
0.310751
0.341235
0.371004
0.399967
0.428032
0.455098
0.481061
0.505811
0.529236
0.551214
0.571625
0.590341
0.607233
0.62217
0.635021
0.645653
0.653938
0.65975
0.662966
0.663474
0.661168
0.655953
0.64775
0.636492
0.622132
0.604643
0.584018
0.560276
0.533461
0.503643
0.470921
0.435423
0.397303
0.356748
0.313968
0.269202
0.22271
0.174775
0.125692
0.0757424
0.0252914
0.0175008
0.0524495
0.087313
0.122057
0.156598
0.190872
0.224816
0.258362
0.291438
0.323969
0.355873
0.387064
0.417453
0.446942
0.475428
0.502804
0.528955
0.553761
0.577096
0.598831
0.618831
0.636958
0.653069
0.667023
0.678675
0.687885
0.694511
0.69842
0.699483
0.69758
0.692604
0.684458
0.673065
0.658366
0.64032
0.618914
0.594158
0.566091
0.534782
0.500331
0.46287
0.422562
0.379603
0.334219
0.286667
0.23723
0.186214
0.133943
0.0807247
0.0269574
0.0182569
0.0547183
0.091097
0.127361
0.163426
0.199232
0.234715
0.269808
0.304439
0.338533
0.372008
0.404777
0.436747
0.467819
0.497886
0.526837
0.554552
0.580905
0.605763
0.628988
0.650437
0.66996
0.687405
0.702616
0.715438
0.725712
0.733285
0.738006
0.739729
0.738319
0.733651
0.725613
0.714111
0.699071
0.680441
0.658194
0.632333
0.60289
0.569932
0.533557
0.493903
0.451141
0.405479
0.357162
0.306465
0.253696
0.199191
0.143305
0.0863792
0.0288483
0.0190814
0.0571924
0.0952236
0.133145
0.170875
0.208354
0.245519
0.282304
0.318639
0.354446
0.389646
0.424148
0.457859
0.490676
0.52249
0.553185
0.582634
0.610707
0.637262
0.662153
0.685225
0.706319
0.72527
0.741908
0.756061
0.767556
0.776223
0.78189
0.784396
0.783584
0.779311
0.771445
0.759874
0.744507
0.725275
0.702138
0.675087
0.644146
0.609377
0.570879
0.528793
0.483298
0.434617
0.383013
0.328785
0.27227
0.213835
0.153873
0.0927634
0.0309836
0.0199738
0.0598704
0.0996909
0.139408
0.178941
0.218234
0.257224
0.295848
0.334035
0.371708
0.408787
0.445182
0.480797
0.515527
0.549258
0.581871
0.613233
0.643206
0.671642
0.698384
0.723267
0.74612
0.766762
0.785009
0.800673
0.813563
0.823488
0.830257
0.833686
0.833597
0.829824
0.822213
0.810631
0.794964
0.775126
0.751059
0.72274
0.690183
0.653442
0.612617
0.567849
0.519329
0.467293
0.412024
0.353851
0.29314
0.230297
0.165757
0.0999442
0.0333855
0.0209335
0.0627506
0.104496
0.146145
0.187621
0.228868
0.269827
0.310435
0.350623
0.390316
0.429432
0.467882
0.505567
0.54238
0.578205
0.612916
0.646376
0.67844
0.70895
0.737741
0.764634
0.789446
0.811981
0.832038
0.849411
0.863888
0.875256
0.883303
0.887818
0.888599
0.885453
0.878202
0.866686
0.850766
0.830333
0.80531
0.775655
0.741369
0.702498
0.659135
0.611427
0.559573
0.503824
0.444486
0.381918
0.316524
0.248752
0.179084
0.107999
0.0360802
0.0219597
0.0658304
0.109634
0.153352
0.196907
0.240247
0.283318
0.326056
0.368396
0.410263
0.451576
0.492244
0.532169
0.571241
0.609341
0.646337
0.682089
0.716442
0.749232
0.780279
0.809397
0.836384
0.861031
0.883118
0.902417
0.918696
0.931716
0.941239
0.947028
0.948852
0.946487
0.939725
0.928375
0.912272
0.891277
0.865288
0.834242
0.798123
0.756963
0.710851
0.659934
0.604419
0.544574
0.480732
0.413283
0.342673
0.2694
0.194002
0.117018
0.0390979
0.0230512
0.0691067
0.115102
0.16102
0.20679
0.252363
0.297687
0.342701
0.387343
0.431539
0.475209
0.518263
0.5606
0.602111
0.642672
0.682148
0.720393
0.757244
0.792527
0.826054
0.857624
0.88702
0.914016
0.938371
0.959838
0.978156
0.993063
1.00429
1.01157
1.01464
1.01324
1.00712
0.99607
0.979879
0.958378
0.931435
0.89896
0.860914
0.817313
0.768238
0.713833
0.654313
0.589965
0.521147
0.448287
0.371879
0.292477
0.210683
0.127106
0.0424738
0.0242069
0.0725755
0.120891
0.169142
0.217261
0.265203
0.312919
0.360355
0.407448
0.454128
0.500316
0.545924
0.59085
0.634983
0.678197
0.720354
0.7613
0.800867
0.838872
0.875114
0.909379
0.941435
0.971037
0.997923
1.02182
1.04245
1.0595
1.07269
1.08171
1.08626
1.08604
1.08077
1.07017
1.05402
1.0321
1.00424
0.970322
0.930271
0.884086
0.831833
0.773652
0.709766
0.640477
0.566174
0.487326
0.40448
0.318254
0.229325
0.138385
0.0462487
0.0254249
0.0762319
0.126994
0.177706
0.228304
0.278749
0.328997
0.378996
0.428689
0.478009
0.526878
0.575209
0.622902
0.669844
0.715908
0.760952
0.804817
0.847328
0.888293
0.9275
0.96472
0.999707
1.03219
1.0619
1.08852
1.11174
1.13125
1.14669
1.15774
1.16404
1.16525
1.16106
1.15113
1.13519
1.11297
1.08426
1.0489
1.00679
0.95789
0.902248
0.839998
0.771364
0.696667
0.616326
0.530857
0.440867
0.347048
0.250161
0.150996
0.0504705
0.0267033
0.0800699
0.133401
0.186698
0.239903
0.292982
0.345897
0.398601
0.451041
0.503154
0.554865
0.60609
0.656729
0.706671
0.755786
0.80393
0.85094
0.896633
0.940809
0.983244
1.0237
1.0619
1.09758
1.13041
1.16007
1.18623
1.20851
1.22654
1.23994
1.24831
1.25127
1.24843
1.23942
1.2239
1.20155
1.1721
1.13535
1.09114
1.03941
0.98018
0.91356
0.839779
0.759174
0.672197
0.579412
0.481497
0.379226
0.273463
0.165105
0.0551948
0.0280398
0.0840824
0.1401
0.196102
0.252037
0.307877
0.363591
0.419137
0.474469
0.529527
0.584241
0.63853
0.692298
0.745432
0.797803
0.849265
0.899652
0.948774
0.996424
1.04237
1.08635
1.12808
1.16727
1.20357
1.23663
1.26608
1.29151
1.3125
1.32863
1.33944
1.34449
1.34334
1.33556
1.32072
1.29846
1.26844
1.23038
1.18409
1.12944
1.06642
0.99513
0.915786
0.828738
0.734473
0.63361
0.526901
0.415221
0.299546
0.180906
0.0604873
0.0294315
0.088261
0.147078
0.205899
0.264682
0.323406
0.382045
0.440568
0.498932
0.557084
0.614961
0.672484
0.72956
0.78608
0.841916
0.89692
0.950922
1.00373
1.05513
1.10487
1.15269
1.19829
1.24133
1.28147
1.31832
1.35146
1.38045
1.40483
1.42411
1.43779
1.44535
1.44629
1.4401
1.42629
1.4044
1.37401
1.33479
1.28646
1.22884
1.16187
1.08561
1.00028
0.906216
0.803954
0.694171
0.577704
0.455539
0.328787
0.19863
0.0664252
0.0308751
0.092596
0.154318
0.216068
0.277809
0.339533
0.401221
0.462848
0.524381
0.585774
0.646968
0.707892
0.768458
0.828558
0.888068
0.94684
1.0047
1.06146
1.11689
1.17074
1.22273
1.27254
1.31982
1.3642
1.40525
1.44252
1.47554
1.50378
1.5267
1.54373
1.5543
1.5578
1.55365
1.54127
1.52011
1.48966
1.44948
1.39923
1.33863
1.26756
1.18605
1.09428
0.992602
0.881575
0.761942
0.634638
0.500776
0.361624
0.218546
0.0730998
0.032367
0.0970761
0.161801
0.22658
0.291387
0.356219
0.421071
0.485926
0.550758
0.615532
0.680196
0.744685
0.808917
0.872791
0.936185
0.998954
1.06093
1.12191
1.18167
1.23994
1.29645
1.35084
1.40277
1.45181
1.49752
1.53942
1.57697
1.6096
1.63671
1.65766
1.67178
1.6784
1.67683
1.66638
1.64641
1.61628
1.57544
1.52344
1.45992
1.38467
1.29764
1.19899
1.08905
0.968426
0.837916
0.698567
0.551639
0.398583
0.240977
0.0806198
0.0339028
0.101689
0.169508
0.237409
0.305376
0.37342
0.441543
0.50974
0.577997
0.646285
0.714564
0.782777
0.85085
0.918689
0.986177
1.05317
1.11951
1.18499
1.24938
1.31241
1.37379
1.43317
1.49016
1.54434
1.59521
1.64226
1.6849
1.72252
1.75444
1.77994
1.79828
1.80867
1.81032
1.80242
1.78418
1.75487
1.71378
1.66031
1.59401
1.51453
1.42176
1.31578
1.19692
1.06579
0.923264
0.770513
0.608964
0.440284
0.266306
0.0891146
0.0354779
0.10642
0.177413
0.248519
0.319735
0.391082
0.462575
0.534222
0.606018
0.677947
0.74998
0.82207
0.894152
0.966142
1.03793
1.10938
1.18033
1.25059
1.31992
1.38806
1.45469
1.51946
1.58198
1.64177
1.69834
1.75112
1.79948
1.84275
1.88017
1.91095
1.93425
1.94918
1.9548
1.95018
1.93439
1.90651
1.86569
1.81118
1.74233
1.65868
1.55999
1.44625
1.31777
1.17516
1.01937
0.851689
0.67375
0.487472
0.294992
0.0987392
0.0370869
0.111253
0.18549
0.259875
0.334416
0.409148
0.4841
0.559293
0.634734
0.710421
0.786338
0.862449
0.938701
1.01502
1.09131
1.16744
1.24326
1.31857
1.39316
1.46674
1.53902
1.60962
1.67813
1.74407
1.80691
1.86604
1.9208
1.97044
2.01415
2.05104
2.08016
2.1005
2.11099
2.11054
2.09804
2.07239
2.03254
1.97753
1.90651
1.81886
1.71415
1.59228
1.45346
1.29832
1.12787
0.943538
0.747187
0.541035
0.327584
0.10968
0.0387239
0.116171
0.193711
0.271435
0.349366
0.427554
0.506042
0.584865
0.664046
0.743597
0.823515
0.903781
0.984355
1.06518
1.14616
1.22719
1.30812
1.38877
1.46892
1.54831
1.62663
1.7035
1.7785
1.85114
1.92086
1.98702
2.04891
2.10573
2.15658
2.20051
2.23643
2.2632
2.27962
2.2844
2.27623
2.25379
2.21579
2.16102
2.0884
1.99704
1.88634
1.756
1.60614
1.43735
1.25069
1.04777
0.830698
0.602039
0.364741
0.122159
0.0403826
0.121154
0.202042
0.283154
0.364527
0.446228
0.528316
0.610841
0.693843
0.777351
0.861377
0.945918
1.03095
1.11643
1.20229
1.28843
1.37471
1.46098
1.54701
1.63255
1.7173
1.8009
1.8829
1.96281
2.04006
2.11397
2.18378
2.24865
2.30762
2.35961
2.40344
2.43783
2.46139
2.47265
2.47006
2.45204
2.41702
2.36348
2.29004
2.19549
2.07896
1.93992
1.77833
1.5947
1.39015
1.16644
0.925977
0.671757
0.407255
0.136446
0.0420558
0.126182
0.210449
0.294982
0.379836
0.465093
0.55083
0.637114
0.724004
0.811546
0.899771
0.988694
1.07831
1.1686
1.2595
1.35094
1.4428
1.53494
1.62715
1.7192
1.81079
1.90157
1.9911
2.07888
2.16432
2.24673
2.32532
2.3992
2.46731
2.52852
2.58151
2.62486
2.65699
2.67621
2.6807
2.66858
2.63795
2.58692
2.5137
2.41673
2.29473
2.14689
1.97293
1.77322
1.54892
1.30194
1.03504
0.751709
0.456069
0.15286
0.0437362
0.131231
0.218894
0.306868
0.395224
0.484064
0.573483
0.663568
0.754395
0.846031
0.938528
1.03192
1.12623
1.22145
1.31755
1.41447
1.51212
1.61038
1.70906
1.80795
1.90678
2.00519
2.10277
2.19902
2.29335
2.38506
2.47333
2.55722
2.63563
2.70732
2.77087
2.82469
2.86702
2.89592
2.90928
2.90487
2.88037
2.83346
2.76188
2.66355
2.53673
2.38019
2.1933
1.97625
1.73015
1.45711
1.16026
0.843686
0.512302
0.171782
0.0454157
0.136278
0.227337
0.318754
0.410618
0.503052
0.596168
0.690076
0.784872
0.880645
0.977468
1.0754
1.17448
1.27474
1.37616
1.47872
1.58235
1.68696
1.79238
1.89844
2.00488
2.11137
2.21753
2.32286
2.42679
2.52861
2.6275
2.72248
2.8124
2.89595
2.9716
3.0376
3.09199
3.13256
3.15688
3.16233
3.14612
3.10537
3.03723
2.93901
2.80836
2.64346
2.44323
2.20756
1.93746
1.63522
1.30439
0.94978
0.577258
0.193655
0.0470858
0.141298
0.235735
0.330579
0.42594
0.521959
0.61877
0.716504
0.815281
0.91521
1.01639
1.11891
1.22283
1.32821
1.43506
1.54339
1.65316
1.76431
1.87672
1.99024
2.10464
2.21964
2.33488
2.44989
2.56413
2.67689
2.78736
2.89456
2.99729
3.09418
3.18361
3.26368
3.33222
3.38675
3.42449
3.44235
3.43701
3.40493
3.34255
3.24638
3.11329
2.9407
2.72692
2.47138
2.17493
1.83997
1.47057
1.07238
0.65243
0.218987
0.0487375
0.146263
0.244043
0.342281
0.441107
0.540684
0.641167
0.74271
0.845455
0.94954
1.05509
1.16221
1.271
1.38155
1.49391
1.60811
1.72415
1.84202
1.96163
2.08287
2.20556
2.32946
2.45426
2.57953
2.70475
2.82929
2.95232
3.07288
3.18977
3.30158
3.40659
3.5028
3.58781
3.65889
3.71285
3.74611
3.7547
3.73435
3.68059
3.58898
3.45535
3.27616
3.04887
2.7723
2.44698
2.07544
1.66226
1.21412
0.739479
0.248345
0.0503616
0.151145
0.252215
0.353794
0.456035
0.55912
0.663231
0.768542
0.875223
0.983435
1.09333
1.20505
1.31872
1.43446
1.55237
1.6725
1.79491
1.91962
2.0466
2.17577
2.30703
2.44019
2.57498
2.71104
2.84792
2.98502
3.12158
3.25666
3.3891
3.51745
3.63996
3.75451
3.85855
3.94903
4.02237
4.07446
4.10059
4.09559
4.05393
3.96998
3.8383
3.65409
3.41369
3.11506
2.75828
2.3459
1.88313
1.37782
0.840169
0.282331
0.0519486
0.155916
0.260201
0.365049
0.470633
0.577159
0.68483
0.793847
0.904403
1.01669
1.13089
1.24716
1.36569
1.48661
1.61006
1.73615
1.86498
1.99661
2.13107
2.26836
2.40841
2.55111
2.69627
2.8436
2.99274
3.14315
3.29416
3.4449
3.59424
3.74079
3.88278
4.01801
4.14378
4.25677
4.35301
4.42776
4.47552
4.49009
4.46467
4.39215
4.26554
4.07843
3.82572
3.50421
3.11333
2.65557
2.1368
1.56628
0.956267
0.321549
0.0534885
0.160546
0.267953
0.375977
0.484811
0.594685
0.705827
0.818461
0.932808
1.04909
1.16751
1.28827
1.41159
1.53764
1.6666
1.79862
1.93387
2.07245
2.21445
2.35995
2.50895
2.66141
2.81724
2.97625
3.13816
3.30255
3.46886
3.63631
3.80389
3.97027
4.13371
4.292
4.44232
4.58113
4.70402
4.80564
4.8796
4.9185
4.91405
4.85742
4.73964
4.55235
4.28858
3.94367
3.51609
3.00818
2.42653
1.78201
1.08937
0.366547
0.0549717
0.165006
0.275421
0.386506
0.498477
0.611586
0.726084
0.842222
0.960247
1.08041
1.20294
1.32809
1.4561
1.58718
1.72156
1.85946
2.00106
2.14655
2.2961
2.44983
2.60785
2.77021
2.93692
3.10789
3.28299
3.46192
3.64425
3.82938
4.01641
4.20414
4.39095
4.57464
4.75236
4.92035
5.07382
5.20677
5.31183
5.38026
5.40206
5.36632
5.26175
5.07756
4.80449
4.43598
3.96928
3.4064
2.75469
2.02688
1.24068
0.417739
0.056388
0.169265
0.282554
0.396566
0.511538
0.627745
0.745462
0.864964
0.986527
1.11043
1.23694
1.36633
1.49888
1.63486
1.77454
1.91817
2.06602
2.21832
2.37533
2.53724
2.70426
2.87655
3.05422
3.23734
3.42589
3.61976
3.8187
4.02227
4.22979
4.44025
4.65216
4.86347
5.0713
5.27178
5.45976
5.62855
5.76977
5.87319
5.92686
5.91746
5.83095
5.65364
5.37349
4.98159
4.47362
3.85111
3.12216
2.30165
1.4107
0.475303
0.0577278
0.173294
0.289303
0.406086
0.523902
0.643047
0.763821
0.886523
1.01146
1.13892
1.26923
1.40269
1.53961
1.6803
1.82508
1.97427
2.12818
2.28713
2.45143
2.62138
2.79728
2.9794
3.168
3.36327
3.56539
3.77442
3.99033
4.2129
4.44171
4.67598
4.91448
5.15532
5.39572
5.63173
5.8579
6.06689
6.24923
6.39307
6.48429
6.50682
6.44348
6.27717
5.99256
5.57791
5.02699
4.3406
3.52768
2.60544
1.59891
0.539072
0.0589815
0.177065
0.29562
0.414998
0.535479
0.657381
0.781025
0.906736
1.03484
1.16567
1.29957
1.43688
1.57794
1.72312
1.87277
2.02727
2.187
2.35234
2.52368
2.70142
2.88596
3.07769
3.27702
3.48431
3.6999
3.92408
4.15706
4.39891
4.64947
4.9083
5.17445
5.44631
5.72126
5.99538
6.26293
6.51599
6.74394
6.93323
7.06737
7.12724
7.0921
6.941
6.6548
6.2185
5.62354
4.86985
3.96713
2.93521
1.80345
0.608422
0.0601399
0.180549
0.301457
0.423236
0.546183
0.670638
0.796943
0.925447
1.0565
1.19047
1.32771
1.46861
1.61355
1.76293
1.91717
2.07668
2.2419
2.4133
2.59134
2.77651
2.96933
3.17033
3.38003
3.59898
3.82774
4.06681
4.31668
4.57771
4.8501
5.13376
5.42811
5.73187
6.0427
6.35674
6.66809
6.96823
7.24544
7.48438
7.66601
7.76797
7.76559
7.63366
7.34882
6.89236
6.25309
5.42983
4.43306
3.28539
2.02088
0.682183
0.0611943
0.18372
0.306771
0.430736
0.555931
0.682714
0.811449
0.942504
1.07626
1.21309
1.35341
1.49761
1.64613
1.79939
1.95786
2.12201
2.29234
2.46939
2.65369
2.84584
3.04645
3.25619
3.47573
3.70581
3.94717
4.20058
4.46681
4.74655
5.04037
5.34857
5.67102
6.00682
6.35397
6.70876
7.06521
7.41424
7.74307
8.03453
8.26697
8.41459
8.44859
8.33919
8.05847
7.5837
6.90078
6.00728
4.9144
3.6476
2.246
0.758594
0.0621365
0.186554
0.311521
0.43744
0.564646
0.693513
0.824424
0.957768
1.09394
1.23336
1.37644
1.52363
1.67537
1.83214
1.99445
2.16282
2.3378
2.52
2.71003
2.90858
3.11638
3.33419
3.56286
3.8033
4.05646
4.32336
4.60505
4.90257
5.21689
5.54873
5.89841
6.26549
6.64835
7.04351
7.44494
7.84312
8.22421
8.5693
8.85408
9.04928
9.12185
9.03733
8.76306
8.2721
7.5473
6.58483
5.39654
4.01084
2.47193
0.835321
0.0629592
0.189029
0.315668
0.443295
0.572257
0.702947
0.835762
0.971111
1.10941
1.25109
1.3966
1.54641
1.70099
1.86086
2.02657
2.19867
2.37779
2.56457
2.75971
2.96398
3.17821
3.40329
3.6402
3.89002
4.1539
4.43312
4.729
5.04292
5.37624
5.73012
6.10535
6.50195
6.91871
7.35244
7.79712
8.24285
8.67483
9.07245
9.40891
9.6515
9.76303
9.70439
9.43821
8.93337
8.16961
7.14167
5.86201
4.36184
2.6904
0.909548
0.0636561
0.191125
0.31918
0.448252
0.578702
0.710936
0.845366
0.982415
1.12252
1.26613
1.41371
1.56574
1.72275
1.88527
2.05388
2.22919
2.41185
2.60257
2.80212
3.01134
3.23114
3.46252
3.70661
3.96462
4.23791
4.52796
4.83637
5.16485
5.51511
5.88873
6.28695
6.71027
7.15787
7.62686
8.11128
8.60094
9.08016
9.52683
9.91179
10.1992
10.348
10.3146
10.0573
9.54093
8.74234
7.65484
6.29143
4.6859
2.89222
0.978148
0.0642217
0.192826
0.322029
0.452271
0.583927
0.717413
0.853153
0.991584
1.13315
1.27833
1.42759
1.58145
1.74043
1.90512
2.0761
2.25403
2.43959
2.63355
2.83673
3.05002
3.27442
3.51103
3.76106
4.02589
4.30702
4.60614
4.92508
5.26583
5.63041
6.0208
6.43863
6.88481
7.35893
7.85837
8.37725
8.90514
9.42566
9.91538
10.3431
10.6702
10.8523
10.8418
10.5932
10.0677
9.23963
8.1009
6.66498
4.96797
3.06797
1.03791
0.0646516
0.19412
0.324192
0.455319
0.587887
0.722322
0.859056
0.998534
1.14122
1.28758
1.43812
1.59336
1.75386
1.92019
2.09298
2.27291
2.4607
2.65714
2.86309
3.07951
3.30745
3.54808
3.80271
4.07281
4.36002
4.66618
4.99332
5.34364
5.71945
6.12301
6.5563
7.02058
7.51574
8.03942
8.58583
9.14434
9.69805
10.2225
10.6848
11.0442
11.2533
11.2618
11.0208
10.4885
9.63723
8.45782
6.96407
5.1939
3.20882
1.08583
0.0649405
0.194996
0.325654
0.457369
0.590548
0.725619
0.86302
1.0032
1.14663
1.2938
1.4452
1.60138
1.76289
1.93033
2.10435
2.28563
2.47492
2.67303
2.88087
3.0994
3.32974
3.5731
3.83086
4.10455
4.39591
4.70689
5.03965
5.39655
5.78008
6.19273
6.6367
7.1135
7.62327
8.16381
8.72941
9.30933
9.88627
10.435
10.9217
11.3038
11.5322
11.5542
11.3187
10.782
9.91469
8.70703
7.17299
5.35177
3.30729
1.11936
0.0650741
0.195421
0.326385
0.458398
0.591884
0.727275
0.865012
1.00555
1.14936
1.29692
1.44876
1.6054
1.76742
1.93543
2.11006
2.29202
2.48207
2.68103
2.88981
3.10942
3.34097
3.58572
3.84506
4.12057
4.41403
4.72746
5.06307
5.42331
5.81078
6.22806
6.67749
7.16071
7.67796
8.22716
8.80261
9.39354
9.98246
10.5438
11.043
11.4369
11.6753
11.7044
11.4718
10.9329
10.0575
8.83539
7.28067
5.43322
3.35827
1.13681
)
;

boundaryField
{
    walls
    {
        type            calculated;
        value           nonuniform List<scalar> 
200
(
0.0650741
0.195421
0.326385
0.458398
0.591884
0.727275
0.865012
1.00555
1.14936
1.29692
1.44876
1.6054
1.76742
1.93543
2.11006
2.29202
2.48207
2.68103
2.88981
3.10942
3.34097
3.58572
3.84506
4.12057
4.41403
4.72746
5.06307
5.42331
5.81078
6.22806
6.67749
7.16071
7.67796
8.22716
8.80261
9.39354
9.98246
10.5438
11.043
11.4369
11.6753
11.7044
11.4718
10.9329
10.0575
8.83539
7.28067
5.43322
3.35827
1.13681
0
0
0
0
0
0
0
0
0
0
0
0
0
0
0
0
0
0
0
0
0
0
0
0
0
0
0
0
0
0
0
0
0
0
0
0
0
0
0
0
0
0
0
0
0
0
0
0
0
0
0
0
0
0
0
0
0
0
0
0
0
0
0
0
0
0
0
0
0
0
0
0
0
0
0
0
0
0
0
0
0
0
0
0
0
0
0
0
0
0
0
0
0
0
0
0
0
0
0
0
0.0137233
0.0411148
0.0684143
0.0955823
0.122529
0.149191
0.175501
0.201392
0.226793
0.251634
0.275839
0.299333
0.322037
0.343869
0.364748
0.384587
0.403301
0.4208
0.436995
0.451798
0.465117
0.476865
0.486954
0.495299
0.501819
0.506437
0.50908
0.509683
0.508188
0.504545
0.498716
0.490671
0.480393
0.467879
0.453138
0.436196
0.417091
0.39588
0.372635
0.347442
0.320407
0.291648
0.261301
0.229514
0.19645
0.162282
0.127194
0.0913786
0.0550352
0.0183786
)
;
    }
    frontAndBack
    {
        type            empty;
    }
}


// ************************************************************************* //
