/*--------------------------------*- C++ -*----------------------------------*\
| =========                 |                                                 |
| \\      /  F ield         | OpenFOAM: The Open Source CFD Toolbox           |
|  \\    /   O peration     | Version:  2406                                  |
|   \\  /    A nd           | Website:  www.openfoam.com                      |
|    \\/     M anipulation  |                                                 |
\*---------------------------------------------------------------------------*/
FoamFile
{
    version     2.0;
    format      ascii;
    arch        "LSB;label=32;scalar=64";
    class       volScalarField;
    location    "2.25";
    object      T;
}
// * * * * * * * * * * * * * * * * * * * * * * * * * * * * * * * * * * * * * //

dimensions      [0 0 0 1 0 0 0];

internalField   nonuniform List<scalar> 
2500
(
0.370451
0.371
0.372095
0.373736
0.375919
0.378637
0.381886
0.385657
0.389942
0.394729
0.400007
0.405763
0.411981
0.418644
0.425735
0.433234
0.441119
0.449366
0.457951
0.466846
0.476023
0.485451
0.495097
0.504929
0.514909
0.525002
0.535167
0.545365
0.555554
0.565692
0.575736
0.585641
0.595363
0.604857
0.614078
0.622982
0.631526
0.639666
0.647361
0.654571
0.661259
0.667387
0.672925
0.67784
0.682105
0.685698
0.688596
0.690785
0.692252
0.692987
0.371
0.371551
0.372652
0.374302
0.376495
0.379228
0.382493
0.386283
0.39059
0.395402
0.400707
0.406493
0.412744
0.419443
0.426573
0.434113
0.442041
0.450334
0.458968
0.467914
0.477144
0.486628
0.496332
0.506223
0.516265
0.526421
0.53665
0.546914
0.557169
0.567375
0.577485
0.587458
0.597246
0.606806
0.616092
0.62506
0.633665
0.641865
0.649616
0.65688
0.663618
0.669793
0.675372
0.680325
0.684623
0.688244
0.691165
0.693371
0.694849
0.69559
0.372095
0.372652
0.373765
0.37543
0.377646
0.380406
0.383704
0.387533
0.391883
0.396745
0.402105
0.407951
0.414268
0.421039
0.428245
0.435867
0.443883
0.452269
0.461
0.470049
0.479386
0.488981
0.498801
0.508812
0.518977
0.529258
0.539617
0.550012
0.5604
0.57074
0.580985
0.591092
0.601015
0.610707
0.620124
0.629219
0.637948
0.646266
0.654132
0.661503
0.668341
0.674609
0.680273
0.685302
0.689666
0.693343
0.696309
0.69855
0.700051
0.700804
0.373736
0.374302
0.37543
0.377121
0.379369
0.38217
0.385518
0.389404
0.393821
0.398757
0.4042
0.410137
0.416553
0.423431
0.430753
0.438498
0.446645
0.45517
0.464048
0.47325
0.482748
0.492511
0.502505
0.512696
0.523046
0.533517
0.54407
0.554662
0.565251
0.575792
0.586241
0.596551
0.606676
0.616568
0.626181
0.635468
0.644383
0.652881
0.660919
0.668452
0.675443
0.681851
0.687643
0.692786
0.69725
0.701011
0.704046
0.706339
0.707875
0.708645
0.375919
0.376495
0.377646
0.379369
0.381661
0.384517
0.387931
0.391895
0.396399
0.401434
0.406988
0.413046
0.419594
0.426615
0.434091
0.442001
0.450324
0.459035
0.468108
0.477517
0.48723
0.497217
0.507444
0.517875
0.528473
0.539199
0.550012
0.560869
0.571726
0.582539
0.59326
0.603842
0.614238
0.624398
0.634275
0.643821
0.652987
0.661726
0.669994
0.677746
0.684941
0.691539
0.697503
0.702799
0.707398
0.711273
0.7144
0.716763
0.718346
0.719139
0.378637
0.379228
0.380406
0.38217
0.384517
0.387442
0.390938
0.394998
0.399613
0.404772
0.410464
0.416674
0.423388
0.430588
0.438257
0.446374
0.454917
0.46386
0.47318
0.482846
0.49283
0.503098
0.513617
0.524351
0.535261
0.546307
0.557447
0.568637
0.579832
0.590986
0.60205
0.612976
0.623713
0.634212
0.644422
0.654293
0.663776
0.672821
0.68138
0.689408
0.696862
0.703699
0.70988
0.715372
0.720141
0.724159
0.727404
0.729855
0.731497
0.73232
0.381886
0.382493
0.383704
0.385518
0.387931
0.390938
0.394534
0.39871
0.403457
0.408765
0.414622
0.421015
0.427928
0.435345
0.443246
0.451611
0.460418
0.469643
0.479258
0.489236
0.499545
0.510153
0.521025
0.532124
0.54341
0.554842
0.566378
0.577971
0.589576
0.601143
0.612622
0.623964
0.635116
0.646026
0.65664
0.666907
0.676774
0.68619
0.695104
0.703468
0.711236
0.718364
0.724811
0.73054
0.735516
0.73971
0.743097
0.745656
0.747371
0.74823
0.385657
0.386283
0.387533
0.389404
0.391895
0.394998
0.39871
0.403021
0.407923
0.413405
0.419456
0.426063
0.433209
0.440877
0.44905
0.457707
0.466824
0.476377
0.48634
0.496682
0.507373
0.51838
0.529666
0.541194
0.552922
0.56481
0.576811
0.588878
0.600965
0.613019
0.624989
0.636823
0.648464
0.659859
0.670952
0.681687
0.692009
0.701864
0.711199
0.719961
0.728103
0.735576
0.742338
0.748349
0.753571
0.757974
0.76153
0.764217
0.766018
0.766921
0.389942
0.39059
0.391883
0.393821
0.396399
0.399613
0.403457
0.407923
0.413002
0.418684
0.424957
0.431808
0.43922
0.447179
0.455663
0.464654
0.474127
0.484057
0.494418
0.50518
0.516311
0.527776
0.539539
0.551561
0.5638
0.576211
0.58875
0.601366
0.614009
0.626627
0.639165
0.651567
0.663776
0.675734
0.687382
0.698661
0.709512
0.719879
0.729703
0.738929
0.747506
0.755382
0.762512
0.768851
0.77436
0.779007
0.78276
0.785597
0.787499
0.788452
0.394729
0.395402
0.396745
0.398757
0.401434
0.404772
0.408765
0.413405
0.418684
0.424591
0.431114
0.43824
0.445954
0.454239
0.463075
0.472443
0.482318
0.492675
0.503487
0.514724
0.526352
0.538337
0.550642
0.563224
0.576042
0.58905
0.6022
0.61544
0.628719
0.641979
0.655165
0.668217
0.681075
0.693677
0.705961
0.717863
0.729321
0.740274
0.75066
0.76042
0.769497
0.777836
0.785389
0.792106
0.797947
0.802874
0.806856
0.809865
0.811883
0.812895
0.400007
0.400707
0.402105
0.4042
0.406988
0.410464
0.414622
0.419456
0.424957
0.431114
0.437916
0.445349
0.453398
0.462047
0.471276
0.481064
0.491388
0.502222
0.513539
0.525306
0.537492
0.550059
0.56297
0.576182
0.589651
0.603329
0.617166
0.63111
0.645103
0.659089
0.673006
0.686793
0.700385
0.713716
0.726719
0.739329
0.751476
0.763095
0.77412
0.784486
0.794133
0.803001
0.811035
0.818185
0.824404
0.829652
0.833893
0.8371
0.839251
0.840329
0.405763
0.406493
0.407951
0.410137
0.413046
0.416674
0.421015
0.426063
0.431808
0.43824
0.445349
0.45312
0.46154
0.47059
0.480253
0.490506
0.501326
0.512688
0.524562
0.536918
0.549722
0.562936
0.57652
0.590432
0.604625
0.61905
0.633653
0.648381
0.663174
0.67797
0.692706
0.707316
0.721731
0.735881
0.749694
0.763098
0.776021
0.788392
0.800137
0.811189
0.821479
0.830945
0.839525
0.847164
0.853811
0.859423
0.863959
0.86739
0.869692
0.870845
0.411981
0.412744
0.414268
0.416553
0.419594
0.423388
0.427928
0.433209
0.43922
0.445954
0.453398
0.46154
0.470364
0.479854
0.489991
0.500754
0.512119
0.524059
0.536547
0.54955
0.563033
0.576959
0.591286
0.60597
0.620962
0.636212
0.651664
0.667261
0.68294
0.698637
0.714283
0.729809
0.745141
0.760204
0.774921
0.789215
0.803007
0.816219
0.828773
0.840594
0.851608
0.861745
0.87094
0.87913
0.88626
0.892281
0.897151
0.900835
0.903306
0.904545
0.418644
0.419443
0.421039
0.423431
0.426615
0.430588
0.435345
0.440877
0.447179
0.454239
0.462047
0.47059
0.479854
0.489822
0.500475
0.511793
0.52375
0.536322
0.549478
0.563188
0.577414
0.592118
0.607259
0.622789
0.638659
0.654816
0.671201
0.687755
0.704412
0.721103
0.737756
0.754296
0.770644
0.786721
0.802443
0.817726
0.832485
0.846635
0.860092
0.872773
0.884597
0.895487
0.90537
0.914179
0.921851
0.928333
0.933577
0.937545
0.940207
0.941542
0.425735
0.426573
0.428245
0.430753
0.434091
0.438257
0.443246
0.44905
0.455663
0.463075
0.471276
0.480253
0.489991
0.500475
0.511686
0.523604
0.536203
0.549459
0.563341
0.577817
0.59285
0.608402
0.624428
0.640881
0.65771
0.674858
0.692265
0.709868
0.727597
0.745381
0.763141
0.780799
0.798269
0.815466
0.8323
0.84868
0.864512
0.879706
0.894167
0.907806
0.920533
0.932263
0.942915
0.952416
0.960695
0.967692
0.973356
0.977642
0.980519
0.981962
0.433234
0.434113
0.435867
0.438498
0.442001
0.446374
0.451611
0.457707
0.464654
0.472443
0.481064
0.490506
0.500754
0.511793
0.523604
0.536166
0.549457
0.56345
0.578115
0.593419
0.609326
0.625795
0.642781
0.660236
0.678106
0.696333
0.714854
0.733601
0.752503
0.771483
0.790457
0.809342
0.828046
0.846477
0.864537
0.882128
0.899149
0.915498
0.931074
0.945776
0.959508
0.972174
0.983685
0.993957
1.00291
1.01049
1.01662
1.02126
1.02438
1.02594
0.441119
0.442041
0.443883
0.446645
0.450324
0.454917
0.460418
0.466824
0.474127
0.482318
0.491388
0.501326
0.512119
0.52375
0.536203
0.549457
0.563489
0.578273
0.593779
0.609974
0.626821
0.644279
0.662302
0.680839
0.699837
0.719233
0.738963
0.758955
0.779134
0.799418
0.81972
0.839948
0.860005
0.87979
0.8992
0.918126
0.936457
0.954084
0.970894
0.986777
1.00162
1.01533
1.0278
1.03893
1.04864
1.05686
1.06352
1.06856
1.07194
1.07364
0.449366
0.450334
0.452269
0.45517
0.459035
0.46386
0.469643
0.476377
0.484057
0.492675
0.502222
0.512688
0.524059
0.536322
0.549459
0.56345
0.578273
0.593902
0.610307
0.627457
0.645312
0.663832
0.682969
0.702673
0.722886
0.743546
0.764584
0.785926
0.807492
0.829195
0.850942
0.872636
0.894173
0.915443
0.936334
0.956727
0.976504
0.99554
1.01371
1.0309
1.04699
1.06185
1.07538
1.08747
1.09803
1.10696
1.1142
1.11969
1.12338
1.12523
0.457951
0.458968
0.461
0.464048
0.468108
0.47318
0.479258
0.48634
0.494418
0.503487
0.513539
0.524562
0.536547
0.549478
0.563341
0.578115
0.593779
0.610307
0.627672
0.645839
0.664772
0.684428
0.70476
0.725716
0.747236
0.769256
0.791706
0.814506
0.837573
0.860816
0.884135
0.907426
0.930577
0.953471
0.975985
0.99799
1.01936
1.03995
1.05963
1.07826
1.09572
1.11186
1.12657
1.13973
1.15122
1.16096
1.16886
1.17484
1.17887
1.18088
0.466846
0.467914
0.470049
0.47325
0.477517
0.482846
0.489236
0.496682
0.50518
0.514724
0.525306
0.536918
0.54955
0.563188
0.577817
0.593419
0.609974
0.627457
0.645839
0.665089
0.685169
0.706037
0.727645
0.74994
0.772861
0.796343
0.82031
0.844683
0.869372
0.894281
0.919305
0.944332
0.969242
0.993908
1.0182
1.04197
1.06508
1.08738
1.10873
1.12896
1.14793
1.1655
1.18153
1.19587
1.20841
1.21905
1.22767
1.23422
1.23861
1.24082
0.476023
0.477144
0.479386
0.482748
0.48723
0.49283
0.499545
0.507373
0.516311
0.526352
0.537492
0.549722
0.563033
0.577414
0.59285
0.609326
0.626821
0.645312
0.664772
0.685169
0.706467
0.728623
0.75159
0.775313
0.799732
0.824779
0.850376
0.876439
0.902876
0.929584
0.956453
0.983364
1.01019
1.03679
1.06302
1.08872
1.11375
1.13794
1.16112
1.18312
1.20377
1.22292
1.2404
1.25607
1.26978
1.28142
1.29086
1.29802
1.30284
1.30526
0.485451
0.486628
0.488981
0.492511
0.497217
0.503098
0.510153
0.51838
0.527776
0.538337
0.550059
0.562936
0.576959
0.592118
0.608402
0.625795
0.644279
0.663832
0.684428
0.706037
0.728623
0.752144
0.776554
0.801798
0.827813
0.85453
0.881871
0.909748
0.938064
0.966713
0.995576
1.02453
1.05343
1.08213
1.11048
1.13831
1.16544
1.1917
1.2169
1.24085
1.26337
1.28428
1.30338
1.32053
1.33554
1.34829
1.35865
1.36651
1.3718
1.37446
0.495097
0.496332
0.498801
0.502505
0.507444
0.513617
0.521025
0.529666
0.539539
0.550642
0.56297
0.57652
0.591286
0.607259
0.624428
0.642781
0.662302
0.682969
0.70476
0.727645
0.75159
0.776554
0.802491
0.829347
0.857059
0.885557
0.91476
0.944579
0.974911
1.00565
1.03666
1.06782
1.09897
1.12996
1.16062
1.19077
1.22021
1.24875
1.27618
1.30229
1.32688
1.34974
1.37065
1.38944
1.40592
1.41992
1.4313
1.43995
1.44577
1.44869
0.504929
0.506223
0.508812
0.512696
0.517875
0.524351
0.532124
0.541194
0.551561
0.563224
0.576182
0.590432
0.60597
0.622789
0.640881
0.660236
0.680839
0.702673
0.725716
0.74994
0.775313
0.801798
0.829347
0.857908
0.88742
0.917809
0.948996
0.980888
1.01338
1.04636
1.07969
1.11323
1.14682
1.1803
1.21348
1.24616
1.27813
1.30917
1.33907
1.36757
1.39445
1.41948
1.44241
1.46304
1.48115
1.49656
1.50909
1.51862
1.52504
1.52826
0.514909
0.516265
0.518977
0.523046
0.528473
0.535261
0.54341
0.552922
0.5638
0.576042
0.589651
0.604625
0.620962
0.638659
0.65771
0.678106
0.699837
0.722886
0.747236
0.772861
0.799732
0.827813
0.857059
0.88742
0.918833
0.951228
0.984523
1.01862
1.05342
1.0888
1.12462
1.16073
1.19697
1.23315
1.26907
1.30451
1.33926
1.37306
1.40567
1.43682
1.46625
1.49369
1.51888
1.54157
1.56152
1.5785
1.59234
1.60286
1.60995
1.61351
0.525002
0.526421
0.529258
0.533517
0.539199
0.546307
0.554842
0.56481
0.576211
0.58905
0.603329
0.61905
0.636212
0.654816
0.674858
0.696333
0.719233
0.743546
0.769256
0.796343
0.824779
0.85453
0.885557
0.917809
0.951228
0.985743
1.02127
1.05772
1.09498
1.13293
1.17142
1.2103
1.24939
1.28849
1.3274
1.36587
1.40366
1.44049
1.4761
1.51019
1.54245
1.57259
1.6003
1.6253
1.64731
1.66607
1.68137
1.69302
1.70087
1.70482
0.535167
0.53665
0.539617
0.54407
0.550012
0.557447
0.566378
0.576811
0.58875
0.6022
0.617166
0.633653
0.651664
0.671201
0.692265
0.714854
0.738963
0.764584
0.791706
0.82031
0.850376
0.881871
0.91476
0.948996
0.984523
1.02127
1.05916
1.0981
1.13798
1.17867
1.22002
1.26188
1.30404
1.34632
1.38847
1.43024
1.47136
1.51154
1.55046
1.5878
1.62322
1.65637
1.68691
1.71451
1.73884
1.75962
1.77658
1.78951
1.79822
1.80261
0.545365
0.546914
0.550012
0.554662
0.560869
0.568637
0.577971
0.588878
0.601366
0.61544
0.63111
0.648381
0.667261
0.687755
0.709868
0.733601
0.758955
0.785926
0.814506
0.844683
0.876439
0.909748
0.944579
0.980888
1.01862
1.05772
1.0981
1.13968
1.18233
1.22594
1.27035
1.3154
1.36088
1.40658
1.45226
1.49763
1.54241
1.58626
1.62885
1.6698
1.70873
1.74525
1.77897
1.8095
1.83647
1.85953
1.87838
1.89276
1.90246
1.90735
0.555554
0.557169
0.5604
0.565251
0.571726
0.579832
0.589576
0.600965
0.614009
0.628719
0.645103
0.663174
0.68294
0.704412
0.727597
0.752503
0.779134
0.807492
0.837573
0.869372
0.902876
0.938064
0.974911
1.01338
1.05342
1.09498
1.13798
1.18233
1.22793
1.27464
1.32231
1.37078
1.41983
1.46923
1.51873
1.56803
1.61681
1.66472
1.71135
1.75632
1.79917
1.83948
1.87677
1.91061
1.94056
1.96621
1.98722
2.00325
2.01409
2.01954
0.565692
0.567375
0.57074
0.575792
0.582539
0.590986
0.601143
0.613019
0.626627
0.641979
0.659089
0.67797
0.698637
0.721103
0.745381
0.771483
0.799418
0.829195
0.860816
0.894281
0.929584
0.966713
1.00565
1.04636
1.0888
1.13293
1.17867
1.22594
1.27464
1.32463
1.37578
1.4279
1.48077
1.53417
1.58782
1.6414
1.69457
1.74692
1.79804
1.84747
1.89471
1.93926
1.98059
2.01818
2.05152
2.08013
2.10359
2.12153
2.13366
2.13978
0.575736
0.577485
0.580985
0.586241
0.59326
0.60205
0.612622
0.624989
0.639165
0.655165
0.673006
0.692706
0.714283
0.737756
0.763141
0.790457
0.81972
0.850942
0.884135
0.919305
0.956453
0.995576
1.03666
1.07969
1.12462
1.17142
1.22002
1.27035
1.32231
1.37578
1.43061
1.48661
1.54359
1.6013
1.65943
1.71767
1.77562
1.83288
1.88896
1.94336
1.99551
2.04483
2.09071
2.13256
2.16976
2.20176
2.22805
2.24817
2.26179
2.26867
0.585641
0.587458
0.591092
0.596551
0.603842
0.612976
0.623964
0.636823
0.651567
0.668217
0.686793
0.707316
0.729809
0.754296
0.780799
0.809342
0.839948
0.872636
0.907426
0.944332
0.983364
1.02453
1.06782
1.11323
1.16073
1.2103
1.26188
1.3154
1.37078
1.4279
1.48661
1.54676
1.60812
1.67044
1.73342
1.79671
1.85991
1.92256
1.98413
2.04405
2.10169
2.15638
2.20743
2.25411
2.29573
2.33161
2.36114
2.38379
2.39913
2.40688
0.595363
0.597246
0.601015
0.606676
0.614238
0.623713
0.635116
0.648464
0.663776
0.681075
0.700385
0.721731
0.745141
0.770644
0.798269
0.828046
0.860005
0.894173
0.930577
0.969242
1.01019
1.05343
1.09897
1.14682
1.19697
1.24939
1.30404
1.36088
1.41983
1.48077
1.54359
1.60812
1.67414
1.74141
1.80961
1.87839
1.9473
2.01587
2.0835
2.14957
2.21336
2.2741
2.33099
2.38318
2.42984
2.47017
2.50344
2.529
2.54633
2.55509
0.604857
0.606806
0.610707
0.616568
0.624398
0.634212
0.646026
0.659859
0.675734
0.693677
0.713716
0.735881
0.760204
0.786721
0.815466
0.846477
0.87979
0.915443
0.953471
0.993908
1.03679
1.08213
1.12996
1.1803
1.23315
1.28849
1.34632
1.40658
1.46923
1.53417
1.6013
1.67044
1.74141
1.81395
1.88776
1.96247
2.03761
2.11265
2.18698
2.25988
2.33054
2.39809
2.46159
2.52005
2.57248
2.61792
2.6555
2.68442
2.70406
2.71399
0.614078
0.616092
0.620124
0.626181
0.634275
0.644422
0.65664
0.670952
0.687382
0.705961
0.726719
0.749694
0.774921
0.802443
0.8323
0.864537
0.8992
0.936334
0.975985
1.0182
1.06302
1.11048
1.16062
1.21348
1.26907
1.3274
1.38847
1.45226
1.51873
1.58782
1.65943
1.73342
1.80961
1.88776
1.96757
2.04866
2.13055
2.21268
2.29437
2.37484
2.45317
2.52837
2.59934
2.66492
2.72394
2.77525
2.81777
2.85057
2.87289
2.88418
0.622982
0.62506
0.629219
0.635468
0.643821
0.654293
0.666907
0.681687
0.698661
0.717863
0.739329
0.763098
0.789215
0.817726
0.84868
0.882128
0.918126
0.956727
0.99799
1.04197
1.08872
1.13831
1.19077
1.24616
1.30451
1.36587
1.43024
1.49763
1.56803
1.6414
1.71767
1.79671
1.87839
1.96247
2.04866
2.13659
2.22577
2.31561
2.40537
2.49419
2.58106
2.66481
2.74419
2.81784
2.88436
2.94238
2.99059
3.02785
3.05324
3.0661
0.631526
0.633665
0.637948
0.644383
0.652987
0.663776
0.676774
0.692009
0.709512
0.729321
0.751476
0.776021
0.803007
0.832485
0.864512
0.899149
0.936457
0.976504
1.01936
1.06508
1.11375
1.16544
1.22021
1.27813
1.33926
1.40366
1.47136
1.54241
1.61681
1.69457
1.77562
1.85991
1.9473
2.03761
2.13055
2.22577
2.32278
2.42095
2.51952
2.61751
2.71381
2.8071
2.89591
2.97864
3.05365
3.11929
3.17398
3.21635
3.24526
3.25992
0.639666
0.641865
0.646266
0.652881
0.661726
0.672821
0.68619
0.701864
0.719879
0.740274
0.763095
0.788392
0.816219
0.846635
0.879706
0.915498
0.954084
0.99554
1.03995
1.08738
1.13794
1.1917
1.24875
1.30917
1.37306
1.44049
1.51154
1.58626
1.66472
1.74692
1.83288
1.92256
2.01587
2.11265
2.21268
2.31561
2.42095
2.52808
2.63616
2.74416
2.85081
2.95463
3.05392
3.14681
3.23136
3.30558
3.36761
3.41577
3.44869
3.4654
0.647361
0.649616
0.654132
0.660919
0.669994
0.68138
0.695104
0.711199
0.729703
0.75066
0.77412
0.800137
0.828773
0.860092
0.894167
0.931074
0.970894
1.01371
1.05963
1.10873
1.16112
1.2169
1.27618
1.33907
1.40567
1.4761
1.55046
1.62885
1.71135
1.79804
1.88896
1.98413
2.0835
2.18698
2.29437
2.40537
2.51952
2.63616
2.75444
2.87324
2.99114
3.10647
3.21729
3.32141
3.41655
3.50036
3.5706
3.62525
3.66266
3.68167
0.654571
0.65688
0.661503
0.668452
0.677746
0.689408
0.703468
0.719961
0.738929
0.76042
0.784486
0.811189
0.840594
0.872773
0.907806
0.945776
0.986777
1.0309
1.07826
1.12896
1.18312
1.24085
1.30229
1.36757
1.43682
1.51019
1.5878
1.6698
1.75632
1.84747
1.94336
2.04405
2.14957
2.25988
2.37484
2.49419
2.61751
2.74416
2.87324
3.00353
3.13351
3.26127
3.3846
3.50097
3.60771
3.70205
3.78134
3.84316
3.88555
3.90712
0.661259
0.663618
0.668341
0.675443
0.684941
0.696862
0.711236
0.728103
0.747506
0.769497
0.794133
0.821479
0.851608
0.884597
0.920533
0.959508
1.00162
1.04699
1.09572
1.14793
1.20377
1.26337
1.32688
1.39445
1.46625
1.54245
1.62322
1.70873
1.79917
1.89471
1.99551
2.10169
2.21336
2.33054
2.45317
2.58106
2.71381
2.85081
2.99114
3.13351
3.27623
3.41719
3.55387
3.68339
3.80261
3.90833
3.9974
4.06701
4.11481
4.13915
0.667387
0.669793
0.674609
0.681851
0.691539
0.703699
0.718364
0.735576
0.755382
0.777836
0.803001
0.830945
0.861745
0.895487
0.932263
0.972174
1.01533
1.06185
1.11186
1.1655
1.22292
1.28428
1.34974
1.41948
1.49369
1.57259
1.65637
1.74525
1.83948
1.93926
2.04483
2.15638
2.2741
2.39809
2.52837
2.66481
2.8071
2.95463
3.10647
3.26127
3.41719
3.5719
3.72254
3.86585
3.99823
4.11597
4.21543
4.29329
4.34684
4.37413
0.672925
0.675372
0.680273
0.687643
0.697503
0.70988
0.724811
0.742338
0.762512
0.785389
0.811035
0.839525
0.87094
0.90537
0.942915
0.983685
1.0278
1.07538
1.12657
1.18153
1.2404
1.30338
1.37065
1.44241
1.51888
1.6003
1.68691
1.77897
1.87677
1.98059
2.09071
2.20743
2.33099
2.46159
2.59934
2.74419
2.89591
3.05392
3.21729
3.3846
3.55387
3.72254
3.88744
4.04488
4.19079
4.32091
4.43108
4.51749
4.57698
4.60733
0.67784
0.680325
0.685302
0.692786
0.702799
0.715372
0.73054
0.748349
0.768851
0.792106
0.818185
0.847164
0.87913
0.914179
0.952416
0.993957
1.03893
1.08747
1.13973
1.19587
1.25607
1.32053
1.38944
1.46304
1.54157
1.6253
1.71451
1.8095
1.91061
2.01818
2.13256
2.25411
2.38318
2.52005
2.66492
2.81784
2.97864
3.14681
3.32141
3.50097
3.68339
3.86585
4.04488
4.21637
4.37576
4.51826
4.63916
4.73412
4.79959
4.833
0.682105
0.684623
0.689666
0.69725
0.707398
0.720141
0.735516
0.753571
0.77436
0.797947
0.824404
0.853811
0.88626
0.921851
0.960695
1.00291
1.04864
1.09803
1.15122
1.20841
1.26978
1.33554
1.40592
1.48115
1.56152
1.64731
1.73884
1.83647
1.94056
2.05152
2.16976
2.29573
2.42984
2.57248
2.72394
2.88436
3.05365
3.23136
3.41655
3.60771
3.80261
3.99823
4.19079
4.37576
4.54812
4.70255
4.83379
4.93703
5.00826
5.04464
0.685698
0.688244
0.693343
0.701011
0.711273
0.724159
0.73971
0.757974
0.779007
0.802874
0.829652
0.859423
0.892281
0.928333
0.967692
1.01049
1.05686
1.10696
1.16096
1.21905
1.28142
1.34829
1.41992
1.49656
1.5785
1.66607
1.75962
1.85953
1.96621
2.08013
2.20176
2.33161
2.47017
2.61792
2.77525
2.94238
3.11929
3.30558
3.50036
3.70205
3.90833
4.11597
4.32091
4.51826
4.70255
4.86796
5.00874
5.11961
5.19618
5.2353
0.688596
0.691165
0.696309
0.704046
0.7144
0.727404
0.743097
0.76153
0.78276
0.806856
0.833893
0.863959
0.897151
0.933577
0.973356
1.01662
1.06352
1.1142
1.16886
1.22767
1.29086
1.35865
1.4313
1.50909
1.59234
1.68137
1.77658
1.87838
1.98722
2.10359
2.22805
2.36114
2.50344
2.6555
2.81777
2.99059
3.17398
3.36761
3.5706
3.78134
3.9974
4.21543
4.43108
4.63916
4.83379
5.00874
5.15782
5.27534
5.35654
5.39806
0.690785
0.693371
0.69855
0.706339
0.716763
0.729855
0.745656
0.764217
0.785597
0.809865
0.8371
0.86739
0.900835
0.937545
0.977642
1.02126
1.06856
1.11969
1.17484
1.23422
1.29802
1.36651
1.43995
1.51862
1.60286
1.69302
1.78951
1.89276
2.00325
2.12153
2.24817
2.38379
2.529
2.68442
2.85057
3.02785
3.21635
3.41577
3.62525
3.84316
4.06701
4.29329
4.51749
4.73412
4.93703
5.11961
5.27534
5.39818
5.4831
5.52653
0.692252
0.694849
0.700051
0.707875
0.718346
0.731497
0.747371
0.766018
0.787499
0.811883
0.839251
0.869692
0.903306
0.940207
0.980519
1.02438
1.07194
1.12338
1.17887
1.23861
1.30284
1.3718
1.44577
1.52504
1.60995
1.70087
1.79822
1.90246
2.01409
2.13366
2.26179
2.39913
2.54633
2.70406
2.87289
3.05324
3.24526
3.44869
3.66266
3.88555
4.11481
4.34684
4.57698
4.79959
5.00826
5.19618
5.35654
5.4831
5.57061
5.61539
0.692987
0.69559
0.700804
0.708645
0.719139
0.73232
0.74823
0.766921
0.788452
0.812895
0.840329
0.870845
0.904545
0.941542
0.981962
1.02594
1.07364
1.12523
1.18088
1.24082
1.30526
1.37446
1.44869
1.52826
1.61351
1.70482
1.80261
1.90735
2.01954
2.13978
2.26867
2.40688
2.55509
2.71399
2.88418
3.0661
3.25992
3.4654
3.68167
3.90712
4.13915
4.37413
4.60733
4.833
5.04464
5.2353
5.39806
5.52653
5.61539
5.66086
)
;

boundaryField
{
    walls
    {
        type            zeroGradient;
    }
    frontAndBack
    {
        type            empty;
    }
}


// ************************************************************************* //
