/*--------------------------------*- C++ -*----------------------------------*\
| =========                 |                                                 |
| \\      /  F ield         | OpenFOAM: The Open Source CFD Toolbox           |
|  \\    /   O peration     | Version:  2406                                  |
|   \\  /    A nd           | Website:  www.openfoam.com                      |
|    \\/     M anipulation  |                                                 |
\*---------------------------------------------------------------------------*/
FoamFile
{
    version     2.0;
    format      ascii;
    arch        "LSB;label=32;scalar=64";
    class       volVectorField;
    location    "2";
    object      flux;
}
// * * * * * * * * * * * * * * * * * * * * * * * * * * * * * * * * * * * * * //

dimensions      [0 1 -1 1 0 0 0];

internalField   nonuniform List<vector> 
2500
(
(0.00112257 0.00112257 0)
(0.00336317 0.00112889 0)
(0.00559697 0.00114182 0)
(0.0078218 0.00116118 0)
(0.0100309 0.00118698 0)
(0.0122197 0.00121926 0)
(0.0143832 0.00125802 0)
(0.0165165 0.00130329 0)
(0.0186142 0.00135508 0)
(0.0206709 0.00141341 0)
(0.0226808 0.00147827 0)
(0.0246377 0.00154966 0)
(0.0265355 0.00162758 0)
(0.0283673 0.00171199 0)
(0.0301264 0.00180285 0)
(0.0318055 0.0019001 0)
(0.0333973 0.00200365 0)
(0.0348939 0.00211339 0)
(0.0362876 0.00222918 0)
(0.0375704 0.00235084 0)
(0.0387343 0.00247815 0)
(0.0397711 0.00261086 0)
(0.0406727 0.00274867 0)
(0.0414313 0.00289123 0)
(0.0420391 0.00303815 0)
(0.0424887 0.00318897 0)
(0.0427732 0.00334318 0)
(0.0428859 0.00350024 0)
(0.0428211 0.00365952 0)
(0.0425736 0.00382034 0)
(0.0421391 0.00398199 0)
(0.0415143 0.00414369 0)
(0.0406968 0.00430461 0)
(0.0396856 0.00446388 0)
(0.0384808 0.00462061 0)
(0.0370839 0.00477384 0)
(0.0354976 0.00492264 0)
(0.0337264 0.00506603 0)
(0.0317759 0.00520304 0)
(0.0296535 0.00533272 0)
(0.027368 0.00545411 0)
(0.0249297 0.00556632 0)
(0.0223503 0.00566849 0)
(0.0196426 0.00575983 0)
(0.0168212 0.0058396 0)
(0.0139012 0.00590718 0)
(0.010899 0.00596204 0)
(0.00783185 0.00600372 0)
(0.00471751 0.00603169 0)
(0.00157542 0.00604446 0)
(0.00112889 0.00336317 0)
(0.00338243 0.00338243 0)
(0.00562926 0.00342116 0)
(0.00786696 0.00347919 0)
(0.010089 0.00355659 0)
(0.0122907 0.00365341 0)
(0.0144672 0.0037697 0)
(0.0166135 0.00390552 0)
(0.0187243 0.00406091 0)
(0.0207941 0.00423591 0)
(0.022817 0.00443053 0)
(0.0247871 0.00464476 0)
(0.0266978 0.00487858 0)
(0.0285426 0.00513189 0)
(0.0303145 0.00540459 0)
(0.0320063 0.00569647 0)
(0.0336105 0.00600729 0)
(0.0351194 0.00633671 0)
(0.0365251 0.00668431 0)
(0.0378194 0.00704955 0)
(0.0389943 0.00743181 0)
(0.0400416 0.00783031 0)
(0.0409531 0.00824415 0)
(0.0417208 0.00867231 0)
(0.0423368 0.00911357 0)
(0.0427938 0.0095666 0)
(0.0430844 0.0100299 0)
(0.0432022 0.0105017 0)
(0.0431412 0.0109803 0)
(0.0428961 0.0114636 0)
(0.0424624 0.0119494 0)
(0.0418369 0.0124354 0)
(0.041017 0.012919 0)
(0.0400016 0.0133978 0)
(0.0387908 0.013869 0)
(0.0373859 0.0143297 0)
(0.0357898 0.0147772 0)
(0.0340068 0.0152084 0)
(0.0320426 0.0156204 0)
(0.0299046 0.0160104 0)
(0.0276017 0.0163755 0)
(0.0251441 0.0167131 0)
(0.0225438 0.0170204 0)
(0.0198138 0.0172952 0)
(0.0169685 0.0175352 0)
(0.0140236 0.0177385 0)
(0.0109956 0.0179035 0)
(0.0079015 0.018029 0)
(0.00475824 0.0181139 0)
(0.00158819 0.0181549 0)
(0.00114182 0.00559697 0)
(0.00342116 0.00562926 0)
(0.00569373 0.00569373 0)
(0.00795723 0.00579045 0)
(0.0102051 0.00591949 0)
(0.0124328 0.00608093 0)
(0.0146353 0.00627484 0)
(0.0168077 0.00650134 0)
(0.0189446 0.00676048 0)
(0.0210405 0.00705234 0)
(0.0230896 0.00737695 0)
(0.0250858 0.00773431 0)
(0.0270226 0.00812437 0)
(0.0288934 0.008547 0)
(0.030691 0.00900201 0)
(0.0324082 0.00948911 0)
(0.0340375 0.0100079 0)
(0.0355709 0.0105577 0)
(0.0370005 0.011138 0)
(0.0383179 0.0117479 0)
(0.039515 0.0123862 0)
(0.0405834 0.0130518 0)
(0.0415147 0.0137431 0)
(0.0423007 0.0144584 0)
(0.0429334 0.0151958 0)
(0.043405 0.0159529 0)
(0.0437083 0.0167274 0)
(0.0438363 0.0175162 0)
(0.0437829 0.0183165 0)
(0.0435427 0.0191248 0)
(0.0431109 0.0199375 0)
(0.0424839 0.0207506 0)
(0.0416593 0.02156 0)
(0.0406356 0.0223614 0)
(0.0394127 0.0231502 0)
(0.037992 0.0239216 0)
(0.0363762 0.0246709 0)
(0.0345696 0.0253931 0)
(0.0325779 0.0260833 0)
(0.0304087 0.0267368 0)
(0.0280707 0.0273486 0)
(0.0255746 0.0279143 0)
(0.0229324 0.0284294 0)
(0.0201574 0.02889 0)
(0.0172645 0.0292922 0)
(0.0142695 0.029633 0)
(0.0111895 0.0299094 0)
(0.00804222 0.0301193 0)
(0.00484339 0.0302612 0)
(0.00161642 0.030332 0)
(0.00116118 0.0078218 0)
(0.00347919 0.00786696 0)
(0.00579045 0.00795723 0)
(0.00809271 0.00809271 0)
(0.0103795 0.00827349 0)
(0.0126461 0.00849968 0)
(0.0148877 0.00877141 0)
(0.0170992 0.00908881 0)
(0.0192753 0.00945199 0)
(0.0214106 0.00986107 0)
(0.023499 0.0103161 0)
(0.0255345 0.0108171 0)
(0.0275105 0.011364 0)
(0.0294203 0.0119567 0)
(0.0312566 0.0125949 0)
(0.0330122 0.0132782 0)
(0.0346792 0.0140061 0)
(0.0362496 0.0147777 0)
(0.0377152 0.0155922 0)
(0.0390676 0.0164484 0)
(0.0402982 0.0173448 0)
(0.0413985 0.0182796 0)
(0.0423597 0.0192508 0)
(0.0431735 0.020256 0)
(0.0438314 0.0212925 0)
(0.0443253 0.022357 0)
(0.0446477 0.0234461 0)
(0.0447914 0.0245559 0)
(0.0447497 0.0256819 0)
(0.044517 0.0268196 0)
(0.0440882 0.0279637 0)
(0.0434594 0.0291088 0)
(0.0426278 0.030249 0)
(0.0415918 0.0313782 0)
(0.040351 0.0324899 0)
(0.0389066 0.0335774 0)
(0.0372613 0.034634 0)
(0.0354192 0.0356527 0)
(0.0333862 0.0366265 0)
(0.0311699 0.0375486 0)
(0.0287792 0.0384122 0)
(0.0262249 0.0392107 0)
(0.0235195 0.039938 0)
(0.0206766 0.0405884 0)
(0.0177115 0.0411565 0)
(0.0146408 0.0416376 0)
(0.011482 0.0420278 0)
(0.00825331 0.0423236 0)
(0.00497094 0.0425227 0)
(0.00165903 0.0426226 0)
(0.00118698 0.0100309 0)
(0.00355659 0.010089 0)
(0.00591949 0.0102051 0)
(0.00827349 0.0103795 0)
(0.0106121 0.0106121 0)
(0.0129307 0.0109032 0)
(0.0152244 0.011253 0)
(0.0174883 0.0116615 0)
(0.0197169 0.0121291 0)
(0.0219046 0.0126558 0)
(0.0240457 0.0132418 0)
(0.0261337 0.0138871 0)
(0.0281622 0.0145917 0)
(0.0301242 0.0153553 0)
(0.0320125 0.0161778 0)
(0.0338194 0.0170587 0)
(0.035537 0.0179971 0)
(0.0371571 0.0189924 0)
(0.0386711 0.0200431 0)
(0.0400705 0.021148 0)
(0.0413463 0.022305 0)
(0.0424895 0.0235121 0)
(0.0434911 0.0247665 0)
(0.0443424 0.0260653 0)
(0.0450344 0.0274049 0)
(0.0455587 0.0287812 0)
(0.0459071 0.0301899 0)
(0.0460721 0.0316258 0)
(0.0460466 0.0330833 0)
(0.0458244 0.0345563 0)
(0.0454001 0.0360383 0)
(0.0447693 0.0375221 0)
(0.0439287 0.0390001 0)
(0.0428765 0.0404643 0)
(0.041612 0.0419064 0)
(0.0401362 0.0433177 0)
(0.0384515 0.0446892 0)
(0.0365621 0.046012 0)
(0.0344738 0.047277 0)
(0.0321943 0.048475 0)
(0.0297328 0.0495974 0)
(0.0271005 0.0506356 0)
(0.0243101 0.0515813 0)
(0.0213758 0.0524271 0)
(0.0183137 0.0531661 0)
(0.0151408 0.0537919 0)
(0.0118756 0.0542994 0)
(0.00853712 0.0546841 0)
(0.00514231 0.0549425 0)
(0.00171632 0.0550724 0)
(0.00121926 0.0122197 0)
(0.00365341 0.0122907 0)
(0.00608093 0.0124328 0)
(0.00849968 0.0126461 0)
(0.0109032 0.0129307 0)
(0.0132869 0.0132869 0)
(0.015646 0.0137149 0)
(0.0179753 0.014215 0)
(0.0202696 0.0147874 0)
(0.0225233 0.0154323 0)
(0.0247303 0.0161498 0)
(0.0268843 0.0169402 0)
(0.0289787 0.0178034 0)
(0.0310064 0.0187392 0)
(0.03296 0.0197474 0)
(0.0348315 0.0208274 0)
(0.0366129 0.0219784 0)
(0.0382956 0.0231994 0)
(0.0398708 0.024489 0)
(0.0413295 0.0258455 0)
(0.0426623 0.0272665 0)
(0.04386 0.0287496 0)
(0.0449129 0.0302915 0)
(0.0458118 0.0318886 0)
(0.0465473 0.0335365 0)
(0.0471104 0.0352304 0)
(0.0474922 0.0369649 0)
(0.0476848 0.0387336 0)
(0.0476803 0.0405299 0)
(0.047472 0.0423461 0)
(0.047054 0.0441742 0)
(0.0464212 0.0460054 0)
(0.0455701 0.0478303 0)
(0.0444981 0.049639 0)
(0.0432044 0.0514212 0)
(0.0416894 0.0531661 0)
(0.0399556 0.0548626 0)
(0.0380069 0.0564995 0)
(0.0358493 0.0580654 0)
(0.0334903 0.0595491 0)
(0.0309397 0.0609395 0)
(0.0282088 0.062226 0)
(0.025311 0.0633984 0)
(0.0222613 0.0644471 0)
(0.0190763 0.0653635 0)
(0.0157741 0.0661398 0)
(0.0123741 0.0667693 0)
(0.00889647 0.0672464 0)
(0.00535923 0.0675669 0)
(0.00178884 0.0677279 0)
(0.00125802 0.0143832 0)
(0.0037697 0.0144672 0)
(0.00627484 0.0146353 0)
(0.00877141 0.0148877 0)
(0.011253 0.0152244 0)
(0.0137149 0.015646 0)
(0.0161525 0.0161525 0)
(0.0185607 0.0167445 0)
(0.0209341 0.0174221 0)
(0.0232671 0.0181858 0)
(0.0255536 0.0190357 0)
(0.0277873 0.0199721 0)
(0.0299612 0.020995 0)
(0.0320682 0.0221043 0)
(0.0341006 0.0232998 0)
(0.0360504 0.0245809 0)
(0.037909 0.0259468 0)
(0.0396677 0.0273962 0)
(0.0413172 0.0289277 0)
(0.042848 0.0305393 0)
(0.0442504 0.0322284 0)
(0.0455144 0.033992 0)
(0.0466301 0.0358265 0)
(0.0475874 0.0377276 0)
(0.0483763 0.0396902 0)
(0.048987 0.0417087 0)
(0.0494103 0.0437766 0)
(0.0496371 0.0458865 0)
(0.0496591 0.0480304 0)
(0.0494688 0.0501994 0)
(0.0490594 0.0523837 0)
(0.0484253 0.0545731 0)
(0.0475624 0.0567561 0)
(0.0464674 0.058921 0)
(0.0451391 0.0610553 0)
(0.0435775 0.063146 0)
(0.0417849 0.0651799 0)
(0.0397649 0.0671432 0)
(0.0375234 0.0690224 0)
(0.0350684 0.0708037 0)
(0.0324098 0.0724737 0)
(0.0295594 0.0740196 0)
(0.0265312 0.0754288 0)
(0.0233409 0.0766898 0)
(0.0200063 0.077792 0)
(0.0165465 0.0787258 0)
(0.0129822 0.0794832 0)
(0.0093348 0.0800573 0)
(0.00562382 0.080443 0)
(0.0018773 0.0806367 0)
(0.00130329 0.0165165 0)
(0.00390552 0.0166135 0)
(0.00650134 0.0168077 0)
(0.00908881 0.0170992 0)
(0.0116615 0.0174883 0)
(0.014215 0.0179753 0)
(0.0167445 0.0185607 0)
(0.0192449 0.0192449 0)
(0.0217109 0.0200283 0)
(0.0241369 0.0209113 0)
(0.0265166 0.0218944 0)
(0.0288436 0.0229779 0)
(0.031111 0.0241618 0)
(0.0333112 0.0254462 0)
(0.0354365 0.0268308 0)
(0.0374784 0.0283152 0)
(0.0394282 0.0298984 0)
(0.0412766 0.0315794 0)
(0.0430139 0.0333563 0)
(0.0446302 0.0352271 0)
(0.0461151 0.037189 0)
(0.0474581 0.0392384 0)
(0.0486485 0.0413715 0)
(0.0496755 0.0435832 0)
(0.0505284 0.045868 0)
(0.0511967 0.0482192 0)
(0.05167 0.0506295 0)
(0.0519386 0.0530903 0)
(0.0519932 0.0555925 0)
(0.0518254 0.0581256 0)
(0.0514277 0.0606784 0)
(0.0507936 0.0632386 0)
(0.049918 0.0657932 0)
(0.0487973 0.0683282 0)
(0.0474294 0.0708291 0)
(0.045814 0.0732804 0)
(0.0439528 0.0756665 0)
(0.0418494 0.0779713 0)
(0.0395097 0.0801785 0)
(0.0369417 0.0822719 0)
(0.0341556 0.0842356 0)
(0.0311639 0.0860541 0)
(0.0279813 0.0877126 0)
(0.0246245 0.0891973 0)
(0.0211123 0.0904953 0)
(0.0174653 0.0915955 0)
(0.0137056 0.0924879 0)
(0.0098563 0.0931645 0)
(0.00593864 0.0936191 0)
(0.00198255 0.0938474 0)
(0.00135508 0.0186142 0)
(0.00406091 0.0187243 0)
(0.00676048 0.0189446 0)
(0.00945199 0.0192753 0)
(0.0121291 0.0197169 0)
(0.0147874 0.0202696 0)
(0.0174221 0.0209341 0)
(0.0200283 0.0217109 0)
(0.0226006 0.0226006 0)
(0.0251333 0.0236037 0)
(0.0276202 0.0247208 0)
(0.0300546 0.0259523 0)
(0.0324295 0.0272985 0)
(0.0347372 0.0287596 0)
(0.0369696 0.0303354 0)
(0.0391181 0.0320255 0)
(0.0411733 0.033829 0)
(0.0431256 0.0357448 0)
(0.0449649 0.0377712 0)
(0.0466806 0.0399057 0)
(0.0482617 0.0421455 0)
(0.049697 0.0444869 0)
(0.0509749 0.0469253 0)
(0.0520839 0.0494553 0)
(0.0530122 0.0520707 0)
(0.0537485 0.054764 0)
(0.0542814 0.057527 0)
(0.0546001 0.0603502 0)
(0.0546944 0.0632228 0)
(0.0545546 0.0661332 0)
(0.0541724 0.0690685 0)
(0.0535402 0.0720146 0)
(0.052652 0.0749564 0)
(0.0515033 0.077878 0)
(0.0500912 0.0807623 0)
(0.048415 0.0835916 0)
(0.0464757 0.0863476 0)
(0.0442768 0.0890115 0)
(0.0418241 0.0915643 0)
(0.0391256 0.0939871 0)
(0.036192 0.0962611 0)
(0.0330364 0.0983681 0)
(0.0296743 0.100291 0)
(0.0261237 0.102013 0)
(0.0224045 0.103519 0)
(0.0185391 0.104795 0)
(0.0145512 0.105831 0)
(0.010466 0.106617 0)
(0.00630676 0.107145 0)
(0.00210562 0.10741 0)
(0.00141341 0.0206709 0)
(0.00423591 0.0207941 0)
(0.00705234 0.0210405 0)
(0.00986107 0.0214106 0)
(0.0126558 0.0219046 0)
(0.0154323 0.0225233 0)
(0.0181858 0.0232671 0)
(0.0209113 0.0241369 0)
(0.0236037 0.0251333 0)
(0.0262571 0.0262571 0)
(0.0288652 0.027509 0)
(0.0314214 0.0288897 0)
(0.0339183 0.0303996 0)
(0.0363481 0.0320391 0)
(0.0387024 0.0338081 0)
(0.040972 0.0357064 0)
(0.0431476 0.0377333 0)
(0.0452187 0.0398876 0)
(0.0471748 0.0421676 0)
(0.0490045 0.044571 0)
(0.0506962 0.0470945 0)
(0.0522378 0.0497343 0)
(0.0536169 0.0524856 0)
(0.0548209 0.0553424 0)
(0.0558372 0.0582979 0)
(0.0566531 0.061344 0)
(0.0572561 0.0644715 0)
(0.0576344 0.0676697 0)
(0.0577762 0.0709267 0)
(0.0576711 0.0742294 0)
(0.057309 0.0775633 0)
(0.0566816 0.0809124 0)
(0.0557815 0.0842596 0)
(0.0546032 0.0875866 0)
(0.053143 0.0908739 0)
(0.0513993 0.0941014 0)
(0.0493727 0.0972477 0)
(0.0470662 0.100291 0)
(0.0444853 0.10321 0)
(0.0416384 0.105983 0)
(0.0385366 0.108586 0)
(0.0351935 0.111 0)
(0.0316257 0.113205 0)
(0.0278524 0.11518 0)
(0.0238952 0.116908 0)
(0.0197782 0.118374 0)
(0.0155273 0.119564 0)
(0.0111699 0.120466 0)
(0.0067318 0.121073 0)
(0.00224774 0.121377 0)
(0.00147827 0.0226808 0)
(0.00443053 0.022817 0)
(0.00737695 0.0230896 0)
(0.0103161 0.023499 0)
(0.0132418 0.0240457 0)
(0.0161498 0.0247303 0)
(0.0190357 0.0255536 0)
(0.0218944 0.0265166 0)
(0.0247208 0.0276202 0)
(0.027509 0.0288652 0)
(0.0302528 0.0302528 0)
(0.0329452 0.0317836 0)
(0.0355789 0.0334586 0)
(0.0381457 0.0352781 0)
(0.040637 0.0372425 0)
(0.0430433 0.0393517 0)
(0.0453545 0.0416052 0)
(0.04756 0.0440018 0)
(0.0496483 0.0465401 0)
(0.0516075 0.0492176 0)
(0.0534251 0.0520311 0)
(0.055088 0.0549765 0)
(0.056583 0.0580489 0)
(0.0578962 0.0612418 0)
(0.0590139 0.0645479 0)
(0.0599221 0.0679585 0)
(0.060607 0.0714634 0)
(0.0610554 0.0750509 0)
(0.0612542 0.078708 0)
(0.0611912 0.08242 0)
(0.0608553 0.0861706 0)
(0.0602365 0.0899421 0)
(0.0593262 0.0937151 0)
(0.0581176 0.0974691 0)
(0.056606 0.101182 0)
(0.0547888 0.104831 0)
(0.0526657 0.108391 0)
(0.0502394 0.111838 0)
(0.0475153 0.115147 0)
(0.0445016 0.118292 0)
(0.0412099 0.121248 0)
(0.0376546 0.123991 0)
(0.0338534 0.126497 0)
(0.029827 0.128744 0)
(0.0255987 0.130711 0)
(0.0211947 0.13238 0)
(0.0166435 0.133736 0)
(0.0119751 0.134764 0)
(0.00721804 0.135455 0)
(0.00241033 0.135803 0)
(0.00154966 0.0246377 0)
(0.00464476 0.0247871 0)
(0.00773431 0.0250858 0)
(0.0108171 0.0255345 0)
(0.0138871 0.0261337 0)
(0.0169402 0.0268843 0)
(0.0199721 0.0277873 0)
(0.0229779 0.0288436 0)
(0.0259523 0.0300546 0)
(0.0288897 0.0314214 0)
(0.0317836 0.0329452 0)
(0.0346272 0.0346272 0)
(0.0374128 0.0364684 0)
(0.040132 0.0384697 0)
(0.0427759 0.0406316 0)
(0.0453347 0.0429543 0)
(0.0477977 0.0454375 0)
(0.0501536 0.0480805 0)
(0.0523905 0.0508817 0)
(0.0544955 0.0538389 0)
(0.0564552 0.056949 0)
(0.0582556 0.0602078 0)
(0.0598822 0.06361 0)
(0.06132 0.0671491 0)
(0.0625539 0.0708173 0)
(0.0635685 0.0746051 0)
(0.0643485 0.0785016 0)
(0.064879 0.0824943 0)
(0.0651453 0.0865687 0)
(0.0651337 0.0907087 0)
(0.0648311 0.0948964 0)
(0.0642261 0.0991121 0)
(0.0633085 0.103334 0)
(0.06207 0.107539 0)
(0.0605045 0.111703 0)
(0.0586082 0.115799 0)
(0.0563801 0.1198 0)
(0.0538221 0.123678 0)
(0.0509392 0.127404 0)
(0.0477398 0.130949 0)
(0.0442357 0.134283 0)
(0.0404423 0.13738 0)
(0.0363784 0.140211 0)
(0.0320664 0.142752 0)
(0.0275316 0.144977 0)
(0.0228028 0.146866 0)
(0.0179111 0.148401 0)
(0.0128897 0.149566 0)
(0.00777048 0.150349 0)
(0.00259508 0.150743 0)
(0.00162758 0.0265355 0)
(0.00487858 0.0266978 0)
(0.00812437 0.0270226 0)
(0.011364 0.0275105 0)
(0.0145917 0.0281622 0)
(0.0178034 0.0289787 0)
(0.020995 0.0299612 0)
(0.0241618 0.031111 0)
(0.0272985 0.0324295 0)
(0.0303996 0.0339183 0)
(0.0334586 0.0355789 0)
(0.0364684 0.0374128 0)
(0.0394214 0.0394214 0)
(0.0423089 0.0416059 0)
(0.0451216 0.0439673 0)
(0.0478492 0.046506 0)
(0.0504807 0.0492223 0)
(0.0530041 0.0521155 0)
(0.0554067 0.0551845 0)
(0.0576748 0.0584272 0)
(0.0597939 0.0618407 0)
(0.061749 0.0654208 0)
(0.0635243 0.0691623 0)
(0.0651035 0.0730583 0)
(0.0664698 0.0771007 0)
(0.0676064 0.0812795 0)
(0.0684962 0.0855832 0)
(0.0691224 0.0899981 0)
(0.0694686 0.0945088 0)
(0.069519 0.0990976 0)
(0.0692587 0.103745 0)
(0.0686742 0.108429 0)
(0.0677535 0.113126 0)
(0.0664866 0.11781 0)
(0.0648658 0.122453 0)
(0.0628858 0.127026 0)
(0.0605446 0.131498 0)
(0.057843 0.135838 0)
(0.0547858 0.140011 0)
(0.0513812 0.143987 0)
(0.0476414 0.14773 0)
(0.0435826 0.151209 0)
(0.0392249 0.154393 0)
(0.0345926 0.157251 0)
(0.0297134 0.159757 0)
(0.0246188 0.161886 0)
(0.0193431 0.163616 0)
(0.0139233 0.16493 0)
(0.00839492 0.165814 0)
(0.00280392 0.166258 0)
(0.00171199 0.0283673 0)
(0.00513189 0.0285426 0)
(0.008547 0.0288934 0)
(0.0119567 0.0294203 0)
(0.0153553 0.0301242 0)
(0.0187392 0.0310064 0)
(0.0221043 0.0320682 0)
(0.0254462 0.0333112 0)
(0.0287596 0.0347372 0)
(0.0320391 0.0363481 0)
(0.0352781 0.0381457 0)
(0.0384697 0.040132 0)
(0.0416059 0.0423089 0)
(0.0446779 0.0446779 0)
(0.0476761 0.0472405 0)
(0.0505897 0.0499977 0)
(0.0534071 0.05295 0)
(0.0561159 0.0560973 0)
(0.0587022 0.0594389 0)
(0.0611517 0.062973 0)
(0.0634488 0.0666969 0)
(0.0655772 0.0706066 0)
(0.0675196 0.074697 0)
(0.0692584 0.0789612 0)
(0.0707751 0.0833907 0)
(0.072051 0.0879753 0)
(0.0730671 0.0927027 0)
(0.0738046 0.0975585 0)
(0.0742448 0.102526 0)
(0.0743698 0.107586 0)
(0.0741624 0.112718 0)
(0.073607 0.117897 0)
(0.0726892 0.123097 0)
(0.0713971 0.12829 0)
(0.0697208 0.133445 0)
(0.0676536 0.138528 0)
(0.0651917 0.143506 0)
(0.0623353 0.148342 0)
(0.0590881 0.152999 0)
(0.0554583 0.15744 0)
(0.0514583 0.161626 0)
(0.0471053 0.165521 0)
(0.0424208 0.169088 0)
(0.037431 0.172294 0)
(0.0321665 0.175106 0)
(0.0266617 0.177497 0)
(0.0209549 0.179441 0)
(0.0150869 0.180917 0)
(0.0090981 0.181911 0)
(0.00303913 0.18241 0)
(0.00180285 0.0301264 0)
(0.00540459 0.0303145 0)
(0.00900201 0.030691 0)
(0.0125949 0.0312566 0)
(0.0161778 0.0320125 0)
(0.0197474 0.03296 0)
(0.0232998 0.0341006 0)
(0.0268308 0.0354365 0)
(0.0303354 0.0369696 0)
(0.0338081 0.0387024 0)
(0.0372425 0.040637 0)
(0.0406316 0.0427759 0)
(0.0439673 0.0451216 0)
(0.0472405 0.0476761 0)
(0.0504413 0.0504413 0)
(0.0535587 0.053419 0)
(0.0565803 0.0566102 0)
(0.059493 0.0600153 0)
(0.0622824 0.063634 0)
(0.0649327 0.0674652 0)
(0.0674276 0.0715064 0)
(0.0697491 0.0757542 0)
(0.0718789 0.0802035 0)
(0.0737972 0.0848475 0)
(0.075484 0.0896777 0)
(0.0769184 0.0946837 0)
(0.0780794 0.0998525 0)
(0.0789458 0.105169 0)
(0.0794964 0.110616 0)
(0.0797108 0.116172 0)
(0.0795693 0.121815 0)
(0.0790535 0.127518 0)
(0.0781467 0.133253 0)
(0.0768342 0.138989 0)
(0.075104 0.144691 0)
(0.0729472 0.150322 0)
(0.0703584 0.155844 0)
(0.0673361 0.161216 0)
(0.0638834 0.166396 0)
(0.0600079 0.171342 0)
(0.0557223 0.17601 0)
(0.0510446 0.180358 0)
(0.045998 0.184345 0)
(0.0406108 0.187931 0)
(0.0349166 0.191079 0)
(0.0289534 0.193758 0)
(0.0227638 0.195937 0)
(0.0163935 0.197593 0)
(0.00988785 0.198708 0)
(0.00330334 0.199268 0)
(0.0019001 0.0318055 0)
(0.00569647 0.0320063 0)
(0.00948911 0.0324082 0)
(0.0132782 0.0330122 0)
(0.0170587 0.0338194 0)
(0.0208274 0.0348315 0)
(0.0245809 0.0360504 0)
(0.0283152 0.0374784 0)
(0.0320255 0.0391181 0)
(0.0357064 0.040972 0)
(0.0393517 0.0430433 0)
(0.0429543 0.0453347 0)
(0.046506 0.0478492 0)
(0.0499977 0.0505897 0)
(0.053419 0.0535587 0)
(0.0567585 0.0567585 0)
(0.0600034 0.0601909 0)
(0.0631397 0.063857 0)
(0.0661521 0.0677572 0)
(0.0690242 0.071891 0)
(0.0717379 0.0762565 0)
(0.0742742 0.0808506 0)
(0.0766129 0.0856688 0)
(0.0787327 0.0907046 0)
(0.0806113 0.0959495 0)
(0.0822257 0.101393 0)
(0.0835525 0.107022 0)
(0.0845677 0.11282 0)
(0.0852477 0.118769 0)
(0.0855689 0.124848 0)
(0.0855087 0.131032 0)
(0.0850457 0.137291 0)
(0.0841601 0.143596 0)
(0.0828344 0.149912 0)
(0.0810538 0.1562 0)
(0.0788068 0.162421 0)
(0.0760858 0.16853 0)
(0.0728876 0.174483 0)
(0.069214 0.180231 0)
(0.065072 0.185727 0)
(0.0604744 0.190922 0)
(0.0554399 0.195766 0)
(0.0499934 0.200213 0)
(0.0441657 0.204218 0)
(0.0379935 0.207737 0)
(0.0315193 0.210733 0)
(0.0247903 0.213172 0)
(0.0178578 0.215027 0)
(0.0107732 0.216276 0)
(0.00359957 0.216904 0)
(0.00200365 0.0333973 0)
(0.00600729 0.0336105 0)
(0.0100079 0.0340375 0)
(0.0140061 0.0346792 0)
(0.0179971 0.035537 0)
(0.0219784 0.0366129 0)
(0.0259468 0.037909 0)
(0.0298984 0.0394282 0)
(0.033829 0.0411733 0)
(0.0377333 0.0431476 0)
(0.0416052 0.0453545 0)
(0.0454375 0.0477977 0)
(0.0492223 0.0504807 0)
(0.05295 0.0534071 0)
(0.0566102 0.0565803 0)
(0.0601909 0.0600034 0)
(0.0636789 0.0636789 0)
(0.0670594 0.0676088 0)
(0.0703163 0.0717943 0)
(0.073432 0.0762356 0)
(0.0763872 0.0809318 0)
(0.0791615 0.0858805 0)
(0.0817328 0.0910776 0)
(0.0840779 0.0965171 0)
(0.0861723 0.102191 0)
(0.0879906 0.108088 0)
(0.0895066 0.114197 0)
(0.0906936 0.120499 0)
(0.0915245 0.126976 0)
(0.0919728 0.133606 0)
(0.0920124 0.140361 0)
(0.0916183 0.147212 0)
(0.0907672 0.154124 0)
(0.0894381 0.161061 0)
(0.0876129 0.16798 0)
(0.0852771 0.174836 0)
(0.0824204 0.181581 0)
(0.0790373 0.188164 0)
(0.075128 0.194532 0)
(0.0706984 0.20063 0)
(0.0657613 0.206401 0)
(0.0603361 0.211792 0)
(0.0544492 0.216746 0)
(0.0481343 0.221212 0)
(0.0414318 0.225142 0)
(0.0343888 0.22849 0)
(0.027058 0.231218 0)
(0.0194972 0.233294 0)
(0.0117648 0.234692 0)
(0.00393138 0.235395 0)
(0.00211339 0.0348939 0)
(0.00633671 0.0351194 0)
(0.0105577 0.0355709 0)
(0.0147777 0.0362496 0)
(0.0189924 0.0371571 0)
(0.0231994 0.0382956 0)
(0.0273962 0.0396677 0)
(0.0315794 0.0412766 0)
(0.0357448 0.0431256 0)
(0.0398876 0.0452187 0)
(0.0440018 0.04756 0)
(0.0480805 0.0501536 0)
(0.0521155 0.0530041 0)
(0.0560973 0.0561159 0)
(0.0600153 0.059493 0)
(0.063857 0.0631397 0)
(0.0676088 0.0670594 0)
(0.0712551 0.0712551 0)
(0.074779 0.0757291 0)
(0.0781617 0.0804825 0)
(0.0813827 0.0855153 0)
(0.0844199 0.0908261 0)
(0.0872495 0.0964117 0)
(0.089846 0.102267 0)
(0.0921827 0.108384 0)
(0.0942314 0.114753 0)
(0.095963 0.12136 0)
(0.0973475 0.12819 0)
(0.0983545 0.135221 0)
(0.0989536 0.142432 0)
(0.0991148 0.149793 0)
(0.098809 0.157272 0)
(0.0980089 0.164833 0)
(0.0966895 0.172435 0)
(0.0948286 0.180032 0)
(0.0924081 0.187575 0)
(0.0894142 0.19501 0)
(0.0858387 0.20228 0)
(0.0816795 0.209325 0)
(0.0769414 0.216082 0)
(0.0716363 0.222489 0)
(0.0657845 0.228481 0)
(0.059414 0.233997 0)
(0.0525614 0.238976 0)
(0.0452712 0.243361 0)
(0.0375957 0.247102 0)
(0.0295942 0.250152 0)
(0.0213316 0.252474 0)
(0.0128747 0.254039 0)
(0.00430287 0.254827 0)
(0.00222918 0.0362876 0)
(0.00668431 0.0365251 0)
(0.011138 0.0370005 0)
(0.0155922 0.0377152 0)
(0.0200431 0.0386711 0)
(0.024489 0.0398708 0)
(0.0289277 0.0413172 0)
(0.0333563 0.0430139 0)
(0.0377712 0.0449649 0)
(0.0421676 0.0471748 0)
(0.0465401 0.0496483 0)
(0.0508817 0.0523905 0)
(0.0551845 0.0554067 0)
(0.0594389 0.0587022 0)
(0.063634 0.0622824 0)
(0.0677572 0.0661521 0)
(0.0717943 0.0703163 0)
(0.0757291 0.074779 0)
(0.0795437 0.0795437 0)
(0.0832182 0.0846127 0)
(0.0867309 0.0899874 0)
(0.0900579 0.0956673 0)
(0.0931734 0.10165 0)
(0.09605 0.107932 0)
(0.0986581 0.114507 0)
(0.100967 0.121364 0)
(0.102944 0.128491 0)
(0.104555 0.135871 0)
(0.105767 0.143485 0)
(0.106544 0.151308 0)
(0.106853 0.15931 0)
(0.106659 0.167458 0)
(0.10593 0.175713 0)
(0.104637 0.184029 0)
(0.102753 0.192358 0)
(0.100255 0.200645 0)
(0.0971253 0.20883 0)
(0.0933519 0.216849 0)
(0.0889301 0.224636 0)
(0.0838625 0.232119 0)
(0.0781604 0.239226 0)
(0.0718442 0.245885 0)
(0.0649437 0.252024 0)
(0.0574985 0.257574 0)
(0.0495577 0.262468 0)
(0.0411795 0.266647 0)
(0.0324306 0.270058 0)
(0.0233845 0.272657 0)
(0.0141172 0.27441 0)
(0.00471885 0.275292 0)
(0.00235084 0.0375704 0)
(0.00704955 0.0378194 0)
(0.0117479 0.0383179 0)
(0.0164484 0.0390676 0)
(0.021148 0.0400705 0)
(0.0258455 0.0413295 0)
(0.0305393 0.042848 0)
(0.0352271 0.0446302 0)
(0.0399057 0.0466806 0)
(0.044571 0.0490045 0)
(0.0492176 0.0516075 0)
(0.0538389 0.0544955 0)
(0.0584272 0.0576748 0)
(0.062973 0.0611517 0)
(0.0674652 0.0649327 0)
(0.071891 0.0690242 0)
(0.0762356 0.073432 0)
(0.0804825 0.0781617 0)
(0.0846127 0.0832182 0)
(0.0886054 0.0886054 0)
(0.0924373 0.0943259 0)
(0.0960829 0.100381 0)
(0.0995146 0.10677 0)
(0.102702 0.113489 0)
(0.105614 0.120534 0)
(0.108215 0.127896 0)
(0.110471 0.135563 0)
(0.112342 0.143519 0)
(0.113791 0.151743 0)
(0.114779 0.160212 0)
(0.115265 0.168893 0)
(0.115211 0.177753 0)
(0.11458 0.186749 0)
(0.113335 0.195833 0)
(0.111444 0.204951 0)
(0.10888 0.214044 0)
(0.105619 0.223046 0)
(0.101645 0.231886 0)
(0.0969489 0.240487 0)
(0.0915318 0.24877 0)
(0.085403 0.256654 0)
(0.0785828 0.264054 0)
(0.0711026 0.270888 0)
(0.0630052 0.277075 0)
(0.0543446 0.28254 0)
(0.045186 0.287212 0)
(0.0356043 0.291029 0)
(0.0256829 0.29394 0)
(0.015509 0.295904 0)
(0.00518491 0.296892 0)
(0.00247815 0.0387343 0)
(0.00743181 0.0389943 0)
(0.0123862 0.039515 0)
(0.0173448 0.0402982 0)
(0.022305 0.0413463 0)
(0.0272665 0.0426623 0)
(0.0322284 0.0442504 0)
(0.037189 0.0461151 0)
(0.0421455 0.0482617 0)
(0.0470945 0.0506962 0)
(0.0520311 0.0534251 0)
(0.056949 0.0564552 0)
(0.0618407 0.0597939 0)
(0.0666969 0.0634488 0)
(0.0715064 0.0674276 0)
(0.0762565 0.0717379 0)
(0.0809318 0.0763872 0)
(0.0855153 0.0813827 0)
(0.0899874 0.0867309 0)
(0.0943259 0.0924373 0)
(0.0985064 0.0985064 0)
(0.102502 0.104941 0)
(0.106282 0.111742 0)
(0.109815 0.118909 0)
(0.113065 0.126438 0)
(0.115995 0.134321 0)
(0.118566 0.142547 0)
(0.120735 0.151102 0)
(0.122459 0.159967 0)
(0.123694 0.169115 0)
(0.124394 0.178515 0)
(0.124514 0.188132 0)
(0.12401 0.197921 0)
(0.12284 0.20783 0)
(0.120965 0.217801 0)
(0.11835 0.22777 0)
(0.114967 0.237663 0)
(0.110793 0.247402 0)
(0.105815 0.2569 0)
(0.100029 0.266069 0)
(0.0934437 0.274814 0)
(0.0860781 0.28304 0)
(0.0779651 0.290651 0)
(0.0691506 0.297554 0)
(0.0596943 0.303661 0)
(0.0496687 0.308889 0)
(0.0391587 0.313165 0)
(0.028259 0.316429 0)
(0.0170697 0.318632 0)
(0.00570764 0.319742 0)
(0.00261086 0.0397711 0)
(0.00783031 0.0400416 0)
(0.0130518 0.0405834 0)
(0.0182796 0.0413985 0)
(0.0235121 0.0424895 0)
(0.0287496 0.04386 0)
(0.033992 0.0455144 0)
(0.0392384 0.0474581 0)
(0.0444869 0.049697 0)
(0.0497343 0.0522378 0)
(0.0549765 0.055088 0)
(0.0602078 0.0582556 0)
(0.0654208 0.061749 0)
(0.0706066 0.0655772 0)
(0.0757542 0.0697491 0)
(0.0808506 0.0742742 0)
(0.0858805 0.0791615 0)
(0.0908261 0.0844199 0)
(0.0956673 0.0900579 0)
(0.100381 0.0960829 0)
(0.104941 0.102502 0)
(0.109319 0.109319 0)
(0.113483 0.116538 0)
(0.117398 0.12416 0)
(0.121025 0.132183 0)
(0.124325 0.140602 0)
(0.127252 0.149408 0)
(0.129761 0.158587 0)
(0.131803 0.16812 0)
(0.133328 0.177982 0)
(0.134283 0.188143 0)
(0.134616 0.198565 0)
(0.134277 0.209201 0)
(0.133216 0.219997 0)
(0.131385 0.230891 0)
(0.128742 0.241812 0)
(0.12525 0.252679 0)
(0.120881 0.263404 0)
(0.115616 0.273893 0)
(0.109445 0.284043 0)
(0.102374 0.293747 0)
(0.0944199 0.302897 0)
(0.0856172 0.311381 0)
(0.0760151 0.319091 0)
(0.0656791 0.325923 0)
(0.0546903 0.331781 0)
(0.0431445 0.336578 0)
(0.0311501 0.340244 0)
(0.0188223 0.34272 0)
(0.0062948 0.343968 0)
(0.00274867 0.0406727 0)
(0.00824415 0.0409531 0)
(0.0137431 0.0415147 0)
(0.0192508 0.0423597 0)
(0.0247665 0.0434911 0)
(0.0302915 0.0449129 0)
(0.0358265 0.0466301 0)
(0.0413715 0.0486485 0)
(0.0469253 0.0509749 0)
(0.0524856 0.0536169 0)
(0.0580489 0.056583 0)
(0.06361 0.0598822 0)
(0.0691623 0.0635243 0)
(0.074697 0.0675196 0)
(0.0802035 0.0718789 0)
(0.0856688 0.0766129 0)
(0.0910776 0.0817328 0)
(0.0964117 0.0872495 0)
(0.10165 0.0931734 0)
(0.10677 0.0995146 0)
(0.111742 0.106282 0)
(0.116538 0.113483 0)
(0.121123 0.121123 0)
(0.12546 0.129207 0)
(0.129507 0.137734 0)
(0.13322 0.146702 0)
(0.13655 0.156104 0)
(0.139447 0.16593 0)
(0.141855 0.17616 0)
(0.143718 0.186773 0)
(0.144977 0.197737 0)
(0.145572 0.209013 0)
(0.145442 0.220555 0)
(0.14453 0.232305 0)
(0.142779 0.244196 0)
(0.140137 0.256151 0)
(0.136559 0.268083 0)
(0.132007 0.279894 0)
(0.126453 0.291478 0)
(0.119884 0.302719 0)
(0.112298 0.313495 0)
(0.103712 0.323681 0)
(0.0941591 0.333148 0)
(0.0836926 0.341771 0)
(0.0723842 0.349426 0)
(0.0603244 0.356001 0)
(0.0476219 0.361394 0)
(0.0344006 0.365518 0)
(0.0207939 0.368307 0)
(0.00695558 0.369713 0)
(0.00289123 0.0414313 0)
(0.00867231 0.0417208 0)
(0.0144584 0.0423007 0)
(0.020256 0.0431735 0)
(0.0260653 0.0443424 0)
(0.0318886 0.0458118 0)
(0.0377276 0.0475874 0)
(0.0435832 0.0496755 0)
(0.0494553 0.0520839 0)
(0.0553424 0.0548209 0)
(0.0612418 0.0578962 0)
(0.0671491 0.06132 0)
(0.0730583 0.0651035 0)
(0.0789612 0.0692584 0)
(0.0848475 0.0737972 0)
(0.0907046 0.0787327 0)
(0.0965171 0.0840779 0)
(0.102267 0.089846 0)
(0.107932 0.09605 0)
(0.113489 0.102702 0)
(0.118909 0.109815 0)
(0.12416 0.117398 0)
(0.129207 0.12546 0)
(0.134008 0.134008 0)
(0.138521 0.143046 0)
(0.142695 0.152575 0)
(0.14648 0.16259 0)
(0.149817 0.173083 0)
(0.152647 0.184039 0)
(0.154904 0.195437 0)
(0.156523 0.207246 0)
(0.157435 0.219429 0)
(0.157569 0.231937 0)
(0.156857 0.244711 0)
(0.155231 0.25768 0)
(0.152629 0.270761 0)
(0.148993 0.283859 0)
(0.144276 0.296866 0)
(0.13844 0.309663 0)
(0.131463 0.322119 0)
(0.123336 0.334096 0)
(0.114073 0.345448 0)
(0.103707 0.356028 0)
(0.0922928 0.365686 0)
(0.0799094 0.37428 0)
(0.066658 0.381675 0)
(0.0526619 0.38775 0)
(0.0380634 0.392402 0)
(0.0230171 0.395551 0)
(0.00770091 0.397139 0)
(0.00303815 0.0420391 0)
(0.00911357 0.0423368 0)
(0.0151958 0.0429334 0)
(0.0212925 0.0438314 0)
(0.0274049 0.0450344 0)
(0.0335365 0.0465473 0)
(0.0396902 0.0483763 0)
(0.045868 0.0505284 0)
(0.0520707 0.0530122 0)
(0.0582979 0.0558372 0)
(0.0645479 0.0590139 0)
(0.0708173 0.0625539 0)
(0.0771007 0.0664698 0)
(0.0833907 0.0707751 0)
(0.0896777 0.075484 0)
(0.0959495 0.0806113 0)
(0.102191 0.0861723 0)
(0.108384 0.0921827 0)
(0.114507 0.0986581 0)
(0.120534 0.105614 0)
(0.126438 0.113065 0)
(0.132183 0.121025 0)
(0.137734 0.129507 0)
(0.143046 0.138521 0)
(0.148074 0.148074 0)
(0.152764 0.158171 0)
(0.157059 0.168812 0)
(0.160896 0.179992 0)
(0.164209 0.191699 0)
(0.166925 0.203916 0)
(0.168969 0.216613 0)
(0.170262 0.229755 0)
(0.170724 0.243292 0)
(0.170273 0.257165 0)
(0.168829 0.271299 0)
(0.166317 0.285605 0)
(0.162664 0.29998 0)