/*--------------------------------*- C++ -*----------------------------------*\
| =========                 |                                                 |
| \\      /  F ield         | OpenFOAM: The Open Source CFD Toolbox           |
|  \\    /   O peration     | Version:  2406                                  |
|   \\  /    A nd           | Website:  www.openfoam.com                      |
|    \\/     M anipulation  |                                                 |
\*---------------------------------------------------------------------------*/
FoamFile
{
    version     2.0;
    format      ascii;
    arch        "LSB;label=32;scalar=64";
    class       volScalarField;
    location    "2";
    object      gradTy;
}
// * * * * * * * * * * * * * * * * * * * * * * * * * * * * * * * * * * * * * //

dimensions      [0 -1 0 1 0 0 0];

internalField   nonuniform List<scalar> 
2500
(
0.0112257
0.0112889
0.0114182
0.0116118
0.0118698
0.0121926
0.0125802
0.0130329
0.0135508
0.0141341
0.0147827
0.0154966
0.0162758
0.0171199
0.0180285
0.019001
0.0200365
0.0211339
0.0222918
0.0235084
0.0247815
0.0261086
0.0274867
0.0289123
0.0303815
0.0318897
0.0334318
0.0350024
0.0365952
0.0382034
0.0398199
0.0414369
0.0430461
0.0446388
0.0462061
0.0477384
0.0492264
0.0506603
0.0520304
0.0533272
0.0545411
0.0556632
0.0566849
0.0575983
0.058396
0.0590718
0.0596204
0.0600372
0.0603169
0.0604446
0.0336317
0.0338243
0.0342116
0.0347919
0.0355659
0.0365341
0.037697
0.0390552
0.0406091
0.0423591
0.0443053
0.0464476
0.0487858
0.0513189
0.0540459
0.0569647
0.0600729
0.0633671
0.0668431
0.0704955
0.0743181
0.0783031
0.0824415
0.0867231
0.0911357
0.095666
0.100299
0.105017
0.109803
0.114636
0.119494
0.124354
0.12919
0.133978
0.13869
0.143297
0.147772
0.152084
0.156204
0.160104
0.163755
0.167131
0.170204
0.172952
0.175352
0.177385
0.179035
0.18029
0.181139
0.181549
0.0559697
0.0562926
0.0569373
0.0579045
0.0591949
0.0608093
0.0627484
0.0650134
0.0676048
0.0705234
0.0737695
0.0773431
0.0812437
0.08547
0.0900201
0.0948911
0.100079
0.105577
0.11138
0.117479
0.123862
0.130518
0.137431
0.144584
0.151958
0.159529
0.167274
0.175162
0.183165
0.191248
0.199375
0.207506
0.2156
0.223614
0.231502
0.239216
0.246709
0.253931
0.260833
0.267368
0.273486
0.279143
0.284294
0.2889
0.292922
0.29633
0.299094
0.301193
0.302612
0.30332
0.078218
0.0786696
0.0795723
0.0809271
0.0827349
0.0849968
0.0877141
0.0908881
0.0945199
0.0986107
0.103161
0.108171
0.11364
0.119567
0.125949
0.132782
0.140061
0.147777
0.155922
0.164484
0.173448
0.182796
0.192508
0.20256
0.212925
0.22357
0.234461
0.245559
0.256819
0.268196
0.279637
0.291088
0.30249
0.313782
0.324899
0.335774
0.34634
0.356527
0.366265
0.375486
0.384122
0.392107
0.39938
0.405884
0.411565
0.416376
0.420278
0.423236
0.425227
0.426226
0.100309
0.10089
0.102051
0.103795
0.106121
0.109032
0.11253
0.116615
0.121291
0.126558
0.132418
0.138871
0.145917
0.153553
0.161778
0.170587
0.179971
0.189924
0.200431
0.21148
0.22305
0.235121
0.247665
0.260653
0.274049
0.287812
0.301899
0.316258
0.330833
0.345563
0.360383
0.375221
0.390001
0.404643
0.419064
0.433177
0.446892
0.46012
0.47277
0.48475
0.495974
0.506356
0.515813
0.524271
0.531661
0.537919
0.542994
0.546841
0.549425
0.550724
0.122197
0.122907
0.124328
0.126461
0.129307
0.132869
0.137149
0.14215
0.147874
0.154323
0.161498
0.169402
0.178034
0.187392
0.197474
0.208274
0.219784
0.231994
0.24489
0.258455
0.272665
0.287496
0.302915
0.318886
0.335365
0.352304
0.369649
0.387336
0.405299
0.423461
0.441742
0.460054
0.478303
0.49639
0.514212
0.531661
0.548626
0.564995
0.580654
0.595491
0.609395
0.62226
0.633984
0.644471
0.653635
0.661398
0.667693
0.672464
0.675669
0.677279
0.143832
0.144672
0.146353
0.148877
0.152244
0.15646
0.161525
0.167445
0.174221
0.181858
0.190357
0.199721
0.20995
0.221043
0.232998
0.245809
0.259468
0.273962
0.289277
0.305393
0.322284
0.33992
0.358265
0.377276
0.396902
0.417087
0.437766
0.458865
0.480304
0.501994
0.523837
0.545731
0.567561
0.58921
0.610553
0.63146
0.651799
0.671432
0.690224
0.708037
0.724737
0.740196
0.754288
0.766898
0.77792
0.787258
0.794832
0.800573
0.80443
0.806367
0.165165
0.166135
0.168077
0.170992
0.174883
0.179753
0.185607
0.192449
0.200283
0.209113
0.218944
0.229779
0.241618
0.254462
0.268308
0.283152
0.298984
0.315794
0.333563
0.352271
0.37189
0.392384
0.413715
0.435832
0.45868
0.482192
0.506295
0.530903
0.555925
0.581256
0.606784
0.632386
0.657932
0.683282
0.708291
0.732804
0.756665
0.779713
0.801785
0.822719
0.842356
0.860541
0.877126
0.891973
0.904953
0.915955
0.924879
0.931645
0.936191
0.938474
0.186142
0.187243
0.189446
0.192753
0.197169
0.202696
0.209341
0.217109
0.226006
0.236037
0.247208
0.259523
0.272985
0.287596
0.303354
0.320255
0.33829
0.357448
0.377712
0.399057
0.421455
0.444869
0.469253
0.494553
0.520707
0.54764
0.57527
0.603502
0.632228
0.661332
0.690685
0.720146
0.749564
0.77878
0.807623
0.835916
0.863476
0.890115
0.915643
0.939871
0.962611
0.983681
1.00291
1.02013
1.03519
1.04795
1.05831
1.06617
1.07145
1.0741
0.206709
0.207941
0.210405
0.214106
0.219046
0.225233
0.232671
0.241369
0.251333
0.262571
0.27509
0.288897
0.303996
0.320391
0.338081
0.357064
0.377333
0.398876
0.421676
0.44571
0.470945
0.497343
0.524856
0.553424
0.582979
0.61344
0.644715
0.676697
0.709267
0.742294
0.775633
0.809124
0.842596
0.875866
0.908739
0.941014
0.972477
1.00291
1.0321
1.05983
1.08586
1.11
1.13205
1.1518
1.16908
1.18374
1.19564
1.20466
1.21073
1.21377
0.226808
0.22817
0.230896
0.23499
0.240457
0.247303
0.255536
0.265166
0.276202
0.288652
0.302528
0.317836
0.334586
0.352781
0.372425
0.393517
0.416052
0.440018
0.465401
0.492176
0.520311
0.549765
0.580489
0.612418
0.645479
0.679585
0.714634
0.750509
0.78708
0.8242
0.861706
0.899421
0.937151
0.974691
1.01182
1.04831
1.08391
1.11838
1.15147
1.18292
1.21248
1.23991
1.26497
1.28744
1.30711
1.3238
1.33736
1.34764
1.35455
1.35803
0.246377
0.247871
0.250858
0.255345
0.261337
0.268843
0.277873
0.288436
0.300546
0.314214
0.329452
0.346272
0.364684
0.384697
0.406316
0.429543
0.454375
0.480805
0.508817
0.538389
0.56949
0.602078
0.6361
0.671491
0.708173
0.746051
0.785016
0.824943
0.865687
0.907087
0.948964
0.991121
1.03334
1.07539
1.11703
1.15799
1.198
1.23678
1.27404
1.30949
1.34283
1.3738
1.40211
1.42752
1.44977
1.46866
1.48401
1.49566
1.50349
1.50743
0.265355
0.266978
0.270226
0.275105
0.281622
0.289787
0.299612
0.31111
0.324295
0.339183
0.355789
0.374128
0.394214
0.416059
0.439673
0.46506
0.492223
0.521155
0.551845
0.584272
0.618407
0.654208
0.691623
0.730583
0.771007
0.812795
0.855832
0.899981
0.945088
0.990976
1.03745
1.08429
1.13126
1.1781
1.22453
1.27026
1.31498
1.35838
1.40011
1.43987
1.4773
1.51209
1.54393
1.57251
1.59757
1.61886
1.63616
1.6493
1.65814
1.66258
0.283673
0.285426
0.288934
0.294203
0.301242
0.310064
0.320682
0.333112
0.347372
0.363481
0.381457
0.40132
0.423089
0.446779
0.472405
0.499977
0.5295
0.560973
0.594389
0.62973
0.666969
0.706066
0.74697
0.789612
0.833907
0.879753
0.927027
0.975585
1.02526
1.07586
1.12718
1.17897
1.23097
1.2829
1.33445
1.38528
1.43506
1.48342
1.52999
1.5744
1.61626
1.65521
1.69088
1.72294
1.75106
1.77497
1.79441
1.80917
1.81911
1.8241
0.301264
0.303145
0.30691
0.312566
0.320125
0.3296
0.341006
0.354365
0.369696
0.387024
0.40637
0.427759
0.451216
0.476761
0.504413
0.53419
0.566102
0.600153
0.63634
0.674652
0.715064
0.757542
0.802035
0.848475
0.896777
0.946837
0.998525
1.05169
1.10616
1.16172
1.21815
1.27518
1.33253
1.38989
1.44691
1.50322
1.55844
1.61216
1.66396
1.71342
1.7601
1.80358
1.84345
1.87931
1.91079
1.93758
1.95937
1.97593
1.98708
1.99268
0.318055
0.320063
0.324082
0.330122
0.338194
0.348315
0.360504
0.374784
0.391181
0.40972
0.430433
0.453347
0.478492
0.505897
0.535587
0.567585
0.601909
0.63857
0.677572
0.71891
0.762565
0.808506
0.856688
0.907046
0.959495
1.01393
1.07022
1.1282
1.18769
1.24848
1.31032
1.37291
1.43596
1.49912
1.562
1.62421
1.6853
1.74483
1.80231
1.85727
1.90922
1.95766
2.00213
2.04218
2.07737
2.10733
2.13172
2.15027
2.16276
2.16904
0.333973
0.336105
0.340375
0.346792
0.35537
0.366129
0.37909
0.394282
0.411733
0.431476
0.453545
0.477977
0.504807
0.534071
0.565803
0.600034
0.636789
0.676088
0.717943
0.762356
0.809318
0.858805
0.910776
0.965171
1.02191
1.08088
1.14197
1.20499
1.26976
1.33606
1.40361
1.47212
1.54124
1.61061
1.6798
1.74836
1.81581
1.88164
1.94532
2.0063
2.06401
2.11792
2.16746
2.21212
2.25142
2.2849
2.31218
2.33294
2.34692
2.35395
0.348939
0.351194
0.355709
0.362496
0.371571
0.382956
0.396677
0.412766
0.431256
0.452187
0.4756
0.501536
0.530041
0.561159
0.59493
0.631397
0.670594
0.712551
0.757291
0.804825
0.855153
0.908261
0.964117
1.02267
1.08384
1.14753
1.2136
1.2819
1.35221
1.42432
1.49793
1.57272
1.64833
1.72435
1.80032
1.87575
1.9501
2.0228
2.09325
2.16082
2.22489
2.28481
2.33997
2.38976
2.43361
2.47102
2.50152
2.52474
2.54039
2.54827
0.362876
0.365251
0.370005
0.377152
0.386711
0.398708
0.413172
0.430139
0.449649
0.471748
0.496483
0.523905
0.554067
0.587022
0.622824
0.661521
0.703163
0.74779
0.795437
0.846127
0.899874
0.956673
1.0165
1.07932
1.14507
1.21364
1.28491
1.35871
1.43485
1.51308
1.5931
1.67458
1.75713
1.84029
1.92358
2.00645
2.0883
2.16849
2.24636
2.32119
2.39226
2.45885
2.52024
2.57574
2.62468
2.66647
2.70058
2.72657
2.7441
2.75292
0.375704
0.378194
0.383179
0.390676
0.400705
0.413295
0.42848
0.446302
0.466806
0.490045
0.516075
0.544955
0.576748
0.611517
0.649327
0.690242
0.73432
0.781617
0.832182
0.886054
0.943259
1.00381
1.0677
1.13489
1.20534
1.27896
1.35563
1.43519
1.51743
1.60212
1.68893
1.77753
1.86749
1.95833
2.04951
2.14044
2.23046
2.31886
2.40487
2.4877
2.56654
2.64054
2.70888
2.77075
2.8254
2.87212
2.91029
2.9394
2.95904
2.96892
0.387343
0.389943
0.39515
0.402982
0.413463
0.426623
0.442504
0.461151
0.482617
0.506962
0.534251
0.564552
0.597939
0.634488
0.674276
0.717379
0.763872
0.813827
0.867309
0.924373
0.985064
1.04941
1.11742
1.18909
1.26438
1.34321
1.42547
1.51102
1.59967
1.69115
1.78515
1.88132
1.97921
2.0783
2.17801
2.2777
2.37663
2.47402
2.569
2.66069
2.74814
2.8304
2.90651
2.97554
3.03661
3.08889
3.13165
3.16429
3.18632
3.19742
0.397711
0.400416
0.405834
0.413985
0.424895
0.4386
0.455144
0.474581
0.49697
0.522378
0.55088
0.582556
0.61749
0.655772
0.697491
0.742742
0.791615
0.844199
0.900579
0.960829
1.02502
1.09319
1.16538
1.2416
1.32183
1.40602
1.49408
1.58587
1.6812
1.77982
1.88143
1.98565
2.09201
2.19997
2.30891
2.41812
2.52679
2.63404
2.73893
2.84043
2.93747
3.02897
3.11381
3.19091
3.25923
3.31781
3.36578
3.40244
3.4272
3.43968
0.406727
0.409531
0.415147
0.423597
0.434911
0.449129
0.466301
0.486485
0.509749
0.536169
0.56583
0.598822
0.635243
0.675196
0.718789
0.766129
0.817328
0.872495
0.931734
0.995146
1.06282
1.13483
1.21123
1.29207
1.37734
1.46702
1.56104
1.6593
1.7616
1.86773
1.97737
2.09013
2.20555
2.32305
2.44196
2.56151
2.68083
2.79894
2.91478
3.02719
3.13495
3.23681
3.33148
3.41771
3.49426
3.56001
3.61394
3.65518
3.68307
3.69713
0.414313
0.417208
0.423007
0.431735
0.443424
0.458118
0.475874
0.496755
0.520839
0.548209
0.578962
0.6132
0.651035
0.692584
0.737972
0.787327
0.840779
0.89846
0.9605
1.02702
1.09815
1.17398
1.2546
1.34008
1.43046
1.52575
1.6259
1.73083
1.84039
1.95437
2.07246
2.19429
2.31937
2.44711
2.5768
2.70761
2.83859
2.96866
3.09663
3.22119
3.34096
3.45448
3.56028
3.65686
3.7428
3.81675
3.8775
3.92402
3.95551
3.97139
0.420391
0.423368
0.429334
0.438314
0.450344
0.465473
0.483763
0.505284
0.530122
0.558372
0.590139
0.625539
0.664698
0.707751
0.75484
0.806113
0.861723
0.921827
0.986581
1.05614
1.13065
1.21025
1.29507
1.38521
1.48074
1.58171
1.68812
1.79992
1.91699
2.03916
2.16613
2.29755
2.43292
2.57165
2.71299
2.85605
2.9998
3.14305
3.28448
3.42261
3.55587
3.68257
3.80098
3.90938
4.00607
4.08944
4.15805
4.21067
4.24631
4.2643
0.424887
0.427938
0.43405
0.443253
0.455587
0.471104
0.48987
0.511967
0.537485
0.566531
0.599221
0.635685
0.676064
0.72051
0.769184
0.822257
0.879906
0.942314
1.00967
1.08215
1.15995
1.24325
1.3322
1.42695
1.52764
1.63434
1.7471
1.86593
1.99075
2.12141
2.25768
2.39921
2.54553
2.69602
2.84993
3.00631
3.16405
3.32185
3.47824
3.63156
3.77999
3.92162
4.05442
4.17635
4.2854
4.37965
4.45737
4.51706
4.55755
4.578
0.427732
0.430844
0.437083
0.446477
0.459071
0.474922
0.494103
0.5167
0.542814
0.572561
0.60607
0.643485
0.684962
0.730671
0.780794
0.835525
0.895066
0.95963
1.02944
1.10471
1.18566
1.27252
1.3655
1.4648
1.57059
1.68301
1.80218
1.92814
2.0609
2.20034
2.3463
2.49845
2.65637
2.81943
2.98688
3.15773
3.33079
3.50466
3.67769
3.84802
4.0136
4.17219
4.32144
4.45893
4.58227
4.68915
4.77749
4.84545
4.89161
4.91494
0.428859
0.432022
0.438363
0.447914
0.460721
0.476848
0.496371
0.519386
0.546001
0.576344
0.610554
0.64879
0.691224
0.738046
0.789458
0.845677
0.906936
0.973475
1.04555
1.12342
1.20735
1.29761
1.39447
1.49817
1.60896
1.72705
1.85261
1.98576
2.12659
2.27505
2.43104
2.5943
2.76445
2.94091
3.12291
3.30945
3.49928
3.69088
3.88244
4.07189
4.25687
4.4348
4.60293
4.7584
4.89834
5.01997
5.12074
5.19843
5.25127
5.278
0.428211
0.431412
0.437829
0.447497
0.460466
0.476803
0.496591
0.519932
0.546944
0.577762
0.612542
0.651453
0.694686
0.742448
0.794964
0.852477
0.915245
0.983545
1.05767
1.13791
1.22459
1.31803
1.41855
1.52647
1.64209
1.7657
1.89757
2.0379
2.18686
2.3445
2.51081
2.68562
2.86861
3.05927
3.25686
3.46038
3.66853
3.8797
4.09191
4.30284
4.50982
4.70988
4.89978
5.07612
5.23544
5.37439
5.48983
5.57904
5.6398
5.67057
0.425736
0.428961
0.435427
0.44517
0.458244
0.47472
0.494688
0.518254
0.545546
0.576711
0.611912
0.651337
0.69519
0.743698
0.797108
0.855689
0.919728
0.989536
1.06544
1.14779
1.23694
1.33328
1.43718
1.54904
1.66925
1.79818
1.93619
2.08358
2.24064
2.40754
2.58436
2.77107
2.96746
3.17309
3.38731
3.60915
3.83728
4.07001
4.30522
4.54034
4.77233
4.99777
5.21285
5.41353
5.59562
5.75503
5.88789
5.99081
6.06104
6.09665
0.421391
0.424624
0.431109
0.440882
0.454001
0.47054
0.490594
0.514277
0.541724
0.57309
0.608553
0.648311
0.692587
0.741624
0.795693
0.855087
0.920124
0.991148
1.06853
1.15265
1.24394
1.34283
1.44977
1.56523
1.68969
1.82362
1.96749
2.12173
2.28674
2.46285
2.65028
2.84915
3.05939
3.28071
3.51256
3.75405
4.0039
4.26036
4.52117
4.78351
5.04398
5.29861
5.54296
5.77216
5.98115
6.16489
6.31858
6.43797
6.5196
6.56105
0.415143
0.418369
0.424839
0.434594
0.447693
0.464212
0.484253
0.507936
0.535402
0.566816
0.602365
0.642261
0.686742
0.73607
0.790535
0.850457
0.916183
0.98809
1.06659
1.15211
1.24514
1.34616
1.45572
1.57435
1.70262
1.84114
1.99047
2.1512
2.32388
2.509
2.70698
2.9181
3.14251
3.38011
3.63052
3.89299
4.16633
4.4488
4.73806
5.03106
5.32399
5.61231
5.89079
6.15359
6.39456
6.60742
6.7862
6.92552
7.021
7.06955
0.406968
0.41017
0.416593
0.426278
0.439287
0.455701
0.475624
0.49918
0.52652
0.557815
0.593262
0.633085
0.677535
0.726892
0.781467
0.841601
0.907672
0.980089
1.0593
1.1458
1.2401
1.34277
1.45442
1.57569
1.70724
1.84979
2.00405
2.17077
2.35066
2.54442
2.75268
2.97597
3.21469
3.46898
3.73872
4.02339
4.32199
4.63286
4.95365
5.28112
5.61109
5.93836
6.2568
6.55941
6.83861
7.08661
7.29585
7.45949
7.57192
7.62918
0.396856
0.400016
0.406356
0.415918
0.428765
0.444981
0.464674
0.487973
0.515033
0.546032
0.581176
0.6207
0.664866
0.713971
0.768342
0.828344
0.894381
0.966895
1.04637
1.13335
1.2284
1.33216
1.4453
1.56857
1.70273
1.84863
2.00713
2.17914
2.36559
2.56739
2.78544
3.02056
3.27345
3.5446
3.83423
4.14215
4.46766
4.80934
5.16492
5.53108
5.90328
6.27568
6.64109
6.99109
7.31635
7.60706
7.85359
8.04717
8.18055
8.24857
0.384808
0.387908
0.394127
0.40351
0.41612
0.432044
0.451391
0.474294
0.500912
0.53143
0.56606
0.605045
0.648658
0.697208
0.75104
0.810538
0.876129
0.948286
1.02753
1.11444
1.20965
1.31385
1.42779
1.55231
1.68829
1.83671
1.99858
2.175
2.36712
2.57611
2.80317
3.04946
3.31605
3.60387
3.9136
4.24553
4.59939
4.97418
5.3679
5.7773
6.19761
6.62234
7.04315
7.44991
7.83103
8.1741
8.46672
8.69748
8.85695
8.93843
0.370839
0.373859
0.37992
0.389066
0.401362
0.416894
0.435775
0.45814
0.48415
0.513993
0.547888
0.586082
0.628858
0.676536
0.729472
0.788068
0.852771
0.924081
1.00255
1.0888
1.1835
1.28742
1.40137
1.52629
1.66317
1.8131
1.97729
2.15701
2.35366
2.56869
2.80363
3.06003
3.33944
3.6433
3.97287
4.32909
4.71234
5.12226
5.5574
6.01482
6.48976
6.97519
7.46154
7.93665
8.38608
8.79393
9.14402
9.42141
9.6137
9.71211
0.354976
0.357898
0.363762
0.372613
0.384515
0.399556
0.417849
0.439528
0.464757
0.493727
0.526657
0.563801
0.605446
0.651917
0.703584
0.760858
0.824204
0.894142
0.971253
1.05619
1.14967
1.2525
1.36559
1.48993
1.62664
1.77694
1.94219
2.12387
2.32362
2.54319
2.78449
3.0495
3.3403
3.65897
4.00749
4.38762
4.80067
5.24721
5.7267
6.23695
6.77357
7.32928
7.89335
8.45125
8.98493
9.47372
9.89626
10.2327
10.4666
10.5865
0.337264
0.340068
0.345696
0.354192
0.365621
0.380069
0.397649
0.418494
0.442768
0.470662
0.502394
0.538221
0.57843
0.623353
0.673361
0.728876
0.790373
0.858387
0.933519
1.01645
1.10793
1.20881
1.32007
1.44276
1.5781
1.72745
1.8923
2.07434
2.27546
2.49772
2.7434
3.01499
3.31514
3.64666
4.0124
4.41517
4.85746
5.34119
5.86723
6.43473
7.04032
7.67707
8.33339
8.99219
9.63075
10.2219
10.7368
11.1486
11.4356
11.5828
0.317759
0.320426
0.325779
0.333862
0.344738
0.358493
0.375234
0.395097
0.418241
0.444853
0.475153
0.509392
0.547858
0.590881
0.638834
0.69214
0.75128
0.816795
0.889301
0.969489
1.05815
1.15616
1.26453
1.3844
1.51706
1.66396
1.82676
2.00733
2.20777
2.43047
2.67809
2.95362
3.26035
3.60188
3.98209
4.405
4.87464
5.39473
5.96818
6.59633
7.27785
8.00723
8.7729
9.55533
10.326
11.0483
11.6823
12.1912
12.5463
12.7285
0.296535
0.299046
0.304087
0.311699
0.321943
0.334903
0.350684
0.369417
0.391256
0.416384
0.445016
0.477398
0.513812
0.554583
0.600079
0.65072
0.706984
0.769414
0.838625
0.915318
1.00029
1.09445
1.19884
1.31463
1.44317
1.58601
1.74492
1.92193
2.11935
2.33984
2.58645
2.86265
3.17238
3.52008
3.91074
4.34979
4.8431
5.39666
6.0162
6.70633
7.46932
8.30292
9.19747
10.1321
11.0714
11.965
12.7549
13.3897
13.8318
14.0582
0.27368
0.276017
0.280707
0.287792
0.297328
0.309397
0.324098
0.341556
0.36192
0.385366
0.412099
0.442357
0.476414
0.514583
0.557223
0.604744
0.657613
0.716363
0.781604
0.85403
0.934437
1.02374
1.12298
1.23336
1.35627
1.49331
1.64634
1.81748
2.00925
2.22452
2.46668
2.73963
3.04794
3.39687
3.79254
4.24191
4.7529
5.33424
5.99524
6.74515
7.59183
8.53936
9.58368
10.706
11.8641
12.987
13.9843
14.7825
15.3347
15.616
0.249297
0.251441
0.255746
0.262249
0.271005
0.282088
0.295594
0.311639
0.330364
0.351935
0.376546
0.404423
0.435826
0.471053
0.510446
0.554399
0.603361
0.657845
0.718442
0.785828
0.860781
0.944199
1.03712
1.14073
1.25644
1.38585
1.53086
1.69369
1.87693
2.08364
2.31745
2.58262
2.88424
3.22834
3.62205
4.07387
4.59383
5.19365
5.88689
6.6887
7.61505
8.68054
9.89347
11.2456
12.6937
14.1362
15.4145
16.4228
17.1102
17.4568
0.223503
0.225438
0.229324
0.235195
0.243101
0.25311
0.265312
0.279813
0.296743
0.316257
0.338534
0.363784
0.392249
0.424208
0.45998
0.499934
0.544492
0.59414
0.649437
0.711026
0.779651
0.856172
0.941591
1.03707
1.14397
1.26389
1.3987
1.55063
1.7223
1.91686
2.13806
2.3904
2.67934
3.01145
3.39475
3.83901
4.35621
4.96099
5.67132
6.50909
7.5005
8.6757
10.0655
11.6905
13.5302
15.4512
17.116
18.3856
19.2278
19.6457
0.196426
0.198138
0.201574
0.206766
0.213758
0.222613
0.233409
0.246245
0.261237
0.278524
0.29827
0.320664
0.345926
0.37431
0.406108
0.441657
0.481343
0.525614
0.574985
0.630052
0.691506
0.760151
0.836926
0.922928
1.01945
1.12801
1.25042
1.38884
1.54583
1.7245
1.9286
2.1627
2.43237
2.74451
3.10764
3.5324
4.03218
4.62398
5.32954
6.17705
7.20342
8.45748
10.0036
11.9222
14.2867
17.0237
19.214
20.7769
21.7713
22.2536
0.168212
0.169685
0.172645
0.177115
0.183137
0.190763
0.200063
0.211123
0.224045
0.238952
0.255987
0.275316
0.297134
0.321665
0.349166
0.379935
0.414318
0.452712
0.495577
0.543446
0.596943
0.656791
0.723842
0.799094
0.883729
0.979149
1.08703
1.20937
1.3486
1.50764
1.6901
1.90038
2.14393
2.42758
2.7599
3.15178
3.61718
4.17425
4.84689
5.66724
6.67974
7.94827
9.5704
11.7089
14.6719
19.1439
21.9404
23.738
24.8278
25.3451
0.139012
0.140236
0.142695
0.146408
0.151408
0.157741
0.165465
0.174653
0.185391
0.197782
0.211947
0.228028
0.246188
0.266617
0.289534
0.315193
0.343888
0.375957
0.411795
0.45186
0.496687
0.546903
0.603244
0.66658
0.737942
0.818562
0.909914
1.01378
1.13232
1.26817
1.42459
1.60559
1.81623
2.06283
2.35347
2.69851
3.11141
3.60985
4.21742
4.9662
5.90094
7.08641
8.62175
10.6722
13.549
17.9407
20.6668
22.4077
23.4579
23.9548
0.10899
0.109956
0.111895
0.11482
0.118756
0.123741
0.129822
0.137056
0.145512
0.155273
0.166435
0.179111
0.193431
0.209549
0.227638
0.247903
0.27058
0.295942
0.324306
0.356043
0.391587
0.431445
0.476219
0.526619
0.58349
0.647846
0.720905
0.804145
0.899368
1.00879
1.13515
1.28187
1.45324
1.65474
1.89335
2.17811
2.52083
2.93705
3.44749
4.07997
4.87219
5.87544
7.15877
8.8098
10.912
13.4039
15.379
16.7689
17.6422
18.0623
0.0783185
0.079015
0.0804222
0.0825331
0.0853712
0.0889647
0.093348
0.098563
0.10466
0.111699
0.119751
0.128897
0.139233
0.150869
0.163935
0.178578
0.194972
0.213316
0.233845
0.256829
0.28259
0.311501
0.344006
0.380634
0.422011
0.468892
0.52219
0.583012
0.652715
0.732973
0.825865
0.933999
1.06067
1.21008
1.38762
1.60031
1.8573
2.17061
2.5561
3.03457
3.63299
4.38498
5.32871
6.49685
7.88602
9.38427
10.6772
11.6474
12.2803
12.5904
0.0471751
0.0475824
0.0484339
0.0497094
0.0514231
0.0535923
0.0562382
0.0593864
0.0630676
0.067318
0.0721804
0.0777048
0.0839492
0.090981
0.0988785
0.107732
0.117648
0.128747
0.141172
0.15509
0.170697
0.188223
0.207939
0.230171
0.255305
0.283807
0.316242
0.353295
0.39581
0.444829
0.501653
0.567913
0.64568
0.737601
0.847084
0.978556
1.13779
1.33235
1.57206
1.86958
2.24058
2.70314
3.27458
3.96324
4.75131
5.57038
6.29845
6.86371
7.24138
7.42895
0.0157542
0.0158819
0.0161642
0.0165903
0.0171632
0.0178884
0.018773
0.0198255
0.0210562
0.0224774
0.0241033
0.0259508
0.0280392
0.0303913
0.0330334
0.0359957
0.0393138
0.0430287
0.0471885
0.0518491
0.0570764
0.062948
0.0695558
0.0770091
0.0854388
0.0950023
0.10589
0.118336
0.132625
0.149111
0.168237
0.190558
0.216781
0.247808
0.284806
0.329287
0.383221
0.449181
0.530489
0.63136
0.756892
0.912677
1.10352
1.3305
1.58588
1.84778
2.08278
2.26784
2.39289
2.45542
)
;

boundaryField
{
    walls
    {
        type            calculated;
        value           nonuniform List<scalar> 
200
(
0
0
0
0
0
0
0
0
0
0
0
0
0
0
0
0
0
0
0
0
0
0
0
0
0
0
0
0
0
0
0
0
0
0
0
0
0
0
0
0
0
0
0
0
0
0
0
0
0
0
0.0112257
0.0336317
0.0559697
0.078218
0.100309
0.122197
0.143832
0.165165
0.186142
0.206709
0.226808
0.246377
0.265355
0.283673
0.301264
0.318055
0.333973
0.348939
0.362876
0.375704
0.387343
0.397711
0.406727
0.414313
0.420391
0.424887
0.427732
0.428859
0.428211
0.425736
0.421391
0.415143
0.406968
0.396856
0.384808
0.370839
0.354976
0.337264
0.317759
0.296535
0.27368
0.249297
0.223503
0.196426
0.168212
0.139012
0.10899
0.0783185
0.0471751
0.0157542
0.0604446
0.181549
0.30332
0.426226
0.550724
0.677279
0.806367
0.938474
1.0741
1.21377
1.35803
1.50743
1.66258
1.8241
1.99268
2.16904
2.35395
2.54827
2.75292
2.96892
3.19742
3.43968
3.69713
3.97139
4.2643
4.578
4.91494
5.278
5.67057
6.09665
6.56105
7.06955
7.62918
8.24857
8.93843
9.71211
10.5865
11.5828
12.7285
14.0582
15.616
17.4568
19.6457
22.2536
25.3451
23.9548
18.0623
12.5904
7.42895
2.45542
0
0
0
0
0
0
0
0
0
0
0
0
0
0
0
0
0
0
0
0
0
0
0
0
0
0
0
0
0
0
0
0
0
0
0
0
0
0
0
0
0
0
0
0
0
0
0
0
0
0
)
;
    }
    frontAndBack
    {
        type            empty;
    }
}


// ************************************************************************* //
