/*--------------------------------*- C++ -*----------------------------------*\
| =========                 |                                                 |
| \\      /  F ield         | OpenFOAM: The Open Source CFD Toolbox           |
|  \\    /   O peration     | Version:  2406                                  |
|   \\  /    A nd           | Website:  www.openfoam.com                      |
|    \\/     M anipulation  |                                                 |
\*---------------------------------------------------------------------------*/
FoamFile
{
    version     2.0;
    format      ascii;
    arch        "LSB;label=32;scalar=64";
    class       volScalarField;
    location    "2";
    object      gradTx;
}
// * * * * * * * * * * * * * * * * * * * * * * * * * * * * * * * * * * * * * //

dimensions      [0 -1 0 1 0 0 0];

internalField   nonuniform List<scalar> 
2500
(
0.0112257
0.0336317
0.0559697
0.078218
0.100309
0.122197
0.143832
0.165165
0.186142
0.206709
0.226808
0.246377
0.265355
0.283673
0.301264
0.318055
0.333973
0.348939
0.362876
0.375704
0.387343
0.397711
0.406727
0.414313
0.420391
0.424887
0.427732
0.428859
0.428211
0.425736
0.421391
0.415143
0.406968
0.396856
0.384808
0.370839
0.354976
0.337264
0.317759
0.296535
0.27368
0.249297
0.223503
0.196426
0.168212
0.139012
0.10899
0.0783185
0.0471751
0.0157542
0.0112889
0.0338243
0.0562926
0.0786696
0.10089
0.122907
0.144672
0.166135
0.187243
0.207941
0.22817
0.247871
0.266978
0.285426
0.303145
0.320063
0.336105
0.351194
0.365251
0.378194
0.389943
0.400416
0.409531
0.417208
0.423368
0.427938
0.430844
0.432022
0.431412
0.428961
0.424624
0.418369
0.41017
0.400016
0.387908
0.373859
0.357898
0.340068
0.320426
0.299046
0.276017
0.251441
0.225438
0.198138
0.169685
0.140236
0.109956
0.079015
0.0475824
0.0158819
0.0114182
0.0342116
0.0569373
0.0795723
0.102051
0.124328
0.146353
0.168077
0.189446
0.210405
0.230896
0.250858
0.270226
0.288934
0.30691
0.324082
0.340375
0.355709
0.370005
0.383179
0.39515
0.405834
0.415147
0.423007
0.429334
0.43405
0.437083
0.438363
0.437829
0.435427
0.431109
0.424839
0.416593
0.406356
0.394127
0.37992
0.363762
0.345696
0.325779
0.304087
0.280707
0.255746
0.229324
0.201574
0.172645
0.142695
0.111895
0.0804222
0.0484339
0.0161642
0.0116118
0.0347919
0.0579045
0.0809271
0.103795
0.126461
0.148877
0.170992
0.192753
0.214106
0.23499
0.255345
0.275105
0.294203
0.312566
0.330122
0.346792
0.362496
0.377152
0.390676
0.402982
0.413985
0.423597
0.431735
0.438314
0.443253
0.446477
0.447914
0.447497
0.44517
0.440882
0.434594
0.426278
0.415918
0.40351
0.389066
0.372613
0.354192
0.333862
0.311699
0.287792
0.262249
0.235195
0.206766
0.177115
0.146408
0.11482
0.0825331
0.0497094
0.0165903
0.0118698
0.0355659
0.0591949
0.0827349
0.106121
0.129307
0.152244
0.174883
0.197169
0.219046
0.240457
0.261337
0.281622
0.301242
0.320125
0.338194
0.35537
0.371571
0.386711
0.400705
0.413463
0.424895
0.434911
0.443424
0.450344
0.455587
0.459071
0.460721
0.460466
0.458244
0.454001
0.447693
0.439287
0.428765
0.41612
0.401362
0.384515
0.365621
0.344738
0.321943
0.297328
0.271005
0.243101
0.213758
0.183137
0.151408
0.118756
0.0853712
0.0514231
0.0171632
0.0121926
0.0365341
0.0608093
0.0849968
0.109032
0.132869
0.15646
0.179753
0.202696
0.225233
0.247303
0.268843
0.289787
0.310064
0.3296
0.348315
0.366129
0.382956
0.398708
0.413295
0.426623
0.4386
0.449129
0.458118
0.465473
0.471104
0.474922
0.476848
0.476803
0.47472
0.47054
0.464212
0.455701
0.444981
0.432044
0.416894
0.399556
0.380069
0.358493
0.334903
0.309397
0.282088
0.25311
0.222613
0.190763
0.157741
0.123741
0.0889647
0.0535923
0.0178884
0.0125802
0.037697
0.0627484
0.0877141
0.11253
0.137149
0.161525
0.185607
0.209341
0.232671
0.255536
0.277873
0.299612
0.320682
0.341006
0.360504
0.37909
0.396677
0.413172
0.42848
0.442504
0.455144
0.466301
0.475874
0.483763
0.48987
0.494103
0.496371
0.496591
0.494688
0.490594
0.484253
0.475624
0.464674
0.451391
0.435775
0.417849
0.397649
0.375234
0.350684
0.324098
0.295594
0.265312
0.233409
0.200063
0.165465
0.129822
0.093348
0.0562382
0.018773
0.0130329
0.0390552
0.0650134
0.0908881
0.116615
0.14215
0.167445
0.192449
0.217109
0.241369
0.265166
0.288436
0.31111
0.333112
0.354365
0.374784
0.394282
0.412766
0.430139
0.446302
0.461151
0.474581
0.486485
0.496755
0.505284
0.511967
0.5167
0.519386
0.519932
0.518254
0.514277
0.507936
0.49918
0.487973
0.474294
0.45814
0.439528
0.418494
0.395097
0.369417
0.341556
0.311639
0.279813
0.246245
0.211123
0.174653
0.137056
0.098563
0.0593864
0.0198255
0.0135508
0.0406091
0.0676048
0.0945199
0.121291
0.147874
0.174221
0.200283
0.226006
0.251333
0.276202
0.300546
0.324295
0.347372
0.369696
0.391181
0.411733
0.431256
0.449649
0.466806
0.482617
0.49697
0.509749
0.520839
0.530122
0.537485
0.542814
0.546001
0.546944
0.545546
0.541724
0.535402
0.52652
0.515033
0.500912
0.48415
0.464757
0.442768
0.418241
0.391256
0.36192
0.330364
0.296743
0.261237
0.224045
0.185391
0.145512
0.10466
0.0630676
0.0210562
0.0141341
0.0423591
0.0705234
0.0986107
0.126558
0.154323
0.181858
0.209113
0.236037
0.262571
0.288652
0.314214
0.339183
0.363481
0.387024
0.40972
0.431476
0.452187
0.471748
0.490045
0.506962
0.522378
0.536169
0.548209
0.558372
0.566531
0.572561
0.576344
0.577762
0.576711
0.57309
0.566816
0.557815
0.546032
0.53143
0.513993
0.493727
0.470662
0.444853
0.416384
0.385366
0.351935
0.316257
0.278524
0.238952
0.197782
0.155273
0.111699
0.067318
0.0224774
0.0147827
0.0443053
0.0737695
0.103161
0.132418
0.161498
0.190357
0.218944
0.247208
0.27509
0.302528
0.329452
0.355789
0.381457
0.40637
0.430433
0.453545
0.4756
0.496483
0.516075
0.534251
0.55088
0.56583
0.578962
0.590139
0.599221
0.60607
0.610554
0.612542
0.611912
0.608553
0.602365
0.593262
0.581176
0.56606
0.547888
0.526657
0.502394
0.475153
0.445016
0.412099
0.376546
0.338534
0.29827
0.255987
0.211947
0.166435
0.119751
0.0721804
0.0241033
0.0154966
0.0464476
0.0773431
0.108171
0.138871
0.169402
0.199721
0.229779
0.259523
0.288897
0.317836
0.346272
0.374128
0.40132
0.427759
0.453347
0.477977
0.501536
0.523905
0.544955
0.564552
0.582556
0.598822
0.6132
0.625539
0.635685
0.643485
0.64879
0.651453
0.651337
0.648311
0.642261
0.633085
0.6207
0.605045
0.586082
0.563801
0.538221
0.509392
0.477398
0.442357
0.404423
0.363784
0.320664
0.275316
0.228028
0.179111
0.128897
0.0777048
0.0259508
0.0162758
0.0487858
0.0812437
0.11364
0.145917
0.178034
0.20995
0.241618
0.272985
0.303996
0.334586
0.364684
0.394214
0.423089
0.451216
0.478492
0.504807
0.530041
0.554067
0.576748
0.597939
0.61749
0.635243
0.651035
0.664698
0.676064
0.684962
0.691224
0.694686
0.69519
0.692587
0.686742
0.677535
0.664866
0.648658
0.628858
0.605446
0.57843
0.547858
0.513812
0.476414
0.435826
0.392249
0.345926
0.297134
0.246188
0.193431
0.139233
0.0839492
0.0280392
0.0171199
0.0513189
0.08547
0.119567
0.153553
0.187392
0.221043
0.254462
0.287596
0.320391
0.352781
0.384697
0.416059
0.446779
0.476761
0.505897
0.534071
0.561159
0.587022
0.611517
0.634488
0.655772
0.675196
0.692584
0.707751
0.72051
0.730671
0.738046
0.742448
0.743698
0.741624
0.73607
0.726892
0.713971
0.697208
0.676536
0.651917
0.623353
0.590881
0.554583
0.514583
0.471053
0.424208
0.37431
0.321665
0.266617
0.209549
0.150869
0.090981
0.0303913
0.0180285
0.0540459
0.0900201
0.125949
0.161778
0.197474
0.232998
0.268308
0.303354
0.338081
0.372425
0.406316
0.439673
0.472405
0.504413
0.535587
0.565803
0.59493
0.622824
0.649327
0.674276
0.697491
0.718789
0.737972
0.75484
0.769184
0.780794
0.789458
0.794964
0.797108
0.795693
0.790535
0.781467
0.768342
0.75104
0.729472
0.703584
0.673361
0.638834
0.600079
0.557223
0.510446
0.45998
0.406108
0.349166
0.289534
0.227638
0.163935
0.0988785
0.0330334
0.019001
0.0569647
0.0948911
0.132782
0.170587
0.208274
0.245809
0.283152
0.320255
0.357064
0.393517
0.429543
0.46506
0.499977
0.53419
0.567585
0.600034
0.631397
0.661521
0.690242
0.717379
0.742742
0.766129
0.787327
0.806113
0.822257
0.835525
0.845677
0.852477
0.855689
0.855087
0.850457
0.841601
0.828344
0.810538
0.788068
0.760858
0.728876
0.69214
0.65072
0.604744
0.554399
0.499934
0.441657
0.379935
0.315193
0.247903
0.178578
0.107732
0.0359957
0.0200365
0.0600729
0.100079
0.140061
0.179971
0.219784
0.259468
0.298984
0.33829
0.377333
0.416052
0.454375
0.492223
0.5295
0.566102
0.601909
0.636789
0.670594
0.703163
0.73432
0.763872
0.791615
0.817328
0.840779
0.861723
0.879906
0.895066
0.906936
0.915245
0.919728
0.920124
0.916183
0.907672
0.894381
0.876129
0.852771
0.824204
0.790373
0.75128
0.706984
0.657613
0.603361
0.544492
0.481343
0.414318
0.343888
0.27058
0.194972
0.117648
0.0393138
0.0211339
0.0633671
0.105577
0.147777
0.189924
0.231994
0.273962
0.315794
0.357448
0.398876
0.440018
0.480805
0.521155
0.560973
0.600153
0.63857
0.676088
0.712551
0.74779
0.781617
0.813827
0.844199
0.872495
0.89846
0.921827
0.942314
0.95963
0.973475
0.983545
0.989536
0.991148
0.98809
0.980089
0.966895
0.948286
0.924081
0.894142
0.858387
0.816795
0.769414
0.716363
0.657845
0.59414
0.525614
0.452712
0.375957
0.295942
0.213316
0.128747
0.0430287
0.0222918
0.0668431
0.11138
0.155922
0.200431
0.24489
0.289277
0.333563
0.377712
0.421676
0.465401
0.508817
0.551845
0.594389
0.63634
0.677572
0.717943
0.757291
0.795437
0.832182
0.867309
0.900579
0.931734
0.9605
0.986581
1.00967
1.02944
1.04555
1.05767
1.06544
1.06853
1.06659
1.0593
1.04637
1.02753
1.00255
0.971253
0.933519
0.889301
0.838625
0.781604
0.718442
0.649437
0.574985
0.495577
0.411795
0.324306
0.233845
0.141172
0.0471885
0.0235084
0.0704955
0.117479
0.164484
0.21148
0.258455
0.305393
0.352271
0.399057
0.44571
0.492176
0.538389
0.584272
0.62973
0.674652
0.71891
0.762356
0.804825
0.846127
0.886054
0.924373
0.960829
0.995146
1.02702
1.05614
1.08215
1.10471
1.12342
1.13791
1.14779
1.15265
1.15211
1.1458
1.13335
1.11444
1.0888
1.05619
1.01645
0.969489
0.915318
0.85403
0.785828
0.711026
0.630052
0.543446
0.45186
0.356043
0.256829
0.15509
0.0518491
0.0247815
0.0743181
0.123862
0.173448
0.22305
0.272665
0.322284
0.37189
0.421455
0.470945
0.520311
0.56949
0.618407
0.666969
0.715064
0.762565
0.809318
0.855153
0.899874
0.943259
0.985064
1.02502
1.06282
1.09815
1.13065
1.15995
1.18566
1.20735
1.22459
1.23694
1.24394
1.24514
1.2401
1.2284
1.20965
1.1835
1.14967
1.10793
1.05815
1.00029
0.934437
0.860781
0.779651
0.691506
0.596943
0.496687
0.391587
0.28259
0.170697
0.0570764
0.0261086
0.0783031
0.130518
0.182796
0.235121
0.287496
0.33992
0.392384
0.444869
0.497343
0.549765
0.602078
0.654208
0.706066
0.757542
0.808506
0.858805
0.908261
0.956673
1.00381
1.04941
1.09319
1.13483
1.17398
1.21025
1.24325
1.27252
1.29761
1.31803
1.33328
1.34283
1.34616
1.34277
1.33216
1.31385
1.28742
1.2525
1.20881
1.15616
1.09445
1.02374
0.944199
0.856172
0.760151
0.656791
0.546903
0.431445
0.311501
0.188223
0.062948
0.0274867
0.0824415
0.137431
0.192508
0.247665
0.302915
0.358265
0.413715
0.469253
0.524856
0.580489
0.6361
0.691623
0.74697
0.802035
0.856688
0.910776
0.964117
1.0165
1.0677
1.11742
1.16538
1.21123
1.2546
1.29507
1.3322
1.3655
1.39447
1.41855
1.43718
1.44977
1.45572
1.45442
1.4453
1.42779
1.40137
1.36559
1.32007
1.26453
1.19884
1.12298
1.03712
0.941591
0.836926
0.723842
0.603244
0.476219
0.344006
0.207939
0.0695558
0.0289123
0.0867231
0.144584
0.20256
0.260653
0.318886
0.377276
0.435832
0.494553
0.553424
0.612418
0.671491
0.730583
0.789612
0.848475
0.907046
0.965171
1.02267
1.07932
1.13489
1.18909
1.2416
1.29207
1.34008
1.38521
1.42695
1.4648
1.49817
1.52647
1.54904
1.56523
1.57435
1.57569
1.56857
1.55231
1.52629
1.48993
1.44276
1.3844
1.31463
1.23336
1.14073
1.03707
0.922928
0.799094
0.66658
0.526619
0.380634
0.230171
0.0770091
0.0303815
0.0911357
0.151958
0.212925
0.274049
0.335365
0.396902
0.45868
0.520707
0.582979
0.645479
0.708173
0.771007
0.833907
0.896777
0.959495
1.02191
1.08384
1.14507
1.20534
1.26438
1.32183
1.37734
1.43046
1.48074
1.52764
1.57059
1.60896
1.64209
1.66925
1.68969
1.70262
1.70724
1.70273
1.68829
1.66317
1.62664
1.5781
1.51706
1.44317
1.35627
1.25644
1.14397
1.01945
0.883729
0.737942
0.58349
0.422011
0.255305
0.0854388
0.0318897
0.095666
0.159529
0.22357
0.287812
0.352304
0.417087
0.482192
0.54764
0.61344
0.679585
0.746051
0.812795
0.879753
0.946837
1.01393
1.08088
1.14753
1.21364
1.27896
1.34321
1.40602
1.46702
1.52575
1.58171
1.63434
1.68301
1.72705
1.7657
1.79818
1.82362
1.84114
1.84979
1.84863
1.83671
1.8131
1.77694
1.72745
1.66396
1.58601
1.49331
1.38585
1.26389
1.12801
0.979149
0.818562
0.647846
0.468892
0.283807
0.0950023
0.0334318
0.100299
0.167274
0.234461
0.301899
0.369649
0.437766
0.506295
0.57527
0.644715
0.714634
0.785016
0.855832
0.927027
0.998525
1.07022
1.14197
1.2136
1.28491
1.35563
1.42547
1.49408
1.56104
1.6259
1.68812
1.7471
1.80218
1.85261
1.89757
1.93619
1.96749
1.99047
2.00405
2.00713
1.99858
1.97729
1.94219
1.8923
1.82676
1.74492
1.64634
1.53086
1.3987
1.25042
1.08703
0.909914
0.720905
0.52219
0.316242
0.10589
0.0350024
0.105017
0.175162
0.245559
0.316258
0.387336
0.458865
0.530903
0.603502
0.676697
0.750509
0.824943
0.899981
0.975585
1.05169
1.1282
1.20499
1.2819
1.35871
1.43519
1.51102
1.58587
1.6593
1.73083
1.79992
1.86593
1.92814
1.98576
2.0379
2.08358
2.12173
2.1512
2.17077
2.17914
2.175
2.15701
2.12387
2.07434
2.00733
1.92193
1.81748
1.69369
1.55063
1.38884
1.20937
1.01378
0.804145
0.583012
0.353295
0.118336
0.0365952
0.109803
0.183165
0.256819
0.330833
0.405299
0.480304
0.555925
0.632228
0.709267
0.78708
0.865687
0.945088
1.02526
1.10616
1.18769
1.26976
1.35221
1.43485
1.51743
1.59967
1.6812
1.7616
1.84039
1.91699
1.99075
2.0609
2.12659
2.18686
2.24064
2.28674
2.32388
2.35066
2.36559
2.36712
2.35366
2.32362
2.27546
2.20777
2.11935
2.00925
1.87693
1.7223
1.54583
1.3486
1.13232
0.899368
0.652715
0.39581
0.132625
0.0382034
0.114636
0.191248
0.268196
0.345563
0.423461
0.501994
0.581256
0.661332
0.742294
0.8242
0.907087
0.990976
1.07586
1.16172
1.24848
1.33606
1.42432
1.51308
1.60212
1.69115
1.77982
1.86773
1.95437
2.03916
2.12141
2.20034
2.27505
2.3445
2.40754
2.46285
2.509
2.54442
2.56739
2.57611
2.56869
2.54319
2.49772
2.43047
2.33984
2.22452
2.08364
1.91686
1.7245
1.50764
1.26817
1.00879
0.732973
0.444829
0.149111
0.0398199
0.119494
0.199375
0.279637
0.360383
0.441742
0.523837
0.606784
0.690685
0.775633
0.861706
0.948964
1.03745
1.12718
1.21815
1.31032
1.40361
1.49793
1.5931
1.68893
1.78515
1.88143
1.97737
2.07246
2.16613
2.25768
2.3463
2.43104
2.51081
2.58436
2.65028
2.70698
2.75268
2.78544
2.80317
2.80363
2.78449
2.7434
2.67809
2.58645
2.46668
2.31745
2.13806
1.9286
1.6901
1.42459
1.13515
0.825865
0.501653
0.168237
0.0414369
0.124354
0.207506
0.291088
0.375221
0.460054
0.545731
0.632386
0.720146
0.809124
0.899421
0.991121
1.08429
1.17897
1.27518
1.37291
1.47212
1.57272
1.67458
1.77753
1.88132
1.98565
2.09013
2.19429
2.29755
2.39921
2.49845
2.5943
2.68562
2.77107
2.84915
2.9181
2.97597
3.02056
3.04946
3.06003
3.0495
3.01499
2.95362
2.86265
2.73963
2.58262
2.3904
2.1627
1.90038
1.60559
1.28187
0.933999
0.567913
0.190558
0.0430461
0.12919
0.2156
0.30249
0.390001
0.478303
0.567561
0.657932
0.749564
0.842596
0.937151
1.03334
1.13126
1.23097
1.33253
1.43596
1.54124
1.64833
1.75713
1.86749
1.97921
2.09201
2.20555
2.31937
2.43292
2.54553
2.65637
2.76445
2.86861
2.96746
3.05939
3.14251
3.21469
3.27345
3.31605
3.33944
3.3403
3.31514
3.26035
3.17238
3.04794
2.88424
2.67934
2.43237
2.14393
1.81623
1.45324
1.06067
0.64568
0.216781
0.0446388
0.133978
0.223614
0.313782
0.404643
0.49639
0.58921
0.683282
0.77878
0.875866
0.974691
1.07539
1.1781
1.2829
1.38989
1.49912
1.61061
1.72435
1.84029
1.95833
2.0783
2.19997
2.32305
2.44711
2.57165
2.69602
2.81943
2.94091
3.05927
3.17309
3.28071
3.38011
3.46898
3.5446
3.60387
3.6433
3.65897
3.64666
3.60188
3.52008
3.39687
3.22834
3.01145
2.74451
2.42758
2.06283
1.65474
1.21008
0.737601
0.247808
0.0462061
0.13869
0.231502
0.324899
0.419064
0.514212
0.610553
0.708291
0.807623
0.908739
1.01182
1.11703
1.22453
1.33445
1.44691
1.562
1.6798
1.80032
1.92358
2.04951
2.17801
2.30891
2.44196
2.5768
2.71299
2.84993
2.98688
3.12291
3.25686
3.38731
3.51256
3.63052
3.73872
3.83423
3.9136
3.97287
4.00749
4.0124
3.98209
3.91074
3.79254
3.62205
3.39475
3.10764
2.7599
2.35347
1.89335
1.38762
0.847084
0.284806
0.0477384
0.143297
0.239216
0.335774
0.433177
0.531661
0.63146
0.732804
0.835916
0.941014
1.04831
1.15799
1.27026
1.38528
1.50322
1.62421
1.74836
1.87575
2.00645
2.14044
2.2777
2.41812
2.56151
2.70761
2.85605
3.00631
3.15773
3.30945
3.46038
3.60915
3.75405
3.89299
4.02339
4.14215
4.24553
4.32909
4.38762
4.41517
4.405
4.34979
4.24191
4.07387
3.83901
3.5324
3.15178
2.69851
2.17811
1.60031
0.978556
0.329287
0.0492264
0.147772
0.246709
0.34634
0.446892
0.548626
0.651799
0.756665
0.863476
0.972477
1.08391
1.198
1.31498
1.43506
1.55844
1.6853
1.81581
1.9501
2.0883
2.23046
2.37663
2.52679
2.68083
2.83859
2.9998
3.16405
3.33079
3.49928
3.66853
3.83728
4.0039
4.16633
4.32199
4.46766
4.59939
4.71234
4.80067
4.85746
4.87464
4.8431
4.7529
4.59383
4.35621
4.03218
3.61718
3.11141
2.52083
1.8573
1.13779
0.383221
0.0506603
0.152084
0.253931
0.356527
0.46012
0.564995
0.671432
0.779713
0.890115
1.00291
1.11838
1.23678
1.35838
1.48342
1.61216
1.74483
1.88164
2.0228
2.16849
2.31886
2.47402
2.63404
2.79894
2.96866
3.14305
3.32185
3.50466
3.69088
3.8797
4.07001
4.26036
4.4488
4.63286
4.80934
4.97418
5.12226
5.24721
5.34119
5.39473
5.39666
5.33424
5.19365
4.96099
4.62398
4.17425
3.60985
2.93705
2.17061
1.33235
0.449181
0.0520304
0.156204
0.260833
0.366265
0.47277
0.580654
0.690224
0.801785
0.915643
1.0321
1.15147
1.27404
1.40011
1.52999
1.66396
1.80231
1.94532
2.09325
2.24636
2.40487
2.569
2.73893
2.91478
3.09663
3.28448
3.47824
3.67769
3.88244
4.09191
4.30522
4.52117
4.73806
4.95365
5.16492
5.3679
5.5574
5.7267
5.86723
5.96818
6.0162
5.99524
5.88689
5.67132
5.32954
4.84689
4.21742
3.44749
2.5561
1.57206
0.530489
0.0533272
0.160104
0.267368
0.375486
0.48475
0.595491
0.708037
0.822719
0.939871
1.05983
1.18292
1.30949
1.43987
1.5744
1.71342
1.85727
2.0063
2.16082
2.32119
2.4877
2.66069
2.84043
3.02719
3.22119
3.42261
3.63156
3.84802
4.07189
4.30284
4.54034
4.78351
5.03106
5.28112
5.53108
5.7773
6.01482
6.23695
6.43473
6.59633
6.70633
6.74515
6.6887
6.50909
6.17705
5.66724
4.9662
4.07997
3.03457
1.86958
0.63136
0.0545411
0.163755
0.273486
0.384122
0.495974
0.609395
0.724737
0.842356
0.962611
1.08586
1.21248
1.34283
1.4773
1.61626
1.7601
1.90922
2.06401
2.22489
2.39226
2.56654
2.74814
2.93747
3.13495
3.34096
3.55587
3.77999
4.0136
4.25687
4.50982
4.77233
5.04398
5.32399
5.61109
5.90328
6.19761
6.48976
6.77357
7.04032
7.27785
7.46932
7.59183
7.61505
7.5005
7.20342
6.67974
5.90094
4.87219
3.63299
2.24058
0.756892
0.0556632
0.167131
0.279143
0.392107
0.506356
0.62226
0.740196
0.860541
0.983681
1.11
1.23991
1.3738
1.51209
1.65521
1.80358
1.95766
2.11792
2.28481
2.45885
2.64054
2.8304
3.02897
3.23681
3.45448
3.68257
3.92162
4.17219
4.4348
4.70988
4.99777
5.29861
5.61231
5.93836
6.27568
6.62234
6.97519
7.32928
7.67707
8.00723
8.30292
8.53936
8.68054
8.6757
8.45748
7.94827
7.08641
5.87544
4.38498
2.70314
0.912677
0.0566849
0.170204
0.284294
0.39938
0.515813
0.633984
0.754288
0.877126
1.00291
1.13205
1.26497
1.40211
1.54393
1.69088
1.84345
2.00213
2.16746
2.33997
2.52024
2.70888
2.90651
3.11381
3.33148
3.56028
3.80098
4.05442
4.32144
4.60293
4.89978
5.21285
5.54296
5.89079
6.2568
6.64109
7.04315
7.46154
7.89335
8.33339
8.7729
9.19747
9.58368
9.89347
10.0655
10.0036
9.5704
8.62175
7.15877
5.32871
3.27458
1.10352
0.0575983
0.172952
0.2889
0.405884
0.524271
0.644471
0.766898
0.891973
1.02013
1.1518
1.28744
1.42752
1.57251
1.72294
1.87931
2.04218
2.21212
2.38976
2.57574
2.77075
2.97554
3.19091
3.41771
3.65686
3.90938
4.17635
4.45893
4.7584
5.07612
5.41353
5.77216
6.15359
6.55941
6.99109
7.44991
7.93665
8.45125
8.99219
9.55533
10.1321
10.706
11.2456
11.6905
11.9222
11.7089
10.6722
8.8098
6.49685
3.96324
1.3305
0.058396
0.175352
0.292922
0.411565
0.531661
0.653635
0.77792
0.904953
1.03519
1.16908
1.30711
1.44977
1.59757
1.75106
1.91079
2.07737
2.25142
2.43361
2.62468
2.8254
3.03661
3.25923
3.49426
3.7428
4.00607
4.2854
4.58227
4.89834
5.23544
5.59562
5.98115
6.39456
6.83861
7.31635
7.83103
8.38608
8.98493
9.63075
10.326
11.0714
11.8641
12.6937
13.5302
14.2867
14.6719
13.549
10.912
7.88602
4.75131
1.58588
0.0590718
0.177385
0.29633
0.416376
0.537919
0.661398
0.787258
0.915955
1.04795
1.18374
1.3238
1.46866
1.61886
1.77497
1.93758
2.10733
2.2849
2.47102
2.66647
2.87212
3.08889
3.31781
3.56001
3.81675
4.08944
4.37965
4.68915
5.01997
5.37439
5.75503
6.16489
6.60742
7.08661
7.60706
8.1741
8.79393
9.47372
10.2219
11.0483
11.965
12.987
14.1362
15.4512
17.0237
19.1439
17.9407
13.4039
9.38427
5.57038
1.84778
0.0596204
0.179035
0.299094
0.420278
0.542994
0.667693
0.794832
0.924879
1.05831
1.19564
1.33736
1.48401
1.63616
1.79441
1.95937
2.13172
2.31218
2.50152
2.70058
2.91029
3.13165
3.36578
3.61394
3.8775
4.15805
4.45737
4.77749
5.12074
5.48983
5.88789
6.31858
6.7862
7.29585
7.85359
8.46672
9.14402
9.89626
10.7368
11.6823
12.7549
13.9843
15.4145
17.116
19.214
21.9404
20.6668
15.379
10.6772
6.29845
2.08278
0.0600372
0.18029
0.301193
0.423236
0.546841
0.672464
0.800573
0.931645
1.06617
1.20466
1.34764
1.49566
1.6493
1.80917
1.97593
2.15027
2.33294
2.52474
2.72657
2.9394
3.16429
3.40244
3.65518
3.92402
4.21067
4.51706
4.84545
5.19843
5.57904
5.99081
6.43797
6.92552
7.45949
8.04717
8.69748
9.42141
10.2327
11.1486
12.1912
13.3897
14.7825
16.4228
18.3856
20.7769
23.738
22.4077
16.7689
11.6474
6.86371
2.26784
0.0603169
0.181139
0.302612
0.425227
0.549425
0.675669
0.80443
0.936191
1.07145
1.21073
1.35455
1.50349
1.65814
1.81911
1.98708
2.16276
2.34692
2.54039
2.7441
2.95904
3.18632
3.4272
3.68307
3.95551
4.24631
4.55755
4.89161
5.25127
5.6398
6.06104
6.5196
7.021
7.57192
8.18055
8.85695
9.6137
10.4666
11.4356
12.5463
13.8318
15.3347
17.1102
19.2278
21.7713
24.8278
23.4579
17.6422
12.2803
7.24138
2.39289
0.0604446
0.181549
0.30332
0.426226
0.550724
0.677279
0.806367
0.938474
1.0741
1.21377
1.35803
1.50743
1.66258
1.8241
1.99268
2.16904
2.35395
2.54827
2.75292
2.96892
3.19742
3.43968
3.69713
3.97139
4.2643
4.578
4.91494
5.278
5.67057
6.09665
6.56105
7.06955
7.62918
8.24857
8.93843
9.71211
10.5865
11.5828
12.7285
14.0582
15.616
17.4568
19.6457
22.2536
25.3451
23.9548
18.0623
12.5904
7.42895
2.45542
)
;

boundaryField
{
    walls
    {
        type            calculated;
        value           nonuniform List<scalar> 
200
(
0.0604446
0.181549
0.30332
0.426226
0.550724
0.677279
0.806367
0.938474
1.0741
1.21377
1.35803
1.50743
1.66258
1.8241
1.99268
2.16904
2.35395
2.54827
2.75292
2.96892
3.19742
3.43968
3.69713
3.97139
4.2643
4.578
4.91494
5.278
5.67057
6.09665
6.56105
7.06955
7.62918
8.24857
8.93843
9.71211
10.5865
11.5828
12.7285
14.0582
15.616
17.4568
19.6457
22.2536
25.3451
23.9548
18.0623
12.5904
7.42895
2.45542
0
0
0
0
0
0
0
0
0
0
0
0
0
0
0
0
0
0
0
0
0
0
0
0
0
0
0
0
0
0
0
0
0
0
0
0
0
0
0
0
0
0
0
0
0
0
0
0
0
0
0
0
0
0
0
0
0
0
0
0
0
0
0
0
0
0
0
0
0
0
0
0
0
0
0
0
0
0
0
0
0
0
0
0
0
0
0
0
0
0
0
0
0
0
0
0
0
0
0
0
0.0112257
0.0336317
0.0559697
0.078218
0.100309
0.122197
0.143832
0.165165
0.186142
0.206709
0.226808
0.246377
0.265355
0.283673
0.301264
0.318055
0.333973
0.348939
0.362876
0.375704
0.387343
0.397711
0.406727
0.414313
0.420391
0.424887
0.427732
0.428859
0.428211
0.425736
0.421391
0.415143
0.406968
0.396856
0.384808
0.370839
0.354976
0.337264
0.317759
0.296535
0.27368
0.249297
0.223503
0.196426
0.168212
0.139012
0.10899
0.0783185
0.0471751
0.0157542
)
;
    }
    frontAndBack
    {
        type            empty;
    }
}


// ************************************************************************* //
