/*--------------------------------*- C++ -*----------------------------------*\
| =========                 |                                                 |
| \\      /  F ield         | OpenFOAM: The Open Source CFD Toolbox           |
|  \\    /   O peration     | Version:  2406                                  |
|   \\  /    A nd           | Website:  www.openfoam.com                      |
|    \\/     M anipulation  |                                                 |
\*---------------------------------------------------------------------------*/
FoamFile
{
    version     2.0;
    format      ascii;
    arch        "LSB;label=32;scalar=64";
    class       volScalarField;
    location    "2";
    object      T;
}
// * * * * * * * * * * * * * * * * * * * * * * * * * * * * * * * * * * * * * //

dimensions      [0 0 0 1 0 0 0];

internalField   nonuniform List<scalar> 
2500
(
0.307938
0.308387
0.309283
0.310626
0.312412
0.314638
0.3173
0.320391
0.323906
0.327837
0.332175
0.336909
0.34203
0.347523
0.353377
0.359574
0.366099
0.372933
0.380056
0.387448
0.395085
0.402942
0.410993
0.419211
0.427566
0.436026
0.444561
0.453136
0.461715
0.470264
0.478745
0.48712
0.495351
0.503398
0.511225
0.518791
0.526058
0.53299
0.539549
0.5457
0.55141
0.556647
0.561382
0.565588
0.569239
0.572316
0.5748
0.576676
0.577932
0.578563
0.308387
0.308838
0.30974
0.31109
0.312887
0.315126
0.317803
0.320913
0.324448
0.328402
0.332766
0.337529
0.342681
0.348208
0.354098
0.360334
0.3669
0.373778
0.380948
0.388388
0.396076
0.403986
0.412092
0.420367
0.428781
0.437302
0.445898
0.454536
0.463179
0.471792
0.480338
0.488777
0.497072
0.505184
0.513073
0.5207
0.528027
0.535016
0.54163
0.547833
0.553592
0.558874
0.56365
0.567891
0.571575
0.574679
0.577185
0.579077
0.580345
0.58098
0.309283
0.30974
0.310651
0.312017
0.313834
0.316099
0.318808
0.321953
0.325531
0.329531
0.333947
0.338767
0.343981
0.349576
0.355538
0.361853
0.368502
0.375468
0.38273
0.390268
0.398057
0.406074
0.414291
0.42268
0.431211
0.439853
0.448573
0.457336
0.466107
0.47485
0.483525
0.492094
0.500518
0.508758
0.516772
0.524523
0.531969
0.539073
0.545797
0.552104
0.55796
0.563333
0.56819
0.572506
0.576253
0.579411
0.581961
0.583887
0.585178
0.585825
0.310626
0.31109
0.312017
0.313406
0.315254
0.317558
0.320313
0.323513
0.327152
0.331223
0.335717
0.340623
0.34593
0.351627
0.357699
0.36413
0.370903
0.378001
0.385403
0.393087
0.40103
0.409207
0.41759
0.426151
0.434859
0.443683
0.452589
0.461542
0.470506
0.479442
0.488313
0.497077
0.505696
0.514129
0.522333
0.530269
0.537896
0.545173
0.552063
0.558528
0.564531
0.57004
0.575021
0.579447
0.583292
0.586532
0.589148
0.591125
0.59245
0.593113
0.312412
0.312887
0.313834
0.315254
0.317144
0.319499
0.322316
0.325589
0.329311
0.333476
0.338073
0.343094
0.348527
0.354359
0.360576
0.367164
0.374104
0.381379
0.388967
0.396847
0.404995
0.413386
0.421991
0.430782
0.439728
0.448796
0.457951
0.467159
0.47638
0.485577
0.49471
0.503737
0.512618
0.521309
0.529768
0.537954
0.545823
0.553334
0.560448
0.567124
0.573325
0.579017
0.584166
0.588741
0.592716
0.596066
0.598772
0.600817
0.602187
0.602874
0.314638
0.315126
0.316099
0.317558
0.319499
0.321919
0.324814
0.328178
0.332004
0.336286
0.341013
0.346178
0.351767
0.357769
0.36417
0.370953
0.378102
0.385598
0.393421
0.401547
0.409952
0.418612
0.427496
0.436577
0.445821
0.455196
0.464665
0.474193
0.483739
0.493265
0.502728
0.512086
0.521296
0.530314
0.539096
0.547596
0.555771
0.563578
0.570974
0.577918
0.58437
0.590294
0.595654
0.600418
0.604558
0.608049
0.610868
0.612998
0.614427
0.615142
0.3173
0.317803
0.318808
0.320313
0.322316
0.324814
0.327802
0.331275
0.335226
0.339649
0.344533
0.34987
0.355648
0.361855
0.368475
0.375495
0.382896
0.390658
0.398763
0.407185
0.415902
0.424885
0.434108
0.443538
0.453143
0.462888
0.472737
0.482652
0.492592
0.502516
0.51238
0.52214
0.53175
0.541164
0.550337
0.55922
0.567768
0.575934
0.583674
0.590943
0.597701
0.603907
0.609525
0.61452
0.618861
0.622522
0.62548
0.627715
0.629214
0.629965
0.320391
0.320913
0.321953
0.323513
0.325589
0.328178
0.331275
0.334875
0.338973
0.34356
0.348628
0.354166
0.360165
0.366611
0.37349
0.380785
0.388481
0.396557
0.404992
0.413762
0.422844
0.432208
0.441827
0.451668
0.461697
0.471879
0.482176
0.492547
0.502951
0.513344
0.523681
0.533915
0.543999
0.553883
0.563518
0.572854
0.581843
0.590436
0.598583
0.606239
0.61336
0.619902
0.625825
0.631094
0.635675
0.639539
0.642661
0.645021
0.646604
0.647397
0.323906
0.324448
0.325531
0.327152
0.329311
0.332004
0.335226
0.338973
0.343238
0.348013
0.353291
0.359061
0.365313
0.372033
0.379208
0.386821
0.394855
0.40329
0.412105
0.421276
0.430777
0.440581
0.450656
0.460971
0.47149
0.482176
0.492989
0.503888
0.514829
0.525766
0.536651
0.547435
0.558067
0.568496
0.578668
0.588532
0.598034
0.607123
0.615745
0.623852
0.631395
0.638329
0.64461
0.650199
0.655059
0.659161
0.662475
0.664981
0.666661
0.667504
0.327837
0.328402
0.329531
0.331223
0.333476
0.336286
0.339649
0.34356
0.348013
0.353001
0.358516
0.364547
0.371085
0.378115
0.385624
0.393596
0.402013
0.410855
0.4201
0.429725
0.439702
0.450003
0.460597
0.47145
0.482525
0.493785
0.505187
0.516687
0.52824
0.539798
0.551309
0.562721
0.573981
0.585034
0.595823
0.606291
0.616382
0.62604
0.635209
0.643834
0.651864
0.659249
0.665942
0.671899
0.677083
0.681457
0.684994
0.687668
0.689462
0.690361
0.332175
0.332766
0.333947
0.335717
0.338073
0.341013
0.344533
0.348628
0.353291
0.358516
0.364295
0.370617
0.377473
0.384849
0.392731
0.401103
0.409948
0.419245
0.428972
0.439105
0.449615
0.460475
0.47165
0.483108
0.494809
0.506713
0.518778
0.530956
0.5432
0.555458
0.567676
0.5798
0.591771
0.60353
0.615018
0.626173
0.636934
0.647239
0.657029
0.666245
0.67483
0.682729
0.689892
0.696271
0.701823
0.70651
0.7103
0.713167
0.715091
0.716055
0.336909
0.337529
0.338767
0.340623
0.343094
0.346178
0.34987
0.354166
0.359061
0.364547
0.370617
0.377261
0.384468
0.392226
0.400521
0.409336
0.418655
0.428455
0.438716
0.449412
0.460514
0.471994
0.483817
0.495947
0.508345
0.520968
0.533772
0.546708
0.559724
0.572766
0.585777
0.598698
0.611467
0.624022
0.636295
0.648223
0.659739
0.670775
0.681268
0.691151
0.700363
0.708845
0.71654
0.723397
0.729367
0.734409
0.738488
0.741574
0.743644
0.744682
0.34203
0.342681
0.343981
0.34593
0.348527
0.351767
0.355648
0.360165
0.365313
0.371085
0.377473
0.384468
0.39206
0.400237
0.408984
0.418285
0.428123
0.438477
0.449325
0.46064
0.472395
0.484558
0.497094
0.509967
0.523136
0.536555
0.550178
0.563954
0.577827
0.591741
0.605635
0.619445
0.633105
0.646546
0.659699
0.672492
0.684854
0.69671
0.707991
0.718625
0.728543
0.737681
0.745976
0.753371
0.759813
0.765257
0.769661
0.772994
0.77523
0.776352
0.347523
0.348208
0.349576
0.351627
0.354359
0.357769
0.361855
0.366611
0.372033
0.378115
0.384849
0.392226
0.400237
0.408868
0.418108
0.427939
0.438344
0.449302
0.46079
0.472783
0.485251
0.498162
0.511481
0.52517
0.539185
0.55348
0.568005
0.582707
0.597527
0.612405
0.627275
0.64207
0.656718
0.671145
0.685277
0.699034
0.712338
0.72511
0.737272
0.748746
0.759455
0.769329
0.778298
0.786297
0.79327
0.799164
0.803935
0.807546
0.809969
0.811185
0.353377
0.354098
0.355538
0.357699
0.360576
0.36417
0.368475
0.37349
0.379208
0.385624
0.392731
0.400521
0.408984
0.418108
0.42788
0.438284
0.449303
0.460916
0.4731
0.485829
0.499074
0.5128
0.526973
0.541552
0.556492
0.571745
0.587259
0.602977
0.618838
0.634776
0.650722
0.666604
0.682344
0.697862
0.713077
0.727904
0.742256
0.756047
0.76919
0.781601
0.793194
0.803889
0.813611
0.822289
0.829856
0.836255
0.841437
0.845361
0.847995
0.849316
0.359574
0.360334
0.361853
0.36413
0.367164
0.370953
0.375495
0.380785
0.386821
0.393596
0.401103
0.409336
0.418285
0.427939
0.438284
0.449306
0.460988
0.473308
0.486244
0.499769
0.513853
0.528464
0.543563
0.559109
0.575056
0.591353
0.607946
0.624774
0.641773
0.658873
0.676001
0.693077
0.710019
0.726741
0.743153
0.759163
0.774676
0.789597
0.803831
0.817282
0.829859
0.841472
0.852035
0.86147
0.869702
0.876667
0.882309
0.886583
0.889453
0.890892
0.366099
0.3669
0.368502
0.370903
0.374104
0.378102
0.382896
0.388481
0.394855
0.402013
0.409948
0.418655
0.428123
0.438344
0.449303
0.460988
0.47338
0.486459
0.500203
0.514586
0.529576
0.545141
0.561241
0.577834
0.594872
0.612303
0.630068
0.648105
0.666346
0.684715
0.703135
0.72152
0.739782
0.757827
0.775557
0.792872
0.809668
0.82584
0.841283
0.855891
0.869562
0.882196
0.893697
0.903976
0.912951
0.920548
0.926706
0.931372
0.934505
0.936077
0.372933
0.373778
0.375468
0.378001
0.381379
0.385598
0.390658
0.396557
0.40329
0.410855
0.419245
0.428455
0.438477
0.449302
0.460916
0.473308
0.486459
0.500351
0.514961
0.530263
0.546226
0.562816
0.579994
0.597716
0.615932
0.634589
0.653625
0.672974
0.692564
0.712316
0.732145
0.751962
0.771669
0.791165
0.810345
0.829097
0.847308
0.864862
0.881643
0.897534
0.91242
0.926189
0.938734
0.949954
0.959758
0.968063
0.974797
0.979901
0.983329
0.98505
0.380056
0.380948
0.38273
0.385403
0.388967
0.393421
0.398763
0.404992
0.412105
0.4201
0.428972
0.438716
0.449325
0.46079
0.4731
0.486244
0.500203
0.514961
0.530495
0.546779
0.563782
0.581471
0.599805
0.61874
0.638225
0.658204
0.678612
0.699381
0.720434
0.741688
0.763052
0.784429
0.805715
0.826801
0.84757
0.867902
0.887672
0.906752
0.925013
0.942324
0.958558
0.973589
0.987296
0.999566
1.0103
1.01939
1.02677
1.03236
1.03612
1.03801
0.387448
0.388388
0.390268
0.393087
0.396847
0.401547
0.407185
0.413762
0.421276
0.429725
0.439105
0.449412
0.46064
0.472783
0.485829
0.499769
0.514586
0.530263
0.546779
0.564108
0.582221
0.601083
0.620654
0.640889
0.661735
0.683134
0.705021
0.727322
0.749958
0.772839
0.795869
0.818945
0.841954
0.864777
0.887288
0.909355
0.93084
0.951602
0.971498
0.990382
1.00811
1.02454
1.03954
1.05298
1.06475
1.07472
1.08282
1.08896
1.09309
1.09517
0.395085
0.396076
0.398057
0.40103
0.404995
0.409952
0.415902
0.422844
0.430777
0.439702
0.449615
0.460514
0.472395
0.485251
0.499074
0.513853
0.529576
0.546226
0.563782
0.582221
0.601513
0.621623
0.642513
0.664136
0.686439
0.709362
0.732837
0.756789
0.781131
0.805772
0.830609
0.85553
0.880415
0.905134
0.929551
0.95352
0.976891
0.999507
1.02121
1.04183
1.06122
1.07921
1.09565
1.1104
1.12331
1.13427
1.14318
1.14994
1.15448
1.15677
0.402942
0.403986
0.406074
0.409207
0.413386
0.418612
0.424885
0.432208
0.440581
0.450003
0.460475
0.471994
0.484558
0.498162
0.5128
0.528464
0.545141
0.562816
0.581471
0.601083
0.621623
0.643059
0.665351
0.688452
0.71231
0.736862
0.76204
0.787763
0.813944
0.840485
0.867276
0.894198
0.921122
0.947909
0.974409
1.00046
1.02591
1.05056
1.07426
1.09681
1.11804
1.13776
1.1558
1.17201
1.18621
1.19828
1.20809
1.21554
1.22055
1.22306
0.410993
0.412092
0.414291
0.41759
0.421991
0.427496
0.434108
0.441827
0.450656
0.460597
0.47165
0.483817
0.497094
0.511481
0.526973
0.543563
0.561241
0.579994
0.599805
0.620654
0.642513
0.665351
0.689129
0.7138
0.739313
0.765603
0.7926
0.820223
0.848379
0.876965
0.905866
0.934956
0.964095
0.993133
1.02191
1.05024
1.07796
1.10487
1.13076
1.15545
1.17872
1.20037
1.2202
1.23803
1.25368
1.26699
1.27781
1.28603
1.29157
1.29435
0.419211
0.420367
0.42268
0.426151
0.430782
0.436577
0.443538
0.451668
0.460971
0.47145
0.483108
0.495947
0.509967
0.52517
0.541552
0.559109
0.577834
0.597716
0.61874
0.640889
0.664136
0.688452
0.7138
0.740135
0.767404
0.795543
0.824482
0.854135
0.884409
0.915194
0.94637
0.977803
1.00934
1.04083
1.07209
1.10292
1.13314
1.16252
1.19085
1.2179
1.24343
1.26723
1.28906
1.30871
1.32598
1.34068
1.35264
1.36174
1.36787
1.37095
0.427566
0.428781
0.431211
0.434859
0.439728
0.445821
0.453143
0.461697
0.47149
0.482525
0.494809
0.508345
0.523136
0.539185
0.556492
0.575056
0.594872
0.615932
0.638225
0.661735
0.686439
0.71231
0.739313
0.767404
0.796531
0.826633
0.857637
0.889456
0.921995
0.95514
0.988765
1.02273
1.05687
1.09102
1.12498
1.15855
1.19151
1.22361
1.25463
1.2843
1.31236
1.33855
1.36261
1.38431
1.40339
1.41966
1.43291
1.443
1.44979
1.45321
0.436026
0.437302
0.439853
0.443683
0.448796
0.455196
0.462888
0.471879
0.482176
0.493785
0.506713
0.520968
0.536555
0.55348
0.571745
0.591353
0.612303
0.634589
0.658204
0.683134
0.709362
0.736862
0.765603
0.795543
0.826633
0.858812
0.892007
0.926132
0.961088
0.99676
1.03302
1.06971
1.10666
1.1437
1.18061
1.21716
1.25313
1.28824
1.32223
1.3548
1.38567
1.41453
1.4411
1.46509
1.48622
1.50426
1.51897
1.53017
1.53772
1.54152
0.444561
0.445898
0.448573
0.452589
0.457951
0.464665
0.472737
0.482176
0.492989
0.505187
0.518778
0.533772
0.550178
0.568005
0.587259
0.607946
0.630068
0.653625
0.678612
0.705021
0.732837
0.76204
0.7926
0.824482
0.857637
0.892007
0.927521
0.964094
1.00162
1.04
1.07907
1.1187
1.15869
1.19886
1.23898
1.2788
1.31807
1.35649
1.39376
1.42956
1.46356
1.49541
1.52479
1.55136
1.57481
1.59484
1.6112
1.62368
1.63209
1.63633
0.453136
0.454536
0.457336
0.461542
0.467159
0.474193
0.482652
0.492547
0.503888
0.516687
0.530956
0.546708
0.563954
0.582707
0.602977
0.624774
0.648105
0.672974
0.699381
0.727322
0.756789
0.787763
0.820223
0.854135
0.889456
0.926132
0.964094
1.00326
1.04352
1.08477
1.12687
1.16964
1.21292
1.25647
1.30008
1.34347
1.38636
1.42843
1.46934
1.50872
1.54621
1.58142
1.61396
1.64345
1.66951
1.69182
1.71006
1.72399
1.73339
1.73812
0.461715
0.463179
0.466107
0.470506
0.47638
0.483739
0.492592
0.502951
0.514829
0.52824
0.5432
0.559724
0.577827
0.597527
0.618838
0.641773
0.666346
0.692564
0.720434
0.749958
0.781131
0.813944
0.848379
0.884409
0.921995
0.961088
1.00162
1.04352
1.08669
1.131
1.17631
1.22247
1.26927
1.31649
1.36389
1.41118
1.45804
1.50412
1.54906
1.59244
1.63383
1.6728
1.70891
1.7417
1.77074
1.79564
1.81603
1.83162
1.84214
1.84745
0.470264
0.471792
0.47485
0.479442
0.485577
0.493265
0.502516
0.513344
0.525766
0.539798
0.555458
0.572766
0.591741
0.612405
0.634776
0.658873
0.684715
0.712316
0.741688
0.772839
0.805772
0.840485
0.876965
0.915194
0.95514
0.99676
1.04
1.08477
1.131
1.17855
1.2273
1.27707
1.32766
1.37884
1.43036
1.48189
1.5331
1.58362
1.63301
1.68084
1.72661
1.76982
1.80995
1.84649
1.87893
1.9068
1.92966
1.94715
1.95898
1.96494
0.478745
0.480338
0.483525
0.488313
0.49471
0.502728
0.51238
0.523681
0.536651
0.551309
0.567676
0.585777
0.605635
0.627275
0.650722
0.676001
0.703135
0.732145
0.763052
0.795869
0.830609
0.867276
0.905866
0.94637
0.988765
1.03302
1.07907
1.12687
1.17631
1.2273
1.27969
1.33331
1.38797
1.44342
1.49939
1.55555
1.61153
1.66692
1.72127
1.77405
1.82472
1.87272
1.91742
1.95824
1.99457
2.02584
2.05155
2.07125
2.08458
2.09131
0.48712
0.488777
0.492094
0.497077
0.503737
0.512086
0.52214
0.533915
0.547435
0.562721
0.5798
0.598698
0.619445
0.64207
0.666604
0.693077
0.72152
0.751962
0.784429
0.818945
0.85553
0.894198
0.934956
0.977803
1.02273
1.06971
1.1187
1.16964
1.22247
1.27707
1.33331
1.39103
1.45004
1.51007
1.57086
1.63205
1.69326
1.75403
1.81386
1.87218
1.92836
1.98176
2.03167
2.07738
2.11818
2.15339
2.1824
2.20467
2.21976
2.22738
0.495351
0.497072
0.500518
0.505696
0.512618
0.521296
0.53175
0.543999
0.558067
0.573981
0.591771
0.611467
0.633105
0.656718
0.682344
0.710019
0.739782
0.771669
0.805715
0.841954
0.880415
0.921122
0.964095
1.00934
1.05687
1.10666
1.15869
1.21292
1.26927
1.32766
1.38797
1.45004
1.51367
1.57862
1.64461
1.71126
1.77818
1.84488
1.91079
1.97529
2.03768
2.09721
2.15305
2.20438
2.25035
2.29014
2.323
2.34827
2.36542
2.3741
0.503398
0.505184
0.508758
0.514129
0.521309
0.530314
0.541164
0.553883
0.568496
0.585034
0.60353
0.624022
0.646546
0.671145
0.697862
0.726741
0.757827
0.791165
0.826801
0.864777
0.905134
0.947909
0.993133
1.04083
1.09102
1.1437
1.19886
1.25647
1.31649
1.37884
1.44342
1.51007
1.57862
1.64883
1.72041
1.79299
1.86614
1.93935
2.012
2.08342
2.15281
2.2193
2.28194
2.33975
2.39172
2.43686
2.47424
2.50305
2.52264
2.53255
0.511225
0.513073
0.516772
0.522333
0.529768
0.539096
0.550337
0.563518
0.578668
0.595823
0.615018
0.636295
0.659699
0.685277
0.713077
0.743153
0.775557
0.810345
0.84757
0.887288
0.929551
0.974409
1.02191
1.07209
1.12498
1.18061
1.23898
1.30008
1.36389
1.43036
1.49939
1.57086
1.64461
1.72041
1.79797
1.87695
1.95689
2.03725
2.11739
2.19653
2.27382
2.34824
2.4187
2.48403
2.543
2.59442
2.63714
2.67016
2.69265
2.70404
0.518791
0.5207
0.524523
0.530269
0.537954
0.547596
0.55922
0.572854
0.588532
0.606291
0.626173
0.648223
0.672492
0.699034
0.727904
0.759163
0.792872
0.829097
0.867902
0.909355
0.95352
1.00046
1.05024
1.10292
1.15855
1.21716
1.2788
1.34347
1.41118
1.48189
1.55555
1.63205
1.71126
1.79299
1.87695
1.96281
2.05011
2.13831
2.22672
2.31451
2.40071
2.48419
2.56367
2.63775
2.70496
2.76382
2.8129
2.85095
2.87692
2.89009
0.526058
0.528027
0.531969
0.537896
0.545823
0.555771
0.567768
0.581843
0.598034
0.616382
0.636934
0.659739
0.684854
0.712338
0.742256
0.774676
0.809668
0.847308
0.887672
0.93084
0.976891
1.02591
1.07796
1.13314
1.19151
1.25313
1.31807
1.38636
1.45804
1.5331
1.61153
1.69326
1.77818
1.86614
1.95689
2.05011
2.14538
2.24214
2.33968
2.43713
2.53341
2.62724
2.71716
2.80149
2.87845
2.94618
3.0029
3.04701
3.07719
3.09252
0.53299
0.535016
0.539073
0.545173
0.553334
0.563578
0.575934
0.590436
0.607123
0.62604
0.647239
0.670775
0.69671
0.72511
0.756047
0.789597
0.82584
0.864862
0.906752
0.951602
0.999507
1.05056
1.10487
1.16252
1.22361
1.28824
1.35649
1.42843
1.50412
1.58362
1.66692
1.75403
1.84488
1.93935
2.03725
2.13831
2.24214
2.3482
2.45579
2.56399
2.67166
2.77736
2.8794
2.9758
3.06436
3.14277
3.20875
3.26025
3.29558
3.31355
0.539549
0.54163
0.545797
0.552063
0.560448
0.570974
0.583674
0.598583
0.615745
0.635209
0.657029
0.681268
0.707991
0.737272
0.76919
0.803831
0.841283
0.881643
0.925013
0.971498
1.02121
1.07426
1.13076
1.19085
1.25463
1.32223
1.39376
1.46934
1.54906
1.63301
1.72127
1.81386
1.91079
2.012
2.11739
2.22672
2.33968
2.45579
2.57437
2.69452
2.81502
2.93433
3.05049
3.16118
3.26368
3.35505
3.43237
3.49295
3.53462
3.55584
0.5457
0.547833
0.552104
0.558528
0.567124
0.577918
0.590943
0.606239
0.623852
0.643834
0.666245
0.691151
0.718625
0.748746
0.781601
0.817282
0.855891
0.897534
0.942324
0.990382
1.04183
1.09681
1.15545
1.2179
1.2843
1.3548
1.42956
1.50872
1.59244
1.68084
1.77405
1.87218
1.97529
2.08342
2.19653
2.31451
2.43713
2.56399
2.69452
2.82784
2.96277
3.09765
3.23032
3.35801
3.4774
3.5847
3.67605
3.7479
3.79743
3.82268
0.55141
0.553592
0.55796
0.564531
0.573325
0.58437
0.597701
0.61336
0.631395
0.651864
0.67483
0.700363
0.728543
0.759455
0.793194
0.829859
0.869562
0.91242
0.958558
1.00811
1.06122
1.11804
1.17872
1.24343
1.31236
1.38567
1.46356
1.54621
1.63383
1.72661
1.82472
1.92836
2.03768
2.15281
2.27382
2.40071
2.53341
2.67166
2.81502
2.96277
3.11379
3.26644
3.41839
3.56646
3.70653
3.83365
3.94257
4.02854
4.08789
4.11816
0.556647
0.558874
0.563333
0.57004
0.579017
0.590294
0.603907
0.619902
0.638329
0.659249
0.682729
0.708845
0.737681
0.769329
0.803889
0.841472
0.882196
0.926189
0.973589
1.02454
1.07921
1.13776
1.20037
1.26723
1.33855
1.41453
1.49541
1.58142
1.6728
1.76982
1.87272
1.98176
2.09721
2.2193
2.34824
2.48419
2.62724
2.77736
2.93433
3.09765
3.26644
3.43922
3.61366
3.78625
3.95196
4.10418
4.23542
4.3392
4.41082
4.44733
0.561382
0.56365
0.56819
0.575021
0.584166
0.595654
0.609525
0.625825
0.64461
0.665942
0.689892
0.71654
0.745976
0.778298
0.813611
0.852035
0.893697
0.938734
0.987296
1.03954
1.09565
1.1558
1.2202
1.28906
1.36261
1.4411
1.52479
1.61396
1.70891
1.80995
1.91742
2.03167
2.15305
2.28194
2.4187
2.56367
2.71716
2.8794
3.05049
3.23032
3.41839
3.61366
3.81413
4.01628
4.21428
4.3991
4.55915
4.68545
4.77229
4.81644
0.565588
0.567891
0.572506
0.579447
0.588741
0.600418
0.61452
0.631094
0.650199
0.671899
0.696271
0.723397
0.753371
0.786297
0.822289
0.86147
0.903976
0.949954
0.999566
1.05298
1.1104
1.17201
1.23803
1.30871
1.38431
1.46509
1.55136
1.64345
1.7417
1.84649
1.95824
2.07738
2.20438
2.33975
2.48403
2.63775
2.80149
2.9758
3.16118
3.35801
3.56646
3.78625
4.01628
4.25387
4.49317
4.72223
4.92006
5.07462
5.17993
5.23315
0.569239
0.571575
0.576253
0.583292
0.592716
0.604558
0.618861
0.635675
0.655059
0.677083
0.701823
0.729367
0.759813
0.79327
0.829856
0.869702
0.912951
0.959758
1.0103
1.06475
1.12331
1.18621
1.25368
1.32598
1.40339
1.48622
1.57481
1.66951
1.77074
1.87893
1.99457
2.11818
2.25035
2.39172
2.543
2.70496
2.87845
3.06436
3.26368
3.4774
3.70653
3.95196
4.21428
4.49317
4.78574
5.08005
5.3277
5.51653
5.64315
5.70658
0.572316
0.574679
0.579411
0.586532
0.596066
0.608049
0.622522
0.639539
0.659161
0.681457
0.70651
0.734409
0.765257
0.799164
0.836255
0.876667
0.920548
0.968063
1.01939
1.07472
1.13427
1.19828
1.26699
1.34068
1.41966
1.50426
1.59484
1.69182
1.79564
1.9068
2.02584
2.15339
2.29014
2.43686
2.59442
2.76382
2.94618
3.14277
3.35505
3.5847
3.83365
4.10418
4.3991
4.72223
5.08005
5.48799
5.79768
6.02414
6.17305
6.24696
0.5748
0.577185
0.581961
0.589148
0.598772
0.610868
0.62548
0.642661
0.662475
0.684994
0.7103
0.738488
0.769661
0.803935
0.841437
0.882309
0.926706
0.974797
1.02677
1.08282
1.14318
1.20809
1.27781
1.35264
1.43291
1.51897
1.6112
1.71006
1.81603
1.92966
2.05155
2.1824
2.323
2.47424
2.63714
2.8129
3.0029
3.20875
3.43237
3.67605
3.94257
4.23542
4.55915
4.92006
5.3277
5.79768
6.15438
6.41284
6.58146
6.66477
0.576676
0.579077
0.583887
0.591125
0.600817
0.612998
0.627715
0.645021
0.664981
0.687668
0.713167
0.741574
0.772994
0.807546
0.845361
0.886583
0.931372
0.979901
1.03236
1.08896
1.14994
1.21554
1.28603
1.36174
1.443
1.53017
1.62368
1.72399
1.83162
1.94715
2.07125
2.20467
2.34827
2.50305
2.67016
2.85095
3.04701
3.26025
3.49295
3.7479
4.02854
4.3392
4.68545
5.07462
5.51653
6.02414
6.41284
6.6949
6.87873
6.96945
0.577932
0.580345
0.585178
0.59245
0.602187
0.614427
0.629214
0.646604
0.666661
0.689462
0.715091
0.743644
0.77523
0.809969
0.847995
0.889453
0.934505
0.983329
1.03612
1.09309
1.15448
1.22055
1.29157
1.36787
1.44979
1.53772
1.63209
1.73339
1.84214
1.95898
2.08458
2.21976
2.36542
2.52264
2.69265
2.87692
3.07719
3.29558
3.53462
3.79743
4.08789
4.41082
4.77229
5.17993
5.64315
6.17305
6.58146
6.87873
7.07267
7.16839
0.578563
0.58098
0.585825
0.593113
0.602874
0.615142
0.629965
0.647397
0.667504
0.690361
0.716055
0.744682
0.776352
0.811185
0.849316
0.890892
0.936077
0.98505
1.03801
1.09517
1.15677
1.22306
1.29435
1.37095
1.45321
1.54152
1.63633
1.73812
1.84745
1.96494
2.09131
2.22738
2.3741
2.53255
2.70404
2.89009
3.09252
3.31355
3.55584
3.82268
4.11816
4.44733
4.81644
5.23315
5.70658
6.24696
6.66477
6.96945
7.16839
7.26661
)
;

boundaryField
{
    walls
    {
        type            zeroGradient;
    }
    frontAndBack
    {
        type            empty;
    }
}


// ************************************************************************* //
