/*--------------------------------*- C++ -*----------------------------------*\
| =========                 |                                                 |
| \\      /  F ield         | OpenFOAM: The Open Source CFD Toolbox           |
|  \\    /   O peration     | Version:  2406                                  |
|   \\  /    A nd           | Website:  www.openfoam.com                      |
|    \\/     M anipulation  |                                                 |
\*---------------------------------------------------------------------------*/
FoamFile
{
    version     2.0;
    format      ascii;
    arch        "LSB;label=32;scalar=64";
    class       volScalarField;
    location    "0.85";
    object      nu;
}
// * * * * * * * * * * * * * * * * * * * * * * * * * * * * * * * * * * * * * //

dimensions      [0 2 -1 0 0 0 0];

internalField   nonuniform List<scalar> 
1800
(
0.017517
0.0132906
0.0115064
0.0103575
0.00951257
0.00897092
0.0086318
0.00838248
0.00828452
0.00849287
0.0411641
0.020581
0.0126251
0.0101944
0.00918728
0.00870383
0.00846429
0.00832199
0.0084406
0.00838683
0.124184
0.0174769
0.0110086
0.00937382
0.00872436
0.00846049
0.00838766
0.00838105
0.00869122
0.0085265
0.0271368
0.0118553
0.00930337
0.00856416
0.00830089
0.00826371
0.00835079
0.00846002
0.00886836
0.0085787
0.0143425
0.00948071
0.00832363
0.00802787
0.00803829
0.00820832
0.00845327
0.00867318
0.00911847
0.00854908
0.010439
0.00829738
0.00775291
0.00774456
0.00798179
0.00834497
0.00872115
0.00898523
0.00923641
0.00859822
0.0086269
0.00761825
0.00744075
0.00767657
0.00813531
0.00867101
0.00909869
0.00926842
0.00924343
0.00877492
0.00763176
0.00720838
0.00730811
0.00777694
0.00844763
0.00909542
0.00946376
0.00947633
0.00934665
0.00929455
0.00702536
0.00696269
0.00729978
0.00799645
0.00886471
0.00958646
0.00989236
0.009851
0.00985086
0.0102495
0.00663153
0.00681727
0.0073701
0.0083029
0.00940212
0.0102683
0.010608
0.0105935
0.0107478
0.0115286
0.00726159
0.00954265
0.0129257
0.0146124
0.0146891
0.0145149
0.0142975
0.0140276
0.0137492
0.0135666
0.00710745
0.00928267
0.0131904
0.0158508
0.0157753
0.015322
0.0148871
0.014423
0.0140093
0.0137227
0.00702056
0.00906911
0.0134362
0.0191603
0.0199951
0.0178624
0.0163611
0.0154696
0.0147931
0.0142615
0.00698616
0.00887852
0.0135405
0.0274006
0.0522692
0.0333507
0.0219524
0.0178115
0.0161423
0.0152283
0.00703564
0.00873952
0.0126956
0.0225799
0.0430278
0.0575147
0.040864
0.0251548
0.019078
0.0168335
0.00720957
0.00865087
0.0113716
0.0154332
0.0193428
0.0218824
0.0225489
0.0213302
0.0189142
0.0177183
0.00754767
0.00866958
0.0104329
0.0123955
0.0137628
0.0145695
0.0151275
0.0154258
0.0150607
0.0156183
0.00814187
0.00885956
0.00989462
0.0109056
0.0114968
0.0117886
0.0120061
0.0122348
0.0122377
0.0131017
0.00925112
0.0093765
0.00979801
0.010216
0.0103389
0.0103026
0.010271
0.0103198
0.0102743
0.0109636
0.0115521
0.0105513
0.0102875
0.010141
0.00981216
0.00948103
0.00924431
0.00910251
0.00888309
0.00956059
0.0146417
0.0129235
0.0140427
0.0157773
0.0179594
0.0215734
0.0259243
0.0311722
0.0340571
0.0440062
0.0149673
0.0133185
0.0139213
0.0153856
0.0172757
0.0206907
0.0250288
0.0304127
0.033528
0.043368
0.0156368
0.0143559
0.0139133
0.0149868
0.0165357
0.0195934
0.0236373
0.0287499
0.031877
0.0407629
0.0170686
0.0158535
0.0134204
0.013963
0.0152482
0.017812
0.0213311
0.0257892
0.0287648
0.0358763
0.0186551
0.0153602
0.012167
0.0123562
0.013358
0.0152838
0.0180642
0.0216149
0.0243342
0.0294921
0.0173042
0.0130246
0.0111517
0.0111465
0.0117669
0.0130173
0.0149372
0.0174689
0.0196683
0.0232308
0.0144368
0.0116501
0.0108174
0.0106595
0.0109368
0.0116479
0.0128488
0.0145089
0.0160367
0.018419
0.0120518
0.0112027
0.0109593
0.0107173
0.0107661
0.0110974
0.011797
0.0128549
0.0138262
0.0153933
0.0110915
0.0111812
0.0110229
0.0109087
0.0109899
0.0111361
0.0115126
0.0121891
0.0127871
0.0138412
0.00998804
0.0102166
0.010531
0.010762
0.0112133
0.0115459
0.0118288
0.0122857
0.0126327
0.0133698
0.00980766
0.0100309
0.0100306
0.0102478
0.0110746
0.0120434
0.0127147
0.0132547
0.0135082
0.0140685
0.00892775
0.00946305
0.00995245
0.010083
0.0107742
0.0121556
0.0137096
0.0149921
0.0155972
0.0162144
0.00925036
0.0111834
0.0121318
0.0117376
0.0119456
0.0131783
0.0152248
0.0176714
0.0195524
0.021391
0.0114131
0.0182478
0.0137559
0.0125457
0.0129375
0.0145871
0.0176179
0.0224341
0.0274836
0.0378053
0.0164187
0.0256832
0.0140792
0.0129375
0.0134386
0.015244
0.0187298
0.0247137
0.0310806
0.0502174
0.0228884
0.0202641
0.0135138
0.0127339
0.0133462
0.014786
0.0170881
0.0199562
0.0225164
0.0255518
0.0158256
0.0127166
0.0109203
0.0105768
0.0110382
0.0118939
0.0129157
0.0138553
0.0146169
0.0152578
0.0097558
0.00882726
0.00847449
0.00865869
0.00918829
0.00978721
0.010315
0.0107345
0.0110248
0.0112788
0.0074307
0.00735162
0.0075615
0.00799466
0.0084858
0.00887647
0.00914518
0.00933225
0.00943154
0.00953718
0.00691578
0.00738811
0.00811835
0.00890734
0.00930832
0.00930124
0.00914337
0.0090041
0.00888708
0.00886028
0.0146785
0.0126037
0.0110306
0.00975368
0.00911757
0.00874665
0.00854993
0.00865266
0.00815134
0.00882148
0.0170473
0.0191462
0.0145279
0.0135917
0.0107663
0.0103323
0.00887149
0.00901321
0.00816358
0.00856838
0.0174603
0.0218035
0.0160431
0.018779
0.0126972
0.0134379
0.0105498
0.0104621
0.00943912
0.00882221
0.0190842
0.018547
0.0203161
0.0177075
0.0169715
0.014418
0.0145733
0.0119815
0.0127803
0.0104066
0.0182722
0.0173064
0.0229046
0.0175198
0.0259014
0.0153848
0.0213984
0.0138648
0.0178682
0.0133329
0.0155796
0.0160713
0.0174717
0.0178479
0.0209849
0.0188277
0.0242506
0.0181325
0.0229814
0.0185235
0.0127907
0.0132066
0.0131986
0.0138936
0.0140389
0.0154143
0.0154434
0.0174425
0.0170211
0.019448
0.00984725
0.00993719
0.00972862
0.00991733
0.00975848
0.0100948
0.00992966
0.0103979
0.010192
0.010691
0.00777546
0.00771358
0.00767564
0.00765013
0.00764067
0.00764013
0.00764926
0.00767033
0.00766633
0.00771288
0.00641347
0.00640828
0.00643398
0.00644099
0.00648985
0.00650152
0.00657869
0.00658442
0.00669354
0.00669303
0.0103399
0.0113684
0.0115431
0.0115644
0.011636
0.0119426
0.0124056
0.0102426
0.00725389
0.00592389
0.011129
0.0115189
0.0116098
0.0116346
0.0117335
0.0121293
0.0126342
0.0100625
0.00714569
0.00588683
0.0119946
0.0122446
0.0122612
0.0122715
0.0123363
0.01273
0.0129436
0.00977431
0.00703469
0.0058592
0.0129044
0.0132953
0.0133505
0.0134005
0.0135139
0.0140229
0.013498
0.00944175
0.00692554
0.00584487
0.0133632
0.014016
0.0144254
0.0149819
0.0157457
0.0166131
0.013797
0.00906819
0.00682703
0.0058502
0.0135582
0.0142763
0.0152443
0.0171315
0.0196467
0.0196657
0.0130983
0.00865913
0.00674782
0.00588091
0.0136324
0.014193
0.0153719
0.018226
0.0212887
0.0176915
0.0115989
0.00825682
0.00669529
0.00594186
0.0136815
0.0137046
0.0145064
0.0164224
0.0169644
0.0138339
0.0102475
0.0079221
0.00667495
0.00603733
0.0135299
0.0129089
0.0131406
0.0138267
0.0134202
0.0115095
0.00932473
0.00767236
0.00668715
0.00617347
0.0127087
0.0118523
0.0117473
0.011863
0.0114119
0.0101975
0.00871929
0.00749422
0.00673234
0.00636316
0.0121935
0.0119142
0.0116741
0.0114551
0.01124
0.0110398
0.0108466
0.0105072
0.00959415
0.00777216
0.012078
0.011805
0.0115677
0.0113453
0.0111293
0.0109368
0.010766
0.0103883
0.00916303
0.00728474
0.0120338
0.0117827
0.0115643
0.0113445
0.0111179
0.0109117
0.0107364
0.0102852
0.00877633
0.00692918
0.0118964
0.0116839
0.0115027
0.0113058
0.0111076
0.0109464
0.010833
0.010326
0.00850401
0.00668185
0.0118705
0.0116486
0.0114554
0.0112345
0.0110093
0.0108334
0.010733
0.0101931
0.00822498
0.00648275
0.0119387
0.0117866
0.0116497
0.0114452
0.0112253
0.0110621
0.0109716
0.0102452
0.00799996
0.00632849
0.0117808
0.0116953
0.0116138
0.0114309
0.011231
0.0111205
0.0111254
0.0102938
0.00781898
0.00620941
0.0118715
0.0117487
0.0117015
0.0115244
0.0113245
0.011238
0.0112909
0.01028
0.00765143
0.0061132
0.0124972
0.0123688
0.012152
0.0117982
0.0115071
0.0114152
0.0114945
0.010227
0.00749711
0.00603387
0.0121272
0.0122772
0.0123907
0.0121817
0.0119181
0.0118855
0.0120297
0.0102561
0.00736532
0.00597128
0.0354999
0.027333
0.034519
0.0445936
0.0464
0.0514905
0.0353103
0.0272737
0.0178565
0.0132602
0.0355608
0.0263056
0.0342402
0.043909
0.0455623
0.057844
0.0398953
0.0277787
0.0180383
0.0131336
0.0355912
0.0253754
0.0337336
0.042014
0.0440055
0.0655553
0.0462446
0.0282524
0.0183302
0.0130455
0.0355663
0.02446
0.0328348
0.0393393
0.0435466
0.0774867
0.0534241
0.0286845
0.018669
0.0128203
0.0354221
0.0235296
0.0315599
0.0374317
0.0465135
0.0945071
0.0577291
0.029092
0.0189571
0.012801
0.035097
0.0226665
0.0302786
0.0387984
0.0541086
0.10371
0.0549622
0.0290298
0.0186699
0.0127363
0.0347082
0.0220323
0.0293614
0.0453679
0.061072
0.0860341
0.0445336
0.0276214
0.0180471
0.0122418
0.0350736
0.0216636
0.0286276
0.0544111
0.0548167
0.052152
0.0314504
0.0245382
0.0161232
0.0125193
0.0378693
0.0212906
0.0276211
0.051254
0.0355781
0.02886
0.0222628
0.0210409
0.0152159
0.0120331
0.0430407
0.0207853
0.0255984
0.0320204
0.022293
0.0189712
0.0168479
0.0164892
0.0134759
0.0129656
0.0507803
0.0203485
0.0225273
0.0219767
0.0170238
0.0158189
0.0136319
0.0146912
0.0114903
0.01339
0.0681539
0.0191893
0.0193303
0.0185481
0.0154901
0.0154779
0.0123014
0.0150591
0.0105104
0.0136242
0.0893418
0.0176326
0.017709
0.0181166
0.0165442
0.0162348
0.0128344
0.0151885
0.0111389
0.0125497
0.0722939
0.0166101
0.0166097
0.0181152
0.0204797
0.0170957
0.015898
0.0149136
0.0137609
0.0116619
0.0609553
0.0164697
0.0157883
0.0178106
0.0267173
0.0183124
0.02653
0.0154848
0.0163702
0.012106
0.0663902
0.0168994
0.0155695
0.0175723
0.0239012
0.0213391
0.0287046
0.0174767
0.0168445
0.0137612
0.0955544
0.0182134
0.0162844
0.0170584
0.0170815
0.0217975
0.0164235
0.0201807
0.0161019
0.0155765
0.0607412
0.0230316
0.0159957
0.0139025
0.0125019
0.0132367
0.0118793
0.0138488
0.0119569
0.0127887
0.0285175
0.0160754
0.0114389
0.0105175
0.00998565
0.00976627
0.00973692
0.00950708
0.00944366
0.00932992
0.00799213
0.00789269
0.00865454
0.00851231
0.00840626
0.00816044
0.00810013
0.00754334
0.00765729
0.00714114
0.0117431
0.0121531
0.012328
0.0127073
0.0129015
0.0132177
0.0133985
0.0141131
0.015006
0.0156076
0.0118714
0.0116436
0.0116507
0.0118211
0.0119741
0.0123923
0.0126365
0.013561
0.0141701
0.0168566
0.011902
0.0117461
0.0119247
0.0121984
0.0126162
0.0131174
0.0136948
0.0146584
0.0152669
0.0172722
0.0122048
0.0123119
0.0127444
0.0131559
0.0138668
0.0141487
0.0150801
0.0151954
0.0166055
0.0165324
0.0132532
0.0135327
0.014097
0.0145111
0.0150084
0.0149109
0.0153746
0.0151351
0.0162312
0.0160085
0.0145981
0.0144808
0.014516
0.0145107
0.0144756
0.0143455
0.0142424
0.0141931
0.0144782
0.0148153
0.0143185
0.0136834
0.0132957
0.0131369
0.012967
0.0129153
0.0126135
0.0126173
0.0124927
0.0127681
0.0118155
0.0114105
0.0110897
0.0109131
0.0107226
0.0105756
0.0103087
0.0102413
0.0100244
0.010065
0.00911187
0.00892635
0.00874499
0.00859126
0.00844765
0.00830623
0.00817864
0.00805408
0.00795247
0.00784645
0.00699128
0.00688332
0.00678325
0.0066919
0.00661277
0.00654606
0.00649955
0.00645854
0.00643582
0.00641136
0.00613818
0.00706153
0.00905123
0.0140602
0.0297737
0.0247676
0.0164232
0.012672
0.0102193
0.00850745
0.00620385
0.00697812
0.00863937
0.0131606
0.0379166
0.0400801
0.0178236
0.0124506
0.0100015
0.00845197
0.00631854
0.00692697
0.008225
0.0114699
0.0220737
0.0329942
0.0186531
0.0126503
0.0100537
0.00858053
0.00650281
0.00692726
0.0078588
0.0100191
0.0152564
0.0229211
0.019028
0.0133587
0.0104294
0.00886617
0.00678349
0.00700758
0.00760323
0.0089862
0.0118981
0.0166887
0.0182301
0.0145418
0.0112746
0.00937072
0.00719534
0.00720311
0.00750809
0.00835343
0.0100393
0.0128813
0.0156757
0.0152348
0.0125881
0.0102113
0.00777972
0.00754687
0.00760405
0.00808041
0.00907559
0.0107336
0.012867
0.0142016
0.0135552
0.0114415
0.00858023
0.00806755
0.00791378
0.00812913
0.00871277
0.00968876
0.0109873
0.0122403
0.0129234
0.0119818
0.00958562
0.00877674
0.00846435
0.00849016
0.00880533
0.00938047
0.0101341
0.0109054
0.0117168
0.0114446
0.0105594
0.00961827
0.00927668
0.00918088
0.00928324
0.00956111
0.00994265
0.0103084
0.0107235
0.010964
0.0109852
0.0103949
0.0103237
0.0102552
0.0101627
0.0101419
0.0102004
0.0102802
0.010307
0.0110819
0.0107488
0.010924
0.0115013
0.0118167
0.0115953
0.0112333
0.0109794
0.0108148
0.0106182
0.0111395
0.0102799
0.011241
0.0127265
0.0141013
0.0139357
0.0131651
0.0125996
0.0121818
0.0117162
0.0118859
0.00992717
0.0115652
0.0143968
0.0192729
0.0208388
0.0185859
0.0162917
0.0147516
0.0134995
0.0130384
0.00952574
0.0115586
0.0150973
0.0244334
0.0762369
0.042681
0.0226837
0.0177329
0.0155568
0.0143461
0.00900695
0.0114155
0.0157182
0.0245243
0.0362904
0.036183
0.0241985
0.0190562
0.0168751
0.0153768
0.00852162
0.0111344
0.0150387
0.0186609
0.0205491
0.0211361
0.0194584
0.0174331
0.016155
0.0151414
0.00811426
0.0107328
0.0140471
0.0158357
0.0164885
0.016835
0.0165063
0.0157354
0.0150523
0.014486
0.00776744
0.0102834
0.0133167
0.0146288
0.0149638
0.0151308
0.0150325
0.0146883
0.0142963
0.0139808
0.00748161
0.00987663
0.0129532
0.0142637
0.0144449
0.0144639
0.0143684
0.0141411
0.0138649
0.0136708
0.012257
0.0141606
0.0197134
0.0367636
0.0404205
0.0312373
0.0298448
0.0315499
0.0329265
0.0419019
0.0121788
0.013978
0.0190124
0.0268795
0.0321009
0.0297458
0.029585
0.0319349
0.0344356
0.047461
0.0122323
0.0142643
0.0185897
0.0244199
0.0283227
0.0285065
0.0290813
0.0316985
0.0345893
0.0481735
0.0125386
0.0148347
0.0181953
0.023087
0.0258918
0.0270974
0.0282651
0.0310922
0.034009
0.0466193
0.0129363
0.0151205
0.0174729
0.0216717
0.0240071
0.0258109
0.0274592
0.0304335
0.0331441
0.0444574
0.0133429
0.0148288
0.0166165
0.0202337
0.0225544
0.0248883
0.0269899
0.0301134
0.0325246
0.0427418
0.0136522
0.0142043
0.0158276
0.0189626
0.0214109
0.02425
0.0268586
0.0302394
0.0324246
0.041938
0.0139125
0.0135871
0.0152018
0.0179081
0.020436
0.0236913
0.0268543
0.0306429
0.0327791
0.0420106
0.0141628
0.013143
0.0147238
0.0170471
0.01955
0.0230803
0.0267713
0.0310758
0.0333521
0.0426678
0.0144013
0.0129099
0.0143355
0.0163388
0.0187235
0.0223742
0.0264858
0.0313199
0.0338766
0.0435139
0.00964087
0.0118936
0.0136976
0.014924
0.0140864
0.0129021
0.0120313
0.011352
0.0109891
0.010752
0.00990274
0.0112401
0.0127932
0.0134341
0.0133418
0.0128487
0.0124286
0.0120247
0.0118164
0.0115864
0.0115311
0.0128434
0.0156982
0.0171596
0.0169924
0.0161064
0.0154496
0.0149229
0.0145942
0.0141592
0.0128297
0.0149382
0.0211457
0.0331158
0.028199
0.0234478
0.0216687
0.0210084
0.0203557
0.0199133
0.0127815
0.014838
0.0212941
0.0748846
0.0416406
0.029526
0.0274265
0.0279462
0.0279102
0.0304001
0.00621999
0.00635158
0.00654276
0.00679446
0.00710112
0.00746288
0.00783908
0.00821981
0.00865719
0.00879852
0.0064787
0.00660162
0.00679492
0.00704688
0.00733339
0.00765266
0.00795224
0.00833366
0.00871911
0.00914799
0.00678704
0.00689168
0.00707934
0.00732461
0.00759771
0.00790374
0.00821419
0.00873638
0.00911682
0.0099881
0.0071711
0.00724571
0.00742692
0.00767644
0.0079762
0.00832144
0.00879807
0.00950326
0.00997491
0.0110201
0.00764996
0.00767966
0.00785771
0.00813867
0.00852725
0.00903392
0.00984993
0.010642
0.0109702
0.0121033
0.0135019
0.013649
0.0139261
0.0137071
0.0132531
0.012781
0.0123
0.0113788
0.00938179
0.0072663
0.0144365
0.0140712
0.0136028
0.0129903
0.0124845
0.0121251
0.0118334
0.0112894
0.00977902
0.00759778
0.0135681
0.0132309
0.0129932
0.0126837
0.0124035
0.0121777
0.0119586
0.011539
0.0103331
0.00805589
0.013525
0.0132253
0.0129828
0.0126733
0.0123667
0.0120966
0.0118484
0.0115522
0.0108734
0.00870417
0.0133566
0.0130029
0.0127051
0.0123885
0.0120891
0.0118383
0.0116492
0.0115698
0.0115854
0.00983081
0.0131567
0.0127864
0.0124658
0.0121481
0.0118438
0.0115853
0.0114161
0.0115085
0.0123414
0.0121515
0.0129164
0.0125468
0.0122239
0.0119182
0.0116207
0.0113599
0.0111807
0.0112684
0.0125036
0.016829
0.0126892
0.0123448
0.012046
0.0117752
0.0115144
0.0112798
0.0110885
0.0110451
0.0117061
0.0131511
0.0124922
0.012176
0.0119038
0.0116633
0.0114349
0.0112285
0.0110365
0.0108555
0.0108286
0.00990936
0.0123263
0.0120288
0.0117725
0.011545
0.0113271
0.011127
0.0109318
0.0106602
0.0101426
0.00854014
0.00881466
0.010671
0.0130322
0.015577
0.018076
0.0190887
0.0140773
0.00941054
0.00716273
0.00610837
0.00941579
0.0112536
0.0130923
0.0145092
0.0153123
0.0153271
0.0133512
0.00967347
0.0072817
0.00610856
0.0102042
0.0117296
0.0129428
0.0136599
0.0138809
0.0136853
0.0125934
0.00984031
0.00741542
0.00613472
0.0109297
0.0120182
0.0128005
0.0131896
0.013146
0.0127823
0.0119727
0.00991276
0.00755659
0.00618469
0.0115306
0.0123344
0.0128202
0.0128766
0.0125442
0.0120571
0.0114354
0.00994181
0.00771973
0.00626112
0.0121198
0.012694
0.0128194
0.0124983
0.0119814
0.011532
0.0111231
0.010035
0.00792117
0.00636494
0.0127018
0.0129333
0.0125634
0.0119778
0.0115081
0.0112408
0.0110506
0.0102301
0.00815957
0.0064935
0.0130439
0.0127044
0.0119804
0.0114691
0.0112457
0.0112164
0.0112285
0.0105695
0.0084483
0.00664902
0.012547
0.0119021
0.0114187
0.011289
0.0113741
0.0115489
0.011682
0.0110201
0.00876383
0.00682484
0.0113309
0.0115797
0.0117396
0.0119318
0.0121203
0.0122583
0.0122362
0.0113799
0.00908159
0.00702582
0.031522
0.0721257
0.0332118
0.0288587
0.0272321
0.0281878
0.0319043
0.0361464
0.0268688
0.0194845
0.0325416
0.0564997
0.0347075
0.0288821
0.0275937
0.0279638
0.0298928
0.0282307
0.0252737
0.016097
0.0332447
0.0483368
0.0348478
0.029253
0.0282998
0.0283832
0.0291972
0.0263219
0.0248707
0.0152366
0.0336588
0.0432499
0.0349911
0.0304759
0.029606
0.0291921
0.028716
0.0256838
0.0234182
0.0151359
0.0339991
0.0395635
0.0351678
0.0325106
0.0315151
0.0303108
0.0283671
0.0255601
0.0218515
0.0150272
0.0343528
0.0365731
0.0352239
0.0350881
0.0339628
0.0318085
0.0281797
0.0256302
0.0204213
0.0147708
0.0347009
0.034024
0.0351599
0.0378833
0.0368981
0.0338904
0.0282883
0.0257723
0.0192711
0.0144011
0.0350042
0.0318487
0.0350288
0.0405445
0.04017
0.0367943
0.0288855
0.0259834
0.0184838
0.0140143
0.035238
0.030033
0.0348719
0.0427224
0.043335
0.0407041
0.0301299
0.0263069
0.0180253
0.013688
0.0353988
0.0285482
0.0347071
0.0441391
0.0456395
0.0456741
0.0321862
0.0267555
0.0178344
0.0134468
0.0072619
0.00751796
0.00888367
0.00913331
0.00971024
0.00982351
0.0100617
0.0098331
0.00979749
0.00832139
0.0147844
0.0105857
0.0101103
0.0105079
0.0107982
0.0111772
0.0116722
0.0118766
0.0122942
0.0117263
0.0266573
0.0177633
0.0127322
0.013045
0.0130477
0.01375
0.0146752
0.0165208
0.0171469
0.0163768
0.0299854
0.0441677
0.018121
0.0181182
0.0175174
0.0188186
0.0208173
0.030231
0.0340287
0.015718
0.0306084
0.110155
0.026539
0.0246417
0.023173
0.0246089
0.0281005
0.0446295
0.0413425
0.0172338
0.0078986
0.00755198
0.00720806
0.00689857
0.00663484
0.00642154
0.00626415
0.00616664
0.00612822
0.00614563
0.0106767
0.00981667
0.00903709
0.00836727
0.00777677
0.00727544
0.0068868
0.00662328
0.00647813
0.0064344
0.0134436
0.0121036
0.0109637
0.0100416
0.00920042
0.0084249
0.00775111
0.00724467
0.0069333
0.00679152
0.0137886
0.0128457
0.0120719
0.011358
0.0105383
0.00967151
0.00880037
0.0080377
0.00751794
0.00724544
0.0141934
0.0134743
0.0126538
0.0119749
0.0112827
0.0105721
0.00980244
0.0089696
0.00826638
0.00782742
)
;

boundaryField
{
    left
    {
        type            calculated;
        value           nonuniform List<scalar> 
35
(
0.0202593
0.017798
0.0165424
0.0160508
0.0162096
0.0169288
0.0180349
0.019063
0.0184105
0.00794643
0.0282774
0.0280571
0.0277789
0.0274503
0.0270882
0.0267208
0.026359
0.0258614
0.0247567
0.0227245
0.025959
0.0266339
0.0270567
0.0273874
0.0277304
0.0280637
0.0283258
0.0284758
0.0285063
0.0284327
0.00722443
0.0135091
0.021423
0.0239962
0.0250781
)
;
    }
    right
    {
        type            calculated;
        value           nonuniform List<scalar> 
35
(
0.0107536
0.0115943
0.0142036
0.0201892
0.0321144
0.0481784
0.0585408
0.0614663
0.0602064
0.0575583
0.0555626
0.0552548
0.0567902
0.0598751
0.0639113
0.0675834
0.0682446
0.0627408
0.050941
0.037444
0.0267684
0.0199601
0.0161551
0.0143117
0.013744
0.0144684
0.0167677
0.0225735
0.0445573
0.058711
0.0259235
0.0153481
0.0113107
0.00954847
0.00886245
)
;
    }
    down
    {
        type            calculated;
        value           nonuniform List<scalar> 
40
(
0.00639596
0.00683272
0.00852008
0.00867937
0.00936743
0.00936408
0.00951246
0.00920423
0.00898807
0.00751623
0.00718354
0.00693311
0.00667949
0.00645587
0.00627584
0.00614027
0.00604776
0.00599788
0.00599039
0.0060253
0.0061089
0.00624358
0.00643334
0.00668328
0.0069971
0.00738372
0.00781278
0.00825187
0.00874749
0.0088121
0.00997351
0.0135562
0.016473
0.0196227
0.0167571
0.0140983
0.0125206
0.0114848
0.0109475
0.0106514
)
;
    }
    up
    {
        type            calculated;
        value           nonuniform List<scalar> 
40
(
0.00695136
0.00805623
0.00977369
0.0113233
0.0111663
0.0102593
0.00952278
0.00908009
0.00880906
0.00870849
0.00602349
0.00603912
0.00607184
0.00609863
0.00615236
0.00618303
0.00626697
0.00628902
0.00642671
0.00642483
0.00643449
0.0063452
0.00626288
0.00618995
0.00612809
0.00608156
0.00604813
0.00602639
0.00601508
0.00601263
0.00680117
0.00689902
0.00795492
0.00792365
0.00788714
0.00766093
0.00752005
0.00700464
0.00707768
0.0065686
)
;
    }
    cylinder
    {
        type            calculated;
        value           nonuniform List<scalar> 
80
(
0.00669467
0.0065771
0.00652196
0.006518
0.00659554
0.00680603
0.0072047
0.00791852
0.00931743
0.0125005
0.0219588
0.0515762
0.0743132
0.0383607
0.0335043
0.0145455
0.00999908
0.00817318
0.00721666
0.00664532
0.00561124
0.00558749
0.00557384
0.00557473
0.00559695
0.00564682
0.00572994
0.0058529
0.00602748
0.00627705
0.0071411
0.00671699
0.00641671
0.00620952
0.0060465
0.00592193
0.00582684
0.0057514
0.00569054
0.00564429
0.00668758
0.00695594
0.00732812
0.00787155
0.00884432
0.0110007
0.0170685
0.0130139
0.0091728
0.00783458
0.00582608
0.00580244
0.00580653
0.00583553
0.00588962
0.00596774
0.00606776
0.0061903
0.00633047
0.00649234
0.00588351
0.00598457
0.0061461
0.00639173
0.00675075
0.00726355
0.00799038
0.00902093
0.0103921
0.0116826
0.0118214
0.0109189
0.00998369
0.0094033
0.00889644
0.00830649
0.00780128
0.00741743
0.00711316
0.00687283
)
;
    }
    defaultFaces
    {
        type            empty;
    }
}


// ************************************************************************* //
