/*--------------------------------*- C++ -*----------------------------------*\
| =========                 |                                                 |
| \\      /  F ield         | OpenFOAM: The Open Source CFD Toolbox           |
|  \\    /   O peration     | Version:  2406                                  |
|   \\  /    A nd           | Website:  www.openfoam.com                      |
|    \\/     M anipulation  |                                                 |
\*---------------------------------------------------------------------------*/
FoamFile
{
    version     2.0;
    format      ascii;
    arch        "LSB;label=32;scalar=64";
    class       volScalarField;
    location    "0.85";
    object      p;
}
// * * * * * * * * * * * * * * * * * * * * * * * * * * * * * * * * * * * * * //

dimensions      [0 2 -2 0 0 0 0];

internalField   nonuniform List<scalar> 
1800
(
-1.46619
-1.4503
-1.44182
-1.43336
-1.42591
-1.42279
-1.42731
-1.44204
-1.46917
-1.50972
-1.44689
-1.43919
-1.43264
-1.42261
-1.41092
-1.4022
-1.39916
-1.4032
-1.41465
-1.43529
-1.44973
-1.45424
-1.44995
-1.43911
-1.42724
-1.41754
-1.41183
-1.41084
-1.41383
-1.42595
-1.50477
-1.49102
-1.48388
-1.47381
-1.46235
-1.45162
-1.44294
-1.43673
-1.43235
-1.43582
-1.55075
-1.53791
-1.52976
-1.51948
-1.50731
-1.4947
-1.48282
-1.4721
-1.46251
-1.45899
-1.60451
-1.59009
-1.58087
-1.56917
-1.55471
-1.5389
-1.52293
-1.50733
-1.49243
-1.4805
-1.66028
-1.64399
-1.63313
-1.61862
-1.60024
-1.57992
-1.55899
-1.53789
-1.51654
-1.49509
-1.71348
-1.69495
-1.68086
-1.6614
-1.63709
-1.61067
-1.58358
-1.55582
-1.52659
-1.49522
-1.75739
-1.73634
-1.71681
-1.69002
-1.65787
-1.62393
-1.58953
-1.55402
-1.51605
-1.47499
-1.78443
-1.76026
-1.7329
-1.69645
-1.6548
-1.61214
-1.5695
-1.52573
-1.47934
-1.42966
-1.19273
-1.19592
-1.19296
-1.18724
-1.17999
-1.17239
-1.16489
-1.15745
-1.15002
-1.14286
-1.28137
-1.28259
-1.27939
-1.27463
-1.26945
-1.26484
-1.26119
-1.25834
-1.25605
-1.25438
-1.36851
-1.36735
-1.36383
-1.35969
-1.35643
-1.35611
-1.35821
-1.36156
-1.36585
-1.37121
-1.44665
-1.44299
-1.43999
-1.43868
-1.43841
-1.44087
-1.44774
-1.45813
-1.47016
-1.48341
-1.51102
-1.50434
-1.50199
-1.50345
-1.50803
-1.51562
-1.52778
-1.5441
-1.56285
-1.58364
-1.55157
-1.54134
-1.53914
-1.54316
-1.55302
-1.56729
-1.58484
-1.6062
-1.63156
-1.65995
-1.56507
-1.55178
-1.54932
-1.55384
-1.56495
-1.5822
-1.60494
-1.63265
-1.66441
-1.6988
-1.55481
-1.53901
-1.53564
-1.53918
-1.54948
-1.56674
-1.59073
-1.62113
-1.65676
-1.69481
-1.52849
-1.51101
-1.50573
-1.50617
-1.5126
-1.52602
-1.5469
-1.57556
-1.61134
-1.65029
-1.49534
-1.47764
-1.47014
-1.46587
-1.46555
-1.47133
-1.48505
-1.5083
-1.54162
-1.58219
-1.09977
-0.861496
-0.617989
-0.378787
-0.229583
-0.128337
-0.0667333
-0.0315119
-0.0108298
-0.00121403
-1.22303
-0.969266
-0.668534
-0.3934
-0.225171
-0.117596
-0.0558627
-0.023114
-0.00533166
0.000451466
-1.36389
-1.09729
-0.731538
-0.412686
-0.22094
-0.105828
-0.0438073
-0.0137685
0.000868234
0.00245159
-1.51578
-1.2424
-0.807052
-0.436475
-0.216608
-0.092763
-0.0303575
-0.00334983
0.00783759
0.00490667
-1.66604
-1.39783
-0.894596
-0.465424
-0.212946
-0.0789726
-0.0158546
0.00794429
0.0154584
0.00784562
-1.79711
-1.55632
-0.993024
-0.501363
-0.212176
-0.066256
-0.00154274
0.0193512
0.0232803
0.0111194
-1.89455
-1.70971
-1.10077
-0.547087
-0.217723
-0.0574053
0.0105457
0.0295644
0.03049
0.0143624
-1.94928
-1.85011
-1.2129
-0.603405
-0.232522
-0.0553898
0.0179811
0.0369208
0.0359934
0.0170209
-1.95819
-1.96447
-1.32356
-0.668075
-0.25633
-0.0613801
0.0189098
0.0398206
0.0385937
0.0184697
-1.92147
-2.04147
-1.43303
-0.739566
-0.287243
-0.074176
0.0134258
0.0378266
0.0377161
0.0183328
-1.90184
-2.12822
-1.50876
-0.782464
-0.306219
-0.0873586
0.00237873
0.0301372
0.0324725
0.016165
-1.87263
-2.10714
-1.47474
-0.77196
-0.315571
-0.108353
-0.0211874
0.0111656
0.0194035
0.0103864
-1.80418
-1.97525
-1.38655
-0.757001
-0.341335
-0.141642
-0.0499888
-0.00928854
0.006694
0.00530848
-1.65828
-1.76186
-1.28066
-0.746613
-0.381863
-0.189626
-0.0874955
-0.0330069
-0.00595635
0.00159294
-1.49571
-1.55633
-1.18959
-0.749509
-0.428681
-0.238438
-0.124417
-0.0568737
-0.0187651
-0.00242494
-1.33034
-1.37586
-1.10947
-0.76031
-0.483214
-0.29271
-0.163548
-0.0821339
-0.0333119
-0.00849634
-1.16069
-1.22797
-1.06072
-0.7912
-0.545141
-0.346649
-0.199882
-0.104462
-0.0448237
-0.0121503
-0.999477
-1.12127
-1.03982
-0.826562
-0.595539
-0.386111
-0.224251
-0.118061
-0.0509572
-0.0131753
-0.889493
-1.06763
-1.02687
-0.844685
-0.62278
-0.407399
-0.23783
-0.126081
-0.0548709
-0.0142311
-0.832982
-1.0716
-1.03973
-0.853005
-0.625282
-0.410218
-0.242033
-0.129229
-0.0567137
-0.0150784
-1.32846
-1.38887
-1.42707
-1.44588
-1.44798
-1.44077
-1.43257
-1.44477
-1.48403
-1.58815
-1.17985
-1.25159
-1.30462
-1.34545
-1.37174
-1.39935
-1.4275
-1.47481
-1.52449
-1.60767
-1.04303
-1.12222
-1.18371
-1.24315
-1.28539
-1.33804
-1.38578
-1.44795
-1.51661
-1.60326
-0.917543
-0.999917
-1.06761
-1.13712
-1.19027
-1.25012
-1.30439
-1.36814
-1.4399
-1.52316
-0.805463
-0.885754
-0.957243
-1.02594
-1.08496
-1.14401
-1.19843
-1.25761
-1.31935
-1.39162
-0.706752
-0.783669
-0.854479
-0.919375
-0.978787
-1.03371
-1.08436
-1.13703
-1.18832
-1.24725
-0.623428
-0.697325
-0.765101
-0.826097
-0.881601
-0.931243
-0.974778
-1.01814
-1.05837
-1.10354
-0.55735
-0.628553
-0.693949
-0.750698
-0.80326
-0.845876
-0.881536
-0.912284
-0.938516
-0.965249
-0.517865
-0.587191
-0.650715
-0.703708
-0.752599
-0.786153
-0.815253
-0.833621
-0.848412
-0.859711
-0.501927
-0.573567
-0.637521
-0.692513
-0.738434
-0.771474
-0.796666
-0.807728
-0.816523
-0.811903
0.127714
0.0603339
-0.0110654
-0.0815487
-0.152332
-0.225056
-0.298785
-0.369641
-0.431986
-0.471445
-0.0609421
-0.129867
-0.201212
-0.2735
-0.348205
-0.42633
-0.506144
-0.582979
-0.650443
-0.694765
-0.267575
-0.33578
-0.405637
-0.477601
-0.553159
-0.632981
-0.715129
-0.794909
-0.865158
-0.912776
-0.466236
-0.534647
-0.60469
-0.677293
-0.753666
-0.834263
-0.917282
-0.998308
-1.07036
-1.11865
-0.64955
-0.719069
-0.790216
-0.864008
-0.941355
-1.02219
-1.10488
-1.18622
-1.25756
-1.30624
-0.819259
-0.889799
-0.961588
-1.03591
-1.11313
-1.19236
-1.27253
-1.35198
-1.42151
-1.46923
-0.977481
-1.04821
-1.11932
-1.19168
-1.26523
-1.3399
-1.41622
-1.49227
-1.55714
-1.60153
-1.1228
-1.19174
-1.25951
-1.32672
-1.39388
-1.46239
-1.533
-1.60242
-1.65948
-1.69884
-1.25115
-1.31533
-1.37705
-1.43708
-1.49664
-1.55753
-1.61981
-1.67926
-1.72646
-1.76015
-1.35461
-1.41218
-1.46667
-1.51881
-1.5701
-1.62211
-1.67422
-1.72201
-1.75897
-1.78733
1.20852
1.20716
1.20578
1.20392
1.20146
1.19841
1.19487
1.19147
1.19079
1.2021
1.1564
1.15224
1.14779
1.14267
1.13677
1.13007
1.12276
1.11582
1.11223
1.121
1.08771
1.08024
1.07219
1.06324
1.05334
1.04242
1.03069
1.01944
1.01199
1.01731
1.00347
0.99203
0.979358
0.965443
0.950333
0.933926
0.91653
0.899831
0.887483
0.888444
0.902669
0.887053
0.869842
0.851006
0.830592
0.808416
0.784797
0.761799
0.743715
0.740187
0.788272
0.767785
0.744744
0.719649
0.692795
0.663996
0.633637
0.603984
0.579475
0.570547
0.660869
0.635596
0.607015
0.57574
0.542094
0.505862
0.467629
0.430136
0.398122
0.383874
0.523691
0.493579
0.458487
0.41988
0.378595
0.334434
0.288069
0.242616
0.203008
0.183049
0.381639
0.346472
0.304524
0.258062
0.20841
0.155493
0.100217
0.0461323
-0.00142895
-0.0278916
0.245693
0.198761
0.144529
0.0873538
0.0283022
-0.0334478
-0.0971954
-0.159329
-0.214373
-0.247551
1.32675
1.26414
1.27972
1.24465
1.22539
1.20349
1.19387
1.18274
1.19455
1.21893
1.32495
1.26196
1.27782
1.24128
1.22131
1.19737
1.1873
1.17127
1.17647
1.18893
1.32392
1.26008
1.27605
1.23741
1.21645
1.19061
1.17989
1.1573
1.15386
1.14886
1.32363
1.25857
1.2744
1.23299
1.2109
1.18341
1.17159
1.14088
1.12725
1.09898
1.32397
1.2575
1.27285
1.22811
1.20495
1.1759
1.16232
1.12221
1.09702
1.03787
1.32486
1.25695
1.27129
1.22304
1.19903
1.16782
1.15205
1.10146
1.06386
0.965383
1.32619
1.25703
1.26961
1.21799
1.19307
1.15835
1.14073
1.07909
1.02865
0.881281
1.32795
1.25777
1.26777
1.21255
1.1859
1.14691
1.12849
1.05533
0.990603
0.783738
1.33031
1.25911
1.26597
1.20564
1.17648
1.13443
1.11574
1.03019
0.948861
0.671403
1.33293
1.26136
1.26465
1.19706
1.16551
1.12221
1.10295
1.00482
0.907112
0.552998
1.3345
1.26513
1.26475
1.19022
1.15481
1.10964
1.0892
0.977387
0.861002
0.450803
1.34046
1.27202
1.26988
1.18774
1.14676
1.09715
1.07483
0.953572
0.825728
0.468934
1.35063
1.27856
1.27814
1.19049
1.14186
1.08562
1.05839
0.929871
0.792806
0.480986
1.36225
1.28512
1.28732
1.19585
1.13816
1.07437
1.03909
0.908475
0.757668
0.483698
1.37287
1.29058
1.29231
1.19886
1.13364
1.06381
1.01632
0.888397
0.72171
0.479876
1.38387
1.293
1.2896
1.19449
1.12837
1.05393
0.992401
0.873404
0.687578
0.470659
1.39565
1.29002
1.27788
1.18205
1.12223
1.04526
0.972363
0.866884
0.659824
0.461353
1.40914
1.28782
1.26255
1.16807
1.11513
1.03918
0.956455
0.868809
0.639826
0.46049
1.42672
1.29089
1.25098
1.15532
1.10917
1.03507
0.944038
0.871838
0.627366
0.468984
1.46894
1.29497
1.24698
1.15384
1.10915
1.03395
0.947377
0.874787
0.625748
0.492506
0.131241
-0.0337563
-0.221859
-0.403153
-0.57051
-0.726428
-0.872687
-1.01023
-1.13629
-1.24409
0.106403
-0.0352503
-0.186971
-0.335211
-0.475518
-0.61006
-0.739123
-0.866232
-0.984718
-1.09139
0.115934
-0.0160176
-0.148038
-0.27412
-0.395178
-0.515233
-0.633417
-0.748993
-0.856403
-0.956643
0.140469
0.0170168
-0.104232
-0.215793
-0.321033
-0.425787
-0.531387
-0.636849
-0.73684
-0.832812
0.172536
0.0580742
-0.0539199
-0.15434
-0.246963
-0.338928
-0.43444
-0.532204
-0.628844
-0.721145
0.206167
0.104105
0.00250633
-0.0898862
-0.17538
-0.260378
-0.349093
-0.441536
-0.534516
-0.623648
0.241304
0.153682
0.0615304
-0.0264765
-0.109962
-0.192414
-0.276876
-0.365038
-0.454648
-0.541516
0.277502
0.201215
0.115999
0.0302984
-0.0535459
-0.134955
-0.216739
-0.301946
-0.389863
-0.476532
0.301563
0.22989
0.148887
0.0642562
-0.0203656
-0.101136
-0.181867
-0.266997
-0.354683
-0.439912
0.324494
0.251781
0.171994
0.088028
0.00375634
-0.0802986
-0.166366
-0.254144
-0.341048
-0.423923
-0.756526
-0.729384
-0.690152
-0.645676
-0.600568
-0.558904
-0.522048
-0.489407
-0.462523
-0.442565
-0.847918
-0.820783
-0.783285
-0.739131
-0.694469
-0.653283
-0.61733
-0.58604
-0.560398
-0.542026
-0.910992
-0.884553
-0.85006
-0.808151
-0.765614
-0.725561
-0.690397
-0.660867
-0.636434
-0.618518
-0.947593
-0.922543
-0.892381
-0.854634
-0.814585
-0.776307
-0.742647
-0.714691
-0.691583
-0.673907
-0.962392
-0.93951
-0.91467
-0.882207
-0.845752
-0.809737
-0.777302
-0.750193
-0.728097
-0.71072
-0.961989
-0.942114
-0.922481
-0.895583
-0.863412
-0.830012
-0.798527
-0.771317
-0.749212
-0.731839
-0.952768
-0.936473
-0.921294
-0.899379
-0.871279
-0.840278
-0.809439
-0.781273
-0.757606
-0.739122
-0.938743
-0.926371
-0.914787
-0.896906
-0.872292
-0.843324
-0.813021
-0.783894
-0.758246
-0.738067
-0.920787
-0.912449
-0.903486
-0.888538
-0.866748
-0.839654
-0.809971
-0.780109
-0.752662
-0.731851
-0.898887
-0.894176
-0.886658
-0.873295
-0.853526
-0.82839
-0.800011
-0.770419
-0.741529
-0.718745
-0.875868
-0.874007
-0.867069
-0.854243
-0.835881
-0.813076
-0.787406
-0.76071
-0.733798
-0.705757
-0.858001
-0.858066
-0.851569
-0.838958
-0.821727
-0.801436
-0.779071
-0.755828
-0.731998
-0.705277
-0.850519
-0.851556
-0.845882
-0.834227
-0.817929
-0.800125
-0.781377
-0.761698
-0.740808
-0.716735
-0.854614
-0.856432
-0.852719
-0.8437
-0.828288
-0.811286
-0.7956
-0.778823
-0.760166
-0.738323
-0.864629
-0.867284
-0.864413
-0.858191
-0.847008
-0.831886
-0.817941
-0.802889
-0.785329
-0.763939
-0.885336
-0.889353
-0.887354
-0.882556
-0.874156
-0.860464
-0.84507
-0.830013
-0.814312
-0.797109
-0.921822
-0.927035
-0.926084
-0.921757
-0.913286
-0.900213
-0.884909
-0.869516
-0.854038
-0.838285
-0.972047
-0.977734
-0.976647
-0.971526
-0.962667
-0.950621
-0.936564
-0.921663
-0.906452
-0.891428
-1.03473
-1.04021
-1.03844
-1.03254
-1.02355
-1.01249
-1.00003
-0.986675
-0.972883
-0.959348
-1.10905
-1.11369
-1.11126
-1.10513
-1.09664
-1.08695
-1.07657
-1.06565
-1.0544
-1.04338
-0.662664
-0.555712
-0.488366
-0.401685
-0.310403
-0.222507
-0.148979
-0.0916192
-0.0486609
-0.0136406
-0.6736
-0.553826
-0.484589
-0.390833
-0.298745
-0.21308
-0.141935
-0.0870619
-0.0461036
-0.0128644
-0.689823
-0.555244
-0.483896
-0.382946
-0.288223
-0.203623
-0.134505
-0.0819373
-0.0429454
-0.0117061
-0.710629
-0.561256
-0.486316
-0.375801
-0.27868
-0.194276
-0.126866
-0.0764846
-0.0394722
-0.0103819
-0.735138
-0.572525
-0.491278
-0.369527
-0.269716
-0.184985
-0.119052
-0.0707956
-0.0358186
-0.00903179
-0.763406
-0.590183
-0.498968
-0.364514
-0.261316
-0.175771
-0.111111
-0.0649452
-0.0320737
-0.00772002
-0.799343
-0.616755
-0.510315
-0.361341
-0.253561
-0.166612
-0.103024
-0.0589473
-0.0282679
-0.00646246
-0.848279
-0.654218
-0.526473
-0.360631
-0.246506
-0.157418
-0.0946893
-0.0527301
-0.0243496
-0.0052336
-0.913249
-0.705648
-0.548777
-0.362944
-0.24017
-0.148065
-0.085965
-0.0461735
-0.0202158
-0.00398526
-0.996554
-0.774087
-0.578693
-0.368805
-0.234541
-0.138422
-0.0767003
-0.0391465
-0.0157494
-0.00266497
-0.638959
-0.559659
-0.492642
-0.407313
-0.312491
-0.224941
-0.151928
-0.0929598
-0.0484066
-0.0136356
-0.631422
-0.553214
-0.490242
-0.40742
-0.313805
-0.22633
-0.153049
-0.0938266
-0.0488535
-0.0136959
-0.629026
-0.54907
-0.48763
-0.407353
-0.313947
-0.226548
-0.153113
-0.0938504
-0.0489362
-0.0135597
-0.630366
-0.545834
-0.483392
-0.404664
-0.315007
-0.227408
-0.153488
-0.0942405
-0.0494816
-0.0136578
-0.640684
-0.547327
-0.482546
-0.400063
-0.315419
-0.227487
-0.153114
-0.0942211
-0.0499012
-0.0139045
-0.426399
-0.522303
-0.596512
-0.650146
-0.686018
-0.707175
-0.715511
-0.714153
-0.704386
-0.68386
-0.424052
-0.520483
-0.59383
-0.645854
-0.679886
-0.699909
-0.70783
-0.706389
-0.698353
-0.677678
-0.425032
-0.522068
-0.595537
-0.647442
-0.681262
-0.701155
-0.707897
-0.705736
-0.69586
-0.676352
-0.427906
-0.526235
-0.600465
-0.652966
-0.687203
-0.706945
-0.712459
-0.708759
-0.697123
-0.680849
-0.433129
-0.533011
-0.608453
-0.662102
-0.69731
-0.717174
-0.722461
-0.717715
-0.705907
-0.695449
0.95647
0.950641
0.941844
0.932651
0.923762
0.914837
0.905969
0.898217
0.893915
0.899114
1.02764
1.02628
1.02231
1.01746
1.01236
1.00687
1.00113
0.996105
0.994254
1.00204
1.09174
1.09225
1.091
1.0891
1.08701
1.08465
1.08203
1.07976
1.08002
1.08975
1.14907
1.15123
1.15226
1.15281
1.15315
1.15316
1.15273
1.15209
1.15336
1.16451
1.19651
1.1997
1.20232
1.20463
1.20673
1.20848
1.20966
1.2101
1.21177
1.22353
1.23325
1.23715
1.24092
1.24452
1.24794
1.25106
1.25358
1.25499
1.2567
1.26717
1.2576
1.26167
1.26593
1.27014
1.27421
1.27813
1.28172
1.2843
1.28625
1.29365
1.26814
1.2717
1.27557
1.27935
1.2829
1.28624
1.28923
1.29147
1.29401
1.30491
1.26391
1.26638
1.26912
1.27164
1.2738
1.2756
1.27695
1.27773
1.27973
1.2931
1.24421
1.24503
1.24601
1.24665
1.24682
1.24652
1.24577
1.24485
1.24597
1.25895
-0.320321
-0.342752
-0.371296
-0.404795
-0.442375
-0.483817
-0.528207
-0.572762
-0.612022
-0.637991
-0.178236
-0.203642
-0.233834
-0.268032
-0.305872
-0.346966
-0.390074
-0.432847
-0.47144
-0.495393
-0.0234364
-0.0515786
-0.0831817
-0.11777
-0.155156
-0.195036
-0.236265
-0.276576
-0.312552
-0.333692
0.133883
0.104151
0.0720637
0.0380422
0.00219743
-0.0353287
-0.0736722
-0.110709
-0.143135
-0.15979
0.285513
0.255922
0.224936
0.192975
0.159952
0.125739
0.0909796
0.0578103
0.0298428
0.0173826
0.426527
0.399057
0.371004
0.342549
0.313292
0.282986
0.252291
0.223471
0.200263
0.191437
0.555184
0.53148
0.507704
0.483568
0.458455
0.432244
0.405767
0.381404
0.362778
0.357471
0.673502
0.654146
0.634844
0.614879
0.593681
0.571373
0.548971
0.528874
0.51439
0.512046
0.786716
0.770391
0.753671
0.736395
0.718266
0.699477
0.68101
0.664983
0.654155
0.654268
0.891857
0.877284
0.860888
0.845016
0.829705
0.814698
0.800454
0.788406
0.780819
0.783285
1.40167
1.29729
1.29438
1.24734
1.23254
1.21493
1.19255
1.16909
1.12924
1.05437
1.38824
1.29317
1.29494
1.2503
1.23487
1.21834
1.19847
1.17753
1.14977
1.09995
1.37632
1.28954
1.29462
1.25222
1.23621
1.22058
1.20328
1.18638
1.17146
1.14369
1.36595
1.28589
1.29372
1.25353
1.23695
1.22194
1.20704
1.1941
1.18949
1.18084
1.35701
1.28224
1.29232
1.25416
1.23706
1.22229
1.20942
1.19968
1.20325
1.21048
1.34933
1.2787
1.29049
1.25407
1.23652
1.22157
1.21026
1.20291
1.21291
1.23258
1.3428
1.27535
1.28837
1.25329
1.23537
1.2198
1.2096
1.20376
1.21841
1.24688
1.33736
1.2722
1.28613
1.2519
1.23368
1.21704
1.20752
1.2022
1.21954
1.25303
1.3329
1.26928
1.28389
1.24998
1.23148
1.21338
1.20413
1.19819
1.21608
1.25066
1.32939
1.26659
1.28175
1.24755
1.22875
1.20885
1.19952
1.19171
1.20778
1.23942
1.52084
1.30769
1.2792
1.22637
1.21709
1.19671
1.16725
1.13254
1.06982
0.981214
1.48285
1.31137
1.28568
1.22973
1.21943
1.19861
1.16846
1.13334
1.06857
0.972966
1.45872
1.3104
1.28876
1.23291
1.22144
1.20119
1.17146
1.13762
1.07439
0.976293
1.43542
1.30853
1.29181
1.23804
1.22503
1.20559
1.17768
1.14666
1.08445
0.98664
1.41674
1.30381
1.29333
1.24293
1.22886
1.21024
1.18473
1.15541
1.09988
1.00172
0.812199
0.739728
0.650644
0.543456
0.419428
0.280119
0.130043
-0.0236311
-0.172558
-0.308523
0.805221
0.733448
0.645541
0.540562
0.41978
0.283679
0.135473
-0.0181047
-0.168382
-0.305835
0.815583
0.742017
0.652062
0.546286
0.425495
0.289528
0.141086
-0.013511
-0.165508
-0.304917
0.837701
0.756351
0.661249
0.55358
0.431737
0.294933
0.145602
-0.0104235
-0.164422
-0.305999
0.87507
0.778647
0.673129
0.560994
0.43686
0.298603
0.148125
-0.0093908
-0.165472
-0.309349
)
;

boundaryField
{
    left
    {
        type            zeroGradient;
    }
    right
    {
        type            fixedValue;
        value           uniform 0;
    }
    down
    {
        type            zeroGradient;
    }
    up
    {
        type            zeroGradient;
    }
    cylinder
    {
        type            zeroGradient;
    }
    defaultFaces
    {
        type            empty;
    }
}


// ************************************************************************* //
