/*--------------------------------*- C++ -*----------------------------------*\
| =========                 |                                                 |
| \\      /  F ield         | OpenFOAM: The Open Source CFD Toolbox           |
|  \\    /   O peration     | Version:  2406                                  |
|   \\  /    A nd           | Website:  www.openfoam.com                      |
|    \\/     M anipulation  |                                                 |
\*---------------------------------------------------------------------------*/
FoamFile
{
    version     2.0;
    format      ascii;
    arch        "LSB;label=32;scalar=64";
    class       surfaceScalarField;
    location    "0.85";
    object      phi;
}
// * * * * * * * * * * * * * * * * * * * * * * * * * * * * * * * * * * * * * //

dimensions      [0 3 -1 0 0 0 0];

oriented        oriented;

internalField   nonuniform List<scalar> 
3485
(
0.00115884
0.000402698
-0.00156154
0.00549026
0.00254178
-0.0068732
0.0127002
0.00414765
-0.0113576
0.0227146
0.00347686
-0.0134913
0.0356186
0.000322499
-0.0132265
0.0515459
-0.0048651
-0.0110622
0.0704624
-0.0112672
-0.00764926
0.092387
-0.0183692
-0.00355533
0.117602
-0.0264424
0.00122727
-0.0307534
0.0050462
0.143309
0.000275232
0.000127466
0.00234414
0.000472875
0.00771709
-0.0012253
0.0170309
-0.00583698
0.0301776
-0.0128242
0.0465773
-0.0212648
0.0656258
-0.0303157
0.0867201
-0.0394636
0.10908
-0.0488023
-0.0545115
0.132838
-0.000140919
0.000268385
0.00162067
-0.00128872
0.00770024
-0.00730487
0.0184777
-0.0166144
0.0333575
-0.0277041
0.0513803
-0.0392876
0.071558
-0.0504934
0.0930508
-0.0609564
0.115065
-0.0708164
-0.0771167
0.13767
0.000282607
-1.42214e-05
0.00387465
-0.00488076
0.0123819
-0.0158121
0.0256695
-0.029902
0.0426336
-0.0446681
0.0619417
-0.0585957
0.0824782
-0.0710298
0.103511
-0.081989
0.124608
-0.0919134
-0.0985225
0.146014
0.000977754
-0.000991975
0.0071224
-0.0110254
0.0187352
-0.027425
0.0346589
-0.0458256
0.053171
-0.0631802
0.0727658
-0.0781906
0.0925439
-0.0908079
0.112211
-0.101656
0.13182
-0.111522
-0.119411
0.152708
0.00221001
-0.00320198
0.0108558
-0.0196712
0.0250315
-0.0416007
0.0424415
-0.0632356
0.0608915
-0.0816302
0.0790988
-0.0963979
0.09673
-0.108439
0.1141
-0.119026
0.131817
-0.129239
-0.139161
0.151567
0.00355549
-0.00675747
0.0144652
-0.0305809
0.0301956
-0.0573311
0.0475144
-0.0805544
0.0643835
-0.0984993
0.0802068
-0.112221
0.0953182
-0.123551
0.110445
-0.134152
0.126318
-0.145112
-0.15656
0.143716
0.00485695
-0.0116144
0.017387
-0.043111
0.0333098
-0.0732538
0.049202
-0.0964467
0.0637645
-0.113062
0.0771153
-0.125572
0.0899171
-0.136352
0.102852
-0.147087
0.116243
-0.158503
-0.170091
0.129774
0.00597377
-0.0175882
0.0191945
-0.0563317
0.0342104
-0.0882697
0.0481564
-0.110393
0.0604946
-0.1254
0.0716461
-0.136723
0.0821595
-0.146866
0.0923633
-0.157291
0.102121
-0.168261
-0.178769
0.1108
0.00675631
-0.0243445
0.0197962
-0.0693717
0.0333667
-0.10184
0.0453539
-0.12238
0.0556219
-0.135668
0.064556
-0.145657
0.072464
-0.154774
0.0794313
-0.164258
0.0852949
-0.174124
0.0898543
-0.183329
-0.00207186
0.0213273
-0.0192555
-0.0060004
0.0391604
-0.0352318
-0.0105252
0.0458123
-0.0412876
-0.0152374
0.0482862
-0.043574
-0.0199809
0.0488538
-0.0441103
-0.0246308
0.0482173
-0.0435674
-0.0290953
0.0467011
-0.0422366
-0.0333041
0.0444488
-0.0402399
-0.0371933
0.0415454
-0.0376562
0.0381391
-0.0407181
-0.0346143
-0.00137614
0.0227035
-0.00442919
0.0422134
-0.00809189
0.049475
-0.0119656
0.05216
-0.0160129
0.0529011
-0.0201136
0.052318
-0.0241685
0.0507561
-0.0281132
0.0483934
-0.031886
0.0453183
0.0416853
-0.0354323
-0.000439863
0.0231433
-0.00224695
0.0440205
-0.00466528
0.0518933
-0.00711693
0.0546116
-0.00965434
0.0554385
-0.0124902
0.0551539
-0.0155928
0.0538586
-0.0187751
0.0515757
-0.0219116
0.0484547
0.0446986
-0.0249248
0.000586012
0.0225573
0.000401257
0.0442052
-0.000267213
0.0525618
-0.000863478
0.0552079
-0.00139414
0.0559691
-0.00222331
0.055983
-0.00357877
0.0552141
-0.00539167
0.0533886
-0.00738797
0.050451
0.0466554
-0.00934476
0.00227532
0.020282
0.00475103
0.0417295
0.00658493
0.0507279
0.00781091
0.0539819
0.00869216
0.0550879
0.00946097
0.0552142
0.0100986
0.0545765
0.0104315
0.0530557
0.0104626
0.0504199
0.0467269
0.010391
0.00370122
0.0165808
0.0086967
0.036734
0.0130793
0.0463454
0.0166214
0.0504398
0.0196371
0.0520722
0.0224517
0.0523996
0.0252505
0.0517776
0.0280471
0.0502592
0.0307744
0.0476926
0.0439123
0.033589
0.00441527
0.0121655
0.0113727
0.0297766
0.018222
0.039496
0.0244555
0.0442063
0.0302896
0.0462382
0.0359665
0.0467227
0.041609
0.0461351
0.047243
0.0446252
0.0528721
0.0420635
0.0380489
0.0587354
0.0044073
0.00775821
0.0125041
0.0216798
0.0214086
0.0305915
0.0302713
0.0353435
0.0390868
0.0374227
0.0479994
0.0378101
0.0570767
0.0370578
0.0662621
0.0354398
0.075418
0.0329076
0.0285776
0.0848894
0.00373146
0.00402675
0.0118494
0.0135618
0.0218217
0.0206193
0.0326226
0.0245426
0.0440754
0.02597
0.0562625
0.025623
0.0692183
0.024102
0.0827982
0.02186
0.0966341
0.0190716
0.0144369
0.110775
0.00246521
0.00915384
0.0184156
0.0294669
0.0422104
0.0567711
0.0732238
0.0915284
0.111827
0.13131
-0.0384316
0.159748
-0.162034
0.00528219
-0.128756
0.085042
0.0499989
-0.225461
0.180745
0.0886161
-0.256972
0.218355
0.11711
-0.238307
0.209814
0.135926
-0.199766
0.18095
0.147331
-0.157275
0.14587
0.153571
-0.116553
0.110313
0.156762
-0.0835477
0.0803563
-0.0405206
0.0402198
-0.0426727
0.166988
-0.00660871
-0.16482
0.0407472
-0.272817
0.0825793
-0.298804
0.114067
-0.269795
0.13487
-0.220569
0.147507
-0.169911
0.154464
-0.12351
0.158228
-0.0873115
-0.0410905
-0.042207
0.18427
-0.0152405
-0.191786
0.0335055
-0.321563
0.0775447
-0.342843
0.111274
-0.303524
0.13367
-0.242965
0.147433
-0.183674
0.155132
-0.131209
0.159595
-0.0917746
-0.0420891
-0.0337544
0.20868
-0.0151435
-0.210397
0.0328367
-0.369543
0.0770513
-0.387058
0.111087
-0.33756
0.133793
-0.265671
0.148019
-0.197901
0.156169
-0.139359
0.161282
-0.096888
-0.0436242
-0.0154143
0.234485
-0.00203219
-0.223779
0.0431161
-0.414692
0.0853333
-0.429275
0.116937
-0.369164
0.137694
-0.286428
0.150907
-0.211113
0.15868
-0.147133
0.164068
-0.102275
-0.0456877
0.0110772
0.256997
0.0212191
-0.233921
0.0648411
-0.458313
0.104682
-0.469116
0.1321
-0.396582
0.148536
-0.302863
0.158606
-0.221183
0.164537
-0.153064
0.169324
-0.107061
-0.0480601
0.0416123
0.27412
0.0505896
-0.242899
0.0914909
-0.499215
0.131428
-0.509053
0.156375
-0.42153
0.1682
-0.314688
0.173638
-0.226621
0.176179
-0.155605
0.179095
-0.109978
-0.0502847
0.0735213
0.285488
0.0779283
-0.247305
0.114199
-0.535486
0.156874
-0.551728
0.184072
-0.448727
0.194478
-0.325094
0.196231
-0.228374
0.195119
-0.154493
0.195313
-0.110172
-0.0519574
0.104426
0.291837
0.10123
-0.244109
0.130543
-0.564798
0.175019
-0.596204
0.207909
-0.481617
0.221519
-0.338704
0.222862
-0.229717
0.21985
-0.151481
0.217889
-0.108211
-0.0532611
0.134719
0.288428
0.124532
-0.233923
0.144415
-0.584681
0.187059
-0.638849
0.224523
-0.519081
0.243708
-0.357889
0.248068
-0.234076
0.245927
-0.14934
0.243752
-0.106037
-0.0551115
0.343408
0.18367
-0.23865
0.436251
-0.326765
0.484599
-0.633028
0.502249
-0.656499
0.502933
-0.519766
0.492328
-0.347284
0.472837
-0.214586
0.451648
-0.128151
0.433947
-0.0883351
-0.0472309
0.536062
0.057379
-0.409771
0.631033
-0.421736
0.647349
-0.649345
0.616543
-0.625692
0.576236
-0.479459
0.54415
-0.315198
0.518713
-0.189149
0.498213
-0.10765
0.481835
-0.0719577
-0.0393835
0.739874
-0.049985
-0.63251
0.785448
-0.46731
0.762014
-0.625911
0.706291
-0.569969
0.64455
-0.417718
0.593321
-0.263969
0.556804
-0.152632
0.53247
-0.0833157
0.515047
-0.0545353
-0.0311619
0.867749
-0.125678
-0.792056
0.862041
-0.461601
0.804554
-0.568423
0.733408
-0.498824
0.665575
-0.349884
0.610542
-0.208937
0.57146
-0.11355
0.546053
-0.0579093
0.527999
-0.0364809
-0.022896
0.931686
-0.171571
-0.885793
0.911155
-0.441071
0.8479
-0.505168
0.766432
-0.417356
0.684719
-0.268171
0.618775
-0.142993
0.574102
-0.0688772
0.546802
-0.0306093
0.528426
-0.0181046
-0.0146716
0.967074
-0.202205
-0.936439
0.928519
-0.402516
0.842473
-0.419122
0.746032
-0.320915
0.661929
-0.184068
0.599216
-0.0802794
0.558564
-0.0282252
0.53473
-0.00677519
0.519555
-0.00293036
-0.00725311
0.971208
-0.218506
-0.954908
0.911703
-0.343012
0.803708
-0.311127
0.690802
-0.208009
0.603479
-0.0967449
0.547801
-0.0246021
0.516323
0.00325338
0.49976
0.00978757
0.489726
0.00710384
-0.0014135
0.906319
-0.206203
-0.918621
0.804617
-0.24131
0.668674
-0.175184
0.551422
-0.0907568
0.478326
-0.0236485
0.442672
0.0110515
0.427269
0.0186561
0.421185
0.0158716
0.417864
0.0104254
0.00172683
0.67309
-0.12589
-0.753403
0.522189
-0.0904083
0.389007
-0.0420024
0.308541
-0.0102905
0.277515
0.00737711
0.273931
0.0146363
0.278551
0.0140356
0.284013
0.01041
0.287767
0.00667153
0.0017715
0.191345
-0.317235
0.100937
0.0589347
0.0486442
0.0560213
0.0706575
0.0846931
0.0951031
0.101775
0.546476
0.0860897
-0.542712
0.546099
0.111177
0.539853
0.13602
0.522168
0.161401
0.492298
0.181437
0.446349
0.198657
0.390083
0.202279
0.327666
0.200087
0.271961
0.188543
0.17662
0.579469
0.0770272
-0.570406
0.585711
0.104935
0.593385
0.128346
0.596087
0.158699
0.595072
0.182452
0.583962
0.209767
0.55938
0.226861
0.521859
0.237608
0.462827
0.247576
0.229676
0.603837
0.06687
-0.59368
0.613874
0.0948973
0.626332
0.115888
0.639677
0.145354
0.654252
0.167877
0.667273
0.196745
0.674024
0.220111
0.672619
0.239013
0.660617
0.259578
0.257783
0.623244
0.0563992
-0.612773
0.63674
0.0814012
0.65199
0.100639
0.670542
0.126802
0.692117
0.146302
0.71541
0.173452
0.741032
0.194489
0.762382
0.217663
0.784196
0.237763
0.249923
0.635019
0.0447833
-0.623403
0.65132
0.0650995
0.669549
0.0824093
0.692199
0.104153
0.717602
0.120899
0.747222
0.143833
0.780751
0.16096
0.81512
0.183294
0.853092
0.199792
0.217221
0.637437
0.0317972
-0.624451
0.655523
0.0470142
0.676539
0.0613931
0.70259
0.0781017
0.731556
0.0919319
0.765564
0.109825
0.8032
0.123324
0.844644
0.14185
0.89055
0.153886
0.171332
0.626149
0.0183833
-0.612735
0.644831
0.0283319
0.667206
0.0390183
0.695276
0.0500312
0.726812
0.0603962
0.763645
0.0729914
0.804918
0.0820511
0.850356
0.0964115
0.901675
0.102567
0.118099
0.587693
0.0063013
-0.575611
0.60478
0.0112452
0.626426
0.0173721
0.653393
0.0230637
0.684348
0.0294417
0.721051
0.0362884
0.761912
0.0411901
0.808854
0.0494697
0.860684
0.0507371
0.0601617
0.489587
-0.00145891
-0.481827
0.500908
-7.58627e-05
0.51624
0.00204022
0.53559
0.00371421
0.559198
0.00583381
0.588146
0.00734043
0.620772
0.00856364
0.660532
0.00970957
0.702612
0.00865718
0.00937058
0.262081
-0.26354
0.262006
0.264046
0.26776
0.273594
0.280934
0.289498
0.299207
0.307865
0.0619525
0.13539
-0.122993
-0.0743495
0.0515595
0.133664
-0.123271
0.0426014
0.132519
-0.123561
0.0344839
0.131925
-0.123807
0.026869
0.131438
-0.123823
0.0196659
0.130491
-0.123288
0.0129284
0.128
-0.121262
0.00680498
0.121791
-0.115667
0.00198356
0.104752
-0.0999307
0.0567869
-0.0548034
0.0595837
0.146015
-0.0702085
0.049532
0.143716
0.0403516
0.141699
0.0320367
0.140239
0.0244243
0.13905
0.0174328
0.137482
0.0110801
0.134353
0.00549632
0.127374
0.00139661
0.108852
0.0581835
0.0521009
0.155163
-0.0612491
0.0432486
0.152568
0.0349917
0.149956
0.0274139
0.147817
0.0204582
0.146006
0.0141095
0.143831
0.00841927
0.140043
0.00359836
0.132195
0.000451873
0.111998
0.0586354
0.0396361
0.162829
-0.0473016
0.0323773
0.159827
0.025609
0.156724
0.0193499
0.154076
0.0136164
0.151739
0.00849818
0.148949
0.00403929
0.144502
0.000517018
0.135718
-0.000875736
0.113391
0.0577597
0.0241533
0.16953
-0.0308547
0.0181182
0.165862
0.0127338
0.162109
0.00797346
0.158837
0.00389252
0.15582
0.000532725
0.152309
-0.00211334
0.147148
-0.00350272
0.137107
-0.00256995
0.112458
0.0551897
0.00618993
0.175309
-0.0119685
0.0012952
0.170757
-0.00268774
0.166092
-0.00572037
0.161869
-0.0078331
0.157933
-0.00912589
0.153602
-0.00952491
0.147547
-0.00817063
0.135753
-0.00430496
0.108593
0.0508848
-0.0126766
0.180037
0.00794845
-0.0163304
0.17441
-0.0187712
0.168532
-0.0200157
0.163114
-0.0201975
0.158115
-0.0193448
0.152749
-0.0170487
0.145251
-0.0125102
0.131214
-0.00571263
0.101795
0.0451721
-0.0311743
0.183325
0.0278865
-0.03329
0.176526
-0.0340716
0.169314
-0.0335223
0.162565
-0.0316976
0.15629
-0.0284602
0.149512
-0.0233322
0.140123
-0.0158275
0.123709
-0.00662314
0.0925907
0.038549
-0.0494357
0.184564
0.0481963
-0.0495087
0.176599
-0.048253
0.168058
-0.0456015
0.159913
-0.0414997
0.152188
-0.0357609
0.143773
-0.0280135
0.132375
-0.0180543
0.11375
-0.00707785
0.0816143
0.0314711
-0.0673248
0.0685598
-0.0648501
-0.0610498
-0.0559103
-0.0493797
-0.0412747
-0.0312794
-0.0193692
-0.00712663
0.0805583
0.0390725
-0.0904883
-0.0291425
0.0706729
0.039671
-0.0297856
0.0608391
0.0402036
-0.0303697
0.0510658
0.0406529
-0.0308796
0.0413527
0.0409916
-0.0312785
0.031705
0.0410805
-0.0314327
0.0221784
0.0404916
-0.0309649
0.0129827
0.0382427
-0.029047
0.00481566
0.0322671
-0.0241
0.0175556
-0.0127399
0.081812
0.0491156
-0.0918551
0.0717843
0.0496986
0.0617968
0.0501911
0.0518619
0.0505878
0.0419872
0.0508662
0.0321842
0.0508835
0.0225084
0.0501674
0.0131629
0.0475882
0.00485868
0.0405712
0.0224143
0.082689
0.0591996
-0.092773
0.0726586
0.059729
0.0626667
0.0601831
0.0527125
0.060542
0.0427849
0.0607939
0.032883
0.0607854
0.0230666
0.0599837
0.0135457
0.0571091
0.00502826
0.0490887
0.0274425
0.0807224
0.0692902
-0.090813
0.070671
0.0697804
0.06071
0.0701441
0.0508565
0.0703955
0.0411105
0.0705398
0.0314691
0.0704269
0.021971
0.0694818
0.0127988
0.0662813
0.00465775
0.0572297
0.0321003
0.0824655
0.0793473
-0.0925225
0.0724447
0.0798012
0.0624219
0.0801669
0.0524028
0.0804146
0.0424022
0.0805405
0.0324567
0.0803724
0.022659
0.0792795
0.0132225
0.0757178
0.00483873
0.0656134
0.036939
0.0775836
0.0891084
-0.0873447
0.0679081
0.0894766
0.0583421
0.0897329
0.0488882
0.0898684
0.0395189
0.0899098
0.0302138
0.0896775
0.0210235
0.0884698
0.0121512
0.0845901
0.00432396
0.0734407
0.041263
0.07551
0.098795
-0.0851967
0.0659846
0.0990021
0.056553
0.0991645
0.0472
0.0992214
0.0379422
0.0991675
0.0288202
0.0987995
0.0199223
0.0973677
0.0114401
0.0930724
0.00403274
0.080848
0.0452957
0.0718927
0.10828
-0.0813776
0.0626064
0.108288
0.0535264
0.108245
0.0446171
0.108131
0.0358213
0.107963
0.0271341
0.107487
0.0186456
0.105856
0.0105781
0.10114
0.00364458
0.0877815
0.0489403
0.0677592
0.116324
-0.0758031
0.0596283
0.116419
0.0511993
0.116674
0.0426367
0.116693
0.0340889
0.116511
0.025662
0.115914
0.0174857
0.114033
0.00977855
0.108847
0.00326847
0.0942916
0.0522088
0.057822
-0.0644913
0.0509703
0.0440832
0.0369695
0.029658
0.0222836
0.0150539
0.00823374
0.00259459
0.202889
-0.0048747
-2.42211e-05
0.201653
0.126555
-0.12532
0.196332
0.189215
-0.183894
0.191483
0.178242
-0.173394
0.187705
0.154956
-0.151178
0.183853
0.14938
-0.145527
0.177646
0.149456
-0.143249
0.167233
0.173107
-0.162694
0.141493
0.206209
-0.180469
0.282401
-0.231396
0.202628
-0.00951317
0.200518
0.128665
0.194473
0.195261
0.189147
0.183568
0.185137
0.158966
0.181596
0.152921
0.176336
0.154716
0.166405
0.183037
0.141611
0.231003
0.332156
0.20228
-0.0138032
0.199105
0.13184
0.192047
0.202319
0.185895
0.18972
0.181447
0.163414
0.178044
0.156324
0.173521
0.159239
0.16376
0.192798
0.140318
0.254445
0.379701
0.201861
-0.0176746
0.197436
0.136266
0.188976
0.210778
0.181712
0.196984
0.176845
0.168281
0.173502
0.159667
0.16935
0.163391
0.159464
0.202684
0.137111
0.276797
0.426
0.201412
-0.0210964
0.195541
0.142136
0.185192
0.221127
0.176817
0.205358
0.171761
0.173338
0.168263
0.163165
0.163983
0.16767
0.153438
0.213229
0.133937
0.296299
0.467414
0.200968
-0.0240746
0.193424
0.14968
0.180839
0.233712
0.171826
0.214372
0.16669
0.178474
0.162494
0.167361
0.157609
0.172555
0.146376
0.224463
0.128325
0.31435
0.508394
0.200509
-0.0265934
0.191104
0.159084
0.176493
0.248323
0.167473
0.223392
0.161883
0.184064
0.15634
0.172904
0.150667
0.178228
0.138094
0.237035
0.122515
0.329929
0.545713
0.199911
-0.0285151
0.188788
0.170208
0.17286
0.264251
0.163989
0.232263
0.157471
0.190581
0.150312
0.180064
0.143844
0.184696
0.129769
0.25111
0.117405
0.342293
0.581741
0.198984
-0.029509
0.186869
0.182322
0.170505
0.280616
0.161414
0.241354
0.154207
0.197787
0.145945
0.188326
0.138599
0.192041
0.123355
0.266355
0.110725
0.354923
0.616662
0.19768
-0.0291992
0.185653
0.194349
0.169933
0.296336
0.161077
0.250209
0.154448
0.204417
0.145403
0.197371
0.135607
0.201837
0.116604
0.285358
0.106526
0.365001
0.658697
0.309497
-0.0366856
0.315237
0.188609
0.315595
0.295978
0.316281
0.249523
0.321585
0.199113
0.32043
0.198526
0.326612
0.195656
0.325757
0.286213
0.374869
0.315889
0.581868
0.451698
0.307147
-0.0418228
0.328189
0.167567
0.34717
0.276997
0.360561
0.236132
0.371882
0.187791
0.380055
0.190353
0.385622
0.190089
0.394539
0.277296
0.422419
0.288009
0.525022
0.479265
0.303657
-0.0434692
0.340111
0.131112
0.378918
0.23819
0.405083
0.209967
0.4197
0.173175
0.440425
0.169629
0.442891
0.187622
0.465925
0.254262
0.488852
0.265082
0.478092
0.535782
0.30038
-0.0418389
0.346811
0.0846815
0.401309
0.183692
0.437927
0.173349
0.455069
0.156032
0.485209
0.13949
0.490706
0.182125
0.518105
0.226862
0.553135
0.230053
0.42911
0.602116
0.298447
-0.0382752
0.347747
0.0353805
0.412051
0.119389
0.455331
0.13007
0.476787
0.134576
0.509568
0.106709
0.522573
0.16912
0.549357
0.200078
0.597437
0.181972
0.368372
0.658175
0.298645
-0.0349103
0.345607
-0.0115807
0.412504
0.0524912
0.458209
0.0843651
0.485856
0.106928
0.516317
0.076248
0.538304
0.147132
0.568188
0.170194
0.619353
0.130808
0.301775
0.685949
0.301134
-0.0340346
0.341001
-0.0514473
0.401416
-0.00792389
0.444289
0.0414925
0.477882
0.0733345
0.504341
0.0497895
0.535556
0.115917
0.574267
0.131484
0.617262
0.0878119
0.232528
0.68651
0.307244
-0.0392687
0.332409
-0.0766118
0.370738
-0.0462532
0.40226
0.00997058
0.437784
0.0378108
0.458294
0.0292788
0.49744
0.0767713
0.54788
0.0810438
0.578906
0.0567862
0.157182
0.654252
0.305942
-0.0432009
0.298676
-0.0693457
0.297347
-0.0449236
0.309625
-0.00230767
0.335847
0.0115889
0.352072
0.0130533
0.397159
0.0316843
0.445008
0.033195
0.473749
0.0280455
0.0691697
0.561761
0.258809
0.189464
0.14454
0.142232
0.153821
0.166874
0.198559
0.231754
0.259799
0.328969
0.466638
-0.0892893
0.474242
-0.0778124
0.481169
-0.0681761
0.488242
-0.0543753
0.497279
-0.039891
0.506977
-0.0216664
0.517823
-0.0028974
0.527862
0.0178474
0.536702
0.0393561
0.06255
0.487677
-0.0977015
0.496453
-0.0865879
0.504877
-0.0766005
0.513296
-0.0627938
0.522761
-0.0493561
0.531872
-0.0307775
0.542736
-0.0137615
0.552152
0.00843163
0.562451
0.0290568
0.054595
0.53868
-0.1006
0.544764
-0.0926721
0.550464
-0.0823005
0.555804
-0.0681336
0.56074
-0.0542917
0.565924
-0.0359619
0.571741
-0.0195781
0.577404
0.0027688
0.585527
0.0209337
0.0464422
0.600267
-0.0987502
0.598561
-0.090967
0.596604
-0.0803432
0.595338
-0.0668671
0.593923
-0.0528767
0.59409
-0.036129
0.594871
-0.0203598
0.598722
-0.00108191
0.604
0.0156563
0.0376689
0.648019
-0.0885941
0.637369
-0.0803166
0.627317
-0.0702918
0.619094
-0.0586438
0.612352
-0.0461351
0.608626
-0.0324025
0.606791
-0.0185252
0.609401
-0.00369171
0.613945
0.0111127
0.0282111
0.668946
-0.0715911
0.651691
-0.0630613
0.636471
-0.0550716
0.624245
-0.0464178
0.615063
-0.0369534
0.609559
-0.0268987
0.60729
-0.0162558
0.609382
-0.00578421
0.614514
0.00598159
0.0182734
0.663907
-0.0489877
0.644117
-0.0432717
0.627208
-0.0381626
0.613842
-0.0330521
0.604086
-0.0271975
0.598102
-0.0209143
0.595964
-0.0141176
0.597772
-0.00759221
0.602991
0.000762097
0.00852995
0.631356
-0.0260916
0.612064
-0.0239799
0.595614
-0.0217126
0.582259
-0.0196974
0.572151
-0.0170896
0.565767
-0.0145295
0.562975
-0.0113257
0.56349
-0.00810791
0.567744
-0.00349145
0.000662953
0.54374
-0.00807075
0.527619
-0.00785821
0.513645
-0.00773927
0.501519
-0.00757083
0.491627
-0.00719792
0.484222
-0.00712388
0.479434
-0.00653846
0.477093
-0.00576647
0.478002
-0.00440055
-0.00316229
0.320898
0.31304
0.305301
0.29773
0.290532
0.283408
0.27687
0.271103
0.266703
0.00335674
0.0387175
-0.0420742
0.00582288
0.0851122
-0.0875784
0.00609985
0.108208
-0.108485
0.0052882
0.118242
-0.11743
0.00452813
0.122241
-0.121481
0.00359148
0.124385
-0.123449
0.00233843
0.124966
-0.123713
0.00129398
0.123031
-0.121986
0.000900311
0.117803
-0.117409
0.107381
0.00144328
-0.107924
0.0046823
0.0340352
0.00974687
0.0800477
0.0125102
0.105445
0.0136368
0.117115
0.0143563
0.121522
0.014976
0.123766
0.0152597
0.124682
0.0154157
0.122875
0.0158239
0.117395
0.106806
0.0163989
0.00564421
0.028391
0.0134638
0.0722281
0.0191576
0.0997509
0.0225788
0.113694
0.0246952
0.119405
0.0265115
0.121949
0.028216
0.122978
0.0295078
0.121583
0.0304295
0.116473
0.106527
0.0307084
0.00598392
0.0224071
0.0162384
0.0619736
0.0251836
0.0908056
0.031353
0.107525
0.0353881
0.11537
0.0385744
0.118763
0.0415175
0.120035
0.0438771
0.119223
0.0452283
0.115122
0.106604
0.0451513
0.00563014
0.0167769
0.017276
0.0503277
0.0292917
0.07879
0.0387289
0.0980874
0.0453632
0.108736
0.050345
0.113781
0.0545947
0.115785
0.0581247
0.115693
0.0602781
0.112969
0.106557
0.0603252
0.00479612
0.0119808
0.016365
0.0387589
0.0303399
0.0648151
0.0429963
0.085431
0.052868
0.0988639
0.0603496
0.1063
0.0663644
0.10977
0.0713719
0.110686
0.0749999
0.109341
0.105182
0.0763741
0.00376571
0.00821508
0.013898
0.0286266
0.0279127
0.0508003
0.042518
0.0708257
0.0554162
0.0859657
0.06592
0.0957958
0.0743722
0.101318
0.0813046
0.103753
0.0868077
0.103838
0.101598
0.0903917
0.00272096
0.00549412
0.0105918
0.0207558
0.0227489
0.0386432
0.0371579
0.0564167
0.0516056
0.071518
0.0646891
0.0827123
0.0759501
0.0900571
0.0855
0.0942033
0.0935093
0.0958283
0.0952341
0.0998737
0.0016702
0.00382392
0.00694487
0.0154811
0.0160356
0.0295525
0.0282121
0.0442402
0.0419881
0.057742
0.0559087
0.0687917
0.0690258
0.07694
0.0809225
0.0823066
0.0915769
0.0851739
0.085493
0.101318
0.000627053
0.00319687
0.00336778
0.0127404
0.00909664
0.0238236
0.0179905
0.0353463
0.0293738
0.0463587
0.0421789
0.0559866
0.0554358
0.0636831
0.0684645
0.0692779
0.0808947
0.0727437
0.0738242
0.0925636
-0.000282531
0.0034794
0.000403717
0.0120542
0.00328541
0.0209419
0.00899816
0.0296336
0.0174387
0.0379182
0.0280217
0.0454036
0.0400425
0.0516622
0.0528663
0.056454
0.06582
0.05979
0.0620619
0.0775822
-0.000877923
0.00435732
-0.00145636
0.0126326
-0.00045444
0.01994
0.00284255
0.0263366
0.00865664
0.0321041
0.0166758
0.0373845
0.0264279
0.0419101
0.037385
0.045497
0.0489431
0.0482319
0.0505036
0.0605013
-0.00105559
0.00541291
-0.00214268
0.0137197
-0.00215733
0.0199547
-0.00045227
0.0246315
0.00328277
0.0283691
0.00881085
0.0318564
0.0157252
0.0349958
0.0237069
0.0375152
0.0324404
0.0394984
0.0411457
0.0417984
-0.000919535
0.00633244
-0.00207628
0.0148764
-0.00262785
0.0205062
-0.00222459
0.0242283
-0.000592736
0.0267372
0.00218099
0.0290826
0.0060308
0.031146
0.0109079
0.0326381
0.0166866
0.0337197
0.0344582
0.0233741
-0.0013983
0.00773074
-0.00335976
0.0168379
-0.00492325
0.0220697
-0.00579673
0.0251018
-0.00601007
0.0269506
-0.00546688
0.0285394
-0.00398962
0.0296687
-0.00154203
0.0301905
0.0017655
0.0304122
0.0304047
0.00581893
-0.00200793
0.00973867
-0.0048004
0.0196304
-0.00716566
0.024435
-0.0088832
0.0268193
-0.0101524
0.0282197
-0.0109011
0.0292882
-0.0110834
0.029851
-0.0106424
0.0297495
-0.00946563
0.0292355
0.0284429
-0.00750377
-0.00221638
0.011955
-0.00550654
0.0229205
-0.00872417
0.0276526
-0.0116843
0.0297795
-0.0143081
0.0308435
-0.0163959
0.031376
-0.0179118
0.0313669
-0.0188996
0.0307373
-0.0192907
0.0296265
0.028166
-0.0190138
-0.00237131
0.0143264
-0.00617568
0.0267249
-0.0102627
0.0317396
-0.0143169
0.0338337
-0.0181106
0.0346372
-0.0214231
0.0346885
-0.024188
0.0341317
-0.0264354
0.0329848
-0.0281415
0.0313326
0.0292909
-0.0292664
-0.00249668
0.016823
-0.00670848
0.0309367
-0.0113959
0.036427
-0.016146
0.0385838
-0.0207129
0.0392041
-0.0249183
0.038894
-0.0286762
0.0378896
-0.0319647
0.0362733
-0.034752
0.0341199
0.0315448
-0.0370058
-0.00243244
-0.00672755
-0.0115881
-0.0165783
-0.0214845
-0.026158
-0.0305049
-0.0344715
-0.0380079
-0.0410774
0.0707881
0.238173
-0.231379
0.0624944
0.171087
-0.162793
0.0651004
0.0763481
-0.0789541
0.0744522
0.0026844
-0.0120362
0.085927
-0.0399754
0.0285006
0.0982995
-0.0558448
0.0434723
0.110128
-0.0558054
0.0439774
0.12058
-0.0482877
0.0378348
0.129774
-0.0375408
0.0283474
-0.020979
0.0148576
0.0585401
0.240134
0.0560688
0.173558
0.0649196
0.0674973
0.0782418
-0.0106378
0.091242
-0.0529756
0.103694
-0.0682964
0.11501
-0.0671215
0.124685
-0.057963
0.132914
-0.0457696
-0.0261075
0.0439551
0.237978
0.0491094
0.168404
0.0646317
0.0519749
0.0813498
-0.0273558
0.0961542
-0.06778
0.108802
-0.0809442
0.119613
-0.0779327
0.128442
-0.066792
0.135647
-0.0529746
-0.0303133
0.0292473
0.232104
0.0434109
0.15424
0.0651297
0.0302561
0.0848183
-0.0470444
0.101065
-0.084027
0.113952
-0.0938306
0.124263
-0.0882438
0.132203
-0.0747322
0.138362
-0.0591333
-0.0336583
0.0160457
0.221878
0.0394757
0.13081
0.066402
0.00332977
0.0887073
-0.0693497
0.106158
-0.101478
0.119259
-0.106931
0.129072
-0.0980571
0.136124
-0.0817849
0.141243
-0.0642516
-0.036183
0.00460227
0.209772
0.0366436
0.098769
0.067803
-0.0278295
0.092534
-0.0940807
0.111104
-0.120048
0.124452
-0.120279
0.13385
-0.107455
0.140122
-0.0880572
0.144292
-0.0684213
-0.0379468
-0.00610131
0.196859
0.033933
0.0587347
0.0684143
-0.0623108
0.0955302
-0.121197
0.115301
-0.139819
0.129053
-0.134031
0.138232
-0.116635
0.143941
-0.093766
0.14736
-0.0718403
-0.0390604
-0.0159736
0.183566
0.0302831
0.012478
0.0673837
-0.0994114
0.0969661
-0.150779
0.118211
-0.161063
0.132652
-0.148472
0.141894
-0.125876
0.147315
-0.0991868
0.150251
-0.0747765
-0.0396841
-0.0245244
0.171085
0.0246642
-0.0367106
0.0640848
-0.138832
0.0963612
-0.183055
0.119518
-0.18422
0.13502
-0.163975
0.144652
-0.135508
0.150074
-0.104609
0.152817
-0.0775202
-0.0400054
-0.0320268
0.0163046
0.0582171
0.0935163
0.11911
0.136084
0.146447
0.152151
0.154987
0.0224986
0.0176773
-0.0401759
0.012315
0.0101836
0.00810862
0.0042064
0.00790313
0.000205489
0.0111467
-0.00324357
0.015372
-0.00422533
0.0194139
-0.00404186
0.0229848
-0.00357087
0.0252625
-0.00227775
-0.00103422
0.0846682
0.0557713
-0.122762
0.0562802
0.0385717
0.0435132
0.0169734
0.0420107
0.00170798
0.0476895
-0.00892244
0.0555005
-0.0120363
0.0631014
-0.0116428
0.0696515
-0.010121
0.0740016
-0.00662782
-0.00310548
0.12809
0.109087
-0.181405
0.0898657
0.0767957
0.071368
0.0354712
0.0681597
0.00491627
0.0740983
-0.0148611
0.083398
-0.0213361
0.0929865
-0.0212312
0.101245
-0.0183797
0.107308
-0.0126903
-0.00632147
0.14777
0.171817
-0.2105
0.105134
0.119431
0.0835394
0.0570663
0.0795011
0.00895455
0.0859261
-0.021286
0.0965142
-0.0319242
0.107512
-0.0322294
0.116952
-0.027819
0.124461
-0.0201992
-0.0104683
0.151729
-0.211292
0.108367
0.0864795
0.0833978
0.0906123
0.10216
0.113908
0.123924
0.132072
0.00838651
0.000137142
-0.00852366
0.00920009
-0.000813578
0.0107953
-0.00159522
0.0130175
-0.00222222
0.0156738
-0.0026563
0.0186759
-0.0030021
0.0223022
-0.00362632
0.0265695
-0.00426729
0.0327084
-0.00613883
-0.00746757
0.0219402
0.000267732
-0.0220707
0.0241332
-0.0030066
0.0283916
-0.00585365
0.0345473
-0.00837791
0.0425219
-0.0106309
0.0526382
-0.0131184
0.0655399
-0.016528
0.0811416
-0.019869
0.101003
-0.0259998
-0.0292271
0.0328735
0.00015616
-0.0327619
0.0362997
-0.0064328
0.042824
-0.0123779
0.052437
-0.0179909
0.0653291
-0.023523
0.0821961
-0.0299854
0.103175
-0.037507
0.127773
-0.0444668
0.155886
-0.0541131
-0.0547461
0.0415442
-0.000378113
-0.0410099
0.0460532
-0.0109418
0.0544624
-0.0207871
0.0669514
-0.03048
0.0839494
-0.040521
0.10592
-0.0519556
0.131863
-0.0634507
0.160782
-0.0733857
0.188792
-0.0821229
-0.0764539
0.0482855
-0.0472204
0.0537426
0.063664
0.0783352
0.0981394
0.122558
0.149499
0.175987
0.195182
0.0555661
-0.0479545
0.0548668
-0.0624783
0.0487875
-0.0473038
0.0540824
0.0423199
-0.0468731
0.0533407
0.0359108
-0.0464124
0.0528215
0.0293581
-0.0458265
0.0523792
0.0226067
-0.0449516
0.051703
0.0157602
-0.0434095
0.0502559
0.00908322
-0.0403836
0.0470606
0.00323239
-0.0339714
0.0398222
-0.0188328
0.0220652
0.0617064
-0.0409121
-0.0687489
0.0546438
-0.0402412
0.0473197
-0.039549
0.039752
-0.0388446
0.0320387
-0.0381132
0.0243186
-0.0372315
0.0167613
-0.0358522
0.00961344
-0.0332357
0.00345491
-0.0278129
-0.0153779
0.0621841
-0.0331214
-0.0699748
0.0543326
-0.0323897
0.0464896
-0.031706
0.0386999
-0.031055
0.0310083
-0.0304215
0.0234623
-0.0296856
0.0161445
-0.0285344
0.00924529
-0.0263365
0.00331217
-0.0218798
-0.0120658
0.0635975
-0.0250843
-0.0716346
0.0556109
-0.0244031
0.0476565
-0.0237516
0.0397439
-0.0231424
0.0318888
-0.0225664
0.0241383
-0.0219352
0.0166075
-0.0210035
0.0095338
-0.0192628
0.00346586
-0.0158118
-0.00859989
0.0655106
-0.0168099
-0.073785
0.0572307
-0.0161231
0.0489539
-0.0154749
0.0406924
-0.0148809
0.0324763
-0.0143502
0.0243823
-0.0138412
0.016583
-0.0132042
0.00939976
-0.0120796
0.00340626
-0.00981832
-0.00519364
0.067605
-0.00822368
-0.0761912
0.0590097
-0.0075279
0.0503992
-0.0068643
0.0417756
-0.00625734
0.0331588
-0.00573339
0.0246297
-0.00531217
0.0164157
-0.0049902
0.00899365
-0.00465751
0.00311235
-0.00393701
-0.00208129
0.070198
0.000693523
-0.0791152
0.0612721
0.00139794
0.0523275
0.00208033
0.0433572
0.00271298
0.0343643
0.00325946
0.0254041
0.00364807
0.016681
0.00373289
0.00873755
0.00328592
0.00265769
0.00214285
0.000576399
0.073132
0.00991056
-0.082349
0.06392
0.0106099
0.0547204
0.0112799
0.0455355
0.0118978
0.036372
0.0124231
0.0272692
0.0127508
0.0183752
0.0126269
0.0101001
0.011561
0.00336447
0.00887847
0.00394087
0.0760249
0.0194072
-0.0855215
0.0665541
0.0200808
0.0571221
0.0207119
0.0477398
0.0212802
0.0384181
0.0217447
0.0291876
0.0219814
0.0201484
0.0216661
0.0115816
0.0201278
0.00420918
0.0162509
0.00815005
0.0786044
-0.0883397
0.0688996
0.0592417
0.0496422
0.0401084
0.030657
0.0213582
0.012439
0.00458989
0.0141966
-0.107888
-0.0142318
0.0125841
-0.115797
0.0101977
-0.1196
0.00748037
-0.120995
0.00475322
-0.120722
0.00213407
-0.118862