/*--------------------------------*- C++ -*----------------------------------*\
| =========                 |                                                 |
| \\      /  F ield         | OpenFOAM: The Open Source CFD Toolbox           |
|  \\    /   O peration     | Version:  2406                                  |
|   \\  /    A nd           | Website:  www.openfoam.com                      |
|    \\/     M anipulation  |                                                 |
\*---------------------------------------------------------------------------*/
FoamFile
{
    version     2.0;
    format      ascii;
    arch        "LSB;label=32;scalar=64";
    class       volVectorField;
    location    "0.85";
    object      U;
}
// * * * * * * * * * * * * * * * * * * * * * * * * * * * * * * * * * * * * * //

dimensions      [0 1 -1 0 0 0 0];

internalField   nonuniform List<vector> 
1800
(
(-0.00382978 0.00864906 0)
(-0.0289148 0.0452041 -1.07797e-20)
(-0.0339082 0.0975973 -8.90754e-20)
(-0.010824 0.141449 4.82022e-20)
(0.0418974 0.172697 3.38114e-20)
(0.120771 0.195353 -1.58319e-20)
(0.219364 0.21442 9.7506e-21)
(0.331643 0.233842 2.39358e-19)
(0.459977 0.250422 0)
(0.556863 0.30543 -3.50707e-20)
(-0.000829938 0.00243785 -1.91128e-20)
(-0.00902697 0.0107204 -9.55105e-20)
(0.00241385 0.0279685 7.67222e-20)
(0.051646 0.0426623 1.2668e-19)
(0.137042 0.0504143 -2.97227e-20)
(0.249913 0.0550235 -8.39857e-20)
(0.379659 0.0592665 -3.93867e-21)
(0.518614 0.0643025 -1.35763e-19)
(0.667413 0.0676524 7.52259e-20)
(0.771141 0.0982286 1.29278e-19)
(-0.0015719 0.000935223 7.49546e-21)
(0.000355827 -0.00307363 -3.81764e-20)
(0.0515427 -0.00829616 -4.09184e-20)
(0.14986 -0.0174005 3.19498e-20)
(0.282389 -0.0244001 -1.45266e-20)
(0.434026 -0.0264657 2.38387e-20)
(0.591467 -0.0231723 -2.49502e-20)
(0.74679 -0.0153137 1.66552e-20)
(0.901347 -0.00127851 -8.32571e-20)
(1.00512 0.0151438 -2.68293e-19)
(-0.00171741 0.00333141 3.45715e-20)
(0.0291112 -0.0130458 9.84457e-20)
(0.138935 -0.031783 -6.27302e-20)
(0.298067 -0.0500108 -6.08115e-22)
(0.480891 -0.0607957 1.23483e-19)
(0.667501 -0.0619692 -2.15938e-20)
(0.844939 -0.0551442 -3.82558e-20)
(1.00856 -0.0426823 -2.85812e-20)
(1.16323 -0.0231308 -1.5281e-20)
(1.2643 -0.00882629 8.55735e-21)
(0.00315484 -0.000501318 -1.72181e-20)
(0.0894215 -0.0262831 6.36269e-20)
(0.266833 -0.0484111 3.99504e-20)
(0.486408 -0.063507 -8.48543e-20)
(0.71078 -0.0673339 -3.48521e-20)
(0.918143 -0.0604664 4.84078e-20)
(1.10056 -0.0463528 2.73347e-20)
(1.26058 -0.0278737 3.6579e-20)
(1.40694 -0.00458127 -1.01555e-19)
(1.51055 0.00930444 -6.92841e-20)
(0.0225237 -0.00395829 4.44891e-22)
(0.183327 -0.0388177 1.49922e-19)
(0.43398 -0.0560967 1.04849e-19)
(0.704654 -0.0600768 -1.17329e-19)
(0.951617 -0.052155 8.72182e-20)
(1.15983 -0.0361903 -1.15299e-20)
(1.33279 -0.0164982 8.55958e-20)
(1.48271 0.00442807 1.39142e-19)
(1.62253 0.0262961 -1.71067e-19)
(1.74755 0.0393409 -1.57133e-19)
(0.058857 -0.00842303 -3.68843e-20)
(0.309119 -0.0444403 -2.39008e-19)
(0.628915 -0.0472958 2.78353e-20)
(0.929942 -0.0348133 2.73075e-19)
(1.17565 -0.0144626 -2.16652e-20)
(1.36825 0.00880685 -1.63389e-19)
(1.52564 0.0317982 -9.16833e-20)
(1.66792 0.0534084 3.25352e-19)
(1.81044 0.0736179 3.74546e-19)
(1.95789 0.0892961 4.3125e-20)
(0.112344 -0.0105529 3.49172e-20)
(0.461205 -0.036127 2.94636e-20)
(0.833417 -0.0171688 -1.17374e-19)
(1.13952 0.0124742 5.77496e-20)
(1.367 0.0427801 -1.27364e-21)
(1.53922 0.0708849 -5.34037e-19)
(1.6845 0.0958836 -9.37001e-21)
(1.82533 0.11805 4.12989e-19)
(1.97423 0.137908 -2.7567e-19)
(2.13034 0.154623 -3.14393e-19)
(0.181562 -0.00639941 1.25062e-19)
(0.627197 -0.00820335 1.19839e-19)
(1.02804 0.0358028 -2.81868e-19)
(1.32047 0.0805713 -6.69173e-20)
(1.52392 0.118584 1.25895e-21)
(1.67754 0.150478 1.99401e-19)
(1.81317 0.177263 -3.83168e-19)
(1.95098 0.199827 -2.18147e-19)
(2.09678 0.218365 5.60378e-19)
(2.23926 0.23236 1.39819e-19)
(0.262387 0.00748491 2.91527e-20)
(0.792482 0.0416451 2.96599e-19)
(1.20119 0.110691 -2.67926e-19)
(1.47103 0.167807 -1.11684e-19)
(1.64983 0.21141 1.10964e-19)
(1.78503 0.245463 -1.41134e-19)
(1.90783 0.272444 2.5373e-19)
(2.03481 0.293545 3.29621e-20)
(2.16665 0.308447 -2.31203e-19)
(2.28992 0.317124 -8.55934e-20)
(-0.0159805 0.25407 -2.94115e-20)
(-0.0402128 0.464959 1.0808e-19)
(-0.0688427 0.543542 7.18351e-20)
(-0.0942738 0.572212 -9.30629e-20)
(-0.117886 0.577819 1.14376e-21)
(-0.139309 0.569163 3.4695e-20)
(-0.158027 0.550143 2.04168e-20)
(-0.174021 0.522487 -4.02203e-20)
(-0.187249 0.487247 1.68771e-22)
(-0.198189 0.445918 -8.75815e-21)
(-0.035813 0.274533 3.33509e-20)
(-0.0751284 0.50582 1.20626e-22)
(-0.105945 0.589823 3.30455e-20)
(-0.129353 0.619423 -1.16122e-19)
(-0.149767 0.624538 -8.2443e-20)
(-0.167871 0.614291 -5.49825e-20)
(-0.183218 0.592826 2.80524e-20)
(-0.19585 0.561862 0)
(-0.205773 0.522509 -1.59439e-20)
(-0.213477 0.476394 5.59597e-20)
(-0.0561823 0.282869 2.13987e-23)
(-0.111466 0.530427 -1.28124e-19)
(-0.143863 0.621197 -7.23958e-20)
(-0.16313 0.653667 8.12675e-20)
(-0.177577 0.662002 -1.05479e-21)
(-0.188633 0.652381 -5.6098e-20)
(-0.197709 0.630033 1.57077e-20)
(-0.204932 0.597964 1.05144e-20)
(-0.209578 0.557144 4.29857e-20)
(-0.21207 0.508677 -1.26571e-20)
(-0.0751177 0.278832 3.10125e-20)
(-0.146644 0.537435 5.47617e-20)
(-0.178642 0.63427 7.53928e-21)
(-0.190885 0.664375 9.11609e-20)
(-0.195757 0.673056 -1.92453e-20)
(-0.198742 0.67235 1.85778e-20)
(-0.200678 0.658726 -1.65679e-20)
(-0.200358 0.629953 0)
(-0.19777 0.589592 -1.38987e-19)
(-0.192923 0.540661 -2.66894e-19)
(-0.085944 0.257922 -3.08852e-20)
(-0.167571 0.518343 1.55972e-20)
(-0.193954 0.623689 6.90275e-20)
(-0.19937 0.65864 -3.05193e-20)
(-0.198857 0.668983 1.22953e-20)
(-0.196412 0.669903 1.08758e-20)
(-0.192079 0.663753 -3.88922e-20)
(-0.184585 0.646689 1.24942e-19)
(-0.173374 0.614207 -2.15081e-19)
(-0.158188 0.568433 -2.3058e-19)
(-0.0861273 0.21769 -2.81307e-20)
(-0.174443 0.467511 -1.75415e-20)
(-0.198533 0.585448 -2.7281e-20)
(-0.200514 0.635439 3.26099e-20)
(-0.194947 0.657225 1.3288e-19)
(-0.184951 0.664539 -2.27677e-19)
(-0.171506 0.660736 -4.41576e-20)
(-0.154458 0.646821 1.81497e-19)
(-0.13258 0.621362 -3.96815e-19)
(-0.104539 0.582071 -2.02594e-19)
(-0.0759286 0.16566 -1.19852e-20)
(-0.166273 0.390168 4.38195e-20)
(-0.190121 0.517524 -3.57913e-21)
(-0.18832 0.582518 1.58564e-19)
(-0.175291 0.616333 3.97215e-20)
(-0.155929 0.633004 -2.34058e-19)
(-0.132026 0.637521 -2.74606e-19)
(-0.104019 0.63098 -1.74764e-19)
(-0.0704883 0.612337 5.7142e-19)
(-0.0281122 0.578559 4.33419e-19)
(-0.0576216 0.111641 -4.98484e-22)
(-0.142183 0.296688 -2.7028e-20)
(-0.165536 0.424943 -1.15419e-20)
(-0.160526 0.501688 -5.93891e-20)
(-0.140189 0.547431 -1.39121e-19)
(-0.110452 0.574785 1.26483e-19)
(-0.0743549 0.589625 -1.62671e-19)
(-0.033667 0.593662 -1.40012e-20)
(0.0126607 0.585727 3.90071e-19)
(0.0722818 0.560622 7.14835e-21)
(-0.0353434 0.0634457 -1.58627e-20)
(-0.10439 0.197975 -9.32991e-21)
(-0.124461 0.313464 6.51406e-21)
(-0.11598 0.393086 5.96134e-20)
(-0.0882775 0.446192 1.50527e-20)
(-0.0469736 0.482183 1.82012e-19)
(0.00381478 0.507082 2.45817e-20)
(0.0604202 0.523717 1.37589e-19)
(0.12146 0.531474 -5.54684e-21)
(0.202954 0.52102 -6.7512e-19)
(-0.0159534 0.0281514 -2.77604e-20)
(-0.0632422 0.109464 -3.66911e-20)
(-0.0772909 0.19739 6.13092e-20)
(-0.0645107 0.265454 -9.82472e-21)
(-0.0285199 0.314356 4.7928e-20)
(0.0266595 0.350065 2.00185e-19)
(0.0961046 0.37836 1.39195e-19)
(0.174359 0.403293 -3.3688e-19)
(0.257543 0.426639 -4.59829e-19)
(0.365386 0.439743 -5.56111e-19)
(-0.244676 0.221169 -5.34824e-19)
(-0.0970952 -0.150176 -7.31822e-19)
(0.157351 -0.28108 -2.70508e-19)
(0.338976 -0.329487 1.06644e-19)
(0.507995 -0.311082 3.26345e-20)
(0.623145 -0.264774 6.06277e-21)
(0.697659 -0.211255 -7.89321e-20)
(0.745999 -0.158511 2.87713e-20)
(0.773994 -0.114873 -1.83301e-20)
(0.792781 -0.0572335 -1.07681e-20)
(-0.244543 0.223479 -5.50608e-19)
(-0.136542 -0.205946 1.90346e-20)
(0.129803 -0.345012 -1.16922e-19)
(0.325348 -0.385757 -8.39812e-20)
(0.505587 -0.35361 5.66911e-20)
(0.627096 -0.293556 -1.04476e-19)
(0.70463 -0.229517 4.84243e-20)
(0.753789 -0.169492 1.05191e-21)
(0.782296 -0.121686 -3.43653e-20)
(0.801584 -0.0600373 2.17091e-20)
(-0.223433 0.239079 7.62281e-19)
(-0.152957 -0.249214 9.40332e-19)
(0.122312 -0.410786 1.11971e-19)
(0.326423 -0.44459 -1.05617e-19)
(0.51128 -0.398715 -6.00837e-20)
(0.634888 -0.323903 1.95417e-21)
(0.713016 -0.24865 2.19233e-20)
(0.762091 -0.18087 -3.05173e-20)
(0.790599 -0.128887 1.01696e-21)
(0.810668 -0.0629858 -4.37696e-22)
(-0.178466 0.266283 8.6745e-19)
(-0.123013 -0.278103 -1.86426e-20)
(0.159227 -0.474952 7.91456e-20)
(0.36222 -0.503038 8.17529e-20)
(0.539078 -0.443929 1.77979e-20)
(0.655386 -0.354256 2.0332e-20)
(0.728239 -0.26785 -3.80494e-20)
(0.774398 -0.19226 0)
(0.801337 -0.13635 0)
(0.821847 -0.0661007 -4.05339e-23)
(-0.106486 0.298696 2.15437e-20)
(-0.0316738 -0.296062 -8.4237e-19)
(0.26308 -0.53476 -1.4247e-20)
(0.45542 -0.558147 -7.34334e-20)
(0.608419 -0.485978 -1.11581e-20)
(0.703035 -0.382252 6.87512e-20)
(0.760061 -0.285687 2.6683e-21)
(0.797195 -0.202871 -1.56807e-20)
(0.819106 -0.143697 -4.67227e-20)
(0.838435 -0.0693399 -1.82418e-21)
(-0.0122307 0.329137 -1.14888e-19)
(0.126609 -0.310129 -3.78214e-19)
(0.436146 -0.590328 -9.43861e-19)
(0.615803 -0.607885 1.12985e-20)
(0.735829 -0.521375 4.73997e-20)
(0.795341 -0.404575 3.63301e-20)
(0.823063 -0.299742 1.25892e-20)
(0.841273 -0.211195 -6.72764e-20)
(0.852051 -0.150087 7.78681e-22)
(0.866265 -0.0724879 -2.22116e-20)
(0.103402 0.349723 -6.14243e-20)
(0.33858 -0.32403 -6.39481e-21)
(0.645867 -0.642985 4.14713e-19)
(0.820481 -0.654323 -1.05898e-19)
(0.916 -0.54962 -2.13934e-20)
(0.940111 -0.418571 -1.85296e-20)
(0.930514 -0.306944 -4.9725e-21)
(0.919809 -0.214877 1.40226e-20)
(0.911986 -0.15394 1.77751e-20)
(0.914478 -0.0749959 9.55525e-21)
(0.240331 0.367663 7.49148e-21)
(0.565782 -0.332726 1.61154e-18)
(0.851578 -0.687978 6.39131e-19)
(1.02475 -0.701376 4.37656e-20)
(1.11537 -0.576137 -6.87893e-20)
(1.12127 -0.42647 -1.89286e-20)
(1.08087 -0.306559 -2.71925e-20)
(1.03917 -0.212182 3.20735e-20)
(1.0089 -0.153366 -1.38619e-22)
(0.993166 -0.07598 -3.43897e-21)
(0.414844 0.361935 -1.30883e-21)
(0.784362 -0.325452 4.68216e-19)
(1.04493 -0.714506 -9.86844e-19)
(1.20448 -0.745566 4.91015e-19)
(1.29777 -0.604743 -1.29894e-19)
(1.30614 -0.433487 -2.56419e-20)
(1.25266 -0.301798 -2.17774e-20)
(1.18884 -0.204214 1.07352e-21)
(1.14008 -0.147913 -2.78093e-21)
(1.10499 -0.0747864 -2.10543e-21)
(0.574454 0.385064 1.30717e-19)
(1.00237 -0.285314 -9.33198e-19)
(1.25266 -0.72502 -7.42212e-19)
(1.37675 -0.783121 3.71303e-19)
(1.45354 -0.63421 -1.57539e-19)
(1.4688 -0.442066 3.02766e-20)
(1.41801 -0.295873 -9.94273e-20)
(1.34552 -0.193485 -1.81939e-21)
(1.28736 -0.13902 -4.46151e-21)
(1.23816 -0.071606 -6.49323e-21)
(0.899758 0.315448 6.9277e-20)
(1.36003 -0.332115 -1.02412e-19)
(1.59637 -0.758587 -7.71716e-20)
(1.65041 -0.823348 -1.55533e-19)
(1.65557 -0.667042 9.34316e-20)
(1.64854 -0.452504 -5.30458e-22)
(1.59955 -0.285956 2.36402e-20)
(1.52657 -0.175719 2.35389e-20)
(1.46668 -0.122757 -5.168e-20)
(1.40816 -0.0647763 6.56798e-21)
(1.49676 0.139364 2.77485e-19)
(2.05877 -0.488878 -4.05072e-19)
(2.21149 -0.820653 -3.23555e-19)
(2.11143 -0.814002 1.1523e-20)
(1.94958 -0.63304 9.29587e-20)
(1.83639 -0.419403 1.43654e-19)
(1.75146 -0.254877 1.32978e-19)
(1.6757 -0.148267 -1.78208e-20)
(1.623 -0.1007 6.81764e-20)
(1.56741 -0.0544193 1.66512e-20)
(2.25343 -0.00107182 5.49023e-20)
(2.66123 -0.548745 -1.97977e-20)
(2.63159 -0.780821 8.60844e-20)
(2.44183 -0.736467 3.00325e-35)
(2.21398 -0.556455 -4.34832e-20)
(2.02629 -0.361942 -6.36545e-34)
(1.88885 -0.214515 1.25387e-20)
(1.79214 -0.119784 1.19703e-34)
(1.73272 -0.0793109 -3.5186e-22)
(1.67677 -0.0443241 -1.05728e-21)
(2.78479 -0.113993 8.72061e-20)
(2.97615 -0.588108 5.53528e-19)
(2.80913 -0.764696 2.60545e-19)
(2.5458 -0.689134 0)
(2.29313 -0.493875 -1.15561e-19)
(2.09105 -0.303267 -1.28012e-19)
(1.94094 -0.169836 -1.05634e-19)
(1.83853 -0.0890213 9.06112e-34)
(1.77584 -0.056402 -3.43999e-20)
(1.71966 -0.032816 -5.48728e-23)
(3.04969 -0.193697 7.561e-20)
(3.13405 -0.565214 7.10036e-21)
(2.96106 -0.66049 0)
(2.68036 -0.558328 0)
(2.38248 -0.376871 0)
(2.13359 -0.215844 0)
(1.95523 -0.112406 4.379e-21)
(1.84231 -0.0546636 1.06471e-33)
(1.77716 -0.0336636 -1.30974e-21)
(1.7212 -0.023617 -1.04189e-34)
(3.19337 -0.234712 1.44863e-19)
(3.22234 -0.525865 0)
(2.97493 -0.586577 0)
(2.6263 -0.475884 0)
(2.30772 -0.292496 0)
(2.06404 -0.143042 0)
(1.89768 -0.0611191 -9.78207e-21)
(1.79655 -0.0230234 6.2854e-20)
(1.74251 -0.0126822 -1.77403e-21)
(1.69488 -0.0139234 1.00094e-20)
(3.23757 -0.264391 0)
(3.19484 -0.475887 2.21652e-19)
(2.8798 -0.465396 6.06755e-20)
(2.46412 -0.333233 0)
(2.113 -0.173822 -9.78493e-20)
(1.87915 -0.0614379 -8.13449e-20)
(1.74371 -0.0114333 -6.41113e-20)
(1.66956 0.00521514 -3.12712e-20)
(1.6372 0.0049569 2.84808e-20)
(1.60117 -0.00429516 -8.01462e-21)
(3.08139 -0.270095 2.85901e-20)
(2.89888 -0.379356 -1.87736e-21)
(2.45948 -0.319972 -1.37166e-20)
(1.99179 -0.19344 -1.21015e-35)
(1.66987 -0.0715297 2.04969e-20)
(1.50069 -0.00115571 -4.81443e-34)
(1.42717 0.0197449 -1.24703e-20)
(1.3953 0.0198584 -2.41832e-20)
(1.39052 0.0133293 -2.34462e-21)
(1.3716 0.00105838 4.24535e-21)
(2.41134 -0.240342 0)
(2.00172 -0.217193 -4.33048e-20)
(1.48566 -0.1105 -7.44733e-23)
(1.11113 -0.0299971 0)
(0.943706 0.0127665 2.59247e-20)
(0.901195 0.0290597 2.10108e-20)
(0.910062 0.0274486 2.40553e-21)
(0.927495 0.0201153 9.73266e-21)
(0.949737 0.0127734 -1.27365e-20)
(0.950731 0.00322773 -2.86778e-21)
(0.781964 -0.0705944 1.5211e-20)
(0.444763 -0.0186232 0)
(0.239572 6.13326e-05 0)
(0.161575 0.0039105 0)
(0.167053 0.00738678 0)
(0.208581 0.0093662 0)
(0.258036 0.00825856 -1.3063e-20)
(0.298353 0.0058563 4.07347e-35)
(0.328469 0.00365071 -2.75681e-21)
(0.341202 0.00102627 -4.79725e-21)
(2.47679 0.328262 4.34642e-19)
(2.46796 0.252971 1.7555e-19)
(2.41653 0.196647 3.20459e-19)
(2.3211 0.141722 -2.99041e-19)
(2.15119 0.10048 4.47553e-20)
(1.93677 0.0613647 1.6153e-20)
(1.64584 0.0327476 -7.57553e-21)
(1.35089 0.0318575 -1.7229e-20)
(1.07662 0.0391948 7.98734e-20)
(0.783671 0.271175 1.39565e-19)
(2.61127 0.288591 -2.39967e-19)
(2.62924 0.237492 5.12577e-20)
(2.6126 0.18147 1.51059e-19)
(2.58851 0.154469 1.31458e-19)
(2.52122 0.11512 -2.08042e-19)
(2.40175 0.115906 6.53025e-20)
(2.27632 0.0714906 -1.04373e-19)
(1.986 0.114232 -3.33558e-20)
(1.86795 0.038161 -1.0478e-19)
(1.33062 0.177974 -1.53431e-19)
(2.73351 0.254727 3.35573e-20)
(2.72409 0.225315 -1.63017e-19)
(2.77349 0.159194 -2.14821e-19)
(2.71079 0.154181 4.38477e-19)
(2.77486 0.0934942 -2.75438e-21)
(2.62652 0.130092 -3.01915e-20)
(2.71679 0.0604037 -8.23968e-20)
(2.42243 0.13099 -6.64476e-20)
(2.52163 0.0397927 1.05311e-19)
(2.06244 0.122855 -1.11638e-21)
(2.8316 0.216937 6.46772e-20)
(2.80209 0.200012 -2.15191e-19)
(2.90011 0.135191 3.96286e-20)
(2.80917 0.139041 -1.553e-19)
(2.93785 0.0663274 2.42163e-19)
(2.78125 0.108524 -7.01048e-20)
(2.94113 0.0310252 7.24064e-20)
(2.71926 0.0951089 -1.17607e-19)
(2.86591 0.0148303 -3.04462e-19)
(2.58905 0.0613263 -1.56742e-19)
(2.87432 0.178823 1.13661e-19)
(2.87087 0.159551 -3.36083e-19)
(2.95712 0.109804 -2.32309e-20)
(2.91386 0.103749 -3.42705e-20)
(3.01133 0.0433042 -1.06988e-20)
(2.92964 0.0604404 -2.30086e-21)
(3.03982 -0.00231348 4.49131e-20)
(2.93366 0.0317049 -7.1256e-20)
(3.03232 -0.0289989 -1.34581e-19)
(2.90758 -0.00663271 -2.03326e-19)
(2.87247 0.133238 2.10347e-19)
(2.89788 0.110799 4.18743e-20)
(2.96577 0.076592 -2.3197e-19)
(2.97268 0.0607893 1.34374e-19)
(3.03794 0.0191753 1.24176e-19)
(3.02566 0.0137351 -7.05426e-20)
(3.08836 -0.0293596 1.26823e-19)
(3.06153 -0.0234339 3.95192e-20)
(3.12153 -0.06878 -1.90085e-19)
(3.08085 -0.0600412 -2.57253e-19)
(2.81461 0.0810439 1.74483e-20)
(2.85532 0.0592051 7.60553e-20)
(2.91391 0.0339382 -8.98523e-20)
(2.9456 0.0164728 -3.98605e-20)
(3.0039 -0.0140375 1.31209e-19)
(3.02395 -0.024701 2.74114e-20)
(3.07684 -0.0588781 1.02632e-19)
(3.08929 -0.0599039 1.05873e-19)
(3.13562 -0.103211 3.8888e-20)
(3.14633 -0.0976775 1.00702e-19)
(2.63512 0.0337653 2.40712e-20)
(2.68829 0.0122255 -2.56322e-22)
(2.72394 -0.00214661 -9.34027e-20)
(2.78025 -0.0232241 -8.09838e-20)
(2.81142 -0.0399667 2.52684e-20)
(2.86969 -0.0528799 -3.76908e-20)
(2.89055 -0.0767774 -1.79531e-20)
(2.95151 -0.0778893 9.92697e-20)
(2.96782 -0.117335 -7.3185e-20)
(3.03227 -0.111804 -8.17201e-20)
(2.19348 -0.014014 7.65439e-20)
(2.24164 -0.0265446 -3.5216e-20)
(2.2407 -0.0347253 -3.19395e-20)
(2.29737 -0.0456186 3.80731e-20)
(2.28554 -0.0492305 -1.74596e-20)
(2.36188 -0.0600588 7.72148e-21)
(2.33228 -0.0678919 -7.23559e-20)
(2.43539 -0.0811075 1.43546e-20)
(2.39403 -0.104335 3.42842e-20)
(2.50991 -0.119618 -3.78761e-20)
(1.19067 -0.0158346 0)
(1.18207 -0.0187627 3.23798e-21)
(1.16286 -0.0196848 -4.82558e-20)
(1.15867 -0.0234951 -7.16564e-20)
(1.13373 -0.026159 3.78381e-20)
(1.14058 -0.0327193 1.29926e-19)
(1.10121 -0.036127 -1.37276e-20)
(1.12679 -0.0451175 -3.95891e-20)
(1.0537 -0.050177 1.54997e-21)
(1.10626 -0.0610502 3.76272e-21)
(1.40099 0.873459 -5.10248e-20)
(1.35627 0.892821 -1.07167e-19)
(1.32878 0.915287 -6.82178e-19)
(1.30511 0.940526 1.80277e-19)
(1.2804 0.965347 9.44321e-19)
(1.25011 0.986058 9.79957e-20)
(1.20605 0.993046 -8.61621e-20)
(1.12869 0.968516 -2.25082e-19)
(0.95507 0.854601 -2.81852e-19)
(0.512655 0.474803 -3.30245e-20)
(1.5672 0.856115 -4.40648e-19)
(1.52025 0.87067 1.19685e-18)
(1.48126 0.88785 5.13485e-19)
(1.44862 0.909035 -6.79608e-19)
(1.41865 0.931224 2.20384e-19)
(1.38482 0.949879 1.89164e-19)
(1.33678 0.954854 5.98495e-19)
(1.25233 0.929409 -8.95781e-19)
(1.05951 0.815818 -5.546e-20)
(0.564231 0.44755 1.33505e-19)
(1.71365 0.83183 1.18753e-19)
(1.66889 0.843185 9.1853e-19)
(1.62509 0.855455 1.64387e-20)
(1.58688 0.870783 -3.97181e-19)
(1.5525 0.887694 1.34512e-19)
(1.51483 0.901911 -9.42487e-21)
(1.46195 0.903435 -4.97722e-20)
(1.36874 0.876299 -3.32303e-19)
(1.15413 0.762483 8.90985e-20)
(0.606758 0.410456 -2.00955e-19)
(1.83508 0.79921 -4.82197e-19)
(1.79098 0.807024 4.12757e-19)
(1.74574 0.814906 -6.15458e-19)
(1.7055 0.8251 -2.11149e-19)
(1.66921 0.836886 1.12025e-18)
(1.62908 0.845677 -6.75063e-19)
(1.57197 0.842173 -7.49178e-19)
(1.47008 0.811347 3.42888e-19)
(1.23073 0.695885 -1.26055e-19)
(0.633828 0.364635 -4.78921e-20)
(1.94208 0.7573 5.89563e-19)
(1.89367 0.762728 4.54034e-19)
(1.84499 0.767625 -1.92588e-19)
(1.80229 0.773872 7.19841e-19)
(1.76356 0.780049 1.02466e-19)
(1.72013 0.780991 -3.07227e-19)
(1.65869 0.770705 3.73201e-19)
(1.54648 0.735645 -4.9245e-19)
(1.27875 0.61615 -5.74279e-19)
(0.639534 0.309527 -2.10396e-20)
(2.03863 0.709387 7.82457e-19)
(1.98272 0.713173 9.07736e-19)
(1.92683 0.715405 -8.55162e-19)
(1.87761 0.716697 -7.9655e-19)
(1.83254 0.715193 1.60609e-19)
(1.78348 0.707868 -5.36976e-19)
(1.71647 0.691007 -2.61658e-19)
(1.58863 0.647897 2.07491e-19)
(1.28952 0.521754 8.40126e-20)
(0.620045 0.247133 6.40507e-21)
(2.12678 0.651686 7.20603e-19)
(2.06071 0.653703 -8.95901e-19)
(1.99323 0.652843 -7.34237e-19)
(1.93262 0.648554 4.65465e-19)
(1.87791 0.639841 -4.17005e-19)
(1.82029 0.625649 1.15675e-18)
(1.74117 0.600691 -1.39746e-19)
(1.58992 0.545778 -9.54488e-19)
(1.25788 0.415822 4.2451e-19)
(0.575879 0.182799 4.14736e-20)
(2.20463 0.580336 -4.76318e-19)
(2.12581 0.580256 -6.21166e-19)
(2.04346 0.57635 -7.36383e-19)
(1.96832 0.567215 4.3304e-20)
(1.90032 0.552768 2.5198e-19)
(1.82842 0.531585 2.32673e-19)
(1.72881 0.496754 3.84566e-19)
(1.54795 0.431847 -1.57529e-19)
(1.18539 0.306194 3.00618e-20)
(0.511779 0.122766 6.48591e-20)
(2.26291 0.497483 2.23228e-19)
(2.17074 0.495065 -8.9899e-20)
(2.07258 0.488132 3.60682e-19)
(1.98074 0.474698 9.33036e-19)
(1.89545 0.454824 -2.78247e-19)
(1.80367 0.426569 -9.63514e-19)
(1.67823 0.383843 6.97745e-19)
(1.46554 0.31504 6.63602e-19)
(1.07877 0.202647 -3.5559e-19)
(0.434006 0.0720303 -3.55904e-20)
(2.29416 0.406709 -4.58539e-19)
(2.18745 0.401982 -4.59179e-21)
(2.07285 0.391695 5.25655e-19)
(1.9629 0.374203 4.58237e-19)
(1.85801 0.349772 3.0183e-19)
(1.74387 0.316789 -4.76816e-19)
(1.5911 0.271099 7.14757e-20)
(1.34818 0.205343 -2.93427e-19)
(0.945553 0.112832 -3.94432e-19)
(0.348746 0.0333587 1.34108e-21)
(0.411263 0.410479 2.05062e-21)
(0.376684 0.41972 4.8651e-20)
(0.339642 0.42822 4.6896e-21)
(0.300544 0.435808 -5.00527e-20)
(0.259217 0.442071 -3.6435e-20)
(0.2152 0.445308 -7.6975e-20)
(0.167974 0.440507 3.04307e-20)
(0.116886 0.416365 -3.5285e-20)
(0.062638 0.350016 9.22329e-20)
(0.0237749 0.188436 1.66832e-20)
(0.463051 0.500074 -3.95215e-20)
(0.428629 0.511507 -2.17805e-21)
(0.391721 0.522125 -9.60419e-20)
(0.35261 0.531897 1.24563e-20)
(0.311096 0.540571 2.66726e-20)
(0.266561 0.546442 3.52957e-20)
(0.218051 0.543919 1.6548e-19)
(0.164144 0.519855 -5.50904e-20)
(0.102594 0.445386 6.37529e-20)
(0.0450877 0.245832 -1.46989e-20)
(0.529744 0.585445 5.19977e-21)
(0.496201 0.599723 1.14676e-19)
(0.460352 0.613214 8.1765e-20)
(0.422246 0.625857 1.09071e-19)
(0.381472 0.63743 3.36348e-20)
(0.33711 0.646257 1.73312e-19)
(0.287647 0.64635 -6.27719e-20)
(0.230601 0.622863 -7.72314e-20)
(0.159847 0.540829 1.16417e-22)
(0.0763732 0.303172 9.63236e-21)
(0.599673 0.664562 2.99717e-19)
(0.566104 0.68056 2.1196e-19)
(0.530773 0.695484 -2.97407e-19)
(0.493494 0.709806 -1.39397e-19)
(0.453918 0.723648 2.41142e-20)
(0.411005 0.735227 -7.93745e-20)
(0.362604 0.737762 -2.63122e-19)
(0.304717 0.71474 8.16005e-20)
(0.226271 0.626034 -5.7828e-20)
(0.11413 0.354312 -9.59757e-20)
(0.70184 0.732541 -9.56866e-20)
(0.670052 0.751344 -2.60795e-19)
(0.636147 0.768902 2.29191e-19)
(0.599651 0.785586 -8.6449e-20)
(0.56007 0.801591 -1.63892e-19)
(0.516307 0.815405 2.26993e-19)
(0.465865 0.82016 1.00131e-19)
(0.403445 0.798055 -1.24548e-19)
(0.312517 0.704016 -2.46278e-19)
(0.162219 0.400888 4.70199e-20)
(0.787976 0.795828 -1.63144e-20)
(0.757087 0.816213 -1.91719e-20)
(0.725471 0.83501 -3.24269e-20)
(0.692165 0.85335 7.22744e-20)
(0.656397 0.87158 2.13064e-19)
(0.616522 0.887737 -2.0375e-19)
(0.568939 0.894133 -1.32507e-19)
(0.506004 0.871908 -3.63215e-20)
(0.404828 0.771788 8.57136e-20)
(0.214483 0.44011 1.43119e-19)
(0.898782 0.841535 -2.33242e-19)
(0.869494 0.864298 1.14803e-19)
(0.839462 0.884644 3.42443e-19)
(0.807206 0.903991 -2.16093e-19)
(0.772159 0.923173 -4.34203e-19)
(0.732987 0.9406 1.90667e-19)
(0.685767 0.948185 5.6911e-19)
(0.620779 0.926163 1.53037e-19)
(0.507511 0.822206 -1.23971e-20)
(0.272029 0.468678 2.07686e-19)
(1.01595 0.877682 -4.15502e-19)
(0.985346 0.90004 -1.41051e-19)
(0.956349 0.920144 3.34736e-19)
(0.926679 0.940049 -1.16802e-19)
(0.894647 0.960304 9.18399e-20)
(0.85794 0.978739 3.84445e-19)
(0.811631 0.986731 -3.8331e-19)
(0.74392 0.964216 -3.45132e-19)
(0.616722 0.856803 2.64728e-19)
(0.332453 0.487216 -1.69438e-20)
(1.13499 0.897514 -1.54407e-20)
(1.1117 0.921107 4.65744e-20)
(1.08672 0.940367 -2.4467e-19)
(1.0588 0.959448 -7.8844e-20)
(1.02787 0.979763 4.69303e-19)
(0.992156 0.998873 1.25514e-19)
(0.945847 1.00733 -9.67367e-20)
(0.874401 0.984686 0)
(0.731705 0.874744 -1.83485e-19)
(0.39504 0.495263 -1.0106e-19)
(1.22289 0.898878 0)
(1.20408 0.924231 0)
(1.19083 0.945936 6.5518e-19)
(1.1733 0.966279 1.36442e-19)
(1.14996 0.986739 -1.94493e-19)
(1.11946 1.00517 3.58739e-19)
(1.07593 1.01214 -2.16447e-19)
(1.00259 0.988034 -6.2573e-19)
(0.845207 0.875119 3.30701e-19)
(0.455824 0.49143 1.78851e-19)
(0.95586 -0.00197243 -1.18825e-20)
(1.0501 0.176245 -7.43569e-21)
(0.966853 0.260381 7.12816e-21)
(0.948588 0.245543 5.87915e-21)
(0.915428 0.213994 1.99905e-20)
(0.889195 0.206282 3.2995e-20)
(0.86529 0.20488 -1.5698e-20)
(0.80921 0.234588 -2.63111e-20)
(0.766968 0.269757 -9.46654e-20)
(0.568623 0.357733 9.39932e-20)
(0.955389 -0.00577307 -9.41393e-22)
(1.05064 0.181184 7.51526e-21)
(0.9659 0.270424 9.53597e-23)
(0.948321 0.254706 1.31515e-20)
(0.914472 0.221457 1.56054e-20)
(0.889357 0.213443 -4.51909e-20)
(0.87259 0.214917 -1.50905e-20)
(0.823813 0.250424 7.96941e-23)
(0.79095 0.306339 2.40161e-19)
(0.61377 0.429114 -2.68837e-21)
(0.95482 -0.00938627 2.76295e-21)
(1.05173 0.186713 1.30666e-20)
(0.964843 0.280647 -8.83523e-21)
(0.94706 0.263808 -1.65213e-21)
(0.911406 0.22856 -1.85994e-20)
(0.887737 0.219554 3.26855e-21)
(0.877089 0.222943 2.0243e-20)
(0.837082 0.264961 -1.9536e-20)
(0.813963 0.340463 1.17202e-19)
(0.669227 0.495387 -3.16536e-19)
(0.954128 -0.0128443 1.8737e-21)
(1.05357 0.192861 -2.02686e-21)
(0.963679 0.291262 -1.04816e-20)
(0.943982 0.273027 -3.5545e-20)
(0.90649 0.235241 4.10293e-20)
(0.885656 0.224565 2.43953e-20)
(0.879616 0.229092 -2.5123e-20)
(0.848896 0.278305 9.45733e-20)
(0.836988 0.371544 -1.04605e-19)
(0.729395 0.56059 -3.14233e-19)
(0.953328 -0.0162207 1.36736e-21)
(1.05657 0.199648 -7.75163e-21)
(0.962242 0.302665 4.39477e-21)
(0.938631 0.282433 5.66206e-20)
(0.901796 0.24127 1.48856e-20)
(0.884482 0.228414 5.17304e-20)
(0.881127 0.233851 3.08279e-20)
(0.859202 0.290875 7.1152e-20)
(0.858132 0.398123 -1.09529e-20)
(0.81027 0.613623 2.50637e-19)
(0.952496 -0.0196619 1.68558e-21)
(1.06105 0.207139 2.92668e-22)
(0.960031 0.315214 -1.94429e-21)
(0.933236 0.291895 1.54968e-20)
(0.900811 0.246275 -4.58263e-20)
(0.884899 0.231455 7.4253e-21)
(0.882644 0.237837 -6.95758e-21)
(0.867903 0.3027 -2.0817e-19)
(0.883097 0.420071 0)
(0.884627 0.667597 -2.82198e-20)
(0.951748 -0.0233335 -2.1622e-21)
(1.06677 0.21543 -3.79479e-21)
(0.957279 0.32875 1.42537e-21)
(0.933229 0.30033 -7.43409e-20)
(0.90525 0.249904 -1.69685e-20)
(0.887236 0.234301 -7.13055e-20)
(0.885814 0.241419 4.3324e-21)
(0.877361 0.314459 6.95728e-21)
(0.906688 0.436721 -3.5305e-21)
(0.971393 0.705315 8.7141e-19)
(0.950921 -0.0273169 -2.53099e-20)
(1.07268 0.224187 -8.06364e-21)
(0.957083 0.342666 1.38874e-20)
(0.941257 0.306135 3.7509e-20)
(0.914828 0.252434 -8.12882e-20)
(0.893254 0.237597 1.68933e-20)
(0.894869 0.244661 -3.59478e-21)
(0.890558 0.32627 1.93769e-20)
(0.937488 0.449413 1.41292e-19)
(1.08153 0.748989 -9.03004e-20)
(0.948598 -0.0312087 8.01867e-21)
(1.07815 0.232521 2.15555e-21)
(0.964211 0.35566 -6.17513e-21)
(0.956685 0.30964 9.19704e-20)
(0.931654 0.254556 7.77472e-21)
(0.910287 0.241824 2.52257e-20)
(0.918729 0.247108 -4.36653e-20)
(0.914311 0.336036 6.11974e-20)
(0.983161 0.448231 2.60216e-19)
(1.15407 0.765049 -6.44377e-19)
(0.942068 -0.0343771 1.15398e-20)
(1.08465 0.240933 2.56062e-20)
(0.980606 0.365884 1.13877e-21)
(0.982798 0.310938 -3.31323e-20)
(0.968149 0.255582 8.80672e-20)
(0.954272 0.245699 -3.27104e-20)
(0.967627 0.251548 -1.24725e-20)
(0.954878 0.352496 4.79695e-20)
(1.04222 0.471819 -8.97202e-20)
(1.29275 0.81672 3.98609e-19)
(0.926943 -0.0408615 -3.23685e-21)
(1.09601 0.244131 -1.42333e-20)
(1.01937 0.374973 -3.92437e-21)
(1.04758 0.314922 -5.62254e-20)
(1.06195 0.254729 -5.09918e-20)
(1.06506 0.2474 -4.15148e-20)
(1.07893 0.24957 9.33238e-21)
(1.06431 0.355733 -1.35795e-19)
(1.13321 0.410502 -4.3563e-19)
(1.32561 0.792129 -6.35867e-20)
(0.902939 -0.050212 -1.73017e-20)
(1.10478 0.228183 -1.77356e-20)
(1.09872 0.365073 1.03031e-22)
(1.17311 0.308061 -7.26288e-22)
(1.23073 0.242526 3.42466e-20)
(1.23042 0.246924 6.68445e-20)
(1.31336 0.237562 1.39361e-20)
(1.21648 0.357334 1.14092e-19)
(1.43756 0.374351 1.46276e-19)
(1.3541 0.693528 3.75942e-19)
(0.881791 -0.0541203 -3.24696e-21)
(1.10334 0.191807 -4.98175e-21)
(1.18082 0.329114 6.21439e-21)
(1.29936 0.283477 9.61513e-21)
(1.39817 0.22658 6.69147e-35)
(1.37994 0.22737 -5.89203e-21)
(1.56591 0.23517 -4.77573e-34)
(1.34081 0.33402 1.87531e-20)
(1.78451 0.345216 -5.25986e-20)
(1.47505 0.627943 -2.89623e-19)
(0.869241 -0.0539326 3.17554e-20)
(1.09374 0.137713 -4.48448e-35)
(1.23621 0.268883 -6.30062e-21)
(1.39144 0.243343 1.10633e-20)
(1.52136 0.205948 -1.08537e-20)
(1.49054 0.19396 -2.42293e-20)
(1.75201 0.232332 -5.81248e-34)
(1.47218 0.297921 -6.79185e-20)
(1.99364 0.313324 -1.24044e-19)
(1.70858 0.570539 3.11736e-19)
(0.868533 -0.0502857 0)
(1.0809 0.0750681 -9.92543e-35)
(1.25583 0.191919 0)
(1.44315 0.191794 0)
(1.58281 0.182464 0)
(1.5737 0.152759 0)
(1.827 0.219314 -4.05432e-34)
(1.61302 0.264413 0)
(2.05122 0.258841 -1.89812e-20)
(1.95094 0.498942 1.79692e-19)
(0.877941 -0.045333 4.20852e-21)
(1.07285 0.0144932 7.4132e-22)
(1.24945 0.106491 -6.95455e-21)
(1.45302 0.133043 0)
(1.59295 0.153055 0)
(1.62429 0.112408 6.30897e-21)
(1.81648 0.199222 3.81627e-20)
(1.73646 0.232057 -1.41552e-20)
(2.03912 0.191237 -2.84269e-20)
(2.10949 0.418098 1.21151e-19)
(0.89185 -0.0421251 -4.87035e-20)
(1.0744 -0.0443578 -4.68013e-21)
(1.21672 0.0221131 -7.62151e-21)
(1.41287 0.0746316 -2.29776e-20)
(1.54474 0.113593 -1.15106e-20)
(1.6198 0.0771944 -5.86812e-21)
(1.73743 0.168025 -3.1257e-20)
(1.81063 0.193526 -1.85099e-20)
(1.98257 0.132203 -7.01836e-20)
(2.15233 0.335241 1.23099e-19)
(0.903959 -0.0430498 -7.41357e-21)
(1.09868 -0.0856728 -1.68712e-20)
(1.13428 -0.0428282 -8.23852e-21)
(1.29391 0.0274666 -6.85287e-21)
(1.38852 0.0679733 5.50584e-35)
(1.51174 0.0478857 7.37527e-21)
(1.53378 0.121682 -8.15637e-34)
(1.78251 0.137396 -1.47174e-20)
(1.81049 0.0864165 1.89876e-20)
(2.0717 0.24972 2.3544e-20)
(0.914292 -0.0582662 1.34534e-19)
(1.07482 -0.104676 -6.46115e-21)
(0.932598 -0.074446 -9.57943e-21)
(1.01252 -0.0040981 1.24044e-20)
(1.05768 0.0245565 5.21108e-21)
(1.16712 0.0242496 1.22378e-20)
(1.16558 0.0657384 7.91075e-21)
(1.49575 0.0652218 -1.99439e-20)
(1.40737 0.0528922 -1.62146e-20)
(1.77857 0.138216 9.39641e-20)
(0.86034 -0.0414306 8.16332e-21)
(0.812956 -0.0650471 -7.43761e-35)
(0.466379 -0.0360832 -9.97145e-21)
(0.47537 -0.00104692 0)
(0.480208 0.0055005 0)
(0.534712 0.0090418 7.52419e-21)
(0.572559 0.016736 -9.42673e-36)
(0.766101 0.0189203 -1.49623e-20)
(0.733965 0.019406 -2.70204e-20)
(1.02537 0.042467 -3.6626e-20)
(1.56977 0.819797 1.58224e-19)
(1.68105 0.813478 -8.00918e-20)
(1.8041 0.794801 -3.09644e-21)
(1.919 0.767937 6.74035e-20)
(2.03314 0.729373 -2.6869e-19)
(2.14009 0.684567 -4.83085e-19)
(2.24152 0.629224 -2.39893e-19)
(2.33442 0.563316 2.28467e-19)