/*--------------------------------*- C++ -*----------------------------------*\
| =========                 |                                                 |
| \\      /  F ield         | OpenFOAM: The Open Source CFD Toolbox           |
|  \\    /   O peration     | Version:  2406                                  |
|   \\  /    A nd           | Website:  www.openfoam.com                      |
|    \\/     M anipulation  |                                                 |
\*---------------------------------------------------------------------------*/
FoamFile
{
    version     2.0;
    format      ascii;
    arch        "LSB;label=32;scalar=64";
    class       volVectorField;
    location    "1.75";
    object      flux;
}
// * * * * * * * * * * * * * * * * * * * * * * * * * * * * * * * * * * * * * //

dimensions      [0 1 -1 1 0 0 0];

internalField   nonuniform List<vector> 
2500
(
(0.000847704 0.000847704 0)
(0.00254004 0.000853398 0)
(0.00422831 0.000865003 0)
(0.00591163 0.000882385 0)
(0.00758559 0.000905576 0)
(0.00924731 0.000934606 0)
(0.0108937 0.000969503 0)
(0.0125216 0.0010103 0)
(0.0141274 0.00105702 0)
(0.0157074 0.0011097 0)
(0.0172575 0.00116836 0)
(0.0187734 0.00123303 0)
(0.0202503 0.00130371 0)
(0.0216834 0.00138041 0)
(0.0230672 0.0014631 0)
(0.0243961 0.00155177 0)
(0.0256643 0.00164635 0)
(0.0268654 0.00174676 0)
(0.027993 0.0018529 0)
(0.0290403 0.00196462 0)
(0.0300006 0.00208176 0)
(0.0308666 0.00220409 0)
(0.0316315 0.00233135 0)
(0.0322882 0.00246325 0)
(0.0328296 0.00259941 0)
(0.033249 0.00273943 0)
(0.0335398 0.00288285 0)
(0.0336959 0.00302916 0)
(0.0337116 0.00317777 0)
(0.0335818 0.00332807 0)
(0.033302 0.00347936 0)
(0.0328686 0.00363091 0)
(0.0322787 0.00378194 0)
(0.0315306 0.00393163 0)
(0.0306236 0.00407909 0)
(0.0295581 0.00422345 0)
(0.0283357 0.00436378 0)
(0.0269594 0.00449914 0)
(0.0254334 0.00462861 0)
(0.0237635 0.00475124 0)
(0.0219564 0.00486614 0)
(0.0200204 0.00497243 0)
(0.0179652 0.00506927 0)
(0.0158015 0.00515588 0)
(0.0135411 0.00523157 0)
(0.011197 0.00529572 0)
(0.00878297 0.0053478 0)
(0.00631346 0.00538738 0)
(0.00380373 0.00541395 0)
(0.00127038 0.00542608 0)
(0.000853398 0.00254004 0)
(0.00255734 0.00255734 0)
(0.0042573 0.0025921 0)
(0.0059522 0.00264423 0)
(0.00763781 0.0027138 0)
(0.00931124 0.00280089 0)
(0.0109694 0.0029056 0)
(0.0126091 0.003028 0)
(0.0142268 0.0031682 0)
(0.0158188 0.00332628 0)
(0.0173808 0.00350232 0)
(0.0189087 0.00369639 0)
(0.0203977 0.00390853 0)
(0.0218428 0.00413873 0)
(0.0232385 0.00438695 0)
(0.0245794 0.0046531 0)
(0.0258593 0.00493703 0)
(0.027072 0.00523849 0)
(0.0282109 0.00555717 0)
(0.0292692 0.00589266 0)
(0.03024 0.00624441 0)
(0.0311162 0.0066118 0)
(0.0318907 0.00699403 0)
(0.0325562 0.0073902 0)
(0.0331058 0.00779924 0)
(0.0335324 0.00821991 0)
(0.0338295 0.00865084 0)
(0.0339908 0.00909048 0)
(0.0340105 0.00953709 0)
(0.0338834 0.0099888 0)
(0.0336049 0.0104435 0)
(0.0331711 0.0108991 0)
(0.0325794 0.0113532 0)
(0.0318278 0.0118032 0)
(0.0309154 0.0122466 0)
(0.0298427 0.0126808 0)
(0.0286114 0.0131028 0)
(0.0272242 0.0135099 0)
(0.0256855 0.0138994 0)
(0.024001 0.0142683 0)
(0.0221775 0.014614 0)
(0.0202236 0.0149337 0)
(0.0181487 0.0152251 0)
(0.0159638 0.0154857 0)
(0.0136809 0.0157135 0)
(0.0113132 0.0159065 0)
(0.00887463 0.0160632 0)
(0.00637961 0.0161824 0)
(0.00384243 0.016263 0)
(0.00128252 0.0163019 0)
(0.000865003 0.00422831 0)
(0.0025921 0.0042573 0)
(0.00431521 0.00431521 0)
(0.00603333 0.00440212 0)
(0.00774225 0.00451815 0)
(0.00943911 0.00466341 0)
(0.0111209 0.00483805 0)
(0.0127842 0.00504223 0)
(0.0144257 0.00527612 0)
(0.0160415 0.00553985 0)
(0.0176276 0.00583358 0)
(0.0191796 0.00615741 0)
(0.0206926 0.00651142 0)
(0.0221618 0.00689561 0)
(0.0235816 0.00730993 0)
(0.0249462 0.00775424 0)
(0.0262497 0.00822828 0)
(0.0274856 0.00873166 0)
(0.0286472 0.00926387 0)
(0.0297276 0.00982423 0)
(0.0307197 0.0104119 0)
(0.0316163 0.0110257 0)
(0.0324099 0.0116644 0)
(0.0330934 0.0123266 0)
(0.0336593 0.0130103 0)
(0.0341006 0.0137137 0)
(0.0344104 0.0144343 0)
(0.0345822 0.0151696 0)
(0.0346099 0.0159168 0)
(0.0344883 0.0166726 0)
(0.0342123 0.0174336 0)
(0.0337782 0.0181962 0)
(0.0331828 0.0189563 0)
(0.0324241 0.0197099 0)
(0.0315011 0.0204525 0)
(0.0304142 0.0211797 0)
(0.0291648 0.0218868 0)
(0.027756 0.022569 0)
(0.0261918 0.0232216 0)
(0.024478 0.02384 0)
(0.0226218 0.0244195 0)
(0.0206316 0.0249556 0)
(0.0185172 0.0254442 0)
(0.0162898 0.0258812 0)
(0.0139619 0.0262631 0)
(0.0115467 0.0265867 0)
(0.00905885 0.0268494 0)
(0.00651328 0.0270489 0)
(0.00392332 0.0271837 0)
(0.00130934 0.027251 0)
(0.000882385 0.00591163 0)
(0.00264423 0.0059522 0)
(0.00440212 0.00603333 0)
(0.00615514 0.00615514 0)
(0.0078991 0.00631778 0)
(0.00963114 0.00652141 0)
(0.0113483 0.00676625 0)
(0.0130472 0.00705253 0)
(0.0147244 0.00738048 0)
(0.0163762 0.00775032 0)
(0.0179984 0.00816228 0)
(0.0195866 0.00861652 0)
(0.0211359 0.00911315 0)
(0.0226413 0.00965222 0)
(0.0240972 0.0102337 0)
(0.0254977 0.0108573 0)
(0.0268367 0.0115227 0)
(0.0281076 0.0122296 0)
(0.0293034 0.012977 0)
(0.0304172 0.0137642 0)
(0.0314415 0.0145898 0)
(0.0323688 0.0154525 0)
(0.0331916 0.0163504 0)
(0.0339021 0.0172814 0)
(0.0344929 0.0182431 0)
(0.0349564 0.0192325 0)
(0.0352855 0.0202466 0)
(0.0354733 0.0212816 0)
(0.0355135 0.0223336 0)
(0.0354002 0.023398 0)
(0.0351284 0.0244701 0)
(0.0346939 0.0255447 0)
(0.0340931 0.0266162 0)
(0.033324 0.0276787 0)
(0.0323852 0.028726 0)
(0.031277 0.0297518 0)
(0.0300006 0.0307495 0)
(0.0285591 0.0317124 0)
(0.0269566 0.0326338 0)
(0.0251988 0.0335069 0)
(0.0232932 0.0343254 0)
(0.0212483 0.0350827 0)
(0.0190743 0.035773 0)
(0.0167827 0.0363905 0)
(0.0143865 0.0369302 0)
(0.0118995 0.0373875 0)
(0.00933678 0.0377585 0)
(0.00671394 0.0380398 0)
(0.00404458 0.0382291 0)
(0.00134985 0.0383242 0)
(0.000905576 0.00758559 0)
(0.0027138 0.00763781 0)
(0.00451815 0.00774225 0)
(0.00631778 0.0078991 0)
(0.00810852 0.00810852 0)
(0.00988758 0.00837077 0)
(0.011652 0.00868612 0)
(0.0133984 0.00905487 0)
(0.0151235 0.00947735 0)
(0.0168233 0.00995388 0)
(0.0184938 0.0104847 0)
(0.0201304 0.0110702 0)
(0.0217283 0.0117104 0)
(0.0232823 0.0124055 0)
(0.0247866 0.0131554 0)
(0.0262353 0.0139598 0)
(0.027622 0.0148185 0)
(0.0289398 0.0157307 0)
(0.0301817 0.0166957 0)
(0.0313404 0.0177122 0)
(0.032408 0.0187787 0)
(0.0333768 0.0198935 0)
(0.0342389 0.0210541 0)
(0.0349861 0.022258 0)
(0.0356104 0.0235019 0)
(0.0361041 0.0247822 0)
(0.0364594 0.0260949 0)
(0.0366691 0.0274351 0)
(0.0367263 0.0287978 0)
(0.0366248 0.0301772 0)
(0.036359 0.031567 0)
(0.0359242 0.0329606 0)
(0.0353168 0.0343506 0)
(0.0345339 0.0357296 0)
(0.0335743 0.0370893 0)
(0.0324377 0.0384216 0)
(0.0311254 0.0397178 0)
(0.0296402 0.0409692 0)
(0.0279863 0.042167 0)
(0.0261696 0.0433025 0)
(0.0241976 0.0443672 0)
(0.0220792 0.0453526 0)
(0.019825 0.0462509 0)
(0.0174471 0.0470548 0)
(0.0149588 0.0477574 0)
(0.0123749 0.0483527 0)
(0.0097112 0.0488356 0)
(0.00698396 0.0492018 0)
(0.00420764 0.0494479 0)
(0.00140437 0.0495715 0)
(0.000934606 0.00924731 0)
(0.00280089 0.00931124 0)
(0.00466341 0.00943911 0)
(0.00652141 0.00963114 0)
(0.00837077 0.00988758 0)
(0.0102087 0.0102087 0)
(0.0120324 0.010595 0)
(0.0138384 0.0110467 0)
(0.0156235 0.0115643 0)
(0.0173836 0.0121482 0)
(0.0191147 0.0127988 0)
(0.0208122 0.0135165 0)
(0.0224712 0.0143015 0)
(0.0240862 0.015154 0)
(0.0256515 0.0160739 0)
(0.0271609 0.0170611 0)
(0.0286076 0.0181152 0)
(0.0299848 0.0192354 0)
(0.0312849 0.0204208 0)
(0.0325002 0.0216699 0)
(0.0336228 0.022981 0)
(0.0346442 0.0243519 0)
(0.0355561 0.0257799 0)
(0.0363499 0.0272616 0)
(0.0370172 0.0287934 0)
(0.0375494 0.0303707 0)
(0.0379384 0.0319885 0)
(0.0381762 0.0336411 0)
(0.0382555 0.0353221 0)
(0.0381694 0.0370245 0)
(0.0379118 0.0387407 0)
(0.0374775 0.0404623 0)
(0.0368621 0.0421803 0)
(0.0360627 0.0438854 0)
(0.0350772 0.0455676 0)
(0.0339054 0.0472165 0)
(0.0325482 0.0488215 0)
(0.0310083 0.0503716 0)
(0.0292899 0.051856 0)
(0.027399 0.0532637 0)
(0.0253432 0.054584 0)
(0.023132 0.0558064 0)
(0.0207765 0.0569212 0)
(0.0182892 0.057919 0)
(0.0156844 0.0587913 0)
(0.0129777 0.0595305 0)
(0.0101858 0.0601301 0)
(0.00732618 0.0605848 0)
(0.00441425 0.0608903 0)
(0.00147344 0.0610437 0)
(0.000969503 0.0108937 0)
(0.0029056 0.0109694 0)
(0.00483805 0.0111209 0)
(0.00676625 0.0113483 0)
(0.00868612 0.011652 0)
(0.010595 0.0120324 0)
(0.0124899 0.0124899 0)
(0.0143677 0.0130251 0)
(0.016225 0.0136385 0)
(0.0180579 0.0143306 0)
(0.0198621 0.0151019 0)
(0.0216331 0.0159531 0)
(0.0233658 0.0168843 0)
(0.0250547 0.0178958 0)
(0.0266938 0.0189878 0)
(0.0282766 0.02016 0)
(0.0297963 0.0214121 0)
(0.0312454 0.0227433 0)
(0.0326162 0.0241526 0)
(0.0339006 0.0256382 0)
(0.03509 0.0271984 0)
(0.0361757 0.0288304 0)
(0.0371486 0.0305312 0)
(0.0379996 0.032297 0)
(0.0387195 0.0341232 0)
(0.0392992 0.0360049 0)
(0.0397298 0.0379359 0)
(0.0400028 0.0399095 0)
(0.0401098 0.0419183 0)
(0.0400434 0.0439538 0)
(0.0397967 0.0460068 0)
(0.0393639 0.0480675 0)
(0.0387399 0.0501252 0)
(0.0379212 0.0521685 0)
(0.0369054 0.0541855 0)
(0.0356916 0.0561636 0)
(0.0342805 0.0580901 0)
(0.0326747 0.0599517 0)
(0.0308784 0.0617352 0)
(0.0288976 0.0634273 0)
(0.0267403 0.0650151 0)
(0.0244164 0.0664858 0)
(0.0219375 0.0678274 0)
(0.0193171 0.0690286 0)
(0.0165704 0.0700791 0)
(0.0137138 0.0709695 0)
(0.0107655 0.0716918 0)
(0.00774411 0.0722396 0)
(0.00466656 0.0726076 0)
(0.0015578 0.0727925 0)
(0.0010103 0.0125216 0)
(0.003028 0.0126091 0)
(0.00504223 0.0127842 0)
(0.00705253 0.0130472 0)
(0.00905487 0.0133984 0)
(0.0110467 0.0138384 0)
(0.0130251 0.0143677 0)
(0.014987 0.014987 0)
(0.0169289 0.0156969 0)
(0.0188471 0.0164981 0)
(0.0207372 0.0173913 0)
(0.0225945 0.0183772 0)
(0.0244139 0.0194562 0)
(0.0261897 0.0206287 0)
(0.0279157 0.0218949 0)
(0.0295852 0.0232548 0)
(0.0311909 0.0247079 0)
(0.0327252 0.0262536 0)
(0.0341798 0.0278906 0)
(0.035546 0.0296173 0)
(0.0368149 0.0314316 0)
(0.037977 0.0333306 0)
(0.0390226 0.0353106 0)
(0.039942 0.0373676 0)
(0.0407251 0.0394964 0)
(0.041362 0.0416911 0)
(0.041843 0.0439448 0)
(0.0421586 0.0462498 0)
(0.0422997 0.0485973 0)
(0.042258 0.0509776 0)
(0.0420256 0.0533802 0)
(0.0415959 0.0557933 0)
(0.0409631 0.0582045 0)
(0.0401229 0.0606004 0)
(0.0390723 0.062967 0)
(0.03781 0.0652896 0)
(0.0363363 0.0675528 0)
(0.0346534 0.0697412 0)
(0.0327655 0.071839 0)
(0.0306788 0.0738304 0)
(0.0284017 0.0756999 0)
(0.0259444 0.0774325 0)
(0.0233193 0.0790137 0)
(0.0205409 0.0804299 0)
(0.0176253 0.0816688 0)
(0.0145905 0.0827192 0)
(0.011456 0.0835716 0)
(0.00824201 0.0842181 0)
(0.00496717 0.0846525 0)
(0.0016583 0.0848707 0)
(0.00105702 0.0141274 0)
(0.0031682 0.0142268 0)
(0.00527612 0.0144257 0)
(0.00738048 0.0147244 0)
(0.00947735 0.0151235 0)
(0.0115643 0.0156235 0)
(0.0136385 0.016225 0)
(0.0156969 0.0169289 0)
(0.0177361 0.0177361 0)
(0.0197523 0.0186474 0)
(0.0217412 0.0196636 0)
(0.023698 0.0207856 0)
(0.0256173 0.0220141 0)
(0.0274934 0.0233496 0)
(0.0293199 0.0247925 0)
(0.0310896 0.0263429 0)
(0.0327951 0.0280004 0)
(0.0344281 0.0297644 0)
(0.03598 0.0316337 0)
(0.0374416 0.0336066 0)
(0.0388032 0.0356808 0)
(0.0400547 0.0378532 0)
(0.0411856 0.0401199 0)
(0.0421853 0.0424763 0)
(0.0430429 0.0449166 0)
(0.0437476 0.0474343 0)
(0.0442885 0.0500216 0)
(0.0446553 0.0526698 0)
(0.0448377 0.0553689 0)
(0.0448263 0.0581079 0)
(0.0446124 0.0608745 0)
(0.0441882 0.0636555 0)
(0.0435471 0.0664365 0)
(0.0426837 0.0692019 0)
(0.0415945 0.0719356 0)
(0.0402773 0.0746203 0)
(0.0387322 0.0772385 0)
(0.0369609 0.0797717 0)
(0.0349676 0.0822018 0)
(0.0327585 0.0845101 0)
(0.0303424 0.0866784 0)
(0.0277301 0.0886889 0)
(0.024935 0.0905247 0)
(0.0219723 0.0921698 0)
(0.0188597 0.0936095 0)
(0.0156167 0.0948305 0)
(0.0122643 0.0958217 0)
(0.008825 0.0965735 0)
(0.0053192 0.0970789 0)
(0.001776 0.0973327 0)
(0.0011097 0.0157074 0)
(0.00332628 0.0158188 0)
(0.00553985 0.0160415 0)
(0.00775032 0.0163762 0)
(0.00995388 0.0168233 0)
(0.0121482 0.0173836 0)
(0.0143306 0.0180579 0)
(0.0164981 0.0188471 0)
(0.0186474 0.0197523 0)
(0.0207746 0.0207746 0)
(0.0228754 0.0219151 0)
(0.024945 0.0231747 0)
(0.026978 0.0245545 0)
(0.0289681 0.0260552 0)
(0.0309089 0.0276773 0)
(0.032793 0.0294212 0)
(0.0346124 0.0312866 0)
(0.0363585 0.0332732 0)
(0.038022 0.0353796 0)
(0.0395932 0.0376043 0)
(0.0410615 0.0399448 0)
(0.0424161 0.0423979 0)
(0.0436457 0.0449594 0)
(0.0447387 0.0476242 0)
(0.0456831 0.0503863 0)
(0.046467 0.0532382 0)
(0.0470785 0.0561715 0)
(0.0475059 0.0591763 0)
(0.0477379 0.0622416 0)
(0.0477636 0.0653548 0)
(0.0475733 0.0685023 0)
(0.0471578 0.0716689 0)
(0.0465095 0.0748383 0)
(0.045622 0.0779927 0)
(0.0444908 0.0811136 0)
(0.0431129 0.0841812 0)
(0.0414877 0.0871752 0)
(0.0396167 0.0900745 0)
(0.0375038 0.0928577 0)
(0.0351554 0.0955034 0)
(0.0325805 0.0979904 0)
(0.0297907 0.100298 0)
(0.0268002 0.102406 0)
(0.0236256 0.104296 0)
(0.020286 0.105951 0)
(0.0168027 0.107355 0)
(0.013199 0.108496 0)
(0.00949917 0.109361 0)
(0.00572634 0.109942 0)
(0.00191213 0.110234 0)
(0.00116836 0.0172575 0)
(0.00350232 0.0173808 0)
(0.00583358 0.0176276 0)
(0.00816228 0.0179984 0)
(0.0104847 0.0184938 0)
(0.0127988 0.0191147 0)
(0.0151019 0.0198621 0)
(0.0173913 0.0207372 0)
(0.0196636 0.0217412 0)
(0.0219151 0.0228754 0)
(0.0241413 0.0241413 0)
(0.0263374 0.02554 0)
(0.0284978 0.0270729 0)
(0.0306163 0.028741 0)
(0.0326859 0.0305451 0)
(0.0346989 0.0324857 0)
(0.036647 0.0345629 0)
(0.0385211 0.0367764 0)
(0.0403112 0.0391252 0)
(0.0420068 0.0416076 0)
(0.0435968 0.0442213 0)
(0.0450693 0.0469629 0)
(0.046412 0.0498281 0)
(0.0476122 0.0528115 0)
(0.0486569 0.0559065 0)
(0.0495328 0.0591051 0)
(0.0502266 0.062398 0)
(0.0507254 0.0657744 0)
(0.0510163 0.0692222 0)
(0.0510871 0.0727273 0)
(0.0509265 0.0762745 0)
(0.0505241 0.0798468 0)
(0.0498708 0.0834257 0)
(0.048959 0.0869914 0)
(0.047783 0.0905224 0)
(0.0463389 0.0939966 0)
(0.0446254 0.0973906 0)
(0.0426434 0.10068 0)
(0.0403965 0.103841 0)
(0.0378913 0.106848 0)
(0.0351369 0.109676 0)
(0.0321459 0.112303 0)
(0.0289333 0.114704 0)
(0.0255174 0.116858 0)
(0.0219188 0.118746 0)
(0.018161 0.120347 0)
(0.0142696 0.121649 0)
(0.0102717 0.122636 0)
(0.00619292 0.1233 0)
(0.00206816 0.123634 0)
(0.00123303 0.0187734 0)
(0.00369639 0.0189087 0)
(0.00615741 0.0191796 0)
(0.00861652 0.0195866 0)
(0.0110702 0.0201304 0)
(0.0135165 0.0208122 0)
(0.0159531 0.0216331 0)
(0.0183772 0.0225945 0)
(0.0207856 0.023698 0)
(0.0231747 0.024945 0)
(0.02554 0.0263374 0)
(0.0278767 0.0278767 0)
(0.0301789 0.0295644 0)
(0.0324403 0.0314021 0)
(0.0346536 0.0333908 0)
(0.0368108 0.0355314 0)
(0.0389031 0.0378242 0)
(0.0409208 0.0402693 0)
(0.0428533 0.0428659 0)
(0.0446893 0.0456124 0)
(0.0464168 0.0485067 0)
(0.0480229 0.0515452 0)
(0.0494943 0.0547237 0)
(0.050817 0.0580365 0)
(0.0519766 0.0614765 0)
(0.0529585 0.0650353 0)
(0.0537479 0.0687029 0)
(0.0543301 0.0724675 0)
(0.0546908 0.0763157 0)
(0.054816 0.0802324 0)
(0.0546928 0.0842004 0)
(0.054309 0.0882008 0)
(0.053654 0.0922131 0)
(0.0527187 0.096215 0)
(0.051496 0.100182 0)
(0.049981 0.10409 0)
(0.0481712 0.107911 0)
(0.0460669 0.111619 0)
(0.0436714 0.115185 0)
(0.0409911 0.11858 0)
(0.0380358 0.121777 0)
(0.0348185 0.124748 0)
(0.0313556 0.127466 0)
(0.0276669 0.129907 0)
(0.023775 0.132046 0)
(0.0197059 0.133862 0)
(0.0154877 0.135338 0)
(0.0111508 0.136459 0)
(0.00672401 0.137213 0)
(0.00224577 0.137592 0)
(0.00130371 0.0202503 0)
(0.00390853 0.0203977 0)
(0.00651142 0.0206926 0)
(0.00911315 0.0211359 0)
(0.0117104 0.0217283 0)
(0.0143015 0.0224712 0)
(0.0168843 0.0233658 0)
(0.0194562 0.0244139 0)
(0.0220141 0.0256173 0)
(0.0245545 0.026978 0)
(0.0270729 0.0284978 0)
(0.0295644 0.0301789 0)
(0.0320232 0.0320232 0)
(0.0344426 0.0340325 0)
(0.0368151 0.0362085 0)
(0.0391324 0.0385523 0)
(0.041385 0.0410647 0)
(0.0435627 0.0437461 0)
(0.0456543 0.046596 0)
(0.0476476 0.0496132 0)
(0.0495296 0.0527956 0)
(0.0512863 0.0561399 0)
(0.0529033 0.0596418 0)
(0.054365 0.0632955 0)
(0.0556557 0.0670937 0)
(0.0567591 0.0710273 0)
(0.0576588 0.0750859 0)
(0.0583382 0.0792567 0)
(0.0587811 0.0835253 0)
(0.0589717 0.0878749 0)
(0.058895 0.092287 0)
(0.0585369 0.0967406 0)
(0.0578849 0.101213 0)
(0.0569282 0.105679 0)
(0.055658 0.110112 0)
(0.0540679 0.114483 0)
(0.0521544 0.118763 0)
(0.0499167 0.12292 0)
(0.0473578 0.126923 0)
(0.0444839 0.130738 0)
(0.041305 0.134334 0)
(0.0378351 0.137679 0)
(0.0340917 0.140742 0)
(0.0300964 0.143493 0)
(0.0258743 0.145906 0)
(0.0214539 0.147957 0)
(0.0168666 0.149625 0)
(0.0121463 0.150891 0)
(0.00732551 0.151743 0)
(0.00244695 0.152172 0)
(0.00138041 0.0216834 0)
(0.00413873 0.0218428 0)
(0.00689561 0.0221618 0)
(0.00965222 0.0226413 0)
(0.0124055 0.0232823 0)
(0.015154 0.0240862 0)
(0.0178958 0.0250547 0)
(0.0206287 0.0261897 0)
(0.0233496 0.0274934 0)
(0.0260552 0.0289681 0)
(0.028741 0.0306163 0)
(0.0314021 0.0324403 0)
(0.0340325 0.0344426 0)
(0.0366255 0.0366255 0)
(0.0391733 0.0389912 0)
(0.0416671 0.0415412 0)
(0.0440969 0.0442771 0)
(0.046452 0.0471994 0)
(0.0487204 0.0503082 0)
(0.0508889 0.0536027 0)
(0.0529436 0.0570811 0)
(0.0548692 0.0607404 0)
(0.0566499 0.0645764 0)
(0.0582688 0.0685831 0)
(0.0597085 0.0727532 0)
(0.0609507 0.0770774 0)
(0.0619772 0.0815445 0)
(0.0627695 0.086141 0)
(0.063309 0.0908513 0)
(0.0635777 0.0956575 0)
(0.0635585 0.100539 0)
(0.063235 0.105474 0)
(0.0625924 0.110435 0)
(0.0616178 0.115397 0)
(0.0603005 0.120328 0)
(0.0586323 0.125198 0)
(0.0566082 0.129971 0)
(0.0542265 0.134613 0)
(0.0514892 0.139088 0)
(0.0484024 0.143359 0)
(0.0449764 0.147389 0)
(0.0412259 0.151141 0)
(0.0371698 0.154579 0)
(0.0328318 0.157671 0)
(0.0282394 0.160385 0)
(0.0234243 0.162693 0)
(0.0184217 0.164571 0)
(0.0132693 0.165997 0)
(0.00800423 0.166957 0)
(0.00267398 0.16744 0)
(0.0014631 0.0230672 0)
(0.00438695 0.0232385 0)
(0.00730993 0.0235816 0)
(0.0102337 0.0240972 0)
(0.0131554 0.0247866 0)
(0.0160739 0.0256515 0)
(0.0189878 0.0266938 0)
(0.0218949 0.0279157 0)
(0.0247925 0.0293199 0)
(0.0276773 0.0309089 0)
(0.0305451 0.0326859 0)
(0.0333908 0.0346536 0)
(0.0362085 0.0368151 0)
(0.0389912 0.0391733 0)
(0.0417308 0.0417308 0)
(0.0444183 0.04449 0)
(0.0470431 0.0474528 0)
(0.0495938 0.0506205 0)
(0.0520576 0.0539937 0)
(0.0544205 0.0575722 0)
(0.0566673 0.0613545 0)
(0.0587816 0.0653382 0)
(0.0607459 0.069519 0)
(0.0625419 0.0738915 0)
(0.06415 0.078448 0)
(0.0655504 0.0831792 0)
(0.0667223 0.0880734 0)
(0.0676451 0.0931164 0)
(0.0682977 0.0982917 0)
(0.0686597 0.10358 0)
(0.0687111 0.108959 0)
(0.068433 0.114405 0)
(0.0678082 0.119888 0)
(0.0668211 0.12538 0)
(0.0654587 0.130846 0)
(0.0637107 0.136251 0)
(0.0615702 0.141558 0)
(0.0590342 0.146726 0)
(0.0561037 0.151714 0)
(0.0527843 0.15648 0)
(0.0490864 0.160983 0)
(0.0450256 0.165181 0)
(0.0406224 0.169032 0)
(0.0359025 0.172498 0)
(0.0308964 0.175542 0)
(0.0256394 0.178134 0)
(0.0201706 0.180243 0)
(0.0145328 0.181846 0)
(0.00876808 0.182925 0)
(0.00292953 0.183468 0)
(0.00155177 0.0243961 0)
(0.0046531 0.0245794 0)
(0.00775424 0.0249462 0)
(0.0108573 0.0254977 0)
(0.0139598 0.0262353 0)
(0.0170611 0.0271609 0)
(0.02016 0.0282766 0)
(0.0232548 0.0295852 0)
(0.0263429 0.0310896 0)
(0.0294212 0.032793 0)
(0.0324857 0.0346989 0)
(0.0355314 0.0368108 0)
(0.0385523 0.0391324 0)
(0.0415412 0.0416671 0)
(0.04449 0.0444183 0)
(0.047389 0.047389 0)
(0.0502274 0.050582 0)
(0.052993 0.0539993 0)
(0.0556721 0.0576422 0)
(0.0582497 0.061511 0)
(0.0607095 0.065605 0)
(0.0630337 0.0699223 0)
(0.0652032 0.0744591 0)
(0.0671979 0.0792102 0)
(0.0689962 0.0841682 0)
(0.0705761 0.0893237 0)
(0.0719144 0.0946645 0)
(0.0729878 0.100176 0)
(0.0737726 0.105841 0)
(0.0742453 0.111639 0)
(0.074383 0.117546 0)
(0.0741639 0.123535 0)
(0.0735676 0.129576 0)
(0.0725755 0.135636 0)
(0.0711719 0.141678 0)
(0.069344 0.147661 0)
(0.0670825 0.153545 0)
(0.0643827 0.159283 0)
(0.0612442 0.164831 0)
(0.057672 0.170139 0)
(0.0536766 0.17516 0)
(0.0492741 0.179847 0)
(0.0444868 0.184152 0)
(0.0393427 0.18803 0)
(0.0338755 0.19144 0)
(0.0281246 0.194345 0)
(0.0221341 0.196711 0)
(0.0159519 0.19851 0)
(0.00962623 0.199722 0)
(0.00321667 0.200331 0)
(0.00164635 0.0256643 0)
(0.00493703 0.0258593 0)
(0.00822828 0.0262497 0)
(0.0115227 0.0268367 0)
(0.0148185 0.027622 0)
(0.0181152 0.0286076 0)
(0.0214121 0.0297963 0)
(0.0247079 0.0311909 0)
(0.0280004 0.0327951 0)
(0.0312866 0.0346124 0)
(0.0345629 0.036647 0)
(0.0378242 0.0389031 0)
(0.0410647 0.041385 0)
(0.0442771 0.0440969 0)
(0.0474528 0.0470431 0)
(0.050582 0.0502274 0)
(0.0536534 0.0536534 0)
(0.056654 0.0573239 0)
(0.0595693 0.0612412 0)
(0.0623834 0.0654064 0)
(0.0650786 0.0698197 0)
(0.0676357 0.0744797 0)
(0.0700339 0.0793835 0)
(0.072251 0.0845263 0)
(0.0742635 0.0899011 0)
(0.0760467 0.0954986 0)
(0.0775749 0.101307 0)
(0.0788217 0.10731 0)
(0.0797605 0.113491 0)
(0.0803645 0.119828 0)
(0.0806072 0.126295 0)
(0.0804634 0.132864 0)
(0.0799091 0.139501 0)
(0.0789223 0.146171 0)
(0.0774838 0.152832 0)
(0.0755778 0.159442 0)
(0.0731923 0.165951 0)
(0.0703201 0.172311 0)
(0.0669594 0.17847 0)
(0.063114 0.184372 0)
(0.0587942 0.189963 0)
(0.0540168 0.195188 0)
(0.0488057 0.199995 0)
(0.0431914 0.20433 0)
(0.0372115 0.208146 0)
(0.0309098 0.211399 0)
(0.0243358 0.21405 0)
(0.017544 0.216068 0)
(0.0105893 0.217428 0)
(0.00353896 0.218111 0)
(0.00174676 0.0268654 0)
(0.00523849 0.027072 0)
(0.00873166 0.0274856 0)
(0.0122296 0.0281076 0)
(0.0157307 0.0289398 0)
(0.0192354 0.0299848 0)
(0.0227433 0.0312454 0)
(0.0262536 0.0327252 0)
(0.0297644 0.0344281 0)
(0.0332732 0.0363585 0)
(0.0367764 0.0385211 0)
(0.0402693 0.0409208 0)
(0.0437461 0.0435627 0)
(0.0471994 0.046452 0)
(0.0506205 0.0495938 0)
(0.0539993 0.052993 0)
(0.0573239 0.056654 0)
(0.0605808 0.0605808 0)
(0.0637546 0.0647766 0)
(0.0668282 0.0692437 0)
(0.0697828 0.0739832 0)
(0.0725975 0.0789948 0)
(0.0752498 0.0842763 0)
(0.0777155 0.0898237 0)
(0.0799685 0.0956307 0)
(0.0819815 0.101688 0)
(0.083726 0.107984 0)
(0.0851723 0.114504 0)
(0.0862902 0.121229 0)
(0.0870492 0.128135 0)
(0.0874191 0.135198 0)
(0.0873703 0.142385 0)
(0.0868748 0.149661 0)
(0.0859066 0.156986 0)
(0.0844425 0.164317 0)
(0.0824628 0.171604 0)
(0.0799523 0.178795 0)
(0.0769009 0.185833 0)
(0.0733044 0.19266 0)
(0.0691653 0.199215 0)
(0.0644933 0.205435 0)
(0.0593057 0.211256 0)
(0.0536281 0.216618 0)
(0.0474939 0.221461 0)
(0.0409445 0.225729 0)
(0.0340291 0.229371 0)
(0.0268035 0.232341 0)
(0.0193293 0.234604 0)
(0.0116696 0.236129 0)
(0.00390057 0.236896 0)
(0.0018529 0.027993 0)
(0.00555717 0.0282109 0)
(0.00926387 0.0286472 0)
(0.012977 0.0293034 0)
(0.0166957 0.0301817 0)
(0.0204208 0.0312849 0)
(0.0241526 0.0326162 0)
(0.0278906 0.0341798 0)
(0.0316337 0.03598 0)
(0.0353796 0.038022 0)
(0.0391252 0.0403112 0)
(0.0428659 0.0428533 0)
(0.046596 0.0456543 0)
(0.0503082 0.0487204 0)
(0.0539937 0.0520576 0)
(0.0576422 0.0556721 0)
(0.0612412 0.0595693 0)
(0.0647766 0.0637546 0)
(0.0682323 0.0682323 0)
(0.07159 0.0730059 0)
(0.0748297 0.0780779 0)
(0.0779287 0.0834491 0)
(0.0808628 0.0891185 0)
(0.0836054 0.0950831 0)
(0.086128 0.101338 0)
(0.0884005 0.107873 0)
(0.0903908 0.114679 0)
(0.092066 0.12174 0)
(0.0933918 0.129037 0)
(0.0943335 0.136547 0)
(0.0948564 0.144241 0)
(0.0949265 0.152087 0)
(0.0945107 0.160048 0)
(0.0935783 0.168079 0)
(0.0921013 0.176132 0)
(0.0900556 0.184155 0)
(0.0874217 0.192088 0)
(0.084186 0.199869 0)
(0.0803413 0.207431 0)
(0.0758882 0.214705 0)
(0.0708353 0.221619 0)
(0.0652005 0.228102 0)
(0.0590105 0.234083 0)
(0.0523021 0.239492 0)
(0.045121 0.244265 0)
(0.0375222 0.248342 0)
(0.029569 0.251671 0)
(0.0213313 0.254209 0)
(0.0128816 0.25592 0)
(0.00430632 0.256781 0)
(0.00196462 0.0290403 0)
(0.00589266 0.0292692 0)
(0.00982423 0.0297276 0)
(0.0137642 0.0304172 0)
(0.0177122 0.0313404 0)
(0.0216699 0.0325002 0)
(0.0256382 0.0339006 0)
(0.0296173 0.035546 0)
(0.0336066 0.0374416 0)
(0.0376043 0.0395932 0)
(0.0416076 0.0420068 0)
(0.0456124 0.0446893 0)
(0.0496132 0.0476476 0)
(0.0536027 0.0508889 0)
(0.0575722 0.0544205 0)
(0.061511 0.0582497 0)
(0.0654064 0.0623834 0)
(0.0692437 0.0668282 0)
(0.0730059 0.07159 0)
(0.0766739 0.0766739 0)
(0.0802259 0.0820836 0)
(0.0836381 0.0878215 0)
(0.0868839 0.0938881 0)
(0.0899345 0.100282 0)
(0.0927588 0.106998 0)
(0.0953233 0.114031 0)
(0.0975928 0.121368 0)
(0.09953 0.128995 0)
(0.101097 0.136894 0)
(0.102253 0.145041 0)
(0.10296 0.153406 0)
(0.103177 0.161956 0)
(0.102866 0.17065 0)
(0.101992 0.179441 0)
(0.100519 0.188277 0)
(0.0984185 0.197099 0)
(0.0956662 0.205842 0)
(0.0922437 0.214436 0)
(0.0881403 0.222807 0)
(0.0833535 0.230876 0)
(0.0778907 0.238561 0)
(0.0717693 0.24578 0)
(0.0650179 0.252451 0)
(0.0576761 0.258494 0)
(0.0497948 0.263834 0)
(0.0414355 0.268402 0)
(0.0326698 0.272135 0)
(0.0235775 0.274982 0)
(0.0142419 0.276903 0)
(0.00476185 0.277871 0)
(0.00208176 0.0300006 0)
(0.00624441 0.03024 0)
(0.0104119 0.0307197 0)
(0.0145898 0.0314415 0)
(0.0187787 0.032408 0)
(0.022981 0.0336228 0)
(0.0271984 0.03509 0)
(0.0314316 0.0368149 0)
(0.0356808 0.0388032 0)
(0.0399448 0.0410615 0)
(0.0442213 0.0435968 0)
(0.0485067 0.0464168 0)
(0.0527956 0.0495296 0)
(0.0570811 0.0529436 0)
(0.0613545 0.0566673 0)
(0.065605 0.0607095 0)
(0.0698197 0.0650786 0)
(0.0739832 0.0697828 0)
(0.0780779 0.0748297 0)
(0.0820836 0.0802259 0)
(0.0859773 0.0859773 0)
(0.0897333 0.0920878 0)
(0.0933232 0.0985598 0)
(0.0967157 0.105393 0)
(0.0998768 0.112586 0)
(0.10277 0.120132 0)
(0.105355 0.128021 0)
(0.107592 0.136241 0)
(0.109437 0.144772 0)
(0.110846 0.153591 0)
(0.111772 0.162669 0)
(0.11217 0.171969 0)
(0.111996 0.181448 0)
(0.111205 0.191058 0)
(0.109759 0.200741 0)
(0.107621 0.210432 0)
(0.104759 0.220061 0)
(0.101151 0.229549 0)
(0.0967806 0.238812 0)
(0.0916418 0.247761 0)
(0.0857395 0.256303 0)
(0.0790907 0.264344 0)
(0.0717251 0.271789 0)
(0.0636856 0.278545 0)
(0.0550284 0.284524 0)
(0.0458227 0.289645 0)
(0.0361494 0.293835 0)
(0.0260999 0.297034 0)
(0.0157703 0.299194 0)
(0.0052738 0.300282 0)
(0.00220409 0.0308666 0)
(0.0066118 0.0311162 0)
(0.0110257 0.0316163 0)
(0.0154525 0.0323688 0)
(0.0198935 0.0333768 0)
(0.0243519 0.0346442 0)
(0.0288304 0.0361757 0)
(0.0333306 0.037977 0)
(0.0378532 0.0400547 0)
(0.0423979 0.0424161 0)
(0.0469629 0.0450693 0)
(0.0515452 0.0480229 0)
(0.0561399 0.0512863 0)
(0.0607404 0.0548692 0)
(0.0653382 0.0587816 0)
(0.0699223 0.0630337 0)
(0.0744797 0.0676357 0)
(0.0789948 0.0725975 0)
(0.0834491 0.0779287 0)
(0.0878215 0.0836381 0)
(0.0920878 0.0897333 0)
(0.0962206 0.0962206 0)
(0.10019 0.103105 0)
(0.103961 0.110387 0)
(0.107497 0.118069 0)
(0.110759 0.126144 0)
(0.113702 0.134607 0)
(0.116281 0.143444 0)
(0.118447 0.152638 0)
(0.12015 0.162166 0)
(0.121337 0.171998 0)
(0.121957 0.182097 0)
(0.121956 0.192418 0)
(0.121284 0.20291 0)
(0.119893 0.21351 0)
(0.117739 0.224148 0)
(0.114783 0.234745 0)
(0.110994 0.245216 0)
(0.106352 0.255465 0)
(0.100845 0.265391 0)
(0.0944738 0.274889 0)
(0.087255 0.28385 0)
(0.0792189 0.292165 0)
(0.0704115 0.299725 0)
(0.0608949 0.306427 0)
(0.0507467 0.312176 0)
(0.040059 0.316887 0)
(0.0289363 0.320486 0)
(0.01749 0.322918 0)
(0.00584996 0.324144 0)
(0.00233135 0.0316315 0)
(0.00699403 0.0318907 0)
(0.0116644 0.0324099 0)
(0.0163504 0.0331916 0)
(0.0210541 0.0342389 0)
(0.0257799 0.0355561 0)
(0.0305312 0.0371486 0)
(0.0353106 0.0390226 0)
(0.0401199 0.0411856 0)
(0.0449594 0.0436457 0)
(0.0498281 0.046412 0)
(0.0547237 0.0494943 0)
(0.0596418 0.0529033 0)
(0.0645764 0.0566499 0)
(0.069519 0.0607459 0)
(0.0744591 0.0652032 0)
(0.0793835 0.0700339 0)
(0.0842763 0.0752498 0)
(0.0891185 0.0808628 0)
(0.0938881 0.0868839 0)
(0.0985598 0.0933232 0)
(0.103105 0.10019 0)
(0.10749 0.10749 0)
(0.11168 0.115229 0)
(0.115634 0.12341 0)
(0.119308 0.13203 0)
(0.122655 0.141085 0)
(0.125623 0.150563 0)
(0.128159 0.16045 0)
(0.130205 0.170724 0)
(0.131703 0.181354 0)
(0.132591 0.192303 0)
(0.132809 0.203526 0)
(0.132297 0.214967 0)
(0.130997 0.22656 0)
(0.128856 0.238229 0)
(0.125827 0.249888 0)
(0.12187 0.26144 0)
(0.116956 0.272781 0)
(0.111066 0.283795 0)
(0.104199 0.294362 0)
(0.0963665 0.304357 0)
(0.0875998 0.313653 0)
(0.0779481 0.322123 0)
(0.0674797 0.329647 0)
(0.0562818 0.336112 0)
(0.044459 0.341416 0)
(0.0321314 0.345473 0)
(0.0194282 0.348217 0)
(0.00649956 0.349601 0)
(0.00246325 0.0322882 0)
(0.0073902 0.0325562 0)
(0.0123266 0.0330934 0)
(0.0172814 0.0339021 0)
(0.022258 0.0349861 0)
(0.0272616 0.0363499 0)
(0.032297 0.0379996 0)
(0.0373676 0.039942 0)
(0.0424763 0.0421853 0)
(0.0476242 0.0447387 0)
(0.0528115 0.0476122 0)
(0.0580365 0.050817 0)
(0.0632955 0.054365 0)
(0.0685831 0.0582688 0)
(0.0738915 0.0625419 0)
(0.0792102 0.0671979 0)
(0.0845263 0.072251 0)
(0.0898237 0.0777155 0)
(0.0950831 0.0836054 0)
(0.100282 0.0899345 0)
(0.105393 0.0967157 0)
(0.110387 0.103961 0)
(0.115229 0.11168 0)
(0.119881 0.119881 0)
(0.124298 0.128569 0)
(0.128433 0.137746 0)
(0.132235 0.14741 0)
(0.135647 0.157553 0)
(0.138607 0.168162 0)
(0.141053 0.179217 0)
(0.142917 0.190689 0)
(0.144129 0.202542 0)
(0.144619 0.214728 0)
(0.144317 0.22719 0)
(0.143155 0.239858 0)
(0.141067 0.25265 0)
(0.137994 0.265473 0)
(0.133888 0.278218 0)
(0.128707 0.29077 0)
(0.122426 0.302997 0)
(0.115036 0.314763 0)
(0.106546 0.325922 0)
(0.0969849 0.336328 0)
(0.0864058 0.345833 0)
(0.0748833 0.354295 0)
(0.0625151 0.361578 0)
(0.0494205 0.367563 0)
(0.0357379 0.372148 0)
(0.0216175 0.375251 0)
(0.00723359 0.376816 0)
(0.00259941 0.0328296 0)
(0.00779924 0.0331058 0)
(0.0130103 0.0336593 0)
(0.0182431 0.0344929 0)
(0.0235019 0.0356104 0)
(0.0287934 0.0370172 0)
(0.0341232 0.0387195 0)
(0.0394964 0.0407251 0)
(0.0449166 0.0430429 0)
(0.0503863 0.0456831 0)
(0.0559065 0.0486569 0)
(0.0614765 0.0519766 0)
(0.0670937 0.0556557 0)
(0.0727532 0.0597085 0)
(0.078448 0.06415 0)
(0.0841682 0.0689962 0)
(0.0899011 0.0742635 0)
(0.0956307 0.0799685 0)
(0.101338 0.086128 0)
(0.106998 0.0927588 0)
(0.112586 0.0998768 0)
(0.118069 0.107497 0)
(0.12341 0.115634 0)
(0.128569 0.124298 0)
(0.133499 0.133499 0)
(0.138149 0.143243 0)
(0.142462 0.153531 0)
(0.146376 0.164359 0)
(0.149823 0.175717 0)