/*--------------------------------*- C++ -*----------------------------------*\
| =========                 |                                                 |
| \\      /  F ield         | OpenFOAM: The Open Source CFD Toolbox           |
|  \\    /   O peration     | Version:  2406                                  |
|   \\  /    A nd           | Website:  www.openfoam.com                      |
|    \\/     M anipulation  |                                                 |
\*---------------------------------------------------------------------------*/
FoamFile
{
    version     2.0;
    format      ascii;
    arch        "LSB;label=32;scalar=64";
    class       volScalarField;
    location    "1.75";
    object      gradTx;
}
// * * * * * * * * * * * * * * * * * * * * * * * * * * * * * * * * * * * * * //

dimensions      [0 -1 0 1 0 0 0];

internalField   nonuniform List<scalar> 
2500
(
0.00847704
0.0254004
0.0422831
0.0591163
0.0758559
0.0924731
0.108937
0.125216
0.141274
0.157074
0.172575
0.187734
0.202503
0.216834
0.230672
0.243961
0.256643
0.268654
0.27993
0.290403
0.300006
0.308666
0.316315
0.322882
0.328296
0.33249
0.335398
0.336959
0.337116
0.335818
0.33302
0.328686
0.322787
0.315306
0.306236
0.295581
0.283357
0.269594
0.254334
0.237635
0.219564
0.200204
0.179652
0.158015
0.135411
0.11197
0.0878297
0.0631346
0.0380373
0.0127038
0.00853398
0.0255734
0.042573
0.059522
0.0763781
0.0931124
0.109694
0.126091
0.142268
0.158188
0.173808
0.189087
0.203977
0.218428
0.232385
0.245794
0.258593
0.27072
0.282109
0.292692
0.3024
0.311162
0.318907
0.325562
0.331058
0.335324
0.338295
0.339908
0.340105
0.338834
0.336049
0.331711
0.325794
0.318278
0.309154
0.298427
0.286114
0.272242
0.256855
0.24001
0.221775
0.202236
0.181487
0.159638
0.136809
0.113132
0.0887463
0.0637961
0.0384243
0.0128252
0.00865003
0.025921
0.0431521
0.0603333
0.0774225
0.0943911
0.111209
0.127842
0.144257
0.160415
0.176276
0.191796
0.206926
0.221618
0.235816
0.249462
0.262497
0.274856
0.286472
0.297276
0.307197
0.316163
0.324099
0.330934
0.336593
0.341006
0.344104
0.345822
0.346099
0.344883
0.342123
0.337782
0.331828
0.324241
0.315011
0.304142
0.291648
0.27756
0.261918
0.24478
0.226218
0.206316
0.185172
0.162898
0.139619
0.115467
0.0905885
0.0651328
0.0392332
0.0130934
0.00882385
0.0264423
0.0440212
0.0615514
0.078991
0.0963114
0.113483
0.130472
0.147244
0.163762
0.179984
0.195866
0.211359
0.226413
0.240972
0.254977
0.268367
0.281076
0.293034
0.304172
0.314415
0.323688
0.331916
0.339021
0.344929
0.349564
0.352855
0.354733
0.355135
0.354002
0.351284
0.346939
0.340931
0.33324
0.323852
0.31277
0.300006
0.285591
0.269566
0.251988
0.232932
0.212483
0.190743
0.167827
0.143865
0.118995
0.0933678
0.0671394
0.0404458
0.0134985
0.00905576
0.027138
0.0451815
0.0631778
0.0810852
0.0988758
0.11652
0.133984
0.151235
0.168233
0.184938
0.201304
0.217283
0.232823
0.247866
0.262353
0.27622
0.289398
0.301817
0.313404
0.32408
0.333768
0.342389
0.349861
0.356104
0.361041
0.364594
0.366691
0.367263
0.366248
0.36359
0.359242
0.353168
0.345339
0.335743
0.324377
0.311254
0.296402
0.279863
0.261696
0.241976
0.220792
0.19825
0.174471
0.149588
0.123749
0.097112
0.0698396
0.0420764
0.0140437
0.00934606
0.0280089
0.0466341
0.0652141
0.0837077
0.102087
0.120324
0.138384
0.156235
0.173836
0.191147
0.208122
0.224712
0.240862
0.256515
0.271609
0.286076
0.299848
0.312849
0.325002
0.336228
0.346442
0.355561
0.363499
0.370172
0.375494
0.379384
0.381762
0.382555
0.381694
0.379118
0.374775
0.368621
0.360627
0.350772
0.339054
0.325482
0.310083
0.292899
0.27399
0.253432
0.23132
0.207765
0.182892
0.156844
0.129777
0.101858
0.0732618
0.0441425
0.0147344
0.00969503
0.029056
0.0483805
0.0676625
0.0868612
0.10595
0.124899
0.143677
0.16225
0.180579
0.198621
0.216331
0.233658
0.250547
0.266938
0.282766
0.297963
0.312454
0.326162
0.339006
0.3509
0.361757
0.371486
0.379996
0.387195
0.392992
0.397298
0.400028
0.401098
0.400434
0.397967
0.393639
0.387399
0.379212
0.369054
0.356916
0.342805
0.326747
0.308784
0.288976
0.267403
0.244164
0.219375
0.193171
0.165704
0.137138
0.107655
0.0774411
0.0466656
0.015578
0.010103
0.03028
0.0504223
0.0705253
0.0905487
0.110467
0.130251
0.14987
0.169289
0.188471
0.207372
0.225945
0.244139
0.261897
0.279157
0.295852
0.311909
0.327252
0.341798
0.35546
0.368149
0.37977
0.390226
0.39942
0.407251
0.41362
0.41843
0.421586
0.422997
0.42258
0.420256
0.415959
0.409631
0.401229
0.390723
0.3781
0.363363
0.346534
0.327655
0.306788
0.284017
0.259444
0.233193
0.205409
0.176253
0.145905
0.11456
0.0824201
0.0496717
0.016583
0.0105702
0.031682
0.0527612
0.0738048
0.0947735
0.115643
0.136385
0.156969
0.177361
0.197523
0.217412
0.23698
0.256173
0.274934
0.293199
0.310896
0.327951
0.344281
0.3598
0.374416
0.388032
0.400547
0.411856
0.421853
0.430429
0.437476
0.442885
0.446553
0.448377
0.448263
0.446124
0.441882
0.435471
0.426837
0.415945
0.402773
0.387322
0.369609
0.349676
0.327585
0.303424
0.277301
0.24935
0.219723
0.188597
0.156167
0.122643
0.08825
0.053192
0.01776
0.011097
0.0332628
0.0553985
0.0775032
0.0995388
0.121482
0.143306
0.164981
0.186474
0.207746
0.228754
0.24945
0.26978
0.289681
0.309089
0.32793
0.346124
0.363585
0.38022
0.395932
0.410615
0.424161
0.436457
0.447387
0.456831
0.46467
0.470785
0.475059
0.477379
0.477636
0.475733
0.471578
0.465095
0.45622
0.444908
0.431129
0.414877
0.396167
0.375038
0.351554
0.325805
0.297907
0.268002
0.236256
0.20286
0.168027
0.13199
0.0949917
0.0572634
0.0191213
0.0116836
0.0350232
0.0583358
0.0816228
0.104847
0.127988
0.151019
0.173913
0.196636
0.219151
0.241413
0.263374
0.284978
0.306163
0.326859
0.346989
0.36647
0.385211
0.403112
0.420068
0.435968
0.450693
0.46412
0.476122
0.486569
0.495328
0.502266
0.507254
0.510163
0.510871
0.509265
0.505241
0.498708
0.48959
0.47783
0.463389
0.446254
0.426434
0.403965
0.378913
0.351369
0.321459
0.289333
0.255174
0.219188
0.18161
0.142696
0.102717
0.0619292
0.0206816
0.0123303
0.0369639
0.0615741
0.0861652
0.110702
0.135165
0.159531
0.183772
0.207856
0.231747
0.2554
0.278767
0.301789
0.324403
0.346536
0.368108
0.389031
0.409208
0.428533
0.446893
0.464168
0.480229
0.494943
0.50817
0.519766
0.529585
0.537479
0.543301
0.546908
0.54816
0.546928
0.54309
0.53654
0.527187
0.51496
0.49981
0.481712
0.460669
0.436714
0.409911
0.380358
0.348185
0.313556
0.276669
0.23775
0.197059
0.154877
0.111508
0.0672401
0.0224577
0.0130371
0.0390853
0.0651142
0.0911315
0.117104
0.143015
0.168843
0.194562
0.220141
0.245545
0.270729
0.295644
0.320232
0.344426
0.368151
0.391324
0.41385
0.435627
0.456543
0.476476
0.495296
0.512863
0.529033
0.54365
0.556557
0.567591
0.576588
0.583382
0.587811
0.589717
0.58895
0.585369
0.578849
0.569282
0.55658
0.540679
0.521544
0.499167
0.473578
0.444839
0.41305
0.378351
0.340917
0.300964
0.258743
0.214539
0.168666
0.121463
0.0732551
0.0244695
0.0138041
0.0413873
0.0689561
0.0965222
0.124055
0.15154
0.178958
0.206287
0.233496
0.260552
0.28741
0.314021
0.340325
0.366255
0.391733
0.416671
0.440969
0.46452
0.487204
0.508889
0.529436
0.548692
0.566499
0.582688
0.597085
0.609507
0.619772
0.627695
0.63309
0.635777
0.635585
0.63235
0.625924
0.616178
0.603005
0.586323
0.566082
0.542265
0.514892
0.484024
0.449764
0.412259
0.371698
0.328318
0.282394
0.234243
0.184217
0.132693
0.0800423
0.0267398
0.014631
0.0438695
0.0730993
0.102337
0.131554
0.160739
0.189878
0.218949
0.247925
0.276773
0.305451
0.333908
0.362085
0.389912
0.417308
0.444183
0.470431
0.495938
0.520576
0.544205
0.566673
0.587816
0.607459
0.625419
0.6415
0.655504
0.667223
0.676451
0.682977
0.686597
0.687111
0.68433
0.678082
0.668211
0.654587
0.637107
0.615702
0.590342
0.561037
0.527843
0.490864
0.450256
0.406224
0.359025
0.308964
0.256394
0.201706
0.145328
0.0876808
0.0292953
0.0155177
0.046531
0.0775424
0.108573
0.139598
0.170611
0.2016
0.232548
0.263429
0.294212
0.324857
0.355314
0.385523
0.415412
0.4449
0.47389
0.502274
0.52993
0.556721
0.582497
0.607095
0.630337
0.652032
0.671979
0.689962
0.705761
0.719144
0.729878
0.737726
0.742453
0.74383
0.741639
0.735676
0.725755
0.711719
0.69344
0.670825
0.643827
0.612442
0.57672
0.536766
0.492741
0.444868
0.393427
0.338755
0.281246
0.221341
0.159519
0.0962623
0.0321667
0.0164635
0.0493703
0.0822828
0.115227
0.148185
0.181152
0.214121
0.247079
0.280004
0.312866
0.345629
0.378242
0.410647
0.442771
0.474528
0.50582
0.536534
0.56654
0.595693
0.623834
0.650786
0.676357
0.700339
0.72251
0.742635
0.760467
0.775749
0.788217
0.797605
0.803645
0.806072
0.804634
0.799091
0.789223
0.774838
0.755778
0.731923
0.703201
0.669594
0.63114
0.587942
0.540168
0.488057
0.431914
0.372115
0.309098
0.243358
0.17544
0.105893
0.0353896
0.0174676
0.0523849
0.0873166
0.122296
0.157307
0.192354
0.227433
0.262536
0.297644
0.332732
0.367764
0.402693
0.437461
0.471994
0.506205
0.539993
0.573239
0.605808
0.637546
0.668282
0.697828
0.725975
0.752498
0.777155
0.799685
0.819815
0.83726
0.851723
0.862902
0.870492
0.874191
0.873703
0.868748
0.859066
0.844425
0.824628
0.799523
0.769009
0.733044
0.691653
0.644933
0.593057
0.536281
0.474939
0.409445
0.340291
0.268035
0.193293
0.116696
0.0390057
0.018529
0.0555717
0.0926387
0.12977
0.166957
0.204208
0.241526
0.278906
0.316337
0.353796
0.391252
0.428659
0.46596
0.503082
0.539937
0.576422
0.612412
0.647766
0.682323
0.7159
0.748297
0.779287
0.808628
0.836054
0.86128
0.884005
0.903908
0.92066
0.933918
0.943335
0.948564
0.949265
0.945107
0.935783
0.921013
0.900556
0.874217
0.84186
0.803413
0.758882
0.708353
0.652005
0.590105
0.523021
0.45121
0.375222
0.29569
0.213313
0.128816
0.0430632
0.0196462
0.0589266
0.0982423
0.137642
0.177122
0.216699
0.256382
0.296173
0.336066
0.376043
0.416076
0.456124
0.496132
0.536027
0.575722
0.61511
0.654064
0.692437
0.730059
0.766739
0.802259
0.836381
0.868839
0.899345
0.927588
0.953233
0.975928
0.9953
1.01097
1.02253
1.0296
1.03177
1.02866
1.01992
1.00519
0.984185
0.956662
0.922437
0.881403
0.833535
0.778907
0.717693
0.650179
0.576761
0.497948
0.414355
0.326698
0.235775
0.142419
0.0476185
0.0208176
0.0624441
0.104119
0.145898
0.187787
0.22981
0.271984
0.314316
0.356808
0.399448
0.442213
0.485067
0.527956
0.570811
0.613545
0.65605
0.698197
0.739832
0.780779
0.820836
0.859773
0.897333
0.933232
0.967157
0.998768
1.0277
1.05355
1.07592
1.09437
1.10846
1.11772
1.1217
1.11996
1.11205
1.09759
1.07621
1.04759
1.01151
0.967806
0.916418
0.857395
0.790907
0.717251
0.636856
0.550284
0.458227
0.361494
0.260999
0.157703
0.052738
0.0220409
0.066118
0.110257
0.154525
0.198935
0.243519
0.288304
0.333306
0.378532
0.423979
0.469629
0.515452
0.561399
0.607404
0.653382
0.699223
0.744797
0.789948
0.834491
0.878215
0.920878
0.962206
1.0019
1.03961
1.07497
1.10759
1.13702
1.16281
1.18447
1.2015
1.21337
1.21957
1.21956
1.21284
1.19893
1.17739
1.14783
1.10994
1.06352
1.00845
0.944738
0.87255
0.792189
0.704115
0.608949
0.507467
0.40059
0.289363
0.1749
0.0584996
0.0233135
0.0699403
0.116644
0.163504
0.210541
0.257799
0.305312
0.353106
0.401199
0.449594
0.498281
0.547237
0.596418
0.645764
0.69519
0.744591
0.793835
0.842763
0.891185
0.938881
0.985598
1.03105
1.0749
1.1168
1.15634
1.19308
1.22655
1.25623
1.28159
1.30205
1.31703
1.32591
1.32809
1.32297
1.30997
1.28856
1.25827
1.2187
1.16956
1.11066
1.04199
0.963665
0.875998
0.779481
0.674797
0.562818
0.44459
0.321314
0.194282
0.0649956
0.0246325
0.073902
0.123266
0.172814
0.22258
0.272616
0.32297
0.373676
0.424763
0.476242
0.528115
0.580365
0.632955
0.685831
0.738915
0.792102
0.845263
0.898237
0.950831
1.00282
1.05393
1.10387
1.15229
1.19881
1.24298
1.28433
1.32235
1.35647
1.38607
1.41053
1.42917
1.44129
1.44619
1.44317
1.43155
1.41067
1.37994
1.33888
1.28707
1.22426
1.15036
1.06546
0.969849
0.864058
0.748833
0.625151
0.494205
0.357379
0.216175
0.0723359
0.0259941
0.0779924
0.130103
0.182431
0.235019
0.287934
0.341232
0.394964
0.449166
0.503863
0.559065
0.614765
0.670937
0.727532
0.78448
0.841682
0.899011
0.956307
1.01338
1.06998
1.12586
1.18069
1.2341
1.28569
1.33499
1.38149
1.42462
1.46376
1.49823
1.52733
1.55028
1.5663
1.57457
1.57426
1.56457
1.54471
1.51396
1.47168
1.41734
1.35059
1.27124
1.17932
1.07511
0.959143
0.832243
0.695504
0.550287
0.398189
0.240968
0.0806516
0.0273943
0.0821991
0.137137
0.192325
0.247822
0.303707
0.360049
0.416911
0.474343
0.532382
0.591051
0.650353
0.710273
0.770774
0.831792
0.893237
0.954986
1.01688
1.07873
1.14031
1.20132
1.26144
1.3203
1.37746
1.43243
1.48465
1.53351
1.57833
1.61837
1.65283
1.68085
1.70153
1.71392
1.71707
1.71001
1.6918
1.66155
1.61846
1.56186
1.49122
1.40625
1.30689
1.19338
1.06626
0.926432
0.775109
0.61385
0.444503
0.269128
0.0901007
0.0288285
0.0865084
0.144343
0.202466
0.260949
0.319885
0.379359
0.439448
0.500216
0.561715
0.62398
0.687029
0.750859
0.815445
0.880734
0.946645
1.01307
1.07984
1.14679
1.21368
1.28021
1.34607
1.41085
1.4741
1.53531
1.59388
1.64915
1.70038
1.74677
1.78741
1.82136
1.84758
1.86499
1.87248
1.86891
1.85314
1.82409
1.78076
1.72227
1.64791
1.55723
1.45006
1.32654
1.18724
1.03308
0.865448
0.686116
0.497232
0.301221
0.100874
0.0302916
0.0909048
0.151696
0.212816
0.274351
0.336411
0.399095
0.462498
0.526698
0.591763
0.657744
0.724675
0.792567
0.86141
0.931164
1.00176
1.0731
1.14504
1.2174
1.28995
1.36241
1.43444
1.50563
1.57553
1.64359
1.70918
1.7716
1.83004
1.88364
1.9314
1.97225
2.00504
2.02853
2.04142
2.04237
2.03003
2.00308
1.96027
1.90045
1.82271
1.72636
1.61105
1.47683
1.32421
1.1542
0.968304
0.768567
0.557488
0.337933
0.113206
0.0317777
0.0953709
0.159168
0.223336
0.287978
0.353221
0.419183
0.485973
0.553689
0.622416
0.692222
0.763157
0.835253
0.908513
0.982917
1.05841
1.13491
1.21229
1.29037
1.36894
1.44772
1.52638
1.6045
1.68162
1.75717
1.8305
1.90086
1.9674
2.02916
2.08507
2.13394
2.17447
2.20526
2.22481
2.23155
2.22387
2.20016
2.15886
2.09854
2.01794
1.91611
1.79246
1.64688
1.47978
1.29221
1.08584
0.863008
0.62663
0.38011
0.127382
0.0332807
0.099888
0.166726
0.23398
0.301772
0.370245
0.439538
0.509776
0.581079
0.653548
0.727273
0.802324
0.878749
0.956575
1.0358
1.11639
1.19828
1.28135
1.36547
1.45041
1.53591
1.62166
1.70724
1.79217
1.87589
1.95771
2.03686
2.11244
2.18342
2.24863
2.30677
2.35639
2.39591
2.4236
2.43764
2.43613
2.4171
2.37863
2.3189
2.23627
2.1294
1.99738
1.83983
1.65705
1.45006
1.22071
0.971655
0.706333
0.428796
0.143757
0.0347936
0.104435
0.174336
0.244701
0.31567
0.387407
0.460068
0.533802
0.608745
0.685023
0.762745
0.842004
0.92287
1.00539
1.08959
1.17546
1.26295
1.35198
1.44241
1.53406
1.62669
1.71998
1.81354
1.90689
1.99947
2.09059
2.17943
2.26506
2.34639
2.42217
2.49098
2.55121
2.6011
2.63869
2.66185
2.66833
2.6558
2.62187
2.56423
2.48076
2.3696
2.22941
2.05945
1.85977
1.63133
1.37615
1.09725
0.79868
0.485291
0.162773
0.0363091
0.108991
0.181962
0.255447
0.329606
0.404623
0.480675
0.557933
0.636555
0.716689
0.798468
0.882008
0.967406
1.05474
1.14405
1.23535
1.32864
1.42385
1.52087
1.61956
1.71969
1.82097
1.92303
2.02542
2.12757
2.22879
2.32826
2.42503
2.51793
2.60566
2.68668
2.75926
2.8214
2.8709
2.90534
2.92206
2.91827
2.89106
2.83752
2.75487
2.64064
2.49286
2.31025
2.09251
1.84045
1.55621
1.24323
0.906279
0.55123
0.184986
0.0378194
0.113532
0.189563
0.266162
0.343506
0.421803
0.501252
0.582045
0.664365
0.748383
0.834257
0.922131
1.01213
1.10435
1.19888
1.29576
1.39501
1.49661
1.60048
1.7065
1.81448
1.92418
2.03526
2.14728
2.25971
2.37187
2.48294
2.59196
2.69774
2.79891
2.89384
2.98066
3.05718
3.12096
3.16921
3.19887
3.2066
3.18887
3.14205
3.06257
2.94708
2.79279
2.59768
2.36086
2.08288
1.76591
1.41388
1.03243
0.628684
0.211104
0.0393163
0.118032
0.197099
0.276787
0.357296
0.438854
0.521685
0.606004
0.692019
0.779927
0.869914
0.96215
1.05679
1.15397
1.2538
1.35636
1.46171
1.56986
1.68079
1.79441
1.91058
2.0291
2.14967
2.2719
2.3953
2.51922
2.64287
2.7653
2.88531
3.0015
3.11218
3.21534
3.30864
3.38936
3.45439
3.5002
3.52286
3.51812
3.48146
3.4083
3.29421
3.13524
2.92832
2.67172
2.36544
2.01161
1.61467
1.18133
0.7203
0.24203
0.0407909
0.122466
0.204525
0.28726
0.370893
0.455676
0.541855
0.62967
0.719356
0.811136
0.905224
1.00182
1.10112
1.20328
1.30846
1.41678
1.52832
1.64317
1.76132
1.88277
2.00741
2.1351
2.2656
2.39858
2.5336
2.67009
2.80729
2.94429
3.07992
3.21278
3.34115
3.46293
3.57564
3.67634
3.76157
3.82734
3.86907
3.88168
3.85962
3.79705
3.68813
3.52737
3.31021
3.03361
2.69671
2.30139
1.8526
1.35839
0.82949
0.27893
0.0422345
0.126808
0.211797
0.297518
0.384216
0.472165
0.561636
0.652896
0.746203
0.841812
0.939966
1.0409
1.14483
1.25198
1.36251
1.47661
1.59442
1.71604
1.84155
1.97099
2.10432
2.24148
2.38229
2.5265
2.67376
2.82355
2.97523
3.12794
3.28059
3.4318
3.57987
3.7227
3.85769
3.98173
4.09105
4.18121
4.24697
4.28234
4.28056
4.23429
4.13584
3.97768
3.75312
3.45718
3.08757
2.64559
2.13671
1.57061
0.960681
0.323317
0.0436378
0.131028
0.218868
0.307495
0.397178
0.488215
0.580901
0.675528
0.772385
0.871752
0.973906
1.07911
1.18763
1.29971
1.41558
1.53545
1.65951
1.78795
1.92088
2.05842
2.20061
2.34745
2.49888
2.65473
2.81473
2.97852
3.14552
3.31502
3.48602
3.65725
3.82708
3.99346
4.15378
4.30481
4.44258
4.56223
4.6579
4.72263
4.74833
4.72586
4.64523
4.49618
4.26902
3.95584
3.55201
3.0577
2.47881
1.82716
1.11965
0.377162
0.0449914
0.135099
0.22569
0.317124
0.409692
0.503716
0.599517
0.697412
0.797717
0.900745
1.0068
1.11619
1.2292
1.34613
1.46726
1.59283
1.72311
1.85833
1.99869
2.14436
2.29549
2.45216
2.6144
2.78218
2.95536
3.13369
3.31677
3.50401
3.6946
3.88744
4.08105
4.27349
4.46228
4.6442
4.81516
4.97004
5.10243
5.20447
5.26665
5.27777
5.22506
5.09464
4.87258
4.54656
4.10816
3.55538
2.89444
2.14005
1.31395
0.443036
0.0462861
0.138994
0.232216
0.326338
0.42167
0.51856
0.617352
0.71839
0.822018
0.928577
1.03841
1.15185
1.26923
1.39088
1.51714
1.64831
1.7847
1.9266
2.07431
2.22807
2.38812
2.55465
2.72781
2.9077
3.09432
3.2876
3.48733
3.69312
3.90438
4.12025
4.33951
4.56046
4.78084
4.99762
5.20681
5.40319
5.58003
5.72872
5.83843
5.89575
5.88463
5.78659
5.58177
5.25112
4.77994
4.16224
3.40433
2.52513
1.55342
0.524264
0.0475124
0.142683
0.2384
0.335069
0.433025
0.532637
0.634273
0.738304
0.845101
0.955034
1.06848
1.1858
1.30738
1.43359
1.5648
1.70139
1.84372
1.99215
2.14705
2.30876
2.47761
2.65391
2.83795
3.02997
3.23015
3.43861
3.65536
3.88028
4.11305
4.35313
4.59966
4.85132
5.10623
5.36176
5.61427
5.85876
6.08852
6.29456
6.46502
6.58445
6.63321
6.58719
6.41846
6.09769
5.59949
4.91037
4.03629
3.00323
1.85072
0.625061
0.0486614
0.14614
0.244195
0.343254
0.443672
0.54584
0.650151
0.756999
0.866784
0.979904
1.09676
1.21777
1.34334
1.47389
1.60983
1.7516
1.89963
2.05435
2.21619
2.38561
2.56303
2.74889
2.94362
3.14763
3.36128
3.58492
3.81882
4.06314
4.31794
4.58307
4.85811
5.14227
5.43427
5.73211
6.03279
6.33199
6.62351
6.89862
7.1451
7.3461
7.47867
7.51243
7.40888
7.12319
6.61125
5.8445
4.82803
3.60131
2.22152
0.750524
0.0497243
0.149337
0.249556
0.350827
0.453526
0.558064
0.664858
0.774325
0.886889
1.00298
1.12303
1.24748
1.37679
1.51141
1.65181
1.79847
1.95188
2.11256
2.28102
2.4578
2.64344
2.8385
3.04357
3.25922
3.48604
3.72461
3.97547
4.23915
4.5161
4.80663
5.1109
5.42879
5.7598
6.10281
6.45589
6.81586
7.17774
7.53397
7.87317
8.17849
8.42508
8.57692
8.58317
8.37646
7.87911
7.02941
5.83085
4.35299
2.68388
0.906247
0.0506927
0.152251
0.254442
0.35773
0.462509
0.569212
0.678274
0.790137
0.905247
1.02406
1.14704
1.27466
1.40742
1.54579
1.69032
1.84152
1.99995
2.16618
2.34083
2.52451
2.71789
2.92165
3.13653
3.36328
3.60272
3.85566
4.12297
4.40555
4.70428
5.02002
5.35358
5.70565
6.07666
6.46669
6.87523
7.3008
7.74047
8.18902
8.63766
9.07195
9.46839
9.78893
9.97218
9.92188
9.50064
8.56424
7.11379
5.29644
3.25516
1.09703
0.0515588
0.154857
0.258812
0.363905
0.470548
0.57919
0.690286
0.804299
0.921698
1.04296
1.16858
1.29907
1.43493
1.57671
1.72498
1.8803
2.0433
2.21461
2.39492
2.58494
2.78545
2.99725
3.22123
3.45833
3.70957
3.97604
4.25892
4.55949
4.8791
5.2192
5.58132
5.96702
6.37787
6.81535
7.28069
7.77467
8.2972
8.84671
9.41905
10.0056
10.5898
11.1402
11.5965
11.8398
11.6386
10.6142
8.76447
6.46434
3.94367
1.32396
0.0523157
0.157135
0.262631
0.369302
0.477574
0.587913
0.700791
0.816688
0.936095
1.05951
1.18746
1.32046
1.45906
1.60385
1.75542
1.9144
2.08146
2.25729
2.44265
2.63834
2.84524
3.06427
3.29647
3.54295
3.80492
4.08375
4.38092
4.6981
5.03711
5.4
5.78904
6.20674
6.65587
7.13944
7.66069
8.22303
8.82985
9.48431
10.1888
10.944
11.7472
12.5876
13.4355
14.2038
14.6011
13.4907
10.8664
7.85329
4.73161
1.5793
0.0529572
0.159065
0.265867
0.373875
0.483527
0.595305
0.709695
0.827192
0.948305
1.07355
1.20347
1.33862
1.47957
1.62693
1.78134
1.94345
2.11399
2.29371
2.48342
2.68402
2.89645
3.12176
3.36112
3.61578
3.88717
4.17688
4.48669
4.81862
5.17496
5.55832
5.97171
6.41857
6.90286
7.42917
8.00282
8.62997
9.31779
10.0746
10.9104
11.8369
12.8694
14.0296
15.356
16.9403
19.0728
17.882
13.358
9.35136
5.55058
1.84116
0.053478
0.160632
0.268494
0.377585
0.488356
0.601301
0.716918
0.835716
0.958217
1.08496
1.21649
1.35338
1.49625
1.64571
1.80243
1.96711
2.1405
2.32341
2.51671
2.72135
2.93835
3.16887
3.41416
3.67563
3.95488
4.25369
4.57412
4.91849
5.28951
5.69031
6.12454
6.5965
7.11128
7.67491
8.29467
8.97934
9.73964
10.5889
11.5438
12.6263
13.8662
15.3074
17.0204
19.1302
21.8689
20.6079
15.333
10.6442
6.27855
2.07613
0.0538738
0.161824
0.270489
0.380398
0.492018
0.605848
0.722396
0.842181
0.965735
1.09361
1.22636
1.36459
1.50891
1.65997
1.81846
1.9851
2.16068
2.34604
2.54209
2.74982
2.97034
3.20486
3.45473
3.72148
4.00682
4.31271
4.64141
4.99551
5.37805
5.79257
6.24328
6.73519
7.2743
7.86789
8.52486
9.25618
10.0755
11.0002
12.0522
13.2606
14.664
16.3154
18.2896
20.6929
23.6663
22.3486
16.7227
11.6143
6.84375
2.26117
0.0541395
0.16263
0.271837
0.382291
0.494479
0.608903
0.726076
0.846525
0.970789
1.09942
1.233
1.37213
1.51743
1.66957
1.82925
1.99722
2.17428
2.36129
2.5592
2.76903
2.99194
3.22918
3.48217
3.75251
4.042
4.35274
4.68711
5.04789
5.43836
5.86236
6.32449
6.83025
7.38633
8.00088
8.68396
9.44811
10.3091
11.2868
12.407
13.7025
15.216
17.0025
19.1317
21.6871
24.756
23.3987
17.5959
12.247
7.22138
2.38621
0.0542608
0.163019
0.27251
0.383242
0.495715
0.610437
0.727925
0.848707
0.973327
1.10234
1.23634
1.37592
1.52172
1.6744
1.83468
2.00331
2.18111
2.36896
2.56781
2.77871
3.00282
3.24144
3.49601
3.76816
4.05977
4.37296
4.71021
5.0744
5.46891
5.89775
6.36572
6.87858
7.44337
8.0687
8.76524
9.54634
10.4288
11.4339
12.589
13.9287
15.4971
17.349
19.5494
22.1694
25.2732
23.8955
18.0159
12.5571
7.40892
2.44872
)
;

boundaryField
{
    walls
    {
        type            calculated;
        value           nonuniform List<scalar> 
200
(
0.0542608
0.163019
0.27251
0.383242
0.495715
0.610437
0.727925
0.848707
0.973327
1.10234
1.23634
1.37592
1.52172
1.6744
1.83468
2.00331
2.18111
2.36896
2.56781
2.77871
3.00282
3.24144
3.49601
3.76816
4.05977
4.37296
4.71021
5.0744
5.46891
5.89775
6.36572
6.87858
7.44337
8.0687
8.76524
9.54634
10.4288
11.4339
12.589
13.9287
15.4971
17.349
19.5494
22.1694
25.2732
23.8955
18.0159
12.5571
7.40892
2.44872
0
0
0
0
0
0
0
0
0
0
0
0
0
0
0
0
0
0
0
0
0
0
0
0
0
0
0
0
0
0
0
0
0
0
0
0
0
0
0
0
0
0
0
0
0
0
0
0
0
0
0
0
0
0
0
0
0
0
0
0
0
0
0
0
0
0
0
0
0
0
0
0
0
0
0
0
0
0
0
0
0
0
0
0
0
0
0
0
0
0
0
0
0
0
0
0
0
0
0
0
0.00847704
0.0254004
0.0422831
0.0591163
0.0758559
0.0924731
0.108937
0.125216
0.141274
0.157074
0.172575
0.187734
0.202503
0.216834
0.230672
0.243961
0.256643
0.268654
0.27993
0.290403
0.300006
0.308666
0.316315
0.322882
0.328296
0.33249
0.335398
0.336959
0.337116
0.335818
0.33302
0.328686
0.322787
0.315306
0.306236
0.295581
0.283357
0.269594
0.254334
0.237635
0.219564
0.200204
0.179652
0.158015
0.135411
0.11197
0.0878297
0.0631346
0.0380373
0.0127038
)
;
    }
    frontAndBack
    {
        type            empty;
    }
}


// ************************************************************************* //
