/*--------------------------------*- C++ -*----------------------------------*\
| =========                 |                                                 |
| \\      /  F ield         | OpenFOAM: The Open Source CFD Toolbox           |
|  \\    /   O peration     | Version:  2406                                  |
|   \\  /    A nd           | Website:  www.openfoam.com                      |
|    \\/     M anipulation  |                                                 |
\*---------------------------------------------------------------------------*/
FoamFile
{
    version     2.0;
    format      ascii;
    arch        "LSB;label=32;scalar=64";
    class       volScalarField;
    location    "1.75";
    object      gradTy;
}
// * * * * * * * * * * * * * * * * * * * * * * * * * * * * * * * * * * * * * //

dimensions      [0 -1 0 1 0 0 0];

internalField   nonuniform List<scalar> 
2500
(
0.00847704
0.00853398
0.00865003
0.00882385
0.00905576
0.00934606
0.00969503
0.010103
0.0105702
0.011097
0.0116836
0.0123303
0.0130371
0.0138041
0.014631
0.0155177
0.0164635
0.0174676
0.018529
0.0196462
0.0208176
0.0220409
0.0233135
0.0246325
0.0259941
0.0273943
0.0288285
0.0302916
0.0317777
0.0332807
0.0347936
0.0363091
0.0378194
0.0393163
0.0407909
0.0422345
0.0436378
0.0449914
0.0462861
0.0475124
0.0486614
0.0497243
0.0506927
0.0515588
0.0523157
0.0529572
0.053478
0.0538738
0.0541395
0.0542608
0.0254004
0.0255734
0.025921
0.0264423
0.027138
0.0280089
0.029056
0.03028
0.031682
0.0332628
0.0350232
0.0369639
0.0390853
0.0413873
0.0438695
0.046531
0.0493703
0.0523849
0.0555717
0.0589266
0.0624441
0.066118
0.0699403
0.073902
0.0779924
0.0821991
0.0865084
0.0909048
0.0953709
0.099888
0.104435
0.108991
0.113532
0.118032
0.122466
0.126808
0.131028
0.135099
0.138994
0.142683
0.14614
0.149337
0.152251
0.154857
0.157135
0.159065
0.160632
0.161824
0.16263
0.163019
0.0422831
0.042573
0.0431521
0.0440212
0.0451815
0.0466341
0.0483805
0.0504223
0.0527612
0.0553985
0.0583358
0.0615741
0.0651142
0.0689561
0.0730993
0.0775424
0.0822828
0.0873166
0.0926387
0.0982423
0.104119
0.110257
0.116644
0.123266
0.130103
0.137137
0.144343
0.151696
0.159168
0.166726
0.174336
0.181962
0.189563
0.197099
0.204525
0.211797
0.218868
0.22569
0.232216
0.2384
0.244195
0.249556
0.254442
0.258812
0.262631
0.265867
0.268494
0.270489
0.271837
0.27251
0.0591163
0.059522
0.0603333
0.0615514
0.0631778
0.0652141
0.0676625
0.0705253
0.0738048
0.0775032
0.0816228
0.0861652
0.0911315
0.0965222
0.102337
0.108573
0.115227
0.122296
0.12977
0.137642
0.145898
0.154525
0.163504
0.172814
0.182431
0.192325
0.202466
0.212816
0.223336
0.23398
0.244701
0.255447
0.266162
0.276787
0.28726
0.297518
0.307495
0.317124
0.326338
0.335069
0.343254
0.350827
0.35773
0.363905
0.369302
0.373875
0.377585
0.380398
0.382291
0.383242
0.0758559
0.0763781
0.0774225
0.078991
0.0810852
0.0837077
0.0868612
0.0905487
0.0947735
0.0995388
0.104847
0.110702
0.117104
0.124055
0.131554
0.139598
0.148185
0.157307
0.166957
0.177122
0.187787
0.198935
0.210541
0.22258
0.235019
0.247822
0.260949
0.274351
0.287978
0.301772
0.31567
0.329606
0.343506
0.357296
0.370893
0.384216
0.397178
0.409692
0.42167
0.433025
0.443672
0.453526
0.462509
0.470548
0.477574
0.483527
0.488356
0.492018
0.494479
0.495715
0.0924731
0.0931124
0.0943911
0.0963114
0.0988758
0.102087
0.10595
0.110467
0.115643
0.121482
0.127988
0.135165
0.143015
0.15154
0.160739
0.170611
0.181152
0.192354
0.204208
0.216699
0.22981
0.243519
0.257799
0.272616
0.287934
0.303707
0.319885
0.336411
0.353221
0.370245
0.387407
0.404623
0.421803
0.438854
0.455676
0.472165
0.488215
0.503716
0.51856
0.532637
0.54584
0.558064
0.569212
0.57919
0.587913
0.595305
0.601301
0.605848
0.608903
0.610437
0.108937
0.109694
0.111209
0.113483
0.11652
0.120324
0.124899
0.130251
0.136385
0.143306
0.151019
0.159531
0.168843
0.178958
0.189878
0.2016
0.214121
0.227433
0.241526
0.256382
0.271984
0.288304
0.305312
0.32297
0.341232
0.360049
0.379359
0.399095
0.419183
0.439538
0.460068
0.480675
0.501252
0.521685
0.541855
0.561636
0.580901
0.599517
0.617352
0.634273
0.650151
0.664858
0.678274
0.690286
0.700791
0.709695
0.716918
0.722396
0.726076
0.727925
0.125216
0.126091
0.127842
0.130472
0.133984
0.138384
0.143677
0.14987
0.156969
0.164981
0.173913
0.183772
0.194562
0.206287
0.218949
0.232548
0.247079
0.262536
0.278906
0.296173
0.314316
0.333306
0.353106
0.373676
0.394964
0.416911
0.439448
0.462498
0.485973
0.509776
0.533802
0.557933
0.582045
0.606004
0.62967
0.652896
0.675528
0.697412
0.71839
0.738304
0.756999
0.774325
0.790137
0.804299
0.816688
0.827192
0.835716
0.842181
0.846525
0.848707
0.141274
0.142268
0.144257
0.147244
0.151235
0.156235
0.16225
0.169289
0.177361
0.186474
0.196636
0.207856
0.220141
0.233496
0.247925
0.263429
0.280004
0.297644
0.316337
0.336066
0.356808
0.378532
0.401199
0.424763
0.449166
0.474343
0.500216
0.526698
0.553689
0.581079
0.608745
0.636555
0.664365
0.692019
0.719356
0.746203
0.772385
0.797717
0.822018
0.845101
0.866784
0.886889
0.905247
0.921698
0.936095
0.948305
0.958217
0.965735
0.970789
0.973327
0.157074
0.158188
0.160415
0.163762
0.168233
0.173836
0.180579
0.188471
0.197523
0.207746
0.219151
0.231747
0.245545
0.260552
0.276773
0.294212
0.312866
0.332732
0.353796
0.376043
0.399448
0.423979
0.449594
0.476242
0.503863
0.532382
0.561715
0.591763
0.622416
0.653548
0.685023
0.716689
0.748383
0.779927
0.811136
0.841812
0.871752
0.900745
0.928577
0.955034
0.979904
1.00298
1.02406
1.04296
1.05951
1.07355
1.08496
1.09361
1.09942
1.10234
0.172575
0.173808
0.176276
0.179984
0.184938
0.191147
0.198621
0.207372
0.217412
0.228754
0.241413
0.2554
0.270729
0.28741
0.305451
0.324857
0.345629
0.367764
0.391252
0.416076
0.442213
0.469629
0.498281
0.528115
0.559065
0.591051
0.62398
0.657744
0.692222
0.727273
0.762745
0.798468
0.834257
0.869914
0.905224
0.939966
0.973906
1.0068
1.03841
1.06848
1.09676
1.12303
1.14704
1.16858
1.18746
1.20347
1.21649
1.22636
1.233
1.23634
0.187734
0.189087
0.191796
0.195866
0.201304
0.208122
0.216331
0.225945
0.23698
0.24945
0.263374
0.278767
0.295644
0.314021
0.333908
0.355314
0.378242
0.402693
0.428659
0.456124
0.485067
0.515452
0.547237
0.580365
0.614765
0.650353
0.687029
0.724675
0.763157
0.802324
0.842004
0.882008
0.922131
0.96215
1.00182
1.0409
1.07911
1.11619
1.15185
1.1858
1.21777
1.24748
1.27466
1.29907
1.32046
1.33862
1.35338
1.36459
1.37213
1.37592
0.202503
0.203977
0.206926
0.211359
0.217283
0.224712
0.233658
0.244139
0.256173
0.26978
0.284978
0.301789
0.320232
0.340325
0.362085
0.385523
0.410647
0.437461
0.46596
0.496132
0.527956
0.561399
0.596418
0.632955
0.670937
0.710273
0.750859
0.792567
0.835253
0.878749
0.92287
0.967406
1.01213
1.05679
1.10112
1.14483
1.18763
1.2292
1.26923
1.30738
1.34334
1.37679
1.40742
1.43493
1.45906
1.47957
1.49625
1.50891
1.51743
1.52172
0.216834
0.218428
0.221618
0.226413
0.232823
0.240862
0.250547
0.261897
0.274934
0.289681
0.306163
0.324403
0.344426
0.366255
0.389912
0.415412
0.442771
0.471994
0.503082
0.536027
0.570811
0.607404
0.645764
0.685831
0.727532
0.770774
0.815445
0.86141
0.908513
0.956575
1.00539
1.05474
1.10435
1.15397
1.20328
1.25198
1.29971
1.34613
1.39088
1.43359
1.47389
1.51141
1.54579
1.57671
1.60385
1.62693
1.64571
1.65997
1.66957
1.6744
0.230672
0.232385
0.235816
0.240972
0.247866
0.256515
0.266938
0.279157
0.293199
0.309089
0.326859
0.346536
0.368151
0.391733
0.417308
0.4449
0.474528
0.506205
0.539937
0.575722
0.613545
0.653382
0.69519
0.738915
0.78448
0.831792
0.880734
0.931164
0.982917
1.0358
1.08959
1.14405
1.19888
1.2538
1.30846
1.36251
1.41558
1.46726
1.51714
1.5648
1.60983
1.65181
1.69032
1.72498
1.75542
1.78134
1.80243
1.81846
1.82925
1.83468
0.243961
0.245794
0.249462
0.254977
0.262353
0.271609
0.282766
0.295852
0.310896
0.32793
0.346989
0.368108
0.391324
0.416671
0.444183
0.47389
0.50582
0.539993
0.576422
0.61511
0.65605
0.699223
0.744591
0.792102
0.841682
0.893237
0.946645
1.00176
1.05841
1.11639
1.17546
1.23535
1.29576
1.35636
1.41678
1.47661
1.53545
1.59283
1.64831
1.70139
1.7516
1.79847
1.84152
1.8803
1.9144
1.94345
1.96711
1.9851
1.99722
2.00331
0.256643
0.258593
0.262497
0.268367
0.27622
0.286076
0.297963
0.311909
0.327951
0.346124
0.36647
0.389031
0.41385
0.440969
0.470431
0.502274
0.536534
0.573239
0.612412
0.654064
0.698197
0.744797
0.793835
0.845263
0.899011
0.954986
1.01307
1.0731
1.13491
1.19828
1.26295
1.32864
1.39501
1.46171
1.52832
1.59442
1.65951
1.72311
1.7847
1.84372
1.89963
1.95188
1.99995
2.0433
2.08146
2.11399
2.1405
2.16068
2.17428
2.18111
0.268654
0.27072
0.274856
0.281076
0.289398
0.299848
0.312454
0.327252
0.344281
0.363585
0.385211
0.409208
0.435627
0.46452
0.495938
0.52993
0.56654
0.605808
0.647766
0.692437
0.739832
0.789948
0.842763
0.898237
0.956307
1.01688
1.07984
1.14504
1.21229
1.28135
1.35198
1.42385
1.49661
1.56986
1.64317
1.71604
1.78795
1.85833
1.9266
1.99215
2.05435
2.11256
2.16618
2.21461
2.25729
2.29371
2.32341
2.34604
2.36129
2.36896
0.27993
0.282109
0.286472
0.293034
0.301817
0.312849
0.326162
0.341798
0.3598
0.38022
0.403112
0.428533
0.456543
0.487204
0.520576
0.556721
0.595693
0.637546
0.682323
0.730059
0.780779
0.834491
0.891185
0.950831
1.01338
1.07873
1.14679
1.2174
1.29037
1.36547
1.44241
1.52087
1.60048
1.68079
1.76132
1.84155
1.92088
1.99869
2.07431
2.14705
2.21619
2.28102
2.34083
2.39492
2.44265
2.48342
2.51671
2.54209
2.5592
2.56781
0.290403
0.292692
0.297276
0.304172
0.313404
0.325002
0.339006
0.35546
0.374416
0.395932
0.420068
0.446893
0.476476
0.508889
0.544205
0.582497
0.623834
0.668282
0.7159
0.766739
0.820836
0.878215
0.938881
1.00282
1.06998
1.14031
1.21368
1.28995
1.36894
1.45041
1.53406
1.61956
1.7065
1.79441
1.88277
1.97099
2.05842
2.14436
2.22807
2.30876
2.38561
2.4578
2.52451
2.58494
2.63834
2.68402
2.72135
2.74982
2.76903
2.77871
0.300006
0.3024
0.307197
0.314415
0.32408
0.336228
0.3509
0.368149
0.388032
0.410615
0.435968
0.464168
0.495296
0.529436
0.566673
0.607095
0.650786
0.697828
0.748297
0.802259
0.859773
0.920878
0.985598
1.05393
1.12586
1.20132
1.28021
1.36241
1.44772
1.53591
1.62669
1.71969
1.81448
1.91058
2.00741
2.10432
2.20061
2.29549
2.38812
2.47761
2.56303
2.64344
2.71789
2.78545
2.84524
2.89645
2.93835
2.97034
2.99194
3.00282
0.308666
0.311162
0.316163
0.323688
0.333768
0.346442
0.361757
0.37977
0.400547
0.424161
0.450693
0.480229
0.512863
0.548692
0.587816
0.630337
0.676357
0.725975
0.779287
0.836381
0.897333
0.962206
1.03105
1.10387
1.18069
1.26144
1.34607
1.43444
1.52638
1.62166
1.71998
1.82097
1.92418
2.0291
2.1351
2.24148
2.34745
2.45216
2.55465
2.65391
2.74889
2.8385
2.92165
2.99725
3.06427
3.12176
3.16887
3.20486
3.22918
3.24144
0.316315
0.318907
0.324099
0.331916
0.342389
0.355561
0.371486
0.390226
0.411856
0.436457
0.46412
0.494943
0.529033
0.566499
0.607459
0.652032
0.700339
0.752498
0.808628
0.868839
0.933232
1.0019
1.0749
1.15229
1.2341
1.3203
1.41085
1.50563
1.6045
1.70724
1.81354
1.92303
2.03526
2.14967
2.2656
2.38229
2.49888
2.6144
2.72781
2.83795
2.94362
3.04357
3.13653
3.22123
3.29647
3.36112
3.41416
3.45473
3.48217
3.49601
0.322882
0.325562
0.330934
0.339021
0.349861
0.363499
0.379996
0.39942
0.421853
0.447387
0.476122
0.50817
0.54365
0.582688
0.625419
0.671979
0.72251
0.777155
0.836054
0.899345
0.967157
1.03961
1.1168
1.19881
1.28569
1.37746
1.4741
1.57553
1.68162
1.79217
1.90689
2.02542
2.14728
2.2719
2.39858
2.5265
2.65473
2.78218
2.9077
3.02997
3.14763
3.25922
3.36328
3.45833
3.54295
3.61578
3.67563
3.72148
3.75251
3.76816
0.328296
0.331058
0.336593
0.344929
0.356104
0.370172
0.387195
0.407251
0.430429
0.456831
0.486569
0.519766
0.556557
0.597085
0.6415
0.689962
0.742635
0.799685
0.86128
0.927588
0.998768
1.07497
1.15634
1.24298
1.33499
1.43243
1.53531
1.64359
1.75717
1.87589
1.99947
2.12757
2.25971
2.3953
2.5336
2.67376
2.81473
2.95536
3.09432
3.23015
3.36128
3.48604
3.60272
3.70957
3.80492
3.88717
3.95488
4.00682
4.042
4.05977
0.33249
0.335324
0.341006
0.349564
0.361041
0.375494
0.392992
0.41362
0.437476
0.46467
0.495328
0.529585
0.567591
0.609507
0.655504
0.705761
0.760467
0.819815
0.884005
0.953233
1.0277
1.10759
1.19308
1.28433
1.38149
1.48465
1.59388
1.70918
1.8305
1.95771
2.09059
2.22879
2.37187
2.51922
2.67009
2.82355
2.97852
3.13369
3.2876
3.43861
3.58492
3.72461
3.85566
3.97604
4.08375
4.17688
4.25369
4.31271
4.35274
4.37296
0.335398
0.338295
0.344104
0.352855
0.364594
0.379384
0.397298
0.41843
0.442885
0.470785
0.502266
0.537479
0.576588
0.619772
0.667223
0.719144
0.775749
0.83726
0.903908
0.975928
1.05355
1.13702
1.22655
1.32235
1.42462
1.53351
1.64915
1.7716
1.90086
2.03686
2.17943
2.32826
2.48294
2.64287
2.80729
2.97523
3.14552
3.31677
3.48733
3.65536
3.81882
3.97547
4.12297
4.25892
4.38092
4.48669
4.57412
4.64141
4.68711
4.71021
0.336959
0.339908
0.345822
0.354733
0.366691
0.381762
0.400028
0.421586
0.446553
0.475059
0.507254
0.543301
0.583382
0.627695
0.676451
0.729878
0.788217
0.851723
0.92066
0.9953
1.07592
1.16281
1.25623
1.35647
1.46376
1.57833
1.70038
1.83004
1.9674
2.11244
2.26506
2.42503
2.59196
2.7653
2.94429
3.12794
3.31502
3.50401
3.69312
3.88028
4.06314
4.23915
4.40555
4.55949
4.6981
4.81862
4.91849
4.99551
5.04789
5.0744
0.337116
0.340105
0.346099
0.355135
0.367263
0.382555
0.401098
0.422997
0.448377
0.477379
0.510163
0.546908
0.587811
0.63309
0.682977
0.737726
0.797605
0.862902
0.933918
1.01097
1.09437
1.18447
1.28159
1.38607
1.49823
1.61837
1.74677
1.88364
2.02916
2.18342
2.34639
2.51793
2.69774
2.88531
3.07992
3.28059
3.48602
3.6946
3.90438
4.11305
4.31794
4.5161
4.70428
4.8791
5.03711
5.17496
5.28951
5.37805
5.43836
5.46891
0.335818
0.338834
0.344883
0.354002
0.366248
0.381694
0.400434
0.42258
0.448263
0.477636
0.510871
0.54816
0.589717
0.635777
0.686597
0.742453
0.803645
0.870492
0.943335
1.02253
1.10846
1.2015
1.30205
1.41053
1.52733
1.65283
1.78741
1.9314
2.08507
2.24863
2.42217
2.60566
2.79891
3.0015
3.21278
3.4318
3.65725
3.88744
4.12025
4.35313
4.58307
4.80663
5.02002
5.2192
5.4
5.55832
5.69031
5.79257
5.86236
5.89775
0.33302
0.336049
0.342123
0.351284
0.36359
0.379118
0.397967
0.420256
0.446124
0.475733
0.509265
0.546928
0.58895
0.635585
0.687111
0.74383
0.806072
0.874191
0.948564
1.0296
1.11772
1.21337
1.31703
1.42917
1.55028
1.68085
1.82136
1.97225
2.13394
2.30677
2.49098
2.68668
2.89384
3.11218
3.34115
3.57987
3.82708
4.08105
4.33951
4.59966
4.85811
5.1109
5.35358
5.58132
5.78904
5.97171
6.12454
6.24328
6.32449
6.36572
0.328686
0.331711
0.337782
0.346939
0.359242
0.374775
0.393639
0.415959
0.441882
0.471578
0.505241
0.54309
0.585369
0.63235
0.68433
0.741639
0.804634
0.873703
0.949265
1.03177
1.1217
1.21957
1.32591
1.44129
1.5663
1.70153
1.84758
2.00504
2.17447
2.35639
2.55121
2.75926
2.98066
3.21534
3.46293
3.7227
3.99346
4.27349
4.56046
4.85132
5.14227
5.42879
5.70565
5.96702
6.20674
6.41857
6.5965
6.73519
6.83025
6.87858
0.322787
0.325794
0.331828
0.340931
0.353168
0.368621
0.387399
0.409631
0.435471
0.465095
0.498708
0.53654
0.578849
0.625924
0.678082
0.735676
0.799091
0.868748
0.945107
1.02866
1.11996
1.21956
1.32809
1.44619
1.57457
1.71392
1.86499
2.02853
2.20526
2.39591
2.6011
2.8214
3.05718
3.30864
3.57564
3.85769
4.15378
4.46228
4.78084
5.10623
5.43427
5.7598
6.07666
6.37787
6.65587
6.90286
7.11128
7.2743
7.38633
7.44337
0.315306
0.318278
0.324241
0.33324
0.345339
0.360627
0.379212
0.401229
0.426837
0.45622
0.48959
0.527187
0.569282
0.616178
0.668211
0.725755
0.789223
0.859066
0.935783
1.01992
1.11205
1.21284
1.32297
1.44317
1.57426
1.71707
1.87248
2.04142
2.22481
2.4236
2.63869
2.8709
3.12096
3.38936
3.67634
3.98173
4.30481
4.6442
4.99762
5.36176
5.73211
6.10281
6.46669
6.81535
7.13944
7.42917
7.67491
7.86789
8.00088
8.0687
0.306236
0.309154
0.315011
0.323852
0.335743
0.350772
0.369054
0.390723
0.415945
0.444908
0.47783
0.51496
0.55658
0.603005
0.654587
0.711719
0.774838
0.844425
0.921013
1.00519
1.09759
1.19893
1.30997
1.43155
1.56457
1.71001
1.86891
2.04237
2.23155
2.43764
2.66185
2.90534
3.16921
3.45439
3.76157
4.09105
4.44258
4.81516
5.20681
5.61427
6.03279
6.45589
6.87523
7.28069
7.66069
8.00282
8.29467
8.52486
8.68396
8.76524
0.295581
0.298427
0.304142
0.31277
0.324377
0.339054
0.356916
0.3781
0.402773
0.431129
0.463389
0.49981
0.540679
0.586323
0.637107
0.69344
0.755778
0.824628
0.900556
0.984185
1.07621
1.17739
1.28856
1.41067
1.54471
1.6918
1.85314
2.03003
2.22387
2.43613
2.66833
2.92206
3.19887
3.5002
3.82734
4.18121
4.56223
4.97004
5.40319
5.85876
6.33199
6.81586
7.3008
7.77467
8.22303
8.62997
8.97934
9.25618
9.44811
9.54634
0.283357
0.286114
0.291648
0.300006
0.311254
0.325482
0.342805
0.363363
0.387322
0.414877
0.446254
0.481712
0.521544
0.566082
0.615702
0.670825
0.731923
0.799523
0.874217
0.956662
1.04759
1.14783
1.25827
1.37994
1.51396
1.66155
1.82409
2.00308
2.20016
2.4171
2.6558
2.91827
3.2066
3.52286
3.86907
4.24697
4.6579
5.10243
5.58003
6.08852
6.62351
7.17774
7.74047
8.2972
8.82985
9.31779
9.73964
10.0755
10.3091
10.4288
0.269594
0.272242
0.27756
0.285591
0.296402
0.310083
0.326747
0.346534
0.369609
0.396167
0.426434
0.460669
0.499167
0.542265
0.590342
0.643827
0.703201
0.769009
0.84186
0.922437
1.01151
1.10994
1.2187
1.33888
1.47168
1.61846
1.78076
1.96027
2.15886
2.37863
2.62187
2.89106
3.18887
3.51812
3.88168
4.28234
4.72263
5.20447
5.72872
6.29456
6.89862
7.53397
8.18902
8.84671
9.48431
10.0746
10.5889
11.0002
11.2868
11.4339
0.254334
0.256855
0.261918
0.269566
0.279863
0.292899
0.308784
0.327655
0.349676
0.375038
0.403965
0.436714
0.473578
0.514892
0.561037
0.612442
0.669594
0.733044
0.803413
0.881403
0.967806
1.06352
1.16956
1.28707
1.41734
1.56186
1.72227
1.90045
2.09854
2.3189
2.56423
2.83752
3.14205
3.48146
3.85962
4.28056
4.74833
5.26665
5.83843
6.46502
7.1451
7.87317
8.63766
9.41905
10.1888
10.9104
11.5438
12.0522
12.407
12.589
0.237635
0.24001
0.24478
0.251988
0.261696
0.27399
0.288976
0.306788
0.327585
0.351554
0.378913
0.409911
0.444839
0.484024
0.527843
0.57672
0.63114
0.691653
0.758882
0.833535
0.916418
1.00845
1.11066
1.22426
1.35059
1.49122
1.64791
1.82271
2.01794
2.23627
2.48076
2.75487
3.06257
3.4083
3.79705
4.23429
4.72586
5.27777
5.89575
6.58445
7.3461
8.17849
9.07195
10.0056
10.944
11.8369
12.6263
13.2606
13.7025
13.9287
0.219564
0.221775
0.226218
0.232932
0.241976
0.253432
0.267403
0.284017
0.303424
0.325805
0.351369
0.380358
0.41305
0.449764
0.490864
0.536766
0.587942
0.644933
0.708353
0.778907
0.857395
0.944738
1.04199
1.15036
1.27124
1.40625
1.55723
1.72636
1.91611
2.1294
2.3696
2.64064
2.94708
3.29421
3.68813
4.13584
4.64523
5.22506
5.88463
6.63321
7.47867
8.42508
9.46839
10.5898
11.7472
12.8694
13.8662
14.664
15.216
15.4971
0.200204
0.202236
0.206316
0.212483
0.220792
0.23132
0.244164
0.259444
0.277301
0.297907
0.321459
0.348185
0.378351
0.412259
0.450256
0.492741
0.540168
0.593057
0.652005
0.717693
0.790907
0.87255
0.963665
1.06546
1.17932
1.30689
1.45006
1.61105
1.79246
1.99738
2.22941
2.49286
2.79279
3.13524
3.52737
3.97768
4.49618
5.09464
5.78659
6.58719
7.51243
8.57692
9.78893
11.1402
12.5876
14.0296
15.3074
16.3154
17.0025
17.349
0.179652
0.181487
0.185172
0.190743
0.19825
0.207765
0.219375
0.233193
0.24935
0.268002
0.289333
0.313556
0.340917
0.371698
0.406224
0.444868
0.488057
0.536281
0.590105
0.650179
0.717251
0.792189
0.875998
0.969849
1.07511
1.19338
1.32654
1.47683
1.64688
1.83983
2.05945
2.31025
2.59768
2.92832
3.31021
3.75312
4.26902
4.87258
5.58177
6.41846
7.40888
8.58317
9.97218
11.5965
13.4355
15.356
17.0204
18.2896
19.1317
19.5494
0.158015
0.159638
0.162898
0.167827
0.174471
0.182892
0.193171
0.205409
0.219723
0.236256
0.255174
0.276669
0.300964
0.328318
0.359025
0.393427
0.431914
0.474939
0.523021
0.576761
0.636856
0.704115
0.779481
0.864058
0.959143
1.06626
1.18724
1.32421
1.47978
1.65705
1.85977
2.09251
2.36086
2.67172
3.03361
3.45718
3.95584
4.54656
5.25112
6.09769
7.12319
8.37646
9.92188
11.8398
14.2038
16.9403
19.1302
20.6929
21.6871
22.1694
0.135411
0.136809
0.139619
0.143865
0.149588
0.156844
0.165704
0.176253
0.188597
0.20286
0.219188
0.23775
0.258743
0.282394
0.308964
0.338755
0.372115
0.409445
0.45121
0.497948
0.550284
0.608949
0.674797
0.748833
0.832243
0.926432
1.03308
1.1542
1.29221
1.45006
1.63133
1.84045
2.08288
2.36544
2.69671
3.08757
3.55201
4.10816
4.77994
5.59949
6.61125
7.87911
9.50064
11.6386
14.6011
19.0728
21.8689
23.6663
24.756
25.2732
0.11197
0.113132
0.115467
0.118995
0.123749
0.129777
0.137138
0.145905
0.156167
0.168027
0.18161
0.197059
0.214539
0.234243
0.256394
0.281246
0.309098
0.340291
0.375222
0.414355
0.458227
0.507467
0.562818
0.625151
0.695504
0.775109
0.865448
0.968304
1.08584
1.22071
1.37615
1.55621
1.76591
2.01161
2.30139
2.64559
3.0577
3.55538
4.16224
4.91037
5.8445
7.02941
8.56424
10.6142
13.4907
17.882
20.6079
22.3486
23.3987
23.8955
0.0878297
0.0887463
0.0905885
0.0933678
0.097112
0.101858
0.107655
0.11456
0.122643
0.13199
0.142696
0.154877
0.168666
0.184217
0.201706
0.221341
0.243358
0.268035
0.29569
0.326698
0.361494
0.40059
0.44459
0.494205
0.550287
0.61385
0.686116
0.768567
0.863008
0.971655
1.09725
1.24323
1.41388
1.61467
1.8526
2.13671
2.47881
2.89444
3.40433
4.03629
4.82803
5.83085
7.11379
8.76447
10.8664
13.358
15.333
16.7227
17.5959
18.0159
0.0631346
0.0637961
0.0651328
0.0671394
0.0698396
0.0732618
0.0774411
0.0824201
0.08825
0.0949917
0.102717
0.111508
0.121463
0.132693
0.145328
0.159519
0.17544
0.193293
0.213313
0.235775
0.260999
0.289363
0.321314
0.357379
0.398189
0.444503
0.497232
0.557488
0.62663
0.706333
0.79868
0.906279
1.03243
1.18133
1.35839
1.57061
1.82716
2.14005
2.52513
3.00323
3.60131
4.35299
5.29644
6.46434
7.85329
9.35136
10.6442
11.6143
12.247
12.5571
0.0380373
0.0384243
0.0392332
0.0404458
0.0420764
0.0441425
0.0466656
0.0496717
0.053192
0.0572634
0.0619292
0.0672401
0.0732551
0.0800423
0.0876808
0.0962623
0.105893
0.116696
0.128816
0.142419
0.157703
0.1749
0.194282
0.216175
0.240968
0.269128
0.301221
0.337933
0.38011
0.428796
0.485291
0.55123
0.628684
0.7203
0.82949
0.960681
1.11965
1.31395
1.55342
1.85072
2.22152
2.68388
3.25516
3.94367
4.73161
5.55058
6.27855
6.84375
7.22138
7.40892
0.0127038
0.0128252
0.0130934
0.0134985
0.0140437
0.0147344
0.015578
0.016583
0.01776
0.0191213
0.0206816
0.0224577
0.0244695
0.0267398
0.0292953
0.0321667
0.0353896
0.0390057
0.0430632
0.0476185
0.052738
0.0584996
0.0649956
0.0723359
0.0806516
0.0901007
0.100874
0.113206
0.127382
0.143757
0.162773
0.184986
0.211104
0.24203
0.27893
0.323317
0.377162
0.443036
0.524264
0.625061
0.750524
0.906247
1.09703
1.32396
1.5793
1.84116
2.07613
2.26117
2.38621
2.44872
)
;

boundaryField
{
    walls
    {
        type            calculated;
        value           nonuniform List<scalar> 
200
(
0
0
0
0
0
0
0
0
0
0
0
0
0
0
0
0
0
0
0
0
0
0
0
0
0
0
0
0
0
0
0
0
0
0
0
0
0
0
0
0
0
0
0
0
0
0
0
0
0
0
0.00847704
0.0254004
0.0422831
0.0591163
0.0758559
0.0924731
0.108937
0.125216
0.141274
0.157074
0.172575
0.187734
0.202503
0.216834
0.230672
0.243961
0.256643
0.268654
0.27993
0.290403
0.300006
0.308666
0.316315
0.322882
0.328296
0.33249
0.335398
0.336959
0.337116
0.335818
0.33302
0.328686
0.322787
0.315306
0.306236
0.295581
0.283357
0.269594
0.254334
0.237635
0.219564
0.200204
0.179652
0.158015
0.135411
0.11197
0.0878297
0.0631346
0.0380373
0.0127038
0.0542608
0.163019
0.27251
0.383242
0.495715
0.610437
0.727925
0.848707
0.973327
1.10234
1.23634
1.37592
1.52172
1.6744
1.83468
2.00331
2.18111
2.36896
2.56781
2.77871
3.00282
3.24144
3.49601
3.76816
4.05977
4.37296
4.71021
5.0744
5.46891
5.89775
6.36572
6.87858
7.44337
8.0687
8.76524
9.54634
10.4288
11.4339
12.589
13.9287
15.4971
17.349
19.5494
22.1694
25.2732
23.8955
18.0159
12.5571
7.40892
2.44872
0
0
0
0
0
0
0
0
0
0
0
0
0
0
0
0
0
0
0
0
0
0
0
0
0
0
0
0
0
0
0
0
0
0
0
0
0
0
0
0
0
0
0
0
0
0
0
0
0
0
)
;
    }
    frontAndBack
    {
        type            empty;
    }
}


// ************************************************************************* //
