/*--------------------------------*- C++ -*----------------------------------*\
| =========                 |                                                 |
| \\      /  F ield         | OpenFOAM: The Open Source CFD Toolbox           |
|  \\    /   O peration     | Version:  2406                                  |
|   \\  /    A nd           | Website:  www.openfoam.com                      |
|    \\/     M anipulation  |                                                 |
\*---------------------------------------------------------------------------*/
FoamFile
{
    version     2.0;
    format      ascii;
    arch        "LSB;label=32;scalar=64";
    class       volScalarField;
    location    "1.75";
    object      T;
}
// * * * * * * * * * * * * * * * * * * * * * * * * * * * * * * * * * * * * * //

dimensions      [0 0 0 1 0 0 0];

internalField   nonuniform List<scalar> 
2500
(
0.258603
0.258942
0.259619
0.260634
0.261984
0.263668
0.265683
0.268025
0.270692
0.273676
0.276975
0.280579
0.284484
0.28868
0.293157
0.297906
0.302916
0.308172
0.313662
0.319369
0.325278
0.33137
0.337625
0.344022
0.35054
0.357154
0.36384
0.37057
0.377318
0.384055
0.390751
0.397375
0.403898
0.410287
0.41651
0.422536
0.428333
0.433871
0.439117
0.444044
0.448623
0.452827
0.456631
0.460013
0.462951
0.465429
0.46743
0.468942
0.469956
0.470464
0.258942
0.259284
0.259965
0.260987
0.262346
0.264042
0.266071
0.26843
0.271114
0.27412
0.277442
0.281073
0.285005
0.289232
0.293742
0.298527
0.303574
0.308871
0.314403
0.320155
0.326111
0.332251
0.338557
0.345008
0.35158
0.35825
0.364993
0.371782
0.378589
0.385386
0.392142
0.398828
0.405411
0.41186
0.418142
0.424226
0.430079
0.43567
0.440969
0.445944
0.450569
0.454815
0.458658
0.462075
0.465044
0.467547
0.469569
0.471097
0.472121
0.472634
0.259619
0.259965
0.260656
0.261691
0.26307
0.264788
0.266845
0.269237
0.271959
0.275007
0.278375
0.282058
0.286047
0.290335
0.294912
0.299768
0.304891
0.310268
0.315885
0.321726
0.327776
0.334014
0.340422
0.346978
0.35366
0.360442
0.3673
0.374206
0.381133
0.38805
0.394928
0.401735
0.408439
0.415008
0.421409
0.427609
0.433575
0.439275
0.444677
0.449751
0.454468
0.4588
0.462721
0.466207
0.469237
0.471792
0.473855
0.475415
0.476461
0.476984
0.260634
0.260987
0.261691
0.262748
0.264154
0.265907
0.268006
0.270447
0.273225
0.276336
0.279775
0.283536
0.28761
0.29199
0.296666
0.301629
0.306866
0.312364
0.318109
0.324085
0.330275
0.336662
0.343223
0.349938
0.356784
0.363735
0.370766
0.377849
0.384956
0.392055
0.399116
0.406106
0.412993
0.419744
0.426323
0.432698
0.438834
0.444698
0.450257
0.45548
0.460337
0.464798
0.468836
0.472427
0.475549
0.478182
0.480309
0.481917
0.482995
0.483535
0.261984
0.262346
0.26307
0.264154
0.265597
0.267397
0.269552
0.272058
0.274911
0.278107
0.28164
0.285505
0.289693
0.294196
0.299005
0.304111
0.3095
0.315159
0.321076
0.327232
0.333612
0.340195
0.346962
0.353891
0.360957
0.368135
0.375398
0.382719
0.390066
0.397409
0.404716
0.411953
0.419086
0.42608
0.432899
0.439509
0.445874
0.45196
0.45773
0.463154
0.468198
0.472833
0.47703
0.480763
0.484009
0.486747
0.488959
0.490631
0.491752
0.492314
0.263668
0.264042
0.264788
0.265907
0.267397
0.269256
0.27148
0.274068
0.277016
0.280318
0.283969
0.287964
0.292294
0.296952
0.301929
0.307213
0.312793
0.318656
0.324787
0.33117
0.337787
0.344619
0.351645
0.358841
0.366185
0.373648
0.381204
0.388824
0.396475
0.404126
0.411743
0.41929
0.426734
0.434035
0.441159
0.448066
0.454721
0.461086
0.467124
0.472801
0.478084
0.482939
0.487337
0.491249
0.494652
0.497523
0.499843
0.501597
0.502774
0.503363
0.265683
0.266071
0.266845
0.268006
0.269552
0.27148
0.27379
0.276476
0.279537
0.282966
0.28676
0.290911
0.295413
0.300258
0.305435
0.310935
0.316746
0.322854
0.329244
0.3359
0.342804
0.349936
0.357274
0.364796
0.372474
0.380283
0.388194
0.396175
0.404195
0.412219
0.420212
0.428138
0.435958
0.443634
0.451126
0.458396
0.465403
0.472108
0.478473
0.48446
0.490032
0.495156
0.499798
0.503931
0.507525
0.510559
0.513011
0.514865
0.516109
0.516732
0.268025
0.26843
0.269237
0.270447
0.272058
0.274068
0.276476
0.279278
0.282471
0.28605
0.29001
0.294345
0.299048
0.304111
0.309524
0.315277
0.321358
0.327753
0.334448
0.341425
0.348666
0.356151
0.363857
0.37176
0.379834
0.38805
0.396379
0.404787
0.413242
0.421707
0.430145
0.438517
0.446784
0.454903
0.462833
0.470532
0.477957
0.485066
0.491818
0.498172
0.50409
0.509533
0.514467
0.518861
0.522684
0.525911
0.52852
0.530493
0.531817
0.53248
0.270692
0.271114
0.271959
0.273225
0.274911
0.277016
0.279537
0.282471
0.285816
0.289566
0.293716
0.298262
0.303196
0.308509
0.314193
0.320237
0.326629
0.333355
0.3404
0.347747
0.355377
0.363268
0.371399
0.379743
0.388273
0.39696
0.405772
0.414675
0.423634
0.43261
0.441564
0.450455
0.45924
0.467874
0.476313
0.484512
0.492424
0.500005
0.507208
0.513992
0.520312
0.526129
0.531404
0.536103
0.540193
0.543647
0.54644
0.548552
0.54997
0.55068
0.273676
0.27412
0.275007
0.276336
0.278107
0.280318
0.282966
0.28605
0.289566
0.293509
0.297875
0.302659
0.307853
0.31345
0.319441
0.325814
0.332558
0.339659
0.347101
0.354868
0.362939
0.371292
0.379905
0.388751
0.397801
0.407024
0.416387
0.425855
0.43539
0.44495
0.454495
0.46398
0.473358
0.482584
0.491607
0.50038
0.508852
0.516975
0.524699
0.531976
0.538761
0.545009
0.550677
0.555729
0.560128
0.563843
0.566849
0.569123
0.570648
0.571413
0.276975
0.277442
0.278375
0.279775
0.28164
0.283969
0.28676
0.29001
0.293716
0.297875
0.302482
0.307532
0.313017
0.318931
0.325264
0.332005
0.339144
0.346664
0.354552
0.362789
0.371355
0.380227
0.389382
0.398792
0.408427
0.418255
0.42824
0.438346
0.448531
0.458752
0.468965
0.479123
0.489175
0.499071
0.508759
0.518184
0.527294
0.536034
0.544352
0.552193
0.559508
0.566248
0.572366
0.577821
0.582573
0.586589
0.589838
0.592297
0.593946
0.594774
0.280579
0.281073
0.282058
0.283536
0.285505
0.287964
0.290911
0.294345
0.298262
0.302659
0.307532
0.312875
0.318683
0.324947
0.331659
0.338808
0.346383
0.354369
0.362751
0.371511
0.380627
0.390077
0.399836
0.409875
0.420163
0.430666
0.441347
0.452165
0.463079
0.474041
0.485005
0.495918
0.506729
0.51738
0.527816
0.537978
0.547808
0.557247
0.566235
0.574715
0.582632
0.58993
0.596559
0.602472
0.607626
0.611982
0.615508
0.618177
0.619968
0.620867
0.284484
0.285005
0.286047
0.28761
0.289693
0.292294
0.295413
0.299048
0.303196
0.307853
0.313017
0.318683
0.324843
0.331492
0.33862
0.346218
0.354273
0.362772
0.371698
0.381034
0.390757
0.400846
0.411272
0.422007
0.433018
0.444269
0.455722
0.467333
0.479057
0.490845
0.502645
0.514403
0.52606
0.537557
0.548832
0.55982
0.570459
0.580682
0.590425
0.599625
0.608219
0.616147
0.623353
0.629784
0.635392
0.640134
0.643973
0.64688
0.648832
0.64981
0.28868
0.289232
0.290335
0.29199
0.294196
0.296952
0.300258
0.304111
0.308509
0.31345
0.318931
0.324947
0.331492
0.33856
0.346142
0.354229
0.362809
0.371868
0.38139
0.391356
0.401745
0.412533
0.423693
0.435193
0.447001
0.459077
0.471381
0.483868
0.496489
0.509191
0.52192
0.534615
0.547214
0.559652
0.571861
0.583772
0.595314
0.606415
0.617004
0.627011
0.636365
0.645001
0.652856
0.659869
0.665988
0.671165
0.675358
0.678534
0.680666
0.681735
0.293157
0.293742
0.294912
0.296666
0.299005
0.301929
0.305435
0.309524
0.314193
0.319441
0.325264
0.331659
0.33862
0.346142
0.354217
0.362834
0.371984
0.381652
0.391822
0.402475
0.41359
0.425142
0.437102
0.44944
0.462119
0.4751
0.488339
0.501789
0.515397
0.529108
0.542861
0.556593
0.570234
0.583716
0.596963
0.609899
0.622447
0.634527
0.646061
0.656969
0.667175
0.676603
0.685185
0.692852
0.699546
0.705211
0.709802
0.713279
0.715615
0.716786
0.297906
0.298527
0.299768
0.301629
0.304111
0.307213
0.310935
0.315277
0.320237
0.325814
0.332005
0.338808
0.346218
0.354229
0.362834
0.372025
0.38179
0.392116
0.402987
0.414385
0.426287
0.438669
0.451501
0.46475
0.47838
0.492349
0.50661
0.521114
0.535805
0.550623
0.565503
0.580377
0.595169
0.609804
0.624199
0.638272
0.651937
0.665105
0.67769
0.689603
0.700759
0.711074
0.720468
0.728868
0.736205
0.742419
0.747455
0.751272
0.753836
0.755123
0.302916
0.303574
0.304891
0.306866
0.3095
0.312793
0.316746
0.321358
0.326629
0.332558
0.339144
0.346383
0.354273
0.362809
0.371984
0.38179
0.392217
0.403251
0.414878
0.427079
0.439832
0.453111
0.466886
0.481124
0.495786
0.51083
0.526205
0.54186
0.557734
0.573764
0.58988
0.606007
0.622065
0.63797
0.653634
0.668964
0.683865
0.698241
0.711993
0.725024
0.737239
0.748542
0.758845
0.768064
0.776122
0.782949
0.788486
0.792683
0.795503
0.796919
0.308172
0.308871
0.310268
0.312364
0.315159
0.318656
0.322854
0.327753
0.333355
0.339659
0.346664
0.354369
0.362772
0.371868
0.381652
0.392116
0.403251
0.415046
0.427484
0.440547
0.454215
0.468461
0.483254
0.498561
0.51434
0.530548
0.547133
0.564038
0.581202
0.598554
0.616021
0.633522
0.65097
0.668272
0.685332
0.702049
0.718317
0.73403
0.749078
0.763352
0.776744
0.789149
0.800466
0.8106
0.819464
0.826978
0.833075
0.837699
0.840807
0.842367
0.313662
0.314403
0.315885
0.318109
0.321076
0.324787
0.329244
0.334448
0.3404
0.347101
0.354552
0.362751
0.371698
0.38139
0.391822
0.402987
0.414878
0.427484
0.440789
0.454777
0.469425
0.484709
0.500597
0.517054
0.534039
0.551505
0.569399
0.587661
0.606225
0.625018
0.643959
0.66296
0.681929
0.700765
0.719361
0.737605
0.755383
0.772574
0.789057
0.80471
0.819412
0.833045
0.845493
0.856649
0.866413
0.874697
0.881422
0.886525
0.889955
0.891677
0.319369
0.320155
0.321726
0.324085
0.327232
0.33117
0.3359
0.341425
0.347747
0.354868
0.362789
0.371511
0.381034
0.391356
0.402475
0.414385
0.427079
0.440547
0.454777
0.46975
0.485446
0.50184
0.518901
0.536594
0.554875
0.573697
0.593005
0.612734
0.632817
0.653173
0.673718
0.694357
0.714989
0.735503
0.755785
0.775711
0.795153
0.813977
0.83205
0.849234
0.865391
0.88039
0.894099
0.906397
0.91717
0.926315
0.933744
0.939383
0.943175
0.94508
0.325278
0.326111
0.327776
0.330275
0.333612
0.337787
0.342804
0.348666
0.355377
0.362939
0.371355
0.380627
0.390757
0.401745
0.41359
0.426287
0.439832
0.454215
0.469425
0.485446
0.502259
0.519837
0.538152
0.557166
0.576838
0.597117
0.617946
0.639259
0.660983
0.683034
0.705321
0.727743
0.750189
0.772541
0.794671
0.816445
0.83772
0.858348
0.87818
0.897061
0.914837
0.931356
0.946473
0.960047
0.971947
0.982058
0.990276
0.996518
1.00072
1.00283
0.33137
0.332251
0.334014
0.336662
0.340195
0.344619
0.349936
0.356151
0.363268
0.371292
0.380227
0.390077
0.400846
0.412533
0.425142
0.438669
0.453111
0.468461
0.484709
0.50184
0.519837
0.538675
0.558325
0.578751
0.59991
0.62175
0.644213
0.667231
0.690725
0.71461
0.738785
0.763144
0.787568
0.811927
0.836082
0.859884
0.883177
0.905797
0.927575
0.948338
0.967913
0.986127
1.00281
1.01781
1.03098
1.04217
1.05128
1.0582
1.06285
1.06519
0.337625
0.338557
0.340422
0.343223
0.346962
0.351645
0.357274
0.363857
0.371399
0.379905
0.389382
0.399836
0.411272
0.423693
0.437102
0.451501
0.466886
0.483254
0.500597
0.518901
0.538152
0.558325
0.579394
0.601321
0.624066
0.647575
0.671789
0.696637
0.722038
0.7479
0.77412
0.800582
0.827157
0.853705
0.880075
0.906104
0.931618
0.956435
0.980366
1.00322
1.02479
1.0449
1.06334
1.07994
1.09452
1.10693
1.11703
1.12471
1.12988
1.13248
0.344022
0.345008
0.346978
0.349938
0.353891
0.358841
0.364796
0.37176
0.379743
0.388751
0.398792
0.409875
0.422007
0.435193
0.44944
0.46475
0.481124
0.498561
0.517054
0.536594
0.557166
0.578751
0.601321
0.624843
0.649274
0.674562
0.700647
0.727456
0.754906
0.782899
0.811327
0.840066
0.868978
0.897913
0.926705
0.955175
0.983132
1.01037
1.03669
1.06186
1.08566
1.10787
1.12828
1.14666
1.16284
1.17662
1.18784
1.19639
1.20214
1.20503
0.35054
0.35158
0.35366
0.356784
0.360957
0.366185
0.372474
0.379834
0.388273
0.397801
0.408427
0.420163
0.433018
0.447001
0.462119
0.47838
0.495786
0.51434
0.534039
0.554875
0.576838
0.59991
0.624066
0.649274
0.675493
0.702673
0.730753
0.759658
0.789303
0.819587
0.850396
0.881598
0.913048
0.944581
0.976018
1.00716
1.03781
1.06772
1.09667
1.12442
1.1507
1.17527
1.19787
1.21827
1.23624
1.25156
1.26406
1.27357
1.27998
1.28321
0.357154
0.35825
0.360442
0.363735
0.368135
0.373648
0.380283
0.38805
0.39696
0.407024
0.418255
0.430666
0.444269
0.459077
0.4751
0.492349
0.51083
0.530548
0.551505
0.573697
0.597117
0.62175
0.647575
0.674562
0.702673
0.731859
0.762059
0.7932
0.825193
0.857935
0.891306
0.925169
0.959367
0.993725
1.02805
1.06213
1.09572
1.12859
1.16046
1.19106
1.22011
1.24731
1.27238
1.29505
1.31503
1.3321
1.34604
1.35666
1.36382
1.36742
0.36384
0.364993
0.3673
0.370766
0.375398
0.381204
0.388194
0.396379
0.405772
0.416387
0.42824
0.441347
0.455722
0.471381
0.488339
0.50661
0.526205
0.547133
0.569399
0.593005
0.617946
0.644213
0.671789
0.700647
0.730753
0.762059
0.794508
0.828025
0.862523
0.897896
0.934019
0.97075
1.00792
1.04535
1.08282
1.12011
1.15695
1.19307
1.22818
1.26196
1.29409
1.32425
1.3521
1.37731
1.39959
1.41863
1.4342
1.44608
1.45409
1.45813
0.37057
0.371782
0.374206
0.377849
0.382719
0.388824
0.396175
0.404787
0.414675
0.425855
0.438346
0.452165
0.467333
0.483868
0.501789
0.521114
0.54186
0.564038
0.587661
0.612734
0.639259
0.667231
0.696637
0.727456
0.759658
0.7932
0.828025
0.864063
0.901227
0.939409
0.978483
1.0183
1.05868
1.09944
1.14034
1.18113
1.22154
1.26126
1.29995
1.33728
1.37286
1.40633
1.4373
1.4654
1.49027
1.51157
1.529
1.54231
1.5513
1.55583
0.377318
0.378589
0.381133
0.384956
0.390066
0.396475
0.404195
0.413242
0.423634
0.43539
0.448531
0.463079
0.479057
0.496489
0.515397
0.535805
0.557734
0.581202
0.606225
0.632817
0.660983
0.690725
0.722038
0.754906
0.789303
0.825193
0.862523
0.901227
0.941219
0.982393
1.02462
1.06775
1.1116
1.15596
1.20059
1.24522
1.28955
1.33323
1.3759
1.41717
1.45662
1.49382
1.52832
1.55969
1.58751
1.61138
1.63094
1.6459
1.65601
1.6611
0.384055
0.385386
0.38805
0.392055
0.397409
0.404126
0.412219
0.421707
0.43261
0.44495
0.458752
0.474041
0.490845
0.509191
0.529108
0.550623
0.573764
0.598554
0.625018
0.653173
0.683034
0.71461
0.7479
0.782899
0.819587
0.857935
0.897896
0.939409
0.982393
1.02675
1.07234
1.11902
1.16659
1.21485
1.26354
1.31236
1.36098
1.40904
1.45613
1.5018
1.54558
1.58697
1.62547
1.66057
1.69176
1.71857
1.74058
1.75744
1.76884
1.77459
0.390751
0.392142
0.394928
0.399116
0.404716
0.411743
0.420212
0.430145
0.441564
0.454495
0.468965
0.485005
0.502645
0.52192
0.542861
0.565503
0.58988
0.616021
0.643959
0.673718
0.705321
0.738785
0.77412
0.811327
0.850396
0.891306
0.934019
0.978483
1.02462
1.07234
1.12151
1.17198
1.22356
1.27602
1.3291
1.3825
1.43584
1.48873
1.54071
1.5913
1.63994
1.68608
1.72912
1.76846
1.80351
1.83371
1.85856
1.8776
1.8905
1.89701
0.397375
0.398828
0.401735
0.406106
0.411953
0.41929
0.428138
0.438517
0.450455
0.46398
0.479123
0.495918
0.514403
0.534615
0.556593
0.580377
0.606007
0.633522
0.66296
0.694357
0.727743
0.763144
0.800582
0.840066
0.881598
0.925169
0.97075
1.0183
1.06775
1.11902
1.17198
1.22648
1.28235
1.33934
1.39718
1.45555
1.51407
1.57228
1.62971
1.68578
1.7399
1.79141
1.83962
1.88382
1.92332
1.95744
1.98557
2.00717
2.02182
2.02922
0.403898
0.405411
0.408439
0.412993
0.419086
0.426734
0.435958
0.446784
0.45924
0.473358
0.489175
0.506729
0.52606
0.547214
0.570234
0.595169
0.622065
0.65097
0.681929
0.714989
0.750189
0.787568
0.827157
0.868978
0.913048
0.959367
1.00792
1.05868
1.1116
1.16659
1.22356
1.28235
1.34278
1.40464
1.46762
1.5314
1.59558
1.65967
1.72313
1.78535
1.84563
1.90323
1.95735
2.00714
2.05178
2.09046
2.12242
2.14701
2.16371
2.17216
0.410287
0.41186
0.415008
0.419744
0.42608
0.434035
0.443634
0.454903
0.467874
0.482584
0.499071
0.51738
0.537557
0.559652
0.583716
0.609804
0.63797
0.668272
0.700765
0.735503
0.772541
0.811927
0.853705
0.897913
0.944581
0.993725
1.04535
1.09944
1.15596
1.21485
1.27602
1.33934
1.40464
1.47169
1.54021
1.60986
1.68022
1.75078
1.82094
1.89003
1.95727
2.0218
2.08268
2.13894
2.18955
2.23355
2.27002
2.29814
2.31727
2.32695
0.41651
0.418142
0.421409
0.426323
0.432899
0.441159
0.451126
0.462833
0.476313
0.491607
0.508759
0.527816
0.548832
0.571861
0.596963
0.624199
0.653634
0.685332
0.719361
0.755785
0.794671
0.836082
0.880075
0.926705
0.976018
1.02805
1.08282
1.14034
1.20059
1.26354
1.3291
1.39718
1.46762
1.54021
1.61468
1.69067
1.76777
1.84544
1.92304
1.99982
2.07492
2.14735
2.21601
2.27975
2.33736
2.38762
2.42941
2.46173
2.48375
2.49491
0.422536
0.424226
0.427609
0.432698
0.439509
0.448066
0.458396
0.470532
0.484512
0.50038
0.518184
0.537978
0.55982
0.583772
0.609899
0.638272
0.668964
0.702049
0.737605
0.775711
0.816445
0.859884
0.906104
0.955175
1.00716
1.06213
1.12011
1.18113
1.24522
1.31236
1.3825
1.45555
1.5314
1.60986
1.69067
1.7735
1.85792
1.94338
2.02921
2.1146
2.19859
2.28004
2.35769
2.43016
2.49598
2.55367
2.6018
2.63913
2.66463
2.67756
0.428333
0.430079
0.433575
0.438834
0.445874
0.454721
0.465403
0.477957
0.492424
0.508852
0.527294
0.547808
0.570459
0.595314
0.622447
0.651937
0.683865
0.718317
0.755383
0.795153
0.83772
0.883177
0.931618
0.983132
1.03781
1.09572
1.15695
1.22154
1.28955
1.36098
1.43584
1.51407
1.59558
1.68022
1.76777
1.85792
1.95026
2.04424
2.13916
2.23417
2.3282
2.41998
2.50805
2.59074
2.66628
2.73282
2.78859
2.83197
2.86167
2.87676
0.433871
0.43567
0.439275
0.444698
0.45196
0.461086
0.472108
0.485066
0.500005
0.516975
0.536034
0.557247
0.580682
0.606415
0.634527
0.665105
0.698241
0.73403
0.772574
0.813977
0.858348
0.905797
0.956435
1.01037
1.06772
1.12859
1.19307
1.26126
1.33323
1.40904
1.48873
1.57228
1.65967
1.75078
1.84544
1.94338
2.04424
2.14748
2.25242
2.35815
2.46353
2.56715
2.66731
2.76205
2.84917
2.92638
2.99139
3.04216
3.07699
3.09471
0.439117
0.440969
0.444677
0.450257
0.45773
0.467124
0.478473
0.491818
0.507208
0.524699
0.544352
0.566235
0.590425
0.617004
0.646061
0.67769
0.711993
0.749078
0.789057
0.83205
0.87818
0.927575
0.980366
1.03669
1.09667
1.16046
1.22818
1.29995
1.3759
1.45613
1.54071
1.62971
1.72313
1.82094
1.92304
2.02921
2.13916
2.25242
2.36831
2.48595
2.60414
2.72134
2.83561
2.94461
3.04565
3.13581
3.21214
3.27198
3.31315
3.33412
0.444044
0.445944
0.449751
0.45548
0.463154
0.472801
0.48446
0.498172
0.513992
0.531976
0.552193
0.574715
0.599625
0.627011
0.656969
0.689603
0.725024
0.763352
0.80471
0.849234
0.897061
0.948338
1.00322
1.06186
1.12442
1.19106
1.26196
1.33728
1.41717
1.5018
1.5913
1.68578
1.78535
1.89003
1.99982
2.1146
2.23417
2.35815
2.48595
2.61675
2.74933
2.88207
3.01282
3.13881
3.25673
3.36279
3.45314
3.52424
3.57327
3.59827
0.448623
0.450569
0.454468
0.460337
0.468198
0.478084
0.490032
0.50409
0.520312
0.538761
0.559508
0.582632
0.608219
0.636365
0.667175
0.700759
0.737239
0.776744
0.819412
0.865391
0.914837
0.967913
1.02479
1.08566
1.1507
1.22011
1.29409
1.37286
1.45662
1.54558
1.63994
1.7399
1.84563
1.95727
2.07492
2.19859
2.3282
2.46353
2.60414
2.74933
2.89799
3.04848
3.19848
3.34483
3.48341
3.60928
3.71719
3.8024
3.86124
3.89126
0.452827
0.454815
0.4588
0.464798
0.472833
0.482939
0.495156
0.509533
0.526129
0.545009
0.566248
0.58993
0.616147
0.645001
0.676603
0.711074
0.748542
0.789149
0.833045
0.88039
0.931356
0.986127
1.0449
1.10787
1.17527
1.24731
1.32425
1.40633
1.49382
1.58697
1.68608
1.79141
1.90323
2.0218
2.14735
2.28004
2.41998
2.56715
2.72134
2.88207
3.04848
3.21908
3.39155
3.5624
3.72661
3.87757
4.00779
4.1108
4.18191
4.21816
0.456631
0.458658
0.462721
0.468836
0.47703
0.487337
0.499798
0.514467
0.531404
0.550677
0.572366
0.596559
0.623353
0.652856
0.685185
0.720468
0.758845
0.800466
0.845493
0.894099
0.946473
1.00281
1.06334
1.12828
1.19787
1.27238
1.3521
1.4373
1.52832
1.62547
1.72912
1.83962
1.95735
2.08268
2.21601
2.35769
2.50805
2.66731
2.83561
3.01282
3.19848
3.39155
3.59004
3.79044
3.98692
4.17047
4.32949
4.45502
4.54134
4.58522
0.460013
0.462075
0.466207
0.472427
0.480763
0.491249
0.503931
0.518861
0.536103
0.555729
0.577821
0.602472
0.629784
0.659869
0.692852
0.728868
0.768064
0.8106
0.856649
0.906397
0.960047
1.01781
1.07994
1.14666
1.21827
1.29505
1.37731
1.4654
1.55969
1.66057
1.76846
1.88382
2.00714
2.13894
2.27975
2.43016
2.59074
2.76205
2.94461
3.13881
3.34483
3.5624
3.79044
4.02626
4.26403
4.49181
4.6886
4.84239
4.94718
5.00013
0.462951
0.465044
0.469237
0.475549
0.484009
0.494652
0.507525
0.522684
0.540193
0.560128
0.582573
0.607626
0.635392
0.665988
0.699546
0.736205
0.776122
0.819464
0.866413
0.91717
0.971947
1.03098
1.09452
1.16284
1.23624
1.31503
1.39959
1.49027
1.58751
1.69176
1.80351
1.92332
2.05178
2.18955
2.33736
2.49598
2.66628
2.84917
3.04565
3.25673
3.48341
3.72661
3.98692
4.26403
4.55507
4.84808
5.0947
5.28273
5.40883
5.472
0.465429
0.467547
0.471792
0.478182
0.486747
0.497523
0.510559
0.525911
0.543647
0.563843
0.586589
0.611982
0.640134
0.671165
0.705211
0.742419
0.782949
0.826978
0.874697
0.926315
0.982058
1.04217
1.10693
1.17662
1.25156
1.3321
1.41863
1.51157
1.61138
1.71857
1.83371
1.95744
2.09046
2.23355
2.38762
2.55367
2.73282
2.92638
3.13581
3.36279
3.60928
3.87757
4.17047
4.49181
4.84808
5.25472
5.56336
5.78904
5.93742
6.01106
0.46743
0.469569
0.473855
0.480309
0.488959
0.499843
0.513011
0.52852
0.54644
0.566849
0.589838
0.615508
0.643973
0.675358
0.709802
0.747455
0.788486
0.833075
0.881422
0.933744
0.990276
1.05128
1.11703
1.18784
1.26406
1.34604
1.4342
1.529
1.63094
1.74058
1.85856
1.98557
2.12242
2.27002
2.42941
2.6018
2.78859
2.99139
3.21214
3.45314
3.71719
4.00779
4.32949
4.6886
5.0947
5.56336
5.91901
6.17668
6.34478
6.42782
0.468942
0.471097
0.475415
0.481917
0.490631
0.501597
0.514865
0.530493
0.548552
0.569123
0.592297
0.618177
0.64688
0.678534
0.713279
0.751272
0.792683
0.837699
0.886525
0.939383
0.996518
1.0582
1.12471
1.19639
1.27357
1.35666
1.44608
1.54231
1.6459
1.75744
1.8776
2.00717
2.14701
2.29814
2.46173
2.63913
2.83197
3.04216
3.27198
3.52424
3.8024
4.1108
4.45502
4.84239
5.28273
5.78904
6.17668
6.45795
6.64125
6.7317
0.469956
0.472121
0.476461
0.482995
0.491752
0.502774
0.516109
0.531817
0.54997
0.570648
0.593946
0.619968
0.648832
0.680666
0.715615
0.753836
0.795503
0.840807
0.889955
0.943175
1.00072
1.06285
1.12988
1.20214
1.27998
1.36382
1.45409
1.5513
1.65601
1.76884
1.8905
2.02182
2.16371
2.31727
2.48375
2.66463
2.86167
3.07699
3.31315
3.57327
3.86124
4.18191
4.54134
4.94718
5.40883
5.93742
6.34478
6.64125
6.83466
6.9301
0.470464
0.472634
0.476984
0.483535
0.492314
0.503363
0.516732
0.53248
0.55068
0.571413
0.594774
0.620867
0.64981
0.681735
0.716786
0.755123
0.796919
0.842367
0.891677
0.94508
1.00283
1.06519
1.13248
1.20503
1.28321
1.36742
1.45813
1.55583
1.6611
1.77459
1.89701
2.02922
2.17216
2.32695
2.49491
2.67756
2.87676
3.09471
3.33412
3.59827
3.89126
4.21816
4.58522
5.00013
5.472
6.01106
6.42782
6.7317
6.9301
7.02805
)
;

boundaryField
{
    walls
    {
        type            zeroGradient;
    }
    frontAndBack
    {
        type            empty;
    }
}


// ************************************************************************* //
