/*--------------------------------*- C++ -*----------------------------------*\
| =========                 |                                                 |
| \\      /  F ield         | OpenFOAM: The Open Source CFD Toolbox           |
|  \\    /   O peration     | Version:  2406                                  |
|   \\  /    A nd           | Website:  www.openfoam.com                      |
|    \\/     M anipulation  |                                                 |
\*---------------------------------------------------------------------------*/
FoamFile
{
    version     2.0;
    format      ascii;
    arch        "LSB;label=32;scalar=64";
    class       volVectorField;
    location    "2.45";
    object      flux;
}
// * * * * * * * * * * * * * * * * * * * * * * * * * * * * * * * * * * * * * //

dimensions      [0 1 -1 1 0 0 0];

internalField   nonuniform List<vector> 
2500
(
(0.00154826 0.00154826 0)
(0.00463791 0.00155518 0)
(0.00771601 0.00156939 0)
(0.010778 0.00159063 0)
(0.0138133 0.00161893 0)
(0.0168141 0.00165431 0)
(0.0197724 0.00169677 0)
(0.0226804 0.00174631 0)
(0.0255298 0.00180294 0)
(0.0283121 0.00186664 0)
(0.0310188 0.0019374 0)
(0.0336413 0.00201519 0)
(0.0361704 0.00209998 0)
(0.0385972 0.00219171 0)
(0.0409124 0.00229031 0)
(0.0431064 0.00239568 0)
(0.0451699 0.00250771 0)
(0.0470931 0.00262625 0)
(0.0488665 0.00275112 0)
(0.0504804 0.00288211 0)
(0.0519253 0.00301895 0)
(0.0531919 0.00316136 0)
(0.054271 0.003309 0)
(0.0551538 0.00346148 0)
(0.0558318 0.00361834 0)
(0.0562973 0.00377911 0)
(0.056543 0.00394323 0)
(0.0565623 0.0041101 0)
(0.0563496 0.00427906 0)
(0.0559001 0.0044494 0)
(0.0552101 0.00462035 0)
(0.0542773 0.00479109 0)
(0.0531003 0.00496076 0)
(0.0516794 0.00512845 0)
(0.0500162 0.00529324 0)
(0.0481139 0.00545415 0)
(0.0459774 0.0056102 0)
(0.0436131 0.0057604 0)
(0.0410291 0.00590376 0)
(0.0382352 0.00603929 0)
(0.0352431 0.00616605 0)
(0.0320656 0.00628311 0)
(0.0287177 0.00638961 0)
(0.0252153 0.00648474 0)
(0.0215761 0.00656778 0)
(0.0178188 0.00663809 0)
(0.0139631 0.00669513 0)
(0.0100296 0.00673848 0)
(0.00603981 0.00676756 0)
(0.0020168 0.00678083 0)
(0.00155518 0.00463791 0)
(0.00465903 0.00465903 0)
(0.00775146 0.00470157 0)
(0.0108276 0.00476525 0)
(0.013877 0.00485014 0)
(0.0168919 0.00495626 0)
(0.0198644 0.00508362 0)
(0.0227866 0.00523225 0)
(0.0256501 0.00540213 0)
(0.0284466 0.00559325 0)
(0.0311674 0.00580556 0)
(0.0338039 0.00603897 0)
(0.036347 0.00629339 0)
(0.0387876 0.00656865 0)
(0.0411163 0.00686454 0)
(0.0433238 0.00718078 0)
(0.0454004 0.00751702 0)
(0.0473365 0.00787281 0)
(0.0491223 0.00824763 0)
(0.0507482 0.00864083 0)
(0.0522046 0.00905166 0)
(0.053482 0.00947923 0)
(0.0545711 0.00992253 0)
(0.0554631 0.0103804 0)
(0.0561495 0.0108515 0)
(0.0566222 0.0113343 0)
(0.056874 0.0118272 0)
(0.0568982 0.0123285 0)
(0.0566889 0.012836 0)
(0.0562414 0.0133478 0)
(0.0555518 0.0138614 0)
(0.0546177 0.0143744 0)
(0.0534376 0.0148843 0)
(0.0520118 0.0153883 0)
(0.0503419 0.0158836 0)
(0.0484309 0.0163672 0)
(0.0462837 0.0168363 0)
(0.0439066 0.0172878 0)
(0.041308 0.0177188 0)
(0.0384975 0.0181263 0)
(0.0354869 0.0185074 0)
(0.0322892 0.0188594 0)
(0.0289193 0.0191797 0)
(0.0253935 0.0194657 0)
(0.0217295 0.0197154 0)
(0.0179461 0.0199268 0)
(0.0140634 0.0200984 0)
(0.010102 0.0202288 0)
(0.00608216 0.020317 0)
(0.00203007 0.0203596 0)
(0.00156939 0.00771601 0)
(0.00470157 0.00775146 0)
(0.00782223 0.00782223 0)
(0.0109266 0.00792834 0)
(0.0140043 0.00806982 0)
(0.0170475 0.00824671 0)
(0.0200484 0.00845903 0)
(0.0229989 0.00870682 0)
(0.0258908 0.00899006 0)
(0.0287155 0.00930872 0)
(0.0314646 0.00966273 0)
(0.0341291 0.010052 0)
(0.0367001 0.0104763 0)
(0.0391684 0.0109354 0)
(0.0415245 0.011429 0)
(0.0437589 0.0119566 0)
(0.0458619 0.0125176 0)
(0.0478237 0.0131113 0)
(0.0496345 0.0137368 0)
(0.0512844 0.0143931 0)
(0.0527637 0.0150789 0)
(0.0540628 0.0157928 0)
(0.0551721 0.016533 0)
(0.0560827 0.0172977 0)
(0.0567858 0.0180845 0)
(0.0572731 0.0188912 0)
(0.0575372 0.0197148 0)
(0.0575711 0.0205525 0)
(0.0573689 0.0214008 0)
(0.0569254 0.0222563 0)
(0.0562368 0.023115 0)
(0.0553002 0.023973 0)
(0.0541141 0.0248257 0)
(0.0526786 0.0256687 0)
(0.0509951 0.0264973 0)
(0.0490667 0.0273066 0)
(0.046898 0.0280916 0)
(0.0444956 0.0288474 0)
(0.0418675 0.0295688 0)
(0.0390239 0.030251 0)
(0.0359762 0.0308891 0)
(0.0327379 0.0314785 0)
(0.029324 0.0320148 0)
(0.0257511 0.0324939 0)
(0.0220372 0.0329121 0)
(0.0182017 0.0332661 0)
(0.014265 0.0335531 0)
(0.0102482 0.0337711 0)
(0.00617063 0.0339183 0)
(0.0020594 0.0339919 0)
(0.00159063 0.010778 0)
(0.00476525 0.0108276 0)
(0.00792834 0.0109266 0)
(0.0110751 0.0110751 0)
(0.0141953 0.0112733 0)
(0.0172811 0.011521 0)
(0.0203246 0.0118184 0)
(0.0233176 0.0121655 0)
(0.026252 0.0125623 0)
(0.0291192 0.0130087 0)
(0.0319107 0.0135047 0)
(0.0346174 0.0140502 0)
(0.0372304 0.0146449 0)
(0.0397403 0.0152884 0)
(0.0421375 0.0159804 0)
(0.0444124 0.0167201 0)
(0.0465551 0.0175069 0)
(0.0485558 0.0183396 0)
(0.0504042 0.0192172 0)
(0.0520903 0.0201381 0)
(0.0536043 0.0211006 0)
(0.054936 0.0221027 0)
(0.056076 0.023142 0)
(0.0570146 0.0242159 0)
(0.057743 0.0253212 0)
(0.0582525 0.0264545 0)
(0.0585353 0.0276121 0)
(0.0585842 0.0287895 0)
(0.0583927 0.0299824 0)
(0.0579556 0.0311855 0)
(0.0572685 0.0323935 0)
(0.0563283 0.0336007 0)
(0.0551334 0.0348008 0)
(0.0536835 0.0359876 0)
(0.0519798 0.0371543 0)
(0.0500252 0.038294 0)
(0.0478244 0.0393998 0)
(0.0453838 0.0404646 0)
(0.0427116 0.0414812 0)
(0.0398178 0.0424428 0)
(0.0367144 0.0433423 0)
(0.0334149 0.0441733 0)
(0.0299347 0.0449295 0)
(0.0262908 0.0456051 0)
(0.0225017 0.0461948 0)
(0.0185872 0.046694 0)
(0.0145685 0.0470986 0)
(0.0104672 0.0474053 0)
(0.00630294 0.0476116 0)
(0.0021036 0.0477151 0)
(0.00161893 0.0138133 0)
(0.00485014 0.013877 0)
(0.00806982 0.0140043 0)
(0.0112733 0.0141953 0)
(0.0144501 0.0144501 0)
(0.0175927 0.0147688 0)
(0.0206929 0.0151514 0)
(0.0237428 0.0155979 0)
(0.026734 0.0161084 0)
(0.029658 0.016683 0)
(0.0325061 0.0173214 0)
(0.0352693 0.0180235 0)
(0.0379384 0.0187892 0)
(0.0405039 0.0196179 0)
(0.0429562 0.0205091 0)
(0.0452854 0.0214621 0)
(0.0474814 0.0224758 0)
(0.049534 0.0235491 0)
(0.051433 0.0246804 0)
(0.0531678 0.0258679 0)
(0.0547283 0.0271095 0)
(0.0561042 0.0284024 0)
(0.0572853 0.0297438 0)
(0.0582619 0.0311301 0)
(0.0590244 0.0325575 0)
(0.059564 0.0340216 0)
(0.0598722 0.0355174 0)
(0.0599414 0.0370394 0)
(0.0597648 0.0385818 0)
(0.0593366 0.040138 0)
(0.0586519 0.041701 0)
(0.0577075 0.0432634 0)
(0.056501 0.0448173 0)
(0.0550321 0.0463542 0)
(0.0533016 0.0478657 0)
(0.0513122 0.0493426 0)
(0.0490686 0.050776 0)
(0.046577 0.0521566 0)
(0.0438457 0.0534751 0)
(0.0408849 0.0547224 0)
(0.0377067 0.0558896 0)
(0.0343251 0.056968 0)
(0.0307558 0.0579495 0)
(0.0270165 0.0588266 0)
(0.0231261 0.0595922 0)
(0.0191055 0.0602403 0)
(0.0149763 0.0607655 0)
(0.0107612 0.0611634 0)
(0.00648039 0.0614307 0)
(0.00216292 0.061565 0)
(0.00165431 0.0168141 0)
(0.00495626 0.0168919 0)
(0.00824671 0.0170475 0)
(0.011521 0.0172811 0)
(0.0147688 0.0175927 0)
(0.0179823 0.0179823 0)
(0.0211537 0.0184502 0)
(0.0242747 0.0189964 0)
(0.027337 0.0196209 0)
(0.0303322 0.0203238 0)
(0.0332513 0.0211051 0)
(0.0360852 0.0219645 0)
(0.0388247 0.0229018 0)
(0.0414602 0.0239166 0)
(0.0439817 0.0250081 0)
(0.0463791 0.0261757 0)
(0.0486422 0.027418 0)
(0.0507604 0.0287337 0)
(0.052723 0.030121 0)
(0.0545194 0.0315777 0)
(0.0561387 0.0331011 0)
(0.0575703 0.0346882 0)
(0.0588037 0.0363354 0)
(0.0598284 0.0380384 0)
(0.0606344 0.0397925 0)
(0.0612123 0.0415924 0)
(0.0615532 0.043432 0)
(0.0616486 0.0453047 0)
(0.0614913 0.0472031 0)
(0.0610748 0.0491193 0)
(0.0603939 0.0510448 0)
(0.0594446 0.0529701 0)
(0.0582242 0.0548857 0)
(0.0567319 0.0567813 0)
(0.0549682 0.058646 0)
(0.0529355 0.0604689 0)
(0.0506383 0.0622386 0)
(0.0480828 0.0639437 0)
(0.0452774 0.0655726 0)
(0.0422323 0.067114 0)
(0.03896 0.0685568 0)
(0.0354749 0.0698902 0)
(0.0317933 0.0711042 0)
(0.0279335 0.0721891 0)
(0.0239154 0.0731363 0)
(0.0197604 0.0739381 0)
(0.0154916 0.0745879 0)
(0.0111325 0.0750802 0)
(0.0067045 0.0754108 0)
(0.00223783 0.0755769 0)
(0.00169677 0.0197724 0)
(0.00508362 0.0198644 0)
(0.00845903 0.0200484 0)
(0.0118184 0.0203246 0)
(0.0151514 0.0206929 0)
(0.0184502 0.0211537 0)
(0.021707 0.021707 0)
(0.0249135 0.0223529 0)
(0.0280614 0.0230917 0)
(0.0311422 0.0239234 0)
(0.0341467 0.024848 0)
(0.037066 0.0258653 0)
(0.0398904 0.0269751 0)
(0.0426102 0.028177 0)
(0.0452153 0.0294702 0)
(0.0476952 0.0308538 0)
(0.0500394 0.0323266 0)
(0.052237 0.033887 0)
(0.0542769 0.0355329 0)
(0.056148 0.0372617 0)
(0.0578389 0.0390706 0)
(0.0593384 0.0409558 0)
(0.0606355 0.0429132 0)
(0.061719 0.0449379 0)
(0.0625784 0.0470244 0)
(0.0632035 0.0491663 0)
(0.0635845 0.0513564 0)
(0.0637126 0.0535871 0)
(0.0635795 0.0558495 0)
(0.0631782 0.0581342 0)
(0.0625027 0.0604309 0)
(0.0615484 0.0627288 0)
(0.0603122 0.065016 0)
(0.0587923 0.0672803 0)
(0.0569892 0.0695088 0)
(0.0549048 0.0716882 0)
(0.0525434 0.073805 0)
(0.049911 0.0758452 0)
(0.0470161 0.0777951 0)
(0.0438691 0.0796409 0)
(0.040483 0.0813692 0)
(0.0368724 0.0829669 0)
(0.0330546 0.0844219 0)
(0.0290486 0.0857225 0)
(0.0248752 0.0868582 0)
(0.0205571 0.0878198 0)
(0.0161184 0.0885992 0)
(0.0115841 0.0891897 0)
(0.00697705 0.0895862 0)
(0.00232894 0.0897853 0)
(0.00174631 0.0226804 0)
(0.00523225 0.0227866 0)
(0.00870682 0.0229989 0)
(0.0121655 0.0233176 0)
(0.0155979 0.0237428 0)
(0.0189964 0.0242747 0)
(0.0223529 0.0249135 0)
(0.0256595 0.0256595 0)
(0.0289075 0.0265128 0)
(0.0320884 0.0274736 0)
(0.0351931 0.028542 0)
(0.0382124 0.0297179 0)
(0.0411364 0.0310011 0)
(0.0439552 0.0323911 0)
(0.0466585 0.0338874 0)
(0.0492356 0.0354889 0)
(0.0516754 0.0371943 0)
(0.0539666 0.0390018 0)
(0.0560977 0.0409092 0)
(0.0580571 0.0429138 0)
(0.0598328 0.045012 0)
(0.061413 0.0472 0)
(0.0627858 0.0494728 0)
(0.0639395 0.0518251 0)
(0.0648628 0.0542504 0)
(0.0655444 0.0567415 0)
(0.065974 0.0592901 0)
(0.0661416 0.0618873 0)
(0.0660384 0.0645229 0)
(0.0656563 0.067186 0)
(0.0649885 0.0698647 0)
(0.0640296 0.0725461 0)
(0.0627757 0.0752165 0)
(0.0612247 0.0778616 0)
(0.0593761 0.0804663 0)
(0.0572317 0.0830149 0)
(0.0547953 0.0854914 0)
(0.052073 0.0878795 0)
(0.0490731 0.0901628 0)
(0.0458064 0.0923252 0)
(0.042286 0.0943506 0)
(0.0385276 0.0962238 0)
(0.0345488 0.09793 0)
(0.0303699 0.0994557 0)
(0.0260127 0.100788 0)
(0.0215014 0.101917 0)
(0.0168614 0.102832 0)
(0.0121195 0.103525 0)
(0.00730017 0.10399 0)
(0.00243696 0.104224 0)
(0.00180294 0.0255298 0)
(0.00540213 0.0256501 0)
(0.00899006 0.0258908 0)
(0.0125623 0.026252 0)
(0.0161084 0.026734 0)
(0.0196209 0.027337 0)
(0.0230917 0.0280614 0)
(0.0265128 0.0289075 0)
(0.0298756 0.0298756 0)
(0.0331714 0.0309659 0)
(0.036391 0.0321786 0)
(0.0395251 0.0335137 0)
(0.0425637 0.0349712 0)
(0.0454966 0.0365507 0)
(0.0483131 0.0382516 0)
(0.0510021 0.0400728 0)
(0.0535523 0.042013 0)
(0.0559519 0.0440705 0)
(0.0581889 0.0462427 0)
(0.0602507 0.0485267 0)
(0.0621251 0.0509188 0)
(0.0637993 0.0534146 0)
(0.0652606 0.0560088 0)
(0.0664966 0.0586952 0)
(0.0674948 0.0614667 0)
(0.0682432 0.0643151 0)
(0.0687303 0.0672312 0)
(0.0689454 0.0702047 0)
(0.0688782 0.0732241 0)
(0.06852 0.076277 0)
(0.0678628 0.0793496 0)
(0.0669003 0.0824274 0)
(0.0656277 0.0854944 0)
(0.0640421 0.0885342 0)
(0.0621424 0.0915293 0)
(0.0599299 0.0944616 0)
(0.0574079 0.0973125 0)
(0.0545824 0.100063 0)
(0.0514617 0.102694 0)
(0.0480569 0.105187 0)
(0.0443816 0.107524 0)
(0.0404519 0.109685 0)
(0.0362866 0.111654 0)
(0.0319069 0.113416 0)
(0.0273363 0.114955 0)
(0.0226003 0.116259 0)
(0.0177263 0.117316 0)
(0.0127428 0.118117 0)
(0.00767634 0.118655 0)
(0.00256272 0.118925 0)
(0.00186664 0.0283121 0)
(0.00559325 0.0284466 0)
(0.00930872 0.0287155 0)
(0.0130087 0.0291192 0)
(0.016683 0.029658 0)
(0.0203238 0.0303322 0)
(0.0239234 0.0311422 0)
(0.0274736 0.0320884 0)
(0.0309659 0.0331714 0)
(0.0343914 0.0343914 0)
(0.037741 0.0357489 0)
(0.041005 0.037244 0)
(0.0441734 0.0388766 0)
(0.0472356 0.0406467 0)
(0.0501806 0.0425537 0)
(0.0529971 0.0445966 0)
(0.055673 0.0467741 0)
(0.0581962 0.0490844 0)
(0.060554 0.0515249 0)
(0.0627332 0.0540925 0)
(0.0647207 0.0567834 0)
(0.066503 0.0595926 0)
(0.0680664 0.0625145 0)
(0.0693974 0.0655422 0)
(0.0704826 0.068668 0)
(0.0713089 0.0718828 0)
(0.0718636 0.0751763 0)
(0.0721346 0.078537 0)
(0.0721107 0.0819522 0)
(0.0717818 0.0854075 0)
(0.0711388 0.0888877 0)
(0.0701744 0.0923761 0)
(0.0688826 0.0958549 0)
(0.0672596 0.099305 0)
(0.0653035 0.102707 0)
(0.0630149 0.106039 0)
(0.0603968 0.109281 0)
(0.0574548 0.112411 0)
(0.0541973 0.115406 0)
(0.0506356 0.118246 0)
(0.0467836 0.120908 0)
(0.0426585 0.123373 0)
(0.0382801 0.125619 0)
(0.0336707 0.127629 0)
(0.0288556 0.129386 0)
(0.0238621 0.130874 0)
(0.0187195 0.132081 0)
(0.0134586 0.132996 0)
(0.0081084 0.133611 0)
(0.00270717 0.13392 0)
(0.0019374 0.0310188 0)
(0.00580556 0.0311674 0)
(0.00966273 0.0314646 0)
(0.0135047 0.0319107 0)
(0.0173214 0.0325061 0)
(0.0211051 0.0332513 0)
(0.024848 0.0341467 0)
(0.028542 0.0351931 0)
(0.0321786 0.036391 0)
(0.0357489 0.037741 0)
(0.0392436 0.0392436 0)
(0.0426529 0.0408991 0)
(0.0459665 0.0427078 0)
(0.0491736 0.0446696 0)
(0.0522629 0.0467842 0)
(0.0552226 0.0490507 0)
(0.0580401 0.0514679 0)
(0.0607027 0.054034 0)
(0.063197 0.0567465 0)
(0.0655092 0.0596021 0)
(0.0676251 0.0625968 0)
(0.0695304 0.0657254 0)
(0.0712102 0.0689819 0)
(0.0726501 0.0723588 0)
(0.0738353 0.0758477 0)
(0.0747515 0.0794387 0)
(0.0753846 0.0831205 0)
(0.0757212 0.0868804 0)
(0.0757487 0.0907041 0)
(0.0754556 0.094576 0)
(0.0748314 0.0984787 0)
(0.0738674 0.102394 0)
(0.0725566 0.106301 0)
(0.0708939 0.110179 0)
(0.0688766 0.114005 0)
(0.0665043 0.117756 0)
(0.0637796 0.121407 0)
(0.0607077 0.124935 0)
(0.057297 0.128313 0)
(0.053559 0.131517 0)
(0.0495082 0.134523 0)
(0.0451626 0.137307 0)
(0.0405431 0.139845 0)
(0.0356738 0.142118 0)
(0.0305815 0.144105 0)
(0.0252957 0.145788 0)
(0.0198482 0.147154 0)
(0.0142722 0.14819 0)
(0.00859957 0.148885 0)
(0.00287138 0.149235 0)
(0.00201519 0.0336413 0)
(0.00603897 0.0338039 0)
(0.010052 0.0341291 0)
(0.0140502 0.0346174 0)
(0.0180235 0.0352693 0)
(0.0219645 0.0360852 0)
(0.0258653 0.037066 0)
(0.0297179 0.0382124 0)
(0.0335137 0.0395251 0)
(0.037244 0.041005 0)
(0.0408991 0.0426529 0)
(0.0444692 0.0444692 0)
(0.0479439 0.0464546 0)
(0.0513119 0.0486091 0)
(0.0545617 0.0509327 0)
(0.0576808 0.0534247 0)
(0.0606564 0.056084 0)
(0.0634748 0.0589089 0)
(0.0661221 0.0618971 0)
(0.0685835 0.0650452 0)
(0.070844 0.068349 0)
(0.072888 0.0718032 0)
(0.0746997 0.0754014 0)
(0.0762632 0.0791358 0)
(0.0775625 0.0829971 0)
(0.0785817 0.0869748 0)
(0.0793053 0.0910566 0)
(0.0797182 0.0952285 0)
(0.0798063 0.0994749 0)
(0.0795564 0.103778 0)
(0.0789565 0.10812 0)
(0.0779964 0.112479 0)
(0.0766675 0.116832 0)
(0.0749636 0.121157 0)
(0.0728806 0.125427 0)
(0.0704174 0.129617 0)
(0.0675758 0.133698 0)
(0.0643606 0.137644 0)
(0.06078 0.141425 0)
(0.0568457 0.145014 0)
(0.052573 0.148382 0)
(0.0479808 0.151503 0)
(0.0430912 0.154351 0)
(0.03793 0.156901 0)
(0.0325262 0.159132 0)
(0.0269116 0.161023 0)
(0.0211206 0.162557 0)
(0.0151896 0.16372 0)
(0.00915342 0.164502 0)
(0.00305657 0.164895 0)
(0.00209998 0.0361704 0)
(0.00629339 0.036347 0)
(0.0104763 0.0367001 0)
(0.0146449 0.0372304 0)
(0.0187892 0.0379384 0)
(0.0229018 0.0388247 0)
(0.0269751 0.0398904 0)
(0.0310011 0.0411364 0)
(0.0349712 0.0425637 0)
(0.0388766 0.0441734 0)
(0.0427078 0.0459665 0)
(0.0464546 0.0479439 0)
(0.0501064 0.0501064 0)
(0.0536517 0.0524544 0)
(0.0570784 0.0549881 0)
(0.0603739 0.0577072 0)
(0.0635244 0.0606109 0)
(0.0665159 0.0636976 0)
(0.0693333 0.066965 0)
(0.0719611 0.07041 0)
(0.0743832 0.0740283 0)
(0.0765828 0.0778145 0)
(0.0785428 0.0817619 0)
(0.0802458 0.0858622 0)
(0.0816744 0.0901058 0)
(0.0828109 0.0944812 0)
(0.0836382 0.0989752 0)
(0.0841395 0.103573 0)
(0.0842986 0.108257 0)
(0.0841006 0.113008 0)
(0.0835317 0.117806 0)
(0.0825798 0.122627 0)
(0.0812348 0.127447 0)
(0.0794887 0.132238 0)
(0.0773364 0.136974 0)
(0.0747754 0.141624 0)
(0.0718067 0.146158 0)
(0.0684346 0.150544 0)
(0.0646671 0.15475 0)
(0.0605162 0.158745 0)
(0.0559976 0.162496 0)
(0.0511314 0.165975 0)
(0.0459412 0.16915 0)
(0.0404546 0.171995 0)
(0.034703 0.174484 0)
(0.0287208 0.176595 0)
(0.0225457 0.178309 0)
(0.0162172 0.179608 0)
(0.00977392 0.180481 0)
(0.00326406 0.18092 0)
(0.00219171 0.0385972 0)
(0.00656865 0.0387876 0)
(0.0109354 0.0391684 0)
(0.0152884 0.0397403 0)
(0.0196179 0.0405039 0)
(0.0239166 0.0414602 0)
(0.028177 0.0426102 0)
(0.0323911 0.0439552 0)
(0.0365507 0.0454966 0)
(0.0406467 0.0472356 0)
(0.0446696 0.0491736 0)
(0.0486091 0.0513119 0)
(0.0524544 0.0536517 0)
(0.0561937 0.0561937 0)
(0.0598145 0.0589385 0)
(0.0633036 0.0618861 0)
(0.0666467 0.0650361 0)
(0.069829 0.0683872 0)
(0.0728346 0.0719373 0)
(0.0756468 0.0756835 0)
(0.0782485 0.0796216 0)
(0.0806215 0.083746 0)
(0.0827474 0.08805 0)
(0.0846072 0.0925249 0)
(0.0861815 0.0971607 0)
(0.0874511 0.101945 0)
(0.0883968 0.106864 0)
(0.0889996 0.111901 0)
(0.0892416 0.117038 0)
(0.0891055 0.122255 0)
(0.0885755 0.127527 0)
(0.0876374 0.13283 0)
(0.0862791 0.138137 0)
(0.084491 0.143418 0)
(0.0822662 0.148641 0)
(0.079601 0.153775 0)
(0.0764953 0.158784 0)
(0.0729527 0.163634 0)
(0.068981 0.168289 0)
(0.0645923 0.172713 0)
(0.0598031 0.176871 0)
(0.0546344 0.180728 0)
(0.0491115 0.184251 0)
(0.0432643 0.187409 0)
(0.0371265 0.190173 0)
(0.0307358 0.192518 0)
(0.0241333 0.194422 0)
(0.0173622 0.195866 0)
(0.0104654 0.196837 0)
(0.00349529 0.197324 0)
(0.00229031 0.0409124 0)
(0.00686454 0.0411163 0)
(0.011429 0.0415245 0)
(0.0159804 0.0421375 0)
(0.0205091 0.0429562 0)
(0.0250081 0.0439817 0)
(0.0294702 0.0452153 0)
(0.0338874 0.0466585 0)
(0.0382516 0.0483131 0)
(0.0425537 0.0501806 0)
(0.0467842 0.0522629 0)
(0.0509327 0.0545617 0)
(0.0549881 0.0570784 0)
(0.0589385 0.0598145 0)
(0.0627709 0.0627709 0)
(0.0664715 0.065948 0)
(0.0700255 0.0693459 0)
(0.0734171 0.0729637 0)
(0.0766296 0.0767996 0)
(0.0796453 0.0808509 0)
(0.0824457 0.0851137 0)
(0.0850112 0.0895825 0)
(0.0873217 0.0942503 0)
(0.0893566 0.0991086 0)
(0.0910946 0.104147 0)
(0.0925144 0.109351 0)
(0.0935945 0.114708 0)
(0.0943138 0.1202 0)
(0.0946518 0.125806 0)
(0.0945891 0.131505 0)
(0.0941072 0.13727 0)
(0.0931897 0.143076 0)
(0.0918223 0.148891 0)
(0.0899932 0.154684 0)
(0.0876936 0.160419 0)
(0.0849184 0.166061 0)
(0.081666 0.171571 0)
(0.0779395 0.176911 0)
(0.073746 0.182039 0)
(0.0690979 0.186917 0)
(0.0640122 0.191505 0)
(0.0585112 0.195763 0)
(0.052622 0.199655 0)
(0.0463769 0.203145 0)
(0.0398124 0.206202 0)
(0.0329698 0.208796 0)
(0.0258938 0.210902 0)
(0.0186322 0.212501 0)
(0.0112324 0.213576 0)
(0.00375183 0.214116 0)
(0.00239568 0.0431064 0)
(0.00718078 0.0433238 0)
(0.0119566 0.0437589 0)
(0.0167201 0.0444124 0)
(0.0214621 0.0452854 0)
(0.0261757 0.0463791 0)
(0.0308538 0.0476952 0)
(0.0354889 0.0492356 0)
(0.0400728 0.0510021 0)
(0.0445966 0.0529971 0)
(0.0490507 0.0552226 0)
(0.0534247 0.0576808 0)
(0.0577072 0.0603739 0)
(0.0618861 0.0633036 0)
(0.065948 0.0664715 0)
(0.0698786 0.0698786 0)
(0.0736623 0.0735254 0)
(0.0772827 0.0774116 0)
(0.0807218 0.0815358 0)
(0.0839609 0.0858957 0)
(0.08698 0.0904877 0)
(0.0897582 0.0953065 0)
(0.0922736 0.100345 0)
(0.0945034 0.105595 0)
(0.0964244 0.111045 0)
(0.0980129 0.116682 0)
(0.0992451 0.122489 0)
(0.100097 0.12845 0)
(0.100546 0.134541 0)
(0.10057 0.14074 0)
(0.100147 0.147019 0)
(0.0992583 0.153348 0)
(0.0978871 0.159694 0)
(0.0960191 0.166022 0)
(0.0936434 0.172294 0)
(0.0907529 0.178469 0)
(0.0873447 0.184506 0)
(0.0834206 0.190361 0)
(0.0789876 0.19599 0)
(0.0740577 0.201347 0)
(0.0686488 0.206389 0)
(0.0627844 0.211073 0)
(0.0564937 0.215356 0)
(0.0498113 0.219199 0)
(0.0427773 0.222567 0)
(0.0354366 0.225426 0)
(0.0278384 0.227748 0)
(0.0200354 0.229511 0)
(0.01208 0.230696 0)
(0.00403532 0.231292 0)
(0.00250771 0.0451699 0)
(0.00751702 0.0454004 0)
(0.0125176 0.0458619 0)
(0.0175069 0.0465551 0)
(0.0224758 0.0474814 0)
(0.027418 0.0486422 0)
(0.0323266 0.0500394 0)
(0.0371943 0.0516754 0)
(0.042013 0.0535523 0)
(0.0467741 0.055673 0)
(0.0514679 0.0580401 0)
(0.056084 0.0606564 0)
(0.0606109 0.0635244 0)
(0.0650361 0.0666467 0)
(0.0693459 0.0700255 0)
(0.0735254 0.0736623 0)
(0.0775584 0.0775584 0)
(0.0814275 0.081714 0)
(0.0851138 0.0861284 0)
(0.0885973 0.0907997 0)
(0.0918564 0.0957248 0)
(0.0948687 0.100899 0)
(0.0976102 0.106314 0)
(0.100056 0.111963 0)
(0.102181 0.117834 0)
(0.103959 0.123914 0)
(0.105362 0.130185 0)
(0.106366 0.136628 0)
(0.106942 0.143221 0)
(0.107067 0.149937 0)
(0.106715 0.156749 0)
(0.105865 0.163622 0)
(0.104497 0.170522 0)
(0.102593 0.177409 0)
(0.100141 0.184243 0)
(0.0971307 0.190978 0)
(0.0935579 0.197568 0)
(0.089423 0.203966 0)
(0.0847322 0.210121 0)
(0.0794977 0.215985 0)
(0.0737379 0.221508 0)
(0.0674777 0.226641 0)
(0.0607484 0.231339 0)
(0.0535875 0.235556 0)
(0.0460387 0.239254 0)
(0.0381511 0.242394 0)
(0.0299789 0.244945 0)
(0.0215802 0.246883 0)
(0.0130133 0.248185 0)
(0.00434752 0.24884 0)
(0.00262625 0.0470931 0)
(0.00787281 0.0473365 0)
(0.0131113 0.0478237 0)
(0.0183396 0.0485558 0)
(0.0235491 0.049534 0)
(0.0287337 0.0507604 0)
(0.033887 0.052237 0)
(0.0390018 0.0539666 0)
(0.0440705 0.0559519 0)
(0.0490844 0.0581962 0)
(0.054034 0.0607027 0)
(0.0589089 0.0634748 0)
(0.0636976 0.0665159 0)
(0.0683872 0.069829 0)
(0.0729637 0.0734171 0)
(0.0774116 0.0772827 0)
(0.081714 0.0814275 0)
(0.0858526 0.0858526 0)
(0.0898075 0.0905581 0)
(0.0935573 0.0955426 0)
(0.0970789 0.100804 0)
(0.100348 0.106336 0)
(0.103338 0.112135 0)
(0.106023 0.11819 0)
(0.108375 0.12449 0)
(0.110363 0.131022 0)
(0.111959 0.137768 0)
(0.113133 0.144708 0)
(0.113856 0.151817 0)
(0.114098 0.159069 0)
(0.113831 0.166432 0)
(0.113031 0.17387 0)
(0.111674 0.181346 0)
(0.10974 0.188816 0)
(0.107212 0.196236 0)
(0.104078 0.203557 0)
(0.100333 0.210728 0)
(0.0959738 0.217695 0)
(0.0910071 0.224405 0)
(0.0854445 0.230803 0)
(0.0793052 0.236832 0)
(0.0726154 0.242441 0)
(0.0654088 0.247577 0)
(0.0577259 0.25219 0)
(0.0496145 0.256236 0)
(0.0411285 0.259675 0)
(0.0323274 0.262469 0)
(0.0232754 0.264592 0)
(0.0140377 0.266019 0)
(0.00469021 0.266737 0)
(0.00275112 0.0488665 0)
(0.00824763 0.0491223 0)
(0.0137368 0.0496345 0)
(0.0192172 0.0504042 0)
(0.0246804 0.051433 0)
(0.030121 0.052723 0)
(0.0355329 0.0542769 0)
(0.0409092 0.0560977 0)
(0.0462427 0.0581889 0)
(0.0515249 0.060554 0)
(0.0567465 0.063197 0)
(0.0618971 0.0661221 0)
(0.066965 0.0693333 0)
(0.0719373 0.0728346 0)
(0.0767996 0.0766296 0)
(0.0815358 0.0807218 0)
(0.0861284 0.0851138 0)
(0.0905581 0.0898075 0)
(0.0948038 0.0948038 0)
(0.0988427 0.100102 0)
(0.10265 0.105701 0)
(0.1062 0.111595 0)
(0.109464 0.11778 0)
(0.112412 0.124247 0)
(0.115014 0.130984 0)
(0.117237 0.137977 0)
(0.119048 0.145209 0)
(0.120415 0.152657 0)
(0.121303 0.160298 0)
(0.121681 0.1681 0)
(0.121516 0.176032 0)
(0.120779 0.184056 0)
(0.119443 0.192129 0)
(0.117484 0.200206 0)
(0.114882 0.208237 0)
(0.111622 0.216169 0)
(0.107696 0.223946 0)
(0.1031 0.231511 0)
(0.0978394 0.238802 0)
(0.0919249 0.24576 0)
(0.0853765 0.252323 0)
(0.078222 0.258432 0)
(0.0704976 0.264029 0)
(0.0622473 0.269061 0)
(0.053523 0.273475 0)
(0.0443841 0.277228 0)
(0.0348962 0.28028 0)
(0.0251302 0.282598 0)
(0.0151586 0.284158 0)
(0.00506523 0.284942 0)
(0.00288211 0.0504804 0)
(0.00864083 0.0507482 0)
(0.0143931 0.0512844 0)
(0.0201381 0.0520903 0)
(0.0258679 0.0531678 0)
(0.0315777 0.0545194 0)
(0.0372617 0.056148 0)
(0.0429138 0.0580571 0)
(0.0485267 0.0602507 0)
(0.0540925 0.0627332 0)
(0.0596021 0.0655092 0)
(0.0650452 0.0685835 0)
(0.07041 0.0719611 0)
(0.0756835 0.0756468 0)
(0.0808509 0.0796453 0)
(0.0858957 0.0839609 0)
(0.0907997 0.0885973 0)
(0.0955426 0.0935573 0)
(0.100102 0.0988427 0)
(0.104454 0.104454 0)
(0.108572 0.11039 0)
(0.112427 0.116648 0)
(0.11599 0.123222 0)
(0.119227 0.130104 0)
(0.122105 0.137283 0)
(0.124588 0.144745 0)
(0.126639 0.152471 0)
(0.128222 0.160439 0)
(0.129299 0.168622 0)
(0.129833 0.176991 0)
(0.129787 0.185509 0)
(0.129128 0.194135 0)
(0.127824 0.202826 0)
(0.125848 0.211531 0)
(0.123175 0.220196 0)
(0.119788 0.228764 0)
(0.115674 0.237173 0)
(0.110829 0.24536 0)
(0.105256 0.253259 0)
(0.0989652 0.260803 0)
(0.0919774 0.267925 0)
(0.0843219 0.274559 0)
(0.0760375 0.280641 0)
(0.0671721 0.286112 0)
(0.0577824 0.290914 0)
(0.0479334 0.294999 0)
(0.0376975 0.298321 0)
(0.0271532 0.300846 0)
(0.0163815 0.302544 0)
(0.00547441 0.303399 0)
(0.00301895 0.0519253 0)
(0.00905166 0.0522046 0)
(0.0150789 0.0527637 0)
(0.0211006 0.0536043 0)
(0.0271095 0.0547283 0)
(0.0331011 0.0561387 0)
(0.0390706 0.0578389 0)
(0.045012 0.0598328 0)
(0.0509188 0.0621251 0)
(0.0567834 0.0647207 0)
(0.0625968 0.0676251 0)
(0.068349 0.070844 0)
(0.0740283 0.0743832 0)
(0.0796216 0.0782485 0)
(0.0851137 0.0824457 0)
(0.0904877 0.08698 0)
(0.0957248 0.0918564 0)
(0.100804 0.0970789 0)
(0.105701 0.10265 0)
(0.11039 0.108572 0)
(0.114844 0.114844 0)
(0.119032 0.121464 0)
(0.12292 0.128428 0)
(0.126473 0.135727 0)
(0.129654 0.143351 0)
(0.132424 0.151286 0)
(0.134742 0.159513 0)
(0.136567 0.168009 0)
(0.137856 0.176746 0)
(0.138567 0.185693 0)
(0.13866 0.19481 0)
(0.138096 0.204056 0)
(0.136838 0.213382 0)
(0.134854 0.222734 0)
(0.132115 0.232055 0)
(0.128599 0.241281 0)
(0.124292 0.250345 0)
(0.119186 0.259179 0)
(0.113282 0.26771 0)
(0.106591 0.275865 0)
(0.0991323 0.283569 0)
(0.0909384 0.290751 0)
(0.0820504 0.29734 0)
(0.0725203 0.30327 0)
(0.06241 0.308479 0)
(0.0517911 0.31291 0)
(0.0407432 0.316517 0)
(0.0293534 0.319258 0)
(0.0177116 0.321102 0)
(0.00591951 0.32203 0)
(0.00316136 0.0531919 0)
(0.00947923 0.053482 0)
(0.0157928 0.0540628 0)
(0.0221027 0.054936 0)
(0.0284024 0.0561042 0)
(0.0346882 0.0575703 0)
(0.0409558 0.0593384 0)
(0.0472 0.061413 0)
(0.0534146 0.0637993 0)
(0.0595926 0.066503 0)
(0.0657254 0.0695304 0)
(0.0718032 0.072888 0)
(0.0778145 0.0765828 0)
(0.083746 0.0806215 0)
(0.0895825 0.0850112 0)
(0.0953065 0.0897582 0)
(0.100899 0.0948687 0)
(0.106336 0.100348 0)
(0.111595 0.1062 0)
(0.116648 0.112427 0)
(0.121464 0.119032 0)
(0.126011 0.126011 0)
(0.130253 0.133362 0)
(0.134151 0.141078 0)
(0.137664 0.149148 0)
(0.140749 0.157558 0)
(0.143362 0.166289 0)
(0.145456 0.175318 0)
(0.146983 0.184617 0)
(0.147897 0.19415 0)
(0.14815 0.203879 0)
(0.1477 0.213757 0)
(0.146502 0.223733 0)
(0.14452 0.233749 0)
(0.141721 0.243742 0)
(0.138079 0.253645 0)
(0.133573 0.263386 0)
(0.128194 0.272888 0)
(0.121941 0.282073 0)
(0.114824 0.29086 0)
(0.106864 0.299169 0)
(0.0980933 0.30692 0)
(0.0885567 0.314036 0)
(0.0783105 0.320444 0)
(0.0674226 0.326075 0)
(0.0559712 0.330868 0)
(0.0440446 0.33477 0)
(0.0317387 0.337737 0)
(0.0191539 0.339734 0)
(0.00640222 0.340738 0)
(0.003309 0.054271 0)
(0.00992253 0.0545711 0)
(0.016533 0.0551721 0)
(0.023142 0.056076 0)
(0.0297438 0.0572853 0)
(0.0363354 0.0588037 0)
(0.0429132 0.0606355 0)
(0.0494728 0.0627858 0)
(0.0560088 0.0652606 0)
(0.0625145 0.0680664 0)
(0.0689819 0.0712102 0)
(0.0754014 0.0746997 0)
(0.0817619 0.0785428 0)
(0.08805 0.0827474 0)
(0.0942503 0.0873217 0)
(0.100345 0.0922736 0)
(0.106314 0.0976102 0)
(0.112135 0.103338 0)
(0.11778 0.109464 0)
(0.123222 0.11599 0)
(0.128428 0.12292 0)
(0.133362 0.130253 0)
(0.137986 0.137986 0)
(0.142259 0.146115 0)
(0.146134 0.154628 0)
(0.149565 0.163512 0)
(0.152503 0.172748 0)
(0.154894 0.182312 0)
(0.156688 0.192175 0)
(0.157829 0.2023 0)
(0.158267 0.212647 0)
(0.15795 0.223166 0)
(0.15683 0.233802 0)
(0.154863 0.244494 0)
(0.152012 0.255175 0)
(0.148243 0.265771 0)
(0.143535 0.276204 0)
(0.137873 0.286391 0)
(0.131254 0.296248 0)
(0.123687 0.305686 0)
(0.115192 0.314618 0)
(0.105806 0.322956 0)
(0.0955744 0.330616 0)
(0.0845594 0.337518 0)
(0.0728347 0.343586 0)
(0.0604864 0.348754 0)
(0.0476116 0.352962 0)
(0.0343166 0.356162 0)
(0.0207129 0.358317 0)
(0.00692405 0.359401 0)
(0.00346148 0.0551538 0)
(0.0103804 0.0554631 0)
(0.0172977 0.0560827 0)
(0.0242159 0.0570146 0)
(0.0311301 0.0582619 0)
(0.0380384 0.0598284 0)
(0.0449379 0.061719 0)
(0.0518251 0.0639395 0)
(0.0586952 0.0664966 0)
(0.0655422 0.0693974 0)
(0.0723588 0.0726501 0)
(0.0791358 0.0762632 0)
(0.0858622 0.0802458 0)
(0.0925249 0.0846072 0)
(0.0991086 0.0893566 0)
(0.105595 0.0945034 0)
(0.111963 0.100056 0)
(0.11819 0.106023 0)
(0.124247 0.112412 0)
(0.130104 0.119227 0)
(0.135727 0.126473 0)
(0.141078 0.134151 0)
(0.146115 0.142259 0)
(0.150792 0.150792 0)
(0.155061 0.159742 0)
(0.15887 0.169094 0)
(0.162163 0.178831 0)
(0.164883 0.188928 0)
(0.166971 0.199354 0)
(0.168369 0.210072 0)
(0.169016 0.221039 0)
(0.168855 0.232202 0)
(0.167831 0.243505 0)
(0.165893 0.25488 0)
(0.162998 0.266256 0)
(0.159107 0.277555 0)
(0.154193 0.288692 0)
(0.148238 0.299577 0)
(0.141236 0.310119 0)
(0.133194 0.320221 0)
(0.124134 0.32979 0)
(0.114092 0.338729 0)
(0.103119 0.346947 0)
(0.0912806 0.354355 0)
(0.0786587 0.360872 0)
(0.0653471 0.366424 0)
(0.0514529 0.370947 0)
(0.0370933 0.374387 0)
(0.0223925 0.376703 0)
(0.00748627 0.377869 0)
(0.00361834 0.0558318 0)
(0.0108515 0.0561495 0)
(0.0180845 0.0567858 0)
(0.0253212 0.057743 0)
(0.0325575 0.0590244 0)
(0.0397925 0.0606344 0)
(0.0470244 0.0625784 0)
(0.0542504 0.0648628 0)
(0.0614667 0.0674948 0)
(0.068668 0.0704826 0)
(0.0758477 0.0738353 0)
(0.0829971 0.0775625 0)
(0.0901058 0.0816744 0)
(0.0971607 0.0861815 0)
(0.104147 0.0910946 0)
(0.111045 0.0964244 0)
(0.117834 0.102181 0)
(0.12449 0.108375 0)
(0.130984 0.115014 0)
(0.137283 0.122105 0)
(0.143351 0.129654 0)
(0.149148 0.137664 0)
(0.154628 0.146134 0)
(0.159742 0.155061 0)
(0.164436 0.164436 0)
(0.168655 0.174248 0)
(0.172336 0.184476 0)
(0.175417 0.195097 0)
(0.177832 0.20608 0)
(0.179514 0.217385 0)
(0.180397 0.228968 0)
(0.180416 0.240774 0)
(0.179508 0.252742 0)
(0.177615 0.264802 0)
(0.174687 0.276876 0)
(0.170678 0.288881 0)
(0.165557 0.300726 0)
(0.1593 0.312316 0)
(0.151898 0.32355 0)
(0.143358 0.334325 0)
(0.1337 0.344539 0)
(0.122963 0.354087 0)
(0.1112 0.362871 0)
(0.0984846 0.370793 0)