/*--------------------------------*- C++ -*----------------------------------*\
| =========                 |                                                 |
| \\      /  F ield         | OpenFOAM: The Open Source CFD Toolbox           |
|  \\    /   O peration     | Version:  2406                                  |
|   \\  /    A nd           | Website:  www.openfoam.com                      |
|    \\/     M anipulation  |                                                 |
\*---------------------------------------------------------------------------*/
FoamFile
{
    version     2.0;
    format      ascii;
    arch        "LSB;label=32;scalar=64";
    class       volScalarField;
    location    "2.45";
    object      gradTx;
}
// * * * * * * * * * * * * * * * * * * * * * * * * * * * * * * * * * * * * * //

dimensions      [0 -1 0 1 0 0 0];

internalField   nonuniform List<scalar> 
2500
(
0.0154826
0.0463791
0.0771601
0.10778
0.138133
0.168141
0.197724
0.226804
0.255298
0.283121
0.310188
0.336413
0.361704
0.385972
0.409124
0.431064
0.451699
0.470931
0.488665
0.504804
0.519253
0.531919
0.54271
0.551538
0.558318
0.562973
0.56543
0.565623
0.563496
0.559001
0.552101
0.542773
0.531003
0.516794
0.500162
0.481139
0.459774
0.436131
0.410291
0.382352
0.352431
0.320656
0.287177
0.252153
0.215761
0.178188
0.139631
0.100296
0.0603981
0.020168
0.0155518
0.0465903
0.0775146
0.108276
0.13877
0.168919
0.198644
0.227866
0.256501
0.284466
0.311674
0.338039
0.36347
0.387876
0.411163
0.433238
0.454004
0.473365
0.491223
0.507482
0.522046
0.53482
0.545711
0.554631
0.561495
0.566222
0.56874
0.568982
0.566889
0.562414
0.555518
0.546177
0.534376
0.520118
0.503419
0.484309
0.462837
0.439066
0.41308
0.384975
0.354869
0.322892
0.289193
0.253935
0.217295
0.179461
0.140634
0.10102
0.0608216
0.0203007
0.0156939
0.0470157
0.0782223
0.109266
0.140043
0.170475
0.200484
0.229989
0.258908
0.287155
0.314646
0.341291
0.367001
0.391684
0.415245
0.437589
0.458619
0.478237
0.496345
0.512844
0.527637
0.540628
0.551721
0.560827
0.567858
0.572731
0.575372
0.575711
0.573689
0.569254
0.562368
0.553002
0.541141
0.526786
0.509951
0.490667
0.46898
0.444956
0.418675
0.390239
0.359762
0.327379
0.29324
0.257511
0.220372
0.182017
0.14265
0.102482
0.0617063
0.020594
0.0159063
0.0476525
0.0792834
0.110751
0.141953
0.172811
0.203246
0.233176
0.26252
0.291192
0.319107
0.346174
0.372304
0.397403
0.421375
0.444124
0.465551
0.485558
0.504042
0.520903
0.536043
0.54936
0.56076
0.570146
0.57743
0.582525
0.585353
0.585842
0.583927
0.579556
0.572685
0.563283
0.551334
0.536835
0.519798
0.500252
0.478244
0.453838
0.427116
0.398178
0.367144
0.334149
0.299347
0.262908
0.225017
0.185872
0.145685
0.104672
0.0630294
0.021036
0.0161893
0.0485014
0.0806982
0.112733
0.144501
0.175927
0.206929
0.237428
0.26734
0.29658
0.325061
0.352693
0.379384
0.405039
0.429562
0.452854
0.474814
0.49534
0.51433
0.531678
0.547283
0.561042
0.572853
0.582619
0.590244
0.59564
0.598722
0.599414
0.597648
0.593366
0.586519
0.577075
0.56501
0.550321
0.533016
0.513122
0.490686
0.46577
0.438457
0.408849
0.377067
0.343251
0.307558
0.270165
0.231261
0.191055
0.149763
0.107612
0.0648039
0.0216292
0.0165431
0.0495626
0.0824671
0.11521
0.147688
0.179823
0.211537
0.242747
0.27337
0.303322
0.332513
0.360852
0.388247
0.414602
0.439817
0.463791
0.486422
0.507604
0.52723
0.545194
0.561387
0.575703
0.588037
0.598284
0.606344
0.612123
0.615532
0.616486
0.614913
0.610748
0.603939
0.594446
0.582242
0.567319
0.549682
0.529355
0.506383
0.480828
0.452774
0.422323
0.3896
0.354749
0.317933
0.279335
0.239154
0.197604
0.154916
0.111325
0.067045
0.0223783
0.0169677
0.0508362
0.0845903
0.118184
0.151514
0.184502
0.21707
0.249135
0.280614
0.311422
0.341467
0.37066
0.398904
0.426102
0.452153
0.476952
0.500394
0.52237
0.542769
0.56148
0.578389
0.593384
0.606355
0.61719
0.625784
0.632035
0.635845
0.637126
0.635795
0.631782
0.625027
0.615484
0.603122
0.587923
0.569892
0.549048
0.525434
0.49911
0.470161
0.438691
0.40483
0.368724
0.330546
0.290486
0.248752
0.205571
0.161184
0.115841
0.0697705
0.0232894
0.0174631
0.0523225
0.0870682
0.121655
0.155979
0.189964
0.223529
0.256595
0.289075
0.320884
0.351931
0.382124
0.411364
0.439552
0.466585
0.492356
0.516754
0.539666
0.560977
0.580571
0.598328
0.61413
0.627858
0.639395
0.648628
0.655444
0.65974
0.661416
0.660384
0.656563
0.649885
0.640296
0.627757
0.612247
0.593761
0.572317
0.547953
0.52073
0.490731
0.458064
0.42286
0.385276
0.345488
0.303699
0.260127
0.215014
0.168614
0.121195
0.0730017
0.0243696
0.0180294
0.0540213
0.0899006
0.125623
0.161084
0.196209
0.230917
0.265128
0.298756
0.331714
0.36391
0.395251
0.425637
0.454966
0.483131
0.510021
0.535523
0.559519
0.581889
0.602507
0.621251
0.637993
0.652606
0.664966
0.674948
0.682432
0.687303
0.689454
0.688782
0.6852
0.678628
0.669003
0.656277
0.640421
0.621424
0.599299
0.574079
0.545824
0.514617
0.480569
0.443816
0.404519
0.362866
0.319069
0.273363
0.226003
0.177263
0.127428
0.0767634
0.0256272
0.0186664
0.0559325
0.0930872
0.130087
0.16683
0.203238
0.239234
0.274736
0.309659
0.343914
0.37741
0.41005
0.441734
0.472356
0.501806
0.529971
0.55673
0.581962
0.60554
0.627332
0.647207
0.66503
0.680664
0.693974
0.704826
0.713089
0.718636
0.721346
0.721107
0.717818
0.711388
0.701744
0.688826
0.672596
0.653035
0.630149
0.603968
0.574548
0.541973
0.506356
0.467836
0.426585
0.382801
0.336707
0.288556
0.238621
0.187195
0.134586
0.081084
0.0270717
0.019374
0.0580556
0.0966273
0.135047
0.173214
0.211051
0.24848
0.28542
0.321786
0.357489
0.392436
0.426529
0.459665
0.491736
0.522629
0.552226
0.580401
0.607027
0.63197
0.655092
0.676251
0.695304
0.712102
0.726501
0.738353
0.747515
0.753846
0.757212
0.757487
0.754556
0.748314
0.738674
0.725566
0.708939
0.688766
0.665043
0.637796
0.607077
0.57297
0.53559
0.495082
0.451626
0.405431
0.356738
0.305815
0.252957
0.198482
0.142722
0.0859957
0.0287138
0.0201519
0.0603897
0.10052
0.140502
0.180235
0.219645
0.258653
0.297179
0.335137
0.37244
0.408991
0.444692
0.479439
0.513119
0.545617
0.576808
0.606564
0.634748
0.661221
0.685835
0.70844
0.72888
0.746997
0.762632
0.775625
0.785817
0.793053
0.797182
0.798063
0.795564
0.789565
0.779964
0.766675
0.749636
0.728806
0.704174
0.675758
0.643606
0.6078
0.568457
0.52573
0.479808
0.430912
0.3793
0.325262
0.269116
0.211206
0.151896
0.0915342
0.0305657
0.0209998
0.0629339
0.104763
0.146449
0.187892
0.229018
0.269751
0.310011
0.349712
0.388766
0.427078
0.464546
0.501064
0.536517
0.570784
0.603739
0.635244
0.665159
0.693333
0.719611
0.743832
0.765828
0.785428
0.802458
0.816744
0.828109
0.836382
0.841395
0.842986
0.841006
0.835317
0.825798
0.812348
0.794887
0.773364
0.747754
0.718067
0.684346
0.646671
0.605162
0.559976
0.511314
0.459412
0.404546
0.34703
0.287208
0.225457
0.162172
0.0977392
0.0326406
0.0219171
0.0656865
0.109354
0.152884
0.196179
0.239166
0.28177
0.323911
0.365507
0.406467
0.446696
0.486091
0.524544
0.561937
0.598145
0.633036
0.666467
0.69829
0.728346
0.756468
0.782485
0.806215
0.827474
0.846072
0.861815
0.874511
0.883968
0.889996
0.892416
0.891055
0.885755
0.876374
0.862791
0.84491
0.822662
0.79601
0.764953
0.729527
0.68981
0.645923
0.598031
0.546344
0.491115
0.432643
0.371265
0.307358
0.241333
0.173622
0.104654
0.0349529
0.0229031
0.0686454
0.11429
0.159804
0.205091
0.250081
0.294702
0.338874
0.382516
0.425537
0.467842
0.509327
0.549881
0.589385
0.627709
0.664715
0.700255
0.734171
0.766296
0.796453
0.824457
0.850112
0.873217
0.893566
0.910946
0.925144
0.935945
0.943138
0.946518
0.945891
0.941072
0.931897
0.918223
0.899932
0.876936
0.849184
0.81666
0.779395
0.73746
0.690979
0.640122
0.585112
0.52622
0.463769
0.398124
0.329698
0.258938
0.186322
0.112324
0.0375183
0.0239568
0.0718078
0.119566
0.167201
0.214621
0.261757
0.308538
0.354889
0.400728
0.445966
0.490507
0.534247
0.577072
0.618861
0.65948
0.698786
0.736623
0.772827
0.807218
0.839609
0.8698
0.897582
0.922736
0.945034
0.964244
0.980129
0.992451
1.00097
1.00546
1.0057
1.00147
0.992583
0.978871
0.960191
0.936434
0.907529
0.873447
0.834206
0.789876
0.740577
0.686488
0.627844
0.564937
0.498113
0.427773
0.354366
0.278384
0.200354
0.1208
0.0403532
0.0250771
0.0751702
0.125176
0.175069
0.224758
0.27418
0.323266
0.371943
0.42013
0.467741
0.514679
0.56084
0.606109
0.650361
0.693459
0.735254
0.775584
0.814275
0.851138
0.885973
0.918564
0.948687
0.976102
1.00056
1.02181
1.03959
1.05362
1.06366
1.06942
1.07067
1.06715
1.05865
1.04497
1.02593
1.00141
0.971307
0.935579
0.89423
0.847322
0.794977
0.737379
0.674777
0.607484
0.535875
0.460387
0.381511
0.299789
0.215802
0.130133
0.0434752
0.0262625
0.0787281
0.131113
0.183396
0.235491
0.287337
0.33887
0.390018
0.440705
0.490844
0.54034
0.589089
0.636976
0.683872
0.729637
0.774116
0.81714
0.858526
0.898075
0.935573
0.970789
1.00348
1.03338
1.06023
1.08375
1.10363
1.11959
1.13133
1.13856
1.14098
1.13831
1.13031
1.11674
1.0974
1.07212
1.04078
1.00333
0.959738
0.910071
0.854445
0.793052
0.726154
0.654088
0.577259
0.496145
0.411285
0.323274
0.232754
0.140377
0.0469021
0.0275112
0.0824763
0.137368
0.192172
0.246804
0.30121
0.355329
0.409092
0.462427
0.515249
0.567465
0.618971
0.66965
0.719373
0.767996
0.815358
0.861284
0.905581
0.948038
0.988427
1.0265
1.062
1.09464
1.12412
1.15014
1.17237
1.19048
1.20415
1.21303
1.21681
1.21516
1.20779
1.19443
1.17484
1.14882
1.11622
1.07696
1.031
0.978394
0.919249
0.853765
0.78222
0.704976
0.622473
0.53523
0.443841
0.348962
0.251302
0.151586
0.0506523
0.0288211
0.0864083
0.143931
0.201381
0.258679
0.315777
0.372617
0.429138
0.485267
0.540925
0.596021
0.650452
0.7041
0.756835
0.808509
0.858957
0.907997
0.955426
1.00102
1.04454
1.08572
1.12427
1.1599
1.19227
1.22105
1.24588
1.26639
1.28222
1.29299
1.29833
1.29787
1.29128
1.27824
1.25848
1.23175
1.19788
1.15674
1.10829
1.05256
0.989652
0.919774
0.843219
0.760375
0.671721
0.577824
0.479334
0.376975
0.271532
0.163815
0.0547441
0.0301895
0.0905166
0.150789
0.211006
0.271095
0.331011
0.390706
0.45012
0.509188
0.567834
0.625968
0.68349
0.740283
0.796216
0.851137
0.904877
0.957248
1.00804
1.05701
1.1039
1.14844
1.19032
1.2292
1.26473
1.29654
1.32424
1.34742
1.36567
1.37856
1.38567
1.3866
1.38096
1.36838
1.34854
1.32115
1.28599
1.24292
1.19186
1.13282
1.06591
0.991323
0.909384
0.820504
0.725203
0.6241
0.517911
0.407432
0.293534
0.177116
0.0591951
0.0316136
0.0947923
0.157928
0.221027
0.284024
0.346882
0.409558
0.472
0.534146
0.595926
0.657254
0.718032
0.778145
0.83746
0.895825
0.953065
1.00899
1.06336
1.11595
1.16648
1.21464
1.26011
1.30253
1.34151
1.37664
1.40749
1.43362
1.45456
1.46983
1.47897
1.4815
1.477
1.46502
1.4452
1.41721
1.38079
1.33573
1.28194
1.21941
1.14824
1.06864
0.980933
0.885567
0.783105
0.674226
0.559712
0.440446
0.317387
0.191539
0.0640222
0.03309
0.0992253
0.16533
0.23142
0.297438
0.363354
0.429132
0.494728
0.560088
0.625145
0.689819
0.754014
0.817619
0.8805
0.942503
1.00345
1.06314
1.12135
1.1778
1.23222
1.28428
1.33362
1.37986
1.42259
1.46134
1.49565
1.52503
1.54894
1.56688
1.57829
1.58267
1.5795
1.5683
1.54863
1.52012
1.48243
1.43535
1.37873
1.31254
1.23687
1.15192
1.05806
0.955744
0.845594
0.728347
0.604864
0.476116
0.343166
0.207129
0.0692405
0.0346148
0.103804
0.172977
0.242159
0.311301
0.380384
0.449379
0.518251
0.586952
0.655422
0.723588
0.791358
0.858622
0.925249
0.991086
1.05595
1.11963
1.1819
1.24247
1.30104
1.35727
1.41078
1.46115
1.50792
1.55061
1.5887
1.62163
1.64883
1.66971
1.68369
1.69016
1.68855
1.67831
1.65893
1.62998
1.59107
1.54193
1.48238
1.41236
1.33194
1.24134
1.14092
1.03119
0.912806
0.786587
0.653471
0.514529
0.370933
0.223925
0.0748627
0.0361834
0.108515
0.180845
0.253212
0.325575
0.397925
0.470244
0.542504
0.614667
0.68668
0.758477
0.829971
0.901058
0.971607
1.04147
1.11045
1.17834
1.2449
1.30984
1.37283
1.43351
1.49148
1.54628
1.59742
1.64436
1.68655
1.72336
1.75417
1.77832
1.79514
1.80397
1.80416
1.79508
1.77615
1.74687
1.70678
1.65557
1.593
1.51898
1.43358
1.337
1.22963
1.112
0.984846
0.849038
0.705613
0.555747
0.400734
0.241954
0.0808986
0.0377911
0.113343
0.188912
0.264545
0.340216
0.415924
0.491663
0.567415
0.643151
0.718828
0.794387
0.869748
0.944812
1.01945
1.09351
1.16682
1.23914
1.31022
1.37977
1.44745
1.51286
1.57558
1.63512
1.69094
1.74248
1.78909
1.83012
1.86487
1.8926
1.91257
1.92405
1.92629
1.91858
1.90027
1.87078
1.82958
1.77628
1.71061
1.63245
1.54183
1.43896
1.32424
1.19825
1.06177
0.915751
0.761334
0.599808
0.432598
0.261233
0.087354
0.0394323
0.118272
0.197148
0.276121
0.355174
0.43432
0.513564
0.592901
0.672312
0.751763
0.831205
0.910566
0.989752
1.06864
1.14708
1.22489
1.30185
1.37768
1.45209
1.52471
1.59513
1.66289
1.72748
1.78831
1.84476
1.89614
1.94173
1.98075
2.01239
2.03584
2.05025
2.0548
2.0487
2.0312
2.00162
1.95937
1.904
1.83518
1.75273
1.65667
1.5472
1.42475
1.28992
1.14357
0.986731
0.82064
0.646717
0.466529
0.281767
0.09423
0.041101
0.123285
0.205525
0.287895
0.370394
0.453047
0.535871
0.618873
0.702047
0.78537
0.868804
0.952285
1.03573
1.11901
1.202
1.2845
1.36628
1.44708
1.52657
1.60439
1.68009
1.75318
1.82312
1.88928
1.95097
2.00746
2.05794
2.10157
2.13746
2.16469
2.18234
2.18948
2.18522
2.16872
2.13921
2.09601
2.03858
1.96654
1.87968
1.77797
1.66162
1.53106
1.38695
1.23019
1.06192
0.883488
0.696441
0.502504
0.303541
0.101522
0.0427906
0.12836
0.214008
0.299824
0.385818
0.472031
0.558495
0.645229
0.732241
0.819522
0.907041
0.994749
1.08257
1.17038
1.25806
1.34541
1.43221
1.51817
1.60298
1.68622
1.76746
1.84617
1.92175
1.99354
2.0608
2.12272
2.17844
2.22702
2.26748
2.29882
2.32001
2.33002
2.32785
2.31255
2.28325
2.23919
2.17975
2.10446
2.01307
1.90552
1.78202
1.64299
1.48916
1.32149
1.1412
0.949777
0.748902
0.540466
0.326522
0.109219
0.044494
0.133478
0.222563
0.311855
0.40138
0.491193
0.581342
0.67186
0.76277
0.854075
0.94576
1.03778
1.13008
1.22255
1.31505
1.4074
1.49937
1.59069
1.681
1.76991
1.85693
1.9415
2.023
2.10072
2.17385
2.24153
2.30281
2.35666
2.40203
2.4378
2.46283
2.47598
2.47614
2.46225
2.43333
2.38852
2.32711
2.24855
2.15254
2.03899
1.90808
1.76026
1.5963
1.41723
1.22438
1.01935
0.803974
0.580325
0.350654
0.117303
0.0462035
0.138614
0.23115
0.323935
0.41701
0.510448
0.604309
0.698647
0.793496
0.888877
0.984787
1.0812
1.17806
1.27527
1.3727
1.47019
1.56749
1.66432
1.76032
1.85509
1.9481
2.03879
2.12647
2.21039
2.28968
2.36341
2.43056
2.49001
2.54059
2.58108
2.61025
2.62681
2.62955
2.61729
2.58891
2.54347
2.48014
2.39832
2.29761
2.17791
2.03937
1.88248
1.70801
1.51711
1.31118
1.09197
0.861475
0.621949
0.375858
0.125747
0.0479109
0.143744
0.23973
0.336007
0.432634
0.529701
0.627288
0.725461
0.824274
0.923761
1.02394
1.12479
1.22627
1.3283
1.43076
1.53348
1.63622
1.7387
1.84056
1.94135
2.04056
2.13757
2.23166
2.32202
2.40774
2.48781
2.5611
2.62643
2.68252
2.72803
2.7616
2.78185
2.7874
2.77696
2.74931
2.70335
2.63819
2.55311
2.44766
2.32169
2.17534
2.00911
1.82382
1.62068
1.40123
1.16733
0.921164
0.665165
0.40203
0.134516
0.0496076
0.148843
0.248257
0.348008
0.448173
0.548857
0.65016
0.752165
0.854944
0.958549
1.06301
1.16832
1.27447
1.38137
1.48891
1.59694
1.70522
1.81346
1.92129
2.02826
2.13382
2.23733
2.33802
2.43505
2.52742
2.61405
2.69376
2.76523
2.82708
2.87788
2.91611
2.94028
2.94887
2.94046
2.91369
2.86735
2.80043
2.71212
2.60191
2.46959
2.31529
2.13951
1.94314
1.72744
1.49408
1.24506
0.982737
0.709752
0.429036
0.143565
0.0512845
0.153883
0.256687
0.359876
0.463542
0.567813
0.672803
0.778616
0.885342
0.99305
1.10179
1.21157
1.32238
1.43418
1.54684
1.66022
1.77409
1.88816
2.00206
2.11531
2.22734
2.33749
2.44494
2.5488
2.64802
2.74143
2.82774
2.90558
2.97343
3.02974
3.07287
3.10117
3.11301
3.10681
3.08108
3.03449
2.9659
2.87442
2.75945
2.62074
2.45839
2.27292
2.06525
1.83675
1.58917
1.32469
1.04583
0.755445
0.456715
0.152841
0.0529324
0.158836
0.264973
0.371543
0.478657
0.58646
0.695088
0.804663
0.915293
1.02707
1.14005
1.25427
1.36974
1.48641
1.60419
1.72294
1.84243
1.96236
2.08237
2.20196
2.32055
2.43742
2.55175
2.66256
2.76876
2.8691
2.9622
3.04658
3.12061
3.18262
3.23083
3.26345
3.27872
3.27489
3.25035
3.20364
3.13348
3.0389
2.91921
2.7741
2.60367
2.40842
2.18933
1.94785
1.68586
1.40567
1.11001
0.801933
0.484879
0.16228
0.0545415
0.163672
0.273066
0.38294
0.493426
0.604689
0.716882
0.830149
0.944616
1.06039
1.17756
1.29617
1.41624
1.53775
1.66061
1.78469
1.90978
2.03557
2.16169
2.28764
2.41281
2.53645
2.65771
2.77555
2.88881
2.99617
3.09617
3.18721
3.26756
3.33541
3.38884
3.42594
3.44478
3.44347
3.42026
3.37354
3.30193
3.20434
3.07999
2.92853
2.75001
2.54497
2.31443
2.0599
1.7834
1.48739
1.17478
0.848857
0.513311
0.17181
0.056102
0.168363
0.280916
0.393998
0.50776
0.622386
0.73805
0.854914
0.973125
1.09281
1.21407
1.33698
1.46158
1.58784
1.71571
1.84506
1.97568
2.10728
2.23946
2.37173
2.50345
2.63386
2.76204
2.88692
3.00726
3.12169
3.22863
3.32639
3.41313
3.4869
3.54566
3.58733
3.60985
3.61118
3.58941
3.5428
3.46985
3.36935
3.24044
3.08272
2.8962
2.68144
2.43949
2.17196
1.88097
1.56915
1.2396
0.895818
0.541768
0.18135
0.057604
0.172878
0.288474
0.404646
0.521566
0.639437
0.758452
0.878795
1.00063
1.12411
1.24935
1.37644
1.50544
1.63634
1.76911
1.90361
2.03966
2.17695
2.31511
2.4536
2.59179
2.72888
2.86391
2.99577
3.12316
3.24461
3.35848
3.46296
3.55609
3.6358
3.69992
3.74622
3.77249
3.77653
3.7563
3.70991
3.63573
3.53244
3.39911
3.23526
3.0409
2.81656
2.56336
2.28298
1.97766
1.65019
1.30385
0.942378
0.569985
0.19081
0.0590376
0.177188
0.295688
0.414812
0.534751
0.655726
0.777951
0.901628
1.02694
1.15406
1.28313
1.41425
1.5475
1.68289
1.82039
1.9599
2.10121
2.24405
2.38802
2.53259
2.6771
2.82073
2.96248
3.10119
3.2355
3.36387
3.48456
3.59568
3.69514
3.78076
3.85021
3.90113
3.93116
3.93796
3.91933
3.87325
3.79795
3.69203
3.55445
3.38467
3.18266
2.94899
2.6848
2.39185
2.0725
1.7297
1.3669
0.988068
0.597677
0.200095
0.0603929
0.181263
0.30251
0.424428
0.547224
0.67114
0.796409
0.923252
1.05187
1.18246
1.31517
1.45014
1.58745
1.72713
1.86917
2.01347
2.15985
2.30803
2.4576
2.60803
2.75865
2.9086
3.05686
3.20221
3.34325
3.47835
3.6057
3.7233
3.82896
3.92035
3.99504
4.05052
4.08428
4.09383
4.07684
4.03114
3.95485
3.84644
3.70481
3.52934
3.32
3.07733
2.80252
2.49741
2.16448
1.80681
1.42806
1.03239
0.624545
0.209104
0.0616605
0.185074
0.308891
0.433423
0.558896
0.685568
0.813692
0.943506
1.07524
1.20908
1.34523
1.48382
1.62496
1.76871
1.91505
2.06389
2.21508
2.36832
2.52323
2.67925
2.83569
2.99169
3.14618
3.2979
3.44539
3.58695
3.7207
3.84454
3.95616
4.05314
4.13291
4.19282
4.23021
4.24247
4.22712
4.18186
4.10469
3.99397
3.84852
3.66768
3.45135
3.20011
2.91517
2.59845
2.25253
1.88065
1.48663
1.07484
0.650278
0.217734
0.0628311
0.188594
0.314785
0.441733
0.56968
0.698902
0.829669
0.962238
1.09685
1.23373
1.37307
1.51503
1.65975
1.80728
1.95763
2.11073
2.26641
2.42441
2.58432
2.74559
2.90751
3.0692
3.22956
3.38729
3.54087
3.68855
3.82836
3.95811
4.07541
4.1777
4.26231
4.32644
4.36732
4.3822
4.36846
4.32368
4.24574
4.1329
3.98391
3.79803
3.57516
3.31587
3.0214
2.69375
2.3356
1.95032
1.5419
1.1149
0.674565
0.22588
0.0638961
0.191797
0.320148
0.449295
0.579495
0.711042
0.844219
0.9793
1.11654
1.25619
1.39845
1.54351
1.6915
1.84251
1.99655
2.15356
2.31339
2.47577
2.64029
2.80641
2.9734
3.14036
3.30616
3.46947
3.62871
3.78207
3.92752
4.06278
4.18537
4.29263
4.38175
4.44986
4.49402
4.51138
4.49917
4.45488
4.37628
4.26153
4.10929
3.91879
3.68989
3.42316
3.11989
2.78212
2.41263
2.01493
1.59316
1.15206
0.697094
0.233436
0.0648474
0.194657
0.324939
0.456051
0.588266
0.721891
0.857225
0.994557
1.13416
1.27629
1.42118
1.56901
1.71995
1.87409
2.03145
2.19199
2.35556
2.5219
2.69061
2.86112
3.0327
3.20444
3.37518
3.54355
3.70793
3.86648
4.01706
4.15735
4.28477
4.39656
4.48983
4.56157
4.60875
4.6284
4.61764
4.57384
4.49467
4.37821
4.22306
4.02839
3.79405
3.52058
3.20933
2.86238
2.48261
2.07364
1.63974
1.18583
0.717568
0.240305
0.0656778
0.197154
0.329121
0.461948
0.595922
0.731363
0.868582
1.00788
1.14955
1.29386
1.44105
1.59132
1.74484
1.90173
2.06202
2.22567
2.39254
2.56236
2.73475
2.90914
3.08479
3.26075
3.43586
3.60872
3.77767
3.9408
4.09595
4.2407
4.37241
4.48824
4.5852
4.66019
4.71008
4.73178
4.72233
4.67899
4.59935
4.48142
4.32372
4.12538
3.88623
3.60683
3.28852
2.93345
2.54459
2.12563
1.68099
1.21574
0.735704
0.246389
0.0663809
0.199268
0.332661
0.46694
0.602403
0.739381
0.878198
1.01917
1.16259
1.30874
1.45788
1.61023
1.76595
1.92518
2.08796
2.25426
2.42394
2.59675
2.77228
2.94999
3.1291
3.30868
3.48754
3.66424
3.8371
4.00417
4.16323
4.31182
4.44723
4.56653
4.66668
4.74447
4.79669
4.82018
4.81187
4.76895
4.68893
4.56975
4.40988
4.20842
3.96517
3.68069
3.35634
2.99434
2.59768
2.17017
1.71634
1.24136
0.751245
0.251604
0.0669513
0.200984
0.335531
0.470986
0.607655
0.745879
0.885992
1.02832
1.17316
1.32081
1.47154
1.62557
1.78309
1.94422
2.10902
2.27748
2.44945
2.62469
2.8028
2.98321
3.16517
3.3477
3.52962
3.70947
3.88553
4.05583
4.2181
4.36983
4.50827
4.63043
4.73319
4.81329
4.86744
4.89239
4.88503
4.84247
4.76215
4.64197
4.48034
4.27634
4.02974
3.74111
3.41184
3.04415
2.64113
2.20663
1.74527
1.26234
0.763966
0.255874
0.0673848
0.202288
0.337711
0.474053
0.611634
0.750802
0.891897
1.03525
1.18117
1.32996
1.4819
1.6372
1.79608
1.95866
2.12501
2.29511
2.46883
2.64592
2.82598
3.00846
3.19258
3.37737
3.56162
3.74387
3.92238
4.09514
4.25987
4.41401
4.55476
4.67911
4.78387
4.86573
4.92136
4.94745
4.94082
4.89854
4.818
4.69705
4.53409
4.32815
4.07901
3.78722
3.45418
3.08217
2.67428
2.23445
1.76735
1.27835
0.773681
0.259136
0.0676756
0.20317
0.339183
0.476116
0.614307
0.754108
0.895862
1.0399
1.18655
1.33611
1.48885
1.64502
1.80481
1.96837
2.13576
2.30696
2.48185
2.66019
2.84158
3.02544
3.21102
3.39734
3.58317
3.76703
3.9472
4.12162
4.28801
4.44377
4.58609
4.71192
4.81803
4.90109
4.95772
4.98457
4.97844
4.93636
4.85567
4.73422
4.57035
4.36311
4.11225
3.81833
3.48276
3.10783
2.69666
2.25323
1.78225
1.28916
0.78025
0.261347
0.0678083
0.203596
0.339919
0.477151
0.61565
0.755769
0.897853
1.04224
1.18925
1.3392
1.49235
1.64895
1.8092
1.97324
2.14116
2.31292
2.4884
2.66737
2.84942
3.03399
3.2203
3.40738
3.59401
3.77869
3.95969
4.13495
4.30217
4.45876
4.60187
4.72844
4.83524
4.91891
4.97604
5.00329
4.99741
4.95542
4.87467
4.75296
4.58865
4.38075
4.12903
3.83403
3.49719
3.12078
2.70796
2.26271
1.78978
1.29463
0.783607
0.262492
)
;

boundaryField
{
    walls
    {
        type            calculated;
        value           nonuniform List<scalar> 
200
(
0.0678083
0.203596
0.339919
0.477151
0.61565
0.755769
0.897853
1.04224
1.18925
1.3392
1.49235
1.64895
1.8092
1.97324
2.14116
2.31292
2.4884
2.66737
2.84942
3.03399
3.2203
3.40738
3.59401
3.77869
3.95969
4.13495
4.30217
4.45876
4.60187
4.72844
4.83524
4.91891
4.97604
5.00329
4.99741
4.95542
4.87467
4.75296
4.58865
4.38075
4.12903
3.83403
3.49719
3.12078
2.70796
2.26271
1.78978
1.29463
0.783607
0.262492
0
0
0
0
0
0
0
0
0
0
0
0
0
0
0
0
0
0
0
0
0
0
0
0
0
0
0
0
0
0
0
0
0
0
0
0
0
0
0
0
0
0
0
0
0
0
0
0
0
0
0
0
0
0
0
0
0
0
0
0
0
0
0
0
0
0
0
0
0
0
0
0
0
0
0
0
0
0
0
0
0
0
0
0
0
0
0
0
0
0
0
0
0
0
0
0
0
0
0
0
0.0154826
0.0463791
0.0771601
0.10778
0.138133
0.168141
0.197724
0.226804
0.255298
0.283121
0.310188
0.336413
0.361704
0.385972
0.409124
0.431064
0.451699
0.470931
0.488665
0.504804
0.519253
0.531919
0.54271
0.551538
0.558318
0.562973
0.56543
0.565623
0.563496
0.559001
0.552101
0.542773
0.531003
0.516794
0.500162
0.481139
0.459774
0.436131
0.410291
0.382352
0.352431
0.320656
0.287177
0.252153
0.215761
0.178188
0.139631
0.100296
0.0603981
0.020168
)
;
    }
    frontAndBack
    {
        type            empty;
    }
}


// ************************************************************************* //
