/*--------------------------------*- C++ -*----------------------------------*\
| =========                 |                                                 |
| \\      /  F ield         | OpenFOAM: The Open Source CFD Toolbox           |
|  \\    /   O peration     | Version:  2406                                  |
|   \\  /    A nd           | Website:  www.openfoam.com                      |
|    \\/     M anipulation  |                                                 |
\*---------------------------------------------------------------------------*/
FoamFile
{
    version     2.0;
    format      ascii;
    arch        "LSB;label=32;scalar=64";
    class       volScalarField;
    location    "2.45";
    object      T;
}
// * * * * * * * * * * * * * * * * * * * * * * * * * * * * * * * * * * * * * //

dimensions      [0 0 0 1 0 0 0];

internalField   nonuniform List<scalar> 
2500
(
0.428935
0.429554
0.43079
0.43264
0.435101
0.438166
0.441827
0.446075
0.450899
0.456286
0.462224
0.468694
0.47568
0.483162
0.491119
0.499527
0.508362
0.517595
0.527199
0.537142
0.547391
0.557912
0.568668
0.57962
0.590729
0.601953
0.613248
0.62457
0.635873
0.64711
0.658233
0.669194
0.679944
0.690434
0.700616
0.710441
0.719861
0.728832
0.737307
0.745243
0.752601
0.75934
0.765427
0.770828
0.775513
0.779458
0.782641
0.785043
0.786652
0.787459
0.429554
0.430176
0.431418
0.433277
0.435749
0.438827
0.442505
0.446773
0.45162
0.457033
0.462999
0.4695
0.47652
0.484039
0.492035
0.500485
0.509365
0.518646
0.528299
0.538295
0.548599
0.559176
0.569991
0.581005
0.592177
0.603465
0.614825
0.626214
0.637585
0.64889
0.660081
0.67111
0.681928
0.692486
0.702733
0.712622
0.722105
0.731136
0.739668
0.747659
0.755067
0.761854
0.767983
0.773421
0.77814
0.782113
0.785319
0.787739
0.789359
0.790171
0.43079
0.431418
0.43267
0.434546
0.437041
0.440148
0.44386
0.448167
0.45306
0.458524
0.464546
0.47111
0.478197
0.48579
0.493865
0.502399
0.511368
0.520744
0.530498
0.540598
0.551012
0.561704
0.572637
0.583772
0.59507
0.606487
0.617979
0.629502
0.641007
0.652449
0.663778
0.674944
0.685898
0.696589
0.706969
0.716988
0.726596
0.735747
0.744394
0.752494
0.760004
0.766884
0.773099
0.778614
0.783399
0.787429
0.79068
0.793135
0.794779
0.795603
0.43264
0.433277
0.434546
0.436448
0.438976
0.442126
0.445889
0.450256
0.455216
0.460757
0.466864
0.473521
0.480711
0.488413
0.496607
0.505268
0.514372
0.52389
0.533794
0.544052
0.55463
0.565493
0.576605
0.587924
0.59941
0.611021
0.622711
0.634435
0.646145
0.657792
0.669327
0.6807
0.691859
0.702753
0.713332
0.723545
0.733342
0.742675
0.751496
0.759759
0.767423
0.774445
0.780789
0.786419
0.791305
0.79542
0.79874
0.801247
0.802927
0.803768
0.435101
0.435749
0.437041
0.438976
0.44155
0.444757
0.448587
0.453034
0.458084
0.463727
0.469948
0.47673
0.484055
0.491905
0.500257
0.509088
0.518371
0.52808
0.538185
0.548653
0.559452
0.570545
0.581894
0.593459
0.605198
0.617068
0.629024
0.641017
0.653
0.664923
0.676735
0.688384
0.699818
0.710984
0.721831
0.732305
0.742356
0.751933
0.760987
0.769471
0.777341
0.784554
0.791071
0.796856
0.801877
0.806106
0.809519
0.812097
0.813824
0.814689
0.438166
0.438827
0.440148
0.442126
0.444757
0.448034
0.451949
0.456495
0.461659
0.46743
0.473792
0.48073
0.488226
0.49626
0.50481
0.513853
0.523362
0.53331
0.543666
0.554399
0.565474
0.576854
0.588502
0.600376
0.612433
0.62463
0.636918
0.649251
0.661578
0.673847
0.686008
0.698005
0.709785
0.721295
0.732478
0.743282
0.753652
0.763537
0.772886
0.781648
0.789779
0.797232
0.803968
0.80995
0.815142
0.819516
0.823046
0.825712
0.827499
0.828394
0.441827
0.442505
0.44386
0.445889
0.448587
0.451949
0.455967
0.460632
0.465933
0.471857
0.47839
0.485515
0.493216
0.501472
0.51026
0.519558
0.529338
0.539574
0.550233
0.561284
0.572692
0.58442
0.596428
0.608674
0.621115
0.633705
0.646397
0.659139
0.671882
0.684571
0.697153
0.709572
0.721772
0.733697
0.745289
0.756493
0.767251
0.77751
0.787216
0.796316
0.804763
0.81251
0.819512
0.825731
0.831132
0.835682
0.839354
0.842129
0.843988
0.84492
0.446075
0.446773
0.448167
0.450256
0.453034
0.456495
0.460632
0.465436
0.470896
0.476999
0.483731
0.491076
0.499016
0.507531
0.516598
0.526194
0.536293
0.546865
0.557879
0.569304
0.581102
0.593237
0.605667
0.618351
0.631243
0.644296
0.657461
0.670686
0.683918
0.697101
0.71018
0.723097
0.735792
0.748207
0.760282
0.771957
0.783174
0.793875
0.804004
0.813505
0.822326
0.830419
0.837737
0.844239
0.849885
0.854644
0.858486
0.861388
0.863334
0.864308
0.450899
0.45162
0.45306
0.455216
0.458084
0.461659
0.465933
0.470896
0.476538
0.482846
0.489807
0.497403
0.505617
0.514428
0.523815
0.533753
0.544216
0.555174
0.566597
0.57845
0.590697
0.6033
0.616217
0.629404
0.642815
0.656402
0.670113
0.683894
0.697691
0.711445
0.725099
0.738591
0.751859
0.764842
0.777476
0.789699
0.801448
0.812662
0.823281
0.833246
0.842503
0.850999
0.858684
0.865514
0.871447
0.876448
0.880487
0.883539
0.885584
0.886609
0.456286
0.457033
0.458524
0.460757
0.463727
0.46743
0.471857
0.476999
0.482846
0.489386
0.496603
0.504482
0.513005
0.522151
0.531899
0.542224
0.553098
0.564493
0.576376
0.588714
0.60147
0.614603
0.628071
0.641829
0.65583
0.670022
0.684353
0.698768
0.713207
0.727612
0.74192
0.756067
0.76999
0.783621
0.796893
0.809742
0.822099
0.833901
0.845081
0.85558
0.865336
0.874293
0.882399
0.889605
0.895867
0.901147
0.905412
0.908635
0.910796
0.911878
0.462224
0.462999
0.464546
0.466864
0.469948
0.473792
0.47839
0.483731
0.489807
0.496603
0.504106
0.5123
0.521167
0.530687
0.540837
0.551592
0.562926
0.574808
0.587207
0.600087
0.61341
0.627137
0.641223
0.655621
0.670283
0.685155
0.700183
0.715309
0.730472
0.745608
0.760654
0.775541
0.790201
0.804564
0.818558
0.832114
0.84516
0.857626
0.869443
0.880545
0.890867
0.900348
0.908932
0.916565
0.923201
0.928798
0.93332
0.936737
0.939029
0.940177
0.468694
0.4695
0.47111
0.473521
0.47673
0.48073
0.485515
0.491076
0.497403
0.504482
0.5123
0.520842
0.530088
0.540019
0.550613
0.561844
0.573685
0.586106
0.599075
0.612555
0.626508
0.640893
0.655664
0.670773
0.686169
0.701798
0.717602
0.73352
0.749489
0.765442
0.781311
0.797025
0.81251
0.827692
0.842495
0.856844
0.870662
0.883875
0.896407
0.908187
0.919145
0.929216
0.938337
0.946452
0.953509
0.959463
0.964274
0.967911
0.97035
0.971572
0.47568
0.47652
0.478197
0.480711
0.484055
0.488226
0.493216
0.499016
0.505617
0.513005
0.521167
0.530088
0.539749
0.55013
0.56121
0.572962
0.585359
0.598372
0.611966
0.626105
0.64075
0.655858
0.671383
0.687275
0.703482
0.719945
0.736606
0.7534
0.770262
0.78712
0.803902
0.820533
0.836934
0.853026
0.868729
0.883961
0.89864
0.912684
0.926013
0.93855
0.95022
0.96095
0.970672
0.979326
0.986854
0.993207
0.998343
1.00223
1.00483
1.00614
0.483162
0.484039
0.48579
0.488413
0.491905
0.49626
0.501472
0.507531
0.514428
0.522151
0.530687
0.540019
0.55013
0.561001
0.572608
0.584927
0.597929
0.611585
0.625861
0.640719
0.65612
0.672019
0.688368
0.705118
0.722211
0.73959
0.757192
0.774949
0.792791
0.810646
0.828434
0.846076
0.863489
0.880587
0.897285
0.913494
0.929125
0.944092
0.958307
0.971684
0.984143
0.995606
1.006
1.01525
1.0233
1.0301
1.0356
1.03975
1.04254
1.04394
0.491119
0.492035
0.493865
0.496607
0.500257
0.50481
0.51026
0.516598
0.523815
0.531899
0.540837
0.550613
0.56121
0.572608
0.584785
0.597716
0.611374
0.625726
0.640741
0.656378
0.672599
0.689357
0.706603
0.724285
0.742346
0.760723
0.779352
0.798161
0.817077
0.836022
0.854913
0.873665
0.892189
0.910393
0.928186
0.945471
0.962153
0.978137
0.993329
1.00764
1.02097
1.03324
1.04437
1.05429
1.06292
1.07021
1.07611
1.08057
1.08356
1.08506
0.499527
0.500485
0.502399
0.505268
0.509088
0.513853
0.519558
0.526194
0.533753
0.542224
0.551592
0.561844
0.572962
0.584927
0.597716
0.611306
0.625668
0.640771
0.656581
0.67306
0.690165
0.707852
0.726068
0.744761
0.76387
0.783331
0.803075
0.823029
0.843114
0.863247
0.883342
0.903306
0.923045
0.942461
0.961453
0.979918
0.997754
1.01486
1.03112
1.04645
1.06075
1.07391
1.08586
1.09651
1.10578
1.11362
1.11996
1.12475
1.12797
1.12959
0.508362
0.509365
0.511368
0.514372
0.518371
0.523362
0.529338
0.536293
0.544216
0.553098
0.562926
0.573685
0.585359
0.597929
0.611374
0.625668
0.640784
0.656691
0.673355
0.690737
0.708794
0.727479
0.746741
0.766523
0.786764
0.807396
0.828347
0.849541
0.870893
0.892318
0.91372
0.935004
0.956066
0.976802
0.997103
1.01686
1.03596
1.05428
1.07172
1.08817
1.10352
1.11767
1.13051
1.14197
1.15195
1.16038
1.16721
1.17238
1.17584
1.17758
0.517595
0.518646
0.520744
0.52389
0.52808
0.53331
0.539574
0.546865
0.555174
0.564493
0.574808
0.586106
0.598372
0.611585
0.625726
0.640771
0.656691
0.673456
0.691032
0.709379
0.728455
0.748211
0.768594
0.789546
0.811004
0.832896
0.855149
0.87768
0.900402
0.923222
0.946041
0.968755
0.991254
1.01342
1.03515
1.05631
1.07678
1.09644
1.11517
1.13285
1.14935
1.16457
1.17839
1.19073
1.20148
1.21058
1.21794
1.22351
1.22725
1.22912
0.527199
0.528299
0.530498
0.533794
0.538185
0.543666
0.550233
0.557879
0.566597
0.576376
0.587207
0.599075
0.611966
0.625861
0.640741
0.656581
0.673355
0.691032
0.709578
0.728954
0.749115
0.770014
0.791595
0.813799
0.83656
0.859805
0.883455
0.907424
0.93162
0.955945
0.980293
1.00455
1.0286
1.05233
1.0756
1.09828
1.12025
1.14136
1.16149
1.1805
1.19826
1.21465
1.22955
1.24285
1.25444
1.26425
1.2722
1.27821
1.28225
1.28428
0.537142
0.538295
0.540598
0.544052
0.548653
0.554399
0.561284
0.569304
0.57845
0.588714
0.600087
0.612555
0.626105
0.640719
0.656378
0.67306
0.690737
0.709379
0.728954
0.74942
0.770735
0.792849
0.815706
0.839245
0.863397
0.888087
0.913232
0.938743
0.964521
0.990462
1.01645
1.04238
1.06811
1.09351
1.11844
1.14278
1.16636
1.18905
1.21069
1.23115
1.25028
1.26794
1.28401
1.29835
1.31088
1.32147
1.33005
1.33655
1.34091
1.3431
0.547391
0.548599
0.551012
0.55463
0.559452
0.565474
0.572692
0.581102
0.590697
0.60147
0.61341
0.626508
0.64075
0.65612
0.672599
0.690165
0.708794
0.728455
0.749115
0.770735
0.793271
0.816673
0.840884
0.865841
0.891473
0.917702
0.944443
0.971599
0.999069
1.02674
1.0545
1.08221
1.10973
1.13694
1.16368
1.18979
1.21512
1.2395
1.26279
1.28482
1.30543
1.32447
1.3418
1.35729
1.37081
1.38225
1.39153
1.39855
1.40327
1.40564
0.557912
0.559176
0.561704
0.565493
0.570545
0.576854
0.58442
0.593237
0.6033
0.614603
0.627137
0.640893
0.655858
0.672019
0.689357
0.707852
0.727479
0.748211
0.770014
0.792849
0.816673
0.841435
0.867077
0.893536
0.920738
0.948601
0.977037
1.00595
1.03522
1.06474
1.09438
1.124
1.15346
1.1826
1.21127
1.23929
1.2665
1.29272
1.31778
1.34149
1.36371
1.38424
1.40294
1.41966
1.43427
1.44663
1.45666
1.46425
1.46935
1.47191
0.568668
0.569991
0.572637
0.576605
0.581894
0.588502
0.596428
0.605667
0.616217
0.628071
0.641223
0.655664
0.671383
0.688368
0.706603
0.726068
0.746741
0.768594
0.791595
0.815706
0.840884
0.867077
0.894229
0.922272
0.951132
0.980726
1.01096
1.04173
1.07292
1.1044
1.13605
1.16771
1.19923
1.23044
1.26117
1.29125
1.32047
1.34866
1.37562
1.40116
1.42509
1.44724
1.46742
1.48547
1.50124
1.5146
1.52543
1.53365
1.53916
1.54193
0.57962
0.581005
0.583772
0.587924
0.593459
0.600376
0.608674
0.618351
0.629404
0.641829
0.655621
0.670773
0.687275
0.705118
0.724285
0.744761
0.766523
0.789546
0.813799
0.839245
0.865841
0.893536
0.922272
0.951982
0.982589
1.01401
1.04614
1.07887
1.11209
1.14566
1.17944
1.21327
1.24698
1.2804
1.31334
1.3456
1.37698
1.40727
1.43627
1.46377
1.48955
1.51342
1.53519
1.55467
1.5717
1.58613
1.59784
1.60671
1.61268
1.61567
0.590729
0.592177
0.59507
0.59941
0.605198
0.612433
0.621115
0.631243
0.642815
0.65583
0.670283
0.686169
0.703482
0.722211
0.742346
0.76387
0.786764
0.811004
0.83656
0.863397
0.891473
0.920738
0.951132
0.982589
1.01503
1.04836
1.08249
1.1173
1.15266
1.18843
1.22446
1.26059
1.29663
1.33239
1.36768
1.40227
1.43595
1.46849
1.49967
1.52925
1.55701
1.58273
1.6062
1.62721
1.64559
1.66117
1.67381
1.6834
1.68984
1.69308
0.601953
0.603465
0.606487
0.611021
0.617068
0.62463
0.633705
0.644296
0.656402
0.670022
0.685155
0.701798
0.719945
0.73959
0.760723
0.783331
0.807396
0.832896
0.859805
0.888087
0.917702
0.948601
0.980726
1.01401
1.04836
1.08371
1.11993
1.15691
1.19452
1.23261
1.27102
1.30958
1.34808
1.38632
1.42409
1.46115
1.49727
1.5322
1.56569
1.5975
1.62737
1.65506
1.68034
1.70299
1.72281
1.73962
1.75326
1.76361
1.77057
1.77406
0.613248
0.614825
0.617979
0.622711
0.629024
0.636918
0.646397
0.657461
0.670113
0.684353
0.700183
0.717602
0.736606
0.757192
0.779352
0.803075
0.828347
0.855149
0.883455
0.913232
0.944443
0.977037
1.01096
1.04614
1.08249
1.11993
1.15834
1.1976
1.23757
1.27809
1.319
1.3601
1.40119
1.44205
1.48244
1.52211
1.56081
1.59827
1.63422
1.66838
1.70049
1.73027
1.75748
1.78187
1.80322
1.82134
1.83605
1.84721
1.85471
1.85848
0.62457
0.626214
0.629502
0.634435
0.641017
0.649251
0.659139
0.670686
0.683894
0.698768
0.715309
0.73352
0.7534
0.774949
0.798161
0.823029
0.849541
0.87768
0.907424
0.938743
0.971599
1.00595
1.04173
1.07887
1.1173
1.15691
1.1976
1.23923
1.28166
1.32473
1.36825
1.41202
1.45583
1.49943
1.54257
1.585
1.62642
1.66654
1.70508
1.74173
1.7762
1.80819
1.83744
1.86367
1.88665
1.90615
1.92199
1.934
1.94209
1.94615
0.635873
0.637585
0.641007
0.646145
0.653
0.661578
0.671882
0.683918
0.697691
0.713207
0.730472
0.749489
0.770262
0.792791
0.817077
0.843114
0.870893
0.900402
0.93162
0.964521
0.999069
1.03522
1.07292
1.11209
1.15266
1.19452
1.23757
1.28166
1.32665
1.37236
1.4186
1.46516
1.5118
1.55827
1.6043
1.6496
1.69387
1.73679
1.77805
1.81732
1.85427
1.8886
1.91999
1.94816
1.97285
1.99381
2.01084
2.02377
2.03246
2.03683
0.64711
0.64889
0.652449
0.657792
0.664923
0.673847
0.684571
0.697101
0.711445
0.727612
0.745608
0.765442
0.78712
0.810646
0.836022
0.863247
0.892318
0.923222
0.955945
0.990462
1.02674
1.06474
1.1044
1.14566
1.18843
1.23261
1.27809
1.32473
1.37236
1.42081
1.46987
1.51932
1.56891
1.61837
1.6674
1.7157
1.76294
1.80878
1.85288
1.89489
1.93444
1.97121
2.00485
2.03506
2.06154
2.08404
2.10232
2.11619
2.12553
2.13022
0.658233
0.660081
0.663778
0.669327
0.676735
0.686008
0.697153
0.71018
0.725099
0.74192
0.760654
0.781311
0.803902
0.828434
0.854913
0.883342
0.91372
0.946041
0.980293
1.01645
1.0545
1.09438
1.13605
1.17944
1.22446
1.27102
1.319
1.36825
1.4186
1.46987
1.52184
1.57428
1.62692
1.67946
1.73161
1.78302
1.83335
1.88222
1.92928
1.97413
2.0164
2.0557
2.09169
2.12402
2.15238
2.17647
2.19606
2.21093
2.22094
2.22597
0.669194
0.67111
0.674944
0.6807
0.688384
0.698005
0.709572
0.723097
0.738591
0.756067
0.775541
0.797025
0.820533
0.846076
0.873665
0.903306
0.935004
0.968755
1.00455
1.04238
1.08221
1.124
1.16771
1.21327
1.26059
1.30958
1.3601
1.41202
1.46516
1.51932
1.57428
1.62978
1.68555
1.74128
1.79663
1.85125
1.90477
1.95678
2.00689
2.05469
2.09976
2.1417
2.18012
2.21465
2.24495
2.2707
2.29164
2.30755
2.31825
2.32363
0.679944
0.681928
0.685898
0.691859
0.699818
0.709785
0.721772
0.735792
0.751859
0.76999
0.790201
0.81251
0.836934
0.863489
0.892189
0.923045
0.956066
0.991254
1.0286
1.06811
1.10973
1.15346
1.19923
1.24698
1.29663
1.34808
1.40119
1.45583
1.5118
1.56891
1.62692
1.68555
1.74453
1.80351
1.86215
1.92006
1.97684
2.03207
2.08532
2.13615
2.18411
2.22876
2.26969
2.30649
2.33879
2.36625
2.38859
2.40556
2.41698
2.42272
0.690434
0.692486
0.696589
0.702753
0.710984
0.721295
0.733697
0.748207
0.764842
0.783621
0.804564
0.827692
0.853026
0.880587
0.910393
0.942461
0.976802
1.01342
1.05233
1.09351
1.13694
1.1826
1.23044
1.2804
1.33239
1.38632
1.44205
1.49943
1.55827
1.61837
1.67946
1.74128
1.80351
1.8658
1.92778
1.98904
2.04916
2.10768
2.16414
2.21806
2.26897
2.31639
2.35988
2.399
2.43335
2.46257
2.48634
2.5044
2.51656
2.52267
0.700616
0.702733
0.706969
0.713332
0.721831
0.732478
0.745289
0.760282
0.777476
0.796893
0.818558
0.842495
0.868729
0.897285
0.928186
0.961453
0.997103
1.03515
1.0756
1.11844
1.16368
1.21127
1.26117
1.31334
1.36768
1.42409
1.48244
1.54257
1.6043
1.6674
1.73161
1.79663
1.86215
1.92778
1.99314
2.0578
2.12129
2.18313
2.24284
2.2999
2.35381
2.40405
2.45014
2.49162
2.52806
2.55906
2.58428
2.60346
2.61636
2.62285
0.710441
0.712622
0.716988
0.723545
0.732305
0.743282
0.756493
0.771957
0.789699
0.809742
0.832114
0.856844
0.883961
0.913494
0.945471
0.979918
1.01686
1.05631
1.09828
1.14278
1.18979
1.23929
1.29125
1.3456
1.40227
1.46115
1.52211
1.585
1.6496
1.7157
1.78302
1.85125
1.92006
1.98904
2.0578
2.12585
2.19274
2.25793
2.32091
2.38113
2.43805
2.49113
2.53985
2.58371
2.62225
2.65505
2.68174
2.70204
2.7157
2.72257
0.719861
0.722105
0.726596
0.733342
0.742356
0.753652
0.767251
0.783174
0.801448
0.822099
0.84516
0.870662
0.89864
0.929125
0.962153
0.997754
1.03596
1.07678
1.12025
1.16636
1.21512
1.2665
1.32047
1.37698
1.43595
1.49727
1.56081
1.62642
1.69387
1.76294
1.83335
1.90477
1.97684
2.04916
2.12129
2.19274
2.263
2.33153
2.39777
2.46115
2.52108
2.577
2.62834
2.67458
2.71522
2.74982
2.77798
2.7994
2.81382
2.82107
0.728832
0.731136
0.735747
0.742675
0.751933
0.763537
0.77751
0.793875
0.812662
0.833901
0.857626
0.883875
0.912684
0.944092
0.978137
1.01486
1.05428
1.09644
1.14136
1.18905
1.2395
1.29272
1.34866
1.40727
1.46849
1.5322
1.59827
1.66654
1.73679
1.80878
1.88222
1.95678
2.03207
2.10768
2.18313
2.25793
2.33153
2.40336
2.47283
2.53933
2.60224
2.66096
2.7149
2.7635
2.80622
2.8426
2.87223
2.89476
2.90992
2.91756
0.737307
0.739668
0.744394
0.751496
0.760987
0.772886
0.787216
0.804004
0.823281
0.845081
0.869443
0.896407
0.926013
0.958307
0.993329
1.03112
1.07172
1.11517
1.16149
1.21069
1.26279
1.31778
1.37562
1.43627
1.49967
1.56569
1.63422
1.70508
1.77805
1.85288
1.92928
2.00689
2.08532
2.16414
2.24284
2.32091
2.39777
2.47283
2.54545
2.61501
2.68084
2.74231
2.7988
2.84971
2.89447
2.93261
2.96366
2.98728
3.00318
3.01119
0.745243
0.747659
0.752494
0.759759
0.769471
0.781648
0.796316
0.813505
0.833246
0.85558
0.880545
0.908187
0.93855
0.971684
1.00764
1.04645
1.08817
1.13285
1.1805
1.23115
1.28482
1.34149
1.40116
1.46377
1.52925
1.5975
1.66838
1.74173
1.81732
1.89489
1.97413
2.05469
2.13615
2.21806
2.2999
2.38113
2.46115
2.53933
2.61501
2.68752
2.75618
2.82032
2.87927
2.93242
2.97917
3.019
3.05144
3.07612
3.09274
3.1011
0.752601
0.755067
0.760004
0.767423
0.777341
0.789779
0.804763
0.822326
0.842503
0.865336
0.890867
0.919145
0.95022
0.984143
1.02097
1.06075
1.10352
1.14935
1.19826
1.25028
1.30543
1.36371
1.42509
1.48955
1.55701
1.62737
1.70049
1.7762
1.85427
1.93444
2.0164
2.09976
2.18411
2.26897
2.35381
2.43805
2.52108
2.60224
2.68084
2.75618
2.82755
2.89423
2.95555
3.01084
3.05949
3.10094
3.13472
3.16041
3.17771
3.18642
0.75934
0.761854
0.766884
0.774445
0.784554
0.797232
0.81251
0.830419
0.850999
0.874293
0.900348
0.929216
0.96095
0.995606
1.03324
1.07391
1.11767
1.16457
1.21465
1.26794
1.32447
1.38424
1.44724
1.51342
1.58273
1.65506
1.73027
1.80819
1.8886
1.97121
2.0557
2.1417
2.22876
2.31639
2.40405
2.49113
2.577
2.66096
2.74231
2.82032
2.89423
2.96332
3.02687
3.08418
3.13462
3.1776
3.21263
3.23928
3.25723
3.26626
0.765427
0.767983
0.773099
0.780789
0.791071
0.803968
0.819512
0.837737
0.858684
0.882399
0.908932
0.938337
0.970672
1.006
1.04437
1.08586
1.13051
1.17839
1.22955
1.28401
1.3418
1.40294
1.46742
1.53519
1.6062
1.68034
1.75748
1.83744
1.91999
2.00485
2.09169
2.18012
2.26969
2.35988
2.45014
2.53985
2.62834
2.7149
2.7988
2.87927
2.95555
3.02687
3.09248
3.15166
3.20376
3.24817
3.28436
3.3119
3.33044
3.33978
0.770828
0.773421
0.778614
0.786419
0.796856
0.80995
0.825731
0.844239
0.865514
0.889605
0.916565
0.946452
0.979326
1.01525
1.05429
1.09651
1.14197
1.19073
1.24285
1.29835
1.35729
1.41966
1.48547
1.55467
1.62721
1.70299
1.78187
1.86367
1.94816
2.03506
2.12402
2.21465
2.30649
2.399
2.49162
2.58371
2.67458
2.7635
2.84971
2.93242
3.01084
3.08418
3.15166
3.21255
3.26616
3.31186
3.34911
3.37745
3.39654
3.40615
0.775513
0.77814
0.783399
0.791305
0.801877
0.815142
0.831132
0.849885
0.871447
0.895867
0.923201
0.953509
0.986854
1.0233
1.06292
1.10578
1.15195
1.20148
1.25444
1.31088
1.37081
1.43427
1.50124
1.5717
1.64559
1.72281
1.80322
1.88665
1.97285
2.06154
2.15238
2.24495
2.33879
2.43335
2.52806
2.62225
2.71522
2.80622
2.89447
2.97917
3.05949
3.13462
3.20376
3.26616
3.3211
3.36794
3.40613
3.43518
3.45476
3.46461
0.779458
0.782113
0.787429
0.79542
0.806106
0.819516
0.835682
0.854644
0.876448
0.901147
0.928798
0.959463
0.993207
1.0301
1.07021
1.11362
1.16038
1.21058
1.26425
1.32147
1.38225
1.44663
1.5146
1.58613
1.66117
1.73962
1.82134
1.90615
1.99381
2.08404
2.17647
2.2707
2.36625
2.46257
2.55906
2.65505
2.74982
2.8426
2.93261
3.019
3.10094
3.1776
3.24817
3.31186
3.36794
3.41577
3.45475
3.48442
3.5044
3.51447
0.782641
0.785319
0.79068
0.79874
0.809519
0.823046
0.839354
0.858486
0.880487
0.905412
0.93332
0.964274
0.998343
1.0356
1.07611
1.11996
1.16721
1.21794
1.2722
1.33005
1.39153
1.45666
1.52543
1.59784
1.67381
1.75326
1.83605
1.92199
2.01084
2.10232
2.19606
2.29164
2.38859
2.48634
2.58428
2.68174
2.77798
2.87223
2.96366
3.05144
3.13472
3.21263
3.28436
3.34911
3.40613
3.45475
3.49439
3.52456
3.54488
3.55512
0.785043
0.787739
0.793135
0.801247
0.812097
0.825712
0.842129
0.861388
0.883539
0.908635
0.936737
0.967911
1.00223
1.03975
1.08057
1.12475
1.17238
1.22351
1.27821
1.33655
1.39855
1.46425
1.53365
1.60671
1.6834
1.76361
1.84721
1.934
2.02377
2.11619
2.21093
2.30755
2.40556
2.5044
2.60346
2.70204
2.7994
2.89476
2.98728
3.07612
3.16041
3.23928
3.3119
3.37745
3.43518
3.48442
3.52456
3.55511
3.57569
3.58606
0.786652
0.789359
0.794779
0.802927
0.813824
0.827499
0.843988
0.863334
0.885584
0.910796
0.939029
0.97035
1.00483
1.04254
1.08356
1.12797
1.17584
1.22725
1.28225
1.34091
1.40327
1.46935
1.53916
1.61268
1.68984
1.77057
1.85471
1.94209
2.03246
2.12553
2.22094
2.31825
2.41698
2.51656
2.61636
2.7157
2.81382
2.90992
3.00318
3.09274
3.17771
3.25723
3.33044
3.39654
3.45476
3.5044
3.54488
3.57569
3.59645
3.6069
0.787459
0.790171
0.795603
0.803768
0.814689
0.828394
0.84492
0.864308
0.886609
0.911878
0.940177
0.971572
1.00614
1.04394
1.08506
1.12959
1.17758
1.22912
1.28428
1.3431
1.40564
1.47191
1.54193
1.61567
1.69308
1.77406
1.85848
1.94615
2.03683
2.13022
2.22597
2.32363
2.42272
2.52267
2.62285
2.72257
2.82107
2.91756
3.01119
3.1011
3.18642
3.26626
3.33978
3.40615
3.46461
3.51447
3.55512
3.58606
3.6069
3.6174
)
;

boundaryField
{
    walls
    {
        type            zeroGradient;
    }
    frontAndBack
    {
        type            empty;
    }
}


// ************************************************************************* //
