/*--------------------------------*- C++ -*----------------------------------*\
| =========                 |                                                 |
| \\      /  F ield         | OpenFOAM: The Open Source CFD Toolbox           |
|  \\    /   O peration     | Version:  2406                                  |
|   \\  /    A nd           | Website:  www.openfoam.com                      |
|    \\/     M anipulation  |                                                 |
\*---------------------------------------------------------------------------*/
FoamFile
{
    version     2.0;
    format      ascii;
    arch        "LSB;label=32;scalar=64";
    class       volScalarField;
    location    "100";
    object      k;
}
// * * * * * * * * * * * * * * * * * * * * * * * * * * * * * * * * * * * * * //

dimensions      [0 2 -2 0 0 0 0];

internalField   nonuniform List<scalar> 
12225
(
0.539011
0.802198
0.971827
1.0604
1.09376
1.08996
1.07754
1.05144
1.02224
0.993774
0.967266
0.942747
0.921638
0.901581
0.886608
0.870141
0.862095
0.848478
0.382331
0.38964
0.401289
0.416177
0.429572
0.445395
0.459844
0.479004
0.496812
0.520645
0.537142
0.559232
0.573336
0.59372
0.605186
0.623628
0.631992
0.647759
0.374199
0.372581
0.371783
0.369263
0.365519
0.360305
0.355461
0.350299
0.346217
0.342785
0.340041
0.337872
0.336058
0.334882
0.333734
0.333245
0.332339
0.332327
0.373903
0.371156
0.369572
0.367041
0.364621
0.360913
0.357603
0.353254
0.349537
0.345076
0.341392
0.337108
0.333605
0.329574
0.326305
0.322652
0.319668
0.316448
0.373936
0.371267
0.369438
0.36715
0.365156
0.362466
0.360096
0.357103
0.354482
0.351336
0.348615
0.345413
0.342707
0.339576
0.33701
0.334017
0.331697
0.328897
0.373928
0.371454
0.369502
0.367355
0.365493
0.3633
0.36133
0.359048
0.356981
0.354642
0.352536
0.350176
0.348083
0.345747
0.343745
0.341481
0.339647
0.33749
0.373898
0.371548
0.36952
0.36745
0.365608
0.363656
0.361867
0.359952
0.358175
0.356279
0.35452
0.352646
0.350923
0.349082
0.347435
0.345654
0.344131
0.342424
0.373868
0.371577
0.369504
0.367468
0.365607
0.363756
0.362037
0.360304
0.358675
0.35702
0.35546
0.353864
0.352367
0.350826
0.349406
0.347929
0.34661
0.345196
0.373849
0.371578
0.369475
0.36745
0.365566
0.363746
0.362043
0.360384
0.358819
0.357282
0.355825
0.354382
0.353015
0.351652
0.35037
0.349081
0.347892
0.346669
0.373838
0.371573
0.369451
0.367425
0.365523
0.363706
0.361997
0.360359
0.358811
0.357319
0.355904
0.354534
0.353231
0.351961
0.350756
0.349573
0.348461
0.347355
0.373833
0.371567
0.369432
0.367404
0.365489
0.363668
0.361948
0.360309
0.358758
0.357277
0.355872
0.354526
0.353246
0.352015
0.350844
0.349714
0.348638
0.347595
0.37383
0.371563
0.369421
0.367389
0.365466
0.36364
0.361911
0.360268
0.35871
0.357226
0.355818
0.354475
0.353198
0.351977
0.350814
0.349702
0.348639
0.347619
0.373828
0.371559
0.369412
0.367377
0.365448
0.363618
0.361883
0.360234
0.358669
0.357181
0.355766
0.354421
0.353139
0.351919
0.350756
0.349647
0.348586
0.347575
0.373827
0.371556
0.369405
0.367366
0.365433
0.363598
0.361857
0.360203
0.358632
0.357139
0.355718
0.354367
0.35308
0.351856
0.350688
0.349577
0.348514
0.347502
0.373826
0.371553
0.369399
0.367357
0.36542
0.363581
0.361835
0.360177
0.358601
0.357102
0.355676
0.35432
0.353028
0.351798
0.350625
0.349509
0.348442
0.347426
0.373825
0.371551
0.369395
0.36735
0.36541
0.363567
0.361818
0.360155
0.358575
0.357072
0.355641
0.35428
0.352983
0.351748
0.350571
0.349449
0.348378
0.347357
0.373825
0.37155
0.369392
0.367345
0.365402
0.363557
0.361805
0.360139
0.358555
0.357047
0.355613
0.354247
0.352946
0.351706
0.350524
0.349397
0.348321
0.347297
0.373825
0.371549
0.369391
0.367342
0.365398
0.363551
0.361796
0.360127
0.35854
0.35703
0.355591
0.354221
0.352916
0.351672
0.350485
0.349354
0.348274
0.347244
0.373825
0.371549
0.369391
0.367341
0.365397
0.363548
0.361792
0.360121
0.358532
0.357019
0.355578
0.354204
0.352896
0.351648
0.350457
0.349322
0.348238
0.347204
0.373826
0.37155
0.369393
0.367344
0.3654
0.363551
0.361795
0.360123
0.358533
0.357019
0.355576
0.354201
0.35289
0.35164
0.350447
0.349309
0.348222
0.347187
0.373825
0.371552
0.369395
0.367349
0.365404
0.363558
0.361802
0.360131
0.358541
0.357027
0.355584
0.354208
0.352896
0.351645
0.350451
0.349312
0.348225
0.347186
0.373826
0.371554
0.369399
0.367355
0.365413
0.363568
0.361813
0.360145
0.358556
0.357042
0.3556
0.354224
0.352912
0.35166
0.350465
0.349323
0.348234
0.347193
0.373827
0.371558
0.369407
0.367365
0.365425
0.363583
0.361831
0.360163
0.358574
0.357059
0.355613
0.354233
0.352913
0.351653
0.350445
0.349292
0.348187
0.347131
0.373827
0.371568
0.369419
0.367381
0.365439
0.363595
0.361836
0.360162
0.358557
0.357022
0.355547
0.354133
0.352771
0.351466
0.350206
0.348999
0.34783
0.346714
0.373827
0.371591
0.369433
0.36739
0.365416
0.363548
0.361743
0.360019
0.358338
0.356718
0.35513
0.3536
0.3521
0.350659
0.349243
0.347887
0.346553
0.345284
0.373844
0.371645
0.369417
0.367324
0.365235
0.363283
0.361328
0.359447
0.357538
0.35568
0.353805
0.351988
0.35017
0.348419
0.346673
0.345006
0.343343
0.341775
0.373952
0.371795
0.369421
0.36724
0.364885
0.362722
0.360358
0.358081
0.355623
0.353234
0.350741
0.348337
0.3459
0.343566
0.341252
0.33905
0.336888
0.334847
0.374398
0.372606
0.370357
0.368309
0.365503
0.362932
0.359711
0.356759
0.353377
0.350312
0.34709
0.344219
0.341449
0.338984
0.336836
0.334814
0.333236
0.33162
0.377698
0.379562
0.382709
0.387553
0.391708
0.397078
0.401845
0.408056
0.41397
0.421214
0.428537
0.4371
0.445883
0.455652
0.465404
0.4744
0.483622
0.491896
0.462268
0.611562
0.727468
0.813202
0.870992
0.909304
0.929835
0.941762
0.942334
0.940207
0.935127
0.926858
0.917513
0.907546
0.897541
0.887679
0.878019
0.868712
0.000345284
0.00256633
0.00587849
0.010479
0.0154854
0.0208098
0.0252929
0.028287
0.0294685
0.0346952
0.0367247
0.0383449
0.0438488
0.0472869
0.0534341
0.0581314
0.0658269
0.074016
0.084232
0.0959605
0.110144
0.126133
0.144436
0.164753
0.187337
0.210958
0.235325
0.259866
0.284704
0.309135
0.333078
0.356264
0.379318
0.401316
0.423564
0.445323
0.467944
0.489809
0.51189
0.533227
0.554739
0.575278
0.595593
0.614973
0.633631
0.649531
0.664968
0.680495
0.689279
0.694995
0.708034
0.713969
0.709064
0.695626
0.686007
0.678127
0.670163
0.638877
0.590849
0.535058
0.469636
0.398196
0.329825
0.271076
0.224319
0.184939
0.151064
0.121375
0.0947712
0.070948
0.0519511
0.0336038
0.0204728
0.00821797
0.00473589
0.00752571
0.015558
0.0336245
0.0594051
0.070285
0.0659163
0.0511508
0.0461222
0.0669414
0.113985
0.198376
0.348441
0.491443
0.582797
0.642823
0.686006
0.718529
0.742899
0.760887
0.773402
0.77998
0.793914
0.798517
0.803639
0.805802
0.803308
0.799257
0.799797
0.794289
0.789248
0.784065
0.777999
0.770198
0.762802
0.752937
0.741818
0.730735
0.71903
0.703864
0.691625
0.678215
0.662331
0.644289
0.629639
0.612774
0.597057
0.580553
0.565362
0.55246
0.537143
0.524799
0.51102
0.499807
0.487379
0.476283
0.464897
0.454156
0.443939
0.434034
0.425004
0.415986
0.407786
0.399844
0.392517
0.385692
0.379712
0.37368
0.369295
0.363945
0.360129
0.354497
0.349658
0.343561
0.339417
0.34112
0.337872
0.337013
0.333744
0.331007
0.331139
0.327704
0.328164
0.325852
0.325011
0.324896
0.325111
0.325485
0.325709
0.327039
0.327955
0.329487
0.336214
0.343008
0.350422
0.355524
0.359403
0.363633
0.365139
0.364177
0.363306
0.361815
0.355942
0.348831
0.344178
0.311916
0.00123665
0.00647053
0.0142868
0.0233725
0.0332173
0.0436649
0.0535918
0.0628293
0.071288
0.07899
0.0850072
0.0908724
0.0977659
0.106437
0.118504
0.129735
0.146174
0.165642
0.190065
0.219389
0.253616
0.292321
0.335253
0.381638
0.431019
0.482112
0.533571
0.584565
0.636038
0.685571
0.734662
0.782278
0.830071
0.877238
0.923752
0.970649
1.01783
1.0661
1.11565
1.16623
1.21816
1.27063
1.3229
1.37397
1.42325
1.46942
1.5114
1.54795
1.57902
1.59983
1.61622
1.62252
1.6163
1.59983
1.57298
1.53532
1.48734
1.43059
1.36733
1.28428
1.15982
1.00354
0.826863
0.646852
0.479074
0.347145
0.250008
0.181316
0.132457
0.0963439
0.0690615
0.0448152
0.0306534
0.0263571
0.0276213
0.0390245
0.0712865
0.137766
0.208277
0.238592
0.224217
0.214771
0.241209
0.517751
0.684975
0.71354
0.772043
0.831798
0.887853
0.943583
0.991136
1.0413
1.0882
1.13485
1.17891
1.2189
1.25497
1.28685
1.3208
1.35301
1.38381
1.42128
1.44821
1.48237
1.48047
1.51454
1.51731
1.50997
1.50264
1.45976
1.46769
1.41391
1.43848
1.38131
1.3908
1.36166
1.32888
1.27089
1.23447
1.24708
1.16347
1.16348
1.07557
1.08075
1.02333
1.01428
0.961465
0.947731
0.923603
0.903862
0.883188
0.863853
0.845451
0.827911
0.811875
0.796405
0.781863
0.76831
0.755457
0.744285
0.733455
0.725558
0.72119
0.719039
0.72804
0.724163
0.725765
0.727743
0.732668
0.737181
0.743546
0.750392
0.759305
0.76905
0.77944
0.791134
0.804875
0.819269
0.834282
0.848849
0.867141
0.88562
0.902294
0.916104
0.927942
0.932397
0.931949
0.930876
0.933511
0.929668
0.923793
0.913792
0.903586
0.88628
0.872369
0.847775
0.83142
0.798423
0.784781
0.725058
0.00288313
0.0115769
0.0290969
0.0478527
0.0699033
0.0925574
0.11393
0.133144
0.14986
0.163836
0.175798
0.187045
0.199272
0.214156
0.233161
0.256917
0.286299
0.320939
0.360605
0.404536
0.45202
0.502433
0.555297
0.609657
0.66512
0.720611
0.775913
0.830591
0.884654
0.937657
0.990371
1.04288
1.09566
1.14905
1.20332
1.25882
1.31585
1.37452
1.43483
1.49647
1.55909
1.62193
1.68418
1.74472
1.80243
1.85599
1.9038
1.94392
1.9745
1.99537
2.01032
2.01144
2.00004
1.97687
1.94192
1.89491
1.83566
1.76525
1.68504
1.59444
1.49595
1.39287
1.26667
1.09668
0.899167
0.693039
0.501234
0.347194
0.234602
0.160345
0.111412
0.0816787
0.0646406
0.0506438
0.0470269
0.0539729
0.0958403
0.173646
0.264771
0.349499
0.482013
0.767434
0.89766
0.974837
1.02817
1.08175
1.17452
1.28245
1.39503
1.50134
1.59698
1.68357
1.75633
1.81797
1.86947
1.91373
1.95206
1.98692
2.02172
2.05759
2.09792
2.14487
2.19134
2.22328
2.24204
2.25911
2.2619
2.2519
2.26722
2.26073
2.24312
2.2087
2.22182
2.16557
2.13962
2.08792
2.05611
2.02067
1.98827
1.94358
1.8958
1.84558
1.77787
1.73246
1.68435
1.63775
1.58802
1.54207
1.49339
1.44688
1.40095
1.35632
1.31371
1.27292
1.23438
1.19817
1.16432
1.133
1.10419
1.07774
1.05399
1.03426
1.01697
1.00284
0.992257
0.982932
0.978311
0.976438
0.983727
0.985775
0.990778
0.996514
1.00428
1.01333
1.02415
1.03598
1.04935
1.06536
1.08348
1.10004
1.11619
1.1308
1.14142
1.1467
1.15104
1.15277
1.15185
1.15035
1.15228
1.14861
1.14206
1.13083
1.11864
1.09888
1.08165
1.0538
1.03361
0.996247
0.976653
0.925217
0.00541493
0.0249481
0.0590447
0.0912892
0.124822
0.157049
0.186826
0.213528
0.236914
0.256994
0.27423
0.289526
0.304272
0.320193
0.339227
0.363085
0.393094
0.429675
0.472581
0.520936
0.57379
0.630122
0.689041
0.749629
0.811227
0.87302
0.934601
0.995569
1.05571
1.11495
1.17365
1.23201
1.29046
1.34937
1.40915
1.4701
1.53248
1.59633
1.66156
1.72783
1.79464
1.86121
1.92667
1.98986
2.04957
2.10446
2.15311
2.19375
2.22355
2.2448
2.26037
2.26038
2.24585
2.2173
2.17498
2.1195
2.05126
1.97118
1.88009
1.7797
1.67275
1.56205
1.44795
1.33097
1.18783
1.00657
0.801711
0.596733
0.421242
0.281583
0.192886
0.135703
0.101859
0.086875
0.0731025
0.0805883
0.14617
0.293814
0.493629
0.853901
1.07462
1.12349
1.17371
1.23777
1.32796
1.44537
1.58289
1.72519
1.85835
1.97867
2.08591
2.18065
2.26322
2.33592
2.40044
2.45894
2.51267
2.56383
2.61346
2.66213
2.70962
2.75466
2.79356
2.82709
2.8574
2.88401
2.89806
2.90906
2.91755
2.90966
2.90645
2.89873
2.89071
2.86823
2.84558
2.81573
2.7862
2.7494
2.70836
2.66079
2.60948
2.55357
2.49524
2.43664
2.37434
2.30947
2.2415
2.17177
2.09948
2.0268
1.95315
1.87937
1.80746
1.73674
1.66818
1.60271
1.54062
1.48228
1.42961
1.38062
1.33642
1.29809
1.26414
1.23531
1.21158
1.19198
1.1769
1.16484
1.15781
1.15429
1.15381
1.15301
1.15396
1.15602
1.16118
1.16728
1.17487
1.18386
1.19321
1.20111
1.21058
1.21849
1.2243
1.22683
1.22939
1.23096
1.22754
1.22616
1.22753
1.22478
1.21975
1.21074
1.20174
1.18552
1.17126
1.14772
1.12892
1.09735
1.0773
1.0343
0.00794503
0.0413753
0.0928347
0.13817
0.180869
0.220506
0.256806
0.289526
0.318575
0.344042
0.366335
0.386174
0.404654
0.423217
0.44362
0.467691
0.497107
0.532978
0.575732
0.625031
0.680095
0.739821
0.803118
0.86887
0.936138
1.00404
1.07194
1.13928
1.20575
1.27118
1.3357
1.39945
1.4628
1.52607
1.58968
1.6539
1.71898
1.78493
1.85169
1.91887
1.98602
2.05236
2.11706
2.17903
2.23717
2.29024
2.33691
2.37592
2.40453
2.42477
2.43993
2.43911
2.42438
2.39507
2.35071
2.29154
2.21835
2.13235
2.03443
1.92606
1.80962
1.688
1.56457
1.44211
1.32033
1.19666
1.02767
0.831022
0.630044
0.452206
0.313945
0.225169
0.168263
0.134898
0.123538
0.136877
0.254357
0.511811
1.11705
1.28957
1.27492
1.29052
1.36091
1.46582
1.59544
1.74293
1.90284
2.05725
2.20016
2.33053
2.44846
2.55478
2.65063
2.73769
2.81753
2.89151
2.96056
3.02617
3.08852
3.14707
3.20209
3.25352
3.30046
3.34275
3.3812
3.41477
3.44208
3.46524
3.48169
3.49444
3.50181
3.50486
3.50335
3.49438
3.47985
3.45894
3.43341
3.40032
3.36108
3.3167
3.26665
3.21177
3.15204
3.08821
3.01961
2.94609
2.86782
2.78554
2.69887
2.60909
2.51589
2.42048
2.32445
2.22745
2.13057
2.0351
1.94205
1.85251
1.76892
1.69036
1.61794
1.5526
1.49412
1.4434
1.39942
1.36189
1.33045
1.3039
1.2818
1.26317
1.24828
1.23481
1.22485
1.21849
1.21513
1.21355
1.21359
1.21445
1.21584
1.21793
1.21829
1.21915
1.21875
1.21904
1.21904
1.21908
1.2183
1.21748
1.21704
1.21676
1.21579
1.21284
1.20878
1.19739
1.18796
1.17116
1.15598
1.13359
1.11495
1.08802
0.0105647
0.0595143
0.127634
0.1847
0.235533
0.281639
0.323454
0.36109
0.394692
0.424559
0.451191
0.475303
0.497878
0.520157
0.54365
0.569993
0.600806
0.637395
0.680585
0.730538
0.78687
0.848723
0.915033
0.984585
1.05628
1.12909
1.20213
1.27461
1.34608
1.41618
1.48487
1.55221
1.61849
1.68399
1.74912
1.81419
1.87947
1.94507
2.01101
2.07706
2.14285
2.20777
2.27112
2.33194
2.38921
2.44176
2.48831
2.52787
2.55687
2.57758
2.59463
2.59539
2.58171
2.55343
2.50996
2.45078
2.3758
2.2856
2.18251
2.06748
1.94253
1.81023
1.67406
1.53824
1.40685
1.28143
1.15625
0.999491
0.814179
0.623706
0.457299
0.329281
0.243013
0.190866
0.185929
0.255489
0.540233
1.1868
1.44634
1.39993
1.36595
1.42083
1.52386
1.65232
1.80051
1.96722
2.14095
2.3063
2.46059
2.60307
2.73324
2.85218
2.96121
3.06163
3.15477
3.24141
3.32277
3.3994
3.47119
3.53849
3.60184
3.66121
3.71657
3.76745
3.81423
3.85632
3.89332
3.92594
3.95378
3.97675
3.99495
4.0043
4.01207
4.01216
4.00561
3.99263
3.97269
3.945
3.91171
3.87231
3.8267
3.7748
3.71669
3.65231
3.58185
3.50515
3.42218
3.33357
3.2391
3.13956
3.03512
2.9263
2.81423
2.69899
2.58145
2.46279
2.34436
2.22706
2.11341
2.00379
1.89964
1.80255
1.71324
1.63282
1.56115
1.49809
1.44274
1.39238
1.34871
1.31478
1.28536
1.25936
1.23872
1.2179
1.1996
1.18351
1.16889
1.15467
1.14246
1.13246
1.12472
1.11902
1.11606
1.11421
1.11269
1.11363
1.11389
1.11437
1.11825
1.12176
1.12804
1.13148
1.13602
1.13389
1.13517
1.12976
1.12205
1.11293
1.09936
1.08791
0.0138912
0.0801523
0.163399
0.231488
0.290052
0.341984
0.388443
0.430012
0.467185
0.500491
0.530587
0.558262
0.584487
0.61041
0.637376
0.666819
0.700188
0.738739
0.783393
0.834552
0.892119
0.955486
1.02373
1.09569
1.17018
1.24598
1.32207
1.39752
1.47168
1.54409
1.6146
1.6832
1.75016
1.81581
1.88063
1.945
2.00936
2.07394
2.13892
2.20428
2.26986
2.33524
2.39985
2.46285
2.52327
2.5799
2.63138
2.67607
2.71166
2.73562
2.75841
2.76588
2.75754
2.73265
2.6908
2.6323
2.55692
2.46431
2.35567
2.23313
2.09826
1.95367
1.80312
1.65073
1.5015
1.36024
1.22895
1.1008
0.95188
0.774261
0.593041
0.427461
0.320972
0.281722
0.320963
0.53836
1.16606
1.56786
1.52947
1.43509
1.44544
1.53113
1.65286
1.80039
1.97382
2.16476
2.35295
2.53039
2.69549
2.84815
2.98869
3.11807
3.23733
3.3475
3.44974
3.54502
3.63435
3.71805
3.79638
3.86996
3.93948
4.00464
4.06594
4.12308
4.17627
4.22472
4.26883
4.30863
4.34381
4.37356
4.3983
4.41736
4.42755
4.4344
4.43399
4.42661
4.41167
4.38979
4.36155
4.32644
4.28433
4.23511
4.17863
4.1148
4.04365
3.96512
3.87924
3.78635
3.6864
3.57989
3.46701
3.34817
3.22404
3.09501
2.96177
2.82529
2.68673
2.54718
2.40847
2.27185
2.13902
2.01185
1.89198
1.7814
1.68019
1.58935
1.50324
1.43238
1.37386
1.31979
1.26974
1.22489
1.18508
1.14717
1.11269
1.08177
1.05483
1.03133
1.01251
0.997952
0.986965
0.979602
0.97473
0.97192
0.970604
0.972029
0.9724
0.975767
0.982301
0.989057
0.998673
1.00663
1.01672
1.02378
1.03179
1.04195
1.04518
1.04857
1.04131
1.04246
0.0181699
0.103978
0.201437
0.279229
0.344628
0.401568
0.451868
0.496576
0.536517
0.572464
0.605249
0.635767
0.665016
0.694094
0.724222
0.756671
0.792713
0.833465
0.879795
0.932154
0.990568
1.05459
1.12343
1.19602
1.27117
1.34764
1.42431
1.50018
1.57455
1.64689
1.71703
1.78501
1.85114
1.91585
1.97973
2.04332
2.10719
2.17172
2.23725
2.3039
2.37174
2.44053
2.50987
2.57904
2.64713
2.71287
2.77477
2.83085
2.87943
2.91561
2.94179
2.9639
2.96692
2.95065
2.91472
2.85884
2.78288
2.68752
2.57351
2.44203
2.29492
2.13528
1.9674
1.79611
1.62611
1.46276
1.31122
1.17286
1.04133
0.892326
0.714923
0.532986
0.408289
0.387134
0.537126
1.09305
1.5449
1.60058
1.52193
1.47188
1.52566
1.63601
1.77749
1.94482
2.14046
2.34508
2.54298
2.7294
2.90332
3.06478
3.2143
3.35251
3.48025
3.59844
3.70806
3.81014
3.90538
3.99438
4.07772
4.1559
4.22965
4.29896
4.36432
4.42551
4.48275
4.5355
4.58403
4.6281
4.66742
4.70175
4.73078
4.75405
4.77122
4.77971
4.78427
4.78139
4.77094
4.75424
4.7307
4.69988
4.66151
4.61537
4.56122
4.4989
4.4283
4.34935
4.26204
4.1665
4.06279
3.95115
3.83176
3.70493
3.57109
3.43061
3.28412
3.13247
2.97672
2.81784
2.65732
2.4967
2.33774
2.18264
2.03344
1.89386
1.76261
1.64006
1.53338
1.44011
1.35464
1.27845
1.20573
1.14053
1.08305
1.03316
0.991783
0.956186
0.926865
0.902661
0.884248
0.871202
0.859975
0.853092
0.846742
0.84365
0.842805
0.843177
0.84612
0.850733
0.857334
0.865091
0.874839
0.884674
0.896483
0.907824
0.919102
0.931899
0.94049
0.953344
0.959364
0.971419
0.0233932
0.130312
0.241002
0.32715
0.398264
0.459277
0.512627
0.559782
0.601868
0.639878
0.67479
0.707581
0.73926
0.770885
0.803581
0.838474
0.876662
0.9191
0.966536
1.01938
1.0777
1.14112
1.20897
1.28027
1.35393
1.42876
1.50369
1.57774
1.65023
1.7207
1.78905
1.85539
1.92013
1.9838
2.04708
2.1106
2.17504
2.24089
2.30859
2.37836
2.45044
2.52483
2.60133
2.67943
2.75837
2.83698
2.9137
2.98654
3.05305
3.11121
3.15307
3.18472
3.20927
3.21005
3.1859
3.13698
3.06338
2.96559
2.84477
2.70257
2.54113
2.36376
2.17541
1.98187
1.78877
1.60115
1.42479
1.26404
1.12015
0.984482
0.821011
0.649977
0.559691
0.598239
0.94354
1.45347
1.66102
1.62623
1.51903
1.52441
1.60949
1.73795
1.89452
2.07811
2.28919
2.50254
2.70789
2.90182
3.08344
3.25285
3.41035
3.55639
3.69161
3.81679
3.9328
4.04057
4.14078
4.23415
4.32128
4.40285
4.4794
4.55133
4.61891
4.68233
4.74156
4.79647
4.84696
4.89299
4.93427
4.97069
5.00193
5.02786
5.04831
5.05926
5.06649
5.06676
5.06043
5.04801
5.02869
5.00197
4.96742
4.92474
4.87362
4.81376
4.74496
4.66701
4.57984
4.48341
4.37775
4.26291
4.13904
4.0063
3.86497
3.71525
3.55763
3.3929
3.22205
3.04571
2.8653
2.68267
2.49939
2.31834
2.14044
1.96577
1.80835
1.66565
1.5308
1.40192
1.28547
1.18499
1.09874
1.02636
0.965568
0.915781
0.876673
0.843012
0.816185
0.795014
0.779721
0.769318
0.759035
0.753707
0.746124
0.74145
0.741802
0.743934
0.747389
0.751934
0.757903
0.765159
0.774207
0.784461
0.796199
0.808752
0.821517
0.836145
0.847963
0.86453
0.873384
0.894008
0.0294586
0.157827
0.280314
0.373479
0.449214
0.513447
0.56919
0.618274
0.66207
0.701735
0.738355
0.772947
0.806516
0.840073
0.87465
0.911238
0.950775
0.994054
1.04169
1.09402
1.15107
1.21255
1.27788
1.34621
1.41658
1.48796
1.5594
1.63005
1.69936
1.76696
1.83285
1.89723
1.96057
2.02346
2.08661
2.1507
2.21641
2.28428
2.35484
2.42845
2.50547
2.58618
2.67072
2.75889
2.85025
2.94386
3.03833
3.13164
3.22128
3.30394
3.37708
3.42898
3.46876
3.49761
3.49374
3.45962
3.39466
3.29869
3.17268
3.01896
2.84116
2.64339
2.43104
2.2112
1.99105
1.7764
1.57368
1.38774
1.22057
1.06849
0.894368
0.778802
0.730675
0.900101
1.30625
1.58813
1.6588
1.59155
1.53928
1.58449
1.69013
1.83109
1.99905
2.19691
2.41654
2.63629
2.84799
3.0487
3.23752
3.41433
3.57928
3.73258
3.8747
4.00629
4.12813
4.24102
4.34566
4.44271
4.53287
4.61679
4.69509
4.76824
4.83665
4.90054
4.96006
5.01504
5.06545
5.11119
5.15218
5.18828
5.21937
5.24531
5.26589
5.27939
5.28651
5.28828
5.28486
5.2753
5.25908
5.23563
5.20448
5.16521
5.11741
5.06065
4.99456
4.91881
4.83316
4.73746
4.63158
4.51539
4.38889
4.25212
4.10507
3.94778
3.78056
3.60417
3.4197
3.22731
3.02841
2.8252
2.61597
2.4031
2.19909
2.0005
1.81263
1.62551
1.45301
1.30085
1.17192
1.06711
0.982058
0.913569
0.85756
0.813633
0.779498
0.749605
0.726573
0.708994
0.695977
0.686884
0.677955
0.673603
0.664603
0.661623
0.662684
0.665603
0.669335
0.673823
0.67941
0.686252
0.694713
0.704618
0.716201
0.729067
0.742965
0.758256
0.772979
0.790551
0.803031
0.824769
0.0360338
0.184768
0.317301
0.416172
0.495563
0.562338
0.619996
0.670662
0.715893
0.75696
0.795005
0.831054
0.866086
0.901057
0.936899
0.974474
1.01457
1.05785
1.10479
1.15565
1.21045
1.26894
1.33065
1.39487
1.46084
1.5277
1.59469
1.66116
1.72667
1.79101
1.85422
1.91654
1.97848
2.04064
2.10368
2.16827
2.23505
2.3046
2.37753
2.45435
2.53563
2.62196
2.71386
2.81156
2.91515
3.0242
3.13763
3.25366
3.36975
3.48234
3.58696
3.68011
3.74558
3.80167
3.82624
3.81616
3.76885
3.6828
3.5581
3.39673
3.20273
2.98185
2.74102
2.48837
2.23424
1.98684
1.75409
1.54029
1.34342
1.16613
0.996483
0.916846
0.947107
1.20603
1.51815
1.65823
1.64706
1.57393
1.5722
1.64381
1.76205
1.91093
2.08696
2.29686
2.52248
2.74753
2.96505
3.17223
3.36796
3.55192
3.72403
3.88433
4.03313
4.17094
4.29845
4.41628
4.52511
4.62549
4.71817
4.80373
4.88295
4.95627
5.02428
5.08718
5.14532
5.19848
5.24673
5.28993
5.3282
5.36135
5.38954
5.41261
5.4305
5.44233
5.4479
5.44935
5.44595
5.43693
5.4218
5.40001
5.37107
5.33447
5.28961
5.23601
5.173
5.10008
5.0168
4.92279
4.81766
4.7012
4.57323
4.4336
4.28206
4.1185
3.94293
3.75563
3.55803
3.34918
3.13084
2.90327
2.67342
2.43772
2.20269
1.95843
1.72459
1.50997
1.32315
1.16856
1.04512
0.949441
0.874023
0.813761
0.76496
0.729458
0.699502
0.672679
0.652989
0.637718
0.625778
0.617441
0.611321
0.60709
0.597326
0.595593
0.598425
0.60241
0.606206
0.610629
0.616038
0.622794
0.631156
0.641102
0.652876
0.666224
0.681288
0.697398
0.714581
0.732739
0.748168
0.770534
0.0426198
0.209361
0.349988
0.453337
0.535588
0.604388
0.663637
0.715683
0.762211
0.80456
0.843893
0.881216
0.917464
0.953518
0.990208
1.02828
1.06839
1.11107
1.15672
1.20554
1.25755
1.31255
1.37017
1.42987
1.49105
1.55306
1.61536
1.67747
1.73911
1.80017
1.86071
1.92076
1.98093
2.04183
2.10408
2.16826
2.23497
2.30479
2.3784
2.45652
2.54001
2.62959
2.72641
2.83149
2.94555
3.06854
3.2001
3.33912
3.48353
3.62936
3.77188
3.9046
4.02265
4.10593
4.17095
4.1967
4.17881
4.1139
4.00062
3.83981
3.63478
3.39127
3.11865
2.82844
2.53474
2.24626
1.97351
1.72232
1.49145
1.27164
1.14077
1.09202
1.20012
1.43396
1.58741
1.6455
1.62123
1.57939
1.60985
1.69721
1.82246
1.97639
2.16
2.37787
2.60813
2.83793
3.06099
3.27442
3.47686
3.66776
3.84684
4.01402
4.16942
4.31348
4.44663
4.56942
4.68233
4.78596
4.88091
4.96785
5.04741
5.12023
5.18679
5.24754
5.30278
5.35243
5.39642
5.43489
5.46786
5.49519
5.51724
5.53404
5.54467
5.54911
5.54896
5.54509
5.53694
5.52424
5.50666
5.48373
5.45484
5.41931
5.37638
5.32525
5.26507
5.19511
5.11468
5.0231
4.91977
4.80426
4.67614
4.53499
4.38035
4.21168
4.02846
3.83069
3.62257
3.40168
3.16782
2.92364
2.66054
2.37835
2.09411
1.8185
1.56656
1.34883
1.17061
1.03107
0.924151
0.843153
0.779262
0.72849
0.688846
0.659538
0.630859
0.607921
0.590268
0.576649
0.566435
0.559733
0.554231
0.550294
0.54243
0.543871
0.547597
0.551153
0.554408
0.558573
0.563968
0.571005
0.579818
0.590398
0.603119
0.617545
0.634238
0.651773
0.671045
0.689894
0.707429
0.728923
0.0485888
0.229922
0.37671
0.483439
0.56789
0.638331
0.698966
0.7523
0.800107
0.843756
0.884401
0.923006
0.960445
0.997509
1.03493
1.07333
1.11328
1.15521
1.19944
1.24614
1.29536
1.34696
1.40069
1.45613
1.51278
1.5702
1.62806
1.68607
1.74407
1.80205
1.85993
1.91769
1.97592
2.03502
2.0955
2.15789
2.2226
2.29024
2.36151
2.43727
2.51873
2.60806
2.70626
2.81462
2.93447
3.06625
3.21291
3.37376
3.54631
3.72661
3.91065
4.09107
4.25936
4.40496
4.51053
4.58598
4.61193
4.58245
4.4942
4.34643
4.14091
3.88206
3.57987
3.2498
2.90719
2.56746
2.24461
1.94733
1.68488
1.44199
1.32203
1.29442
1.39614
1.52986
1.61908
1.63618
1.60064
1.59594
1.64715
1.74293
1.87133
2.02828
2.21928
2.44133
2.67503
2.909
3.13721
3.35654
3.56536
3.76287
3.94867
4.12254
4.28447
4.43473
4.57357
4.70139
4.81854
4.92557
5.0229
5.1112
5.19094
5.26285
5.32727
5.38492
5.43606
5.48068
5.51838
5.5497
5.57439
5.59165
5.60156
5.60546
5.60394
5.59838
5.58981
5.57804
5.56299
5.54457
5.52253
5.49646
5.4657
5.42946
5.38685
5.33681
5.27839
5.21064
5.13268
5.0436
4.94262
4.82897
4.70199
4.56093
4.40515
4.2338
4.04572
3.84071
3.6219
3.38047
3.11708
2.82605
2.51739
2.20152
1.89483
1.61336
1.37142
1.17386
1.02024
0.904402
0.816812
0.750903
0.699071
0.657918
0.6253
0.599278
0.570898
0.553299
0.536104
0.523956
0.515188
0.508638
0.504109
0.496641
0.498954
0.503029
0.506143
0.508614
0.511271
0.515534
0.521374
0.529207
0.539029
0.550926
0.565285
0.581657
0.600578
0.620243
0.641362
0.660891
0.679624
0.698163
0.0533806
0.245337
0.396305
0.505397
0.591493
0.663279
0.725171
0.779788
0.828948
0.874029
0.916154
0.956233
0.995062
1.03334
1.07169
1.11065
1.15069
1.19215
1.23532
1.28034
1.32727
1.37604
1.42649
1.47837
1.53131
1.58487
1.63881
1.69304
1.74753
1.80198
1.856
1.91033
1.96535
2.02132
2.07856
2.13749
2.19869
2.2624
2.32914
2.39966
2.47518
2.55745
2.64953
2.75393
2.87428
3.01592
3.17347
3.34863
3.54294
3.75694
3.98353
4.21414
4.44001
4.64959
4.82823
4.96028
5.04683
5.07022
5.02436
4.90654
4.71664
4.45725
4.1371
3.77213
3.379
2.97826
2.59365
2.24215
1.93569
1.67037
1.5372
1.49788
1.55207
1.63326
1.65187
1.62774
1.60318
1.6206
1.68274
1.7812
1.9093
2.06693
2.26416
2.48838
2.72422
2.96143
3.19399
3.41851
3.63305
3.83663
4.02868
4.20887
4.37711
4.53346
4.67811
4.81118
4.93296
5.04369
5.1438
5.23367
5.31381
5.38463
5.4465
5.50017
5.54603
5.58375
5.6124
5.63187
5.6422
5.64489
5.64155
5.63201
5.61703
5.59748
5.57447
5.54903
5.52162
5.49257
5.4618
5.42902
5.39364
5.3548
5.31143
5.26234
5.20622
5.14175
5.06761
4.98248
4.88516
4.77445
4.64918
4.50809
4.35005
4.17367
3.97592
3.7559
3.5103
3.23272
2.92845
2.60265
2.26886
1.94423
1.64618
1.38686
1.1762
1.011
0.887273
0.795013
0.725557
0.674729
0.63247
0.599017
0.570958
0.54546
0.520674
0.505925
0.488928
0.479634
0.470679
0.466208
0.461033
0.462826
0.466148
0.468133
0.46996
0.472009
0.475074
0.480276
0.487158
0.49628
0.507729
0.52167
0.539484
0.559572
0.58205
0.604468
0.626822
0.646867
0.66405
0.681151
0.0564487
0.253677
0.407833
0.518545
0.605864
0.678783
0.741863
0.797792
0.848414
0.895109
0.938964
0.980823
1.0214
1.06129
1.10104
1.14106
1.18175
1.2234
1.26623
1.31038
1.3559
1.40274
1.45083
1.5
1.55005
1.60065
1.65155
1.70252
1.75365
1.80488
1.85549
1.90583
1.95676
2.0083
2.06061
2.11394
2.16862
2.22492
2.28335
2.34474
2.41069
2.48306
2.56429
2.65833
2.76958
2.9025
3.06342
3.2621
3.47948
3.71851
3.98017
4.26012
4.54513
4.82308
5.07833
5.29366
5.45424
5.54924
5.56565
5.49855
5.3457
5.10705
4.78818
4.40385
3.96984
3.51047
3.05737
2.64251
2.27169
1.95481
1.77317
1.69047
1.67451
1.68177
1.66745
1.63167
1.62182
1.65026
1.7159
1.81312
1.93912
2.09802
2.2965
2.5203
2.75639
2.99527
3.23087
3.45936
3.6786
3.88727
4.08476
4.27065
4.44472
4.60691
4.75733
4.8959
5.02266
5.13753
5.24085
5.33265
5.41322
5.48256
5.54066
5.58849
5.62639
5.65369
5.66982
5.67579
5.67175
5.65857
5.63658
5.60734
5.57247
5.53352
5.49213
5.44964
5.40706
5.36499
5.32363
5.28278
5.24177
5.19955
5.15476
5.10591
5.0513
4.98928
4.91801
4.83574
4.74069
4.6312
4.50536
4.36102
4.19639
4.00926
3.79221
3.54442
3.26621
2.95782
2.62821
2.29032
1.96015
1.65478
1.38978
1.17071
1.00128
0.871151
0.775962
0.704781
0.652159
0.612166
0.576768
0.549445
0.52243
0.499871
0.47908
0.464795
0.449738
0.443025
0.432808
0.43235
0.43331
0.434208
0.435471
0.436613
0.438927
0.44171
0.445955
0.45269
0.460916
0.472884
0.4876
0.506146
0.528213
0.551442
0.576854
0.601527
0.624939
0.645102
0.661102
0.674405
0.0573564
0.255664
0.411443
0.523273
0.611549
0.685475
0.749716
0.806982
0.859058
0.907491
0.953339
0.997334
1.04009
1.0821
1.12381
1.16555
1.20762
1.25026
1.29364
1.33784
1.3829
1.42877
1.47546
1.52288
1.5709
1.6193
1.66784
1.7163
1.76461
1.81265
1.86045
1.90755
1.95393
1.99972
2.04502
2.09066
2.13672
2.18337
2.23107
2.28083
2.33423
2.39339
2.46098
2.54099
2.63893
2.76132
2.91483
3.10364
3.33484
3.62214
3.92024
4.23659
4.57567
4.92086
5.25506
5.55874
5.81218
5.9978
6.09625
6.10202
6.01011
5.81812
5.52697
5.14743
4.6943
4.19029
3.67038
3.18031
2.73024
2.33576
2.05245
1.88952
1.81059
1.74299
1.68978
1.66513
1.66353
1.69473
1.75786
1.84954
1.9693
2.12348
2.31744
2.53736
2.77131
3.01005
3.24713
3.47838
3.70118
3.9141
4.11635
4.30748
4.48716
4.65528
4.81185
4.95646
5.08859
5.20773
5.31401
5.40717
5.48703
5.55367
5.60679
5.64708
5.67413
5.68843
5.68938
5.67708
5.65232
5.61655
5.57137
5.51887
5.4612
5.40061
5.33917
5.27864
5.22034
5.16504
5.11301
5.06398
5.01714
4.97116
4.92435
4.87482
4.82051
4.75936
4.6891
4.60728
4.51154
4.39957
4.26838
4.11418
3.9341
3.72534
3.48524
3.2119
2.91094
2.58943
2.25824
1.93384
1.63318
1.37022
1.15431
0.983619
0.855208
0.756588
0.686732
0.632834
0.592344
0.559569
0.529275
0.505854
0.480071
0.462435
0.44259
0.430334
0.419046
0.413807
0.40505
0.404331
0.404084
0.405177
0.407784
0.410395
0.414656
0.418903
0.426014
0.435392
0.446855
0.462657
0.480282
0.502404
0.52838
0.556921
0.587554
0.615492
0.640026
0.659148
0.67267
0.680003
0.0569479
0.252661
0.408992
0.520831
0.609315
0.683722
0.748747
0.807132
0.860691
0.911104
0.95917
1.00552
1.05061
1.09503
1.13914
1.18313
1.22724
1.27162
1.31637
1.36148
1.40693
1.4528
1.49934
1.54648
1.59407
1.64189
1.68966
1.73704
1.78369
1.82962
1.87494
1.91952
1.96316
2.00551
2.04577
2.0847
2.12271
2.16014
2.19719
2.2361
2.27828
2.326
2.38262
2.45361
2.54451
2.66124
2.80941
2.99217
3.21837
3.49867
3.83271
4.17908
4.54859
4.94647
5.34562
5.72803
6.07247
6.35424
6.55439
6.64273
6.6297
6.50631