/*--------------------------------*- C++ -*----------------------------------*\
| =========                 |                                                 |
| \\      /  F ield         | OpenFOAM: The Open Source CFD Toolbox           |
|  \\    /   O peration     | Version:  2406                                  |
|   \\  /    A nd           | Website:  www.openfoam.com                      |
|    \\/     M anipulation  |                                                 |
\*---------------------------------------------------------------------------*/
FoamFile
{
    version     2.0;
    format      ascii;
    arch        "LSB;label=32;scalar=64";
    class       volScalarField;
    location    "100";
    object      nut;
}
// * * * * * * * * * * * * * * * * * * * * * * * * * * * * * * * * * * * * * //

dimensions      [0 2 -1 0 0 0 0];

internalField   nonuniform List<scalar> 
12225
(
5.36086e-06
8.10477e-06
9.99727e-06
1.11264e-05
1.1702e-05
1.18797e-05
1.19524e-05
1.18564e-05
1.1704e-05
1.15385e-05
1.13759e-05
1.1218e-05
1.10836e-05
1.09454e-05
1.08533e-05
1.07271e-05
1.06861e-05
1.05761e-05
0.000265878
6.27046e-05
4.34482e-05
3.71355e-05
3.41992e-05
3.30859e-05
3.26862e-05
3.30801e-05
3.37166e-05
3.37762e-05
3.33554e-05
3.35208e-05
3.33943e-05
3.37997e-05
3.38453e-05
3.44367e-05
3.46959e-05
3.55948e-05
0.000625962
0.000325887
0.000224904
0.000160785
0.00013257
0.000113068
0.000101918
9.21425e-05
8.6276e-05
7.93388e-05
7.49958e-05
6.99382e-05
6.69587e-05
6.33371e-05
6.14064e-05
5.87801e-05
5.76269e-05
5.5747e-05
0.000762901
0.000628175
0.000526202
0.00042874
0.000365709
0.000314063
0.00028426
0.000254183
0.000236646
0.000215693
0.000203282
0.000187918
0.000179175
0.000167675
0.000161538
0.000152834
0.000148648
0.00014166
0.000824154
0.000775318
0.000728712
0.000668327
0.000613551
0.00055506
0.000517434
0.000475445
0.000449213
0.000418348
0.000399203
0.000375385
0.000361152
0.000342327
0.000331819
0.000316722
0.000309265
0.000296145
0.000845652
0.000829668
0.000814845
0.000788706
0.000763766
0.00072649
0.00069897
0.000664107
0.000639782
0.000610241
0.000590274
0.000565495
0.000549449
0.000528483
0.000515908
0.00049802
0.000488673
0.000472356
0.00085153
0.00084601
0.000839569
0.000832044
0.000824162
0.00080948
0.000795877
0.000776096
0.000760894
0.000740991
0.00072635
0.000707605
0.000694471
0.000677181
0.000666003
0.000650204
0.000641328
0.00062623
0.000851753
0.00085017
0.00084823
0.000846055
0.000842616
0.000838135
0.000832311
0.000825209
0.000818165
0.000808254
0.000800264
0.000789543
0.000781421
0.00077048
0.000762797
0.000752027
0.000745321
0.000734468
0.000851636
0.000850643
0.000849782
0.000848711
0.000847661
0.000845926
0.00084415
0.000841441
0.000838606
0.000834894
0.000831104
0.000826692
0.000822496
0.000817223
0.000812871
0.000807162
0.000802916
0.000796757
0.000851593
0.000850657
0.000849942
0.000849062
0.000848409
0.000847478
0.000846702
0.000845562
0.000844496
0.000842999
0.000841593
0.000839685
0.000837976
0.000835684
0.000833657
0.000831121
0.000828961
0.000826051
0.00085157
0.000850663
0.000849919
0.000849096
0.000848435
0.000847678
0.000847064
0.000846318
0.000845698
0.000844898
0.000844224
0.000843314
0.000842551
0.000841496
0.000840635
0.000839416
0.000838513
0.000837151
0.000851556
0.000850671
0.000849895
0.000849097
0.000848404
0.000847682
0.00084706
0.000846396
0.000845828
0.000845197
0.000844661
0.000844035
0.000843506
0.000842858
0.000842319
0.000841634
0.000841083
0.000840368
0.000851547
0.000850675
0.000849878
0.000849093
0.000848377
0.000847669
0.000847026
0.000846384
0.000845804
0.000845218
0.000844691
0.000844149
0.000843661
0.00084315
0.00084269
0.0008422
0.000841758
0.000841286
0.000851541
0.000850676
0.000849866
0.000849087
0.000848357
0.000847654
0.000846995
0.000846359
0.000845764
0.000845187
0.000844648
0.000844123
0.000843632
0.000843153
0.000842704
0.000842264
0.000841848
0.000841443
0.000851538
0.000850676
0.000849859
0.00084908
0.000848343
0.000847639
0.000846972
0.000846334
0.000845731
0.000845152
0.000844604
0.000844079
0.000843581
0.000843103
0.000842649
0.000842214
0.000841798
0.000841401
0.000851538
0.000850674
0.000849855
0.000849073
0.000848333
0.000847625
0.000846955
0.000846313
0.000845705
0.000845122
0.00084457
0.00084404
0.000843537
0.000843054
0.000842595
0.000842156
0.000841736
0.000841336
0.000851537
0.000850674
0.000849851
0.00084907
0.000848325
0.000847618
0.000846942
0.0008463
0.000845686
0.000845102
0.000844543
0.000844011
0.000843502
0.000843017
0.000842552
0.00084211
0.000841685
0.000841281
0.000851538
0.000850679
0.000849856
0.000849078
0.000848332
0.000847626
0.000846948
0.000846306
0.000845689
0.000845104
0.000844541
0.000844008
0.000843494
0.000843006
0.000842537
0.000842091
0.000841661
0.000841254
0.000851536
0.000850675
0.00084985
0.00084907
0.00084832
0.000847613
0.000846931
0.000846288
0.000845666
0.00084508
0.000844512
0.000843976
0.000843457
0.000842966
0.000842491
0.000842042
0.000841607
0.000841196
0.000851534
0.000850677
0.000849848
0.000849072
0.000848319
0.000847614
0.000846928
0.000846287
0.000845661
0.000845075
0.000844503
0.000843967
0.000843444
0.000842952
0.000842473
0.000842022
0.000841583
0.00084117
0.000851539
0.000850674
0.000849855
0.00084907
0.000848328
0.000847615
0.00084694
0.000846288
0.000845672
0.000845077
0.000844512
0.000843966
0.000843448
0.000842946
0.00084247
0.000842007
0.000841568
0.000841142
0.000851535
0.00085068
0.000849856
0.000849081
0.000848331
0.000847627
0.00084694
0.000846297
0.000845663
0.000845068
0.000844474
0.000843919
0.000843357
0.000842834
0.000842299
0.000841803
0.000841289
0.000840817
0.000851528
0.000850697
0.000849859
0.000849097
0.000848312
0.000847593
0.000846826
0.000846121
0.000845349
0.000844616
0.000843796
0.000843015
0.000842136
0.000841313
0.000840372
0.000839517
0.000838509
0.000837641
0.000851541
0.000850761
0.000849887
0.000849011
0.000847856
0.000846636
0.000845083
0.000843577
0.000841706
0.000839786
0.00083746
0.000835109
0.000832464
0.000829825
0.000826999
0.000824108
0.000821119
0.000818423
0.000852001
0.00085087
0.000849241
0.000846719
0.000842002
0.000836656
0.00083023
0.000823808
0.000816559
0.000809418
0.000800881
0.000793082
0.000784246
0.000776513
0.000767794
0.000760458
0.000752006
0.000745269
0.00085586
0.000849303
0.000833576
0.000819433
0.000797343
0.000777196
0.000754708
0.000734653
0.000712736
0.000693751
0.000673524
0.000656617
0.00063872
0.000624209
0.000608576
0.000596309
0.000582609
0.000572321
0.000884393
0.000820286
0.000756835
0.00068646
0.000625493
0.000578039
0.000534632
0.00050093
0.000469159
0.000444735
0.000420959
0.000402939
0.000384727
0.000371194
0.000356873
0.00034648
0.000334766
0.000326389
0.000991833
0.00057144
0.000427833
0.000341148
0.000286072
0.000249586
0.000221753
0.00020236
0.000186118
0.000174616
0.00016415
0.000156775
0.000149574
0.000144612
0.000139391
0.000135858
0.000131666
0.00012863
0.000498995
0.000135772
9.23423e-05
7.50714e-05
6.53987e-05
5.95836e-05
5.58088e-05
5.35566e-05
5.2074e-05
5.14136e-05
5.102e-05
5.11535e-05
5.13368e-05
5.16087e-05
5.09249e-05
5.03394e-05
4.99117e-05
4.9509e-05
6.0427e-06
8.06396e-06
9.6889e-06
1.09503e-05
1.18575e-05
1.25103e-05
1.29235e-05
1.32182e-05
1.33511e-05
1.34408e-05
1.34825e-05
1.34716e-05
1.34382e-05
1.3389e-05
1.33331e-05
1.32736e-05
1.32122e-05
1.31504e-05
3.01036e-08
1.00023e-06
2.24113e-06
3.89289e-06
5.60533e-06
7.34331e-06
8.75218e-06
9.65134e-06
9.98458e-06
1.1732e-05
1.23239e-05
1.26356e-05
1.44377e-05
1.54362e-05
1.708e-05
1.83771e-05
2.0403e-05
2.24646e-05
2.49367e-05
2.76544e-05
3.07417e-05
3.40031e-05
3.74975e-05
4.11242e-05
4.48701e-05
4.84902e-05
5.19526e-05
5.5219e-05
5.83529e-05
6.12665e-05
6.3961e-05
6.64636e-05
6.88833e-05
7.10774e-05
7.32353e-05
7.52884e-05
7.74199e-05
7.94011e-05
8.13713e-05
8.32291e-05
8.50897e-05
8.68234e-05
8.85544e-05
9.01651e-05
9.16517e-05
9.28917e-05
9.4336e-05
9.54692e-05
9.58135e-05
9.63935e-05
9.83636e-05
9.93034e-05
9.86338e-05
9.67724e-05
9.64074e-05
9.71555e-05
9.87152e-05
9.7492e-05
9.40796e-05
8.96353e-05
8.3238e-05
7.491e-05
6.45354e-05
5.14427e-05
4.21101e-05
3.51257e-05
2.97732e-05
2.5495e-05
2.195e-05
1.88982e-05
1.58959e-05
1.14851e-05
7.24943e-06
2.91271e-06
1.63951e-06
2.50018e-06
4.81363e-06
9.70617e-06
1.64335e-05
1.95893e-05
1.92571e-05
1.52714e-05
1.31007e-05
1.71108e-05
2.46665e-05
3.49355e-05
5.07861e-05
5.68563e-05
5.73303e-05
5.60758e-05
5.45336e-05
5.3033e-05
5.16137e-05
5.02874e-05
4.90299e-05
4.77521e-05
4.72001e-05
4.63207e-05
4.5667e-05
4.50123e-05
4.42461e-05
4.35301e-05
4.31795e-05
4.26038e-05
4.2148e-05
4.17707e-05
4.14241e-05
4.10616e-05
4.07906e-05
4.04532e-05
4.01086e-05
3.9823e-05
3.95546e-05
3.91449e-05
3.89426e-05
3.87183e-05
3.83905e-05
3.79645e-05
3.77681e-05
3.74618e-05
3.72489e-05
3.69957e-05
3.6847e-05
3.68598e-05
3.67294e-05
3.68081e-05
3.67992e-05
3.69801e-05
3.70738e-05
3.72658e-05
3.74264e-05
3.76246e-05
3.78465e-05
3.80693e-05
3.83385e-05
3.85717e-05
3.88431e-05
3.90988e-05
3.93742e-05
3.96686e-05
4.00218e-05
4.03503e-05
4.08553e-05
4.12586e-05
4.18659e-05
4.23074e-05
4.29157e-05
4.34727e-05
4.44238e-05
4.63748e-05
4.7958e-05
5.02521e-05
5.26603e-05
5.32908e-05
5.32275e-05
5.27851e-05
5.27718e-05
5.23347e-05
5.2105e-05
5.19619e-05
5.18412e-05
5.17489e-05
5.15421e-05
5.15303e-05
5.15252e-05
5.12527e-05
5.17936e-05
5.23864e-05
5.3095e-05
5.35505e-05
5.37198e-05
5.41899e-05
5.42532e-05
5.28528e-05
4.89223e-05
4.57131e-05
4.25733e-05
3.99577e-05
3.79236e-05
3.40231e-05
1.07705e-07
3.20186e-06
9.06262e-06
1.49231e-05
2.14011e-05
2.83883e-05
3.51259e-05
4.11903e-05
4.75515e-05
5.22307e-05
5.55694e-05
5.83723e-05
6.16539e-05
6.5668e-05
7.12411e-05
7.61062e-05
8.35176e-05
9.23205e-05
0.000103351
0.000116619
0.000131848
0.000148866
0.000167277
0.000186491
0.000207419
0.000232643
0.000261901
0.00028359
0.000314299
0.000336607
0.000367754
0.000387878
0.000414149
0.000445116
0.000464358
0.000484789
0.000502687
0.000521338
0.000540236
0.000559505
0.00057922
0.000599142
0.000618885
0.000638114
0.000656488
0.000674151
0.000691285
0.000703959
0.000715869
0.000725978
0.000738897
0.000751062
0.000756157
0.000753596
0.00074555
0.00073276
0.00071594
0.00070159
0.000692142
0.000673485
0.000627014
0.000550908
0.000437385
0.000318089
0.000202881
0.000146149
9.69537e-05
7.1066e-05
5.21059e-05
3.66194e-05
2.64012e-05
1.77433e-05
1.28115e-05
1.16892e-05
1.33253e-05
2.09769e-05
4.07671e-05
7.66013e-05
0.000108273
0.000128658
0.000125422
9.37126e-05
6.09666e-05
8.84739e-05
9.77841e-05
0.000108818
0.000134992
0.000169873
0.000208756
0.000244266
0.000272842
0.000304479
0.00033362
0.000360978
0.000386869
0.000408689
0.000424454
0.000462268
0.000482564
0.000506848
0.00052082
0.000546616
0.000582093
0.000597047
0.000603901
0.000619121
0.000629945
0.000628715
0.000633342
0.000617057
0.000624835
0.000604582
0.000619082
0.00059793
0.000605898
0.000595572
0.000584018
0.000563198
0.000550502
0.000560454
0.000525209
0.000529476
0.000490961
0.000496116
0.000472181
0.000470715
0.000448374
0.000444213
0.000435333
0.00042824
0.000420077
0.000413055
0.000406129
0.000398661
0.000391762
0.000384868
0.000378054
0.000370587
0.000366432
0.00036053
0.00035326
0.000351579
0.000348804
0.000345942
0.00035222
0.000349642
0.00034866
0.000351616
0.000353043
0.000354206
0.000355887
0.000355548
0.000361241
0.000364265
0.000367044
0.000368297
0.000373624
0.000378272
0.000383145
0.000387162
0.000392815
0.000397625
0.000402328
0.000406522
0.000412141
0.000413961
0.000414311
0.000412986
0.000412474
0.00040936
0.000407386
0.000402819
0.000396897
0.000388407
0.00038111
0.00037033
0.000362036
0.000346139
0.000339593
0.000292049
2.50556e-07
6.29814e-06
2.56671e-05
4.53053e-05
6.75853e-05
9.0485e-05
0.000111487
0.000128326
0.00014204
0.000150902
0.000156509
0.000160654
0.000165439
0.000172634
0.000183657
0.000198563
0.000217286
0.000239946
0.000266722
0.000298317
0.000332101
0.000368302
0.000407849
0.000447311
0.000493268
0.000538213
0.000583618
0.000625781
0.000670017
0.000710493
0.000749252
0.000787222
0.000826103
0.000864937
0.000899616
0.000933867
0.000966957
0.00100007
0.00103284
0.00106516
0.0010968
0.00112744
0.00115668
0.0011841
0.00120927
0.00123167
0.00125052
0.00126504
0.00127477
0.00128097
0.00128786
0.00128956
0.00128528
0.00127486
0.00125901
0.00123804
0.00121173
0.00118169
0.0011491
0.0011129
0.00107745
0.00103735
0.000962263
0.000828151
0.000635869
0.000446387
0.000285703
0.000177647
0.000120741
7.78993e-05
5.42991e-05
3.92886e-05
3.25983e-05
2.78298e-05
2.86268e-05
3.58596e-05
6.34089e-05
0.00010265
0.000138227
0.000160297
9.73155e-05
0.000113947
0.000135353
0.000173879
0.00024098
0.000334842
0.000421751
0.000501957
0.00058922
0.000676555
0.000750267
0.000823177
0.000883489
0.000936838
0.000982824
0.00102328
0.00105978
0.00109593
0.00112752
0.00115858
0.00119011
0.00122587
0.00126118
0.00128323
0.00130235
0.00131932
0.00132564
0.00132942
0.00134201
0.00134089
0.0013356
0.00131773
0.001331
0.00130586
0.0012946
0.00127284
0.00125671
0.00123857
0.00122446
0.00119937
0.00117203
0.00114247
0.00109691
0.0010752
0.00104107
0.00101395
0.000987149
0.000962443
0.000933941
0.00090786
0.000882493
0.000856866
0.000834842
0.000812799
0.000792737
0.000774376
0.000758509
0.00074274
0.000725604
0.000708716
0.00069033
0.000682066
0.000670315
0.000659966
0.000652208
0.000642015
0.000635073
0.000634739
0.00063232
0.000632334
0.00063255
0.000632027
0.000634675
0.000636042
0.000638558
0.000641094
0.000645957
0.000651974
0.000658881
0.000665948
0.000672123
0.000666051
0.000670732
0.000683128
0.000694671
0.000701593
0.000707373
0.000716003
0.000728937
0.000736808
0.000738003
0.000737465
0.00073325
0.00072272
0.000713366
0.00069594
0.000682393
0.000655356
0.000640589
0.000582447
4.69367e-07
1.34703e-05
6.10428e-05
0.000111307
0.000161069
0.000208041
0.000248747
0.000281018
0.000305326
0.000320888
0.000329085
0.000332305
0.000333588
0.000336158
0.000342946
0.000356061
0.000376857
0.000405939
0.000442843
0.000486682
0.000536073
0.000589383
0.000645401
0.000703821
0.00076397
0.000823037
0.00087984
0.000934257
0.000986633
0.00103449
0.00108027
0.0011231
0.00116394
0.0012028
0.00123916
0.00127376
0.00130659
0.00133816
0.00136846
0.00139745
0.00142499
0.00145085
0.00147476
0.00149641
0.00151545
0.00153146
0.00154403
0.00155254
0.0015552
0.00155386
0.00152324
0.00146892
0.00143594
0.0014149
0.00140324
0.00139979
0.00139804
0.00139245
0.00135248
0.00130939
0.00126487
0.00121946
0.00117417
0.00111982
0.00101934
0.000846186
0.000626151
0.000414177
0.00026682
0.000167137
0.000114186
7.94989e-05
6.02884e-05
5.466e-05
4.92818e-05
5.39394e-05
8.47847e-05
0.000143805
0.000149722
0.000134988
0.000160052
0.000210618
0.000301757
0.000447643
0.000565303
0.00067536
0.000798044
0.000920398
0.00103787
0.00114503
0.0012383
0.0013242
0.0013983
0.00146461
0.00152246
0.0015743
0.00162271
0.00166651
0.00170888
0.00175131
0.00178686
0.00182008
0.00184598
0.00186149
0.00189511
0.00192498
0.00193527
0.00193921
0.00195561
0.00194686
0.00195415
0.00194952
0.00194548
0.00193096
0.00191121
0.0019069
0.0018882
0.00186424
0.00183784
0.00180745
0.0017745
0.0017372
0.00169733
0.00165363
0.00162157
0.00158154
0.00153679
0.00149055
0.00143635
0.0013964
0.00134576
0.0012832
0.00124157
0.00119763
0.0011545
0.00111565
0.00107553
0.00103518
0.00100515
0.000974662
0.000944113
0.000917995
0.000893018
0.000872081
0.000854166
0.000837715
0.000823353
0.000810858
0.000793308
0.000789528
0.00078765
0.000776642
0.000766943
0.000746205
0.000727653
0.000710135
0.000693546
0.00067793
0.000665215
0.000656434
0.000655476
0.000659891
0.000667552
0.000677199
0.000688399
0.000699798
0.000709753
0.000723042
0.000739773
0.000755499
0.000770936
0.000784226
0.000797445
0.000805037
0.000812749
0.000810936
0.000808683
0.000787366
0.000763356
0.000701021
6.87121e-07
2.12602e-05
9.74376e-05
0.000187961
0.000274277
0.000350594
0.000416524
0.000470769
0.000512666
0.000541489
0.000559287
0.000567959
0.000570641
0.000571214
0.000573806
0.00058215
0.000599122
0.000626374
0.000664073
0.000711202
0.000765892
0.000825625
0.000888929
0.000953491
0.00101755
0.00107932
0.00113773
0.00119213
0.00124224
0.00128775
0.00132942
0.0013676
0.00140222
0.00143426
0.00146406
0.00149199
0.00151823
0.00154281
0.00156603
0.00158797
0.00160856
0.00162761
0.00164491
0.00166021
0.00167322
0.00168362
0.00169107
0.00169525
0.00169437
0.00169025
0.00167235
0.00160351
0.00153628
0.00148154
0.00144311
0.00141814
0.00140614
0.00140579
0.00140842
0.00140006
0.00134975
0.00129919
0.00125197
0.00120646
0.00115901
0.00108458
0.000936873
0.000717641
0.000498837
0.000325403
0.000222558
0.000155504
0.000118474
9.34705e-05
8.09686e-05
7.94894e-05
0.000123067
0.000141295
0.000171767
0.000214443
0.000295629
0.000444221
0.000624526
0.000744914
0.000872371
0.00100923
0.00115209
0.00129085
0.00141943
0.00153608
0.00163999
0.00173452
0.00181883
0.00189414
0.00196306
0.00202548
0.00208016
0.00212997
0.00218414
0.00222399
0.00225379
0.00229128
0.00232769
0.00234683
0.00238719
0.0024116
0.00242692
0.0024403
0.00244091
0.00245483
0.00245965
0.00245889
0.0024559
0.00244781
0.00243523
0.00242209
0.00240404
0.00237811
0.00234446
0.00232001
0.00228707
0.00222876
0.00216953
0.00211022
0.00204916
0.00198714
0.00192321
0.00185812
0.0017913
0.00172345
0.00165421
0.00158387
0.00151363
0.00144329
0.0013735
0.00130533
0.00123948
0.00117681
0.00111905
0.00106538
0.00101664
0.000973807
0.000935963
0.000903878
0.000875816
0.0008514
0.000828816
0.000806727
0.000783865
0.000760061
0.000736149
0.000712776
0.000691848
0.000672253
0.000653335
0.00063503
0.000618857
0.00060614
0.000598326
0.00059608
0.000597087
0.00060144
0.000607717
0.000616767
0.000627288
0.000638836
0.000651099
0.000664834
0.000680281
0.000697129
0.000714693
0.000731871
0.000748659
0.000760383
0.000772111
0.000776466
0.000778054
0.00076644
0.000750291
0.000711567
9.11276e-07
2.85607e-05
0.00012823
0.000251291
0.000368592
0.000475098
0.000567708
0.000645638
0.000708008
0.000756337
0.000790668
0.00081324
0.000826517
0.000833959
0.000839717
0.000847938
0.000862253
0.000885203
0.000917848
0.00095979
0.00100947
0.0010646
0.00112285
0.00118172
0.00123912
0.00129375
0.0013449
0.00139031
0.00143104
0.00146751
0.00150021
0.0015297
0.00155667
0.00158108
0.0016032
0.00162357
0.00164256
0.0016604
0.0016773
0.00169324
0.00170816
0.00172197
0.0017345
0.00174558
0.00175499
0.00176247
0.00176767
0.00177045
0.00176891
0.00176512
0.00176203
0.00175088
0.00173466
0.00169464
0.00161976
0.00155444
0.0015054
0.00147304
0.00145413
0.00143754
0.00139595
0.00133924
0.00128406
0.00123245
0.00119014
0.00114827
0.00108578
0.000954579
0.000751729
0.000534238
0.000367976
0.000253203
0.000173995
0.000124788
0.00010759
0.00012678
0.000174943
0.000203203
0.000265661
0.000362385
0.000547388
0.000729787
0.000862281
0.000996409
0.00113726
0.00128929
0.00144448
0.00159319
0.00173085
0.00185609
0.00196825
0.00207045
0.00216483
0.00224977
0.00232264
0.00238769
0.00244442
0.00250582
0.00255837
0.00259456
0.00263956
0.002665
0.00270279
0.00273002
0.00276707
0.00279057
0.00279739
0.00281558
0.00283246
0.00283189
0.00284092
0.00284639
0.00284623
0.00284201
0.00282472
0.00281827
0.00280241
0.00277448
0.00275251
0.00270727
0.00264358
0.00257991
0.00251513
0.00244997
0.00238382
0.0023162
0.00224678
0.00217542
0.00210157
0.00202558
0.00194695
0.00186599
0.00178326
0.0016989
0.00161347
0.00152788
0.0014432
0.00136022
0.00128069
0.00120499
0.00113449
0.00107004
0.00101184
0.000960221
0.000913742
0.000871867
0.000832928
0.000796958
0.000763067
0.000732113
0.00070211
0.000672682
0.000645222
0.000617757
0.000592922
0.000571508
0.0005546
0.000542253
0.000534707
0.0005313
0.000531509
0.000534841
0.000541487
0.000550248
0.000560219
0.00057206
0.000584435
0.00059803
0.000614681
0.000632099
0.000652113
0.000671002
0.000690714
0.000705892
0.000722332
0.000732404
0.000737679
0.000735728
0.000727348
0.000706558
1.1934e-06
3.61144e-05
0.000152177
0.000300016
0.000443939
0.000573663
0.000687116
0.000784203
0.000866122
0.000932507
0.000984648
0.00102355
0.00105121
0.00106955
0.00108379
0.00109698
0.0011124
0.00113272
0.00115954
0.0011932
0.00123296
0.0012774
0.00132498
0.00137117
0.00141573
0.00145771
0.00149638
0.00153208
0.00156384
0.00159155
0.00161567
0.00163662
0.00165519
0.00167194
0.00168735
0.00170169
0.00171518
0.00172803
0.00174036
0.0017522
0.00176357
0.00177439
0.00178459
0.00179402
0.00180251
0.00180983
0.00181566
0.00181963
0.0018208
0.001818
0.00181834
0.00181236
0.00180107
0.00177976
0.00175
0.00171511
0.00167299
0.00162383
0.00156896
0.00150957
0.00144667
0.00138235
0.00131922
0.00125954
0.00120572
0.00115665
0.00112015
0.00106286
0.000941396
0.000751933
0.00055006
0.000364055
0.000233754
0.000176801
0.000173797
0.000238925
0.000241824
0.000312168
0.000406851
0.000591779
0.000794477
0.000927337
0.00106458
0.0012085
0.00136695
0.00153798
0.00170611
0.00186544
0.00201085
0.00214341
0.00226047
0.00236797
0.00246541
0.00255073
0.00262439
0.00269251
0.00275431
0.00281393
0.00286935
0.00290491
0.00295108
0.00297721
0.0030163
0.00303526
0.00306936
0.00308118
0.0030958
0.00311155
0.00312453
0.00312919
0.00313593
0.00313913
0.00313802
0.00313963
0.00312326
0.00311572
0.00310045
0.00308029
0.00304578
0.00298027
0.00291464
0.00284924
0.0027837
0.0027179
0.00265137
0.00258375
0.00251446
0.00244304
0.00236898
0.00229211
0.00221227
0.00212927
0.00204321
0.00195417
0.00186257
0.00176899
0.00167436
0.00157963
0.00148604
0.0013945
0.00130642
0.00122303
0.00114542
0.00107414
0.00100832
0.000947338
0.000886791
0.000832599
0.000782152
0.00073202
0.00068391
0.000639183
0.000598916
0.000563485
0.000534596
0.000512112
0.000495582
0.000483933
0.000477248
0.000474792
0.000475967
0.000480418
0.000487494
0.000496611
0.000507161
0.000519587
0.000532146
0.000547108
0.00056467
0.000582986
0.000603613
0.000623557
0.000645077
0.000664421
0.000683932
0.000703151
0.000714983
0.000722161
0.000720683
0.000710875
1.5525e-06
4.43655e-05
0.000174768
0.000340016
0.000503023
0.000651631
0.000782626
0.000895645
0.000991076
0.00106972
0.00113299
0.001183
0.00122173
0.00125199
0.00127531
0.00129475
0.00131312
0.00133276
0.00135526
0.00138135
0.00141089
0.001443
0.00147638
0.00151085
0.00154453
0.00157595
0.00160435
0.00162953
0.00165169
0.00167109
0.00168794
0.00170261
0.00171557
0.00172727
0.00173808
0.00174827
0.00175809
0.00176771
0.00177727
0.00178683
0.00179646
0.00180615
0.00181588
0.00182558
0.00183511
0.00184426
0.00185274
0.00186003
0.00186578
0.00186756
0.0018681
0.00186958
0.00186543
0.00184819
0.00182488
0.00179417
0.00175485
0.00170653
0.00164966
0.0015854
0.00151527
0.00144197
0.00136944
0.00130094
0.00123765
0.00118072
0.00112999
0.00109052
0.00103405
0.000906111
0.000719854
0.000480247
0.000297502
0.000230216
0.000266667
0.000296416
0.000345156
0.000432068
0.000601924
0.000832578
0.000964127
0.00110232
0.00124782
0.00140511
0.00158174
0.00176585
0.00194251
0.00211042
0.00226205
0.00239591
0.00252159
0.00263122
0.00272954
0.00281644
0.00289162
0.00295937
0.00301991
0.00307423
0.00312189
0.00316071
0.00319791
0.00322724
0.00325612
0.00327872
0.0033018
0.00331715
0.003331
0.00334306
0.00335179
0.00335658
0.00336003
0.00336041
0.00335818
0.00335167
0.00334132
0.00333145
0.00331341
0.00329732
0.0032396
0.00317222
0.00310612
0.00304116
0.00297701
0.0029132
0.00284919
0.00278443
0.00271831
0.00265015
0.00257932
0.00250543
0.00242816
0.00234718
0.00226234
0.00217365
0.00208118
0.00198536
0.0018862
0.0017847
0.00168252
0.00158071
0.00148009
0.0013816
0.00128631
0.00119475
0.00110475
0.00101544
0.000930159
0.000848193
0.000769773
0.000699567
0.000636245
0.000583199
0.000540241
0.000506159
0.000480522
0.000461231
0.000447837
0.000439258
0.000435542
0.00043619
0.00043909
0.000445338
0.000452876
0.000462858
0.00047459
0.000487443
0.000502281
0.00051868
0.000536829
0.000556189
0.000577209
0.000598604
0.000621534
0.000644055
0.000665964
0.000687832
0.0007045
0.000720525
0.000731545
0.000731556
1.9856e-06
5.31185e-05
0.00019694
0.000376474
0.000554375
0.000717323
0.000861242
0.000985426
0.00109048
0.0011776
0.00124859
0.0013062
0.00135183
0.00138752
0.00141558
0.0014384
0.00145827
0.00147713
0.00149646
0.00151713
0.0015394
0.00156297
0.0015871
0.00161113
0.00163423
0.00165591
0.00167561
0.00169311
0.00170844
0.00172174
0.00173324
0.00174323
0.00175206
0.00176007
0.00176758
0.00177485
0.0017821
0.00178952
0.00179724
0.00180539
0.00181407
0.00182339
0.00183343
0.00184422
0.00185573
0.00186783
0.00188025
0.00189257
0.00190408
0.00191442
0.00191996
0.00192387
0.00193067
0.00192547
0.00190665
0.00188071
0.00184498
0.00179887
0.00174246
0.00167645
0.00160211
0.00152147
0.00143799
0.00135979
0.00128755
0.00122124
0.0011609
0.00110792
0.00107671
0.000992277
0.000833976
0.000591752
0.000403849
0.000343441
0.000347846
0.000385393
0.000468876
0.000609698
0.00085098
0.000978264
0.00111548
0.00125989
0.00141476
0.00158613
0.00177792
0.00197171
0.0021567
0.00232562
0.00247983
0.00262168
0.00274712
0.00285796
0.00295614
0.00304209
0.00311681
0.00318259
0.0032402
0.00329038
0.003333
0.00336949
0.00340114
0.00342721
0.00344973
0.0034683
0.00348413
0.0034955
0.0035044
0.00351087
0.00351462
0.00351571
0.00351485
0.0035115
0.00350625
0.00349619
0.00348515
0.00347208
0.00345549
0.00341991
0.00334962
0.00328235
0.00321777
0.00315543
0.00309468
0.00303484
0.00297512
0.00291485
0.00285323
0.0027896
0.00272326
0.00265364
0.00258014
0.00250208
0.00241867
0.00233028
0.00223746
0.00214032
0.00203943
0.00193575
0.00182969
0.00172124
0.00161035
0.00149693
0.00137978
0.0012578
0.00113919
0.00102341
0.000910102
0.000803734
0.00071138
0.00063527
0.000573514
0.000524915
0.000486988
0.000458392
0.000438352
0.000423513
0.000414062
0.000409212
0.000408978
0.000412674
0.000417405
0.000425894
0.000433829
0.000443972
0.000457554
0.00047271
0.000489191
0.000506965
0.000526268
0.000547052
0.000569659
0.000593737
0.00061932
0.000645768
0.00067199
0.000698897
0.000721705
0.000744351
0.000761152
0.000771676
2.48169e-06
6.19304e-05
0.000218173
0.000410175
0.00060028
0.000774341
0.000927698
0.00105945
0.00117036
0.00126193
0.00133641
0.00139731
0.00144602
0.00148435
0.00151468
0.00153914
0.00155961
0.00157771
0.00159469
0.00161138
0.00162822
0.00164526
0.00166227
0.0016789
0.00169476
0.0017095
0.00172281
0.00173454
0.0017447
0.00175338
0.00176077
0.00176709
0.00177261
0.0017776
0.00178234
0.00178705
0.00179194
0.0017972
0.001803
0.00180952
0.00181697
0.00182558
0.0018356
0.00184723
0.00186062
0.00187582
0.00189268
0.00191084
0.00192972
0.00194831
0.00196603
0.00197744
0.00198715
0.00199759
0.00198985
0.00197157
0.00194179
0.00189936
0.00184408
0.00177675
0.00169898
0.00161302
0.00152284
0.00143414
0.00135294
0.0012781
0.00120886
0.00114812
0.00111608
0.0010368
0.000884245
0.000706147
0.000522404
0.00041129
0.000427924
0.000497258
0.00061668
0.000824766
0.000980558
0.00111259
0.00125399
0.0014048
0.00156906
0.00175381
0.00195489
0.00215511
0.00234103
0.00251597
0.00267291
0.00281357
0.0029382
0.00304776
0.00314359
0.0032265
0.00329776
0.00335899
0.00341181
0.00345668
0.00349406
0.00352607
0.00355199
0.0035724
0.00358835
0.00360038
0.00360892
0.00361409
0.00361664
0.00361682
0.00361484
0.00361091
0.00360541
0.00359838
0.00358993
0.00357893
0.00356597
0.00355182
0.00351862
0.00344483
0.00337555
0.00331086
0.00324989
0.00319189
0.00313602
0.00308158
0.00302759
0.00297311
0.00291715
0.00285832
0.00279609
0.0027305
0.00266103
0.00258695
0.00250802
0.00242416
0.00233506
0.00224066
0.00214165
0.00203735
0.00192658
0.00180887
0.0016809
0.0015429
0.00140171
0.00125581
0.00111088
0.000966494
0.000836429
0.000726135
0.000637095
0.000568175
0.000515085
0.000474793
0.000444067
0.000422244
0.00040776
0.00039706
0.000391411
0.000390075
0.000392486
0.000398188
0.000404857
0.000415189
0.000423094
0.000435149
0.000450382
0.00046748
0.000485817
0.000505478
0.000526838
0.000550155
0.000575849
0.00060393
0.000634504
0.000667018
0.000700659
0.000734648
0.000766118
0.00079521
0.000819754
0.000835318
3.01182e-06
7.02745e-05
0.000237493
0.000440132
0.000640143
0.000822792
0.000983044
0.00111992
0.00123438
0.00132822
0.00140429
0.00146633
0.00151549
0.0015543
0.00158501
0.0016096
0.00162975
0.00164686
0.001662
0.00167595
0.00168917
0.00170188
0.00171407
0.00172562
0.00173633
0.00174601
0.00175448
0.00176167
0.00176755
0.00177243
0.00177642
0.00177964
0.00178212
0.00178409
0.00178583
0.00178756
0.0017895
0.00179184
0.00179483
0.00179872
0.00180388
0.00181071
0.00181961
0.001831
0.00184531
0.00186284
0.00188367
0.00190766
0.00193435
0.00196279
0.00199152
0.00201959
0.00203884
0.00205926
0.00206872
0.00206088
0.00204112
0.00200591
0.00195457
0.00188774
0.00180723
0.00171597
0.0016183
0.00152124
0.00143104
0.00134701
0.00126925
0.00119855
0.00114712
0.0010566
0.000918951
0.000787375
0.000510103
0.000472799
0.000538072
0.000639427
0.000802074
0.000981765
0.00109919
0.00123426
0.00137905
0.001535
0.00170671
0.00190316
0.00211085
0.0023123
0.0025041
0.00267947
0.00283652
0.00297603
0.00309876
0.0032057
0.00329801
0.00337667
0.00344291
0.00349916
0.00354858
0.0035889
0.00362136
0.00364619
0.00366448
0.00367727
0.00368547
0.00368977
0.00369072
0.00368873
0.00368432
0.0036779
0.00366981
0.00366037
0.00364987
0.0036385
0.00362636
0.00361286
0.00359793
0.00353066
0.00345291
0.00338181
0.00331696
0.00325757
0.00320262
0.00315095
0.00310148
0.00305283
0.00300478
0.00295698
0.00290828
0.00285787
0.00280522
0.00274946
0.00268966
0.00262516
0.00255544
0.00247905
0.00239473
0.00230173
0.0021997
0.00208679
0.00196323
0.00182755
0.00168171
0.00152285
0.00135584
0.00117964
0.00101213
0.00086289
0.000738226
0.000639541
0.00056426
0.000508362
0.000466489
0.000435019
0.000411525
0.000396965
0.000386846
0.000379404
0.000377177
0.000378548
0.000382807
0.000390134
0.000399755
0.00041123
0.00041905
0.000432794
0.000450712
0.000470408
0.000490926
0.000513119
0.000537595
0.00056496
0.000595748
0.000630123
0.000668181
0.000709145
0.000752198
0.000794762
0.000835535
0.000870623
0.000902254
0.000921835
3.53552e-06
7.75965e-05
0.000253742
0.000464815
0.00067246
0.000861546
0.0010268
0.00116724
0.001284
0.00137908
0.00145585
0.00151809