/*--------------------------------*- C++ -*----------------------------------*\
| =========                 |                                                 |
| \\      /  F ield         | OpenFOAM: The Open Source CFD Toolbox           |
|  \\    /   O peration     | Version:  2406                                  |
|   \\  /    A nd           | Website:  www.openfoam.com                      |
|    \\/     M anipulation  |                                                 |
\*---------------------------------------------------------------------------*/
FoamFile
{
    version     2.0;
    format      ascii;
    arch        "LSB;label=32;scalar=64";
    class       volScalarField;
    location    "100";
    object      omega;
}
// * * * * * * * * * * * * * * * * * * * * * * * * * * * * * * * * * * * * * //

dimensions      [0 0 -1 0 0 0 0];

internalField   nonuniform List<scalar> 
12225
(
37456.6
40177.6
41816.2
42641.4
42948.4
42920.2
42791.9
42562.7
42291.6
42027.4
41780.2
41550.5
41351.7
41161.9
41019.8
40862.2
40785.4
40653.7
811.28
6213.9
9236.03
11207
12560.9
13461.8
14068.4
14480.1
14734.9
14954.2
15136.3
15361.1
15536.6
15749.3
15880.1
16048.3
16081.8
16165.6
597.799
1143.28
1653.08
2296.62
2757.17
3186.61
3487.72
3801.71
4012.9
4320.53
4534.14
4831
5018.88
5287.3
5434.85
5669.35
5767.09
5961.33
490.107
590.848
702.339
856.093
997.025
1149.17
1258.01
1389.76
1477.04
1599.85
1679.4
1793.91
1861.9
1965.55
2019.99
2111.12
2150.51
2233.86
453.721
478.857
506.974
549.356
595.152
653.022
695.926
751.091
789.117
839.817
873.278
920.155
948.926
991.962
1015.64
1054.61
1072.53
1110.59
442.178
447.714
453.463
465.769
478.54
500.076
516.946
540.648
557.973
581.151
597.241
619.239
633.513
654.224
666.291
685.678
695.04
714.482
439.09
439.177
440.131
441.623
443.612
449.247
454.677
463.799
470.729
480.815
488.085
498.365
505.309
515.492
521.672
531.609
536.592
546.802
438.939
437.062
435.617
434.331
433.896
434.006
434.979
436.621
438.39
441.718
444.178
448.189
450.931
455.335
458.058
462.654
465.048
469.995
438.977
436.82
434.788
432.95
431.265
429.998
428.885
428.294
427.876
427.937
428.135
428.675
429.2
430.301
431.028
432.479
433.287
435.1
438.987
436.807
434.678
432.743
430.834
429.163
427.538
426.177
424.881
423.867
422.894
422.222
421.528
421.165
420.743
420.605
420.358
420.501
438.992
436.797
434.668
432.7
430.78
429.017
427.297
425.737
424.216
422.864
421.537
420.396
419.257
418.321
417.356
416.615
415.782
415.212
438.996
436.788
434.667
432.682
430.769
428.982
427.256
425.649
424.093
422.654
421.255
419.977
418.726
417.6
416.486
415.503
414.511
413.651
438.999
436.782
434.665
432.67
430.762
428.962
427.239
425.615
424.057
422.59
421.18
419.856
418.58
417.386
416.234
415.159
414.117
413.147
439
436.777
434.662
432.66
430.753
428.946
427.224
425.592
424.034
422.556
421.144
419.805
418.524
417.31
416.146
415.044
413.986
412.983
439.001
436.774
434.66
432.653
430.745
428.934
427.21
425.573
424.013
422.53
421.116
419.771
418.487
417.266
416.099
414.988
413.926
412.914
439
436.773
434.657
432.648
430.739
428.925
427.199
425.558
423.995
422.509
421.092
419.743
418.456
417.231
416.061
414.946
413.88
412.864
439.001
436.772
434.655
432.644
430.734
428.917
427.19
425.545
423.981
422.49
421.071
419.718
418.429
417.199
416.026
414.907
413.838
412.819
439
436.768
434.651
432.636
430.725
428.905
427.177
425.528
423.963
422.468
421.047
419.69
418.398
417.164
415.988
414.865
413.793
412.77
439.001
436.77
434.655
432.64
430.73
428.908
427.18
425.53
423.964
422.467
421.045
419.685
418.392
417.155
415.977
414.851
413.777
412.751
439.003
436.769
434.657
432.641
430.734
428.911
427.185
425.533
423.968
422.47
421.047
419.686
418.392
417.153
415.974
414.845
413.771
412.743
439
436.774
434.656
432.648
430.735
428.919
427.187
425.542
423.972
422.478
421.052
419.694
418.397
417.162
415.981
414.856
413.781
412.756
439.003
436.773
434.661
432.65
430.743
428.924
427.201
425.554
423.994
422.501
421.09
419.737
418.461
417.235
416.081
414.97
413.929
412.924
439.007
436.77
434.668
432.654
430.768
428.959
427.279
425.663
424.173
422.747
421.444
420.197
419.069
417.981
417.012
416.063
415.245
414.415
439
436.747
434.668
432.717
431.015
429.459
428.166
426.946
425.988
425.135
424.554
424.057
423.768
423.543
423.466
423.487
423.605
423.636
438.763
436.718
435.016
433.898
433.985
434.525
435.714
437.018
438.838
440.709
443.424
445.856
448.967
451.581
454.866
457.471
460.838
463.301
436.805
437.589
443.171
448.267
458.065
467.427
478.766
489.275
501.642
512.69
525.305
536.062
548.237
558.177
569.647
578.569
589.321
597.174
422.835
453.251
488.113
534.977
583.355
627.503
674.029
714.833
758.001
794.258
833.195
864.489
899.079
925.57
956.228
978.555
1006.34
1025.91
377.481
652.048
865.656
1079.62
1277.66
1454.14
1622.13
1762.99
1898.67
2006.18
2114.46
2195.63
2282.81
2344.09
2416.49
2464.44
2530.92
2578.09
756.918
2795.59
4144.46
5162.45
5989.54
6664.21
7200.38
7619.14
7949.66
8192.65
8399.39
8544.88
8685.44
8781.9
8902.05
8982.26
9103.64
9178.47
23118.1
24540.9
25584.6
26331.3
26821.6
27140.8
27309.8
27407.4
27412.2
27394.8
27352.4
27284.5
27207.4
27124.8
27041.8
26959.6
26879
26800.9
11469.8
2565.75
2623
2691.84
2762.62
2833.84
2889.9
2930.89
2951.4
2957.32
2979.95
3034.67
3037.11
3063.38
3128.46
3163.25
3226.33
3294.78
3377.83
3469.99
3582.89
3709.45
3851.9
4006.23
4175.09
4350.53
4529.6
4706.09
4879
5045.75
5207.52
5360.28
5506.68
5646.19
5783.6
5914.9
6044.23
6168.79
6290.8
6406.74
6519.46
6625.84
6725.73
6820.51
6913.46
6992.35
7048.93
7127.9
7193.97
7209.98
7198.13
7189.77
7188.85
7188.27
7115.71
6979.81
6788.86
6553.12
6280.31
5969.27
5642.08
5315.66
5034.13
4777.89
4527.39
4277.61
4032.4
3791.33
3555.76
3341.54
3158.06
2925.85
2824.05
2821.42
2888.6
3010.07
3232.06
3464.23
3614.88
3587.92
3422.96
3349.45
3520.59
3912.23
4621.05
5678.33
6503.7
6961.44
7257.56
7466.93
7620.69
7739.79
7832.33
7902.23
7945.94
7983.44
7998.95
8023.9
8024.42
8033.91
8025.59
8029.22
8013.17
8011.47
7992.54
7968.71
7945.03
7916.7
7888.01
7862.99
7818.85
7783.58
7734.61
7678.61
7624.42
7577.35
7518.65
7451.07
7389.18
7306.67
7253.73
7178.48
7122.25
7061.71
7002.86
6947.59
6895.67
6845.39
6794.33
6747.08
6700.26
6654.76
6612.94
6571.62
6536.16
6500.56
6467.88
6437.61
6411.35
6384.36
6366.05
6342.08
6328
6307.7
6293.45
6273.59
6253.73
6224.42
6202.83
6204.99
6204.14
6208.6
6208.06
6211.34
6221.19
6208.27
6218.56
6226.32
6237.61
6252.58
6271.28
6289.7
6319.28
6346.54
6364.94
6428.66
6491.43
6547.66
6599.9
6639.05
6690.33
6710.34
6730.28
6738.69
6767.54
6721.15
6714.62
6670.41
6630.08
6499.05
11481.8
2020.87
1576.45
1566.19
1552.13
1538.13
1525.7
1525.34
1499.17
1512.33
1529.75
1556.77
1585.72
1620.83
1663.42
1704.66
1750.22
1794.21
1839.03
1881.24
1923.54
1963.66
2004.17
2046.42
2078.01
2072.32
2037.3
2061.3
2023.67
2036.71
1997.7
2016.81
2004.28
1970.81
1989.31
2002.21
2024.79
2044.93
2065.11
2084.4
2103.1
2120.75
2137.55
2153.18
2167.98
2179.66
2186.36
2198.93
2205.74
2203.69
2187.35
2160.3
2137.52
2122.93
2109.83
2095.26
2077.47
2039.07
1975.5
1906.92
1849.75
1821.62
1890.47
2033.56
2361.35
2375.28
2578.64
2551.37
2542.08
2630.95
2615.85
2525.75
2392.65
2254.83
2072.85
1860.35
1748.63
1779.56
1843.27
1854.47
1787.7
1903.92
2970.74
4728.67
5471.2
5340.78
5143.03
4594.34
4253.06
3862.94
3632.64
3419.92
3261.79
3143.82
3047.31
2982.47
2956.66
2783.77
2737.05
2669.47
2656.98
2600.14
2487.93
2482.84
2451.52
2446.28
2408.65
2401.68
2372.56
2365.69
2348.92
2338.66
2323.57
2310.15
2295.43
2286.31
2275.42
2256.57
2242.44
2225.13
2215.25
2197.42
2190.74
2178.42
2167.23
2154.77
2144.34
2133.5
2121.6
2110.64
2102.44
2091.37
2081.73
2076.73
2072.37
2069.29
2068.12
2073.22
2061.66
2064.42
2076.25
2063.71
2067.61
2078.49
2067
2071.15
2081.58
2069.71
2075.3
2081.22
2089.27
2110.52
2101.94
2111.24
2123.56
2148.09
2154.24
2165.82
2177.46
2192.49
2207.5
2227.27
2242.68
2253.52
2251.52
2252.38
2249.39
2254.01
2263.2
2271.02
2267.61
2268.49
2276.63
2281.83
2289.03
2289.24
2296.51
2306.65
2310.95
2482.66
11506.9
1838.14
1133.63
1056.23
1034.3
1022.9
1021.91
1037.54
1055.06
1085.72
1123.25
1164.27
1204.51
1240.52
1269.55
1293.88
1317.62
1337.55
1351.98
1356.06
1361.09
1364.19
1361.53
1362.94
1348.39
1338.9
1329.49
1327.29
1320.34
1319.73
1321.81
1324.76
1326.3
1328.48
1337.59
1347.97
1360.82
1374.43
1389.21
1404.93
1421.49
1438.59
1456.05
1473.45
1490.51
1506.88
1522.4
1536.64
1548.91
1557.71
1560.97
1559.79
1556.12
1550.66
1542.42
1530.57
1514.91
1493.83
1466.4
1432.69
1388.42
1342.71
1316.34
1324.25
1414.08
1552.55
1754.39
1954.41
1943.02
2058.37
2051.82
2078.94
1982.95
1819.77
1642.76
1505.12
1511.46
1691.62
1915.48
2180.32
2822.09
4015.81
4382.64
4129.73
3660.74
3230.64
2784.87
2554.9
2367.58
2219.1
2128.55
2045.2
1987.95
1940.54
1902.15
1870.19
1841.96
1812.99
1793.07
1775.95
1762.79
1749.67
1737.53
1732.56
1721.53
1712.33
1706.27
1693.89
1689.42
1685.99
1679.48
1676.14
1669.29
1658.35
1652.73
1640.36
1636.11
1631.46
1623.8
1620.49
1617.54
1615.43
1620.79
1611.3
1617.91
1615.22
1608.7
1602.25
1599.02
1593.72
1587.49
1582.88
1573.6
1566.09
1557.11
1547.27
1535.01
1525.44
1521.75
1520.69
1526.79
1516.36
1517.15
1519.53
1521.38
1531.01
1540.47
1538.33
1555.74
1558.95
1566.32
1576.7
1582.35
1593.17
1603.85
1615.95
1624.49
1634.05
1644.42
1651.83
1655.71
1656.27
1650.72
1639.1
1622.69
1608.09
1594.4
1582.15
1570.26
1558.91
1547.5
1533.4
1525.59
1520.47
1516.27
1514.21
1514.68
1520.16
1524.62
1588.5
11536.7
1852.08
967.268
820.155
774.96
754.894
751.068
759.837
775.939
800.884
833.31
871.263
912.119
952.508
989.156
1019.73
1043.09
1058.47
1067.15
1070.38
1070.36
1069.12
1067.62
1065.08
1061.86
1060.73
1062.24
1065.63
1070.01
1077.78
1086.45
1096.98
1108.7
1121.86
1137.19
1154.14
1172.88
1192.93
1214.19
1236.42
1259.41
1282.84
1306.43
1329.76
1352.44
1374.15
1394.48
1413.01
1429.75
1444.66
1456.33
1464.01
1468.54
1467.78
1462.12
1451.46
1436.02
1415.63
1390.11
1359.18
1322.46
1280.94
1233.17
1188.55
1165.3
1189.54
1280.38
1440.77
1578.75
1684.74
1689.22
1706.98
1689.54
1589.37
1483.36
1494.05
1724.01
2043.14
2341.78
3511.31
3959.76
3622.03
3050.94
2631.74
2349.11
2140.15
1983.46
1874.4
1790.53
1728.05
1684.49
1646.77
1618.55
1594.91
1576.68
1561.93
1548.45
1538.44
1529.34
1520.08
1516.42
1513.48
1513.32
1518.72
1507.78
1498.21
1497.5
1500.13
1491.89
1494.54
1487.32
1486.9
1485.86
1485.39
1488.88
1476.6
1475.58
1474.81
1473.66
1472.12
1470.54
1469.94
1470.09
1473.51
1464.22
1460.26
1458.56
1457.03
1461.68
1450.71
1451.34
1464.6
1455.78
1450.14
1444.94
1436.57
1426.29
1431.9
1416.85
1415.42
1415.53
1414.05
1415.58
1416.51
1418.43
1422.9
1429.4
1436.56
1459.48
1462
1464.87
1484.62
1487.3
1506.32
1513.62
1524.93
1531.54
1536.18
1536.95
1532.47
1522.71
1507.41
1487.09
1463.14
1437.49
1413.01
1389.04
1366.79
1343.95
1322.88
1302.35
1279.89
1265.34
1257.08
1248.3
1247.05
1247.23
1247.11
1250.05
1276.92
11562.8
1946.14
952.76
735.1
659.439
628.948
616.544
615.006
621.409
635.362
655.004
679.932
709.122
740.908
773.119
803.386
829.726
850.894
866.97
878.837
887.977
896.074
903.467
911.252
919.991
930.247
942.176
955.668
970.621
987.127
1004.72
1023.29
1043.2
1064.01
1085.8
1108.52
1132.23
1156.94
1182.41
1208.38
1234.66
1260.97
1287.03
1312.5
1337.04
1360.3
1381.91
1401.51
1419.13
1434.56
1447.32
1456.73
1462.55
1466.8
1466.13
1459.42
1446.73
1428.31
1404.67
1375.7
1340.7
1299.27
1249.68
1195.33
1139.19
1103.33
1096.91
1157.99
1263.03
1389.68
1410.62
1447.99
1420.25
1443.22
1525.76
1721.95
2066.81
2486.59
3560.22
3673.39
3058.28
2523.86
2179.12
1967.76
1828.85
1727
1651.64
1593.71
1550.03
1517.19
1492.97
1472.9
1457.32
1445.34
1435.27
1427.57
1423.24
1420.76
1414.07
1415.06
1420.76
1419.96
1417.91
1424.37
1416.39
1415.98
1418.29
1420
1426.39
1423.5
1423.7
1425.38
1426.5
1427.56
1428.96
1428.08
1428.18
1429.84
1433.63
1429.61
1428.31
1427.93
1427.34
1427.8
1428.62
1421.34
1424.01
1417.89
1416.86
1415.03
1414.03
1418.71
1410.56
1407.71
1406.36
1405.68
1405.9
1415.78
1407.54
1401.62
1402.18
1403.02
1411.68
1412.82
1414.49
1413.93
1427.32
1434.11
1449.46
1458.69
1468.57
1482.06
1490.42
1503.98
1512.29
1519.28
1521.04
1516.92
1505.89
1486.71
1461.21
1431.72
1399.94
1367.47
1335.38
1305.28
1275.82
1249.23
1221.14
1197.44
1170.83
1148.78
1130.83
1131.17
1123.82
1111.63
1115.86
1102.63
1115.22
1123.82
11593.3
2083.79
995.352
735.004
639.007
592.802
569.754
559.276
557.469
561.336
570.645
584.456
602.381
623.72
647.421
672.211
696.786
720.055
741.501
761.143
779.491
797.22
814.916
833.179
852.446
872.725
893.84
916.781
940.63
965.026
989.779
1014.71
1039.71
1065.09
1091.02
1117.41
1144.24
1171.45
1198.96
1226.68
1254.48
1282.12
1309.38
1335.91
1361.38
1385.42
1407.68
1427.81
1445.45
1460.29
1472.52
1482.34
1488.31
1493.28
1496.19
1493.14
1484.63
1470.23
1449.95
1423.97
1391.55
1351.68
1303.73
1248.12
1182.09
1115.96
1064.9
1047.05
1083.07
1167.47
1242.74
1300.47
1396.66
1529.52
1728.12
2015.21
2386.72
3169.21
3399.35
2774.06
2252.63
1946.91
1767.25
1658.28
1583.19
1525.82
1482.17
1447.6
1421.61
1402.45
1388.66
1377.56
1367.87
1360.87
1358.26
1357.55
1359.33
1356.61
1356.8
1363.81
1364.56
1373.81
1375.09
1380.01
1378.44
1381.91
1391.77
1394.36
1395.88
1404.27
1406.22
1406.8
1409.61
1411.74
1418.06
1416.69
1417.6
1421.89
1421.14
1422.35
1420.4
1419.76
1418.84
1420.75
1418.89
1415.24
1414.91
1411.03
1409.93
1406.99
1403.81
1403.62
1399.47
1396.52
1395.8
1396.29
1393.35
1398.1
1395.19
1394.19
1394.53
1394.91
1397.88
1401.23
1404.4
1408.14
1416.44
1425.08
1437.09
1448.91
1461.32
1472.17
1481.17
1486.41
1486.22
1479.17
1462.97
1438.52
1407.77
1372.99
1336.26
1299.41
1263.4
1229.21
1197.17
1167.9
1140.19
1115.7
1090.11
1069.69
1042.76
1039.8
1033.12
1021.11
1002.02
1004.38
1006
991.977
1006.29
1008.27
11640
2219.4
1073.74
771.587
653.359
596.14
565.325
548.343
539.398
536.716
538.86
545.418
556.012
570.717
588.097
607.87
629.441
652.18
675.606
699.425
723.56
747.994
772.641
799.094
826.557
854.757
883.51
912.173
941.067
970.182
999.335
1028.46
1057.37
1086.05
1114.54
1142.98
1171.51
1200.17
1229.01
1258
1287.08
1316.08
1344.76
1372.81
1399.87
1425.5
1449.26
1470.67
1489.26
1504.74
1516.99
1526.12
1531.06
1535.4
1537.6
1534.77
1528.36
1517.6
1501.42
1479.31
1450.41
1413.3
1366.81
1310.59
1245.31
1176.02
1097.13
1035.7
1011.14
1029.69
1078.14
1174.17
1373.12
1593.44
1846.77
2252.5
2786.58
3105.2
2676.95
2131.93
1819.36
1651.1
1552.59
1489.77
1443.95
1407.53
1379.13
1356.46
1340.47
1328.79
1322.15
1316.77
1313.1
1312.37
1314.49
1316.62
1319.51
1321.3
1323.08
1332.21
1334.93
1345.1
1347.99
1358.4
1360.63
1371.14
1378.91
1384.72
1390.23
1397.66
1402.55
1407.19
1410.94
1412.39
1419.67
1420.73
1422.91
1425.12
1425.98
1426.68
1427.38
1426.82
1425.83
1424.82
1422.62
1419.86
1417.49
1413.75
1410.81
1407.27
1403.42
1400.62
1396.67
1392.75
1388.95
1385.78
1382.25
1380.33
1377.08
1374.83
1372.12
1370.65
1370.52
1370.65
1372.55
1376.16
1382.63
1391.2
1401
1411.05
1419.65
1422.69
1421.12
1410
1389.23
1359.02
1322.28
1282.41
1241.82
1202.03
1163.96
1128.22
1095.01
1064.6
1036.94
1011.99
989.446
969.328
949.377
932.356
914.451
902.302
893.541
880.58
888.236
877.803
889.697
890.554
894.301
892.213
11703.6
2343.67
1152.6
821.222
685.112
616.25
577.374
554.434
541.347
535.155
534.207
537.419
544.323
554.393
567.881
584.417
603.687
625.37
649.17
674.812
702.089
730.83
760.938
791.625
823.017
855.125
887.777
920.626
953.296
985.514
1017.23
1048.4
1079.02
1109.18
1139.04
1168.77
1198.57
1228.55
1258.81
1289.38
1320.23
1351.23
1382.18
1412.72
1442.49
1470.98
1497.66
1521.94
1543.28
1561.19
1574.75
1585.32
1590.47
1596.51
1597.21
1593.4
1585.82
1574.84
1560.03
1540.32
1514.53
1480.81
1436.64
1380.63
1313.87
1238.87
1160.39
1075.51
1007.04
984.787
993.15
1109.81
1372.39
1681.61
2014.22
2468.8
2810.12
2593.43
2129.37
1767.86
1582.43
1484.15
1424.47
1384.11
1353.23
1328.01
1309.12
1293.3
1283.49
1279.17
1274.71
1274.13
1275.03
1277.66
1282.35
1287.48
1293.21
1299.31
1306.17
1314.86
1322.63
1332.08
1340.34
1349.77
1357.67
1367.29
1376.17
1384.39
1392.51
1400.76
1407.96
1414.72
1420.78
1426.07
1431.85
1435.23
1439.89
1441.85
1442.92
1443.76
1444.33
1443.91
1442.8
1441.02
1438.37
1435.03
1431.31
1426.92
1422.35
1417.37
1412.16
1406.95
1401.35
1395.76
1390.09
1384.48
1378.75
1372.78
1366.4
1359.97
1353.74
1348.53
1344.2
1341.3
1340.51
1341.83
1345.75
1351.99
1356.38
1358.36
1354.01
1339.32
1314.8
1280.78
1241.66
1200.4
1159.28
1119.14
1080.91
1044.63
1010.85
979.502
950.675
924.394
900.528
879.028
859.721
842.174
827.401
809.691
810.677
807.078
795.571
783.582
779.65
772.996
780.695
767.755
780.303
778.775
11781.4
2453.23
1223.74
868.987
718.401
640.266
595.219
568.06
551.929
543.373
540.442
541.711
546.861
555.585
567.67
582.92
601.166
622.219
645.88
671.913
700.076
730.098
761.748
794.643
828.483
862.827
897.396
931.857
965.928
999.396
1032.2
1064.34
1095.93
1127.11
1158.12
1189.17
1220.49
1252.24
1284.52
1317.37
1350.8
1384.68
1418.83
1452.88
1486.41
1518.86
1549.63
1578.04
1603.42
1625.15
1642.26
1655.37
1662.26
1667.15
1670.94
1667.98
1660.38
1648.58
1632.62
1612.08
1586.11
1553.6
1512.81
1457.48
1389.29
1311.08
1227.31
1140.92
1040.34
992.144
984.453
1098.39
1385.89
1741.9
2112.6
2487.8
2493.23
2139.53
1785.04
1558.28
1442.87
1379.44
1339.11
1310.18
1287.56
1269.22
1255.57
1247.76
1243.4
1240.75
1241.43
1244.38
1248.79
1254.66
1261.8
1269.58
1277.94
1286.83
1296.51
1306.68
1317.03
1328
1338.92
1350.04
1360.9
1372.18
1383.11
1393.67
1403.93
1413.85
1423.09
1431.82
1439.8
1447.08
1453.74
1459.29
1464.46
1467.56
1469.21
1469.81
1470.25
1469.62
1468
1465.43
1461.94
1457.64
1452.69
1447.09
1441.03
1434.53
1427.72
1420.67
1413.33
1405.81
1398.11
1390.17
1381.88
1373.52
1364.88
1355.94
1346.67
1338.01
1330.36
1324.33
1320.22
1318.1
1316.52
1312.66
1302.98
1285.49
1258.65
1222.82
1182.02
1140.03
1098.68
1058.62
1020.75
984.731
951.227
919.705
890.78
863.903
839.386
817.034
796.679
778.416
761.741
746.919
733.107
720.632
710.094
696.881
697.933
697.407
696.952
695.192
694.238
679.895
688.115
685.944
11870.4
2548.46
1284.83
910.536
748.34
663.077
613.551
583.582
565.696
556.082
552.492
553.167
557.748
565.953
577.447
592.044
609.623
630.061
653.226
678.932
706.953
736.999
768.757
801.84
835.86
870.409
905.149
939.76
974.014
1007.75
1040.94
1073.64
1106.03
1138.3
1170.71
1203.49
1236.87
1271.02
1306.07
1342.04
1378.93
1416.63
1454.95
1493.53
1531.88
1569.37
1605.31
1638.88
1669.3
1695.79
1717.71
1734.05
1745.6
1750.92
1755.78
1754.76
1748.21
1736.74
1720.47
1699.15
1672.28
1638.79
1596.39
1541.83
1471.65
1389.87
1301.78
1208.7
1093.62
1030.56
1011.45
1102.89
1398.68
1714.03
2171.35
2326.89
2137.46
1820.02
1569.8
1424.15
1347.8
1303.45
1274.04
1252.65
1236.15
1223.28
1216.56
1211.74
1211.23
1213.52
1218.19
1224.7
1232.57
1241.68
1251.8
1262.59
1273.71
1285.25
1297.31
1309.33
1321.82
1334.74
1347.88
1361.12
1374.39
1387.63
1400.6
1413.17
1425.29
1436.83
1447.65
1457.69
1466.85
1475.13
1482.49
1488.9
1493.98
1497.56
1499.4
1500.05
1500.05
1498.86
1496.51
1493.02
1488.51
1483.08
1476.86
1469.96
1462.49
1454.53
1446.19
1437.55
1428.63
1419.47
1410.11
1400.44
1390.39
1379.99
1369.48
1358.14
1346.9
1335.79
1324.98
1314.59
1304.16
1292.37
1276.8
1255.05
1225.69
1189.16
1145.67
1100.75
1057.33
1016.31
977.828
941.761
908.381
877.172
848.686
822.105
797.922
775.433
755.061
736.447
719.412
704.135
689.913
677.22
665.032
654.182
644.094
635.287
625.089
625.392
624.889
624.825
623.778
615.981
620.582
619.961
11964.1
2629.23
1336.04
945.563
774.144
683.45
630.691
598.85
579.96
569.907
566.127
566.757
571.491
579.718
591.099
605.415
622.535
642.345
664.733
689.548
716.595
745.613
776.31
808.334
841.339
874.967
908.923
942.943
976.874
1010.48
1043.79
1076.93
1110.18
1143.8
1177.99
1212.98
1248.98
1286.16
1324.66
1364.49
1405.65
1448.03
1491.45
1535.53
1579.77
1623.43
1665.7
1705.57
1742.06
1774.18
1801.11
1822.21
1837.11
1846.13
1849.57
1851.71
1846.46
1835.97
1820.4
1799.37
1772.18
1737.7
1693.77
1635.76
1561.27
1475
1381.99
1285.13
1171.13
1103.67
1084.37
1164.43
1412.84
1827.76
2097.61
2078.35
1851.24
1603.17
1430.32
1331.82
1277.73
1244.91
1222.8
1206.87
1195
1188.22
1184.08
1183.9
1187.36
1193.51
1201.78
1211.69
1222.9
1235.22
1248.49
1262.1
1275.19
1288.83
1302.87
1317.47
1332.51
1347.81
1363.27
1378.72
1394.12
1409.29
1424.07
1438.3
1451.9
1464.7
1476.64
1487.6
1497.51
1506.38
1514.18
1520.86
1525.96
1528.91
1530.24
1530.77
1529.97
1527.88
1524.54
1519.9
1514.16
1507.42
1499.8
1491.43
1482.42
1472.91
1463.02
1452.85
1442.47
1431.92
1421.31
1410.41
1399.21
1387.59
1374.83
1362.1
1348.93
1334.15
1317.81
1299.33
1277.38
1250.52
1217.29
1177.4
1132.31
1083.09
1035
990.432
949.617
912.376
878.264
846.952
818.359
792.277
768.768
747.121
727.512
709.422
693.169
678.048
664.202
651.617
639.687
628.712
618.238
608.607
599.836
591.668
584.877
577.239
578.182
578.169
573.757
575.723
574.755
577.629
12054.8
2698.07
1379.31
975.308
796.462
701.516
646.313
613.142
593.624
583.403
579.658
580.478
585.426
593.788
605.149
619.237
635.884
654.962
676.367
699.975
725.64
753.163
782.275
812.691
844.17
876.45
909.339
942.553
976.169
1009.48
1042.77
1076.05
1110.41
1145.55
1181.78
1219.28
1258.22
1298.78
1341.08
1385.19
1431.11
1478.76
1527.99
1578.48
1629.68
1680.8
1730.84
1778.52
1822.53
1861.53
1894.42
1920.42
1938.7
1950.45
1955.53
1958.2
1953.45
1943.47
1928.61
1908.48
1882.18
1847.78
1803.95
1743.69
1668.05
1578.68
1478.42
1375.87
1264.22
1202
1191.84
1261.68
1475.76
1836.22
1949.82
1845.91
1641.03
1456.82
1335.1
1264.57
1223.94
1198.63
1181.65
1169.87
1162.89
1158.84
1158.56
1162.17
1169.11
1178.62
1190.12
1203.17
1217.46
1232.84
1248.59
1263.37
1278.95
1295.36
1312.23
1329.44
1346.88
1364.45
1382.06
1399.59
1416.95
1433.95
1450.39
1466.12
1480.99
1494.81
1507.53
1519.1
1529.42
1538.38
1545.94
1552.04
1556.13
1558.22
1558.87
1558.28
1556.17
1552.53
1547.43
1540.99
1533.49
1525.04
1515.75
1505.73
1495.15
1484.17
1472.93
1461.54
1450.09
1438.68
1427.11
1415.56
1403.73
1391.29
1378.08
1362.82
1345.18
1324.24
1298.85
1268.2
1230.98
1187.25
1138.06
1085.39
1031.25
980.744
935.375
894.972
858.852
826.589
797.583
771.398
747.865
727.294
708.755
692.114
677.011
663.814
652.055
641.122
630.999
621.501
612.214
603.193
594.496
586.198
578.195
570.808
564.336
558.952
554.015
554.209
551.112
551.347
549.981
551.578
12133.9
2756.57
1416.4
1001.1
816.119
717.677
660.476
626.222
606.201
595.847
592.149
593.147
598.263
606.706
617.993
631.796
647.909
666.187
686.529
708.839
733.029
758.985
786.556
815.473
845.448
876.415
908.471
940.636
972.996
1005.74
1039.2
1073.89
1108.76
1145.33
1183.52
1223.42
1265.18
1308.96
1354.92
1403.21
1453.92
1507.03
1562.52
1620.14
1679.42
1739.51
1799.19
1856.81
1910.49
1958.32
1998.64
2030.34
2052.89
2065.33
2072.41
2074.51
2069.05
2058.34
2043.11
2023.4
1998.31
1965.66
1922.62
1864.77
1789.9
1697.7
1591.38
1481.2
1369.61
1310.26
1305.82
1399.21
1596.05
1771.41
1787.11
1659.84
1492.49
1356.37
1267.3
1213.9
1181.81
1161.59
1148.44
1140.38
1136.19
1135.14
1138.09
1144.85
1154.76
1167.12
1181.38
1197.14
1214.13
1232.31
1248.93
1266.42
1284.85
1303.84
1323.2
1342.8
1362.54
1382.33
1402.05
1421.62
1440.91
1459.71
1477.72
1494.79
1510.69
1525.31
1538.44
1550.05
1559.9
1567.97
1573.99
1577.72
1579.42
1579.55
1578.18
1575.31
1570.99
1565.31
1558.37
1550.38
1541.61
1532.01
1521.66
1510.7
1499.27
1487.54
1475.64
1463.68
1451.73
1439.86
1427.94
1415.85
1402.93
1388.71
1372.44
1352.83
1328.55
1298.06
1259.67
1213.74
1160.53
1103
1044.2
986.348
934.261
888.771
849.294
814.74
784.379
757.861
734.348
713.822
695.575
680.785
667.709
657.298
647.806
639.508
631.301
623.019
615.166
607.646
600.258
592.82
585.311
578.123
570.872
564.142
558.127
553.058
548.699
545.686
542.676
540.314
537.453
536.771
12195.4
2805.72
1448.6
1023.97
833.821
732.351
673.366
638.103
617.568
607.004
603.278
604.386
609.59
618.04
629.193
642.677
658.252
675.758
695.1
716.206
739.039
763.562
789.732
817.417
846.374
876.251
906.844
937.946
969.701
1002.32
1036.06
1071.27
1106.63
1144.27
1183.94
1225.66
1269.58
1315.9
1364.85
1416.69
1471.69
1530
1591.77
1657.04
1725.5
1796.31
1868
1938.41
2004.85
2064.47
2114.7
2153.86
2180.64
2195.63
2202.75
2202.12
2193.94
2180.65
2163.46
2142.78
2118.15
2087.94
2049.6
1998.27
1928.23
1836.38
1725.17
1606.12
1489.59
1427.85
1413.64
1471.9
1615.09
1685.83
1644.37
1521.54
1388.78
1285.94
1217.82
1175.31
1148.88
1132.23
1121.89
1116.16
1114.18
1115.63
1121.23
1130.49
1142.75
1157.38
1173.84
1191.74
1210.84
1230.73
1249.62
1269.71
1290.57
1311.98
1333.75
1355.73
1377.8
1399.84
1421.73
1443.34
1464.51
1484.95
1504.41
1522.53
1539.06
1553.66
1566.08
1575.92
1583.18
1588.01
1590.66
1590.96
1590.5
1588.64
1585.33
1580.63
1574.64
1567.47
1559.24
1549.94
1539.93
1529.23
1517.93
1506.15
1494.01
1481.65
1469.2
1456.76
1444.31
1431.85
1419.18
1405.85
1391.19
1374.07
1353.26
1326.58
1292.42
1249.37
1196.52
1136
1071.03
1007.17
945.929
893.055
848.163
810.092
777.607
749.686
725.687
705.204
687.685
672.997
662.329
655.014
646.57
639.665
632.616
627.125
621.62
615.843
609.28
602.847
596.983
590.879
584.852
579.562
573.931
568.397
562.887
558.149
553.048
548.669
543.707
539.714
534.595
531.03
12235.2
2847.96
1477.55
1044.97
850.248
746.002
685.317
649.037
627.931
617.063
613.231
614.396
619.64
628.066
639.084
652.283
667.4
684.263
702.781
722.903
744.628
767.977
792.996
819.682
847.915
877.387
907.699
938.199
969.372
1001.59
1034.9
1069.22
1104.94
1143.05
1183.36
1225.93
1270.94
1318.66
1369.42
1423.65
1481.9
1544.68
1612.46
1685.73
1764.42
1847.89
1934.56
2021.46
2104.73
2180.08
2243.5
2292.32
2324.61
2342.32
2348.37
2343.56
2330.85
2312.89
2291.62
2268.09
2242.44
2213.54
2179.79
2137.04
2077.36
1993.95
1885.33
1761.7
1635.45
1553.88
1528.94
1542.65
1598.87
1604.53
1532.11
1422.84
1319.87
1239.01
1183.36
1147.15
1124
1109.46
1100.81
1096.6
1096.24
1099.51
1106.94
1117.93
1131.85
1148.09
1166.17
1185.65
1206.3
1227.85
1249.33
1271.4
1294.47
1318.23
1342.45
1366.87
1391.32
1415.6
1439.58
1463.09
1485.91
1507.62
1527.9
1546.14
1561.74
1574.23
1583.7
1589.77
1594.14
1596.22
1596.22
1594.2
1590.76
1585.9
1579.79
1572.59
1564.42
1555.42
1545.69
1535.34
1524.44
1513.05
1501.2
1489
1476.5
1463.84
1451.09
1438.32
1425.46
1412.34
1398.58
1383.3
1365.63
1343.48
1315.62
1279.5
1233.52
1176.88
1111.15
1041.08
972.492
909.368
855.41
811.788
775.789
745.58
720.615
699.569
682.04
667.95
656.616
651.936
645.735
640.21
634.496
630.749
626.948
622.816
618.525
613.139
609.395
607.838
606.897
603.219
602.595
600.091
594.928
589.503
583.717
578.121
571.381
564.56
556.345
548.519
539.787
531.658
12246.8
2875.38
1501.18
1064.26
866.013
759.425
697.205
659.954
638.278
627.072
623.114
624.356
629.665
638.108
649.056
662.063
676.849
693.236
711.14
730.525
751.439
773.962
798.171
824.102
851.658
880.512
910.289
940.684
971.679
1003.41
1036.21
1070.36
1106.13
1143.83
1183.55
1225.49
1269.98
1317.52
1368.62
1423.93
1484.31
1550.82
1624.48
1706.4
1797.27
1896.78
2002.65
2110.86
2216.26
2312.32
2392.89
2453.68
2492.85
2511.52
2514.84
2504.63
2484.77
2459.25
2431.07
2402.1
2373.04
2343.52
2311.95
2276.48
2230.14
2163.57
2069.74
1951.29
1822.14
1700.36
1629.36
1605.73
1575.39
1530.2
1480.28
1383.36
1272.18
1203.9
1157.29
1126.03
1105.42
1092.12
1084.19
1081.17
1081.41
1085.59
1093.97
1105.94
1120.9
1138.31
1157.65
1178.59
1201.26
1225.62
1247.68
1271.42
1296.55
1322.69
1349.42
1376.37
1403.2
1429.64
1455.37
1480.2
1503.79
1525.7
1545.2
1561.57
1574.11
1583.8
1590.57
1593.66
1594.17
1592.25
1588.56
1583.2
1576.41
1568.46
1559.61
1550.03
1539.86
1529.23
1518.23
1506.97
1495.42
1483.57
1471.43
1459.01
1446.35
1433.53
1420.55
1407.42
1393.83
1379.43
1363.64
1344.71
1322.1
1293.31
1256.38
1208.46
1148.24
1078.24
1004.59
933.966
870.885
818.95
777.399
744.368
717.292
695.022
677.629
663.249
652.28
642.674
646.171
642.917
637.135
631.451
629.764
627.037
626.766
624.729
624.11
625.714
626.287
632.888
635.017
631.364
644.177
638.877
632.281
626.395
620.172
613.15
604.019
593.363
580.836
567.548
554.183
540.197
12241.5
2901.99
1525.03
1083.79
882.652
774.069
710.585
672.613
650.616
639.325
635.519
637.133
642.794
651.575
662.8
675.992
690.85
707.209
724.948
743.954
764.282
786.125
809.779
835.356
862.768
891.71
921.78
952.634
984.126
1016.39
1049.66
1084.12
1119.87
1157.16
1196.26
1237.5
1281.33
1328.37
1379.39
1435.35
1497.62
1567.98
1648.22
1740.15
1845.05
1962.71
2090.43
2222.84
2352.11
2469.64
2567.29
2639.8
2682.82
2699.64
2698.35
2679.52
2649.14
2612.69
2574.35
2536.9
2501.68
2468.66
2436.69
2404.08
2367.54
2319.27
2249.71
2151.87
2028.53
1884.56
1747.23
1673.4
1616.02
1544.19
1464.17
1369.39
1276.52
1206.35
1155.85
1120.39
1095.88
1081.56
1073.08
1070.16
1070.53
1075.08
1083.86
1096.42
1112.59
1131.51
1151.85
1174.39
1199.57
1223.9
1247.4
1272.84
1300.3
1328.99
1358.26
1387.56
1416.34
1444.18
1470.59
1495.35
1518.1
1538.19
1554.91
1568.39
1577.54
1583.63
1585.75
1584.33
1580.6
1574.73
1567.03
1557.87
1547.58
1536.53
1525.01
1513.2
1501.26
1489.25
1477.25
1465.26
1453.23
1441.11
1428.81
1416.28
1403.48
1390.41
1376.89
1362.89
1347.71
1330.83
1311.73
1288.64
1259.77
1221.96
1171.58
1108.56
1037.05
963.72
894.963
834.624
785.716
747.011
717.239
693.117
673.825
659.752
647.802
641.733
635.051
634.968
632.681
631.44
629.609
629.784
629.54
629.89
630.276
630.156
632.856
637.903
642.992
652.445
662.202
676.215
686.134
686.557
683.347
678.198
671.524
662.258
649.815
634.259
616.777
597.25
578.675
557.834
12211.8
2952.38
1549.54
1103.09
899.841
790.041
726.026
688.073
666.518
655.986
653.204
655.926
662.743
672.743
685.21
699.618
715.567
732.757
750.911
770.064
790.573
812.74
836.908
863.312
891.776
921.859
953.12
985.274
1018.23
1052.1
1086.93
1122.51
1158.82
1196.16
1235.14
1276.37
1320.55
1368.46
1421.11
1479.86
1546.47
1623.2
1712.77
1817.58
1939.1
2076.62
2225.87
2378.96
2526.4
2657.34
2763.94
2843.59
2880.53
2893.34
2883.94
2854.06
2810.94
2761.36
2710.75
2662.69
2619.19
2580.55
2545.81
2513.05
2480.1
2443.17
2395.13
2326.39
2228.27
2085.8
1925.16
1770.12
1666.77
1535.72
1466.64
1348.93
1273.07
1209.43
1158.1
1121.23
1095.99
1079.13
1069.16
1066.15
1066.41
1070.97
1079.82
1092.78
1110.71
1129.95
1150.12
1174.51
1199.02