/*--------------------------------*- C++ -*----------------------------------*\
| =========                 |                                                 |
| \\      /  F ield         | OpenFOAM: The Open Source CFD Toolbox           |
|  \\    /   O peration     | Version:  2406                                  |
|   \\  /    A nd           | Website:  www.openfoam.com                      |
|    \\/     M anipulation  |                                                 |
\*---------------------------------------------------------------------------*/
FoamFile
{
    version     2.0;
    format      ascii;
    arch        "LSB;label=32;scalar=64";
    class       volScalarField;
    location    "100";
    object      p;
}
// * * * * * * * * * * * * * * * * * * * * * * * * * * * * * * * * * * * * * //

dimensions      [0 2 -2 0 0 0 0];

internalField   nonuniform List<scalar> 
12225
(
-5.60466
-6.45673
-6.83548
-6.94943
-7.06898
-7.21541
-7.34945
-7.46272
-7.56304
-7.65688
-7.74909
-7.84155
-7.93546
-8.03281
-8.13688
-8.25423
-8.39014
-8.56753
-5.87506
-6.50913
-6.82706
-6.93647
-7.05264
-7.19482
-7.32659
-7.43945
-7.54099
-7.6373
-7.73115
-7.82418
-7.91784
-8.0141
-8.11571
-8.22719
-8.34936
-8.47447
-6.07093
-6.50562
-6.80259
-6.93476
-7.05635
-7.19524
-7.32429
-7.4356
-7.53635
-7.63216
-7.72488
-7.81612
-7.90739
-8.00035
-8.09663
-8.1981
-8.29985
-8.38569
-6.20943
-6.52749
-6.81017
-6.95208
-7.06905
-7.19883
-7.32217
-7.43043
-7.52918
-7.62318
-7.71427
-7.8037
-7.89269
-7.98226
-8.0731
-8.16486
-8.25113
-8.31867
-6.32654
-6.56925
-6.82509
-6.96751
-7.08049
-7.20347
-7.32233
-7.42814
-7.52509
-7.61738
-7.70681
-7.79417
-7.88038
-7.96598
-8.05095
-8.1337
-8.20821
-8.26419
-6.43149
-6.615
-6.83856
-6.9798
-7.09109
-7.2086
-7.32302
-7.42625
-7.52127
-7.61172
-7.69915
-7.7841
-7.8672
-7.94862
-8.02782
-8.10264
-8.16794
-8.21597
-6.52483
-6.6623
-6.85415
-6.99199
-7.10131
-7.21317
-7.32282
-7.42327
-7.51619
-7.60461
-7.68982
-7.77222
-7.85213
-7.92944
-8.00321
-8.07128
-8.12957
-8.17272
-6.60776
-6.71101
-6.87365
-7.00511
-7.11139
-7.21739
-7.32202
-7.41936
-7.5099
-7.59599
-7.67873
-7.75842
-7.83505
-7.90828
-7.9771
-8.03958
-8.09275
-8.13302
-6.68185
-6.76014
-6.89666
-7.01934
-7.12165
-7.22185
-7.32123
-7.41503
-7.50281
-7.58626
-7.66628
-7.74303
-7.81627
-7.88556
-7.94994
-8.00789
-8.05734
-8.0961
-6.74825
-6.80833
-6.92218
-7.03462
-7.13215
-7.22665
-7.32064
-7.41048
-7.49514
-7.57566
-7.65272
-7.72634
-7.79616
-7.86169
-7.92215
-7.97643
-8.02321
-8.06105
-6.80782
-6.85457
-6.94928
-7.05087
-7.14286
-7.23175
-7.32028
-7.40586
-7.4871
-7.56444
-7.63835
-7.70873
-7.77514
-7.83714
-7.89414
-7.94541
-7.99014
-8.02754
-6.85679
-6.89452
-6.97467
-7.06629
-7.15269
-7.23647
-7.32001
-7.40149
-7.47936
-7.5536
-7.62448
-7.69185
-7.75523
-7.81421
-7.8684
-7.91733
-7.9606
-7.99762
-6.90038
-6.9315
-6.99947
-7.08161
-7.16223
-7.24101
-7.31966
-7.39695
-7.47133
-7.54239
-7.6102
-7.67455
-7.73503
-7.79123
-7.84287
-7.88975
-7.93168
-7.96846
-6.94423
-6.96976
-7.02645
-7.09864
-7.17256
-7.24571
-7.31892
-7.3914
-7.46167
-7.52902
-7.59323
-7.65417
-7.71142
-7.76466
-7.81369
-7.85843
-7.899
-7.93524
-6.98644
-7.00729
-7.05406
-7.11637
-7.18288
-7.24987
-7.31726
-7.38435
-7.44991
-7.51297
-7.57321
-7.63028
-7.68402
-7.7341
-7.78044
-7.82296
-7.86195
-7.89737
-7.02427
-7.04128
-7.0798
-7.13295
-7.19183
-7.2524
-7.31373
-7.37511
-7.43544
-7.49387
-7.5497
-7.60269
-7.65256
-7.69931
-7.74272
-7.78293
-7.81996
-7.85412
-7.05389
-7.06792
-7.09998
-7.14536
-7.19709
-7.25135
-7.30676
-7.36242
-7.41741
-7.4709
-7.5222
-7.57083
-7.61667
-7.65971
-7.69997
-7.73736
-7.77203
-7.80402
-7.06976
-7.08172
-7.10933
-7.14901
-7.19497
-7.24378
-7.29395
-7.34448
-7.39447
-7.44316
-7.48992
-7.53419
-7.57589
-7.61504
-7.65177
-7.6859
-7.71759
-7.74679
-7.06349
-7.07451
-7.10026
-7.13723
-7.17997
-7.22525
-7.27171
-7.31839
-7.36441
-7.40902
-7.45169
-7.49191
-7.52965
-7.56485
-7.59776
-7.62812
-7.65617
-7.68179
-7.03006
-7.04222
-7.07036
-7.10954
-7.15345
-7.19873
-7.24466
-7.29024
-7.33488
-7.37745
-7.41792
-7.45553
-7.49074
-7.52308
-7.55324
-7.58057
-7.60576
-7.62838
-6.98586
-7.0006
-7.03408
-7.07874
-7.12617
-7.17355
-7.22066
-7.26717
-7.31178
-7.35406
-7.39337
-7.42994
-7.46346
-7.49443
-7.52246
-7.54807
-7.57085
-7.59179
-6.93109
-6.95057
-6.99327
-7.04639
-7.09889
-7.14928
-7.1989
-7.24719
-7.29292
-7.33537
-7.3745
-7.41044
-7.44323
-7.47308
-7.4999
-7.52396
-7.54534
-7.56464
-6.8672
-6.89469
-6.95146
-7.01541
-7.07331
-7.12717
-7.18
-7.23079
-7.27794
-7.32103
-7.36037
-7.39609
-7.42859
-7.45764
-7.48375
-7.50656
-7.52703
-7.5451
-6.79445
-6.83525
-6.91204
-6.98782
-7.05022
-7.10777
-7.16448
-7.21799
-7.26658
-7.31045
-7.35019
-7.38605
-7.41822
-7.44691
-7.47216
-7.49441
-7.51393
-7.53147
-6.71223
-6.77452
-6.87849
-6.9651
-7.02989
-7.09105
-7.15203
-7.20825
-7.25819
-7.30291
-7.34321
-7.37932
-7.41131
-7.43948
-7.46413
-7.4857
-7.50454
-7.52165
-6.61985
-6.71462
-6.85237
-6.94761
-7.01286
-7.07725
-7.14196
-7.20031
-7.25136
-7.29693
-7.33798
-7.37454
-7.4066
-7.43453
-7.45878
-7.47988
-7.49836
-7.51531
-6.51695
-6.65979
-6.83034
-6.92975
-6.99673
-7.06598
-7.13431
-7.19422
-7.24605
-7.29225
-7.33369
-7.3705
-7.40239
-7.43003
-7.45379
-7.47414
-7.49198
-7.50859
-6.394
-6.6245
-6.81632
-6.90649
-6.97499
-7.05235
-7.12651
-7.18962
-7.24384
-7.29205
-7.33505
-7.37272
-7.40509
-7.43297
-7.4568
-7.47677
-7.49395
-7.51104
-6.2088
-6.61706
-6.84112
-6.90968
-6.96916
-7.04733
-7.12214
-7.18472
-7.23877
-7.28731
-7.3307
-7.36854
-7.40088
-7.42833
-7.4515
-7.4708
-7.48708
-7.50159
-5.94284
-6.54392
-6.83424
-6.91013
-6.97377
-7.05785
-7.13649
-7.20076
-7.25564
-7.30483
-7.34847
-7.38614
-7.41786
-7.4436
-7.46417
-7.48115
-7.49488
-7.50366
-8.35459
-8.35582
-8.37106
-8.39305
-8.41324
-8.42717
-8.43716
-8.44546
-8.45283
-8.45888
-8.46461
-8.47077
-8.47883
-8.48892
-8.50169
-8.51654
-8.53398
-8.55364
-8.5762
-8.60095
-8.62805
-8.65621
-8.68495
-8.71219
-8.73679
-8.75599
-8.76807
-8.76966
-8.7584
-8.73045
-8.6834
-8.61365
-8.51885
-8.39577
-8.24297
-8.05822
-7.84113
-7.59325
-7.31894
-7.02056
-6.70239
-6.37239
-6.03923
-5.70998
-5.39572
-5.10281
-4.83701
-4.60632
-4.41294
-4.25411
-4.13266
-4.04463
-3.9815
-3.93866
-3.91799
-3.91875
-3.93939
-3.9761
-4.02467
-4.07976
-4.13702
-4.19185
-4.24196
-4.28633
-4.32404
-4.35541
-4.38231
-4.40775
-4.4334
-4.45885
-4.48304
-4.50551
-4.52099
-4.52278
-4.50218
-4.45023
-4.36505
-4.25911
-4.16011
-4.09834
-4.09848
-4.18094
-4.37646
-4.74318
-5.35399
-6.27798
-7.53812
-9.07025
-10.7594
-12.4966
-14.196
-15.8005
-17.277
-18.6079
-19.7853
-20.8095
-21.6837
-22.4128
-23.0004
-23.4501
-23.7647
-23.948
-24.0031
-23.9354
-23.7499
-23.4536
-23.0527
-22.5555
-21.9683
-21.2998
-20.5572
-19.7493
-18.8839
-17.9707
-17.0183
-16.0356
-15.0299
-14.0087
-12.9781
-11.9451
-10.9157
-9.8955
-8.88955
-7.9026
-6.93849
-6.00078
-5.0924
-4.2159
-3.37335
-2.56647
-1.79641
-1.06441
-0.37124
0.282273
0.895647
1.46844
2.00096
2.49431
2.95042
3.37272
3.76603
4.13671
4.49194
4.84001
5.18932
5.54854
5.92513
6.32554
6.75404
7.21302
7.70249
8.22033
8.76219
9.32216
9.89255
10.4651
11.0314
11.583
12.112
12.6124
13.0794
13.5098
13.9011
14.2525
14.5636
14.8351
15.0672
15.2609
15.4184
15.5436
15.6409
15.7155
15.7726
15.8177
15.8579
15.9003
15.9582
16.0403
16.1967
16.3705
-8.36562
-8.37185
-8.38844
-8.40688
-8.42158
-8.43353
-8.44391
-8.45193
-8.45774
-8.46195
-8.46592
-8.47037
-8.47643
-8.48443
-8.49512
-8.50861
-8.52566
-8.54592
-8.56944
-8.59557
-8.62418
-8.65399
-8.68418
-8.71282
-8.73865
-8.75928
-8.77297
-8.77665
-8.76781
-8.74297
-8.69992
-8.63591
-8.54932
-8.43851
-8.30233
-8.13847
-7.94592
-7.72542
-7.47961
-7.21098
-6.92292
-6.6214
-6.31509
-6.01044
-5.71526
-5.43842
-5.18523
-4.96088
-4.7719
-4.61612
-4.49207
-4.40022
-4.3355
-4.29265
-4.27038
-4.2665
-4.27776
-4.29961
-4.32774
-4.35774
-4.3864
-4.41215
-4.43415
-4.45149
-4.46355
-4.47052
-4.4749
-4.48031
-4.4909
-4.50619
-4.52293
-4.53897
-4.54753
-4.53743
-4.50085
-4.44079
-4.35516
-4.23778
-4.11941
-4.05322
-4.08155
-4.21748
-4.49884
-4.99117
-5.7558
-6.83567
-8.21979
-9.80895
-11.4899
-13.1697
-14.786
-16.2996
-17.6889
-18.9435
-20.0598
-21.0363
-21.8742
-22.575
-23.141
-23.5745
-23.8785
-24.055
-24.1068
-24.0386
-23.856
-23.5633
-23.1668
-22.6731
-22.0887
-21.4217
-20.6803
-19.8726
-19.0072
-18.0928
-17.1386
-16.1537
-15.1463
-14.1231
-13.0905
-12.0549
-11.0224
-9.99827
-8.98765
-7.99532
-7.0251
-6.0805
-5.16471
-4.28039
-3.42985
-2.61508
-1.83745
-1.09846
-0.399172
0.259459
0.876751
1.45223
1.98611
2.47962
2.93482
3.35516
3.74561
4.11268
4.46383
4.80749
5.15233
5.50711
5.87939
6.27567
6.70028
7.15565
7.64146
8.15536
8.69288
9.24816
9.81371
10.3815
10.943
11.4903
12.0158
12.5136
12.9789
13.4087
13.8007
14.1536
14.466
14.7384
14.9717
15.1672
15.3272
15.4553
15.556
15.6341
15.6952
15.7448
15.7894
15.836
15.896
15.9747
16.11
16.2379
-8.39328
-8.39577
-8.40507
-8.41674
-8.42686
-8.43646
-8.44541
-8.45244
-8.45768
-8.46158
-8.46514
-8.46882
-8.47367
-8.48015
-8.48925
-8.50115
-8.51657
-8.53533
-8.55769
-8.58309
-8.61118
-8.64047
-8.66986
-8.69746
-8.722
-8.74146
-8.75431
-8.75817
-8.75144
-8.73175
-8.69747
-8.64676
-8.5777
-8.48732
-8.37442
-8.23756
-8.07537
-7.8876
-7.67566
-7.44108
-7.18644
-6.91629
-6.63694
-6.35428
-6.07564
-5.809
-5.56061
-5.33572
-5.13948
-4.97248
-4.83362
-4.72223
-4.63698
-4.57574
-4.53721
-4.51963
-4.52071
-4.53715
-4.56482
-4.59844
-4.63254
-4.66223
-4.68314
-4.6921
-4.68837
-4.67401
-4.65217
-4.62654
-4.60015
-4.57382
-4.5472
-4.5215
-4.49756
-4.46977
-4.43118
-4.39335
-4.36254
-4.34012
-4.35007
-4.41571
-4.54905
-4.78847
-5.18744
-5.83757
-6.77537
-7.95952
-9.33388
-10.8243
-12.3596
-13.8846
-15.36
-16.7569
-18.0554
-19.242
-20.3089
-21.2507
-22.0656
-22.7518
-23.3094
-23.7381
-24.0392
-24.2147
-24.2679
-24.202
-24.0218
-23.7311
-23.3372
-22.8447
-22.2604
-21.5927
-20.8504
-20.0411
-19.1738
-18.2567
-17.2992
-16.3102
-15.2985
-14.2709
-13.2343
-12.1943
-11.1567
-10.1268
-9.1097
-8.11
-7.13196
-6.17903
-5.25447
-4.36112
-3.5014
-2.67739
-1.89078
-1.14316
-0.436038
0.22948
0.852372
1.43206
1.96873
2.46344
2.91841
3.33708
3.72454
4.08729
4.43328
4.77117
5.11015
5.45909
5.82602
6.21739
6.63797
7.09005
7.57316
8.08441
8.61928
9.17162
9.73401
10.2984
10.8564
11.4002
11.9229
12.4187
12.883
13.3124
13.7049
14.0584
14.372
14.6457
14.8803
15.0771
15.2388
15.369
15.4719
15.5525
15.6161
15.6683
15.7152
15.7633
15.8217
15.8919
15.9963
16.0578
-8.42341
-8.42249
-8.42921
-8.43782
-8.44578
-8.45458
-8.46291
-8.46926
-8.47387
-8.47715
-8.48009
-8.48309
-8.48714
-8.49264
-8.50054
-8.51106
-8.52496
-8.54214
-8.56293
-8.58685
-8.61361
-8.64177
-8.67036
-8.6978
-8.72299
-8.74421
-8.76002
-8.7682
-8.76735
-8.75596
-8.73305
-8.69609
-8.64266
-8.57083
-8.4794
-8.36622
-8.22944
-8.06781
-7.88167
-7.6721
-7.44087
-7.19088
-6.92718
-6.65565
-6.38342
-6.11765
-5.86559
-5.63385
-5.42746
-5.24906
-5.0991
-4.97617
-4.87838
-4.80406
-4.75206
-4.721
-4.70941
-4.71511
-4.73505
-4.76492
-4.79932
-4.83231
-4.85784
-4.87054
-4.86737
-4.84787
-4.81158
-4.75811
-4.68989
-4.61361
-4.53811
-4.47352
-4.42597
-4.39539
-4.37831
-4.37411
-4.38547
-4.42484
-4.51087
-4.65521
-4.89558
-5.30788
-5.95431
-6.83448
-7.91199
-9.13759
-10.467
-11.8563
-13.2662
-14.6633
-16.0215
-17.3179
-18.5336
-19.6548
-20.6709
-21.5742
-22.3595
-23.0241
-23.5658
-23.9837
-24.2771
-24.4477
-24.4983
-24.4312
-24.2491
-23.9569
-23.5604
-23.0644
-22.4763
-21.8043
-21.0563
-20.2407
-19.3665
-18.443
-17.4791
-16.4832
-15.4636
-14.4287
-13.385
-12.3379
-11.2929
-10.2552
-9.22978
-8.22123
-7.23398
-6.27178
-5.33784
-4.43509
-3.56601
-2.73259
-1.93679
-1.18033
-0.46495
0.208008
0.837346
1.42229
1.9629
2.46001
2.91575
3.33358
3.71865
4.07758
4.41868
4.75105
5.08442
5.42791
5.79015
6.17775
6.59562
7.04592
7.52811
8.03895
8.57366
9.1257
9.68752
10.251
10.8082
11.351
11.8729
12.3683
12.8326
13.2619
13.654
14.0069
14.3198
14.5927
14.8263
15.0223
15.1832
15.3126
15.4148
15.4946
15.5572
15.6081
15.6531
15.698
15.7491
15.8049
15.8768
15.8808
-8.45569
-8.4538
-8.46089
-8.46625
-8.47196
-8.48009
-8.48862
-8.49582
-8.50167
-8.5064
-8.51078
-8.51505
-8.52001
-8.5259
-8.53365
-8.54359
-8.55662
-8.57286
-8.59283
-8.61606
-8.64255
-8.67147
-8.70198
-8.73231
-8.76133
-8.78737
-8.80913
-8.82485
-8.83373
-8.83419
-8.82454
-8.80229
-8.76584
-8.71348
-8.64339
-8.55263
-8.43895
-8.30065
-8.13692
-7.94759
-7.73412
-7.49908
-7.2469
-6.9827
-6.71263
-6.44419
-6.18511
-5.94149
-5.71992
-5.52525
-5.35841
-5.21872
-5.10501
-5.01486
-4.9463
-4.89822
-4.86981
-4.86011
-4.86737
-4.88805
-4.91704
-4.94813
-4.97494
-4.99191
-4.9945
-4.97769
-4.93504
-4.86415
-4.7705
-4.66384
-4.55755
-4.46643
-4.39699
-4.34798
-4.32064
-4.31944
-4.35362
-4.44021
-4.59692
-4.85446
-5.29395
-5.96264
-6.83727
-7.8744
-9.03003
-10.2662
-11.5548
-12.8706
-14.1902
-15.4934
-16.7593
-17.9717
-19.114
-20.1729
-21.1374
-21.9994
-22.7512
-23.3895
-23.9099
-24.311
-24.5916
-24.7525
-24.7948
-24.7208
-24.5322
-24.2341
-23.8304
-23.3276
-22.7329
-22.0535
-21.2965
-20.4714
-19.5868
-18.6526
-17.6776
-16.671
-15.6414
-14.5966
-13.543
-12.4863
-11.4317
-10.3845
-9.34972
-8.33207
-7.33566
-6.36445
-5.42161
-4.50998
-3.63199
-2.78979
-1.98541
-1.22076
-0.497526
0.18273
0.818742
1.40946
1.95455
2.45476
2.91178
3.32905
3.71168
4.06679
4.40278
4.72944
5.05688
5.39499
5.75249
6.13666
6.55217
7.00115
7.48264
7.99343
8.52826
9.08059
9.64271
10.2067
10.7643
11.308
11.8306
12.3267
12.7914
13.221
13.6128
13.9652
14.2774
14.5494
14.7821
14.9771
15.137
15.2654
15.3663
15.4446
15.5051
15.5532
15.594
15.6325
15.6726
15.7099
15.7502
15.71
-8.49023
-8.48941
-8.49569
-8.4987
-8.50384
-8.5124
-8.52203
-8.53102
-8.53925
-8.54675
-8.55409
-8.56134
-8.56914
-8.57763
-8.58769
-8.59964
-8.61449
-8.63256
-8.65455
-8.68007
-8.70919
-8.74125
-8.77583
-8.81152
-8.84725
-8.88129
-8.91264
-8.93987
-8.96181
-8.97654
-8.98276
-8.9788
-8.9631
-8.93316
-8.88659
-8.82036
-8.73203
-8.61911
-8.47989
-8.31329
-8.12026
-7.9023
-7.66287
-7.40743
-7.14173
-6.87175
-6.60497
-6.34766
-6.10627
-5.88622
-5.69063
-5.52123
-5.37815
-5.25982
-5.16472
-5.09119
-5.03813
-5.00531
-4.99212
-4.99648
-5.01377
-5.03796
-5.06316
-5.08361
-5.0924
-5.08002
-5.03956
-4.96886
-4.87282
-4.76141
-4.64446
-4.53211
-4.4345
-4.36038
-4.31957
-4.32551
-4.39968
-4.56339
-4.84267
-5.29737
-5.96537
-6.82724
-7.83848
-8.95411
-10.1384
-11.3658
-12.6175
-13.8767
-15.1285
-16.3577
-17.5512
-18.6937
-19.7727
-20.7751
-21.6906
-22.5108
-23.2287
-23.8386
-24.3357
-24.7164
-24.98
-25.1259
-25.1544
-25.067
-24.8664
-24.5563
-24.1412
-23.6269
-23.0208
-22.3294
-21.5606
-20.7234
-19.8266
-18.8798
-17.8925
-16.8739
-15.8327
-14.7765
-13.7116
-12.6437
-11.5782
-10.5206
-9.47616
-8.4494
-7.44445
-6.465
-5.51427
-4.59491
-3.70934
-2.85977
-2.04825
-1.27659
-0.546583
0.140087
0.781998
1.37803
1.92757
2.43104
2.88985
3.30711
3.68802
4.03983
4.37138
4.69299
5.01533
5.34884
5.70252
6.08376
6.49731
6.94522
7.42619
7.93672
8.47131
9.02342
9.58559
10.1499
10.7079
11.2519
11.7749
12.2711
12.7355
13.1647
13.5559
13.9074
14.2186
14.4897
14.7216
14.9159
15.0752
15.2029
15.303
15.3801
15.4388
15.4841
15.5205
15.5517
15.5802
15.5994
15.612
15.5397
-8.5254
-8.52578
-8.53074
-8.53415
-8.54084
-8.55085
-8.56226
-8.5737
-8.58504
-8.59622
-8.60763
-8.61924
-8.63158
-8.64475
-8.65955
-8.67627
-8.69592
-8.71886
-8.74594
-8.77704
-8.81224
-8.85076
-8.89239
-8.93607
-8.98108
-9.02605
-9.07018
-9.11198
-9.15036
-9.1837
-9.21089
-9.23009
-9.23943
-9.23619
-9.21762
-9.1805
-9.12221
-9.03969
-8.9304
-8.79225
-8.62506
-8.4293
-8.20735
-7.96299
-7.70143
-7.42843
-7.15152
-6.87717
-6.61092
-6.35794
-6.12302
-5.91036
-5.72227
-5.55914
-5.42152
-5.30933
-5.22162
-5.15721
-5.11586
-5.09677
-5.09638
-5.10942
-5.12932
-5.14881
-5.15964
-5.15292
-5.12369
-5.07095
-4.99423
-4.8961
-4.78192
-4.66325
-4.55521
-4.47543
-4.44323
-4.48163
-4.61598
-4.88042
-5.32591
-5.97691
-6.81388
-7.79603
-8.87942
-10.0282
-11.217
-12.428
-13.6464
-14.8605
-16.0589
-17.2318
-18.3677
-19.4541
-20.4801
-21.4339
-22.3062
-23.0884
-23.7741
-24.3558
-24.8286
-25.188
-25.4322
-25.5592
-25.5696
-25.4645
-25.2467
-24.9194
-24.4878
-23.9569
-23.3341
-22.6258
-21.8407
-20.9874
-20.0753
-19.1138
-18.1125
-17.0803
-16.0261
-14.9569
-13.8792
-12.7987
-11.7213
-10.6528
-9.59861
-8.5631
-7.55033
-6.56385
-5.60676
-4.68164
-3.79082
-2.93641
-2.12024
-1.34403
-0.609583
0.0813383
0.727287
1.32703
1.87992
2.38596
2.84638
3.26388
3.64365
3.99291
4.32107
4.6389
4.95776
5.28828
5.63988
6.01961
6.43216
6.8793
7.35989
7.87009
8.40457
8.95645
9.51836
10.0821
10.6393
11.1822
11.704
12.1989
12.6619
13.0894
13.4789
13.8286
14.1383
14.4081
14.6391
14.8327
14.9915
15.1189
15.2186
15.2948
15.3521
15.3948
15.4268
15.4508
15.468
15.4708
15.4603
15.3652
-8.55991
-8.56064
-8.56633
-8.57254
-8.58186
-8.59403
-8.60785
-8.62233
-8.6374
-8.65285
-8.66901
-8.68583
-8.70386
-8.72316
-8.74445
-8.768
-8.79477
-8.82507
-8.85975
-8.89891
-8.94295
-8.99133
-9.04379
-9.09928
-9.15736
-9.21716
-9.27801
-9.33841
-9.39753
-9.45421
-9.50751
-9.55521
-9.59506
-9.62418
-9.63962
-9.63774
-9.61523
-9.56826
-9.49359
-9.38829
-9.2512
-9.08199
-8.88185
-8.65257
-8.39751
-8.12096
-7.82968
-7.53082
-7.23111
-6.93632
-6.652
-6.38399
-6.13737
-5.91506
-5.71948
-5.55274
-5.41608
-5.30957
-5.23324
-5.18503
-5.16127
-5.15739
-5.1661
-5.17941
-5.19019
-5.19316
-5.18434
-5.15987
-5.11271
-5.03952
-4.94575
-4.84473
-4.75274
-4.69356
-4.6903
-4.76908
-4.97195
-5.35911
-5.96478
-6.76545
-7.71607
-8.77116
-9.89367
-11.0569
-12.2426
-13.437
-14.629
-15.8092
-16.9689
-18.0988
-19.1905
-20.2331
-21.2161
-22.1301
-22.9658
-23.7152
-24.3707
-24.9256
-25.3736
-25.7107
-25.9333
-26.0396
-26.0291
-25.9033
-25.6645
-25.3165
-24.8639
-24.3124
-23.6686
-22.9398
-22.1345
-21.2617
-20.3311
-19.3519
-18.3337
-17.2854
-16.2155
-15.1307
-14.0375
-12.9423
-11.8516
-10.7714
-9.70688
-8.66265
-7.64261
-6.65018
-5.68812
-4.75901
-3.86496
-3.00791
-2.18945
-1.4112
-0.674816
0.0180688
0.666012
1.26765
1.82218
2.32929
2.78986
3.2066
3.5846
3.93127
4.25649
4.5715
4.88806
5.21709
5.56814
5.94817
6.36156
6.8096
7.29077
7.80105
8.33507
8.8859
9.44623
10.0077
10.5623
11.1023
11.6212
12.1129
12.5728
12.9973
13.3839
13.731
14.0384
14.3064
14.536
14.7287
14.8871
15.0141
15.1135
15.1892
15.2454
15.2858
15.3138
15.3309
15.3377
15.3261
15.2963
15.1852
-8.5937
-8.59456
-8.60335
-8.61341
-8.62572
-8.64054
-8.65726
-8.67513
-8.69406
-8.71386
-8.73491
-8.75722
-8.78135
-8.80739
-8.83606
-8.86766
-8.90305
-8.94254
-8.98696
-9.03649
-9.09165
-9.15225
-9.2184
-9.28942
-9.36508
-9.44454
-9.52731
-9.61208
-9.69805
-9.78388
-9.86832
-9.94937
-10.0253
-10.0932
-10.1498
-10.1903
-10.2105
-10.2055
-10.1712
-10.1039
-10.0012
-9.86138
-9.68417
-9.47007
-9.22153
-8.94152
-8.63435
-8.3056
-7.96302
-7.61486
-7.26895
-6.93241
-6.61289
-6.3165
-6.04826
-5.81276
-5.6137
-5.45375
-5.33329
-5.24921
-5.19685
-5.17067
-5.1647
-5.17196
-5.18559
-5.20188
-5.21637
-5.22093
-5.20609
-5.16831
-5.11083
-5.04527
-4.9881
-4.96072
-4.99075
-5.12019
-5.4139
-5.92915
-6.66455
-7.57146
-8.59649
-9.69729
-10.8437
-12.0153
-13.1977
-14.3804
-15.5545
-16.7119
-17.8439
-18.9442
-20.0033
-21.0132
-21.9637
-22.8467
-23.6526
-24.3741
-25.003
-25.5332
-25.9576
-26.2722
-26.4724
-26.5566
-26.5235
-26.375
-26.113
-25.7416
-25.2651
-24.6898
-24.0222
-23.27
-22.4417
-21.5469
-20.5949
-19.5954
-18.5575
-17.4902
-16.4013
-15.2978
-14.1866
-13.0749
-11.9696
-10.8768
-9.80152
-8.74836
-7.72115
-6.72306
-5.75672
-4.8243
-3.92777
-3.06881
-2.24901
-1.46981
-0.732945
-0.039876
0.60784
1.20889
1.76229
2.26767
2.72567
3.13932
3.51375
3.85696
4.17922
4.49246
4.80855
5.13869
5.4919
5.87484
6.29093
6.741
7.22302
7.7332
8.26588
8.81454
9.37166
9.92919
10.4791
11.0145
11.5284
12.0153
12.4705
12.8907
13.2733
13.6169
13.9213
14.187
14.4147
14.6062
14.7637
14.8902
14.9892
15.0644
15.1194
15.1578
15.182
15.1931
15.1907
15.1667
15.121
14.9987
-8.62741
-8.62907
-8.6424
-8.6565
-8.67163
-8.68901
-8.7085
-8.72949
-8.75193
-8.77575
-8.80135
-8.82888
-8.85896
-8.89178
-8.92808
-8.96818
-9.01297
-9.06283
-9.11855
-9.18042
-9.24909
-9.32456
-9.40716
-9.49661
-9.59295
-9.6956
-9.80439
-9.91837
-10.0369
-10.1584
-10.2814
-10.4035
-10.5228
-10.6359
-10.7392
-10.8281
-10.8976
-10.9417
-10.9549
-10.9321
-10.8694
-10.7631
-10.6109
-10.4117
-10.1663
-9.87721
-9.54876
-9.18581
-8.79463
-8.38372
-7.9641
-7.54609
-7.13998
-6.75513
-6.39999
-6.08226
-5.80847
-5.58294
-5.40686
-5.27813
-5.19211
-5.14184
-5.12165
-5.12454
-5.14312
-5.17404
-5.21027
-5.24094
-5.25825
-5.25928
-5.24328
-5.21702
-5.19554
-5.20372
-5.28095
-5.48359
-5.88362
-6.51574
-7.35142
-8.33317
-9.40928
-10.5422
-11.7069
-12.8868
-14.0702
-15.2481
-16.4128
-17.5564
-18.6724
-19.7523
-20.7906
-21.7776
-22.7052
-23.5645
-24.3476
-25.0463
-25.6535
-26.1618
-26.5652
-26.8582
-27.037
-27.0988
-27.043
-26.8707
-26.5848
-26.1886
-25.6871
-25.0864
-24.3934
-23.616
-22.7633
-21.8443
-20.8687
-19.8463
-18.7859
-17.6964
-16.5852
-15.4602
-14.3293
-13.2001
-12.0794
-10.9733
-9.8868
-8.8243
-7.78953
-6.78555
-5.81483
-4.87931
-3.98074
-3.12069
-2.30051
-1.52138
-0.784823
-0.0924336
0.553949
1.15265
1.70245
2.20293
2.65517
3.06269
3.43141
3.77031
4.09045
4.40399
4.72281
5.05745
5.41597
5.80405
6.22423
6.67672
7.15951
7.66888
8.19931
8.74445
9.29673
9.84846
10.3922
10.9212
11.4286
11.9091
12.3582
12.7729
13.1504
13.4898
13.7906
14.0534
14.2789
14.4688
14.6251
14.7509
14.8493
14.9238
14.9776
15.0139
15.0345
15.04
15.0294
14.995
14.9366
14.8067
-8.66195
-8.66475
-8.68268
-8.7001
-8.71741
-8.73686
-8.75865
-8.78224
-8.80764
-8.83488
-8.86451
-8.8968
-8.93241
-8.97163
-9.01527
-9.06379
-9.11813
-9.17874
-9.24657
-9.322
-9.4058
-9.4982
-9.59975
-9.71037
-9.83039
-9.95947
-10.0976
-10.2442
-10.3988
-10.5601
-10.7267
-10.8963
-11.0661
-11.2319
-11.3896
-11.5342
-11.6599
-11.7595
-11.8263
-11.8535
-11.8353
-11.7663
-11.6419
-11.459
-11.2165
-10.915
-10.5582
-10.1518
-9.70309
-9.22132
-8.71858
-8.20868
-7.70573
-7.22237
-6.7705
-6.36121
-6.00348
-5.70312
-5.46254
-5.28149
-5.15676
-5.08019
-5.04446
-5.04275
-5.06718
-5.11162
-5.1654
-5.21635
-5.25871
-5.28918
-5.30471
-5.31066
-5.32437
-5.37704
-5.51661
-5.8108
-6.3218
-7.05559
-7.96929
-9.00743
-10.1232
-11.2837
-12.4669
-13.6587
-14.8488
-16.0291
-17.1924
-18.3319
-19.4397
-20.5104
-21.5363
-22.5095
-23.4221
-24.2652
-25.0318
-25.7133
-26.3031
-26.7936
-27.179
-27.4529
-27.612
-27.6528
-27.5751
-27.38
-27.0706
-26.6498
-26.1235
-25.4972
-24.7784
-23.9751
-23.0965
-22.1517
-21.1504
-20.102
-19.0158
-17.9004
-16.7644
-15.6165
-14.465
-13.3178
-12.1816
-11.0623
-9.96478
-8.89341
-7.8515
-6.84185
-5.86666
-4.92782
-4.02683
-3.16529
-2.34443
-1.56558
-0.830278
-0.140498
0.501865
1.09499
1.63781
2.13013
2.57394
2.97352
3.33621
3.67199
3.9927
4.31009
4.63545
4.9777
5.34387
5.73828
6.16299
6.61776
7.10089
7.60851
8.13563
8.67572
9.22157
9.76597
10.3022
10.8231
11.3226
11.7952
12.2372
12.6452
13.0169
13.3513
13.6482
13.9076
14.1305
14.3183
14.4733
14.5981
14.6958
14.7694
14.8221
14.8563
14.8736
14.8741
14.8563
14.8133
14.7447
14.6096
-8.69787
-8.70126
-8.72292
-8.74274
-8.76136
-8.78211
-8.80552
-8.83104
-8.8587
-8.88865
-8.92156
-8.95784
-8.99821
-9.04309
-9.09341
-9.14978
-9.21321
-9.28435
-9.36421
-9.45343
-9.55296
-9.66323
-9.78502
-9.91854
-10.0643
-10.2221
-10.3923
-10.5743
-10.7679
-10.9717
-11.1848
-11.4047
-11.6286
-11.8523
-12.0707
-12.2776
-12.4658
-12.627
-12.7529
-12.8349
-12.8654
-12.8369
-12.7428
-12.5774
-12.3374
-12.022
-11.6336
-11.1779
-10.6636
-10.1022
-9.50787
-8.89753
-8.28929
-7.70037
-7.14695
-6.64322
-6.19969
-5.82308
-5.517
-5.28255
-5.11677
-5.0115
-4.9581
-4.94767
-4.97073
-5.01757
-5.0749
-5.13105
-5.18155
-5.22365
-5.25713
-5.28867
-5.33839
-5.44448
-5.66336
-6.06192
-6.67876
-7.49946
-8.47839
-9.56472
-10.7167
-11.905
-13.1101
-14.3191
-15.5226
-16.713
-17.8832
-19.0262
-20.1357
-21.2045
-22.2267
-23.1945
-24.099
-24.9332
-25.6889
-26.359
-26.936
-27.4131
-27.7836
-28.0419
-28.1835
-28.2062
-28.1087
-27.8928
-27.5614
-27.1176
-26.5669
-25.9155
-25.1703
-24.34
-23.4336
-22.4605
-21.4302
-20.3525
-19.2373
-18.0945
-16.9332
-15.7627
-14.5912
-13.4263
-12.2747
-11.1424
-10.0341
-8.95374
-7.9045
-6.88908
-5.90964
-4.9679
-4.06522
-3.20312
-2.38288
-1.60601
-0.874258
-0.189802
0.445317
1.02955
1.56221
2.04404
2.47812
2.8702
3.22904
3.56543
3.89094
4.21636
4.55136
4.90339
5.27829
5.67939
6.10837
6.56511
7.04782
7.55286
8.07544
8.6091
9.14713
9.68314
10.2105
10.722
11.2122
11.6761
12.1098
12.5102
12.8754
13.2045
13.4968
13.7524
13.9724
14.1581
14.3116
14.4354
14.5323
14.6052
14.6568
14.6891
14.7034
14.6993
14.6754
14.625
14.5483
14.4094
-8.73474
-8.73818
-8.7622
-8.78307
-8.80188
-8.82298
-8.84713
-8.87367
-8.90266
-8.93441
-8.96966
-9.00898
-9.05314
-9.10271
-9.15872
-9.22194
-9.29351
-9.37427
-9.46543
-9.56783
-9.68261
-9.81051
-9.95256
-10.1092
-10.2812
-10.4686
-10.6718
-10.8905
-11.1244
-11.3725
-11.6337
-11.9056
-12.1853
-12.4682
-12.7491
-13.0206
-13.2745
-13.5009
-13.6896
-13.8299
-13.9121
-13.9264
-13.8642
-13.7169
-13.4791
-13.1481
-12.7254
-12.2168
-11.6329
-10.9877
-10.2985
-9.58496
-8.8687
-8.17121
-7.51284
-6.91155
-6.38116
-5.93055
-5.56272
-5.27631
-5.06744
-4.93058
-4.85447
-4.82425
-4.82854
-4.85664
-4.89742
-4.94009
-4.98098
-5.02093
-5.06235
-5.11597
-5.20879
-5.38338
-5.69656
-6.20217
-6.91625
-7.81459
-8.85294
-9.98538
-11.1745
-12.394
-13.6261
-14.8586
-16.0825
-17.2903
-18.475
-19.63
-20.748
-21.8238
-22.8498
-23.819
-24.7228
-25.5542
-26.3051
-26.9692
-27.5382
-28.0061
-28.3659
-28.6119
-28.7395
-28.747
-28.6325
-28.3982
-28.0465
-27.5807
-27.0058
-26.3285
-25.5554
-24.6957
-23.7583
-22.7536
-21.6917
-20.5836
-19.4397
-18.2703
-17.0851
-15.8932
-14.7028
-13.5213
-12.3554
-11.2107
-10.092
-9.00311
-7.94728
-6.92702
-5.94442
-5.00094
-4.09807
-3.23716
-2.41985
-1.64783
-0.923006
-0.247345
0.377151
0.949549
1.46993
1.94063
2.36617
2.75398
3.11348
3.45542
3.78994
4.12651
4.47296
4.83577
5.21947
5.627
6.05978
6.51799
6.99943
7.50105
8.01781
8.54384
9.07311
9.59977
10.1168
10.618
11.098
11.5522
11.9768
12.3692
12.7276
13.0509
13.3382
13.5899
13.8068
13.9905
14.1426
14.2655
14.3617
14.434
14.4845
14.5151
14.5266
14.5184
14.4888
14.4321
14.3481
14.2063
-8.77148
-8.77437
-8.79904
-8.81943
-8.83724
-8.85761
-8.88138
-8.90788
-8.93721
-8.96976
-9.00635
-9.04762
-9.09444
-9.14753
-9.20799
-9.27675
-9.3551
-9.44411
-9.54515
-9.65935
-9.78812
-9.93246
-10.0936
-10.2723
-10.4694
-10.6853
-10.9205
-11.1747
-11.448
-11.7393
-12.0475
-12.3703
-12.7046
-13.0458
-13.388
-13.7231
-14.0419
-14.333
-14.5842
-14.7827
-14.9162
-14.9733
-14.9431
-14.8145
-14.5792
-14.2324
-13.7743
-13.2104
-12.5527
-11.8186
-11.03
-10.2111
-9.38762
-8.5844
-7.82468
-7.12884
-6.51291
-5.98709
-5.55473
-5.21324
-4.95675
-4.77855
-4.66367
-4.59714
-4.56586
-4.5575
-4.56403
-4.57805
-4.59943
-4.63255
-4.68307
-4.76792
-4.91959
-5.17954
-5.59664
-6.20671
-7.01075
-7.9811
-9.07646
-10.2557
-11.4852
-12.7407
-14.0056
-15.2683
-16.5195
-17.7519
-18.9585
-20.1325
-21.2673
-22.3562
-23.3934
-24.3704
-25.2799
-26.1143
-26.8666
-27.5294
-28.0958
-28.5588
-28.9122
-29.1497
-29.2671
-29.2617
-29.1327
-28.8812
-28.5095
-28.0208
-27.4199
-26.7134
-25.91
-25.0189
-24.0499
-23.0143
-21.9232
-20.7876
-19.6182
-18.4253
-17.2185
-16.0071
-14.7993
-13.6024
-12.4232
-11.2672
-10.1391
-9.04295
-7.98176
-6.95803
-5.97377
-5.03044
-4.12958
-3.2726
-2.46138
-1.69779
-0.983523
-0.320117
0.291123
0.850181
1.35864
1.82039
2.24151
2.63013
2.99547
3.34712
3.69372
4.04312
4.40193
4.77552
5.16776
5.58128
6.01755
6.47654
6.95606
7.45323
7.96322
8.48087
9.00084
9.51707
10.0229
10.513
10.9821
11.4261
11.8413
12.2256
12.5769
12.8941
13.1764
13.4243
13.6384
13.82
13.9706
14.0927
14.1884
14.2601
14.3097
14.3387
14.3476
14.3357
14.3008
14.2383
14.1475
14.0029
-8.80638
-8.8081
-8.83168
-8.85022
-8.86583
-8.88421
-8.90644
-8.93187
-8.96049
-8.99275
-9.02952
-9.07156
-9.1198
-9.17504
-9.23847
-9.31117
-9.39454
-9.48987
-9.59882
-9.7228
-9.86354
-10.0223
-10.2007
-10.3993
-10.6193
-10.8612
-11.1255
-11.4121
-11.7211
-12.0515
-12.4023
-12.7712
-13.1553
-13.5495
-13.9477
-14.3412
-14.7198
-15.0703
-15.3794
-15.6318
-15.8127
-15.9088
-15.9073
-15.7947
-15.5601
-15.1962
-14.7013
-14.0802
-13.3459
-12.5184
-11.6244
-10.6945
-9.75963
-8.84913
-7.9891
-7.20083
-6.50048
-5.89786
-5.39685
-4.99479
-4.68377
-4.45232
-4.28571
-4.17062
-4.09202
-4.038
-4.00291
-3.98439
-3.98804
-4.02309
-4.09926
-4.23808
-4.4701
-4.83057
-5.35524
-6.06383
-6.9506
-7.98862
-9.14046
-10.369
-11.6435
-12.941
-14.2454
-15.5449
-16.8305
-18.0942
-19.33
-20.5295
-21.6874
-22.7966
-23.8506
-24.8414
-25.7621
-26.6052
-27.364
-28.0306
-28.5987
-29.0609
-29.4114
-29.6434
-29.7528
-29.7356
-29.5913
-29.3206
-28.9268
-28.4131
-27.7851
-27.0499
-26.2176
-25.2978
-24.3014
-23.2395
-22.1234
-20.9643
-19.7729
-18.5594
-17.3337
-16.1049
-14.8815
-13.671
-12.48
-11.3142
-10.1785
-9.07673
-8.01194
-6.98673
-6.00304
-5.06253
-4.16664
-3.31699
-2.51523
-1.76319
-1.06201
-0.41257
0.185094
0.732157
1.23186
1.68918
2.11111
2.5054
2.88061
3.24463
3.60485
3.96764
4.33882
4.7227
5.123
5.54201
5.98129
6.44017
6.91699
7.4088
7.91139
8.42014
8.93009
9.43492
9.92916
10.4076
10.8657
11.2993
11.7054
12.0812
12.4254
12.7363
13.0137
13.2576
13.4687
13.648
13.797
13.9179
14.0128
14.0838
14.1326
14.1601
14.1669
14.1519
14.1129
14.0458
13.9497
13.8034
-8.83861
-8.83865
-8.85931
-8.87444
-8.8863
-8.90118
-8.92043
-8.94342
-8.97008
-9.00089
-9.03674
-9.07845
-9.12693
-9.18304
-9.24804
-9.32308
-9.40962
-9.50918
-9.62371
-9.75515
-9.9056
-10.0766
-10.2698
-10.4861
-10.7263
-10.991
-11.2808
-11.5955
-11.9354
-12.2994
-12.6868
-13.0952
-13.522
-13.9618
-14.4083
-14.852
-15.2816
-15.6829
-16.041
-16.3379
-16.5569
-16.6824
-16.7002
-16.5945
-16.352
-15.9628
-15.4244
-14.7408
-13.9258
-13.0015
-11.9984
-10.9516
-9.89757
-8.87105
-7.9024
-7.01515
-6.22543
-5.54214
-4.96817
-4.50009
-4.12911
-3.84134
-3.62225
-3.4579
-3.33433
-3.24241
-3.17829
-3.14292
-3.14599
-3.20174
-3.32599
-3.5397
-3.86608
-4.33348
-4.96508
-5.76876
-6.73533
-7.84026
-9.05156
-10.3343
-11.66
-13.0058
-14.3568
-15.6999
-17.0271
-18.3298
-19.6009
-20.8343
-22.0218
-23.1577
-24.2345
-25.2452
-26.1824
-27.0393
-27.8087
-28.4832
-29.0554
-29.5182
-29.8646
-30.0894
-30.1876
-30.1562
-29.9939