/*--------------------------------*- C++ -*----------------------------------*\
| =========                 |                                                 |
| \\      /  F ield         | OpenFOAM: The Open Source CFD Toolbox           |
|  \\    /   O peration     | Version:  2406                                  |
|   \\  /    A nd           | Website:  www.openfoam.com                      |
|    \\/     M anipulation  |                                                 |
\*---------------------------------------------------------------------------*/
FoamFile
{
    version     2.0;
    format      ascii;
    arch        "LSB;label=32;scalar=64";
    class       surfaceScalarField;
    location    "100";
    object      phi;
}
// * * * * * * * * * * * * * * * * * * * * * * * * * * * * * * * * * * * * * //

dimensions      [0 3 -1 0 0 0 0];

oriented        oriented;

internalField   nonuniform List<scalar> 
24170
(
3.05614e-06
1.32262e-07
2.91724e-06
1.38856e-07
2.79109e-06
1.26099e-07
2.67761e-06
1.13427e-07
2.57609e-06
1.01466e-07
2.48667e-06
8.93577e-08
2.40896e-06
7.76585e-08
2.34195e-06
6.69528e-08
2.28426e-06
5.76461e-08
2.23432e-06
4.98703e-08
2.19108e-06
4.31912e-08
2.15379e-06
3.72277e-08
2.12198e-06
3.17476e-08
2.09539e-06
2.65315e-08
2.07403e-06
2.12904e-08
2.05866e-06
1.53068e-08
2.05076e-06
7.83895e-09
-8.19434e-09
2.05888e-06
3.4773e-06
7.22009e-08
3.50817e-06
1.07955e-07
3.52405e-06
1.1017e-07
3.52745e-06
1.09971e-07
3.52114e-06
1.07732e-07
3.50784e-06
1.02604e-07
3.48976e-06
9.56922e-08
3.46849e-06
8.81747e-08
3.44544e-06
8.06449e-08
3.42187e-06
7.33812e-08
3.39853e-06
6.64865e-08
3.37582e-06
5.98831e-08
3.35406e-06
5.34535e-08
3.33352e-06
4.70156e-08
3.31448e-06
4.02731e-08
3.29722e-06
3.25144e-08
3.28229e-06
2.27106e-08
7.87118e-09
3.26616e-06
3.68209e-06
5.26272e-08
3.69883e-06
9.11866e-08
3.71329e-06
9.56723e-08
3.72585e-06
9.73721e-08
3.73609e-06
9.74594e-08
3.74396e-06
9.46944e-08
3.74963e-06
8.99893e-08
3.75328e-06
8.44814e-08
3.7552e-06
7.86897e-08
3.75571e-06
7.28253e-08
3.75516e-06
6.69957e-08
3.75382e-06
6.11843e-08
3.75191e-06
5.53146e-08
3.74966e-06
4.92282e-08
3.74723e-06
4.26605e-08
3.74466e-06
3.50375e-08
3.74143e-06
2.58924e-08
1.36839e-08
3.73557e-06
3.93653e-06
4.14822e-08
3.94814e-06
7.95466e-08
3.95772e-06
8.60704e-08
3.96637e-06
8.86859e-08
3.97424e-06
8.95601e-08
3.98123e-06
8.76627e-08
3.9874e-06
8.37872e-08
3.99282e-06
7.90296e-08
3.99756e-06
7.39151e-08
4.0017e-06
6.86454e-08
4.00536e-06
6.32968e-08
4.00863e-06
5.78721e-08
4.0116e-06
5.22994e-08
4.01434e-06
4.64438e-08
4.01688e-06
4.0085e-08
4.01902e-06
3.28476e-08
4.02033e-06
2.45396e-08
1.45319e-08
4.01944e-06
4.21511e-06
3.34981e-08
4.2252e-06
6.94303e-08
4.23324e-06
7.80121e-08
4.24047e-06
8.14224e-08
4.24723e-06
8.27745e-08
4.25343e-06
8.14382e-08
4.25907e-06
7.81259e-08
4.26422e-06
7.38505e-08
4.26896e-06
6.91463e-08
4.27336e-06
6.42149e-08
4.27749e-06
5.91392e-08
4.2814e-06
5.39305e-08
4.28514e-06
4.85364e-08
4.2887e-06
4.28462e-08
4.29205e-06
3.67043e-08
4.29497e-06
2.98954e-08
4.29708e-06
2.2395e-08
1.40705e-08
4.2975e-06
4.51524e-06
2.73399e-08
4.52433e-06
6.03168e-08
4.53177e-06
7.0542e-08
4.53854e-06
7.4633e-08
4.54493e-06
7.63518e-08
4.55087e-06
7.54731e-08
4.55633e-06
7.26363e-08
4.56139e-06
6.87689e-08
4.5661e-06
6.43989e-08
4.57055e-06
5.97346e-08
4.57479e-06
5.4874e-08
4.57885e-06
4.98406e-08
4.58275e-06
4.46078e-08
4.58646e-06
3.9097e-08
4.58992e-06
3.3219e-08
4.5929e-06
2.68785e-08
4.5951e-06
2.01539e-08
1.3134e-08
4.596e-06
4.83761e-06
2.24489e-08
4.84577e-06
5.21351e-08
4.85287e-06
6.34161e-08
4.85943e-06
6.80473e-08
4.86571e-06
7.00462e-08
4.87161e-06
6.95541e-08
4.87708e-06
6.71397e-08
4.88218e-06
6.36443e-08
4.88697e-06
5.95815e-08
4.89152e-06
5.51671e-08
4.89585e-06
5.05127e-08
4.90001e-06
4.56585e-08
4.90399e-06
4.06051e-08
4.90775e-06
3.53107e-08
4.9112e-06
2.97436e-08
4.91415e-06
2.38936e-08
4.91638e-06
1.789e-08
1.19104e-08
4.91758e-06
5.18352e-06
1.85002e-08
5.19079e-06
4.48404e-08
5.1976e-06
5.65814e-08
5.20402e-06
6.15985e-08
5.21025e-06
6.37885e-08
5.21617e-06
6.36077e-08
5.22172e-06
6.1564e-08
5.22693e-06
5.8409e-08
5.23185e-06
5.46366e-08
5.23652e-06
5.04686e-08
5.24097e-06
4.6028e-08
5.24523e-06
4.13724e-08
5.24928e-06
3.65287e-08
5.25307e-06
3.14904e-08
5.25652e-06
2.62713e-08
5.25946e-06
2.09161e-08
5.26175e-06
1.55714e-08
1.0425e-08
5.2632e-06
5.55455e-06
1.52783e-08
5.56099e-06
3.8378e-08
5.5675e-06
5.00477e-08
5.57379e-06
5.52851e-08
5.57997e-06
5.7584e-08
5.58591e-06
5.76388e-08
5.59154e-06
5.59132e-08
5.59686e-06
5.30667e-08
5.6019e-06
4.95671e-08
5.60671e-06
4.56442e-08
5.61128e-06
4.14272e-08
5.61564e-06
3.69924e-08
5.61975e-06
3.23875e-08
5.62358e-06
2.76383e-08
5.62703e-06
2.2789e-08
5.63e-06
1.79169e-08
5.63238e-06
1.31599e-08
8.70704e-09
5.63408e-06
5.95242e-06
1.26276e-08
5.95811e-06
3.26569e-08
5.96431e-06
4.38246e-08
5.97046e-06
4.91081e-08
5.97657e-06
5.14377e-08
5.98253e-06
5.16552e-08
5.98822e-06
5.01962e-08
5.99363e-06
4.76279e-08
5.99878e-06
4.43855e-08
6.00369e-06
4.07051e-08
6.00837e-06
3.67227e-08
6.0128e-06
3.25286e-08
6.01698e-06
2.81876e-08
6.02084e-06
2.37503e-08
6.02432e-06
1.92797e-08
6.02733e-06
1.48675e-08
6.02983e-06
1.06349e-08
6.74513e-09
6.03177e-06
6.37901e-06
1.04266e-08
6.38404e-06
2.75956e-08
6.38991e-06
3.79302e-08
6.39591e-06
4.30819e-08
6.40195e-06
4.5368e-08
6.4079e-06
4.56784e-08
6.41364e-06
4.4434e-08
6.41912e-06
4.2114e-08
6.42436e-06
3.91166e-08
6.42936e-06
3.56782e-08
6.43412e-06
3.19402e-08
6.43862e-06
2.80015e-08
6.44283e-06
2.39438e-08
6.44672e-06
1.98293e-08
6.45023e-06
1.57349e-08
6.45332e-06
1.1751e-08
6.45595e-06
7.97365e-09
4.56156e-09
6.45811e-06
5.74243e-06
8.83058e-09
5.74623e-06
2.37626e-08
5.75093e-06
3.31964e-08
5.75588e-06
3.81019e-08
5.76092e-06
4.03019e-08
5.76593e-06
4.06427e-08
5.7708e-06
3.95362e-08
5.77548e-06
3.74023e-08
5.77997e-06
3.46035e-08
5.78425e-06
3.13695e-08
5.78832e-06
2.7843e-08
5.79216e-06
2.41373e-08
5.79576e-06
2.03244e-08
5.79907e-06
1.64905e-08
5.80208e-06
1.27013e-08
5.80475e-06
9.05423e-09
5.80708e-06
5.62227e-09
2.55286e-09
5.80907e-06
6.99973e-06
7.24447e-09
7.00367e-06
1.98025e-08
7.00874e-06
2.80907e-08
7.01424e-06
3.25743e-08
7.01992e-06
3.45926e-08
7.02563e-06
3.49109e-08
7.03122e-06
3.39172e-08
7.03662e-06
3.19702e-08
7.04181e-06
2.93866e-08
7.04676e-06
2.63847e-08
7.05147e-06
2.31164e-08
7.0559e-06
1.96763e-08
7.06005e-06
1.61626e-08
7.06387e-06
1.26418e-08
7.06735e-06
9.1988e-09
7.07048e-06
5.9044e-09
7.07326e-06
2.82387e-09
8.91077e-11
7.07571e-06
8.5324e-06
5.68215e-09
8.5364e-06
1.57743e-08
8.54179e-06
2.26743e-08
8.5478e-06
2.65288e-08
8.55412e-06
2.82477e-08
8.56054e-06
2.8467e-08
8.56688e-06
2.75453e-08
8.57305e-06
2.57723e-08
8.57899e-06
2.34172e-08
8.58467e-06
2.06806e-08
8.59007e-06
1.76986e-08
8.59515e-06
1.45764e-08
8.5999e-06
1.1396e-08
8.60429e-06
8.233e-09
8.60831e-06
5.15601e-09
8.61197e-06
2.23284e-09
8.61527e-06
-5.02089e-10
-2.90547e-09
8.61826e-06
1.04007e-05
4.14631e-09
1.04048e-05
1.1731e-08
1.04104e-05
1.70087e-08
1.04169e-05
2.00115e-08
1.04238e-05
2.12853e-08
1.04309e-05
2.13177e-08
1.04381e-05
2.04047e-08
1.0445e-05
1.87837e-08
1.04518e-05
1.66603e-08
1.04582e-05
1.42083e-08
1.04643e-05
1.15481e-08
1.04701e-05
8.77858e-09
1.04755e-05
5.96807e-09
1.04805e-05
3.19231e-09
1.04852e-05
5.0088e-10
1.04894e-05
-2.04572e-09
1.04934e-05
-4.43588e-09
-6.52581e-09
1.04969e-05
1.26783e-05
2.63783e-09
1.26823e-05
7.67433e-09
1.26882e-05
1.11422e-08
1.26951e-05
1.3061e-08
1.27026e-05
1.37322e-08
1.27104e-05
1.3468e-08
1.27183e-05
1.24965e-08
1.27261e-05
1.09849e-08
1.27336e-05
9.08854e-09
1.27409e-05
6.93241e-09
1.27478e-05
4.62237e-09
1.27543e-05
2.22984e-09
1.27604e-05
-1.7458e-10
1.27662e-05
-2.54538e-09
1.27715e-05
-4.83042e-09
1.27764e-05
-6.99927e-09
1.2781e-05
-9.03744e-09
-1.08194e-08
1.27852e-05
1.54547e-05
1.13229e-09
1.54588e-05
3.56019e-09
1.54648e-05
5.04654e-09
1.54722e-05
5.67105e-09
1.54803e-05
5.57109e-09
1.54889e-05
4.90289e-09
1.54975e-05
3.79649e-09
1.55061e-05
2.35452e-09
1.55145e-05
6.6909e-10
1.55226e-05
-1.17816e-09
1.55303e-05
-3.11989e-09
1.55376e-05
-5.10006e-09
1.55445e-05
-7.07576e-09
1.55509e-05
-9.00923e-09
1.5557e-05
-1.08728e-08
1.55626e-05
-1.26392e-08
1.55678e-05
-1.4312e-08
-1.5765e-08
1.55727e-05
1.88392e-05
-4.19048e-10
1.88435e-05
-7.7734e-10
1.885e-05
-1.46156e-09
1.88579e-05
-2.32233e-09
1.88668e-05
-3.33935e-09
1.88762e-05
-4.50438e-09
1.88857e-05
-5.8e-09
1.88953e-05
-7.19689e-09
1.89046e-05
-8.66874e-09
1.89135e-05
-1.01841e-08
1.89221e-05
-1.17198e-08
1.89302e-05
-1.32475e-08
1.89379e-05
-1.47499e-08
1.8945e-05
-1.62044e-08
1.89517e-05
-1.76009e-08
1.8958e-05
-1.8922e-08
1.89638e-05
-2.01771e-08
-2.12551e-08
1.89693e-05
2.29651e-05
-2.15834e-09
2.297e-05
-5.75249e-09
2.29774e-05
-8.90977e-09
2.29865e-05
-1.14386e-08
2.29966e-05
-1.34642e-08
2.30072e-05
-1.51609e-08
2.3018e-05
-1.66373e-08
2.30287e-05
-1.79507e-08
2.30391e-05
-1.9146e-08
2.30492e-05
-2.02546e-08
2.30587e-05
-2.12997e-08
2.30677e-05
-2.22889e-08
2.30761e-05
-2.32279e-08
2.3084e-05
-2.41153e-08
2.30913e-05
-2.4953e-08
2.30981e-05
-2.57386e-08
2.31044e-05
-2.64813e-08
-2.70986e-08
2.31102e-05
1.68121e-05
-3.58231e-09
1.68161e-05
-9.76676e-09
1.68219e-05
-1.47551e-08
1.68288e-05
-1.83846e-08
1.68363e-05
-2.10029e-08
1.68441e-05
-2.2971e-08
1.68519e-05
-2.44756e-08
1.68595e-05
-2.56408e-08
1.68669e-05
-2.65548e-08
1.68739e-05
-2.73109e-08
1.68806e-05
-2.79461e-08
1.68867e-05
-2.85084e-08
1.68925e-05
-2.89997e-08
1.68978e-05
-2.94514e-08
1.69027e-05
-2.98513e-08
1.69071e-05
-3.02245e-08
1.69112e-05
-3.05587e-08
-3.08093e-08
1.69149e-05
1.46361e-05
-5.10288e-09
1.46402e-05
-1.39584e-08
1.4646e-05
-2.05957e-08
1.46526e-05
-2.5031e-08
1.46596e-05
-2.8008e-08
1.46667e-05
-3.00867e-08
1.46737e-05
-3.15064e-08
1.46804e-05
-3.2429e-08
1.46869e-05
-3.30187e-08
1.46929e-05
-3.33895e-08
1.46985e-05
-3.36222e-08
1.47038e-05
-3.37573e-08
1.47086e-05
-3.3833e-08
1.4713e-05
-3.38636e-08
1.4717e-05
-3.38696e-08
1.47206e-05
-3.38499e-08
1.47238e-05
-3.38224e-08
-3.37238e-08
1.47267e-05
1.27419e-05
-6.88143e-09
1.27465e-05
-1.86372e-08
1.27526e-05
-2.66964e-08
1.27591e-05
-3.15837e-08
1.27658e-05
-3.46949e-08
1.27724e-05
-3.67427e-08
1.27788e-05
-3.79604e-08
1.27849e-05
-3.85632e-08
1.27906e-05
-3.87764e-08
1.2796e-05
-3.875e-08
1.28009e-05
-3.85721e-08
1.28054e-05
-3.82948e-08
1.28095e-05
-3.79675e-08
1.28132e-05
-3.76069e-08
1.28166e-05
-3.7243e-08
1.28196e-05
-3.6869e-08
1.28222e-05
-3.65074e-08
-3.61021e-08
1.28246e-05
1.10932e-05
-9.11248e-09
1.10986e-05
-2.40806e-08
1.1105e-05
-3.31643e-08
1.11115e-05
-3.81102e-08
1.11179e-05
-4.11639e-08
1.11242e-05
-4.30594e-08
1.11302e-05
-4.39667e-08
1.11358e-05
-4.41823e-08
1.1141e-05
-4.39918e-08
1.11458e-05
-4.3559e-08
1.11501e-05
-4.29734e-08
1.11541e-05
-4.23019e-08
1.11577e-05
-4.15858e-08
1.11609e-05
-4.08672e-08
1.11638e-05
-4.01513e-08
1.11664e-05
-3.94624e-08
1.11687e-05
-3.8789e-08
-3.81114e-08
1.11706e-05
9.65815e-06
-1.2052e-08
9.66457e-06
-3.05306e-08
9.67138e-06
-3.99932e-08
9.67785e-06
-4.46134e-08
9.68415e-06
-4.74852e-08
9.69018e-06
-4.91125e-08
9.69581e-06
-4.96197e-08
9.701e-06
-4.94059e-08
9.70579e-06
-4.87985e-08
9.71017e-06
-4.79611e-08
9.71415e-06
-4.69774e-08
9.71774e-06
-4.59226e-08
9.72097e-06
-4.48442e-08
9.72386e-06
-4.37809e-08
9.72644e-06
-4.27501e-08
9.72872e-06
-4.17623e-08
9.73073e-06
-4.0817e-08
-3.98876e-08
9.73249e-06
8.40931e-06
-1.60137e-08
8.41698e-06
-3.82227e-08
8.42408e-06
-4.71176e-08
8.43056e-06
-5.11172e-08
8.4368e-06
-5.37465e-08
8.44268e-06
-5.50171e-08
8.4481e-06
-5.5057e-08
8.45306e-06
-5.43872e-08
8.45759e-06
-5.33546e-08
8.46172e-06
-5.21052e-08
8.46545e-06
-5.07264e-08
8.4688e-06
-4.92946e-08
8.4718e-06
-4.78639e-08
8.47447e-06
-4.6472e-08
8.47684e-06
-4.51395e-08
8.47893e-06
-4.38749e-08
8.48078e-06
-4.26815e-08
-4.15111e-08
8.48239e-06
7.32268e-06
-2.14134e-08
7.33183e-06
-4.73909e-08
7.33936e-06
-5.46733e-08
7.34607e-06
-5.78519e-08
7.35248e-06
-6.01732e-08
7.35843e-06
-6.09855e-08
7.36385e-06
-6.05002e-08
7.36879e-06
-5.93443e-08
7.37328e-06
-5.7863e-08
7.37734e-06
-5.61848e-08
7.38099e-06
-5.43916e-08
7.38425e-06
-5.25716e-08
7.38714e-06
-5.07763e-08
7.3897e-06
-4.90481e-08
7.39196e-06
-4.74105e-08
7.39394e-06
-4.5875e-08
7.39569e-06
-4.44433e-08
-4.30674e-08
7.39722e-06
6.37805e-06
-2.9406e-08
6.389e-06
-5.83579e-08
6.3977e-06
-6.33936e-08
6.40549e-06
-6.56652e-08
6.41275e-06
-6.74446e-08
6.41932e-06
-6.75756e-08
6.42523e-06
-6.64288e-08
6.43055e-06
-6.46855e-08
6.43534e-06
-6.2665e-08
6.43961e-06
-6.04675e-08
6.44338e-06
-5.81852e-08
6.44669e-06
-5.5892e-08
6.44956e-06
-5.36661e-08
6.45203e-06
-5.15318e-08
6.45413e-06
-4.95234e-08
6.45592e-06
-4.76768e-08
6.45743e-06
-4.59708e-08
-4.43605e-08
6.4587e-06
5.56072e-06
-4.46633e-08
5.5758e-06
-7.3467e-08
5.58833e-06
-7.59463e-08
5.59966e-06
-7.70211e-08
5.60968e-06
-7.74957e-08
5.61833e-06
-7.6242e-08
5.62572e-06
-7.38373e-08
5.63197e-06
-7.09523e-08
5.63715e-06
-6.78642e-08
5.64133e-06
-6.4671e-08
5.64458e-06
-6.14541e-08
5.64698e-06
-5.83013e-08
5.6486e-06
-5.52997e-08
5.64952e-06
-5.24714e-08
5.64983e-06
-4.98476e-08
5.64966e-06
-4.7509e-08
5.6491e-06
-4.54319e-08
-4.37876e-08
5.6485e-06
4.87549e-06
-9.25512e-08
4.90608e-06
-1.04089e-07
4.92713e-06
-9.70232e-08
4.94098e-06
-9.091e-08
4.94881e-06
-8.53517e-08
4.95167e-06
-7.91285e-08
4.95049e-06
-7.26833e-08
4.94604e-06
-6.65238e-08
4.93895e-06
-6.08002e-08
4.92978e-06
-5.55209e-08
4.91897e-06
-5.06698e-08
4.90691e-06
-4.6257e-08
4.89393e-06
-4.23386e-08
4.88043e-06
-3.89857e-08
4.86674e-06
-3.6176e-08
4.85303e-06
-3.38152e-08
4.83943e-06
-3.18432e-08
-3.06845e-08
4.8263e-06
4.11012e-06
4.00603e-06
3.90901e-06
3.81809e-06
3.73274e-06
3.65361e-06
3.58092e-06
3.51439e-06
3.45359e-06
3.39807e-06
3.34739e-06
3.30113e-06
3.25879e-06
3.2198e-06
3.18362e-06
3.1498e-06
3.11795e-06
3.08727e-06
-3.47927e-08
3.59521e-08
-7.343e-08
4.03124e-08
-1.31376e-07
5.91173e-08
-1.96549e-07
6.62746e-08
-2.63629e-07
6.78806e-08
-3.2877e-07
6.60428e-08
-3.90708e-07
6.25437e-08
-4.4845e-07
5.85572e-08
-5.02799e-07
5.48562e-08
-5.53902e-07
5.18625e-08
-6.03421e-07
4.99266e-08
-6.52154e-07
4.94322e-08
-7.02198e-07
5.03446e-08
-7.54255e-07
5.26799e-08
-8.10614e-07
5.65325e-08
-8.71587e-07
6.15227e-08
-9.38932e-07
6.7372e-08
-1.01199e-06
7.35701e-08
-1.0915e-06
7.94989e-08
-1.17555e-06
8.45854e-08
-1.26395e-06
8.83574e-08
-1.3539e-06
9.05624e-08
-1.44489e-06
9.10048e-08
-1.53391e-06
8.97245e-08
-1.62062e-06
8.67516e-08
-1.70208e-06
8.21988e-08
-1.77831e-06
7.62098e-08
-1.8468e-06
6.92287e-08
-1.90828e-06
6.1441e-08
-1.96062e-06
5.30325e-08
-2.00493e-06
4.40947e-08
-2.03934e-06
3.5009e-08
-2.06548e-06
2.58118e-08
-2.08173e-06
1.67058e-08
-2.09041e-06
8.09251e-09
-2.09019e-06
9.42154e-11
-2.08303e-06
-7.88039e-09
-2.0666e-06
-1.616e-08
-2.04225e-06
-2.51189e-08
-2.00707e-06
-3.48896e-08
-1.96201e-06
-4.58628e-08
-1.90406e-06
-5.76768e-08
-1.83434e-06
-7.05974e-08
-1.74896e-06
-8.52023e-08
-1.64894e-06
-1.01053e-07
-1.53285e-06
-1.16082e-07
-1.40201e-06
-1.32057e-07
-1.2522e-06
-1.49964e-07
-1.08909e-06
-1.64679e-07
-9.12252e-07
-1.77199e-07
-7.12063e-07
-2.02071e-07
-4.69595e-07
-2.43e-07
-2.01662e-07
-2.69505e-07
7.21184e-08
-2.74509e-07
3.41093e-07
-2.70486e-07
6.0153e-07
-2.61424e-07
8.48612e-07
-2.48513e-07
1.07925e-06
-2.3179e-07
1.28916e-06
-2.11284e-07
1.47365e-06
-1.85723e-07
1.62366e-06
-1.51322e-07
1.7258e-06
-1.03417e-07
1.76958e-06
-4.50431e-08
1.75225e-06
1.60219e-08
1.67648e-06
7.45144e-08
1.54956e-06
1.2551e-07
1.38354e-06
1.64648e-07
1.19225e-06
1.89606e-07
9.90573e-07
1.99981e-07
7.95027e-07
1.93353e-07
6.15651e-07
1.76984e-07
4.31964e-07
1.80146e-07
2.22853e-07
2.05226e-07
4.63161e-08
1.72254e-07
-2.40118e-08
6.64587e-08
-2.53668e-08
-2.3267e-09
-1.90053e-08
-9.91335e-09
1.87239e-08
-4.07929e-08
1.24085e-07
-1.08347e-07
2.53995e-07
-1.32413e-07
3.3558e-07
-8.47453e-08
3.78505e-07
-4.6319e-08
2.77605e-07
9.61522e-08
1.90306e-07
8.26972e-08
-2.70581e-09
1.89621e-07
-4.74267e-07
4.69126e-07
-1.11359e-06
6.37521e-07
-1.81384e-06
6.9855e-07
-2.50354e-06
6.88456e-07
-3.14225e-06
6.37463e-07
-3.71181e-06
5.68145e-07
-4.20862e-06
4.95108e-07
-4.63635e-06
4.25893e-07
-5.00206e-06
3.63714e-07
-5.31338e-06
3.09273e-07
-5.57756e-06
2.61988e-07
-5.80059e-06
2.20822e-07
-5.98762e-06
1.84649e-07
-6.14258e-06
1.52559e-07
-6.26863e-06
1.23465e-07
-6.36815e-06
9.69191e-08
-6.44347e-06
7.24061e-08
-6.49647e-06
5.01265e-08
-6.52956e-06
2.99517e-08
-6.54502e-06
1.27602e-08
-6.54604e-06
-1.64365e-09
-6.53382e-06
-1.4122e-08
-6.50982e-06
-2.57367e-08
-6.47429e-06
-3.65072e-08
-6.42825e-06
-4.68873e-08
-6.37215e-06
-5.63142e-08
-6.30691e-06
-6.54025e-08
-6.23255e-06
-7.3995e-08
-6.14957e-06
-8.25875e-08
-6.05855e-06
-9.02206e-08
-5.96076e-06
-9.69943e-08
-5.85622e-06
-1.03441e-07
-5.74593e-06
-1.092e-07
-5.63019e-06
-1.14474e-07
-5.51001e-06
-1.18952e-07
-5.38598e-06
-1.22784e-07
-5.25924e-06
-1.25521e-07
-5.12998e-06
-1.28069e-07
-4.99889e-06
-1.29831e-07
-4.86653e-06
-1.31151e-07
-4.73355e-06
-1.31709e-07
-4.60077e-06
-1.31663e-07
-4.46876e-06
-1.30893e-07
-4.33858e-06
-1.29279e-07
-4.21084e-06
-1.26869e-07
-4.08633e-06
-1.23904e-07
-3.9655e-06
-1.2026e-07
-3.84905e-06
-1.16128e-07
-3.73724e-06
-1.11534e-07
-3.63044e-06
-1.06723e-07
-3.52867e-06
-1.01726e-07
-3.43183e-06
-9.69182e-08
-3.33948e-06
-9.2405e-08
-3.25132e-06
-8.82264e-08
-3.16674e-06
-8.4557e-08
-3.08522e-06
-8.14105e-08
-3.00609e-06
-7.88785e-08
-2.9285e-06
-7.72265e-08
-2.85168e-06
-7.63247e-08
-2.77469e-06
-7.64226e-08
-2.69631e-06
-7.77028e-08
-2.61539e-06
-8.01959e-08
-2.53065e-06
-8.39277e-08
-2.44089e-06
-8.88981e-08
-2.3448e-06
-9.51308e-08
-2.24157e-06
-1.02244e-07
-2.13069e-06
-1.09801e-07
-2.01182e-06
-1.17761e-07
-1.88429e-06
-1.26326e-07
-1.74811e-06
-1.34947e-07
-1.60359e-06
-1.43192e-07
-1.45126e-06
-1.50965e-07
-1.29196e-06
-1.57845e-07
-1.126e-06
-1.64454e-07
-9.54041e-07
-1.70318e-07
-7.78083e-07
-1.74242e-07
-6.00176e-07
-1.76032e-07
-4.19922e-07
-1.78335e-07
-2.28568e-07
-1.893e-07
-1.64154e-08
-2.10217e-07
2.07857e-07
-2.22513e-07
4.30003e-07
-2.20616e-07
6.4523e-07
-2.13793e-07
8.51415e-07
-2.04922e-07
1.04712e-06
-1.94509e-07
1.23154e-06
-1.83368e-07
1.4044e-06
-1.71866e-07
1.56515e-06
-1.59885e-07
1.71275e-06
-1.46769e-07
1.84649e-06
-1.33034e-07
1.96508e-06
-1.17924e-07
2.06573e-06
-1.00099e-07
2.14352e-06
-7.72508e-08
2.1762e-06
-3.21889e-08
6.01161e-08
2.1166e-06
-6.03085e-08
9.72219e-08
-1.4581e-07
1.27117e-07
-2.16779e-07
1.30988e-07
-2.76888e-07
1.27275e-07
-3.29635e-07
1.21283e-07
-3.78183e-07
1.15338e-07
-4.25331e-07
1.10226e-07
-4.72549e-07
1.06453e-07
-5.21616e-07
1.04372e-07
-5.73133e-07
1.04009e-07
-6.28037e-07
1.05213e-07
-6.85836e-07
1.078e-07
-7.4677e-07
1.1158e-07
-8.09985e-07
1.16379e-07
-8.75294e-07
1.22039e-07
-9.41869e-07
1.28494e-07
-1.00973e-06
1.35329e-07
-1.0777e-06
1.41868e-07
-1.1456e-06
1.47436e-07
-1.21201e-06
1.51321e-07
-1.27664e-06
1.53021e-07
-1.33808e-06
1.52338e-07
-1.39631e-06
1.49289e-07
-1.45021e-06
1.44034e-07
-1.50021e-06
1.36817e-07
-1.54552e-06
1.27888e-07
-1.58689e-06
1.17647e-07
-1.62388e-06
1.06615e-07
-1.65744e-06
9.50404e-08
-1.687e-06
8.29256e-08
-1.71335e-06
7.04288e-08
-1.73585e-06
5.77921e-08
-1.75492e-06
4.47775e-08
-1.7692e-06
3.11541e-08
-1.77807e-06
1.67572e-08
-1.77907e-06
1.16808e-09
-1.77127e-06
-1.59535e-08
-1.75262e-06
-3.47839e-08
-1.72256e-06
-5.5462e-08
-1.67939e-06
-7.80592e-08
-1.62272e-06
-1.02818e-07
-1.55074e-06
-1.29695e-07
-1.4632e-06
-1.58456e-07
-1.35945e-06
-1.89073e-07
-1.23927e-06
-2.21615e-07
-1.10064e-06
-2.54952e-07
-9.44951e-07
-2.88199e-07
-7.73283e-07
-3.21974e-07
-5.8348e-07
-3.54977e-07
-3.75531e-07
-3.85524e-07
-1.64106e-07
-4.13964e-07
3.29412e-08
-4.40413e-07
2.22582e-07
-4.5966e-07
4.16333e-07
-4.68734e-07
6.1361e-07
-4.68385e-07
8.10746e-07
-4.59164e-07
1.00276e-06
-4.41233e-07
1.18557e-06
-4.15313e-07
1.35557e-06
-3.82064e-07
1.51084e-06
-3.41782e-07
1.65301e-06
-2.94316e-07
1.78781e-06
-2.39088e-07
1.91534e-06
-1.73459e-07
2.02475e-06
-9.43042e-08
2.10032e-06
-1.95486e-09
2.12622e-06
9.86866e-08
2.09111e-06
1.98846e-07
1.9928e-06
2.86963e-07
1.84071e-06
3.51074e-07
1.64523e-06
3.87753e-07
1.41358e-06
4.0748e-07
1.18324e-06
4.09205e-07
1.01406e-06
3.72942e-07
8.89873e-07
2.94733e-07
7.48723e-07
2.05732e-07
6.28326e-07
1.16275e-07
6.15433e-07
1.58372e-09
7.2176e-07
-1.48269e-07
8.41585e-07
-2.29385e-07
9.14402e-07
-2.06653e-07
8.35243e-07
-7.46479e-09
5.30218e-07
2.56775e-07
-7.04972e-08
6.95359e-07
-1.02723e-06
1.03837e-06
-2.05886e-06
1.22031e-06
-2.90651e-06
1.31585e-06
-3.57956e-06
1.30962e-06
-4.11034e-06
1.22846e-06
-4.52715e-06
1.10443e-06
-4.85612e-06
9.65679e-07
-5.11977e-06
8.30726e-07
-5.33431e-06
7.08409e-07
-5.51174e-06
6.01846e-07
-5.66018e-06
5.10598e-07
-5.7853e-06
4.32672e-07
-5.89095e-06
3.65853e-07
-5.98001e-06
3.07941e-07
-6.05462e-06
2.57274e-07
-6.11648e-06
2.12256e-07
-6.16685e-06
1.71657e-07
-6.20701e-06
1.34683e-07
-6.23802e-06
1.00966e-07
-6.26077e-06
7.01806e-08
-6.27501e-06
4.1636e-08
-6.27981e-06
1.50399e-08
-6.27345e-06
-1.00659e-08
-6.25546e-06
-3.38894e-08
-6.22612e-06
-5.6333e-08
-6.18614e-06
-7.74555e-08
-6.13595e-06
-9.76084e-08
-6.0762e-06
-1.16374e-07
-6.00764e-06
-1.33934e-07
-5.93087e-06
-1.50567e-07
-5.84645e-06
-1.66552e-07
-5.75485e-06
-1.81226e-07
-5.65671e-06
-1.94377e-07
-5.55246e-06
-2.06823e-07
-5.44268e-06
-2.17994e-07
-5.32835e-06
-2.27769e-07
-5.21038e-06
-2.35865e-07
-5.08926e-06
-2.42855e-07
-4.96517e-06
-2.48582e-07
-4.83863e-06
-2.53565e-07
-4.71002e-06
-2.57388e-07
-4.58011e-06
-2.59981e-07
-4.44935e-06
-2.61428e-07
-4.31852e-06
-2.61493e-07
-4.18831e-06
-2.6019e-07
-4.05937e-06
-2.574e-07
-3.93239e-06
-2.53146e-07
-3.80797e-06
-2.47753e-07
-3.68668e-06
-2.41105e-07
-3.56916e-06
-2.33331e-07
-3.4559e-06
-2.24589e-07
-3.34733e-06
-2.15198e-07
-3.24366e-06
-2.05376e-07
-3.14506e-06
-1.95552e-07
-3.05143e-06
-1.86095e-07
-2.96236e-06
-1.77346e-07
-2.87732e-06
-1.6958e-07
-2.79569e-06
-1.62931e-07
-2.71663e-06
-1.57725e-07
-2.63926e-06
-1.54277e-07
-2.56253e-06
-1.52635e-07
-2.48538e-06
-1.53088e-07
-2.40645e-06
-1.56063e-07
-2.32429e-06
-1.61729e-07
-2.23752e-06
-1.69991e-07
-2.1448e-06
-1.80885e-07
-2.04454e-06
-1.94561e-07
-1.93581e-06
-2.10127e-07
-1.81753e-06
-2.27141e-07
-1.68918e-06
-2.45151e-07
-1.55061e-06
-2.63844e-07
-1.40174e-06
-2.82755e-07
-1.24289e-06
-3.00885e-07
-1.07459e-06
-3.18115e-07
-8.97575e-07
-3.33599e-07
-7.12621e-07
-3.48139e-07
-5.19833e-07
-3.61726e-07
-3.17457e-07
-3.75252e-07
-1.01161e-07
-3.90939e-07
1.28571e-07
-4.06838e-07
3.61793e-07
-4.21354e-07
5.86439e-07
-4.33816e-07
8.02991e-07
-4.3802e-07
1.01571e-06
-4.32378e-07
1.22367e-06
-4.20796e-07
1.42522e-06
-4.05601e-07
1.6191e-06
-3.87524e-07
1.80405e-06
-3.67554e-07
1.97893e-06
-3.45995e-07
2.14287e-06
-3.2315e-07
2.29523e-06
-2.98482e-07
2.43497e-06
-2.72215e-07
2.56094e-06
-2.43348e-07
2.67121e-06
-2.09902e-07
2.76122e-06
-1.66802e-07
2.83152e-06
-1.0206e-07
1.4397e-08
2.87771e-06
-4.49499e-08
1.42857e-07
-1.05887e-07
1.88924e-07
-1.51167e-07
1.76858e-07
-1.85906e-07
1.62538e-07
-2.14499e-07
1.50263e-07
-2.39834e-07
1.41101e-07
-2.64541e-07
1.35234e-07
-2.90338e-07
1.32642e-07
-3.18901e-07
1.33203e-07
-3.51127e-07
1.36613e-07
-3.88092e-07
1.42415e-07
-4.29971e-07
1.50045e-07
-4.77064e-07
1.58873e-07
-5.28625e-07
1.68277e-07
-5.84148e-07
1.77703e-07
-6.42146e-07
1.86776e-07
-7.01779e-07
1.95031e-07
-7.61681e-07
2.01998e-07
-8.21455e-07
2.0723e-07
-8.80235e-07
2.10307e-07
-9.38182e-07
2.10974e-07
-9.94845e-07
2.09198e-07
-1.05059e-06
2.05054e-07
-1.10502e-06
1.98669e-07
-1.15847e-06
1.9029e-07
-1.21052e-06
1.80153e-07
-1.26144e-06
1.68588e-07
-1.31055e-06
1.5593e-07
-1.35774e-06
1.42253e-07
-1.40215e-06
1.27528e-07
-1.44353e-06
1.11806e-07
-1.48058e-06
9.50054e-08
-1.51267e-06
7.68381e-08
-1.53842e-06
5.70062e-08
-1.55696e-06
3.52173e-08
-1.5669e-06
1.11636e-08
-1.56751e-06
-1.54609e-08
-1.55742e-06
-4.48519e-08
-1.5359e-06
-7.71112e-08
-1.50171e-06
-1.12265e-07
-1.45433e-06
-1.50335e-07
-1.39286e-06
-1.91216e-07
-1.31688e-06
-2.34604e-07
-1.2259e-06
-2.80168e-07
-1.12017e-06
-3.27555e-07
-9.99285e-07
-3.76032e-07
-8.63043e-07
-4.24711e-07
-7.13017e-07
-4.72259e-07
-5.51316e-07
-5.1699e-07
-3.78771e-07
-5.58365e-07
-1.9903e-07
-5.94038e-07
-1.68061e-08
-6.22954e-07
1.66969e-07
-6.43808e-07
3.52967e-07
-6.55121e-07
5.40414e-07
-6.5628e-07
7.27555e-07
-6.46774e-07
9.11828e-07
-6.2602e-07
1.09002e-06
-5.94042e-07
1.25826e-06
-5.50858e-07
1.41335e-06
-4.9744e-07
1.55382e-06
-4.3536e-07
1.67972e-06
-3.65583e-07
1.79338e-06
-2.87738e-07
1.89852e-06
-2.00101e-07
1.99591e-06
-1.0003e-07
2.08066e-06
1.32108e-08
2.14119e-06
1.37586e-07
2.16247e-06
2.64925e-07
2.13233e-06
3.80443e-07
2.04787e-06
4.71433e-07
1.9235e-06
5.31038e-07
1.78379e-06
5.48068e-07
1.64525e-06
5.10599e-07
1.50877e-06
4.30214e-07
1.38194e-06
3.3147e-07
1.30538e-06
1.91756e-07
1.31795e-06
-1.19139e-08
1.38312e-06
-2.14344e-07
1.44081e-06
-2.88204e-07
1.14597e-06
8.70177e-08
3.84552e-07
7.53001e-07
-7.374e-07
1.37804e-06
-1.77299e-06
1.73035e-06
-2.59797e-06
1.86274e-06
-3.23125e-06
1.85296e-06
-3.68301e-06
1.76692e-06
-4.00394e-06
1.62984e-06
-4.24248e-06
1.46629e-06
-4.43553e-06
1.29693e-06
-4.60573e-06
1.13524e-06
-4.76401e-06
9.88214e-07
-4.91408e-06
8.5751e-07
-5.05613e-06
7.42752e-07
-5.1891e-06
6.42322e-07
-5.31185e-06
5.54055e-07
-5.42338e-06
4.75946e-07
-5.52312e-06
4.061e-07
-5.6107e-06
3.43232e-07
-5.68604e-06
2.85824e-07
-5.749e-06
2.32809e-07
-5.79981e-06
1.83487e-07
-5.83834e-06
1.37457e-07
-5.86457e-06
9.41643e-08
-5.8783e-06
5.32746e-08
-5.87992e-06
1.46116e-08
-5.86943e-06
-2.21728e-08
-5.8474e-06
-5.73442e-08
-5.81414e-06
-9.05301e-08
-5.77046e-06
-1.21894e-07
-5.71692e-06
-1.51505e-07
-5.654e-06
-1.79518e-07
-5.5824e-06
-2.05439e-07
-5.50293e-06
-2.29858e-07
-5.41609e-06
-2.52946e-07
-5.3223e-06
-2.7453e-07
-5.22214e-06
-2.93854e-07
-5.11663e-06
-3.11616e-07
-5.00641e-06
-3.27371e-07
-4.89237e-06
-3.40959e-07
-4.77493e-06
-3.524e-07
-4.65468e-06
-3.62228e-07
-4.53197e-06
-3.70415e-07
-4.40758e-06
-3.77063e-07
-4.28183e-06
-3.82241e-07
-4.15543e-06
-3.85464e-07
-4.02883e-06
-3.8717e-07
-3.90256e-06
-3.86906e-07
-3.77714e-06
-3.84867e-07
-3.65294e-06
-3.80906e-07
-3.53052e-06
-3.7502e-07
-3.41036e-06
-3.67422e-07
-3.29307e-06
-3.58055e-07
-3.17918e-06
-3.46959e-07
-3.06921e-06
-3.34435e-07
-2.96357e-06
-3.20766e-07
-2.86265e-06
-3.0632e-07
-2.76673e-06
-2.91538e-07
-2.67591e-06
-2.77014e-07
-2.59008e-06
-2.63248e-07
-2.50895e-06
-2.50747e-07
-2.43186e-06
-2.39971e-07
-2.35805e-06
-2.31419e-07
-2.28643e-06
-2.25695e-07
-2.21556e-06
-2.23251e-07
-2.14394e-06
-2.24374e-07
-2.06988e-06
-2.29762e-07
-1.99171e-06
-2.39469e-07
-1.90762e-06
-2.53631e-07
-1.81608e-06
-2.71923e-07
-1.71582e-06
-2.943e-07
-1.60573e-06
-3.1963e-07
-1.48471e-06
-3.47569e-07
-1.35211e-06
-3.77096e-07
-1.20781e-06
-4.07482e-07
-1.05173e-06
-4.38101e-07
-8.8429e-07
-4.67592e-07
-7.0584e-07
-4.95761e-07
-5.16922e-07
-5.21706e-07
-3.18025e-07
-5.46198e-07
-1.07914e-07
-5.71031e-07
1.12617e-07
-5.9502e-07
3.38665e-07
-6.16298e-07
5.65914e-07
-6.33447e-07
7.91041e-07
-6.45889e-07
1.01055e-06
-6.52765e-07
1.22411e-06
-6.51033e-07
1.4326e-06
-6.40349e-07
1.63532e-06
-6.23018e-07
1.83132e-06
-6.01122e-07
2.01969e-06
-5.75425e-07
2.1994e-06
-5.46836e-07
2.36969e-06
-5.15869e-07
2.52984e-06
-4.82926e-07
2.67931e-06
-4.47585e-07
2.8171e-06
-4.09685e-07
2.9422e-06
-3.68142e-07
3.05286e-06
-3.20294e-07
3.14709e-06
-2.60771e-07
3.2248e-06
-1.79511e-07
-5.52447e-08
3.29473e-06
-3.16236e-08
1.74982e-07
-6.34203e-08
2.21267e-07
-8.58532e-08
1.99648e-07
-1.03045e-07
1.80036e-07
-1.178e-07
1.65232e-07
-1.3163e-07
1.55168e-07
-1.45849e-07
1.49628e-07
-1.61373e-07
1.48386e-07
-1.79174e-07
1.51151e-07
-1.99848e-07
1.57505e-07
-2.242e-07
1.66902e-07
-2.52628e-07
1.78689e-07
-2.85744e-07
1.92106e-07
-3.23594e-07
2.06334e-07
-3.66347e-07
2.20543e-07
-4.1335e-07
2.33963e-07
-4.64161e-07
2.45887e-07
-5.17742e-07
2.55734e-07
-5.73585e-07
2.63082e-07
-6.30829e-07
2.6768e-07
-6.89325e-07
2.69462e-07
-7.48505e-07
2.68503e-07
-8.0841e-07
2.64945e-07
-8.68591e-07
2.58977e-07
-9.29128e-07
2.5082e-07
-9.89533e-07
2.40685e-07
-1.04975e-06
2.288e-07
-1.109e-06
2.15314e-07
-1.16699e-06
2.00239e-07
-1.22285e-06
1.83521e-07
-1.27609e-06
1.65046e-07
-1.32555e-06
1.4459e-07
-1.37056e-06
1.21837e-07
-1.40991e-06
9.64443e-08
-1.44278e-06
6.80547e-08
-1.46789e-06
3.63433e-08
-1.48448e-06
1.06881e-09
-1.49133e-06
-3.79593e-08
-1.48768e-06
-8.08357e-08
-1.47239e-06
-1.27542e-07
-1.44486e-06
-1.7796e-07
-1.40426e-06
-2.3184e-07
-1.35019e-06
-2.88799e-07
-1.28213e-06
-3.48311e-07
-1.20018e-06
-4.09677e-07
-1.10419e-06
-4.72169e-07
-9.94224e-07
-5.34891e-07
-8.70736e-07
-5.95954e-07
-7.33766e-07
-6.54235e-07
-5.83264e-07
-7.09145e-07
-4.19618e-07
-7.58011e-07
-2.45087e-07
-7.97825e-07
-6.29326e-08
-8.26348e-07
1.24212e-07
-8.42665e-07
3.1371e-07
-8.46216e-07
5.0307e-07
-8.36586e-07
6.9075e-07
-8.14178e-07
8.74849e-07
-7.78632e-07
1.05254e-06
-7.29045e-07
1.22023e-06
-6.65639e-07
1.37449e-06
-5.90122e-07
1.51269e-06
-5.0428e-07
1.63404e-06
-4.09591e-07
1.74025e-06
-3.06833e-07
1.835e-06
-1.95321e-07
1.92147e-06
-7.38448e-08
2.0007e-06
5.77407e-08
2.06736e-06
1.97612e-07
2.10946e-06
3.37662e-07
2.11597e-06
4.64223e-07
2.08612e-06
5.60179e-07
2.02784e-06
6.05612e-07
1.94538e-06
5.92252e-07
1.83334e-06
5.41388e-07
1.71145e-06
4.52371e-07
1.64606e-06
2.56154e-07
1.65216e-06
-1.89593e-08
1.58568e-06
-1.48926e-07
1.06124e-06
2.35238e-07
1.69127e-08
1.13068e-06
-1.09951e-06
1.86894e-06
-1.96098e-06
2.23908e-06
-2.5754e-06
2.34432e-06
-3.00888e-06
2.29575e-06
-3.32096e-06
2.16452e-06
-3.5504e-06
1.9958e-06
-3.73325e-06
1.81208e-06
-3.89519e-06
1.62769e-06
-4.05047e-06
1.45173e-06
-4.20444e-06
1.28878e-06
-4.35723e-06
1.14043e-06
-4.50676e-06
1.00628e-06
-4.65023e-06
8.85346e-07
-4.78517e-06
7.76257e-07
-4.90973e-06
6.77531e-07
-5.02267e-06
5.87702e-07
-5.12327e-06
5.05427e-07
-5.21113e-06
4.29711e-07
-5.28609e-06
3.59331e-07
-5.34817e-06
2.93314e-07
-5.39741e-06
2.31053e-07
-5.43375e-06
1.71992e-07
-5.45721e-06
1.15762e-07
-5.46809e-06
6.23308e-08
-5.46664e-06
1.15274e-08
-5.45319e-06
-3.69976e-08
-5.42841e-06
-8.32129e-08
-5.39285e-06