/*--------------------------------*- C++ -*----------------------------------*\
| =========                 |                                                 |
| \\      /  F ield         | OpenFOAM: The Open Source CFD Toolbox           |
|  \\    /   O peration     | Version:  2406                                  |
|   \\  /    A nd           | Website:  www.openfoam.com                      |
|    \\/     M anipulation  |                                                 |
\*---------------------------------------------------------------------------*/
FoamFile
{
    version     2.0;
    format      ascii;
    arch        "LSB;label=32;scalar=64";
    class       volVectorField;
    location    "100";
    object      U;
}
// * * * * * * * * * * * * * * * * * * * * * * * * * * * * * * * * * * * * * //

dimensions      [0 1 -1 0 0 0 0];

internalField   nonuniform List<vector> 
12225
(
(9.77117 0.0419416 0)
(9.35669 0.0769873 0)
(8.95448 0.0842032 0)
(8.57271 0.0813546 0)
(8.23126 0.0749982 0)
(7.93203 0.066919 0)
(7.67099 0.0583116 0)
(7.44472 0.0498408 0)
(7.25002 0.0421029 0)
(7.08217 0.0355297 0)
(6.93625 0.0299843 0)
(6.81046 0.025192 0)
(6.7021 0.020853 0)
(6.61072 0.0167854 0)
(6.53522 0.0126801 0)
(6.47646 0.00797125 0)
(6.4397 0.00216391 0)
(6.41853 -0.00933496 0)
(10.0897 0.0575125 0)
(10.228 0.0903917 0)
(10.3047 0.0905547 0)
(10.3273 0.0870206 0)
(10.3187 0.0841311 0)
(10.2886 0.0806533 0)
(10.2422 0.076438 0)
(10.1837 0.0719359 0)
(10.1178 0.0674061 0)
(10.0487 0.0629767 0)
(9.97985 0.0587767 0)
(9.91205 0.0546269 0)
(9.84695 0.0503762 0)
(9.7847 0.0457786 0)
(9.72675 0.0405469 0)
(9.67309 0.0338168 0)
(9.6251 0.0245193 0)
(9.58015 0.00673692 0)
(10.014 0.0411211 0)
(10.0754 0.0631539 0)
(10.1223 0.0661381 0)
(10.1584 0.0700987 0)
(10.1878 0.0739532 0)
(10.2126 0.0755472 0)
(10.2314 0.0751323 0)
(10.2442 0.0735873 0)
(10.2515 0.071407 0)
(10.2546 0.0688549 0)
(10.2544 0.0659476 0)
(10.2517 0.0626669 0)
(10.2471 0.0589411 0)
(10.2413 0.0546141 0)
(10.2348 0.049341 0)
(10.2278 0.0423019 0)
(10.2202 0.0323742 0)
(10.208 0.0155575 0)
(10.007 0.0296374 0)
(10.0414 0.0540259 0)
(10.0719 0.0606458 0)
(10.0948 0.0655462 0)
(10.1146 0.0689951 0)
(10.1334 0.0701594 0)
(10.1505 0.0696543 0)
(10.1653 0.0682985 0)
(10.1781 0.0664626 0)
(10.1894 0.0642587 0)
(10.1993 0.0617097 0)
(10.2081 0.0588029 0)
(10.216 0.0554357 0)
(10.2232 0.0514136 0)
(10.2299 0.0463884 0)
(10.2359 0.0396978 0)
(10.2405 0.0306897 0)
(10.2417 0.0178699 0)
(10.0048 0.0234581 0)
(10.0289 0.0482691 0)
(10.0536 0.0560086 0)
(10.0717 0.0606033 0)
(10.0874 0.0638599 0)
(10.1027 0.0652097 0)
(10.1169 0.0650364 0)
(10.1298 0.0639847 0)
(10.1415 0.0623963 0)
(10.1523 0.0603855 0)
(10.1624 0.0579941 0)
(10.1719 0.055192 0)
(10.181 0.051878 0)
(10.1897 0.0478687 0)
(10.1979 0.0428866 0)
(10.2054 0.036488 0)
(10.2116 0.0283964 0)
(10.215 0.0180985 0)
(10.0034 0.0191187 0)
(10.0217 0.0424775 0)
(10.0427 0.0508534 0)
(10.0586 0.05563 0)
(10.0725 0.0590558 0)
(10.086 0.0606634 0)
(10.0988 0.0607293 0)
(10.1105 0.05985 0)
(10.1213 0.0583816 0)
(10.1314 0.0564469 0)
(10.141 0.0540887 0)
(10.1502 0.05128 0)
(10.159 0.0479425 0)
(10.1675 0.0439249 0)
(10.1755 0.0390282 0)
(10.1827 0.0329865 0)
(10.1886 0.0257295 0)
(10.1923 0.0171686 0)
(10.0024 0.015664 0)
(10.0166 0.0368333 0)
(10.0345 0.0458073 0)
(10.049 0.0508565 0)
(10.0619 0.0543723 0)
(10.0743 0.0561235 0)
(10.0862 0.0563528 0)
(10.0972 0.0556088 0)
(10.1074 0.0542359 0)
(10.117 0.0523563 0)
(10.1262 0.0500176 0)
(10.1349 0.0472064 0)
(10.1434 0.0438685 0)
(10.1514 0.0398908 0)
(10.1589 0.0351467 0)
(10.1656 0.0295058 0)
(10.1711 0.023019 0)
(10.1747 0.0158143 0)
(10.0017 0.0128691 0)
(10.0128 0.0317101 0)
(10.028 0.0409979 0)
(10.0414 0.046206 0)
(10.0533 0.0497043 0)
(10.0649 0.0515264 0)
(10.076 0.0518833 0)
(10.0865 0.0512557 0)
(10.0962 0.0499654 0)
(10.1054 0.0481351 0)
(10.1142 0.0458197 0)
(10.1226 0.0430207 0)
(10.1307 0.0397085 0)
(10.1383 0.0358108 0)
(10.1453 0.0312657 0)
(10.1515 0.0260405 0)
(10.1567 0.0202528 0)
(10.1603 0.0141112 0)
(10.0012 0.0106091 0)
(10.01 0.0271821 0)
(10.0228 0.0364041 0)
(10.035 0.0416406 0)
(10.0461 0.0450581 0)
(10.0569 0.0468964 0)
(10.0674 0.047341 0)
(10.0773 0.0468004 0)
(10.0866 0.0455722 0)
(10.0954 0.0437843 0)
(10.1039 0.0414965 0)
(10.1119 0.0387262 0)
(10.1196 0.0354668 0)
(10.1267 0.0316861 0)
(10.1333 0.0273732 0)
(10.1391 0.0225606 0)
(10.1441 0.0173888 0)
(10.1477 0.0120885 0)
(10.0009 0.00877121 0)
(10.0079 0.0231928 0)
(10.0187 0.0320222 0)
(10.0296 0.0371673 0)
(10.04 0.0404551 0)
(10.05 0.0422568 0)
(10.0598 0.0427455 0)
(10.0692 0.0422607 0)
(10.0781 0.0410753 0)
(10.0865 0.0393225 0)
(10.0946 0.0370669 0)
(10.1022 0.0343412 0)
(10.1095 0.0311591 0)
(10.1162 0.0275233 0)
(10.1224 0.0234586 0)
(10.1279 0.0190359 0)
(10.1326 0.0143944 0)
(10.1363 0.00975854 0)
(10.0007 0.00725934 0)
(10.0062 0.0196846 0)
(10.0153 0.0278783 0)
(10.0252 0.0328075 0)
(10.0347 0.0359104 0)
(10.044 0.037621 0)
(10.0532 0.0381096 0)
(10.0621 0.0376528 0)
(10.0705 0.0364958 0)
(10.0785 0.034773 0)
(10.0861 0.0325556 0)
(10.0934 0.0298872 0)
(10.1003 0.0268027 0)
(10.1066 0.0233282 0)
(10.1125 0.0195135 0)
(10.1176 0.0154461 0)
(10.1222 0.0112493 0)
(10.1258 0.00713492 0)
(10.0006 0.00606674 0)
(10.0051 0.0168006 0)
(10.0129 0.0242701 0)
(10.0217 0.0288988 0)
(10.0306 0.0317852 0)
(10.0393 0.0333688 0)
(10.0479 0.033819 0)
(10.0563 0.0333638 0)
(10.0643 0.0322214 0)
(10.0719 0.0305245 0)
(10.0792 0.0283473 0)
(10.0861 0.0257477 0)
(10.0926 0.022766 0)
(10.0986 0.0194509 0)
(10.1041 0.015859 0)
(10.1091 0.0120848 0)
(10.1135 0.00822882 0)
(10.1171 0.00449554 0)
(10.0005 0.00504513 0)
(10.0042 0.014211 0)
(10.0109 0.0208684 0)
(10.0188 0.0251165 0)
(10.027 0.0277517 0)
(10.0351 0.0291762 0)
(10.0432 0.0295571 0)
(10.0511 0.0290839 0)
(10.0587 0.0279466 0)
(10.0659 0.0262714 0)
(10.0728 0.0241412 0)
(10.0794 0.0216129 0)
(10.0855 0.0187394 0)
(10.0912 0.0155757 0)
(10.0964 0.0121881 0)
(10.1012 0.00866424 0)
(10.1054 0.00509022 0)
(10.109 0.00165467 0)
(10.0004 0.00405878 0)
(10.0034 0.0115863 0)
(10.0091 0.0172446 0)
(10.0161 0.020957 0)
(10.0235 0.0232409 0)
(10.031 0.0244318 0)
(10.0385 0.0246905 0)
(10.0458 0.0241691 0)
(10.0529 0.0230236 0)
(10.0598 0.0213729 0)
(10.0663 0.0192994 0)
(10.0724 0.0168604 0)
(10.0782 0.0141166 0)
(10.0836 0.0111229 0)
(10.0885 0.00795004 0)
(10.093 0.00467468 0)
(10.0971 0.00135854 0)
(10.1007 -0.00180874 0)
(10.0003 0.00309288 0)
(10.0028 0.00894067 0)
(10.0075 0.0134366 0)
(10.0136 0.0164473 0)
(10.0202 0.0182627 0)
(10.027 0.0191343 0)
(10.0339 0.0192047 0)
(10.0407 0.0185932 0)
(10.0473 0.0174197 0)
(10.0536 0.0157886 0)
(10.0597 0.0137737 0)
(10.0654 0.0114397 0)
(10.0708 0.00883648 0)
(10.0758 0.00602574 0)
(10.0805 0.0030643 0)
(10.0847 2.27768e-05 0)
(10.0887 -0.0030652 0)
(10.0922 -0.00600904 0)
(10.0003 0.00214065 0)
(10.0023 0.00628737 0)
(10.0062 0.00948513 0)
(10.0114 0.0116243 0)
(10.0172 0.0128411 0)
(10.0233 0.0132973 0)
(10.0296 0.0131031 0)
(10.0358 0.0123465 0)
(10.0418 0.0111151 0)
(10.0477 0.00948788 0)
(10.0533 0.00753307 0)
(10.0586 0.00530318 0)
(10.0636 0.00284842 0)
(10.0683 0.000216827 0)
(10.0726 -0.00254197 0)
(10.0766 -0.00537751 0)
(10.0804 -0.00826975 0)
(10.0838 -0.0110404 0)
(10.0002 0.00119398 0)
(10.0019 0.00361492 0)
(10.0051 0.00540129 0)
(10.0096 0.00650836 0)
(10.0148 0.0069901 0)
(10.0202 0.00692588 0)
(10.0258 0.00638403 0)
(10.0314 0.00541978 0)
(10.037 0.00409012 0)
(10.0423 0.00244779 0)
(10.0474 0.000541714 0)
(10.0523 -0.00158681 0)
(10.0569 -0.00389769 0)
(10.0612 -0.00635687 0)
(10.0652 -0.00892793 0)
(10.069 -0.0115774 0)
(10.0725 -0.014298 0)
(10.0757 -0.0169231 0)
(10.0002 0.000229249 0)
(10.0016 0.000861525 0)
(10.0044 0.00112294 0)
(10.0084 0.00105194 0)
(10.013 0.000661582 0)
(10.0179 -3.18024e-05 0)
(10.0229 -0.00100766 0)
(10.028 -0.00224418 0)
(10.033 -0.00371692 0)
(10.0379 -0.00540053 0)
(10.0426 -0.0072709 0)
(10.047 -0.00930252 0)
(10.0512 -0.0114738 0)
(10.0551 -0.0137613 0)
(10.0588 -0.0161478 0)
(10.0623 -0.0186109 0)
(10.0655 -0.0211561 0)
(10.0684 -0.0236314 0)
(10.0002 -0.000813721 0)
(10.0015 -0.00213626 0)
(10.0042 -0.00354013 0)
(10.0078 -0.00491294 0)
(10.0121 -0.00627572 0)
(10.0167 -0.00767124 0)
(10.0214 -0.00913336 0)
(10.0261 -0.0106725 0)
(10.0307 -0.0123044 0)
(10.0352 -0.0140277 0)
(10.0395 -0.0158515 0)
(10.0435 -0.0177655 0)
(10.0473 -0.0197725 0)
(10.0509 -0.0218574 0)
(10.0542 -0.0240231 0)
(10.0572 -0.0262537 0)
(10.0601 -0.0285656 0)
(10.0627 -0.0308308 0)
(10.0002 -0.00181752 0)
(10.0017 -0.00503547 0)
(10.0046 -0.0079928 0)
(10.0085 -0.0105287 0)
(10.0129 -0.0127238 0)
(10.0175 -0.0147041 0)
(10.0221 -0.0165448 0)
(10.0267 -0.018301 0)
(10.0312 -0.0200089 0)
(10.0355 -0.021713 0)
(10.0396 -0.0234307 0)
(10.0434 -0.0251881 0)
(10.047 -0.0269846 0)
(10.0503 -0.0288376 0)
(10.0533 -0.0307378 0)
(10.0561 -0.0327008 0)
(10.0586 -0.0347207 0)
(10.061 -0.0367228 0)
(10.0002 -0.00275051 0)
(10.002 -0.00769316 0)
(10.0054 -0.0119417 0)
(10.0099 -0.0153387 0)
(10.0146 -0.0181005 0)
(10.0195 -0.0204548 0)
(10.0243 -0.0225123 0)
(10.029 -0.0243534 0)
(10.0335 -0.0260483 0)
(10.0378 -0.0276663 0)
(10.0418 -0.0292443 0)
(10.0455 -0.0308209 0)
(10.049 -0.0324056 0)
(10.0521 -0.0340244 0)
(10.055 -0.0356737 0)
(10.0576 -0.0373733 0)
(10.0599 -0.0391202 0)
(10.0621 -0.0408522 0)
(10.0003 -0.00379088 0)
(10.0027 -0.0105528 0)
(10.0069 -0.0159757 0)
(10.0122 -0.0200205 0)
(10.0175 -0.0231727 0)
(10.0227 -0.025765 0)
(10.0278 -0.0279296 0)
(10.0328 -0.0297617 0)
(10.0374 -0.0313783 0)
(10.0418 -0.032859 0)
(10.0458 -0.0342691 0)
(10.0495 -0.035636 0)
(10.0529 -0.0370024 0)
(10.056 -0.0383708 0)
(10.0587 -0.0397764 0)
(10.0612 -0.0412042 0)
(10.0634 -0.0426898 0)
(10.0655 -0.0441491 0)
(10.0004 -0.00504756 0)
(10.0037 -0.0138088 0)
(10.0093 -0.0202321 0)
(10.0155 -0.0246851 0)
(10.0215 -0.0280707 0)
(10.0272 -0.0307919 0)
(10.0327 -0.0329541 0)
(10.038 -0.034696 0)
(10.0428 -0.0361706 0)
(10.0473 -0.0374827 0)
(10.0515 -0.0386934 0)
(10.0552 -0.0398468 0)
(10.0586 -0.0409775 0)
(10.0617 -0.042112 0)
(10.0645 -0.0432656 0)
(10.0669 -0.0444507 0)
(10.0691 -0.0456741 0)
(10.0711 -0.046892 0)
(10.0006 -0.00665589 0)
(10.0054 -0.0176518 0)
(10.0127 -0.0247614 0)
(10.0202 -0.0293296 0)
(10.0268 -0.0328182 0)
(10.0331 -0.0355826 0)
(10.0391 -0.0376643 0)
(10.0448 -0.039253 0)
(10.05 -0.0405493 0)
(10.0547 -0.0416674 0)
(10.059 -0.0426648 0)
(10.063 -0.0435964 0)
(10.0665 -0.0444946 0)
(10.0697 -0.0454004 0)
(10.0725 -0.0463208 0)
(10.075 -0.0472812 0)
(10.0772 -0.0482704 0)
(10.0793 -0.0492702 0)
(10.001 -0.00877238 0)
(10.0079 -0.0222459 0)
(10.0177 -0.0296065 0)
(10.0265 -0.033995 0)
(10.0339 -0.0374492 0)
(10.0409 -0.0401622 0)
(10.0476 -0.0421091 0)
(10.0539 -0.0435286 0)
(10.0595 -0.044644 0)
(10.0647 -0.0455645 0)
(10.0693 -0.046349 0)
(10.0736 -0.0470517 0)
(10.0773 -0.0477194 0)
(10.0807 -0.0483875 0)
(10.0837 -0.0490824 0)
(10.0864 -0.049814 0)
(10.0887 -0.0505877 0)
(10.0908 -0.0513616 0)
(10.0016 -0.0116541 0)
(10.0119 -0.0275469 0)
(10.025 -0.0347569 0)
(10.0354 -0.0389301 0)
(10.0439 -0.0422682 0)
(10.0521 -0.0447411 0)
(10.06 -0.0464025 0)
(10.0671 -0.0475781 0)
(10.0736 -0.0484827 0)
(10.0794 -0.0492018 0)
(10.0847 -0.0497838 0)
(10.0894 -0.0502906 0)
(10.0936 -0.0507598 0)
(10.0973 -0.051233 0)
(10.1006 -0.0517376 0)
(10.1035 -0.0522923 0)
(10.106 -0.0529058 0)
(10.1083 -0.0535106 0)
(10.003 -0.0162332 0)
(10.0192 -0.0333584 0)
(10.037 -0.0394897 0)
(10.0504 -0.0437353 0)
(10.0616 -0.0473329 0)
(10.0721 -0.0496802 0)
(10.082 -0.0510177 0)
(10.091 -0.0518423 0)
(10.0989 -0.0523973 0)
(10.1059 -0.0527599 0)
(10.1122 -0.0529895 0)
(10.1178 -0.0531525 0)
(10.1227 -0.0533024 0)
(10.1269 -0.0534723 0)
(10.1304 -0.0536855 0)
(10.1335 -0.053975 0)
(10.136 -0.0543554 0)
(10.1382 -0.0547632 0)
(10.0078 -0.0248476 0)
(10.0394 -0.0412725 0)
(10.0675 -0.0438075 0)
(10.089 -0.0469889 0)
(10.1071 -0.0509146 0)
(10.1238 -0.0537681 0)
(10.1384 -0.0555079 0)
(10.1508 -0.0566154 0)
(10.1611 -0.0573341 0)
(10.1695 -0.0577298 0)
(10.1761 -0.057883 0)
(10.1812 -0.0578684 0)
(10.1848 -0.0577918 0)
(10.1871 -0.0577134 0)
(10.1882 -0.0576763 0)
(10.1883 -0.0577105 0)
(10.1876 -0.0578352 0)
(10.1863 -0.0581718 0)
(10.0444 -0.037251 0)
(10.1329 -0.0638151 0)
(10.1916 -0.0653331 0)
(10.2252 -0.0639709 0)
(10.2452 -0.0633685 0)
(10.2558 -0.06254 0)
(10.2577 -0.0613576 0)
(10.2516 -0.0600923 0)
(10.2394 -0.0588644 0)
(10.2223 -0.0576405 0)
(10.2014 -0.0564083 0)
(10.1776 -0.0552027 0)
(10.1515 -0.054086 0)
(10.1239 -0.0530685 0)
(10.0956 -0.0521974 0)
(10.0672 -0.0516038 0)
(10.0387 -0.051253 0)
(10.0111 -0.0515374 0)
(9.87678 -0.0289761 0)
(9.65041 -0.0560294 0)
(9.42115 -0.064145 0)
(9.19447 -0.0659633 0)
(8.98127 -0.0654846 0)
(8.78518 -0.0633452 0)
(8.60504 -0.0601423 0)
(8.43966 -0.0564392 0)
(8.28815 -0.0525633 0)
(8.14986 -0.0487465 0)
(8.02363 -0.0450402 0)
(7.90851 -0.041506 0)
(7.80328 -0.0382343 0)
(7.7069 -0.0353518 0)
(7.61763 -0.0329467 0)
(7.53453 -0.030999 0)
(7.45641 -0.0294226 0)
(7.38354 -0.0285554 0)
(0.0447245 0.0313458 -6.93145e-19)
(-0.0526384 0.0355936 2.86804e-19)
(-0.0841172 0.0523432 0)
(-0.15177 0.061676 0)
(-0.211075 0.0668953 0)
(-0.267752 0.0676234 -6.72867e-20)
(-0.322523 0.0647262 0)
(-0.374853 0.0597624 0)
(-0.424163 0.0540959 0)
(-0.470502 0.0485775 0)
(-0.515024 0.0441793 4.20556e-20)
(-0.558556 0.041996 0)
(-0.602446 0.0414343 0)
(-0.648072 0.042509 0)
(-0.696696 0.0461793 0)
(-0.749071 0.0511333 3.42356e-20)
(-0.806657 0.0568819 0)
(-0.869691 0.0630422 0)
(-0.938431 0.0689383 0)
(-1.01225 0.0741559 0)
(-1.09029 0.0784075 0)
(-1.17104 0.0814457 0)
(-1.2531 0.0830441 0)
(-1.33471 0.0832363 2.71571e-20)
(-1.41458 0.0820821 -2.699e-20)
(-1.4911 0.0797114 2.69651e-20)
(-1.56307 0.0760015 2.71186e-20)
(-1.62919 0.0712418 0)
(-1.68877 0.0656357 0)
(-1.74112 0.0595007 -2.84309e-20)
(-1.78593 0.0528319 -2.91025e-20)
(-1.82261 0.0458868 0)
(-1.85107 0.0387951 0)
(-1.87137 0.0314852 -3.12033e-20)
(-1.88341 0.0240134 0)
(-1.8881 0.0163993 0)
(-1.88574 0.00807172 3.15127e-20)
(-1.87597 -0.00120042 0)
(-1.85832 -0.0117439 2.96582e-20)
(-1.83217 -0.0239372 5.57206e-20)
(-1.79638 -0.0379459 0)
(-1.74959 -0.0529145 0)
(-1.69176 -0.0696096 0)
(-1.62279 -0.0890918 0)
(-1.53794 -0.109176 0)
(-1.43735 -0.127486 1.90511e-21)
(-1.32981 -0.149221 -1.30109e-20)
(-1.20575 -0.174927 -2.95903e-20)
(-1.05242 -0.193555 0)
(-0.902786 -0.20685 7.13288e-20)
(-0.771453 -0.235692 0)
(-0.563821 -0.272479 -1.09821e-19)
(-0.299227 -0.285229 -1.07011e-19)
(-0.0531128 -0.280592 0)
(0.193312 -0.270246 0)
(0.434451 -0.257316 0)
(0.666453 -0.242351 -9.69883e-20)
(0.884989 -0.225243 0)
(1.0866 -0.206332 0)
(1.2681 -0.184685 0)
(1.42333 -0.154993 0)
(1.54657 -0.112343 0)
(1.61469 -0.0614672 0)
(1.62798 -0.011573 0)
(1.58552 0.0318723 0)
(1.4914 0.0652535 1.1558e-19)
(1.35522 0.0867839 0)
(1.19037 0.0973237 0)
(1.00453 0.0994709 -1.72788e-19)
(0.814916 0.0892237 -2.07993e-19)
(0.676047 0.0657624 0)
(0.54017 0.0612675 3.23233e-19)
(0.299181 0.094575 -3.51742e-19)
(-0.000849147 0.0961907 0)
(-0.0255425 0.0325404 3.0545e-19)
(-0.0525469 -0.000293267 0)
(-0.0234841 -0.000143349 0)
(0.0248862 -0.00358265 -3.01407e-19)
(0.0867495 -0.0420503 0)
(0.157101 -0.063479 2.66089e-19)
(0.280534 -0.00433669 0)
(0.294003 0.0287458 -2.79406e-19)
(0.260939 0.0211243 -3.21552e-19)
(0.198464 -0.0373906 -3.76766e-19)
(0.38238 -0.0241921 -6.0779e-19)
(-0.111739 0.247512 3.91224e-19)
(-0.740089 0.398004 0)
(-1.39981 0.446041 0)
(-2.0584 0.435371 0)
(-2.68103 0.395923 1.26484e-19)
(-3.24464 0.346023 9.21268e-20)
(-3.74306 0.296316 -6.28799e-20)
(-4.17646 0.251026 0)
(-4.54989 0.211578 1.53853e-20)
(-4.87021 0.17786 -4.37238e-21)
(-5.14388 0.14917 -2.21917e-20)
(-5.37724 0.12472 0)
(-5.57472 0.103578 0)
(-5.74098 0.0853956 0)
(-5.87888 0.0693832 -7.96493e-20)
(-5.99104 0.0550964 0)
(-6.07943 0.0421107 0)
(-6.14578 0.0305316 1.11988e-19)
(-6.19241 0.0202858 0)
(-6.22075 0.0114472 0)
(-6.23428 0.00385203 1.35344e-19)
(-6.23525 -0.00266249 0)
(-6.22427 -0.00871564 0)
(-6.20217 -0.0142985 -1.48836e-19)
(-6.16968 -0.0192784 -1.51269e-19)
(-6.12728 -0.0238726 0)
(-6.07541 -0.0283795 1.53133e-19)
(-6.01496 -0.0325157 0)
(-5.94584 -0.0366845 -1.50458e-19)
(-5.86879 -0.040442 0)
(-5.78421 -0.0439848 -1.44138e-19)
(-5.69309 -0.0469931 -1.39296e-19)
(-5.59615 -0.0495765 0)
(-5.49314 -0.0523234 0)
(-5.38547 -0.054867 0)
(-5.27319 -0.0569717 0)
(-5.15828 -0.0584404 0)
(-5.03971 -0.0600754 0)
(-4.91942 -0.0609671 0)
(-4.79697 -0.0614896 -7.5917e-20)
(-4.6738 -0.0613412 6.5379e-20)
(-4.54975 -0.0608157 0)
(-4.42611 -0.059522 0)
(-4.30347 -0.057563 0)
(-4.18261 -0.0549262 0)
(-4.06431 -0.05172 1.38057e-20)
(-3.9491 -0.0480143 0)
(-3.83759 -0.0439408 3.55477e-20)
(-3.73027 -0.0396041 -6.02756e-20)
(-3.62744 -0.0351582 0)
(-3.52946 -0.0307416 0)
(-3.43609 -0.0266506 0)
(-3.34732 -0.0228798 1.54718e-19)
(-3.26281 -0.0196108 1.75889e-19)
(-3.18189 -0.016986 0)
(-3.10429 -0.0148315 2.1267e-19)
(-3.02934 -0.0132942 2.27945e-19)
(-2.95604 -0.0123568 -2.40522e-19)
(-2.88406 -0.0117398 0)
(-2.81201 -0.0116768 0)
(-2.73898 -0.0121065 -2.66835e-19)
(-2.6638 -0.0129053 0)
(-2.58507 -0.0141071 0)
(-2.50148 -0.0155343 0)
(-2.41191 -0.01687 0)
(-2.31505 -0.0182185 3.04619e-19)
(-2.21047 -0.0192863 3.19232e-19)
(-2.09754 -0.0206442 0)
(-1.97558 -0.0231843 3.65228e-19)
(-1.8446 -0.0264252 0)
(-1.70429 -0.0302846 0)
(-1.55535 -0.0346861 4.98218e-19)
(-1.3984 -0.0395892 0)
(-1.2341 -0.0453462 6.53505e-19)
(-1.063 -0.0521638 0)
(-0.886102 -0.0597531 0)
(-0.705867 -0.0686533 1.07479e-18)
(-0.522068 -0.0789351 0)
(-0.335879 -0.0922756 1.65867e-18)
(-0.135273 -0.102319 0)
(0.0991744 -0.0985765 0)
(0.331815 -0.0915057 0)
(0.559915 -0.084777 -1.06522e-18)
(0.780182 -0.078341 0)
(0.990883 -0.0716662 8.84222e-19)
(1.19121 -0.0653623 0)
(1.38047 -0.0606267 0)
(1.55819 -0.0567426 0)
(1.72265 -0.0520574 0)
(1.8747 -0.0470066 0)
(2.01069 -0.0411913 0)
(2.1331 -0.0340821 0)
(2.22705 -0.0255745 -1.29471e-18)
(2.31581 -0.00920989 0)
(2.27389 0.0185735 0)
(0.0345933 0.122184 1.27115e-18)
(-0.108484 0.15613 -1.74427e-19)
(-0.160342 0.182377 0)
(-0.226447 0.186881 6.85419e-20)
(-0.274444 0.182849 0)
(-0.317286 0.174844 2.6694e-20)
(-0.358256 0.16564 -5.07793e-20)
(-0.399289 0.156999 -4.807e-20)
(-0.441669 0.150029 0)
(-0.486187 0.145068 -4.49597e-20)
(-0.533543 0.142143 -2.22372e-20)
(-0.583945 0.14136 0)
(-0.637279 0.142945 0)
(-0.693247 0.146913 0)
(-0.751074 0.152948 0)
(-0.810352 0.16106 -2.05189e-20)
(-0.871004 0.170731 0)
(-0.932208 0.180681 3.92222e-20)
(-0.993561 0.189766 0)
(-1.05424 0.196719 0)
(-1.11356 0.200619 -3.70706e-20)
(-1.1707 0.201059 0)
(-1.22499 0.19797 3.60922e-20)
(-1.27583 0.191635 -1.78779e-20)
(-1.32312 0.18233 1.78039e-20)
(-1.36658 0.170306 -1.77529e-20)
(-1.4062 0.156233 -1.78426e-20)
(-1.44214 0.141088 0)
(-1.47468 0.125269 0)
(-1.50404 0.108771 1.83153e-20)
(-1.53005 0.0919313 -1.75343e-20)
(-1.55294 0.0754881 0)
(-1.5728 0.0591187 0)
(-1.58879 0.0428165 1.92035e-20)
(-1.60082 0.0268 0)
(-1.60665 0.0105442 0)
(-1.60466 -0.00672453 -1.85096e-20)
(-1.59366 -0.025491 0)
(-1.57252 -0.0460909 1.63218e-20)
(-1.54022 -0.0686042 -3.04096e-20)
(-1.49574 -0.0936111 0)
(-1.43797 -0.121021 0)
(-1.36605 -0.150437 -3.70429e-20)
(-1.27978 -0.182149 -2.59588e-20)
(-1.17861 -0.216783 -1.34332e-20)
(-1.06127 -0.252156 3.10602e-21)
(-0.92827 -0.287251 1.15038e-20)
(-0.782397 -0.325044 5.10207e-20)
(-0.620267 -0.36528 -4.64171e-20)
(-0.437095 -0.40434 -3.34789e-20)
(-0.244463 -0.442 0)
(-0.0595528 -0.472821 4.04512e-20)
(0.116609 -0.489247 -3.7711e-20)
(0.291717 -0.490898 0)
(0.470833 -0.481828 0)
(0.652066 -0.464014 0)
(0.831004 -0.438369 5.22155e-20)
(1.00324 -0.405561 0)
(1.16556 -0.366008 -1.08023e-19)
(1.31481 -0.319181 0)
(1.45055 -0.263864 -1.20494e-19)
(1.57473 -0.198206 0)
(1.69854 -0.120839 1.40216e-19)
(1.81225 -0.0335878 0)
(1.9031 0.0591272 -1.52102e-19)
(1.95509 0.149603 7.6918e-20)
(1.95478 0.228171 0)
(1.89517 0.286942 1.74915e-19)
(1.77581 0.320022 9.88294e-20)
(1.61619 0.326714 1.12869e-19)
(1.4326 0.322482 0)
(1.20321 0.319798 1.49058e-19)
(0.985271 0.297948 1.85169e-19)
(0.855852 0.233891 0)
(0.765888 0.138447 -2.6781e-19)
(0.607144 0.0527165 5.32602e-19)
(0.527356 -0.00706525 0)
(0.615573 -0.0882084 1.46276e-19)
(0.763919 -0.137486 0)
(0.823525 -0.120786 -4.48802e-19)
(0.79304 -0.196789 0)
(0.64434 -0.277093 7.00964e-19)
(0.38837 0.26767 1.65319e-19)
(-0.44152 0.737953 -1.2714e-19)
(-1.41113 0.929619 -1.88575e-19)
(-2.35497 1.01311 1.55501e-19)
(-3.07861 1.02731 0)
(-3.64169 0.981086 0)
(-4.08018 0.895513 0)
(-4.42383 0.792118 -2.51989e-19)
(-4.69849 0.686488 -7.06876e-20)
(-4.9219 0.587656 5.30766e-20)
(-5.10695 0.499876 0)
(-5.26264 0.423899 1.34144e-20)
(-5.39485 0.358794 -3.872e-21)
(-5.50769 0.303052 1.08197e-20)
(-5.60418 0.254937 0)
(-5.68627 0.213119 0)
(-5.75591 0.176295 0)
(-5.81434 0.143293 6.06271e-20)
(-5.86284 0.113513 0)
(-5.90193 0.0867174 -1.6084e-19)
(-5.93321 0.0628962 -2.6616e-19)
(-5.95681 0.0413448 1.92411e-19)
(-5.9725 0.022128 0)
(-5.97808 0.0050735 1.08903e-19)
(-5.97274 -0.010552 0)
(-5.95597 -0.0249462 2.33719e-19)
(-5.92909 -0.0382498 -1.20552e-19)
(-5.89218 -0.0509981 -1.2275e-19)
(-5.84566 -0.0622279 0)
(-5.79023 -0.0727363 -3.70599e-19)
(-5.72667 -0.0825731 2.46809e-19)
(-5.65529 -0.091835 1.20377e-19)
(-5.57693 -0.0995395 0)
(-5.49185 -0.106352 1.15927e-19)
(-5.40039 -0.113476 3.38716e-19)
(-5.30325 -0.11946 0)
(-5.20079 -0.124192 2.08688e-19)
(-5.0947 -0.127918 1.97579e-19)
(-4.98463 -0.131192 1.84869e-19)
(-4.87211 -0.133432 0)
(-4.75572 -0.13532 0)
(-4.63787 -0.13676 0)
(-4.51725 -0.137774 -6.45573e-20)
(-4.39609 -0.137872 -5.28203e-20)
(-4.27369 -0.137254 0)
(-4.15156 -0.135998 -7.16021e-20)
(-4.03011 -0.133859 -5.21716e-20)
(-3.90986 -0.130955 0)
(-3.79161 -0.127394 -9.26605e-21)
(-3.67585 -0.123093 1.72045e-20)
(-3.56322 -0.118194 -3.15906e-20)
(-3.45425 -0.112762 -4.84323e-20)
(-3.34945 -0.10703 0)
(-3.24923 -0.101067 0)
(-3.15362 -0.0951942 0)
(-3.06289 -0.0895863 -1.30853e-19)
(-2.97691 -0.084285 1.49065e-19)
(-2.89491 -0.0795949 3.3044e-19)
(-2.81666 -0.0756305 -1.78877e-19)
(-2.74126 -0.0723913 1.93432e-19)
(-2.66776 -0.0701955 2.00309e-19)
(-2.59556 -0.0690267 0)
(-2.52292 -0.068794 0)
(-2.44927 -0.0697246 -2.19348e-19)
(-2.37273 -0.0719753 0)
(-2.29192 -0.0753273 0)
(-2.20553 -0.079917 4.47756e-19)
(-2.11176 -0.0857359 0)
(-2.00977 -0.092415 2.30361e-19)
(-1.89834 -0.0998011 -2.37007e-19)
(-1.77627 -0.107509 0)
(-1.64362 -0.115427 2.58885e-19)
(-1.50004 -0.123284 0)
(-1.34561 -0.130739 0)
(-1.18084 -0.137894 -3.26865e-19)
(-1.0063 -0.144342 7.19263e-19)
(-0.822499 -0.150319 -4.00884e-19)
(-0.630883 -0.155605 0)
(-0.430774 -0.160942 0)
(-0.2187 -0.166596 5.48478e-19)
(0.0123742 -0.172644 0)
(0.255498 -0.181859 4.99918e-19)
(0.491861 -0.189806 0)
(0.719968 -0.190537 0)
(0.943347 -0.185774 0)
(1.16365 -0.178649 4.36908e-19)
(1.37881 -0.170448 0)
(1.58734 -0.161411 -4.17271e-19)
(1.78833 -0.151719 0)
(1.9799 -0.141234 0)
(2.16134 -0.130448 7.92807e-19)
(2.33141 -0.119276 -7.8681e-19)
(2.49003 -0.107813 0)
(2.63473 -0.0956303 0)
(2.76613 -0.0819007 0)
(2.87656 -0.064817 2.35597e-18)
(2.97353 -0.0379252 0)
(3.02297 0.0134937 -1.63655e-18)
(0.0170971 0.227072 3.15324e-21)
(-0.0745163 0.301243 1.83543e-19)
(-0.119956 0.29314 0)
(-0.154576 0.273584 -9.49184e-20)
(-0.180589 0.253791 0)
(-0.202912 0.237776 0)
(-0.224115 0.226355 -8.54599e-22)
(-0.246096 0.219599 2.81741e-20)
(-0.270053 0.217377 2.7613e-20)
(-0.296965 0.219218 2.70748e-20)
(-0.327685 0.224409 0)
(-0.362852 0.23208 0)
(-0.402746 0.241331 -2.84206e-20)
(-0.447148 0.251401 -5.81595e-20)
(-0.495524 0.261744 5.91174e-20)
(-0.546717 0.272162 0)
(-0.599867 0.281973 5.93599e-20)
(-0.653756 0.290377 -2.95839e-20)
(-0.707674 0.296461 0)
(-0.761052 0.299306 5.55757e-20)
(-0.813602 0.298311 2.72536e-20)
(-0.865221 0.293399 -5.2593e-20)
(-0.915953 0.28475 -2.59469e-20)
(-0.965718 0.272617 0)
(-1.01454 0.257506 4.93751e-20)
(-1.06247 0.239966 4.8681e-20)
(-1.10925 0.22067 0)
(-1.15484 0.200364 4.81254e-20)
(-1.19894 0.179325 0)
(-1.241 0.157589 4.80523e-20)
(-1.28042 0.135353 2.48336e-20)
(-1.31669 0.112585 0)
(-1.34892 0.0888745 0)
(-1.37596 0.0637814 0)
(-1.39704 0.036932 0)
(-1.41094 0.00789174 0)
(-1.41668 -0.0237541 0)
(-1.41331 -0.058209 4.6482e-20)
(-1.3999 -0.0956007 -6.62161e-20)
(-1.37551 -0.135937 0)
(-1.33932 -0.179294 0)
(-1.29065 -0.225519 0)
(-1.22887 -0.274166 -3.50323e-21)
(-1.15361 -0.324729 1.65009e-20)
(-1.06475 -0.376815 2.18121e-20)
(-0.962235 -0.429317 -4.96278e-21)
(-0.84597 -0.480822 3.5199e-21)
(-0.71676 -0.530079 -1.8656e-20)
(-0.576889 -0.57451 6.06114e-21)
(-0.424891 -0.614885 -3.02229e-20)
(-0.26338 -0.650092 0)
(-0.0985575 -0.678774 -4.35343e-20)
(0.0683524 -0.697864 4.33869e-21)
(0.237311 -0.705031 0)
(0.40827 -0.700199 0)
(0.580016 -0.683372 6.45814e-20)
(0.750537 -0.654159 0)
(0.917281 -0.613403 0)
(1.07701 -0.562184 -7.45512e-20)
(1.22611 -0.501726 -1.58509e-19)
(1.36202 -0.433195 8.34956e-20)
(1.48406 -0.356776 0)
(1.5938 -0.2709 -9.63053e-20)
(1.69424 -0.172042 0)
(1.78869 -0.0577548 -1.1587e-19)
(1.87586 0.0699601 -1.2445e-19)
(1.94822 0.204123 2.60404e-19)
(1.992 0.329897 1.32463e-19)
(1.99223 0.429462 0)
(1.94097 0.495075 -3.00215e-19)
(1.8434 0.529987 0)
(1.71713 0.526737 -5.42904e-19)
(1.58065 0.472269 -4.00565e-19)
(1.45348 0.375759 -4.51824e-19)
(1.3244 0.268312 5.06196e-19)
(1.208 0.14701 -7.83922e-19)
(1.19073 -0.00787968 0)
(1.2856 -0.178264 0)
(1.31474 -0.289006 4.56557e-19)
(1.27699 -0.37057 8.54458e-19)
(0.837674 0.160105 0)
(-0.139143 1.0131 -1.58312e-19)
(-1.16098 1.45174 0)
(-2.0913 1.58347 3.59991e-19)
(-2.7626 1.60511 -1.49499e-20)
(-3.2681 1.56718 6.08981e-22)
(-3.62348 1.46745 -1.89058e-19)
(-3.87818 1.32749 0)
(-4.07556 1.17024 1.44798e-19)
(-4.24458 1.0142 1.32701e-20)
(-4.40013 0.87085 0)
(-4.54797 0.744339 0)
(-4.68907 0.635183 0)
(-4.82271 0.541872 -2.67449e-20)
(-4.94768 0.461927 0)
(-5.06278 0.393017 0)
(-5.1674 0.333011 0)
(-5.26061 0.280382 0)
(-5.34281 0.233419 0)
(-5.41339 0.191065 9.99106e-20)
(-5.47265 0.152574 0)
(-5.52029 0.117384 1.29649e-19)
(-5.55664 0.0847585 1.42861e-19)
(-5.58115 0.0543429 -1.54672e-19)
(-5.59394 0.0262855 0)
(-5.59551 -7.52611e-06 -1.73115e-19)
(-5.58579 -0.0248467 0)
(-5.56479 -0.0479785 -1.86028e-19)
(-5.5338 -0.0692424 1.90373e-19)
(-5.4933 -0.0891474 5.84684e-19)
(-5.44288 -0.107705 0)
(-5.38436 -0.124429 5.93691e-19)
(-5.31737 -0.139993 2.00553e-19)
(-5.24345 -0.154784 0)
(-5.16212 -0.168625 3.82863e-19)
(-5.07446 -0.180116 3.75114e-19)
(-4.98102 -0.190007 -5.4259e-19)
(-4.88244 -0.199013 0)
(-4.77972 -0.206933 -1.63547e-19)
(-4.67343 -0.213209 -1.55052e-19)
(-4.56375 -0.218229 -4.4218e-19)
(-4.45122 -0.22209 0)
(-4.33651 -0.224915 0)
(-4.22023 -0.226514 0)
(-4.10267 -0.226914 -1.05688e-19)
(-3.98429 -0.226639 0)
(-3.86598 -0.224973 0)
(-3.74788 -0.22224 5.69126e-20)
(-3.63056 -0.218305 4.15842e-20)
(-3.51446 -0.213212 0)
(-3.39991 -0.207241 0)
(-3.28776 -0.200246 -1.38232e-20)
(-3.17836 -0.192362 0)
(-3.07229 -0.183756 8.11791e-20)
(-2.97005 -0.174646 1.12089e-19)
(-2.87203 -0.165259 0)
(-2.77864 -0.155874 0)
(-2.69007 -0.146886 -2.11614e-19)
(-2.60634 -0.138511 1.26791e-22)
(-2.52741 -0.130846 8.74755e-22)
(-2.4529 -0.124204 0)
(-2.38162 -0.118838 -6.29594e-19)
(-2.3134 -0.114906 0)
(-2.24637 -0.112705 0)
(-2.17909 -0.112446 0)
(-2.11009 -0.114347 3.55858e-19)
(-2.03757 -0.118365 0)
(-1.95965 -0.124595 -7.21169e-19)
(-1.87467 -0.132845 -3.60966e-19)
(-1.78086 -0.142942 0)
(-1.67779 -0.154038 -3.68278e-19)
(-1.56378 -0.166036 0)
(-1.43764 -0.178514 0)
(-1.29957 -0.191039 -1.22596e-18)
(-1.14877 -0.203393 8.67775e-19)
(-0.98593 -0.214822 0)
(-0.811135 -0.225463 1.00763e-18)
(-0.624936 -0.235152 -5.51025e-19)
(-0.427711 -0.244938 0)
(-0.219896 -0.254747 0)
(0.00107463 -0.263532 0)
(0.231583 -0.271889 -1.93083e-18)
(0.465877 -0.279502 0)
(0.700842 -0.285373 -6.11116e-19)
(0.93159 -0.288877 0)
(1.15691 -0.288038 0)
(1.37755 -0.282395 0)
(1.59352 -0.273537 0)
(1.8038 -0.262699 0)
(2.00738 -0.250299 0)
(2.20346 -0.236949 -1.11508e-18)
(2.3906 -0.222794 0)
(2.56837 -0.207847 -5.5306e-19)
(2.73582 -0.191924 1.65655e-18)
(2.89253 -0.17509 0)
(3.03669 -0.156836 0)
(3.16834 -0.136074 -1.11478e-18)
(3.28163 -0.110028 -1.13544e-18)
(3.38582 -0.0736214 1.15766e-18)
(3.44695 -0.0152708 1.21382e-18)
(0.00157905 0.305455 -1.60841e-18)
(-0.0444476 0.391329 -2.35292e-19)
(-0.0719581 0.355328 -9.79472e-20)
(-0.0865313 0.320422 -3.48718e-20)
(-0.0991946 0.292629 0)
(-0.110888 0.272529 4.32685e-20)
(-0.122852 0.259981 -1.96117e-20)
(-0.135946 0.254623 0)
(-0.150734 0.255917 -1.65684e-20)
(-0.167801 0.263063 0)
(-0.187774 0.275008 3.26771e-20)
(-0.211234 0.290531 0)
(-0.23868 0.308267 1.73398e-20)
(-0.27044 0.326814 3.6127e-20)
(-0.306632 0.344856 -3.76444e-20)
(-0.347017 0.361285 0)
(-0.391101 0.375136 -3.99783e-20)
(-0.438147 0.385647 0)
(-0.48743 0.392277 0)
(-0.538313 0.394693 -3.99855e-20)
(-0.590366 0.392842 0)
(-0.643305 0.3869 8.54977e-22)
(-0.69694 0.37712 0)
(-0.751081 0.36386 0)
(-0.805595 0.347577 -6.87877e-22)
(-0.860315 0.328671 -3.64565e-20)
(-0.914977 0.307623 -3.57357e-20)
(-0.969224 0.284808 -3.63804e-20)
(-1.02257 0.260317 0)
(-1.07447 0.234163 -7.33537e-20)
(-1.12432 0.206298 0)
(-1.1714 0.17652 -3.76107e-20)
(-1.21487 0.144458 0)
(-1.25381 0.109722 0)
(-1.28733 0.0718919 3.94906e-20)
(-1.31447 0.030624 0)
(-1.33422 -0.0144011 -3.9326e-20)
(-1.34571 -0.0633611 1.3255e-21)
(-1.34804 -0.116298 7.32442e-20)
(-1.34032 -0.173112 -7.16293e-20)
(-1.32172 -0.233608 0)
(-1.29157 -0.297407 0)
(-1.24928 -0.363936 -3.06778e-20)
(-1.19442 -0.432512 0)
(-1.12679 -0.502215 -1.0772e-20)
(-1.04644 -0.571877 4.19847e-21)
(-0.953056 -0.640356 -2.81619e-21)
(-0.847668 -0.70519 0)
(-0.730916 -0.764629 1.79277e-20)
(-0.601374 -0.818702 2.60878e-20)
(-0.459077 -0.865218 -5.7685e-20)
(-0.304327 -0.901933 4.02883e-20)
(-0.141216 -0.925831 4.5731e-20)
(0.0276675 -0.935571 0)
(0.200368 -0.931013 0)
(0.37409 -0.911862 -5.81708e-20)
(0.54663 -0.878357 0)
(0.717242 -0.830809 0)
(0.883713 -0.768438 1.37101e-19)
(1.04304 -0.692423 1.42463e-19)
(1.19172 -0.605327 0)
(1.32663 -0.509384 0)