/*--------------------------------*- C++ -*----------------------------------*\
| =========                 |                                                 |
| \\      /  F ield         | OpenFOAM: The Open Source CFD Toolbox           |
|  \\    /   O peration     | Version:  2406                                  |
|   \\  /    A nd           | Website:  www.openfoam.com                      |
|    \\/     M anipulation  |                                                 |
\*---------------------------------------------------------------------------*/
FoamFile
{
    version     2.0;
    format      ascii;
    arch        "LSB;label=32;scalar=64";
    class       volScalarField;
    location    "1.7";
    object      nu;
}
// * * * * * * * * * * * * * * * * * * * * * * * * * * * * * * * * * * * * * //

dimensions      [0 2 -1 0 0 0 0];

internalField   nonuniform List<scalar> 
1800
(
0.0208662
0.0206284
0.0265244
0.0546369
0.0264677
0.0140658
0.0109424
0.0095532
0.00912007
0.00823584
0.0173009
0.041213
0.0537737
0.0232035
0.0129515
0.0101022
0.00895077
0.0082236
0.00818798
0.00738672
0.0170706
0.111129
0.0183684
0.0112768
0.00918168
0.00828956
0.00787484
0.0076119
0.00774078
0.00740523
0.0181143
0.0187797
0.0108195
0.00864639
0.00782819
0.00748016
0.00737858
0.00741985
0.00768204
0.00781175
0.0334898
0.0114524
0.00847201
0.0075324
0.00719077
0.0071454
0.00730097
0.00763255
0.00820163
0.00890684
0.0155661
0.00880733
0.00739604
0.00698059
0.00695391
0.00719043
0.00768202
0.00849301
0.00979267
0.0118407
0.0100547
0.00752035
0.00684885
0.00677443
0.00704984
0.00766515
0.00873026
0.0104635
0.0131852
0.0168456
0.00800884
0.00685939
0.00660792
0.00684274
0.00750008
0.00870929
0.0107388
0.0139774
0.0191894
0.0284613
0.00702639
0.00651419
0.0065811
0.00715725
0.00835134
0.0105395
0.014553
0.0230161
0.0462968
0.0673061
0.00648538
0.00635364
0.006709
0.00769253
0.00974969
0.0142726
0.0264805
0.0616957
0.0437517
0.0231426
0.00930407
0.00971059
0.0110172
0.013037
0.0154466
0.0180179
0.0207358
0.0235761
0.0270005
0.0329363
0.0092107
0.00949435
0.0107533
0.0128644
0.0155059
0.0182485
0.0209161
0.0235389
0.0263858
0.030225
0.00941244
0.00935858
0.0103591
0.012294
0.0149627
0.0179556
0.0209067
0.0236244
0.0258312
0.0268872
0.0100706
0.00936361
0.00993123
0.0114383
0.01369
0.01635
0.0189131
0.0209309
0.0220406
0.0218802
0.0117894
0.00962842
0.009616
0.0105872
0.0121717
0.0140875
0.0159407
0.0173434
0.0179598
0.0177834
0.0170447
0.0105315
0.00961423
0.0100211
0.0109648
0.0121644
0.0133692
0.0143298
0.0147656
0.0147231
0.0333075
0.0130101
0.0103566
0.0100608
0.0104492
0.011091
0.0117472
0.0122546
0.0124707
0.0123161
0.0191632
0.0221321
0.0132663
0.0111214
0.0108256
0.0109993
0.011177
0.0112199
0.0111242
0.0107176
0.0190769
0.082854
0.0363457
0.0170408
0.0134704
0.0122519
0.0115966
0.0110363
0.0105754
0.0100572
0.0208701
0.0234885
0.0292681
0.0711364
0.0261765
0.0153013
0.012511
0.0111148
0.0103932
0.0101091
0.0459611
0.0201179
0.0146401
0.0154371
0.0151479
0.0150493
0.0151967
0.0166013
0.0172682
0.0212206
0.0438927
0.023769
0.017063
0.017693
0.0152149
0.0142017
0.0140915
0.015394
0.0160945
0.0197199
0.024987
0.032128
0.0274568
0.0189248
0.0141797
0.0129164
0.012718
0.0138308
0.014628
0.0179856
0.0182714
0.0233779
0.0761494
0.0166961
0.0129585
0.011966
0.0117033
0.0124439
0.0131181
0.0161312
0.0149911
0.0171782
0.0218299
0.0142554
0.0120357
0.0113682
0.0111969
0.0116228
0.0119692
0.0144493
0.0130886
0.014144
0.0152186
0.0127569
0.0111747
0.0108061
0.0109177
0.0113087
0.0113566
0.0132248
0.0118266
0.012372
0.0131414
0.0116592
0.0105165
0.0102739
0.0105955
0.0112161
0.011222
0.0125635
0.0109564
0.0110451
0.0120215
0.0109914
0.0102743
0.0100595
0.0103008
0.0110981
0.0113928
0.0124269
0.0100314
0.0105564
0.0120249
0.0108338
0.0103212
0.0102282
0.0102692
0.0109722
0.0116692
0.0127227
0.00941474
0.00986418
0.0111658
0.0102228
0.0102355
0.0104967
0.0105326
0.0110318
0.0119746
0.0133634
0.00903042
0.0097332
0.0105404
0.0101637
0.0105502
0.0108708
0.0110507
0.0114566
0.0124809
0.0145939
0.00846989
0.00973376
0.00957427
0.0100183
0.0113031
0.0114504
0.0116384
0.0124039
0.0136153
0.0171498
0.00942934
0.00974964
0.00986559
0.0117314
0.0140239
0.0123468
0.0119002
0.013057
0.0148265
0.0205127
0.0116235
0.0106514
0.0115739
0.015708
0.0184657
0.013598
0.0123243
0.0131505
0.014881
0.0209978
0.0136324
0.0125064
0.0141857
0.0215256
0.0219593
0.0132806
0.0122373
0.0130424
0.0143202
0.0183437
0.0163529
0.0152708
0.0150169
0.0192576
0.0130195
0.0109171
0.0107396
0.0115431
0.0126026
0.0149531
0.0217434
0.0155247
0.0140702
0.0111941
0.00918755
0.00886381
0.00923642
0.0100653
0.0109118
0.0122647
0.0129981
0.0116196
0.00976338
0.00809996
0.00771274
0.00799325
0.0085471
0.00924989
0.00980726
0.0104859
0.00844572
0.00792071
0.00736047
0.00726985
0.0076402
0.00830727
0.0088631
0.00923995
0.00939325
0.00956899
0.00676676
0.00687884
0.00713955
0.00787477
0.00954381
0.0121812
0.013688
0.0124008
0.0108819
0.010056
0.0183569
0.0283681
0.104937
0.034841
0.0186988
0.0129758
0.00969651
0.00866509
0.00793485
0.00835318
0.0196882
0.0233672
0.0316536
0.0543865
0.0302515
0.0333338
0.0146377
0.0128648
0.00985418
0.00870293
0.0213093
0.0233379
0.0256968
0.0262506
0.033478
0.025601
0.0225915
0.0160991
0.0146276
0.0109943
0.0210337
0.0212583
0.0243875
0.0216042
0.0264941
0.0203799
0.0258593
0.0172996
0.0195497
0.0140732
0.0206134
0.0209532
0.0235671
0.0221032
0.0245826
0.0210812
0.0232027
0.0190607
0.0198349
0.016605
0.0189096
0.0199545
0.0209874
0.0227949
0.0235371
0.0246882
0.0250484
0.0230695
0.0229478
0.0197493
0.0154126
0.0160242
0.0161566
0.0173214
0.0175956
0.0195083
0.0198678
0.0225235
0.0227901
0.0238284
0.0112725
0.0115224
0.011384
0.0118194
0.0116869
0.0123482
0.0121759
0.0131232
0.0128683
0.0140736
0.00833811
0.00832933
0.00828855
0.00832147
0.00830913
0.00837957
0.00838501
0.00848241
0.0084977
0.00860475
0.00651678
0.00649642
0.00651297
0.00650286
0.00654209
0.00653876
0.00659966
0.00660097
0.0066805
0.00668682
0.0103386
0.0106241
0.0104071
0.0101855
0.0100731
0.0102644
0.0110519
0.0100989
0.00703426
0.00578894
0.0106853
0.0106624
0.0104256
0.0101766
0.0100713
0.0103547
0.0113434
0.00994914
0.00691812
0.00575157
0.0109123
0.0108692
0.0106346
0.0103641
0.010259
0.0106689
0.0119247
0.00971771
0.0068075
0.00572593
0.0111637
0.0111244
0.010896
0.0106412
0.0105924
0.0112168
0.0128197
0.00939673
0.00669904
0.00571082
0.0114025
0.0114481
0.0112823
0.0110398
0.0110888
0.0122177
0.0142729
0.00899546
0.00659829
0.00571219
0.0117649
0.0117927
0.0116322
0.0115357
0.011974
0.0141505
0.0147395
0.00853968
0.00650477
0.00573167
0.0121505
0.0122716
0.0122995
0.0123062
0.0134043
0.0193961
0.0136098
0.00810261
0.00642193
0.00577556
0.0130811
0.0132799
0.0131252
0.013881
0.0187092
0.0236189
0.0113585
0.00765885
0.00635216
0.00585045
0.013939
0.0140449
0.0152603
0.0232815
0.179458
0.0184714
0.00967015
0.00725703
0.00630437
0.00597184
0.015407
0.0181522
0.0281623
0.0675493
0.0274896
0.0124353
0.00848749
0.00694287
0.00629842
0.00616722
0.0119645
0.0115015
0.0110903
0.0107287
0.010393
0.0100909
0.00982403
0.00957031
0.00930989
0.0081196
0.0118271
0.0114045
0.0110235
0.0106754
0.0103496
0.010062
0.00982328
0.00954732
0.00891066
0.00735492
0.0116767
0.0112958
0.0109426
0.0106048
0.0102876
0.0100181
0.00982221
0.00954771
0.00857123
0.0068918
0.0115424
0.0112167
0.0108958
0.0105607
0.0102441
0.00999128
0.00984464
0.00957448
0.00828188
0.00658411
0.011431
0.0111672
0.0108851
0.0105566
0.0102371
0.00999082
0.00988317
0.0096027
0.00801996
0.00635916
0.0113177
0.011115
0.010875
0.0105555
0.0102481
0.0100372
0.0100037
0.00970065
0.00779933
0.00619339
0.0112798
0.0111369
0.0109195
0.0105808
0.0102546
0.0100623
0.0101148
0.00978638
0.00760576
0.00606657
0.0112733
0.0111428
0.0109499
0.0106168
0.0103088
0.0101713
0.0103458
0.00993067
0.00743831
0.00596946
0.0114938
0.011326
0.0110294
0.0105988
0.0102622
0.0101822
0.0105182
0.0100269
0.00729064
0.00589461
0.0114108
0.0111219
0.0109035
0.0105833
0.010309
0.0103101
0.0108219
0.0101036
0.00715406
0.0058346
0.16013
0.0515692
0.0360983
0.0410585
0.044524
0.0406022
0.0324861
0.0269739
0.0200273
0.014056
0.125627
0.0517239
0.0347955
0.0378416
0.0427976
0.0414669
0.0345662
0.0276682
0.0207016
0.013882
0.1045
0.051688
0.0335323
0.0354659
0.0412578
0.0416153
0.0372669
0.0280974
0.0216114
0.0137024
0.090755
0.0511625
0.032264
0.0336424
0.0399634
0.0414493
0.0407817
0.0282135
0.0226376
0.0134979
0.0809565
0.0501362
0.0310487
0.0322363
0.0388804
0.0412515
0.0450315
0.0281001
0.0234762
0.0132566
0.0739237
0.0488735
0.0300191
0.0311875
0.0379605
0.041041
0.0486967
0.0280463
0.0232424
0.0130582
0.069461
0.0479591
0.0292994
0.0304326
0.0371214
0.0408108
0.0488776
0.0282871
0.0217622
0.0128125
0.0677192
0.0481249
0.028982
0.0298335
0.0361505
0.0408306
0.0446348
0.0289172
0.0191719
0.0128949
0.0688387
0.0495888
0.0290404
0.0292098
0.0347452
0.0405678
0.0388192
0.0288816
0.0180272
0.0125729
0.0724848
0.0516649
0.0285199
0.0286755
0.0326374
0.0374616
0.0324762
0.0258425
0.0155959
0.0139873
0.0770567
0.0601642
0.028491
0.0284869
0.0281194
0.0339688
0.0224311
0.0222294
0.0141578
0.0145413
0.0748082
0.0716151
0.0273494
0.0290498
0.0209275
0.0333029
0.0156478
0.019971
0.0127377
0.0140405
0.0688017
0.0866656
0.0273997
0.0252593
0.0172689
0.0283406
0.0135979
0.0186079
0.0124577
0.0136502
0.0645297
0.104739
0.0302746
0.0192749
0.0175745
0.0209163
0.0147304
0.017283
0.0142898
0.0128784
0.0625221
0.0904651
0.0344637
0.0167776
0.0206938
0.0178544
0.018528
0.01657
0.0176801
0.0134476
0.0578401
0.0587193
0.0364591
0.016527
0.0204979
0.0172854
0.0196763
0.0176755
0.0202677
0.0152497
0.0488218
0.055382
0.0455561
0.0190806
0.0174445
0.0182324
0.0167149
0.0204259
0.0186005
0.0171868
0.0356255
0.0886151
0.0389309
0.0284728
0.0141832
0.0168051
0.0126802
0.0154038
0.013467
0.0150491
0.0220237
0.0199205
0.0138952
0.012375
0.0110549
0.0106378
0.0101078
0.0102013
0.00992728
0.00994633
0.00792802
0.00788728
0.00831236
0.00853225
0.00868219
0.00805004
0.00831447
0.00762204
0.0075757
0.00719668
0.011519
0.0113482
0.0112131
0.0114072
0.0116691
0.0120806
0.0125839
0.013376
0.0143745
0.0156152
0.0121911
0.0119335
0.0119018
0.0121897
0.0126418
0.0132458
0.0140091
0.0150152
0.0161192
0.0179138
0.0126876
0.0125833
0.0127992
0.0132858
0.0139256
0.0146925
0.0155821
0.0165566
0.0178621
0.0192209
0.0133262
0.0134741
0.0139069
0.0144757
0.0151532
0.0157668
0.0165635
0.0171558
0.0184032
0.0190276
0.014562
0.0148285
0.0153136
0.0157533
0.0162411
0.0165573
0.0171315
0.0174896
0.0184808
0.0189991
0.0160629
0.0161389
0.0163807
0.0165834
0.0167537
0.0168406
0.017052
0.0172618
0.0176853
0.0182052
0.016676
0.0163623
0.0161077
0.0159935
0.0157051
0.0155699
0.0152873
0.0152815
0.0151429
0.0154121
0.0138517
0.0133822
0.012874
0.0125923
0.0121822
0.012037
0.0116845
0.0116511
0.0113739
0.0114624
0.00969415
0.00947872
0.00927626
0.00910259
0.0089423
0.00881041
0.00867316
0.00857955
0.00846801
0.00841498
0.0070863
0.00698666
0.00689995
0.00681535
0.00674829
0.00668049
0.00663323
0.00658228
0.00655565
0.00652178
0.00578743
0.00653397
0.00839535
0.0146234
0.0333746
0.0156146
0.0123647
0.0110584
0.00966312
0.00816642
0.00586679
0.00646241
0.00791319
0.0122824
0.0401566
0.0214258
0.0138212
0.0112684
0.00960362
0.00809939
0.00599204
0.00642551
0.00751245
0.0102631
0.0179999
0.0210658
0.0152258
0.0118096
0.00979624
0.00824452
0.00617962
0.00643431
0.00720618
0.00900492
0.0128678
0.017068
0.015753
0.0126559
0.0103126
0.00855918
0.00645546
0.0065051
0.00700249
0.0082033
0.0105587
0.0138442
0.015073
0.0134505
0.0111599
0.00914031
0.00685864
0.00665909
0.00691085
0.00769902
0.00921968
0.0116007
0.0137612
0.0138656
0.0122791
0.00990863
0.00745147
0.00692354
0.00694076
0.00741903
0.00840722
0.0100307
0.0120592
0.0133299
0.0132159
0.0111268
0.0083413
0.00733358
0.0071029
0.00732603
0.00795188
0.00904833
0.0106346
0.0122822
0.0133941
0.0120084
0.00973858
0.0079396
0.00741672
0.00740466
0.00774987
0.0084591
0.00956567
0.0109436
0.0126214
0.0119049
0.0121094
0.00881556
0.00791486
0.00766941
0.00777649
0.0081946
0.00894293
0.0100131
0.0116075
0.0124948
0.0164578
0.0100826
0.00862574
0.00814254
0.00803289
0.00820177
0.00863634
0.0093415
0.0102062
0.0120084
0.0251454
0.0119141
0.00959413
0.00887601
0.00857984
0.0085388
0.00873038
0.00914086
0.00952513
0.0109419
0.0593082
0.0140942
0.0107839
0.0099367
0.00954708
0.00933995
0.00932792
0.00950857
0.00957759
0.0105346
0.251191
0.0155198
0.0117143
0.0111453
0.0110005
0.0108012
0.0105933
0.0104951
0.010271
0.0107983
0.0434877
0.0143615
0.0118626
0.0118671
0.0124095
0.0128598
0.0127646
0.0122945
0.0116402
0.0116959
0.0216091
0.0126959
0.0115603
0.0120564
0.0131439
0.0146757
0.0159696
0.0156462
0.014159
0.0134731
0.0148314
0.01152
0.011368
0.012241
0.0136618
0.0159154
0.019676
0.0229581
0.0201078
0.0173457
0.0118562
0.0108197
0.0112603
0.0124813
0.0142507
0.0169158
0.0221851
0.0351645
0.0422295
0.0281274
0.010422
0.0103369
0.0111971
0.0127223
0.0148224
0.0178007
0.0227198
0.0368676
0.146292
0.0663339
0.00967532
0.00998826
0.0111473
0.0129385
0.0151885
0.0180358
0.0220815
0.0284441
0.0367684
0.04738
0.0113505
0.0115653
0.013164
0.018296
0.0395062
0.0442895
0.0263002
0.024248
0.0231804
0.0279901
0.0110868
0.011598
0.0134718
0.0185994
0.0313327
0.0334508
0.0251383
0.0239041
0.0232146
0.0291092
0.0109047
0.0116537
0.0136379
0.0178998
0.0246644
0.0273652
0.0239803
0.0234356
0.0229366
0.0288958
0.0111636
0.0118651
0.0138736
0.0171624
0.0214834
0.0235376
0.0225994
0.0227746
0.0224538
0.0281195
0.0118451
0.0122889
0.0142436
0.0166126
0.0195166
0.0209809
0.0211873
0.0219832
0.0218627
0.0271698
0.0127954
0.0130201
0.014585
0.0160402
0.0178693
0.0190728
0.0198448
0.0211206
0.0212356
0.0262462
0.0142102
0.0141551
0.0146826
0.015347
0.0164673
0.0175477
0.0185895
0.0201998
0.0205771
0.0253894
0.016406
0.015647
0.0145168
0.0146605
0.0154045
0.0163788
0.0174723
0.0192496
0.0198609
0.0245359
0.019832
0.0172616
0.0142351
0.0142216
0.0147962
0.015627
0.0165683
0.0183316
0.0190749
0.0235952
0.0264123
0.0187757
0.0141141
0.0143425
0.0147406
0.0152933
0.0158848
0.0174839
0.0182218
0.0225019
0.0107358
0.0177769
0.0232537
0.0448923
0.0975974
0.102603
0.0437378
0.0221015
0.0167803
0.0140572
0.00879874
0.0112167
0.0143607
0.0190648
0.0232496
0.0220906
0.0173725
0.014859
0.0137605
0.0129031
0.00877092
0.0103558
0.0130603
0.0165044
0.0188258
0.0184847
0.0171033
0.0160261
0.0154164
0.0147777
0.00956803
0.0103984
0.0128678
0.0178706
0.0259592
0.0272182
0.0220475
0.0201561
0.0190683
0.0190247
0.0114775
0.0115533
0.0132376
0.0185094
0.0445464
0.0419131
0.0253436
0.0231602
0.0219597
0.0242739
0.00582846
0.00593094
0.0060743
0.00627771
0.00651502
0.00681572
0.00717101
0.00752562
0.00807887
0.00836161
0.00604238
0.00612157
0.00624552
0.00641846
0.00660895
0.00682807
0.00708899
0.00728821
0.00768541
0.00778247
0.00633597
0.00638885
0.00650607
0.00667182
0.00685842
0.00709281
0.00730407
0.00759567
0.00785515
0.0081563
0.00674293
0.00676547
0.00689362
0.00708103
0.00732912
0.00766893
0.00792308
0.00861819
0.0086915
0.00994794
0.00728169
0.00726671
0.00741747
0.00765918
0.00805368
0.0085382
0.00916069
0.0102571
0.0103885
0.0135331
0.0123032
0.0120253
0.0117595
0.0113577
0.0109837
0.0107687
0.0107858
0.010377
0.0080845
0.0063159
0.012563
0.0123011
0.0118839
0.0113664
0.0109454
0.0106988
0.0106596
0.0103279
0.00832372
0.00647093
0.0122615
0.0120563
0.0117683
0.0113821
0.0110262
0.0107685
0.0106477
0.0103124
0.00859701
0.00666574
0.0123586
0.0121217
0.011795
0.0113898
0.0109994
0.0106819
0.0104747
0.0101776
0.00889298
0.00692525
0.0123596
0.0120426
0.0116741
0.011275
0.0109
0.0105854
0.0103574
0.010122
0.0092668
0.00729966
0.0123739
0.0119883
0.0115852
0.0111879
0.0108153
0.0104882
0.0102296
0.0100416
0.00966351
0.00786519
0.0123438
0.0118984
0.0114652
0.0110638
0.0106869
0.0103461
0.010066
0.00993722
0.01009
0.00888713
0.0122692
0.0117831
0.0113317
0.010928
0.0105464
0.0101929
0.00989371
0.0098005
0.0104294
0.0111634
0.0121737
0.0116733
0.0112221
0.0108267
0.0104532
0.0101053
0.00980151
0.00966258
0.0102843
0.0129714
0.0120742
0.0115867
0.0111543
0.0107785
0.010428
0.0101059
0.00981553
0.00960848
0.0097899
0.00969565
0.00846608
0.00988558
0.0109857
0.0117166
0.0126575
0.0155516
0.0153651
0.00888219
0.00662681
0.00574205
0.00902
0.0101469
0.0107778
0.0111471
0.0115896
0.0126759
0.0141012
0.00935822
0.0067336
0.00572281
0.00961236
0.0102699
0.0105457
0.010667
0.0108373
0.0114086
0.0123993
0.00968824
0.00685132
0.00572666
0.00994061
0.0102265
0.0103362
0.0103848
0.0104524
0.0107644
0.0115013
0.00991483
0.00697716
0.00574835
0.010073
0.0102178
0.0102554
0.0102423
0.0102451
0.0104458
0.0110086
0.00999481
0.00710101
0.00578655
0.0102317
0.0103288
0.0103224
0.0102591
0.0101985
0.0103031
0.0107438
0.0100589
0.00723351
0.00583925
0.0105214
0.0105799
0.0105007
0.0103565
0.0102325
0.0102775
0.0106328
0.0100958
0.00737037
0.0059052
0.0109172
0.0108873
0.010699
0.0104691
0.0102918
0.0102908
0.0105849
0.0101535
0.00752269
0.00598555
0.0112402
0.0110665
0.010793
0.0105337
0.0103546
0.0103471
0.0106095
0.0102464
0.0076911
0.00607974
0.0110912
0.0111551
0.0109418
0.0107111
0.0105404
0.0105089
0.0107064
0.010352
0.00788037
0.00618921
0.0382295
0.0365807
0.126353
0.0399404
0.026273
0.0251358
0.0280805
0.0428329
0.0259923
0.0174386
0.043257
0.0381579
0.0795824
0.0568093
0.0299032
0.0258859
0.0270302
0.0298834
0.0261722
0.0151983
0.049969
0.0406114
0.0604934
0.0852248
0.0336755
0.0268873
0.0272775
0.0265151
0.0248164
0.0144427
0.0589712
0.0429939
0.0532287
0.137396
0.0368361
0.0275688
0.027083
0.024401
0.022574
0.0144237
0.0711654
0.0451659
0.049207
0.17169
0.0394628
0.0283432
0.0269494
0.0234523
0.0209816
0.0145084
0.0880452
0.0473329
0.0461904
0.118659
0.0420935
0.0296264
0.0271692
0.0233374
0.0200912
0.0145742
0.113189
0.0494778
0.0435528
0.0820111
0.044794
0.0314887
0.0277161
0.0237203
0.0196019
0.0145651
0.153188
0.0512491
0.0412514
0.0631772
0.0466848
0.0338294
0.0285198
0.0243972
0.0193815
0.0144784
0.2016
0.0519655
0.039258
0.052436
0.0470916
0.0364162
0.029557
0.0252346
0.0193848
0.0143484
0.2027
0.0517254
0.0375516
0.0456322
0.0461514
0.0388368
0.0308553
0.0261268
0.0195965
0.0142011
0.0072528
0.00742456
0.00818547
0.00882616
0.00947413
0.0096705
0.00981094
0.00932817
0.00930687
0.00780197
0.0149693
0.010859
0.00968981
0.00987696
0.0103523
0.0107695
0.0112557
0.0114497
0.0115141
0.0113605
0.0255401
0.0239581
0.0132562
0.0120315
0.0120853
0.0126803
0.0135242
0.0153222
0.0155045
0.0142901
0.0311641
0.041831
0.0229338
0.0163726
0.0153009
0.016031
0.017539
0.0244426
0.0266308
0.0152234
0.0346615
0.0365583
0.0601428
0.0245433
0.0199973
0.0203867
0.0230366
0.0443971
0.033817
0.017003
0.00729646
0.00696999
0.00665974
0.00638756
0.00616607
0.00599455
0.00587057
0.00579363
0.00576161
0.00577326
0.0104019
0.0095619
0.0087425
0.00803175
0.00740303
0.00687838
0.0064868
0.00622801
0.00608157
0.00602593
0.0121202
0.0112147
0.0103831
0.00968249
0.0089599
0.00817134
0.00743408
0.00688254
0.00654304
0.00637592
0.0123386
0.0114563
0.0108156
0.0103858
0.00996617
0.00939618
0.00858595
0.00775655
0.00717241
0.00685619
0.0122623
0.011442
0.0107948
0.0103706
0.0100499
0.00976952
0.00935756
0.00867598
0.00796748
0.00749121
)
;

boundaryField
{
    left
    {
        type            calculated;
        value           nonuniform List<scalar> 
35
(
0.0577211
0.0657973
0.0723857
0.07599
0.0761363
0.0646615
0.0488001
0.0333442
0.0194926
0.00789196
0.11161
0.100722
0.0879582
0.076762
0.0676153
0.0604607
0.0553283
0.0523127
0.0515085
0.0530389
0.0346116
0.0392253
0.0451767
0.0528164
0.0623619
0.0739454
0.0875791
0.101433
0.111148
0.115015
0.00721522
0.0136532
0.0217809
0.0270755
0.0310774
)
;
    }
    right
    {
        type            calculated;
        value           nonuniform List<scalar> 
35
(
0.0140642
0.0129302
0.0148971
0.0195734
0.0262453
0.0321928
0.0348511
0.0353798
0.0349229
0.0341297
0.0333614
0.0326991
0.0320101
0.0310873
0.0297556
0.0278761
0.025311
0.0221107
0.0188188
0.0161414
0.0143882
0.0135071
0.0133399
0.0137433
0.0146241
0.016432
0.0204244
0.0260997
0.0243744
0.0192869
0.015172
0.0123901
0.010569
0.00960741
0.0100704
)
;
    }
    down
    {
        type            calculated;
        value           nonuniform List<scalar> 
40
(
0.0063848
0.0067503
0.00776568
0.00850856
0.00919708
0.00928682
0.00928423
0.00866335
0.00857111
0.00699187
0.00659019
0.00635824
0.00614112
0.00595746
0.00582171
0.00572988
0.00567212
0.00564351
0.00564324
0.00567424
0.00574257
0.00585561
0.00601108
0.00623469
0.0065058
0.00687246
0.00730465
0.00781625
0.00850832
0.00906993
0.0149567
0.0650464
0.124288
0.169828
0.0379905
0.038852
0.0353927
0.0980778
0.0267229
0.0167826
)
;
    }
    up
    {
        type            calculated;
        value           nonuniform List<scalar> 
40
(
0.00634378
0.00668634
0.00761262
0.00935111
0.0147481
0.0231124
0.0183453
0.0319155
0.0147619
0.0112072
0.00605758
0.00604462
0.00606606
0.00606007
0.00610082
0.00609839
0.00615865
0.00615884
0.00623737
0.00624221
0.00648426
0.00640573
0.00633632
0.00627047
0.00621712
0.0061658
0.006131
0.00609423
0.00607823
0.00605468
0.00678764
0.00682178
0.00735972
0.00776349
0.00798289
0.00744763
0.00771399
0.00697999
0.00693304
0.00657807
)
;
    }
    cylinder
    {
        type            calculated;
        value           nonuniform List<scalar> 
80
(
0.00940439
0.00941047
0.00990712
0.0113467
0.0162711
0.0337609
0.0224077
0.0141559
0.0137817
0.0181918
0.0193061
0.0132866
0.0124099
0.0136567
0.0201612
0.030067
0.0159991
0.00967927
0.00770001
0.00676352
0.00550347
0.00548068
0.00546983
0.0054708
0.00549041
0.00553291
0.00560842
0.0057298
0.00592427
0.00623965
0.00749683
0.00679
0.006386
0.00612639
0.00594111
0.0058075
0.00570716
0.00563229
0.00557654
0.00553385
0.00590068
0.0060231
0.00617771
0.00638602
0.00669017
0.00716322
0.0080599
0.0103341
0.0137493
0.0091478
0.00551568
0.00547441
0.00545958
0.00546446
0.00548732
0.00552468
0.00557479
0.00563781
0.00571293
0.00580023
0.00558995
0.00570967
0.00589339
0.00616634
0.00656758
0.00716433
0.00809189
0.00966338
0.0127885
0.0216117
0.0607095
0.0599147
0.0353595
0.036541
0.033794
0.0513727
0.0224189
0.013496
0.0108965
0.00982893
)
;
    }
    defaultFaces
    {
        type            empty;
    }
}


// ************************************************************************* //
