/*--------------------------------*- C++ -*----------------------------------*\
| =========                 |                                                 |
| \\      /  F ield         | OpenFOAM: The Open Source CFD Toolbox           |
|  \\    /   O peration     | Version:  2406                                  |
|   \\  /    A nd           | Website:  www.openfoam.com                      |
|    \\/     M anipulation  |                                                 |
\*---------------------------------------------------------------------------*/
FoamFile
{
    version     2.0;
    format      ascii;
    arch        "LSB;label=32;scalar=64";
    class       volScalarField;
    location    "1.7";
    object      p;
}
// * * * * * * * * * * * * * * * * * * * * * * * * * * * * * * * * * * * * * //

dimensions      [0 2 -2 0 0 0 0];

internalField   nonuniform List<scalar> 
1800
(
-0.530481
-0.535063
-0.534234
-0.526635
-0.514272
-0.505865
-0.497411
-0.485047
-0.472105
-0.476537
-0.56147
-0.566357
-0.566593
-0.561079
-0.554539
-0.547237
-0.538267
-0.527506
-0.513531
-0.529684
-0.605297
-0.602931
-0.60434
-0.600639
-0.592789
-0.583855
-0.57323
-0.560787
-0.545273
-0.54353
-0.655311
-0.646097
-0.637121
-0.631636
-0.624488
-0.614697
-0.602006
-0.586809
-0.56997
-0.555366
-0.686557
-0.682669
-0.677035
-0.66907
-0.658633
-0.644963
-0.627907
-0.608305
-0.587418
-0.566931
-0.743695
-0.73095
-0.722375
-0.710818
-0.695034
-0.674742
-0.650711
-0.624179
-0.596379
-0.568727
-0.803531
-0.785104
-0.77298
-0.75593
-0.732099
-0.702727
-0.670064
-0.635923
-0.60171
-0.568312
-0.868155
-0.845318
-0.828331
-0.802362
-0.766958
-0.726168
-0.683656
-0.641243
-0.599652
-0.558685
-0.937002
-0.908988
-0.883908
-0.844885
-0.794954
-0.741276
-0.687449
-0.633599
-0.580475
-0.5321
-1.00051
-0.967388
-0.929218
-0.873668
-0.808259
-0.741333
-0.674698
-0.608497
-0.548107
-0.494986
-0.893622
-0.89613
-0.897264
-0.898379
-0.899699
-0.901328
-0.903433
-0.90619
-0.909299
-0.911144
-0.859464
-0.858975
-0.859356
-0.860279
-0.861841
-0.864085
-0.867075
-0.870923
-0.875658
-0.880668
-0.821198
-0.817209
-0.816441
-0.816704
-0.817899
-0.820137
-0.82342
-0.827801
-0.833383
-0.840002
-0.778008
-0.77019
-0.767927
-0.76682
-0.766762
-0.768076
-0.770811
-0.775007
-0.780754
-0.787742
-0.730792
-0.719428
-0.715222
-0.711852
-0.709385
-0.708454
-0.709206
-0.711644
-0.71571
-0.720777
-0.678342
-0.667818
-0.661767
-0.655475
-0.649499
-0.644762
-0.641558
-0.639956
-0.639879
-0.640636
-0.623303
-0.618652
-0.611651
-0.602806
-0.593244
-0.583813
-0.575032
-0.567203
-0.560532
-0.55504
-0.588964
-0.582611
-0.572441
-0.560731
-0.548141
-0.534297
-0.519574
-0.504505
-0.489874
-0.477467
-0.546791
-0.550266
-0.545934
-0.534964
-0.521339
-0.504579
-0.485689
-0.465045
-0.444225
-0.426373
-0.52259
-0.52634
-0.52532
-0.515819
-0.500611
-0.48768
-0.471406
-0.450835
-0.428627
-0.406516
-0.913535
-1.06621
-1.16106
-1.14892
-0.953999
-0.642904
-0.375485
-0.184802
-0.0678411
-0.00741797
-0.91108
-1.13092
-1.27406
-1.28041
-1.05284
-0.690961
-0.385391
-0.177168
-0.057193
-0.00147934
-0.896125
-1.19451
-1.39615
-1.4261
-1.16349
-0.745734
-0.396686
-0.168722
-0.0454309
0.00535256
-0.863367
-1.2462
-1.52225
-1.57895
-1.28233
-0.805896
-0.409794
-0.160346
-0.0332198
0.0125588
-0.80498
-1.27351
-1.63533
-1.73486
-1.40539
-0.870475
-0.425715
-0.153566
-0.021932
0.0190753
-0.720001
-1.27054
-1.72152
-1.87826
-1.52883
-0.938333
-0.445387
-0.149889
-0.0133056
0.0236043
-0.612113
-1.23065
-1.77582
-1.99939
-1.64509
-1.00691
-0.469309
-0.150483
-0.00875572
0.0252829
-0.489942
-1.15241
-1.78986
-2.08684
-1.74437
-1.07235
-0.497714
-0.156707
-0.00908678
0.0240536
-0.371672
-1.03631
-1.7596
-2.13577
-1.81994
-1.13115
-0.530108
-0.170014
-0.0149341
0.0202612
-0.285839
-0.894239
-1.6905
-2.13156
-1.87306
-1.18306
-0.565344
-0.19045
-0.0266878
0.0141224
-0.195627
-0.768726
-1.63323
-2.137
-1.88306
-1.19935
-0.588118
-0.215337
-0.0468718
0.00355177
-0.233158
-0.721244
-1.56991
-2.03856
-1.78738
-1.15794
-0.59859
-0.252978
-0.0806188
-0.0120111
-0.282359
-0.706943
-1.46306
-1.87732
-1.65357
-1.11432
-0.620214
-0.298331
-0.118101
-0.0273536
-0.326225
-0.67725
-1.31069
-1.66244
-1.50093
-1.08222
-0.663727
-0.358122
-0.160175
-0.0427206
-0.341716
-0.618985
-1.12702
-1.43788
-1.35832
-1.06961
-0.728603
-0.432853
-0.207253
-0.0575719
-0.329263
-0.549683
-0.95259
-1.22938
-1.24225
-1.08083
-0.80471
-0.507882
-0.252834
-0.070083
-0.293421
-0.471091
-0.78899
-1.04713
-1.15411
-1.11229
-0.882693
-0.573002
-0.286242
-0.0770713
-0.245174
-0.392117
-0.644252
-0.902031
-1.09131
-1.12701
-0.920807
-0.605939
-0.304339
-0.0803762
-0.181852
-0.334113
-0.575542
-0.805464
-1.02941
-1.11424
-0.924155
-0.614007
-0.310554
-0.0824121
-0.15161
-0.299285
-0.569614
-0.840998
-1.03056
-1.08797
-0.893505
-0.604296
-0.306245
-0.0828176
-0.405384
-0.448754
-0.480746
-0.505198
-0.520933
-0.530735
-0.530973
-0.516248
-0.463257
-0.436244
-0.293995
-0.3447
-0.383799
-0.416855
-0.440868
-0.455357
-0.45206
-0.442157
-0.416883
-0.41442
-0.199349
-0.252864
-0.294985
-0.330956
-0.358511
-0.381234
-0.385941
-0.391824
-0.382194
-0.380644
-0.116979
-0.171126
-0.216125
-0.254958
-0.28636
-0.315432
-0.331028
-0.348101
-0.350102
-0.357442
-0.0467631
-0.100969
-0.14775
-0.189352
-0.223554
-0.256023
-0.278607
-0.301357
-0.314095
-0.331322
0.0118569
-0.041953
-0.0891078
-0.131586
-0.167206
-0.200446
-0.226495
-0.25218
-0.272065
-0.295449
0.0596831
0.00672926
-0.0400452
-0.0818644
-0.117571
-0.149808
-0.176987
-0.202776
-0.225547
-0.249787
0.0975696
0.0453785
-0.00110311
-0.0416411
-0.0766552
-0.106804
-0.132775
-0.156022
-0.177321
-0.197877
0.12099
0.0695754
0.022876
-0.0167258
-0.0510345
-0.078652
-0.101954
-0.120529
-0.136012
-0.148494
0.132053
0.0798156
0.0327863
-0.00757577
-0.0427425
-0.0708611
-0.0943897
-0.111489
-0.124466
-0.132375
0.786257
0.729654
0.664398
0.595329
0.521279
0.439635
0.350524
0.259439
0.176352
0.122587
0.620865
0.560693
0.493561
0.420448
0.339615
0.24906
0.149843
0.0487758
-0.0426288
-0.103095
0.43894
0.377432
0.309348
0.233792
0.148814
0.0527395
-0.0527238
-0.160175
-0.256943
-0.32207
0.263889
0.200539
0.130108
0.0514011
-0.0373086
-0.137476
-0.247143
-0.359235
-0.45967
-0.524708
0.104602
0.038606
-0.035032
-0.117277
-0.209765
-0.313604
-0.425221
-0.540902
-0.639766
-0.704203
-0.0394274
-0.107941
-0.184042
-0.268413
-0.362339
-0.467648
-0.579489
-0.69189
-0.789284
-0.851505
-0.166339
-0.235837
-0.312516
-0.397727
-0.492934
-0.596252
-0.704833
-0.812509
-0.904795
-0.961732
-0.278887
-0.347643
-0.423391
-0.505587
-0.592029
-0.688903
-0.793777
-0.894907
-0.978233
-1.02899
-0.370498
-0.434006
-0.503654
-0.581486
-0.666612
-0.76082
-0.854886
-0.942352
-1.01148
-1.05562
-0.443038
-0.502437
-0.568116
-0.641453
-0.718838
-0.798537
-0.87904
-0.951891
-1.00611
-1.04422
1.75458
1.76682
1.77974
1.79228
1.80377
1.81374
1.82162
1.82679
1.83106
1.84775
1.71405
1.7243
1.73461
1.7441
1.75218
1.75838
1.76215
1.76342
1.76464
1.77876
1.6546
1.66206
1.66883
1.6742
1.67775
1.67892
1.67721
1.67299
1.66944
1.67922
1.57745
1.58159
1.58391
1.58407
1.58184
1.57656
1.56772
1.55622
1.54602
1.55001
1.48335
1.48333
1.48029
1.47431
1.46537
1.45272
1.43577
1.41586
1.39775
1.39509
1.37569
1.3712
1.36194
1.3486
1.33155
1.30997
1.28336
1.25355
1.22601
1.21581
1.25582
1.24626
1.23037
1.20933
1.18369
1.15247
1.11521
1.07434
1.03593
1.01802
1.1304
1.1151
1.09101
1.06041
1.02444
0.982142
0.933199
0.880668
0.83117
0.804255
1.00418
0.982315
0.949153
0.908206
0.860951
0.80631
0.744172
0.678539
0.617225
0.580815
0.888969
0.852872
0.804855
0.750342
0.690431
0.623162
0.548196
0.470114
0.397794
0.352409
1.63784
1.62582
1.61827
1.59973
1.59049
1.58366
1.58318
1.59498
1.62481
1.70009
1.63554
1.62312
1.61618
1.59815
1.58845
1.57951
1.57791
1.58606
1.61084
1.67607
1.6337
1.62045
1.61415
1.59637
1.58613
1.57449
1.57143
1.5743
1.5917
1.64123
1.6323
1.61786
1.61223
1.59441
1.58349
1.56861
1.56383
1.55966
1.56781
1.5952
1.63134
1.61534
1.61043
1.5923
1.58051
1.5619
1.55508
1.54213
1.53966
1.53747
1.63079
1.61282
1.6088
1.59004
1.57715
1.55438
1.54505
1.52165
1.50775
1.46785
1.63063
1.61028
1.60737
1.58761
1.57336
1.54606
1.53366
1.49829
1.47262
1.3859
1.63083
1.60777
1.60622
1.58496
1.56911
1.53695
1.52103
1.47225
1.43407
1.29286
1.63133
1.60545
1.60565
1.58223
1.56447
1.52692
1.50728
1.44378
1.39152
1.18815
1.63204
1.6034
1.60598
1.57987
1.55971
1.51611
1.49252
1.41402
1.34761
1.08098
1.63354
1.60125
1.60458
1.57593
1.55355
1.50381
1.4749
1.38083
1.29258
0.977752
1.63681
1.6008
1.60784
1.57433
1.5505
1.49198
1.45745
1.3549
1.24483
0.97588
1.64134
1.60189
1.61058
1.57301
1.54806
1.48303
1.44056
1.33667
1.20671
0.976584
1.64685
1.60469
1.61371
1.57268
1.54427
1.48048
1.42433
1.3242
1.1764
0.97163
1.65388
1.60851
1.61379
1.57205
1.53728
1.48275
1.40804
1.31442
1.15204
0.962062
1.66337
1.61136
1.6106
1.56554
1.52696
1.48456
1.39169
1.30604
1.13525
0.951746
1.67662
1.61442
1.60491
1.54886
1.51375
1.48496
1.37554
1.29977
1.12751
0.945428
1.69621
1.61981
1.60264
1.53855
1.50068
1.48495
1.35935
1.2994
1.12805
0.945131
1.71025
1.62283
1.60231
1.53477
1.49
1.48453
1.34618
1.30513
1.13004
0.949752
1.75583
1.62242
1.59847
1.52858
1.48931
1.4842
1.34352
1.31802
1.13324
0.963977
0.772279
0.635676
0.472921
0.315445
0.172304
0.0427866
-0.0738276
-0.178505
-0.268871
-0.34426
0.731221
0.619821
0.491166
0.362008
0.241272
0.129822
0.0263456
-0.0693948
-0.155265
-0.230688
0.718619
0.617144
0.508057
0.398925
0.294305
0.195542
0.102132
0.0147972
-0.0651434
-0.136927
0.720055
0.624103
0.526567
0.432114
0.34119
0.253716
0.169279
0.089004
0.0135835
-0.0553853
0.72828
0.639
0.550148
0.46595
0.384966
0.305729
0.227769
0.152324
0.0804528
0.0137039
0.740241
0.658472
0.576758
0.499133
0.424231
0.35012
0.276419
0.204367
0.135462
0.0708624
0.755278
0.680355
0.604328
0.530766
0.459229
0.388073
0.317084
0.24732
0.180133
0.117493
0.772114
0.702552
0.630761
0.559648
0.489741
0.420011
0.351128
0.283552
0.217974
0.155538
0.784438
0.717154
0.647743
0.577849
0.508032
0.437979
0.369174
0.301947
0.237754
0.177612
0.801604
0.735244
0.666734
0.596229
0.524649
0.453496
0.3838
0.316179
0.251323
0.189721
-1.53212
-1.47628
-1.39458
-1.30283
-1.21375
-1.13334
-1.06269
-1.00306
-0.954188
-0.916528
-1.63352
-1.58334
-1.50867
-1.42011
-1.33234
-1.25332
-1.18424
-1.12436
-1.07455
-1.03624
-1.68691
-1.64266
-1.5769
-1.49466
-1.41175
-1.3344
-1.26529
-1.20487
-1.15323
-1.1119
-1.69748
-1.65949
-1.60467
-1.53191
-1.45389
-1.37863
-1.30994
-1.24922
-1.19616
-1.15168
-1.67463
-1.64297
-1.60031
-1.53919
-1.46833
-1.3966
-1.32898
-1.2679
-1.21357
-1.16627
-1.63007
-1.60443
-1.57316
-1.52431
-1.46269
-1.39643
-1.33096
-1.26977
-1.21434
-1.16521
-1.57497
-1.55466
-1.53247
-1.49531
-1.44443
-1.38581
-1.32468
-1.26504
-1.20973
-1.16102
-1.51708
-1.50107
-1.48549
-1.45823
-1.41804
-1.36797
-1.31233
-1.25511
-1.20009
-1.15092
-1.46068
-1.44799
-1.43693
-1.41747
-1.38695
-1.34606
-1.29766
-1.24506
-1.19253
-1.14734
-1.40762
-1.3973
-1.38918
-1.37522
-1.35234
-1.31957
-1.27791
-1.22927
-1.17616
-1.1272
-1.35726
-1.34864
-1.34289
-1.33291
-1.31601
-1.29054
-1.25641
-1.21516
-1.16825
-1.11614
-1.30859
-1.30053
-1.29786
-1.29134
-1.27913
-1.2595
-1.23162
-1.1963
-1.15443
-1.10311
-1.2602
-1.25159
-1.25253
-1.24903
-1.24037
-1.22498
-1.2018
-1.17106
-1.13283
-1.08278
-1.204
-1.20473
-1.20382
-1.2023
-1.19599
-1.18343
-1.16383
-1.13736
-1.10351
-1.05845
-1.13972
-1.15281
-1.15182
-1.15077
-1.14628
-1.13597
-1.11924
-1.09696
-1.06916
-1.03319
-1.08775
-1.09678
-1.09861
-1.09884
-1.09617
-1.08869
-1.07541
-1.05721
-1.03576
-1.00937
-1.03954
-1.04827
-1.05094
-1.05177
-1.05049
-1.04608
-1.03727
-1.02358
-1.00717
-0.989255
-0.997569
-1.00559
-1.00812
-1.00921
-1.00893
-1.00702
-1.00311
-0.99566
-0.983394
-0.970318
-0.959918
-0.966628
-0.968731
-0.96972
-0.96981
-0.968907
-0.967637
-0.966603
-0.96253
-0.953323
-0.92613
-0.930975
-0.932585
-0.933545
-0.934156
-0.934478
-0.934801
-0.935432
-0.935734
-0.933047
-0.94465
-0.724542
-0.678972
-0.664423
-0.615883
-0.510107
-0.37659
-0.243686
-0.131533
-0.0364341
-0.922037
-0.716664
-0.685647
-0.673874
-0.620492
-0.506112
-0.370831
-0.238116
-0.127225
-0.0347379
-0.904654
-0.71959
-0.699915
-0.688621
-0.628327
-0.504441
-0.365732
-0.232449
-0.122493
-0.0327153
-0.895124
-0.734999
-0.722576
-0.709447
-0.640035
-0.505896
-0.361608
-0.226807
-0.11745
-0.0305133
-0.892099
-0.761508
-0.753516
-0.737199
-0.656502
-0.510481
-0.35855
-0.221162
-0.112076
-0.0281765
-0.892792
-0.797162
-0.793181
-0.773056
-0.679172
-0.518497
-0.35671
-0.215478
-0.106316
-0.0256915
-0.895178
-0.840681
-0.842639
-0.818411
-0.709487
-0.530605
-0.356315
-0.209714
-0.100085
-0.0229994
-0.900192
-0.889497
-0.902689
-0.875285
-0.749627
-0.54783
-0.357693
-0.203833
-0.0932593
-0.019991
-0.904515
-0.943976
-0.974906
-0.947206
-0.802075
-0.571526
-0.361249
-0.197811
-0.0857077
-0.0165135
-0.909074
-1.00335
-1.0608
-1.03759
-0.869848
-0.603018
-0.367247
-0.19156
-0.0772913
-0.0123851
-0.935743
-0.761891
-0.702474
-0.657164
-0.594759
-0.49388
-0.36468
-0.237112
-0.128589
-0.0353975
-0.92332
-0.755298
-0.694993
-0.655283
-0.596413
-0.491893
-0.371791
-0.240566
-0.131541
-0.0367259
-0.921274
-0.74746
-0.689783
-0.656477
-0.602233
-0.493355
-0.36848
-0.241652
-0.132303
-0.0368541
-0.923097
-0.738328
-0.682869
-0.65598
-0.604744
-0.499852
-0.373319
-0.243982
-0.133396
-0.0372399
-0.937096
-0.726584
-0.673581
-0.655148
-0.607353
-0.506825
-0.377405
-0.245868
-0.133842
-0.0374288
-0.879485
-0.993185
-1.06394
-1.1001
-1.10487
-1.09435
-1.06907
-1.04427
-1.01401
-0.989292
-0.876835
-0.990689
-1.0592
-1.09182
-1.09296
-1.07799
-1.05085
-1.0218
-0.991665
-0.962301
-0.879563
-0.993996
-1.06211
-1.09372
-1.09497
-1.07918
-1.05606
-1.02687
-1.00376
-0.978302
-0.885993
-1.00219
-1.07139
-1.10369
-1.10736
-1.09395
-1.07699
-1.0514
-1.03623
-1.01472
-0.896728
-1.01538
-1.08693
-1.12162
-1.12975
-1.12214
-1.11241
-1.0951
-1.08581
-1.06809
1.22168
1.20912
1.19028
1.16882
1.14567
1.11983
1.09101
1.06156
1.03666
1.02758
1.32746
1.32355
1.31441
1.30231
1.28805
1.27101
1.25103
1.23008
1.21275
1.20936
1.42982
1.4304
1.42726
1.42187
1.41476
1.40544
1.39365
1.38068
1.37026
1.37236
1.52283
1.52708
1.52911
1.52968
1.52892
1.52632
1.52142
1.51491
1.51004
1.51716
1.60461
1.61207
1.61832
1.62359
1.62779
1.63041
1.63094
1.62952
1.62893
1.64013
1.67256
1.68261
1.69233
1.70151
1.70984
1.71683
1.72184
1.72443
1.72685
1.74101
1.72518
1.73726
1.74971
1.76196
1.77349
1.78383
1.79223
1.7977
1.80185
1.81713
1.76087
1.77432
1.78867
1.80307
1.8169
1.82971
1.84075
1.84865
1.85417
1.86741
1.77814
1.7921
1.80721
1.82244
1.83711
1.85082
1.86295
1.87215
1.87835
1.88969
1.7761
1.78963
1.80418
1.81866
1.83234
1.8448
1.8554
1.8631
1.86898
1.88532
-0.751306
-0.790396
-0.839945
-0.899925
-0.970794
-1.05178
-1.1427
-1.23757
-1.32252
-1.38224
-0.54482
-0.586684
-0.637707
-0.698388
-0.769727
-0.852244
-0.943342
-1.0394
-1.12564
-1.18698
-0.308769
-0.354193
-0.407521
-0.469435
-0.540909
-0.622639
-0.713159
-0.807122
-0.893067
-0.955084
-0.0592333
-0.107839
-0.163238
-0.22593
-0.296872
-0.376891
-0.464742
-0.554808
-0.637376
-0.6961
0.185112
0.13502
0.079308
0.0177619
-0.0505372
-0.126539
-0.209392
-0.293889
-0.371192
-0.42323
0.410576
0.362098
0.309071
0.251374
0.18809
0.118214
0.0423785
-0.0345817
-0.104464
-0.148695
0.611718
0.56796
0.520559
0.46929
0.413221
0.351352
0.284207
0.216265
0.155138
0.119075
0.792983
0.755521
0.715201
0.671566
0.623595
0.57034
0.512318
0.453732
0.401707
0.373468
0.96315
0.931322
0.896659
0.859454
0.818746
0.773557
0.724348
0.674924
0.631838
0.610682
1.11838
1.0915
1.06027
1.02794
0.993997
0.957081
0.917197
0.877354
0.843353
0.828341
1.71649
1.65752
1.6339
1.60144
1.58309
1.57028
1.55243
1.5328
1.46979
1.36672
1.70247
1.65474
1.63299
1.60414
1.58721
1.57659
1.56201
1.54636
1.50334
1.44073
1.69026
1.65132
1.63274
1.60679
1.59016
1.5816
1.57051
1.56174
1.53692
1.5112
1.67971
1.64766
1.6319
1.6083
1.59228
1.5856
1.5778
1.5757
1.56632
1.57121
1.67062
1.64405
1.63074
1.60773
1.59364
1.58845
1.5835
1.58716
1.59074
1.62086
1.66275
1.64058
1.62934
1.60605
1.59441
1.59012
1.58752
1.59588
1.61023
1.66016
1.65587
1.63722
1.62741
1.60458
1.59469
1.59076
1.58986
1.60167
1.62449
1.68918
1.64983
1.63403
1.62513
1.60343
1.59441
1.59044
1.59055
1.60445
1.63317
1.70784
1.64478
1.63114
1.62274
1.60232
1.59356
1.58915
1.58961
1.60421
1.63612
1.71597
1.64083
1.62848
1.62045
1.60111
1.59221
1.58688
1.58712
1.60104
1.6333
1.71339
1.83633
1.66901
1.6267
1.58292
1.55988
1.54285
1.51571
1.47899
1.38076
1.2773
1.79747
1.67223
1.63462
1.58961
1.56342
1.54471
1.51617
1.4794
1.3798
1.2618
1.77527
1.6699
1.63489
1.59223
1.56646
1.54818
1.52031
1.48497
1.38922
1.263
1.7527
1.66433
1.63579
1.59579
1.57154
1.55421
1.52797
1.49561
1.40457
1.27356
1.73298
1.66036
1.63591
1.59865
1.57717
1.56162
1.5387
1.51019
1.42659
1.29402
1.02183
0.912103
0.77444
0.603072
0.400424
0.172549
-0.0686606
-0.307706
-0.529775
-0.723253
1.00901
0.901014
0.766005
0.599246
0.402784
0.180314
-0.0586838
-0.298878
-0.523923
-0.72003
1.02199
0.912062
0.774415
0.607403
0.412403
0.190868
-0.0489739
-0.291899
-0.520519
-0.720029
1.0495
0.930071
0.785393
0.616904
0.422274
0.200389
-0.0412451
-0.287528
-0.520225
-0.723607
1.09705
0.958185
0.799329
0.625704
0.429564
0.206722
-0.0367357
-0.286366
-0.52337
-0.731047
)
;

boundaryField
{
    left
    {
        type            zeroGradient;
    }
    right
    {
        type            fixedValue;
        value           uniform 0;
    }
    down
    {
        type            zeroGradient;
    }
    up
    {
        type            zeroGradient;
    }
    cylinder
    {
        type            zeroGradient;
    }
    defaultFaces
    {
        type            empty;
    }
}


// ************************************************************************* //
