/*--------------------------------*- C++ -*----------------------------------*\
| =========                 |                                                 |
| \\      /  F ield         | OpenFOAM: The Open Source CFD Toolbox           |
|  \\    /   O peration     | Version:  2406                                  |
|   \\  /    A nd           | Website:  www.openfoam.com                      |
|    \\/     M anipulation  |                                                 |
\*---------------------------------------------------------------------------*/
FoamFile
{
    version     2.0;
    format      ascii;
    arch        "LSB;label=32;scalar=64";
    class       surfaceScalarField;
    location    "1.7";
    object      phi;
}
// * * * * * * * * * * * * * * * * * * * * * * * * * * * * * * * * * * * * * //

dimensions      [0 3 -1 0 0 0 0];

oriented        oriented;

internalField   nonuniform List<scalar> 
3485
(
-0.00161189
0.0015565
5.53915e-05
-0.00377522
0.00208791
7.54246e-05
-0.00535747
0.00177219
-0.000189944
-0.00596574
0.000961475
-0.000353208
-0.00471026
-0.000757489
-0.000497989
-0.000134896
-0.0044063
-0.000169064
0.00894146
-0.0100911
0.00101477
0.0229281
-0.0172989
0.00331225
0.0418267
-0.0256061
0.00670753
-0.0310851
0.0105118
0.0624
-0.000973573
0.00253007
-0.00163449
0.00274883
-0.00200563
0.00214333
-0.000717069
-0.000327088
0.00437236
-0.00584692
0.0147853
-0.0148192
0.0310089
-0.0263148
0.0530123
-0.0393022
0.0806391
-0.0532329
-0.0622561
0.11181
-1.74106e-05
0.00254748
0.000102394
0.00262902
0.00197909
0.000266631
0.00825456
-0.00660255
0.0206789
-0.0182713
0.0395012
-0.0336415
0.0641498
-0.0509634
0.0933979
-0.0685503
0.12585
-0.0856851
-0.0977543
0.161348
0.00112089
0.00142659
0.00286314
0.000886769
0.00874496
-0.00561518
0.0214531
-0.0193107
0.041719
-0.0385371
0.068451
-0.0603735
0.0994961
-0.0820085
0.132418
-0.101472
0.16472
-0.117987
-0.129951
0.196917
0.000752441
0.000674152
0.00499556
-0.00335635
0.016683
-0.0173026
0.0370981
-0.0397258
0.064803
-0.066242
0.0965789
-0.0921494
0.128935
-0.114365
0.159191
-0.131728
0.185609
-0.144404
-0.152898
0.208555
0.00122535
-0.000551195
0.00949119
-0.0116222
0.0277201
-0.0355316
0.0547383
-0.0667439
0.0860314
-0.097535
0.116765
-0.122883
0.143719
-0.141319
0.165614
-0.153623
0.182625
-0.161415
-0.166143
0.195871
0.00264802
-0.00319922
0.0157668
-0.024741
0.0397725
-0.0595372
0.0693896
-0.096361
0.098127
-0.126272
0.122079
-0.146835
0.140322
-0.159562
0.153784
-0.167085
0.163943
-0.171574
-0.174383
0.172182
0.00479399
-0.00799321
0.0224387
-0.0423857
0.0488917
-0.0859902
0.0756339
-0.123103
0.0973737
-0.148012
0.113132
-0.162593
0.124249
-0.17068
0.13248
-0.175316
0.13902
-0.178113
-0.179916
0.144553
0.00696677
-0.01496
0.0273421
-0.0627611
0.0518658
-0.110514
0.0724189
-0.143656
0.0868887
-0.162482
0.0965202
-0.172224
0.103161
-0.177321
0.108129
-0.180284
0.112178
-0.182163
-0.183388
0.115651
0.00883555
-0.0237955
0.0290718
-0.0829973
0.0488192
-0.130261
0.0630439
-0.157881
0.072042
-0.17148
0.0775965
-0.177779
0.0813765
-0.181101
0.0843811
-0.183288
0.0867694
-0.184551
0.0882258
-0.184845
-0.000347847
0.00576028
-0.00541244
-0.00168052
0.0183213
-0.0169886
-0.00374667
0.0278409
-0.0257747
-0.00613325
0.0340011
-0.0316145
-0.00856578
0.0379096
-0.0354771
-0.0109103
0.0405013
-0.0381568
-0.0131159
0.0423099
-0.0401044
-0.0151795
0.0436236
-0.04156
-0.0171182
0.044615
-0.0426762
0.0453996
-0.0188363
-0.0436815
0.000438059
0.00532223
0.000531883
0.0182275
-0.000140604
0.0285134
-0.00137766
0.0352382
-0.0028871
0.039419
-0.00448027
0.0420945
-0.00605614
0.0438858
-0.00755604
0.0451235
-0.00893625
0.0459952
0.0466333
-0.0101699
0.00121409
0.00410813
0.0030358
0.0164058
0.00423029
0.0273189
0.00466272
0.0348058
0.00460987
0.0394719
0.00434131
0.0423631
0.00402636
0.0442008
0.00376072
0.0453891
0.00360099
0.0461549
0.0466693
0.00356493
0.0017674
0.00234073
0.0054078
0.0127654
0.00892518
0.0238015
0.0116417
0.0320893
0.0136601
0.0374535
0.0152772
0.040746
0.0167411
0.0427369
0.0182175
0.0439127
0.0198238
0.0445486
0.0448143
0.0216788
0.00173454
0.000606194
0.00672393
0.00777598
0.0126086
0.0179168
0.0180302
0.0266677
0.0226719
0.0328118
0.026705
0.0367128
0.0304166
0.0390253
0.0340651
0.0402642
0.03787
0.0407437
0.0405944
0.0420899
0.00111592
-0.000509721
0.00614707
0.00274482
0.0135584
0.0105054
0.0214552
0.0187709
0.0289223
0.0253447
0.0357785
0.0298567
0.0421811
0.0326227
0.0483923
0.0340531
0.0547047
0.0344313
0.0337554
0.0615436
0.000772924
-0.00128265
0.0042221
-0.000704352
0.0111447
0.00358281
0.0199367
0.00997896
0.02922
0.0160614
0.03839
0.0206867
0.0473007
0.0237119
0.0560475
0.0253063
0.0648697
0.0256091
0.0243199
0.0743052
0.000843962
-0.00212661
0.00225831
-0.0021187
0.00625046
-0.000409348
0.0133092
0.00292026
0.0220352
0.00733531
0.0314946
0.0112273
0.0412864
0.0139201
0.0513273
0.0152655
0.0617449
0.0151915
0.013086
0.0729788
-0.000584262
-0.00154235
-0.00086261
-0.00184035
-9.44638e-05
-0.00117749
0.00292808
-0.000102285
0.00836928
0.00189412
0.0155664
0.00403016
0.024039
0.00544754
0.0335952
0.00570927
0.0442294
0.00455724
0.00145638
0.055859
-0.00148695
-0.00325188
-0.00461932
-0.00507481
-0.00367868
0.000182414
0.00664472
0.0156662
0.026931
0.0388992
-0.0218102
0.430627
-0.427653
-0.0309989
0.417933
-0.408745
-0.0415048
0.259202
-0.248696
-0.0316389
0.0481283
-0.0579942
0.0030997
-0.171041
0.136302
0.0443663
-0.292684
0.251418
0.0829595
-0.329978
0.291385
0.111374
-0.290824
0.26241
0.133111
-0.249761
0.228023
-0.139145
0.128539
-0.0156425
0.4361
-0.0306003
0.432891
-0.0430441
0.271645
-0.0304419
0.0355261
0.00738659
-0.208869
0.0510857
-0.336383
0.0901037
-0.368996
0.117781
-0.318502
0.139062
-0.271041
-0.149914
-0.00266278
0.442328
-0.020269
0.450497
-0.033406
0.284782
-0.0185878
0.020708
0.0213291
-0.248786
0.0670483
-0.382103
0.104866
-0.406814
0.129449
-0.343085
0.148065
-0.289657
-0.159906
0.0203031
0.443703
0.000797244
0.470003
-0.0125041
0.298084
0.00321252
0.00499136
0.0436877
-0.289262
0.0915533
-0.429968
0.128366
-0.443626
0.148523
-0.363243
0.161927
-0.303061
-0.167648
0.0500642
0.435729
0.0310705
0.488997
0.0173825
0.311772
0.0316418
-0.00926796
0.0709216
-0.328541
0.120216
-0.479263
0.157982
-0.481392
0.175222
-0.380483
0.18209
-0.30993
-0.171615
0.0834957
0.413777
0.0689015
0.503591
0.0557605
0.324913
0.0669231
-0.0204306
0.102961
-0.364579
0.150311
-0.526613
0.188966
-0.520047
0.206563
-0.39808
0.208309
-0.311676
-0.1713
0.117344
0.370738
0.111485
0.50945
0.0991686
0.337229
0.10869
-0.0299518
0.142361
-0.39825
0.184201
-0.568453
0.219515
-0.555361
0.238272
-0.416837
0.23805
-0.311453
-0.167894
0.145222
0.298495
0.15366
0.501011
0.143624
0.347266
0.152637
-0.0389648
0.185696
-0.431309
0.22269
-0.605447
0.251123
-0.583794
0.26814
-0.433854
0.267834
-0.311147
-0.163462
0.163809
0.190545
0.194658
0.470163
0.185457
0.356467
0.192663
-0.0461708
0.22484
-0.463486
0.260201
-0.640808
0.283461
-0.607054
0.296154
-0.446547
0.295225
-0.310219
-0.159427
0.158237
0.0712071
0.218294
0.410106
0.219937
0.354823
0.227395
-0.0536283
0.256639
-0.49273
0.291487
-0.675657
0.313298
-0.628864
0.322068
-0.455317
0.319244
-0.307395
-0.156148
0.273284
0.0304071
-0.232484
0.365018
0.318372
0.451099
0.268742
0.553974
-0.156504
0.625221
-0.563976
0.647374
-0.697811
0.627324
-0.608814
0.589816
-0.41781
0.547692
-0.265271
-0.130762
0.434914
0.0782471
-0.482754
0.49378
0.259506
0.608338
0.154184
0.718326
-0.266491
0.75914
-0.60479
0.741439
-0.68011
0.692059
-0.559434
0.637415
-0.363166
0.583993
-0.211849
-0.100108
0.602333
0.102908
-0.626994
0.655219
0.20662
0.762956
0.0464464
0.838831
-0.342366
0.847402
-0.613362
0.802211
-0.634918
0.728509
-0.485732
0.659356
-0.294013
0.599605
-0.152098
-0.0671231
0.71784
0.0866692
-0.701601
0.787307
0.137153
0.873667
-0.0399142
0.91895
-0.387648
0.909911
-0.604323
0.848595
-0.573602
0.756071
-0.393208
0.669091
-0.207033
0.599844
-0.0828504
-0.0318197
0.790291
0.0483351
-0.751957
0.864085
0.0633593
0.933177
-0.109006
0.962426
-0.416898
0.931206
-0.573103
0.843905
-0.486301
0.738998
-0.288301
0.650005
-0.11804
0.582845
-0.0156905
0.00167659
0.831909
0.00596951
-0.789544
0.896866
-0.00159733
0.957818
-0.169957
0.971492
-0.430571
0.907814
-0.509426
0.790776
-0.369262
0.67431
-0.171834
0.590543
-0.0342731
0.537674
0.037178
0.0259311
0.843226
-0.0289529
-0.808303
0.902056
-0.060428
0.951771
-0.219672
0.917478
-0.396279
0.797402
-0.38935
0.658255
-0.230115
0.553039
-0.066618
0.491557
0.0272091
0.463424
0.0653108
0.0361978
0.821608
-0.0531014
-0.79746
0.869147
-0.107967
0.866529
-0.217053
0.741946
-0.271696
0.561979
-0.209383
0.425364
-0.0935007
0.360697
-0.00195071
0.343913
0.0439937
0.350901
0.0583225
0.0299118
0.711171
-0.0561788
-0.708093
0.70305
-0.0998465
0.588826
-0.10283
0.389368
-0.0722372
0.224984
-0.0449999
0.153009
-0.0215255
0.147411
0.00364733
0.170871
0.0205333
0.202663
0.0265304
0.0136032
0.328013
-0.384192
0.228167
0.125337
0.0530999
0.00810007
-0.0134254
-0.00977806
0.0107552
0.0372856
0.515167
0.0786867
-0.505628
0.524206
0.106611
0.533055
0.135705
0.541457
0.16378
0.548841
0.188487
0.544374
0.213022
0.51515
0.226141
0.449609
0.226889
0.334712
0.226707
0.164628
0.514703
0.0686312
-0.504647
0.526535
0.0947789
0.539925
0.122315
0.554186
0.149519
0.567346
0.175326
0.582113
0.198255
0.583463
0.224791
0.578919
0.231433
0.549032
0.256594
0.230906
0.521567
0.0597614
-0.512697
0.53283
0.0835165
0.546522
0.108623
0.563353
0.132688
0.579444
0.159235
0.599122
0.178577
0.616187
0.207726
0.630545
0.217075
0.641007
0.246132
0.24492
0.5324
0.0511838
-0.523822
0.544251
0.0716652
0.558072
0.0948013
0.575791
0.114969
0.595067
0.139959
0.6163
0.157345
0.640907
0.183119
0.661648
0.196334
0.687111
0.220669
0.23043
0.54147
0.0419037
-0.53219
0.554267
0.0588686
0.569947
0.0791215
0.588841
0.0960748
0.611466
0.117334
0.635319
0.133492
0.66412
0.154319
0.691143
0.169311
0.723457
0.188355
0.201929
0.544086
0.0319325
-0.534115
0.557618
0.045336
0.575147
0.0615929
0.595716
0.0755058
0.620943
0.0921068
0.648212
0.106222
0.680401
0.12213
0.713669
0.136042
0.751577
0.150447
0.163963
0.536251
0.0217642
-0.526082
0.550207
0.0313799
0.568708
0.0430921
0.590781
0.0534319
0.617737
0.065151
0.64789
0.0760695
0.682994
0.0870268
0.72089
0.0981453
0.763531
0.107807
0.11919
0.509938
0.0117255
-0.499899
0.523785
0.0175329
0.542493
0.0243833
0.565121
0.0308045
0.592837
0.037435
0.624481
0.0444256
0.66128
0.050227
0.701951
0.0574749
0.747753
0.0620046
0.069483
0.441581
0.00287451
-0.43273
0.453915
0.00519854
0.470785
0.00751321
0.491529
0.010061
0.516816
0.0121482
0.546246
0.0149951
0.580159
0.0163142
0.618269
0.0193647
0.66085
0.0194243
0.0222395
0.256933
-0.254059
0.262132
0.269645
0.279706
0.291854
0.306849
0.323164
0.342528
0.361953
0.0697436
0.131292
-0.120817
-0.0802191
0.0599412
0.133413
-0.12361
0.0508012
0.135657
-0.126517
0.0419338
0.138541
-0.129673
0.033112
0.141649
-0.132827
0.0243703
0.144208
-0.135466
0.0159811
0.144491
-0.136102
0.00831182
0.139605
-0.131936
0.00228615
0.121395
-0.115369
0.0653874
-0.0631013
0.066958
0.140926
-0.0765919
0.0574159
0.142955
0.0481169
0.144956
0.0391396
0.147518
0.0303888
0.150399
0.0219055
0.152691
0.0139627
0.152434
0.00688544
0.146682
0.00164677
0.126634
0.0670342
0.0599178
0.149834
-0.0688258
0.0508994
0.151973
0.0420076
0.153847
0.0334194
0.156106
0.0251881
0.158631
0.0174255
0.160454
0.0103774
0.159482
0.00433821
0.152722
0.000368039
0.130604
0.0674023
0.050331
0.157874
-0.0583705
0.0422291
0.160075
0.0341887
0.161888
0.0263795
0.163916
0.0189221
0.166088
0.0120474
0.167328
0.00610561
0.165423
0.00123786
0.157589
-0.000944285
0.132786
0.066458
0.0372344
0.165152
-0.0445127
0.0300813
0.167228
0.0230431
0.168926
0.016235
0.170724
0.00988911
0.172434
0.00435594
0.172861
-6.90239e-05
0.169848
-0.00293217
0.160453
-0.00283586
0.13269
0.0636221
0.0225464
0.17143
-0.0288243
0.0164436
0.173331
0.0105304
0.174839
0.00496424
0.17629
-7.07963e-05
0.177469
-0.00395936
0.17675
-0.00659296
0.172482
-0.00749907
0.161359
-0.00478008
0.129971
0.058842
0.00497256
0.176883
-0.010426
-0.000128748
0.178432
-0.00496316
0.179673
-0.00942979
0.180757
-0.0128472
0.180886
-0.0145374
0.17844
-0.0150439
0.172989
-0.012978
0.159293
-0.00687971
0.123872
0.0519623
-0.0140213
0.180756
0.0101485
-0.0174683
0.181879
-0.020592
0.182797
-0.0230716
0.183236
-0.0241273
0.181942
-0.0243282
0.178641
-0.023097
0.171757
-0.0180312
0.154227
-0.0085012
0.114343
0.0434611
-0.0373468
0.183644
0.0344588
-0.039903
0.184435
-0.0415973
0.184491
-0.0416025
0.183241
-0.0401988
0.180538
-0.0379919
0.176434
-0.0330442
0.16681
-0.023468
0.144651
-0.00975874
0.100633
0.0337024
-0.0618021
0.0606014
-0.0619176
-0.0607145
-0.0585742
-0.0558148
-0.0508608
-0.0419323
-0.0275429
-0.00990686
0.101403
0.0312676
-0.11257
-0.0201008
0.0900143
0.0319193
-0.0205306
0.0784047
0.0326535
-0.0210438
0.0665622
0.033478
-0.0216354
0.0544794
0.0343647
-0.0222819
0.0421696
0.0351732
-0.0228635
0.0297303
0.0354438
-0.0230044
0.0175108
0.0340443
-0.0218248
0.00655056
0.0287936
-0.0178333
0.0154563
-0.00890571
0.101768
0.0425114
-0.113012
0.0903459
0.043341
0.0787107
0.0442887
0.0668551
0.0453335
0.0547719
0.0464479
0.0424699
0.0474753
0.0300329
0.0478807
0.0177689
0.0463083
0.00666537
0.0398971
0.0221216
0.101514
0.0537103
-0.112713
0.0901116
0.0547432
0.0784971
0.0559033
0.0666644
0.0571662
0.0546096
0.0585028
0.0423428
0.0597421
0.0299486
0.0602749
0.0177241
0.0585328
0.00663188
0.0509893
0.0287535
0.100094
0.0648354
-0.111219
0.0888119
0.066025
0.0773101
0.0674051
0.0655808
0.0688954
0.0536266
0.070457
0.0414768
0.0718919
0.0292388
0.0725129
0.0172163
0.0705553
0.00636242
0.0618432
0.0351159
0.0979661
0.0756866
-0.108817
0.0869506
0.0770405
0.0757506
0.0786052
0.0643324
0.0803136
0.0526653
0.0821241
0.0407555
0.0838017
0.028718
0.0845505
0.0168767
0.0823965
0.00618671
0.0725332
0.0413026
0.0939491
0.0864062
-0.104669
0.0831748
0.0878147
0.0722362
0.0895438
0.0611365
0.0914133
0.0498639
0.0933966
0.0384197
0.0952459
0.0269089
0.0960613
0.0156517
0.0936538
0.0055845
0.0826003
0.0468871
0.0897407
0.0965729
-0.0999074
0.0795168
0.0980386
0.069119
0.0999416
0.058483
0.102049
0.047594
0.104286
0.0365045
0.106335
0.0253945
0.107171
0.014628
0.10442
0.0051457
0.0920827
0.0520328
0.0828152
0.106347
-0.0925898
0.0730929
0.107761
0.0633058
0.109729
0.0534076
0.111948
0.0433297
0.114364
0.0330711
0.116594
0.0228061
0.117436
0.0129154
0.114311
0.00435109
0.100647
0.0563839
0.0774665
0.114622
-0.0857411
0.0688889
0.116339
0.0597633
0.118854
0.0502212
0.12149
0.0404173
0.124168
0.0305013
0.12651
0.0207315
0.127206
0.0114912
0.123551
0.00369334
0.108445
0.0600773
0.0679619
-0.0741566
0.0606901
0.0530279
0.044844
0.0361846
0.0272288
0.0183333
0.0099487
0.00302401
0.201094
-0.0034352
0.000331187
0.207151
-0.0137083
0.00765094
0.212377
0.0366303
-0.0418566
0.212343
0.110389
-0.110354
0.208892
0.152075
-0.148624
0.203165
0.172006
-0.16628
0.19431
0.167858
-0.159002
0.182045
0.172063
-0.159797
0.159002
0.185512
-0.162469
0.209855
-0.163423
0.201082
-0.00652751
0.206868
-0.0194946
0.211221
0.0322782
0.210185
0.111424
0.206044
0.156216
0.199922
0.178129
0.191571
0.176208
0.179775
0.183859
0.158192
0.207095
0.255035
0.200939
-0.00947709
0.206406
-0.0249616
0.209795
0.0288891
0.207592
0.113627
0.202548
0.16126
0.195658
0.185019
0.187708
0.184158
0.175997
0.19557
0.156038
0.227054
0.29836
0.200659
-0.0121468
0.205754
-0.0300559
0.208094
0.0265486
0.204533
0.117189
0.198378
0.167415
0.190481
0.192916
0.182859
0.19178
0.170806
0.207623
0.15269
0.245171
0.339831
0.200249
-0.0144056
0.204916
-0.0347233
0.206112
0.0253525
0.200983
0.122317
0.193546
0.174853
0.184541
0.20192
0.177162
0.199159
0.164324
0.220462
0.148243
0.261251
0.379257
0.19971
-0.0161253
0.203884
-0.038898
0.203824
0.0254131
0.196933
0.129208
0.188116
0.18367
0.178006
0.212031
0.1707
0.206465
0.156799
0.234363
0.142947
0.275103
0.417535
0.199032
-0.0171673
0.202606
-0.042472
0.201174
0.0268448
0.1924
0.137982
0.182201
0.193869
0.171033
0.223198
0.163514
0.213984
0.148481
0.249396
0.13669
0.286894
0.454318
0.198183
-0.0173608
0.200976
-0.0452652
0.198108
0.0297133
0.187445
0.148645
0.175926
0.205388
0.163767
0.235357
0.155707
0.222045
0.139749
0.265353
0.130105
0.296538
0.491833
0.197123
-0.0164939
0.198861
-0.0470029
0.194598
0.0339755
0.182186
0.161057
0.169436
0.218138
0.156332
0.248461
0.147498
0.230878
0.131315
0.281536
0.12286
0.304993
0.528953
0.195911
-0.014415
0.196145
-0.0472367
0.190694
0.0394263
0.176701
0.17505
0.162927
0.231912
0.148842
0.262546
0.139323
0.240397
0.122264
0.298596
0.116329
0.310929
0.571125
0.303411
-0.0158162
0.308433
-0.0522581
0.318677
0.0291818
0.318739
0.174989
0.318746
0.231905
0.310277
0.271015
0.316416
0.234258
0.313167
0.301845
0.358365
0.265731
0.504576
0.424913
0.302368
-0.0161741
0.305332
-0.055222
0.318732
0.0157813
0.325222
0.1685
0.332244
0.224883
0.331232
0.272026
0.344624
0.220867
0.349521
0.296947
0.374954
0.240298
0.439567
0.439963
0.301373
-0.0155373
0.30284
-0.0566885
0.316882
0.00173964
0.336591
0.148791
0.351341
0.210132
0.366019
0.257348
0.387132
0.199754
0.401351
0.282728
0.418083
0.223566
0.379965
0.477685
0.300983
-0.0145098
0.30135
-0.0570554
0.31314
-0.0100502
0.350143
0.111788
0.371732
0.188543
0.401672
0.227408
0.432074
0.169352
0.450505
0.264297
0.473729
0.200342
0.326319
0.527376
0.301701
-0.0142008
0.30084
-0.0561946
0.31123
-0.0204403
0.359203
0.0638154
0.388396
0.15935
0.427309
0.188495
0.463334
0.133326
0.487978
0.239653
0.518443
0.169877
0.27361
0.571152
0.304004
-0.0161946
0.302934
-0.0551245
0.314039
-0.0315449
0.361603
0.0162512
0.398391
0.122562
0.443245
0.143641
0.480183
0.096388
0.512656
0.20718
0.545097
0.137436
0.221036
0.597671
0.307607
-0.0217911
0.307817
-0.0553346
0.319288
-0.0430164
0.355686
-0.0201467
0.396688
0.0815594
0.44482
0.0955089
0.478733
0.0624752
0.519785
0.166128
0.553116
0.104105
0.166748
0.607404
0.310015
-0.0297963
0.309631
-0.0549503
0.318617
-0.0520018
0.33513
-0.03666
0.375357
0.0413321
0.422326
0.0485405
0.448295
0.0365056
0.500015
0.114408
0.536849
0.0672707
0.108335
0.595262
0.307964
-0.0357497
0.299876
-0.0468631
0.293917
-0.0460425
0.284627
-0.0273701
0.315378
0.0105813
0.347545
0.0163731
0.365909
0.0181418
0.429075
0.0512422
0.467625
0.0287211
0.0474655
0.528494
0.26626
0.219397
0.173355
0.145985
0.156566
0.172939
0.191081
0.242323
0.271044
0.31851
0.437738
-0.0930441
0.444438
-0.083292
0.451053
-0.0754401
0.45797
-0.0652877
0.465642
-0.0521846
0.473112
-0.0362944
0.480786
-0.0180997
0.48822
0.00271435
0.496494
0.0261844
0.0514677
0.446903
-0.0999846
0.454205
-0.0905939
0.460646
-0.081881
0.466441
-0.0710824
0.4722
-0.0579438
0.477753
-0.0418469
0.483491
-0.023838
0.48946
-0.00325445
0.496572
0.019072
0.0433927
0.480849
-0.103148
0.48487
-0.0946154
0.488287
-0.0852974
0.490639
-0.0734347
0.492607
-0.0599117
0.49466
-0.0439001
0.497245
-0.0264228
0.500688
-0.00669711
0.505723
0.0140368
0.036418
0.524948
-0.10072
0.522319
-0.0919864
0.519398
-0.0823763
0.516399
-0.0704361
0.513702
-0.057215
0.512099
-0.0422969
0.511748
-0.0260718
0.513592
-0.00854128
0.517238
0.0103905
0.0298344
0.561115
-0.0906823
0.551411
-0.0822829
0.542344
-0.0733092
0.534547
-0.0626393
0.528184
-0.0508519
0.523918
-0.038031
0.521729
-0.0238823
0.522464
-0.00927642
0.525642
0.00721247
0.023286
0.582051
-0.075062
0.567405
-0.0676373
0.554337
-0.0602412
0.54335
-0.0516519
0.534633
-0.0421357
0.528538
-0.0319354
0.525122
-0.0204661
0.524862
-0.00901735
0.52772
0.0043548
0.0168914
0.587908
-0.0555663
0.57027
-0.0499991
0.554662
-0.0446326
0.54144
-0.0384307
0.530942
-0.0316369
0.523323
-0.024317
0.518849
-0.0159919
0.517651
-0.0078194
0.51997
0.00203552
0.0107794
0.572738
-0.0330417
0.552995
-0.0302564
0.535494
-0.0271316
0.520635
-0.0235715
0.508718
-0.0197198
0.499786
-0.015385
0.494347
-0.0105532
0.492235
-0.00570793
0.494424
-0.000152891
0.00530455
0.507168
-0.0117148
0.487708
-0.0107967
0.470577
-0.0100006
0.456013
-0.00900767
0.444192
-0.0078984
0.435286
-0.0064796
0.429643
-0.00490953
0.427092
-0.00315723
0.428153
-0.00121419
0.000727737
0.306795
0.295998
0.285998
0.27699
0.269092
0.262612
0.257702
0.254545
0.253331
0.00697077
0.0532735
-0.0602443
0.0130984
0.120398
-0.126526
0.0154278
0.152112
-0.154441
0.0156664
0.164184
-0.164423
0.0154298
0.168551
-0.168314
0.0139071
0.170661
-0.169138
0.0114432
0.169851
-0.167387
0.00883706
0.16648
-0.163874
0.00653206
0.160301
-0.157996
0.149011
0.00497946
-0.147459
0.00860017
0.0446734
0.0184259
0.110573
0.0244934
0.146044
0.0274752
0.161202
0.0292142
0.166811
0.0302903
0.169585
0.030254
0.169888
0.0294861
0.167248
0.0284241
0.161363
0.150354
0.0270812
0.00933461
0.0353388
0.0224943
0.0974131
0.0323536
0.136185
0.0384965
0.155059
0.0424331
0.162875
0.0456558
0.166362
0.0480197
0.167524
0.0492731
0.165995
0.0494956
0.161141
0.151478
0.0483721
0.00903068
0.0263081
0.0247351
0.0817086
0.0383574
0.122563
0.0479204
0.145496
0.054513
0.156282
0.0597123
0.161163
0.064061
0.163175
0.0672618
0.162794
0.0689631
0.159439
0.151863
0.0685779
0.00790618
0.0184019
0.0247571
0.0648577
0.0416649
0.105655
0.0548359
0.132325
0.0643915
0.146727
0.071782
0.153772
0.0779804
0.156976
0.0830593
0.157715
0.0865515
0.155947
0.150778
0.0876364
0.00636608
0.0120358
0.0226392
0.0485846
0.0416502
0.086644
0.0581898
0.115786
0.0709326
0.133984
0.0807312
0.143973
0.0887087
0.148999
0.0953625
0.151061
0.100472
0.150837
0.14805
0.1032
0.00479697
0.00723884
0.0190692
0.0343123
0.0384279
0.0672853
0.0574498
0.0967638
0.0733824
0.118051
0.0860191
0.131337
0.0962154
0.138803
0.104738
0.142539
0.111784
0.143792
0.142843
0.116991
0.00338537
0.00385347
0.0148697
0.0228279
0.0327037
0.0494514
0.0525572
0.0769103
0.0708715
0.0997372
0.0862106
0.115998
0.0986957
0.126318
0.108996
0.132238
0.117566
0.135222
0.136149
0.124261
0.00219936
0.00165411
0.0107912
0.0142361
0.0257483
0.0344943
0.0445934
0.0580652
0.0639767
0.0803539
0.0815918
0.0983825
0.0966294
0.11128
0.109291
0.119576
0.120199
0.124314
0.126306
0.130042
0.00122252
0.000431587
0.0072435
0.0082151
0.0187309
0.0230069
0.0348798
0.0419162
0.0534075
0.0618262
0.0718564
0.0799336
0.0885856
0.0945509
0.102922
0.10524
0.114896
0.11234
0.116162
0.12504
0.000501611
-7.0024e-05
0.00445972
0.00425699
0.0126051
0.0148615
0.0250941
0.0294272
0.0409995
0.0459208
0.0585692
0.0623639
0.076066
0.0770541
0.0923236
0.0889823
0.106731
0.0979322
0.104371
0.118522
0.000213269
-0.000283293
0.00260308
0.00186719
0.00782561
0.00963901
0.0164447
0.0208082
0.0285305
0.033835
0.0433399
0.0475545
0.0596204
0.0607736
0.0761275
0.0724752
0.0918631
0.0821967
0.0901433
0.106091
8.51477e-05
-0.00036844
0.00125035
0.00070198
0.0038752
0.00701417
0.00870789
0.0159755
0.0163586
0.0261843
0.0268932
0.0370198
0.0397409
0.0479259
0.0539699
0.0582462
0.0686629
0.0675037
0.0753379
0.0834683
4.57807e-05
-0.000414221
-0.000116708
0.000864469
6.8337e-05
0.00682912
0.00150508
0.0145387
0.00489017
0.0227992
0.0106771
0.0312329
0.0188938
0.0397093
0.029111
0.0480289
0.0407698
0.0558449
0.0623377
0.0537701
-0.000156172
-0.000258049
-0.00162891
0.00233721
-0.00337339
0.00857361
-0.00449134
0.0156567
-0.00432729
0.0226351
-0.00241009
0.0293157
0.00159927
0.0356999
0.0077682
0.04186
0.0159004
0.0477127
0.0525099
0.0257281
-0.000538719
0.00028067
-0.00306852
0.00486701
-0.00609665
0.0116017
-0.00868816
0.0182482
-0.0103609
0.0243078
-0.0108018
0.0297565
-0.00968254
0.0345807
-0.00669715
0.0388746
-0.00180451
0.0428201
0.046182
0.00452335
-0.00114257
0.00142324
-0.0043056
0.00803004
-0.00792252
0.0152187
-0.0111512
0.0214769
-0.0136047
0.0267614
-0.015119
0.0312708
-0.015592
0.0350538
-0.0148223
0.0381048
-0.0126491
0.0406469
0.0428589
-0.00932597
-0.00153246
0.0029557
-0.00493238
0.01143
-0.00877414
0.0190604
-0.0122825
0.0249852
-0.0150918
0.0295707
-0.0170712
0.0332502
-0.0182655
0.0362481
-0.018786
0.0386253
-0.0185546
0.0404155
0.0419769
-0.0176726
-0.00145642
0.00441213
-0.00460476
0.0145783
-0.0082753
0.0227309
-0.0117832
0.0284931
-0.0147864
0.0325739
-0.0171434
0.0356072
-0.0188443
0.0379489
-0.0199747
0.0397557
-0.020648
0.0410888
0.0423279
-0.0209989
-0.00100031
-0.00341064
-0.00645444
-0.00957586
-0.012479
-0.0150286
-0.0171841
-0.0189883
-0.0205757
-0.0219294
0.106381
0.457367
-0.445226
0.0759791
0.291871
-0.261469
0.0455449
0.186019
-0.155585
0.032629
0.0962679
-0.0833519
0.0342929
0.0222437
-0.0239077
0.0449824
-0.0351577
0.0244682
0.0609149
-0.0705828
0.0546503
0.0773285
-0.0791567
0.0627431
0.0932657
-0.075874
0.0599368
-0.0472717
0.0369508
0.0968548
0.466603
0.0662338
0.322492
0.0401001
0.212153
0.0319449
0.104423
0.0366306
0.017558
0.0491694
-0.0476965
0.0657839
-0.0871973
0.0822784
-0.0956513
0.0978968
-0.0914924
-0.0569732
0.079945
0.470126
0.0527156
0.349722
0.0327727
0.232096
0.0294722
0.107724
0.0374997
0.00953041
0.0523803
-0.0625771
0.0699608
-0.104778
0.0866681
-0.112359
0.102013
-0.106838
-0.0661566
0.0584957
0.465401
0.0370384
0.371179
0.0242043
0.24493
0.0255125
0.106415
0.0370885
-0.00204559
0.0546198
-0.0801084
0.0735924
-0.12375
0.0907566
-0.129523
0.105991
-0.122072
-0.0749388
0.0369422
0.454187
0.0211159
0.387005
0.0154777
0.250568
0.0207291
0.101164
0.0356955
-0.017012
0.0559281
-0.100341
0.0766861
-0.144508
0.0946186
-0.147455
0.109981
-0.137435
-0.0834473
0.0171355
0.441574
0.00655878
0.397582
0.00710208
0.250025
0.0150567
0.0932095
0.033041
-0.0349964
0.0560856
-0.123386
0.0790593
-0.167482
0.0981498
-0.166546
0.113967
-0.153252
-0.0918461
-0.000308218
0.432557
-0.00509684
0.40237
-0.0014311
0.246359
0.00787526
0.0839031
0.0285602
-0.0556814
0.0547472
-0.149573
0.0804783
-0.193213
0.101185
-0.187253
0.117845
-0.169912
-0.100341
-0.012459
0.427343
-0.0139699
0.403881
-0.0105085
0.242898
-0.00129515
0.0746897
0.0219402
-0.0789167
0.0517952
-0.179428
0.0808742
-0.222292
0.103652
-0.21003
0.121539
-0.187799
-0.109163
-0.0200525
0.426397
-0.0211048
0.404934
-0.0212436
0.243037
-0.0128828
0.0663289
0.0138112
-0.105611
0.0477898
-0.213406
0.0805959
-0.255098
0.105716
-0.23515
0.125097
-0.20718
-0.118521
-0.0231861
-0.0269972
-0.0326564
-0.0243217
0.00636992
0.0443813
0.080668
0.107928
0.128772
0.00462939
0.0279123
-0.0325417
0.000105843
0.00452355
0.000136574
-3.07309e-05
-0.00121448
0.00135105
-0.0023488
0.00113432
-0.00257423
0.000225431
-0.00141727
-0.00115696
0.00179551
-0.00321278
0.00637279
-0.00457728
-0.00309491
0.0593382
0.113876
-0.145301
0.0275133
0.0363484
0.0138545
0.0136281
0.00374757
0.011458
-0.000124657
0.00500655
0.00477268
-0.0046719
0.0156178
-0.0120021
0.0277344
-0.0153293
0.0383302
-0.0151731
-0.00954689
0.132025
0.235041
-0.25319
0.0705786
0.0977949
0.039289
0.0449177
0.0227305
0.0280165
0.0182161
0.00952091
0.0251216
-0.0115774
0.0382374
-0.0251179
0.0528178
-0.0299098
0.0661355
-0.0284908
-0.017827
0.18787
0.356296
-0.309125
0.108406
0.177259
0.0609311
0.0923925
0.0373289
0.0516187
0.0308481
0.0160017
0.0372097
-0.0179389
0.0514315
-0.0393397
0.0673506
-0.0458289
0.082514
-0.0436541
-0.0271812
0.22344
-0.312371
0.13923
0.0760376
0.0443044
0.0363984
0.0429277
0.0582383
0.0751525
0.0914352
0.0121929
0.000247039
-0.01244
0.0132885
-0.00109557
0.0154397
-0.00215124
0.0182209
-0.00278115
0.0215681
-0.0033472
0.0245175
-0.00294944
0.0280165
-0.00349898
0.0299251
-0.00190863
0.0328134
-0.00288829
0.000271719
0.0322337
0.000236768
-0.0322235
0.0357202
-0.00458203
0.0423287
-0.00875972
0.0516192
-0.0120717
0.0636843
-0.0154124
0.077077
-0.0163421
0.0934093
-0.0198313
0.109065
-0.0175648
0.128073
-0.021896
-0.0169566
0.0481162
-0.000530219
-0.0473492
0.0538881
-0.0103539
0.064437
-0.0193087
0.0796172
-0.0272519
0.0994932
-0.0352883
0.123139
-0.0399875
0.15157
-0.048263
0.181982
-0.0479767
0.217638
-0.0575517
-0.052509
0.0600732
-0.00226882
-0.0583346
0.0677184
-0.0179992
0.0812388
-0.0328291
0.100681
-0.046694
0.12562
-0.0602273
0.15621
-0.0705771
0.190499
-0.0825521
0.229269
-0.0867467
0.270057
-0.0983404
-0.0915766
0.0687118
-0.0660011
0.0777938
0.0933368
0.115221
0.14263
0.175253
0.209692
0.247206
0.278907
0.0726521
-0.0697217
0.0762276
-0.079158
0.0652725
-0.0709496
0.0783292
0.0574897
-0.0725652
0.080348
0.0492401
-0.0742296
0.0824792
0.040497
-0.0758387
0.0845818
0.0313378
-0.0771447
0.0863039
0.0219823
-0.0774196
0.0867752
0.0127948
-0.0750081
0.0841956
0.00459139
-0.0658546
0.074058
-0.037728
0.0423194
0.078518
-0.0616223
-0.0866174
0.0701198
-0.0625515
0.0612522
-0.0636976
0.0519545
-0.0649319
0.0423298
-0.0662139
0.0325127
-0.0673276
0.0226969
-0.0676039
0.0131896
-0.0655008
0.00475701
-0.057422
-0.032971
0.0802925
-0.0525192
-0.0893957
0.0710898
-0.0533487
0.061738
-0.0543458
0.0522388
-0.0554327
0.042583
-0.056558
0.0327821
-0.0575267
0.0229423
-0.0577641
0.0133541
-0.0559126
0.00482617
-0.0488941
-0.0281448
0.0841721
-0.0431185
-0.0935728
0.0746641
-0.0438408
0.0649921
-0.0446738
0.0551146
-0.0455553
0.045004
-0.0464474
0.0346867
-0.0472093
0.0243067
-0.0473842
0.014201
-0.0458069
0.00520799
-0.0399011
-0.0229368
0.0871442
-0.0333173
-0.0969454
0.0771982
-0.0338949
0.0670648
-0.0345403
0.0567281
-0.0352186
0.0461899
-0.0359092
0.0354999
-0.0365194
0.0248129
-0.0366972
0.014476
-0.0354699
0.00533192
-0.030757
-0.0176049
0.0901503
-0.0231993
-0.100268
0.0798594
-0.0236039
0.0693684
-0.0240493
0.0586636
-0.0245138
0.0477463
-0.0249919
0.0366657
-0.0254387
0.0255921
-0.0256236
0.0149271
-0.0248049
0.00555025
-0.0213802
-0.0120547
0.0929645
-0.0127562
-0.103408
0.0823269
-0.0129663
0.0714668
-0.0131892
0.0603654
-0.0134124
0.049018
-0.0136446
0.0374737
-0.0138945
0.025937
-0.0140869
0.0149349
-0.0138027
0.00550635
-0.0119516
-0.00654831
0.0955526
-0.00200011
-0.106309
0.0845879
-0.0020016
0.0733737
-0.00197494
0.0618795
-0.00191821
0.0500824
-0.00184744
0.0380087
-0.00182077
0.0258688
-0.00194707
0.014347
-0.00228093
0.00489689
-0.00250153
-0.00165142
0.0979385
0.00898048
-0.108919
0.0867347
0.00920223
0.0752764
0.00948333
0.0635313
0.00982695
0.0514697
0.0102141
0.039097
0.0105519
0.026574
0.010576
0.0145456
0.00974745
0.00467675
0.00736732
0.00302533
0.0999288
-0.111049
0.0886005
0.07704
0.0652315
0.0531637
0.0408521
0.0284237
0.0163464
0.00588038
0.0150512
-0.145207
-0.017303
0.0112709
-0.154216