/*--------------------------------*- C++ -*----------------------------------*\
| =========                 |                                                 |
| \\      /  F ield         | OpenFOAM: The Open Source CFD Toolbox           |
|  \\    /   O peration     | Version:  2406                                  |
|   \\  /    A nd           | Website:  www.openfoam.com                      |
|    \\/     M anipulation  |                                                 |
\*---------------------------------------------------------------------------*/
FoamFile
{
    version     2.0;
    format      ascii;
    arch        "LSB;label=32;scalar=64";
    class       volVectorField;
    location    "1.7";
    object      U;
}
// * * * * * * * * * * * * * * * * * * * * * * * * * * * * * * * * * * * * * //

dimensions      [0 1 -1 0 0 0 0];

internalField   nonuniform List<vector> 
1800
(
(-0.0106185 0.00248773 0)
(-0.022546 -0.00140076 1.19757e-20)
(-0.0298859 -0.0116254 -1.11183e-20)
(-0.0276706 -0.0173882 9.05915e-20)
(-0.0226178 -0.0231251 1.32959e-19)
(0.000727576 -0.0264587 3.12056e-20)
(0.0527508 -0.0250337 -1.56142e-20)
(0.130302 -0.0201007 -1.44467e-19)
(0.23397 -0.00425255 0)
(0.322368 0.00288607 4.20891e-20)
(-0.0253985 0.0133663 1.30488e-20)
(-0.032152 0.0149565 3.10348e-20)
(-0.0290554 0.00839903 3.04483e-20)
(-0.017023 3.47181e-05 4.02031e-20)
(0.020136 -0.012238 6.20226e-21)
(0.104188 -0.0273155 -1.05076e-19)
(0.229065 -0.0414443 4.32998e-20)
(0.385589 -0.0506012 2.1946e-19)
(0.578627 -0.0364231 3.04687e-20)
(0.698197 -0.0433071 3.87692e-21)
(-0.0284621 0.0187048 1.48509e-20)
(-0.0280647 0.0190629 -5.45533e-20)
(-0.0199654 0.0139231 -5.43376e-20)
(0.0323222 0.005345 1.5938e-20)
(0.144239 -0.0124618 -1.83598e-20)
(0.313904 -0.0296127 2.78829e-20)
(0.524979 -0.0419298 -3.59763e-20)
(0.758027 -0.0482416 -2.42555e-19)
(1.01507 -0.0362961 1.06095e-19)
(1.1856 -0.0358171 1.36744e-19)
(-0.0214778 0.0169482 2.49204e-20)
(-0.0208812 0.0245895 8.67059e-20)
(0.0271976 0.0119464 -5.26951e-20)
(0.158308 -0.00421549 -1.60263e-22)
(0.367679 -0.0209025 9.60812e-20)
(0.632821 -0.0313387 -2.81064e-20)
(0.922255 -0.0321091 -1.02541e-19)
(1.20637 -0.0233719 -8.64397e-20)
(1.47158 -0.00592115 -1.15575e-20)
(1.67075 0.0112077 9.51162e-20)
(-0.0101212 0.00717861 3.59473e-21)
(0.00871089 0.00426283 5.32276e-20)
(0.134388 -0.00555104 2.3791e-20)
(0.373033 -0.0187916 -6.95939e-20)
(0.691681 -0.0234739 -3.42158e-20)
(1.03801 -0.0156302 5.56552e-20)
(1.3647 0.00236532 5.19362e-20)
(1.64356 0.02589 1.08919e-19)
(1.86382 0.0513812 -2.45845e-19)
(2.02152 0.0712135 -2.15513e-19)
(-0.00224105 0.00263239 3.73343e-22)
(0.0802198 -0.012573 1.31715e-19)
(0.323392 -0.0203821 9.85274e-20)
(0.688098 -0.0172961 -1.23167e-19)
(1.09348 0.00149653 1.2209e-19)
(1.46346 0.0305049 -9.52303e-21)
(1.75784 0.0617305 1.37693e-19)
(1.96922 0.0894778 2.32267e-19)
(2.10998 0.110595 -3.29688e-19)
(2.19531 0.124986 -2.5543e-19)
(0.0169383 -0.000957787 -4.13039e-20)
(0.213588 -0.0251869 -2.67702e-19)
(0.599786 -0.0164136 2.95093e-20)
(1.06769 0.0150681 3.44627e-19)
(1.49194 0.0571013 -2.00147e-20)
(1.81042 0.0969048 -2.58662e-19)
(2.02035 0.127935 -1.7574e-19)
(2.14766 0.148886 5.00728e-19)
(2.22244 0.161173 5.71595e-19)
(2.26814 0.167468 5.33602e-20)
(0.0644075 -0.00378617 4.52995e-20)
(0.412396 -0.0236541 2.90904e-20)
(0.934306 0.0182277 -1.54094e-19)
(1.43563 0.0776962 8.14381e-20)
(1.80263 0.129647 -4.56319e-21)
(2.03028 0.1657 -8.33081e-19)
(2.15986 0.187685 -2.77139e-21)
(2.23411 0.199618 5.9413e-19)
(2.27943 0.205556 -3.66124e-19)
(2.30733 0.209607 -3.67893e-19)
(0.139557 -0.00259825 1.8008e-19)
(0.661795 0.00317816 1.63434e-19)
(1.26453 0.0849435 -3.92267e-19)
(1.72345 0.159125 -9.42092e-20)
(2.00129 0.207344 5.07132e-21)
(2.15115 0.233331 3.15309e-19)
(2.23108 0.246836 -5.83328e-19)
(2.2761 0.253603 -2.99639e-19)
(2.30154 0.256154 6.42764e-19)
(2.31941 0.25461 1.36307e-19)
(0.240648 0.00928731 4.10851e-21)
(0.924903 0.0636733 4.33787e-19)
(1.53463 0.17587 -3.69455e-19)
(1.91691 0.250832 -1.73485e-19)
(2.11643 0.290183 1.87675e-19)
(2.21278 0.306569 -1.96267e-19)
(2.26074 0.315358 3.73915e-19)
(2.28972 0.317355 2.36718e-20)
(2.31182 0.317063 -2.57164e-19)
(2.32465 0.313278 -8.0427e-20)
(-0.00355188 0.0715909 1.45491e-20)
(-0.013036 0.223616 -3.10848e-20)
(-0.028254 0.337301 -3.1438e-20)
(-0.0436866 0.411038 4.93141e-20)
(-0.0578528 0.458396 -4.77527e-21)
(-0.0703689 0.490286 -1.05342e-20)
(-0.0811825 0.512892 -6.53007e-21)
(-0.0905183 0.52961 1.5391e-20)
(-0.0986111 0.542552 -5.47721e-23)
(-0.104634 0.553039 2.61964e-21)
(-0.00664935 0.0711945 -1.34175e-20)
(-0.0233787 0.231792 3.27567e-24)
(-0.0397646 0.35455 8.57207e-21)
(-0.0550259 0.433059 5.8463e-20)
(-0.0684548 0.481683 3.26014e-20)
(-0.0801027 0.513019 2.40197e-20)
(-0.0901443 0.534253 -2.916e-20)
(-0.0987462 0.549186 0)
(-0.106099 0.560008 5.31589e-21)
(-0.11185 0.56812 -1.87961e-20)
(-0.00798183 0.0607732 7.73941e-23)
(-0.0309676 0.220311 7.11929e-20)
(-0.0474631 0.352912 8.14207e-20)
(-0.0612003 0.440081 -4.75131e-20)
(-0.0721869 0.493435 9.58922e-21)
(-0.0807865 0.526617 2.20461e-20)
(-0.0874631 0.548082 2.17057e-20)
(-0.0925005 0.562332 1.3361e-20)
(-0.0961368 0.571892 5.25137e-20)
(-0.0984373 0.578553 8.1162e-20)
(-0.00627758 0.0415548 -3.13674e-22)
(-0.0324855 0.186465 8.36226e-20)
(-0.0479021 0.326816 -2.45412e-20)
(-0.0589117 0.426102 -8.96557e-20)
(-0.0658662 0.48832 1.07197e-20)
(-0.0695758 0.526431 -2.9446e-20)
(-0.0709381 0.550196 1.18586e-20)
(-0.0704844 0.565298 0)
(-0.0684978 0.574894 -6.89983e-20)
(-0.0646733 0.581073 -1.70256e-20)
(-0.00189003 0.017303 4.38054e-20)
(-0.0265466 0.131095 -1.72067e-20)
(-0.0401965 0.271506 -7.54189e-20)
(-0.0484117 0.383663 3.16221e-20)
(-0.0508861 0.459186 -1.30614e-20)
(-0.0488022 0.506875 -3.89766e-20)
(-0.0436362 0.536461 3.79134e-20)
(-0.0362311 0.554623 -4.26768e-21)
(-0.0267974 0.565307 -5.0203e-20)
(-0.0141829 0.570855 -6.5081e-20)
(0.00183481 -0.000698975 2.46908e-20)
(-0.013322 0.0639126 -2.3752e-20)
(-0.0252085 0.187796 5.98903e-20)
(-0.0321379 0.306378 -2.08915e-20)
(-0.0314714 0.396417 -1.13123e-19)
(-0.0240717 0.458125 5.92348e-20)
(-0.0119488 0.498132 -1.85288e-20)
(0.00349963 0.522816 4.11937e-20)
(0.0219497 0.536555 1.98935e-20)
(0.0453945 0.541496 -7.85958e-20)
(0.00656745 -0.00765992 -1.8784e-20)
(0.00348272 0.0106242 3.25942e-20)
(-0.0052444 0.0938686 7.91322e-21)
(-0.0127677 0.199767 -2.11901e-19)
(-0.0123196 0.294906 2.04621e-20)
(-0.00307186 0.368404 1.66848e-19)
(0.0134391 0.420677 5.54508e-20)
(0.0356203 0.455364 1.11213e-19)
(0.0628872 0.475624 -1.06036e-19)
(0.0973089 0.480915 -1.00708e-19)
(0.0164036 -0.0187508 -5.31092e-22)
(0.021303 -0.0173048 -2.26557e-20)
(0.0120076 0.0170048 -8.12947e-20)
(0.00199704 0.0893727 1.04275e-19)
(-0.000472691 0.17104 1.89728e-19)
(0.00590612 0.242801 -7.60499e-20)
(0.0215198 0.299262 4.40257e-20)
(0.045887 0.340347 -3.73265e-20)
(0.0789582 0.366629 -2.30652e-19)
(0.121584 0.370834 1.98273e-20)
(0.0129405 -0.0225369 2.77728e-21)
(0.0124437 -0.023021 -8.0291e-21)
(0.00608985 -0.0173884 1.98595e-20)
(0.00455561 0.00257495 -7.2273e-21)
(-0.00340382 0.0491224 -6.67067e-22)
(-0.00423777 0.103746 -2.04077e-19)
(0.00698129 0.151636 -7.00483e-20)
(0.0308552 0.188596 -1.31497e-19)
(0.0686273 0.212657 2.87325e-21)
(0.119804 0.211974 3.51796e-19)
(0.00349039 -0.012185 6.61077e-22)
(0.00173665 -0.0227973 3.27229e-21)
(-0.0120512 -0.0239956 5.77156e-20)
(-0.0198169 -0.0179734 1.24036e-19)
(-0.0282111 -0.010486 -8.68582e-20)
(-0.0246444 0.00786667 -2.94221e-19)
(-0.00805911 0.0308115 -5.81526e-20)
(0.0242543 0.0510816 2.54309e-19)
(0.0754251 0.0656439 3.03884e-19)
(0.143479 0.0666722 2.98221e-19)
(-0.123542 0.594257 -1.49743e-21)
(-0.130772 0.571284 -4.55606e-19)
(-0.19335 0.351503 -6.63004e-19)
(-0.214103 0.0746494 1.09905e-18)
(-0.0752079 -0.212971 -5.88585e-19)
(0.121268 -0.377659 2.24512e-20)
(0.325291 -0.431879 3.24635e-20)
(0.492226 -0.384988 4.90173e-20)
(0.610512 -0.332643 -4.22744e-20)
(0.721649 -0.18686 -4.15491e-20)
(-0.130249 0.598576 -2.10547e-20)
(-0.153269 0.586888 -7.36819e-21)
(-0.231221 0.366982 3.03592e-20)
(-0.217649 0.0590571 -5.58881e-19)
(-0.0480601 -0.26327 -1.70658e-19)
(0.169115 -0.436401 3.65456e-19)
(0.377125 -0.486203 -2.64895e-20)
(0.534772 -0.4251 7.81344e-21)
(0.645778 -0.364101 -7.14397e-20)
(0.751914 -0.20364 7.6505e-20)
(-0.108124 0.603814 -2.37135e-19)
(-0.14099 0.606413 4.71978e-19)
(-0.216573 0.382608 1.35342e-19)
(-0.168809 0.0405492 -9.35104e-19)
(0.032939 -0.316268 5.21202e-19)
(0.26927 -0.496728 2.99703e-21)
(0.476541 -0.538327 1.64461e-20)
(0.610904 -0.461346 -3.22486e-20)
(0.703275 -0.392571 1.10395e-20)
(0.792676 -0.219531 1.05786e-21)
(-0.0525758 0.606602 -1.56539e-19)
(-0.0847804 0.62718 -4.33733e-21)
(-0.142325 0.39621 1.55187e-19)
(-0.0675162 0.0180315 5.97108e-19)
(0.164164 -0.370728 -1.26213e-19)
(0.415231 -0.558574 -6.17832e-20)
(0.625537 -0.587016 3.97415e-20)
(0.730599 -0.490806 0)
(0.794558 -0.414535 0)
(0.85041 -0.232751 -2.20927e-22)
(0.0326266 0.598147 1.3791e-19)
(0.0117138 0.64771 -4.1234e-20)
(-0.0335322 0.412893 3.98606e-21)
(0.0897586 -0.00553108 -4.12887e-19)
(0.33502 -0.424735 -1.98652e-19)
(0.587074 -0.622336 -4.34248e-19)
(0.804555 -0.634212 1.82381e-20)
(0.889799 -0.513271 -8.42264e-22)
(0.9267 -0.426892 -4.9275e-20)
(0.932281 -0.241052 -1.82193e-21)
(0.140092 0.573172 1.7396e-19)
(0.142305 0.662979 1.37937e-20)
(0.131543 0.422265 -5.22032e-19)
(0.287033 -0.0259478 2.62054e-21)
(0.550341 -0.47504 6.21348e-19)
(0.783994 -0.685163 -1.70664e-19)
(0.99107 -0.682036 -8.65168e-20)
(1.06699 -0.532587 -3.27293e-20)
(1.09301 -0.429463 1.3786e-21)
(1.0424 -0.242696 -2.12137e-20)
(0.256297 0.528123 -6.94023e-20)
(0.305274 0.669511 -3.87307e-20)
(0.335046 0.431471 7.21203e-20)
(0.5216 -0.0413668 -1.36053e-20)
(0.818202 -0.518508 -6.07785e-20)
(1.02728 -0.73939 3.32662e-19)
(1.18908 -0.726007 -4.85032e-20)
(1.24216 -0.551842 -1.25346e-20)
(1.27233 -0.425678 1.73972e-20)
(1.1767 -0.237847 6.63614e-22)
(0.358051 0.449243 -2.05793e-19)
(0.486165 0.657287 -1.28678e-18)
(0.555541 0.440508 5.84636e-20)
(0.7825 -0.0546273 1.07956e-21)
(1.11446 -0.554919 -3.65857e-19)
(1.31077 -0.780467 -4.31259e-19)
(1.41403 -0.758185 1.98851e-19)
(1.41511 -0.568255 -7.23018e-20)
(1.44334 -0.418896 3.92481e-21)
(1.32213 -0.228484 -2.29066e-21)
(0.414568 0.332467 -6.05942e-19)
(0.692556 0.63604 -5.61687e-19)
(0.785579 0.44582 4.08201e-19)
(1.04833 -0.065177 1.46292e-19)
(1.40119 -0.583178 -3.15734e-19)
(1.59052 -0.810402 -1.39362e-19)
(1.65454 -0.776286 -2.69454e-19)
(1.59387 -0.576671 2.70845e-20)
(1.59785 -0.409416 2.91057e-20)
(1.46302 -0.216609 1.65757e-20)
(0.427903 0.144492 -1.6196e-19)
(0.828733 0.558082 1.55099e-18)
(0.96388 0.458801 5.59852e-19)
(1.29842 -0.0534509 -3.3019e-20)
(1.67093 -0.601876 -2.17561e-19)
(1.84098 -0.832191 1.07757e-19)
(1.88009 -0.783701 -4.63367e-19)
(1.77386 -0.57493 -4.62265e-20)
(1.73752 -0.395641 -9.1335e-21)
(1.5886 -0.203163 -2.80082e-20)
(0.650858 0.000369318 1.58275e-19)
(1.09298 0.450953 2.40351e-19)
(1.25862 0.414848 -4.13234e-20)
(1.67812 -0.103628 1.78853e-19)
(2.04655 -0.641997 -6.15323e-20)
(2.15708 -0.855152 -8.60527e-20)
(2.14111 -0.783297 -6.6222e-20)
(1.98849 -0.558972 5.10667e-20)
(1.89644 -0.368005 -1.52216e-19)
(1.72249 -0.183448 1.90824e-20)
(1.35437 0.0660851 -4.44497e-20)
(1.44839 0.342963 -1.63611e-19)
(1.74267 0.263249 -4.50612e-19)
(2.27119 -0.273005 1.17515e-19)
(2.56096 -0.743373 -6.07401e-19)
(2.53029 -0.87465 -2.25069e-19)
(2.38665 -0.739314 4.28627e-20)
(2.17126 -0.490736 -3.75403e-20)
(2.0305 -0.298421 1.82618e-19)
(1.8268 -0.144238 3.51655e-20)
(1.97058 0.124227 1.26957e-20)
(1.94319 0.290502 5.60043e-20)
(2.31096 0.117164 -8.27382e-20)
(2.73907 -0.381178 -5.47321e-36)
(2.89097 -0.751848 -5.38851e-20)
(2.77646 -0.813013 5.55598e-34)
(2.54127 -0.652666 7.73702e-20)
(2.26119 -0.41513 2.34223e-33)
(2.08978 -0.231025 -6.5412e-21)
(1.87169 -0.105133 9.35964e-21)
(2.30021 0.128996 4.45837e-20)
(2.38773 0.223375 1.16428e-19)
(2.74661 0.00133766 4.44692e-19)
(3.03792 -0.455526 0)
(3.1137 -0.764196 3.90123e-19)
(2.95675 -0.765087 5.91395e-20)
(2.67003 -0.557272 -1.77095e-19)
(2.32148 -0.317698 5.02463e-33)
(2.09869 -0.148988 -1.25504e-19)
(1.86517 -0.0625485 -1.34818e-20)
(2.50788 0.0904078 6.00435e-20)
(2.67334 0.125205 -1.82573e-20)
(2.97809 -0.0948489 0)
(3.20142 -0.49946 0)
(3.22462 -0.734983 0)
(2.97491 -0.666865 0)
(2.62529 -0.430127 1.53813e-20)
(2.26292 -0.203774 5.28642e-33)
(2.03702 -0.0588951 -9.06026e-21)
(1.81452 -0.0171591 -2.08497e-33)
(2.6586 0.0326567 2.04497e-20)
(2.81139 0.0344721 0)
(3.06836 -0.173226 0)
(3.27721 -0.533644 0)
(3.19539 -0.690491 0)
(2.83813 -0.549176 0)
(2.41975 -0.294502 -2.66541e-20)
(2.05216 -0.0948807 1.85481e-19)
(1.85873 0.0180988 -1.05736e-20)
(1.69457 0.02103 3.96581e-21)
(2.72447 -0.0165797 0)
(2.83039 -0.037646 1.37136e-19)
(3.09617 -0.244348 2.68457e-19)
(3.20726 -0.538164 0)
(2.89046 -0.588012 1.31538e-19)
(2.40167 -0.386911 -4.02525e-20)
(1.98877 -0.144668 -1.26275e-19)
(1.69045 0.0059923 -8.54402e-20)
(1.56925 0.0741711 7.77541e-20)
(1.49338 0.044395 -3.35354e-20)
(2.66337 -0.0556314 3.4054e-20)
(2.75537 -0.107214 -1.85614e-20)
(2.96472 -0.287798 2.37251e-20)
(2.7605 -0.453382 -6.49607e-35)
(2.14956 -0.396558 -1.04736e-20)
(1.58047 -0.193028 -1.77714e-35)
(1.26859 -0.0203092 -2.4253e-20)
(1.13933 0.0636896 -8.60648e-20)
(1.14456 0.0904856 -1.17528e-20)
(1.17455 0.0468282 2.56144e-20)
(2.31842 -0.0698332 0)
(2.36131 -0.164999 -8.09217e-20)
(2.26439 -0.25193 -6.50732e-20)
(1.63077 -0.203472 0)
(0.92438 -0.111011 -5.29616e-20)
(0.561877 -0.0367835 -3.40277e-20)
(0.473996 0.0155969 -4.70681e-20)
(0.5179 0.047657 -1.43143e-21)
(0.621195 0.0557232 -1.61704e-20)
(0.717366 0.0274817 -2.40297e-20)
(1.21243 -0.0670298 1.02393e-20)
(0.940317 -0.078487 0)
(0.548615 -0.0154744 0)
(0.268699 0.00736377 0)
(0.0771186 -0.00810207 0)
(-0.0273526 -0.0124513 0)
(-0.0551569 -0.00404624 -2.24347e-20)
(-0.0062146 0.00705134 1.17829e-34)
(0.0815753 0.0130267 -1.25754e-20)
(0.164258 0.00655037 -2.6099e-20)
(2.31857 0.296772 3.59249e-19)
(2.34365 0.251472 1.43459e-19)
(2.33994 0.2118 3.02603e-19)
(2.33095 0.174528 -3.28074e-19)
(2.29524 0.136964 9.03753e-20)
(2.24356 0.119299 5.27916e-20)
(2.09645 0.0627584 1.87557e-20)
(1.83817 0.0464009 2.20678e-20)
(1.49437 -0.0304568 5.91675e-20)
(0.822249 -0.0672052 -4.82258e-20)
(2.31341 0.25824 -1.72865e-19)
(2.34366 0.226567 3.8022e-20)
(2.36304 0.205157 1.13546e-19)
(2.36656 0.181539 1.09953e-19)
(2.3667 0.146974 -1.97976e-19)
(2.32306 0.133117 1.19003e-19)
(2.32196 0.0966162 1.78876e-20)
(2.14196 0.068486 -6.16356e-21)
(2.1161 0.0586064 5.45508e-21)
(1.68407 -0.00495546 4.00287e-20)
(2.34941 0.227545 2.38718e-20)
(2.36899 0.203505 -1.11731e-19)
(2.39588 0.180168 -1.46171e-19)
(2.39242 0.16615 3.21961e-19)
(2.41977 0.147355 -2.03363e-20)
(2.36973 0.126039 3.8481e-20)
(2.414 0.122247 -7.60822e-20)
(2.28881 0.0826736 -6.20578e-20)
(2.33381 0.10329 -3.24213e-20)
(2.12064 0.0513885 -1.44066e-20)
(2.40082 0.198799 4.14139e-20)
(2.41664 0.176514 -1.3706e-19)
(2.44977 0.160874 3.07453e-20)
(2.44269 0.140332 -1.04269e-19)
(2.47789 0.136228 1.46172e-19)
(2.44104 0.111074 -5.61487e-20)
(2.47954 0.119571 1.74608e-20)
(2.41066 0.0887704 -1.87384e-20)
(2.43837 0.105985 -1.17812e-20)
(2.34109 0.0798973 8.86507e-21)
(2.43928 0.167749 7.87348e-20)
(2.46075 0.145738 -2.10452e-19)
(2.49609 0.137955 -1.70186e-20)
(2.50134 0.115426 -1.58724e-20)
(2.53362 0.115055 -5.97411e-21)
(2.52222 0.0929232 -1.14014e-21)
(2.55023 0.0972531 3.07305e-20)
(2.52136 0.0793427 -2.39915e-20)
(2.54058 0.0841739 -3.64822e-20)
(2.49382 0.076107 -4.54265e-20)
(2.44806 0.132658 1.41296e-19)
(2.4757 0.113668 2.36395e-20)
(2.51251 0.108454 -1.43017e-19)
(2.53166 0.0902652 8.37489e-20)
(2.56372 0.0872485 6.41946e-20)
(2.57387 0.0720162 -4.48834e-20)
(2.60114 0.068512 6.299e-20)
(2.59988 0.0587387 2.04049e-20)
(2.62332 0.0533818 -7.21418e-20)
(2.60903 0.0521674 -8.80192e-20)
(2.41073 0.0950665 1.78626e-20)
(2.44253 0.0800249 4.26137e-20)
(2.48037 0.0753696 -5.57264e-20)
(2.50937 0.0619323 -3.18936e-20)
(2.54488 0.0568668 6.29698e-20)
(2.57009 0.0460823 2.82509e-20)
(2.60228 0.03892 5.69531e-20)
(2.62307 0.0314095 4.48341e-20)
(2.6506 0.0216255 8.87795e-21)
(2.66764 0.0193856 3.48548e-20)
(2.28845 0.0608263 2.17801e-20)
(2.32744 0.0491351 1.58081e-22)
(2.35953 0.0454769 -6.63119e-20)
(2.40261 0.0354638 -5.60376e-20)
(2.43258 0.0304186 3.1696e-20)
(2.47979 0.0222448 -2.60904e-20)
(2.50567 0.0138249 -2.21304e-20)
(2.55764 0.00671241 6.81627e-20)
(2.57663 -0.00554755 -5.58109e-20)
(2.63478 -0.011927 -6.47586e-20)
(1.97415 0.0176019 5.43612e-20)
(2.02345 0.012687 -2.76445e-20)
(2.03733 0.00942461 -2.59241e-20)
(2.0986 0.00516115 2.77167e-20)
(2.10636 0.00108051 -1.62753e-20)
(2.18002 -0.00272372 -3.95029e-21)
(2.18012 -0.00929561 -2.41634e-20)
(2.2655 -0.0141896 1.48438e-20)
(2.25717 -0.0245189 1.48171e-20)
(2.35137 -0.032666 -1.66185e-20)
(1.15208 -0.00161474 0)
(1.1754 -0.00264434 2.42509e-21)
(1.16909 -0.00413279 -3.54895e-20)
(1.20164 -0.00511314 -5.35173e-20)
(1.19005 -0.00789204 2.94157e-20)
(1.23317 -0.00828477 1.15845e-19)
(1.21399 -0.0144983 -7.48556e-21)
(1.26544 -0.0129721 -5.94059e-20)
(1.23715 -0.0246555 -7.01192e-21)
(1.2913 -0.0211208 2.41359e-21)
(1.39655 0.821685 -4.5706e-20)
(1.38432 0.865341 -9.54548e-20)
(1.3858 0.912105 -6.53501e-19)
(1.39086 0.964671 2.03998e-19)
(1.39423 1.02047 1.03669e-18)
(1.38953 1.07434 1.45274e-19)
(1.36395 1.11092 -7.87572e-20)
(1.29322 1.10415 -3.33191e-19)
(1.10468 0.987704 -3.33766e-19)
(0.58925 0.547486 -4.59137e-20)
(1.54324 0.793551 -3.74467e-19)
(1.53645 0.836165 1.089e-18)
(1.53556 0.881104 4.92949e-19)
(1.54013 0.932091 -7.34667e-19)
(1.54613 0.98703 2.47866e-19)
(1.5446 1.03987 2.40286e-19)
(1.51922 1.07391 7.99378e-19)
(1.4424 1.06492 -1.17555e-18)
(1.2315 0.947206 -5.08401e-20)
(0.649648 0.516632 2.11039e-19)
(1.68062 0.763973 1.06401e-19)
(1.68043 0.805747 8.59798e-19)
(1.68011 0.848314 1.67389e-20)
(1.68412 0.895205 -4.34945e-19)
(1.69109 0.945838 1.27879e-19)
(1.69086 0.994003 -6.89233e-20)
(1.66392 1.02201 -4.69555e-20)
(1.57919 1.00879 -4.0697e-19)
(1.34307 0.888147 1.95669e-20)
(0.697192 0.472851 -2.17259e-19)
(1.80573 0.722212 -4.36205e-19)
(1.81162 0.761821 4.01569e-19)
(1.81591 0.801888 -6.18777e-19)
(1.82285 0.844768 -2.32015e-19)
(1.8312 0.890092 1.37209e-18)
(1.83023 0.931897 -8.73018e-19)
(1.79881 0.952622 -9.96026e-19)
(1.70418 0.934417 4.30755e-19)
(1.4379 0.811902 -1.23805e-19)
(0.728652 0.419382 -6.45583e-20)
(1.91845 0.675583 5.4633e-19)
(1.92825 0.71246 4.40724e-19)
(1.93537 0.748562 -2.09332e-19)
(1.94357 0.786207 8.24916e-19)
(1.95221 0.825637 1.66995e-19)
(1.9491 0.859393 -3.76365e-19)
(1.91159 0.869465 5.59769e-19)
(1.805 0.845412 -6.68139e-19)
(1.50183 0.721385 -7.57828e-19)
(0.736063 0.3563 -2.79216e-21)
(2.01941 0.618072 7.26678e-19)
(2.03128 0.650523 9.14837e-19)
(2.04157 0.682619 -9.37257e-19)
(2.05284 0.715528 -9.64358e-19)
(2.06148 0.747382 2.36775e-19)
(2.05211 0.771253 -7.08426e-19)
(2.00254 0.773116 -4.6724e-19)
(1.87836 0.743549 4.05029e-19)
(1.53228 0.615756 6.91739e-20)
(0.716771 0.285641 -1.49627e-20)
(2.1098 0.558278 6.7496e-19)
(2.12339 0.587096 -9.07166e-19)
(2.13342 0.614448 -8.05042e-19)
(2.14012 0.641478 6.32105e-19)
(2.1415 0.667811 -5.68221e-19)
(2.12105 0.677697 1.69606e-18)
(2.06063 0.670483 -2.56189e-19)
(1.91314 0.634295 -1.37557e-18)
(1.51825 0.500864 6.01641e-19)
(0.66595 0.212537 3.18642e-20)
(2.18667 0.492023 -4.44695e-19)
(2.19763 0.513708 -6.36681e-19)
(2.20702 0.534872 -8.8308e-19)
(2.21768 0.555465 3.0656e-20)
(2.21469 0.565768 2.75201e-19)
(2.17067 0.568718 2.97406e-19)
(2.09486 0.55693 7.11705e-19)
(1.9082 0.514291 -3.73533e-19)
(1.45643 0.379736 1.93013e-20)
(0.585788 0.142533 6.35504e-20)
(2.24457 0.432104 2.21533e-19)
(2.25533 0.451829 -7.41463e-20)
(2.26454 0.469887 4.31203e-19)
(2.25822 0.482631 1.0682e-18)
(2.22596 0.478348 -3.51792e-19)
(2.18503 0.474412 -1.36034e-18)
(2.08998 0.453715 1.0505e-18)
(1.85032 0.398393 9.41711e-19)
(1.33738 0.263064 -4.80325e-19)
(0.479699 0.0825733 -8.76039e-21)
(2.29774 0.373268 -4.59093e-19)
(2.30327 0.385832 -4.98071e-21)
(2.29337 0.392456 6.19471e-19)
(2.26735 0.392288 6.1122e-19)
(2.23263 0.386953 4.27995e-19)
(2.17261 0.379558 -7.1003e-19)
(2.03385 0.350193 3.35389e-20)
(1.72819 0.282903 -3.60568e-19)
(1.15812 0.154133 -5.43203e-19)
(0.35901 0.0372616 -1.31524e-20)
(0.506039 0.301344 3.83121e-20)
(0.468517 0.309624 -1.96186e-19)
(0.426513 0.319052 -3.55858e-20)
(0.380652 0.329712 1.46776e-19)
(0.330743 0.341293 -2.7723e-20)
(0.276149 0.352188 -2.43263e-20)
(0.216119 0.35718 -5.53033e-20)
(0.149001 0.343635 -2.80486e-20)
(0.0768331 0.288331 1.06005e-19)
(0.0289022 0.150563 5.91752e-21)
(0.546932 0.399766 8.59172e-21)
(0.509789 0.41373 3.52358e-20)
(0.468815 0.429199 2.24987e-21)
(0.4243 0.446268 1.09055e-20)
(0.375839 0.464607 5.9177e-20)
(0.322561 0.482419 3.09017e-20)
(0.263138 0.493593 6.93447e-20)
(0.195086 0.482754 -6.76143e-20)
(0.116926 0.418337 7.41959e-20)
(0.0500717 0.230447 -1.70712e-21)
(0.603295 0.492703 -1.11209e-19)
(0.567224 0.512112 -1.41261e-20)
(0.528084 0.533242 3.44008e-20)
(0.48574 0.556338 -5.08284e-20)
(0.439557 0.581181 -7.40642e-21)
(0.388428 0.605915 1.27209e-19)
(0.330364 0.623657 -1.65578e-20)
(0.261797 0.616413 -3.3851e-20)
(0.176539 0.544484 -2.70125e-22)
(0.083218 0.307999 1.80173e-20)
(0.672557 0.580485 -6.01229e-20)
(0.638193 0.605571 -1.27666e-19)
(0.601884 0.632315 -4.39613e-20)
(0.56273 0.661145 8.96812e-21)
(0.519709 0.691922 -1.41152e-19)
(0.471508 0.722662 -7.78066e-20)
(0.415519 0.745715 -2.04771e-19)
(0.346868 0.740807 7.0633e-20)
(0.253611 0.661265 -5.09796e-20)
(0.127057 0.379101 -9.26273e-20)
(0.754125 0.656481 7.90559e-20)
(0.722386 0.686412 -8.37867e-20)
(0.690205 0.718052 1.93951e-21)
(0.655914 0.752231 -4.57958e-20)
(0.617942 0.788883 -7.15412e-20)
(0.574436 0.825799 9.34622e-20)
(0.521773 0.854543 7.14318e-20)
(0.453243 0.85267 -1.27842e-19)
(0.350113 0.767053 -2.48922e-19)
(0.181914 0.442891 5.24483e-20)
(0.844292 0.726379 2.41672e-20)
(0.814821 0.760936 1.96246e-20)
(0.786487 0.796421 7.1258e-20)
(0.756826 0.834546 4.24348e-20)
(0.724074 0.87571 1.90151e-19)
(0.686131 0.917476 -1.7242e-19)
(0.63825 0.950302 -1.27856e-19)
(0.571212 0.949732 -3.98906e-20)
(0.458247 0.857471 1.0141e-19)
(0.243429 0.495611 1.53011e-19)
(0.943671 0.778567 -6.32422e-20)
(0.918809 0.81706 3.36177e-20)
(0.896672 0.856044 2.11625e-19)
(0.873461 0.897714 -1.20798e-19)
(0.84686 0.942798 -3.59463e-19)
(0.814579 0.988875 1.90436e-19)
(0.771107 1.0254 5.86381e-19)
(0.704785 1.02598 1.58124e-19)
(0.579558 0.928617 -3.57718e-20)
(0.311257 0.535853 2.20822e-19)
(1.04603 0.824764 -2.21958e-19)
(1.02334 0.865276 -7.18624e-20)
(1.00621 0.90567 2.29353e-19)
(0.989953 0.949388 -1.11309e-19)
(0.97137 0.99707 8.2518e-20)
(0.94701 1.04559 3.86308e-19)
(0.909703 1.08318 -4.24635e-19)
(0.844833 1.08243 -3.9559e-19)
(0.707092 0.978796 3.39623e-19)
(0.381839 0.561519 -1.43553e-21)
(1.1564 0.845241 -1.65177e-20)
(1.14293 0.888434 4.18049e-20)
(1.13362 0.929723 -2.05737e-19)
(1.12351 0.974622 -7.16583e-20)
(1.11059 1.02463 4.66273e-19)
(1.09179 1.07593 1.39778e-19)
(1.05851 1.11485 -1.22384e-19)
(0.992734 1.11295 0)
(0.839946 1.00429 -2.22401e-19)
(0.45349 0.571195 -1.14239e-19)
(1.24786 0.85216 0)
(1.24279 0.896716 0)
(1.24776 0.940429 6.05722e-19)
(1.25116 0.986916 1.39014e-19)
(1.24934 1.03744 -2.18024e-19)
(1.23911 1.08848 4.08809e-19)
(1.21092 1.12569 -2.98106e-19)
(1.14393 1.12112 -8.1997e-19)
(0.974595 1.0079 4.20203e-19)
(0.523901 0.566642 2.17587e-19)
(0.993968 -0.00105724 -1.45987e-20)
(1.01398 -0.0133738 -1.08216e-20)
(1.0367 0.0558113 8.06198e-21)
(1.03983 0.154577 2.63826e-21)
(1.02258 0.21017 1.00875e-20)
(0.985986 0.236357 2.01265e-20)
(0.950386 0.228585 -1.05733e-20)
(0.884244 0.232018 -1.1793e-20)
(0.816225 0.243221 -7.29325e-20)
(0.6715 0.26057 4.51656e-20)
(0.993505 -0.00246345 -3.85446e-22)
(1.0151 -0.0185623 8.42532e-21)
(1.03636 0.0520656 1.16822e-22)
(1.0382 0.157957 6.17702e-21)
(1.02155 0.217884 7.73372e-21)
(0.98543 0.246767 -3.08825e-20)
(0.952856 0.242743 -1.3148e-20)
(0.893009 0.250677 4.63423e-22)
(0.831124 0.275994 1.8689e-19)
(0.707607 0.325706 4.5412e-21)
(0.992664 -0.00403526 6.02285e-22)
(1.01644 -0.0235313 1.65808e-20)
(1.03656 0.0492083 -1.03595e-20)
(1.03752 0.162138 -7.73887e-22)
(1.0215 0.225838 -8.82943e-21)
(0.985376 0.257089 1.54523e-21)
(0.954763 0.255384 1.68032e-20)
(0.903061 0.268012 -1.63793e-20)
(0.845881 0.30568 1.06941e-19)
(0.753825 0.387437 -2.42002e-19)
(0.991527 -0.00574068 3.75247e-21)
(1.01786 -0.0283762 -9.22633e-22)
(1.03736 0.047177 -1.1891e-20)
(1.03772 0.167143 -1.55574e-20)
(1.02217 0.234088 2.00935e-20)
(0.98574 0.267508 2.21203e-20)
(0.956675 0.266376 -2.23933e-20)
(0.914455 0.284333 8.41329e-20)
(0.860942 0.331617 -9.80196e-20)
(0.809201 0.44496 -2.64211e-19)
(0.99014 -0.00757071 3.48601e-22)
(1.01936 -0.0331808 -1.98481e-20)
(1.03884 0.0459079 5.02312e-21)
(1.03867 0.173025 2.50006e-20)
(1.02336 0.242677 7.95553e-21)
(0.986658 0.278008 4.89371e-20)
(0.959232 0.275553 2.65446e-20)
(0.92726 0.29998 7.17495e-20)
(0.876515 0.353296 -8.32323e-22)
(0.872619 0.497009 1.97476e-19)
(0.988544 -0.00951448 -1.38238e-21)
(1.02089 -0.0380284 2.53844e-22)
(1.04096 0.0453544 -2.75241e-21)
(1.0402 0.179841 7.18855e-21)
(1.02508 0.251572 -2.79253e-20)
(0.988563 0.288414 7.84243e-21)
(0.96298 0.282884 -3.80808e-21)
(0.941187 0.315217 -2.10481e-19)
(0.893093 0.370168 0)
(0.944798 0.545453 -2.53658e-20)
(0.986874 -0.0115417 7.19661e-22)
(1.02221 -0.0429879 1.1072e-20)
(1.04335 0.0454492 8.87605e-22)
(1.04207 0.187569 -3.65233e-20)
(1.02756 0.260612 -1.0452e-20)
(0.992016 0.298522 -6.08401e-20)
(0.968479 0.288631 4.69808e-21)
(0.955564 0.330079 5.08502e-21)
(0.913045 0.382873 -2.02299e-21)
(1.01894 0.585113 7.5313e-19)
(0.985431 -0.0135794 -4.29502e-21)
(1.02273 -0.0479958 1.44994e-20)
(1.04538 0.0460437 6.45356e-21)
(1.04419 0.195959 1.66071e-20)
(1.03125 0.269498 -4.37309e-20)
(0.997378 0.308045 1.36166e-20)
(0.976537 0.293148 -2.96622e-21)
(0.97017 0.344278 2.58794e-20)
(0.938291 0.390017 1.34209e-19)
(1.10415 0.629198 -3.01353e-20)
(0.984645 -0.0155192 1.92569e-21)
(1.02171 -0.052747 -8.46431e-21)
(1.04634 0.0472568 -7.2864e-22)
(1.04678 0.204758 2.93313e-20)
(1.0368 0.277945 4.18511e-21)
(1.00474 0.316451 2.17256e-20)
(0.988049 0.296647 -4.77262e-20)
(0.985484 0.356504 6.49841e-20)
(0.972919 0.38928 2.70746e-19)
(1.17043 0.650655 -6.37998e-19)
(0.98491 -0.0172978 5.29845e-21)
(1.01873 -0.0570428 -2.16259e-20)
(1.04602 0.049913 3.92836e-22)
(1.05021 0.215182 -1.15174e-20)
(1.04484 0.286439 4.75087e-20)
(1.01478 0.323765 -2.93424e-20)
(1.00361 0.299711 -1.60482e-20)
(1.0052 0.367441 3.468e-20)
(1.01515 0.402015 -1.43116e-19)
(1.2755 0.704326 3.52193e-19)
(0.986706 -0.0191028 -1.49484e-21)
(1.01186 -0.0623673 3.32324e-21)
(1.04392 0.0454732 -5.38332e-22)
(1.05684 0.22079 -3.02422e-20)
(1.0628 0.291471 -2.96868e-20)
(1.03688 0.332916 -4.11186e-20)
(1.03477 0.297413 1.50069e-20)
(1.04635 0.376866 -1.40671e-19)
(1.06144 0.348019 -4.83052e-19)
(1.28482 0.694365 -1.3275e-19)
(0.990479 -0.0201627 -8.19456e-21)
(0.999741 -0.0675463 -8.42234e-22)
(1.0372 0.0290677 8.3941e-22)
(1.06067 0.216579 7.69821e-21)
(1.105 0.287785 1.44965e-20)
(1.07991 0.341092 5.90435e-20)
(1.1339 0.285583 1.55134e-20)
(1.13231 0.377595 1.06785e-19)
(1.21108 0.310228 2.00413e-19)
(1.28389 0.594744 2.53955e-19)
(0.994149 -0.020059 -1.77744e-21)
(0.988743 -0.0702336 -2.08018e-21)
(1.03237 0.0108085 2.03196e-21)
(1.05142 0.20344 4.40383e-21)
(1.19173 0.274832 4.80214e-35)
(1.11805 0.335563 -7.56748e-21)
(1.32661 0.26592 -4.48537e-34)
(1.225 0.364095 1.64989e-20)
(1.45279 0.290044 -4.21789e-20)
(1.35 0.511575 -2.06691e-19)
(0.996824 -0.0188409 1.78403e-20)
(0.982899 -0.0709854 -1.92077e-35)
(1.0285 -0.00596303 -2.25034e-21)
(1.03001 0.169513 -1.27442e-21)
(1.30236 0.25124 -1.42404e-20)
(1.14498 0.308022 5.18786e-21)
(1.53202 0.233213 -5.30493e-34)
(1.32763 0.34252 -4.09266e-20)
(1.66056 0.266591 -9.71935e-20)
(1.51953 0.439146 2.30065e-19)
(0.998309 -0.0175351 0)
(0.985149 -0.0706639 -8.25814e-35)
(1.02317 -0.0189109 0)
(1.02359 0.112552 0)
(1.3649 0.218697 0)
(1.20172 0.262516 0)
(1.63469 0.188688 -3.27907e-34)
(1.44806 0.315804 0)
(1.76885 0.230728 -1.6365e-20)
(1.70953 0.372268 1.37864e-19)
(0.998054 -0.0182519 2.41282e-21)
(0.998695 -0.0696442 -7.72628e-21)
(1.0243 -0.0321905 -3.21672e-21)
(1.04106 0.0482443 0)
(1.36122 0.178104 0)
(1.28484 0.208346 6.28209e-21)
(1.63951 0.142908 2.82589e-20)
(1.56427 0.280148 -1.19079e-20)
(1.8087 0.191598 -2.49909e-20)
(1.84366 0.307214 9.74464e-20)
(0.995247 -0.0228594 -6.71696e-20)
(1.02345 -0.0687888 7.55366e-21)
(1.03192 -0.0480179 -4.59881e-21)
(1.06659 -0.0101132 -2.34533e-20)
(1.29853 0.126053 -2.2858e-20)
(1.34503 0.148513 6.76065e-21)
(1.57626 0.0975038 -2.81334e-20)
(1.62442 0.233826 -1.7285e-20)
(1.7924 0.152364 -3.12623e-20)
(1.90821 0.242236 1.04745e-19)
(0.989682 -0.0295396 -4.69121e-21)
(1.04187 -0.0679101 -1.06594e-20)
(1.02627 -0.059494 -5.56226e-21)
(1.06677 -0.0406287 -4.72871e-21)
(1.16194 0.075821 -7.02026e-35)
(1.34792 0.0895203 6.56711e-21)
(1.41511 0.0565494 -8.80713e-34)
(1.59043 0.182226 -1.07485e-20)
(1.69189 0.11058 1.64681e-20)
(1.89598 0.17476 2.27099e-20)
(0.969956 -0.049138 1.32144e-19)
(1.04242 -0.0680491 -2.34582e-21)
(0.965049 -0.0682259 -6.21318e-21)
(0.963338 -0.048642 8.67605e-21)
(0.92824 0.0247243 9.90468e-21)
(1.18871 0.0314433 7.34195e-21)
(1.0755 0.0320978 1.37921e-20)
(1.38747 0.102559 -2.62683e-20)
(1.42173 0.0571185 -2.96432e-20)
(1.70536 0.0918922 7.80262e-20)
(0.871475 -0.032103 6.26217e-21)
(0.856039 -0.0505162 -4.92843e-35)
(0.621233 -0.0491272 -6.63043e-21)
(0.511565 -0.0217588 0)
(0.461386 0.00307703 0)
(0.596118 0.00884992 6.78091e-21)
(0.521123 0.014803 -6.52381e-36)
(0.775867 0.0301195 -9.78215e-21)
(0.800524 0.0160865 -2.50244e-20)
(1.01994 0.0318137 -3.79953e-20)
(1.47416 0.715242 1.48542e-19)
(1.57269 0.69865 -4.84092e-20)
(1.68637 0.673466 -3.16823e-21)
(1.79862 0.637371 5.26014e-20)
(1.9029 0.594836 -2.15654e-19)