/*--------------------------------*- C++ -*----------------------------------*\
| =========                 |                                                 |
| \\      /  F ield         | OpenFOAM: The Open Source CFD Toolbox           |
|  \\    /   O peration     | Version:  2406                                  |
|   \\  /    A nd           | Website:  www.openfoam.com                      |
|    \\/     M anipulation  |                                                 |
\*---------------------------------------------------------------------------*/
FoamFile
{
    version     2.0;
    format      ascii;
    arch        "LSB;label=32;scalar=64";
    class       volScalarField;
    location    "0.4";
    object      nu;
}
// * * * * * * * * * * * * * * * * * * * * * * * * * * * * * * * * * * * * * //

dimensions      [0 2 -1 0 0 0 0];

internalField   nonuniform List<scalar> 
1800
(
0.00978898
0.0142848
0.0111567
0.0100891
0.00989391
0.00986374
0.0098222
0.00974428
0.00980913
0.0102437
0.011427
0.0131287
0.0100989
0.00947811
0.00955114
0.0097227
0.0098404
0.00988284
0.00999102
0.00898486
0.015335
0.0111919
0.00925344
0.00904697
0.00929319
0.00955604
0.00973229
0.00980464
0.00995896
0.00927917
0.015745
0.00966078
0.0086495
0.00874516
0.00909217
0.00939233
0.00957483
0.00963286
0.00977255
0.00881881
0.0109247
0.00865523
0.00829196
0.00858374
0.00902148
0.0093734
0.00958002
0.00962238
0.00967175
0.00864209
0.00885203
0.00806722
0.00806961
0.00851529
0.00906716
0.00950449
0.00974438
0.00973588
0.00959364
0.00839138
0.00785236
0.00767805
0.00793901
0.00855538
0.00926732
0.0098194
0.0100614
0.00989341
0.00940392
0.00830294
0.00725804
0.00741672
0.00790366
0.00873351
0.00966144
0.0103244
0.0104416
0.0099426
0.00916346
0.00827246
0.00686816
0.00725127
0.00796717
0.00907477
0.0102704
0.0109456
0.0106967
0.00981128
0.00896465
0.00840555
0.00660199
0.00716288
0.0081308
0.00959555
0.0110713
0.0115159
0.0107085
0.00960606
0.00888657
0.00861706
0.00862107
0.0145139
0.0218132
0.0220856
0.0209952
0.0198069
0.0184738
0.0169626
0.0153245
0.0139486
0.0083492
0.0142845
0.0230295
0.0224124
0.0206014
0.0193016
0.0180303
0.0164716
0.0147341
0.0133173
0.00814286
0.0142213
0.0261309
0.0236504
0.0206157
0.0190408
0.0177497
0.0161147
0.0142784
0.0128154
0.00799432
0.0143255
0.0360953
0.0258814
0.0207393
0.0188489
0.0175606
0.0158702
0.0139521
0.0124378
0.00789629
0.0146773
0.115599
0.0300864
0.0206645
0.0185157
0.01735
0.0156355
0.0136274
0.0121241
0.00786251
0.0149951
0.3788
0.0327101
0.0203196
0.018368
0.0175168
0.0158017
0.0135413
0.0119064
0.00790925
0.0142346
0.0394366
0.023118
0.0187768
0.0182664
0.0180728
0.0166092
0.0138815
0.0117988
0.00806834
0.0138623
0.0196762
0.0170908
0.0160471
0.0164218
0.0171098
0.0169714
0.0142398
0.0115938
0.00838732
0.0137571
0.014878
0.0133421
0.0129384
0.0131626
0.013739
0.0146536
0.0138338
0.0112944
0.00892381
0.0141396
0.0126584
0.0112998
0.0109563
0.0109114
0.0109856
0.0112932
0.011426
0.0106517
0.0142955
0.0135066
0.016344
0.0200373
0.0247427
0.0313275
0.0383591
0.0459313
0.0489883
0.0635227
0.0140847
0.013782
0.0161579
0.0197908
0.0244377
0.0315157
0.0395435
0.0482434
0.0517078
0.0670931
0.0139107
0.0143243
0.0159953
0.0195003
0.0239247
0.0311303
0.0396051
0.0486674
0.0527113
0.0675548
0.0137909
0.0151136
0.0157181
0.0188874
0.022865
0.02947
0.0372048
0.0450227
0.0490823
0.0604114
0.013649
0.0153585
0.0148127
0.0172736
0.0204932
0.0255394
0.0312986
0.0367061
0.0399714
0.0462579
0.0130462
0.013785
0.0130841
0.0146374
0.0168844
0.0200538
0.0236172
0.0268943
0.0291451
0.0320741
0.0118547
0.0117351
0.0114747
0.0123794
0.0137796
0.0155973
0.0176197
0.019517
0.0209408
0.0224521
0.0105137
0.010443
0.0105042
0.0110922
0.0119726
0.0130299
0.0141768
0.0152561
0.0160977
0.0169757
0.00959414
0.0100153
0.010116
0.0105279
0.0111908
0.0119339
0.0126995
0.0134088
0.0139226
0.0145311
0.00861781
0.0102714
0.0102419
0.0104153
0.0109229
0.0115226
0.0121221
0.0126689
0.0130452
0.0135638
0.00962097
0.0113374
0.0113194
0.0113224
0.011671
0.0121516
0.0126563
0.0131426
0.0134171
0.0139114
0.00981935
0.0102463
0.0109101
0.0117542
0.0127012
0.0135349
0.0142094
0.014783
0.0150882
0.015595
0.00994883
0.0103848
0.0110379
0.0120752
0.0136233
0.0152566
0.0166932
0.0178818
0.0186806
0.019427
0.0130908
0.012226
0.0122464
0.0131406
0.0153035
0.0183722
0.0217648
0.025407
0.0283915
0.032735
0.0138296
0.0124482
0.0126649
0.0137838
0.0164475
0.0209145
0.0271204
0.0356462
0.0470024
0.0996815
0.0144923
0.013929
0.0137813
0.0147366
0.0171682
0.0206764
0.0244741
0.0275954
0.0308462
0.0326516
0.013441
0.0121116
0.0118046
0.0124563
0.0135409
0.0144888
0.0152763
0.0157905
0.016265
0.0163038
0.00967715
0.00921924
0.00935334
0.00982069
0.0103454
0.0107385
0.0110529
0.0112733
0.0114454
0.0115168
0.00755167
0.00775672
0.00813121
0.00853627
0.00888573
0.00912161
0.00929423
0.0094147
0.00949172
0.0095561
0.00710051
0.00756529
0.00803022
0.008422
0.00860185
0.00864933
0.00866193
0.00866513
0.00866027
0.00869182
0.00954267
0.00901832
0.00852068
0.00829333
0.00810079
0.00820893
0.00812505
0.00858879
0.00814784
0.00865907
0.0120579
0.0113147
0.0100876
0.00966699
0.00881536
0.00873855
0.00822889
0.00837555
0.00825224
0.00829478
0.0156489
0.0143454
0.0138709
0.0124869
0.012197
0.0110458
0.0109132
0.00984678
0.0100394
0.00907087
0.0193662
0.0175674
0.0183613
0.015616
0.0180538
0.0156683
0.0282383
0.0151568
0.0202759
0.0126944
0.0205827
0.0194563
0.0198301
0.0191355
0.0192999
0.0216796
0.0216812
0.0546645
0.0227415
0.0252656
0.0162749
0.0163288
0.0168849
0.0182916
0.0182083
0.0218717
0.0180112
0.0203787
0.0177353
0.0171892
0.0119372
0.0122013
0.012461
0.0131779
0.0132445
0.0141983
0.0136101
0.0142867
0.0138366
0.0138836
0.00902211
0.00908048
0.00906145
0.00917474
0.0091536
0.00937805
0.00925041
0.00961304
0.00951485
0.00987062
0.00732862
0.00729211
0.00727077
0.00726717
0.0072916
0.00730891
0.00738244
0.00742455
0.00750058
0.00761194
0.00639562
0.0063965
0.00642015
0.00644805
0.00650807
0.00655124
0.00664266
0.00669013
0.00680901
0.0068359
0.00848418
0.0109606
0.0145179
0.0179141
0.0200958
0.0214429
0.0203329
0.0128732
0.00822699
0.00634476
0.008396
0.00890233
0.0101342
0.0124476
0.015225
0.0176562
0.0195096
0.0131383
0.0081875
0.00632134
0.00878169
0.00860825
0.00904014
0.010346
0.0124481
0.0143703
0.0154973
0.0123118
0.00807836
0.00629534
0.00935923
0.00876073
0.00882735
0.00966401
0.0112271
0.0127654
0.0133758
0.0112598
0.00790337
0.00626103
0.00981821
0.00893896
0.00882308
0.00945265
0.0107451
0.0120572
0.0123923
0.0104887
0.00770555
0.00622469
0.00991969
0.00900988
0.00888427
0.00947545
0.0106971
0.0119325
0.0120256
0.00995726
0.00751997
0.00619962
0.00972273
0.00899128
0.00897567
0.00964134
0.0109332
0.0121856
0.0118853
0.00952542
0.00736557
0.00619786
0.00947696
0.00897887
0.00911604
0.00991765
0.0113422
0.0125222
0.0116059
0.00911787
0.0072477
0.00622887
0.00919023
0.00894668
0.00927107
0.0102352
0.0117158
0.012503
0.011028
0.00873087
0.00717026
0.0063
0.00891504
0.00890696
0.00942838
0.0105244
0.011815
0.0119286
0.0102841
0.00839154
0.00713916
0.00641981
0.0138032
0.01373
0.013653
0.0135343
0.0133374
0.0131119
0.0129114
0.0125421
0.0111033
0.00833825
0.0137576
0.0136246
0.0135502
0.0134376
0.0132325
0.0129972
0.0128014
0.0123556
0.0105405
0.00784173
0.013782
0.0136014
0.0135418
0.0134288
0.0132022
0.0129477
0.0127525
0.0122177
0.0100708
0.00747361
0.0136653
0.0133969
0.0133696
0.0132999
0.0131021
0.0128775
0.0127245
0.0121234
0.00968983
0.00719463
0.0138117
0.0135305
0.0135533
0.0134781
0.0132325
0.0129597
0.0127763
0.012022
0.0093369
0.00696842
0.013804
0.0134303
0.0135293
0.0135197
0.0133129
0.0131022
0.0130076
0.0121311
0.00909611
0.00679912
0.0135202
0.0130559
0.0132213
0.0133352
0.0132257
0.0130567
0.0129439
0.0118875
0.00880408
0.00664923
0.0143783
0.0143527
0.0151227
0.0152273
0.0147592
0.0143306
0.0141005
0.0123378
0.00864289
0.00654217
0.0137302
0.0122828
0.0125645
0.0130919
0.0132853
0.013431
0.0136232
0.0120598
0.00846705
0.0064564
0.0144696
0.0189342
0.0184549
0.0172025
0.0166356
0.0163025
0.0154963
0.0120874
0.00828331
0.00638412
0.0188019
0.0391614
0.0269693
0.0540293
0.0605159
0.0477968
0.0307821
0.0232896
0.0155391
0.0133283
0.0185209
0.0382103
0.0263083
0.0473424
0.0627295
0.057014
0.0333438
0.0233776
0.0156858
0.0132517
0.0182424
0.0369374
0.0254105
0.0414587
0.0633508
0.0697124
0.0369045
0.0236043
0.0159363
0.013196
0.0179346
0.0351307
0.0242819
0.0377528
0.0691589
0.0831654
0.0411753
0.024117
0.0163987
0.0130734
0.0175838
0.0327539
0.0232628
0.0381211
0.0905107
0.0861032
0.0437349
0.0248787
0.0168599
0.0133454
0.0172667
0.0303839
0.023324
0.0487716
0.127348
0.0701923
0.0400842
0.0241057
0.0169715
0.012665
0.016987
0.0287033
0.0251185
0.0948703
0.0672637
0.042232
0.0307026
0.0230043
0.0165524
0.0133147
0.0168598
0.0267096
0.0274536
0.0537531
0.0271369
0.0232633
0.0204137
0.0180433
0.0146883
0.0130863
0.0169068
0.023302
0.0265453
0.0238055
0.017929
0.0167941
0.0158531
0.0151965
0.0132849
0.0117267
0.017398
0.0194132
0.0207451
0.0174709
0.0148098
0.0139292
0.0133935
0.01278
0.012051
0.0138812
0.0177672
0.0170123
0.0181754
0.0158907
0.0139611
0.0131278
0.0122532
0.0119971
0.01053
0.0126511
0.017989
0.0153416
0.0185945
0.0162742
0.0143715
0.0134828
0.0121731
0.0123708
0.0101279
0.0111121
0.0183787
0.0141903
0.0205124
0.0183507
0.0162006
0.0147317
0.0135744
0.0124736
0.0111329
0.0111441
0.0192514
0.0134701
0.0204622
0.0216543
0.020093
0.0173973
0.0165319
0.0133777
0.0131168
0.011775
0.0207296
0.0131729
0.0189725
0.0232588
0.0254398
0.0207786
0.0221469
0.0142222
0.0152026
0.0131516
0.0226342
0.0132016
0.0179109
0.0222422
0.0262142
0.0250569
0.0228464
0.0161505
0.0160253
0.0137416
0.0254779
0.0137913
0.0165378
0.0173499
0.0173575
0.018464
0.0161366
0.0183892
0.014083
0.0132118
0.0287129
0.0147292
0.0129693
0.0123877
0.0119395
0.0119477
0.0116061
0.0120446
0.0111057
0.0110913
0.0221408
0.0123991
0.0102475
0.00994798
0.00965178
0.00949612
0.00941712
0.00911987
0.0091112
0.0086686
0.00823434
0.00797222
0.0089647
0.00854789
0.00842915
0.0082217
0.00805448
0.00769643
0.00762951
0.00707798
0.00991656
0.0108898
0.0120849
0.0134395
0.0141242
0.0140332
0.0131493
0.0120417
0.0110137
0.010279
0.0107076
0.0110393
0.01168
0.0122219
0.0123823
0.0124618
0.0128774
0.0134262
0.0135503
0.0131874
0.0116489
0.0119274
0.0125952
0.0131923
0.0133251
0.0131229
0.0132478
0.0137582
0.0147522
0.0151737
0.0128408
0.0131647
0.0137312
0.0141568
0.0141866
0.0139348
0.0140012
0.0145302
0.0161029
0.017313
0.0135085
0.0135993
0.0138057
0.0138252
0.0137558
0.0137553
0.0141721
0.0150677
0.0171316
0.0188813
0.0133193
0.0133622
0.0137439
0.0139914
0.0140888
0.0143133
0.0150273
0.015897
0.0166438
0.0164105
0.0125575
0.0123801
0.0124724
0.0124939
0.0123198
0.0122294
0.0123168
0.0124103
0.0122401
0.0120547
0.0104984
0.0102225
0.0100169
0.00983947
0.00967537
0.00956786
0.00946756
0.00936648
0.00920532
0.00912574
0.00847789
0.00832136
0.00814661
0.00799154
0.00788642
0.0078017
0.00769836
0.00758297
0.0074742
0.00739235
0.00694964
0.00684191
0.00674478
0.00667699
0.00662763
0.00657646
0.00652195
0.00647304
0.00643469
0.00640794
0.00632549
0.00713061
0.00879286
0.0140194
0.161218
0.019194
0.0124766
0.0105905
0.0093939
0.00845014
0.00642576
0.00706669
0.008415
0.0124427
0.0447879
0.024962
0.0134214
0.0104143
0.0091437
0.00834747
0.00659063
0.00706545
0.00809266
0.0107863
0.0197776
0.025169
0.0146988
0.0108277
0.00926501
0.00843991
0.00683257
0.0071333
0.00788463
0.00967323
0.0137332
0.018544
0.0153295
0.0116501
0.00978586
0.00879204
0.00716353
0.00728048
0.00781232
0.00904519
0.0113274
0.0140751
0.0143012
0.0123256
0.010616
0.00949101
0.00759248
0.00751999
0.00788529
0.00877516
0.0102097
0.0117946
0.0125486
0.0121139
0.0112465
0.0104579
0.00810302
0.00785834
0.00810596
0.00877661
0.00973652
0.0106775
0.0112499
0.01136
0.0112404
0.0111619
0.00864906
0.008302
0.00848233
0.00900626
0.0096582
0.010199
0.0105214
0.0106876
0.0108976
0.011223
0.00915729
0.00885128
0.00902582
0.00944526
0.00986536
0.0101346
0.010273
0.0104039
0.0107483
0.0111374
0.00960989
0.00953872
0.00979211
0.0101237
0.0103081
0.0103138
0.0102446
0.0102071
0.0103545
0.0109792
0.0100006
0.0103923
0.010905
0.0112374
0.0112259
0.0110195
0.0108382
0.0108105
0.0110353
0.0128673
0.0103478
0.0114014
0.0124201
0.0128655
0.0127043
0.0123661
0.0122048
0.0123966
0.0127628
0.0140187
0.010664
0.0126015
0.0146104
0.0153142
0.014958
0.0144859
0.0143331
0.0146209
0.0147756
0.0150978
0.0108629
0.0139074
0.0180381
0.0193505
0.0186075
0.0176638
0.0170999
0.0169903
0.0165579
0.0160019
0.0108874
0.0151553
0.0248141
0.0302961
0.0268957
0.0224101
0.0200727
0.0189947
0.0179328
0.0167542
0.0106903
0.0157626
0.032369
0.210443
0.0434892
0.0263855
0.0220207
0.0202181
0.0187808
0.0171946
0.0102844
0.0160298
0.032819
0.0570637
0.0405192
0.0266547
0.0221277
0.0202992
0.018794
0.0171167
0.00981309
0.0158841
0.0269286
0.0315997
0.0295702
0.0244266
0.0211416
0.0193843
0.0179269
0.0164426
0.0093613
0.015408
0.0232085
0.0249793
0.0243247
0.0221282
0.0199673
0.0183742
0.0169179
0.0155553
0.00896097
0.0149022
0.0218443
0.0227601
0.0220617
0.0206944
0.0191104
0.0175884
0.0160463
0.0146978
0.0136726
0.0163942
0.0224798
0.0370676
0.0369277
0.0359723
0.0372525
0.0417903
0.0452732
0.0612798
0.0135198
0.0170293
0.0217934
0.0302572
0.0330554
0.034559
0.036781
0.0420985
0.04806
0.0730169
0.0135818
0.0178451
0.0220286
0.0296699
0.0312127
0.0331394
0.0357019
0.0409961
0.0474581
0.0727653
0.0138281
0.0178775
0.0215058
0.0279154
0.0289895
0.0310805
0.0338828
0.0390199
0.0452832
0.0675277
0.014048
0.0168885
0.020376
0.0255249
0.0270429
0.0293749
0.0323372
0.037144
0.0427295
0.0612963
0.0142752
0.0156247
0.0191028
0.0235641
0.0259374
0.028714
0.0319118
0.0364967
0.0412194
0.0568559
0.0145228
0.0145738
0.0181059
0.0222354
0.0254844
0.0289156
0.0325563
0.0372075
0.0412135
0.0551281
0.0146548
0.0138763
0.0174235
0.0213167
0.0252942
0.0294954
0.0338076
0.0388098
0.0423435
0.05558
0.0146269
0.0135408
0.0169547
0.0207065
0.0251433
0.030173
0.0352869
0.0408898
0.0441179
0.0573551
0.0144897
0.0134351
0.0166027
0.0203171
0.0249659
0.0308286
0.0368377
0.0432952
0.0463278
0.0600188
0.00914122
0.0110224
0.0116026
0.0118945
0.0114202
0.0109865
0.0106607
0.0103781
0.0102529
0.0101908
0.00997953
0.0114113
0.0122949
0.0124942
0.0123103
0.0119981
0.0117507
0.0115115
0.0114203
0.0112815
0.0134862
0.0142291
0.0168947
0.0168301
0.0161052
0.0154217
0.0149563
0.0145552
0.0143281
0.0139784
0.0200851
0.0186587
0.0320041
0.0363191
0.0268778
0.0239798
0.0227076
0.022027
0.0212442
0.020568
0.0157625
0.0171301
0.0292667
0.0774771
0.0383009
0.0338678
0.0332344
0.0346609
0.0342879
0.0366769
0.00671839
0.00688311
0.00710188
0.00735024
0.00760132
0.00780934
0.00796291
0.00808182
0.00824608
0.00836852
0.0070018
0.00714431
0.00734106
0.00756026
0.00779524
0.00806013
0.00836972
0.00881164
0.0091567
0.00975777
0.00728458
0.007393
0.00756345
0.00777829
0.00807201
0.00853148
0.00924695
0.0104445
0.0114458
0.0147922
0.00758309
0.00764453
0.0077915
0.00803047
0.00843806
0.00915471
0.0103446
0.0120954
0.0133458
0.0210855
0.00790949
0.00791839
0.00806275
0.00836977
0.00892835
0.00982569
0.0109013
0.0118124
0.0121053
0.0157218
0.0126862
0.0132267
0.0143934
0.0149876
0.0149584
0.0145345
0.0138636
0.0127073
0.0107536
0.00842226
0.0142244
0.0141129
0.0142827
0.0142026
0.0140138
0.0137481
0.0133436
0.0126264
0.0112847
0.00900954
0.0138142
0.0137276
0.0139459
0.0139804
0.0139135
0.0137807
0.0135173
0.0130252
0.0121428
0.00992574
0.0140311
0.0140521
0.0142158
0.0141619
0.0140091
0.0138194
0.0135598
0.0132567
0.0130491
0.0113806
0.0140796
0.0140832
0.0141433
0.0140302
0.0138367
0.0136269
0.0134247
0.013417
0.0142427
0.0146043
0.0141195
0.0141246
0.0141048
0.0139351
0.0136876
0.0134391
0.0132751
0.0134984
0.0153445
0.0218897
0.014065
0.0140813
0.014032
0.0138666
0.0136336
0.013405
0.0132773
0.0135221
0.0149744
0.0172169
0.0139872
0.0140166
0.0139664
0.01383
0.013636
0.0134445
0.0133161
0.0133547
0.013728
0.0122056
0.0139172
0.0139323
0.0138739
0.0137514
0.0135709
0.0133806
0.0132192
0.0130692
0.0126543
0.0101606
0.0138499
0.0138267
0.0137565
0.013637
0.0134517
0.0132443
0.0130548
0.0127777
0.0117931
0.00905001
0.00875541
0.0100215
0.0114196
0.0124056
0.0133589
0.0158306
0.0124143
0.00914934
0.00724765
0.00627698
0.0093934
0.0111071
0.0127423
0.0134021
0.0131312
0.0127814
0.0125317
0.00961445
0.00739585
0.00627
0.0106512
0.0129657
0.0140806
0.0135406
0.0128267
0.0124332
0.0117331
0.00971261
0.00756415
0.00631042
0.0126178
0.0148873
0.0147938
0.0135113
0.012374
0.0116894
0.0112213
0.0098714
0.00777521
0.006397
0.0144961
0.0158531
0.0149608
0.0134873
0.012313
0.0115632
0.0110538
0.00996231
0.0080006
0.00652201
0.0160607
0.0169676
0.015273
0.0134289
0.0122127
0.0114647
0.010965
0.0100717
0.00826613
0.00669297
0.0182526
0.0174695
0.014455
0.0127283
0.0118746
0.0113538
0.0109655
0.0102405
0.00858274
0.00691439
0.0172692
0.0143444
0.0123891
0.0116725
0.0114365
0.0112691
0.0110768
0.0105226
0.00897892
0.00719531
0.0129917
0.0115754
0.0110701
0.0111373
0.0113503
0.0114671
0.0114678
0.0110385
0.00949919
0.00754737
0.0104112
0.0107012
0.0112179
0.0118376
0.0123028
0.0125233
0.0125473
0.01197
0.0101657
0.00796904
0.0244404
0.051307
0.0256116
0.0306704
0.0289509
0.0297247
0.033556
0.0279612
0.0225947
0.0156925
0.0235769
0.045761
0.0242944
0.0303817
0.0289371
0.0290186
0.0302932
0.0250058
0.0232674
0.0144342
0.0226891
0.0435259
0.0245833
0.0327492
0.0300571
0.0293618
0.0295924
0.0254406
0.0234648
0.014369
0.0219847
0.04232
0.0255317
0.0367228
0.0315685
0.0296472
0.0288025
0.0254297
0.0220909
0.0144811
0.0213715
0.041511
0.0264724
0.0411177
0.0330158
0.0297236
0.0276096
0.0248552
0.02009
0.0144417
0.02081
0.041298
0.0272273
0.0460004
0.0348326
0.0302288
0.0266881
0.0241937
0.0181924
0.0143023
0.0202998
0.0412392
0.027713
0.0519988
0.0376983
0.0315896
0.0264031
0.0237704
0.0168944
0.0140392
0.0198446
0.0409914
0.0278642
0.0582935
0.042069
0.033852
0.0267398
0.023441
0.0161228
0.0137623
0.0194479
0.040535
0.0277389
0.0616283
0.0480359
0.0370313
0.0275667
0.0232547
0.0157117
0.013567
0.0191054
0.0399222
0.027434
0.0596911
0.0548968
0.041451
0.0288977
0.0232404
0.0155419
0.0134321
0.0074567
0.00766978
0.00954855
0.00921077
0.00974421
0.00996196
0.0102518
0.0101035
0.0100573
0.00869566
0.013998
0.0108591
0.0102729
0.0107967
0.0109494
0.0113505
0.0118122
0.0119416
0.0123474
0.011134
0.0215597
0.0168545
0.0128896
0.0135896
0.013566
0.0142741
0.0152292
0.0168053
0.017215
0.0160138
0.0240934
0.0318063
0.0194567
0.020189
0.0194777
0.0210525
0.0240593
0.0365614
0.0304543
0.0156856
0.0251382
0.051463
0.0267072
0.0289226
0.026706
0.0283477
0.0344756
0.0428958
0.0282327
0.0149382
0.0082909
0.00789279
0.00749288
0.00714392
0.00686849
0.00667624
0.00656264
0.00651338
0.00652349
0.00659366
0.0103436
0.00959959
0.00889789
0.0083139
0.00782039
0.00742145
0.0071361
0.00696127
0.00688877
0.0069078
0.0133982
0.0119676
0.0107622
0.00988716
0.00914251
0.00845166
0.00788629
0.00750403
0.00729785
0.00723723
0.0155464
0.0144091
0.0132896
0.0121621
0.0111079
0.0099895
0.00893288
0.00819663
0.00778235
0.00760541
0.0154195
0.0188243
0.0179989
0.0155056
0.013535
0.0120083
0.0104304
0.00917425
0.00841787
0.00804367
)
;

boundaryField
{
    left
    {
        type            calculated;
        value           nonuniform List<scalar> 
35
(
0.0137033
0.0137921
0.0135698
0.0132793
0.0131205
0.0131233
0.0133037
0.0135275
0.0131168
0.00809124
0.0134319
0.0133564
0.0132824
0.0132063
0.0131342
0.0131
0.0130899
0.0131447
0.0132574
0.0135209
0.0147879
0.0145888
0.0144095
0.0142576
0.0141124
0.0139697
0.0138339
0.0137116
0.0136048
0.0135131
0.00738431
0.0119549
0.0142395
0.0147379
0.0149342
)
;
    }
    right
    {
        type            calculated;
        value           nonuniform List<scalar> 
35
(
0.0101919
0.0112861
0.0140062
0.0207582
0.0385421
0.0732458
0.0971992
0.0999861
0.0920485
0.0813525
0.0740493
0.071872
0.0738755
0.0787972
0.0863223
0.0972337
0.110526
0.115187
0.0945391
0.0610359
0.036893
0.0240265
0.017586
0.0148672
0.0138145
0.0141641
0.0159436
0.0200467
0.0354145
0.151186
0.0320269
0.0162801
0.0115213
0.00955947
0.00869264
)
;
    }
    down
    {
        type            calculated;
        value           nonuniform List<scalar> 
40
(
0.00654
0.00693324
0.00953655
0.00865825
0.00935691
0.00949916
0.0097392
0.00953031
0.00932403
0.00802409
0.00768515
0.00736967
0.00703994
0.00675618
0.0065439
0.00641048
0.00634595
0.00633318
0.00636683
0.00645165
0.00658651
0.00675976
0.00698852
0.0072568
0.00753714
0.00775905
0.00788447
0.00792476
0.00800184
0.00807598
0.00912479
0.0114735
0.0119238
0.0122659
0.0114549
0.0108655
0.0104459
0.0101044
0.00994162
0.00990262
)
;
    }
    up
    {
        type            calculated;
        value           nonuniform List<scalar> 
40
(
0.00718589
0.00782046
0.00832065
0.0087063
0.00873223
0.00862794
0.00853455
0.00846949
0.00842576
0.00843882
0.00610986
0.00613331
0.00617102
0.00622463
0.00628824
0.00636149
0.00645006
0.00652313
0.0066558
0.00667251
0.00648249
0.00638663
0.00630695
0.00625967
0.00622982
0.00619774
0.00616257
0.00613189
0.00611091
0.00610321
0.0070067
0.00708714
0.00866727
0.00807628
0.00800744
0.00778411
0.00757794
0.00723811
0.00712313
0.00660595
)
;
    }
    cylinder
    {
        type            calculated;
        value           nonuniform List<scalar> 
80
(
0.0075527
0.00733294
0.00716579
0.00704339
0.00695833
0.00692507
0.00696922
0.0070999
0.00734676
0.00773219
0.0083153
0.00934454
0.011693
0.0203153
0.0148088
0.0097626
0.00810867
0.00727335
0.00676593
0.00643044
0.00592442
0.00590901
0.00589449
0.00587741
0.0058628
0.00586194
0.00588547
0.00594336
0.00604468
0.00620083
0.00751556
0.00710847
0.00681021
0.00658552
0.00640569
0.00627059
0.00615417
0.00607064
0.006005
0.00595247
0.00769415
0.00819697
0.00899154
0.0103381
0.0136559
0.0233512
0.0164176
0.0109528
0.00906698
0.00810956
0.00600257
0.00596261
0.00597299
0.00602941
0.0061235
0.00625983
0.00644117
0.00667352
0.00696481
0.00731348
0.00608965
0.00623527
0.0064576
0.00677809
0.00722023
0.00780323
0.00849407
0.0091676
0.0096359
0.00987104
0.00995002
0.00998389
0.0100191
0.00997536
0.00981746
0.00952404
0.00906376
0.00858035
0.00816928
0.00783078
)
;
    }
    defaultFaces
    {
        type            empty;
    }
}


// ************************************************************************* //
