/*--------------------------------*- C++ -*----------------------------------*\
| =========                 |                                                 |
| \\      /  F ield         | OpenFOAM: The Open Source CFD Toolbox           |
|  \\    /   O peration     | Version:  2406                                  |
|   \\  /    A nd           | Website:  www.openfoam.com                      |
|    \\/     M anipulation  |                                                 |
\*---------------------------------------------------------------------------*/
FoamFile
{
    version     2.0;
    format      ascii;
    arch        "LSB;label=32;scalar=64";
    class       volScalarField;
    location    "0.4";
    object      p;
}
// * * * * * * * * * * * * * * * * * * * * * * * * * * * * * * * * * * * * * //

dimensions      [0 2 -2 0 0 0 0];

internalField   nonuniform List<scalar> 
1800
(
-1.93268
-1.92189
-1.92393
-1.931
-1.94204
-1.95912
-1.98369
-2.01634
-2.05725
-2.10907
-1.98689
-1.97719
-1.97817
-1.9841
-1.99409
-2.00987
-2.03247
-2.06184
-2.09816
-2.14374
-2.03355
-2.02654
-2.02608
-2.02978
-2.03769
-2.05144
-2.07187
-2.09882
-2.13196
-2.17423
-2.07524
-2.06757
-2.06499
-2.06522
-2.06907
-2.07818
-2.09335
-2.11441
-2.14103
-2.17615
-2.11397
-2.10038
-2.09575
-2.09293
-2.09232
-2.09594
-2.10478
-2.11877
-2.13752
-2.16355
-2.14365
-2.12796
-2.12089
-2.11425
-2.10849
-2.10589
-2.10757
-2.11346
-2.12315
-2.13815
-2.1682
-2.15116
-2.14078
-2.12951
-2.11817
-2.10924
-2.10385
-2.10187
-2.10259
-2.1057
-2.18501
-2.1666
-2.15223
-2.13565
-2.1184
-2.1032
-2.09104
-2.08145
-2.0732
-2.06475
-2.18927
-2.16937
-2.15045
-2.1282
-2.10515
-2.08406
-2.06552
-2.04857
-2.03161
-2.01244
-2.17531
-2.15383
-2.13026
-2.10253
-2.07419
-2.04759
-2.02273
-1.99829
-1.97249
-1.94289
-0.878914
-0.883315
-0.881855
-0.875622
-0.86601
-0.854512
-0.841669
-0.827586
-0.812064
-0.794404
-0.979845
-0.983638
-0.982074
-0.976089
-0.967165
-0.956757
-0.945204
-0.93249
-0.918374
-0.901939
-1.09116
-1.09417
-1.09257
-1.08712
-1.0793
-1.07052
-1.06096
-1.05044
-1.03865
-1.02443
-1.21031
-1.21234
-1.20984
-1.20572
-1.19999
-1.19373
-1.18707
-1.17971
-1.17131
-1.16053
-1.33489
-1.3359
-1.33367
-1.32984
-1.32668
-1.32394
-1.32115
-1.31802
-1.31416
-1.30804
-1.46454
-1.46143
-1.45907
-1.45768
-1.45828
-1.4586
-1.4595
-1.46131
-1.46345
-1.46292
-1.58743
-1.58228
-1.58205
-1.5827
-1.5852
-1.58949
-1.59524
-1.60291
-1.61171
-1.6171
-1.69712
-1.68954
-1.68981
-1.69407
-1.70117
-1.71032
-1.72155
-1.73557
-1.75173
-1.76371
-1.79159
-1.78209
-1.78338
-1.79012
-1.80029
-1.81363
-1.8303
-1.85062
-1.87384
-1.89172
-1.86894
-1.85821
-1.86007
-1.86722
-1.87813
-1.89356
-1.91401
-1.9392
-1.96779
-1.9915
-0.681939
-0.416856
-0.263579
-0.147094
-0.0818375
-0.0398521
-0.016173
-0.00338994
0.00335703
0.00152664
-0.774702
-0.458396
-0.277289
-0.145747
-0.0752576
-0.0326976
-0.0100503
0.0010845
0.00619918
0.00234682
-0.88426
-0.508825
-0.293926
-0.144585
-0.0680483
-0.0247696
-0.00324366
0.00611523
0.00941987
0.00326666
-1.01082
-0.567963
-0.312763
-0.142962
-0.0596982
-0.0156724
0.00453692
0.0119339
0.0131841
0.00441969
-1.15346
-0.635954
-0.333408
-0.140337
-0.0497214
-0.00509942
0.0134726
0.0186497
0.0175976
0.00597487
-1.31007
-0.715332
-0.357412
-0.137659
-0.0386169
0.00654828
0.0232408
0.0260137
0.0225369
0.00796219
-1.47674
-0.810901
-0.388886
-0.138097
-0.0284475
0.0178533
0.0328694
0.0333634
0.0275943
0.0102187
-1.64372
-0.922687
-0.433076
-0.146087
-0.0223821
0.0266786
0.0409437
0.0397439
0.0321294
0.0124285
-1.79085
-1.04245
-0.491132
-0.164714
-0.0233957
0.0305904
0.0456771
0.0439121
0.0352891
0.0141767
-1.89755
-1.15394
-0.554921
-0.191353
-0.0309028
0.0292996
0.0463782
0.0450907
0.0363789
0.0150532
-2.05856
-1.22735
-0.588209
-0.207066
-0.0380216
0.0245958
0.0432489
0.0429562
0.0349867
0.0148399
-2.07844
-1.2335
-0.602035
-0.231042
-0.0654313
0.000931739
0.025991
0.0313551
0.0273842
0.0118905
-1.9683
-1.189
-0.595938
-0.249107
-0.0910573
-0.0237139
0.00675556
0.0182092
0.0187756
0.00839137
-1.74058
-1.10253
-0.599854
-0.285769
-0.127464
-0.0532163
-0.0143664
0.00481786
0.0108618
0.00580718
-1.5385
-1.03423
-0.609088
-0.328001
-0.168335
-0.0845225
-0.0362457
-0.00902143
0.0038684
0.00404686
-1.36224
-0.962797
-0.616636
-0.373009
-0.212393
-0.117088
-0.0590342
-0.0245256
-0.00588087
-0.000906266
-1.22103
-0.917123
-0.639783
-0.424532
-0.260216
-0.150857
-0.0820394
-0.0399777
-0.0152687
-0.00436715
-1.11611
-0.890696
-0.665623
-0.46815
-0.299452
-0.177086
-0.0985296
-0.0501156
-0.0205365
-0.00565439
-1.04786
-0.881985
-0.683132
-0.492029
-0.320461
-0.190661
-0.106508
-0.0545664
-0.0230444
-0.00628709
-1.02354
-0.90292
-0.704092
-0.504726
-0.329946
-0.19784
-0.111537
-0.0578074
-0.0249634
-0.00716855
-1.87162
-1.95756
-2.02618
-2.0875
-2.13898
-2.19069
-2.22867
-2.25791
-2.25522
-2.26892
-1.72778
-1.82601
-1.91072
-1.9948
-2.07167
-2.15462
-2.22499
-2.28186
-2.3039
-2.31999
-1.57643
-1.67281
-1.75797
-1.84117
-1.9174
-1.99552
-2.07105
-2.13395
-2.17333
-2.20713
-1.42288
-1.51181
-1.59172
-1.66462
-1.73137
-1.79063
-1.84149
-1.89412
-1.92506
-1.95756
-1.27344
-1.35356
-1.4267
-1.49234
-1.54934
-1.59646
-1.63755
-1.67132
-1.68767
-1.70017
-1.13365
-1.20486
-1.27198
-1.33333
-1.38575
-1.42853
-1.46102
-1.47784
-1.48614
-1.48504
-1.00582
-1.06978
-1.13345
-1.19173
-1.24045
-1.28045
-1.30395
-1.31807
-1.32358
-1.31781
-0.897639
-0.955653
-1.01781
-1.07258
-1.12291
-1.16058
-1.18213
-1.19863
-1.19761
-1.18763
-0.83509
-0.889384
-0.947683
-0.997546
-1.04761
-1.08201
-1.10366
-1.11856
-1.114
-1.10037
-0.82022
-0.878026
-0.935219
-0.989252
-1.03602
-1.0702
-1.09599
-1.1029
-1.10012
-1.08012
-0.401906
-0.466189
-0.524526
-0.574081
-0.617971
-0.658163
-0.694859
-0.728097
-0.756828
-0.776035
-0.640839
-0.701403
-0.752031
-0.795198
-0.835183
-0.873049
-0.907787
-0.938937
-0.966703
-0.987143
-0.879963
-0.936507
-0.981489
-1.01875
-1.05327
-1.08694
-1.11907
-1.14823
-1.17423
-1.19359
-1.07459
-1.13147
-1.17793
-1.21577
-1.2494
-1.28186
-1.31346
-1.3428
-1.36885
-1.38739
-1.23232
-1.29254
-1.34257
-1.38345
-1.41934
-1.45352
-1.4868
-1.51803
-1.54559
-1.56509
-1.37666
-1.43741
-1.48822
-1.5307
-1.56881
-1.60531
-1.64084
-1.67449
-1.70442
-1.72467
-1.51429
-1.57171
-1.62021
-1.66225
-1.70128
-1.73915
-1.77604
-1.81221
-1.84306
-1.86504
-1.64184
-1.69418
-1.73899
-1.77911
-1.81731
-1.85488
-1.89197
-1.92789
-1.9592
-1.98258
-1.75513
-1.80169
-1.84223
-1.8791
-1.91451
-1.94981
-1.9854
-2.0203
-2.05051
-2.07417
-1.85708
-1.89579
-1.92957
-1.96084
-1.9915
-2.02294
-2.05555
-2.08771
-2.11522
-2.1381
0.781508
0.770263
0.760112
0.750884
0.742507
0.734986
0.728412
0.723447
0.722367
0.731186
0.71819
0.704711
0.692474
0.681228
0.670874
0.661377
0.652857
0.646199
0.643771
0.651147
0.640476
0.624659
0.6101
0.596543
0.583889
0.572065
0.561216
0.552441
0.548195
0.553701
0.547478
0.528759
0.511511
0.495394
0.480263
0.46595
0.452579
0.441444
0.435091
0.438497
0.4433
0.422277
0.40203
0.382642
0.36421
0.346571
0.32989
0.315634
0.306434
0.307125
0.31825
0.293065
0.269712
0.247828
0.227077
0.207041
0.18784
0.171115
0.159463
0.157559
0.19285
0.166445
0.139596
0.11289
0.0870984
0.0621241
0.0381504
0.01694
0.00133257
-0.00373269
0.0411804
0.00850352
-0.0228482
-0.0520462
-0.0796791
-0.106611
-0.132625
-0.155976
-0.17448
-0.182783
-0.109211
-0.140855
-0.174742
-0.209696
-0.243792
-0.276933
-0.308672
-0.336899
-0.359304
-0.370546
-0.260401
-0.30336
-0.34736
-0.388512
-0.426681
-0.462897
-0.497244
-0.528353
-0.55408
-0.569197
1.18635
1.00684
1.10414
1.01514
0.99616
0.976701
0.950258
0.925985
0.913433
0.845244
1.1844
1.00474
1.10134
1.01104
0.992982
0.971891
0.944158
0.913999
0.895981
0.804836
1.1836
1.00261
1.09862
1.00605
0.989197
0.966934
0.937383
0.899681
0.874478
0.754219
1.18403
1.00035
1.09573
1.00009
0.9852
0.961939
0.930067
0.883419
0.849563
0.693657
1.18579
0.997831
1.09241
0.993328
0.981559
0.95685
0.922283
0.865717
0.820851
0.622084
1.18897
0.994856
1.0883
0.987041
0.978102
0.951118
0.914101
0.846933
0.79038
0.540783
1.19372
0.991072
1.08299
0.982368
0.973228
0.944281
0.905991
0.827944
0.755211
0.445094
1.20019
0.98619
1.07772
0.977373
0.965652
0.937118
0.898271
0.808614
0.719287
0.340436
1.20831
0.98073
1.07323
0.970441
0.957183
0.930592
0.890299
0.788017
0.678507
0.217044
1.21767
0.976047
1.06889
0.963299
0.949789
0.924746
0.881963
0.767172
0.629366
0.0816869
1.22966
0.974377
1.06848
0.961343
0.941584
0.917016
0.87246
0.742768
0.596432
-0.0227928
1.24511
0.981804
1.07808
0.965566
0.932455
0.904245
0.859873
0.719412
0.57862
-0.00540895
1.25689
0.995329
1.09394
0.971804
0.922866
0.887311
0.839464
0.689137
0.548577
0.0282912
1.26579
1.01016
1.10973
0.97701
0.912647
0.867207
0.814844
0.653523
0.513839
0.0626697
1.27316
1.02087
1.11854
0.978195
0.902029
0.847501
0.786643
0.620292
0.479822
0.090243
1.27954
1.02478
1.11666
0.973299
0.892594
0.830758
0.759952
0.594295
0.444022
0.119298
1.28627
1.02073
1.10363
0.961915
0.884455
0.818623
0.738642
0.578057
0.410554
0.151601
1.29765
1.01721
1.08291
0.946704
0.877996
0.810554
0.721658
0.570905
0.383491
0.181576
1.31106
1.01756
1.06444
0.93277
0.874237
0.804721
0.708983
0.566632
0.363838
0.205171
1.35217
1.03122
1.05985
0.929555
0.877891
0.804403
0.707314
0.567272
0.363842
0.225602
-0.413784
-0.622404
-0.837338
-1.00889
-1.14651
-1.2795
-1.41406
-1.54322
-1.66211
-1.7736
-0.425272
-0.576077
-0.729116
-0.868238
-0.996149
-1.12552
-1.25797
-1.38788
-1.5099
-1.62396
-0.4044
-0.540032
-0.66292
-0.782369
-0.902899
-1.0256
-1.14726
-1.26484
-1.37257
-1.47787
-0.358886
-0.49186
-0.598361
-0.697708
-0.803928
-0.916216
-1.02683
-1.13256
-1.23275
-1.33031
-0.300639
-0.424166
-0.519945
-0.605504
-0.699214
-0.802232
-0.904717
-1.00296
-1.09751
-1.18862
-0.222287
-0.336667
-0.434055
-0.519415
-0.608567
-0.706483
-0.804881
-0.896855
-0.980602
-1.05974
-0.134637
-0.243179
-0.349796
-0.442832
-0.529806
-0.621288
-0.715529
-0.802866
-0.876993
-0.94232
-0.0632895
-0.166699
-0.276987
-0.37667
-0.463731
-0.550227
-0.638952
-0.720787
-0.786283
-0.842259
-0.023388
-0.124849
-0.233448
-0.335129
-0.427389
-0.516964
-0.602571
-0.676228
-0.734019
-0.784027
-0.00749273
-0.107053
-0.207232
-0.305282
-0.404084
-0.500224
-0.584742
-0.654323
-0.712043
-0.765885
-0.479739
-0.458824
-0.429064
-0.397489
-0.367194
-0.333514
-0.305189
-0.285102
-0.269769
-0.259086
-0.552012
-0.531429
-0.50308
-0.468984
-0.438334
-0.408682
-0.38151
-0.359752
-0.343752
-0.333582
-0.598852
-0.579462
-0.553579
-0.520153
-0.487774
-0.45821
-0.432273
-0.411735
-0.396531
-0.386952
-0.62113
-0.603577
-0.581095
-0.550492
-0.517784
-0.487535
-0.461931
-0.442391
-0.428357
-0.41956
-0.622297
-0.607051
-0.587965
-0.560598
-0.52931
-0.499443
-0.473881
-0.45419
-0.440434
-0.431938
-0.607007
-0.594236
-0.57791
-0.55345
-0.52423
-0.495509
-0.470324
-0.450226
-0.435883
-0.427079
-0.580299
-0.56972
-0.555257
-0.533139
-0.506161
-0.479137
-0.45504
-0.4353
-0.42065
-0.411481
-0.548778
-0.539794
-0.526497
-0.506451
-0.482181
-0.457822
-0.436064
-0.418191
-0.404813
-0.396615
-0.519407
-0.511385
-0.498888
-0.480808
-0.459592
-0.438568
-0.419926
-0.404716
-0.393559
-0.387843
-0.498471
-0.491002
-0.479396
-0.463449
-0.445618
-0.428473
-0.413741
-0.402394
-0.394899
-0.392549
-0.488559
-0.481612
-0.471217
-0.457559
-0.44299
-0.429208
-0.417238
-0.407677
-0.399555
-0.389543
-0.489666
-0.483447
-0.474379
-0.463083
-0.451759
-0.441289
-0.431997
-0.42425
-0.41712
-0.406245
-0.499539
-0.494433
-0.486256
-0.476509
-0.467486
-0.459266
-0.451489
-0.444285
-0.43702
-0.426183
-0.516121
-0.512946
-0.505018
-0.495239
-0.487561
-0.480535
-0.473002
-0.465073
-0.456591
-0.445125
-0.538905
-0.538295
-0.533114
-0.522164
-0.513851
-0.506941
-0.498493
-0.488908
-0.478566
-0.465807
-0.564992
-0.565555
-0.562048
-0.554119
-0.546269
-0.539005
-0.528782
-0.517265
-0.50508
-0.490924
-0.600193
-0.602448
-0.601128
-0.595912
-0.585337
-0.574819
-0.563879
-0.551816
-0.538536
-0.523458
-0.650185
-0.654064
-0.653769
-0.648558
-0.637819
-0.625389
-0.612656
-0.599122
-0.584334
-0.567846
-0.713629
-0.718271
-0.717578
-0.711779
-0.701453
-0.688899
-0.675334
-0.660802
-0.644969
-0.627373
-0.78994
-0.794654
-0.79348
-0.787301
-0.777279
-0.765098
-0.75158
-0.736889
-0.720803
-0.702782
-0.38841
-0.317219
-0.266956
-0.202965
-0.149113
-0.101262
-0.0647738
-0.0378061
-0.0188215
-0.00553353
-0.397167
-0.314929
-0.259749
-0.193262
-0.141112
-0.095271
-0.0606677
-0.0354191
-0.017586
-0.00538948
-0.402944
-0.314484
-0.254593
-0.18588
-0.133697
-0.0890904
-0.0560828
-0.0323299
-0.0155753
-0.00471562
-0.409957
-0.316282
-0.250025
-0.178927
-0.126552
-0.0828298
-0.0512679
-0.0289025
-0.0132065
-0.00377893
-0.421113
-0.319067
-0.245684
-0.171884
-0.119505
-0.076569
-0.0463709
-0.025343
-0.0107358
-0.0028184
-0.438189
-0.323055
-0.242289
-0.16531
-0.112754
-0.0704793
-0.0415497
-0.0218214
-0.00834405
-0.00196656
-0.463002
-0.328639
-0.240803
-0.159644
-0.106345
-0.0645597
-0.036806
-0.0183706
-0.00608241
-0.0012449
-0.497632
-0.340315
-0.241898
-0.155063
-0.100183
-0.0586864
-0.0320164
-0.0148991
-0.00387499
-0.000592365
-0.544362
-0.358423
-0.245949
-0.151559
-0.0941382
-0.0527065
-0.027049
-0.0112968
-0.00161478
6.41e-05
-0.605426
-0.383755
-0.253127
-0.14897
-0.0880714
-0.0464732
-0.0218002
-0.00748339
0.000776207
0.000766471
-0.365867
-0.318071
-0.275196
-0.208085
-0.151493
-0.102355
-0.0650859
-0.0363097
-0.0170914
-0.00503348
-0.357903
-0.312734
-0.273862
-0.208509
-0.152287
-0.103151
-0.0657197
-0.0368077
-0.0171384
-0.00479951
-0.357086
-0.309661
-0.270923
-0.208112
-0.152112
-0.103222
-0.0657293
-0.036854
-0.0171309
-0.00463533
-0.359547
-0.307106
-0.265388
-0.208063
-0.153415
-0.104257
-0.0665214
-0.0377116
-0.017843
-0.00471581
-0.371456
-0.310367
-0.263388
-0.206154
-0.153485
-0.104584
-0.0669605
-0.0386692
-0.0188819
-0.005175
-0.251993
-0.322238
-0.374565
-0.409402
-0.427308
-0.430451
-0.422424
-0.407187
-0.390376
-0.373638
-0.250056
-0.321111
-0.373406
-0.407906
-0.425766
-0.428955
-0.420497
-0.40458
-0.38856
-0.369167
-0.25035
-0.322302
-0.374827
-0.409005
-0.425899
-0.427523
-0.41694
-0.400482
-0.384832
-0.372805
-0.251872
-0.325045
-0.377929
-0.411552
-0.42667
-0.42539
-0.411687
-0.394418
-0.380011
-0.379097
-0.254644
-0.329155
-0.382385
-0.415217
-0.428132
-0.4236
-0.40725
-0.390294
-0.379794
-0.389395
0.724228
0.719825
0.714059
0.709084
0.705185
0.70184
0.699005
0.697245
0.698029
0.706147
0.778523
0.776671
0.772098
0.767111
0.762824
0.759251
0.756402
0.754662
0.755601
0.764324
0.817639
0.815343
0.811541
0.807807
0.804805
0.80247
0.80076
0.79987
0.801317
0.810696
0.85164
0.84974
0.846617
0.84354
0.841063
0.839173
0.837795
0.836902
0.83797
0.847401
0.876143
0.873817
0.870821
0.868079
0.866004
0.864598
0.863732
0.863107
0.86385
0.872218
0.890848
0.887842
0.884652
0.881926
0.879969
0.878839
0.878448
0.878304
0.878634
0.883615
0.894418
0.89029
0.886341
0.882973
0.880383
0.878613
0.877531
0.876755
0.877213
0.884656
0.885974
0.880384
0.875239
0.870745
0.866993
0.864001
0.861648
0.859764
0.860019
0.870114
0.864863
0.857565
0.85095
0.845076
0.839963
0.835635
0.832057
0.82937
0.829579
0.839975
0.830271
0.82108
0.812789
0.805336
0.798691
0.792876
0.787935
0.784285
0.784097
0.793959
-0.167379
-0.18027
-0.197707
-0.21864
-0.242091
-0.269191
-0.303585
-0.336953
-0.365128
-0.384216
-0.0590769
-0.0745792
-0.093366
-0.114527
-0.138495
-0.166172
-0.195263
-0.224628
-0.251105
-0.267006
0.0556339
0.037467
0.0181357
-0.00150413
-0.0225459
-0.0464763
-0.0731912
-0.100413
-0.124472
-0.135739
0.170607
0.150503
0.131167
0.11278
0.0937686
0.0726033
0.0492325
0.0257438
0.00588111
-0.00117317
0.278597
0.258195
0.239932
0.223415
0.206927
0.189148
0.169913
0.150821
0.135367
0.132429
0.374375
0.355666
0.339849
0.326027
0.31252
0.298283
0.283127
0.268368
0.257262
0.258238
0.459139
0.444352
0.431992
0.420884
0.409984
0.398797
0.3872
0.376276
0.368987
0.373151
0.53713
0.526187
0.51627
0.506927
0.498005
0.489235
0.480464
0.472677
0.468565
0.475116
0.613073
0.603192
0.593777
0.585283
0.577603
0.570327
0.563409
0.557896
0.556125
0.564007
0.686034
0.675812
0.66528
0.656344
0.648857
0.642282
0.636635
0.632772
0.632429
0.640511
1.26469
1.033
1.12285
1.01054
1.00632
0.985128
0.949943
0.922949
0.878821
0.80281
1.2515
1.02894
1.12394
1.01459
1.00722
0.988161
0.95502
0.929652
0.894122
0.831011
1.23952
1.02555
1.12384
1.01778
1.0077
0.990358
0.959461
0.936913
0.911025
0.858583
1.22893
1.02276
1.12282
1.02029
1.00781
0.991767
0.962938
0.942592
0.924325
0.881594
1.21964
1.02016
1.121
1.02188
1.00728
0.992158
0.964947
0.946193
0.933621
0.89857
1.21151
1.0177
1.11866
1.02261
1.00612
0.991604
0.965532
0.94807
0.93931
0.909185
1.20445
1.01539
1.11602
1.02267
1.00454
0.990235
0.964836
0.948261
0.941642
0.912795
1.19843
1.01318
1.11315
1.02208
1.00275
0.988059
0.962914
0.946438
0.940522
0.908866
1.1934
1.01104
1.11013
1.02067
1.00083
0.985018
0.959789
0.942214
0.935649
0.896719
1.18936
1.00893
1.10708
1.01836
0.998708
0.981165
0.955522
0.935402
0.926653
0.875717
1.3747
1.04614
1.10052
0.990811
0.996746
0.968871
0.929133
0.896712
0.836204
0.756
1.34007
1.04695
1.1051
0.992132
0.998258
0.971034
0.930482
0.897257
0.834802
0.749375
1.31873
1.04435
1.10955
0.995251
0.999442
0.97339
0.932848
0.900528
0.838029
0.750125
1.2979
1.04141
1.11509
1.00074
1.00204
0.977716
0.938919
0.907909
0.844399
0.755466
1.27971
1.03751
1.11967
1.00574
1.00456
0.981542
0.944217
0.912603
0.856187
0.761473
0.637421
0.590633
0.534766
0.46501
0.377898
0.274888
0.162227
0.0476013
-0.0631129
-0.165401
0.629467
0.582294
0.527855
0.461329
0.3786
0.27922
0.168174
0.0532013
-0.0587252
-0.16254
0.63471
0.585941
0.529564
0.463161
0.38191
0.284205
0.173805
0.058161
-0.0552745
-0.161024
0.648517
0.592273
0.531099
0.463706
0.383625
0.287765
0.178225
0.0620083
-0.0529981
-0.160807
0.676632
0.607198
0.536391
0.463934
0.382951
0.288607
0.180525
0.0643124
-0.0520608
-0.161892
)
;

boundaryField
{
    left
    {
        type            zeroGradient;
    }
    right
    {
        type            fixedValue;
        value           uniform 0;
    }
    down
    {
        type            zeroGradient;
    }
    up
    {
        type            zeroGradient;
    }
    cylinder
    {
        type            zeroGradient;
    }
    defaultFaces
    {
        type            empty;
    }
}


// ************************************************************************* //
