/*--------------------------------*- C++ -*----------------------------------*\
| =========                 |                                                 |
| \\      /  F ield         | OpenFOAM: The Open Source CFD Toolbox           |
|  \\    /   O peration     | Version:  2406                                  |
|   \\  /    A nd           | Website:  www.openfoam.com                      |
|    \\/     M anipulation  |                                                 |
\*---------------------------------------------------------------------------*/
FoamFile
{
    version     2.0;
    format      ascii;
    arch        "LSB;label=32;scalar=64";
    class       surfaceScalarField;
    location    "0.4";
    object      phi;
}
// * * * * * * * * * * * * * * * * * * * * * * * * * * * * * * * * * * * * * //

dimensions      [0 3 -1 0 0 0 0];

oriented        oriented;

internalField   nonuniform List<scalar> 
3485
(
0.00265603
0.00710875
-0.00976478
0.00726671
0.0095698
-0.0141805
0.0141469
0.00638779
-0.013268
0.0235144
-7.90321e-05
-0.00928842
0.0348119
-0.0065845
-0.00471304
0.0475732
-0.0119499
-0.000811388
0.0615633
-0.0163137
0.00232359
0.0767281
-0.0202387
0.00507391
0.0929344
-0.0243201
0.00811382
-0.0278868
0.0117697
0.109051
0.00275961
0.00434914
0.00778212
0.0045473
0.0157907
-0.00162078
0.0262774
-0.0105657
0.0383049
-0.018612
0.0512703
-0.0249152
0.0648671
-0.0299106
0.0790056
-0.0343772
0.093795
-0.0391094
-0.0438597
0.109768
0.00264474
0.0017044
0.00856256
-0.00137052
0.0181762
-0.0112344
0.0301119
-0.0225014
0.0433215
-0.0318216
0.0573097
-0.0389035
0.0718642
-0.044465
0.0869369
-0.0494499
0.102641
-0.0548132
-0.0605372
0.119318
0.00225302
-0.000548623
0.00950229
-0.00861979
0.0205879
-0.0223201
0.0335827
-0.0354961
0.0475621
-0.045801
0.0621554
-0.0534968
0.0772394
-0.0595491
0.0928204
-0.0650309
0.109005
-0.0709982
-0.0775451
0.126013
0.00278177
-0.0033304
0.0114336
-0.0172716
0.0234437
-0.0343302
0.0369931
-0.0490456
0.0512617
-0.0600696
0.0659584
-0.0681935
0.08105
-0.0746407
0.0966494
-0.0806302
0.113
-0.087349
-0.095193
0.130648
0.0037698
-0.0071002
0.0133471
-0.0268489
0.0257792
-0.0467624
0.0392775
-0.0625438
0.0530849
-0.073877
0.067008
-0.0821166
0.0811393
-0.088772
0.0957503
-0.0952413
0.111304
-0.102902
-0.112621
0.128732
0.00448065
-0.0115808
0.0146377
-0.0370059
0.0270726
-0.0591972
0.0399461
-0.0754173
0.052623
-0.086554
0.0650969
-0.0945905
0.0776699
-0.101345
0.0908629
-0.108434
0.105411
-0.11745
-0.129492
0.122282
0.00500362
-0.0165845
0.0153085
-0.0473108
0.0271037
-0.0709925
0.0386268
-0.0869404
0.0494956
-0.0974227
0.0599668
-0.105062
0.0705767
-0.111955
0.0820555
-0.119913
0.0951645
-0.130559
-0.144583
0.110255
0.00532727
-0.0219117
0.0152102
-0.0571937
0.0256381
-0.0814204
0.0351691
-0.0964713
0.0438064
-0.10606
0.0520917
-0.113347
0.0607501
-0.120613
0.070585
-0.129748
0.0820693
-0.142043
-0.157242
0.0947279
0.00535186
-0.0272636
0.0141361
-0.0659779
0.0225073
-0.0897916
0.0295667
-0.103531
0.0357327
-0.112226
0.0417393
-0.119354
0.0483657
-0.12724
0.0562751
-0.137657
0.0654509
-0.151219
0.0748662
-0.166657
-0.00154818
0.0130504
-0.0115023
-0.00362238
0.0199972
-0.017923
-0.00569601
0.0216776
-0.0196039
-0.00765035
0.0218849
-0.0199306
-0.00938643
0.0213015
-0.0195654
-0.0108586
0.0201394
-0.0186672
-0.0120698
0.0185005
-0.0172893
-0.0129901
0.016352
-0.0154317
-0.01351
0.0135093
-0.0129894
0.00969756
-0.0134329
-0.00977463
-0.00145169
0.0145021
-0.00337953
0.0219251
-0.00527654
0.0235746
-0.00707834
0.0236867
-0.00869245
0.0229156
-0.0100618
0.0215087
-0.0111867
0.0196255
-0.0120421
0.0172074
-0.0125276
0.0139948
0.00962083
-0.0124509
-0.0012578
0.0157599
-0.00287985
0.0235471
-0.0044146
0.0251093
-0.00589917
0.0251713
-0.0072263
0.0242427
-0.00832434
0.0226068
-0.00920022
0.0205013
-0.00983781
0.017845
-0.010148
0.014305
0.00943045
-0.00995766
-0.00100087
0.0167608
-0.00220142
0.0247477
-0.0031095
0.0260174
-0.00413472
0.0261965
-0.00502691
0.0251349
-0.00569159
0.0232715
-0.00615444
0.0209642
-0.00641656
0.0181071
-0.00640739
0.0142958
0.00899965
-0.00597658
-0.000687693
0.0174485
-0.00130063
0.0253606
-0.00149677
0.0262136
-0.00188222
0.026582
-0.0021942
0.0254469
-0.00226472
0.023342
-0.00214598
0.0208455
-0.00185923
0.0178204
-0.00131641
0.013753
0.00793018
-0.000246943
0.000113039
0.0173355
0.00023725
0.0252364
0.000198686
0.0262521
0.000506538
0.0262741
0.00112343
0.02483
0.00189753
0.0225679
0.00275273
0.0199902
0.00364999
0.0169231
0.00461852
0.0127845
0.0066486
0.00590011
0.000966789
0.0163687
0.00209931
0.0241039
0.00287767
0.0254738
0.0042285
0.0249233
0.00595675
0.0231017
0.00779844
0.0207262
0.0096758
0.0181129
0.0115475
0.0150515
0.0133935
0.0109384
0.00450453
0.0155376
0.00171953
0.0146491
0.00401942
0.021804
0.00645598
0.0230372
0.00945179
0.0219275
0.0128684
0.0196851
0.0163954
0.0171992
0.0198825
0.0146258
0.0232899
0.0116441
0.0266115
0.00761675
0.000995627
0.0301204
0.00234844
0.0123007
0.00582119
0.0183312
0.00999867
0.0188597
0.015209
0.0167172
0.0212377
0.0136564
0.0276375
0.0107994
0.0340102
0.0082531
0.040074
0.00558026
0.0456289
0.00206181
-0.00416596
0.0507905
0.00253591
0.00668667
0.0122784
0.0197071
0.0286505
0.0386385
0.0492152
0.0598694
0.070045
0.0776488
0.0224052
-0.124847
0.0890092
0.0772636
-0.268634
0.213775
0.112095
-0.23996
0.205128
0.135245
-0.202357
0.179208
0.148699
-0.160384
0.14693
0.156126
-0.12308
0.115652
0.159562
-0.0911935
0.0877579
0.160486
-0.0637618
0.0628376
0.159898
-0.0411662
0.0417545
-0.0170043
0.0184868
0.0193026
-0.156601
0.0711741
-0.320505
0.107814
-0.276599
0.132537
-0.227081
0.147374
-0.175221
0.155682
-0.131388
0.159719
-0.0952305
0.161079
-0.0651221
0.160836
-0.0409232
-0.0156994
0.0158316
-0.18239
0.0629414
-0.367615
0.101536
-0.315194
0.128086
-0.253631
0.144653
-0.191788
0.15414
-0.140875
0.159054
-0.100145
0.161091
-0.0671585
0.161437
-0.041269
-0.0147507
0.012944
-0.201311
0.0541842
-0.408855
0.0943238
-0.355333
0.122708
-0.282015
0.141053
-0.210133
0.151883
-0.151705
0.157874
-0.106135
0.160773
-0.0700576
0.161916
-0.0424119
-0.0143224
0.012571
-0.214128
0.0483104
-0.444595
0.0887989
-0.395822
0.118265
-0.311481
0.137853
-0.22972
0.149822
-0.163675
0.15686
-0.113173
0.160678
-0.0738755
0.162754
-0.0444878
-0.0145538
0.0172357
-0.225464
0.049581
-0.47694
0.089149
-0.43539
0.118074
-0.340407
0.137538
-0.249184
0.149781
-0.175917
0.157394
-0.120787
0.161932
-0.0784135
0.164933
-0.0474885
-0.015546
0.0283335
-0.23826
0.0606897
-0.509296
0.0988171
-0.473517
0.125856
-0.367445
0.143572
-0.266901
0.154727
-0.187072
0.161956
-0.128017
0.166655
-0.083112
0.170297
-0.0511304
-0.0173453
0.0466464
-0.254786
0.080544
-0.543194
0.117342
-0.510315
0.142764
-0.392867
0.158305
-0.282441
0.167545
-0.196313
0.173531
-0.134002
0.177703
-0.0872845
0.181437
-0.0548638
-0.0199441
0.0699495
-0.273945
0.103449
-0.576694
0.139412
-0.546278
0.164917
-0.418372
0.179838
-0.297363
0.188062
-0.204536
0.193148
-0.139088
0.196779
-0.0909163
0.200468
-0.0585521
-0.0234505
0.0946103
-0.290906
0.124012
-0.606095
0.160025
-0.582291
0.186372
-0.444719
0.20162
-0.312611
0.21006
-0.212976
0.215378
-0.144406
0.219469
-0.0950069
0.223894
-0.0629766
-0.0283057
0.407243
-0.475389
-0.222761
0.460246
-0.659098
0.475215
-0.59726
0.46949
-0.438994
0.452166
-0.295287
0.434323
-0.195133
0.419591
-0.129675
0.409619
-0.0850349
0.403821
-0.0571788
-0.026618
0.524212
-0.546509
-0.453092
0.537415
-0.672301
0.535857
-0.595702
0.523886
-0.427023
0.506309
-0.27771
0.488414
-0.177237
0.473258
-0.114519
0.462749
-0.0745265
0.456093
-0.0505222
-0.0240405
0.729561
-0.557168
-0.718902
0.68075
-0.62349
0.629262
-0.544214
0.589032
-0.386792
0.557797
-0.246475
0.533738
-0.153178
0.515908
-0.0966887
0.503572
-0.0621908
0.495451
-0.0424009
-0.02094
0.815108
-0.49352
-0.878756
0.735692
-0.544074
0.673275
-0.481798
0.623139
-0.336656
0.583931
-0.207266
0.555661
-0.124909
0.536073
-0.0771006
0.522844
-0.0489624
0.514346
-0.0339029
-0.0179215
0.873912
-0.421171
-0.946261
0.791048
-0.46121
0.71133
-0.40208
0.646195
-0.271521
0.59769
-0.158762
0.564673
-0.0918914
0.542902
-0.0553297
0.528267
-0.0343267
0.518343
-0.0239793
-0.0141504
0.884998
-0.347212
-0.958957
0.803001
-0.379212
0.71719
-0.316268
0.64569
-0.200021
0.593576
-0.106648
0.559241
-0.0575561
0.537576
-0.0336644
0.523559
-0.0203106
0.514685
-0.0151046
-0.010576
0.877324
-0.275897
-0.948639
0.784095
-0.285983
0.685953
-0.218126
0.610826
-0.124894
0.561287
-0.0571087
0.530589
-0.0268581
0.511782
-0.0148577
0.500014
-0.00854276
0.492239
-0.00732911
-0.00670046
0.81304
-0.190401
-0.898536
0.695433
-0.168377
0.587968
-0.110661
0.517739
-0.0546652
0.47809
-0.0174597
0.455702
-0.00446938
0.442292
-0.00144854
0.434084
-0.000333967
0.428201
-0.00144621
-0.00308759
0.596927
-0.0843248
-0.703004
0.475461
-0.0469111
0.388039
-0.0232384
0.34158
-0.00820677
0.321804
0.00231605
0.31308
0.00425487
0.308363
0.00326868
0.305785
0.00224431
0.303404
0.000934818
-0.000638239
0.180401
-0.264726
0.13349
0.110252
0.102045
0.104361
0.108616
0.111885
0.114129
0.115064
0.529449
0.0825105
-0.537093
0.5161
0.108077
0.49666
0.129696
0.466733
0.152208
0.430265
0.1652
0.384817
0.176096
0.337443
0.173388
0.289887
0.166874
0.246162
0.153492
0.132452
0.606596
0.0751439
-0.59923
0.614257
0.100415
0.620641
0.123312
0.622417
0.150432
0.617949
0.169668
0.605125
0.188921
0.579816
0.198696
0.547459
0.199231
0.497559
0.203393
0.176919
0.652285
0.0647761
-0.641917
0.667521
0.0851792
0.684847
0.105986
0.706381
0.128897
0.724049
0.152
0.742233
0.170737
0.749235
0.191693
0.75299
0.195477
0.741169
0.215214
0.199186
0.675657
0.0544367
-0.665317
0.690833
0.0700032
0.71022
0.086599
0.735939
0.103178
0.76432
0.12362
0.794501
0.140557
0.822448
0.163746
0.846875
0.17105
0.86966
0.192429
0.19009
0.691522
0.0450982
-0.682184
0.705331
0.0561939
0.723514
0.0684161
0.747032
0.07966
0.775624
0.0950275
0.808023
0.108157
0.84384
0.127929
0.878369
0.136521
0.915113
0.155685
0.158942
0.697021
0.0352113
-0.687134
0.711041
0.0421739
0.729358
0.0500994
0.75127
0.0577474
0.778628
0.0676702
0.80848
0.0783048
0.844211
0.092199
0.880187
0.100544
0.920851
0.115021
0.120836
0.686853
0.0237835
-0.675425
0.702686
0.02634
0.721704
0.0310819
0.743888
0.0355628
0.77067
0.0408887
0.798966
0.0500085
0.833851
0.0573139
0.868756
0.0656396
0.909259
0.0745174
0.0814563
0.642302
0.00957831
-0.628097
0.659378
0.00926478
0.678573
0.0118866
0.700957
0.0131787
0.72505
0.0167963
0.753197
0.0218616
0.785262
0.0252481
0.818976
0.0319257
0.858342
0.0351516
0.0412627
0.519976
-0.00125052
-0.509147
0.530702
-0.00146217
0.543186
-0.000596547
0.556913
-0.000548469
0.572288
0.00142153
0.592119
0.00202988
0.613646
0.0037215
0.640153
0.00541836
0.668943
0.0063621
0.00720169
0.241178
-0.242429
0.239716
0.23912
0.238571
0.239993
0.242023
0.245744
0.251162
0.257525
0.0340346
0.118016
-0.100113
-0.0519383
0.0232373
0.105276
-0.0944785
0.0170875
0.097263
-0.0911132
0.0132076
0.0925172
-0.0886373
0.0102395
0.0895275
-0.0865595
0.00767
0.0871329
-0.0845634
0.00529723
0.0844377
-0.082065
0.00296972
0.0801782
-0.0778507
0.000911587
0.069785
-0.0677268
0.0396297
-0.0387181
0.0485734
0.136623
-0.0671797
0.0325961
0.121253
0.0214979
0.108361
0.0145367
0.0994784
0.0100515
0.0940127
0.00682879
0.0903556
0.00428021
0.0869863
0.0022016
0.0822568
0.000595228
0.0713913
0.0402249
0.058841
0.15223
-0.0744478
0.0430281
0.137066
0.0299991
0.12139
0.0206635
0.108814
0.0141846
0.100492
0.00940276
0.0951375
0.00559994
0.0907891
0.00260991
0.0852469
0.000599152
0.0734021
0.0408241
0.058161
0.163877
-0.0698088
0.0459309
0.149296
0.0346487
0.132673
0.0253728
0.11809
0.018073
0.107792
0.0121741
0.101036
0.00722744
0.0957358
0.00323659
0.0892377
0.000643503
0.0759952
0.0414676
0.0492977
0.171775
-0.057195
0.0411605
0.157433
0.0330573
0.140776
0.0254646
0.125682
0.0186399
0.114616
0.0125777
0.107099
0.0072632
0.10105
0.00294697
0.093554
0.000315021
0.0786271
0.0417826
0.0345835
0.17638
-0.0391888
0.0300832
0.161933
0.0252323
0.145627
0.0199804
0.130934
0.014595
0.120002
0.009414
0.11228
0.0047822
0.105682
0.00116752
0.0971686
-0.000528249
0.0803229
0.0412543
0.0161327
0.177999
-0.0177513
0.0147519
0.163314
0.0128251
0.147553
0.0100466
0.133713
0.00666189
0.123386
0.0031689
0.115773
9.88843e-05
0.108752
-0.00182968
0.0990972
-0.00173125
0.0802245
0.0395231
-0.00476993
0.176751
0.00601746
-0.00328801
0.161832
-0.00246394
0.146729
-0.00269299
0.133942
-0.00372581
0.124419
-0.00498476
0.117032
-0.00582495
0.109592
-0.00544032
0.0987126
-0.00305939
0.0778435
0.0364637
-0.0257545
0.173147
0.0293583
-0.0218096
0.157888
-0.018499
0.143419
-0.0163065
0.13175
-0.0149556
0.123068
-0.0138027
0.115879
-0.012119
0.107909
-0.00903656
0.0956301
-0.00421077
0.0730177
0.0322529
-0.0465521
0.0530423
-0.0398838
-0.0341226
-0.0296127
-0.0258981
-0.0222455
-0.0178676
-0.0120291
-0.00498934
0.0544554
0.0343036
-0.0621115
-0.0266474
0.0471479
0.0332781
-0.0259706
0.0401586
0.032309
-0.0253198
0.0334302
0.0315441
-0.0248156
0.0269002
0.0310245
-0.0244946
0.0205262
0.0306314
-0.0242574
0.0143177
0.0300069
-0.0237984
0.00838775
0.0284314
-0.0225015
0.00313822
0.0244399
-0.0191903
0.0139817
-0.0108435
0.0555343
0.0420938
-0.0633245
0.0480954
0.040717
0.0409837
0.0394206
0.0341389
0.0383889
0.0274939
0.0376695
0.0210014
0.037124
0.0146672
0.0363411
0.00860158
0.0344971
0.00321471
0.0298267
0.0171964
0.0561538
0.0499751
-0.0640351
0.048653
0.0482178
0.0414833
0.0465903
0.0345759
0.0452964
0.0278603
0.0443851
0.0212908
0.0436934
0.014877
0.0427549
0.00872897
0.0406451
0.00325873
0.035297
0.0204552
0.0562726
0.0578932
-0.0641908
0.0486686
0.0558219
0.0414244
0.0538346
0.0344729
0.0522478
0.0277414
0.0511166
0.0211766
0.0502582
0.0147797
0.0491518
0.0086527
0.0467721
0.00320906
0.0407406
0.0236642
0.0565133
0.0659918
-0.0646118
0.0489391
0.063396
0.0416906
0.0610831
0.0347015
0.0592369
0.0279072
0.0579109
0.0212774
0.0568881
0.0148363
0.0555929
0.00868927
0.0529191
0.00322852
0.0462014
0.0268927
0.0526455
0.0734581
-0.0601118
0.0453891
0.0706525
0.0385798
0.0678924
0.0320779
0.0657387
0.0257797
0.0642092
0.0196301
0.0630376
0.0136385
0.0615845
0.00791099
0.0586466
0.00286435
0.051248
0.0297571
0.0562819
0.0819297
-0.0647535
0.0485518
0.0783825
0.0410748
0.0753694
0.0338789
0.0729346
0.0269754
0.0711127
0.0203724
0.0696406
0.0140933
0.0678636
0.00819772
0.0645422
0.00301384
0.0564319
0.0327709
0.0420933
0.0882442
-0.0484078
0.0361276
0.0843481
0.0308932
0.0806038
0.0259429
0.0778849
0.0209938
0.0760618
0.0159894
0.074645
0.0110272
0.0728258
0.00628031
0.0692891
0.00217443
0.0605378
0.0349454
0.0516958
0.0960665
-0.059518
0.0440912
0.0919528
0.0364821
0.0882128
0.0293065
0.0850605
0.0226938
0.0826745
0.0166634
0.0806755
0.0112035
0.0782856
0.00630872
0.0741839
0.00223286
0.0646136
0.0371782
0.0288751
-0.0329214
0.0263493
0.023449
0.0198721
0.0159872
0.0120992
0.00831991
0.00465309
0.00153988
0.195867
0.130709
-0.128586
0.18817
0.232707
-0.22501
0.182288
0.185081
-0.179199
0.179772
0.143689
-0.141172
0.177547
0.134039
-0.131815
0.174147
0.138162
-0.134762
0.165807
0.157149
-0.148808
0.151617
0.188852
-0.174662
0.11665
0.247035
-0.212069
0.319505
-0.264967
0.195212
0.133486
0.186452
0.241468
0.180207
0.191326
0.177325
0.14657
0.175245
0.136119
0.172154
0.141254
0.164488
0.164815
0.150296
0.203043
0.116599
0.280732
0.37278
0.194361
0.137115
0.184172
0.251656
0.177198
0.1983
0.173799
0.14997
0.171683
0.138235
0.168642
0.144295
0.161528
0.171928
0.147109
0.217463
0.115263
0.312578
0.424008
0.193384
0.141721
0.181344
0.263696
0.173183
0.206462
0.16938
0.153772
0.16721
0.140406
0.163869
0.147636
0.156981
0.178816
0.142213
0.232231
0.112644
0.342147
0.472461
0.192395
0.147316
0.178002
0.278089
0.168259
0.216205
0.164591
0.15744
0.16231
0.142686
0.158117
0.151829
0.150888
0.186045
0.135714
0.247405
0.110382
0.36748
0.518231
0.191486
0.15382
0.174437
0.295138
0.163127
0.227515
0.160169
0.160398
0.157323
0.145532
0.151749
0.157403
0.143668
0.194125
0.127651
0.263423
0.10224
0.39289
0.560359
0.190723
0.161086
0.171651
0.31421
0.159717
0.239448
0.156778
0.163337
0.152426
0.149885
0.145424
0.164405
0.136518
0.203031
0.119666
0.280275
0.104078
0.408478
0.599684
0.190581
0.168496
0.170771
0.33402
0.159108
0.251112
0.15485
0.167594
0.149263
0.155472
0.140991
0.172677
0.12994
0.214082
0.11179
0.298424
0.0898316
0.430437
0.641108
0.191346
0.17514
0.172549
0.352817
0.162634
0.261027
0.158418
0.17181
0.152995
0.160894
0.143302
0.18237
0.130685
0.226699
0.109536
0.319574
0.0934095
0.446563
0.674999
0.193736
0.179393
0.178297
0.368256
0.171988
0.267336
0.168471
0.175327
0.161776
0.16759
0.149322
0.194823
0.131941
0.24408
0.107978
0.343537
0.0873837
0.467158
0.729461
0.320708
0.160695
0.330533
0.358431
0.338739
0.259131
0.343657
0.170409
0.348699
0.162549
0.349114
0.194408
0.35391
0.239284
0.355127
0.34232
0.367314
0.45497
0.654068
0.442708
0.333779
0.128926
0.369795
0.322415
0.390351
0.238574
0.399811
0.160949
0.40806
0.1543
0.417119
0.185349
0.42291
0.233493
0.444122
0.321108
0.461683
0.437408
0.594245
0.521505
0.340734
0.0902018
0.399455
0.263695
0.432624
0.205405
0.447962
0.145611
0.460855
0.141406
0.477441
0.168763
0.488048
0.222886
0.526321
0.282836
0.555486
0.408244
0.544269
0.605462
0.341898
0.0503139
0.414497
0.191096
0.45773
0.162172
0.47816
0.125182
0.494866
0.1247
0.517523
0.146106
0.534491
0.205917
0.580695
0.236632
0.629723
0.359215
0.496843
0.677149
0.339586
0.0127377
0.418215
0.112467
0.46908
0.111307
0.493366
0.100896
0.513227
0.10484
0.53897
0.120363
0.563108
0.181779
0.610693
0.189047
0.672151
0.297757
0.443561
0.725433
0.336456
-0.0217085
0.414642
0.0342815
0.469048
0.0569016
0.495577
0.0743664
0.517981
0.0824362
0.544212
0.0941314
0.577403
0.148588
0.621875
0.144575
0.685884
0.233748
0.373832
0.755612
0.332337
-0.0520351
0.40157
-0.0349516
0.452849
0.00562301
0.479627
0.0475884
0.504427
0.0576355
0.530977
0.0675817
0.571378
0.108187
0.611504
0.104449
0.676122
0.169131
0.280589
0.769365
0.322957
-0.0729822
0.368129
-0.0801235
0.404071
-0.0303186
0.426796
0.0248628
0.452098
0.0323343
0.478553
0.0411262
0.523102
0.0636386
0.561592
0.0659586
0.626502
0.104221
0.171695
0.735395
0.299462
-0.0704342
0.294622
-0.0752831
0.29708
-0.0327767
0.312389
0.0095534
0.333765
0.0109583
0.35864
0.0162512
0.398693
0.0235861
0.43725
0.027402
0.500367
0.0411036
0.0682833
0.603778
0.231576
0.156293
0.123516
0.13307
0.144028
0.160279
0.183865
0.211267
0.252371
0.320654
0.487395
-0.0966254
0.514807
-0.0945909
0.53073
-0.0903712
0.540567
-0.0796463
0.546485
-0.0631128
0.54921
-0.0419132
0.549085
-0.0176267
0.546723
0.0083794
0.542874
0.0332079
0.0588226
0.541056
-0.116176
0.553749
-0.107284
0.56027
-0.0968924
0.564669
-0.0840453
0.569443
-0.0678869
0.575074
-0.0475443
0.581212
-0.0237645
0.587603
0.00198858
0.593015
0.0277964
0.0526074
0.608819
-0.119532
0.613161
-0.111627
0.614995
-0.0987257
0.615375
-0.0844251
0.616037
-0.0685497
0.618279
-0.049786
0.622105
-0.0275904
0.627082
-0.0029889
0.633447
0.0214318
0.0441377
0.668925
-0.111308
0.662084
-0.104785
0.656231
-0.0928727
0.651145
-0.0793395
0.647612
-0.065017
0.646623
-0.0487967
0.64819
-0.029157
0.651882
-0.00668168
0.65736
0.0159537
0.0361807
0.711653
-0.0975277
0.699243
-0.092376
0.6892
-0.0828298
0.681305
-0.0714444
0.675546
-0.0592574
0.672188
-0.0454392
0.671198
-0.0281665
0.672722
-0.00820563
0.676043
0.012632
0.0300406
0.73998
-0.0818948
0.724017
-0.0764129
0.710569
-0.0693819
0.699438
-0.0603136
0.690646
-0.0504653
0.684247
-0.0390401
0.680278
-0.0241981
0.679108
-0.007035
0.681156
0.0105839
0.0240623
0.746989
-0.0595182
0.726427
-0.0558508
0.708508
-0.0514631
0.693797
-0.045603
0.682163
-0.038831
0.673428
-0.0303057
0.667705
-0.0184745
0.665594
-0.00492436
0.668025
0.00815295
0.0166626
0.709464
-0.0335872
0.685658
-0.0320441
0.664049
-0.0298544
0.64637
-0.0279242
0.632557
-0.0250174
0.621757
-0.0195063
0.614814
-0.011531
0.613466
-0.00357647
0.618189
0.00342973
0.00675419
0.580431
-0.0102394
0.558521
-0.0101347
0.539722
-0.0110552
0.524204
-0.0124066
0.511193
-0.0120063
0.500927
-0.00923989
0.495369
-0.00597317
0.49536
-0.00356768
0.500806
-0.00201556
-0.00158687
0.310415
0.30028
0.289225
0.276818
0.264812
0.255572
0.249599
0.246031
0.244016
0.00349939
0.0311714
-0.0346708
0.00673151
0.0727873
-0.0760195
0.00744362
0.0966771
-0.0973892
0.00693866
0.107426
-0.106921
0.00704843
0.110176
-0.110286
0.00563889
0.11171
-0.110301
0.00289015
0.110293
-0.107544
0.000553912
0.104764
-0.102428
-0.00039655
0.0955253
-0.0945749
0.0821593
0.000165414
-0.0827213
0.00453167
0.0266397
0.0105046
0.0668144
0.0146059
0.0925758
0.0166903
0.105341
0.0174074
0.109459
0.0178665
0.111251
0.0174256
0.110734
0.0161901
0.106
0.0148866
0.0968288
0.0833219
0.013724
0.00498556
0.0216541
0.0129776
0.0588224
0.0199774
0.085576
0.0247519
0.100567
0.0274126
0.106799
0.0294575
0.109206
0.0308591
0.109332
0.0310341
0.105825
0.0299987
0.0978641
0.0855803
0.0277403
0.00483581
0.0168183
0.0138385
0.0498197
0.0230274
0.076387
0.0304076
0.0931866
0.0356026
0.101604
0.0395989
0.10521
0.04296
0.105971
0.0451311
0.103654
0.0454901
0.0975051
0.0875198
0.0435505
0.00420443
0.0126139
0.0131434
0.0408807
0.0235346
0.0659958
0.0330985
0.0836228
0.0409169
0.0937851
0.0473326
0.0987945
0.0528778
0.100426
0.0573849
0.0991466
0.0601454
0.0947445
0.0873158
0.0603494
0.00327863
0.00933526
0.0112568
0.0329026
0.0217484
0.0555042
0.0326661
0.0727051
0.042732
0.0837192
0.0516789
0.0898476
0.059679
0.0924259
0.0667032
0.0921224
0.0722849
0.0891628
0.0838683
0.0757325
0.00222058
0.00711468
0.0086446
0.0264786
0.0182342
0.0459146
0.0293925
0.0615468
0.0407829
0.0723288
0.0517374
0.0788931
0.0620332
0.0821301
0.0714986
0.082657
0.0797782
0.0808832
0.0772089
0.0864377
0.00127888
0.0058358
0.00608218
0.0216753
0.0142808
0.037716
0.0248258
0.0510018
0.0365491
0.0606055
0.0486464
0.0667958
0.0606394
0.0701371
0.0721408
0.0711557
0.0826704
0.0703536
0.0680865
0.0917928
0.000581661
0.00525414
0.00402555
0.0182314
0.0107602
0.0309813
0.0201689
0.0415931
0.0313248
0.0494496
0.0434534
0.0546672
0.0559722
0.0576183
0.0683609
0.058767
0.0801081
0.0586064
0.0573004
0.0908943
0.000222144
0.005032
0.00276978
0.0156837
0.00828785
0.0254632
0.0164622
0.0334187
0.0266326
0.0392792
0.0381903
0.0431096
0.050646
0.0451626
0.0635459
0.045867
0.0764135
0.0457388
0.0453427
0.0883711
6.0552e-05
0.00497145
0.00195939
0.0137849
0.00630895
0.0211137
0.0129308
0.0267969
0.0213394
0.0308705
0.0310269
0.0334221
0.0415072
0.0346824
0.0522491
0.0351251
0.0625553
0.0354326
0.0367175
0.0711805
4.45147e-05
0.00492693
0.00151554
0.0123139
0.00486861
0.0177606
0.00994971
0.0217158
0.0163601
0.0244601
0.0236582
0.026124
0.03139
0.0269506
0.03911
0.0274051
0.0464787
0.0280639
0.0295616
0.0536346
5.92521e-07
0.00492634
0.00103068
0.0112838
0.00345114
0.0153401
0.00710926
0.0180577
0.0116366
0.0199327
0.0166757
0.0210849
0.0219209
0.0217054
0.027174
0.022152
0.0324414
0.0227965
0.0239371
0.0380659
-0.000160035
0.00508637
0.000344786
0.010779
0.00181342
0.0138715
0.00421087
0.0156603
0.00711381
0.0170298
0.0103237
0.017875
0.0137352
0.0182938
0.0173422
0.0185451
0.0212648
0.0188739
0.0194393
0.0257626
-0.000322371
0.00540874
-0.000317588
0.0107742
0.000261499
0.0132924
0.00139702
0.0145247
0.00285375
0.0155731
0.00462778
0.016101
0.00672745
0.0161941
0.00917551
0.016097
0.0120722
0.0159773
0.0159093
0.0156021
-0.000660034
0.00606878
-0.00125523
0.0113694
-0.00148907
0.0135263
-0.001459
0.0144947
-0.00110228
0.0152163
-0.000373463
0.0153722
0.000732505
0.0150882
0.00223293
0.0145966
0.00420459
0.0140056
0.0133178
0.00679609
-0.00112041
0.00718919
-0.00227828
0.0125273
-0.00307418
0.0143222
-0.00366084
0.0150813
-0.00398569
0.0155412
-0.00408413
0.0154706
-0.00386452
0.0148686
-0.00324133
0.0139734
-0.00210826
0.0128725
0.0115256
-0.000316069
-0.00132666
0.00851585
-0.00283884
0.0140394
-0.0042241
0.0157074
-0.00545026
0.0163075
-0.0063855
0.0164764
-0.00706337
0.0161485
-0.00749345
0.0152986
-0.0075808
0.0140607
-0.00719672
0.0124885
0.0105097
-0.00618074
-0.00145249
0.00996834
-0.00329283
0.0158798
-0.00512949
0.0175441
-0.00682657
0.0180046
-0.00823928
0.0178891
-0.00936364
0.0172729
-0.0102276
0.0161626
-0.0107759
0.014609
-0.0108779
0.0125904
0.00999041
-0.0103586
-0.00153392
-0.00357717
-0.00563704
-0.00756308
-0.00923934
-0.0106337
-0.0117604
-0.0125831
-0.0129821
-0.0127663
0.0683504
0.154634
-0.151804
0.0715089
0.116429
-0.119588
0.0828678
0.029168
-0.0405269
0.094277
-0.0202581
0.00884887
0.105217
-0.0413528
0.0304128
0.115412
-0.0445821
0.0343874
0.124761
-0.0399354
0.0305864
0.132787
-0.0326808
0.0246543
0.139742
-0.0229621
0.0160072
-0.0117694
0.00685417
0.0601304
0.148138
0.0699272
0.106633
0.0855144
0.0135808
0.0987581
-0.0335019
0.110117
-0.0527114
0.119908
-0.0543737
0.12854
-0.0485671
0.135724
-0.0398645
0.141741
-0.0289796
-0.0157099
0.0528348
0.133369
0.069467
0.0900005
0.0886662
-0.00561849
0.103307
-0.0481431
0.115011
-0.0644147
0.124387
-0.0637503
0.132226
-0.0564054
0.138466
-0.0461047
0.14349
-0.034004
-0.0187355
0.0468244
0.112308
0.0706174
0.0662075
0.0930319
-0.0280329
0.108718
-0.0638289
0.120544
-0.0762412
0.129372
-0.0725778
0.136276
-0.0633098
0.141423
-0.0512511
0.145355
-0.0379366
-0.0208673
0.0415285
0.0863813
0.0730761
0.0346599
0.0982813
-0.0532382
0.114974
-0.0805219
0.126759
-0.0880254
0.134938
-0.0807574
0.140805
-0.0691767
0.144765
-0.0552113
0.147519
-0.0406908
-0.0221046
0.03685
0.0563274
0.0763511
-0.00484124
0.103806
-0.0806931
0.121471
-0.0981873
0.133103
-0.0996572
0.140644
-0.0882984
0.145505
-0.0740373
0.148342
-0.0580481
0.149957
-0.0423066
-0.0224917
0.0330148
0.0229966
0.079616
-0.0514425
0.108659
-0.109736
0.127322
-0.116851
0.138823
-0.111158
0.145858
-0.0953332
0.149885
-0.0780648
0.1518
-0.0599635
0.152461
-0.0429673
-0.022149
0.0301018
-0.013286
0.0817802
-0.103121
0.112187
-0.140143
0.1319
-0.136563
0.143419
-0.122677
0.15016
-0.102074
0.153597
-0.0815018
0.154852
-0.0612182
0.154804
-0.0429201
-0.021245
0.0275309
-0.0511755
0.0823313
-0.157921
0.114089
-0.1719
0.13487
-0.157345
0.146673
-0.13448
0.153357
-0.108758
0.156485
-0.0846293
0.15735
-0.0620834
0.156857
-0.0424275
-0.0199625
0.0250674
0.0809213
0.114149
0.136012
0.148463
0.155356
0.158484
0.159239
0.158566
0.030433
0.0232902
-0.0537232
0.021051
0.00938207
0.0185821
0.00246885
0.0201233
-0.00154118
0.023125
-0.00300174
0.0262435
-0.00311845
0.0287581
-0.00251465
0.0309698
-0.00221165
0.0319096
-0.000939813
2.08843e-05
0.0960381
0.0653816
-0.13813
0.0700516
0.0353685
0.0618746
0.0106459
0.0634102
-0.00307678
0.0685093
-0.00810089
0.074294
-0.00890315
0.0792456
-0.00746622
0.0833338
-0.00629983
0.0853999
-0.00300598
-0.000475447
0.132265
0.10178
-0.168664
0.101347
0.066286
0.0906823
0.021311
0.0919359
-0.00433043
0.0980629
-0.0142278
0.105424
-0.0162643
0.11206
-0.0141019
0.117345
-0.0115852
0.120596
-0.00625705
-0.00184972
0.14102
0.129135
-0.168375
0.111951
0.0953547
0.100975
0.0322879
0.102764
-0.00612002
0.11042
-0.0218841
0.119124
-0.0249678
0.127052
-0.0220298
0.13334
-0.0178735
0.137884
-0.0108012
-0.00417657
0.135453
-0.158122
0.11122
0.102981
0.10571
0.114238
0.123658
0.132215
0.138995
0.144201
0.00566546
0.000159831
-0.00582529
0.0062215
-0.000556044
0.0074186
-0.0011971
0.00930398
-0.00188537
0.0121852
-0.00288122
0.0166755
-0.00449027
0.0234806
-0.00680509
0.0326899
-0.00920933
0.0439299
-0.01124
-0.00979335
0.0149648
0.000407811
-0.0152128
0.0166109
-0.00220206
0.0201423
-0.00472859
0.0259487
-0.0076917
0.0348492
-0.0117818
0.0478765
-0.0175176
0.065493
-0.0244216
0.0871767
-0.030893
0.11254
-0.0366033
-0.0353829
0.0228269
0.000551231
-0.0229703
0.025574
-0.00494909
0.0313219
-0.0104766
0.0406792
-0.0170489
0.0543641
-0.0254667
0.0726744
-0.035828
0.0946364
-0.0463836
0.119226
-0.0554824
0.144232
-0.0616092
-0.0598147
0.0295716
0.00041337
-0.0294338
0.0334191
-0.00879661
0.0411863
-0.0182438
0.0534233
-0.0292859
0.0701766
-0.0422199
0.090352
-0.0560034
0.111764
-0.067796
0.132667
-0.0763855
0.150938
-0.0798794
-0.0772518
0.0353919
-0.0348131
0.0403193
0.0498159
0.0640805
0.08221
0.101939
0.120581
0.135988
0.147003
0.0455064
-0.037254
0.0456244
-0.0538769
0.0383131
-0.0350231
0.0422165
0.0323037
-0.0331785
0.0391878
0.0269941
-0.0315613
0.0368709
0.0219498
-0.0301471
0.0351915
0.016896
-0.0287903
0.0338441
0.0117617
-0.0271224
0.0322567
0.00671787
-0.0244802
0.029524
0.0023331
-0.019715
0.0240998
-0.0102602
0.0125933
0.0484655
-0.0302297
-0.0554898
0.0419272
-0.0284848
0.0355992
-0.0268505
0.029483
-0.0254451
0.023562
-0.0242262
0.0178042
-0.0230325
0.0122203
-0.0215385
0.00695293
-0.0192128
0.00246257
-0.0152246
-0.00779762
0.0477731
-0.0232003
-0.0548025
0.0409735
-0.0216852
0.034517
-0.020394
0.028384
-0.0193121
0.0225309
-0.018373
0.0169142
-0.0174158
0.0115386
-0.0161629
0.0065299
-0.0142041
0.00230363
-0.0109984
-0.00549399
0.0474273
-0.0162044
-0.0544232
0.0407728
-0.0150307
0.0344241
-0.0140453
0.0283409
-0.0132289
0.0224805
-0.0125126
0.0168272
-0.0117625
0.0114276
-0.0107633
0.00644694
-0.00922346
0.00229387
-0.00684529
-0.00320012
0.0473777
-0.0092778
-0.0543043
0.0407424
-0.00839548
0.0343738
-0.00767663
0.0282283
-0.0070834
0.0222657
-0.00655007
0.0164829
-0.00597966
0.0109683
-0.00524875
0.00598211
-0.00423726
0.00202672
-0.00288991
-0.0011734
0.0476058
-0.00234743
-0.0545362
0.0409558
-0.00174547
0.0345412
-0.00126202
0.0283054
-0.000847611
0.022199
-0.000443665
0.0162245
-5.18127e-06
0.0104981
0.000477609
0.00538356
0.000877322
0.00157777
0.000915887
0.000404367
0.0484912
0.00466935
-0.055508
0.0417642
0.0049815
0.0352849
0.00521727
0.0289969
0.00544043
0.0228541
0.00569907
0.0168597
0.00598928
0.0111402
0.00619707
0.00600437
0.00601317
0.00198746
0.0049328
0.00239182
0.0498336
0.011826
-0.0569902
0.0429915
0.0118236
0.0364281
0.0117806
0.0300905
0.0117781
0.0239353
0.0118543
0.0179622
0.0119624
0.0122523
0.011907
0.00699998
0.0112654
0.0025784
0.00935439
0.00497022
0.0514293
0.0191475
-0.0587508
0.0444399
0.018813
0.0377487
0.0184719
0.0313031
0.0182236
0.0250548
0.0181026
0.0189853
0.0180319
0.0131346
0.0177577
0.00763709
0.016763
0.00285287
0.0141386
0.00782309
0.0530664
-0.0605663
0.0459088
0.0390609