/*--------------------------------*- C++ -*----------------------------------*\
| =========                 |                                                 |
| \\      /  F ield         | OpenFOAM: The Open Source CFD Toolbox           |
|  \\    /   O peration     | Version:  2406                                  |
|   \\  /    A nd           | Website:  www.openfoam.com                      |
|    \\/     M anipulation  |                                                 |
\*---------------------------------------------------------------------------*/
FoamFile
{
    version     2.0;
    format      ascii;
    arch        "LSB;label=32;scalar=64";
    class       volVectorField;
    location    "0.4";
    object      U;
}
// * * * * * * * * * * * * * * * * * * * * * * * * * * * * * * * * * * * * * //

dimensions      [0 1 -1 0 0 0 0];

internalField   nonuniform List<vector> 
1800
(
(-0.0705802 0.0802331 0)
(-0.0925852 0.121064 3.79511e-20)
(-0.0544702 0.128203 1.02271e-19)
(0.0243747 0.118343 -2.72127e-20)
(0.111809 0.109835 -1.02625e-19)
(0.194217 0.112194 -2.39981e-20)
(0.270153 0.124712 9.97375e-20)
(0.343039 0.143212 4.20438e-19)
(0.41823 0.164005 0)
(0.47932 0.18924 1.57346e-19)
(-0.0495402 0.0533809 -2.74585e-20)
(-0.0537935 0.0764777 -5.84487e-20)
(0.0131544 0.0701342 -1.80972e-20)
(0.122597 0.0513561 -1.32313e-19)
(0.231239 0.0392369 7.02542e-20)
(0.326849 0.0397457 2.77259e-19)
(0.411227 0.0492143 -6.42282e-20)
(0.490924 0.0619629 -5.81316e-19)
(0.572291 0.0724905 2.60837e-19)
(0.644931 0.0805853 1.46657e-19)
(-0.0261744 0.0281759 1.514e-20)
(-0.00449332 0.0351667 -8.22656e-20)
(0.10345 0.0191514 -7.45869e-20)
(0.243246 -0.00103793 -1.64388e-20)
(0.369626 -0.00857336 -1.54818e-20)
(0.475117 -0.00154732 -1.27765e-19)
(0.565083 0.0148324 -3.62917e-20)
(0.648538 0.0344109 5.19391e-19)
(0.735656 0.0518732 -4.22502e-19)
(0.821364 0.0562339 -9.93092e-19)
(-0.00264978 0.00611143 2.0981e-20)
(0.0635939 -0.00520045 6.41394e-20)
(0.22153 -0.0275696 -1.62342e-20)
(0.389013 -0.0443535 8.45895e-22)
(0.530117 -0.0454047 -3.61465e-20)
(0.644086 -0.0322647 4.21992e-20)
(0.739858 -0.0107688 1.73453e-19)
(0.828672 0.0131446 1.28067e-19)
(0.922248 0.0345917 -5.1981e-21)
(1.01501 0.0407819 -1.95671e-19)
(0.0203044 -0.00324461 -2.52208e-20)
(0.157461 -0.0359864 3.91153e-20)
(0.36132 -0.0582291 8.72839e-21)
(0.550736 -0.0672495 -8.01857e-21)
(0.701875 -0.0603477 4.791e-21)
(0.82052 -0.0408929 -1.69473e-20)
(0.91902 -0.0146762 -3.62784e-20)
(1.01058 0.0129268 -9.7894e-20)
(1.10882 0.0381719 2.61164e-19)
(1.21369 0.0464547 2.49887e-19)
(0.0623161 -0.0126036 4.89796e-22)
(0.271882 -0.0552444 1.68187e-19)
(0.514239 -0.0709634 5.23731e-20)
(0.719618 -0.070268 -5.51751e-20)
(0.875526 -0.0558374 2.35569e-20)
(0.994432 -0.0320083 -1.49124e-21)
(1.09253 -0.0040435 -2.07112e-20)
(1.18558 0.0236837 -6.83124e-20)
(1.2894 0.0483625 1.54562e-19)
(1.41032 0.0568485 1.53735e-19)
(0.114497 -0.0195769 -1.38907e-20)
(0.397335 -0.0611234 -2.0878e-19)
(0.672098 -0.0648264 8.44945e-21)
(0.885548 -0.0528466 1.92543e-19)
(1.03903 -0.0315054 -3.41108e-21)
(1.15294 -0.00499805 -6.18277e-20)
(1.24779 0.0227499 -2.8444e-20)
(1.34234 0.0489867 -2.35664e-21)
(1.45555 0.0719387 -4.53449e-20)
(1.60252 0.0839241 -2.11335e-20)
(0.174946 -0.020504 2.19904e-20)
(0.529175 -0.0502838 7.82893e-20)
(0.826819 -0.0384437 -5.07005e-20)
(1.03836 -0.0161325 4.44062e-20)
(1.18219 0.00955062 -6.28211e-21)
(1.28738 0.0360095 -2.71255e-19)
(1.37879 0.0614381 1.59984e-20)
(1.47833 0.0851337 1.19119e-19)
(1.60731 0.106568 -9.28091e-20)
(1.78072 0.123078 -1.24471e-19)
(0.24118 -0.0130825 9.17317e-20)
(0.659195 -0.0210029 1.02206e-19)
(0.967097 0.00708485 -2.49665e-19)
(1.16708 0.0365633 -7.48155e-20)
(1.29659 0.0632032 -1.19358e-20)
(1.39272 0.0874826 1.02435e-19)
(1.48353 0.110291 -1.70811e-19)
(1.59294 0.132965 -1.00575e-19)
(1.74072 0.156224 2.50851e-19)
(1.93168 0.180165 8.17702e-20)
(0.309158 0.00397368 6.83142e-20)
(0.777261 0.0255718 2.34315e-19)
(1.08208 0.0675054 -2.42943e-19)
(1.26395 0.0994752 -7.97555e-20)
(1.37865 0.123662 5.82274e-20)
(1.46873 0.144327 -1.04802e-19)
(1.56349 0.164759 1.32093e-19)
(1.68658 0.187802 4.25654e-20)
(1.85077 0.214505 -1.14022e-19)
(2.04612 0.244458 -5.83042e-20)
(-0.0118334 0.153229 -3.14071e-20)
(-0.0246929 0.236489 1.29201e-19)
(-0.0372461 0.257124 7.83337e-20)
(-0.0475373 0.260002 -9.69352e-20)
(-0.0562712 0.253642 -5.0467e-21)
(-0.0627465 0.240439 4.76835e-20)
(-0.0670958 0.221345 3.63051e-20)
(-0.0696691 0.19612 -7.9238e-20)
(-0.0703139 0.162941 3.81382e-22)
(-0.0670521 0.119088 2.4275e-20)
(-0.0255724 0.170707 4.62261e-20)
(-0.0452671 0.259183 -1.20911e-22)
(-0.058352 0.278737 1.88777e-20)
(-0.0677632 0.279542 -1.35224e-19)
(-0.0751158 0.27004 -1.61221e-19)
(-0.0797024 0.253258 -6.34728e-20)
(-0.0817721 0.230763 1.0407e-19)
(-0.0817047 0.201925 0)
(-0.0791547 0.163978 -1.64937e-20)
(-0.0715966 0.1134 6.35374e-20)
(-0.0414282 0.18512 -5.80649e-23)
(-0.0680139 0.277306 -1.79056e-19)
(-0.0804331 0.295555 -1.27989e-19)
(-0.0878714 0.295007 1.11453e-19)
(-0.0927238 0.283108 -6.99109e-20)
(-0.0942191 0.263364 -4.81905e-20)
(-0.0928742 0.238111 -5.71827e-20)
(-0.0890718 0.206392 -3.05647e-20)
(-0.0821476 0.164566 -1.15942e-19)
(-0.0689752 0.108368 -1.97605e-19)
(-0.058695 0.195365 3.72956e-20)
(-0.0920853 0.289133 4.63824e-21)
(-0.102277 0.305891 1.40049e-20)
(-0.106761 0.305062 9.33071e-20)
(-0.108225 0.29153 -1.07621e-20)
(-0.105523 0.269496 7.14332e-20)
(-0.0997556 0.242312 -2.70857e-20)
(-0.0912596 0.208695 0)
(-0.0789394 0.164189 1.06449e-19)
(-0.0591204 0.103861 -2.47617e-20)
(-0.0762869 0.200866 -8.95289e-20)
(-0.115815 0.293369 3.69611e-20)
(-0.121017 0.305196 1.37763e-19)
(-0.123462 0.308472 -1.09106e-20)
(-0.120803 0.29445 2.66652e-20)
(-0.11269 0.270787 9.04442e-20)
(-0.101593 0.242583 -7.95891e-20)
(-0.0875355 0.208196 2.86214e-20)
(-0.0687307 0.162201 5.55387e-20)
(-0.0412004 0.0988614 8.92086e-20)
(-0.0913974 0.199076 -8.94713e-20)
(-0.131997 0.289663 -6.06372e-21)
(-0.135659 0.297705 -8.40487e-20)
(-0.13831 0.302083 -2.47098e-20)
(-0.128671 0.289648 1.48232e-19)
(-0.113928 0.265979 -1.1017e-20)
(-0.0970419 0.238478 4.80832e-20)
(-0.0775609 0.205114 -7.76849e-20)
(-0.0529734 0.159384 -5.94462e-20)
(-0.0163153 0.0946515 1.43173e-19)
(-0.100351 0.187464 3.5752e-20)
(-0.144049 0.276647 1.42944e-20)
(-0.147796 0.293773 2.90558e-20)
(-0.1418 0.29159 8.99231e-20)
(-0.124102 0.277321 -9.81738e-20)
(-0.102081 0.256172 -1.8957e-19)
(-0.078959 0.23169 3.81632e-21)
(-0.0537428 0.201661 -1.86024e-19)
(-0.0229486 0.159348 1.22782e-19)
(0.024494 0.0965019 1.25509e-19)
(-0.102695 0.166988 1.03872e-21)
(-0.147654 0.25091 -9.95089e-21)
(-0.146476 0.272745 6.99217e-20)
(-0.129468 0.272024 -4.96947e-20)
(-0.10157 0.260242 -1.92438e-19)
(-0.0707627 0.244057 3.70917e-20)
(-0.0396362 0.225199 2.18466e-20)
(-0.0072541 0.200714 8.55474e-20)
(0.03038 0.164099 3.26162e-19)
(0.0906756 0.106103 -4.2423e-20)
(-0.0973791 0.139474 -8.54188e-21)
(-0.139342 0.213711 2.82282e-20)
(-0.13078 0.236897 -1.08831e-20)
(-0.0995966 0.238169 -8.85287e-20)
(-0.0573797 0.231277 -1.7065e-20)
(-0.0140531 0.224192 1.88302e-19)
(0.0284875 0.216812 1.20905e-19)
(0.0709151 0.203357 1.864e-19)
(0.116894 0.176196 -3.02135e-21)
(0.189943 0.128912 -3.79529e-19)
(-0.0865584 0.109133 1.31059e-20)
(-0.121117 0.167833 -1.24635e-20)
(-0.101791 0.185944 -3.42857e-20)
(-0.0511722 0.184569 -3.51454e-20)
(0.0104224 0.179871 4.19152e-20)
(0.070487 0.1816 3.67001e-19)
(0.126786 0.189827 -5.23784e-20)
(0.180686 0.197907 -3.17858e-19)
(0.235762 0.195278 -4.57386e-19)
(0.31632 0.176722 -3.29992e-19)
(-0.0220508 -0.14887 -4.06188e-19)
(0.254722 -0.335618 -2.88487e-19)
(0.472489 -0.309096 -7.02582e-20)
(0.599025 -0.265362 -1.68966e-20)
(0.689017 -0.214071 4.23277e-20)
(0.742688 -0.166701 2.40574e-21)
(0.771606 -0.125324 -4.30199e-20)
(0.791221 -0.0890462 1.43499e-20)
(0.796874 -0.0587405 -8.87557e-21)
(0.800141 -0.0258344 -4.11204e-21)
(0.00163761 -0.195764 -3.32752e-19)
(0.252931 -0.409832 1.49063e-20)
(0.473966 -0.359011 -6.32713e-20)
(0.601474 -0.299515 -2.53927e-21)
(0.693469 -0.235179 3.62057e-20)
(0.747816 -0.179365 -6.58676e-20)
(0.776954 -0.132451 2.65177e-20)
(0.796306 -0.092719 3.00171e-22)
(0.802461 -0.0603334 -1.72319e-20)
(0.805784 -0.0261822 1.01861e-20)
(0.0373367 -0.235222 7.71055e-19)
(0.251407 -0.477345 3.43029e-19)
(0.473662 -0.410384 3.68464e-20)
(0.600924 -0.335147 2.27905e-20)
(0.694865 -0.25763 -5.53825e-20)
(0.750106 -0.192801 9.04484e-22)
(0.779842 -0.140037 1.12258e-20)
(0.7995 -0.0967052 -1.63616e-20)
(0.80654 -0.0622209 -1.77827e-22)
(0.810633 -0.0266483 -8.6493e-22)
(0.0831256 -0.265548 6.31089e-19)
(0.25746 -0.534722 -8.1391e-21)
(0.477074 -0.462777 1.28174e-20)
(0.601767 -0.371964 -1.77259e-20)
(0.696082 -0.281377 1.6339e-20)
(0.751609 -0.206966 1.34503e-20)
(0.781855 -0.14815 -2.25817e-20)
(0.802225 -0.101086 0)
(0.810221 -0.0645229 0)
(0.815709 -0.0272874 1.24966e-23)
(0.139001 -0.285621 -1.81827e-19)
(0.286926 -0.580466 -4.07654e-19)
(0.498104 -0.513563 -6.97138e-21)
(0.614555 -0.408811 1.46704e-20)
(0.704455 -0.305666 9.33325e-21)
(0.757511 -0.221654 6.2047e-20)
(0.786793 -0.156775 8.71018e-22)
(0.80752 -0.105898 -9.90299e-21)
(0.816038 -0.0673192 -2.88903e-20)
(0.8233 -0.0281522 -1.58265e-21)
(0.213212 -0.299317 -2.70713e-19)
(0.3609 -0.619031 -1.90507e-19)
(0.559321 -0.561713 -2.8003e-19)
(0.658179 -0.444012 4.60141e-21)
(0.734243 -0.329257 -3.60788e-20)
(0.778429 -0.236271 3.45671e-20)
(0.802617 -0.165651 1.22795e-20)
(0.821599 -0.111051 -4.4623e-20)
(0.82925 -0.0706464 4.67461e-22)
(0.838154 -0.02933 -1.47633e-20)
(0.313177 -0.313094 9.61644e-20)
(0.497632 -0.657188 2.14325e-20)
(0.67996 -0.607113 1.56416e-19)
(0.753583 -0.475923 -4.33561e-20)
(0.804794 -0.350126 -4.46851e-21)
(0.831118 -0.249209 -4.37567e-20)
(0.843324 -0.173735 -8.92901e-22)
(0.855984 -0.115999 1.12519e-20)
(0.85992 -0.0742978 1.2641e-20)
(0.86924 -0.0308731 7.22592e-21)
(0.458559 -0.330357 2.77946e-19)
(0.701474 -0.69656 1.5059e-18)
(0.860573 -0.650071 2.67742e-19)
(0.907056 -0.504222 1.84804e-20)
(0.928722 -0.367117 1.8053e-20)
(0.931182 -0.258979 3.96837e-20)
(0.925113 -0.179716 -4.17916e-20)
(0.926056 -0.119839 3.35967e-20)
(0.92236 -0.0776496 -3.26565e-22)
(0.929281 -0.032674 -2.75742e-21)
(0.656928 -0.346045 7.12346e-19)
(0.952228 -0.73381 4.96489e-19)
(1.07908 -0.690776 -5.34525e-19)
(1.0991 -0.529702 1.66693e-19)
(1.09526 -0.379788 -1.7689e-20)
(1.07671 -0.264242 2.71207e-23)
(1.05264 -0.181917 1.34055e-20)
(1.04054 -0.120923 -5.18674e-22)
(1.02754 -0.0792835 -6.83401e-21)
(1.02968 -0.0343089 -4.30709e-21)
(0.894851 -0.330684 1.41159e-19)
(1.19679 -0.744399 -1.10118e-18)
(1.30344 -0.71666 -4.50856e-19)
(1.30226 -0.550119 1.53191e-19)
(1.27461 -0.390619 -4.47722e-20)
(1.23811 -0.268876 6.63682e-21)
(1.19951 -0.183746 -1.0342e-20)
(1.17662 -0.12147 1.03871e-21)
(1.15737 -0.0802402 -1.44619e-21)
(1.15448 -0.0355068 -1.28303e-21)
(1.28612 -0.466835 -4.13925e-19)
(1.48201 -0.758128 -1.61102e-19)
(1.57665 -0.720985 -4.574e-20)
(1.57052 -0.548381 -1.13646e-19)
(1.52231 -0.379655 6.70337e-20)
(1.46527 -0.255391 8.98026e-21)
(1.40869 -0.171979 1.81513e-20)
(1.37182 -0.113418 1.17637e-20)
(1.34287 -0.0761284 -2.44355e-20)
(1.33051 -0.035204 2.97288e-21)
(1.75021 -0.698826 -3.20881e-19)
(1.79121 -0.908616 -1.01526e-19)
(1.78576 -0.790781 2.04616e-20)
(1.74826 -0.562464 -1.90193e-20)
(1.69704 -0.368367 1.40342e-19)
(1.64236 -0.238781 1.27806e-19)
(1.58604 -0.156278 9.51118e-20)
(1.54645 -0.101785 -1.11861e-20)
(1.5185 -0.0684931 4.33368e-20)
(1.50069 -0.0319344 1.14416e-20)
(2.53135 -0.678906 -1.11529e-19)
(2.36311 -0.763637 -6.5082e-20)
(2.15953 -0.68393 6.64267e-20)
(1.99672 -0.496094 1.45044e-35)
(1.88146 -0.322211 -1.59196e-20)
(1.79939 -0.203825 -4.2108e-34)
(1.73032 -0.130449 3.96985e-21)
(1.68471 -0.0849107 -5.1343e-35)
(1.6501 -0.0582983 2.36682e-22)
(1.62954 -0.028517 -2.05573e-21)
(2.86178 -0.675692 -1.99924e-19)
(2.55645 -0.766995 2.04811e-19)
(2.32868 -0.671687 -1.74004e-20)
(2.13015 -0.470021 0)
(1.97839 -0.29292 -1.02181e-19)
(1.8765 -0.178501 -8.03431e-20)
(1.79929 -0.110802 -5.9457e-20)
(1.74946 -0.0702043 3.25713e-34)
(1.71255 -0.0478893 -1.96605e-20)
(1.69254 -0.0238589 1.3155e-21)
(3.05189 -0.566518 -1.74053e-19)
(2.75681 -0.603767 2.16077e-20)
(2.4848 -0.535996 0)
(2.23087 -0.373703 0)
(2.03612 -0.226193 0)
(1.91139 -0.133997 0)
(1.82453 -0.0816492 1.81767e-21)
(1.76938 -0.0512953 4.01226e-34)
(1.72863 -0.0354455 -3.13429e-22)
(1.70324 -0.0200033 1.23056e-34)
(3.07967 -0.476848 1.37733e-19)
(2.79505 -0.531937 0)
(2.51573 -0.458229 0)
(2.24228 -0.30059 0)
(2.02809 -0.168509 0)
(1.89398 -0.0946689 0)
(1.80597 -0.0564278 -4.29294e-21)
(1.75236 -0.0348981 4.08141e-20)
(1.71431 -0.0252328 -5.67824e-22)
(1.69209 -0.0161116 1.0595e-20)
(3.05626 -0.389161 0)
(2.75611 -0.418605 6.27975e-20)
(2.42579 -0.337157 -4.26678e-20)
(2.12877 -0.204356 0)
(1.91693 -0.101813 -7.57927e-20)
(1.79321 -0.0517067 -5.22153e-20)
(1.71657 -0.0294968 -3.95118e-20)
(1.6703 -0.0171351 -2.22575e-20)
(1.64012 -0.0134313 2.46288e-20)
(1.6168 -0.0105414 -5.596e-21)
(2.88138 -0.296405 -4.81816e-20)
(2.4936 -0.297602 2.09636e-20)
(2.10223 -0.212671 -1.96627e-20)
(1.80621 -0.111873 -3.58928e-37)
(1.6275 -0.0436693 1.35407e-20)
(1.53395 -0.0168221 -3.14744e-34)
(1.47948 -0.0082333 -5.90554e-21)
(1.44656 -0.00411768 -1.0882e-20)
(1.42708 -0.00445661 -9.93735e-22)
(1.40546 -0.00582196 1.7591e-21)
(2.18835 -0.172248 0)
(1.74714 -0.115478 1.06573e-20)
(1.3993 -0.0583723 3.35343e-20)
(1.18449 -0.021473 0)
(1.08419 0.00169229 2.65769e-20)
(1.04411 0.00647837 1.80874e-20)
(1.02475 0.00506928 5.00274e-21)
(1.01395 0.0034936 6.70299e-21)
(1.01001 0.0011245 -8.8824e-21)
(0.995955 -0.00164503 -6.02728e-22)
(0.683206 -0.0429171 -1.38359e-20)
(0.495542 -0.00884183 0)
(0.396401 -0.00336945 0)
(0.341544 3.40082e-06 0)
(0.338146 0.00384591 0)
(0.351307 0.00364086 0)
(0.364241 0.00262904 -6.51163e-21)
(0.37378 0.00176993 1.99889e-35)
(0.380381 0.00103013 -1.22308e-21)
(0.378542 -8.43605e-05 -2.18653e-21)
(2.42645 0.304478 3.53253e-19)
(2.35863 0.239143 1.81573e-19)
(2.25971 0.173473 2.06936e-19)
(2.09617 0.121632 -2.53795e-19)
(1.90902 0.0724261 1.42783e-19)
(1.65975 0.0378528 4.55461e-20)
(1.43845 -0.00957472 -1.20162e-19)
(1.14762 -0.00228752 -1.10048e-20)
(1.01583 -0.0759108 -2.44164e-19)
(0.668155 0.100881 -1.51368e-19)
(2.74146 0.285382 -2.4821e-19)
(2.74191 0.229582 4.02647e-20)
(2.75661 0.151412 2.6722e-19)
(2.68877 0.118951 2.10325e-19)
(2.6486 0.0232331 -3.14714e-19)
(2.47232 0.0114534 1.05373e-19)
(2.38395 -0.120914 -1.75109e-19)
(2.06184 -0.10321 -4.53212e-20)
(1.98695 -0.272433 -4.79869e-20)
(1.47766 -0.220003 3.15148e-20)
(2.9447 0.238302 3.98459e-20)
(2.95303 0.170779 -2.06327e-19)
(3.02404 0.0938736 -2.93494e-19)
(2.98724 0.0485456 6.97051e-19)
(3.06925 -0.0350989 -1.9244e-20)
(2.93552 -0.0760901 1.83386e-20)
(3.01118 -0.182915 -2.46345e-19)
(2.74479 -0.236698 -2.53803e-19)
(2.79888 -0.33585 -6.61211e-20)
(2.37271 -0.411014 -7.24558e-20)
(3.049 0.203411 8.24588e-20)
(3.06292 0.125982 -3.01958e-19)
(3.12189 0.0457742 1.04114e-19)
(3.11637 -0.0209454 -2.70113e-19)
(3.19131 -0.0915586 3.62582e-19)
(3.15292 -0.153719 -1.92822e-19)
(3.20998 -0.220524 5.12722e-20)
(3.09602 -0.307703 -8.57126e-20)
(3.13016 -0.367674 -7.54941e-20)
(2.93811 -0.470844 1.34264e-19)
(3.12273 0.163198 1.14828e-19)
(3.13466 0.0852104 -4.14917e-19)
(3.17988 0.00954525 1.25909e-20)
(3.1767 -0.0674724 -1.25371e-19)
(3.22914 -0.130592 -4.70124e-20)
(3.21317 -0.198099 -2.38344e-21)
(3.25898 -0.239714 2.09756e-19)
(3.21836 -0.322039 -6.59704e-20)
(3.23039 -0.355015 -1.41273e-19)
(3.1586 -0.460641 -2.18951e-19)
(3.14535 0.139499 2.21547e-19)
(3.16207 0.0642783 6.4115e-20)
(3.20297 -0.00923773 -2.76392e-19)
(3.20423 -0.0833337 1.25004e-19)
(3.23835 -0.145692 1.91881e-19)
(3.2296 -0.206217 1.83914e-20)
(3.24803 -0.240956 6.73773e-20)
(3.2341 -0.313547 -1.41227e-19)
(3.22505 -0.334809 -7.1869e-20)
(3.20267 -0.413099 -1.36344e-19)
(3.09425 0.0997269 -1.63037e-20)
(3.12218 0.0324696 1.22738e-19)
(3.16721 -0.0325238 -1.12242e-19)
(3.17524 -0.0940898 -1.06263e-20)
(3.20403 -0.153044 2.19387e-19)
(3.19892 -0.196003 -3.98123e-20)
(3.20382 -0.233359 7.88184e-20)
(3.19515 -0.277937 1.33445e-19)
(3.17882 -0.298274 8.46969e-20)
(3.16646 -0.345272 1.06847e-19)
(2.88116 0.063867 -8.53871e-21)
(2.93213 0.00243442 -1.9434e-21)
(2.96833 -0.0437 -9.00228e-20)
(2.9991 -0.0949826 -7.71868e-20)
(3.00743 -0.14234 -2.54362e-20)
(3.02194 -0.161802 -3.08416e-20)
(3.00668 -0.200808 1.20797e-20)
(3.02178 -0.218215 4.89875e-20)
(2.98626 -0.236605 9.36672e-21)
(3.0022 -0.259766 3.17092e-20)
(2.33393 -0.0130814 6.55879e-20)
(2.37193 -0.0444948 -2.15472e-20)
(2.37746 -0.0625611 -2.09399e-20)
(2.4008 -0.0900821 3.69721e-20)
(2.36501 -0.0939323 -1.35177e-20)
(2.39683 -0.114333 1.68813e-20)
(2.33277 -0.118984 -7.83785e-20)
(2.38201 -0.124195 4.20258e-21)
(2.30829 -0.137994 2.74277e-20)
(2.36283 -0.142134 -2.53452e-20)
(1.09747 -0.0163788 0)
(1.08259 -0.0174793 2.70898e-21)
(1.0623 -0.0190691 -4.51644e-20)
(1.03535 -0.0201987 -7.20378e-20)
(1.00831 -0.0236166 3.79066e-20)
(0.982397 -0.0254268 1.34132e-19)
(0.950783 -0.0267292 -6.92594e-21)
(0.940281 -0.031755 -8.10025e-21)
(0.891091 -0.0250764 1.03699e-20)
(0.919079 -0.0402778 -1.25703e-21)
(1.10746 0.775229 -6.11687e-20)
(0.977405 0.730051 -1.28267e-19)
(0.914083 0.714134 -4.66926e-19)
(0.876455 0.706682 2.24986e-20)
(0.847601 0.700615 5.16909e-19)
(0.820624 0.693247 -2.13778e-20)
(0.789872 0.68063 -9.466e-20)
(0.743297 0.654642 -4.23455e-20)
(0.639288 0.577775 -1.96288e-19)
(0.359791 0.333371 -1.48928e-20)
(1.40276 0.776509 -3.85454e-19)
(1.21623 0.718859 9.5689e-19)
(1.07339 0.6817 4.05009e-19)
(0.98423 0.663632 -3.02658e-19)
(0.931171 0.654751 1.12808e-19)
(0.893156 0.648159 5.85362e-20)
(0.856661 0.636529 1.87743e-19)
(0.8061 0.612207 -3.95337e-19)
(0.695702 0.540275 -6.00856e-20)
(0.390883 0.309549 2.23478e-20)
(1.68082 0.759077 1.24356e-19)
(1.48779 0.703889 7.2486e-19)
(1.29657 0.653059 9.62276e-21)
(1.1508 0.618357 -1.94154e-19)
(1.05698 0.59961 1.32665e-19)
(0.994905 0.590623 1.09804e-19)
(0.943174 0.581488 -5.08973e-20)
(0.880193 0.560908 -1.93538e-19)
(0.754225 0.49594 1.88403e-19)
(0.419965 0.282188 -1.64444e-19)
(1.88018 0.7189 -4.28587e-19)
(1.6985 0.667416 3.12656e-19)
(1.49383 0.60997 -4.39236e-19)
(1.31715 0.564942 -1.18667e-19)
(1.19252 0.539418 4.54722e-19)
(1.10866 0.529098 -2.65005e-19)
(1.04177 0.523117 -3.06706e-19)
(0.964244 0.507175 1.87172e-19)
(0.817634 0.449145 -1.17761e-19)
(0.448121 0.252895 -1.82583e-20)
(2.0153 0.663378 5.39498e-19)
(1.84395 0.612845 3.70756e-19)
(1.64008 0.553937 -1.2318e-19)
(1.45352 0.506365 3.98606e-19)
(1.31472 0.479534 -4.09478e-21)
(1.21832 0.469905 -1.69813e-19)
(1.14072 0.466402 9.84779e-20)
(1.05003 0.45376 -2.17256e-19)
(0.881216 0.400315 -2.56342e-19)
(0.472675 0.221165 -4.43453e-20)
(2.1042 0.599893 7.07256e-19)
(1.93527 0.549414 7.30218e-19)
(1.73597 0.493411 -5.69792e-19)
(1.55213 0.448969 -4.25579e-19)
(1.41254 0.424347 5.14465e-20)
(1.31271 0.415765 -2.80293e-19)
(1.22905 0.412474 -1.64366e-20)
(1.12696 0.399855 -2.75623e-20)
(0.934767 0.34757 8.93172e-20)
(0.487477 0.185844 3.46011e-20)
(2.15787 0.531605 6.23436e-19)
(1.98497 0.482525 -6.91421e-19)
(1.79056 0.43227 -4.95899e-19)
(1.61537 0.39352 2.3362e-19)
(1.48249 0.372025 -2.23015e-19)
(1.38479 0.363322 5.29742e-19)
(1.29782 0.357388 -1.89201e-20)
(1.18441 0.341904 -4.3238e-19)
(0.967422 0.28875 1.83104e-19)
(0.486778 0.146911 4.67923e-20)
(2.17479 0.460806 -3.89578e-19)
(1.99703 0.415851 -4.59118e-19)
(1.80882 0.372312 -4.62592e-19)
(1.64551 0.338783 4.02245e-20)
(1.52281 0.319155 1.78448e-19)
(1.42942 0.30855 1.46885e-19)
(1.33952 0.298619 9.49668e-20)
(1.21318 0.27846 2.55674e-20)
(0.970383 0.223244 3.64525e-20)
(0.46689 0.1057 5.93844e-20)
(2.16305 0.387073 1.64446e-19)
(1.9787 0.346931 -7.6173e-20)
(1.79657 0.309933 2.32486e-19)
(1.64586 0.281433 5.95168e-19)
(1.53374 0.26284 -1.40687e-19)
(1.44406 0.249434 -5.0954e-19)
(1.3495 0.234728 3.91871e-19)
(1.20727 0.209207 4.28062e-19)
(0.93898 0.153838 -2.51227e-19)
(0.427927 0.0656652 -6.00818e-20)
(2.12046 0.315564 -3.09635e-19)
(1.92995 0.27981 -3.00329e-21)
(1.7552 0.248085 3.34981e-19)
(1.61797 0.222883 2.62952e-19)
(1.51564 0.203818 1.75425e-19)
(1.42754 0.186906 -2.99311e-19)
(1.32495 0.167137 9.77903e-20)
(1.16361 0.137015 -2.67578e-19)
(0.873286 0.0857648 -3.17021e-19)
(0.373504 0.0307156 1.49658e-20)
(0.28292 0.37004 -2.42475e-20)
(0.255698 0.360488 2.12317e-19)
(0.227811 0.351476 2.71057e-20)
(0.199699 0.344651 -1.42356e-19)
(0.171118 0.340505 -4.15997e-20)
(0.141498 0.337694 -9.58038e-20)
(0.110282 0.332093 4.96402e-20)
(0.0771813 0.315367 -3.74066e-20)
(0.0426065 0.270992 8.73238e-20)
(0.017041 0.154485 1.97177e-20)
(0.327633 0.442038 -7.24595e-20)
(0.298839 0.430271 -2.354e-20)
(0.26935 0.419508 -1.44488e-19)
(0.239948 0.411694 1.34186e-20)
(0.210385 0.407406 1.91817e-20)
(0.17986 0.405114 3.65493e-20)
(0.147427 0.400087 1.70098e-19)
(0.112206 0.38271 -5.65311e-20)
(0.072487 0.332853 6.17408e-20)
(0.0336444 0.192215 -1.60316e-20)
(0.383539 0.51102 6.89755e-20)
(0.352794 0.497273 1.80154e-19)
(0.321526 0.48488 1.0116e-19)
(0.290755 0.47611 1.50403e-19)
(0.260197 0.47169 3.92168e-20)
(0.228826 0.469946 1.71581e-19)
(0.195273 0.46558 -5.32226e-20)
(0.157871 0.447769 -5.40854e-20)
(0.112236 0.392905 -4.52147e-23)
(0.0562629 0.228885 1.00872e-20)
(0.449535 0.572747 4.75054e-19)
(0.416031 0.556663 3.40249e-19)
(0.382282 0.542812 -3.54981e-19)
(0.349815 0.533589 -1.50467e-19)
(0.318293 0.529609 1.17578e-20)
(0.286372 0.528892 -7.61721e-20)
(0.252107 0.525524 -2.14785e-19)
(0.212783 0.507595 6.07149e-20)
(0.160826 0.448418 -4.12416e-20)
(0.0844054 0.262814 -8.01061e-20)
(0.531353 0.634504 -1.56148e-19)
(0.49475 0.617453 -3.11686e-19)
(0.458444 0.601722 2.56202e-19)
(0.423798 0.590683 -8.37205e-20)
(0.390505 0.585592 -1.34575e-19)
(0.357157 0.584563 1.36695e-19)
(0.321403 0.581252 5.61935e-20)
(0.279355 0.562781 -1.13625e-19)
(0.219731 0.499442 -1.72375e-19)
(0.118433 0.293778 5.2475e-20)
(0.597164 0.675493 -2.84157e-20)
(0.558345 0.655287 -2.51534e-20)
(0.520959 0.639191 -1.95975e-20)
(0.48691 0.629543 5.8843e-20)
(0.455351 0.626477 1.88294e-19)
(0.424099 0.627378 -1.43232e-19)
(0.389944 0.625286 -9.19892e-20)
(0.347629 0.606835 -9.14674e-22)
(0.281972 0.540434 8.14071e-21)
(0.155281 0.318447 1.13166e-19)
(0.726965 0.725976 -2.4978e-19)
(0.680755 0.705899 1.11192e-19)
(0.635428 0.686291 3.0553e-19)
(0.59374 0.672585 -1.47088e-19)
(0.555599 0.666641 -3.21768e-19)
(0.519136 0.665897 1.80462e-19)
(0.480709 0.662882 3.81471e-19)
(0.433377 0.643547 1.38112e-19)
(0.357213 0.574126 4.79804e-20)
(0.198199 0.338458 1.81763e-19)
(0.752423 0.75087 -4.53042e-19)
(0.707919 0.727307 -1.3376e-19)
(0.670966 0.709351 2.49609e-19)
(0.639761 0.698409 -1.17819e-19)
(0.611489 0.693838 4.54801e-20)
(0.583171 0.69315 2.68273e-19)
(0.550783 0.689261 -2.04263e-19)
(0.5063 0.668615 -2.16376e-19)
(0.425613 0.59624 1.18913e-19)
(0.238838 0.350285 -4.24666e-20)
(0.9349 0.767327 -1.92289e-20)
(0.875204 0.741527 4.94294e-20)
(0.814221 0.715748 -1.90334e-19)
(0.763115 0.700349 -3.84061e-20)
(0.721565 0.696538 3.20437e-19)
(0.684579 0.698079 6.13114e-20)
(0.645671 0.695035 -3.15009e-20)
(0.594807 0.674033 0)
(0.50277 0.601142 -1.15121e-19)
(0.282569 0.352647 -7.87426e-20)
(0.919741 0.789097 0)
(0.886647 0.767759 0)
(0.858185 0.747486 4.91693e-19)
(0.826607 0.731438 6.73188e-20)
(0.794976 0.721358 -7.25399e-20)
(0.763662 0.714401 1.9815e-19)
(0.728059 0.703967 -4.56879e-20)
(0.676956 0.677668 -2.75278e-19)
(0.576145 0.599739 1.83899e-19)
(0.323938 0.34896 1.18508e-19)
(0.872193 0.181233 -1.09004e-20)
(1.03883 0.319194 -4.02747e-21)
(0.870394 0.254296 8.02219e-21)
(0.889735 0.199093 4.01765e-21)
(0.864394 0.186078 1.5323e-20)
(0.84602 0.190876 2.85594e-20)
(0.811612 0.213774 -1.61238e-20)
(0.759865 0.25331 -3.4497e-20)
(0.677981 0.319544 -8.52776e-20)
(0.414178 0.406679 1.56469e-19)
(0.871842 0.18686 -2.38191e-21)
(1.03843 0.332874 8.87326e-21)
(0.866785 0.264698 -8.53608e-23)
(0.88749 0.20492 1.81955e-20)
(0.861564 0.190985 1.18701e-20)
(0.84786 0.197353 -3.68784e-20)
(0.819833 0.226621 -1.34352e-20)
(0.775203 0.274291 -2.73166e-22)
(0.704005 0.368153 2.44128e-19)
(0.459674 0.482412 -9.87412e-21)
(0.871278 0.192763 7.8462e-21)
(1.03773 0.347078 1.82992e-20)
(0.861224 0.274812 -1.7092e-20)
(0.882309 0.210606 -2.89416e-21)
(0.856194 0.195146 -1.4241e-20)
(0.846409 0.202842 4.25028e-21)
(0.824496 0.237941 2.00162e-20)
(0.788857 0.294653 -2.0221e-20)
(0.729967 0.413409 1.01999e-19)
(0.51656 0.554424 -4.27939e-19)
(0.870744 0.198977 2.31164e-21)
(1.03714 0.361996 -3.6086e-21)
(0.853339 0.284938 -1.81184e-20)
(0.873791 0.21586 -4.70307e-20)
(0.849598 0.198589 2.686e-20)
(0.843076 0.207546 1.49546e-20)
(0.825922 0.247574 -2.32514e-20)
(0.800481 0.31436 9.39386e-20)
(0.757048 0.45549 -9.38859e-20)
(0.583501 0.622288 -3.97629e-19)
(0.87082 0.205458 3.88028e-21)
(1.03715 0.378031 -2.38726e-20)
(0.842751 0.295498 1.17889e-20)
(0.863449 0.219955 7.76934e-20)
(0.844457 0.201148 8.60945e-21)
(0.839423 0.211871 3.50252e-20)
(0.824914 0.255889 3.02171e-20)
(0.809325 0.332973 6.33012e-20)
(0.783905 0.487889 -3.12704e-20)
(0.671924 0.680239 3.15685e-19)
(0.872165 0.211851 7.13735e-21)
(1.03812 0.395727 7.12938e-22)
(0.831674 0.306781 -1.47027e-20)
(0.857292 0.223203 1.70664e-20)
(0.842562 0.202746 -3.1354e-20)
(0.836797 0.216199 2.67975e-21)
(0.823695 0.263528 -1.03762e-20)
(0.816476 0.350957 -1.83871e-19)
(0.812823 0.522857 0)
(0.728084 0.739112 -3.32349e-20)
(0.874103 0.21791 -9.84846e-21)
(1.04129 0.414503 1.69126e-20)
(0.828736 0.317976 1.51107e-21)
(0.863005 0.224117 -6.40368e-20)
(0.844116 0.203956 -1.61775e-20)
(0.837609 0.221212 -4.76428e-20)
(0.827006 0.270993 2.37555e-21)
(0.829184 0.367183 8.12332e-21)
(0.840663 0.534533 -6.79706e-21)
(0.882239 0.771739 1.007e-18)
(0.877332 0.223286 -9.03102e-20)
(1.05019 0.43204 2.97805e-20)
(0.843011 0.328426 4.61972e-20)
(0.878369 0.223209 3.81952e-20)
(0.85757 0.206549 -7.95608e-20)
(0.853035 0.22812 9.68541e-21)
(0.844672 0.280631 -4.08302e-21)
(0.845714 0.387739 1.15082e-20)
(0.890842 0.563544 1.55759e-19)
(0.901208 0.832667 -1.32147e-19)
(0.879684 0.226363 2.84762e-20)
(1.06959 0.447315 -2.43067e-20)
(0.87773 0.334798 -1.56225e-20)
(0.917481 0.223808 8.08901e-20)
(0.91089 0.20928 5.6614e-21)
(0.908779 0.233148 1.58838e-20)
(0.901293 0.286373 -2.9343e-20)
(0.907769 0.395511 5.55881e-20)
(0.949932 0.560776 2.78004e-19)
(1.06254 0.831818 -7.03399e-19)
(0.881577 0.22769 5.58597e-20)
(1.10674 0.458042 -4.1199e-20)
(0.939065 0.335064 3.51213e-22)
(0.996823 0.221348 -1.34266e-20)
(0.999446 0.210472 5.99372e-20)
(0.996027 0.24231 -1.5286e-20)
(0.986896 0.302991 -6.31549e-21)
(0.982567 0.431634 6.13678e-20)
(1.06006 0.587849 -1.83727e-20)
(1.17589 0.90401 4.49085e-19)
(0.874037 0.219366 -1.1961e-20)
(1.18471 0.463717 -7.77715e-21)
(1.06503 0.33372 -1.03616e-20)
(1.1346 0.218 -2.31882e-20)
(1.15452 0.207047 -4.19522e-20)
(1.16544 0.24249 -3.33181e-20)
(1.15409 0.302182 1.54067e-21)
(1.18584 0.416641 -1.3897e-19)
(1.21882 0.572435 -3.80754e-19)
(1.15823 0.879352 -3.0167e-20)
(0.855263 0.185269 -2.26115e-20)
(1.28606 0.434147 -2.77005e-20)
(1.22965 0.315672 1.03498e-20)
(1.30756 0.209138 -2.76544e-20)
(1.34631 0.198957 4.95042e-20)
(1.37015 0.240423 8.19617e-20)
(1.40936 0.292579 1.49242e-20)
(1.38341 0.431029 1.28854e-19)
(1.61996 0.550548 7.54626e-20)
(1.3774 0.783204 4.8885e-19)
(0.829524 0.137498 -1.19494e-20)
(1.35685 0.374041 -1.12133e-20)
(1.35869 0.28268 1.65905e-21)
(1.45632 0.193431 1.20684e-20)
(1.51171 0.184937 1.58579e-34)
(1.55539 0.220157 -5.88887e-21)
(1.62434 0.285508 -6.07511e-34)
(1.59364 0.372761 2.05514e-20)
(1.95527 0.534136 -7.74421e-20)
(1.67058 0.714902 -3.77369e-19)
(0.808676 0.0873793 3.2849e-20)
(1.38573 0.287798 -9.33975e-35)
(1.43118 0.233233 -2.33767e-21)
(1.54886 0.170595 8.438e-21)
(1.61725 0.166461 -2.75167e-20)
(1.67449 0.19767 -4.80647e-20)
(1.77187 0.268004 -7.4545e-34)
(1.74592 0.326145 -1.05064e-19)
(2.16135 0.486211 -1.32699e-19)
(1.96673 0.643364 4.09563e-19)
(0.796878 0.0382042 0)
(1.38299 0.190521 -1.84404e-34)
(1.4591 0.173344 0)
(1.5955 0.142291 0)
(1.67096 0.143309 0)
(1.74172 0.165061 0)
(1.84465 0.242659 -4.97257e-34)
(1.86191 0.263776 0)
(2.23974 0.409942 -2.46333e-20)
(2.17846 0.593175 2.40289e-19)
(0.794502 -0.00694453 1.1932e-20)
(1.3653 0.0903708 1.90417e-22)
(1.45265 0.104927 -3.63269e-21)
(1.60151 0.109574 0)
(1.68076 0.117632 0)
(1.76277 0.133713 6.15236e-21)
(1.85503 0.20846 4.17114e-20)
(1.95025 0.205818 -1.46766e-20)
(2.21634 0.330043 -3.35362e-20)
(2.3057 0.519998 1.9948e-19)
(0.800696 -0.0484102 -2.64546e-20)
(1.33217 -0.00723566 -6.84393e-21)
(1.39767 0.0353564 -4.15187e-21)
(1.5496 0.0746987 -2.31318e-20)
(1.63005 0.0878969 -1.26942e-20)
(1.72361 0.101667 -1.07979e-20)
(1.8019 0.162594 -3.33127e-20)
(1.97251 0.155264 -3.55918e-20)
(2.11127 0.249255 -8.28125e-20)
(2.3639 0.418451 5.85292e-20)
(0.811442 -0.0798699 -1.72755e-20)
(1.26001 -0.0808917 -2.47586e-20)
(1.24419 -0.022389 -4.8537e-21)
(1.38308 0.0420239 -9.52771e-21)
(1.45299 0.0551728 7.63902e-35)
(1.55318 0.0675463 7.26927e-21)
(1.61836 0.106514 -1.09665e-33)
(1.84963 0.108116 -1.5724e-20)
(1.88174 0.169286 1.81093e-20)
(2.29893 0.286368 3.03037e-20)
(0.816197 -0.108048 1.3092e-19)
(1.10135 -0.123013 -1.26679e-20)
(0.907597 -0.0558462 -5.99373e-21)
(1.01889 0.0178805 1.49431e-20)
(1.06687 0.0237892 9.19304e-23)
(1.15254 0.0334255 1.30504e-20)
(1.22035 0.0495013 1.25003e-20)
(1.43069 0.0543811 -1.28962e-20)
(1.45054 0.0857197 -8.43402e-21)
(1.91507 0.137593 1.23576e-19)
(0.748171 -0.0570594 1.5064e-20)
(0.725892 -0.0577275 -1.06578e-34)
(0.349991 -0.0236603 -7.18209e-21)
(0.443017 0.0068847 0)
(0.454095 0.00518733 0)
(0.50342 0.00835104 7.93351e-21)
(0.556737 0.0112653 -1.04542e-35)
(0.668168 0.0157938 -1.59777e-20)
(0.713574 0.0206757 -2.41502e-20)
(0.998431 0.0382761 -4.78038e-20)
(1.5751 0.874604 2.05568e-19)
(1.79243 0.857078 -1.00048e-19)
(1.9925 0.817258 -2.18022e-21)
(2.13729 0.761511 8.9921e-20)
(2.24457 0.70323 -3.74407e-19)