/*--------------------------------*- C++ -*----------------------------------*\
| =========                 |                                                 |
| \\      /  F ield         | OpenFOAM: The Open Source CFD Toolbox           |
|  \\    /   O peration     | Version:  2406                                  |
|   \\  /    A nd           | Website:  www.openfoam.com                      |
|    \\/     M anipulation  |                                                 |
\*---------------------------------------------------------------------------*/
FoamFile
{
    version     2.0;
    format      ascii;
    arch        "LSB;label=32;scalar=64";
    class       volScalarField;
    location    "1.05";
    object      nu;
}
// * * * * * * * * * * * * * * * * * * * * * * * * * * * * * * * * * * * * * //

dimensions      [0 2 -1 0 0 0 0];

internalField   nonuniform List<scalar> 
1800
(
0.0797328
0.0224271
0.0148135
0.011862
0.0102907
0.00939607
0.0088597
0.00849296
0.00836905
0.00846089
0.0355308
0.0961395
0.0192048
0.011829
0.00993079
0.0090735
0.00863039
0.00836523
0.00847269
0.00816842
0.0322475
0.0271214
0.0132146
0.0100347
0.00900018
0.00854448
0.00834436
0.00823857
0.00851646
0.0081542
0.0610035
0.0139855
0.00978018
0.00865547
0.0082394
0.0081097
0.00813396
0.00820074
0.00858312
0.00828286
0.0200169
0.0101356
0.0083873
0.00792164
0.00782692
0.00792531
0.0081357
0.00837334
0.00883281
0.00849823
0.0116452
0.00850559
0.00768139
0.00753502
0.00766816
0.00796323
0.00834327
0.00872887
0.00915667
0.00893819
0.0090262
0.0076453
0.00728248
0.007374
0.00770803
0.00818892
0.00872868
0.00923348
0.00966771
0.00968233
0.00775938
0.0071347
0.00706891
0.00737023
0.00790831
0.00859407
0.00932936
0.0100169
0.0106151
0.0109953
0.00703793
0.00681774
0.00698449
0.00750387
0.0083019
0.00929667
0.0103773
0.0114248
0.0123325
0.0129017
0.0065837
0.0066229
0.00700697
0.00780239
0.00901169
0.010559
0.0122552
0.0138009
0.0148522
0.0154912
0.00720966
0.00907864
0.012004
0.0141095
0.0145821
0.014625
0.0146124
0.0145424
0.0144009
0.0142575
0.00708228
0.00883195
0.0120422
0.0152506
0.0159188
0.0155804
0.015437
0.0153849
0.0151907
0.0149165
0.00703165
0.00861443
0.01181
0.016858
0.0207933
0.0207891
0.0187061
0.0173139
0.0166854
0.0162396
0.0070512
0.00842632
0.0113439
0.018047
0.0359449
0.0728929
0.0512714
0.0300891
0.0228551
0.0198294
0.00718744
0.00830396
0.0105054
0.0144963
0.0206209
0.0287026
0.0380226
0.0443539
0.0400166
0.0317499
0.00750978
0.00829197
0.00976022
0.0119177
0.0141834
0.0161213
0.0177517
0.0188185
0.019017
0.021247
0.00812855
0.00845612
0.0093187
0.0105425
0.0116499
0.0124531
0.0130405
0.0134495
0.0136311
0.0148644
0.00931782
0.00891022
0.00923429
0.00989488
0.0104441
0.0107913
0.0110301
0.0112158
0.0112645
0.0119775
0.0119991
0.00993387
0.00961927
0.00983091
0.00995694
0.00994831
0.00990713
0.00988771
0.00976252
0.010137
0.020787
0.0124864
0.0109001
0.0104776
0.010029
0.00958818
0.00925363
0.00900525
0.0087073
0.00926413
0.0151777
0.0132063
0.0136422
0.0147022
0.0160853
0.0187071
0.0219445
0.0261695
0.0286492
0.036886
0.0160103
0.013878
0.0138545
0.014541
0.0155553
0.017882
0.0209339
0.0250994
0.0276888
0.0356096
0.0178853
0.0157506
0.0141793
0.0141663
0.0148216
0.0167859
0.019544
0.0234178
0.0259874
0.0330586
0.0228829
0.018934
0.0135995
0.012973
0.013446
0.0150065
0.0174111
0.0208283
0.0233512
0.0291969
0.0362131
0.0181107
0.012321
0.0117029
0.0119712
0.0130194
0.0148658
0.017615
0.0199656
0.0245553
0.0235845
0.0145438
0.0115812
0.0110713
0.0111095
0.0116517
0.0128395
0.0147886
0.0166642
0.0201111
0.0160528
0.0128516
0.0114352
0.0109471
0.0108824
0.011061
0.0116959
0.0129501
0.0142319
0.0166832
0.0127511
0.0117957
0.0113494
0.0108691
0.0109456
0.0110379
0.0113076
0.0120564
0.0128383
0.0145145
0.0112968
0.011354
0.0108634
0.0105012
0.0108652
0.01124
0.0114463
0.0118922
0.01232
0.0134511
0.0101263
0.0102363
0.010117
0.0100627
0.0105371
0.0113221
0.0118682
0.0122991
0.0125272
0.0132942
0.00974637
0.00982918
0.00994583
0.00988255
0.0102005
0.0111562
0.0122975
0.0132205
0.0136061
0.0142321
0.00900746
0.00916396
0.0101265
0.0105344
0.0105771
0.011276
0.0127374
0.0145293
0.0157273
0.0167023
0.00895539
0.0103692
0.0127531
0.0126558
0.0123142
0.0127241
0.0141568
0.016684
0.0193016
0.0224414
0.0101934
0.0144031
0.016476
0.0129214
0.0125448
0.0135201
0.0156813
0.0197558
0.0246866
0.0371604
0.0127593
0.0231096
0.0179949
0.013403
0.0130193
0.0139589
0.0161491
0.020449
0.0253633
0.0379626
0.016112
0.0264758
0.0159152
0.012426
0.0122883
0.013205
0.0148425
0.0172254
0.0194987
0.0226029
0.0166215
0.0138809
0.011001
0.0101055
0.01026
0.0109422
0.0118957
0.0129191
0.0137625
0.01465
0.0104996
0.00906892
0.00829831
0.00826117
0.00869636
0.00931669
0.00992018
0.0104382
0.0107927
0.0111372
0.00759804
0.00732445
0.00738324
0.00776302
0.00828699
0.0087479
0.00907272
0.00929893
0.00941115
0.00953238
0.00686485
0.00722523
0.00795967
0.00901756
0.00976508
0.0098293
0.00954904
0.00928318
0.00906492
0.00897906
0.0173923
0.0151373
0.013279
0.0112873
0.0100585
0.00922123
0.00868717
0.00861015
0.00812987
0.00847119
0.0156707
0.017352
0.0156188
0.0159922
0.012355
0.0118233
0.00965641
0.00940941
0.00849784
0.00842904
0.0154468
0.0177499
0.0162396
0.0197722
0.0148649
0.015328
0.0120999
0.011089
0.0103482
0.00911677
0.0171452
0.0176504
0.0192215
0.0185844
0.0206419
0.0164972
0.0176764
0.0131428
0.0137547
0.010958
0.0178068
0.0174988
0.0204939
0.0186588
0.0254779
0.0186539
0.0264687
0.0164126
0.018544
0.0138462
0.0155136
0.0159695
0.0167633
0.0178736
0.0189651
0.0208985
0.0230489
0.0221299
0.0245825
0.0186008
0.0130302
0.0135154
0.0133828
0.0144396
0.0141379
0.0159713
0.0155329
0.0184476
0.0176533
0.0222817
0.0102736
0.0104375
0.0101936
0.0105136
0.0102129
0.0106901
0.0103268
0.0109363
0.010595
0.0112684
0.00797204
0.0079081
0.00785991
0.00783056
0.00780906
0.00781821
0.00780004
0.00785729
0.00782193
0.00792311
0.00641284
0.00639998
0.00642708
0.00642615
0.00648055
0.00648533
0.00656585
0.00657427
0.00667795
0.00668495
0.0101616
0.0109101
0.0109104
0.0108586
0.0109001
0.0111898
0.011756
0.00999448
0.007119
0.00585396
0.0107591
0.0110081
0.0109799
0.0109042
0.0109624
0.011375
0.0120777
0.00982626
0.00700718
0.00581655
0.0113658
0.0114443
0.0113535
0.0112827
0.0113833
0.0119507
0.0126435
0.00958868
0.00689879
0.00579091
0.0121078
0.0122108
0.0120827
0.0120233
0.0122156
0.0130483
0.0134605
0.00928853
0.00679656
0.00577935
0.0129706
0.0133024
0.0132215
0.0131906
0.0136371
0.0150775
0.0139117
0.00891717
0.0067033
0.0057851
0.0141408
0.014815
0.0149291
0.0152744
0.0166858
0.018647
0.0132381
0.00851552
0.00662043
0.00581034
0.016009
0.0175531
0.018695
0.0209413
0.0245573
0.0204754
0.0118518
0.00809939
0.00654723
0.00586046
0.0192326
0.0231654
0.0275496
0.0325809
0.0270075
0.0161773
0.0103556
0.00770563
0.00649463
0.0059455
0.0225995
0.0253412
0.0258207
0.0227936
0.0173575
0.0124164
0.00916829
0.00737486
0.00647871
0.00607957
0.0193081
0.0189615
0.0178636
0.0156594
0.012858
0.0102598
0.00833253
0.0071368
0.00651625
0.00628236
0.0119886
0.0116499
0.0113571
0.0110959
0.010852
0.0106352
0.0104342
0.010125
0.0093893
0.00774723
0.0118384
0.0115247
0.0112498
0.0109944
0.0107557
0.0105519
0.0103794
0.0100412
0.00897931
0.00722444
0.0117637
0.0114689
0.0112034
0.0109451
0.0106972
0.0104858
0.0103204
0.00993828
0.00860466
0.00685469
0.0116257
0.0113916
0.0111763
0.010944
0.0107189
0.0105412
0.0104244
0.00998349
0.00832736
0.00659664
0.0114797
0.0112661
0.011073
0.0108525
0.0106403
0.0104912
0.0104339
0.00997096
0.00808047
0.00640196
0.0115081
0.0113251
0.011142
0.0109048
0.01068
0.010539
0.0105126
0.0099624
0.00785799
0.00624967
0.0115098
0.0114325
0.0113047
0.0110601
0.0108118
0.0106723
0.01068
0.00997986
0.00766397
0.0061284
0.0113902
0.0113137
0.0112646
0.0110901
0.0109149
0.0108743
0.0110118
0.0100978
0.00750924
0.00603582
0.0117641
0.011627
0.0114136
0.0110904
0.0108628
0.0108744
0.0111525
0.0101042
0.00736978
0.00596231
0.0116231
0.011547
0.0115224
0.0113245
0.0111174
0.0111556
0.0114886
0.0100686
0.00723745
0.00590203
0.0549764
0.028359
0.0343796
0.0454291
0.0436025
0.0468429
0.0358877
0.0281218
0.0188262
0.0134421
0.0569976
0.0273536
0.0332653
0.0457178
0.0435643
0.0501915
0.0405018
0.0287921
0.0191009
0.0132732
0.0589388
0.0264353
0.0322092
0.0451832
0.0427933
0.0535968
0.0471488
0.0293479
0.0195105
0.013168
0.060765
0.0255349
0.0311178
0.0437879
0.0422323
0.0583783
0.0556449
0.0297619
0.0199259
0.012937
0.062106
0.0246142
0.030042
0.0420808
0.0433045
0.0651392
0.0624824
0.0300309
0.0202197
0.0127542
0.0622909
0.0237467
0.0291186
0.0414375
0.0467848
0.0711108
0.0609605
0.0301455
0.0197231
0.0127349
0.0621762
0.0231221
0.028327
0.0427376
0.0508295
0.0710184
0.0508369
0.0292376
0.0188447
0.0123587
0.0650331
0.0228675
0.0274343
0.0448156
0.0506584
0.0610136
0.037543
0.0269676
0.0167675
0.0123765
0.0689638
0.0228775
0.0262319
0.0439635
0.0426003
0.0400896
0.0264982
0.0235677
0.0157843
0.012014
0.0704959
0.0230782
0.024943
0.0362264
0.0289529
0.0241254
0.0193016
0.0184501
0.0140209
0.0132762
0.123844
0.0240825
0.0232285
0.0267481
0.0200008
0.0183387
0.0146159
0.0159741
0.0121887
0.0130679
0.16317
0.0234393
0.0204102
0.0207782
0.0163629
0.0171777
0.0125329
0.0162828
0.0108648
0.0129951
0.0778843
0.0217342
0.0184015
0.0183451
0.0164668
0.0174937
0.0126506
0.016619
0.0112068
0.0130705
0.052949
0.0205349
0.0171231
0.0170087
0.0198295
0.0172504
0.0155018
0.015645
0.0137786
0.012519
0.046872
0.0205375
0.0163359
0.0163417
0.0253891
0.0176034
0.025413
0.0156888
0.0176746
0.0126937
0.0511035
0.021118
0.0162408
0.0163434
0.0222568
0.0197729
0.0268886
0.0179899
0.0184568
0.0137381
0.064566
0.0224523
0.017507
0.0169605
0.0167397
0.0216755
0.0164508
0.0212253
0.0169873
0.0157437
0.0516227
0.029357
0.0186609
0.0151381
0.0127624
0.0140061
0.0119256
0.0143561
0.0124502
0.0135142
0.0264851
0.017832
0.0121197
0.0108886
0.010176
0.0098984
0.0098261
0.00968683
0.00954583
0.00950862
0.00795997
0.00787548
0.00854291
0.00852021
0.00842039
0.00812615
0.00816842
0.00751988
0.00762159
0.00717114
0.0113182
0.0115682
0.011702
0.0121622
0.0126927
0.0134702
0.0144211
0.0159092
0.0176197
0.0183135
0.0119937
0.0119052
0.0119603
0.0123113
0.0126047
0.0131622
0.0134307
0.0142074
0.0145397
0.0157371
0.0125145
0.0123416
0.0124654
0.0127654
0.0130403
0.0135551
0.0137023
0.0144275
0.0144349
0.0157762
0.0127536
0.0126705
0.0129518
0.0132112
0.0137335
0.0140733
0.0146475
0.0150078
0.0156118
0.0161581
0.0133631
0.0134442
0.0139074
0.0142287
0.0148855
0.0149481
0.0156121
0.015471
0.016383
0.0161755
0.0145279
0.0145886
0.014833
0.0149164
0.015038
0.0148173
0.0148786
0.0147026
0.0149546
0.0149791
0.0150083
0.0144797
0.0140181
0.0137693
0.0134934
0.0133222
0.0131134
0.0130567
0.0129337
0.0130802
0.012371
0.0119118
0.0115017
0.0112853
0.0110436
0.01096
0.0107258
0.0106729
0.0104367
0.0104829
0.00930142
0.00911235
0.00893385
0.00877509
0.00863586
0.00850026
0.00837794
0.00825766
0.0081489
0.00805475
0.00703128
0.00692353
0.00682292
0.00672999
0.00665193
0.00657955
0.00652589
0.00647499
0.00644626
0.00641535
0.00605856
0.00693344
0.00882738
0.0139382
0.0389742
0.027738
0.0162819
0.0124157
0.01014
0.0084472
0.00613009
0.00686845
0.00844876
0.0126171
0.0303806
0.0369779
0.0184384
0.0126975
0.0100703
0.00840178
0.00624437
0.00683523
0.00809674
0.0110889
0.0189218
0.0256593
0.0186284
0.0131277
0.0102542
0.00855572
0.00641594
0.00684186
0.00779192
0.00989758
0.0143741
0.0194783
0.0180423
0.0137332
0.0106942
0.00887716
0.00666783
0.00690572
0.00755416
0.00900394
0.0118654
0.0159103
0.0172458
0.0146028
0.011489
0.00940328
0.00703505
0.00706061
0.00742176
0.00835797
0.0101785
0.0131108
0.0157363
0.0153417
0.0127615
0.0102247
0.00756195
0.00735043
0.00744606
0.00798243
0.00908462
0.0109526
0.0133893
0.0148302
0.0139897
0.01152
0.0082997
0.00781722
0.00767023
0.00790154
0.0085281
0.00962675
0.0112186
0.0129063
0.0138127
0.0124489
0.00929817
0.00849397
0.00813325
0.00812974
0.00844264
0.0090736
0.0099986
0.0110798
0.0122687
0.0119207
0.0105205
0.0093829
0.00888113
0.00870215
0.00878633
0.00912007
0.00965994
0.0102946
0.0110782
0.0115308
0.0115493
0.0103388
0.00992452
0.00968473
0.00956844
0.00962393
0.00984407
0.010165
0.0103902
0.0111455
0.0116461
0.0109721
0.011075
0.0111425
0.0109234
0.0106509
0.0105219
0.0105191
0.0103892
0.01086
0.0109647
0.0111261
0.0119633
0.012967
0.0131259
0.012448
0.0118819
0.0115474
0.0111069
0.0112352
0.0103047
0.0111796
0.0127925
0.015495
0.0181827
0.0171575
0.0152673
0.0139545
0.0127304
0.0122269
0.00967167
0.0110409
0.0132306
0.0174406
0.0277292
0.0441428
0.027582
0.0192411
0.0154575
0.0136997
0.00900915
0.0107619
0.0134214
0.0180868
0.0283258
0.0569696
0.0409194
0.0229587
0.0175025
0.015185
0.00845244
0.0104623
0.013326
0.0168185
0.0201733
0.0230162
0.0233982
0.0199396
0.0170819
0.015338
0.0080261
0.010129
0.0129065
0.0150395
0.0161186
0.0169587
0.0173951
0.0167428
0.0156688
0.0147525
0.00768366
0.00975095
0.0124292
0.0140446
0.0146229
0.0150478
0.0153186
0.0151889
0.0147617
0.0143071
0.0074117
0.00939113
0.0121172
0.0137356
0.0141683
0.0143847
0.0145384
0.014531
0.0143461
0.0141266
0.0116157
0.0132866
0.0176968
0.0320044
0.0440901
0.0305422
0.0278392
0.0287944
0.0296067
0.0371565
0.0116657
0.0131418
0.0175546
0.0253414
0.0322582
0.0286323
0.0274694
0.0290102
0.0306338
0.0411009
0.0118021
0.0132307
0.0173177
0.022459
0.0273727
0.0271651
0.0269822
0.0288126
0.0307321
0.0416141
0.0121047
0.0136823
0.0170982
0.0212062
0.0245946
0.0256565
0.0262477
0.0283476
0.0303143
0.0405397
0.0124516
0.0142824
0.0165851
0.020091
0.0226069
0.0242954
0.0254888
0.0278288
0.0296935
0.0390222
0.0129215
0.0145761
0.0158651
0.018874
0.0210464
0.023194
0.0249065
0.0274911
0.0292112
0.0377762
0.0133775
0.0143556
0.0151654
0.0176957
0.0197477
0.022261
0.0244739
0.0273708
0.0290263
0.0371113
0.0137529
0.0138711
0.0145696
0.0166557
0.0186155
0.0213678
0.0240427
0.0273306
0.0290701
0.0369843
0.0141506
0.0134187
0.0140936
0.0157889
0.0176175
0.0204627
0.0234962
0.0271969
0.0291549
0.0371457
0.0146153
0.0131495
0.0137613
0.0151163
0.0167629
0.0195616
0.0227938
0.0268389
0.0290771
0.0372496
0.00997311
0.0126297
0.0152848
0.017965
0.0169836
0.0147859
0.0132338
0.0121251
0.0115406
0.0111441
0.00970328
0.0112189
0.0130689
0.0141213
0.0141038
0.0134708
0.0128994
0.0123716
0.0120845
0.0117825
0.0105726
0.0121732
0.0149907
0.0171445
0.0173562
0.0164738
0.0156995
0.015105
0.0147323
0.0142606
0.0115108
0.0133984
0.0181486
0.0287332
0.0289205
0.0235608
0.0213524
0.0206093
0.0199705
0.0196451
0.0120693
0.0136992
0.0184582
0.0438511
0.0490984
0.0291711
0.0259778
0.0261031
0.0259773
0.0284846
0.00609341
0.00620657
0.00637561
0.00660466
0.00688863
0.0072451
0.00763556
0.0080587
0.00859729
0.00882235
0.00634053
0.00643918
0.00660347
0.00682871
0.00709561
0.0074143
0.00771943
0.00806757
0.00847104
0.00874502
0.00665013
0.00672728
0.00688491
0.0071051
0.00736507
0.00766818
0.00795574
0.00839912
0.00873233
0.00928082
0.007051
0.00709924
0.0072565
0.00748884
0.00778843
0.00812672
0.00854579
0.0092222
0.00959072
0.0106949
0.007562
0.0075732
0.00773802
0.00801199
0.00840778
0.008895
0.00968096
0.0106234
0.0109734
0.0126748
0.0135317
0.0135036
0.0134941
0.0131059
0.0126048
0.0121697
0.0118002
0.0109871
0.00894496
0.00694002
0.0140877
0.0137346
0.0132274
0.0125953
0.0120814
0.0117318
0.0114861
0.0109619
0.00930416
0.00720792
0.0133026
0.0129928
0.0127107
0.012354
0.0120354
0.0117884
0.0115792
0.0111457
0.00975797
0.00755889
0.0132922
0.0129896
0.0126892
0.0123252
0.0119743
0.0116738
0.0114167
0.011089
0.010201
0.00804177
0.0131616
0.0127876
0.0124336
0.0120649
0.0117229
0.011438
0.0112201
0.0110695
0.0107866
0.00882698
0.0129861
0.0125758
0.0121996
0.011836
0.0114974
0.01121
0.0110054
0.011001
0.0114201
0.010267
0.0127615
0.0123338
0.0119495
0.0115936
0.0112576
0.010963
0.0107466
0.0107966
0.0118206
0.0136036
0.0125344
0.0121182
0.0117512
0.0114225
0.0111113
0.0108305
0.0106042
0.0105622
0.0113683
0.0144278
0.0123287
0.0119393
0.0116013
0.0113055
0.0110315
0.0107868
0.0105668
0.0104011
0.0105728
0.0103328
0.0121493
0.0117857
0.0114709
0.0111947
0.0109395
0.0107127
0.0105006
0.0102498
0.00991674
0.00861709
0.00873331
0.0104277
0.0123484
0.0144735
0.0175374
0.0203706
0.0141045
0.00919516
0.00702143
0.00602007
0.00928167
0.0108179
0.0122378
0.013477
0.0145669
0.0153351
0.0135888
0.00950781
0.0071282
0.00600868
0.00998461
0.0111575
0.0120544
0.0127187
0.0131876
0.0134145
0.0126115
0.00970569
0.00725288
0.00602342
0.0106025
0.0113719
0.0119058
0.0122261
0.0123361
0.0123025
0.0118682
0.00981943
0.00739134
0.00606258
0.0110436
0.0115408
0.0118266
0.0119008
0.0118061
0.0116679
0.011402
0.00992652
0.00754853
0.00612507
0.0114237
0.0117482
0.0118153
0.0116818
0.0114705
0.0113232
0.0111879
0.0100776
0.00772907
0.00620854
0.0118459
0.0120062
0.0118208
0.0115161
0.0112727
0.0111798
0.0111664
0.0102936
0.00793658
0.00631143
0.0122742
0.0121389
0.0117101
0.0113721
0.0112107
0.0112192
0.0113126
0.010569
0.00816785
0.00643251
0.0123176
0.0119192
0.011539
0.0113721
0.0113524
0.011441
0.0115643
0.0108372
0.00841249
0.00657186
0.0116464
0.0118681
0.0118784
0.0118678
0.0118579
0.0118616
0.0118211
0.0110065
0.00867104
0.00673744
0.0335359
0.056466
0.0394709
0.0290347
0.0265071
0.0272263
0.0307185
0.0385296
0.0277716
0.0200597
0.0359444
0.0474944
0.0463288
0.0302553
0.0271981
0.0271564
0.0291331
0.0290889
0.0257229
0.0163347
0.0380796
0.0427577
0.0501081
0.0310355
0.0279085
0.0275866
0.0287531
0.0265975
0.0249881
0.01526
0.0400371
0.0395962
0.05079
0.0320159
0.0289241
0.0283272
0.0284144
0.0254716
0.0234679
0.0151718
0.0419656
0.0373201
0.0488331
0.0336141
0.0304921
0.0294746
0.0282389
0.0251923
0.022057
0.0151286
0.0439587
0.0355023
0.0455808
0.0358159
0.0326314
0.0310972
0.0283012
0.0253794
0.0208787
0.0149401
0.046075
0.0338567
0.0423013
0.0383311
0.0352047
0.0332546
0.0286329
0.0257547
0.0199218
0.0146225
0.0483102
0.0322881
0.0395434
0.0407879
0.0379727
0.0360163
0.0293622
0.0262187
0.0192444
0.0142563
0.0505966
0.0308221
0.0373759
0.0428831
0.0405773
0.0393732
0.0306684
0.0267702
0.0188553
0.0139212
0.0528406
0.029507
0.0357004
0.0444546
0.0425758
0.0431232
0.032753
0.0274185
0.0187254
0.0136566
0.00724523
0.00747296
0.00866116
0.00908903
0.00967623
0.00979257
0.0100011
0.0097254
0.00969514
0.00818458
0.014909
0.0105581
0.00997767
0.0103619
0.0107125
0.0110896
0.0115841
0.0118037
0.0121383
0.0117995
0.0256194
0.0191531
0.0126929
0.0127528
0.0128164
0.0134936
0.0143993
0.016282
0.0168091
0.0158821
0.0294599
0.0735392
0.0182739
0.0173239
0.0168483
0.0180214
0.0198433
0.0285473
0.0329955
0.0158086
0.0312456
0.0743708
0.0280336
0.0235382
0.0220415
0.0233094
0.026429
0.0447853
0.0431982
0.0177819
0.00772817
0.00738527
0.00705012
0.00675419
0.00650815
0.00631144
0.00616497
0.00606975
0.00602596
0.00603346
0.010693
0.00979889
0.00898564
0.00829406
0.00768998
0.00718354
0.0067947
0.00652734
0.00637241
0.00631509
0.0131801
0.0119675
0.0108904
0.0100104
0.00917685
0.00837914
0.00768563
0.00716465
0.00683653
0.00667668
0.0133529
0.012443
0.0117196
0.0111281
0.0104461
0.00963067
0.00875399
0.00797762
0.00743889
0.00714726
0.0136981
0.0127912
0.0119881
0.0114131
0.010902
0.0103535
0.00967682
0.00888646
0.00819359
0.00775149
)
;

boundaryField
{
    left
    {
        type            calculated;
        value           nonuniform List<scalar> 
35
(
0.0215153
0.0203111
0.0192053
0.0189524
0.0195995
0.020908
0.0224741
0.0232708
0.0197882
0.00792294
0.0326517
0.0315278
0.030404
0.0292886
0.0281966
0.0271456
0.0261071
0.0249935
0.0237523
0.0225035
0.0316442
0.0335597
0.0348425
0.0356707
0.0361601
0.0363222
0.0361321
0.0355915
0.0347631
0.0337506
0.00720965
0.0136771
0.0223511
0.0264896
0.0291996
)
;
    }
    right
    {
        type            calculated;
        value           nonuniform List<scalar> 
35
(
0.0111463
0.0117929
0.0143173
0.0199736
0.0302363
0.0426105
0.0500891
0.0523352
0.0517325
0.0501725
0.0490119
0.0489538
0.0500764
0.0520321
0.0541178
0.0551844
0.0536861
0.0483649
0.0397
0.0303764
0.0229381
0.0180583
0.0152748
0.0139695
0.013745
0.0147602
0.0174923
0.0243374
0.0468995
0.0429127
0.0231107
0.0147847
0.011185
0.00954897
0.00898244
)
;
    }
    down
    {
        type            calculated;
        value           nonuniform List<scalar> 
40
(
0.00638257
0.00679963
0.00826272
0.00867644
0.00935039
0.00935084
0.0094538
0.00908506
0.00889594
0.00735825
0.0070017
0.0067573
0.00651613
0.0063093
0.00614909
0.00603117
0.00595029
0.00590379
0.00589218
0.00591849
0.00598973
0.00610885
0.00628033
0.00651058
0.00680063
0.00717626
0.00761613
0.0081263
0.00878628
0.00906471
0.0107421
0.0157189
0.0217074
0.039312
0.0288213
0.0187755
0.0147886
0.0127308
0.0117642
0.0112087
)
;
    }
    up
    {
        type            calculated;
        value           nonuniform List<scalar> 
40
(
0.00676695
0.00772378
0.00978644
0.0133567
0.014527
0.0123158
0.0105617
0.00964048
0.00912282
0.00890345
0.00599432
0.00600112
0.00603226
0.00605053
0.00610839
0.0061279
0.00622043
0.00623044
0.00636853
0.00635623
0.00645354
0.00636442
0.00628063
0.00620649
0.00614307
0.00609108
0.00605086
0.00601899
0.00600046
0.00598854
0.00678547
0.00685238
0.00774143
0.00788242
0.00785972
0.00760976
0.00756825
0.0069521
0.00703299
0.00658228
)
;
    }
    cylinder
    {
        type            calculated;
        value           nonuniform List<scalar> 
80
(
0.00671208
0.00662175
0.00660936
0.00667278
0.00686684
0.0072906
0.00812779
0.00991037
0.0149795
0.0373133
0.0932151
0.0265547
0.0211655
0.024618
0.025149
0.0186057
0.0109239
0.00847074
0.00732812
0.00667551
0.00555673
0.00553314
0.00552204
0.00552577
0.00554844
0.00559478
0.00567322
0.0057969
0.00598384
0.00626088
0.00713758
0.00667493
0.0063593
0.00614256
0.00598221
0.00585903
0.00576249
0.00569024
0.00563434
0.00559014
0.00641569
0.00663033
0.00691243
0.00730952
0.00796754
0.00923576
0.0126199
0.0153513
0.00974266
0.0079476
0.00575193
0.0057184
0.0057124
0.00573126
0.00577359
0.00583549
0.00591452
0.00600928
0.00611996
0.00625268
0.0058166
0.00592102
0.00607902
0.00631003
0.00664111
0.00711049
0.00776972
0.00869394
0.00999955
0.0117304
0.0131522
0.0126948
0.0111679
0.0100642
0.00922141
0.00843848
0.00783854
0.00742026
0.00710918
0.00687539
)
;
    }
    defaultFaces
    {
        type            empty;
    }
}


// ************************************************************************* //
