/*--------------------------------*- C++ -*----------------------------------*\
| =========                 |                                                 |
| \\      /  F ield         | OpenFOAM: The Open Source CFD Toolbox           |
|  \\    /   O peration     | Version:  2406                                  |
|   \\  /    A nd           | Website:  www.openfoam.com                      |
|    \\/     M anipulation  |                                                 |
\*---------------------------------------------------------------------------*/
FoamFile
{
    version     2.0;
    format      ascii;
    arch        "LSB;label=32;scalar=64";
    class       volScalarField;
    location    "1.05";
    object      p;
}
// * * * * * * * * * * * * * * * * * * * * * * * * * * * * * * * * * * * * * //

dimensions      [0 2 -2 0 0 0 0];

internalField   nonuniform List<scalar> 
1800
(
-1.17314
-1.16058
-1.15175
-1.14054
-1.12617
-1.11175
-1.10076
-1.09618
-1.10043
-1.11565
-1.15272
-1.15154
-1.14703
-1.14007
-1.12671
-1.11152
-1.09857
-1.08967
-1.08548
-1.09205
-1.18965
-1.18348
-1.17497
-1.16673
-1.1561
-1.14416
-1.13335
-1.12487
-1.11823
-1.12318
-1.22134
-1.22107
-1.21561
-1.20737
-1.19742
-1.18665
-1.17612
-1.16664
-1.15791
-1.15761
-1.27641
-1.26409
-1.25832
-1.25022
-1.24
-1.22864
-1.21698
-1.20572
-1.19514
-1.18977
-1.3239
-1.30877
-1.30133
-1.29173
-1.27924
-1.26478
-1.24945
-1.23404
-1.21915
-1.20645
-1.37167
-1.35422
-1.34388
-1.33019
-1.31228
-1.29162
-1.26982
-1.24782
-1.22599
-1.20467
-1.41994
-1.39924
-1.38415
-1.36307
-1.33605
-1.30598
-1.27503
-1.24418
-1.21361
-1.18312
-1.46542
-1.441
-1.41839
-1.3865
-1.34742
-1.30575
-1.26403
-1.22315
-1.18314
-1.14343
-1.50194
-1.4732
-1.44013
-1.3948
-1.34225
-1.2883
-1.23555
-1.18473
-1.13557
-1.08707
-1.19256
-1.19551
-1.19316
-1.18904
-1.1842
-1.17964
-1.17583
-1.17274
-1.17049
-1.16965
-1.25368
-1.25422
-1.25164
-1.24858
-1.24569
-1.24425
-1.24465
-1.24654
-1.24992
-1.2555
-1.30777
-1.30549
-1.30251
-1.3005
-1.29895
-1.29983
-1.30517
-1.31379
-1.32418
-1.3369
-1.34775
-1.34234
-1.33974
-1.33999
-1.34293
-1.3482
-1.35611
-1.367
-1.38141
-1.39914
-1.36906
-1.35999
-1.35768
-1.3605
-1.36861
-1.38112
-1.3959
-1.41306
-1.43443
-1.46016
-1.36609
-1.3532
-1.35028
-1.35338
-1.36252
-1.37766
-1.39807
-1.42272
-1.45045
-1.4813
-1.3401
-1.32418
-1.31993
-1.32137
-1.32858
-1.34205
-1.36153
-1.3865
-1.41595
-1.44888
-1.29843
-1.28072
-1.27443
-1.27245
-1.27533
-1.28416
-1.29914
-1.3202
-1.3466
-1.3767
-1.25161
-1.23307
-1.22452
-1.2179
-1.21422
-1.21529
-1.22204
-1.23521
-1.25486
-1.27956
-1.20848
-1.19062
-1.18089
-1.17027
-1.15979
-1.15187
-1.14872
-1.15254
-1.16457
-1.18527
-1.16578
-1.044
-0.820691
-0.535825
-0.337829
-0.192071
-0.100644
-0.0479603
-0.0173599
-0.00223315
-1.27742
-1.17303
-0.906268
-0.571816
-0.343286
-0.183478
-0.0886074
-0.0377669
-0.010414
3.17534e-05
-1.3991
-1.32443
-1.01047
-0.617185
-0.350992
-0.174349
-0.0752622
-0.0264225
-0.00262405
0.00274578
-1.52013
-1.49142
-1.13068
-0.672104
-0.360954
-0.164727
-0.0605927
-0.0139004
0.00601838
0.00600061
-1.62409
-1.66079
-1.26353
-0.735794
-0.374157
-0.155765
-0.0454502
-0.000700732
0.0152373
0.00974676
-1.69275
-1.82062
-1.40365
-0.808223
-0.392671
-0.149725
-0.0317138
0.0119516
0.0243142
0.0136941
-1.71013
-1.96179
-1.54414
-0.889657
-0.419078
-0.149356
-0.0218812
0.0222799
0.0321177
0.0172826
-1.67172
-2.06047
-1.67666
-0.978092
-0.454402
-0.156552
-0.018281
0.0283674
0.0372955
0.0197865
-1.5802
-2.1434
-1.79444
-1.06977
-0.497477
-0.171118
-0.0218668
0.0288595
0.0386193
0.0205563
-1.44988
-2.15157
-1.89664
-1.16188
-0.546305
-0.191901
-0.0319292
0.0237593
0.035713
0.0193627
-1.3269
-2.20411
-1.97123
-1.21455
-0.573178
-0.208194
-0.046194
0.0122393
0.027337
0.0156055
-1.2648
-2.16596
-1.92328
-1.18255
-0.574284
-0.229843
-0.0728986
-0.0106828
0.0109526
0.00818032
-1.23563
-2.03398
-1.79842
-1.12914
-0.585115
-0.269414
-0.111646
-0.038125
-0.00557879
0.00205526
-1.18745
-1.80689
-1.6362
-1.075
-0.604356
-0.318518
-0.158855
-0.0704922
-0.0231255
-0.00310313
-1.10736
-1.57217
-1.47501
-1.03318
-0.638145
-0.374387
-0.206281
-0.102125
-0.0405289
-0.00883164
-1.01331
-1.36181
-1.33085
-1.00419
-0.682541
-0.437481
-0.257714
-0.135411
-0.0593798
-0.0157322
-0.901767
-1.18154
-1.21836
-1.00218
-0.741419
-0.501234
-0.303778
-0.164612
-0.0728402
-0.0195251
-0.782814
-1.04476
-1.14301
-1.01643
-0.792759
-0.547735
-0.334515
-0.181633
-0.0806235
-0.0209905
-0.690162
-0.976448
-1.09649
-1.0148
-0.81689
-0.570992
-0.350908
-0.191482
-0.0854921
-0.022209
-0.633129
-0.96637
-1.10509
-1.01927
-0.812306
-0.568126
-0.352919
-0.194454
-0.0875282
-0.0231193
-0.993345
-1.06261
-1.11732
-1.15594
-1.17488
-1.17298
-1.14951
-1.1221
-1.10841
-1.15178
-0.86091
-0.938265
-1.00232
-1.05549
-1.09069
-1.11335
-1.12256
-1.13243
-1.14943
-1.17185
-0.738671
-0.818211
-0.885078
-0.946625
-0.995053
-1.03567
-1.07091
-1.09942
-1.13112
-1.1636
-0.627011
-0.705212
-0.774063
-0.83849
-0.895839
-0.9472
-0.993228
-1.03316
-1.06986
-1.11333
-0.525981
-0.601405
-0.670878
-0.735373
-0.794836
-0.849233
-0.897223
-0.944926
-0.985272
-1.03338
-0.436534
-0.509401
-0.576653
-0.63929
-0.696446
-0.749838
-0.797738
-0.845351
-0.888077
-0.936929
-0.360908
-0.431238
-0.49491
-0.555152
-0.608117
-0.659127
-0.703635
-0.746597
-0.787081
-0.829364
-0.300843
-0.36842
-0.430253
-0.4867
-0.535757
-0.582439
-0.620636
-0.657722
-0.690104
-0.72338
-0.263702
-0.328372
-0.38992
-0.442587
-0.489974
-0.530809
-0.562271
-0.590618
-0.61173
-0.633069
-0.248404
-0.314317
-0.376228
-0.429154
-0.478002
-0.515885
-0.549953
-0.572785
-0.591415
-0.600452
0.384056
0.316811
0.242804
0.167769
0.0907291
0.0098522
-0.0739766
-0.155938
-0.228604
-0.27467
0.201497
0.132482
0.0582204
-0.0192691
-0.101305
-0.188987
-0.280428
-0.369884
-0.448963
-0.500943
-0.00275072
-0.0712101
-0.144148
-0.221742
-0.305399
-0.395827
-0.490667
-0.58414
-0.667054
-0.722805
-0.198428
-0.267399
-0.341027
-0.419997
-0.505447
-0.597784
-0.694494
-0.789748
-0.875721
-0.930673
-0.375895
-0.446946
-0.522576
-0.603491
-0.690662
-0.784038
-0.881387
-0.977549
-1.06148
-1.11624
-0.535706
-0.608562
-0.685409
-0.767008
-0.854586
-0.94767
-1.04303
-1.13671
-1.2182
-1.27106
-0.678514
-0.751329
-0.827572
-0.908506
-0.994455
-1.08385
-1.1746
-1.26404
-1.34038
-1.38962
-0.806577
-0.877417
-0.951288
-1.02817
-1.10792
-1.19036
-1.27478
-1.35752
-1.42545
-1.47003
-0.91978
-0.985484
-1.0524
-1.12124
-1.19266
-1.26707
-1.34331
-1.41605
-1.47328
-1.51261
-1.01327
-1.0706
-1.12867
-1.18871
-1.25144
-1.31662
-1.38209
-1.44173
-1.48703
-1.52081
1.41002
1.41307
1.41602
1.41826
1.41954
1.41974
1.41885
1.41728
1.41757
1.43032
1.36263
1.3631
1.363
1.36185
1.35945
1.35567
1.35055
1.34495
1.34194
1.35181
1.2974
1.29455
1.29074
1.28555
1.27884
1.27041
1.26034
1.24981
1.24238
1.24843
1.21627
1.20956
1.20099
1.19048
1.17808
1.16357
1.14711
1.1303
1.11713
1.11803
1.11874
1.10773
1.0941
1.07792
1.0593
1.03795
1.01408
0.989797
0.96978
0.965191
1.00643
0.990762
0.971319
0.948574
0.922876
0.893917
0.861972
0.829551
0.801852
0.791352
0.881942
0.861136
0.835456
0.805732
0.772461
0.735285
0.694593
0.653268
0.61678
0.600026
0.751018
0.724815
0.691493
0.652969
0.610388
0.563518
0.512989
0.462135
0.416527
0.392429
0.616411
0.584883
0.543854
0.49622
0.44364
0.385949
0.324139
0.262404
0.207133
0.175406
0.491346
0.445793
0.390435
0.330315
0.266719
0.198564
0.126479
0.0549208
-0.00912685
-0.0481441
1.44792
1.40635
1.40932
1.38393
1.3673
1.34724
1.33965
1.33512
1.35107
1.39853
1.44638
1.40408
1.40759
1.38117
1.36367
1.34149
1.33322
1.32453
1.33415
1.3715
1.44548
1.40209
1.40604
1.37809
1.3594
1.33493
1.32584
1.31136
1.31258
1.33418
1.44515
1.40043
1.40467
1.37466
1.35458
1.32768
1.3175
1.29557
1.28682
1.2865
1.44532
1.39913
1.40347
1.37091
1.34935
1.31981
1.30808
1.27722
1.2574
1.22781
1.44583
1.3983
1.40241
1.3669
1.34389
1.31131
1.29757
1.25643
1.22481
1.1568
1.4465
1.39805
1.40143
1.36273
1.33814
1.30181
1.28599
1.23348
1.18989
1.07351
1.44748
1.3984
1.4005
1.35824
1.33161
1.29067
1.27327
1.20872
1.15233
0.978634
1.44891
1.39955
1.39964
1.35306
1.32359
1.27774
1.2595
1.18241
1.11094
0.868827
1.44924
1.40187
1.39931
1.34719
1.3139
1.26403
1.24514
1.15565
1.06928
0.754159
1.44901
1.40416
1.39949
1.34226
1.30447
1.24994
1.22907
1.12689
1.02076
0.653227
1.46143
1.40639
1.40466
1.34037
1.29733
1.23715
1.21278
1.10305
0.97933
0.668218
1.47216
1.40953
1.41289
1.34228
1.29359
1.2274
1.19621
1.08067
0.939121
0.6768
1.47925
1.41469
1.42134
1.34668
1.29107
1.22013
1.17798
1.0616
0.902442
0.674065
1.48705
1.41846
1.42561
1.34878
1.28714
1.21415
1.15726
1.04494
0.87057
0.664678
1.49679
1.42035
1.42328
1.3431
1.2818
1.20791
1.1354
1.03255
0.845046
0.652335
1.50774
1.41925
1.41316
1.32897
1.27509
1.20122
1.11564
1.02911
0.826979
0.639802
1.52122
1.42005
1.39947
1.31442
1.26715
1.19551
1.0987
1.03559
0.815132
0.632603
1.53684
1.42506
1.39068
1.30126
1.26015
1.19144
1.08563
1.04194
0.808096
0.635267
1.58112
1.42742
1.3868
1.29907
1.26012
1.18923
1.08963
1.04831
0.806462
0.655075
0.380894
0.224028
0.0391132
-0.138203
-0.297747
-0.442382
-0.57505
-0.6965
-0.808789
-0.908888
0.350005
0.217528
0.0688252
-0.0763496
-0.209701
-0.334493
-0.452608
-0.565911
-0.673008
-0.772901
0.351656
0.228361
0.100978
-0.0216475
-0.136262
-0.246945
-0.35389
-0.458943
-0.557844
-0.65329
0.365327
0.25155
0.137667
0.0306373
-0.0695722
-0.167648
-0.264445
-0.361722
-0.454189
-0.544657
0.387265
0.28252
0.178487
0.0825927
-0.00678584
-0.0944329
-0.18251
-0.272112
-0.359972
-0.445778
0.410686
0.315886
0.221118
0.133623
0.0517774
-0.0288356
-0.11063
-0.194002
-0.277372
-0.359009
0.433063
0.350318
0.264962
0.183474
0.105628
0.0288013
-0.0493375
-0.128532
-0.207916
-0.285973
0.456563
0.384833
0.3078
0.230331
0.153691
0.0781196
0.00285152
-0.0723436
-0.150088
-0.226316
0.473724
0.407073
0.334822
0.259491
0.182446
0.10586
0.031171
-0.0419444
-0.116654
-0.190139
0.496178
0.42962
0.35811
0.282267
0.204624
0.12747
0.0508995
-0.025586
-0.102029
-0.176544
-0.906405
-0.87419
-0.827035
-0.773141
-0.719156
-0.669306
-0.625073
-0.586322
-0.554254
-0.529991
-1.00402
-0.973115
-0.928632
-0.875337
-0.822156
-0.773077
-0.729752
-0.69197
-0.660344
-0.636706
-1.06903
-1.03999
-0.999564
-0.949281
-0.897961
-0.849802
-0.806922
-0.770027
-0.738858
-0.714913
-1.104
-1.0772
-1.04208
-0.996973
-0.948541
-0.90193
-0.860149
-0.824186
-0.793615
-0.769262
-1.11473
-1.09038
-1.06152
-1.02298
-0.979255
-0.935455
-0.895109
-0.860081
-0.830338
-0.806049
-1.10886
-1.08739
-1.06456
-1.03291
-0.995014
-0.955281
-0.917072
-0.882983
-0.854077
-0.830469
-1.0941
-1.07593
-1.05822
-1.03285
-1.00077
-0.965379
-0.929675
-0.896311
-0.867348
-0.843845
-1.0764
-1.06176
-1.04821
-1.02804
-1.00096
-0.969216
-0.935551
-0.90249
-0.872605
-0.847965
-1.05857
-1.04778
-1.03767
-1.02173
-0.998805
-0.970035
-0.937846
-0.90465
-0.873349
-0.848306
-1.03973
-1.03307
-1.02564
-1.01277
-0.993016
-0.96667
-0.935453
-0.901333
-0.866278
-0.836369
-1.018
-1.01527
-1.00966
-0.998562
-0.981136
-0.957558
-0.929062
-0.897607
-0.864339
-0.828185
-0.994611
-0.995199
-0.990597
-0.98026
-0.964018
-0.942699
-0.917323
-0.88927
-0.859131
-0.824155
-0.97579
-0.978267
-0.974504
-0.964884
-0.949312
-0.929411
-0.907064
-0.8827
-0.855979
-0.824478
-0.966683
-0.970135
-0.967568
-0.959952
-0.946459
-0.927741
-0.907475
-0.886819
-0.863864
-0.836145
-0.964764
-0.969298
-0.967441
-0.961795
-0.951487
-0.935253
-0.917408
-0.900341
-0.881301
-0.856145
-0.972321
-0.977827
-0.97604
-0.971318
-0.964516
-0.952949
-0.936438
-0.920047
-0.90356
-0.884934
-0.994912
-1.00103
-1.0001
-0.996316
-0.989903
-0.979277
-0.964393
-0.948405
-0.932918
-0.917411
-1.03062
-1.03684
-1.03611
-1.03221
-1.02551
-1.01586
-1.00338
-0.989382
-0.975246
-0.961742
-1.07692
-1.08271
-1.08152
-1.07711
-1.07028
-1.06169
-1.05169
-1.04069
-1.02946
-1.01904
-1.132
-1.13674
-1.13494
-1.13039
-1.12415
-1.11721
-1.11
-1.10257
-1.0953
-1.08905
-0.752482
-0.63208
-0.570801
-0.484898
-0.3866
-0.282832
-0.192033
-0.118834
-0.0633025
-0.0176758
-0.755635
-0.633021
-0.570908
-0.47744
-0.374979
-0.27279
-0.184044
-0.113408
-0.0601393
-0.0166439
-0.766647
-0.639168
-0.574799
-0.471702
-0.365059
-0.262932
-0.175745
-0.10746
-0.0564156
-0.0152587
-0.785783
-0.651756
-0.583003
-0.467745
-0.356837
-0.25341
-0.167285
-0.101191
-0.0523747
-0.0137207
-0.810538
-0.671391
-0.595339
-0.465673
-0.349765
-0.24412
-0.158664
-0.0946531
-0.0481146
-0.0121467
-0.839438
-0.699197
-0.612112
-0.465937
-0.343799
-0.235054
-0.149893
-0.0878822
-0.0436933
-0.0105868
-0.876343
-0.736694
-0.634343
-0.469322
-0.339093
-0.226202
-0.14093
-0.080861
-0.0391168
-0.00905068
-0.925656
-0.786649
-0.66355
-0.476802
-0.335857
-0.217523
-0.131669
-0.0734986
-0.0343183
-0.00750951
-0.989506
-0.852975
-0.702025
-0.48951
-0.334349
-0.20897
-0.121971
-0.0656605
-0.0291812
-0.00590793
-1.06931
-0.93785
-0.753433
-0.508749
-0.334891
-0.200503
-0.111685
-0.057199
-0.0235726
-0.00417695
-0.737637
-0.63875
-0.57329
-0.487519
-0.384946
-0.283062
-0.194495
-0.12067
-0.0635801
-0.0177746
-0.730214
-0.632158
-0.570314
-0.487743
-0.386422
-0.28492
-0.196059
-0.121865
-0.0642855
-0.017995
-0.727268
-0.627221
-0.567732
-0.487645
-0.387183
-0.285472
-0.196294
-0.121926
-0.0643856
-0.0178872
-0.727051
-0.623113
-0.564414
-0.485423
-0.388961
-0.286807
-0.19684
-0.122263
-0.0648636
-0.0179956
-0.735935
-0.622853
-0.563538
-0.482069
-0.390331
-0.287581
-0.196576
-0.122027
-0.0650359
-0.0181675
-0.50773
-0.609998
-0.68596
-0.73845
-0.772334
-0.793391
-0.802647
-0.804318
-0.797931
-0.782434
-0.505347
-0.608324
-0.682954
-0.733195
-0.764413
-0.783491
-0.791866
-0.79303
-0.788742
-0.772279
-0.507242
-0.610486
-0.684957
-0.734739
-0.765722
-0.785274
-0.793987
-0.795154
-0.790646
-0.773418
-0.511087
-0.615801
-0.690942
-0.741268
-0.773268
-0.793951
-0.803593
-0.804311
-0.799208
-0.782648
-0.517814
-0.624393
-0.700893
-0.752667
-0.786752
-0.809229
-0.820639
-0.82174
-0.816122
-0.803554
1.06972
1.06268
1.05209
1.04072
1.0293
1.01739
1.005
0.993514
0.985804
0.988845
1.15144
1.14975
1.14507
1.13923
1.1328
1.12552
1.11748
1.10992
1.10569
1.11191
1.22712
1.22808
1.22694
1.22488
1.22233
1.21911
1.21521
1.21143
1.21022
1.21903
1.29501
1.29814
1.30001
1.30125
1.30206
1.30221
1.30155
1.30041
1.30114
1.31214
1.35264
1.35745
1.36163
1.36539
1.36871
1.3714
1.37313
1.37383
1.37567
1.38812
1.39891
1.40504
1.41104
1.41676
1.42208
1.42678
1.43044
1.43254
1.43478
1.44716
1.43215
1.43906
1.44622
1.45324
1.45991
1.46605
1.47134
1.47498
1.4778
1.48758
1.45085
1.45785
1.46527
1.47257
1.4795
1.48596
1.49165
1.4959
1.49925
1.50862
1.45381
1.46015
1.46685
1.47327
1.4791
1.48424
1.48846
1.49138
1.4945
1.50858
1.44039
1.44541
1.4506
1.45531
1.45925
1.4623
1.46435
1.46541
1.46758
1.48196
-0.395006
-0.421236
-0.454461
-0.493762
-0.538314
-0.588207
-0.642954
-0.696801
-0.744661
-0.776794
-0.235726
-0.264642
-0.299304
-0.339347
-0.384571
-0.434418
-0.487245
-0.53962
-0.587591
-0.618168
-0.0603382
-0.0918924
-0.1279
-0.168268
-0.21297
-0.261598
-0.312567
-0.362942
-0.408174
-0.437272
0.120919
0.0875631
0.0508247
0.0108063
-0.0325418
-0.0790454
-0.127411
-0.174609
-0.216412
-0.24087
0.297893
0.264269
0.228199
0.189861
0.149055
0.105731
0.0609601
0.0177207
-0.0197518
-0.0392025
0.462761
0.430841
0.397292
0.362234
0.325253
0.286139
0.245838
0.207336
0.175006
0.16009
0.612114
0.583842
0.554584
0.524176
0.491994
0.457808
0.42258
0.389333
0.362454
0.351224
0.747645
0.724021
0.699827
0.674506
0.647379
0.618359
0.588502
0.560731
0.539073
0.531401
0.875434
0.855563
0.834932
0.813459
0.79067
0.766533
0.742004
0.719599
0.702797
0.698644
0.992947
0.975839
0.9567
0.937841
0.919116
0.900076
0.881134
0.864065
0.851833
0.851221
1.52095
1.43823
1.42528
1.38529
1.36926
1.35243
1.33183
1.30796
1.26197
1.18161
1.50702
1.43513
1.42622
1.38823
1.37242
1.35652
1.33874
1.31794
1.28578
1.23563
1.49494
1.43174
1.42585
1.39011
1.3745
1.35941
1.34443
1.32849
1.31054
1.2869
1.48462
1.42808
1.42463
1.39139
1.37589
1.36139
1.34899
1.33791
1.33157
1.33051
1.47586
1.42445
1.4228
1.39207
1.37659
1.36238
1.35212
1.34511
1.34821
1.3659
1.46847
1.42097
1.42055
1.39207
1.37658
1.36232
1.35369
1.34985
1.36053
1.39309
1.46232
1.41768
1.4181
1.39141
1.37591
1.36122
1.3537
1.35204
1.3684
1.41195
1.4573
1.41455
1.41567
1.39019
1.37463
1.35913
1.3522
1.35165
1.37156
1.42222
1.45329
1.41161
1.41336
1.38849
1.37276
1.35608
1.34928
1.34869
1.36981
1.4236
1.4502
1.40887
1.41124
1.38638
1.37032
1.35211
1.34505
1.34318
1.36299
1.41581
1.64262
1.44877
1.41259
1.36418
1.35106
1.33205
1.30345
1.26562
1.19493
1.10031
1.60391
1.45218
1.41967
1.36852
1.35362
1.33392
1.30464
1.26654
1.1937
1.09065
1.57952
1.45263
1.42244
1.37172
1.35597
1.33673
1.30805
1.27135
1.20052
1.0943
1.55652
1.45005
1.42331
1.37658
1.3601
1.3415
1.31467
1.28104
1.21198
1.10557
1.53725
1.44331
1.4236
1.38097
1.3646
1.3468
1.32262
1.29167
1.22885
1.12333
0.907755
0.824802
0.721572
0.595809
0.449801
0.287002
0.113823
-0.0606953
-0.22748
-0.37854
0.899688
0.817788
0.716402
0.593698
0.451559
0.292065
0.120373
-0.0546265
-0.223195
-0.376036
0.911345
0.827474
0.72405
0.600867
0.459023
0.299578
0.127141
-0.0495586
-0.220383
-0.375551
0.935402
0.843557
0.73475
0.609907
0.467251
0.30677
0.13283
-0.0460632
-0.219542
-0.377362
0.975011
0.867828
0.748242
0.618938
0.47413
0.3121
0.136491
-0.0446805
-0.22102
-0.381755
)
;

boundaryField
{
    left
    {
        type            zeroGradient;
    }
    right
    {
        type            fixedValue;
        value           uniform 0;
    }
    down
    {
        type            zeroGradient;
    }
    up
    {
        type            zeroGradient;
    }
    cylinder
    {
        type            zeroGradient;
    }
    defaultFaces
    {
        type            empty;
    }
}


// ************************************************************************* //
