/*--------------------------------*- C++ -*----------------------------------*\
| =========                 |                                                 |
| \\      /  F ield         | OpenFOAM: The Open Source CFD Toolbox           |
|  \\    /   O peration     | Version:  2406                                  |
|   \\  /    A nd           | Website:  www.openfoam.com                      |
|    \\/     M anipulation  |                                                 |
\*---------------------------------------------------------------------------*/
FoamFile
{
    version     2.0;
    format      ascii;
    arch        "LSB;label=32;scalar=64";
    class       surfaceScalarField;
    location    "1.05";
    object      phi;
}
// * * * * * * * * * * * * * * * * * * * * * * * * * * * * * * * * * * * * * //

dimensions      [0 3 -1 0 0 0 0];

oriented        oriented;

internalField   nonuniform List<scalar> 
3485
(
-0.000132538
0.000185894
-5.33563e-05
0.00126086
0.000638079
-0.00203148
0.0051989
0.00170442
-0.00564246
0.0120765
0.00161527
-0.00849289
0.0221761
-0.000629863
-0.00946976
0.0355435
-0.00486916
-0.0084982
0.0521865
-0.0107096
-0.00593342
0.0721624
-0.017773
-0.00220288
0.0955454
-0.0260464
0.00266333
-0.0308275
0.00735574
0.119017
-0.000626967
0.000812861
-0.000857234
0.000868346
0.00115429
-0.0003071
0.00706415
-0.00429459
0.0172439
-0.0108097
0.0314552
-0.0190804
0.0491572
-0.0284116
0.0696622
-0.038278
0.0921296
-0.0485139
-0.0548632
0.116165
8.25129e-05
0.000730348
0.000586795
0.000364064
0.00416973
-0.00389004
0.0124658
-0.0125906
0.0256044
-0.0239482
0.0429101
-0.0363861
0.0633697
-0.0488712
0.0859263
-0.0608346
0.109682
-0.07227
-0.0796546
0.134474
0.000107381
0.000622967
0.00250455
-0.0020331
0.0100197
-0.0114051
0.0227865
-0.0253575
0.0399967
-0.0411584
0.0604215
-0.0568109
0.0827557
-0.0712053
0.105953
-0.0840321
0.129303
-0.0956196
-0.103566
0.153215
0.000917847
-0.00029488
0.00648781
-0.00760306
0.0180417
-0.0229591
0.0348216
-0.0421374
0.0551049
-0.0614417
0.077111
-0.078817
0.0995273
-0.0936217
0.121648
-0.106152
0.143142
-0.117114
-0.125886
0.165461
0.0019566
-0.00225148
0.0107844
-0.0164309
0.0260664
-0.0382411
0.0457412
-0.0618121
0.0673228
-0.0830234
0.088959
-0.100453
0.109738
-0.114401
0.12947
-0.125885
0.148327
-0.13597
-0.145176
0.167617
0.00347328
-0.00572476
0.0152075
-0.0281651
0.0332653
-0.0562989
0.0542321
-0.0827789
0.0753541
-0.104145
0.0952406
-0.12034
0.113554
-0.132714
0.13047
-0.142801
0.146309
-0.151809
-0.160385
0.161519
0.00492637
-0.0106511
0.0190713
-0.04231
0.0385572
-0.0757848
0.0591454
-0.103367
0.0784223
-0.123422
0.0956326
-0.13755
0.110862
-0.147943
0.124417
-0.156357
0.136525
-0.163917
-0.171157
0.147297
0.00624864
-0.0168998
0.0219735
-0.0580349
0.0413817
-0.095193
0.0601143
-0.1221
0.076428
-0.139736
0.0901759
-0.151298
0.101757
-0.159524
0.111571
-0.166172
0.119867
-0.172213
-0.178048
0.126758
0.00736459
-0.0242644
0.0235239
-0.0741942
0.0412774
-0.112947
0.0567845
-0.137607
0.0691932
-0.152145
0.0789777
-0.161082
0.0868182
-0.167365
0.0931984
-0.172552
0.0983645
-0.177379
0.102385
-0.182068
-0.00173495
0.0208228
-0.0190878
-0.00549327
0.0407972
-0.0370389
-0.0100734
0.0491743
-0.0445942
-0.0149438
0.0526589
-0.0477885
-0.0199167
0.0539438
-0.0489709
-0.0248523
0.0539099
-0.0489743
-0.0296395
0.052966
-0.0481789
-0.034221
0.0513524
-0.0467708
-0.0385712
0.0492081
-0.0448579
0.0467077
-0.0427068
-0.042572
-0.000746848
0.0215696
-0.00323357
0.043284
-0.00664743
0.0525882
-0.0104379
0.0564493
-0.0144638
0.0579698
-0.0186882
0.0581342
-0.0229312
0.0572091
-0.0270725
0.0554937
-0.0310867
0.0532223
0.0506252
-0.0350042
0.000450072
0.0211196
-0.000352388
0.0440864
-0.00220428
0.0544401
-0.00442105
0.0586661
-0.00670212
0.0602508
-0.00912052
0.0605526
-0.0118072
0.0598958
-0.0147638
0.0584502
-0.0178458
0.0563043
0.0536416
-0.0208622
0.0017865
0.0193331
0.00321513
0.0426578
0.00369582
0.0539594
0.00370805
0.0586538
0.00363228
0.0603266
0.00349312
0.0606918
0.00302673
0.0603622
0.00203902
0.059438
0.000567694
0.0577756
0.05547
-0.00126077
0.00347627
0.0158568
0.00800188
0.0381322
0.0117333
0.0502279
0.0145632
0.0558239
0.0167137
0.0581761
0.0184368
0.0589686
0.0199482
0.0588509
0.0213562
0.05803
0.0226749
0.0564569
0.0541204
0.0240245
0.00452562
0.0113312
0.0116905
0.0309673
0.0185636
0.0433548
0.0244846
0.0499029
0.029601
0.0530598
0.0342069
0.0543627
0.0385366
0.0545211
0.0427739
0.0537927
0.0470636
0.0521672
0.0495909
0.0515932
0.00456159
0.00676958
0.0132114
0.0223175
0.0225804
0.0339858
0.0314633
0.0410201
0.0397458
0.0447772
0.047631
0.0464775
0.0553237
0.0468285
0.0629552
0.0461612
0.0706128
0.0445095
0.041579
0.0786247
0.00371154
0.00305804
0.0123736
0.0136554
0.0229908
0.0233686
0.0340352
0.0299757
0.0450485
0.0337638
0.0560384
0.0354876
0.0671169
0.0357501
0.0783289
0.0349492
0.0896175
0.0332209
0.0295764
0.10162
0.00225589
0.000802151
0.00945165
0.00645966
0.0195683
0.0132519
0.0311608
0.0183832
0.0436176
0.021307
0.0568187
0.0222865
0.0708025
0.0217663
0.0855652
0.0201864
0.100979
0.0178074
0.0129054
0.11765
0.000748795
0.00517698
0.0127865
0.0226768
0.0345141
0.0483024
0.0641353
0.0821189
0.10259
0.122851
-0.0524057
0.277676
-0.267977
-0.0235414
0.00262318
-0.0314875
0.0168426
-0.165512
0.125128
0.0592328
-0.25496
0.21257
0.0951997
-0.269183
0.233216
0.121044
-0.241053
0.215208
0.137912
-0.197207
0.180339
0.147843
-0.149372
0.139441
0.153727
-0.110876
0.104991
-0.0558998
0.0542627
-0.0544355
0.297107
-0.034919
-0.0168933
0.00722376
-0.207655
0.0526811
-0.300417
0.0918682
-0.30837
0.119967
-0.269152
0.138317
-0.215557
0.149084
-0.160139
0.155632
-0.117424
-0.0578629
-0.0490181
0.325263
-0.0393464
-0.026565
0.00331299
-0.250315
0.0502936
-0.347398
0.0909694
-0.349046
0.120059
-0.298241
0.139201
-0.234699
0.1505
-0.171438
0.157664
-0.124587
-0.0602642
-0.0330617
0.357064
-0.0316347
-0.027992
0.00943801
-0.291387
0.0564043
-0.394364
0.0959663
-0.388608
0.123711
-0.325986
0.14206
-0.253049
0.153018
-0.182396
0.16041
-0.13198
-0.0631013
-0.0068062
0.387895
-0.0103662
-0.024432
0.0277681
-0.329522
0.0737985
-0.440395
0.110328
-0.425138
0.134097
-0.349755
0.149232
-0.268183
0.158217
-0.19138
0.164913
-0.138676
-0.0661504
0.0265627
0.412925
0.0196154
-0.0174847
0.054067
-0.363973
0.0997171
-0.486045
0.134412
-0.459833
0.153555
-0.368898
0.163389
-0.278018
0.168348
-0.196339
0.172818
-0.143146
-0.0688618
0.0639428
0.427607
0.0527779
-0.00631975
0.0800152
-0.39121
0.125742
-0.531772
0.16267
-0.49676
0.180522
-0.38675
0.185582
-0.283077
0.185446
-0.196203
0.18613
-0.14383
-0.0704724
0.101512
0.427715
0.0861298
0.00906241
0.103145
-0.408226
0.146401
-0.575027
0.187458
-0.537817
0.209029
-0.408322
0.213134
-0.287182
0.209384
-0.192453
0.205998
-0.140444
-0.0705701
0.13633
0.409035
0.117269
0.028124
0.127602
-0.418559
0.164539
-0.611965
0.206393
-0.579671
0.233276
-0.435205
0.240649
-0.294555
0.236802
-0.188606
0.231102
-0.134743
-0.0697193
0.163589
0.368297
0.150897
0.0408161
0.155412
-0.423074
0.184936
-0.641488
0.222885
-0.617621
0.251748
-0.464068
0.26357
-0.306377
0.262683
-0.187719
0.257638
-0.129699
-0.0693982
0.325281
0.273171
-0.230155
0.43215
-0.0660537
0.509751
-0.500675
0.538919
-0.670657
0.533242
-0.611943
0.518173
-0.448999
0.498936
-0.28714
0.476562
-0.165345
0.454125
-0.107262
-0.0578119
0.504397
0.198612
-0.429838
0.626185
-0.187842
0.685932
-0.560422
0.679792
-0.664516
0.634801
-0.566952
0.585416
-0.399615
0.547205
-0.248928
0.519933
-0.138074
0.498212
-0.0855412
-0.0466
0.708683
0.124768
-0.634839
0.784905
-0.264065
0.792005
-0.567521
0.753799
-0.626311
0.695844
-0.508997
0.635424
-0.339194
0.585735
-0.199239
0.55181
-0.104149
0.527799
-0.0615306
-0.0348796
0.85
0.0470425
-0.772274
0.883149
-0.297214
0.855982
-0.540354
0.792625
-0.562953
0.7178
-0.434172
0.649493
-0.270887
0.596928
-0.146675
0.562092
-0.069313
0.537562
-0.0370006
-0.0232323
0.923152
-0.0241595
-0.85195
0.937403
-0.311465
0.899122
-0.502072
0.825856
-0.489688
0.738572
-0.346888
0.658215
-0.19053
0.598117
-0.0865765
0.560431
-0.0316272
0.535856
-0.0124261
-0.0119734
0.960095
-0.0860167
-0.898238
0.966874
-0.318244
0.906749
-0.441947
0.806587
-0.389525
0.706022
-0.246323
0.627048
-0.111556
0.57363
-0.0331586
0.542136
-0.000133158
0.522689
0.00702045
-0.00245261
0.967715
-0.135561
-0.918171
0.95413
-0.304659
0.866
-0.353818
0.744457
-0.267982
0.635605
-0.137472
0.561567
-0.0375174
0.519397
0.00901144
0.49829
0.0209734
0.487051
0.0182594
0.00390262
0.913499
-0.157391
-0.891669
0.84999
-0.241149
0.717228
-0.221056
0.579383
-0.130137
0.483386
-0.0414738
0.435028
0.01084
0.415994
0.0280457
0.41071
0.0262575
0.409773
0.0191963
0.0058037
0.700883
-0.117565
-0.740709
0.565108
-0.105375
0.406611
-0.0625584
0.298045
-0.0215716
0.253111
0.00345993
0.248044
0.0159073
0.257271
0.0188185
0.268185
0.0153439
0.27672
0.0106614
0.0036143
0.218393
-0.335959
0.113018
0.05046
0.0288884
0.0323484
0.0482557
0.0670742
0.0824181
0.0930794
0.529517
0.0964907
-0.523623
0.53343
0.122845
0.53395
0.146777
0.526206
0.169263
0.507903
0.18592
0.472081
0.201284
0.419191
0.206104
0.348902
0.204763
0.274864
0.190204
0.163726
0.557598
0.084492
-0.545599
0.568368
0.112075
0.579633
0.135511
0.586575
0.162321
0.590124
0.18237
0.586337
0.205071
0.570621
0.22182
0.544404
0.230979
0.487801
0.246808
0.221689
0.581508
0.0716308
-0.568646
0.594723
0.09886
0.610206
0.120028
0.625405
0.147123
0.639651
0.168124
0.654188
0.190534
0.662286
0.213723
0.667982
0.225283
0.660885
0.253904
0.247735
0.601311
0.0594974
-0.589178
0.615933
0.0842389
0.633262
0.102699
0.653008
0.127376
0.673835
0.147297
0.696204
0.168165
0.718893
0.191033
0.739544
0.204633
0.762419
0.231029
0.237881
0.612021
0.0474676
-0.599991
0.628201
0.0680589
0.647292
0.0836077
0.670333
0.104335
0.695872
0.121758
0.723418
0.140619
0.754628
0.159823
0.784492
0.174769
0.820485
0.195035
0.206416
0.611672
0.0347867
-0.598991
0.629194
0.0505368
0.650203
0.0625983
0.675538
0.0789998
0.704988
0.0923085
0.737121
0.108486
0.77407
0.122874
0.811745
0.137094
0.854965
0.151815
0.163143
0.599187
0.0216251
-0.586025
0.617357
0.0323663
0.639831
0.0401245
0.666375
0.052456
0.69845
0.0602329
0.733448
0.0734883
0.774665
0.0816567
0.81799
0.0937691
0.867449
0.102357
0.11242
0.566136
0.00920429
-0.553716
0.583834
0.014669
0.605154
0.0188041
0.631552
0.0260582
0.662611
0.0291741
0.698185
0.0379137
0.74003
0.0398121
0.785155
0.0486445
0.83744
0.0500718
0.0581914
0.48287
0.000127962
-0.473794
0.49594
0.00159925
0.511713
0.00303112
0.532658
0.00511326
0.555783
0.00604915
0.585073
0.00862309
0.616514
0.00837111
0.653854
0.0113047
0.694352
0.00957399
0.0118346
0.270458
-0.27033
0.272058
0.275089
0.280202
0.286251
0.294874
0.303245
0.31455
0.324124
0.0668924
0.136675
-0.124424
-0.0791434
0.0563797
0.136588
-0.126075
0.0471759
0.136947
-0.127743
0.0386371
0.137889
-0.129351
0.0303922
0.13884
-0.130595
0.0223827
0.139076
-0.131067
0.0147514
0.137317
-0.129686
0.00775431
0.131182
-0.124185
0.00224509
0.112998
-0.107489
0.0609375
-0.0586924
0.0646071
0.147638
-0.0755694
0.0541395
0.147056
0.0444564
0.14663
0.0355654
0.14678
0.0272752
0.14713
0.0195213
0.14683
0.012395
0.144443
0.00608574
0.137491
0.00148196
0.117602
0.0624195
0.0570099
0.157379
-0.0667507
0.0473232
0.156742
0.038125
0.155828
0.029649
0.155257
0.0219152
0.154864
0.0149335
0.153812
0.00875579
0.150621
0.00357237
0.142675
0.00024712
0.120927
0.0626666
0.0447298
0.165645
-0.0529961
0.0364901
0.164982
0.0285435
0.163774
0.0211702
0.16263
0.0145335
0.1615
0.00876869
0.159577
0.00392904
0.155461
0.000181078
0.146423
-0.00111498
0.122223
0.0615516
0.0295113
0.17241
-0.036276
0.022955
0.171538
0.0166605
0.170069
0.01082
0.16847
0.00568332
0.166637
0.00148407
0.163776
-0.00174809
0.158693
-0.00351666
0.148191
-0.00276739
0.121474
0.0587842
0.0124726
0.177682
-0.0177455
0.00758463
0.176426
0.00303012
0.174623
-0.00101972
0.17252
-0.00426117
0.169879
-0.00660905
0.166124
-0.00808261
0.160167
-0.00775759
0.147866
-0.00449216
0.118209
0.054292
-0.00691981
0.181467
0.003135
-0.0100586
0.179565
-0.0126141
0.177179
-0.0144798
0.174386
-0.0156145
0.171013
-0.0160932
0.166602
-0.0154744
0.159548
-0.0124282
0.14482
-0.00617211
0.111952
0.0481199
-0.0282501
0.183528
0.0261888
-0.0294479
0.180763
-0.0299008
0.177632
-0.0297001
0.174185
-0.0288961
0.170209
-0.0272246
0.164931
-0.0237618
0.156085
-0.0171936
0.138252
-0.00753605
0.102295
0.0405839
-0.0508175
0.183741
0.0506046
-0.0501183
0.180064
-0.0486574
0.176171
-0.0464842
0.172012
-0.0434203
0.167145
-0.0388694
0.16038
-0.0317518
0.148967
-0.0210968
0.127597
-0.00821552
0.0894137
0.0323684
-0.0745838
0.0762571
-0.0718993
-0.0682801
-0.0636329
-0.0575698
-0.0493345
-0.0379739
-0.0233235
-0.00810401
0.0881491
0.0378191
-0.0985654
-0.0274028
0.0776745
0.0386876
-0.0282131
0.0671502
0.0395523
-0.029028
0.0565862
0.0403787
-0.0298147
0.0459895
0.0411026
-0.0305059
0.0353765
0.0415459
-0.0309328
0.0248206
0.0412334
-0.0306775
0.01457
0.0391016
-0.028851
0.00542091
0.0329745
-0.0238254
0.0178218
-0.0124008
0.089195
0.0483775
-0.0997534
0.0785856
0.049297
0.0679204
0.0502176
0.0572133
0.0510857
0.0464777
0.0518382
0.0357368
0.0522868
0.0250643
0.0519059
0.0146974
0.0494684
0.00544011
0.0422318
0.0232619
0.0903895
0.0588964
-0.100909
0.0797901
0.0598964
0.0691189
0.0608887
0.0583717
0.0618329
0.0475456
0.0626644
0.0366541
0.0631783
0.0257785
0.0627815
0.0151701
0.0600768
0.00564077
0.0517612
0.0289026
0.0881284
0.0694664
-0.0986984
0.0775527
0.0704721
0.0669584
0.0714831
0.0563601
0.0724312
0.0457587
0.0732658
0.0351606
0.0737764
0.0246304
0.0733116
0.0143961
0.0703112
0.00526015
0.0608971
0.0341628
0.0879136
0.0799839
-0.0984311
0.0773615
0.0810242
0.0667705
0.0820741
0.0561506
0.083051
0.0455157
0.0839007
0.0348982
0.0843939
0.024392
0.0838178
0.0142299
0.0804732
0.00517963
0.0699473
0.0393424
0.0853395
0.0902209
-0.0955764
0.0750677
0.091296
0.0647453
0.0923965
0.0543965
0.0933998
0.0440358
0.0942615
0.0336902
0.0947395
0.0234547
0.0940533
0.0135746
0.0903533
0.00483818
0.0786838
0.0441806
0.0812579
0.100014
-0.0910508
0.0715568
0.100997
0.0618253
0.102128
0.0520016
0.103223
0.0420795
0.104184
0.0321158
0.104703
0.0222572
0.103912
0.0127813
0.0998292
0.00450039
0.0869646
0.048681
0.0752893
0.109817
-0.0850921
0.0657105
0.110576
0.0563286
0.11151
0.047099
0.112453
0.0379357
0.113347
0.0288059
0.113833
0.0198074
0.11291
0.0111995
0.108437
0.00379238
0.0943717
0.0524734
0.0724744
0.118133
-0.0807912
0.0638724
0.119178
0.0548197
0.120563
0.0455611
0.121712
0.0363167
0.122591
0.0272376
0.122912
0.0184816
0.121666
0.0102801
0.116639
0.0033828
0.101269
0.0558562
0.0624965
-0.0687875
0.0555992
0.048419
0.0407801
0.0327766
0.024622
0.0166024
0.00905615
0.00283624
0.203257
-0.0205584
0.015291
0.205327
0.0729058
-0.0749753
0.201956
0.162144
-0.158773
0.197054
0.181457
-0.176555
0.192532
0.165295
-0.160774
0.187957
0.158113
-0.153538
0.181414
0.152236
-0.145693
0.171401
0.170619
-0.160607
0.147657
0.197093
-0.17335
0.259962
-0.21087
0.203073
-0.0256413
0.204384
0.0715942
0.200183
0.166345
0.194736
0.186904
0.189906
0.170126
0.18548
0.162539
0.179861
0.157855
0.170472
0.180008
0.147795
0.219771
0.308004
0.202802
-0.0304532
0.203233
0.071163
0.19797
0.171607
0.191636
0.193239
0.186245
0.175516
0.181755
0.167029
0.176901
0.16271
0.167765
0.189145
0.1465
0.241036
0.353595
0.202448
-0.0349116
0.201895
0.0717164
0.195279
0.178223
0.187714
0.200803
0.18168
0.18155
0.17706
0.171648
0.172701
0.167069
0.16346
0.198385
0.143449
0.261047
0.398345
0.202035
-0.0389565
0.200405
0.0733464
0.19206
0.186567
0.183076
0.209788
0.176519
0.188108
0.171697
0.17647
0.167438
0.171328
0.157493
0.208331
0.139677
0.278863
0.439591
0.201592
-0.0425583
0.198768
0.0761698
0.188329
0.197007
0.178088
0.220028
0.171191
0.195005
0.165885
0.181776
0.16125
0.175963
0.150377
0.219204
0.134755
0.294484
0.47877
0.201093
-0.045662
0.196937
0.080326
0.184297
0.209647
0.173255
0.23107
0.166004
0.202256
0.159766
0.188014
0.154441
0.181288
0.142285
0.231361
0.12851
0.308259
0.516229
0.200382
-0.0480547
0.194885
0.0858238
0.180357
0.224176
0.168904
0.242522
0.161084
0.210077
0.153567
0.195531
0.147482
0.187372
0.133776
0.245067
0.12273
0.319305
0.553866
0.199249
-0.0493142
0.192726
0.092347
0.17695
0.239952
0.165184
0.254288
0.156722
0.218539
0.147985
0.204268
0.141188
0.194169
0.126639
0.259616
0.116336
0.329608
0.589411
0.197687
-0.0490109
0.190621
0.0994124
0.174496
0.256077
0.16259
0.266193
0.154146
0.226983
0.144698
0.213716
0.136665
0.202202
0.119325
0.276956
0.111076
0.337857
0.6317
0.306643
-0.0536439
0.314682
0.0913735
0.314768
0.255992
0.311995
0.268966
0.31483
0.224149
0.312582
0.215964
0.320767
0.194016
0.318335
0.279388
0.367861
0.288331
0.549281
0.45028
0.302591
-0.0542249
0.317726
0.0762384
0.334232
0.239487
0.345667
0.25753
0.357322
0.212494
0.365385
0.207901
0.374315
0.185086
0.378105
0.275598
0.408959
0.257478
0.481357
0.476883
0.299321
-0.0515361
0.322199
0.0533606
0.356371
0.205315
0.384904
0.228997
0.401036
0.196362
0.423538
0.185399
0.429726
0.178898
0.446114
0.25921
0.473066
0.230526
0.430608
0.523815
0.295951
-0.0454769
0.324556
0.0247555
0.373608
0.156263
0.416661
0.185944
0.435395
0.177628
0.46894
0.151855
0.477751
0.170086
0.499129
0.237833
0.533286
0.196368
0.386262
0.577632
0.29431
-0.0377765
0.324047
-0.00498206
0.382634
0.0976765
0.434179
0.134399
0.458091
0.153715
0.494557
0.115389
0.510537
0.154106
0.532787
0.215583
0.572361
0.156794
0.331808
0.626816
0.295383
-0.0311496
0.323106
-0.0327045
0.383762
0.03702
0.437187
0.0809747
0.468898
0.122004
0.503454
0.0808338
0.526541
0.131019
0.552955
0.189168
0.59364
0.116108
0.268123
0.657326
0.299559
-0.028698
0.323001
-0.0561469
0.376451
-0.01643
0.4244
0.033026
0.463113
0.0832904
0.493839
0.050108
0.522125
0.102733
0.560091
0.151203
0.597529
0.0786697
0.201982
0.66367
0.306511
-0.033199
0.321366
-0.0710017
0.354925
-0.0499888
0.38747
0.000480311
0.428392
0.0423688
0.451991
0.0265094
0.484364
0.0703603
0.538533
0.0970334
0.569328
0.0478744
0.135898
0.635411
0.307116
-0.0383047
0.299303
-0.0631889
0.296678
-0.0473635
0.305742
-0.00858403
0.335675
0.0124364
0.350583
0.0116006
0.390263
0.0306801
0.447863
0.0394335
0.47238
0.023358
0.0620303
0.546248
0.263705
0.200517
0.153153
0.144569
0.157005
0.168606
0.199286
0.23872
0.262078
0.324108
0.467069
-0.0959323
0.475269
-0.0837696
0.481613
-0.0730945
0.487095
-0.0584786
0.493074
-0.0422552
0.498796
-0.0234668
0.504843
-0.0029127
0.511142
0.0198905
0.517449
0.0442969
0.0700838
0.483897
-0.102947
0.489519
-0.0893913
0.494313
-0.077889
0.498687
-0.0628522
0.504532
-0.0480999
0.510307
-0.0292417
0.518235
-0.0108405
0.526107
0.0120182
0.535906
0.0344977
0.0603906
0.52328
-0.102412
0.525337
-0.0914483
0.527969
-0.0805205
0.530764
-0.0656476
0.534447
-0.0517829
0.538287
-0.0330812
0.543947
-0.0165007
0.549934
0.00603058
0.559112
0.0253198
0.0508566
0.573118
-0.0978978
0.570462
-0.0887922
0.568143
-0.0782017
0.567023
-0.0645282
0.566327
-0.0510866
0.567068
-0.0338218
0.569133
-0.018566
0.573258
0.00190557
0.580073
0.018505
0.0417515
0.617206
-0.0882875
0.608215
-0.0798016
0.599773
-0.06976
0.593158
-0.0579129
0.587518
-0.045447
0.584618
-0.0309215
0.583383
-0.017331
0.585889
-0.000600617
0.59083
0.0135645
0.0325902
0.642238
-0.0732
0.626874
-0.0644375
0.612936
-0.0558224
0.6015
-0.046477
0.592334
-0.0362801
0.586731
-0.0253188
0.583793
-0.0143927
0.585202
-0.00201033
0.589616
0.00915058
0.0232155
0.642032
-0.0515613
0.622526
-0.0449318
0.605427
-0.0387236
0.591516
-0.0325654
0.580868
-0.0256325
0.574247
-0.0186976
0.57093
-0.0110757
0.572002
-0.00308204
0.576454
0.00469803
0.0136449
0.611442
-0.0275918
0.591031
-0.024521
0.573647
-0.0213399
0.559646
-0.0185639
0.549158
-0.015145
0.542381
-0.01192
0.539168
-0.00786266
0.540142
-0.0040566
0.544696
0.000144515
0.00462477
0.527044
-0.00838797
0.510228
-0.00770513
0.49611
-0.00722179
0.484507
-0.00696147
0.475679
-0.00631623
0.469393
-0.00563421
0.466081
-0.00455041
0.465569
-0.00354527
0.467998
-0.00228399
-0.00117109
0.31572
0.308015
0.300793
0.293832
0.287515
0.281881
0.277331
0.273786
0.271502
0.00401706
0.0414642
-0.0454813
0.00747714
0.0914199
-0.09488
0.00867873
0.116413
-0.117615
0.00861595
0.127313
-0.12725
0.00848094
0.131652
-0.131517
0.00801354
0.134137
-0.133669
0.00687678
0.135073
-0.133936
0.00543913
0.133398
-0.13196
0.00420071
0.128358
-0.127119
0.118073
0.00360159
-0.117474
0.00520932
0.0362549
0.0111757
0.0854535
0.0150018
0.112587
0.0171227
0.125192
0.0184797
0.130295
0.0196177
0.132999
0.0203689
0.134322
0.0205989
0.133168
0.0205326
0.128424
0.11839
0.0202163
0.00599084
0.0302641
0.0143263
0.0771181
0.0207881
0.106125
0.0251133
0.120867
0.0280756
0.127333
0.0305872
0.130487
0.0329037
0.132005
0.0346736
0.131398
0.0357256
0.127372
0.118355
0.0357605
0.00621224
0.0240518
0.0165993
0.066731
0.0257011
0.0970235
0.0322974
0.114271
0.0370229
0.122607
0.04094
0.12657
0.0445389
0.128407
0.0476059
0.128331
0.0496846
0.125293
0.117804
0.0502356
0.005859
0.0181928
0.0176296
0.0549603
0.0293905
0.0852627
0.0385818
0.10508
0.0453067
0.115882
0.0506657
0.121211
0.0554113
0.123661
0.0595834
0.124159
0.0626362
0.122241
0.116646
0.0637936
0.00505144
0.0131414
0.0171086
0.0429031
0.0311081
0.0712632
0.0432955
0.0928922
0.0526377
0.10654
0.0598413
0.114007
0.0658758
0.117626
0.071165
0.118869
0.0753833
0.118022
0.114386
0.077644
0.0040125
0.00912887
0.015035
0.0318807
0.0299062
0.0563919
0.044741
0.0780575
0.0572734
0.0940078
0.0671777
0.104103
0.0751276
0.109677
0.0818123
0.112185
0.0873598
0.112475
0.110525
0.0912209
0.00298404
0.00614483
0.0119804
0.0228843
0.0257451
0.0426272
0.0415006
0.062302
0.0565893
0.0789192
0.069613
0.0910794
0.0803757
0.0989139
0.0892826
0.103278
0.096681
0.105076
0.104768
0.102438
0.00208241
0.00406242
0.00865033
0.0163164
0.0196985
0.0315791
0.033998
0.0480024
0.0495314
0.0633858
0.0645475
0.0760632
0.0780794
0.0853821
0.0898757
0.0914816
0.100134
0.094818
0.0956046
0.109297
0.00121085
0.00285157
0.0052658
0.0122614
0.0127901
0.0240547
0.0237533
0.0370393
0.0371665
0.0499726
0.0516202
0.0616095
0.0658925
0.0711097
0.0791844
0.0781897
0.0911244
0.082878
0.084908
0.101821
0.00030539
0.00254618
0.00195977
0.010607
0.00597086
0.0200436
0.0129755
0.0300347
0.0228534
0.0400948
0.0348325
0.0496304
0.0479514
0.0579908
0.0613851
0.064756
0.0744409
0.0698222
0.0732885
0.0860603
-0.000558453
0.00310463
-0.000850049
0.0108986
0.000330998
0.0188626
0.00385214
0.0265135
0.0100924
0.0338546
0.0188128
0.0409099
0.0294018
0.0474019
0.0411941
0.0529637
0.053539
0.0574773
0.0609643
0.0658632
-0.00111394
0.00421857
-0.00255108
0.0123358
-0.00308886
0.0194004
-0.00194597
0.0253706
0.00137913
0.0305295
0.00702377
0.0352653
0.0145687
0.0398569
0.0235195
0.044013
0.0334795
0.0475172
0.0501932
0.0442506
-0.00121988
0.00543845
-0.00304933
0.0141652
-0.00438402
0.0207351
-0.00467511
0.0256617
-0.00356456
0.0294189
-0.000835685
0.0325364
0.0034269
0.0355944
0.00902024
0.0384196
0.0158121
0.0407254
0.0422106
0.0237947
-0.00166271
0.00710117
-0.00424242
0.0167449
-0.00650924
0.0230019
-0.00800007
0.0271525
-0.0086364
0.0300552
-0.00841152
0.0323115
-0.00713222
0.0343151
-0.00464549
0.0359329
-0.000906831
0.0369867
0.0375419
0.00376185
-0.00228031
0.00938148
-0.0057402
0.0202048
-0.00893371
0.0261954
-0.0113738
0.0295926
-0.0130125
0.031694
-0.0139498
0.0332488
-0.0142237
0.0345889
-0.0136841
0.0353933
-0.0122117
0.0355143
0.0350958
-0.00976568
-0.00244409
0.0118256
-0.00630178
0.0240625
-0.0101142
0.0300078
-0.013487
0.0329654
-0.0163684
0.0345754
-0.018696
0.0355764
-0.0203524
0.0362453
-0.0213232
0.0363641
-0.0216536
0.0358447
0.0347984
-0.0213562
-0.00248587
0.0143114
-0.00666707
0.0282437
-0.0111571
0.0344978
-0.0155605
0.0373688
-0.0197041
0.0387191
-0.0233989
0.0392712
-0.026443
0.0392894
-0.0288518
0.038773
-0.0307134
0.0377064
0.0361708
-0.0320858
-0.00249325
0.0168047
-0.00693049
0.0326809
-0.0119379
0.0395051
-0.0170502
0.0424811
-0.0220214
0.0436903
-0.0266474
0.0438972
-0.0307833
0.0434252
-0.0344008
0.0423905
-0.0375431
0.0408487
0.038894
-0.0402663
-0.00228314
-0.00664114
-0.0117302
-0.0170375
-0.0223181
-0.0273952
-0.0321488
-0.0365291
-0.0405384
-0.0442165
0.0747409
0.292745
-0.281426
0.0603335
0.200448
-0.186041
0.056633
0.10364
-0.0999398
0.0637194
0.0182109
-0.0252973
0.0748425
-0.0345208
0.0233977
0.0880519
-0.058914
0.0457046
0.101193
-0.0632513
0.0501105
0.112982
-0.0566147
0.0448251
0.12348
-0.0456447
0.0351469
-0.0261512
0.0192744
0.0612145
0.297394
0.0521733
0.209489
0.0550429
0.100771
0.0666028
0.00665095
0.079882
-0.0478001
0.0935345
-0.0725665
0.106367
-0.0760832
0.117488
-0.0677358
0.127072
-0.0552289
-0.0320638
0.0450963
0.296548
0.0425166
0.212069
0.05284
0.0904474
0.0686475
-0.00915663
0.0843559
-0.0635085
0.0986332
-0.0868437
0.111201
-0.0886509
0.121606
-0.0781406
0.13022
-0.0638436
-0.0370819
0.0278659
0.292477
0.0332285
0.206706
0.0510382
0.0726377
0.0707083
-0.0288267
0.0885906
-0.0813908
0.103606
-0.101859
0.11598
-0.101025
0.125669
-0.0878292
0.133317
-0.0714918
-0.0412743
0.011755
0.284484
0.0256183
0.192843
0.0499489
0.0483071
0.0729895
-0.0518673
0.0927764
-0.101178
0.108553
-0.117635
0.120798
-0.11327
0.129819
-0.0968501
0.136544
-0.0782169
-0.044694
-0.00269811
0.277416
0.0195587
0.170586
0.0489463
0.0189195
0.0750077
-0.0779288
0.0966166
-0.122787
0.113229
-0.134248
0.125473
-0.125514
0.13397
-0.105347
0.139898
-0.0841459
-0.0474145
-0.0162907
0.272351
0.0140586
0.140237
0.0470295
-0.0140514
0.0759696
-0.106869
0.0995335
-0.146351
0.117194
-0.151908
0.129674
-0.137994
0.137885
-0.113558
0.14324
-0.0895003
-0.0495558
-0.0279696
0.268235
0.00784359
0.104424
0.0432035
-0.0494113
0.0750969
-0.138762
0.100982
-0.172236
0.120057
-0.170982
0.133102
-0.151039
0.141322
-0.121779
0.146385
-0.0945628
-0.0512831
-0.0379569
0.265925
-0.00050815
0.0669749
0.036776
-0.0866955
0.0718939
-0.17388
0.100654
-0.200996
0.121604
-0.191932
0.135596
-0.165031
0.14413
-0.130312
0.1492
-0.0996323
-0.0527866
-0.0462682
-0.0107808
0.0276521
0.0663416
0.0985618
0.121838
0.137145
0.146274
0.151633
0.0174309
0.0183374
-0.0357684
0.00839803
0.0090329
0.00386692
0.0045311
0.00271693
0.00114999
0.00530657
-0.00258964
0.00965586
-0.00434929
0.0142984
-0.00464252
0.0185822
-0.00428384
0.0215479
-0.0029657
-0.00153964
0.0774341
0.0633692
-0.122466
0.049081
0.037386
0.034537
0.0190751
0.0311792
0.00450783
0.0363662
-0.00777669
0.044892
-0.0128751
0.0537871
-0.0135376
0.0617247
-0.0122214
0.0673772
-0.00861824
-0.00449005
0.126914
0.13088
-0.194425
0.0844247
0.0798755
0.0620815
0.0414184
0.0562669
0.0103224
0.0613582
-0.0128679
0.0712587
-0.0227757
0.0822175
-0.0244963
0.0920455
-0.0220495
0.0996464
-0.0162191
-0.00871418
0.154919
0.209682
-0.23372
0.103575
0.13122
0.0756551
0.0693382
0.0681456
0.0178319
0.0731839
-0.0179062
0.08417
-0.0337618
0.0965501
-0.0368764
0.107615
-0.0331146
0.116732
-0.0253355
-0.0138737
0.165506
-0.23725
0.110685
0.0800832
0.0726178
0.0781094
0.0900522
0.103286
0.114997
0.124808
0.0094231
9.50843e-05
-0.00951819
0.0103876
-0.00096452
0.0122266
-0.00183899
0.0147596
-0.00253297
0.0177179
-0.00295832
0.0207497
-0.00303174
0.024011
-0.00326134
0.0269994
-0.00298837
0.031085
-0.00408558
-0.00468341
0.0247089
-3.20089e-06
-0.0246106
0.0274066
-0.00366228
0.0324225
-0.00685486
0.0394681
-0.00957862
0.0481861
-0.0116763
0.0584233
-0.013269
0.0708687
-0.0157067
0.0848432
-0.0169629
0.102993
-0.022235
-0.0241567
0.036941
-0.000559691
-0.0363845
0.0412143
-0.0079356
0.0489191
-0.0145596
0.0598272
-0.0204867
0.0736862
-0.0255353
0.0908386
-0.0304214
0.111872
-0.0367403
0.136162
-0.0412527
0.166125
-0.0521984
-0.0524566
0.0464623
-0.00174358
-0.0452784
0.0520625
-0.0135359
0.0618898
-0.0243869
0.075771
-0.0343679
0.0936507
-0.043415
0.116048
-0.0528183
0.1425
-0.0631931
0.173336
-0.0720885
0.206078
-0.0849405
-0.0800987
0.0536679
-0.0518099
0.0603483
0.0717219
0.0875896
0.107968
0.132794
0.160822
0.191171
0.215528
0.0602703
-0.0532019
0.0597147
-0.0667831
0.0535597
-0.0531231
0.0598337
0.0468771
-0.0532499
0.0599326
0.0400303
-0.0533235
0.0601703
0.0328739
-0.05324
0.0603965
0.0254005
-0.0528127
0.0602861
0.0177625
-0.0515951
0.059233
0.0102753
-0.0485965
0.0560837
0.0036736
-0.0414262
0.0480279
-0.0232284
0.0269021
0.0662316
-0.0460115
-0.073422
0.0588937
-0.0457852
0.0512076
-0.0455638
0.0431931
-0.0453091
0.0349517
-0.0449986
0.0266333
-0.0444943
0.0184277
-0.0433895
0.0106076
-0.0407764
0.00381538
-0.034634
-0.0194131
0.066918
-0.0379221
-0.0750074
0.0587321
-0.0375993
0.0504869
-0.0373186
0.042225
-0.0370472
0.033991
-0.0367646
0.0258377
-0.036341
0.0178597
-0.0354114
0.0102699
-0.0331866
0.00368352
-0.0280476
-0.0157296
0.0691144
-0.029562
-0.0774745
0.0607382
-0.0292232
0.0523198
-0.0289002
0.0438616
-0.0285891
0.0353777
-0.0282807
0.0269205
-0.0278838
0.0186197
-0.0271106
0.0107406
-0.0253075
0.00391036
-0.0212174
-0.0118192
0.0715873
-0.0209083
-0.080241
0.0628615
-0.0204973
0.0540621
-0.0201007
0.0451977
-0.0197246
0.0363
-0.0193831
0.027453
-0.0190367
0.0188373
-0.0184949
0.0107844
-0.0172547
0.0039318
-0.0143647
-0.0078874
0.074159
-0.0119031
-0.0831642
0.0650708
-0.0114092
0.0558901
-0.01092
0.0466207
-0.0104552
0.037289
-0.0100514
0.0279861
-0.00973385
0.0189461
-0.00945492
0.0106387
-0.00894731
0.00382419
-0.00755022
-0.0040632
0.0770882
-0.00252513
-0.0864662
0.0676196
-0.0019406
0.0580414
-0.00134179
0.0483449
-0.000758716
0.038535
-0.000241452
0.0286899
0.00011127
0.0190442
0.000190792
0.010191
-9.41664e-05
0.00329231
-0.000651494
-0.000770891
0.0802684
0.00718226
-0.0899758
0.0704712
0.0078566
0.0605799
0.00854956
0.0505892
0.00923199
0.0405028
0.00984495
0.0303516
0.0102625
0.020319
0.0102233
0.0109578
0.00926708
0.00346753
0.00683878
0.00269664
0.0833777
0.0171743
-0.0933697
0.0733136
0.0179206
0.0631833
0.0186799
0.0529939
0.0194213
0.0427588
0.0200801
0.0325171
0.0205042
0.0223996
0.0203408
0.0127792
0.0188874
0.00457263
0.0150454
0.00726927
0.0861001
-0.0963287
0.0758077
0.0654597
0.0550663
0.0446405
0.0342118
0.0238751
0.0139116
0.00513158
0.012506
-0.116335
-0.0136454
0.010042
-0.124655
0.00708899
-0.129007
0.00409217
-0.13094
0.0014545
-0.131032
-0.000777187