/*--------------------------------*- C++ -*----------------------------------*\
| =========                 |                                                 |
| \\      /  F ield         | OpenFOAM: The Open Source CFD Toolbox           |
|  \\    /   O peration     | Version:  2406                                  |
|   \\  /    A nd           | Website:  www.openfoam.com                      |
|    \\/     M anipulation  |                                                 |
\*---------------------------------------------------------------------------*/
FoamFile
{
    version     2.0;
    format      ascii;
    arch        "LSB;label=32;scalar=64";
    class       volVectorField;
    location    "1.05";
    object      U;
}
// * * * * * * * * * * * * * * * * * * * * * * * * * * * * * * * * * * * * * //

dimensions      [0 1 -1 0 0 0 0];

internalField   nonuniform List<vector> 
1800
(
(-0.000625779 -0.000351388 0)
(-0.00616976 0.00546063 -1.03225e-20)
(-0.0168348 0.0343197 -9.8273e-20)
(-0.010584 0.0708649 9.28873e-20)
(0.0222316 0.101613 1.45891e-19)
(0.0829221 0.12511 2.11443e-20)
(0.16788 0.143457 -3.08312e-20)
(0.273082 0.15904 -3.08463e-21)
(0.398516 0.170599 0)
(0.495443 0.217112 -2.91009e-20)
(-0.00678489 0.000822056 -4.28566e-21)
(-0.0096937 0.00235016 -3.53743e-20)
(-0.0106669 0.000537769 5.23439e-20)
(0.0231676 0.00513619 1.10025e-19)
(0.0917945 0.00644418 -3.19268e-20)
(0.191427 0.00670398 -1.94437e-19)
(0.315003 0.00742247 3.94232e-20)
(0.45549 0.00867166 1.17961e-19)
(0.610934 0.0116689 1.20544e-20)
(0.717263 0.0319352 2.12653e-20)
(-0.00939978 0.00650969 1.09908e-20)
(-0.00805626 0.00683137 -7.09627e-20)
(0.0185048 -0.00478218 -5.46422e-20)
(0.101559 -0.0196979 2.64837e-20)
(0.22727 -0.033701 -1.91937e-20)
(0.379787 -0.0424072 3.40568e-20)
(0.546111 -0.0445322 -4.39775e-20)
(0.716483 -0.0409668 -1.31087e-19)
(0.891396 -0.0274974 2.01267e-20)
(1.006 -0.0187287 -4.99262e-20)
(-0.00732195 0.0046117 1.28953e-21)
(0.00132562 -0.000161622 5.26408e-20)
(0.0869113 -0.0143737 -5.23014e-20)
(0.238734 -0.0351104 -3.65854e-22)
(0.428319 -0.0500582 1.18374e-19)
(0.631936 -0.0554213 -2.36513e-20)
(0.832405 -0.0520122 -5.57806e-20)
(1.02085 -0.0420264 -4.89442e-20)
(1.2011 -0.0229536 -2.37425e-20)
(1.31955 -0.0125129 5.02359e-20)
(-0.00275293 0.00563254 -1.52268e-20)
(0.0500994 -0.0123478 5.5979e-20)
(0.211353 -0.0279718 2.46112e-20)
(0.434615 -0.0427486 -6.82625e-20)
(0.679123 -0.0477664 -3.03179e-20)
(0.915577 -0.0416167 4.50702e-20)
(1.12852 -0.0272803 2.83942e-20)
(1.31537 -0.00806189 4.21443e-20)
(1.48303 0.0155918 -1.17788e-19)
(1.60473 0.0286243 -8.1055e-20)
(0.011951 -0.00071717 4.59782e-22)
(0.141225 -0.0259442 1.47819e-19)
(0.384722 -0.0369568 8.63559e-20)
(0.674099 -0.0376985 -9.90996e-20)
(0.954993 -0.0261414 8.25672e-20)
(1.20002 -0.00534811 -8.99233e-21)
(1.40412 0.0199235 8.33108e-20)
(1.5751 0.0459096 1.33911e-19)
(1.72436 0.0706607 -1.69684e-19)
(1.85428 0.0849062 -1.4281e-19)
(0.0458738 -0.00536475 -3.23395e-20)
(0.272249 -0.0342247 -2.36537e-19)
(0.600523 -0.0305984 2.30092e-20)
(0.937655 -0.0101555 2.65236e-19)
(1.22823 0.0203751 -1.5589e-20)
(1.45932 0.0548656 -1.75203e-19)
(1.64093 0.0885484 -1.13215e-19)
(1.78994 0.118515 3.2186e-19)
(1.92178 0.143278 3.67136e-19)
(2.04527 0.159311 3.17596e-20)
(0.099195 -0.00827103 3.65511e-20)
(0.438608 -0.0298877 4.20048e-20)
(0.842149 -0.00131921 -1.13368e-19)
(1.20154 0.042869 6.36256e-20)
(1.47852 0.089553 -4.72746e-21)
(1.68201 0.132946 -6.10334e-19)
(1.83514 0.170152 5.1956e-21)
(1.95949 0.200045 4.37279e-19)
(2.07023 0.222394 -2.8664e-19)
(2.17523 0.235708 -3.04976e-19)
(0.17028 -0.00533581 1.45406e-19)
(0.630501 -0.00410869 1.38949e-19)
(1.08865 0.0558547 -3.32683e-19)
(1.44441 0.120932 -8.49808e-20)
(1.69059 0.177074 -2.0063e-21)
(1.85801 0.222344 2.39366e-19)
(1.97875 0.257148 -4.43539e-19)
(2.07565 0.282602 -2.38951e-19)
(2.16214 0.29962 5.58554e-19)
(2.24438 0.308747 1.35319e-19)
(0.256566 0.00776475 2.40843e-20)
(0.832916 0.0485504 3.62974e-19)
(1.31824 0.140207 -3.229e-19)
(1.64754 0.217703 -1.40366e-19)
(1.85137 0.273719 1.43825e-19)
(1.97967 0.313078 -1.72055e-19)
(2.0695 0.340304 3.04367e-19)
(2.14245 0.358599 3.53561e-20)
(2.20962 0.369893 -2.30178e-19)
(2.27517 0.375554 -8.17065e-20)
(-0.0145236 0.250467 -2.01189e-20)
(-0.0379519 0.487323 7.71986e-20)
(-0.067532 0.585951 4.99979e-20)
(-0.0942673 0.626619 -6.52898e-20)
(-0.119286 0.640612 2.2174e-21)
(-0.142405 0.638973 2.13997e-20)
(-0.162931 0.626732 9.40288e-21)
(-0.180735 0.606502 -1.44133e-20)
(-0.196119 0.579934 3.5671e-23)
(-0.210441 0.548561 -2.11712e-20)
(-0.0324704 0.265318 2.12876e-20)
(-0.0711634 0.524297 1.2037e-22)
(-0.102911 0.631485 2.60969e-20)
(-0.127389 0.674415 -7.59469e-20)
(-0.148782 0.688875 -3.59108e-20)
(-0.168423 0.686128 -3.60284e-20)
(-0.185784 0.671894 -1.01648e-20)
(-0.200418 0.649421 0)
(-0.212633 0.620237 -1.13997e-20)
(-0.22417 0.585777 3.74794e-20)
(-0.0496254 0.264921 4.28075e-23)
(-0.104428 0.540562 -7.04417e-20)
(-0.138121 0.659577 -3.42814e-20)
(-0.159514 0.707976 4.56163e-20)
(-0.174603 0.72722 7.72225e-21)
(-0.187093 0.72943 -3.94376e-20)
(-0.196384 0.715248 3.96002e-20)
(-0.203413 0.689777 2.59395e-20)
(-0.209618 0.65797 1.02318e-19)
(-0.215817 0.621948 7.82383e-20)
(-0.0628959 0.249147 2.0513e-20)
(-0.13277 0.533725 6.55817e-20)
(-0.165664 0.665487 1.63026e-21)
(-0.180679 0.717472 7.29056e-20)
(-0.186494 0.734183 -1.88638e-20)
(-0.188194 0.736677 -1.99122e-21)
(-0.188681 0.732234 -7.92812e-21)
(-0.189349 0.719648 0)
(-0.189448 0.695355 -1.71981e-19)
(-0.187613 0.661569 -2.78535e-19)
(-0.0662319 0.214437 1.71327e-21)
(-0.14511 0.494279 1.30391e-21)
(-0.173368 0.640464 7.45978e-21)
(-0.180502 0.705122 -3.41763e-20)
(-0.179225 0.731083 3.83911e-21)
(-0.174502 0.739068 -2.76984e-20)
(-0.167775 0.736596 -1.32645e-20)
(-0.160052 0.726789 1.14209e-19)
(-0.150293 0.709895 -2.41951e-19)
(-0.13742 0.684066 -2.87276e-19)
(-0.0587995 0.162789 -2.0501e-21)
(-0.141618 0.418979 -2.25043e-20)
(-0.167884 0.577782 2.19471e-20)
(-0.17013 0.660678 3.92254e-20)
(-0.161972 0.702317 8.0302e-20)
(-0.149231 0.722741 -2.58588e-19)
(-0.13395 0.730314 -7.53547e-20)
(-0.116067 0.727642 2.46556e-19)
(-0.0940413 0.714763 -4.11265e-19)
(-0.0678766 0.690812 -2.7751e-19)
(-0.0430145 0.105565 -2.6897e-20)
(-0.122472 0.318208 5.66276e-20)
(-0.148934 0.479794 -7.6043e-21)
(-0.149151 0.579034 6.83054e-20)
(-0.135241 0.637081 6.758e-20)
(-0.113589 0.670896 -1.44768e-19)
(-0.0873793 0.689265 -2.74612e-19)
(-0.0577067 0.695788 -1.01043e-19)
(-0.0232597 0.691299 5.4126e-19)
(0.0177899 0.673483 3.86508e-19)
(-0.0238452 0.0550203 -8.2808e-22)
(-0.0907446 0.209741 -3.40723e-20)
(-0.116854 0.357926 -5.15667e-20)
(-0.117157 0.464264 -3.31362e-21)
(-0.0998469 0.535119 -1.66984e-20)
(-0.0708551 0.581837 8.26116e-20)
(-0.034242 0.612036 -1.45964e-19)
(0.0074562 0.629664 -4.77398e-20)
(0.0546518 0.635861 2.2338e-19)
(0.113841 0.624656 2.5781e-20)
(-0.00742259 0.0190453 -1.65632e-20)
(-0.0537914 0.111171 -1.39089e-20)
(-0.0760859 0.228476 2.15328e-20)
(-0.0765029 0.326099 5.26192e-20)
(-0.057455 0.39899 1.41043e-20)
(-0.0227286 0.452119 2.86985e-20)
(0.0236762 0.490728 -3.15567e-20)
(0.0779673 0.518651 3.22273e-20)
(0.138454 0.537877 -3.29395e-21)
(0.221613 0.53397 -3.98998e-19)
(0.000659814 0.00240285 -2.79769e-20)
(-0.0226933 0.0388115 -3.97981e-20)
(-0.0384258 0.113066 1.11611e-19)
(-0.0380305 0.185053 8.49436e-20)
(-0.0166944 0.24371 -3.31558e-20)
(0.0253178 0.289354 -1.14446e-19)
(0.0849078 0.325094 9.12723e-20)
(0.157733 0.354229 -9.38153e-20)
(0.241833 0.380152 -1.59342e-19)
(0.357263 0.382507 -2.81327e-19)
(-0.279476 0.376005 -4.87239e-19)
(-0.207822 0.0212935 -8.72909e-19)
(-0.00200349 -0.200433 -4.65662e-19)
(0.183353 -0.323655 2.80118e-19)
(0.387171 -0.348382 -2.40377e-20)
(0.536483 -0.316947 8.91186e-21)
(0.641101 -0.262717 -9.00738e-20)
(0.710554 -0.201413 3.63411e-20)
(0.752875 -0.15088 -2.36294e-20)
(0.783857 -0.0776352 -1.49829e-20)
(-0.283196 0.394422 -5.40858e-19)
(-0.253794 -0.0126676 1.49548e-20)
(-0.0378781 -0.258033 -1.22167e-19)
(0.167165 -0.384993 -1.82935e-19)
(0.384643 -0.401322 4.74934e-20)
(0.541716 -0.355516 -9.19105e-20)
(0.650199 -0.288581 5.49854e-20)
(0.720853 -0.217467 1.68738e-21)
(0.76357 -0.161385 -4.37297e-20)
(0.795141 -0.0822719 2.95999e-20)
(-0.258366 0.425412 5.34605e-19)
(-0.264893 -0.0330506 1.13072e-18)
(-0.0371238 -0.316504 1.63801e-19)
(0.182741 -0.448027 -2.78765e-19)
(0.403595 -0.456206 -7.73803e-21)
(0.559394 -0.395226 2.557e-21)
(0.665588 -0.315136 2.67654e-20)
(0.734325 -0.233775 -3.73122e-20)
(0.775776 -0.172216 1.83609e-21)
(0.807573 -0.0870621 -3.51264e-22)
(-0.199986 0.464813 7.3249e-19)
(-0.218578 -0.0396757 -2.05811e-20)
(0.0243753 -0.372647 1.34763e-19)
(0.252969 -0.510142 2.04711e-19)
(0.463604 -0.509517 3.94026e-21)
(0.603768 -0.433281 1.73338e-20)
(0.696384 -0.340593 -4.06518e-20)
(0.756544 -0.249355 0)
(0.793131 -0.18291 0)
(0.823512 -0.0919293 -6.43036e-23)
(-0.111232 0.502902 1.2655e-19)
(-0.111549 -0.0371962 -8.70142e-19)
(0.157771 -0.42485 -1.50547e-20)
(0.390537 -0.569577 -1.67935e-19)
(0.582061 -0.557879 -4.27864e-20)
(0.692549 -0.466252 2.89512e-20)
(0.756424 -0.362294 4.45656e-21)
(0.796844 -0.262534 -1.74788e-20)
(0.822085 -0.192534 -5.47844e-20)
(0.847056 -0.0966276 -2.10412e-21)
(-0.00424287 0.536857 1.43718e-20)
(0.0541433 -0.031561 -3.85544e-19)
(0.344714 -0.472303 -1.24597e-18)
(0.578065 -0.626225 1.46055e-20)
(0.755819 -0.60008 1.5714e-19)
(0.835835 -0.491086 1.8128e-20)
(0.860258 -0.376778 5.20648e-21)
(0.867886 -0.270711 -7.31906e-20)
(0.872708 -0.199418 9.17837e-22)
(0.884873 -0.100578 -2.57082e-20)
(0.114732 0.557168 -1.18442e-19)
(0.265135 -0.0222838 -2.90165e-20)
(0.548325 -0.511885 4.96098e-19)
(0.774774 -0.682357 -1.34539e-19)
(0.950779 -0.640704 -3.54702e-20)
(1.01911 -0.509247 2.57625e-20)
(1.01043 -0.382158 -9.78415e-21)
(0.979349 -0.271178 1.25657e-20)
(0.956359 -0.201168 1.883e-20)
(0.94606 -0.102748 9.86643e-21)
(0.240899 0.561938 -1.60899e-19)
(0.489142 0.00130176 1.11229e-18)
(0.757485 -0.534931 7.57862e-19)
(0.964179 -0.734051 5.43865e-20)
(1.13185 -0.684463 -1.50475e-19)
(1.20717 -0.527522 -8.08219e-20)
(1.18759 -0.381622 1.36325e-22)
(1.12695 -0.26384 1.95762e-20)
(1.0774 -0.195994 6.07704e-23)
(1.03833 -0.101947 -3.78596e-21)
(0.388354 0.543425 -5.68527e-19)
(0.716429 0.00926557 2.90408e-19)
(0.986761 -0.538949 -1.00266e-18)
(1.17074 -0.772472 6.58446e-19)
(1.30075 -0.727196 -2.21221e-19)
(1.37476 -0.549472 -4.67349e-20)
(1.36155 -0.38096 -5.5306e-20)
(1.28983 -0.252381 3.2192e-21)
(1.2248 -0.184799 2.51896e-21)
(1.16008 -0.0977736 7.88571e-22)
(0.501732 0.502801 -3.41127e-20)
(0.931452 0.0617333 -3.08183e-19)
(1.24947 -0.525018 -6.57283e-19)
(1.41588 -0.796059 4.56093e-19)
(1.48479 -0.761082 -2.40776e-19)
(1.52529 -0.571744 4.76763e-20)
(1.51337 -0.382779 -1.57755e-19)
(1.44325 -0.240904 -5.53705e-21)
(1.37593 -0.170634 -6.91025e-21)
(1.29668 -0.0911118 -1.09444e-20)
(0.773417 0.400625 3.89571e-19)
(1.27268 0.0195676 -3.19252e-22)
(1.64681 -0.558355 -5.31585e-20)
(1.79498 -0.818588 -1.51891e-19)
(1.7749 -0.783481 1.16485e-19)
(1.72799 -0.588909 -1.1285e-20)
(1.68316 -0.382516 1.97094e-20)
(1.60971 -0.225543 3.05225e-20)
(1.54636 -0.149875 -7.09266e-20)
(1.46213 -0.0803068 8.98684e-21)
(1.26398 0.284781 3.18579e-19)
(1.9416 -0.174457 -4.50534e-19)
(2.29596 -0.67927 -4.57521e-19)
(2.32564 -0.843849 3.86493e-20)
(2.17749 -0.740547 3.1601e-20)
(1.99539 -0.533581 1.62043e-19)
(1.85849 -0.337923 1.62994e-19)
(1.75228 -0.190996 -2.27679e-20)
(1.68806 -0.120971 8.65727e-20)
(1.61021 -0.0655118 1.94844e-20)
(1.98022 0.200781 7.70842e-20)
(2.56971 -0.284915 2.66878e-20)
(2.72312 -0.697812 6.39236e-20)
(2.59603 -0.801417 3.48565e-35)
(2.39428 -0.671397 -6.07499e-20)
(2.18466 -0.462536 -6.99117e-34)
(2.00321 -0.281568 2.19182e-20)
(1.86491 -0.152394 3.26202e-34)
(1.78611 -0.0923019 -9.68711e-22)
(1.70714 -0.0509057 -2.74319e-23)
(2.55391 0.110531 1.43654e-19)
(2.95181 -0.351699 6.10605e-19)
(2.97569 -0.699219 4.27571e-19)
(2.76097 -0.756656 0)
(2.48746 -0.601856 -7.01639e-20)
(2.24097 -0.389308 -1.38861e-19)
(2.0443 -0.220224 -1.36647e-19)
(1.90071 -0.109693 1.4537e-33)
(1.81844 -0.0612359 -4.7736e-20)
(1.73975 -0.0354122 -1.51243e-21)
(2.87817 0.0104583 1.35276e-19)
(3.14046 -0.37968 -8.52888e-21)
(3.12561 -0.649009 0)
(2.88921 -0.650864 0)
(2.58187 -0.480696 0)
(2.29017 -0.283711 0)
(2.0572 -0.143371 6.57037e-21)
(1.89712 -0.0620066 1.67432e-33)
(1.81126 -0.030214 -2.24672e-21)
(1.73537 -0.0221198 -3.30387e-34)
(3.03867 -0.0718312 8.82719e-20)
(3.25071 -0.391109 0)
(3.19353 -0.591763 0)
(2.86252 -0.561066 0)
(2.48381 -0.383688 0)
(2.18038 -0.19527 0)
(1.96569 -0.075739 -1.40394e-20)
(1.82719 -0.018631 8.25877e-20)
(1.75945 -0.00202427 -2.88547e-21)
(1.69775 -0.00861766 9.05806e-21)
(3.09996 -0.138804 0)
(3.2519 -0.396911 2.75887e-19)
(3.09416 -0.512921 1.63622e-19)
(2.6831 -0.418976 0)
(2.25848 -0.239616 -9.60319e-20)
(1.95014 -0.0884475 -9.60472e-20)
(1.7668 -0.00933285 -8.25421e-20)
(1.66612 0.0181094 -4.0243e-20)
(1.62976 0.0193537 3.34796e-20)
(1.58984 0.00259987 -1.08869e-20)
(2.99351 -0.18999 5.29357e-20)
(2.99467 -0.354209 -1.67607e-20)
(2.6506 -0.37853 -1.31863e-21)
(2.13367 -0.260765 -2.16756e-35)
(1.72126 -0.109431 2.18138e-20)
(1.49006 -0.00691136 -5.53364e-34)
(1.39203 0.0321915 -1.7034e-20)
(1.35554 0.0353523 -3.54341e-20)
(1.35965 0.0270568 -3.59128e-21)
(1.34795 0.00746279 6.73812e-21)
(2.42015 -0.199375 0)
(2.1554 -0.246256 -6.83445e-20)
(1.60363 -0.163081 -3.30611e-20)
(1.11391 -0.0577144 0)
(0.876067 0.00525557 1.70385e-20)
(0.814008 0.0333677 1.77717e-20)
(0.831534 0.0382144 -1.62219e-21)
(0.865458 0.0305361 1.11735e-20)
(0.905849 0.0209074 -1.61256e-20)
(0.920542 0.00694532 -5.22867e-21)
(0.881267 -0.084627 2.16674e-20)
(0.518252 -0.0263448 0)
(0.236624 -0.00167926 0)
(0.107756 0.00209136 0)
(0.0903486 0.00498083 0)
(0.130075 0.00931496 0)
(0.192081 0.0106159 -1.73673e-20)
(0.248668 0.00841255 5.74964e-35)
(0.293933 0.00554033 -4.13748e-21)
(0.317753 0.00184255 -7.3825e-21)
(2.39251 0.381136 3.9539e-19)
(2.39651 0.321209 1.80716e-19)
(2.36915 0.260215 2.92415e-19)
(2.31079 0.195131 -3.20083e-19)
(2.18962 0.136639 7.18859e-20)
(2.02229 0.081754 1.48109e-20)
(1.76445 0.0378241 8.36309e-20)
(1.46023 0.0174694 1.37263e-20)
(1.12628 -0.0289372 -2.00149e-20)
(0.767509 0.139355 6.0222e-20)
(2.50212 0.336077 -2.13641e-19)
(2.5388 0.291685 3.90404e-20)
(2.54259 0.237327 1.86161e-19)
(2.53321 0.192721 1.47367e-19)
(2.48859 0.131644 -2.2834e-19)
(2.39459 0.109676 1.02705e-19)
(2.30174 0.0489919 -2.64141e-20)
(2.05886 0.0756446 -1.28322e-20)
(1.94006 0.0220616 -2.80771e-20)
(1.456 0.0508402 -4.56932e-20)
(2.61894 0.285074 3.52505e-20)
(2.63537 0.25702 -1.56081e-19)
(2.68724 0.199121 -2.14285e-19)
(2.65365 0.179543 4.60739e-19)
(2.70196 0.110478 -1.05817e-20)
(2.58653 0.109263 2.61617e-21)
(2.64212 0.0488762 -8.36576e-20)
(2.425 0.0609991 -6.39928e-20)
(2.46776 0.0506274 2.8284e-20)
(2.13386 0.0284886 -5.37806e-21)
(2.72297 0.236854 5.79568e-20)
(2.71179 0.220853 -1.9462e-19)
(2.80125 0.16049 3.40449e-20)
(2.74505 0.154211 -1.50313e-19)
(2.84336 0.0913547 2.36757e-19)
(2.73089 0.0886153 -7.20454e-20)
(2.82963 0.0425406 5.08083e-20)
(2.67211 0.0307909 -6.81916e-20)
(2.74378 0.029439 -1.52121e-19)
(2.56354 0.00623381 -7.85502e-20)
(2.7693 0.193185 1.07369e-19)
(2.76724 0.179005 -3.11922e-19)
(2.85202 0.127757 -2.42782e-20)
(2.82408 0.117951 -2.41275e-20)
(2.9093 0.0702282 -9.23824e-21)
(2.85169 0.0591267 -2.07673e-21)
(2.92608 0.0232688 4.55174e-20)
(2.84666 0.00417234 -5.39334e-20)
(2.90011 -0.0107706 -9.3395e-20)
(2.81274 -0.0313132 -1.32384e-19)
(2.75908 0.148816 1.95895e-19)
(2.77697 0.132842 3.77347e-20)
(2.85079 0.092403 -2.18128e-19)
(2.85473 0.0773537 1.29292e-19)
(2.92377 0.0409306 1.13882e-19)
(2.91611 0.0261203 -7.34439e-20)
(2.9715 -0.00347098 1.16676e-19)
(2.95244 -0.021748 3.91647e-20)
(2.99203 -0.0434219 -1.545e-19)
(2.96299 -0.0680753 -1.99849e-19)
(2.69526 0.0983978 1.722e-20)
(2.72922 0.0831998 6.90777e-20)
(2.79459 0.0489546 -8.43362e-20)
(2.82148 0.0360267 -4.14882e-20)
(2.88226 0.00246554 1.17603e-19)
(2.90465 -0.0088608 3.85561e-20)
(2.95695 -0.0380608 9.83846e-20)
(2.97442 -0.0530502 8.80404e-20)
(3.01502 -0.0768333 2.47811e-20)
(3.02918 -0.100692 7.61004e-20)
(2.53775 0.050188 2.29119e-20)
(2.59096 0.0358311 -2.12287e-22)
(2.63219 0.00659937 -9.03938e-20)
(2.68436 0.000677018 -7.81489e-20)
(2.72078 -0.0338095 3.31731e-20)
(2.77377 -0.0344039 -4.00593e-20)
(2.80739 -0.0697999 -2.84962e-20)
(2.86172 -0.0764306 1.10609e-19)
(2.88926 -0.106619 -8.86395e-20)
(2.94698 -0.124226 -1.00976e-19)
(2.15859 9.91777e-05 7.1947e-20)
(2.21861 -0.0122216 -3.29552e-20)
(2.21485 -0.024905 -3.16779e-20)
(2.28689 -0.0333265 3.73713e-20)
(2.26708 -0.0505089 -2.11925e-20)
(2.34985 -0.0528605 8.67892e-22)
(2.32277 -0.0777541 -5.17847e-20)
(2.40655 -0.0748305 2.15087e-20)
(2.38118 -0.10632 2.77126e-20)
(2.46163 -0.103947 -3.10599e-20)
(1.224 -0.0134771 0)
(1.22563 -0.0174125 3.30326e-21)
(1.20726 -0.0199121 -4.67607e-20)
(1.21314 -0.0228516 -7.1968e-20)
(1.18148 -0.0239666 4.04932e-20)
(1.20014 -0.0288971 1.6106e-19)
(1.1481 -0.0312187 -1.15074e-20)
(1.18644 -0.0385684 -8.20448e-20)
(1.10504 -0.0435852 -8.78263e-21)
(1.16769 -0.0552732 4.08648e-21)
(1.42943 0.868096 -4.95404e-20)
(1.39753 0.900051 -1.02618e-19)
(1.38393 0.935011 -7.28642e-19)
(1.37359 0.973342 2.16957e-19)
(1.35988 1.01102 1.0474e-18)
(1.33714 1.04345 1.30137e-19)
(1.29614 1.05951 -8.28347e-20)
(1.21617 1.0391 -2.81056e-19)
(1.02961 0.919724 -3.07528e-19)
(0.549547 0.509218 -3.8983e-20)
(1.59659 0.847299 -4.35992e-19)
(1.56306 0.875601 1.2246e-18)
(1.53853 0.905922 5.33458e-19)
(1.52066 0.941031 -7.542e-19)
(1.50424 0.977322 2.44992e-19)
(1.48087 1.00879 2.21547e-19)
(1.43806 1.02305 7.07954e-19)
(1.35173 1.00137 -1.03774e-18)
(1.14425 0.881057 -5.4074e-20)
(0.605331 0.480776 1.69395e-19)
(1.7477 0.823912 1.18291e-19)
(1.71824 0.850374 9.38516e-19)
(1.68917 0.877074 1.75004e-20)
(1.66541 0.906992 -4.35565e-19)
(1.64476 0.938046 1.35521e-19)
(1.61816 0.964166 -3.80043e-20)
(1.57118 0.973003 -4.9623e-20)
(1.47638 0.947813 -3.7105e-19)
(1.24565 0.824995 6.15358e-20)
(0.649318 0.439927 -2.11055e-19)
(1.87754 0.792681 -4.80066e-19)
(1.85329 0.816501 4.26516e-19)
(1.82483 0.839369 -6.4404e-19)
(1.79838 0.863484 -2.30089e-19)
(1.7736 0.887609 1.27962e-18)
(1.7421 0.90613 -7.82291e-19)
(1.68901 0.907812 -8.68984e-19)
(1.58462 0.877086 3.86473e-19)
(1.32634 0.751921 -1.27073e-19)
(0.67573 0.389545 -5.45015e-20)
(1.9881 0.749672 5.94691e-19)
(1.96726 0.769566 4.65446e-19)
(1.94041 0.787633 -2.08805e-19)
(1.91279 0.805682 7.95108e-19)
(1.88461 0.822788 1.36646e-19)
(1.84762 0.832566 -3.44092e-19)
(1.78689 0.82638 4.58974e-19)
(1.66948 0.79132 -5.70774e-19)
(1.37842 0.663951 -6.53595e-19)
(0.680893 0.329747 -1.38458e-20)
(2.08204 0.694715 7.83506e-19)
(2.06168 0.709931 9.42705e-19)
(2.0356 0.723283 -9.19866e-19)
(2.00734 0.735657 -8.99211e-19)
(1.97477 0.74487 2.01439e-19)
(1.92971 0.745056 -6.2026e-19)
(1.86051 0.732316 -3.57532e-19)
(1.7249 0.692593 2.96044e-19)
(1.39776 0.563026 7.59047e-20)
(0.661435 0.263671 -2.69365e-21)
(2.15914 0.634513 7.15838e-19)
(2.13628 0.644749 -9.16244e-19)
(2.10795 0.652676 -7.74918e-19)
(2.07496 0.657506 5.52179e-19)
(2.03501 0.656829 -4.88145e-19)
(1.98373 0.649617 1.40553e-18)
(1.90607 0.632532 -1.93832e-19)
(1.74577 0.585907 -1.13407e-18)
(1.37764 0.453881 4.98565e-19)
(0.61523 0.195814 3.5848e-20)
(2.21794 0.570686 -4.64705e-19)
(2.18719 0.5757 -6.25545e-19)
(2.15174 0.57712 -7.98057e-19)
(2.11246 0.574567 3.48145e-20)
(2.0677 0.568112 2.60499e-19)
(2.01038 0.556223 2.58416e-19)
(1.91646 0.531997 5.33914e-19)
(1.72276 0.474578 -2.58975e-19)
(1.30994 0.34088 2.37797e-20)
(0.543413 0.131364 6.31684e-20)
(2.25679 0.504465 2.22599e-19)
(2.21662 0.504732 -8.12469e-20)
(2.17346 0.50165 3.86655e-19)
(2.12735 0.494746 1.03876e-18)
(2.07457 0.483328 -3.54515e-19)
(2.00333 0.464332 -1.21307e-18)
(1.8829 0.429171 8.6232e-19)
(1.6459 0.359648 7.9213e-19)
(1.19108 0.229352 -4.15429e-19)
(0.45256 0.0760164 -2.18044e-20)
(2.27693 0.439432 -4.42326e-19)
(2.22532 0.436681 -4.62068e-21)
(2.17186 0.429912 5.64978e-19)
(2.11522 0.418164 5.45104e-19)
(2.04829 0.399779 3.76088e-19)
(1.95383 0.370757 -5.92704e-19)
(1.7953 0.323369 5.52986e-20)
(1.50936 0.24507 -3.27628e-19)
(1.02666 0.128398 -4.71368e-19)
(0.353309 0.0343673 -5.15368e-21)
(0.44691 0.390233 1.37321e-20)
(0.410926 0.402209 -2.85033e-20)
(0.371928 0.4143 -7.13618e-21)
(0.330284 0.42611 4.73683e-21)
(0.285744 0.436803 -3.33657e-20)
(0.237803 0.444201 -6.28404e-20)
(0.185918 0.442724 1.13105e-20)
(0.129227 0.420155 -3.31257e-20)
(0.0686702 0.352596 9.48383e-20)
(0.0259082 0.187914 1.39366e-20)
(0.497026 0.483767 -2.37061e-20)
(0.461348 0.499362 9.21197e-21)
(0.422921 0.51499 -6.73126e-20)
(0.381821 0.530319 1.18732e-20)
(0.337647 0.544633 3.37784e-20)
(0.289705 0.555728 3.38978e-20)
(0.236978 0.55742 1.46758e-19)
(0.177826 0.535487 -5.61828e-20)
(0.110024 0.459337 6.52377e-20)
(0.0478698 0.252446 -1.21158e-20)
(0.564716 0.571152 -3.03884e-20)
(0.530548 0.590573 7.59518e-20)
(0.493864 0.610222 6.82771e-20)
(0.454446 0.629784 6.91666e-20)
(0.411631 0.648508 2.45421e-20)
(0.364341 0.664098 1.63895e-19)
(0.310896 0.669835 -5.63991e-20)
(0.24856 0.649532 -7.43367e-20)
(0.171001 0.565765 8.24582e-23)
(0.0811152 0.316797 1.09834e-20)
(0.634329 0.654827 1.89415e-19)
(0.600793 0.677702 1.1465e-19)
(0.565713 0.700489 -2.3145e-19)
(0.528353 0.723266 -1.06074e-19)
(0.487873 0.745557 -6.40263e-21)
(0.442998 0.764983 -7.90807e-20)
(0.391362 0.774039 -2.60264e-19)
(0.328617 0.754658 8.34648e-20)
(0.243043 0.663421 -5.98702e-20)
(0.121915 0.375422 -9.83573e-20)
(0.728462 0.72594 -4.41545e-20)
(0.696746 0.752302 -2.11827e-19)
(0.6638 0.778352 1.77707e-19)
(0.628469 0.804326 -7.89161e-20)
(0.589718 0.829862 -1.52643e-19)
(0.546096 0.852631 2.22496e-19)
(0.49469 0.864708 1.044e-19)
(0.42961 0.84654 -1.26622e-19)
(0.332957 0.749452 -2.63056e-19)
(0.172509 0.426655 4.55746e-20)
(0.827618 0.79083 -4.18767e-21)
(0.798143 0.819896 -8.34685e-21)
(0.768187 0.848025 -9.11556e-21)
(0.736038 0.876139 6.75181e-20)
(0.700454 0.904168 2.11429e-19)
(0.659665 0.929619 -2.09142e-19)
(0.609843 0.943907 -1.39603e-19)
(0.542953 0.926221 -4.4923e-20)
(0.434237 0.823398 1.04685e-19)
(0.229413 0.469703 1.4934e-19)
(0.930101 0.83981 -1.85019e-19)
(0.904748 0.872092 9.43406e-20)
(0.880098 0.902857 3.1717e-19)
(0.853112 0.933352 -2.07558e-19)
(0.822005 0.963742 -4.37836e-19)
(0.784808 0.991564 1.91413e-19)
(0.737107 1.0077 6.07505e-19)
(0.668618 0.990292 1.55668e-19)
(0.54646 0.882681 -2.98974e-20)
(0.291808 0.503236 2.13962e-19)
(1.03932 0.880057 -3.6228e-19)
(1.01237 0.912835 -1.27038e-19)
(0.989348 0.943923 3.27778e-19)
(0.966462 0.975551 -1.1389e-19)
(0.940835 1.00766 9.84383e-20)
(0.909227 1.03705 4.04534e-19)
(0.865737 1.05361 -4.23553e-19)
(0.797304 1.03514 -3.78606e-19)
(0.662503 0.922484 3.09794e-19)
(0.356122 0.523685 -7.31383e-21)
(1.16686 0.898048 -1.48897e-20)
(1.14786 0.932557 4.41977e-20)
(1.12883 0.962947 -2.45928e-19)
(1.10712 0.993922 -8.68869e-20)
(1.0819 1.02653 5.01521e-19)
(1.05089 1.05718 1.43022e-19)
(1.00738 1.07449 -1.16193e-19)
(0.935474 1.05577 0)
(0.784923 0.940311 -2.04716e-19)
(0.422355 0.530736 -1.07806e-19)
(1.2554 0.900489 0)
(1.24575 0.936775 0)
(1.24287 0.969897 6.80917e-19)
(1.23467 1.00191 1.51807e-19)
(1.21863 1.03392 -2.25004e-19)
(1.19306 1.06314 4.02005e-19)
(1.15146 1.07852 -2.68677e-19)
(1.0761 1.05813 -7.33468e-19)
(0.908366 0.939839 3.75811e-19)
(0.487633 0.526056 1.9729e-19)
(0.96971 -0.023446 -1.0399e-20)
(1.04757 0.104046 -8.36904e-21)
(0.998574 0.22414 6.91181e-21)
(0.975443 0.249981 5.08714e-21)
(0.941663 0.227841 1.79149e-20)
(0.909188 0.217905 3.04593e-20)
(0.88462 0.208536 -1.48207e-20)
(0.825857 0.23152 -2.203e-20)
(0.783833 0.25861 -8.90791e-20)
(0.608754 0.327973 7.37487e-20)
(0.969238 -0.0277225 -6.58234e-22)
(1.04807 0.104508 7.53215e-21)
(0.997739 0.231735 1.12213e-22)
(0.975218 0.259339 1.05253e-20)
(0.941533 0.236438 1.37732e-20)
(0.909315 0.226193 -4.31053e-20)
(0.890766 0.219104 -1.50334e-20)
(0.839844 0.24679 1.79849e-22)
(0.80603 0.292418 2.23716e-19)
(0.652489 0.396989 -7.50396e-23)
(0.968599 -0.0318651 1.86119e-21)
(1.04914 0.105569 1.33096e-20)
(0.997276 0.239733 -7.25615e-21)
(0.974859 0.268702 -1.29157e-21)
(0.939978 0.24476 -1.65205e-20)
(0.908091 0.233637 3.06183e-21)
(0.894604 0.227654 1.97747e-20)
(0.852988 0.260571 -1.84481e-20)
(0.827018 0.323733 1.1458e-19)
(0.706422 0.461052 -2.84557e-19)
(0.967721 -0.0359031 1.54502e-21)
(1.0509 0.107179 -1.68945e-21)
(0.997269 0.248256 -8.66238e-21)
(0.973824 0.278298 -2.73328e-20)
(0.936897 0.252846 3.59027e-20)
(0.906496 0.240218 2.55147e-20)
(0.897033 0.234211 -2.49848e-20)
(0.865199 0.2731 9.12505e-20)
(0.847846 0.351654 -1.02518e-19)
(0.765804 0.523366 -2.91226e-19)
(0.966539 -0.0398763 9.4035e-22)
(1.05366 0.109261 -9.41747e-21)
(0.997718 0.257533 3.07854e-21)
(0.971656 0.288357 4.42564e-20)
(0.933445 0.260546 1.3366e-20)
(0.905835 0.245784 5.51594e-20)
(0.899032 0.239107 3.0148e-20)
(0.876512 0.284834 7.15294e-20)
(0.866983 0.375828 -6.49906e-21)
(0.839295 0.576777 2.29468e-19)
(0.965053 -0.043893 6.25655e-22)
(1.05774 0.111777 2.5695e-22)
(0.998238 0.267835 -2.12775e-22)
(0.968982 0.298848 1.25116e-20)
(0.932236 0.267474 -4.35628e-20)
(0.907059 0.250392 7.90365e-21)
(0.901601 0.242907 -5.87678e-21)
(0.886607 0.296179 -2.10619e-19)
(0.888358 0.394862 0)
(0.918698 0.62805 -2.71393e-20)
(0.963303 -0.0481344 -7.06355e-22)
(1.06298 0.114727 -1.71134e-21)
(0.998372 0.279276 1.13387e-21)
(0.968311 0.30907 -6.15256e-20)
(0.935437 0.273179 -1.58854e-20)
(0.910499 0.254368 -7.0845e-20)
(0.905947 0.246027 4.5706e-21)
(0.896828 0.307396 6.39577e-21)
(0.911649 0.409577 -2.85783e-21)
(0.996968 0.666523 8.25661e-19)
(0.960986 -0.0524187 -1.46405e-20)
(1.06821 0.117831 -5.91043e-21)
(0.998914 0.291554 5.4219e-21)
(0.97218 0.31794 2.97725e-20)
(0.9436 0.277572 -7.12019e-20)
(0.916579 0.25804 1.69674e-20)
(0.914432 0.248545 -3.41954e-21)
(0.909606 0.318556 2.17153e-20)
(0.938792 0.419776 1.3609e-19)
(1.09925 0.711499 -6.91036e-20)
(0.957236 -0.0561015 2.75589e-21)
(1.07204 0.120773 2.81349e-21)
(1.00231 0.303733 -2.714e-21)
(0.981639 0.324804 6.45304e-20)
(0.957311 0.280792 7.09838e-21)
(0.927924 0.261778 2.69776e-20)
(0.932366 0.250381 -4.76418e-20)
(0.928585 0.328626 6.23645e-20)
(0.979831 0.417562 2.59385e-19)
(1.17477 0.727923 -6.44734e-19)
(0.951704 -0.0601115 1.09254e-22)
(1.07427 0.124754 2.10194e-20)
(1.0108 0.31546 9.45474e-22)
(0.998285 0.329538 -2.07671e-20)
(0.980903 0.282235 8.06016e-20)
(0.954992 0.265309 -3.66444e-20)
(0.968958 0.253008 -1.49266e-20)
(0.96135 0.341506 4.30543e-20)
(1.03408 0.437959 -1.0708e-19)
(1.30307 0.783576 3.79597e-19)
(0.943564 -0.0651044 -2.09635e-21)
(1.07271 0.122781 -6.70291e-21)
(1.03155 0.324055 -4.5534e-21)
(1.0357 0.336189 -4.39101e-20)
(1.04213 0.284582 -4.74451e-20)
(1.03428 0.269198 -4.53429e-20)
(1.05822 0.248461 1.30924e-20)
(1.04754 0.34738 -1.34426e-19)
(1.0975 0.377213 -4.514e-19)
(1.31682 0.759816 -8.10883e-20)
(0.933477 -0.0664589 -2.64414e-20)
(1.0553 0.105275 -7.07862e-21)
(1.07218 0.315437 1.39496e-21)
(1.11987 0.334187 -5.55747e-23)
(1.18288 0.274548 2.87472e-20)
(1.1739 0.268923 6.34822e-20)
(1.27232 0.234684 1.48616e-20)
(1.18519 0.349725 1.11358e-19)
(1.3536 0.337773 1.85373e-19)
(1.36864 0.644289 3.28412e-19)
(0.921454 -0.0676033 -2.81373e-21)
(1.04134 0.0845023 -4.06931e-21)
(1.11932 0.284681 4.74376e-21)
(1.21681 0.31024 8.41622e-21)
(1.34599 0.256913 4.75661e-35)
(1.30033 0.249624 -6.8724e-21)
(1.53277 0.22665 -4.50164e-34)
(1.29129 0.336267 1.81481e-20)
(1.69279 0.305322 -4.73218e-20)
(1.48125 0.566707 -2.54459e-19)
(0.912979 -0.0620563 2.19408e-20)
(1.02407 0.0507112 -3.46993e-35)
(1.15396 0.231096 -4.7987e-21)
(1.29505 0.264385 8.59174e-21)
(1.47664 0.234344 -8.52139e-21)
(1.39803 0.212002 -1.22673e-20)
(1.7347 0.219601 -5.52429e-34)
(1.41039 0.3094 -6.0032e-20)
(1.91702 0.267571 -1.18036e-19)
(1.66547 0.512326 2.76206e-19)
(0.91347 -0.0520117 0)
(1.01121 0.0117769 -7.1271e-35)
(1.16417 0.161095 0)
(1.34444 0.202772 0)
(1.54132 0.208219 0)
(1.48643 0.166463 0)
(1.81146 0.202639 -3.78719e-34)
(1.55778 0.280857 0)
(1.98194 0.220344 -1.76638e-20)
(1.86139 0.451651 1.60344e-19)
(0.920555 -0.0420156 3.55502e-21)
(1.01068 -0.0240039 -1.04243e-21)
(1.1583 0.0835045 -5.45247e-21)
(1.3577 0.133034 0)
(1.54928 0.175079 0)
(1.55221 0.120718 6.79496e-21)
(1.79847 0.178923 3.61438e-20)
(1.68866 0.253701 -1.34815e-20)
(1.96848 0.168105 -2.68278e-20)
(2.01369 0.373939 1.06473e-19)
(0.929312 -0.0360383 -4.79252e-20)
(1.02846 -0.0592309 -2.67824e-22)
(1.1392 0.00705288 -6.37042e-21)
(1.32822 0.0657429 -2.49445e-20)
(1.49836 0.12917 -1.27395e-20)
(1.5653 0.0799353 -3.37418e-21)
(1.71532 0.147795 -3.19164e-20)
(1.7606 0.218339 -1.0753e-20)
(1.92266 0.120421 -5.35038e-20)
(2.08123 0.292247 1.29434e-19)
(0.935499 -0.0357784 -6.19851e-21)
(1.06596 -0.0823017 -1.39979e-20)
(1.08928 -0.0495859 -7.2639e-21)
(1.23693 0.0153628 -6.14961e-21)
(1.34773 0.0770276 3.61282e-35)
(1.48816 0.0454011 7.829e-21)
(1.50515 0.108544 -7.82591e-34)
(1.73717 0.163238 -1.31787e-20)
(1.78873 0.075826 1.87375e-20)
(2.02548 0.213323 2.29663e-20)
(0.935699 -0.0507722 1.33699e-19)
(1.06603 -0.0923463 -6.6545e-21)
(0.941871 -0.0761007 -8.74578e-21)
(1.00025 -0.0145413 1.33749e-20)
(1.04399 0.0265941 6.12625e-21)
(1.17906 0.0201584 1.35901e-20)
(1.12963 0.0627647 7.90103e-21)
(1.49477 0.0792767 -2.39939e-20)
(1.42614 0.0423677 -2.11968e-20)
(1.74435 0.121194 8.13247e-20)
(0.870679 -0.0368049 7.21263e-21)
(0.837795 -0.0635568 -6.38473e-35)
(0.513807 -0.0411917 -9.06866e-21)
(0.484758 -0.00577884 0)
(0.486674 0.00568126 0)
(0.548602 0.00885297 7.92966e-21)
(0.558592 0.0174256 -8.90717e-36)
(0.790919 0.021292 -1.31731e-20)
(0.754126 0.0172486 -2.77949e-20)
(1.01577 0.0411063 -3.62701e-20)
(1.5695 0.782865 1.5633e-19)
(1.68218 0.77561 -6.95791e-20)
(1.80566 0.75869 -3.25853e-21)
(1.91939 0.733057 6.34593e-20)
(2.02202 0.69607 -2.62263e-19)
(2.11474 0.650034 -4.72557e-19)
(2.19631 0.60004 -2.19426e-19)