/*--------------------------------*- C++ -*----------------------------------*\
| =========                 |                                                 |
| \\      /  F ield         | OpenFOAM: The Open Source CFD Toolbox           |
|  \\    /   O peration     | Version:  2406                                  |
|   \\  /    A nd           | Website:  www.openfoam.com                      |
|    \\/     M anipulation  |                                                 |
\*---------------------------------------------------------------------------*/
FoamFile
{
    version     2.0;
    format      ascii;
    arch        "LSB;label=32;scalar=64";
    class       volVectorField;
    location    "1.85";
    object      flux;
}
// * * * * * * * * * * * * * * * * * * * * * * * * * * * * * * * * * * * * * //

dimensions      [0 1 -1 1 0 0 0];

internalField   nonuniform List<vector> 
2500
(
(0.000959469 0.000959469 0)
(0.00287476 0.000965451 0)
(0.00478493 0.00097766 0)
(0.00668859 0.000995937 0)
(0.00858044 0.00102032 0)
(0.0104569 0.00105082 0)
(0.0123142 0.00108748 0)
(0.0141484 0.00113031 0)
(0.0159553 0.00117934 0)
(0.0177305 0.00123458 0)
(0.0194691 0.00129607 0)
(0.0211661 0.0013638 0)
(0.0228162 0.00143777 0)
(0.0244138 0.00151798 0)
(0.0259527 0.00160439 0)
(0.0274269 0.00169697 0)
(0.0288296 0.00179564 0)
(0.030154 0.0019003 0)
(0.0313932 0.00201084 0)
(0.0325397 0.0021271 0)
(0.0335862 0.00224888 0)
(0.0345252 0.00237595 0)
(0.0353492 0.00250803 0)
(0.0360506 0.0026448 0)
(0.0366223 0.00278587 0)
(0.0370571 0.00293083 0)
(0.0373483 0.0030792 0)
(0.0374894 0.00323042 0)
(0.0374747 0.00338391 0)
(0.037299 0.00353903 0)
(0.0369578 0.00369507 0)
(0.0364477 0.00385127 0)
(0.035766 0.00400683 0)
(0.0349111 0.00416091 0)
(0.0338826 0.00431262 0)
(0.0326815 0.00446105 0)
(0.0313097 0.00460526 0)
(0.0297709 0.00474431 0)
(0.0280699 0.00487724 0)
(0.0262129 0.00500311 0)
(0.0242079 0.00512099 0)
(0.0220637 0.00523 0)
(0.0197909 0.00532929 0)
(0.0174012 0.00541807 0)
(0.0149075 0.00549564 0)
(0.0123238 0.00556136 0)
(0.00966482 0.00561472 0)
(0.00694631 0.00565527 0)
(0.00418462 0.00568248 0)
(0.00139754 0.0056949 0)
(0.000965451 0.00287476 0)
(0.00289295 0.00289295 0)
(0.00481541 0.00292951 0)
(0.00673125 0.00298432 0)
(0.00863533 0.00305745 0)
(0.0105241 0.00314897 0)
(0.0123937 0.00325894 0)
(0.0142403 0.00338745 0)
(0.0160596 0.00353456 0)
(0.0178472 0.00370033 0)
(0.0195983 0.00388483 0)
(0.0213078 0.00408807 0)
(0.0229704 0.00431008 0)
(0.0245804 0.0045508 0)
(0.0261317 0.00481017 0)
(0.0276181 0.00508805 0)
(0.0290329 0.00538423 0)
(0.0303692 0.00569844 0)
(0.0316199 0.00603031 0)
(0.0327777 0.00637937 0)
(0.033835 0.00674505 0)
(0.0347843 0.00712664 0)
(0.035618 0.00752331 0)
(0.0363285 0.00793409 0)
(0.0369084 0.00835786 0)
(0.0373505 0.00879332 0)
(0.0376479 0.00923905 0)
(0.0377941 0.00969343 0)
(0.0377833 0.0101547 0)
(0.0376101 0.0106208 0)
(0.0372701 0.0110898 0)
(0.0367595 0.0115593 0)
(0.0360756 0.0120269 0)
(0.0352169 0.0124902 0)
(0.0341828 0.0129463 0)
(0.0329741 0.0133926 0)
(0.031593 0.0138263 0)
(0.0300429 0.0142445 0)
(0.0283287 0.0146443 0)
(0.0264567 0.0150229 0)
(0.0244347 0.0153775 0)
(0.022272 0.0157055 0)
(0.019979 0.0160042 0)
(0.0175676 0.0162713 0)
(0.0150508 0.0165047 0)
(0.0124428 0.0167024 0)
(0.00975873 0.0168629 0)
(0.00701407 0.016985 0)
(0.00422425 0.0170676 0)
(0.00140996 0.0171075 0)
(0.00097766 0.00478493 0)
(0.00292951 0.00481541 0)
(0.0048763 0.0048763 0)
(0.00681653 0.00496767 0)
(0.00874509 0.00508961 0)
(0.0106584 0.00524223 0)
(0.0125527 0.00542564 0)
(0.0144241 0.00563996 0)
(0.0162682 0.00588533 0)
(0.0180807 0.00616186 0)
(0.0198568 0.00646964 0)
(0.0215913 0.00680874 0)
(0.0232789 0.00717915 0)
(0.0249139 0.00758085 0)
(0.02649 0.00801371 0)
(0.0280009 0.00847751 0)
(0.02944 0.00897193 0)
(0.0308001 0.00949651 0)
(0.0320741 0.0100507 0)
(0.0332544 0.0106336 0)
(0.0343334 0.0112444 0)
(0.0353034 0.0118818 0)
(0.0361566 0.0125446 0)
(0.0368852 0.013231 0)
(0.0374816 0.0139393 0)
(0.0379383 0.0146672 0)
(0.0382484 0.0154125 0)
(0.038405 0.0161723 0)
(0.0384021 0.0169437 0)
(0.0382341 0.0177236 0)
(0.0378963 0.0185082 0)
(0.0373848 0.019294 0)
(0.0366968 0.0200767 0)
(0.0358304 0.0208522 0)
(0.0347851 0.021616 0)
(0.0335615 0.0223635 0)
(0.0321616 0.0230899 0)
(0.0305889 0.0237905 0)
(0.0288483 0.0244604 0)
(0.0269462 0.0250948 0)
(0.0248904 0.0256892 0)
(0.0226903 0.0262389 0)
(0.0203567 0.0267397 0)
(0.0179017 0.0271875 0)
(0.0153386 0.0275788 0)
(0.012682 0.0279103 0)
(0.00994741 0.0281792 0)
(0.00715098 0.0283835 0)
(0.0043071 0.0285216 0)
(0.00143743 0.0285905 0)
(0.000995937 0.00668859 0)
(0.00298432 0.00673125 0)
(0.00496767 0.00681653 0)
(0.00694456 0.00694456 0)
(0.00890988 0.00711544 0)
(0.0108601 0.00732934 0)
(0.0127915 0.0075864 0)
(0.0147 0.00788683 0)
(0.0165815 0.00823081 0)
(0.0184315 0.0086185 0)
(0.0202451 0.00905006 0)
(0.0220173 0.00952559 0)
(0.0237425 0.0100451 0)
(0.0254149 0.0106086 0)
(0.0270284 0.0112159 0)
(0.0285763 0.0118667 0)
(0.0300519 0.0125606 0)
(0.031448 0.013297 0)
(0.032757 0.014075 0)
(0.0339714 0.0148937 0)
(0.0350832 0.0157516 0)
(0.0360845 0.0166472 0)
(0.0369672 0.0175786 0)
(0.0377232 0.0185435 0)
(0.0383446 0.0195394 0)
(0.0388236 0.0205632 0)
(0.0391529 0.0216116 0)
(0.0393254 0.0226808 0)
(0.0393346 0.0237667 0)
(0.0391746 0.0248646 0)
(0.0388405 0.0259697 0)
(0.0383279 0.0270766 0)
(0.0376338 0.0281796 0)
(0.0367561 0.0292726 0)
(0.035694 0.0303495 0)
(0.034448 0.0314036 0)
(0.03302 0.0324283 0)
(0.0314134 0.0334168 0)
(0.029633 0.0343623 0)
(0.0276855 0.0352579 0)
(0.0255788 0.0360971 0)
(0.0233225 0.0368734 0)
(0.0209276 0.0375807 0)
(0.0184067 0.0382133 0)
(0.0157735 0.038766 0)
(0.0130433 0.0392343 0)
(0.010232 0.039614 0)
(0.00735643 0.0399021 0)
(0.00443125 0.0400959 0)
(0.00147891 0.0401931 0)
(0.00102032 0.00858044 0)
(0.00305745 0.00863533 0)
(0.00508961 0.00874509 0)
(0.00711544 0.00890988 0)
(0.00912986 0.00912986 0)
(0.0111294 0.00940523 0)
(0.0131102 0.00973622 0)
(0.0150685 0.0101231 0)
(0.0169999 0.0105661 0)
(0.0189 0.0110654 0)
(0.0207639 0.0116214 0)
(0.0225864 0.0122341 0)
(0.024362 0.0129036 0)
(0.0260846 0.0136299 0)
(0.0277481 0.0144129 0)
(0.0293457 0.0152521 0)
(0.0308703 0.0161472 0)
(0.0323145 0.0170973 0)
(0.0336708 0.0181014 0)
(0.034931 0.0191582 0)
(0.036087 0.0202661 0)
(0.0371304 0.0214229 0)
(0.0380529 0.0226264 0)
(0.038846 0.0238737 0)
(0.0395012 0.0251613 0)
(0.0400105 0.0264856 0)
(0.040366 0.0278421 0)
(0.0405601 0.0292261 0)
(0.0405859 0.0306322 0)
(0.0404372 0.0320545 0)
(0.0401083 0.0334866 0)
(0.0395947 0.0349215 0)
(0.0388929 0.0363518 0)
(0.0380004 0.0377699 0)
(0.0369161 0.0391674 0)
(0.0356403 0.0405359 0)
(0.0341748 0.0418667 0)
(0.0325228 0.0431509 0)
(0.0306894 0.0443795 0)
(0.028681 0.0455438 0)
(0.0265058 0.0466349 0)
(0.0241739 0.0476446 0)
(0.0216966 0.0485647 0)
(0.0190871 0.0493878 0)
(0.0163596 0.0501071 0)
(0.01353 0.0507165 0)
(0.0106153 0.0512107 0)
(0.0076328 0.0515854 0)
(0.00459813 0.0518372 0)
(0.0015347 0.0519636 0)
(0.00105082 0.0104569 0)
(0.00314897 0.0105241 0)
(0.00524223 0.0106584 0)
(0.00732934 0.0108601 0)
(0.00940523 0.0111294 0)
(0.0114665 0.0114665 0)
(0.0135093 0.0118717 0)
(0.0155299 0.0123454 0)
(0.0175239 0.0128879 0)
(0.0194868 0.0134996 0)
(0.0214138 0.0141807 0)
(0.0232995 0.0149315 0)
(0.0251384 0.0157521 0)
(0.0269242 0.0166425 0)
(0.0286506 0.0176027 0)
(0.0303106 0.0186322 0)
(0.0318971 0.0197304 0)
(0.0334022 0.0208966 0)
(0.0348179 0.0221295 0)
(0.0361361 0.0234276 0)
(0.037348 0.0247889 0)
(0.0384449 0.0262111 0)
(0.0394179 0.0276911 0)
(0.0402581 0.0292255 0)
(0.0409565 0.0308104 0)
(0.0415045 0.032441 0)
(0.0418935 0.0341122 0)
(0.0421155 0.035818 0)
(0.0421629 0.0375517 0)
(0.0420289 0.0393063 0)
(0.0417074 0.0410737 0)
(0.0411932 0.0428455 0)
(0.0404823 0.0446126 0)
(0.0395717 0.0463652 0)
(0.0384601 0.0480933 0)
(0.0371473 0.0497862 0)
(0.0356349 0.0514332 0)
(0.0339262 0.0530232 0)
(0.0320259 0.054545 0)
(0.0299409 0.0559876 0)
(0.0276796 0.0573401 0)
(0.0252522 0.058592 0)
(0.0226709 0.0597332 0)
(0.0199491 0.0607544 0)
(0.0171022 0.061647 0)
(0.0141469 0.0624032 0)
(0.0111009 0.0630166 0)
(0.0079829 0.0634816 0)
(0.00480948 0.063794 0)
(0.00160536 0.0639509 0)
(0.00108748 0.0123142 0)
(0.00325894 0.0123937 0)
(0.00542564 0.0125527 0)
(0.0075864 0.0127915 0)
(0.00973622 0.0131102 0)
(0.0118717 0.0135093 0)
(0.0139891 0.0139891 0)
(0.0160847 0.0145501 0)
(0.0181541 0.0151928 0)
(0.0201928 0.0159174 0)
(0.0221958 0.0167246 0)
(0.0241578 0.0176145 0)
(0.026073 0.0185875 0)
(0.0279352 0.0196436 0)
(0.0297377 0.0207828 0)
(0.0314734 0.0220046 0)
(0.0331347 0.0233086 0)
(0.0347136 0.0246937 0)
(0.0362018 0.0261587 0)
(0.0375904 0.0277019 0)
(0.0388704 0.0293209 0)
(0.0400326 0.031013 0)
(0.0410674 0.0327749 0)
(0.0419653 0.0346025 0)
(0.0427167 0.0364912 0)
(0.0433123 0.0384354 0)
(0.0437429 0.040429 0)
(0.0439996 0.042465 0)
(0.0440743 0.0445357 0)
(0.0439592 0.0466323 0)
(0.0436475 0.0487455 0)
(0.0431336 0.0508652 0)
(0.0424125 0.0529804 0)
(0.0414811 0.0550794 0)
(0.0403371 0.0571502 0)
(0.0389802 0.05918 0)
(0.0374117 0.0611558 0)
(0.0356346 0.0630641 0)
(0.0336538 0.0648915 0)
(0.0314761 0.0666246 0)
(0.0291102 0.0682502 0)
(0.026567 0.0697554 0)
(0.0238591 0.0711281 0)
(0.0210008 0.0723568 0)
(0.0180084 0.0734311 0)
(0.0148996 0.0743414 0)
(0.0116936 0.0750799 0)
(0.0084102 0.0756398 0)
(0.00506744 0.076016 0)
(0.0016916 0.0762049 0)
(0.00113031 0.0141484 0)
(0.00338745 0.0142403 0)
(0.00563996 0.0144241 0)
(0.00788683 0.0147 0)
(0.0101231 0.0150685 0)
(0.0123454 0.0155299 0)
(0.0145501 0.0160847 0)
(0.0167335 0.0167335 0)
(0.0188912 0.0174768 0)
(0.0210186 0.0183153 0)
(0.0231109 0.0192494 0)
(0.0251625 0.0202797 0)
(0.0271674 0.0214065 0)
(0.0291195 0.02263 0)
(0.0310116 0.0239502 0)
(0.0328365 0.0253668 0)
(0.0345862 0.0268793 0)
(0.0362523 0.0284867 0)
(0.0378261 0.0301876 0)
(0.0392982 0.0319801 0)
(0.0406592 0.0338617 0)
(0.0418989 0.0358295 0)
(0.0430074 0.0378794 0)
(0.0439743 0.0400072 0)
(0.0447894 0.0422073 0)
(0.0454423 0.0444736 0)
(0.0459231 0.0467989 0)
(0.0462221 0.0491753 0)
(0.0463302 0.0515936 0)
(0.0462388 0.0540439 0)
(0.0459403 0.0565153 0)
(0.045428 0.0589959 0)
(0.0446965 0.0614729 0)
(0.0437416 0.0639326 0)
(0.0425607 0.0663608 0)
(0.0411529 0.0687425 0)
(0.039519 0.0710621 0)
(0.0376619 0.073304 0)
(0.0355864 0.075452 0)
(0.0332996 0.0774903 0)
(0.0308104 0.0794031 0)
(0.0281302 0.0811751 0)
(0.0252722 0.0827919 0)
(0.022252 0.0842396 0)
(0.0190868 0.0855057 0)
(0.0157957 0.086579 0)
(0.0123992 0.0874498 0)
(0.00891896 0.0881101 0)
(0.00537459 0.0885538 0)
(0.00179429 0.0887767 0)
(0.00117934 0.0159553 0)
(0.00353456 0.0160596 0)
(0.00588533 0.0162682 0)
(0.00823081 0.0165815 0)
(0.0105661 0.0169999 0)
(0.0128879 0.0175239 0)
(0.0151928 0.0181541 0)
(0.0174768 0.0188912 0)
(0.0197359 0.0197359 0)
(0.0219654 0.020689 0)
(0.0241602 0.0217512 0)
(0.0263149 0.022923 0)
(0.0284233 0.0242052 0)
(0.0304789 0.0255979 0)
(0.0324746 0.0271014 0)
(0.0344025 0.0287154 0)
(0.0362546 0.0304396 0)
(0.0380219 0.0322728 0)
(0.0396952 0.0342138 0)
(0.0412645 0.0362605 0)
(0.0427198 0.0384104 0)
(0.0440503 0.04066 0)
(0.0452451 0.0430051 0)
(0.0462931 0.0454409 0)
(0.0471831 0.0479613 0)
(0.047904 0.0505594 0)
(0.0484446 0.0532271 0)
(0.0487943 0.0559554 0)
(0.0489429 0.058734 0)
(0.0488809 0.0615515 0)
(0.0485995 0.0643955 0)
(0.0480911 0.0672522 0)
(0.0473492 0.0701069 0)
(0.046369 0.072944 0)
(0.0451469 0.0757468 0)
(0.0436816 0.0784979 0)
(0.0419732 0.0811793 0)
(0.0400245 0.0837726 0)
(0.0378401 0.0862591 0)
(0.0354272 0.08862 0)
(0.0327951 0.0908368 0)
(0.0299558 0.0928917 0)
(0.0269235 0.0947675 0)
(0.0237146 0.0964478 0)
(0.0203478 0.097918 0)
(0.0168438 0.0991648 0)
(0.0132247 0.100177 0)
(0.00951425 0.100944 0)
(0.00573402 0.10146 0)
(0.00191446 0.101719 0)
(0.00123458 0.0177305 0)
(0.00370033 0.0178472 0)
(0.00616186 0.0180807 0)
(0.0086185 0.0184315 0)
(0.0110654 0.0189 0)
(0.0134996 0.0194868 0)
(0.0159174 0.0201928 0)
(0.0183153 0.0210186 0)
(0.020689 0.0219654 0)
(0.0230339 0.0230339 0)
(0.0253449 0.0242251 0)
(0.0276165 0.0255399 0)
(0.0298423 0.026979 0)
(0.0320157 0.0285429 0)
(0.0341291 0.030232 0)
(0.0361746 0.0320464 0)
(0.0381436 0.0339855 0)
(0.0400266 0.0360486 0)
(0.0418138 0.0382343 0)
(0.0434948 0.0405405 0)
(0.0450586 0.0429647 0)
(0.0464937 0.0455031 0)
(0.0477884 0.0481513 0)
(0.0489305 0.050904 0)
(0.0499078 0.0537545 0)
(0.0507081 0.0566953 0)
(0.0513191 0.0597175 0)
(0.051729 0.0628109 0)
(0.0519263 0.065964 0)
(0.0519003 0.0691641 0)
(0.051641 0.072397 0)
(0.0511395 0.0756473 0)
(0.0503883 0.0788983 0)
(0.0493815 0.0821319 0)
(0.0481146 0.0853292 0)
(0.0465854 0.0884702 0)
(0.0447937 0.0915341 0)
(0.0427416 0.0944997 0)
(0.0404338 0.0973453 0)
(0.0378774 0.100049 0)
(0.0350822 0.10259 0)
(0.0320608 0.104946 0)
(0.0288283 0.107099 0)
(0.0254026 0.109028 0)
(0.0218038 0.110717 0)
(0.0180542 0.112149 0)
(0.0141784 0.113312 0)
(0.0102021 0.114194 0)
(0.00614939 0.114788 0)
(0.00205334 0.115085 0)
(0.00129607 0.0194691 0)
(0.00388483 0.0195983 0)
(0.00646964 0.0198568 0)
(0.00905006 0.0202451 0)
(0.0116214 0.0207639 0)
(0.0141807 0.0214138 0)
(0.0167246 0.0221958 0)
(0.0192494 0.0231109 0)
(0.0217512 0.0241602 0)
(0.0242251 0.0253449 0)
(0.0266662 0.0266662 0)
(0.0290687 0.0281252 0)
(0.0314263 0.0297228 0)
(0.033732 0.0314599 0)
(0.035978 0.0333371 0)
(0.038156 0.0353546 0)
(0.0402568 0.0375123 0)
(0.0422707 0.0398094 0)
(0.0441871 0.0422447 0)
(0.0459949 0.0448162 0)
(0.0476823 0.0475212 0)
(0.0492369 0.050356 0)
(0.050646 0.053316 0)
(0.0518963 0.0563952 0)
(0.0529745 0.0595868 0)
(0.0538669 0.0628824 0)
(0.0545601 0.0662724 0)
(0.0550408 0.0697455 0)
(0.0552962 0.0732892 0)
(0.0553139 0.0768891 0)
(0.0550827 0.0805296 0)
(0.0545923 0.0841933 0)
(0.0538338 0.0878613 0)
(0.0527999 0.0915134 0)
(0.0514852 0.0951279 0)
(0.0498865 0.0986822 0)
(0.0480028 0.102153 0)
(0.0458357 0.105514 0)
(0.0433896 0.108743 0)
(0.0406717 0.111814 0)
(0.0376923 0.114701 0)
(0.0344647 0.117381 0)
(0.031005 0.119831 0)
(0.0273325 0.122027 0)
(0.0234691 0.123951 0)
(0.0194393 0.125584 0)
(0.01527 0.12691 0)
(0.0109896 0.127917 0)
(0.00662502 0.128593 0)
(0.00221239 0.128933 0)
(0.0013638 0.0211661 0)
(0.00408807 0.0213078 0)
(0.00680874 0.0215913 0)
(0.00952559 0.0220173 0)
(0.0122341 0.0225864 0)
(0.0149315 0.0232995 0)
(0.0176145 0.0241578 0)
(0.0202797 0.0251625 0)
(0.022923 0.0263149 0)
(0.0255399 0.0276165 0)
(0.0281252 0.0290687 0)
(0.0306731 0.0306731 0)
(0.0331771 0.0324308 0)
(0.03563 0.0343431 0)
(0.0380238 0.0364108 0)
(0.0403498 0.0386345 0)
(0.0425983 0.0410142 0)
(0.044759 0.0435497 0)
(0.0468206 0.0462397 0)
(0.0487713 0.0490825 0)
(0.0505984 0.0520754 0)
(0.0522884 0.0552146 0)
(0.0538275 0.0584954 0)
(0.0552013 0.0619118 0)
(0.056395 0.0654562 0)
(0.0573937 0.0691199 0)
(0.0581823 0.0728923 0)
(0.0587459 0.0767614 0)
(0.05907 0.0807133 0)
(0.0591407 0.0847324 0)
(0.0589451 0.0888011 0)
(0.0584711 0.0929003 0)
(0.0577084 0.0970089 0)
(0.0566481 0.101104 0)
(0.0552834 0.105162 0)
(0.05361 0.109156 0)
(0.051626 0.11306 0)
(0.0493323 0.116846 0)
(0.046733 0.120485 0)
(0.0438352 0.123949 0)
(0.0406496 0.12721 0)
(0.0371903 0.130238 0)
(0.0334746 0.133009 0)
(0.0295233 0.135495 0)
(0.0253606 0.137673 0)
(0.0210133 0.139524 0)
(0.0165109 0.141027 0)
(0.0118851 0.142168 0)
(0.00716594 0.142935 0)
(0.00239329 0.143321 0)
(0.00143777 0.0228162 0)
(0.00431008 0.0229704 0)
(0.00717915 0.0232789 0)
(0.0100451 0.0237425 0)
(0.0129036 0.024362 0)
(0.0157521 0.0251384 0)
(0.0185875 0.026073 0)
(0.0214065 0.0271674 0)
(0.0242052 0.0284233 0)
(0.026979 0.0298423 0)
(0.0297228 0.0314263 0)
(0.0324308 0.0331771 0)
(0.0350963 0.0350963 0)
(0.0377119 0.0371856 0)
(0.0402694 0.0394461 0)
(0.0427594 0.0418789 0)
(0.045172 0.0444844 0)
(0.0474962 0.0472625 0)
(0.04972 0.0502125 0)
(0.0518306 0.0533328 0)
(0.0538144 0.0566208 0)
(0.055657 0.060073 0)
(0.0573431 0.0636845 0)
(0.0588571 0.067449 0)
(0.0601826 0.071359 0)
(0.061303 0.075405 0)
(0.0622017 0.0795758 0)
(0.0628618 0.0838585 0)
(0.0632671 0.0882381 0)
(0.0634018 0.0926974 0)
(0.0632507 0.0972174 0)
(0.0628001 0.101777 0)
(0.0620376 0.106352 0)
(0.0609527 0.110918 0)
(0.059537 0.115448 0)
(0.0577846 0.119912 0)
(0.0556925 0.12428 0)
(0.0532608 0.128521 0)
(0.050493 0.132602 0)
(0.0473963 0.136491 0)
(0.0439816 0.140155 0)
(0.0402637 0.143562 0)
(0.0362615 0.14668 0)
(0.0319974 0.149481 0)
(0.0274979 0.151937 0)
(0.0227926 0.154024 0)
(0.0179143 0.15572 0)
(0.0128981 0.157008 0)
(0.007778 0.157875 0)
(0.002598 0.15831 0)
(0.00151798 0.0244138 0)
(0.0045508 0.0245804 0)
(0.00758085 0.0249139 0)
(0.0106086 0.0254149 0)
(0.0136299 0.0260846 0)
(0.0166425 0.0269242 0)
(0.0196436 0.0279352 0)
(0.02263 0.0291195 0)
(0.0255979 0.0304789 0)
(0.0285429 0.0320157 0)
(0.0314599 0.033732 0)
(0.0343431 0.03563 0)
(0.0371856 0.0377119 0)
(0.0399798 0.0399798 0)
(0.0427171 0.0424353 0)
(0.045388 0.0450799 0)
(0.0479819 0.0479146 0)
(0.0504871 0.0509397 0)
(0.0528909 0.0541549 0)
(0.0551796 0.0575589 0)
(0.0573386 0.0611496 0)
(0.0593521 0.0649235 0)
(0.0612036 0.0688758 0)
(0.0628759 0.0730004 0)
(0.064351 0.0772893 0)
(0.0656105 0.0817328 0)
(0.0666358 0.0863192 0)
(0.0674081 0.0910346 0)
(0.0679089 0.0958628 0)
(0.0681201 0.100786 0)
(0.0680244 0.105782 0)
(0.0676059 0.110829 0)
(0.0668499 0.1159 0)
(0.0657437 0.120968 0)
(0.0642771 0.126002 0)
(0.0624424 0.130969 0)
(0.0602352 0.135837 0)
(0.0576545 0.140568 0)
(0.0547031 0.145127 0)
(0.0513878 0.149476 0)
(0.0477199 0.153578 0)
(0.0437152 0.157395 0)
(0.0393937 0.160893 0)
(0.0347802 0.164037 0)
(0.0299034 0.166797 0)
(0.0247964 0.169143 0)
(0.0194955 0.171051 0)
(0.0140398 0.172501 0)
(0.00846799 0.173476 0)
(0.0028288 0.173966 0)
(0.00160439 0.0259527 0)
(0.00481017 0.0261317 0)
(0.00801371 0.02649 0)
(0.0112159 0.0270284 0)
(0.0144129 0.0277481 0)
(0.0176027 0.0286506 0)
(0.0207828 0.0297377 0)
(0.0239502 0.0310116 0)
(0.0271014 0.0324746 0)
(0.030232 0.0341291 0)
(0.0333371 0.035978 0)
(0.0364108 0.0380238 0)
(0.0394461 0.0402694 0)
(0.0424353 0.0427171 0)
(0.0453695 0.0453695 0)
(0.0482387 0.0482285 0)
(0.0510318 0.0512956 0)
(0.0537365 0.0545718 0)
(0.0563392 0.0580572 0)
(0.0588253 0.0617512 0)
(0.061179 0.065652 0)
(0.0633832 0.0697565 0)
(0.0654201 0.0740602 0)
(0.0672706 0.078557 0)
(0.068915 0.0832389 0)
(0.0703329 0.088096 0)
(0.0715034 0.0931161 0)
(0.0724055 0.0982845 0)
(0.0730182 0.103584 0)
(0.0733209 0.108996 0)
(0.0732938 0.114496 0)
(0.0729181 0.12006 0)
(0.0721767 0.125659 0)
(0.0710544 0.131263 0)
(0.0695387 0.136837 0)
(0.0676198 0.142346 0)
(0.0652913 0.147752 0)
(0.062551 0.153013 0)
(0.0594007 0.15809 0)
(0.0558468 0.162939 0)
(0.0519008 0.167518 0)
(0.0475792 0.171785 0)
(0.0429037 0.175698 0)
(0.0379011 0.179219 0)
(0.0326033 0.182312 0)
(0.0270467 0.184943 0)
(0.021272 0.187085 0)
(0.0153232 0.188713 0)
(0.00924377 0.189808 0)
(0.00308833 0.190359 0)
(0.00169697 0.0274269 0)
(0.00508805 0.0276181 0)
(0.00847751 0.0280009 0)
(0.0118667 0.0285763 0)
(0.0152521 0.0293457 0)
(0.0186322 0.0303106 0)
(0.0220046 0.0314734 0)
(0.0253668 0.0328365 0)
(0.0287154 0.0344025 0)
(0.0320464 0.0361746 0)
(0.0353546 0.038156 0)
(0.0386345 0.0403498 0)
(0.0418789 0.0427594 0)
(0.0450799 0.045388 0)
(0.0482285 0.0482387 0)
(0.0513141 0.0513141 0)
(0.0543252 0.0546165 0)
(0.0572487 0.0581475 0)
(0.0600704 0.0619081 0)
(0.0627744 0.0658981 0)
(0.0653439 0.0701163 0)
(0.0677603 0.0745603 0)
(0.0700041 0.079226 0)
(0.0720546 0.0841074 0)
(0.07389 0.0891969 0)
(0.0754876 0.0944844 0)
(0.0768243 0.0999572 0)
(0.0778763 0.1056 0)
(0.0786199 0.111396 0)
(0.0790316 0.117323 0)
(0.0790885 0.123357 0)
(0.078769 0.12947 0)
(0.0780528 0.135632 0)
(0.0769218 0.14181 0)
(0.0753607 0.147965 0)
(0.0733571 0.154057 0)
(0.0709026 0.160045 0)
(0.0679929 0.165882 0)
(0.0646287 0.171522 0)
(0.0608158 0.176916 0)
(0.0565655 0.182017 0)
(0.0518953 0.186777 0)
(0.0468284 0.191147 0)
(0.0413941 0.195083 0)
(0.0356275 0.198544 0)
(0.0295692 0.201491 0)
(0.0232646 0.20389 0)
(0.0167632 0.205715 0)
(0.0101145 0.206944 0)
(0.00337966 0.207562 0)
(0.00179564 0.0288296 0)
(0.00538423 0.0290329 0)
(0.00897193 0.02944 0)
(0.0125606 0.0300519 0)
(0.0161472 0.0308703 0)
(0.0197304 0.0318971 0)
(0.0233086 0.0331347 0)
(0.0268793 0.0345862 0)
(0.0304396 0.0362546 0)
(0.0339855 0.0381436 0)
(0.0375123 0.0402568 0)
(0.0410142 0.0425983 0)
(0.0444844 0.045172 0)
(0.0479146 0.0479819 0)
(0.0512956 0.0510318 0)
(0.0546165 0.0543252 0)
(0.0578652 0.0578652 0)
(0.061028 0.0616543 0)
(0.0640897 0.0656943 0)
(0.0670336 0.0699859 0)
(0.0698412 0.0745286 0)
(0.0724929 0.0793208 0)
(0.0749672 0.0843589 0)
(0.0772416 0.0896377 0)
(0.0792919 0.0951495 0)
(0.0810932 0.100885 0)
(0.0826195 0.10683 0)
(0.0838442 0.112971 0)
(0.0847404 0.119288 0)
(0.0852815 0.125759 0)
(0.0854411 0.132359 0)
(0.0851939 0.139057 0)
(0.0845163 0.145821 0)
(0.0833867 0.152613 0)
(0.0817863 0.159393 0)
(0.0796997 0.166116 0)
(0.0771158 0.172734 0)
(0.0740281 0.179197 0)
(0.0704354 0.185451 0)
(0.0663427 0.191443 0)
(0.0617611 0.197118 0)
(0.0567087 0.202419 0)
(0.0512104 0.207293 0)
(0.0452981 0.211689 0)
(0.0390107 0.215557 0)
(0.0323932 0.218854 0)
(0.0254967 0.221541 0)
(0.018377 0.223586 0)
(0.0110906 0.224963 0)
(0.00370634 0.225656 0)
(0.0019003 0.030154 0)
(0.00569844 0.0303692 0)
(0.00949651 0.0308001 0)
(0.013297 0.031448 0)
(0.0170973 0.0323145 0)
(0.0208966 0.0334022 0)
(0.0246937 0.0347136 0)
(0.0284867 0.0362523 0)
(0.0322728 0.0380219 0)
(0.0360486 0.0400266 0)
(0.0398094 0.0422707 0)
(0.0435497 0.044759 0)
(0.0472625 0.0474962 0)
(0.0509397 0.0504871 0)
(0.0545718 0.0537365 0)
(0.0581475 0.0572487 0)
(0.0616543 0.061028 0)
(0.0650778 0.0650778 0)
(0.0684019 0.0694009 0)
(0.0716088 0.073999 0)
(0.0746788 0.0788729 0)
(0.0775906 0.0840215 0)
(0.080321 0.0894423 0)
(0.0828452 0.0951307 0)
(0.0851369 0.10108 0)
(0.0871684 0.10728 0)
(0.0889107 0.113719 0)
(0.090334 0.120381 0)
(0.091408 0.127247 0)
(0.0921022 0.134293 0)
(0.0923864 0.141492 0)
(0.0922312 0.148814 0)
(0.091609 0.156221 0)
(0.0904939 0.163673 0)
(0.0888632 0.171127 0)
(0.0866979 0.178531 0)
(0.0839835 0.185835 0)
(0.0807104 0.19298 0)
(0.0768755 0.199907 0)
(0.0724822 0.206555 0)
(0.0675412 0.212861 0)
(0.0620711 0.218761 0)
(0.0560984 0.224194 0)
(0.049658 0.2291 0)
(0.0427927 0.233422 0)
(0.0355529 0.237109 0)
(0.0279959 0.240116 0)
(0.020185 0.242406 0)
(0.0121846 0.24395 0)
(0.00407251 0.244726 0)
(0.00201084 0.0313932 0)
(0.00603031 0.0316199 0)
(0.0100507 0.0320741 0)
(0.014075 0.032757 0)
(0.0181014 0.0336708 0)
(0.0221295 0.0348179 0)
(0.0261587 0.0362018 0)
(0.0301876 0.0378261 0)
(0.0342138 0.0396952 0)
(0.0382343 0.0418138 0)
(0.0422447 0.0441871 0)
(0.0462397 0.0468206 0)
(0.0502125 0.04972 0)
(0.0541549 0.0528909 0)
(0.0580572 0.0563392 0)
(0.0619081 0.0600704 0)
(0.0656943 0.0640897 0)
(0.0694009 0.0684019 0)
(0.0730109 0.0730109 0)
(0.0765055 0.0779199 0)
(0.0798637 0.0831304 0)
(0.0830623 0.0886431 0)
(0.0860765 0.0944562 0)
(0.0888791 0.100566 0)
(0.0914413 0.106967 0)
(0.0937325 0.113651 0)
(0.0957204 0.120604 0)
(0.0973717 0.127812 0)
(0.0986522 0.135254 0)
(0.0995271 0.142907 0)
(0.0999619 0.150743 0)
(0.0999224 0.158728 0)
(0.0993761 0.166824 0)
(0.0982926 0.174986 0)
(0.0966443 0.183167 0)
(0.0944077 0.191311 0)
(0.0915641 0.19936 0)
(0.0881005 0.207251 0)
(0.0840108 0.214916 0)
(0.0792964 0.222286 0)
(0.0739672 0.22929 0)
(0.0680419 0.235854 0)
(0.0615487 0.241907 0)
(0.0545257 0.247381 0)
(0.0470199 0.25221 0)
(0.0390878 0.256335 0)
(0.0307941 0.259702 0)
(0.0222104 0.262267 0)
(0.0134107 0.263997 0)
(0.00448297 0.264868 0)
(0.0021271 0.0325397 0)
(0.00637937 0.0327777 0)
(0.0106336 0.0332544 0)
(0.0148937 0.0339714 0)
(0.0191582 0.034931 0)
(0.0234276 0.0361361 0)
(0.0277019 0.0375904 0)
(0.0319801 0.0392982 0)
(0.0362605 0.0412645 0)
(0.0405405 0.0434948 0)
(0.0448162 0.0459949 0)
(0.0490825 0.0487713 0)
(0.0533328 0.0518306 0)
(0.0575589 0.0551796 0)
(0.0617512 0.0588253 0)
(0.0658981 0.0627744 0)
(0.0699859 0.0670336 0)
(0.073999 0.0716088 0)
(0.0779199 0.0765055 0)
(0.0817283 0.0817283 0)
(0.085402 0.0872804 0)
(0.0889164 0.0931636 0)
(0.0922443 0.0993779 0)
(0.0953565 0.105921 0)
(0.0982212 0.112788 0)
(0.100805 0.119972 0)
(0.103072 0.12746 0)
(0.104984 0.135239 0)
(0.106504 0.143287 0)
(0.107592 0.151581 0)
(0.108207 0.160092 0)
(0.108312 0.168785 0)
(0.107867 0.177617 0)
(0.106837 0.186543 0)
(0.105188 0.195509 0)
(0.102891 0.204456 0)
(0.0999232 0.213318 0)
(0.0962665 0.222026 0)
(0.0919111 0.230503 0)
(0.0868558 0.23867 0)
(0.0811088 0.246447 0)
(0.074689 0.253749 0)
(0.067626 0.260495 0)
(0.0599609 0.266605 0)
(0.0517459 0.272003 0)
(0.0430441 0.276618 0)
(0.0339286 0.28039 0)
(0.0244807 0.283267 0)
(0.0147855 0.285208 0)
(0.00494336 0.286185 0)
(0.00224888 0.0335862 0)
(0.00674505 0.033835 0)
(0.0112444 0.0343334 0)
(0.0157516 0.0350832 0)
(0.0202661 0.036087 0)
(0.0247889 0.037348 0)
(0.0293209 0.0388704 0)
(0.0338617 0.0406592 0)
(0.0384104 0.0427198 0)
(0.0429647 0.0450586 0)
(0.0475212 0.0476823 0)
(0.0520754 0.0505984 0)
(0.0566208 0.0538144 0)
(0.0611496 0.0573386 0)
(0.065652 0.061179 0)
(0.0701163 0.0653439 0)
(0.0745286 0.0698412 0)
(0.0788729 0.0746788 0)
(0.0831304 0.0798637 0)
(0.0872804 0.085402 0)
(0.091299 0.091299 0)
(0.0951599 0.0975581 0)
(0.098834 0.104181 0)
(0.10229 0.111168 0)
(0.105492 0.118514 0)
(0.108404 0.126215 0)
(0.110987 0.134259 0)
(0.113198 0.142633 0)
(0.114995 0.151317 0)
(0.116332 0.160288 0)
(0.117165 0.169514 0)
(0.117447 0.178959 0)
(0.117135 0.188581 0)
(0.116185 0.198329 0)
(0.114557 0.208145 0)
(0.112217 0.217964 0)
(0.109134 0.227714 0)
(0.105285 0.237318 0)
(0.100655 0.246689 0)
(0.0952404 0.255739 0)
(0.0890461 0.264375 0)
(0.0820906 0.272501 0)
(0.0744048 0.280023 0)
(0.0660331 0.286847 0)
(0.057033 0.292885 0)
(0.0474754 0.298055 0)
(0.0374427 0.302285 0)
(0.0270279 0.305514 0)
(0.0163288 0.307694 0)
(0.00546029 0.308792 0)
(0.00237595 0.0345252 0)
(0.00712664 0.0347843 0)
(0.0118818 0.0353034 0)
(0.0166472 0.0360845 0)
(0.0214229 0.0371304 0)
(0.0262111 0.0384449 0)
(0.031013 0.0400326 0)
(0.0358295 0.0418989 0)
(0.04066 0.0440503 0)
(0.0455031 0.0464937 0)
(0.050356 0.0492369 0)
(0.0552146 0.0522884 0)
(0.060073 0.055657 0)
(0.0649235 0.0593521 0)
(0.0697565 0.0633832 0)
(0.0745603 0.0677603 0)
(0.0793208 0.0724929 0)
(0.0840215 0.0775906 0)
(0.0886431 0.0830623 0)
(0.0931636 0.0889164 0)
(0.0975581 0.0951599 0)
(0.101799 0.101799 0)
(0.105854 0.108836 0)
(0.10969 0.116275 0)
(0.113268 0.124113 0)
(0.11655 0.132346 0)
(0.11949 0.140966 0)
(0.122042 0.14996 0)
(0.124159 0.15931 0)
(0.125788 0.168992 0)
(0.126879 0.178976 0)
(0.127379 0.189223 0)
(0.127236 0.19969 0)
(0.1264 0.210321 0)
(0.124823 0.221057 0)
(0.122461 0.231825 0)
(0.119277 0.242547 0)
(0.115241 0.253135 0)
(0.110333 0.263494 0)
(0.104542 0.273523 0)
(0.0978707 0.283117 0)
(0.0903368 0.292165 0)
(0.0819717 0.300558 0)
(0.072823 0.308187 0)
(0.0629542 0.314949 0)
(0.0524444 0.320748 0)
(0.0413875 0.325499 0)
(0.0298896 0.329129 0)
(0.0180637 0.331581 0)
(0.00604153 0.332817 0)
(0.00250803 0.0353492 0)
(0.00752331 0.035618 0)
(0.0125446 0.0361566 0)
(0.0175786 0.0369672 0)
(0.0226264 0.0380529 0)
(0.0276911 0.0394179 0)
(0.0327749 0.0410674 0)
(0.0378794 0.0430074 0)
(0.0430051 0.0452451 0)
(0.0481513 0.0477884 0)
(0.053316 0.050646 0)
(0.0584954 0.0538275 0)
(0.0636845 0.0573431 0)
(0.0688758 0.0612036 0)
(0.0740602 0.0654201 0)
(0.079226 0.0700041 0)
(0.0843589 0.0749672 0)
(0.0894423 0.080321 0)
(0.0944562 0.0860765 0)
(0.0993779 0.0922443 0)
(0.104181 0.098834 0)
(0.108836 0.105854 0)
(0.11331 0.11331 0)
(0.117566 0.121208 0)
(0.121563 0.129547 0)
(0.125258 0.138328 0)
(0.128601 0.147542 0)
(0.131542 0.15718 0)
(0.134027 0.167225 0)
(0.135998 0.177654 0)
(0.137396 0.188438 0)
(0.138161 0.199538 0)
(0.138233 0.210908 0)
(0.137552 0.222491 0)
(0.136061 0.234221 0)
(0.133707 0.246022 0)
(0.130444 0.257807 0)
(0.126232 0.269479 0)
(0.121044 0.280931 0)
(0.114863 0.29205 0)
(0.107688 0.302714 0)
(0.0995315 0.312797 0)
(0.0904269 0.322172 0)
(0.0804246 0.330712 0)
(0.0695945 0.338297 0)
(0.0580252 0.344813 0)
(0.0458232 0.350157 0)
(0.0331102 0.354246 0)
(0.0200173 0.357011 0)
(0.00669629 0.358405 0)
(0.0026448 0.0360506 0)
(0.00793409 0.0363285 0)
(0.013231 0.0368852 0)
(0.0185435 0.0377232 0)
(0.0238737 0.038846 0)
(0.0292255 0.0402581 0)
(0.0346025 0.0419653 0)
(0.0400072 0.0439743 0)
(0.0454409 0.0462931 0)
(0.050904 0.0489305 0)
(0.0563952 0.0518963 0)
(0.0619118 0.0552013 0)
(0.067449 0.0588571 0)
(0.0730004 0.0628759 0)
(0.078557 0.0672706 0)
(0.0841074 0.0720546 0)
(0.0896377 0.0772416 0)
(0.0951307 0.0828452 0)
(0.100566 0.0888791 0)
(0.105921 0.0953565 0)
(0.111168 0.10229 0)
(0.116275 0.10969 0)
(0.121208 0.117566 0)
(0.125927 0.125927 0)
(0.130388 0.134776 0)
(0.134544 0.144115 0)
(0.138342 0.15394 0)
(0.141725 0.164244 0)
(0.144633 0.175013 0)
(0.147001 0.186225 0)
(0.148763 0.197853 0)
(0.149849 0.209858 0)
(0.150189 0.222192 0)
(0.149713 0.234798 0)
(0.148354 0.247604 0)
(0.146047 0.26053 0)
(0.142734 0.273479 0)
(0.138366 0.286345 0)
(0.132904 0.29901 0)
(0.126324 0.311343 0)
(0.118618 0.323206 0)
(0.109795 0.334455 0)
(0.0998871 0.344941 0)
(0.0889481 0.354517 0)
(0.0770542 0.363039 0)
(0.0643049 0.370374 0)
(0.050821 0.376401 0)
(0.0367427 0.381017 0)
(0.0222223 0.384141 0)
(0.00743554 0.385717 0)
(0.00278587 0.0366223 0)
(0.00835786 0.0369084 0)
(0.0139393 0.0374816 0)
(0.0195394 0.0383446 0)
(0.0251613 0.0395012 0)
(0.0308104 0.0409565 0)
(0.0364912 0.0427167 0)
(0.0422073 0.0447894 0)
(0.0479613 0.0471831 0)
(0.0537545 0.0499078 0)
(0.0595868 0.0529745 0)
(0.0654562 0.056395 0)
(0.071359 0.0601826 0)
(0.0772893 0.064351 0)
(0.0832389 0.068915 0)
(0.0891969 0.07389 0)
(0.0951495 0.0792919 0)
(0.10108 0.0851369 0)
(0.106967 0.0914413 0)
(0.112788 0.0982212 0)
(0.118514 0.105492 0)
(0.124113 0.113268 0)
(0.129547 0.121563 0)
(0.134776 0.130388 0)
(0.139751 0.139751 0)
(0.144422 0.149657 0)
(0.148731 0.160108 0)
(0.152615 0.171098 0)
(0.156008 0.182617 0)
(0.158838 0.194647 0)
(0.161028 0.207162 0)
(0.1625 0.220124 0)
(0.163173 0.233487 0)