/*--------------------------------*- C++ -*----------------------------------*\
| =========                 |                                                 |
| \\      /  F ield         | OpenFOAM: The Open Source CFD Toolbox           |
|  \\    /   O peration     | Version:  2406                                  |
|   \\  /    A nd           | Website:  www.openfoam.com                      |
|    \\/     M anipulation  |                                                 |
\*---------------------------------------------------------------------------*/
FoamFile
{
    version     2.0;
    format      ascii;
    arch        "LSB;label=32;scalar=64";
    class       volScalarField;
    location    "1.85";
    object      gradTy;
}
// * * * * * * * * * * * * * * * * * * * * * * * * * * * * * * * * * * * * * //

dimensions      [0 -1 0 1 0 0 0];

internalField   nonuniform List<scalar> 
2500
(
0.00959469
0.00965451
0.0097766
0.00995937
0.0102032
0.0105082
0.0108748
0.0113031
0.0117934
0.0123458
0.0129607
0.013638
0.0143777
0.0151798
0.0160439
0.0169697
0.0179564
0.019003
0.0201084
0.021271
0.0224888
0.0237595
0.0250803
0.026448
0.0278587
0.0293083
0.030792
0.0323042
0.0338391
0.0353903
0.0369507
0.0385127
0.0400683
0.0416091
0.0431262
0.0446105
0.0460526
0.0474431
0.0487724
0.0500311
0.0512099
0.0523
0.0532929
0.0541807
0.0549564
0.0556136
0.0561472
0.0565527
0.0568248
0.056949
0.0287476
0.0289295
0.0292951
0.0298432
0.0305745
0.0314897
0.0325894
0.0338745
0.0353456
0.0370033
0.0388483
0.0408807
0.0431008
0.045508
0.0481017
0.0508805
0.0538423
0.0569844
0.0603031
0.0637937
0.0674505
0.0712664
0.0752331
0.0793409
0.0835786
0.0879332
0.0923905
0.0969343
0.101547
0.106208
0.110898
0.115593
0.120269
0.124902
0.129463
0.133926
0.138263
0.142445
0.146443
0.150229
0.153775
0.157055
0.160042
0.162713
0.165047
0.167024
0.168629
0.16985
0.170676
0.171075
0.0478493
0.0481541
0.048763
0.0496767
0.0508961
0.0524223
0.0542564
0.0563996
0.0588533
0.0616186
0.0646964
0.0680874
0.0717915
0.0758085
0.0801371
0.0847751
0.0897193
0.0949651
0.100507
0.106336
0.112444
0.118818
0.125446
0.13231
0.139393
0.146672
0.154125
0.161723
0.169437
0.177236
0.185082
0.19294
0.200767
0.208522
0.21616
0.223635
0.230899
0.237905
0.244604
0.250948
0.256892
0.262389
0.267397
0.271875
0.275788
0.279103
0.281792
0.283835
0.285216
0.285905
0.0668859
0.0673125
0.0681653
0.0694456
0.0711544
0.0732934
0.075864
0.0788683
0.0823081
0.086185
0.0905006
0.0952559
0.100451
0.106086
0.112159
0.118667
0.125606
0.13297
0.14075
0.148937
0.157516
0.166472
0.175786
0.185435
0.195394
0.205632
0.216116
0.226808
0.237667
0.248646
0.259697
0.270766
0.281796
0.292726
0.303495
0.314036
0.324283
0.334168
0.343623
0.352579
0.360971
0.368734
0.375807
0.382133
0.38766
0.392343
0.39614
0.399021
0.400959
0.401931
0.0858044
0.0863533
0.0874509
0.0890988
0.0912986
0.0940523
0.0973622
0.101231
0.105661
0.110654
0.116214
0.122341
0.129036
0.136299
0.144129
0.152521
0.161472
0.170973
0.181014
0.191582
0.202661
0.214229
0.226264
0.238737
0.251613
0.264856
0.278421
0.292261
0.306322
0.320545
0.334866
0.349215
0.363518
0.377699
0.391674
0.405359
0.418667
0.431509
0.443795
0.455438
0.466349
0.476446
0.485647
0.493878
0.501071
0.507165
0.512107
0.515854
0.518372
0.519636
0.104569
0.105241
0.106584
0.108601
0.111294
0.114665
0.118717
0.123454
0.128879
0.134996
0.141807
0.149315
0.157521
0.166425
0.176027
0.186322
0.197304
0.208966
0.221295
0.234276
0.247889
0.262111
0.276911
0.292255
0.308104
0.32441
0.341122
0.35818
0.375517
0.393063
0.410737
0.428455
0.446126
0.463652
0.480933
0.497862
0.514332
0.530232
0.54545
0.559876
0.573401
0.58592
0.597332
0.607544
0.61647
0.624032
0.630166
0.634816
0.63794
0.639509
0.123142
0.123937
0.125527
0.127915
0.131102
0.135093
0.139891
0.145501
0.151928
0.159174
0.167246
0.176145
0.185875
0.196436
0.207828
0.220046
0.233086
0.246937
0.261587
0.277019
0.293209
0.31013
0.327749
0.346025
0.364912
0.384354
0.40429
0.42465
0.445357
0.466323
0.487455
0.508652
0.529804
0.550794
0.571502
0.5918
0.611558
0.630641
0.648915
0.666246
0.682502
0.697554
0.711281
0.723568
0.734311
0.743414
0.750799
0.756398
0.76016
0.762049
0.141484
0.142403
0.144241
0.147
0.150685
0.155299
0.160847
0.167335
0.174768
0.183153
0.192494
0.202797
0.214065
0.2263
0.239502
0.253668
0.268793
0.284867
0.301876
0.319801
0.338617
0.358295
0.378794
0.400072
0.422073
0.444736
0.467989
0.491753
0.515936
0.540439
0.565153
0.589959
0.614729
0.639326
0.663608
0.687425
0.710621
0.73304
0.75452
0.774903
0.794031
0.811751
0.827919
0.842396
0.855057
0.86579
0.874498
0.881101
0.885538
0.887767
0.159553
0.160596
0.162682
0.165815
0.169999
0.175239
0.181541
0.188912
0.197359
0.20689
0.217512
0.22923
0.242052
0.255979
0.271014
0.287154
0.304396
0.322728
0.342138
0.362605
0.384104
0.4066
0.430051
0.454409
0.479613
0.505594
0.532271
0.559554
0.58734
0.615515
0.643955
0.672522
0.701069
0.72944
0.757468
0.784979
0.811793
0.837726
0.862591
0.8862
0.908368
0.928917
0.947675
0.964478
0.97918
0.991648
1.00177
1.00944
1.0146
1.01719
0.177305
0.178472
0.180807
0.184315
0.189
0.194868
0.201928
0.210186
0.219654
0.230339
0.242251
0.255399
0.26979
0.285429
0.30232
0.320464
0.339855
0.360486
0.382343
0.405405
0.429647
0.455031
0.481513
0.50904
0.537545
0.566953
0.597175
0.628109
0.65964
0.691641
0.72397
0.756473
0.788983
0.821319
0.853292
0.884702
0.915341
0.944997
0.973453
1.00049
1.0259
1.04946
1.07099
1.09028
1.10717
1.12149
1.13312
1.14194
1.14788
1.15085
0.194691
0.195983
0.198568
0.202451
0.207639
0.214138
0.221958
0.231109
0.241602
0.253449
0.266662
0.281252
0.297228
0.314599
0.333371
0.353546
0.375123
0.398094
0.422447
0.448162
0.475212
0.50356
0.53316
0.563952
0.595868
0.628824
0.662724
0.697455
0.732892
0.768891
0.805296
0.841933
0.878613
0.915134
0.951279
0.986822
1.02153
1.05514
1.08743
1.11814
1.14701
1.17381
1.19831
1.22027
1.23951
1.25584
1.2691
1.27917
1.28593
1.28933
0.211661
0.213078
0.215913
0.220173
0.225864
0.232995
0.241578
0.251625
0.263149
0.276165
0.290687
0.306731
0.324308
0.343431
0.364108
0.386345
0.410142
0.435497
0.462397
0.490825
0.520754
0.552146
0.584954
0.619118
0.654562
0.691199
0.728923
0.767614
0.807133
0.847324
0.888011
0.929003
0.970089
1.01104
1.05162
1.09156
1.1306
1.16846
1.20485
1.23949
1.2721
1.30238
1.33009
1.35495
1.37673
1.39524
1.41027
1.42168
1.42935
1.43321
0.228162
0.229704
0.232789
0.237425
0.24362
0.251384
0.26073
0.271674
0.284233
0.298423
0.314263
0.331771
0.350963
0.371856
0.394461
0.418789
0.444844
0.472625
0.502125
0.533328
0.566208
0.60073
0.636845
0.67449
0.71359
0.75405
0.795758
0.838585
0.882381
0.926974
0.972174
1.01777
1.06352
1.10918
1.15448
1.19912
1.2428
1.28521
1.32602
1.36491
1.40155
1.43562
1.4668
1.49481
1.51937
1.54024
1.5572
1.57008
1.57875
1.5831
0.244138
0.245804
0.249139
0.254149
0.260846
0.269242
0.279352
0.291195
0.304789
0.320157
0.33732
0.3563
0.377119
0.399798
0.424353
0.450799
0.479146
0.509397
0.541549
0.575589
0.611496
0.649235
0.688758
0.730004
0.772893
0.817328
0.863192
0.910346
0.958628
1.00786
1.05782
1.10829
1.159
1.20968
1.26002
1.30969
1.35837
1.40568
1.45127
1.49476
1.53578
1.57395
1.60893
1.64037
1.66797
1.69143
1.71051
1.72501
1.73476
1.73966
0.259527
0.261317
0.2649
0.270284
0.277481
0.286506
0.297377
0.310116
0.324746
0.341291
0.35978
0.380238
0.402694
0.427171
0.453695
0.482285
0.512956
0.545718
0.580572
0.617512
0.65652
0.697565
0.740602
0.78557
0.832389
0.88096
0.931161
0.982845
1.03584
1.08996
1.14496
1.2006
1.25659
1.31263
1.36837
1.42346
1.47752
1.53013
1.5809
1.62939
1.67518
1.71785
1.75698
1.79219
1.82312
1.84943
1.87085
1.88713
1.89808
1.90359
0.274269
0.276181
0.280009
0.285763
0.293457
0.303106
0.314734
0.328365
0.344025
0.361746
0.38156
0.403498
0.427594
0.45388
0.482387
0.513141
0.546165
0.581475
0.619081
0.658981
0.701163
0.745603
0.79226
0.841074
0.891969
0.944844
0.999572
1.056
1.11396
1.17323
1.23357
1.2947
1.35632
1.4181
1.47965
1.54057
1.60045
1.65882
1.71522
1.76916
1.82017
1.86777
1.91147
1.95083
1.98544
2.01491
2.0389
2.05715
2.06944
2.07562
0.288296
0.290329
0.2944
0.300519
0.308703
0.318971
0.331347
0.345862
0.362546
0.381436
0.402568
0.425983
0.45172
0.479819
0.510318
0.543252
0.578652
0.616543
0.656943
0.699859
0.745286
0.793208
0.843589
0.896377
0.951495
1.00885
1.0683
1.12971
1.19288
1.25759
1.32359
1.39057
1.45821
1.52613
1.59393
1.66116
1.72734
1.79197
1.85451
1.91443
1.97118
2.02419
2.07293
2.11689
2.15557
2.18854
2.21541
2.23586
2.24963
2.25656
0.30154
0.303692
0.308001
0.31448
0.323145
0.334022
0.347136
0.362523
0.380219
0.400266
0.422707
0.44759
0.474962
0.504871
0.537365
0.572487
0.61028
0.650778
0.694009
0.73999
0.788729
0.840215
0.894423
0.951307
1.0108
1.0728
1.13719
1.20381
1.27247
1.34293
1.41492
1.48814
1.56221
1.63673
1.71127
1.78531
1.85835
1.9298
1.99907
2.06555
2.12861
2.18761
2.24194
2.291
2.33422
2.37109
2.40116
2.42406
2.4395
2.44726
0.313932
0.316199
0.320741
0.32757
0.336708
0.348179
0.362018
0.378261
0.396952
0.418138
0.441871
0.468206
0.4972
0.528909
0.563392
0.600704
0.640897
0.684019
0.730109
0.779199
0.831304
0.886431
0.944562
1.00566
1.06967
1.13651
1.20604
1.27812
1.35254
1.42907
1.50743
1.58728
1.66824
1.74986
1.83167
1.91311
1.9936
2.07251
2.14916
2.22286
2.2929
2.35854
2.41907
2.47381
2.5221
2.56335
2.59702
2.62267
2.63997
2.64868
0.325397
0.327777
0.332544
0.339714
0.34931
0.361361
0.375904
0.392982
0.412645
0.434948
0.459949
0.487713
0.518306
0.551796
0.588253
0.627744
0.670336
0.716088
0.765055
0.817283
0.872804
0.931636
0.993779
1.05921
1.12788
1.19972
1.2746
1.35239
1.43287
1.51581
1.60092
1.68785
1.77617
1.86543
1.95509
2.04456
2.13318
2.22026
2.30503
2.3867
2.46447
2.53749
2.60495
2.66605
2.72003
2.76618
2.8039
2.83267
2.85208
2.86185
0.335862
0.33835
0.343334
0.350832
0.36087
0.37348
0.388704
0.406592
0.427198
0.450586
0.476823
0.505984
0.538144
0.573386
0.61179
0.653439
0.698412
0.746788
0.798637
0.85402
0.91299
0.975581
1.04181
1.11168
1.18514
1.26215
1.34259
1.42633
1.51317
1.60288
1.69514
1.78959
1.88581
1.98329
2.08145
2.17964
2.27714
2.37318
2.46689
2.55739
2.64375
2.72501
2.80023
2.86847
2.92885
2.98055
3.02285
3.05514
3.07694
3.08792
0.345252
0.347843
0.353034
0.360845
0.371304
0.384449
0.400326
0.418989
0.440503
0.464937
0.492369
0.522884
0.55657
0.593521
0.633832
0.677603
0.724929
0.775906
0.830623
0.889164
0.951599
1.01799
1.08836
1.16275
1.24113
1.32346
1.40966
1.4996
1.5931
1.68992
1.78976
1.89223
1.9969
2.10321
2.21057
2.31825
2.42547
2.53135
2.63494
2.73523
2.83117
2.92165
3.00558
3.08187
3.14949
3.20748
3.25499
3.29129
3.31581
3.32817
0.353492
0.35618
0.361566
0.369672
0.380529
0.394179
0.410674
0.430074
0.452451
0.477884
0.50646
0.538275
0.573431
0.612036
0.654201
0.700041
0.749672
0.80321
0.860765
0.922443
0.98834
1.05854
1.1331
1.21208
1.29547
1.38328
1.47542
1.5718
1.67225
1.77654
1.88438
1.99538
2.10908
2.22491
2.34221
2.46022
2.57807
2.69479
2.80931
2.9205
3.02714
3.12797
3.22172
3.30712
3.38297
3.44813
3.50157
3.54246
3.57011
3.58405
0.360506
0.363285
0.368852
0.377232
0.38846
0.402581
0.419653
0.439743
0.462931
0.489305
0.518963
0.552013
0.588571
0.628759
0.672706
0.720546
0.772416
0.828452
0.888791
0.953565
1.0229
1.0969
1.17566
1.25927
1.34776
1.44115
1.5394
1.64244
1.75013
1.86225
1.97853
2.09858
2.22192
2.34798
2.47604
2.6053
2.73479
2.86345
2.9901
3.11343
3.23206
3.34455
3.44941
3.54517
3.63039
3.70374
3.76401
3.81017
3.84141
3.85717
0.366223
0.369084
0.374816
0.383446
0.395012
0.409565
0.427167
0.447894
0.471831
0.499078
0.529745
0.56395
0.601826
0.64351
0.68915
0.7389
0.792919
0.851369
0.914413
0.982212
1.05492
1.13268
1.21563
1.30388
1.39751
1.49657
1.60108
1.71098
1.82617
1.94647
2.07162
2.20124
2.33487
2.47191
2.61161
2.75311
2.89536
3.0372
3.1773
3.3142
3.44631
3.57196
3.68944
3.79701
3.89298
3.97574
4.04387
4.09612
4.13152
4.14939
0.370571
0.373505
0.379383
0.388236
0.400105
0.415045
0.433123
0.454423
0.47904
0.507081
0.538669
0.573937
0.61303
0.656105
0.703329
0.754876
0.810932
0.871684
0.937325
1.00805
1.08404
1.1655
1.25258
1.34544
1.44422
1.54901
1.65986
1.77679
1.89972
2.02852
2.16296
2.30269
2.44726
2.59606
2.74833
2.90315
3.05939
3.21578
3.37083
3.52291
3.6702
3.81078
3.94264
4.06374
4.17207
4.26572
4.34295
4.40228
4.44252
4.46285
0.373483
0.376479
0.382484
0.391529
0.40366
0.418935
0.437429
0.459231
0.484446
0.513191
0.545601
0.581823
0.622017
0.666358
0.715034
0.768243
0.826195
0.889107
0.957204
1.03072
1.10987
1.1949
1.28601
1.38342
1.48731
1.59782
1.71508
1.83915
1.97002
2.10761
2.25174
2.40211
2.55828
2.71965
2.88547
3.05475
3.22632
3.39878
3.57048
3.73958
3.90401
4.06156
4.20987
4.34653
4.46915
4.57544
4.66328
4.73088
4.77679
4.8
0.374894
0.377941
0.38405
0.393254
0.405601
0.421155
0.439996
0.462221
0.487943
0.51729
0.550408
0.587459
0.628618
0.674081
0.724055
0.778763
0.838442
0.90334
0.973717
1.04984
1.13198
1.22042
1.31542
1.41725
1.52615
1.64234
1.76601
1.89728
2.03623
2.18285
2.33702
2.49851
2.66692
2.8417
3.02208
3.20707
3.39542
3.58561
3.77586
3.96407
4.14792
4.32482
4.49202
4.64666
4.78589
4.90692
5.00721
5.08454
5.13713
5.16374
0.374747
0.377833
0.384021
0.393346
0.405859
0.421629
0.440743
0.463302
0.489429
0.519263
0.552962
0.5907
0.632671
0.679089
0.730182
0.786199
0.847404
0.91408
0.986522
1.06504
1.14995
1.24159
1.34027
1.44633
1.56008
1.68182
1.81182
1.95028
2.09739
2.2532
2.41772
2.59076
2.77204
2.96104
3.15702
3.35901
3.5657
3.77547
3.98638
4.19609
4.40195
4.60098
4.78996
4.96548
5.1241
5.26246
5.37743
5.46627
5.52679
5.55744
0.37299
0.376101
0.382341
0.391746
0.404372
0.420289
0.439592
0.462388
0.488809
0.519003
0.553139
0.591407
0.634018
0.681201
0.733209
0.790316
0.852815
0.921022
0.995271
1.07592
1.16332
1.25788
1.35998
1.47001
1.58838
1.71546
1.85162
1.99718
2.15241
2.31751
2.49256
2.67754
2.87224
3.07624
3.28887
3.50919
3.73588
3.96725
4.20117
4.43508
4.66597
4.8904
5.10457
5.30444
5.48585
5.64467
5.77706
5.87963
5.94962
5.98511
0.369578
0.372701
0.378963
0.388405
0.401083
0.417074
0.436475
0.459403
0.485995
0.51641
0.550827
0.589451
0.632507
0.680244
0.732938
0.790885
0.854411
0.923864
0.999619
1.08207
1.17165
1.26879
1.37396
1.48763
1.61028
1.7424
1.88446
2.0369
2.20012
2.37446
2.56015
2.75732
2.9659
3.18561
3.41591
3.65592
3.90435
4.15946
4.41901
4.68017
4.93956
5.19321
5.43666
5.66507
5.87339
6.05655
6.20978
6.32882
6.41022
6.45155
0.364477
0.367595
0.373848
0.383279
0.395947
0.411932
0.431336
0.45428
0.480911
0.511395
0.545923
0.584711
0.628001
0.676059
0.729181
0.78769
0.851939
0.922312
0.999224
1.08312
1.17447
1.27379
1.38161
1.49849
1.625
1.76175
1.90931
2.06828
2.23921
2.42261
2.61888
2.82835
3.05114
3.28717
3.53606
3.79708
4.06903
4.3502
4.63823
4.93007
5.22194
5.5093
5.7869
6.04894
6.28924
6.50154
6.67987
6.81885
6.9141
6.96253
0.35766
0.360756
0.366968
0.376338
0.388929
0.404823
0.424125
0.446965
0.473492
0.503883
0.538338
0.577084
0.620376
0.668499
0.721767
0.780528
0.845163
0.91609
0.993761
1.07867
1.17135
1.27236
1.38233
1.50189
1.63173
1.77255
1.9251
2.0901
2.26829
2.46037
2.66699
2.88867
3.1258
3.37857
3.64684
3.9301
4.22735
4.53695
4.85654
5.18289
5.51183
5.83816
6.15575
6.45761
6.73617
6.98363
7.19242
7.35573
7.46795
7.52509
0.349111
0.352169
0.358304
0.367561
0.380004
0.395717
0.414811
0.437416
0.46369
0.493815
0.527999
0.566481
0.609527
0.657437
0.710544
0.769218
0.833867
0.904939
0.982926
1.06837
1.16185
1.264
1.37552
1.49713
1.62964
1.77387
1.93071
2.10106
2.28587
2.48605
2.7025
2.93606
3.18742
3.4571
3.7453
4.05186
4.37607
4.71652
5.07094
5.43601
5.80722
6.17871
6.5433
6.89258
7.21721
7.50739
7.7535
7.94676
8.07992
8.14784
0.338826
0.341828
0.347851
0.35694
0.369161
0.384601
0.403371
0.425607
0.451469
0.481146
0.514852
0.552834
0.59537
0.642771
0.695387
0.753607
0.817863
0.888632
0.966443
1.05188
1.14557
1.24823
1.36061
1.48354
1.61793
1.76474
1.92501
2.09984
2.29037
2.49781
2.72333
2.96811
3.23324
3.51964
3.828
4.15862
4.51123
4.88483
5.27743
5.68579
6.10514
6.529
6.94902
7.35508
7.7356
8.07817
8.37037
8.60083
8.7601
8.84148
0.326815
0.329741
0.335615
0.34448
0.356403
0.371473
0.389802
0.411529
0.436816
0.465854
0.498865
0.5361
0.577846
0.624424
0.676198
0.733571
0.796997
0.866979
0.944077
1.02891
1.12217
1.22461
1.33707
1.46047
1.59582
1.74422
1.90687
2.08507
2.28021
2.49375
2.72722
2.98218
3.26019
3.56269
3.89095
4.24591
4.62797
5.03676
5.47082
5.92725
6.40127
6.88586
7.37146
7.8459
8.29476
8.70212
9.05183
9.32892
9.52102
9.61933
0.313097
0.31593
0.321616
0.3302
0.341748
0.356349
0.374117
0.39519
0.419732
0.447937
0.480028
0.51626
0.556925
0.602352
0.652913
0.709026
0.771158
0.839835
0.915641
0.999232
1.09134
1.19277
1.30444
1.42734
1.56259
1.71144
1.87523
2.05546
2.25377
2.47193
2.71183
2.97547
3.26495
3.58232
3.9296
4.30854
4.72045
5.16591
5.64438
6.15369
6.68943
7.24435
7.8077
8.36497
8.8981
9.38644
9.8086
10.1447
10.3784
10.4982
0.297709
0.300429
0.305889
0.314134
0.325228
0.339262
0.356346
0.376619
0.400245
0.427416
0.458357
0.493323
0.532608
0.576545
0.62551
0.679929
0.740281
0.807104
0.881005
0.962665
1.05285
1.15241
1.26232
1.38366
1.51763
1.6656
1.82907
2.00975
2.20951
2.43044
2.6748
2.9451
3.244
3.57429
3.93886
4.3405
4.78172
5.26443
5.78951
6.35612
6.96089
7.59689
8.25253
8.91073
9.54878
10.1395
10.654
11.0655
11.3524
11.4995
0.280699
0.283287
0.288483
0.29633
0.306894
0.320259
0.336538
0.355864
0.378401
0.404338
0.433896
0.46733
0.50493
0.547031
0.594007
0.646287
0.704354
0.768755
0.840108
0.919111
1.00655
1.10333
1.21044
1.32904
1.46042
1.60603
1.76755
1.94683
2.14601
2.36745
2.61384
2.88816
3.19371
3.53411
3.91321
4.33507
4.80371
5.32284
5.8954
6.52271
7.20346
7.93214
8.69717
9.47904
10.2492
10.9711
11.6048
12.1135
12.4684
12.6505
0.262129
0.264567
0.269462
0.276855
0.28681
0.299409
0.314761
0.332996
0.354272
0.378774
0.406717
0.438352
0.473963
0.513878
0.558468
0.608158
0.663427
0.724822
0.792964
0.868558
0.952404
1.04542
1.14863
1.26324
1.3906
1.53224
1.68996
1.86578
2.06202
2.28135
2.52682
2.8019
3.11054
3.45719
3.84682
4.2849
4.77727
5.32995
5.94865
6.63801
7.40028
8.23324
9.1272
10.0613
11.0001
11.8933
12.683
13.3175
13.7595
13.9858
0.242079
0.244347
0.248904
0.255788
0.265058
0.276796
0.291102
0.308104
0.327951
0.350822
0.376923
0.406496
0.439816
0.477199
0.519008
0.565655
0.617611
0.675412
0.739672
0.811088
0.890461
0.978707
1.07688
1.18618
1.308
1.44394
1.59587
1.76593
1.95661
2.17082
2.41193
2.68385
2.99115
3.33912
3.73385
4.18233
4.69246
5.27299
5.93322
6.68242
7.52845
8.47537
9.51915
10.641
11.7987
12.9212
13.9183
14.7162
15.2683
15.5496
0.220637
0.22272
0.226903
0.233225
0.241739
0.252522
0.26567
0.281302
0.299558
0.320608
0.344647
0.371903
0.402637
0.437152
0.475792
0.518953
0.567087
0.620711
0.680419
0.74689
0.820906
0.903368
0.995315
1.09795
1.21266
1.34108
1.4851
1.64694
1.8292
2.03495
2.2678
2.53205
2.83276
3.17597
3.56884
4.01985
4.53902
5.13811
5.83066
6.63183
7.55758
8.62253
9.83497
11.1866
12.6344
14.0766
15.3546
16.3627
17.05
17.3966
0.197909
0.19979
0.203567
0.209276
0.216966
0.226709
0.238591
0.252722
0.269235
0.288283
0.31005
0.334746
0.362615
0.393937
0.429037
0.468284
0.512104
0.560984
0.615487
0.67626
0.744048
0.819717
0.904269
0.998871
1.10489
1.22392
1.35785
1.50889
1.67969
1.87339
2.09374
2.34525
2.63338
2.9647
3.34725
3.79078
4.30728
4.91141
5.62113
6.45832
7.4492
8.62391
10.0133
11.6379
13.4773
15.398
17.0625
18.3319
19.1741
19.5919
0.174012
0.175676
0.179017
0.184067
0.190871
0.199491
0.210008
0.22252
0.237146
0.254026
0.273325
0.295233
0.319974
0.347802
0.379011
0.413941
0.452981
0.49658
0.545257
0.599609
0.660331
0.72823
0.804246
0.889481
0.985229
1.09302
1.21465
1.3523
1.50852
1.68644
1.8898
2.12317
2.39213
2.70358
3.06605
3.49017
3.98935
4.58057
5.2856
6.1326
7.15851
8.41214
9.95789
11.8761
14.2404
16.9771
19.1672
20.73
21.7242
22.2066
0.149075
0.150508
0.153386
0.157735
0.163596
0.171022
0.180084
0.190868
0.203478
0.218038
0.234691
0.253606
0.274979
0.299034
0.326033
0.356275
0.390107
0.427927
0.470199
0.517459
0.57033
0.629542
0.695945
0.770542
0.854518
0.949276
1.05649
1.17818
1.31675
1.47515
1.65698
1.86663
2.10958
2.39265
2.7244
3.11574
3.58062
4.1372
4.80938
5.6293
6.6414
7.90957
9.53138
11.6696
14.6323
19.1042
21.9005
23.6979
24.7877
25.3049
0.123238
0.124428
0.12682
0.130433
0.1353
0.141469
0.148996
0.157957
0.168438
0.180542
0.194393
0.210133
0.227926
0.247964
0.270467
0.295692
0.323932
0.355529
0.390878
0.430441
0.474754
0.524444
0.580252
0.643049
0.713868
0.793942
0.884749
0.988072
1.10607
1.2414
1.39729
1.57779
1.78792
2.03404
2.32422
2.66881
3.08128
3.57932
4.18651
4.93494
5.86935
7.05452
8.58959
10.6398
13.5164
17.9079
20.6339
22.3747
23.4249
23.9217
0.0966482
0.0975873
0.0994741
0.10232
0.106153
0.111009
0.116936
0.123992
0.132247
0.141784
0.1527
0.165109
0.179143
0.194955
0.21272
0.232646
0.254967
0.279959
0.307941
0.339286
0.374427
0.413875
0.458232
0.50821
0.564656
0.628586
0.701219
0.784035
0.878837
0.987843
1.11379
1.26011
1.4311
1.63222
1.87046
2.15488
2.49726
2.91317
3.42331
4.05551
4.84747
5.85049
7.13362
8.78446
10.8865
13.3782
15.3533
16.7431
17.6163
18.0364
0.0694631
0.0701407
0.0715098
0.0735643
0.076328
0.079829
0.084102
0.0891896
0.0951425
0.102021
0.109896
0.118851
0.128981
0.140398
0.153232
0.167632
0.18377
0.20185
0.222104
0.244807
0.270279
0.298896
0.331102
0.367427
0.4085
0.455076
0.508068
0.568586
0.637988
0.717947
0.810547
0.918393
1.04478
1.19392
1.37121
1.58365
1.8404
2.15348
2.53875
3.01703
3.61526
4.36708
5.31066
6.47868
7.86773
9.36589
10.6587
11.6289
12.2617
12.5718
0.0418462
0.0422425
0.043071
0.0443125
0.0459813
0.0480948
0.0506744
0.0537459
0.0573402
0.0614939
0.0662502
0.0716594
0.07778
0.0846799
0.0924377
0.101145
0.110906
0.121846
0.134107
0.147855
0.163288
0.180637
0.200173
0.222223
0.247174
0.275492
0.307743
0.344613
0.386946
0.435786
0.492433
0.558521
0.636121
0.727878
0.837204
0.968525
1.12762
1.32204
1.56162
1.85902
2.22991
2.69237
3.26372
3.9523
4.74031
5.55932
6.28734
6.85256
7.23021
7.41777
0.0139754
0.0140996
0.0143743
0.0147891
0.015347
0.0160536
0.016916
0.0179429
0.0191446
0.0205334
0.0221239
0.0239329
0.02598
0.028288
0.0308833
0.0337966
0.0370634
0.0407251
0.0448297
0.0494336
0.0546029
0.0604153
0.0669629
0.0743554
0.0827237
0.0922257
0.103052
0.115437
0.129665
0.146091
0.165158
0.187421
0.213588
0.244561
0.281507
0.325936
0.379823
0.445737
0.527002
0.627833
0.753328
0.90908
1.09989
1.32684
1.58221
1.84408
2.07907
2.26412
2.38916
2.45168
)
;

boundaryField
{
    walls
    {
        type            calculated;
        value           nonuniform List<scalar> 
200
(
0
0
0
0
0
0
0
0
0
0
0
0
0
0
0
0
0
0
0
0
0
0
0
0
0
0
0
0
0
0
0
0
0
0
0
0
0
0
0
0
0
0
0
0
0
0
0
0
0
0
0.00959469
0.0287476
0.0478493
0.0668859
0.0858044
0.104569
0.123142
0.141484
0.159553
0.177305
0.194691
0.211661
0.228162
0.244138
0.259527
0.274269
0.288296
0.30154
0.313932
0.325397
0.335862
0.345252
0.353492
0.360506
0.366223
0.370571
0.373483
0.374894
0.374747
0.37299
0.369578
0.364477
0.35766
0.349111
0.338826
0.326815
0.313097
0.297709
0.280699
0.262129
0.242079
0.220637
0.197909
0.174012
0.149075
0.123238
0.0966482
0.0694631
0.0418462
0.0139754
0.056949
0.171075
0.285905
0.401931
0.519636
0.639509
0.762049
0.887767
1.01719
1.15085
1.28933
1.43321
1.5831
1.73966
1.90359
2.07562
2.25656
2.44726
2.64868
2.86185
3.08792
3.32817
3.58405
3.85717
4.14939
4.46285
4.8
5.16374
5.55744
5.98511
6.45155
6.96253
7.52509
8.14784
8.84148
9.61933
10.4982
11.4995
12.6505
13.9858
15.5496
17.3966
19.5919
22.2066
25.3049
23.9217
18.0364
12.5718
7.41777
2.45168
0
0
0
0
0
0
0
0
0
0
0
0
0
0
0
0
0
0
0
0
0
0
0
0
0
0
0
0
0
0
0
0
0
0
0
0
0
0
0
0
0
0
0
0
0
0
0
0
0
0
)
;
    }
    frontAndBack
    {
        type            empty;
    }
}


// ************************************************************************* //
