/*--------------------------------*- C++ -*----------------------------------*\
| =========                 |                                                 |
| \\      /  F ield         | OpenFOAM: The Open Source CFD Toolbox           |
|  \\    /   O peration     | Version:  2406                                  |
|   \\  /    A nd           | Website:  www.openfoam.com                      |
|    \\/     M anipulation  |                                                 |
\*---------------------------------------------------------------------------*/
FoamFile
{
    version     2.0;
    format      ascii;
    arch        "LSB;label=32;scalar=64";
    class       volScalarField;
    location    "1.85";
    object      T;
}
// * * * * * * * * * * * * * * * * * * * * * * * * * * * * * * * * * * * * * //

dimensions      [0 0 0 1 0 0 0];

internalField   nonuniform List<scalar> 
2500
(
0.276682
0.277066
0.277832
0.27898
0.280508
0.282412
0.28469
0.287338
0.29035
0.29372
0.297442
0.301508
0.305908
0.310634
0.315674
0.321015
0.326645
0.332547
0.338706
0.345104
0.351722
0.358539
0.365532
0.372679
0.379953
0.387327
0.394775
0.402267
0.409771
0.417257
0.424691
0.43204
0.43927
0.446346
0.453234
0.459899
0.466307
0.472423
0.478215
0.483651
0.4887
0.493334
0.497526
0.501251
0.504486
0.507214
0.509416
0.51108
0.512194
0.512753
0.277066
0.277452
0.278223
0.279378
0.280916
0.282833
0.285125
0.28779
0.290822
0.294214
0.29796
0.302053
0.306484
0.311241
0.316316
0.321694
0.327363
0.333307
0.339511
0.345955
0.352622
0.359489
0.366535
0.373736
0.381067
0.3885
0.396007
0.403559
0.411125
0.418672
0.426169
0.43358
0.440873
0.448011
0.454959
0.461684
0.468149
0.474321
0.480166
0.485652
0.490749
0.495426
0.499658
0.503418
0.506685
0.509438
0.511662
0.513342
0.514467
0.515031
0.277832
0.278223
0.279004
0.280174
0.281731
0.283672
0.285994
0.288693
0.291764
0.2952
0.298996
0.303143
0.307632
0.312455
0.317598
0.323051
0.328798
0.334827
0.341118
0.347656
0.35442
0.36139
0.368542
0.375852
0.383296
0.390845
0.398471
0.406144
0.413833
0.421505
0.429127
0.436664
0.444081
0.451342
0.458413
0.465256
0.471837
0.478121
0.484073
0.48966
0.494851
0.499616
0.503927
0.507759
0.511088
0.513895
0.516161
0.517873
0.519021
0.519596
0.27898
0.279378
0.280174
0.281366
0.282952
0.28493
0.287296
0.290046
0.293176
0.296679
0.300548
0.304777
0.309355
0.314274
0.319521
0.325085
0.330952
0.337106
0.343531
0.350209
0.357119
0.364242
0.371553
0.379029
0.386643
0.394367
0.402172
0.410028
0.417902
0.425762
0.433572
0.441298
0.448903
0.456351
0.463606
0.470629
0.477385
0.483837
0.48995
0.49569
0.501024
0.505922
0.510353
0.514293
0.517716
0.520602
0.522933
0.524695
0.525876
0.526468
0.280508
0.280916
0.281731
0.282952
0.284577
0.286604
0.289029
0.291848
0.295056
0.298648
0.302616
0.306953
0.311651
0.316698
0.322084
0.327797
0.333823
0.340145
0.346748
0.353614
0.360721
0.368048
0.375573
0.38327
0.391111
0.39907
0.407116
0.415216
0.42334
0.431451
0.439515
0.447494
0.455352
0.463051
0.470553
0.477818
0.484809
0.491488
0.497818
0.503763
0.50929
0.514366
0.51896
0.523044
0.526595
0.529588
0.532007
0.533834
0.53506
0.535674
0.282412
0.282833
0.283672
0.28493
0.286604
0.288692
0.29119
0.294095
0.297402
0.301105
0.305197
0.30967
0.314517
0.319726
0.325286
0.331186
0.337411
0.343945
0.350771
0.357872
0.365226
0.372811
0.380604
0.388578
0.396707
0.404961
0.413309
0.421718
0.430155
0.438584
0.446967
0.455266
0.463444
0.471459
0.479273
0.486843
0.494132
0.501097
0.507702
0.513908
0.519678
0.52498
0.529779
0.534048
0.537759
0.540889
0.543418
0.545329
0.546611
0.547253
0.28469
0.285125
0.285994
0.287296
0.289029
0.29119
0.293777
0.296786
0.300211
0.304047
0.308288
0.312926
0.317951
0.323355
0.329125
0.33525
0.341715
0.348504
0.3556
0.362985
0.370636
0.378533
0.386649
0.39496
0.403436
0.412047
0.420761
0.429544
0.43836
0.447173
0.455944
0.464632
0.473197
0.481597
0.48979
0.497732
0.505382
0.512697
0.519636
0.526158
0.532226
0.537803
0.542853
0.547346
0.551253
0.55455
0.557213
0.559227
0.560577
0.561254
0.287338
0.28779
0.288693
0.290046
0.291848
0.294095
0.296786
0.299915
0.303479
0.307472
0.311887
0.316716
0.321952
0.327583
0.333599
0.339988
0.346734
0.353822
0.361235
0.368953
0.376954
0.385216
0.393714
0.402419
0.411304
0.420335
0.42948
0.438704
0.447969
0.457236
0.466465
0.475613
0.484636
0.493491
0.502133
0.510515
0.518594
0.526323
0.533659
0.540558
0.546978
0.552882
0.558231
0.562991
0.567131
0.570625
0.57345
0.575585
0.577017
0.577735
0.29035
0.290822
0.291764
0.293176
0.295056
0.297402
0.300211
0.303479
0.307202
0.311374
0.315988
0.321038
0.326514
0.332407
0.338706
0.345397
0.352467
0.359899
0.367675
0.375777
0.384181
0.392865
0.401801
0.410963
0.420318
0.429836
0.43948
0.449214
0.458998
0.468791
0.47855
0.488231
0.497787
0.50717
0.516334
0.525229
0.533807
0.542019
0.549817
0.557155
0.563987
0.570273
0.57597
0.581042
0.585456
0.589181
0.592193
0.594471
0.595999
0.596765
0.29372
0.294214
0.2952
0.296679
0.298648
0.301105
0.304047
0.307472
0.311374
0.315747
0.320587
0.325885
0.331634
0.337822
0.34444
0.351474
0.35891
0.366731
0.37492
0.383457
0.392318
0.40148
0.410916
0.420596
0.430488
0.440559
0.450771
0.461087
0.471463
0.481857
0.492223
0.502513
0.512679
0.522669
0.532431
0.541915
0.551066
0.559832
0.568162
0.576006
0.583313
0.590038
0.596138
0.60157
0.606299
0.610291
0.61352
0.615963
0.617601
0.618422
0.297442
0.29796
0.298996
0.300548
0.302616
0.305197
0.308288
0.311887
0.315988
0.320587
0.325678
0.331254
0.337306
0.343824
0.350798
0.358215
0.366061
0.374318
0.382969
0.391993
0.401367
0.411066
0.421062
0.431324
0.44182
0.452514
0.463367
0.474338
0.485383
0.496457
0.507509
0.51849
0.529346
0.540023
0.550466
0.560617
0.57042
0.579818
0.588755
0.597174
0.605023
0.612251
0.618809
0.624653
0.629742
0.634041
0.637518
0.640149
0.641914
0.642799
0.301508
0.302053
0.303143
0.304777
0.306953
0.30967
0.312926
0.316716
0.321038
0.325885
0.331254
0.337135
0.343523
0.350406
0.357775
0.365616
0.373915
0.382655
0.391818
0.401383
0.411327
0.421623
0.432242
0.443154
0.454323
0.465712
0.47728
0.488985
0.500779
0.512613
0.524435
0.536191
0.547823
0.559274
0.570483
0.581387
0.591927
0.602038
0.61166
0.620731
0.629194
0.636991
0.64407
0.650381
0.655879
0.660525
0.664284
0.667129
0.669038
0.669996
0.305908
0.306484
0.307632
0.309355
0.311651
0.314517
0.317951
0.321952
0.326514
0.331634
0.337306
0.343523
0.350278
0.357561
0.365363
0.373669
0.382466
0.391738
0.401465
0.411626
0.422197
0.433152
0.44446
0.456089
0.468003
0.480162
0.492524
0.505043
0.517669
0.53035
0.543029
0.55565
0.568149
0.580465
0.592531
0.60428
0.615644
0.626557
0.636949
0.646754
0.655907
0.664346
0.672013
0.678851
0.684812
0.68985
0.693929
0.697016
0.699088
0.700127
0.310634
0.311241
0.312455
0.314274
0.316698
0.319726
0.323355
0.327583
0.332407
0.337822
0.343824
0.350406
0.357561
0.365281
0.373553
0.382367
0.391709
0.40156
0.411903
0.422717
0.433975
0.445652
0.457716
0.470133
0.482866
0.495874
0.509111
0.522528
0.536074
0.549692
0.563322
0.576901
0.590364
0.603641
0.616662
0.629352
0.641639
0.653446
0.6647
0.675328
0.685256
0.694416
0.702742
0.710173
0.716654
0.722134
0.726572
0.729933
0.732188
0.73332
0.315674
0.316316
0.317598
0.319521
0.322084
0.325286
0.329125
0.333599
0.338706
0.34444
0.350798
0.357775
0.365363
0.373553
0.382337
0.391701
0.401632
0.412114
0.423127
0.43465
0.446657
0.459121
0.47201
0.485289
0.498919
0.512855
0.527052
0.541456
0.556014
0.570664
0.585342
0.599981
0.614509
0.628852
0.642931
0.656667
0.669979
0.682784
0.695
0.706544
0.717338
0.727305
0.73637
0.744466
0.75153
0.757507
0.762349
0.766016
0.768478
0.769714
0.321015
0.321694
0.323051
0.325085
0.327797
0.331186
0.33525
0.339988
0.345397
0.351474
0.358215
0.365616
0.373669
0.382367
0.391701
0.401659
0.412227
0.423389
0.435126
0.447417
0.460236
0.473555
0.48734
0.501556
0.516162
0.531112
0.546357
0.561842
0.577508
0.59329
0.60912
0.624925
0.640628
0.656146
0.671397
0.686291
0.700739
0.714652
0.727937
0.740503
0.752263
0.763129
0.773021
0.781861
0.789579
0.796112
0.801406
0.805418
0.808112
0.809463
0.326645
0.327363
0.328798
0.330952
0.333823
0.337411
0.341715
0.346734
0.352467
0.35891
0.366061
0.373915
0.382466
0.391709
0.401632
0.412227
0.423479
0.435373
0.44789
0.461009
0.474703
0.488945
0.503701
0.518932
0.534597
0.550649
0.567035
0.583697
0.600572
0.617593
0.634685
0.651769
0.668762
0.685576
0.702117
0.71829
0.733997
0.749137
0.763608
0.777311
0.790145
0.802015
0.812829
0.822499
0.830948
0.838104
0.843905
0.848302
0.851256
0.852739
0.332547
0.333307
0.334827
0.337106
0.340145
0.343945
0.348504
0.353822
0.359899
0.366731
0.374318
0.382655
0.391738
0.40156
0.412114
0.423389
0.435373
0.448051
0.461404
0.475411
0.490047
0.505283
0.521084
0.537411
0.554222
0.571466
0.589089
0.60703
0.625223
0.643594
0.662064
0.680548
0.698956
0.717192
0.735154
0.752737
0.769833
0.78633
0.802117
0.817081
0.83111
0.844097
0.855938
0.866536
0.875802
0.883653
0.890023
0.894852
0.898097
0.899726
0.338706
0.339511
0.341118
0.343531
0.346748
0.350771
0.3556
0.361235
0.367675
0.37492
0.382969
0.391818
0.401465
0.411903
0.423127
0.435126
0.44789
0.461404
0.47565
0.490608
0.506253
0.522554
0.539478
0.556984
0.575029
0.593561
0.612522
0.631849
0.651471
0.67131
0.691282
0.711295
0.731251
0.751045
0.770568
0.789703
0.808331
0.826329
0.843571
0.859933
0.87529
0.88952
0.902506
0.914139
0.924317
0.932947
0.939952
0.945265
0.948836
0.950629
0.345104
0.345955
0.347656
0.350209
0.353614
0.357872
0.362985
0.368953
0.375777
0.383457
0.391993
0.401383
0.411626
0.422717
0.43465
0.447417
0.461009
0.475411
0.490608
0.506579
0.5233
0.54074
0.558866
0.577638
0.597009
0.616926
0.637331
0.658155
0.679324
0.700757
0.722361
0.744039
0.765686
0.787186
0.80842
0.829261
0.849577
0.869231
0.888083
0.905995
0.922826
0.938439
0.952701
0.965489
0.976686
0.986187
0.993903
0.999759
1.0037
1.00567
0.351722
0.352622
0.35442
0.357119
0.360721
0.365226
0.370636
0.376954
0.384181
0.392318
0.401367
0.411327
0.422197
0.433975
0.446657
0.460236
0.474703
0.490047
0.506253
0.5233
0.541165
0.559819
0.579229
0.599353
0.620145
0.64155
0.663506
0.685945
0.708786
0.731943
0.755319
0.778809
0.802298
0.825662
0.848771
0.871485
0.893658
0.915139
0.935772
0.955401
0.973868
0.991019
1.0067
1.02078
1.03312
1.04359
1.05211
1.05857
1.06292
1.0651
0.358539
0.359489
0.36139
0.364242
0.368048
0.372811
0.378533
0.385216
0.392865
0.40148
0.411066
0.421623
0.433152
0.445652
0.459121
0.473555
0.488945
0.505283
0.522554
0.54074
0.559819
0.579763
0.600539
0.622105
0.644415
0.667412
0.691034
0.715208
0.739851
0.764872
0.790167
0.815623
0.841118
0.866518
0.891678
0.916447
0.940663
0.964158
0.986759
1.00829
1.02858
1.04744
1.06471
1.08023
1.09384
1.10541
1.11482
1.12196
1.12677
1.12919
0.365532
0.366535
0.368542
0.371553
0.375573
0.380604
0.386649
0.393714
0.401801
0.410916
0.421062
0.432242
0.44446
0.457716
0.47201
0.48734
0.503701
0.521084
0.539478
0.558866
0.579229
0.600539
0.622763
0.645863
0.66979
0.694488
0.719893
0.745929
0.77251
0.799539
0.826909
0.854498
0.882173
0.909791
0.937194
0.964215
0.990677
1.01639
1.04117
1.06481
1.08712
1.10789
1.12693
1.14406
1.1591
1.17189
1.18231
1.19022
1.19555
1.19823
0.372679
0.373736
0.375852
0.379029
0.38327
0.388578
0.39496
0.402419
0.410963
0.420596
0.431324
0.443154
0.456089
0.470133
0.485289
0.501556
0.518932
0.537411
0.556984
0.577638
0.599353
0.622105
0.645863
0.670588
0.696234
0.722743
0.750051
0.77808
0.806741
0.835933
0.865542
0.895438
0.925481
0.955514
0.985367
1.01486
1.04379
1.07195
1.09913
1.12511
1.14966
1.17256
1.19358
1.21251
1.22916
1.24333
1.25488
1.26366
1.26958
1.27255
0.379953
0.381067
0.383296
0.386643
0.391111
0.396707
0.403436
0.411304
0.420318
0.430488
0.44182
0.454323
0.468003
0.482866
0.498919
0.516162
0.534597
0.554222
0.575029
0.597009
0.620145
0.644415
0.66979
0.696234
0.7237
0.752134
0.781469
0.811626
0.842515
0.87403
0.90605
0.938441
0.97105
1.00371
1.03624
1.06843
1.10007
1.13093
1.16077
1.18935
1.2164
1.24167
1.2649
1.28586
1.30431
1.32004
1.33287
1.34263
1.34921
1.35252
0.387327
0.3885
0.390845
0.394367
0.39907
0.404961
0.412047
0.420335
0.429836
0.440559
0.452514
0.465712
0.480162
0.495874
0.512855
0.531112
0.550649
0.571466
0.593561
0.616926
0.64155
0.667412
0.694488
0.722743
0.752134
0.782606
0.814094
0.846519
0.879788
0.913792
0.948406
0.983488
1.01888
1.05439
1.08983
1.12498
1.1596
1.19344
1.22622
1.25768
1.28751
1.31544
1.34116
1.36439
1.38488
1.40236
1.41664
1.42751
1.43484
1.43853
0.394775
0.396007
0.398471
0.402172
0.407116
0.413309
0.420761
0.42948
0.43948
0.450771
0.463367
0.47728
0.492524
0.509111
0.527052
0.546357
0.567035
0.589089
0.612522
0.637331
0.663506
0.691034
0.719893
0.750051
0.781469
0.814094
0.847863
0.882698
0.918504
0.95517
0.992568
1.03055
1.06894
1.10755
1.14617
1.18455
1.22244
1.25956
1.29561
1.33026
1.36321
1.3941
1.42261
1.44841
1.4712
1.49067
1.50659
1.51872
1.52691
1.53103
0.402267
0.403559
0.406144
0.410028
0.415216
0.421718
0.429544
0.438704
0.449214
0.461087
0.474338
0.488985
0.505043
0.522528
0.541456
0.561842
0.583697
0.60703
0.631849
0.658155
0.685945
0.715208
0.745929
0.77808
0.811626
0.846519
0.882698
0.920085
0.958589
0.998097
1.03848
1.07957
1.12121
1.16318
1.20525
1.24717
1.28865
1.32939
1.36904
1.40726
1.44367
1.4779
1.50955
1.53825
1.56364
1.58538
1.60317
1.61674
1.62591
1.63053
0.409771
0.411125
0.413833
0.417902
0.42334
0.430155
0.43836
0.447969
0.458998
0.471463
0.485383
0.500779
0.517669
0.536074
0.556014
0.577508
0.600572
0.625223
0.651471
0.679324
0.708786
0.739851
0.77251
0.806741
0.842515
0.879788
0.918504
0.958589
0.999953
1.04248
1.08605
1.13049
1.17562
1.22122
1.26705
1.31284
1.35826
1.40299
1.44664
1.48883
1.52912
1.56709
1.60229
1.63428
1.66263
1.68695
1.70687
1.7221
1.73239
1.73758
0.417257
0.418672
0.421505
0.425762
0.431451
0.438584
0.447173
0.457236
0.468791
0.481857
0.496457
0.512613
0.53035
0.549692
0.570664
0.59329
0.617593
0.643594
0.67131
0.700757
0.731943
0.764872
0.799539
0.835933
0.87403
0.913792
0.95517
0.998097
1.04248
1.08822
1.13518
1.1832
1.23209
1.28162
1.33153
1.38153
1.43128
1.48041
1.5285
1.57511
1.61975
1.66194
1.70115
1.73687
1.76861
1.79588
1.81826
1.83539
1.84698
1.85283
0.424691
0.426169
0.429127
0.433572
0.439515
0.446967
0.455944
0.466465
0.47855
0.492223
0.507509
0.524435
0.543029
0.563322
0.585342
0.60912
0.634685
0.662064
0.691282
0.722361
0.755319
0.790167
0.826909
0.865542
0.90605
0.948406
0.992568
1.03848
1.08605
1.13518
1.18575
1.23759
1.29051
1.34427
1.39861
1.4532
1.5077
1.56168
1.61469
1.66623
1.71576
1.76271
1.80647
1.84646
1.88207
1.91274
1.93796
1.95729
1.97038
1.97698
0.43204
0.43358
0.436664
0.441298
0.447494
0.455266
0.464632
0.475613
0.488231
0.502513
0.51849
0.536191
0.55565
0.576901
0.599981
0.624925
0.651769
0.680548
0.711295
0.744039
0.778809
0.815623
0.854498
0.895438
0.938441
0.983488
1.03055
1.07957
1.13049
1.1832
1.23759
1.2935
1.35072
1.40904
1.46817
1.52777
1.58745
1.64679
1.70526
1.76231
1.81733
1.86967
1.91862
1.96348
2.00354
2.03814
2.06665
2.08855
2.10339
2.11089
0.43927
0.440873
0.444081
0.448903
0.455352
0.463444
0.473197
0.484636
0.497787
0.512679
0.529346
0.547823
0.568149
0.590364
0.614509
0.640628
0.668762
0.698956
0.731251
0.765686
0.802298
0.841118
0.882173
0.925481
0.97105
1.01888
1.06894
1.12121
1.17562
1.23209
1.29051
1.35072
1.41255
1.47576
1.54005
1.60509
1.67046
1.73568
1.80022
1.86343
1.92464
1.98308
2.03795
2.08841
2.13363
2.1728
2.20515
2.23004
2.24694
2.25549
0.446346
0.448011
0.451342
0.456351
0.463051
0.471459
0.481597
0.493491
0.50717
0.522669
0.540023
0.559274
0.580465
0.603641
0.628852
0.656146
0.685576
0.717192
0.751045
0.787186
0.825662
0.866518
0.909791
0.955514
1.00371
1.05439
1.10755
1.16318
1.22122
1.28162
1.34427
1.40904
1.47576
1.54419
1.61404
1.68497
1.75655
1.82826
1.89952
1.96963
2.03781
2.10319
2.16485
2.22178
2.27299
2.31749
2.35435
2.38278
2.40211
2.41189
0.453234
0.454959
0.458413
0.463606
0.470553
0.479273
0.48979
0.502133
0.516334
0.532431
0.550466
0.570483
0.592531
0.616662
0.642931
0.671397
0.702117
0.735154
0.770568
0.80842
0.848771
0.891678
0.937194
0.985367
1.03624
1.08983
1.14617
1.20525
1.26705
1.33153
1.39861
1.46817
1.54005
1.61404
1.68986
1.76716
1.8455
1.92435
2.00305
2.08087
2.15693
2.23023
2.29968
2.36412
2.42232
2.47309
2.51529
2.54791
2.57014
2.5814
0.459899
0.461684
0.465256
0.470629
0.477818
0.486843
0.497732
0.510515
0.525229
0.541915
0.560617
0.581387
0.60428
0.629352
0.656667
0.686291
0.71829
0.752737
0.789703
0.829261
0.871485
0.916447
0.964215
1.01486
1.06843
1.12498
1.18455
1.24717
1.31284
1.38153
1.4532
1.52777
1.60509
1.68497
1.76716
1.85132
1.937
2.02366
2.11062
2.19706
2.28201
2.36435
2.44281
2.51598
2.58241
2.64061
2.68917
2.72681
2.75251
2.76555
0.466307
0.468149
0.471837
0.477385
0.484809
0.494132
0.505382
0.518594
0.533807
0.551066
0.57042
0.591927
0.615644
0.641639
0.669979
0.700739
0.733997
0.769833
0.808331
0.849577
0.893658
0.940663
0.990677
1.04379
1.10007
1.1596
1.22244
1.28865
1.35826
1.43128
1.5077
1.58745
1.67046
1.75655
1.8455
1.937
2.03062
2.12582
2.22189
2.31796
2.41298
2.50566
2.59454
2.67795
2.75411
2.82118
2.87736
2.92107
2.95098
2.96617
0.472423
0.474321
0.478121
0.483837
0.491488
0.501097
0.512697
0.526323
0.542019
0.559832
0.579818
0.602038
0.626557
0.653446
0.682784
0.714652
0.749137
0.78633
0.826329
0.869231
0.915139
0.964158
1.01639
1.07195
1.13093
1.19344
1.25956
1.32939
1.40299
1.48041
1.56168
1.64679
1.73568
1.82826
1.92435
2.02366
2.12582
2.23029
2.33639
2.44321
2.54959
2.65413
2.75512
2.85058
2.93834
3.01607
3.08151
3.1326
3.16765
3.18548
0.478215
0.480166
0.484073
0.48995
0.497818
0.507702
0.519636
0.533659
0.549817
0.568162
0.588755
0.61166
0.636949
0.6647
0.695
0.727937
0.763608
0.802117
0.843571
0.888083
0.935772
0.986759
1.04117
1.09913
1.16077
1.22622
1.29561
1.36904
1.44664
1.5285
1.61469
1.70526
1.80022
1.89952
2.00305
2.11062
2.22189
2.33639
2.45347
2.57221
2.69141
2.80954
2.92464
3.03438
3.13606
3.22676
3.30352
3.36369
3.40507
3.42615
0.483651
0.485652
0.48966
0.49569
0.503763
0.513908
0.526158
0.540558
0.557155
0.576006
0.597174
0.620731
0.646754
0.675328
0.706544
0.740503
0.777311
0.817081
0.859933
0.905995
0.955401
1.00829
1.06481
1.12511
1.18935
1.25768
1.33026
1.40726
1.48883
1.57511
1.66623
1.76231
1.86343
1.96963
2.08087
2.19706
2.31796
2.44321
2.57221
2.70412
2.83773
2.97141
3.103
3.22974
3.34831
3.45492
3.5457
3.61714
3.66638
3.6915
0.4887
0.490749
0.494851
0.501024
0.50929
0.519678
0.532226
0.546978
0.563987
0.583313
0.605023
0.629194
0.655907
0.685256
0.717338
0.752263
0.790145
0.83111
0.87529
0.922826
0.973868
1.02858
1.08712
1.14966
1.2164
1.28751
1.36321
1.44367
1.52912
1.61975
1.71576
1.81733
1.92464
2.03781
2.15693
2.28201
2.41298
2.54959
2.69141
2.83773
2.98743
3.13887
3.28973
3.43683
3.57607
3.70249
3.81084
3.89639
3.95545
3.98559
0.493334
0.495426
0.499616
0.505922
0.514366
0.52498
0.537803
0.552882
0.570273
0.590038
0.612251
0.636991
0.664346
0.694416
0.727305
0.763129
0.802015
0.844097
0.88952
0.938439
0.991019
1.04744
1.10789
1.17256
1.24167
1.31544
1.3941
1.4779
1.56709
1.66194
1.76271
1.86967
1.98308
2.10319
2.23023
2.36435
2.50566
2.65413
2.80954
2.97141
3.13887
3.31043
3.48377
3.65538
3.82025
3.97177
4.10243
4.20579
4.27712
4.31348
0.497526
0.499658
0.503927
0.510353
0.51896
0.529779
0.542853
0.558231
0.57597
0.596138
0.618809
0.64407
0.672013
0.702742
0.73637
0.773021
0.812829
0.855938
0.902506
0.952701
1.0067
1.06471
1.12693
1.19358
1.2649
1.34116
1.42261
1.50955
1.60229
1.70115
1.80647
1.91862
2.03795
2.16485
2.29968
2.44281
2.59454
2.75512
2.92464
3.103
3.28973
3.48377
3.68313
3.8843
4.08144
4.26556
4.42503
4.5509
4.63745
4.68145
0.501251
0.503418
0.507759
0.514293
0.523044
0.534048
0.547346
0.562991
0.581042
0.60157
0.624653
0.650381
0.678851
0.710173
0.744466
0.781861
0.822499
0.866536
0.914139
0.965489
1.02078
1.08023
1.14406
1.21251
1.28586
1.36439
1.44841
1.53825
1.63428
1.73687
1.84646
1.96348
2.08841
2.22178
2.36412
2.51598
2.67795
2.85058
3.03438
3.22974
3.43683
3.65538
3.8843
4.1209
4.35934
4.58769
4.78494
4.93906
5.04408
5.09716
0.504486
0.506685
0.511088
0.517716
0.526595
0.537759
0.551253
0.567131
0.585456
0.606299
0.629742
0.655879
0.684812
0.716654
0.75153
0.789579
0.830948
0.875802
0.924317
0.976686
1.03312
1.09384
1.1591
1.22916
1.30431
1.38488
1.4712
1.56364
1.66263
1.76861
1.88207
2.00354
2.13363
2.27299
2.42232
2.58241
2.75411
2.93834
3.13606
3.34831
3.57607
3.82025
4.08144
4.35934
4.65106
4.94464
5.19171
5.3801
5.50642
5.56971
0.507214
0.509438
0.513895
0.520602
0.529588
0.540889
0.55455
0.570625
0.589181
0.610291
0.634041
0.660525
0.68985
0.722134
0.757507
0.796112
0.838104
0.883653
0.932947
0.986187
1.04359
1.10541
1.17189
1.24333
1.32004
1.40236
1.49067
1.58538
1.68695
1.79588
1.91274
2.03814
2.1728
2.31749
2.47309
2.64061
2.82118
3.01607
3.22676
3.45492
3.70249
3.97177
4.26556
4.58769
4.94464
5.35185
5.66095
5.88698
6.03559
6.10935
0.509416
0.511662
0.516161
0.522933
0.532007
0.543418
0.557213
0.57345
0.592193
0.61352
0.637518
0.664284
0.693929
0.726572
0.762349
0.801406
0.843905
0.890023
0.939952
0.993903
1.05211
1.11482
1.18231
1.25488
1.33287
1.41664
1.50659
1.60317
1.70687
1.81826
1.93796
2.06665
2.20515
2.35435
2.51529
2.68917
2.87736
3.08151
3.30352
3.5457
3.81084
4.10243
4.42503
4.78494
5.19171
5.66095
6.01707
6.27509
6.44342
6.52658
0.51108
0.513342
0.517873
0.524695
0.533834
0.545329
0.559227
0.575585
0.594471
0.615963
0.640149
0.667129
0.697016
0.729933
0.766016
0.805418
0.848302
0.894852
0.945265
0.999759
1.05857
1.12196
1.19022
1.26366
1.34263
1.42751
1.51872
1.61674
1.7221
1.83539
1.95729
2.08855
2.23004
2.38278
2.54791
2.72681
2.92107
3.1326
3.36369
3.61714
3.89639
4.20579
4.5509
4.93906
5.3801
5.88698
6.27509
6.55671
6.74024
6.83081
0.512194
0.514467
0.519021
0.525876
0.53506
0.546611
0.560577
0.577017
0.595999
0.617601
0.641914
0.669038
0.699088
0.732188
0.768478
0.808112
0.851256
0.898097
0.948836
1.0037
1.06292
1.12677
1.19555
1.26958
1.34921
1.43484
1.52691
1.62591
1.73239
1.84698
1.97038
2.10339
2.24694
2.40211
2.57014
2.75251
2.95098
3.16765
3.40507
3.66638
3.95545
4.27712
4.63745
5.04408
5.50642
6.03559
6.44342
6.74024
6.93388
7.02945
0.512753
0.515031
0.519596
0.526468
0.535674
0.547253
0.561254
0.577735
0.596765
0.618422
0.642799
0.669996
0.700127
0.73332
0.769714
0.809463
0.852739
0.899726
0.950629
1.00567
1.0651
1.12919
1.19823
1.27255
1.35252
1.43853
1.53103
1.63053
1.73758
1.85283
1.97698
2.11089
2.25549
2.41189
2.5814
2.76555
2.96617
3.18548
3.42615
3.6915
3.98559
4.31348
4.68145
5.09716
5.56971
6.10935
6.52658
6.83081
7.02945
7.12752
)
;

boundaryField
{
    walls
    {
        type            zeroGradient;
    }
    frontAndBack
    {
        type            empty;
    }
}


// ************************************************************************* //
