/*--------------------------------*- C++ -*----------------------------------*\
| =========                 |                                                 |
| \\      /  F ield         | OpenFOAM: The Open Source CFD Toolbox           |
|  \\    /   O peration     | Version:  2406                                  |
|   \\  /    A nd           | Website:  www.openfoam.com                      |
|    \\/     M anipulation  |                                                 |
\*---------------------------------------------------------------------------*/
FoamFile
{
    version     2.0;
    format      ascii;
    arch        "LSB;label=32;scalar=64";
    class       volVectorField;
    location    "0.8";
    object      flux;
}
// * * * * * * * * * * * * * * * * * * * * * * * * * * * * * * * * * * * * * //

dimensions      [0 1 -1 1 0 0 0];

internalField   nonuniform List<vector> 
2500
(
(0.000461983 0.000461983 0)
(0.00137819 0.000462868 0)
(0.00227405 0.00046478 0)
(0.00313739 0.000467624 0)
(0.00395473 0.000471413 0)
(0.00471421 0.000476154 0)
(0.00540492 0.000481858 0)
(0.006017 0.000488533 0)
(0.00654189 0.000496191 0)
(0.00697238 0.000504849 0)
(0.00730278 0.000514524 0)
(0.007529 0.000525236 0)
(0.00764857 0.000537011 0)
(0.00766074 0.000549876 0)
(0.00756639 0.00056386 0)
(0.00736812 0.000578999 0)
(0.0070701 0.000595325 0)
(0.00667804 0.000612875 0)
(0.0061991 0.000631685 0)
(0.00564172 0.000651788 0)
(0.0050155 0.000673215 0)
(0.00433106 0.00069599 0)
(0.00359981 0.000720132 0)
(0.00283376 0.000745649 0)
(0.00204538 0.000772536 0)
(0.00124733 0.000800775 0)
(0.000452272 0.00083033 0)
(-0.00032732 0.000861143 0)
(-0.00107938 0.000893139 0)
(-0.00179241 0.000926214 0)
(-0.00245571 0.000960242 0)
(-0.00305948 0.000995069 0)
(-0.00359501 0.00103051 0)
(-0.00405478 0.00106637 0)
(-0.00443255 0.0011024 0)
(-0.00472349 0.00113835 0)
(-0.00492421 0.00117393 0)
(-0.00503276 0.00120885 0)
(-0.00504871 0.00124279 0)
(-0.00497306 0.00127543 0)
(-0.0048083 0.00130644 0)
(-0.00455824 0.00133549 0)
(-0.00422806 0.00136227 0)
(-0.00382412 0.00138646 0)
(-0.00335391 0.0014078 0)
(-0.00282591 0.00142603 0)
(-0.00224949 0.00144093 0)
(-0.00163474 0.00145233 0)
(-0.000992288 0.00146001 0)
(-0.000332741 0.00146335 0)
(0.000462868 0.00137819 0)
(0.00138099 0.00138099 0)
(0.00227881 0.00138672 0)
(0.00314402 0.00139528 0)
(0.00396326 0.00140668 0)
(0.00472466 0.00142095 0)
(0.0054173 0.00143812 0)
(0.00603134 0.0014582 0)
(0.0065582 0.00148126 0)
(0.00699071 0.00150732 0)
(0.00732317 0.00153644 0)
(0.00755149 0.00156869 0)
(0.00767321 0.00160415 0)
(0.00768759 0.0016429 0)
(0.00759552 0.00168503 0)
(0.00739958 0.00173065 0)
(0.00710397 0.00177985 0)
(0.0067144 0.00183276 0)
(0.00623801 0.00188949 0)
(0.00568324 0.00195012 0)
(0.00505971 0.00201477 0)
(0.00437798 0.00208351 0)
(0.00364946 0.00215639 0)
(0.00288617 0.00223345 0)
(0.00210051 0.00231466 0)
(0.00130512 0.00239998 0)
(0.00051264 0.00248929 0)
(-0.00026451 0.00258244 0)
(-0.0010143 0.00267918 0)
(-0.00172531 0.00277921 0)
(-0.00238686 0.00288214 0)
(-0.00298921 0.00298751 0)
(-0.00352371 0.00309478 0)
(-0.00398289 0.0032033 0)
(-0.00436057 0.00331238 0)
(-0.00465197 0.00342123 0)
(-0.00485371 0.00352899 0)
(-0.0049639 0.00363476 0)
(-0.00498212 0.00373759 0)
(-0.00490941 0.00383648 0)
(-0.00474823 0.00393045 0)
(-0.00450241 0.0040185 0)
(-0.00417709 0.00409966 0)
(-0.00377858 0.00417302 0)
(-0.00331434 0.0042377 0)
(-0.00279278 0.00429296 0)
(-0.00222318 0.00433814 0)
(-0.00161567 0.00437273 0)
(-0.000981275 0.0043963 0)
(-0.000329399 0.0044075 0)
(0.00046478 0.00227405 0)
(0.00138672 0.00227881 0)
(0.00228834 0.00228834 0)
(0.00315735 0.00230261 0)
(0.0039804 0.00232165 0)
(0.00474565 0.00234549 0)
(0.00544217 0.00237417 0)
(0.00606014 0.00240775 0)
(0.006591 0.0024463 0)
(0.00702756 0.0024899 0)
(0.00736416 0.00253866 0)
(0.00759671 0.00259269 0)
(0.00772278 0.00265212 0)
(0.00774161 0.00271711 0)
(0.00765414 0.00278783 0)
(0.00746294 0.00286445 0)
(0.00717222 0.00294716 0)
(0.00678767 0.00303617 0)
(0.00631646 0.00313165 0)
(0.005767 0.0032338 0)
(0.00514889 0.00334279 0)
(0.00447268 0.00345876 0)
(0.00374974 0.0035818 0)
(0.00299203 0.00371198 0)
(0.00221191 0.00384927 0)
(0.00142196 0.00399359 0)
(0.000634732 0.00414477 0)
(-0.000137435 0.00430252 0)
(-0.000882606 0.00446644 0)
(-0.00158945 0.00463603 0)
(-0.00224741 0.00481063 0)
(-0.00284685 0.00498945 0)
(-0.00337922 0.00517155 0)
(-0.00383717 0.00535588 0)
(-0.00421462 0.00554121 0)
(-0.00450688 0.00572622 0)
(-0.00471067 0.00590944 0)
(-0.00482417 0.00608934 0)
(-0.00484698 0.00626427 0)
(-0.0047802 0.00643256 0)
(-0.00462628 0.00659251 0)
(-0.00438903 0.00674241 0)
(-0.00407355 0.00688061 0)
(-0.00368608 0.00700553 0)
(-0.00323396 0.00711569 0)
(-0.00272547 0.00720978 0)
(-0.00216971 0.00728666 0)
(-0.00157658 0.00734543 0)
(-0.000957522 0.00738539 0)
(-0.000321544 0.00740534 0)
(0.000467624 0.00313739 0)
(0.00139528 0.00314402 0)
(0.00230261 0.00315735 0)
(0.00317733 0.00317733 0)
(0.00400613 0.00320401 0)
(0.00477718 0.00323744 0)
(0.00547956 0.00327769 0)
(0.00610347 0.00332485 0)
(0.00664036 0.00337904 0)
(0.00708307 0.00344038 0)
(0.00742595 0.00350903 0)
(0.00766495 0.00358518 0)
(0.00779764 0.00366904 0)
(0.00782329 0.00376084 0)
(0.00774285 0.00386083 0)
(0.00755892 0.00396931 0)
(0.00727569 0.00408654 0)
(0.00689889 0.00421285 0)
(0.00643565 0.00434851 0)
(0.00589439 0.00449381 0)
(0.00528466 0.00464902 0)
(0.00461699 0.00481434 0)
(0.00390268 0.00498995 0)
(0.00315363 0.00517592 0)
(0.00238212 0.00537227 0)
(0.00160062 0.00557887 0)
(0.000821563 0.00579547 0)
(5.71643e-05 0.00602169 0)
(-0.00068079 0.00625696 0)
(-0.00138112 0.00650054 0)
(-0.00203344 0.00675151 0)
(-0.00262829 0.00700871 0)
(-0.00315728 0.00727082 0)
(-0.00361323 0.00753628 0)
(-0.00399023 0.00780334 0)
(-0.00428373 0.00807007 0)
(-0.00449059 0.00833436 0)
(-0.00460907 0.00859396 0)
(-0.0046389 0.00884651 0)
(-0.00458118 0.00908956 0)
(-0.00443839 0.00932064 0)
(-0.00421431 0.00953727 0)
(-0.00391397 0.00973704 0)
(-0.0035435 0.00991764 0)
(-0.00311009 0.0100769 0)
(-0.0026218 0.010213 0)
(-0.00208754 0.010324 0)
(-0.00151694 0.0104088 0)
(-0.000921366 0.010466 0)
(-0.000309454 0.0104948 0)
(0.000471413 0.00395473 0)
(0.00140668 0.00396326 0)
(0.00232165 0.0039804 0)
(0.00320401 0.00400613 0)
(0.00404051 0.00404051 0)
(0.00481933 0.00408362 0)
(0.00552959 0.00413556 0)
(0.00616149 0.00419648 0)
(0.00670652 0.00426654 0)
(0.00715755 0.00434594 0)
(0.00750896 0.00443492 0)
(0.00775672 0.00453373 0)
(0.00789844 0.00464269 0)
(0.00793341 0.00476213 0)
(0.00786261 0.00489243 0)
(0.00768865 0.00503399 0)
(0.00741575 0.00518721 0)
(0.00704964 0.00535253 0)
(0.00659742 0.00553036 0)
(0.00606751 0.00572112 0)
(0.00546942 0.00592518 0)
(0.00481361 0.00614284 0)
(0.00411132 0.00637437 0)
(0.00337435 0.00661989 0)
(0.00261485 0.00687944 0)
(0.00184516 0.00715287 0)
(0.00107755 0.00743987 0)
(0.000324054 0.00773995 0)
(-0.00040375 0.00805237 0)
(-0.0010949 0.00837614 0)
(-0.00173924 0.00871004 0)
(-0.00232753 0.00905254 0)
(-0.00285166 0.00940186 0)
(-0.00330465 0.00975591 0)
(-0.00368083 0.0101124 0)
(-0.00397586 0.0104686 0)
(-0.00418678 0.0108218 0)
(-0.00431202 0.011169 0)
(-0.00435138 0.0115069 0)
(-0.00430607 0.0118322 0)
(-0.00417857 0.0121417 0)
(-0.00397263 0.0124319 0)
(-0.00369318 0.0126997 0)
(-0.00334619 0.0129418 0)
(-0.00293865 0.0131554 0)
(-0.00247836 0.0133378 0)
(-0.00197391 0.0134867 0)
(-0.00143462 0.0136002 0)
(-0.000871507 0.0136768 0)
(-0.000292766 0.0137153 0)
(0.000476154 0.00471421 0)
(0.00142095 0.00472466 0)
(0.00234549 0.00474565 0)
(0.00323744 0.00477718 0)
(0.00408362 0.00481933 0)
(0.00487223 0.00487223 0)
(0.00559243 0.00493604 0)
(0.00623445 0.00501095 0)
(0.00678982 0.00509721 0)
(0.00725144 0.00519509 0)
(0.00761374 0.00530493 0)
(0.00787272 0.0054271 0)
(0.00802604 0.00556205 0)
(0.00807304 0.00571022 0)
(0.00801471 0.00587215 0)
(0.00785369 0.00604838 0)
(0.00759423 0.00623948 0)
(0.00724204 0.00644603 0)
(0.00680424 0.00666863 0)
(0.0062892 0.00690782 0)
(0.00570639 0.00716414 0)
(0.00506619 0.00743802 0)
(0.00437973 0.00772982 0)
(0.0036587 0.00803974 0)
(0.0029151 0.00836787 0)
(0.00216106 0.00871405 0)
(0.00140865 0.00907792 0)
(0.000669657 0.00945887 0)
(-4.46003e-05 0.00985598 0)
(-0.000723454 0.010268 0)
(-0.00135704 0.0106934 0)
(-0.00193647 0.0111302 0)
(-0.00245391 0.0115761 0)
(-0.00290272 0.0120285 0)
(-0.00327753 0.0124844 0)
(-0.00357427 0.0129404 0)
(-0.00379022 0.0133928 0)
(-0.00392402 0.0138378 0)
(-0.00397564 0.0142712 0)
(-0.00394636 0.0146888 0)
(-0.0038387 0.0150862 0)
(-0.00365635 0.015459 0)
(-0.00340412 0.0158031 0)
(-0.00308781 0.0161144 0)
(-0.0027141 0.0163891 0)
(-0.00229047 0.0166237 0)
(-0.0018251 0.0168153 0)
(-0.00132684 0.0169613 0)
(-0.000806253 0.0170598 0)
(-0.000270927 0.0171094 0)
(0.000481858 0.00540492 0)
(0.00143812 0.0054173 0)
(0.00237417 0.00544217 0)
(0.00327769 0.00547956 0)
(0.00413556 0.00552959 0)
(0.00493604 0.00559243 0)
(0.00566831 0.00566831 0)
(0.00632266 0.0057575 0)
(0.00689066 0.00586034 0)
(0.00736528 0.00597723 0)
(0.00774098 0.00610862 0)
(0.00801384 0.00625503 0)
(0.00818156 0.00641705 0)
(0.00824352 0.0065953 0)
(0.00820076 0.00679048 0)
(0.00805598 0.00700334 0)
(0.00781341 0.00723465 0)
(0.00747879 0.00748518 0)
(0.00705922 0.00775572 0)
(0.00656302 0.00804703 0)
(0.00599962 0.00835981 0)
(0.00537929 0.00869468 0)
(0.00471305 0.00905211 0)
(0.0040124 0.00943244 0)
(0.00328916 0.00983579 0)
(0.00255522 0.010262 0)
(0.00182238 0.0107108 0)
(0.00110211 0.0111813 0)
(0.000405386 0.0116724 0)
(-0.000257488 0.0121827 0)
(-0.000877045 0.0127102 0)
(-0.00144479 0.0132526 0)
(-0.00195331 0.0138068 0)
(-0.00239637 0.0143698 0)
(-0.00276898 0.0149375 0)
(-0.00306745 0.015506 0)
(-0.00328936 0.0160705 0)
(-0.00343363 0.0166262 0)
(-0.00350042 0.0171678 0)
(-0.00349113 0.01769 0)
(-0.00340833 0.0181873 0)
(-0.00325566 0.0186541 0)
(-0.00303778 0.0190852 0)
(-0.00276022 0.0194753 0)
(-0.00242932 0.0198197 0)
(-0.00205214 0.0201139 0)
(-0.00163631 0.0203542 0)
(-0.00119011 0.0205374 0)
(-0.000723477 0.0206609 0)
(-0.000243226 0.0207231 0)
(0.000488533 0.006017 0)
(0.0014582 0.00603134 0)
(0.00240775 0.00606014 0)
(0.00332485 0.00610347 0)
(0.00419648 0.00616149 0)
(0.00501095 0.00623445 0)
(0.0057575 0.00632266 0)
(0.00642649 0.00642649 0)
(0.00700955 0.0065464 0)
(0.00749972 0.00668293 0)
(0.00789154 0.00683669 0)
(0.00818114 0.00700838 0)
(0.00836631 0.00719876 0)
(0.00844648 0.00740869 0)
(0.00842275 0.00763908 0)
(0.00829785 0.00789091 0)
(0.00807606 0.00816519 0)
(0.00776312 0.00846296 0)
(0.0073661 0.00878525 0)
(0.00689329 0.00913306 0)
(0.00635403 0.00950732 0)
(0.00575848 0.00990885 0)
(0.00511749 0.0103383 0)
(0.00444238 0.0107962 0)
(0.0037447 0.0112828 0)
(0.00303606 0.0117978 0)
(0.0023279 0.0123411 0)
(0.00163131 0.0129115 0)
(0.000956849 0.013508 0)
(0.000314345 0.0141286 0)
(-0.000287226 0.014771 0)
(-0.000839875 0.0154323 0)
(-0.00133671 0.0161091 0)
(-0.00177201 0.0167972 0)
(-0.00214128 0.0174921 0)
(-0.00244128 0.0181885 0)
(-0.00267001 0.0188807 0)
(-0.00282671 0.0195627 0)
(-0.00291183 0.0202281 0)
(-0.00292691 0.02087 0)
(-0.00287459 0.0214817 0)
(-0.00275845 0.0220564 0)
(-0.00258294 0.0225873 0)
(-0.00235332 0.0230681 0)
(-0.00207549 0.0234927 0)
(-0.00175593 0.0238555 0)
(-0.00140163 0.024152 0)
(-0.00102012 0.024378 0)
(-0.000620556 0.0245305 0)
(-0.000208782 0.0246071 0)
(0.000496191 0.00654189 0)
(0.00148126 0.0065582 0)
(0.0024463 0.006591 0)
(0.00337904 0.00664036 0)
(0.00426654 0.00670652 0)
(0.00509721 0.00678982 0)
(0.00586034 0.00689066 0)
(0.0065464 0.00700955 0)
(0.0071471 0.0071471 0)
(0.00765557 0.00730402 0)
(0.00806642 0.00748111 0)
(0.0083759 0.00767928 0)
(0.00858187 0.00789955 0)
(0.00868384 0.00814302 0)
(0.00868299 0.00841088 0)
(0.00858209 0.0087044 0)
(0.00838546 0.00902489 0)
(0.00809884 0.00937369 0)
(0.00772931 0.00975214 0)
(0.00728509 0.0101615 0)
(0.00677541 0.0106031 0)
(0.0062103 0.011078 0)
(0.00560042 0.011587 0)
(0.00495683 0.0121308 0)
(0.00429078 0.0127098 0)
(0.00361351 0.013324 0)
(0.00293606 0.0139729 0)
(0.00226903 0.0146556 0)
(0.00162243 0.0153705 0)
(0.00100554 0.0161156 0)
(0.000426722 0.0168881 0)
(-0.000106679 0.0176844 0)
(-0.000588411 0.0185004 0)
(-0.0010134 0.0193311 0)
(-0.00137775 0.020171 0)
(-0.00167881 0.0210136 0)
(-0.0019151 0.0218522 0)
(-0.00208629 0.0226792 0)
(-0.00219315 0.0234867 0)
(-0.00223746 0.0242664 0)
(-0.00222192 0.0250101 0)
(-0.00215004 0.0257092 0)
(-0.00202609 0.0263555 0)
(-0.00185491 0.026941 0)
(-0.00164188 0.0274584 0)
(-0.00139281 0.0279008 0)
(-0.00111387 0.0282623 0)
(-0.000811646 0.028538 0)
(-0.000494319 0.028724 0)
(-0.000166533 0.0288175 0)
(0.000504849 0.00697238 0)
(0.00150732 0.00699071 0)
(0.0024899 0.00702756 0)
(0.00344038 0.00708307 0)
(0.00434594 0.00715755 0)
(0.00519509 0.00725144 0)
(0.00597723 0.00736528 0)
(0.00668293 0.00749972 0)
(0.00730402 0.00765557 0)
(0.00783373 0.00783373 0)
(0.0082668 0.00803525 0)
(0.00859958 0.0082613 0)
(0.00883005 0.00851319 0)
(0.00895781 0.00879234 0)
(0.00898413 0.00910026 0)
(0.00891186 0.00943857 0)
(0.00874535 0.00980894 0)
(0.00849037 0.0102131 0)
(0.00815396 0.0106528 0)
(0.00774428 0.0111296 0)
(0.00727044 0.0116452 0)
(0.00674232 0.0122009 0)
(0.00617033 0.012798 0)
(0.00556522 0.0134374 0)
(0.0049379 0.0141195 0)
(0.00429914 0.0148446 0)
(0.00365948 0.0156122 0)
(0.00302894 0.0164212 0)
(0.00241688 0.0172699 0)
(0.00183188 0.0181559 0)
(0.00128154 0.0190758 0)
(0.000772438 0.0200257 0)
(0.000310028 0.0210004 0)
(-0.000101404 0.0219941 0)
(-0.000458746 0.0229999 0)
(-0.000760047 0.0240104 0)
(-0.00100448 0.025017 0)
(-0.00119226 0.0260109 0)
(-0.00132458 0.0269822 0)
(-0.00140349 0.0279211 0)
(-0.00143183 0.0288173 0)
(-0.00141303 0.0296604 0)
(-0.00135109 0.0304404 0)
(-0.00125042 0.0311475 0)
(-0.00111575 0.0317726 0)
(-0.000952041 0.0323074 0)
(-0.000764457 0.0327446 0)
(-0.000558444 0.033078 0)
(-0.000340977 0.0333031 0)
(-0.000115209 0.0334163 0)
(0.000514524 0.00730278 0)
(0.00153644 0.00732317 0)
(0.00253866 0.00736416 0)
(0.00350903 0.00742595 0)
(0.00443492 0.00750896 0)
(0.00530493 0.00761374 0)
(0.00610862 0.00774098 0)
(0.00683669 0.00789154 0)
(0.00748111 0.00806642 0)
(0.00803525 0.0082668 0)
(0.008494 0.008494 0)
(0.00885385 0.00874951 0)
(0.0091129 0.00903498 0)
(0.0092709 0.00935219 0)
(0.00932921 0.00970308 0)
(0.00929077 0.0100897 0)
(0.00916 0.0105141 0)
(0.00894267 0.0109785 0)
(0.0086458 0.011485 0)
(0.00827749 0.0120358 0)
(0.00784671 0.0126329 0)
(0.00736313 0.0132781 0)
(0.00683688 0.0139729 0)
(0.00627837 0.0147187 0)
(0.00569803 0.0155161 0)
(0.00510615 0.0163655 0)
(0.00451261 0.0172664 0)
(0.00392675 0.0182178 0)
(0.00335714 0.0192177 0)
(0.0028115 0.0202634 0)
(0.00229654 0.021351 0)
(0.00181786 0.0224756 0)
(0.00137996 0.0236314 0)
(0.000986139 0.0248115 0)
(0.000638567 0.0260076 0)
(0.000338306 0.0272107 0)
(8.53835e-05 0.0284107 0)
(-0.000121108 0.0295969 0)
(-0.000282897 0.0307574 0)
(-0.000402403 0.0318803 0)
(-0.000482602 0.032953 0)
(-0.000526892 0.0339631 0)
(-0.000538965 0.0348983 0)
(-0.000522689 0.0357467 0)
(-0.000482014 0.0364971 0)
(-0.000420894 0.0371395 0)
(-0.000343257 0.0376647 0)
(-0.000253143 0.0380655 0)
(-0.000156052 0.0383361 0)
(-5.33073e-05 0.0384722 0)
(0.000525236 0.007529 0)
(0.00156869 0.00755149 0)
(0.00259269 0.00759671 0)
(0.00358518 0.00766495 0)
(0.00453373 0.00775672 0)
(0.0054271 0.00787272 0)
(0.00625503 0.00801384 0)
(0.00700838 0.00818114 0)
(0.00767928 0.0083759 0)
(0.0082613 0.00859958 0)
(0.00874951 0.00885385 0)
(0.00914056 0.00914056 0)
(0.00943273 0.00946177 0)
(0.00962591 0.00981971 0)
(0.0097216 0.0102168 0)
(0.00972285 0.0106555 0)
(0.00963414 0.0111385 0)
(0.00946129 0.0116685 0)
(0.0092113 0.0122482 0)
(0.00889217 0.0128803 0)
(0.00851271 0.0135673 0)
(0.00808237 0.0143114 0)
(0.00761094 0.0151149 0)
(0.00710841 0.0159791 0)
(0.0065847 0.0169054 0)
(0.00604944 0.0178941 0)
(0.0055118 0.0189449 0)
(0.00498026 0.0200568 0)
(0.00446247 0.0212276 0)
(0.0039651 0.0224542 0)
(0.00349376 0.0237321 0)
(0.00305292 0.0250558 0)
(0.00264587 0.0264183 0)
(0.00227472 0.0278114 0)
(0.00194049 0.0292256 0)
(0.00164313 0.0306499 0)
(0.00138169 0.0320725 0)
(0.00115439 0.0334802 0)
(0.000958832 0.0348592 0)
(0.000792122 0.0361948 0)
(0.000651063 0.0374721 0)
(0.000532304 0.0386759 0)
(0.000432488 0.0397913 0)
(0.000348383 0.0408039 0)
(0.000276975 0.0417002 0)
(0.000215533 0.0424678 0)
(0.000161623 0.0430957 0)
(0.000112916 0.0435751 0)
(6.57197e-05 0.0438987 0)
(2.09356e-05 0.0440616 0)
(0.000537011 0.00764857 0)
(0.00160415 0.00767321 0)
(0.00265212 0.00772278 0)
(0.00366904 0.00779764 0)
(0.00464269 0.00789844 0)
(0.00556205 0.00802604 0)
(0.00641705 0.00818156 0)
(0.00719876 0.00836631 0)
(0.00789955 0.00858187 0)
(0.00851319 0.00883005 0)
(0.00903498 0.0091129 0)
(0.00946177 0.00943273 0)
(0.00979205 0.00979205 0)
(0.0100259 0.0101936 0)
(0.010165 0.0106404 0)
(0.0102125 0.0111355 0)
(0.010173 0.0116821 0)
(0.0100524 0.0122837 0)
(0.00985758 0.0129434 0)
(0.00959652 0.0136648 0)
(0.00927785 0.0144508 0)
(0.00891072 0.0153045 0)
(0.00850457 0.0162283 0)
(0.00806888 0.0172246 0)
(0.00761295 0.0182946 0)
(0.00714569 0.0194393 0)
(0.00667537 0.0206585 0)
(0.00620947 0.0219511 0)
(0.00575453 0.0233149 0)
(0.005316 0.0247462 0)
(0.00489815 0.0262401 0)
(0.00450406 0.0277901 0)
(0.00413558 0.0293882 0)
(0.00379338 0.0310248 0)
(0.00347706 0.0326886 0)
(0.00318523 0.0343667 0)
(0.00291568 0.0360451 0)
(0.0026656 0.0377081 0)
(0.0024317 0.0393391 0)
(0.00221049 0.0409207 0)
(0.00199849 0.0424347 0)
(0.00179234 0.0438631 0)
(0.00158907 0.0451877 0)
(0.00138619 0.0463912 0)
(0.0011818 0.0474572 0)
(0.00097464 0.0483706 0)
(0.000764074 0.0491183 0)
(0.000549853 0.0496893 0)
(0.000330488 0.0500749 0)
(0.000109583 0.050269 0)
(0.000549876 0.00766074 0)
(0.0016429 0.00768759 0)
(0.00271711 0.00774161 0)
(0.00376084 0.00782329 0)
(0.00476213 0.00793341 0)
(0.00571022 0.00807304 0)
(0.0065953 0.00824352 0)
(0.00740869 0.00844648 0)
(0.00814302 0.00868384 0)
(0.00879234 0.00895781 0)
(0.00935219 0.0092709 0)
(0.00981971 0.00962591 0)
(0.0101936 0.0100259 0)
(0.0104743 0.0104743 0)
(0.0106635 0.0109745 0)
(0.0107646 0.0115305 0)
(0.0107823 0.0121462 0)
(0.0107226 0.0128257 0)
(0.0105924 0.013573 0)
(0.0103995 0.0143923 0)
(0.0101524 0.0152874 0)
(0.00985992 0.016262 0)
(0.00953103 0.0173193 0)
(0.00917468 0.0184621 0)
(0.00879944 0.0196925 0)
(0.00841333 0.0210115 0)
(0.00802363 0.0224194 0)
(0.00763663 0.0239151 0)
(0.00725753 0.0254963 0)
(0.00689032 0.0271589 0)
(0.0065377 0.0288974 0)
(0.00620107 0.0307043 0)
(0.00588054 0.0325706 0)
(0.00557504 0.0344848 0)
(0.00528243 0.0364339 0)
(0.00499968 0.0384029 0)
(0.00472305 0.0403749 0)
(0.00444841 0.0423316 0)
(0.00417138 0.0442531 0)
(0.00388771 0.0461186 0)
(0.00359347 0.0479065 0)
(0.00328531 0.049595 0)
(0.00296065 0.0511624 0)
(0.00261787 0.0525877 0)
(0.00225637 0.053851 0)
(0.00187666 0.0549342 0)
(0.00148027 0.0558214 0)
(0.00106946 0.0564992 0)
(0.000645424 0.056957 0)
(0.000215042 0.0571875 0)
(0.00056386 0.00756639 0)
(0.00168503 0.00759552 0)
(0.00278783 0.00765414 0)
(0.00386083 0.00774285 0)
(0.00489243 0.00786261 0)
(0.00587215 0.00801471 0)
(0.00679048 0.00820076 0)
(0.00763908 0.00842275 0)
(0.00841088 0.00868299 0)
(0.00910026 0.00898413 0)
(0.00970308 0.00932921 0)
(0.0102168 0.0097216 0)
(0.0106404 0.010165 0)
(0.0109745 0.0106635 0)
(0.0112213 0.0112213 0)
(0.0113842 0.0118431 0)
(0.0114682 0.0125336 0)
(0.0114792 0.0132978 0)
(0.0114242 0.0141407 0)
(0.0113109 0.0150672 0)
(0.0111476 0.0160821 0)
(0.0109427 0.01719 0)
(0.0107048 0.0183949 0)
(0.0104421 0.0197003 0)
(0.0101623 0.0211088 0)
(0.00987263 0.0226222 0)
(0.00957897 0.0242411 0)
(0.0092863 0.0259645 0)
(0.00899826 0.0277899 0)
(0.00871709 0.0297131 0)
(0.00844363 0.031728 0)
(0.00817726 0.033826 0)
(0.00791602 0.0359966 0)
(0.00765674 0.0382269 0)
(0.00739516 0.0405016 0)
(0.00712623 0.0428031 0)
(0.00684437 0.0451117 0)
(0.00654376 0.0474056 0)
(0.0062187 0.0496615 0)
(0.00586391 0.0518544 0)
(0.0054749 0.0539587 0)
(0.00504822 0.0559483 0)
(0.00458174 0.057797 0)
(0.0040748 0.0594797 0)
(0.00352839 0.0609724 0)
(0.00294507 0.0622533 0)
(0.00232899 0.0633029 0)
(0.00168544 0.0641051 0)
(0.00101887 0.0646471 0)
(0.000340112 0.0649202 0)
(0.000578999 0.00736812 0)
(0.00173065 0.00739958 0)
(0.00286445 0.00746294 0)
(0.00396931 0.00755892 0)
(0.00503399 0.00768865 0)
(0.00604838 0.00785369 0)
(0.00700334 0.00805598 0)
(0.00789091 0.00829785 0)
(0.0087044 0.00858209 0)
(0.00943857 0.00891186 0)
(0.0100897 0.00929077 0)
(0.0106555 0.00972285 0)
(0.0111355 0.0102125 0)
(0.0115305 0.0107646 0)
(0.0118431 0.0113842 0)
(0.0120769 0.0120769 0)
(0.0122371 0.0128484 0)
(0.0123297 0.0137046 0)
(0.0123618 0.0146515 0)
(0.012341 0.0156951 0)
(0.0122752 0.0168413 0)
(0.0121727 0.0180956 0)
(0.0120413 0.0194631 0)
(0.0118886 0.0209481 0)
(0.0117214 0.0225542 0)
(0.0115456 0.0242837 0)
(0.0113658 0.0261377 0)
(0.0111854 0.0281155 0)
(0.0110062 0.0302147 0)
(0.0108284 0.0324308 0)
(0.0106505 0.034757 0)
(0.0104697 0.0371837 0)
(0.0102814 0.0396991 0)
(0.01008 0.0422883 0)
(0.00985863 0.0449336 0)
(0.00960979 0.0476146 0)
(0.0093256 0.0503082 0)
(0.00899821 0.0529888 0)
(0.00862019 0.0556289 0)
(0.00818499 0.0581989 0)
(0.00768734 0.0606683 0)
(0.00712361 0.0630059 0)
(0.00649209 0.0651804 0)
(0.00579327 0.0671617 0)
(0.00502991 0.0689208 0)
(0.00420709 0.0704313 0)
(0.00333204 0.0716699 0)
(0.00241372 0.0726171 0)
(0.00146052 0.0732573 0)
(0.000488049 0.0735799 0)
(0.000595325 0.0070701 0)
(0.00177985 0.00710397 0)
(0.00294716 0.00717222 0)
(0.00408654 0.00727569 0)
(0.00518721 0.00741575 0)
(0.00623948 0.00759423 0)
(0.00723465 0.00781341 0)
(0.00816519 0.00807606 0)
(0.00902489 0.00838546 0)
(0.00980894 0.00874535 0)
(0.0105141 0.00916 0)
(0.0111385 0.00963414 0)
(0.0116821 0.010173 0)
(0.0121462 0.0107823 0)
(0.0125336 0.0114682 0)
(0.0128484 0.0122371 0)
(0.0130958 0.0130958 0)
(0.0132823 0.0140515 0)
(0.0134147 0.0151113 0)
(0.0135007 0.0162825 0)
(0.0135481 0.017572 0)
(0.0135645 0.0189867 0)
(0.0135573 0.0205327 0)
(0.0135332 0.0222156 0)
(0.0134979 0.0240398 0)
(0.0134561 0.0260086 0)
(0.0134107 0.0281237 0)
(0.0133633 0.0303849 0)
(0.0133136 0.03279 0)
(0.0132593 0.0353341 0)
(0.0131965 0.0380099 0)
(0.0131194 0.040807 0)
(0.0130206 0.0437118 0)
(0.0128912 0.0467074 0)
(0.0127214 0.0497735 0)
(0.0125008 0.0528866 0)
(0.0122186 0.0560197 0)
(0.0118645 0.059143 0)
(0.0114288 0.0622238 0)
(0.0109033 0.0652274 0)
(0.0102819 0.0681175 0)
(0.00956033 0.0708569 0)
(0.00873751 0.0734084 0)
(0.00781513 0.0757355 0)
(0.00679804 0.0778038 0)
(0.00569426 0.0795813 0)
(0.00451473 0.0810399 0)
(0.00327281 0.0821557 0)
(0.00198166 0.0829104 0)
(0.00066264 0.0832906 0)
(0.000612875 0.00667804 0)
(0.00183276 0.0067144 0)
(0.00303617 0.00678767 0)
(0.00421285 0.00689889 0)
(0.00535253 0.00704964 0)
(0.00644603 0.00724204 0)
(0.00748518 0.00747879 0)
(0.00846296 0.00776312 0)
(0.00937369 0.00809884 0)
(0.0102131 0.00849037 0)
(0.0109785 0.00894267 0)
(0.0116685 0.00946129 0)
(0.0122837 0.0100524 0)
(0.0128257 0.0107226 0)
(0.0132978 0.0114792 0)
(0.0137046 0.0123297 0)
(0.0140515 0.0132823 0)
(0.0143452 0.0143452 0)
(0.0145928 0.0155271 0)
(0.0148016 0.0168365 0)
(0.0149794 0.0182819 0)
(0.0151334 0.0198714 0)
(0.0152702 0.0216127 0)
(0.0153957 0.0235126 0)
(0.0155145 0.0255768 0)
(0.0156295 0.0278096 0)
(0.0157421 0.0302136 0)
(0.0158517 0.0327893 0)
(0.0159554 0.0355346 0)
(0.0160483 0.0384449 0)
(0.0161234 0.0415122 0)
(0.0161716 0.044725 0)
(0.0161818 0.0480683 0)
(0.0161418 0.051523 0)
(0.0160379 0.0550658 0)
(0.015856 0.0586697 0)
(0.015582 0.0623035 0)
(0.0152023 0.0659323 0)
(0.0147046 0.0695179 0)
(0.0140787 0.0730194 0)
(0.0133169 0.0763937 0)
(0.0124145 0.0795966 0)
(0.0113707 0.0825838 0)
(0.0101887 0.0853116 0)
(0.00887569 0.0877385 0)
(0.00744314 0.0898261 0)
(0.00590645 0.0915404 0)
(0.00428422 0.0928527 0)
(0.0025954 0.0937406 0)
(0.000868294 0.0941881 0)
(0.000631685 0.0061991 0)
(0.00188949 0.00623801 0)
(0.00313165 0.00631646 0)
(0.00434851 0.00643565 0)
(0.00553036 0.00659742 0)
(0.00666863 0.00680424 0)
(0.00775572 0.00705922 0)
(0.00878525 0.0073661 0)
(0.00975214 0.00772931 0)
(0.0106528 0.00815396 0)
(0.011485 0.0086458 0)
(0.0122482 0.0092113 0)
(0.0129434 0.00985758 0)
(0.013573 0.0105924 0)
(0.0141407 0.0114242 0)
(0.0146515 0.0123618 0)
(0.0151113 0.0134147 0)
(0.0155271 0.0145928 0)
(0.015906 0.015906 0)
(0.0162555 0.0173646 0)
(0.016583 0.0189787 0)
(0.0168953 0.0207581 0)
(0.0171985 0.022712 0)
(0.0174972 0.0248488 0)
(0.0177949 0.0271758 0)
(0.0180929 0.0296986 0)
(0.0183904 0.0324209 0)
(0.0186844 0.035344 0)
(0.0189693 0.0384667 0)
(0.0192369 0.0417841 0)
(0.0194767 0.0452881 0)
(0.0196756 0.0489662 0)
(0.0198185 0.0528017 0)
(0.0198887 0.0567733 0)
(0.0198682 0.0608548 0)
(0.0197385 0.0650149 0)
(0.0194812 0.0692179 0)
(0.0190789 0.073423 0)
(0.0185158 0.0775858 0)
(0.0177791 0.0816581 0)
(0.0168591 0.0855891 0)
(0.0157504 0.0893263 0)
(0.0144525 0.0928167 0)
(0.0129698 0.0960082 0)
(0.0113125 0.0988509 0)
(0.00949618 0.101299 0)
(0.00754134 0.10331 0)
(0.00547298 0.104851 0)
(0.00331704 0.105895 0)
(0.00111015 0.10642 0)
(0.000651788 0.00564172 0)
(0.00195012 0.00568324 0)
(0.0032338 0.005767 0)
(0.00449381 0.00589439 0)
(0.00572112 0.00606751 0)
(0.00690782 0.0062892 0)
(0.00804703 0.00656302 0)
(0.00913306 0.00689329 0)
(0.0101615 0.00728509 0)
(0.0111296 0.00774428 0)
(0.0120358 0.00827749 0)
(0.0128803 0.00889217 0)
(0.0136648 0.00959652 0)
(0.0143923 0.0103995 0)
(0.0150672 0.0113109 0)
(0.0156951 0.012341 0)
(0.0162825 0.0135007 0)
(0.0168365 0.0148016 0)
(0.0173646 0.0162555 0)
(0.0178743 0.0178743 0)
(0.0183729 0.0196701 0)
(0.0188666 0.0216545 0)
(0.0193609 0.0238387 0)
(0.0198595 0.026233 0)
(0.0203642 0.0288464 0)
(0.0208746 0.0316862 0)
(0.0213876 0.0347576 0)
(0.0218975 0.0380631 0)
(0.0223955 0.0416022 0)
(0.0228697 0.0453706 0)
(0.0233055 0.0493598 0)
(0.0236852 0.0535568 0)
(0.023989 0.0579432 0)
(0.0241948 0.0624952 0)
(0.0242795 0.0671835 0)
(0.024219 0.0719724 0)
(0.02399 0.0768209 0)
(0.0235702 0.0816821 0)
(0.0229397 0.0865038 0)
(0.022082 0.0912298 0)
(0.020985 0.0958001 0)
(0.0196421 0.100152 0)
(0.0180527 0.104224 0)
(0.016223 0.107952 0)
(0.0141662 0.111277 0)
(0.0119027 0.114143 0)
(0.00945921 0.116501 0)
(0.00686831 0.118308 0)
(0.00416441 0.119532 0)
(0.00139421 0.12015 0)
(0.000673215 0.0050155 0)
(0.00201477 0.00505971 0)
(0.00334279 0.00514889 0)
(0.00464902 0.00528466 0)
(0.00592518 0.00546942 0)
(0.00716414 0.00570639 0)
(0.00835981 0.00599962 0)
(0.00950732 0.00635403 0)
(0.0106031 0.00677541 0)
(0.0116452 0.00727044 0)
(0.0126329 0.00784671 0)
(0.0135673 0.00851271 0)
(0.0144508 0.00927785 0)
(0.0152874 0.0101524 0)
(0.0160821 0.0111476 0)
(0.0168413 0.0122752 0)
(0.017572 0.0135481 0)
(0.0182819 0.0149794 0)
(0.0189787 0.016583 0)
(0.0196701 0.0183729 0)
(0.0203632 0.0203632 0)
(0.0210639 0.0225678 0)
(0.021777 0.0250001 0)
(0.0225049 0.0276726 0)
(0.0232481 0.0305964 0)
(0.0240041 0.0337811 0)
(0.0247673 0.0372334 0)
(0.025529 0.0409577 0)
(0.0262768 0.0449545 0)
(0.0269945 0.0492202 0)
(0.0276628 0.0537466 0)
(0.0282589 0.05852 0)
(0.0287569 0.0635206 0)
(0.029129 0.0687224 0)
(0.0293454 0.0740923 0)
(0.029376 0.0795905 0)
(0.0291908 0.0851697 0)
(0.0287618 0.0907759 0)
(0.0280636 0.0963489 0)
(0.0270754 0.101823 0)
(0.0257818 0.107126 0)
(0.0241742 0.112187 0)
(0.022252 0.116929 0)
(0.0200229 0.121278 0)
(0.0175037 0.125162 0)
(0.0147201 0.128515 0)
(0.0117065 0.131275 0)
(0.00850437 0.133393 0)
(0.00515842 0.134828 0)
(0.00172752 0.135552 0)
(0.00069599 0.00433106 0)
(0.00208351 0.00437798 0)
(0.00345876 0.00447268 0)
(0.00481434 0.00461699 0)
(0.00614284 0.00481361 0)
(0.00743802 0.00506619 0)
(0.00869468 0.00537929 0)
(0.00990885 0.00575848 0)
(0.011078 0.0062103 0)
(0.0122009 0.00674232 0)
(0.0132781 0.00736313 0)
(0.0143114 0.00808237 0)
(0.0153045 0.00891072 0)
(0.016262 0.00985992 0)
(0.01719 0.0109427 0)
(0.0180956 0.0121727 0)
(0.0189867 0.0135645 0)
(0.0198714 0.0151334 0)
(0.0207581 0.0168953 0)
(0.0216545 0.0188666 0)
(0.0225678 0.0210639 0)
(0.0235036 0.0235036 0)
(0.0244658 0.0262015 0)
(0.0254559 0.0291729 0)
(0.0264727 0.0324315 0)
(0.0275116 0.0359891 0)
(0.0285642 0.039855 0)
(0.0296185 0.0440355 0)
(0.030658 0.0485328 0)
(0.0316619 0.0533446 0)
(0.0326052 0.058463 0)
(0.0334592 0.0638743 0)
(0.0341914 0.0695574 0)
(0.0347666 0.0754841 0)
(0.0351475 0.0816177 0)
(0.0352964 0.0879136 0)
(0.0351755 0.094318 0)
(0.0347495 0.100769 0)
(0.0339864 0.107197 0)
(0.0328596 0.113525 0)
(0.0313494 0.11967 0)
(0.0294446 0.125546 0)
(0.0271438 0.131062 0)
(0.0244564 0.13613 0)
(0.0214029 0.140663 0)
(0.0180157 0.144581 0)
(0.0143376 0.147811 0)
(0.0104212 0.150291 0)
(0.00632361 0.151972 0)
(0.00211833 0.152821 0)
(0.000720132 0.00359981 0)
(0.00215639 0.00364946 0)
(0.0035818 0.00374974 0)
(0.00498995 0.00390268 0)
(0.00637437 0.00411132 0)
(0.00772982 0.00437973 0)
(0.00905211 0.00471305 0)
(0.0103383 0.00511749 0)
(0.011587 0.00560042 0)
(0.012798 0.00617033 0)
(0.0139729 0.00683688 0)
(0.0151149 0.00761094 0)
(0.0162283 0.00850457 0)
(0.0173193 0.00953103 0)
(0.0183949 0.0107048 0)
(0.0194631 0.0120413 0)
(0.0205327 0.0135573 0)
(0.0216127 0.0152702 0)
(0.022712 0.0171985 0)
(0.0238387 0.0193609 0)
(0.0250001 0.021777 0)
(0.0262015 0.0244658 0)
(0.0274463 0.0274463 0)
(0.0287349 0.0307367 0)
(0.0300642 0.0343539 0)
(0.0314276 0.0383125 0)
(0.0328138 0.0426248 0)
(0.0342068 0.0472996 0)
(0.0355858 0.0523415 0)
(0.0369248 0.0577498 0)
(0.0381925 0.0635179 0)
(0.0393532 0.069632 0)
(0.0403667 0.0760706 0)
(0.0411894 0.0828032 0)
(0.0417749 0.0897899 0)
(0.0420763 0.0969806 0)
(0.0420465 0.104315 0)
(0.041641 0.111723 0)
(0.0408197 0.119123 0)
(0.0395486 0.126426 0)
(0.0378022 0.133536 0)
(0.0355656 0.140348 0)
(0.032836 0.146758 0)
(0.0296241 0.152658 0)
(0.0259549 0.157945 0)
(0.0218679 0.162522 0)
(0.0174164 0.166299 0)
(0.0126661 0.169203 0)
(0.00768893 0.171173 0)
(0.00257641 0.172168 0)
(0.000745649 0.00283376 0)
(0.00223345 0.00288617 0)