/*--------------------------------*- C++ -*----------------------------------*\
| =========                 |                                                 |
| \\      /  F ield         | OpenFOAM: The Open Source CFD Toolbox           |
|  \\    /   O peration     | Version:  2406                                  |
|   \\  /    A nd           | Website:  www.openfoam.com                      |
|    \\/     M anipulation  |                                                 |
\*---------------------------------------------------------------------------*/
FoamFile
{
    version     2.0;
    format      ascii;
    arch        "LSB;label=32;scalar=64";
    class       volScalarField;
    location    "0.8";
    object      gradTy;
}
// * * * * * * * * * * * * * * * * * * * * * * * * * * * * * * * * * * * * * //

dimensions      [0 -1 0 1 0 0 0];

internalField   nonuniform List<scalar> 
2500
(
0.00461983
0.00462868
0.0046478
0.00467624
0.00471413
0.00476154
0.00481858
0.00488533
0.00496191
0.00504849
0.00514524
0.00525236
0.00537011
0.00549876
0.0056386
0.00578999
0.00595325
0.00612875
0.00631685
0.00651788
0.00673215
0.0069599
0.00720132
0.00745649
0.00772536
0.00800775
0.0083033
0.00861143
0.00893139
0.00926214
0.00960242
0.00995069
0.0103051
0.0106637
0.011024
0.0113835
0.0117393
0.0120885
0.0124279
0.0127543
0.0130644
0.0133549
0.0136227
0.0138646
0.014078
0.0142603
0.0144093
0.0145233
0.0146001
0.0146335
0.0137819
0.0138099
0.0138672
0.0139528
0.0140668
0.0142095
0.0143812
0.014582
0.0148126
0.0150732
0.0153644
0.0156869
0.0160415
0.016429
0.0168503
0.0173065
0.0177985
0.0183276
0.0188949
0.0195012
0.0201477
0.0208351
0.0215639
0.0223345
0.0231466
0.0239998
0.0248929
0.0258244
0.0267918
0.0277921
0.0288214
0.0298751
0.0309478
0.032033
0.0331238
0.0342123
0.0352899
0.0363476
0.0373759
0.0383648
0.0393045
0.040185
0.0409966
0.0417302
0.042377
0.0429296
0.0433814
0.0437273
0.043963
0.044075
0.0227405
0.0227881
0.0228834
0.0230261
0.0232165
0.0234549
0.0237417
0.0240775
0.024463
0.024899
0.0253866
0.0259269
0.0265212
0.0271711
0.0278783
0.0286445
0.0294716
0.0303617
0.0313165
0.032338
0.0334279
0.0345876
0.035818
0.0371198
0.0384927
0.0399359
0.0414477
0.0430252
0.0446644
0.0463603
0.0481063
0.0498945
0.0517155
0.0535588
0.0554121
0.0572622
0.0590944
0.0608934
0.0626427
0.0643256
0.0659251
0.0674241
0.0688061
0.0700553
0.0711569
0.0720978
0.0728666
0.0734543
0.0738539
0.0740534
0.0313739
0.0314402
0.0315735
0.0317733
0.0320401
0.0323744
0.0327769
0.0332485
0.0337904
0.0344038
0.0350903
0.0358518
0.0366904
0.0376084
0.0386083
0.0396931
0.0408654
0.0421285
0.0434851
0.0449381
0.0464902
0.0481434
0.0498995
0.0517592
0.0537227
0.0557887
0.0579547
0.0602169
0.0625696
0.0650054
0.0675151
0.0700871
0.0727082
0.0753628
0.0780334
0.0807007
0.0833436
0.0859396
0.0884651
0.0908956
0.0932064
0.0953727
0.0973704
0.0991764
0.100769
0.10213
0.10324
0.104088
0.10466
0.104948
0.0395473
0.0396326
0.039804
0.0400613
0.0404051
0.0408362
0.0413556
0.0419648
0.0426654
0.0434594
0.0443492
0.0453373
0.0464269
0.0476213
0.0489243
0.0503399
0.0518721
0.0535253
0.0553036
0.0572112
0.0592518
0.0614284
0.0637437
0.0661989
0.0687944
0.0715287
0.0743987
0.0773995
0.0805237
0.0837614
0.0871004
0.0905254
0.0940186
0.0975591
0.101124
0.104686
0.108218
0.11169
0.115069
0.118322
0.121417
0.124319
0.126997
0.129418
0.131554
0.133378
0.134867
0.136002
0.136768
0.137153
0.0471421
0.0472466
0.0474565
0.0477718
0.0481933
0.0487223
0.0493604
0.0501095
0.0509721
0.0519509
0.0530493
0.054271
0.0556205
0.0571022
0.0587215
0.0604838
0.0623948
0.0644603
0.0666863
0.0690782
0.0716414
0.0743802
0.0772982
0.0803974
0.0836787
0.0871405
0.0907792
0.0945887
0.0985598
0.10268
0.106934
0.111302
0.115761
0.120285
0.124844
0.129404
0.133928
0.138378
0.142712
0.146888
0.150862
0.15459
0.158031
0.161144
0.163891
0.166237
0.168153
0.169613
0.170598
0.171094
0.0540492
0.054173
0.0544217
0.0547956
0.0552959
0.0559243
0.0566831
0.057575
0.0586034
0.0597723
0.0610862
0.0625503
0.0641705
0.065953
0.0679048
0.0700334
0.0723465
0.0748518
0.0775572
0.0804703
0.0835981
0.0869468
0.0905211
0.0943244
0.0983579
0.10262
0.107108
0.111813
0.116724
0.121827
0.127102
0.132526
0.138068
0.143698
0.149375
0.15506
0.160705
0.166262
0.171678
0.1769
0.181873
0.186541
0.190852
0.194753
0.198197
0.201139
0.203542
0.205374
0.206609
0.207231
0.06017
0.0603134
0.0606014
0.0610347
0.0616149
0.0623445
0.0632266
0.0642649
0.065464
0.0668293
0.0683669
0.0700838
0.0719876
0.0740869
0.0763908
0.0789091
0.0816519
0.0846296
0.0878525
0.0913306
0.0950732
0.0990885
0.103383
0.107962
0.112828
0.117978
0.123411
0.129115
0.13508
0.141286
0.14771
0.154323
0.161091
0.167972
0.174921
0.181885
0.188807
0.195627
0.202281
0.2087
0.214817
0.220564
0.225873
0.230681
0.234927
0.238555
0.24152
0.24378
0.245305
0.246071
0.0654189
0.065582
0.06591
0.0664036
0.0670652
0.0678982
0.0689066
0.0700955
0.071471
0.0730402
0.0748111
0.0767928
0.0789955
0.0814302
0.0841088
0.087044
0.0902489
0.0937369
0.0975214
0.101615
0.106031
0.11078
0.11587
0.121308
0.127098
0.13324
0.139729
0.146556
0.153705
0.161156
0.168881
0.176844
0.185004
0.193311
0.20171
0.210136
0.218522
0.226792
0.234867
0.242664
0.250101
0.257092
0.263555
0.26941
0.274584
0.279008
0.282623
0.28538
0.28724
0.288175
0.0697238
0.0699071
0.0702756
0.0708307
0.0715755
0.0725144
0.0736528
0.0749972
0.0765557
0.0783373
0.0803525
0.082613
0.0851319
0.0879234
0.0910026
0.0943857
0.0980894
0.102131
0.106528
0.111296
0.116452
0.122009
0.12798
0.134374
0.141195
0.148446
0.156122
0.164212
0.172699
0.181559
0.190758
0.200257
0.210004
0.219941
0.229999
0.240104
0.25017
0.260109
0.269822
0.279211
0.288173
0.296604
0.304404
0.311475
0.317726
0.323074
0.327446
0.33078
0.333031
0.334163
0.0730278
0.0732317
0.0736416
0.0742595
0.0750896
0.0761374
0.0774098
0.0789154
0.0806642
0.082668
0.08494
0.0874951
0.0903498
0.0935219
0.0970308
0.100897
0.105141
0.109785
0.11485
0.120358
0.126329
0.132781
0.139729
0.147187
0.155161
0.163655
0.172664
0.182178
0.192177
0.202634
0.21351
0.224756
0.236314
0.248115
0.260076
0.272107
0.284107
0.295969
0.307574
0.318803
0.32953
0.339631
0.348983
0.357467
0.364971
0.371395
0.376647
0.380655
0.383361
0.384722
0.07529
0.0755149
0.0759671
0.0766495
0.0775672
0.0787272
0.0801384
0.0818114
0.083759
0.0859958
0.0885385
0.0914056
0.0946177
0.0981971
0.102168
0.106555
0.111385
0.116685
0.122482
0.128803
0.135673
0.143114
0.151149
0.159791
0.169054
0.178941
0.189449
0.200568
0.212276
0.224542
0.237321
0.250558
0.264183
0.278114
0.292256
0.306499
0.320725
0.334802
0.348592
0.361948
0.374721
0.386759
0.397913
0.408039
0.417002
0.424678
0.430957
0.435751
0.438987
0.440616
0.0764857
0.0767321
0.0772278
0.0779764
0.0789844
0.0802604
0.0818156
0.0836631
0.0858187
0.0883005
0.091129
0.0943273
0.0979205
0.101936
0.106404
0.111355
0.116821
0.122837
0.129434
0.136648
0.144508
0.153045
0.162283
0.172246
0.182946
0.194393
0.206585
0.219511
0.233149
0.247462
0.262401
0.277901
0.293882
0.310248
0.326886
0.343667
0.360451
0.377081
0.393391
0.409207
0.424347
0.438631
0.451877
0.463912
0.474572
0.483706
0.491183
0.496893
0.500749
0.50269
0.0766074
0.0768759
0.0774161
0.0782329
0.0793341
0.0807304
0.0824352
0.0844648
0.0868384
0.0895781
0.092709
0.0962591
0.100259
0.104743
0.109745
0.115305
0.121462
0.128257
0.13573
0.143923
0.152874
0.16262
0.173193
0.184621
0.196925
0.210115
0.224194
0.239151
0.254963
0.271589
0.288974
0.307043
0.325706
0.344848
0.364339
0.384029
0.403749
0.423316
0.442531
0.461186
0.479065
0.49595
0.511624
0.525877
0.53851
0.549342
0.558214
0.564992
0.56957
0.571875
0.0756639
0.0759552
0.0765414
0.0774285
0.0786261
0.0801471
0.0820076
0.0842275
0.0868299
0.0898413
0.0932921
0.097216
0.10165
0.106635
0.112213
0.118431
0.125336
0.132978
0.141407
0.150672
0.160821
0.1719
0.183949
0.197003
0.211088
0.226222
0.242411
0.259645
0.277899
0.297131
0.31728
0.33826
0.359966
0.382269
0.405016
0.428031
0.451117
0.474056
0.496615
0.518544
0.539587
0.559483
0.57797
0.594797
0.609724
0.622533
0.633029
0.641051
0.646471
0.649202
0.0736812
0.0739958
0.0746294
0.0755892
0.0768865
0.0785369
0.0805598
0.0829785
0.0858209
0.0891186
0.0929077
0.0972285
0.102125
0.107646
0.113842
0.120769
0.128484
0.137046
0.146515
0.156951
0.168413
0.180956
0.194631
0.209481
0.225542
0.242837
0.261377
0.281155
0.302147
0.324308
0.34757
0.371837
0.396991
0.422883
0.449336
0.476146
0.503082
0.529888
0.556289
0.581989
0.606683
0.630059
0.651804
0.671617
0.689208
0.704313
0.716699
0.726171
0.732573
0.735799
0.070701
0.0710397
0.0717222
0.0727569
0.0741575
0.0759423
0.0781341
0.0807606
0.0838546
0.0874535
0.0916
0.0963414
0.10173
0.107823
0.114682
0.122371
0.130958
0.140515
0.151113
0.162825
0.17572
0.189867
0.205327
0.222156
0.240398
0.260086
0.281237
0.303849
0.3279
0.353341
0.380099
0.40807
0.437118
0.467074
0.497735
0.528866
0.560197
0.59143
0.622238
0.652274
0.681175
0.708569
0.734084
0.757355
0.778038
0.795813
0.810399
0.821557
0.829104
0.832906
0.0667804
0.067144
0.0678767
0.0689889
0.0704964
0.0724204
0.0747879
0.0776312
0.0809884
0.0849037
0.0894267
0.0946129
0.100524
0.107226
0.114792
0.123297
0.132823
0.143452
0.155271
0.168365
0.182819
0.198714
0.216127
0.235126
0.255768
0.278096
0.302136
0.327893
0.355346
0.384449
0.415122
0.44725
0.480683
0.51523
0.550658
0.586697
0.623035
0.659323
0.695179
0.730194
0.763937
0.795966
0.825838
0.853116
0.877385
0.898261
0.915404
0.928527
0.937406
0.941881
0.061991
0.0623801
0.0631646
0.0643565
0.0659742
0.0680424
0.0705922
0.073661
0.0772931
0.0815396
0.086458
0.092113
0.0985758
0.105924
0.114242
0.123618
0.134147
0.145928
0.15906
0.173646
0.189787
0.207581
0.22712
0.248488
0.271758
0.296986
0.324209
0.35344
0.384667
0.417841
0.452881
0.489662
0.528017
0.567733
0.608548
0.650149
0.692179
0.73423
0.775858
0.816581
0.855891
0.893263
0.928167
0.960082
0.988509
1.01299
1.0331
1.04851
1.05895
1.0642
0.0564172
0.0568324
0.05767
0.0589439
0.0606751
0.062892
0.0656302
0.0689329
0.0728509
0.0774428
0.0827749
0.0889217
0.0959652
0.103995
0.113109
0.12341
0.135007
0.148016
0.162555
0.178743
0.196701
0.216545
0.238387
0.26233
0.288464
0.316862
0.347576
0.380631
0.416022
0.453706
0.493598
0.535568
0.579432
0.624952
0.671835
0.719724
0.768209
0.816821
0.865038
0.912298
0.958001
1.00152
1.04224
1.07952
1.11277
1.14143
1.16501
1.18308
1.19532
1.2015
0.050155
0.0505971
0.0514889
0.0528466
0.0546942
0.0570639
0.0599962
0.0635403
0.0677541
0.0727044
0.0784671
0.0851271
0.0927785
0.101524
0.111476
0.122752
0.135481
0.149794
0.16583
0.183729
0.203632
0.225678
0.250001
0.276726
0.305964
0.337811
0.372334
0.409577
0.449545
0.492202
0.537466
0.5852
0.635206
0.687224
0.740923
0.795905
0.851697
0.907759
0.963489
1.01823
1.07126
1.12187
1.16929
1.21278
1.25162
1.28515
1.31275
1.33393
1.34828
1.35552
0.0433106
0.0437798
0.0447268
0.0461699
0.0481361
0.0506619
0.0537929
0.0575848
0.062103
0.0674232
0.0736313
0.0808237
0.0891072
0.0985992
0.109427
0.121727
0.135645
0.151334
0.168953
0.188666
0.210639
0.235036
0.262015
0.291729
0.324315
0.359891
0.39855
0.440355
0.485328
0.533446
0.58463
0.638743
0.695574
0.754841
0.816177
0.879136
0.94318
1.00769
1.07197
1.13525
1.1967
1.25546
1.31062
1.3613
1.40663
1.44581
1.47811
1.50291
1.51972
1.52821
0.0359981
0.0364946
0.0374974
0.0390268
0.0411132
0.0437973
0.0471305
0.0511749
0.0560042
0.0617033
0.0683688
0.0761094
0.0850457
0.0953103
0.107048
0.120413
0.135573
0.152702
0.171985
0.193609
0.21777
0.244658
0.274463
0.307367
0.343539
0.383125
0.426248
0.472996
0.523415
0.577498
0.635179
0.69632
0.760706
0.828032
0.897899
0.969806
1.04315
1.11723
1.19123
1.26426
1.33536
1.40348
1.46758
1.52658
1.57945
1.62522
1.66299
1.69203
1.71173
1.72168
0.0283376
0.0288617
0.0299203
0.0315363
0.0337435
0.036587
0.040124
0.0444238
0.0495683
0.0556522
0.0627837
0.0710841
0.0806888
0.0917468
0.104421
0.118886
0.135332
0.153957
0.174972
0.198595
0.225049
0.254559
0.287349
0.323634
0.36362
0.40749
0.455401
0.507474
0.563784
0.62435
0.689124
0.757977
0.830691
0.906945
0.986308
1.06823
1.15203
1.23691
1.32195
1.40611
1.48825
1.56716
1.64158
1.71023
1.77187
1.82531
1.86949
1.90348
1.92656
1.93822
0.0204538
0.0210051
0.0221191
0.0238212
0.0261485
0.029151
0.0328916
0.037447
0.0429078
0.049379
0.0569803
0.065847
0.0761295
0.0879944
0.101623
0.117214
0.134979
0.155145
0.177949
0.203642
0.232481
0.264727
0.300642
0.340484
0.384498
0.43291
0.485921
0.543692
0.606337
0.673909
0.746385
0.823657
0.905511
0.991617
1.08152
1.17461
1.27014
1.36721
1.46477
1.56161
1.6564
1.74772
1.83408
1.91393
1.98578
2.04819
2.09986
2.13967
2.16672
2.18041
0.0124733
0.0130512
0.0142196
0.0160062
0.0184516
0.0216106
0.0255522
0.0303606
0.0361351
0.0429914
0.0510615
0.0604944
0.0714569
0.0841333
0.0987263
0.115456
0.134561
0.156295
0.180929
0.208746
0.240041
0.275116
0.314276
0.357825
0.406057
0.459248
0.51765
0.581475
0.650885
0.725978
0.806772
0.893185
0.985021
1.08195
1.1835
1.28901
1.39767
1.50847
1.6202
1.73148
1.84077
1.94638
2.04654
2.13942
2.22318
2.2961
2.35657
2.40323
2.43498
2.45104
0.00452272
0.0051264
0.00634732
0.00821563
0.0107755
0.0140865
0.0182238
0.023279
0.0293606
0.0365948
0.0451261
0.055118
0.0667537
0.0802363
0.0957897
0.113658
0.134107
0.157421
0.183904
0.213876
0.247673
0.285642
0.328138
0.375514
0.428122
0.486296
0.550348
0.620553
0.697134
0.780246
0.86996
0.96624
1.06892
1.17769
1.29206
1.41135
1.53466
1.66087
1.78862
1.91635
2.04224
2.16433
2.28049
2.38852
2.48623
2.57149
2.64234
2.69709
2.73438
2.75327
-0.0032732
-0.0026451
-0.00137435
0.000571643
0.00324054
0.00669657
0.0110211
0.0163131
0.0226903
0.0302894
0.0392675
0.0498026
0.0620947
0.0763663
0.092863
0.111854
0.133633
0.158517
0.186844
0.218975
0.25529
0.296185
0.342068
0.393352
0.450451
0.513769
0.583687
0.660554
0.74467
0.836264
0.935477
1.04234
1.15673
1.27838
1.4068
1.54129
1.68089
1.82438
1.97025
2.11668
2.2616
2.40268
2.53741
2.66314
2.77721
2.87701
2.96013
3.02448
3.06838
3.09062
-0.0107938
-0.010143
-0.00882606
-0.0068079
-0.0040375
-0.000446003
0.00405386
0.00956849
0.0162243
0.0241688
0.0335714
0.0446247
0.0575453
0.0725753
0.0899826
0.110062
0.133136
0.159554
0.189693
0.223955
0.262768
0.30658
0.355858
0.411082
0.472735
0.541298
0.617238
0.700992
0.792948
0.893432
1.00267
1.12079
1.24774
1.38331
1.52705
1.67825
1.83593
1.99874
2.16502
2.33272
2.49944
2.66246
2.81878
2.96523
3.09855
3.21555
3.31326
3.38906
3.44083
3.46709
-0.0179241
-0.0172531
-0.0158945
-0.0138112
-0.010949
-0.00723454
-0.00257488
0.00314345
0.0100554
0.0183188
0.028115
0.039651
0.05316
0.0689032
0.0871709
0.108284
0.132593
0.160483
0.192369
0.228697
0.269945
0.316619
0.369248
0.428383
0.494588
0.568431
0.650474
0.741258
0.841281
0.950984
1.07072
1.2007
1.34102
1.49153
1.65187
1.82135
1.99898
2.18333
2.37258
2.56444
2.75614
2.94452
3.12601
3.29678
3.45285
3.5903
3.70542
3.79492
3.85616
3.88725
-0.0245571
-0.0238686
-0.0224741
-0.0203344
-0.0173924
-0.0135704
-0.00877045
-0.00287226
0.00426722
0.0128154
0.0229654
0.0349376
0.0489815
0.065377
0.0844363
0.106505
0.131965
0.161234
0.194767
0.233055
0.276628
0.326052
0.381925
0.444875
0.515552
0.594623
0.682758
0.780617
0.888831
1.00798
1.13855
1.28093
1.43533
1.60175
1.77994
1.9693
2.16885
2.37713
2.59217
2.81142
3.03177
3.2495
3.46039
3.6598
3.84289
4.00475
4.14077
4.24679
4.31948
4.35642
-0.0305948
-0.0298921
-0.0284685
-0.0262829
-0.0232753
-0.0193647
-0.0144479
-0.00839875
-0.00106679
0.00772438
0.0181786
0.0305292
0.0450406
0.0620107
0.0817726
0.104697
0.131194
0.161716
0.196756
0.236852
0.282589
0.334592
0.393532
0.46012
0.535099
0.619245
0.713349
0.818207
0.934601
1.06328
1.2049
1.36005
1.52913
1.71232
1.90955
2.12037
2.34386
2.57859
2.82249
3.07279
3.32596
3.5777
3.82302
4.05631
4.27159
4.46279
4.62405
4.75013
4.83673
4.88082
-0.0359501
-0.0352371
-0.0337922
-0.0315728
-0.0285166
-0.0245391
-0.0195331
-0.0133671
-0.00588411
0.00310028
0.0137996
0.0264587
0.0413558
0.0588054
0.0791602
0.102814
0.130206
0.161818
0.198185
0.23989
0.287569
0.341914
0.403667
0.473626
0.552635
0.641586
0.741403
0.853037
0.977442
1.11556
1.26827
1.43638
1.62054
1.82121
2.03853
2.27227
2.52172
2.78553
3.0616
3.34698
3.63775
3.92896
4.21471
4.48822
4.74211
4.96874
5.16071
5.31129
5.41498
5.46784
-0.0405478
-0.0398289
-0.0383717
-0.0361323
-0.0330465
-0.0290272
-0.0239637
-0.0177201
-0.010134
-0.00101404
0.00986139
0.0227472
0.0379338
0.0557504
0.0765674
0.1008
0.128912
0.161418
0.198887
0.241948
0.29129
0.347666
0.411894
0.484858
0.567511
0.660864
0.765989
0.884002
1.01605
1.16331
1.3269
1.50792
1.70733
1.9259
2.16414
2.42214
2.69947
2.99501
3.30675
3.63164
3.96541
4.30245
4.63581
4.95729
5.25772
5.52749
5.75709
5.93787
6.06267
6.12638
-0.0443255
-0.0436057
-0.0421462
-0.0399023
-0.0368083
-0.0327753
-0.0276898
-0.0214128
-0.0137775
-0.00458746
0.00638567
0.0194049
0.0347706
0.0528243
0.0739516
0.0985863
0.127214
0.160379
0.198682
0.242795
0.293454
0.351475
0.417749
0.49325
0.579033
0.676241
0.786095
0.909896
1.04901
1.20484
1.37883
1.57239
1.78687
2.02346
2.28311
2.56638
2.87329
3.20311
3.5541
3.92328
4.30614
4.69641
5.08599
5.46494
5.82188
6.14453
6.42064
6.63893
6.79005
6.86733
-0.0472349
-0.0465197
-0.0450688
-0.0428373
-0.0397586
-0.0357427
-0.0306745
-0.0244128
-0.0167881
-0.00760047
0.00338306
0.0164313
0.0318523
0.0499968
0.0712623
0.0960979
0.125008
0.15856
0.197385
0.24219
0.29376
0.352964
0.420763
0.498216
0.586486
0.686841
0.800662
0.929436
1.07476
1.23832
1.42187
1.62723
1.85617
2.11042
2.3915
2.70061
3.0384
3.40477
3.79854
4.21702
4.65569
5.10776
5.56386
6.01205
6.43806
6.82613
7.16025
7.42556
7.60976
7.7041
-0.0492421
-0.0485371
-0.0471067
-0.0449059
-0.0418678
-0.0379022
-0.0328936
-0.0267001
-0.019151
-0.0100448
0.000853835
0.0138169
0.0291568
0.0472305
0.0684437
0.093256
0.122186
0.15582
0.194812
0.2399
0.291908
0.351755
0.420465
0.499176
0.58915
0.691781
0.808604
0.941301
1.0917
1.26179
1.45368
1.66962
1.9119
2.18287
2.48477
2.8196
3.18894
3.59361
4.03332
4.50613
5.00788
5.53151
6.06649
6.59851
7.10966
7.57945
7.98662
8.31141
8.53753
8.65351
-0.0503276
-0.049639
-0.0482417
-0.0460907
-0.0431202
-0.0392402
-0.0343363
-0.0282671
-0.0208629
-0.0119226
-0.00121108
0.0115439
0.026656
0.0444841
0.0654376
0.0899821
0.118645
0.152023
0.190789
0.235702
0.287618
0.347495
0.41641
0.495573
0.586333
0.690199
0.808855
0.944168
1.09821
1.27326
1.47181
1.69658
1.95045
2.23646
2.55772
2.91727
3.31786
3.76165
4.24974
4.78152
5.35384
5.95998
6.58855
7.22265
7.83972
8.41273
8.91294
9.31365
9.59323
9.73676
-0.0504871
-0.0498212
-0.0484698
-0.046389
-0.0435138
-0.0397564
-0.0350042
-0.0291183
-0.0219315
-0.0132458
-0.00282897
0.00958832
0.024317
0.0417138
0.062187
0.0862019
0.114288
0.147046
0.185158
0.229397
0.280636
0.339864
0.408197
0.486899
0.577394
0.681292
0.800405
0.936775
1.0927
1.27075
1.4738
1.70505
1.968
2.2665
2.60463
2.98667
3.41688
3.89919
4.43675
5.03111
5.68116
6.3816
7.12102
7.88009
8.63041
9.33561
9.95575
10.4542
10.8022
10.9809
-0.0497306
-0.0490941
-0.047802
-0.0458118
-0.0430607
-0.0394636
-0.0349113
-0.0292691
-0.0223746
-0.0140349
-0.00402403
0.00792122
0.0221049
0.0388771
0.0586391
0.0818499
0.109033
0.140787
0.177791
0.22082
0.270754
0.328596
0.395486
0.472722
0.561784
0.664356
0.782357
0.917975
1.07371
1.25239
1.45727
1.692
1.96073
2.26814
2.6194
3.02018
3.47655
3.99474
4.58066
5.23915
5.97267
6.77917
7.64914
8.56189
9.48211
10.3596
11.1366
11.7615
12.1971
12.4202
-0.048083
-0.0474823
-0.0462628
-0.0443839
-0.0417857
-0.038387
-0.0340833
-0.0287459
-0.0222192
-0.0143183
-0.00482602
0.00651063
0.0199849
0.0359347
0.054749
0.0768734
0.102819
0.133169
0.168591
0.20985
0.257818
0.313494
0.378022
0.452713
0.539073
0.638831
0.753979
0.886812
1.03998
1.21655
1.42006
1.65463
1.92498
2.2366
2.59579
3.00974
3.48653
4.03511
4.66499
5.3856
6.20501
7.12743
8.149
9.25103
10.3915
11.4996
12.4848
13.2739
13.8201
14.0983
-0.0455824
-0.0450241
-0.0438903
-0.0421431
-0.0397263
-0.0365635
-0.0325566
-0.0275845
-0.0215004
-0.0141303
-0.00526892
0.00532304
0.0179234
0.0328531
0.0504822
0.0712361
0.0956033
0.124145
0.157504
0.196421
0.241742
0.294446
0.355656
0.426669
0.508986
0.604343
0.71476
0.842588
0.990572
1.16193
1.36044
1.59055
1.8575
2.16751
2.52791
2.94736
3.43607
4.00598
4.67079
5.44584
6.34726
7.38983
8.58197
9.91555
11.3476
12.7765
14.0438
15.0438
15.7256
16.0695
-0.0422806
-0.0417709
-0.0407355
-0.0391397
-0.0369318
-0.0340412
-0.0303778
-0.0258294
-0.0202609
-0.0135109
-0.00538965
0.00432488
0.0158907
0.0296065
0.0458174
0.0649209
0.0873751
0.113707
0.144525
0.180527
0.22252
0.271438
0.32836
0.394539
0.471433
0.560743
0.664463
0.784935
0.924925
1.08771
1.27718
1.49801
1.75579
2.05727
2.41062
2.8258
3.31491
3.8928
4.57759
5.3913
6.36031
7.5149
8.88604
10.4944
12.3196
14.2284
15.8833
17.1454
17.9827
18.398
-0.0382412
-0.0377858
-0.0368608
-0.035435
-0.0334619
-0.0308781
-0.0276022
-0.0235332
-0.0185491
-0.0125042
-0.00522689
0.00348383
0.0138619
0.0261787
0.040748
0.0579327
0.0781513
0.101887
0.129698
0.16223
0.200229
0.244564
0.296241
0.356438
0.426532
0.508139
0.603168
0.71388
0.842966
0.993651
1.16981
1.37615
1.61839
1.90355
2.2403
2.63943
3.11449
3.6826
4.36567
5.19199
6.19863
7.43454
8.96422
10.8681
13.2199
15.9461
18.1277
19.6841
20.6741
21.1542
-0.0335391
-0.0331434
-0.0323396
-0.0311009
-0.0293865
-0.027141
-0.0242932
-0.0207549
-0.0164188
-0.0111575
-0.00482014
0.00276975
0.011818
0.0225637
0.0352839
0.0502991
0.0679804
0.0887569
0.113125
0.141662
0.175037
0.214029
0.259549
0.312663
0.374627
0.446922
0.531308
0.629886
0.745173
0.880212
1.0387
1.22516
1.44518
1.70568
2.01538
2.38528
2.82947
3.36621
4.01954
4.82173
5.8173
7.07026
8.67827
10.8042
13.7563
18.2191
21.0081
22.8
23.8861
24.4015
-0.0282591
-0.0279278
-0.0272547
-0.026218
-0.0247836
-0.0229047
-0.0205214
-0.0175593
-0.0139281
-0.00952041
-0.00420894
0.00215533
0.0097464
0.0187666
0.0294507
0.0420709
0.0569426
0.0744314
0.0949618
0.119027
0.147201
0.180157
0.218679
0.263693
0.316293
0.377774
0.449685
0.533883
0.63261
0.748594
0.885174
1.04647
1.23763
1.46507
1.73699
2.06384
2.45918
2.94081
3.5324
4.26614
5.18688
6.35945
7.88311
9.92314
12.7909
17.175
19.8949
21.6312
22.6783
23.1736
-0.0224949
-0.0222318
-0.0216971
-0.0208754
-0.0197391
-0.018251
-0.0163631
-0.0140163
-0.0111387
-0.00764457
-0.00343257
0.00161623
0.00764074
0.0148027
0.0232899
0.0333204
0.0451473
0.0590645
0.0754134
0.0945921
0.117065
0.143376
0.174164
0.210184
0.252329
0.301663
0.359463
0.427267
0.506941
0.600767
0.711558
0.842808
0.998896
1.18536
1.40927
1.67976
2.0087
2.41172
2.90962
3.5303
4.31152
5.30466
6.57883
8.2217
10.3168
12.8027
14.773
16.1592
17.03
17.4489
-0.0163474
-0.0161567
-0.0157658
-0.0151694
-0.0143462
-0.0132684
-0.0119011
-0.0102012
-0.00811646
-0.00558444
-0.00253143
0.00112916
0.00549853
0.0106946
0.0168544
0.0241372
0.0327281
0.0428422
0.0547298
0.0686831
0.0850437
0.104212
0.126661
0.152947
0.183734
0.219815
0.26214
0.311862
0.370384
0.439428
0.521125
0.618137
0.733813
0.872411
1.03939
1.24182
1.4889
1.79272
2.16919
2.63917
3.22969
3.97441
4.91154
6.07382
7.45789
8.95183
10.2413
11.2089
11.8399
12.1491
-0.00992288
-0.00981275
-0.00957522
-0.00921366
-0.00871507
-0.00806253
-0.00723477
-0.00620556
-0.00494319
-0.00340977
-0.00156052
0.000657197
0.00330488
0.00645424
0.0101887
0.0146052
0.0198166
0.025954
0.0331704
0.0416441
0.0515842
0.0632361
0.0768893
0.0928867
0.111636
0.133626
0.159445
0.189806
0.225579
0.267837
0.317911
0.377465
0.448603
0.534006
0.637118
0.762399
0.915662
1.10449
1.33877
1.63117
1.99741
2.45558
3.02305
3.70817
4.49316
5.30963
6.0356
6.59926
6.97587
7.16289
-0.00332741
-0.00329399
-0.00321544
-0.00309454
-0.00292766
-0.00270927
-0.00243226
-0.00208782
-0.00166533
-0.00115209
-0.000533073
0.000209356
0.00109583
0.00215042
0.00340112
0.00488049
0.0066264
0.00868294
0.0111015
0.0139421
0.0172752
0.0211833
0.0257641
0.0311331
0.0374281
0.0448142
0.0534903
0.0636979
0.0757324
0.0899576
0.106826
0.126904
0.15091
0.179758
0.214624
0.257034
0.30897
0.373015
0.452505
0.551663
0.6756
0.829918
1.01943
1.24522
1.49958
1.7606
1.9949
2.17943
2.30412
2.36645
)
;

boundaryField
{
    walls
    {
        type            calculated;
        value           nonuniform List<scalar> 
200
(
0
0
0
0
0
0
0
0
0
0
0
0
0
0
0
0
0
0
0
0
0
0
0
0
0
0
0
0
0
0
0
0
0
0
0
0
0
0
0
0
0
0
0
0
0
0
0
0
0
0
0.00461983
0.0137819
0.0227405
0.0313739
0.0395473
0.0471421
0.0540492
0.06017
0.0654189
0.0697238
0.0730278
0.07529
0.0764857
0.0766074
0.0756639
0.0736812
0.070701
0.0667804
0.061991
0.0564172
0.050155
0.0433106
0.0359981
0.0283376
0.0204538
0.0124733
0.00452272
-0.0032732
-0.0107938
-0.0179241
-0.0245571
-0.0305948
-0.0359501
-0.0405478
-0.0443255
-0.0472349
-0.0492421
-0.0503276
-0.0504871
-0.0497306
-0.048083
-0.0455824
-0.0422806
-0.0382412
-0.0335391
-0.0282591
-0.0224949
-0.0163474
-0.00992288
-0.00332741
0.0146335
0.044075
0.0740534
0.104948
0.137153
0.171094
0.207231
0.246071
0.288175
0.334163
0.384722
0.440616
0.50269
0.571875
0.649202
0.735799
0.832906
0.941881
1.0642
1.2015
1.35552
1.52821
1.72168
1.93822
2.18041
2.45104
2.75327
3.09062
3.46709
3.88725
4.35642
4.88082
5.46784
6.12638
6.86733
7.7041
8.65351
9.73676
10.9809
12.4202
14.0983
16.0695
18.398
21.1542
24.4015
23.1736
17.4489
12.1491
7.16289
2.36645
0
0
0
0
0
0
0
0
0
0
0
0
0
0
0
0
0
0
0
0
0
0
0
0
0
0
0
0
0
0
0
0
0
0
0
0
0
0
0
0
0
0
0
0
0
0
0
0
0
0
)
;
    }
    frontAndBack
    {
        type            empty;
    }
}


// ************************************************************************* //
