/*--------------------------------*- C++ -*----------------------------------*\
| =========                 |                                                 |
| \\      /  F ield         | OpenFOAM: The Open Source CFD Toolbox           |
|  \\    /   O peration     | Version:  2406                                  |
|   \\  /    A nd           | Website:  www.openfoam.com                      |
|    \\/     M anipulation  |                                                 |
\*---------------------------------------------------------------------------*/
FoamFile
{
    version     2.0;
    format      ascii;
    arch        "LSB;label=32;scalar=64";
    class       volScalarField;
    location    "0.8";
    object      T;
}
// * * * * * * * * * * * * * * * * * * * * * * * * * * * * * * * * * * * * * //

dimensions      [0 0 0 1 0 0 0];

internalField   nonuniform List<scalar> 
2500
(
0.170507
0.170691
0.171058
0.171601
0.172313
0.173183
0.174199
0.175345
0.176605
0.177962
0.179394
0.180883
0.182406
0.183942
0.18547
0.186969
0.188417
0.189797
0.191089
0.192276
0.193345
0.194283
0.195078
0.195723
0.196211
0.196541
0.19671
0.196722
0.196579
0.19629
0.195862
0.195308
0.194639
0.19387
0.193017
0.192097
0.191127
0.190127
0.189114
0.188107
0.187125
0.186184
0.185302
0.184493
0.183772
0.183151
0.182642
0.182252
0.181988
0.181855
0.170691
0.170877
0.171244
0.171788
0.172501
0.173373
0.174391
0.17554
0.176804
0.178164
0.1796
0.181093
0.182621
0.184162
0.185696
0.1872
0.188656
0.190042
0.191341
0.192537
0.193615
0.194561
0.195366
0.196021
0.19652
0.196861
0.197042
0.197066
0.196937
0.19666
0.196246
0.195706
0.195051
0.194296
0.193458
0.192552
0.191597
0.19061
0.189611
0.188618
0.187647
0.186718
0.185847
0.185047
0.184335
0.183722
0.183218
0.182832
0.182572
0.18244
0.171058
0.171244
0.171613
0.172159
0.172876
0.173751
0.174774
0.175928
0.177198
0.178565
0.180009
0.18151
0.183048
0.184599
0.186144
0.187661
0.189129
0.19053
0.191844
0.193056
0.194151
0.195116
0.19594
0.196616
0.197137
0.197501
0.197706
0.197755
0.197651
0.197402
0.197015
0.196503
0.195876
0.195151
0.194342
0.193465
0.192539
0.191581
0.190609
0.189642
0.188697
0.187791
0.186941
0.186162
0.185467
0.184868
0.184377
0.184001
0.183746
0.183618
0.171601
0.171788
0.172159
0.172709
0.17343
0.174312
0.175341
0.176503
0.177782
0.17916
0.180616
0.18213
0.183682
0.185249
0.186811
0.188346
0.189834
0.191256
0.192594
0.193831
0.194952
0.195945
0.196799
0.197506
0.19806
0.198458
0.1987
0.198787
0.198723
0.198515
0.198171
0.197701
0.197119
0.196438
0.195674
0.194842
0.193961
0.193046
0.192117
0.191191
0.190284
0.189415
0.188599
0.18785
0.187181
0.186606
0.186133
0.185771
0.185526
0.185402
0.172313
0.172501
0.172876
0.17343
0.174157
0.175046
0.176085
0.177258
0.178549
0.179941
0.181412
0.182944
0.184515
0.186104
0.187689
0.189249
0.190764
0.192215
0.193584
0.194854
0.196011
0.197042
0.197936
0.198686
0.199286
0.199732
0.200024
0.200163
0.200154
0.200002
0.199716
0.199306
0.198785
0.198165
0.197463
0.196693
0.195873
0.195018
0.194148
0.193278
0.192425
0.191606
0.190836
0.190129
0.189498
0.188954
0.188506
0.188164
0.187933
0.187815
0.173183
0.173373
0.173751
0.174312
0.175046
0.175945
0.176995
0.178182
0.179489
0.180898
0.18239
0.183943
0.185539
0.187154
0.188768
0.19036
0.191909
0.193397
0.194806
0.196119
0.197322
0.198402
0.199348
0.200154
0.200812
0.20132
0.201676
0.201883
0.201944
0.201865
0.201655
0.201322
0.20088
0.200341
0.199719
0.19903
0.198289
0.197514
0.19672
0.195924
0.195141
0.194388
0.193679
0.193026
0.192443
0.191941
0.191527
0.191211
0.190997
0.190888
0.174199
0.174391
0.174774
0.175341
0.176085
0.176995
0.178059
0.179263
0.180588
0.182019
0.183534
0.185115
0.18674
0.188388
0.190037
0.191668
0.19326
0.194793
0.196251
0.197617
0.198877
0.200017
0.201028
0.201902
0.202633
0.203218
0.203655
0.203947
0.204096
0.204109
0.203993
0.203758
0.203415
0.202977
0.202457
0.201869
0.20123
0.200554
0.199856
0.199153
0.19846
0.19779
0.197158
0.196575
0.196053
0.195603
0.195233
0.194949
0.194757
0.194659
0.175345
0.17554
0.175928
0.176503
0.177258
0.178182
0.179263
0.180485
0.181833
0.183289
0.184833
0.186445
0.188105
0.189792
0.191484
0.193161
0.194803
0.196392
0.197908
0.199338
0.200666
0.20188
0.202969
0.203927
0.204746
0.205424
0.205961
0.206356
0.206613
0.206738
0.206739
0.206623
0.206403
0.206089
0.205694
0.205232
0.204718
0.204164
0.203587
0.203
0.202416
0.20185
0.201313
0.200816
0.200371
0.199986
0.199669
0.199426
0.199261
0.199177
0.176605
0.176804
0.177198
0.177782
0.178549
0.179489
0.180588
0.181833
0.183207
0.184692
0.186269
0.187919
0.18962
0.191351
0.193093
0.194824
0.196526
0.198179
0.199765
0.20127
0.202679
0.203981
0.205164
0.206221
0.207146
0.207937
0.208592
0.209111
0.209499
0.20976
0.209902
0.209931
0.209859
0.209696
0.209454
0.209145
0.208782
0.208379
0.207947
0.207501
0.207052
0.206613
0.206192
0.205802
0.205451
0.205145
0.204893
0.2047
0.204569
0.204502
0.177962
0.178164
0.178565
0.17916
0.179941
0.180898
0.182019
0.183289
0.184692
0.18621
0.187825
0.189517
0.191265
0.193049
0.194848
0.196643
0.198413
0.200141
0.201809
0.203403
0.204907
0.206311
0.207604
0.208779
0.20983
0.210754
0.21155
0.212218
0.212761
0.213185
0.213494
0.213697
0.213803
0.213821
0.213762
0.213638
0.213458
0.213236
0.212981
0.212706
0.21242
0.212133
0.211855
0.211593
0.211355
0.211147
0.210974
0.210841
0.210751
0.210704
0.179394
0.1796
0.180009
0.180616
0.181412
0.18239
0.183534
0.184833
0.186269
0.187825
0.189483
0.191223
0.193025
0.194868
0.196733
0.1986
0.200449
0.202264
0.204027
0.205722
0.207338
0.208861
0.210283
0.211596
0.212794
0.213875
0.214837
0.21568
0.216407
0.217023
0.217532
0.217941
0.218259
0.218493
0.218653
0.218749
0.218789
0.218783
0.21874
0.21867
0.218579
0.218477
0.218369
0.218261
0.21816
0.218068
0.217991
0.217931
0.21789
0.217869
0.180883
0.181093
0.18151
0.18213
0.182944
0.183943
0.185115
0.186445
0.187919
0.189517
0.191223
0.193017
0.194879
0.19679
0.19873
0.200679
0.202619
0.204532
0.206403
0.208217
0.20996
0.211622
0.213193
0.214666
0.216036
0.2173
0.218456
0.219505
0.220448
0.22129
0.222034
0.222687
0.223256
0.223746
0.224165
0.224522
0.224823
0.225075
0.225284
0.225458
0.225601
0.225719
0.225814
0.225892
0.225954
0.226002
0.22604
0.226067
0.226085
0.226093
0.182406
0.182621
0.183048
0.183682
0.184515
0.185539
0.18674
0.188105
0.18962
0.191265
0.193025
0.194879
0.196809
0.198796
0.20082
0.202862
0.204905
0.206931
0.208926
0.210874
0.212764
0.214585
0.216329
0.217987
0.219556
0.221032
0.222415
0.223703
0.224898
0.226004
0.227025
0.227964
0.228826
0.229618
0.230344
0.231009
0.231618
0.232175
0.232684
0.233148
0.233568
0.233947
0.234285
0.234583
0.23484
0.235055
0.23523
0.235361
0.235449
0.235493
0.183942
0.184162
0.184599
0.185249
0.186104
0.187154
0.188388
0.189792
0.191351
0.193049
0.194868
0.19679
0.198796
0.200868
0.202986
0.205133
0.207292
0.209446
0.211581
0.213683
0.21574
0.217744
0.219684
0.221556
0.223354
0.225076
0.22672
0.228285
0.229774
0.231188
0.23253
0.233803
0.235011
0.236156
0.237241
0.238269
0.239241
0.240158
0.24102
0.241826
0.242575
0.243264
0.243889
0.244448
0.244936
0.245351
0.245687
0.245943
0.246115
0.246201
0.18547
0.185696
0.186144
0.186811
0.187689
0.188768
0.190037
0.191484
0.193093
0.194848
0.196733
0.19873
0.20082
0.202986
0.20521
0.207474
0.209763
0.212062
0.214355
0.216631
0.218879
0.22109
0.223256
0.225372
0.227433
0.229437
0.231382
0.233269
0.235097
0.236868
0.238584
0.240245
0.241855
0.243412
0.244917
0.24637
0.247768
0.249108
0.250385
0.251595
0.252731
0.253785
0.25475
0.255618
0.25638
0.257029
0.257558
0.257961
0.258232
0.258368
0.186969
0.1872
0.187661
0.188346
0.189249
0.19036
0.191668
0.193161
0.194824
0.196643
0.1986
0.200679
0.202862
0.205133
0.207474
0.20987
0.212305
0.214765
0.217237
0.21971
0.222173
0.22462
0.227042
0.229436
0.231798
0.234125
0.236416
0.238671
0.24089
0.243074
0.245222
0.247334
0.249409
0.251446
0.253441
0.25539
0.257285
0.25912
0.260885
0.262568
0.264159
0.265643
0.267008
0.26824
0.269325
0.270252
0.271008
0.271585
0.271974
0.272169
0.188417
0.188656
0.189129
0.189834
0.190764
0.191909
0.19326
0.194803
0.196526
0.198413
0.200449
0.202619
0.204905
0.207292
0.209763
0.212305
0.214903
0.217543
0.220216
0.222909
0.225616
0.228329
0.231042
0.233751
0.236455
0.239151
0.241837
0.244515
0.247183
0.24984
0.252486
0.255119
0.257734
0.260327
0.262891
0.265416
0.267891
0.270303
0.272637
0.274875
0.276998
0.278987
0.280822
0.282482
0.283948
0.285202
0.286226
0.287008
0.287535
0.2878
0.189797
0.190042
0.19053
0.191256
0.192215
0.193397
0.194793
0.196392
0.198179
0.200141
0.202264
0.204532
0.206931
0.209446
0.212062
0.214765
0.217543
0.220386
0.223281
0.226223
0.229202
0.232214
0.235255
0.238323
0.241414
0.244528
0.247666
0.250825
0.254006
0.257207
0.260426
0.263657
0.266894
0.270129
0.273351
0.276545
0.279693
0.282777
0.285774
0.288659
0.291406
0.293986
0.296371
0.298534
0.300447
0.302084
0.303424
0.304447
0.305138
0.305485
0.191089
0.191341
0.191844
0.192594
0.193584
0.194806
0.196251
0.197908
0.199765
0.201809
0.204027
0.206403
0.208926
0.211581
0.214355
0.217237
0.220216
0.223281
0.226426
0.229644
0.232929
0.236277
0.239687
0.243156
0.246686
0.250274
0.253923
0.257631
0.261397
0.265218
0.269091
0.273009
0.276962
0.280936
0.284917
0.288884
0.292812
0.296676
0.300444
0.304082
0.307556
0.310826
0.313856
0.316607
0.319044
0.321132
0.322842
0.324149
0.325031
0.325475
0.192276
0.192537
0.193056
0.193831
0.194854
0.196119
0.197617
0.199338
0.20127
0.203403
0.205722
0.208217
0.210874
0.213683
0.216631
0.21971
0.222909
0.226223
0.229644
0.233169
0.236794
0.240518
0.24434
0.248262
0.252284
0.256408
0.260634
0.264963
0.269393
0.273921
0.278541
0.283243
0.288015
0.292839
0.297693
0.302551
0.30738
0.312147
0.316809
0.321322
0.325641
0.329716
0.333498
0.336937
0.339987
0.342604
0.344748
0.346388
0.347496
0.348053
0.193345
0.193615
0.194151
0.194952
0.196011
0.197322
0.198877
0.200666
0.202679
0.204907
0.207338
0.20996
0.212764
0.21574
0.218879
0.222173
0.225616
0.229202
0.232929
0.236794
0.240797
0.244939
0.249222
0.25365
0.258224
0.262949
0.267826
0.272856
0.278037
0.283367
0.288835
0.294432
0.300139
0.305934
0.31179
0.317673
0.323541
0.329349
0.335046
0.340574
0.345876
0.350887
0.355545
0.359788
0.363555
0.366789
0.369443
0.371472
0.372844
0.373535
0.194283
0.194561
0.195116
0.195945
0.197042
0.198402
0.200017
0.20188
0.203981
0.206311
0.208861
0.211622
0.214585
0.217744
0.22109
0.22462
0.228329
0.232214
0.236277
0.240518
0.244939
0.249545
0.25434
0.259331
0.264523
0.26992
0.275527
0.281346
0.287375
0.293609
0.300039
0.306651
0.313423
0.320328
0.32733
0.334387
0.341448
0.348457
0.355348
0.362051
0.368492
0.374591
0.38027
0.385449
0.390052
0.39401
0.397259
0.399745
0.401427
0.402274
0.195078
0.195366
0.19594
0.196799
0.197936
0.199348
0.201028
0.202969
0.205164
0.207604
0.210283
0.213193
0.216329
0.219684
0.223256
0.227042
0.231042
0.235255
0.239687
0.24434
0.249222
0.25434
0.259703
0.265319
0.271197
0.277345
0.283768
0.29047
0.297451
0.304704
0.31222
0.319981
0.327962
0.336128
0.344438
0.352838
0.361268
0.369657
0.377924
0.385985
0.393744
0.401105
0.40797
0.41424
0.41982
0.424622
0.428567
0.431588
0.433633
0.434664
0.195723
0.196021
0.196616
0.197506
0.198686
0.200154
0.201902
0.203927
0.206221
0.208779
0.211596
0.214666
0.217987
0.221556
0.225372
0.229436
0.233751
0.238323
0.243156
0.248262
0.25365
0.259331
0.265319
0.271626
0.278264
0.285245
0.292577
0.300266
0.308311
0.316709
0.325447
0.334504
0.343851
0.353449
0.363246
0.373179
0.383174
0.393146
0.402997
0.412622
0.421906
0.43073
0.438973
0.446512
0.45323
0.459019
0.463778
0.467426
0.469896
0.471141
0.196211
0.19652
0.197137
0.19806
0.199286
0.200812
0.202633
0.204746
0.207146
0.20983
0.212794
0.216036
0.219556
0.223354
0.227433
0.231798
0.236455
0.241414
0.246686
0.252284
0.258224
0.264523
0.271197
0.278264
0.285742
0.293644
0.301984
0.310769
0.320002
0.329678
0.339785
0.3503
0.361189
0.372406
0.38389
0.395567
0.407349
0.419133
0.430803
0.442229
0.453274
0.463792
0.473633
0.482649
0.490695
0.497634
0.503346
0.507727
0.510696
0.512193
0.196541
0.196861
0.197501
0.198458
0.199732
0.20132
0.203218
0.205424
0.207937
0.210754
0.213875
0.2173
0.221032
0.225076
0.229437
0.234125
0.239151
0.244528
0.250274
0.256408
0.262949
0.26992
0.277345
0.285245
0.293644
0.302562
0.312014
0.322013
0.332565
0.343665
0.355302
0.36745
0.380072
0.393114
0.406506
0.420163
0.43398
0.447835
0.461588
0.475086
0.488162
0.500639
0.512336
0.523069
0.532661
0.540946
0.547772
0.553013
0.556565
0.558358
0.19671
0.197042
0.197706
0.1987
0.200024
0.201676
0.203655
0.205961
0.208592
0.21155
0.214837
0.218456
0.222415
0.22672
0.231382
0.236416
0.241837
0.247666
0.253923
0.260634
0.267826
0.275527
0.283768
0.292577
0.301984
0.312014
0.32269
0.334028
0.346037
0.358717
0.372056
0.386028
0.40059
0.415684
0.43123
0.447128
0.463256
0.479472
0.49561
0.511488
0.526905
0.541647
0.555495
0.568226
0.579622
0.589478
0.597609
0.603857
0.608095
0.610234
0.196722
0.197066
0.197755
0.198787
0.200163
0.201883
0.203947
0.206356
0.209111
0.212218
0.21568
0.219505
0.223703
0.228285
0.233269
0.238671
0.244515
0.250825
0.257631
0.264963
0.272856
0.281346
0.29047
0.300266
0.310769
0.322013
0.334028
0.346835
0.36045
0.374875
0.3901
0.4061
0.422829
0.440221
0.458189
0.476617
0.495366
0.514269
0.533133
0.55174
0.569852
0.587213
0.603555
0.61861
0.632111
0.643805
0.653466
0.660896
0.66594
0.668488
0.196579
0.196937
0.197651
0.198723
0.200154
0.201944
0.204096
0.206613
0.209499
0.212761
0.216407
0.220448
0.224898
0.229774
0.235097
0.24089
0.247183
0.254006
0.261397
0.269393
0.278037
0.287375
0.297451
0.308311
0.320002
0.332565
0.346037
0.36045
0.375824
0.392168
0.409475
0.427721
0.446859
0.466819
0.487502
0.508779
0.530492
0.552447
0.57442
0.596155
0.617369
0.637754
0.656991
0.674751
0.69071
0.704558
0.716015
0.724836
0.73083
0.733859
0.19629
0.19666
0.197402
0.198515
0.200002
0.201865
0.204109
0.206738
0.20976
0.213185
0.217023
0.22129
0.226004
0.231188
0.236868
0.243074
0.24984
0.257207
0.265218
0.273921
0.283367
0.293609
0.304704
0.316709
0.329678
0.343665
0.358717
0.374875
0.392168
0.410612
0.430207
0.450931
0.472738
0.495554
0.519271
0.543747
0.568803
0.594219
0.619734
0.645049
0.669829
0.693711
0.716307
0.737219
0.756053
0.772428
0.785996
0.796458
0.803574
0.807172
0.195862
0.196246
0.197015
0.198171
0.199716
0.201655
0.203993
0.206739
0.209902
0.213494
0.217532
0.222034
0.227025
0.23253
0.238584
0.245222
0.252486
0.260426
0.269091
0.278541
0.288835
0.300039
0.31222
0.325447
0.339785
0.355302
0.372056
0.3901
0.409475
0.430207
0.452304
0.475749
0.5005
0.52648
0.553576
0.581633
0.610451
0.639781
0.669324
0.698733
0.727614
0.755535
0.782032
0.806623
0.828824
0.848171
0.864231
0.876633
0.885076
0.889349
0.195308
0.195706
0.196503
0.197701
0.199306
0.201322
0.203758
0.206623
0.209931
0.213697
0.217941
0.222687
0.227964
0.233803
0.240245
0.247334
0.255119
0.263657
0.273009
0.283243
0.294432
0.306651
0.319981
0.334504
0.3503
0.36745
0.386028
0.4061
0.427721
0.450931
0.475749
0.502169
0.530151
0.559624
0.590468
0.622519
0.655557
0.689304
0.72342
0.757506
0.7911
0.823691
0.854722
0.883611
0.909768
0.932618
0.951627
0.96633
0.976353
0.981429
0.194639
0.195051
0.195876
0.197119
0.198785
0.20088
0.203415
0.206403
0.209859
0.213803
0.218259
0.223256
0.228826
0.235011
0.241855
0.249409
0.257734
0.266894
0.276962
0.288015
0.300139
0.313423
0.327962
0.343851
0.361189
0.380072
0.40059
0.422829
0.446859
0.472738
0.5005
0.530151
0.561665
0.594973
0.629958
0.666448
0.704205
0.742924
0.782223
0.821644
0.860653
0.898643
0.934953
0.968875
0.999688
1.02668
1.04919
1.06664
1.07855
1.08458
0.19387
0.194296
0.195151
0.196438
0.198165
0.200341
0.202977
0.206089
0.209696
0.213821
0.218493
0.223746
0.229618
0.236156
0.243412
0.251446
0.260327
0.270129
0.280936
0.292839
0.305934
0.320328
0.336128
0.353449
0.372406
0.393114
0.415684
0.440221
0.466819
0.495554
0.52648
0.559624
0.594973
0.632472
0.672009
0.71341
0.756426
0.800725
0.845885
0.891385
0.93661
0.980849
1.02331
1.06314
1.09945
1.13137
1.15806
1.17878
1.19295
1.20014
0.193017
0.193458
0.194342
0.195674
0.197463
0.199719
0.202457
0.205694
0.209454
0.213762
0.218653
0.224165
0.230344
0.237241
0.244917
0.253441
0.262891
0.273351
0.284917
0.297693
0.31179
0.32733
0.344438
0.363246
0.38389
0.406506
0.43123
0.458189
0.487502
0.519271
0.553576
0.590468
0.629958
0.672009
0.716524
0.763334
0.812184
0.862724
0.914493
0.96691
1.01927
1.07074
1.12039
1.16717
1.21
1.24778
1.27948
1.30415
1.32105
1.32964
0.192097
0.192552
0.193465
0.194842
0.196693
0.19903
0.201869
0.205232
0.209145
0.213638
0.218749
0.224522
0.231009
0.238269
0.24637
0.25539
0.265416
0.276545
0.288884
0.302551
0.317673
0.334387
0.352838
0.373179
0.395567
0.420163
0.447128
0.476617
0.508779
0.543747
0.581633
0.622519
0.666448
0.71341
0.763334
0.816065
0.871358
0.92885
0.988049
1.04832
1.10886
1.16871
1.22675
1.28174
1.33233
1.37715
1.41488
1.44434
1.46455
1.47484
0.191127
0.191597
0.192539
0.193961
0.195873
0.198289
0.20123
0.204718
0.208782
0.213458
0.218789
0.224823
0.231618
0.239241
0.247768
0.257285
0.267891
0.279693
0.292812
0.30738
0.323541
0.341448
0.361268
0.383174
0.407349
0.43398
0.463256
0.495366
0.530492
0.568803
0.610451
0.655557
0.704205
0.756426
0.812184
0.871358
0.93372
0.998915
1.06643
1.13559
1.2055
1.27505
1.34294
1.40765
1.46752
1.52083
1.56589
1.60117
1.62544
1.6378
0.190127
0.19061
0.191581
0.193046
0.195018
0.197514
0.200554
0.204164
0.208379
0.213236
0.218783
0.225075
0.232175
0.240158
0.249108
0.25912
0.270303
0.282777
0.296676
0.312147
0.329349
0.348457
0.369657
0.393146
0.419133
0.447835
0.479472
0.514269
0.552447
0.594219
0.639781
0.689304
0.742924
0.800725
0.862724
0.92885
0.998915
1.07259
1.14938
1.22856
1.30917
1.38997
1.46941
1.54568
1.61671
1.68033
1.73435
1.7768
1.80605
1.82098
0.189114
0.189611
0.190609
0.192117
0.194148
0.19672
0.199856
0.203587
0.207947
0.212981
0.21874
0.225284
0.232684
0.24102
0.250385
0.260885
0.272637
0.285774
0.300444
0.316809
0.335046
0.355348
0.377924
0.402997
0.430803
0.461588
0.49561
0.533133
0.57442
0.619734
0.669324
0.72342
0.782223
0.845885
0.914493
0.988049
1.06643
1.14938
1.23642
1.32685
1.41965
1.51345
1.60648
1.69655
1.78111
1.85734
1.9224
1.97372
2.00917
2.02727
0.188107
0.188618
0.189642
0.191191
0.193278
0.195924
0.199153
0.203
0.207501
0.212706
0.21867
0.225458
0.233148
0.241826
0.251595
0.262568
0.274875
0.288659
0.304082
0.321322
0.340574
0.362051
0.385985
0.412622
0.442229
0.475086
0.511488
0.55174
0.596155
0.645049
0.698733
0.757506
0.821644
0.891385
0.96691
1.04832
1.13559
1.22856
1.32685
1.42981
1.53642
1.64523
1.75425
1.86088
1.96193
2.05375
2.13258
2.19496
2.23814
2.26021
0.187125
0.187647
0.188697
0.190284
0.192425
0.195141
0.19846
0.202416
0.207052
0.21242
0.218579
0.225601
0.233568
0.242575
0.252731
0.264159
0.276998
0.291406
0.307556
0.325641
0.345876
0.368492
0.393744
0.421906
0.453274
0.488162
0.526905
0.569852
0.617369
0.669829
0.727614
0.7911
0.860653
0.93661
1.01927
1.10886
1.2055
1.30917
1.41965
1.53642
1.65856
1.78462
1.91245
2.03903
2.16039
2.27172
2.36787
2.44418
2.49706
2.52408
0.186184
0.186718
0.187791
0.189415
0.191606
0.194388
0.19779
0.20185
0.206613
0.212133
0.218477
0.225719
0.233947
0.243264
0.253785
0.265643
0.278987
0.293986
0.310826
0.329716
0.350887
0.374591
0.401105
0.43073
0.463792
0.500639
0.541647
0.587213
0.637754
0.693711
0.755535
0.823691
0.898643
0.980849
1.07074
1.16871
1.27505
1.38997
1.51345
1.64523
1.78462
1.93033
2.08021
2.23092
2.37759
2.51373
2.63197
2.72592
2.79095
2.82414
0.185302
0.185847
0.186941
0.188599
0.190836
0.193679
0.197158
0.201313
0.206192
0.211855
0.218369
0.225814
0.234285
0.243889
0.25475
0.267008
0.280822
0.296371
0.313856
0.333498
0.355545
0.38027
0.40797
0.438973
0.473633
0.512336
0.555495
0.603555
0.656991
0.716307
0.782032
0.854722
0.934953
1.02331
1.12039
1.22675
1.34294
1.46941
1.60648
1.75425
1.91245
2.08021
2.25573
2.43565
2.61429
2.78278
2.92962
3.04594
3.12608
3.16686
0.184493
0.185047
0.186162
0.18785
0.190129
0.193026
0.196575
0.200816
0.205802
0.211593
0.218261
0.225892
0.234583
0.244448
0.255618
0.26824
0.282482
0.298534
0.316607
0.336937
0.359788
0.385449
0.41424
0.446512
0.482649
0.523069
0.568226
0.61861
0.674751
0.737219
0.806623
0.883611
0.968875
1.06314
1.16717
1.28174
1.40765
1.54568
1.69655
1.86088
2.03903
2.23092
2.43565
2.6507
2.87038
3.08287
3.2673
3.41174
3.51026
3.56006
0.183772
0.184335
0.185467
0.187181
0.189498
0.192443
0.196053
0.200371
0.205451
0.211355
0.21816
0.225954
0.23484
0.244936
0.25638
0.269325
0.283948
0.300447
0.319044
0.339987
0.363555
0.390052
0.41982
0.45323
0.490695
0.532661
0.579622
0.632111
0.69071
0.756053
0.828824
0.909768
0.999688
1.09945
1.21
1.33233
1.46752
1.61671
1.78111
1.96193
2.16039
2.37759
2.61429
2.87038
3.14309
3.42063
3.65473
3.8333
3.95304
4.01303
0.183151
0.183722
0.184868
0.186606
0.188954
0.191941
0.195603
0.199986
0.205145
0.211147
0.218068
0.226002
0.235055
0.245351
0.257029
0.270252
0.285202
0.302084
0.321132
0.342604
0.366789
0.39401
0.424622
0.459019
0.497634
0.540946
0.589478
0.643805
0.704558
0.772428
0.848171
0.932618
1.02668
1.13137
1.24778
1.37715
1.52083
1.68033
1.85734
2.05375
2.27172
2.51373
2.78278
3.08287
3.42063
3.81163
4.10763
4.32374
4.4657
4.53612
0.182642
0.183218
0.184377
0.186133
0.188506
0.191527
0.195233
0.199669
0.204893
0.210974
0.217991
0.22604
0.23523
0.245687
0.257558
0.271008
0.286226
0.303424
0.322842
0.344748
0.369443
0.397259
0.428567
0.463778
0.503346
0.547772
0.597609
0.653466
0.716015
0.785996
0.864231
0.951627
1.04919
1.15806
1.27948
1.41488
1.56589
1.73435
1.9224
2.13258
2.36787
2.63197
2.92962
3.2673
3.65473
4.10763
4.45052
4.69855
4.86017
4.93997
0.182252
0.182832
0.184001
0.185771
0.188164
0.191211
0.194949
0.199426
0.2047
0.210841
0.217931
0.226067
0.235361
0.245943
0.257961
0.271585
0.287008
0.304447
0.324149
0.346388
0.371472
0.399745
0.431588
0.467426
0.507727
0.553013
0.603857
0.660896
0.724836
0.796458
0.876633
0.96633
1.06664
1.17878
1.30415
1.44434
1.60117
1.7768
1.97372
2.19496
2.44418
2.72592
3.04594
3.41174
3.8333
4.32374
4.69855
4.97011
5.1469
5.23408
0.181988
0.182572
0.183746
0.185526
0.187933
0.190997
0.194757
0.199261
0.204569
0.210751
0.21789
0.226085
0.235449
0.246115
0.258232
0.271974
0.287535
0.305138
0.325031
0.347496
0.372844
0.401427
0.433633
0.469896
0.510696
0.556565
0.608095
0.66594
0.73083
0.803574
0.885076
0.976353
1.07855
1.19295
1.32105
1.46455
1.62544
1.80605
2.00917
2.23814
2.49706
2.79095
3.12608
3.51026
3.95304
4.4657
4.86017
5.1469
5.33377
5.42594
0.181855
0.18244
0.183618
0.185402
0.187815
0.190888
0.194659
0.199177
0.204502
0.210704
0.217869
0.226093
0.235493
0.246201
0.258368
0.272169
0.2878
0.305485
0.325475
0.348053
0.373535
0.402274
0.434664
0.471141
0.512193
0.558358
0.610234
0.668488
0.733859
0.807172
0.889349
0.981429
1.08458
1.20014
1.32964
1.47484
1.6378
1.82098
2.02727
2.26021
2.52408
2.82414
3.16686
3.56006
4.01303
4.53612
4.93997
5.23408
5.42594
5.52059
)
;

boundaryField
{
    walls
    {
        type            zeroGradient;
    }
    frontAndBack
    {
        type            empty;
    }
}


// ************************************************************************* //
