/*--------------------------------*- C++ -*----------------------------------*\
| =========                 |                                                 |
| \\      /  F ield         | OpenFOAM: The Open Source CFD Toolbox           |
|  \\    /   O peration     | Version:  2406                                  |
|   \\  /    A nd           | Website:  www.openfoam.com                      |
|    \\/     M anipulation  |                                                 |
\*---------------------------------------------------------------------------*/
FoamFile
{
    version     2.0;
    format      ascii;
    arch        "LSB;label=32;scalar=64";
    class       volVectorField;
    location    "2.2";
    object      flux;
}
// * * * * * * * * * * * * * * * * * * * * * * * * * * * * * * * * * * * * * //

dimensions      [0 1 -1 1 0 0 0];

internalField   nonuniform List<vector> 
2500
(
(0.00132523 0.00132523 0)
(0.00397004 0.00133188 0)
(0.00660582 0.00134552 0)
(0.00922932 0.00136591 0)
(0.011832 0.00139309 0)
(0.0144077 0.00142707 0)
(0.0169501 0.00146787 0)
(0.0194529 0.0015155 0)
(0.0219094 0.00156996 0)
(0.0243127 0.00163124 0)
(0.0266557 0.00169936 0)
(0.028931 0.00177428 0)
(0.0311312 0.00185599 0)
(0.0332484 0.00194445 0)
(0.0352744 0.00203959 0)
(0.0372012 0.00214133 0)
(0.0390202 0.00224957 0)
(0.0407227 0.00236419 0)
(0.0423002 0.00248501 0)
(0.0437437 0.00261185 0)
(0.0450446 0.00274447 0)
(0.046194 0.00288258 0)
(0.0471833 0.00302588 0)
(0.0480042 0.00317399 0)
(0.0486485 0.00332649 0)
(0.0491086 0.00348292 0)
(0.0493774 0.00364273 0)
(0.0494482 0.00380535 0)
(0.0493153 0.00397015 0)
(0.0489736 0.00413642 0)
(0.0484191 0.00430342 0)
(0.0476489 0.00447035 0)
(0.0466612 0.00463637 0)
(0.0454553 0.00480059 0)
(0.0440323 0.00496208 0)
(0.0423942 0.00511989 0)
(0.0405449 0.00527304 0)
(0.0384897 0.00542056 0)
(0.0362355 0.00556144 0)
(0.0337908 0.00569473 0)
(0.0311658 0.00581945 0)
(0.028372 0.0059347 0)
(0.0254226 0.00603961 0)
(0.0223321 0.00613336 0)
(0.0191164 0.00621523 0)
(0.0157925 0.00628457 0)
(0.0123785 0.00634084 0)
(0.0088931 0.0063836 0)
(0.00535606 0.00641229 0)
(0.00178857 0.00642539 0)
(0.00133188 0.00397004 0)
(0.00399033 0.00399033 0)
(0.00663985 0.00403115 0)
(0.00927689 0.00409229 0)
(0.0118931 0.00417381 0)
(0.0144824 0.00427575 0)
(0.0170386 0.00439815 0)
(0.019555 0.00454103 0)
(0.0220251 0.00470441 0)
(0.0244421 0.00488829 0)
(0.0267987 0.00509266 0)
(0.0290877 0.00531748 0)
(0.0313014 0.00556267 0)
(0.0334319 0.00582811 0)
(0.0354713 0.00611362 0)
(0.0374112 0.00641897 0)
(0.039243 0.00674386 0)
(0.0409582 0.00708789 0)
(0.0425479 0.00745059 0)
(0.0440032 0.00783137 0)
(0.0453153 0.00822952 0)
(0.0464754 0.00864423 0)
(0.0474747 0.00907452 0)
(0.0483048 0.0095193 0)
(0.0489574 0.00997732 0)
(0.0494249 0.0104471 0)
(0.0496998 0.0109272 0)
(0.0497756 0.0114157 0)
(0.0496463 0.0119108 0)
(0.0493069 0.0124104 0)
(0.0487531 0.0129123 0)
(0.0479819 0.013414 0)
(0.0469914 0.0139129 0)
(0.0457811 0.0144065 0)
(0.0443516 0.014892 0)
(0.0427051 0.0153664 0)
(0.0408456 0.0158269 0)
(0.0387781 0.0162705 0)
(0.0365097 0.0166941 0)
(0.0340489 0.017095 0)
(0.0314058 0.0174701 0)
(0.0285921 0.0178167 0)
(0.0256212 0.0181323 0)
(0.0225077 0.0184143 0)
(0.0192676 0.0186606 0)
(0.0159181 0.0188691 0)
(0.0124775 0.0190384 0)
(0.00896456 0.0191671 0)
(0.00539785 0.0192542 0)
(0.00180167 0.0192962 0)
(0.00134552 0.00660582 0)
(0.00403115 0.00663985 0)
(0.00670779 0.00670779 0)
(0.00937198 0.00680967 0)
(0.0120154 0.00694556 0)
(0.014632 0.00711551 0)
(0.0172154 0.00731957 0)
(0.0197592 0.0075578 0)
(0.0222567 0.00783022 0)
(0.0247009 0.00813686 0)
(0.0270849 0.00847769 0)
(0.029401 0.00885265 0)
(0.0316418 0.00926162 0)
(0.0337993 0.00970441 0)
(0.0358653 0.0101807 0)
(0.0378314 0.0106902 0)
(0.0396891 0.0112324 0)
(0.0414295 0.0118065 0)
(0.0430437 0.0124119 0)
(0.0445227 0.0130476 0)
(0.0458574 0.0137124 0)
(0.047039 0.0144049 0)
(0.0480584 0.0151235 0)
(0.0489069 0.0158665 0)
(0.0495763 0.0166317 0)
(0.0500585 0.0174168 0)
(0.050346 0.0182191 0)
(0.0504319 0.0190358 0)
(0.05031 0.0198635 0)
(0.049975 0.020699 0)
(0.0494227 0.0215383 0)
(0.0486496 0.0223775 0)
(0.0476538 0.0232124 0)
(0.0464344 0.0240384 0)
(0.0449921 0.0248509 0)
(0.0433291 0.0256451 0)
(0.0414489 0.0264161 0)
(0.0393569 0.0271589 0)
(0.03706 0.0278684 0)
(0.0345668 0.0285399 0)
(0.0318876 0.0291683 0)
(0.0290342 0.0297491 0)
(0.0260201 0.0302779 0)
(0.0228604 0.0307505 0)
(0.0195712 0.0311632 0)
(0.0161704 0.0315127 0)
(0.0126764 0.0317961 0)
(0.00910888 0.0320114 0)
(0.00548518 0.0321569 0)
(0.00183061 0.0322295 0)
(0.00136591 0.00922932 0)
(0.00409229 0.00927689 0)
(0.00680967 0.00937198 0)
(0.00951467 0.00951467 0)
(0.012199 0.009705 0)
(0.0148565 0.00994306 0)
(0.0174808 0.0102289 0)
(0.0200657 0.0105627 0)
(0.0226042 0.0109444 0)
(0.0250895 0.0113741 0)
(0.0275145 0.0118517 0)
(0.0298716 0.0123773 0)
(0.0321531 0.0129506 0)
(0.0343511 0.0135714 0)
(0.0364571 0.0142393 0)
(0.0384628 0.0149538 0)
(0.0403593 0.0157143 0)
(0.0421377 0.0165198 0)
(0.0437889 0.0173694 0)
(0.0453036 0.0182616 0)
(0.0466726 0.0191948 0)
(0.0478865 0.0201672 0)
(0.0489363 0.0211766 0)
(0.049813 0.0222203 0)
(0.0505077 0.0232956 0)
(0.0510123 0.0243991 0)
(0.0513188 0.0255271 0)
(0.05142 0.0266755 0)
(0.0513095 0.0278399 0)
(0.0509816 0.0290154 0)
(0.0504316 0.0301967 0)
(0.049656 0.0313782 0)
(0.0486523 0.0325539 0)
(0.0474196 0.0337174 0)
(0.0459583 0.0348623 0)
(0.0442703 0.0359816 0)
(0.0423593 0.0370684 0)
(0.0402304 0.0381158 0)
(0.0378907 0.0391165 0)
(0.0353487 0.0400637 0)
(0.032615 0.0409504 0)
(0.0297017 0.0417701 0)
(0.0266226 0.0425164 0)
(0.023393 0.0431836 0)
(0.0200298 0.0437662 0)
(0.0165511 0.0442595 0)
(0.0129763 0.0446595 0)
(0.00932531 0.0449628 0)
(0.00561594 0.0451668 0)
(0.0018743 0.0452692 0)
(0.00139309 0.011832 0)
(0.00417381 0.0118931 0)
(0.00694556 0.0120154 0)
(0.009705 0.012199 0)
(0.0124438 0.0124438 0)
(0.0151559 0.0127501 0)
(0.017835 0.013118 0)
(0.0204746 0.0135475 0)
(0.023068 0.0140387 0)
(0.0256083 0.0145918 0)
(0.0280881 0.0152067 0)
(0.0304999 0.0158834 0)
(0.0328359 0.0166217 0)
(0.035088 0.0174213 0)
(0.0372478 0.0182818 0)
(0.0393064 0.0192026 0)
(0.0412551 0.0201828 0)
(0.0430845 0.0212214 0)
(0.0447854 0.0223169 0)
(0.0463481 0.0234678 0)
(0.0477631 0.024672 0)
(0.0490207 0.0259272 0)
(0.0501115 0.0272304 0)
(0.051026 0.0285785 0)
(0.0517551 0.0299678 0)
(0.05229 0.0313939 0)
(0.0526224 0.0328523 0)
(0.0527447 0.0343377 0)
(0.0526499 0.0358443 0)
(0.0523318 0.0373657 0)
(0.0517855 0.0388953 0)
(0.0510067 0.0404256 0)
(0.049993 0.041949 0)
(0.0487428 0.0434572 0)
(0.0472563 0.0449417 0)
(0.0455353 0.0463936 0)
(0.0435831 0.0478039 0)
(0.041405 0.0491633 0)
(0.0390079 0.0504627 0)
(0.0364007 0.0516929 0)
(0.033594 0.0528449 0)
(0.0306002 0.05391 0)
(0.0274336 0.0548801 0)
(0.0241101 0.0557474 0)
(0.0206472 0.0565049 0)
(0.0170637 0.0571464 0)
(0.0133798 0.0576664 0)
(0.00961618 0.0580606 0)
(0.00579156 0.0583254 0)
(0.00193301 0.0584584 0)
(0.00142707 0.0144077 0)
(0.00427575 0.0144824 0)
(0.00711551 0.014632 0)
(0.00994306 0.0148565 0)
(0.0127501 0.0151559 0)
(0.0155306 0.0155306 0)
(0.0182782 0.0159806 0)
(0.0209864 0.0165061 0)
(0.0236485 0.0171072 0)
(0.0262575 0.0177841 0)
(0.0288061 0.0185368 0)
(0.0312866 0.0193653 0)
(0.033691 0.0202695 0)
(0.0360112 0.021249 0)
(0.0382384 0.0223033 0)
(0.0403638 0.0234318 0)
(0.0423781 0.0246335 0)
(0.0442719 0.0259072 0)
(0.0460354 0.0272512 0)
(0.0476587 0.0286635 0)
(0.0491319 0.0301419 0)
(0.0504449 0.0316833 0)
(0.0515877 0.0332845 0)
(0.0525503 0.0349414 0)
(0.0533231 0.0366497 0)
(0.0538968 0.0384041 0)
(0.0542625 0.040199 0)
(0.054412 0.0420279 0)
(0.0543376 0.0438837 0)
(0.0540326 0.0457587 0)
(0.0534915 0.0476446 0)
(0.0527097 0.0495323 0)
(0.0516838 0.0514123 0)
(0.0504123 0.0532744 0)
(0.0488947 0.0551081 0)
(0.0471325 0.0569023 0)
(0.045129 0.0586459 0)
(0.0428893 0.0603272 0)
(0.0404202 0.061935 0)
(0.0377309 0.0634577 0)
(0.0348322 0.0648841 0)
(0.0317369 0.0662034 0)
(0.02846 0.0674053 0)
(0.0250178 0.0684801 0)
(0.0214288 0.0694191 0)
(0.0177126 0.0702143 0)
(0.0138905 0.070859 0)
(0.00998429 0.0713477 0)
(0.00601376 0.0716759 0)
(0.00200729 0.0718407 0)
(0.00146787 0.0169501 0)
(0.00439815 0.0170386 0)
(0.00731957 0.0172154 0)
(0.0102289 0.0174808 0)
(0.013118 0.017835 0)
(0.0159806 0.0182782 0)
(0.0188105 0.0188105 0)
(0.0216013 0.0194322 0)
(0.0243461 0.0201436 0)
(0.0270379 0.0209448 0)
(0.0296693 0.021836 0)
(0.0322325 0.0228171 0)
(0.0347195 0.0238881 0)
(0.0371218 0.0250486 0)
(0.0394306 0.0262982 0)
(0.0416366 0.0276362 0)
(0.0437304 0.0290615 0)
(0.0457022 0.0305727 0)
(0.0475417 0.032168 0)
(0.0492388 0.0338452 0)
(0.0507829 0.0356015 0)
(0.0521633 0.0374336 0)
(0.0533696 0.0393375 0)
(0.0543912 0.0413089 0)
(0.0552178 0.0433422 0)
(0.0558393 0.0454317 0)
(0.0562462 0.0475704 0)
(0.0564294 0.0497508 0)
(0.0563808 0.0519646 0)
(0.0560928 0.0542025 0)
(0.0555591 0.0564547 0)
(0.0547744 0.0587103 0)
(0.0537351 0.0609579 0)
(0.0524385 0.0631854 0)
(0.0508842 0.0653801 0)
(0.049073 0.0675287 0)
(0.0470081 0.0696177 0)
(0.0446942 0.0716333 0)
(0.0421384 0.0735615 0)
(0.0393498 0.0753885 0)
(0.0363397 0.0771008 0)
(0.0331214 0.0786851 0)
(0.0297103 0.0801289 0)
(0.0261239 0.0814205 0)
(0.0223814 0.0825492 0)
(0.0185036 0.0835052 0)
(0.0145131 0.0842805 0)
(0.010433 0.0848681 0)
(0.00628463 0.0852628 0)
(0.00209785 0.085461 0)
(0.0015155 0.0194529 0)
(0.00454103 0.019555 0)
(0.0075578 0.0197592 0)
(0.0105627 0.0200657 0)
(0.0135475 0.0204746 0)
(0.0165061 0.0209864 0)
(0.0194322 0.0216013 0)
(0.0223195 0.0223195 0)
(0.0251611 0.0231415 0)
(0.0279499 0.0240675 0)
(0.0306784 0.0250978 0)
(0.0333387 0.0262323 0)
(0.0359226 0.0274712 0)
(0.0384214 0.0288141 0)
(0.040826 0.0302607 0)
(0.0431271 0.0318101 0)
(0.0453146 0.0334613 0)
(0.0473784 0.0352129 0)
(0.0493078 0.0370628 0)
(0.0510922 0.0390086 0)
(0.0527203 0.0410472 0)
(0.054181 0.043175 0)
(0.055463 0.0453875 0)
(0.056555 0.0476796 0)
(0.0574459 0.0500453 0)
(0.058125 0.0524776 0)
(0.0585817 0.0549689 0)
(0.0588062 0.0575104 0)
(0.0587893 0.0600925 0)
(0.0585228 0.0627044 0)
(0.0579993 0.0653347 0)
(0.0572129 0.0679708 0)
(0.056159 0.0705992 0)
(0.0548344 0.0732059 0)
(0.053238 0.0757757 0)
(0.0513702 0.0782933 0)
(0.0492336 0.0807425 0)
(0.0468331 0.083107 0)
(0.0441755 0.0853703 0)
(0.0412702 0.087516 0)
(0.0381287 0.0895279 0)
(0.0347651 0.0913904 0)
(0.0311954 0.0930885 0)
(0.027438 0.0946081 0)
(0.0235135 0.0959365 0)
(0.0194439 0.097062 0)
(0.0152533 0.0979749 0)
(0.0109666 0.0986669 0)
(0.00660671 0.0991318 0)
(0.00220552 0.0993653 0)
(0.00156996 0.0219094 0)
(0.00470441 0.0220251 0)
(0.00783022 0.0222567 0)
(0.0109444 0.0226042 0)
(0.0140387 0.023068 0)
(0.0171072 0.0236485 0)
(0.0201436 0.0243461 0)
(0.0231415 0.0251611 0)
(0.0260941 0.0260941 0)
(0.0289941 0.0271454 0)
(0.0318341 0.0283153 0)
(0.034606 0.0296042 0)
(0.0373013 0.0310121 0)
(0.0399113 0.0325388 0)
(0.0424266 0.0341841 0)
(0.0448373 0.0359471 0)
(0.0471332 0.0378269 0)
(0.0493036 0.0398219 0)
(0.0513375 0.0419301 0)
(0.0532233 0.0441488 0)
(0.0549493 0.0464748 0)
(0.0565036 0.0489039 0)
(0.0578742 0.0514315 0)
(0.0590489 0.0540516 0)
(0.0600158 0.0567577 0)
(0.0607629 0.0595421 0)
(0.0612789 0.062396 0)
(0.061553 0.0653096 0)
(0.0615748 0.0682719 0)
(0.061335 0.0712708 0)
(0.0608254 0.0742929 0)
(0.060039 0.0773241 0)
(0.0589701 0.0803488 0)
(0.057615 0.0833507 0)
(0.0559716 0.0863124 0)
(0.0540398 0.089216 0)
(0.0518217 0.0920427 0)
(0.049322 0.0947736 0)
(0.0465474 0.0973894 0)
(0.0435075 0.0998708 0)
(0.0402141 0.102199 0)
(0.0366819 0.104355 0)
(0.032928 0.106322 0)
(0.0289719 0.108083 0)
(0.0248352 0.109623 0)
(0.0205421 0.110929 0)
(0.016118 0.111988 0)
(0.01159 0.112791 0)
(0.00698304 0.11333 0)
(0.00233134 0.113601 0)
(0.00163124 0.0243127 0)
(0.00488829 0.0244421 0)
(0.00813686 0.0247009 0)
(0.0113741 0.0250895 0)
(0.0145918 0.0256083 0)
(0.0177841 0.0262575 0)
(0.0209448 0.0270379 0)
(0.0240675 0.0279499 0)
(0.0271454 0.0289941 0)
(0.0301711 0.0301711 0)
(0.0331372 0.0314815 0)
(0.0360354 0.0329255 0)
(0.0388572 0.0345035 0)
(0.0415934 0.0362155 0)
(0.0442343 0.0380613 0)
(0.0467699 0.0400403 0)
(0.0491894 0.0421514 0)
(0.0514815 0.0443932 0)
(0.0536347 0.0467636 0)
(0.0556369 0.0492599 0)
(0.0574754 0.0518786 0)
(0.0591377 0.0546155 0)
(0.0606107 0.0574652 0)
(0.0618813 0.0604216 0)
(0.0629364 0.0634774 0)
(0.0637633 0.066624 0)
(0.0643492 0.0698519 0)
(0.064682 0.07315 0)
(0.0647504 0.0765061 0)
(0.0645438 0.0799065 0)
(0.0640526 0.0833364 0)
(0.0632688 0.0867795 0)
(0.0621855 0.0902182 0)
(0.060798 0.0936339 0)
(0.0591033 0.0970068 0)
(0.0571005 0.100316 0)
(0.0547913 0.103541 0)
(0.0521797 0.106658 0)
(0.0492727 0.109647 0)
(0.0460797 0.112484 0)
(0.0426132 0.115148 0)
(0.0388884 0.117616 0)
(0.0349235 0.119869 0)
(0.0307391 0.121888 0)
(0.0263588 0.123653 0)
(0.0218083 0.125151 0)
(0.0171153 0.126366 0)
(0.0123091 0.127288 0)
(0.00741722 0.127907 0)
(0.00247652 0.128218 0)
(0.00169936 0.0266557 0)
(0.00509266 0.0267987 0)
(0.00847769 0.0270849 0)
(0.0118517 0.0275145 0)
(0.0152067 0.0280881 0)
(0.0185368 0.0288061 0)
(0.021836 0.0296693 0)
(0.0250978 0.0306784 0)
(0.0283153 0.0318341 0)
(0.0314815 0.0331372 0)
(0.0345884 0.0345884 0)
(0.037628 0.0361885 0)
(0.0405914 0.0379377 0)
(0.0434691 0.0398364 0)
(0.0462513 0.0418845 0)
(0.0489274 0.0440817 0)
(0.0514862 0.046427 0)
(0.0539159 0.0489191 0)
(0.0562042 0.051556 0)
(0.0583383 0.0543349 0)
(0.0603049 0.0572523 0)
(0.0620902 0.0603036 0)
(0.0636803 0.0634834 0)
(0.0650611 0.0667849 0)
(0.0662182 0.0702004 0)
(0.0671374 0.0737207 0)
(0.0678049 0.0773351 0)
(0.0682072 0.0810317 0)
(0.0683313 0.0847968 0)
(0.0681654 0.0886154 0)
(0.0676984 0.0924708 0)
(0.0669208 0.0963448 0)
(0.0658246 0.100218 0)
(0.0644036 0.104068 0)
(0.0626539 0.107875 0)
(0.0605737 0.111613 0)
(0.0581639 0.115258 0)
(0.0554281 0.118786 0)
(0.052373 0.122171 0)
(0.0490081 0.125387 0)
(0.0453463 0.128408 0)
(0.0414037 0.13121 0)
(0.0371995 0.13377 0)
(0.032756 0.136064 0)
(0.0280984 0.138072 0)
(0.0232545 0.139776 0)
(0.0182547 0.141159 0)
(0.0131309 0.142208 0)
(0.0079135 0.142913 0)
(0.00264246 0.143267 0)
(0.00177428 0.028931 0)
(0.00531748 0.0290877 0)
(0.00885265 0.029401 0)
(0.0123773 0.0298716 0)
(0.0158834 0.0304999 0)
(0.0193653 0.0312866 0)
(0.0228171 0.0322325 0)
(0.0262323 0.0333387 0)
(0.0296042 0.034606 0)
(0.0329255 0.0360354 0)
(0.0361885 0.037628 0)
(0.0393846 0.0393846 0)
(0.0425051 0.0413061 0)
(0.0455402 0.0433928 0)
(0.0484796 0.0456451 0)
(0.0513124 0.0480628 0)
(0.0540268 0.0506452 0)
(0.0566105 0.0533912 0)
(0.0590505 0.0562989 0)
(0.0613331 0.0593657 0)
(0.0634441 0.0625878 0)
(0.0653688 0.0659609 0)
(0.067092 0.0694791 0)
(0.0685983 0.0731355 0)
(0.0698722 0.0769217 0)
(0.0708979 0.080828 0)
(0.0716601 0.0848428 0)
(0.0721437 0.0889531 0)
(0.0723342 0.0931441 0)
(0.0722178 0.0973993 0)
(0.0717821 0.1017 0)
(0.0710157 0.106026 0)
(0.0699092 0.110356 0)
(0.0684549 0.114666 0)
(0.0666475 0.118931 0)
(0.0644841 0.123123 0)
(0.0619647 0.127216 0)
(0.0590923 0.131181 0)
(0.0558731 0.134989 0)
(0.052317 0.13861 0)
(0.048437 0.142015 0)
(0.0442502 0.145176 0)
(0.039777 0.148065 0)
(0.0350413 0.150657 0)
(0.0300705 0.152926 0)
(0.0248948 0.154852 0)
(0.0195475 0.156417 0)
(0.0140636 0.157604 0)
(0.00847682 0.158403 0)
(0.00283084 0.158804 0)
(0.00185599 0.0311312 0)
(0.00556267 0.0313014 0)
(0.00926162 0.0316418 0)
(0.0129506 0.0321531 0)
(0.0166217 0.0328359 0)
(0.0202695 0.033691 0)
(0.0238881 0.0347195 0)
(0.0274712 0.0359226 0)
(0.0310121 0.0373013 0)
(0.0345035 0.0388572 0)
(0.0379377 0.0405914 0)
(0.0413061 0.0425051 0)
(0.0445995 0.0445995 0)
(0.0478082 0.0468755 0)
(0.0509213 0.0493336 0)
(0.0539275 0.0519739 0)
(0.0568146 0.0547963 0)
(0.0595696 0.0577998 0)
(0.0621786 0.0609827 0)
(0.0646272 0.0643426 0)
(0.0669001 0.067876 0)
(0.0689815 0.0715784 0)
(0.070855 0.075444 0)
(0.0725037 0.0794655 0)
(0.0739106 0.0836342 0)
(0.0750585 0.0879397 0)
(0.0759301 0.09237 0)
(0.0765085 0.0969108 0)
(0.0767775 0.101546 0)
(0.0767213 0.106258 0)
(0.0763255 0.111027 0)
(0.075577 0.115829 0)
(0.0744642 0.120641 0)
(0.0729779 0.125437 0)
(0.0711111 0.130188 0)
(0.0688595 0.134864 0)
(0.066222 0.139435 0)
(0.0632008 0.143868 0)
(0.0598017 0.148129 0)
(0.0560344 0.152186 0)
(0.0519124 0.156005 0)
(0.0474537 0.159553 0)
(0.0426799 0.162798 0)
(0.0376169 0.165711 0)
(0.0322944 0.168265 0)
(0.0267455 0.170433 0)
(0.0210067 0.172195 0)
(0.0151166 0.173533 0)
(0.00911296 0.174432 0)
(0.0030436 0.174885 0)
(0.00194445 0.0332484 0)
(0.00582811 0.0334319 0)
(0.00970441 0.0337993 0)
(0.0135714 0.0343511 0)
(0.0174213 0.035088 0)
(0.021249 0.0360112 0)
(0.0250486 0.0371218 0)
(0.0288141 0.0384214 0)
(0.0325388 0.0399113 0)
(0.0362155 0.0415934 0)
(0.0398364 0.0434691 0)
(0.0433928 0.0455402 0)
(0.0468755 0.0478082 0)
(0.0502742 0.0502742 0)
(0.0535781 0.0529395 0)
(0.0567752 0.0558046 0)
(0.0598527 0.0588695 0)
(0.0627969 0.0621339 0)
(0.0655934 0.0655964 0)
(0.0682265 0.0692549 0)
(0.0706799 0.0731061 0)
(0.0729367 0.0771456 0)
(0.074979 0.0813677 0)
(0.0767885 0.0857651 0)
(0.0783464 0.0903287 0)
(0.0796337 0.0950478 0)
(0.0806312 0.0999096 0)
(0.08132 0.104899 0)
(0.0816816 0.109999 0)
(0.0816981 0.11519 0)
(0.0813528 0.12045 0)
(0.0806303 0.125755 0)
(0.0795171 0.131078 0)
(0.0780016 0.136389 0)
(0.076075 0.141658 0)
(0.0737314 0.146851 0)
(0.0709681 0.151934 0)
(0.0677864 0.156869 0)
(0.0641913 0.161619 0)
(0.0601924 0.166146 0)
(0.0558037 0.170412 0)
(0.0510437 0.17438 0)
(0.0459358 0.178013 0)
(0.0405079 0.181277 0)
(0.0347922 0.184139 0)
(0.0288253 0.186572 0)
(0.0226473 0.18855 0)
(0.016301 0.190052 0)
(0.0098286 0.191063 0)
(0.00328298 0.191571 0)
(0.00203959 0.0352744 0)
(0.00611362 0.0354713 0)
(0.0101807 0.0358653 0)
(0.0142393 0.0364571 0)
(0.0182818 0.0372478 0)
(0.0223033 0.0382384 0)
(0.0262982 0.0394306 0)
(0.0302607 0.040826 0)
(0.0341841 0.0424266 0)
(0.0380613 0.0442343 0)
(0.0418845 0.0462513 0)
(0.0456451 0.0484796 0)
(0.0493336 0.0509213 0)
(0.0529395 0.0535781 0)
(0.0564516 0.0564516 0)
(0.0598575 0.059543 0)
(0.063144 0.0628529 0)
(0.0662964 0.0663814 0)
(0.0692996 0.0701276 0)
(0.0721369 0.0740899 0)
(0.0747909 0.0782654 0)
(0.0772431 0.08265 0)
(0.0794744 0.0872381 0)
(0.0814647 0.0920225 0)
(0.0831934 0.0969941 0)
(0.0846393 0.102142 0)
(0.0857813 0.107452 0)
(0.086598 0.11291 0)
(0.0870685 0.118496 0)
(0.0871724 0.12419 0)
(0.0868904 0.129968 0)
(0.0862045 0.135804 0)
(0.0850985 0.141669 0)
(0.0835585 0.147529 0)
(0.0815734 0.153352 0)
(0.0791351 0.159098 0)
(0.0762394 0.164731 0)
(0.0728859 0.170207 0)
(0.069079 0.175485 0)
(0.0648277 0.180522 0)
(0.0601463 0.185275 0)
(0.0550543 0.1897 0)
(0.0495765 0.193755 0)
(0.0437432 0.197403 0)
(0.0375897 0.200604 0)
(0.0311561 0.203327 0)
(0.0244868 0.205542 0)
(0.0176294 0.207225 0)
(0.0106315 0.208358 0)
(0.00355158 0.208927 0)
(0.00214133 0.0372012 0)
(0.00641897 0.0374112 0)
(0.0106902 0.0378314 0)
(0.0149538 0.0384628 0)
(0.0192026 0.0393064 0)
(0.0234318 0.0403638 0)
(0.0276362 0.0416366 0)
(0.0318101 0.0431271 0)
(0.0359471 0.0448373 0)
(0.0400403 0.0467699 0)
(0.0440817 0.0489274 0)
(0.0480628 0.0513124 0)
(0.0519739 0.0539275 0)
(0.0558046 0.0567752 0)
(0.059543 0.0598575 0)
(0.0631765 0.0631765 0)
(0.0666911 0.0667333 0)
(0.0700716 0.0705286 0)
(0.0733019 0.0745624 0)
(0.0763642 0.0788334 0)
(0.07924 0.0833395 0)
(0.0819094 0.088077 0)
(0.0843516 0.0930407 0)
(0.0865445 0.0982235 0)
(0.0884657 0.103616 0)
(0.0900918 0.109208 0)
(0.0913991 0.114986 0)
(0.0923637 0.120932 0)
(0.0929619 0.127027 0)
(0.0931704 0.13325 0)
(0.092967 0.139575 0)
(0.0923306 0.145974 0)
(0.0912421 0.152414 0)
(0.0896846 0.158861 0)
(0.0876443 0.165275 0)
(0.0851105 0.171617 0)
(0.0820767 0.177842 0)
(0.0785411 0.183904 0)
(0.0745066 0.189755 0)
(0.0699818 0.195347 0)
(0.0649809 0.20063 0)
(0.0595244 0.205555 0)
(0.0536387 0.210074 0)
(0.0473565 0.214142 0)
(0.0407166 0.217717 0)
(0.0337631 0.22076 0)
(0.0265454 0.223236 0)
(0.0191168 0.225119 0)
(0.0115308 0.226387 0)
(0.00385245 0.227025 0)
(0.00224957 0.0390202 0)
(0.00674386 0.039243 0)
(0.0112324 0.0396891 0)
(0.0157143 0.0403593 0)
(0.0201828 0.0412551 0)
(0.0246335 0.0423781 0)
(0.0290615 0.0437304 0)
(0.0334613 0.0453146 0)
(0.0378269 0.0471332 0)
(0.0421514 0.0491894 0)
(0.046427 0.0514862 0)
(0.0506452 0.0540268 0)
(0.0547963 0.0568146 0)
(0.0588695 0.0598527 0)
(0.0628529 0.063144 0)
(0.0667333 0.0666911 0)
(0.0704961 0.0704961 0)
(0.0741256 0.0745606 0)
(0.0776044 0.0788852 0)
(0.080914 0.0834696 0)
(0.0840344 0.0883122 0)
(0.0869443 0.0934101 0)
(0.0896209 0.0987587 0)
(0.0920405 0.104351 0)
(0.0941783 0.110179 0)
(0.0960083 0.116232 0)
(0.0975044 0.122494 0)
(0.0986396 0.12895 0)
(0.0993872 0.13558 0)
(0.0997206 0.14236 0)
(0.0996141 0.149263 0)
(0.0990432 0.156258 0)
(0.0979852 0.163312 0)
(0.0964198 0.170384 0)
(0.0943298 0.177435 0)
(0.0917017 0.184417 0)
(0.0885262 0.191283 0)
(0.0847992 0.19798 0)
(0.080522 0.204455 0)
(0.0757022 0.210652 0)
(0.0703541 0.216515 0)
(0.0644986 0.22199 0)
(0.0581642 0.227019 0)
(0.0513862 0.231552 0)
(0.0442069 0.235539 0)
(0.0366754 0.238936 0)
(0.0288466 0.241703 0)
(0.0207802 0.243808 0)
(0.0125367 0.245226 0)
(0.00418909 0.245939 0)
(0.00236419 0.0407227 0)
(0.00708789 0.0409582 0)
(0.0118065 0.0414295 0)
(0.0165198 0.0421377 0)
(0.0212214 0.0430845 0)
(0.0259072 0.0442719 0)
(0.0305727 0.0457022 0)
(0.0352129 0.0473784 0)
(0.0398219 0.0493036 0)
(0.0443932 0.0514815 0)
(0.0489191 0.0539159 0)
(0.0533912 0.0566105 0)
(0.0577998 0.0595696 0)
(0.0621339 0.0627969 0)
(0.0663814 0.0662964 0)
(0.0705286 0.0700716 0)
(0.0745606 0.0741256 0)
(0.0784607 0.0784607 0)
(0.0822108 0.0830788 0)
(0.0857913 0.0879803 0)
(0.0891806 0.0931649 0)
(0.0923559 0.0986303 0)
(0.0952928 0.104373 0)
(0.0979652 0.110387 0)
(0.100346 0.116663 0)
(0.102407 0.123192 0)
(0.104118 0.12996 0)
(0.10545 0.136949 0)
(0.106371 0.144138 0)
(0.106853 0.151504 0)
(0.106865 0.159018 0)
(0.106379 0.166647 0)
(0.105368 0.174354 0)
(0.103808 0.182098 0)
(0.101677 0.189831 0)
(0.0989582 0.197505 0)
(0.0956393 0.205065 0)
(0.0917131 0.212453 0)
(0.0871788 0.219608 0)
(0.0820428 0.226469 0)
(0.0763187 0.232971 0)
(0.0700282 0.23905 0)
(0.0632014 0.244644 0)
(0.0558766 0.249692 0)
(0.0481003 0.254137 0)
(0.0399268 0.257927 0)
(0.0314175 0.261018 0)
(0.0226396 0.263371 0)
(0.0136617 0.264956 0)
(0.00456561 0.265754 0)
(0.00248501 0.0423002 0)
(0.00745059 0.0425479 0)
(0.0124119 0.0430437 0)
(0.0173694 0.0437889 0)
(0.0223169 0.0447854 0)
(0.0272512 0.0460354 0)
(0.032168 0.0475417 0)
(0.0370628 0.0493078 0)
(0.0419301 0.0513375 0)
(0.0467636 0.0536347 0)
(0.051556 0.0562042 0)
(0.0562989 0.0590505 0)
(0.0609827 0.0621786 0)
(0.0655964 0.0655934 0)
(0.0701276 0.0692996 0)
(0.0745624 0.0733019 0)
(0.0788852 0.0776044 0)
(0.0830788 0.0822108 0)
(0.087124 0.087124 0)
(0.0910002 0.0923458 0)
(0.0946844 0.0978769 0)
(0.0981522 0.103716 0)
(0.101377 0.109861 0)
(0.104331 0.116307 0)
(0.106984 0.123046 0)
(0.109305 0.130068 0)
(0.111261 0.13736 0)
(0.112818 0.144904 0)
(0.113943 0.152681 0)
(0.114601 0.160664 0)
(0.114757 0.168825 0)
(0.114379 0.177127 0)
(0.113436 0.185532 0)
(0.111897 0.193994 0)
(0.109737 0.202463 0)
(0.106935 0.210885 0)
(0.103474 0.219198 0)
(0.0993425 0.227339 0)
(0.0945382 0.23524 0)
(0.0890648 0.242829 0)
(0.0829353 0.250035 0)
(0.0761718 0.256784 0)
(0.0688059 0.263003 0)
(0.0608792 0.268624 0)
(0.0524426 0.27358 0)
(0.0435567 0.277811 0)
(0.0342899 0.281264 0)
(0.0247182 0.283894 0)
(0.0149197 0.285667 0)
(0.00498677 0.28656 0)
(0.00261185 0.0437437 0)
(0.00783137 0.0440032 0)
(0.0130476 0.0445227 0)
(0.0182616 0.0453036 0)
(0.0234678 0.0463481 0)
(0.0286635 0.0476587 0)
(0.0338452 0.0492388 0)
(0.0390086 0.0510922 0)
(0.0441488 0.0532233 0)
(0.0492599 0.0556369 0)
(0.0543349 0.0583383 0)
(0.0593657 0.0613331 0)
(0.0643426 0.0646272 0)
(0.0692549 0.0682265 0)
(0.0740899 0.0721369 0)
(0.0788334 0.0763642 0)
(0.0834696 0.080914 0)
(0.0879803 0.0857913 0)
(0.0923458 0.0910002 0)
(0.0965441 0.0965441 0)
(0.100551 0.102425 0)
(0.10434 0.108644 0)
(0.107883 0.115198 0)
(0.11115 0.122086 0)
(0.114107 0.1293 0)
(0.116721 0.136831 0)
(0.118954 0.144667 0)
(0.120771 0.152792 0)
(0.122131 0.161183 0)
(0.122997 0.169816 0)
(0.123328 0.17866 0)
(0.123086 0.187678 0)
(0.122235 0.196828 0)
(0.120739 0.206061 0)
(0.118568 0.215324 0)
(0.115693 0.224556 0)
(0.112094 0.233689 0)
(0.107755 0.242653 0)
(0.102669 0.251372 0)
(0.0968379 0.259764 0)
(0.0902731 0.267749 0)
(0.0829966 0.27524 0)
(0.0750418 0.282157 0)
(0.0664532 0.288418 0)
(0.0572871 0.293945 0)
(0.0476105 0.29867 0)
(0.0375006 0.30253 0)
(0.0270432 0.305473 0)
(0.0163275 0.307459 0)
(0.00545817 0.308458 0)
(0.00274447 0.0450446 0)
(0.00822952 0.0453153 0)
(0.0137124 0.0458574 0)
(0.0191948 0.0466726 0)
(0.024672 0.0477631 0)
(0.0301419 0.0491319 0)
(0.0356015 0.0507829 0)
(0.0410472 0.0527203 0)
(0.0464748 0.0549493 0)
(0.0518786 0.0574754 0)
(0.0572523 0.0603049 0)
(0.0625878 0.0634441 0)
(0.067876 0.0669001 0)
(0.0731061 0.0706799 0)
(0.0782654 0.0747909 0)
(0.0833395 0.07924 0)
(0.0883122 0.0840344 0)
(0.0931649 0.0891806 0)
(0.0978769 0.0946844 0)
(0.102425 0.100551 0)
(0.106784 0.106784 0)
(0.110926 0.113386 0)
(0.114819 0.120357 0)
(0.118433 0.127695 0)
(0.121729 0.135396 0)
(0.124672 0.143452 0)
(0.127221 0.151852 0)
(0.129334 0.160579 0)
(0.130967 0.169614 0)
(0.132077 0.17893 0)
(0.132619 0.188496 0)
(0.132547 0.198275 0)
(0.131819 0.208221 0)
(0.130393 0.218283 0)
(0.128231 0.228402 0)
(0.1253 0.238512 0)
(0.121572 0.248539 0)
(0.117025 0.258405 0)
(0.111649 0.268023 0)
(0.105441 0.277304 0)
(0.0984113 0.286151 0)
(0.0905803 0.294471 0)
(0.081983 0.302167 0)
(0.0726675 0.309145 0)
(0.0626955 0.315316 0)
(0.0521417 0.320598 0)
(0.0410929 0.324918 0)
(0.0296464 0.328215 0)
(0.0179046 0.33044 0)
(0.00598636 0.331561 0)
(0.00288258 0.046194 0)
(0.00864423 0.0464754 0)
(0.0144049 0.047039 0)
(0.0201672 0.0478865 0)
(0.0259272 0.0490207 0)
(0.0316833 0.0504449 0)
(0.0374336 0.0521633 0)
(0.043175 0.054181 0)
(0.0489039 0.0565036 0)
(0.0546155 0.0591377 0)
(0.0603036 0.0620902 0)
(0.0659609 0.0653688 0)
(0.0715784 0.0689815 0)
(0.0771456 0.0729367 0)
(0.08265 0.0772431 0)
(0.088077 0.0819094 0)
(0.0934101 0.0869443 0)
(0.0986303 0.0923559 0)
(0.103716 0.0981522 0)
(0.108644 0.10434 0)
(0.113386 0.110926 0)
(0.117913 0.117913 0)
(0.122193 0.125305 0)
(0.126189 0.133101 0)
(0.129864 0.1413 0)
(0.133176 0.149895 0)
(0.136081 0.158876 0)
(0.138533 0.16823 0)
(0.140482 0.177936 0)
(0.141879 0.18797 0)
(0.142673 0.1983 0)
(0.142811 0.208886 0)
(0.142243 0.219682 0)
(0.14092 0.230634 0)
(0.138797 0.241678 0)
(0.135831 0.252742 0)
(0.131987 0.263746 0)
(0.127239 0.274601 0)
(0.121567 0.285211 0)
(0.114966 0.295475 0)
(0.107441 0.305284 0)
(0.0990121 0.314529 0)
(0.0897155 0.323099 0)
(0.0796024 0.330885 0)
(0.0687403 0.337782 0)
(0.0572126 0.343695 0)
(0.0451174 0.348538 0)
(0.0325652 0.352236 0)
(0.0196738 0.354735 0)
(0.00657909 0.355994 0)
(0.00302588 0.0471833 0)
(0.00907452 0.0474747 0)
(0.0151235 0.0480584 0)
(0.0211766 0.0489363 0)
(0.0272304 0.0501115 0)
(0.0332845 0.0515877 0)
(0.0393375 0.0533696 0)
(0.0453875 0.055463 0)
(0.0514315 0.0578742 0)
(0.0574652 0.0606107 0)
(0.0634834 0.0636803 0)
(0.0694791 0.067092 0)
(0.075444 0.070855 0)
(0.0813677 0.074979 0)
(0.0872381 0.0794744 0)
(0.0930407 0.0843516 0)
(0.0987587 0.0896209 0)
(0.104373 0.0952928 0)
(0.109861 0.101377 0)
(0.115198 0.107883 0)
(0.120357 0.114819 0)
(0.125305 0.122193 0)
(0.130008 0.130008 0)
(0.134428 0.138268 0)
(0.138523 0.146973 0)
(0.142249 0.156119 0)
(0.145556 0.1657 0)
(0.148394 0.175702 0)
(0.150708 0.186109 0)
(0.152441 0.196895 0)
(0.153535 0.208029 0)
(0.15393 0.219472 0)
(0.153567 0.231176 0)
(0.152389 0.243083 0)
(0.150339 0.255126 0)
(0.147368 0.267227 0)
(0.143431 0.279298 0)
(0.138491 0.29124 0)
(0.132523 0.302947 0)
(0.125514 0.314303 0)
(0.117466 0.325186 0)
(0.108395 0.335468 0)
(0.0983388 0.345023 0)
(0.0873512 0.353722 0)
(0.0755062 0.361444 0)
(0.0628968 0.368074 0)
(0.0496339 0.373512 0)
(0.0358438 0.377671 0)
(0.0216623 0.380482 0)
(0.00724553 0.381899 0)
(0.00317399 0.0480042 0)
(0.0095193 0.0483048 0)
(0.0158665 0.0489069 0)
(0.0222203 0.049813 0)
(0.0285785 0.051026 0)
(0.0349414 0.0525503 0)
(0.0413089 0.0543912 0)
(0.0476796 0.056555 0)
(0.0540516 0.0590489 0)
(0.0604216 0.0618813 0)
(0.0667849 0.0650611 0)
(0.0731355 0.0685983 0)
(0.0794655 0.0725037 0)
(0.0857651 0.0767885 0)
(0.0920225 0.0814647 0)
(0.0982235 0.0865445 0)
(0.104351 0.0920405 0)
(0.110387 0.0979652 0)
(0.116307 0.104331 0)
(0.122086 0.11115 0)
(0.127695 0.118433 0)
(0.133101 0.126189 0)
(0.138268 0.134428 0)
(0.143154 0.143154 0)
(0.147716 0.152372 0)
(0.151903 0.162081 0)
(0.155664 0.172275 0)
(0.158942 0.182947 0)
(0.161675 0.194081 0)
(0.1638 0.205653 0)
(0.16525 0.217634 0)
(0.165958 0.229986 0)
(0.165854 0.242657 0)
(0.16487 0.25559 0)
(0.16294 0.268712 0)
(0.160002 0.28194 0)
(0.156001 0.295178 0)
(0.150888 0.308318 0)
(0.14463 0.321239 0)
(0.137204 0.333811 0)
(0.128606 0.345895 0)
(0.118849 0.357345 0)
(0.107969 0.368012 0)
(0.0960235 0.377748 0)
(0.0830929 0.386409 0)
(0.0692811 0.39386 0)
(0.0547135 0.399981 0)
(0.0395349 0.404667 0)
(0.0239026 0.407838 0)
(0.00799658 0.409438 0)
(0.00332649 0.0486485 0)
(0.00997732 0.0489574 0)
(0.0166317 0.0495763 0)
(0.0232956 0.0505077 0)
(0.0299678 0.0517551 0)
(0.0366497 0.0533231 0)
(0.0433422 0.0552178 0)
(0.0500453 0.0574459 0)
(0.0567577 0.0600158 0)
(0.0634774 0.0629364 0)
(0.0702004 0.0662182 0)
(0.0769217 0.0698722 0)
(0.0836342 0.0739106 0)
(0.0903287 0.0783464 0)
(0.0969941 0.0831934 0)
(0.103616 0.0884657 0)
(0.110179 0.0941783 0)
(0.116663 0.100346 0)
(0.123046 0.106984 0)
(0.1293 0.114107 0)
(0.135396 0.121729 0)
(0.1413 0.129864 0)
(0.146973 0.138523 0)
(0.152372 0.147716 0)
(0.157449 0.157449 0)
(0.162152 0.167727 0)
(0.166423 0.178549 0)
(0.170199 0.189909 0)
(0.173413 0.201794 0)
(0.175995 0.214186 0)
(0.177867 0.227057 0)
(0.178953 0.240367 0)
(0.179172 0.254069 0)
(0.178443 0.268102 0)
(0.176689 0.282389 0)
(0.173834 0.296843 0)
(0.169808 0.311358 0)
(0.164551 0.325817 0)