/*--------------------------------*- C++ -*----------------------------------*\
| =========                 |                                                 |
| \\      /  F ield         | OpenFOAM: The Open Source CFD Toolbox           |
|  \\    /   O peration     | Version:  2406                                  |
|   \\  /    A nd           | Website:  www.openfoam.com                      |
|    \\/     M anipulation  |                                                 |
\*---------------------------------------------------------------------------*/
FoamFile
{
    version     2.0;
    format      ascii;
    arch        "LSB;label=32;scalar=64";
    class       volScalarField;
    location    "2.2";
    object      gradTy;
}
// * * * * * * * * * * * * * * * * * * * * * * * * * * * * * * * * * * * * * //

dimensions      [0 -1 0 1 0 0 0];

internalField   nonuniform List<scalar> 
2500
(
0.0132523
0.0133188
0.0134552
0.0136591
0.0139309
0.0142707
0.0146787
0.015155
0.0156996
0.0163124
0.0169936
0.0177428
0.0185599
0.0194445
0.0203959
0.0214133
0.0224957
0.0236419
0.0248501
0.0261185
0.0274447
0.0288258
0.0302588
0.0317399
0.0332649
0.0348292
0.0364273
0.0380535
0.0397015
0.0413642
0.0430342
0.0447035
0.0463637
0.0480059
0.0496208
0.0511989
0.0527304
0.0542056
0.0556144
0.0569473
0.0581945
0.059347
0.0603961
0.0613336
0.0621523
0.0628457
0.0634084
0.063836
0.0641229
0.0642539
0.0397004
0.0399033
0.0403115
0.0409229
0.0417381
0.0427575
0.0439815
0.0454103
0.0470441
0.0488829
0.0509266
0.0531748
0.0556267
0.0582811
0.0611362
0.0641897
0.0674386
0.0708789
0.0745059
0.0783137
0.0822952
0.0864423
0.0907452
0.095193
0.0997732
0.104471
0.109272
0.114157
0.119108
0.124104
0.129123
0.13414
0.139129
0.144065
0.14892
0.153664
0.158269
0.162705
0.166941
0.17095
0.174701
0.178167
0.181323
0.184143
0.186606
0.188691
0.190384
0.191671
0.192542
0.192962
0.0660582
0.0663985
0.0670779
0.0680967
0.0694556
0.0711551
0.0731957
0.075578
0.0783022
0.0813686
0.0847769
0.0885265
0.0926162
0.0970441
0.101807
0.106902
0.112324
0.118065
0.124119
0.130476
0.137124
0.144049
0.151235
0.158665
0.166317
0.174168
0.182191
0.190358
0.198635
0.20699
0.215383
0.223775
0.232124
0.240384
0.248509
0.256451
0.264161
0.271589
0.278684
0.285399
0.291683
0.297491
0.302779
0.307505
0.311632
0.315127
0.317961
0.320114
0.321569
0.322295
0.0922932
0.0927689
0.0937198
0.0951467
0.09705
0.0994306
0.102289
0.105627
0.109444
0.113741
0.118517
0.123773
0.129506
0.135714
0.142393
0.149538
0.157143
0.165198
0.173694
0.182616
0.191948
0.201672
0.211766
0.222203
0.232956
0.243991
0.255271
0.266755
0.278399
0.290154
0.301967
0.313782
0.325539
0.337174
0.348623
0.359816
0.370684
0.381158
0.391165
0.400637
0.409504
0.417701
0.425164
0.431836
0.437662
0.442595
0.446595
0.449628
0.451668
0.452692
0.11832
0.118931
0.120154
0.12199
0.124438
0.127501
0.13118
0.135475
0.140387
0.145918
0.152067
0.158834
0.166217
0.174213
0.182818
0.192026
0.201828
0.212214
0.223169
0.234678
0.24672
0.259272
0.272304
0.285785
0.299678
0.313939
0.328523
0.343377
0.358443
0.373657
0.388953
0.404256
0.41949
0.434572
0.449417
0.463936
0.478039
0.491633
0.504627
0.516929
0.528449
0.5391
0.548801
0.557474
0.565049
0.571464
0.576664
0.580606
0.583254
0.584584
0.144077
0.144824
0.14632
0.148565
0.151559
0.155306
0.159806
0.165061
0.171072
0.177841
0.185368
0.193653
0.202695
0.21249
0.223033
0.234318
0.246335
0.259072
0.272512
0.286635
0.301419
0.316833
0.332845
0.349414
0.366497
0.384041
0.40199
0.420279
0.438837
0.457587
0.476446
0.495323
0.514123
0.532744
0.551081
0.569023
0.586459
0.603272
0.61935
0.634577
0.648841
0.662034
0.674053
0.684801
0.694191
0.702143
0.70859
0.713477
0.716759
0.718407
0.169501
0.170386
0.172154
0.174808
0.17835
0.182782
0.188105
0.194322
0.201436
0.209448
0.21836
0.228171
0.238881
0.250486
0.262982
0.276362
0.290615
0.305727
0.32168
0.338452
0.356015
0.374336
0.393375
0.413089
0.433422
0.454317
0.475704
0.497508
0.519646
0.542025
0.564547
0.587103
0.609579
0.631854
0.653801
0.675287
0.696177
0.716333
0.735615
0.753885
0.771008
0.786851
0.801289
0.814205
0.825492
0.835052
0.842805
0.848681
0.852628
0.85461
0.194529
0.19555
0.197592
0.200657
0.204746
0.209864
0.216013
0.223195
0.231415
0.240675
0.250978
0.262323
0.274712
0.288141
0.302607
0.318101
0.334613
0.352129
0.370628
0.390086
0.410472
0.43175
0.453875
0.476796
0.500453
0.524776
0.549689
0.575104
0.600925
0.627044
0.653347
0.679708
0.705992
0.732059
0.757757
0.782933
0.807425
0.83107
0.853703
0.87516
0.895279
0.913904
0.930885
0.946081
0.959365
0.97062
0.979749
0.986669
0.991318
0.993653
0.219094
0.220251
0.222567
0.226042
0.23068
0.236485
0.243461
0.251611
0.260941
0.271454
0.283153
0.296042
0.310121
0.325388
0.341841
0.359471
0.378269
0.398219
0.419301
0.441488
0.464748
0.489039
0.514315
0.540516
0.567577
0.595421
0.62396
0.653096
0.682719
0.712708
0.742929
0.773241
0.803488
0.833507
0.863124
0.89216
0.920427
0.947736
0.973894
0.998708
1.02199
1.04355
1.06322
1.08083
1.09623
1.10929
1.11988
1.12791
1.1333
1.13601
0.243127
0.244421
0.247009
0.250895
0.256083
0.262575
0.270379
0.279499
0.289941
0.301711
0.314815
0.329255
0.345035
0.362155
0.380613
0.400403
0.421514
0.443932
0.467636
0.492599
0.518786
0.546155
0.574652
0.604216
0.634774
0.66624
0.698519
0.7315
0.765061
0.799065
0.833364
0.867795
0.902182
0.936339
0.970068
1.00316
1.03541
1.06658
1.09647
1.12484
1.15148
1.17616
1.19869
1.21888
1.23653
1.25151
1.26366
1.27288
1.27907
1.28218
0.266557
0.267987
0.270849
0.275145
0.280881
0.288061
0.296693
0.306784
0.318341
0.331372
0.345884
0.361885
0.379377
0.398364
0.418845
0.440817
0.46427
0.489191
0.51556
0.543349
0.572523
0.603036
0.634834
0.667849
0.702004
0.737207
0.773351
0.810317
0.847968
0.886154
0.924708
0.963448
1.00218
1.04068
1.07875
1.11613
1.15258
1.18786
1.22171
1.25387
1.28408
1.3121
1.3377
1.36064
1.38072
1.39776
1.41159
1.42208
1.42913
1.43267
0.28931
0.290877
0.29401
0.298716
0.304999
0.312866
0.322325
0.333387
0.34606
0.360354
0.37628
0.393846
0.413061
0.433928
0.456451
0.480628
0.506452
0.533912
0.562989
0.593657
0.625878
0.659609
0.694791
0.731355
0.769217
0.80828
0.848428
0.889531
0.931441
0.973993
1.017
1.06026
1.10356
1.14666
1.18931
1.23123
1.27216
1.31181
1.34989
1.3861
1.42015
1.45176
1.48065
1.50657
1.52926
1.54852
1.56417
1.57604
1.58403
1.58804
0.311312
0.313014
0.316418
0.321531
0.328359
0.33691
0.347195
0.359226
0.373013
0.388572
0.405914
0.425051
0.445995
0.468755
0.493336
0.519739
0.547963
0.577998
0.609827
0.643426
0.67876
0.715784
0.75444
0.794655
0.836342
0.879397
0.9237
0.969108
1.01546
1.06258
1.11027
1.15829
1.20641
1.25437
1.30188
1.34864
1.39435
1.43868
1.48129
1.52186
1.56005
1.59553
1.62798
1.65711
1.68265
1.70433
1.72195
1.73533
1.74432
1.74885
0.332484
0.334319
0.337993
0.343511
0.35088
0.360112
0.371218
0.384214
0.399113
0.415934
0.434691
0.455402
0.478082
0.502742
0.529395
0.558046
0.588695
0.621339
0.655964
0.692549
0.731061
0.771456
0.813677
0.857651
0.903287
0.950478
0.999096
1.04899
1.09999
1.1519
1.2045
1.25755
1.31078
1.36389
1.41658
1.46851
1.51934
1.56869
1.61619
1.66146
1.70412
1.7438
1.78013
1.81277
1.84139
1.86572
1.8855
1.90052
1.91063
1.91571
0.352744
0.354713
0.358653
0.364571
0.372478
0.382384
0.394306
0.40826
0.424266
0.442343
0.462513
0.484796
0.509213
0.535781
0.564516
0.59543
0.628529
0.663814
0.701276
0.740899
0.782654
0.8265
0.872381
0.920225
0.969941
1.02142
1.07452
1.1291
1.18496
1.2419
1.29968
1.35804
1.41669
1.47529
1.53352
1.59098
1.64731
1.70207
1.75485
1.80522
1.85275
1.897
1.93755
1.97403
2.00604
2.03327
2.05542
2.07225
2.08358
2.08927
0.372012
0.374112
0.378314
0.384628
0.393064
0.403638
0.416366
0.431271
0.448373
0.467699
0.489274
0.513124
0.539275
0.567752
0.598575
0.631765
0.667333
0.705286
0.745624
0.788334
0.833395
0.88077
0.930407
0.982235
1.03616
1.09208
1.14986
1.20932
1.27027
1.3325
1.39575
1.45974
1.52414
1.58861
1.65275
1.71617
1.77842
1.83904
1.89755
1.95347
2.0063
2.05555
2.10074
2.14142
2.17717
2.2076
2.23236
2.25119
2.26387
2.27025
0.390202
0.39243
0.396891
0.403593
0.412551
0.423781
0.437304
0.453146
0.471332
0.491894
0.514862
0.540268
0.568146
0.598527
0.63144
0.666911
0.704961
0.745606
0.788852
0.834696
0.883122
0.934101
0.987587
1.04351
1.10179
1.16232
1.22494
1.2895
1.3558
1.4236
1.49263
1.56258
1.63312
1.70384
1.77435
1.84417
1.91283
1.9798
2.04455
2.10652
2.16515
2.2199
2.27019
2.31552
2.35539
2.38936
2.41703
2.43808
2.45226
2.45939
0.407227
0.409582
0.414295
0.421377
0.430845
0.442719
0.457022
0.473784
0.493036
0.514815
0.539159
0.566105
0.595696
0.627969
0.662964
0.700716
0.741256
0.784607
0.830788
0.879803
0.931649
0.986303
1.04373
1.10387
1.16663
1.23192
1.2996
1.36949
1.44138
1.51504
1.59018
1.66647
1.74354
1.82098
1.89831
1.97505
2.05065
2.12453
2.19608
2.26469
2.32971
2.3905
2.44644
2.49692
2.54137
2.57927
2.61018
2.63371
2.64956
2.65754
0.423002
0.425479
0.430437
0.437889
0.447854
0.460354
0.475417
0.493078
0.513375
0.536347
0.562042
0.590505
0.621786
0.655934
0.692996
0.733019
0.776044
0.822108
0.87124
0.923458
0.978769
1.03716
1.09861
1.16307
1.23046
1.30068
1.3736
1.44904
1.52681
1.60664
1.68825
1.77127
1.85532
1.93994
2.02463
2.10885
2.19198
2.27339
2.3524
2.42829
2.50035
2.56784
2.63003
2.68624
2.7358
2.77811
2.81264
2.83894
2.85667
2.8656
0.437437
0.440032
0.445227
0.453036
0.463481
0.476587
0.492388
0.510922
0.532233
0.556369
0.583383
0.613331
0.646272
0.682265
0.721369
0.763642
0.80914
0.857913
0.910002
0.965441
1.02425
1.08644
1.15198
1.22086
1.293
1.36831
1.44667
1.52792
1.61183
1.69816
1.7866
1.87678
1.96828
2.06061
2.15324
2.24556
2.33689
2.42653
2.51372
2.59764
2.67749
2.7524
2.82157
2.88418
2.93945
2.9867
3.0253
3.05473
3.07459
3.08458
0.450446
0.453153
0.458574
0.466726
0.477631
0.491319
0.507829
0.527203
0.549493
0.574754
0.603049
0.634441
0.669001
0.706799
0.747909
0.7924
0.840344
0.891806
0.946844
1.00551
1.06784
1.13386
1.20357
1.27695
1.35396
1.43452
1.51852
1.60579
1.69614
1.7893
1.88496
1.98275
2.08221
2.18283
2.28402
2.38512
2.48539
2.58405
2.68023
2.77304
2.86151
2.94471
3.02167
3.09145
3.15316
3.20598
3.24918
3.28215
3.3044
3.31561
0.46194
0.464754
0.47039
0.478865
0.490207
0.504449
0.521633
0.54181
0.565036
0.591377
0.620902
0.653688
0.689815
0.729367
0.772431
0.819094
0.869443
0.923559
0.981522
1.0434
1.10926
1.17913
1.25305
1.33101
1.413
1.49895
1.58876
1.6823
1.77936
1.8797
1.983
2.08886
2.19682
2.30634
2.41678
2.52742
2.63746
2.74601
2.85211
2.95475
3.05284
3.14529
3.23099
3.30885
3.37782
3.43695
3.48538
3.52236
3.54735
3.55994
0.471833
0.474747
0.480584
0.489363
0.501115
0.515877
0.533696
0.55463
0.578742
0.606107
0.636803
0.67092
0.70855
0.74979
0.794744
0.843516
0.896209
0.952928
1.01377
1.07883
1.14819
1.22193
1.30008
1.38268
1.46973
1.56119
1.657
1.75702
1.86109
1.96895
2.08029
2.19472
2.31176
2.43083
2.55126
2.67227
2.79298
2.9124
3.02947
3.14303
3.25186
3.35468
3.45023
3.53722
3.61444
3.68074
3.73512
3.77671
3.80482
3.81899
0.480042
0.483048
0.489069
0.49813
0.51026
0.525503
0.543912
0.56555
0.590489
0.618813
0.650611
0.685983
0.725037
0.767885
0.814647
0.865445
0.920405
0.979652
1.04331
1.1115
1.18433
1.26189
1.34428
1.43154
1.52372
1.62081
1.72275
1.82947
1.94081
2.05653
2.17634
2.29986
2.42657
2.5559
2.68712
2.8194
2.95178
3.08318
3.21239
3.33811
3.45895
3.57345
3.68012
3.77748
3.86409
3.9386
3.99981
4.04667
4.07838
4.09438
0.486485
0.489574
0.495763
0.505077
0.517551
0.533231
0.552178
0.574459
0.600158
0.629364
0.662182
0.698722
0.739106
0.783464
0.831934
0.884657
0.941783
1.00346
1.06984
1.14107
1.21729
1.29864
1.38523
1.47716
1.57449
1.67727
1.78549
1.89909
2.01794
2.14186
2.27057
2.40367
2.54069
2.68102
2.82389
2.96843
3.11358
3.25817
3.40085
3.54015
3.67448
3.80216
3.92146
4.03063
4.12799
4.21193
4.281
4.33396
4.36983
4.38794
0.491086
0.494249
0.500585
0.510123
0.5229
0.538968
0.558393
0.58125
0.607629
0.637633
0.671374
0.708979
0.750585
0.796337
0.846393
0.900918
0.960083
1.02407
1.09305
1.16721
1.24672
1.33176
1.42249
1.51903
1.62152
1.73003
1.84461
1.96523
2.09183
2.22426
2.36226
2.50548
2.65344
2.80553
2.96098
3.11884
3.27798
3.43712
3.59476
3.74924
3.89876
4.04136
4.17505
4.29775
4.40748
4.50229
4.58047
4.64051
4.68122
4.70179
0.493774
0.496998
0.50346
0.513188
0.526224
0.542625
0.562462
0.585817
0.612789
0.643492
0.678049
0.716601
0.759301
0.806312
0.857813
0.913991
0.975044
1.04118
1.11261
1.18954
1.27221
1.36081
1.45556
1.55664
1.66423
1.77846
1.89943
2.02719
2.16172
2.30292
2.4506
2.60444
2.764
2.92866
3.09764
3.26996
3.44442
3.61962
3.7939
3.9654
4.13205
4.29162
4.44175
4.58001
4.70402
4.81147
4.90026
4.96857
5.01495
5.0384
0.494482
0.497756
0.504319
0.5142
0.527447
0.54412
0.564294
0.588062
0.61553
0.64682
0.682072
0.721437
0.765085
0.8132
0.86598
0.923637
0.986396
1.0545
1.12818
1.20771
1.29334
1.38533
1.48394
1.58942
1.70199
1.82187
1.94922
2.08416
2.22675
2.37695
2.53465
2.69959
2.87137
3.04941
3.23293
3.42093
3.61216
3.80508
3.99788
4.18848
4.37452
4.55343
4.72244
4.87868
5.01928
5.14148
5.2427
5.32073
5.37379
5.40064
0.493153
0.496463
0.5031
0.513095
0.526499
0.543376
0.563808
0.587893
0.615748
0.647504
0.683313
0.723342
0.767775
0.816816
0.870685
0.929619
0.993872
1.06371
1.13943
1.22131
1.30967
1.40482
1.50708
1.61675
1.73413
1.85952
1.99316
2.13526
2.28595
2.44532
2.61332
2.78979
2.97439
3.16661
3.36571
3.57068
3.78021
3.99268
4.20612
4.41819
4.62623
4.82724
5.018
5.19511
5.35509
5.4946
5.61049
5.70002
5.76101
5.7919
0.489736
0.493069
0.49975
0.509816
0.523318
0.540326
0.560928
0.585228
0.61335
0.645438
0.681654
0.722178
0.767213
0.816981
0.871724
0.931704
0.997206
1.06853
1.14601
1.22997
1.32077
1.41879
1.52441
1.638
1.75995
1.89062
2.03037
2.1795
2.33827
2.50687
2.68536
2.87371
3.07168
3.27885
3.49456
3.71781
3.94731
4.18132
4.41774
4.65398
4.88701
5.11339
5.32933
5.53076
5.7135
5.87346
6.00676
6.11001
6.18046
6.21618
0.484191
0.487531
0.494227
0.504316
0.517855
0.534915
0.555591
0.579993
0.608254
0.640526
0.676984
0.717821
0.763255
0.813528
0.868904
0.92967
0.996141
1.06865
1.14757
1.23328
1.32619
1.42673
1.53535
1.6525
1.77867
1.91431
2.05989
2.21583
2.38253
2.5603
2.74937
2.94983
3.16163
3.38446
3.61776
3.86065
4.11183
4.36955
4.63154
4.89499
5.15647
5.41204
5.65722
5.88716
6.09679
6.28106
6.43518
6.55489
6.63675
6.6783
0.476489
0.479819
0.486496
0.49656
0.510067
0.527097
0.547744
0.572129
0.60039
0.632688
0.669208
0.710157
0.75577
0.806303
0.862045
0.923306
0.990432
1.06379
1.14379
1.23086
1.32547
1.42811
1.5393
1.65958
1.78953
1.92971
2.08071
2.24311
2.41743
2.60417
2.80374
3.01643
3.24236
3.48144
3.73326
3.9971
4.27173
4.55544
4.84586
5.13993
5.43385
5.72308
6.00237
6.2659
6.50748
6.72087
6.90007
7.03971
7.1354
7.18405
0.466612
0.469914
0.476538
0.486523
0.49993
0.516838
0.537351
0.56159
0.589701
0.621855
0.658246
0.699092
0.744642
0.795171
0.850985
0.912421
0.979852
1.05368
1.13436
1.22235
1.31819
1.42243
1.53567
1.65854
1.79172
1.93589
2.09177
2.2601
2.44159
2.63693
2.84674
3.07155
3.31174
3.56746
3.83859
4.12459
4.42444
4.73651
5.05843
5.38694
5.71787
6.04603
6.36525
6.66856
6.94837
7.19688
7.40652
7.57047
7.68312
7.74047
0.454553
0.457811
0.464344
0.474196
0.487428
0.504123
0.524385
0.548344
0.57615
0.60798
0.644036
0.684549
0.729779
0.780016
0.835585
0.896846
0.964198
1.03808
1.11897
1.20739
1.30393
1.4092
1.52389
1.6487
1.78443
1.9319
2.09197
2.26554
2.45354
2.65686
2.87641
3.113
3.36731
3.63985
3.93081
4.24002
4.56675
4.90959
5.26625
5.63342
6.00655
6.3798
6.74597
7.09665
7.4225
7.7137
7.96063
8.1545
8.28808
8.35621
0.440323
0.443516
0.449921
0.459583
0.472563
0.488947
0.508842
0.53238
0.559716
0.591033
0.626539
0.666475
0.711111
0.76075
0.815734
0.876443
0.943298
1.01677
1.09737
1.18568
1.28231
1.38797
1.50339
1.6294
1.76689
1.91682
2.08019
2.25812
2.45172
2.66218
2.89068
3.13838
3.40634
3.6955
4.00651
4.33967
4.69471
5.07061
5.46537
5.87574
6.29695
6.7225
7.14404
7.55145
7.93314
8.27668
8.56967
8.80072
8.96039
9.04197
0.423942
0.427051
0.433291
0.442703
0.455353
0.471325
0.49073
0.513702
0.540398
0.571005
0.605737
0.644841
0.688595
0.737314
0.791351
0.851105
0.917017
0.989582
1.06935
1.15693
1.253
1.35831
1.47368
1.60002
1.73834
1.88972
2.05534
2.2365
2.43457
2.651
2.88732
3.14507
3.42579
3.73092
4.06173
4.41912
4.80349
5.21448
5.65061
6.10896
6.58476
7.07097
7.55802
8.03375
8.48373
8.89203
9.24248
9.52014
9.71262
9.81112
0.405449
0.408456
0.414489
0.423593
0.435831
0.45129
0.470081
0.492336
0.518217
0.547913
0.581639
0.619647
0.66222
0.709681
0.762394
0.820767
0.885262
0.956393
1.03474
1.12094
1.21572
1.31987
1.43431
1.56001
1.69808
1.84975
2.01636
2.19941
2.40051
2.62141
2.86402
3.13031
3.42236
3.74224
4.09193
4.47318
4.88729
5.33484
5.81527
6.32641
6.86384
7.4203
7.98503
8.54353
9.07771
9.56694
9.98982
10.3265
10.5606
10.6805
0.384897
0.387781
0.393569
0.402304
0.41405
0.428893
0.446942
0.468331
0.49322
0.521797
0.554281
0.590923
0.632008
0.677864
0.728859
0.785411
0.847992
0.917131
0.993425
1.07755
1.17025
1.27239
1.38491
1.50888
1.64551
1.79615
1.96229
2.14562
2.34801
2.57153
2.81845
3.09124
3.39257
3.72523
4.09207
4.49589
4.93919
5.42387
5.9508
6.51914
7.1255
7.76295
8.41989
9.07925
9.7183
10.3098
10.825
11.2371
11.5242
11.6716
0.362355
0.365097
0.3706
0.378907
0.390079
0.404202
0.421384
0.441755
0.465474
0.492727
0.52373
0.558731
0.598017
0.641913
0.69079
0.745066
0.80522
0.871788
0.945382
1.02669
1.11649
1.21567
1.32523
1.4463
1.58016
1.72828
1.89229
2.07405
2.27569
2.49956
2.74834
3.025
3.33283
3.67543
4.05666
4.48056
4.95114
5.47213
6.04641
6.67534
7.35758
8.08761
8.85387
9.63682
10.4079
11.1306
11.765
12.2741
12.6293
12.8116
0.337908
0.340489
0.345668
0.353487
0.364007
0.377309
0.393498
0.412702
0.435075
0.460797
0.490081
0.52317
0.560344
0.601924
0.648277
0.699818
0.757022
0.820428
0.890648
0.968379
1.05441
1.14966
1.25514
1.37204
1.5017
1.64567
1.8057
1.98382
2.18234
2.40393
2.65161
2.92886
3.23961
3.5883
3.97991
4.41988
4.91406
5.46845
6.08876
6.77962
7.54327
8.37748
9.27258
10.2077
11.1474
12.0413
12.8315
13.4665
13.9088
14.1352
0.311658
0.314058
0.318876
0.32615
0.33594
0.348322
0.363397
0.381287
0.402141
0.426132
0.453463
0.48437
0.519124
0.558037
0.601463
0.649809
0.703541
0.763187
0.829353
0.902731
0.984113
1.07441
1.17466
1.28606
1.41
1.54807
1.70212
1.87429
2.06707
2.28334
2.52648
2.8004
3.10964
3.45948
3.85602
4.30624
4.81803
5.40013
6.06184
6.8124
7.6597
8.60778
9.6526
10.7753
11.9339
13.0571
14.0546
14.853
15.4054
15.6868
0.28372
0.285921
0.290342
0.297017
0.306002
0.317369
0.331214
0.347651
0.366819
0.388884
0.414037
0.442502
0.474537
0.510437
0.550543
0.595244
0.644986
0.700282
0.761718
0.829966
0.905803
0.990121
1.08395
1.18849
1.30513
1.43547
1.58141
1.74517
1.92933
2.13695
2.37164
2.63769
2.94016
3.28507
3.67958
4.13217
4.65284
5.25335
5.94724
6.74965
7.67655
8.74255
9.95593
11.3084
12.7569
14.1997
15.4782
16.4867
17.1742
17.5209
0.254226
0.256212
0.260201
0.266226
0.274336
0.2846
0.297103
0.311954
0.32928
0.349235
0.371995
0.39777
0.426799
0.459358
0.495765
0.536387
0.581642
0.632014
0.688059
0.750418
0.81983
0.897155
0.983388
1.07969
1.18742
1.30817
1.44381
1.59657
1.76906
1.96443
2.18642
2.43955
2.72924
3.06208
3.44609
3.89103
4.40887
5.01427
5.72518
6.56348
7.55539
8.73103
10.1213
11.7466
13.5866
15.5079
17.1729
18.4426
19.285
19.7029
0.223321
0.225077
0.228604
0.23393
0.241101
0.250178
0.261239
0.27438
0.289719
0.307391
0.32756
0.350413
0.376169
0.405079
0.437432
0.473565
0.513862
0.558766
0.608792
0.664532
0.726675
0.796024
0.873512
0.960235
1.05748
1.16677
1.28991
1.42905
1.58676
1.76614
1.97093
2.20571
2.47605
2.78883
3.15257
3.57793
4.07828
4.67061
5.37668
6.22466
7.25146
8.50591
10.0524
11.9713
14.3361
17.0733
19.2637
20.8268
21.8213
22.3037
0.191164
0.192676
0.195712
0.200298
0.206472
0.214288
0.223814
0.235135
0.248352
0.263588
0.280984
0.300705
0.322944
0.347922
0.375897
0.407166
0.442069
0.481003
0.524426
0.572871
0.626955
0.687403
0.755062
0.830929
0.916183
1.01222
1.12072
1.24368
1.38352
1.54317
1.72622
1.93708
2.1812
2.4654
2.79825
3.19063
3.65652
4.21404
4.88711
5.70786
6.72073
7.9896
9.61203
11.7508
14.714
19.1863
21.9829
23.7806
24.8705
25.3878
0.157925
0.159181
0.161704
0.165511
0.170637
0.177126
0.185036
0.194439
0.205421
0.218083
0.232545
0.248948
0.267455
0.288253
0.311561
0.337631
0.366754
0.399268
0.435567
0.476105
0.521417
0.572126
0.628968
0.692811
0.764683
0.845814
0.937677
1.04205
1.16109
1.29744
1.45435
1.63583
1.84693
2.09399
2.38506
2.73052
3.14382
3.64263
4.25056
4.99967
5.93471
7.12046
8.65604
10.7067
13.5837
17.9756
20.7018
22.4428
23.4931
23.99
0.123785
0.124775
0.126764
0.129763
0.133798
0.138905
0.145131
0.152533
0.16118
0.171153
0.182547
0.195475
0.210067
0.226473
0.244868
0.265454
0.288466
0.314175
0.342899
0.375006
0.410929
0.451174
0.496339
0.547135
0.604405
0.669161
0.742619
0.826257
0.921874
1.03168
1.15843
1.30552
1.47726
1.67911
1.91806
2.20315
2.54617
2.96269
3.47341
4.10614
4.8986
5.90207
7.1856
8.8368
10.9392
13.4311
15.4064
16.7964
17.6697
18.0898
0.088931
0.0896456
0.0910888
0.0932531
0.0961618
0.0998429
0.10433
0.109666
0.1159
0.123091
0.131309
0.140636
0.151166
0.16301
0.176294
0.191168
0.207802
0.226396
0.247182
0.270432
0.296464
0.325652
0.358438
0.395349
0.437012
0.484181
0.537765
0.598872
0.668858
0.749394
0.84256
0.950961
1.07789
1.22755
1.40534
1.61827
1.87548
2.189
2.57468
3.05334
3.65193
4.40408
5.34794
6.51621
7.90549
9.40383
10.6968
11.6671
12.3
12.6101
0.0535606
0.0539785
0.0548518
0.0561594
0.0579156
0.0601376
0.0628463
0.0660671
0.0698304
0.0741722
0.079135
0.0847682
0.0911296
0.098286
0.106315
0.115308
0.125367
0.136617
0.149197
0.163275
0.179046
0.196738
0.216623
0.239026
0.264332
0.293007
0.325614
0.362839
0.405524
0.454711
0.511699
0.578121
0.656045
0.748118
0.857748
0.989361
1.14873
1.34341
1.58325
1.88087
2.25198
2.71463
3.28616
3.97489
4.76303
5.58215
6.31026
6.87555
7.25325
7.44084
0.0178857
0.0180167
0.0183061
0.018743
0.0193301
0.0200729
0.0209785
0.0220552
0.0233134
0.0247652
0.0264246
0.0283084
0.030436
0.0328298
0.0355158
0.0385245
0.0418909
0.0456561
0.0498677
0.0545817
0.0598636
0.0657909
0.0724553
0.0799658
0.088453
0.0980742
0.10902
0.121523
0.135868
0.152411
0.171592
0.193967
0.220242
0.251321
0.288368
0.332895
0.386875
0.452876
0.534225
0.635133
0.760699
0.916516
1.10739
1.33439
1.5898
1.85171
2.08673
2.2718
2.39686
2.45938
)
;

boundaryField
{
    walls
    {
        type            calculated;
        value           nonuniform List<scalar> 
200
(
0
0
0
0
0
0
0
0
0
0
0
0
0
0
0
0
0
0
0
0
0
0
0
0
0
0
0
0
0
0
0
0
0
0
0
0
0
0
0
0
0
0
0
0
0
0
0
0
0
0
0.0132523
0.0397004
0.0660582
0.0922932
0.11832
0.144077
0.169501
0.194529
0.219094
0.243127
0.266557
0.28931
0.311312
0.332484
0.352744
0.372012
0.390202
0.407227
0.423002
0.437437
0.450446
0.46194
0.471833
0.480042
0.486485
0.491086
0.493774
0.494482
0.493153
0.489736
0.484191
0.476489
0.466612
0.454553
0.440323
0.423942
0.405449
0.384897
0.362355
0.337908
0.311658
0.28372
0.254226
0.223321
0.191164
0.157925
0.123785
0.088931
0.0535606
0.0178857
0.0642539
0.192962
0.322295
0.452692
0.584584
0.718407
0.85461
0.993653
1.13601
1.28218
1.43267
1.58804
1.74885
1.91571
2.08927
2.27025
2.45939
2.65754
2.8656
3.08458
3.31561
3.55994
3.81899
4.09438
4.38794
4.70179
5.0384
5.40064
5.7919
6.21618
6.6783
7.18405
7.74047
8.35621
9.04197
9.81112
10.6805
11.6716
12.8116
14.1352
15.6868
17.5209
19.7029
22.3037
25.3878
23.99
18.0898
12.6101
7.44084
2.45938
0
0
0
0
0
0
0
0
0
0
0
0
0
0
0
0
0
0
0
0
0
0
0
0
0
0
0
0
0
0
0
0
0
0
0
0
0
0
0
0
0
0
0
0
0
0
0
0
0
0
)
;
    }
    frontAndBack
    {
        type            empty;
    }
}


// ************************************************************************* //
