/*--------------------------------*- C++ -*----------------------------------*\
| =========                 |                                                 |
| \\      /  F ield         | OpenFOAM: The Open Source CFD Toolbox           |
|  \\    /   O peration     | Version:  2406                                  |
|   \\  /    A nd           | Website:  www.openfoam.com                      |
|    \\/     M anipulation  |                                                 |
\*---------------------------------------------------------------------------*/
FoamFile
{
    version     2.0;
    format      ascii;
    arch        "LSB;label=32;scalar=64";
    class       volScalarField;
    location    "2.2";
    object      gradTx;
}
// * * * * * * * * * * * * * * * * * * * * * * * * * * * * * * * * * * * * * //

dimensions      [0 -1 0 1 0 0 0];

internalField   nonuniform List<scalar> 
2500
(
0.0132523
0.0397004
0.0660582
0.0922932
0.11832
0.144077
0.169501
0.194529
0.219094
0.243127
0.266557
0.28931
0.311312
0.332484
0.352744
0.372012
0.390202
0.407227
0.423002
0.437437
0.450446
0.46194
0.471833
0.480042
0.486485
0.491086
0.493774
0.494482
0.493153
0.489736
0.484191
0.476489
0.466612
0.454553
0.440323
0.423942
0.405449
0.384897
0.362355
0.337908
0.311658
0.28372
0.254226
0.223321
0.191164
0.157925
0.123785
0.088931
0.0535606
0.0178857
0.0133188
0.0399033
0.0663985
0.0927689
0.118931
0.144824
0.170386
0.19555
0.220251
0.244421
0.267987
0.290877
0.313014
0.334319
0.354713
0.374112
0.39243
0.409582
0.425479
0.440032
0.453153
0.464754
0.474747
0.483048
0.489574
0.494249
0.496998
0.497756
0.496463
0.493069
0.487531
0.479819
0.469914
0.457811
0.443516
0.427051
0.408456
0.387781
0.365097
0.340489
0.314058
0.285921
0.256212
0.225077
0.192676
0.159181
0.124775
0.0896456
0.0539785
0.0180167
0.0134552
0.0403115
0.0670779
0.0937198
0.120154
0.14632
0.172154
0.197592
0.222567
0.247009
0.270849
0.29401
0.316418
0.337993
0.358653
0.378314
0.396891
0.414295
0.430437
0.445227
0.458574
0.47039
0.480584
0.489069
0.495763
0.500585
0.50346
0.504319
0.5031
0.49975
0.494227
0.486496
0.476538
0.464344
0.449921
0.433291
0.414489
0.393569
0.3706
0.345668
0.318876
0.290342
0.260201
0.228604
0.195712
0.161704
0.126764
0.0910888
0.0548518
0.0183061
0.0136591
0.0409229
0.0680967
0.0951467
0.12199
0.148565
0.174808
0.200657
0.226042
0.250895
0.275145
0.298716
0.321531
0.343511
0.364571
0.384628
0.403593
0.421377
0.437889
0.453036
0.466726
0.478865
0.489363
0.49813
0.505077
0.510123
0.513188
0.5142
0.513095
0.509816
0.504316
0.49656
0.486523
0.474196
0.459583
0.442703
0.423593
0.402304
0.378907
0.353487
0.32615
0.297017
0.266226
0.23393
0.200298
0.165511
0.129763
0.0932531
0.0561594
0.018743
0.0139309
0.0417381
0.0694556
0.09705
0.124438
0.151559
0.17835
0.204746
0.23068
0.256083
0.280881
0.304999
0.328359
0.35088
0.372478
0.393064
0.412551
0.430845
0.447854
0.463481
0.477631
0.490207
0.501115
0.51026
0.517551
0.5229
0.526224
0.527447
0.526499
0.523318
0.517855
0.510067
0.49993
0.487428
0.472563
0.455353
0.435831
0.41405
0.390079
0.364007
0.33594
0.306002
0.274336
0.241101
0.206472
0.170637
0.133798
0.0961618
0.0579156
0.0193301
0.0142707
0.0427575
0.0711551
0.0994306
0.127501
0.155306
0.182782
0.209864
0.236485
0.262575
0.288061
0.312866
0.33691
0.360112
0.382384
0.403638
0.423781
0.442719
0.460354
0.476587
0.491319
0.504449
0.515877
0.525503
0.533231
0.538968
0.542625
0.54412
0.543376
0.540326
0.534915
0.527097
0.516838
0.504123
0.488947
0.471325
0.45129
0.428893
0.404202
0.377309
0.348322
0.317369
0.2846
0.250178
0.214288
0.177126
0.138905
0.0998429
0.0601376
0.0200729
0.0146787
0.0439815
0.0731957
0.102289
0.13118
0.159806
0.188105
0.216013
0.243461
0.270379
0.296693
0.322325
0.347195
0.371218
0.394306
0.416366
0.437304
0.457022
0.475417
0.492388
0.507829
0.521633
0.533696
0.543912
0.552178
0.558393
0.562462
0.564294
0.563808
0.560928
0.555591
0.547744
0.537351
0.524385
0.508842
0.49073
0.470081
0.446942
0.421384
0.393498
0.363397
0.331214
0.297103
0.261239
0.223814
0.185036
0.145131
0.10433
0.0628463
0.0209785
0.015155
0.0454103
0.075578
0.105627
0.135475
0.165061
0.194322
0.223195
0.251611
0.279499
0.306784
0.333387
0.359226
0.384214
0.40826
0.431271
0.453146
0.473784
0.493078
0.510922
0.527203
0.54181
0.55463
0.56555
0.574459
0.58125
0.585817
0.588062
0.587893
0.585228
0.579993
0.572129
0.56159
0.548344
0.53238
0.513702
0.492336
0.468331
0.441755
0.412702
0.381287
0.347651
0.311954
0.27438
0.235135
0.194439
0.152533
0.109666
0.0660671
0.0220552
0.0156996
0.0470441
0.0783022
0.109444
0.140387
0.171072
0.201436
0.231415
0.260941
0.289941
0.318341
0.34606
0.373013
0.399113
0.424266
0.448373
0.471332
0.493036
0.513375
0.532233
0.549493
0.565036
0.578742
0.590489
0.600158
0.607629
0.612789
0.61553
0.615748
0.61335
0.608254
0.60039
0.589701
0.57615
0.559716
0.540398
0.518217
0.49322
0.465474
0.435075
0.402141
0.366819
0.32928
0.289719
0.248352
0.205421
0.16118
0.1159
0.0698304
0.0233134
0.0163124
0.0488829
0.0813686
0.113741
0.145918
0.177841
0.209448
0.240675
0.271454
0.301711
0.331372
0.360354
0.388572
0.415934
0.442343
0.467699
0.491894
0.514815
0.536347
0.556369
0.574754
0.591377
0.606107
0.618813
0.629364
0.637633
0.643492
0.64682
0.647504
0.645438
0.640526
0.632688
0.621855
0.60798
0.591033
0.571005
0.547913
0.521797
0.492727
0.460797
0.426132
0.388884
0.349235
0.307391
0.263588
0.218083
0.171153
0.123091
0.0741722
0.0247652
0.0169936
0.0509266
0.0847769
0.118517
0.152067
0.185368
0.21836
0.250978
0.283153
0.314815
0.345884
0.37628
0.405914
0.434691
0.462513
0.489274
0.514862
0.539159
0.562042
0.583383
0.603049
0.620902
0.636803
0.650611
0.662182
0.671374
0.678049
0.682072
0.683313
0.681654
0.676984
0.669208
0.658246
0.644036
0.626539
0.605737
0.581639
0.554281
0.52373
0.490081
0.453463
0.414037
0.371995
0.32756
0.280984
0.232545
0.182547
0.131309
0.079135
0.0264246
0.0177428
0.0531748
0.0885265
0.123773
0.158834
0.193653
0.228171
0.262323
0.296042
0.329255
0.361885
0.393846
0.425051
0.455402
0.484796
0.513124
0.540268
0.566105
0.590505
0.613331
0.634441
0.653688
0.67092
0.685983
0.698722
0.708979
0.716601
0.721437
0.723342
0.722178
0.717821
0.710157
0.699092
0.684549
0.666475
0.644841
0.619647
0.590923
0.558731
0.52317
0.48437
0.442502
0.39777
0.350413
0.300705
0.248948
0.195475
0.140636
0.0847682
0.0283084
0.0185599
0.0556267
0.0926162
0.129506
0.166217
0.202695
0.238881
0.274712
0.310121
0.345035
0.379377
0.413061
0.445995
0.478082
0.509213
0.539275
0.568146
0.595696
0.621786
0.646272
0.669001
0.689815
0.70855
0.725037
0.739106
0.750585
0.759301
0.765085
0.767775
0.767213
0.763255
0.75577
0.744642
0.729779
0.711111
0.688595
0.66222
0.632008
0.598017
0.560344
0.519124
0.474537
0.426799
0.376169
0.322944
0.267455
0.210067
0.151166
0.0911296
0.030436
0.0194445
0.0582811
0.0970441
0.135714
0.174213
0.21249
0.250486
0.288141
0.325388
0.362155
0.398364
0.433928
0.468755
0.502742
0.535781
0.567752
0.598527
0.627969
0.655934
0.682265
0.706799
0.729367
0.74979
0.767885
0.783464
0.796337
0.806312
0.8132
0.816816
0.816981
0.813528
0.806303
0.795171
0.780016
0.76075
0.737314
0.709681
0.677864
0.641913
0.601924
0.558037
0.510437
0.459358
0.405079
0.347922
0.288253
0.226473
0.16301
0.098286
0.0328298
0.0203959
0.0611362
0.101807
0.142393
0.182818
0.223033
0.262982
0.302607
0.341841
0.380613
0.418845
0.456451
0.493336
0.529395
0.564516
0.598575
0.63144
0.662964
0.692996
0.721369
0.747909
0.772431
0.794744
0.814647
0.831934
0.846393
0.857813
0.86598
0.870685
0.871724
0.868904
0.862045
0.850985
0.835585
0.815734
0.791351
0.762394
0.728859
0.69079
0.648277
0.601463
0.550543
0.495765
0.437432
0.375897
0.311561
0.244868
0.176294
0.106315
0.0355158
0.0214133
0.0641897
0.106902
0.149538
0.192026
0.234318
0.276362
0.318101
0.359471
0.400403
0.440817
0.480628
0.519739
0.558046
0.59543
0.631765
0.666911
0.700716
0.733019
0.763642
0.7924
0.819094
0.843516
0.865445
0.884657
0.900918
0.913991
0.923637
0.929619
0.931704
0.92967
0.923306
0.912421
0.896846
0.876443
0.851105
0.820767
0.785411
0.745066
0.699818
0.649809
0.595244
0.536387
0.473565
0.407166
0.337631
0.265454
0.191168
0.115308
0.0385245
0.0224957
0.0674386
0.112324
0.157143
0.201828
0.246335
0.290615
0.334613
0.378269
0.421514
0.46427
0.506452
0.547963
0.588695
0.628529
0.667333
0.704961
0.741256
0.776044
0.80914
0.840344
0.869443
0.896209
0.920405
0.941783
0.960083
0.975044
0.986396
0.993872
0.997206
0.996141
0.990432
0.979852
0.964198
0.943298
0.917017
0.885262
0.847992
0.80522
0.757022
0.703541
0.644986
0.581642
0.513862
0.442069
0.366754
0.288466
0.207802
0.125367
0.0418909
0.0236419
0.0708789
0.118065
0.165198
0.212214
0.259072
0.305727
0.352129
0.398219
0.443932
0.489191
0.533912
0.577998
0.621339
0.663814
0.705286
0.745606
0.784607
0.822108
0.857913
0.891806
0.923559
0.952928
0.979652
1.00346
1.02407
1.04118
1.0545
1.06371
1.06853
1.06865
1.06379
1.05368
1.03808
1.01677
0.989582
0.956393
0.917131
0.871788
0.820428
0.763187
0.700282
0.632014
0.558766
0.481003
0.399268
0.314175
0.226396
0.136617
0.0456561
0.0248501
0.0745059
0.124119
0.173694
0.223169
0.272512
0.32168
0.370628
0.419301
0.467636
0.51556
0.562989
0.609827
0.655964
0.701276
0.745624
0.788852
0.830788
0.87124
0.910002
0.946844
0.981522
1.01377
1.04331
1.06984
1.09305
1.11261
1.12818
1.13943
1.14601
1.14757
1.14379
1.13436
1.11897
1.09737
1.06935
1.03474
0.993425
0.945382
0.890648
0.829353
0.761718
0.688059
0.608792
0.524426
0.435567
0.342899
0.247182
0.149197
0.0498677
0.0261185
0.0783137
0.130476
0.182616
0.234678
0.286635
0.338452
0.390086
0.441488
0.492599
0.543349
0.593657
0.643426
0.692549
0.740899
0.788334
0.834696
0.879803
0.923458
0.965441
1.00551
1.0434
1.07883
1.1115
1.14107
1.16721
1.18954
1.20771
1.22131
1.22997
1.23328
1.23086
1.22235
1.20739
1.18568
1.15693
1.12094
1.07755
1.02669
0.968379
0.902731
0.829966
0.750418
0.664532
0.572871
0.476105
0.375006
0.270432
0.163275
0.0545817
0.0274447
0.0822952
0.137124
0.191948
0.24672
0.301419
0.356015
0.410472
0.464748
0.518786
0.572523
0.625878
0.67876
0.731061
0.782654
0.833395
0.883122
0.931649
0.978769
1.02425
1.06784
1.10926
1.14819
1.18433
1.21729
1.24672
1.27221
1.29334
1.30967
1.32077
1.32619
1.32547
1.31819
1.30393
1.28231
1.253
1.21572
1.17025
1.11649
1.05441
0.984113
0.905803
0.81983
0.726675
0.626955
0.521417
0.410929
0.296464
0.179046
0.0598636
0.0288258
0.0864423
0.144049
0.201672
0.259272
0.316833
0.374336
0.43175
0.489039
0.546155
0.603036
0.659609
0.715784
0.771456
0.8265
0.88077
0.934101
0.986303
1.03716
1.08644
1.13386
1.17913
1.22193
1.26189
1.29864
1.33176
1.36081
1.38533
1.40482
1.41879
1.42673
1.42811
1.42243
1.4092
1.38797
1.35831
1.31987
1.27239
1.21567
1.14966
1.07441
0.990121
0.897155
0.796024
0.687403
0.572126
0.451174
0.325652
0.196738
0.0657909
0.0302588
0.0907452
0.151235
0.211766
0.272304
0.332845
0.393375
0.453875
0.514315
0.574652
0.634834
0.694791
0.75444
0.813677
0.872381
0.930407
0.987587
1.04373
1.09861
1.15198
1.20357
1.25305
1.30008
1.34428
1.38523
1.42249
1.45556
1.48394
1.50708
1.52441
1.53535
1.5393
1.53567
1.52389
1.50339
1.47368
1.43431
1.38491
1.32523
1.25514
1.17466
1.08395
0.983388
0.873512
0.755062
0.628968
0.496339
0.358438
0.216623
0.0724553
0.0317399
0.095193
0.158665
0.222203
0.285785
0.349414
0.413089
0.476796
0.540516
0.604216
0.667849
0.731355
0.794655
0.857651
0.920225
0.982235
1.04351
1.10387
1.16307
1.22086
1.27695
1.33101
1.38268
1.43154
1.47716
1.51903
1.55664
1.58942
1.61675
1.638
1.6525
1.65958
1.65854
1.6487
1.6294
1.60002
1.56001
1.50888
1.4463
1.37204
1.28606
1.18849
1.07969
0.960235
0.830929
0.692811
0.547135
0.395349
0.239026
0.0799658
0.0332649
0.0997732
0.166317
0.232956
0.299678
0.366497
0.433422
0.500453
0.567577
0.634774
0.702004
0.769217
0.836342
0.903287
0.969941
1.03616
1.10179
1.16663
1.23046
1.293
1.35396
1.413
1.46973
1.52372
1.57449
1.62152
1.66423
1.70199
1.73413
1.75995
1.77867
1.78953
1.79172
1.78443
1.76689
1.73834
1.69808
1.64551
1.58016
1.5017
1.41
1.30513
1.18742
1.05748
0.916183
0.764683
0.604405
0.437012
0.264332
0.088453
0.0348292
0.104471
0.174168
0.243991
0.313939
0.384041
0.454317
0.524776
0.595421
0.66624
0.737207
0.80828
0.879397
0.950478
1.02142
1.09208
1.16232
1.23192
1.30068
1.36831
1.43452
1.49895
1.56119
1.62081
1.67727
1.73003
1.77846
1.82187
1.85952
1.89062
1.91431
1.92971
1.93589
1.9319
1.91682
1.88972
1.84975
1.79615
1.72828
1.64567
1.54807
1.43547
1.30817
1.16677
1.01222
0.845814
0.669161
0.484181
0.293007
0.0980742
0.0364273
0.109272
0.182191
0.255271
0.328523
0.40199
0.475704
0.549689
0.62396
0.698519
0.773351
0.848428
0.9237
0.999096
1.07452
1.14986
1.22494
1.2996
1.3736
1.44667
1.51852
1.58876
1.657
1.72275
1.78549
1.84461
1.89943
1.94922
1.99316
2.03037
2.05989
2.08071
2.09177
2.09197
2.08019
2.05534
2.01636
1.96229
1.89229
1.8057
1.70212
1.58141
1.44381
1.28991
1.12072
0.937677
0.742619
0.537765
0.325614
0.10902
0.0380535
0.114157
0.190358
0.266755
0.343377
0.420279
0.497508
0.575104
0.653096
0.7315
0.810317
0.889531
0.969108
1.04899
1.1291
1.20932
1.2895
1.36949
1.44904
1.52792
1.60579
1.6823
1.75702
1.82947
1.89909
1.96523
2.02719
2.08416
2.13526
2.1795
2.21583
2.24311
2.2601
2.26554
2.25812
2.2365
2.19941
2.14562
2.07405
1.98382
1.87429
1.74517
1.59657
1.42905
1.24368
1.04205
0.826257
0.598872
0.362839
0.121523
0.0397015
0.119108
0.198635
0.278399
0.358443
0.438837
0.519646
0.600925
0.682719
0.765061
0.847968
0.931441
1.01546
1.09999
1.18496
1.27027
1.3558
1.44138
1.52681
1.61183
1.69614
1.77936
1.86109
1.94081
2.01794
2.09183
2.16172
2.22675
2.28595
2.33827
2.38253
2.41743
2.44159
2.45354
2.45172
2.43457
2.40051
2.34801
2.27569
2.18234
2.06707
1.92933
1.76906
1.58676
1.38352
1.16109
0.921874
0.668858
0.405524
0.135868
0.0413642
0.124104
0.20699
0.290154
0.373657
0.457587
0.542025
0.627044
0.712708
0.799065
0.886154
0.973993
1.06258
1.1519
1.2419
1.3325
1.4236
1.51504
1.60664
1.69816
1.7893
1.8797
1.96895
2.05653
2.14186
2.22426
2.30292
2.37695
2.44532
2.50687
2.5603
2.60417
2.63693
2.65686
2.66218
2.651
2.62141
2.57153
2.49956
2.40393
2.28334
2.13695
1.96443
1.76614
1.54317
1.29744
1.03168
0.749394
0.454711
0.152411
0.0430342
0.129123
0.215383
0.301967
0.388953
0.476446
0.564547
0.653347
0.742929
0.833364
0.924708
1.017
1.11027
1.2045
1.29968
1.39575
1.49263
1.59018
1.68825
1.7866
1.88496
1.983
2.08029
2.17634
2.27057
2.36226
2.4506
2.53465
2.61332
2.68536
2.74937
2.80374
2.84674
2.87641
2.89068
2.88732
2.86402
2.81845
2.74834
2.65161
2.52648
2.37164
2.18642
1.97093
1.72622
1.45435
1.15843
0.84256
0.511699
0.171592
0.0447035
0.13414
0.223775
0.313782
0.404256
0.495323
0.587103
0.679708
0.773241
0.867795
0.963448
1.06026
1.15829
1.25755
1.35804
1.45974
1.56258
1.66647
1.77127
1.87678
1.98275
2.08886
2.19472
2.29986
2.40367
2.50548
2.60444
2.69959
2.78979
2.87371
2.94983
3.01643
3.07155
3.113
3.13838
3.14507
3.13031
3.09124
3.025
2.92886
2.8004
2.63769
2.43955
2.20571
1.93708
1.63583
1.30552
0.950961
0.578121
0.193967
0.0463637
0.139129
0.232124
0.325539
0.41949
0.514123
0.609579
0.705992
0.803488
0.902182
1.00218
1.10356
1.20641
1.31078
1.41669
1.52414
1.63312
1.74354
1.85532
1.96828
2.08221
2.19682
2.31176
2.42657
2.54069
2.65344
2.764
2.87137
2.97439
3.07168
3.16163
3.24236
3.31174
3.36731
3.40634
3.42579
3.42236
3.39257
3.33283
3.23961
3.10964
2.94016
2.72924
2.47605
2.1812
1.84693
1.47726
1.07789
0.656045
0.220242
0.0480059
0.144065
0.240384
0.337174
0.434572
0.532744
0.631854
0.732059
0.833507
0.936339
1.04068
1.14666
1.25437
1.36389
1.47529
1.58861
1.70384
1.82098
1.93994
2.06061
2.18283
2.30634
2.43083
2.5559
2.68102
2.80553
2.92866
3.04941
3.16661
3.27885
3.38446
3.48144
3.56746
3.63985
3.6955
3.73092
3.74224
3.72523
3.67543
3.5883
3.45948
3.28507
3.06208
2.78883
2.4654
2.09399
1.67911
1.22755
0.748118
0.251321
0.0496208
0.14892
0.248509
0.348623
0.449417
0.551081
0.653801
0.757757
0.863124
0.970068
1.07875
1.18931
1.30188
1.41658
1.53352
1.65275
1.77435
1.89831
2.02463
2.15324
2.28402
2.41678
2.55126
2.68712
2.82389
2.96098
3.09764
3.23293
3.36571
3.49456
3.61776
3.73326
3.83859
3.93081
4.00651
4.06173
4.09193
4.09207
4.05666
3.97991
3.85602
3.67958
3.44609
3.15257
2.79825
2.38506
1.91806
1.40534
0.857748
0.288368
0.0511989
0.153664
0.256451
0.359816
0.463936
0.569023
0.675287
0.782933
0.89216
1.00316
1.11613
1.23123
1.34864
1.46851
1.59098
1.71617
1.84417
1.97505
2.10885
2.24556
2.38512
2.52742
2.67227
2.8194
2.96843
3.11884
3.26996
3.42093
3.57068
3.71781
3.86065
3.9971
4.12459
4.24002
4.33967
4.41912
4.47318
4.49589
4.48056
4.41988
4.30624
4.13217
3.89103
3.57793
3.19063
2.73052
2.20315
1.61827
0.989361
0.332895
0.0527304
0.158269
0.264161
0.370684
0.478039
0.586459
0.696177
0.807425
0.920427
1.03541
1.15258
1.27216
1.39435
1.51934
1.64731
1.77842
1.91283
2.05065
2.19198
2.33689
2.48539
2.63746
2.79298
2.95178
3.11358
3.27798
3.44442
3.61216
3.78021
3.94731
4.11183
4.27173
4.42444
4.56675
4.69471
4.80349
4.88729
4.93919
4.95114
4.91406
4.81803
4.65284
4.40887
4.07828
3.65652
3.14382
2.54617
1.87548
1.14873
0.386875
0.0542056
0.162705
0.271589
0.381158
0.491633
0.603272
0.716333
0.83107
0.947736
1.06658
1.18786
1.31181
1.43868
1.56869
1.70207
1.83904
1.9798
2.12453
2.27339
2.42653
2.58405
2.74601
2.9124
3.08318
3.25817
3.43712
3.61962
3.80508
3.99268
4.18132
4.36955
4.55544
4.73651
4.90959
5.07061
5.21448
5.33484
5.42387
5.47213
5.46845
5.40013
5.25335
5.01427
4.67061
4.21404
3.64263
2.96269
2.189
1.34341
0.452876
0.0556144
0.166941
0.278684
0.391165
0.504627
0.61935
0.735615
0.853703
0.973894
1.09647
1.22171
1.34989
1.48129
1.61619
1.75485
1.89755
2.04455
2.19608
2.3524
2.51372
2.68023
2.85211
3.02947
3.21239
3.40085
3.59476
3.7939
3.99788
4.20612
4.41774
4.63154
4.84586
5.05843
5.26625
5.46537
5.65061
5.81527
5.9508
6.04641
6.08876
6.06184
5.94724
5.72518
5.37668
4.88711
4.25056
3.47341
2.57468
1.58325
0.534225
0.0569473
0.17095
0.285399
0.400637
0.516929
0.634577
0.753885
0.87516
0.998708
1.12484
1.25387
1.3861
1.52186
1.66146
1.80522
1.95347
2.10652
2.26469
2.42829
2.59764
2.77304
2.95475
3.14303
3.33811
3.54015
3.74924
3.9654
4.18848
4.41819
4.65398
4.89499
5.13993
5.38694
5.63342
5.87574
6.10896
6.32641
6.51914
6.67534
6.77962
6.8124
6.74965
6.56348
6.22466
5.70786
4.99967
4.10614
3.05334
1.88087
0.635133
0.0581945
0.174701
0.291683
0.409504
0.528449
0.648841
0.771008
0.895279
1.02199
1.15148
1.28408
1.42015
1.56005
1.70412
1.85275
2.0063
2.16515
2.32971
2.50035
2.67749
2.86151
3.05284
3.25186
3.45895
3.67448
3.89876
4.13205
4.37452
4.62623
4.88701
5.15647
5.43385
5.71787
6.00655
6.29695
6.58476
6.86384
7.1255
7.35758
7.54327
7.6597
7.67655
7.55539
7.25146
6.72073
5.93471
4.8986
3.65193
2.25198
0.760699
0.059347
0.178167
0.297491
0.417701
0.5391
0.662034
0.786851
0.913904
1.04355
1.17616
1.3121
1.45176
1.59553
1.7438
1.897
2.05555
2.2199
2.3905
2.56784
2.7524
2.94471
3.14529
3.35468
3.57345
3.80216
4.04136
4.29162
4.55343
4.82724
5.11339
5.41204
5.72308
6.04603
6.3798
6.7225
7.07097
7.4203
7.76295
8.08761
8.37748
8.60778
8.74255
8.73103
8.50591
7.9896
7.12046
5.90207
4.40408
2.71463
0.916516
0.0603961
0.181323
0.302779
0.425164
0.548801
0.674053
0.801289
0.930885
1.06322
1.19869
1.3377
1.48065
1.62798
1.78013
1.93755
2.10074
2.27019
2.44644
2.63003
2.82157
3.02167
3.23099
3.45023
3.68012
3.92146
4.17505
4.44175
4.72244
5.018
5.32933
5.65722
6.00237
6.36525
6.74597
7.14404
7.55802
7.98503
8.41989
8.85387
9.27258
9.6526
9.95593
10.1213
10.0524
9.61203
8.65604
7.1856
5.34794
3.28616
1.10739
0.0613336
0.184143
0.307505
0.431836
0.557474
0.684801
0.814205
0.946081
1.08083
1.21888
1.36064
1.50657
1.65711
1.81277
1.97403
2.14142
2.31552
2.49692
2.68624
2.88418
3.09145
3.30885
3.53722
3.77748
4.03063
4.29775
4.58001
4.87868
5.19511
5.53076
5.88716
6.2659
6.66856
7.09665
7.55145
8.03375
8.54353
9.07925
9.63682
10.2077
10.7753
11.3084
11.7466
11.9713
11.7508
10.7067
8.8368
6.51621
3.97489
1.33439
0.0621523
0.186606
0.311632
0.437662
0.565049
0.694191
0.825492
0.959365
1.09623
1.23653
1.38072
1.52926
1.68265
1.84139
2.00604
2.17717
2.35539
2.54137
2.7358
2.93945
3.15316
3.37782
3.61444
3.86409
4.12799
4.40748
4.70402
5.01928
5.35509
5.7135
6.09679
6.50748
6.94837
7.4225
7.93314
8.48373
9.07771
9.7183
10.4079
11.1474
11.9339
12.7569
13.5866
14.3361
14.714
13.5837
10.9392
7.90549
4.76303
1.5898
0.0628457
0.188691
0.315127
0.442595
0.571464
0.702143
0.835052
0.97062
1.10929
1.25151
1.39776
1.54852
1.70433
1.86572
2.03327
2.2076
2.38936
2.57927
2.77811
2.9867
3.20598
3.43695
3.68074
3.9386
4.21193
4.50229
4.81147
5.14148
5.4946
5.87346
6.28106
6.72087
7.19688
7.7137
8.27668
8.89203
9.56694
10.3098
11.1306
12.0413
13.0571
14.1997
15.5079
17.0733
19.1863
17.9756
13.4311
9.40383
5.58215
1.85171
0.0634084
0.190384
0.317961
0.446595
0.576664
0.70859
0.842805
0.979749
1.11988
1.26366
1.41159
1.56417
1.72195
1.8855
2.05542
2.23236
2.41703
2.61018
2.81264
3.0253
3.24918
3.48538
3.73512
3.99981
4.281
4.58047
4.90026
5.2427
5.61049
6.00676
6.43518
6.90007
7.40652
7.96063
8.56967
9.24248
9.98982
10.825
11.765
12.8315
14.0546
15.4782
17.1729
19.2637
21.9829
20.7018
15.4064
10.6968
6.31026
2.08673
0.063836
0.191671
0.320114
0.449628
0.580606
0.713477
0.848681
0.986669
1.12791
1.27288
1.42208
1.57604
1.73533
1.90052
2.07225
2.25119
2.43808
2.63371
2.83894
3.05473
3.28215
3.52236
3.77671
4.04667
4.33396
4.64051
4.96857
5.32073
5.70002
6.11001
6.55489
7.03971
7.57047
8.1545
8.80072
9.52014
10.3265
11.2371
12.2741
13.4665
14.853
16.4867
18.4426
20.8268
23.7806
22.4428
16.7964
11.6671
6.87555
2.2718
0.0641229
0.192542
0.321569
0.451668
0.583254
0.716759
0.852628
0.991318
1.1333
1.27907
1.42913
1.58403
1.74432
1.91063
2.08358
2.26387
2.45226
2.64956
2.85667
3.07459
3.3044
3.54735
3.80482
4.07838
4.36983
4.68122
5.01495
5.37379
5.76101
6.18046
6.63675
7.1354
7.68312
8.28808
8.96039
9.71262
10.5606
11.5242
12.6293
13.9088
15.4054
17.1742
19.285
21.8213
24.8705
23.4931
17.6697
12.3
7.25325
2.39686
0.0642539
0.192962
0.322295
0.452692
0.584584
0.718407
0.85461
0.993653
1.13601
1.28218
1.43267
1.58804
1.74885
1.91571
2.08927
2.27025
2.45939
2.65754
2.8656
3.08458
3.31561
3.55994
3.81899
4.09438
4.38794
4.70179
5.0384
5.40064
5.7919
6.21618
6.6783
7.18405
7.74047
8.35621
9.04197
9.81112
10.6805
11.6716
12.8116
14.1352
15.6868
17.5209
19.7029
22.3037
25.3878
23.99
18.0898
12.6101
7.44084
2.45938
)
;

boundaryField
{
    walls
    {
        type            calculated;
        value           nonuniform List<scalar> 
200
(
0.0642539
0.192962
0.322295
0.452692
0.584584
0.718407
0.85461
0.993653
1.13601
1.28218
1.43267
1.58804
1.74885
1.91571
2.08927
2.27025
2.45939
2.65754
2.8656
3.08458
3.31561
3.55994
3.81899
4.09438
4.38794
4.70179
5.0384
5.40064
5.7919
6.21618
6.6783
7.18405
7.74047
8.35621
9.04197
9.81112
10.6805
11.6716
12.8116
14.1352
15.6868
17.5209
19.7029
22.3037
25.3878
23.99
18.0898
12.6101
7.44084
2.45938
0
0
0
0
0
0
0
0
0
0
0
0
0
0
0
0
0
0
0
0
0
0
0
0
0
0
0
0
0
0
0
0
0
0
0
0
0
0
0
0
0
0
0
0
0
0
0
0
0
0
0
0
0
0
0
0
0
0
0
0
0
0
0
0
0
0
0
0
0
0
0
0
0
0
0
0
0
0
0
0
0
0
0
0
0
0
0
0
0
0
0
0
0
0
0
0
0
0
0
0
0.0132523
0.0397004
0.0660582
0.0922932
0.11832
0.144077
0.169501
0.194529
0.219094
0.243127
0.266557
0.28931
0.311312
0.332484
0.352744
0.372012
0.390202
0.407227
0.423002
0.437437
0.450446
0.46194
0.471833
0.480042
0.486485
0.491086
0.493774
0.494482
0.493153
0.489736
0.484191
0.476489
0.466612
0.454553
0.440323
0.423942
0.405449
0.384897
0.362355
0.337908
0.311658
0.28372
0.254226
0.223321
0.191164
0.157925
0.123785
0.088931
0.0535606
0.0178857
)
;
    }
    frontAndBack
    {
        type            empty;
    }
}


// ************************************************************************* //
