/*--------------------------------*- C++ -*----------------------------------*\
| =========                 |                                                 |
| \\      /  F ield         | OpenFOAM: The Open Source CFD Toolbox           |
|  \\    /   O peration     | Version:  2406                                  |
|   \\  /    A nd           | Website:  www.openfoam.com                      |
|    \\/     M anipulation  |                                                 |
\*---------------------------------------------------------------------------*/
FoamFile
{
    version     2.0;
    format      ascii;
    arch        "LSB;label=32;scalar=64";
    class       volScalarField;
    location    "2.2";
    object      T;
}
// * * * * * * * * * * * * * * * * * * * * * * * * * * * * * * * * * * * * * //

dimensions      [0 0 0 1 0 0 0];

internalField   nonuniform List<scalar> 
2500
(
0.356965
0.357495
0.358553
0.360137
0.362244
0.36487
0.368007
0.37165
0.375789
0.380414
0.385514
0.391076
0.397086
0.403528
0.410385
0.417638
0.425266
0.433246
0.441555
0.450166
0.459052
0.468184
0.47753
0.487057
0.496732
0.506517
0.516375
0.526268
0.536154
0.545994
0.555744
0.565362
0.574803
0.584026
0.592986
0.601639
0.609943
0.617857
0.625339
0.632351
0.638855
0.644817
0.650204
0.654986
0.659137
0.662633
0.665454
0.667584
0.669011
0.669727
0.357495
0.358027
0.359091
0.360683
0.362802
0.365441
0.368595
0.372256
0.376417
0.381066
0.386193
0.391786
0.397828
0.404306
0.411201
0.418495
0.426166
0.434192
0.442549
0.451211
0.46015
0.469337
0.47874
0.488327
0.498062
0.50791
0.517832
0.52779
0.537743
0.547648
0.557465
0.56715
0.576658
0.585946
0.59497
0.603687
0.612052
0.620025
0.627564
0.634629
0.641183
0.647191
0.65262
0.65744
0.661623
0.665147
0.66799
0.670138
0.671576
0.672297
0.358553
0.359091
0.360165
0.361774
0.363914
0.36658
0.369767
0.373466
0.37767
0.382369
0.387551
0.393203
0.399311
0.40586
0.412831
0.420206
0.427963
0.436081
0.444535
0.453299
0.462344
0.471642
0.48116
0.490865
0.500723
0.510696
0.520746
0.530834
0.540919
0.550958
0.560909
0.570727
0.580369
0.589789
0.598942
0.607785
0.616274
0.624365
0.632017
0.639189
0.645844
0.651944
0.657457
0.662352
0.666601
0.670181
0.673069
0.675251
0.676713
0.677445
0.360137
0.360683
0.361774
0.363407
0.36558
0.368287
0.371522
0.375279
0.379549
0.384321
0.389584
0.395327
0.401533
0.408188
0.415274
0.422771
0.430659
0.438915
0.447514
0.45643
0.465635
0.475099
0.48479
0.494674
0.504715
0.514877
0.52512
0.535404
0.545688
0.555928
0.566081
0.576101
0.585943
0.595562
0.604911
0.613945
0.622619
0.630889
0.638711
0.646045
0.652851
0.659091
0.664731
0.66974
0.674088
0.677752
0.680709
0.682942
0.684439
0.685189
0.362244
0.362802
0.363914
0.36558
0.367796
0.370557
0.373858
0.377691
0.382048
0.386919
0.392291
0.398154
0.404491
0.411288
0.418527
0.426187
0.434249
0.442689
0.451483
0.460603
0.470022
0.479709
0.48963
0.499753
0.510041
0.520455
0.530957
0.541504
0.552055
0.562564
0.572988
0.583278
0.59339
0.603276
0.612887
0.622178
0.631101
0.639611
0.647663
0.655215
0.662224
0.668652
0.674464
0.679626
0.684108
0.687884
0.690933
0.693236
0.69478
0.695553
0.36487
0.365441
0.36658
0.368287
0.370557
0.373387
0.37677
0.380698
0.385164
0.390158
0.395667
0.40168
0.408182
0.415156
0.422586
0.430452
0.438732
0.447403
0.456441
0.465817
0.475504
0.48547
0.495682
0.506105
0.516702
0.527434
0.538261
0.549139
0.560026
0.570874
0.581639
0.592271
0.602723
0.612944
0.622887
0.632502
0.64174
0.650554
0.658896
0.666722
0.673989
0.680655
0.686683
0.692039
0.69669
0.70061
0.703775
0.706167
0.707769
0.708572
0.368007
0.368595
0.369767
0.371522
0.373858
0.37677
0.38025
0.384294
0.388891
0.394032
0.399706
0.4059
0.412599
0.419788
0.427448
0.43556
0.444103
0.453052
0.462383
0.472069
0.482079
0.492382
0.502944
0.51373
0.524701
0.535817
0.547036
0.558315
0.569608
0.580868
0.592045
0.603091
0.613955
0.624585
0.634931
0.644939
0.65456
0.663742
0.672437
0.680598
0.688177
0.695133
0.701426
0.707018
0.711875
0.71597
0.719277
0.721775
0.72345
0.724289
0.37165
0.372256
0.373466
0.375279
0.377691
0.380698
0.384294
0.388471
0.393222
0.398536
0.404402
0.410807
0.417737
0.425176
0.433106
0.441506
0.450356
0.459632
0.469308
0.479355
0.489745
0.500443
0.511417
0.522629
0.534039
0.545607
0.557289
0.56904
0.580811
0.592555
0.604221
0.615755
0.627106
0.638219
0.64904
0.659514
0.669588
0.679207
0.688321
0.696877
0.704829
0.712129
0.718735
0.724607
0.72971
0.734013
0.737488
0.740114
0.741874
0.742757
0.375789
0.376417
0.37767
0.379549
0.382048
0.385164
0.388891
0.393222
0.398148
0.403659
0.409745
0.416393
0.423588
0.431313
0.439552
0.448284
0.457487
0.467137
0.477209
0.487672
0.498498
0.509652
0.521099
0.532802
0.544719
0.556808
0.569024
0.58132
0.593645
0.60595
0.618179
0.63028
0.642195
0.653868
0.665241
0.676256
0.686857
0.696985
0.706586
0.715604
0.723989
0.73169
0.738661
0.744861
0.75025
0.754795
0.758467
0.761242
0.763103
0.764035
0.380414
0.381066
0.382369
0.384321
0.386919
0.390158
0.394032
0.398536
0.403659
0.409394
0.415728
0.422649
0.430142
0.438191
0.446779
0.455885
0.465487
0.475561
0.48608
0.497015
0.508335
0.520005
0.53199
0.544249
0.556742
0.569424
0.582247
0.595163
0.60812
0.621064
0.633938
0.646685
0.659245
0.671559
0.683564
0.6952
0.706405
0.717117
0.727277
0.736826
0.745708
0.753871
0.761264
0.76784
0.773559
0.778384
0.782283
0.78523
0.787206
0.788197
0.385514
0.386193
0.387551
0.389584
0.392291
0.395667
0.399706
0.404402
0.409745
0.415728
0.422338
0.429563
0.437389
0.4458
0.454777
0.4643
0.474348
0.484895
0.495914
0.507376
0.519249
0.531498
0.544085
0.55697
0.57011
0.583458
0.596965
0.61058
0.624248
0.637912
0.651514
0.664991
0.678282
0.691321
0.704044
0.716383
0.728273
0.739648
0.750444
0.760598
0.770048
0.778736
0.786609
0.793616
0.799711
0.804855
0.809013
0.812157
0.814266
0.815323
0.391076
0.391786
0.393203
0.395327
0.398154
0.40168
0.4059
0.410807
0.416393
0.422649
0.429563
0.437124
0.445317
0.454126
0.463533
0.473518
0.484058
0.495129
0.506702
0.518749
0.531235
0.544126
0.557383
0.570963
0.584822
0.598912
0.613181
0.627576
0.642039
0.65651
0.670926
0.685223
0.699332
0.713186
0.726714
0.739845
0.752508
0.764631
0.776145
0.78698
0.797072
0.806355
0.814772
0.822266
0.828788
0.834294
0.838746
0.842113
0.844372
0.845504
0.397086
0.397828
0.399311
0.401533
0.404491
0.408182
0.412599
0.417737
0.423588
0.430142
0.437389
0.445317
0.453911
0.463157
0.473035
0.483525
0.494606
0.506251
0.518434
0.531123
0.544284
0.557883
0.571877
0.586225
0.600879
0.615789
0.630902
0.646161
0.661505
0.676872
0.692194
0.707402
0.722425
0.737188
0.751616
0.765632
0.77916
0.792121
0.80444
0.816042
0.826854
0.836807
0.845835
0.853879
0.860882
0.866796
0.87158
0.875199
0.877627
0.878844
0.403528
0.404306
0.40586
0.408188
0.411288
0.415156
0.419788
0.425176
0.431313
0.438191
0.4458
0.454126
0.463157
0.472876
0.483266
0.494307
0.505976
0.518248
0.531095
0.544486
0.558386
0.572758
0.587561
0.602749
0.618276
0.634088
0.650129
0.66634
0.682657
0.699013
0.715337
0.731554
0.747589
0.763361
0.778789
0.793791
0.808282
0.822178
0.835397
0.847855
0.859474
0.870176
0.879891
0.888551
0.896094
0.902467
0.907624
0.911526
0.914145
0.915458
0.410385
0.411201
0.412831
0.415274
0.418527
0.422586
0.427448
0.433106
0.439552
0.446779
0.454777
0.463533
0.473035
0.483266
0.494211
0.505847
0.518154
0.531105
0.544672
0.558824
0.573527
0.588741
0.604424
0.620531
0.63701
0.653808
0.670866
0.68812
0.705505
0.722948
0.740374
0.757704
0.774856
0.791743
0.808279
0.824373
0.839933
0.854868
0.869087
0.8825
0.895019
0.906559
0.91704
0.926389
0.934538
0.941425
0.947
0.95122
0.954052
0.955472
0.417638
0.418495
0.420206
0.422771
0.426187
0.430452
0.43556
0.441506
0.448284
0.455885
0.4643
0.473518
0.483525
0.494307
0.505847
0.518125
0.531118
0.544801
0.559146
0.574122
0.589692
0.605818
0.622456
0.639558
0.657074
0.674945
0.69311
0.711504
0.730056
0.748689
0.767324
0.785876
0.804256
0.822373
0.84013
0.85743
0.874174
0.890261
0.905591
0.920064
0.933583
0.946056
0.957393
0.967512
0.976336
0.983798
0.989841
0.994416
0.997488
0.999029
0.425266
0.426166
0.427963
0.430659
0.434249
0.438732
0.444103
0.450356
0.457487
0.465487
0.474348
0.484058
0.494606
0.505976
0.518154
0.531118
0.544847
0.559316
0.574497
0.590358
0.606863
0.623972
0.64164
0.65982
0.678457
0.697491
0.71686
0.736493
0.756316
0.776248
0.796204
0.816094
0.835821
0.855288
0.874389
0.89302
0.91107
0.92843
0.94499
0.960639
0.97527
0.98878
1.00107
1.01205
1.02162
1.02973
1.03629
1.04127
1.04461
1.04628
0.433246
0.434192
0.436081
0.438915
0.442689
0.447403
0.453052
0.459632
0.467137
0.475561
0.484895
0.495129
0.506251
0.518248
0.531105
0.544801
0.559316
0.574625
0.5907
0.60751
0.625017
0.643182
0.661959
0.681299
0.701145
0.721437
0.742108
0.763085
0.784288
0.805633
0.827029
0.848379
0.869581
0.890527
0.911104
0.931197
0.950687
0.969453
0.987373
1.00432
1.02019
1.03485
1.0482
1.06013
1.07055
1.07937
1.08652
1.09194
1.09558
1.0974
0.441555
0.442549
0.444535
0.447514
0.451483
0.456441
0.462383
0.469308
0.477209
0.48608
0.495914
0.506702
0.518434
0.531095
0.544672
0.559146
0.574497
0.5907
0.607729
0.62555
0.644129
0.663424
0.68339
0.703975
0.725122
0.746768
0.768844
0.791273
0.813971
0.83685
0.859811
0.882753
0.905563
0.928127
0.950322
0.972022
0.993096
1.01341
1.03283
1.05123
1.06846
1.0844
1.09893
1.11192
1.12328
1.1329
1.1407
1.14662
1.15059
1.15258
0.450166
0.451211
0.453299
0.45643
0.460603
0.465817
0.472069
0.479355
0.487672
0.497015
0.507376
0.518749
0.531123
0.544486
0.558824
0.574122
0.590358
0.60751
0.62555
0.644448
0.664168
0.684668
0.705904
0.727822
0.750364
0.773464
0.797052
0.821046
0.84536
0.869899
0.894559
0.91923
0.943794
0.968124
0.992089
1.01555
1.03837
1.06039
1.08147
1.10146
1.1202
1.13757
1.1534
1.16758
1.17998
1.1905
1.19903
1.2055
1.20985
1.21203
0.459052
0.46015
0.462344
0.465635
0.470022
0.475504
0.482079
0.489745
0.498498
0.508335
0.519249
0.531235
0.544284
0.558386
0.573527
0.589692
0.606863
0.625017
0.644129
0.664168
0.685099
0.706881
0.729469
0.752809
0.776842
0.801501
0.826711
0.852389
0.878444
0.904776
0.931275
0.957824
0.984294
1.01055
1.03645
1.06184
1.08657
1.11047
1.13338
1.15513
1.17556
1.1945
1.21179
1.22729
1.24086
1.25237
1.26171
1.26881
1.27357
1.27597
0.468184
0.469337
0.471642
0.475099
0.479709
0.48547
0.492382
0.500443
0.509652
0.520005
0.531498
0.544126
0.557883
0.572758
0.588741
0.605818
0.623972
0.643182
0.663424
0.684668
0.706881
0.730023
0.754046
0.7789
0.804522
0.830845
0.857793
0.885278
0.913206
0.941471
0.969957
0.99854
1.02708
1.05544
1.08345
1.11096
1.13778
1.16375
1.18868
1.21238
1.23466
1.25535
1.27427
1.29124
1.30611
1.31874
1.329
1.33678
1.34202
1.34465
0.47753
0.47874
0.48116
0.48479
0.48963
0.495682
0.502944
0.511417
0.521099
0.53199
0.544085
0.557383
0.571877
0.587561
0.604424
0.622456
0.64164
0.661959
0.68339
0.705904
0.729469
0.754046
0.779591
0.806049
0.833362
0.861459
0.890261
0.919681
0.949619
0.979964
1.0106
1.04138
1.07217
1.1028
1.13312
1.16294
1.19207
1.22031
1.24747
1.27332
1.29767
1.32031
1.34103
1.35964
1.37597
1.38985
1.40113
1.4097
1.41547
1.41836
0.487057
0.488327
0.490865
0.494674
0.499753
0.506105
0.51373
0.522629
0.532802
0.544249
0.55697
0.570963
0.586225
0.602749
0.620531
0.639558
0.65982
0.681299
0.703975
0.727822
0.752809
0.7789
0.806049
0.834207
0.863311
0.893293
0.924073
0.955559
0.987649
1.02023
1.05317
1.08633
1.11955
1.15267
1.1855
1.21785
1.2495
1.28025
1.30986
1.3381
1.36474
1.38954
1.41228
1.43273
1.45069
1.46597
1.4784
1.48785
1.49421
1.49741
0.496732
0.498062
0.500723
0.504715
0.510041
0.516702
0.524701
0.534039
0.544719
0.556742
0.57011
0.584822
0.600879
0.618276
0.63701
0.657074
0.678457
0.701145
0.725122
0.750364
0.776842
0.804522
0.833362
0.863311
0.894311
0.926291
0.959172
0.99286
1.02725
1.06223
1.09765
1.13337
1.16923
1.20504
1.24061
1.27572
1.31014
1.34364
1.37596
1.40685
1.43603
1.46325
1.48823
1.51074
1.53053
1.54739
1.56112
1.57157
1.5786
1.58214
0.506517
0.50791
0.510696
0.514877
0.520455
0.527434
0.535817
0.545607
0.556808
0.569424
0.583458
0.598912
0.615789
0.634088
0.653808
0.674945
0.697491
0.721437
0.746768
0.773464
0.801501
0.830845
0.861459
0.893293
0.926291
0.960384
0.995492
1.03152
1.06837
1.1059
1.14399
1.18248
1.22118
1.25991
1.29846
1.33658
1.37404
1.41057
1.44589
1.4797
1.51172
1.54163
1.56914
1.59395
1.61581
1.63444
1.64964
1.66121
1.66901
1.67293
0.516375
0.517832
0.520746
0.52512
0.530957
0.538261
0.547036
0.557289
0.569024
0.582247
0.596965
0.613181
0.630902
0.650129
0.670866
0.69311
0.71686
0.742108
0.768844
0.797052
0.826711
0.857793
0.890261
0.924073
0.959172
0.995492
1.03296
1.07147
1.11092
1.1512
1.19214
1.23359
1.27537
1.31726
1.35905
1.40047
1.44126
1.48112
1.51975
1.55682
1.59198
1.6249
1.65524
1.68265
1.70683
1.72748
1.74434
1.75719
1.76585
1.77021
0.526268
0.52779
0.530834
0.535404
0.541504
0.549139
0.558315
0.56904
0.58132
0.595163
0.61058
0.627576
0.646161
0.66634
0.68812
0.711504
0.736493
0.763085
0.791273
0.821046
0.852389
0.885278
0.919681
0.955559
0.99286
1.03152
1.07147
1.11261
1.15484
1.19802
1.24202
1.28665
1.33174
1.37706
1.42236
1.46738
1.51182
1.55536
1.59765
1.63832
1.677
1.71329
1.74681
1.77715
1.80397
1.8269
1.84565
1.85995
1.86961
1.87447
0.536154
0.537743
0.540919
0.545688
0.552055
0.560026
0.569608
0.580811
0.593645
0.60812
0.624248
0.642039
0.661505
0.682657
0.705505
0.730056
0.756316
0.784288
0.813971
0.84536
0.878444
0.913206
0.949619
0.987649
1.02725
1.06837
1.11092
1.15484
1.19999
1.24627
1.29353
1.34157
1.39022
1.43924
1.48836
1.53731
1.58575
1.63333
1.67967
1.72436
1.76696
1.80704
1.84413
1.8778
1.9076
1.93314
1.95405
1.97002
1.9808
1.98624
0.545994
0.547648
0.550958
0.555928
0.562564
0.570874
0.580868
0.592555
0.60595
0.621064
0.637912
0.65651
0.676872
0.699013
0.722948
0.748689
0.776248
0.805633
0.83685
0.869899
0.904776
0.941471
0.979964
1.02023
1.06223
1.1059
1.1512
1.19802
1.24627
1.29583
1.34655
1.39824
1.45072
1.50372
1.55699
1.61021
1.66303
1.71507
1.76589
1.81505
1.86205
1.90638
1.94753
1.98496
2.01817
2.04669
2.07007
2.08795
2.10005
2.10614
0.555744
0.557465
0.560909
0.566081
0.572988
0.581639
0.592045
0.604221
0.618179
0.633938
0.651514
0.670926
0.692194
0.715337
0.740374
0.767324
0.796204
0.827029
0.859811
0.894559
0.931275
0.969957
1.0106
1.05317
1.09765
1.14399
1.19214
1.24202
1.29353
1.34655
1.40094
1.45652
1.51309
1.57039
1.62815
1.68602
1.74364
1.80058
1.85638
1.91051
1.96244
2.01157
2.05731
2.09903
2.13614
2.16808
2.19432
2.21442
2.22802
2.23488
0.565362
0.56715
0.570727
0.576101
0.583278
0.592271
0.603091
0.615755
0.63028
0.646685
0.664991
0.685223
0.707402
0.731554
0.757704
0.785876
0.816094
0.848379
0.882753
0.91923
0.957824
0.99854
1.04138
1.08633
1.13337
1.18248
1.23359
1.28665
1.34157
1.39824
1.45652
1.51624
1.57718
1.6391
1.7017
1.76464
1.8275
1.88985
1.95115
2.01085
2.06831
2.12286
2.17382
2.22045
2.26204
2.29793
2.32748
2.35015
2.36552
2.37327
0.574803
0.576658
0.580369
0.585943
0.59339
0.602723
0.613955
0.627106
0.642195
0.659245
0.678282
0.699332
0.722425
0.747589
0.774856
0.804256
0.835821
0.869581
0.905563
0.943794
0.984294
1.02708
1.07217
1.11955
1.16923
1.22118
1.27537
1.33174
1.39022
1.45072
1.51309
1.57718
1.64278
1.70965
1.77748
1.8459
1.91451
1.9828
2.05021
2.11611
2.1798
2.2405
2.2974
2.34967
2.39644
2.43691
2.47032
2.496
2.51344
2.52225
0.584026
0.585946
0.589789
0.595562
0.603276
0.612944
0.624585
0.638219
0.653868
0.671559
0.691321
0.713186
0.737188
0.763361
0.791743
0.822373
0.855288
0.890527
0.928127
0.968124
1.01055
1.05544
1.1028
1.15267
1.20504
1.25991
1.31726
1.37706
1.43924
1.50372
1.57039
1.6391
1.70965
1.7818
1.85524
1.92962
2.00448
2.07931
2.15349
2.22633
2.29702
2.3647
2.42843
2.48719
2.53998
2.5858
2.62374
2.65297
2.67284
2.68289
0.592986
0.59497
0.598942
0.604911
0.612887
0.622887
0.634931
0.64904
0.665241
0.683564
0.704044
0.726714
0.751616
0.778789
0.808279
0.84013
0.874389
0.911104
0.950322
0.992089
1.03645
1.08345
1.13312
1.1855
1.24061
1.29846
1.35905
1.42236
1.48836
1.55699
1.62815
1.7017
1.77748
1.85524
1.93471
2.0155
2.09718
2.17918
2.26086
2.34145
2.42006
2.49569
2.56724
2.63353
2.69334
2.74546
2.78875
2.82218
2.84496
2.85649
0.601639
0.603687
0.607785
0.613945
0.622178
0.632502
0.644939
0.659514
0.676256
0.6952
0.716383
0.739845
0.765632
0.793791
0.824373
0.85743
0.89302
0.931197
0.972022
1.01555
1.06184
1.11096
1.16294
1.21785
1.27572
1.33658
1.40047
1.46738
1.53731
1.61021
1.68602
1.76464
1.8459
1.92962
2.0155
2.10321
2.19227
2.28213
2.3721
2.46135
2.5489
2.6336
2.71419
2.78925
2.8573
2.91687
2.96652
3.005
3.03126
3.04457
0.609943
0.612052
0.616274
0.622619
0.631101
0.64174
0.65456
0.669588
0.686857
0.706405
0.728273
0.752508
0.77916
0.808282
0.839933
0.874174
0.91107
0.950687
0.993096
1.03837
1.08657
1.13778
1.19207
1.2495
1.31014
1.37404
1.44126
1.51182
1.58575
1.66303
1.74364
1.8275
1.91451
2.00448
2.09718
2.19227
2.28932
2.38776
2.48689
2.58581
2.68345
2.77853
2.86956
2.95488
3.03269
3.10114
3.15845
3.20299
3.23346
3.24894
0.617857
0.620025
0.624365
0.630889
0.639611
0.650554
0.663742
0.679207
0.696985
0.717117
0.739648
0.764631
0.792121
0.822178
0.854868
0.890261
0.92843
0.969453
1.01341
1.06039
1.11047
1.16375
1.22031
1.28025
1.34364
1.41057
1.48112
1.55536
1.63333
1.71507
1.80058
1.88985
1.9828
2.07931
2.17918
2.28213
2.38776
2.49553
2.60472
2.71441
2.82345
2.93042
3.03359
3.13099
3.22041
3.29955
3.36612
3.41806
3.45368
3.47179
0.625339
0.627564
0.632017
0.638711
0.647663
0.658896
0.672437
0.688321
0.706586
0.727277
0.750444
0.776145
0.80444
0.835397
0.869087
0.905591
0.94499
0.987373
1.03283
1.08147
1.13338
1.18868
1.24747
1.30986
1.37596
1.44589
1.51975
1.59765
1.67967
1.76589
1.85638
1.95115
2.05021
2.15349
2.26086
2.3721
2.48689
2.60472
2.72492
2.84657
2.96847
3.08905
3.20636
3.31805
3.42142
3.51354
3.59145
3.65247
3.69443
3.7158
0.632351
0.634629
0.639189
0.646045
0.655215
0.666722
0.680598
0.696877
0.715604
0.736826
0.760598
0.78698
0.816042
0.847855
0.8825
0.920064
0.960639
1.00432
1.05123
1.10146
1.15513
1.21238
1.27332
1.3381
1.40685
1.4797
1.55682
1.63832
1.72436
1.81505
1.91051
2.01085
2.11611
2.22633
2.34145
2.46135
2.58581
2.71441
2.84657
2.98142
3.11776
3.25392
3.38774
3.51646
3.63673
3.74477
3.83672
3.90902
3.95885
3.98426
0.638855
0.641183
0.645844
0.652851
0.662224
0.673989
0.688177
0.704829
0.723989
0.745708
0.770048
0.797072
0.826854
0.859474
0.895019
0.933583
0.97527
1.02019
1.06846
1.1202
1.17556
1.23466
1.29767
1.36474
1.43603
1.51172
1.59198
1.677
1.76696
1.86205
1.96244
2.06831
2.1798
2.29702
2.42006
2.5489
2.68345
2.82345
2.96847
3.11776
3.2702
3.42414
3.57726
3.72636
3.86732
3.99519
4.10471
4.19113
4.25078
4.28121
0.644817
0.647191
0.651944
0.659091
0.668652
0.680655
0.695133
0.712129
0.73169
0.753871
0.778736
0.806355
0.836807
0.870176
0.906559
0.946056
0.98878
1.03485
1.0844
1.13757
1.1945
1.25535
1.32031
1.38954
1.46325
1.54163
1.6249
1.71329
1.80704
1.90638
2.01157
2.12286
2.2405
2.3647
2.49569
2.6336
2.77853
2.93042
3.08905
3.25392
3.42414
3.59823
3.77385
3.94747
4.11408
4.26706
4.3989
4.50314
4.57506
4.61173
0.650204
0.65262
0.657457
0.664731
0.674464
0.686683
0.701426
0.718735
0.738661
0.761264
0.786609
0.814772
0.845835
0.879891
0.91704
0.957393
1.00107
1.0482
1.09893
1.1534
1.21179
1.27427
1.34103
1.41228
1.48823
1.56914
1.65524
1.74681
1.84413
1.94753
2.05731
2.17382
2.2974
2.42843
2.56724
2.71419
2.86956
3.03359
3.20636
3.38774
3.57726
3.77385
3.9755
4.1787
4.37759
4.56318
4.72384
4.8506
4.93775
4.98205
0.654986
0.65744
0.662352
0.66974
0.679626
0.692039
0.707018
0.724607
0.744861
0.76784
0.793616
0.822266
0.853879
0.888551
0.926389
0.967512
1.01205
1.06013
1.11192
1.16758
1.22729
1.29124
1.35964
1.43273
1.51074
1.59395
1.68265
1.77715
1.8778
1.98496
2.09903
2.22045
2.34967
2.48719
2.63353
2.78925
2.95488
3.13099
3.31805
3.51646
3.72636
3.94747
4.1787
4.41734
4.65755
4.88737
5.08582
5.24084
5.34646
5.39984
0.659137
0.661623
0.666601
0.674088
0.684108
0.69669
0.711875
0.72971
0.75025
0.773559
0.799711
0.828788
0.860882
0.896094
0.934538
0.976336
1.02162
1.07055
1.12328
1.17998
1.24086
1.30611
1.37597
1.45069
1.53053
1.61581
1.70683
1.80397
1.9076
2.01817
2.13614
2.26204
2.39644
2.53998
2.69334
2.8573
3.03269
3.22041
3.42142
3.63673
3.86732
4.11408
4.37759
4.65755
4.95104
5.24611
5.49439
5.68368
5.81061
5.8742
0.662633
0.665147
0.670181
0.677752
0.687884
0.70061
0.71597
0.734013
0.754795
0.778384
0.804855
0.834294
0.866796
0.902467
0.941425
0.983798
1.02973
1.07937
1.1329
1.1905
1.25237
1.31874
1.38985
1.46597
1.54739
1.63444
1.72748
1.8269
1.93314
2.04669
2.16808
2.29793
2.43691
2.5858
2.74546
2.91687
3.10114
3.29955
3.51354
3.74477
3.99519
4.26706
4.56318
4.88737
5.24611
5.65482
5.96513
6.19207
6.34128
6.41535
0.665454
0.66799
0.673069
0.680709
0.690933
0.703775
0.719277
0.737488
0.758467
0.782283
0.809013
0.838746
0.87158
0.907624
0.947
0.989841
1.03629
1.08652
1.1407
1.19903
1.26171
1.329
1.40113
1.4784
1.56112
1.64964
1.74434
1.84565
1.95405
2.07007
2.19432
2.32748
2.47032
2.62374
2.78875
2.96652
3.15845
3.36612
3.59145
3.83672
4.10471
4.3989
4.72384
5.08582
5.49439
5.96513
6.32246
6.58139
6.75033
6.8338
0.667584
0.670138
0.675251
0.682942
0.693236
0.706167
0.721775
0.740114
0.761242
0.78523
0.812157
0.842113
0.875199
0.911526
0.95122
0.994416
1.04127
1.09194
1.14662
1.2055
1.26881
1.33678
1.4097
1.48785
1.57157
1.66121
1.75719
1.85995
1.97002
2.08795
2.21442
2.35015
2.496
2.65297
2.82218
3.005
3.20299
3.41806
3.65247
3.90902
4.19113
4.50314
4.8506
5.24084
5.68368
6.19207
6.58139
6.86392
7.04807
7.13894
0.669011
0.671576
0.676713
0.684439
0.69478
0.707769
0.72345
0.741874
0.763103
0.787206
0.814266
0.844372
0.877627
0.914145
0.954052
0.997488
1.04461
1.09558
1.15059
1.20985
1.27357
1.34202
1.41547
1.49421
1.5786
1.66901
1.76585
1.86961
1.9808
2.10005
2.22802
2.36552
2.51344
2.67284
2.84496
3.03126
3.23346
3.45368
3.69443
3.95885
4.25078
4.57506
4.93775
5.34646
5.81061
6.34128
6.75033
7.04807
7.24233
7.3382
0.669727
0.672297
0.677445
0.685189
0.695553
0.708572
0.724289
0.742757
0.764035
0.788197
0.815323
0.845504
0.878844
0.915458
0.955472
0.999029
1.04628
1.0974
1.15258
1.21203
1.27597
1.34465
1.41836
1.49741
1.58214
1.67293
1.77021
1.87447
1.98624
2.10614
2.23488
2.37327
2.52225
2.68289
2.85649
3.04457
3.24894
3.47179
3.7158
3.98426
4.28121
4.61173
4.98205
5.39984
5.8742
6.41535
6.8338
7.13894
7.3382
7.43658
)
;

boundaryField
{
    walls
    {
        type            zeroGradient;
    }
    frontAndBack
    {
        type            empty;
    }
}


// ************************************************************************* //
