/*--------------------------------*- C++ -*----------------------------------*\
| =========                 |                                                 |
| \\      /  F ield         | OpenFOAM: The Open Source CFD Toolbox           |
|  \\    /   O peration     | Version:  2406                                  |
|   \\  /    A nd           | Website:  www.openfoam.com                      |
|    \\/     M anipulation  |                                                 |
\*---------------------------------------------------------------------------*/
FoamFile
{
    version     2.0;
    format      ascii;
    arch        "LSB;label=32;scalar=64";
    class       volVectorField;
    location    "0.7";
    object      flux;
}
// * * * * * * * * * * * * * * * * * * * * * * * * * * * * * * * * * * * * * //

dimensions      [0 1 -1 1 0 0 0];

internalField   nonuniform List<vector> 
2500
(
(0.000644255 0.000644255 0)
(0.00192144 0.000645338 0)
(0.0031687 0.000647689 0)
(0.00436803 0.00065115 0)
(0.00549965 0.000655699 0)
(0.00654611 0.0006613 0)
(0.00749128 0.000667904 0)
(0.00832063 0.000675453 0)
(0.00902149 0.000683883 0)
(0.0095832 0.000693125 0)
(0.00999734 0.000703108 0)
(0.0102578 0.000713758 0)
(0.0103609 0.000725001 0)
(0.0103055 0.000736767 0)
(0.010093 0.000748988 0)
(0.00972708 0.000761599 0)
(0.00921406 0.000774544 0)
(0.00856251 0.000787772 0)
(0.00778313 0.000801239 0)
(0.00688866 0.00081491 0)
(0.00589363 0.000828758 0)
(0.0048141 0.000842764 0)
(0.00366743 0.000856913 0)
(0.00247199 0.0008712 0)
(0.00124687 0.000885622 0)
(1.15346e-05 0.000900181 0)
(-0.00121444 0.000914879 0)
(-0.00241171 0.000929717 0)
(-0.00356148 0.000944693 0)
(-0.00464577 0.000959802 0)
(-0.00564773 0.000975029 0)
(-0.00655187 0.000990352 0)
(-0.00734433 0.00100574 0)
(-0.00801309 0.00102113 0)
(-0.00854812 0.00103649 0)
(-0.00894155 0.00105172 0)
(-0.00918779 0.00106675 0)
(-0.00928357 0.00108148 0)
(-0.00922802 0.00109578 0)
(-0.00902264 0.00110955 0)
(-0.00867126 0.00112265 0)
(-0.00818001 0.00113495 0)
(-0.00755717 0.00114631 0)
(-0.00681304 0.00115661 0)
(-0.00595981 0.00116572 0)
(-0.00501132 0.00117352 0)
(-0.00398291 0.00117994 0)
(-0.00289114 0.00118489 0)
(-0.00175348 0.00118821 0)
(-0.000587701 0.00118937 0)
(0.000645338 0.00192144 0)
(0.00192488 0.00192488 0)
(0.00317452 0.0019319 0)
(0.00437604 0.00194228 0)
(0.0055098 0.00195593 0)
(0.00655832 0.00197274 0)
(0.00750543 0.00199255 0)
(0.00833661 0.0020152 0)
(0.00903916 0.0020405 0)
(0.00960243 0.00206823 0)
(0.010018 0.0020982 0)
(0.0102797 0.00213017 0)
(0.0103839 0.00216393 0)
(0.0103295 0.00219928 0)
(0.0101178 0.002236 0)
(0.00975263 0.00227391 0)
(0.00924024 0.00231285 0)
(0.0085892 0.00235266 0)
(0.00781027 0.00239321 0)
(0.00691618 0.00243441 0)
(0.00592148 0.00247618 0)
(0.00484225 0.00251845 0)
(0.00369586 0.0025612 0)
(0.0025007 0.00260441 0)
(0.00127585 0.00264806 0)
(4.07912e-05 0.00269218 0)
(-0.0011849 0.00273676 0)
(-0.0023819 0.00278181 0)
(-0.0035314 0.00282732 0)
(-0.00461544 0.00287329 0)
(-0.00561718 0.00291965 0)
(-0.00652116 0.00296634 0)
(-0.00731355 0.00301326 0)
(-0.00798234 0.00306026 0)
(-0.00851753 0.00310715 0)
(-0.00891129 0.00315371 0)
(-0.00915804 0.00319967 0)
(-0.00925454 0.00324471 0)
(-0.00919995 0.0032885 0)
(-0.00899577 0.00333065 0)
(-0.00864587 0.00337077 0)
(-0.00815635 0.00340845 0)
(-0.00753551 0.00344327 0)
(-0.00679364 0.00347483 0)
(-0.00594289 0.00350275 0)
(-0.00499709 0.00352668 0)
(-0.00397155 0.00354635 0)
(-0.00288287 0.00356154 0)
(-0.00174899 0.00357204 0)
(-0.00058654 0.00357667 0)
(0.000647689 0.0031687 0)
(0.0019319 0.00317452 0)
(0.00318611 0.00318611 0)
(0.00439206 0.00320329 0)
(0.00553011 0.00322592 0)
(0.00658273 0.00325379 0)
(0.00753374 0.00328666 0)
(0.00836858 0.00332425 0)
(0.00907452 0.00336624 0)
(0.0096409 0.00341231 0)
(0.0100593 0.00346211 0)
(0.0103235 0.00351529 0)
(0.01043 0.00357149 0)
(0.0103776 0.00363038 0)
(0.0101676 0.00369162 0)
(0.00980393 0.00375493 0)
(0.00929281 0.00382004 0)
(0.00864287 0.0038867 0)
(0.00786488 0.00395472 0)
(0.00697163 0.00402395 0)
(0.00597767 0.00409426 0)
(0.00489912 0.00416557 0)
(0.00375338 0.00423784 0)
(0.00255885 0.00431104 0)
(0.00133464 0.00438518 0)
(0.000100229 0.00446027 0)
(-0.00112481 0.00453632 0)
(-0.00232115 0.00461335 0)
(-0.00347 0.00469135 0)
(-0.00455345 0.00477027 0)
(-0.00555467 0.00485004 0)
(-0.00645825 0.00493052 0)
(-0.00725042 0.00501152 0)
(-0.0079192 0.00509278 0)
(-0.00845467 0.00517397 0)
(-0.00884904 0.00525468 0)
(-0.00909679 0.00533442 0)
(-0.00919474 0.00541266 0)
(-0.00914209 0.00548877 0)
(-0.00894037 0.00556209 0)
(-0.00859347 0.00563192 0)
(-0.00810752 0.00569753 0)
(-0.00749079 0.00575818 0)
(-0.00675356 0.00581317 0)
(-0.00590795 0.00586182 0)
(-0.00496772 0.00590351 0)
(-0.00394805 0.00593771 0)
(-0.00286544 0.00596401 0)
(-0.00173834 0.00598211 0)
(-0.000583068 0.00599106 0)
(0.00065115 0.00436803 0)
(0.00194228 0.00437604 0)
(0.00320329 0.00439206 0)
(0.00441585 0.00441585 0)
(0.0055603 0.00444721 0)
(0.00661906 0.00448586 0)
(0.00757589 0.00453147 0)
(0.00841619 0.00458366 0)
(0.00912723 0.00464202 0)
(0.0096983 0.0047061 0)
(0.0101209 0.00477543 0)
(0.0103891 0.00484954 0)
(0.010499 0.00492798 0)
(0.0104497 0.00501029 0)
(0.0102424 0.00509605 0)
(0.00988105 0.00518487 0)
(0.009372 0.00527639 0)
(0.00872389 0.00537033 0)
(0.00794752 0.00546643 0)
(0.00705572 0.0055645 0)
(0.00606311 0.0056644 0)
(0.00498583 0.00576604 0)
(0.00384133 0.00586939 0)
(0.00264804 0.00597442 0)
(0.00142507 0.00608116 0)
(0.000191932 0.00618964 0)
(-0.00103182 0.00629989 0)
(-0.00222687 0.00641193 0)
(-0.00337448 0.00652573 0)
(-0.00445675 0.00664123 0)
(-0.00545693 0.00675829 0)
(-0.00635968 0.00687671 0)
(-0.00715129 0.00699618 0)
(-0.00781989 0.00711628 0)
(-0.00835563 0.0072365 0)
(-0.00875083 0.00735621 0)
(-0.00900005 0.00747467 0)
(-0.0091002 0.00759104 0)
(-0.00905052 0.00770436 0)
(-0.00885262 0.00781364 0)
(-0.00851043 0.00791779 0)
(-0.00803009 0.00801571 0)
(-0.00741986 0.00810629 0)
(-0.00669 0.00818843 0)
(-0.00585256 0.0082611 0)
(-0.00492121 0.00832335 0)
(-0.00391105 0.00837433 0)
(-0.00283847 0.00841335 0)
(-0.00172193 0.00843981 0)
(-0.000577584 0.00845312 0)
(0.000655699 0.00549965 0)
(0.00195593 0.0055098 0)
(0.00322592 0.00553011 0)
(0.00444721 0.0055603 0)
(0.00560012 0.00560012 0)
(0.00666699 0.00564923 0)
(0.00763154 0.00570722 0)
(0.00847912 0.00577363 0)
(0.00919695 0.00584797 0)
(0.00977431 0.00592968 0)
(0.0102027 0.00601822 0)
(0.0104761 0.00611301 0)
(0.0105908 0.0062135 0)
(0.0105457 0.00631917 0)
(0.0103422 0.0064295 0)
(0.00998427 0.00654406 0)
(0.00947827 0.00666244 0)
(0.00883291 0.00678431 0)
(0.00805905 0.0069094 0)
(0.0071696 0.00703751 0)
(0.00617922 0.00716852 0)
(0.00510411 0.00730234 0)
(0.00396176 0.00743896 0)
(0.00277063 0.00757841 0)
(0.00154986 0.00772074 0)
(0.000318959 0.007866 0)
(-0.000902524 0.00801426 0)
(-0.00209531 0.00816554 0)
(-0.0032407 0.00831979 0)
(-0.00432088 0.00847693 0)
(-0.00531918 0.00863673 0)
(-0.00622037 0.00879889 0)
(-0.00701085 0.00896294 0)
(-0.00767887 0.00912829 0)
(-0.00821473 0.00929419 0)
(-0.00861087 0.00945971 0)
(-0.00886197 0.00962379 0)
(-0.00896505 0.00978521 0)
(-0.00891948 0.00994263 0)
(-0.00872694 0.0100946 0)
(-0.0083914 0.0102396 0)
(-0.00791902 0.010376 0)
(-0.00731807 0.0105022 0)
(-0.00659875 0.0106168 0)
(-0.00577303 0.0107182 0)
(-0.00485448 0.010805 0)
(-0.00385805 0.0108761 0)
(-0.00279997 0.0109304 0)
(-0.00169857 0.0109671 0)
(-0.00056976 0.0109856 0)
(0.0006613 0.00654611 0)
(0.00197274 0.00655832 0)
(0.00325379 0.00658273 0)
(0.00448586 0.00661906 0)
(0.00564923 0.00666699 0)
(0.00672615 0.00672615 0)
(0.00770029 0.00679608 0)
(0.00855694 0.00687625 0)
(0.00928327 0.00696609 0)
(0.00986855 0.007065 0)
(0.0103043 0.00717234 0)
(0.0105844 0.00728749 0)
(0.0107052 0.00740983 0)
(0.0106657 0.00753879 0)
(0.0104673 0.00767383 0)
(0.010114 0.00781447 0)
(0.00961225 0.0079603 0)
(0.00897085 0.00811099 0)
(0.00820072 0.00826629 0)
(0.00731484 0.00842603 0)
(0.00632793 0.00859013 0)
(0.00525628 0.00875855 0)
(0.00411741 0.00893135 0)
(0.00292982 0.00910861 0)
(0.00171267 0.00929043 0)
(0.000485459 0.00947694 0)
(-0.000732287 0.0096682 0)
(-0.00192134 0.00986426 0)
(-0.00306309 0.0100651 0)
(-0.00413981 0.0102704 0)
(-0.00513496 0.0104801 0)
(-0.00603347 0.0106936 0)
(-0.00682188 0.0109103 0)
(-0.00748864 0.0111293 0)
(-0.00802422 0.0113496 0)
(-0.00842123 0.0115699 0)
(-0.00867455 0.0117887 0)
(-0.00878136 0.0120043 0)
(-0.00874114 0.0122148 0)
(-0.00855569 0.0124184 0)
(-0.00822905 0.0126127 0)
(-0.00776742 0.0127958 0)
(-0.00717905 0.0129653 0)
(-0.00647407 0.0131193 0)
(-0.00566435 0.0132555 0)
(-0.00476329 0.0133723 0)
(-0.00378564 0.0134679 0)
(-0.00274742 0.0135409 0)
(-0.00166672 0.0135902 0)
(-0.000559092 0.013615 0)
(0.000667904 0.00749128 0)
(0.00199255 0.00750543 0)
(0.00328666 0.00753374 0)
(0.00453147 0.00757589 0)
(0.00570722 0.00763154 0)
(0.00679608 0.00770029 0)
(0.00778164 0.00778164 0)
(0.00864914 0.00787503 0)
(0.0093857 0.00797983 0)
(0.00998056 0.00809542 0)
(0.0104252 0.00822112 0)
(0.0107136 0.00835627 0)
(0.0108421 0.00850026 0)
(0.0108097 0.00865249 0)
(0.0106179 0.00881243 0)
(0.0102707 0.00897961 0)
(0.00977479 0.00915368 0)
(0.0091389 0.00933434 0)
(0.0083741 0.0095214 0)
(0.00749344 0.00971479 0)
(0.00651174 0.00991448 0)
(0.00544533 0.0101206 0)
(0.00431181 0.0103332 0)
(0.00312971 0.0105525 0)
(0.00191818 0.0107787 0)
(0.000696723 0.011012 0)
(-0.000515203 0.0112525 0)
(-0.00169845 0.0115003 0)
(-0.00283451 0.0117552 0)
(-0.00390581 0.0120172 0)
(-0.004896 0.0122856 0)
(-0.00579018 0.01256 0)
(-0.00657515 0.0128394 0)
(-0.00723957 0.0131226 0)
(-0.00777417 0.0134083 0)
(-0.00817181 0.0136945 0)
(-0.00842758 0.0139795 0)
(-0.00853889 0.0142607 0)
(-0.0085054 0.0145358 0)
(-0.00832905 0.0148021 0)
(-0.00801398 0.0150567 0)
(-0.00756642 0.0152967 0)
(-0.0069946 0.0155191 0)
(-0.00630855 0.0157212 0)
(-0.00552001 0.0159002 0)
(-0.00464215 0.0160536 0)
(-0.00368946 0.0161793 0)
(-0.00267763 0.0162752 0)
(-0.00162441 0.01634 0)
(-0.000544925 0.0163727 0)
(0.000675453 0.00832063 0)
(0.0020152 0.00833661 0)
(0.00332425 0.00836858 0)
(0.00458366 0.00841619 0)
(0.00577363 0.00847912 0)
(0.00687625 0.00855694 0)
(0.00787503 0.00864914 0)
(0.00875513 0.00875513 0)
(0.00950366 0.00887431 0)
(0.0101098 0.00900602 0)
(0.0105651 0.0091496 0)
(0.0108635 0.00930442 0)
(0.0110014 0.00946986 0)
(0.0109778 0.00964539 0)
(0.0107944 0.00983053 0)
(0.0104552 0.0100249 0)
(0.00996698 0.0102282 0)
(0.00933857 0.0104403 0)
(0.00858117 0.010661 0)
(0.00770791 0.0108905 0)
(0.00673371 0.0111289 0)
(0.00567497 0.0113763 0)
(0.00454933 0.0116331 0)
(0.00337534 0.0118997 0)
(0.00217217 0.0121762 0)
(0.00095926 0.012463 0)
(-0.000244008 0.0127603 0)
(-0.00141861 0.0130682 0)
(-0.00254619 0.0133866 0)
(-0.0036094 0.0137151 0)
(-0.0045921 0.0140533 0)
(-0.00547969 0.0144001 0)
(-0.00625926 0.0147545 0)
(-0.00691979 0.0151148 0)
(-0.00745232 0.0154791 0)
(-0.00785005 0.015845 0)
(-0.00810838 0.01621 0)
(-0.00822498 0.016571 0)
(-0.00819976 0.0169246 0)
(-0.00803485 0.0172673 0)
(-0.00773449 0.0175954 0)
(-0.00730498 0.0179049 0)
(-0.00675449 0.0181921 0)
(-0.00609297 0.0184532 0)
(-0.00533192 0.0186846 0)
(-0.00448425 0.018883 0)
(-0.00356406 0.0190455 0)
(-0.00258663 0.0191696 0)
(-0.00156925 0.0192535 0)
(-0.000526453 0.0192957 0)
(0.000683883 0.00902149 0)
(0.0020405 0.00903916 0)
(0.00336624 0.00907452 0)
(0.00464202 0.00912723 0)
(0.00584797 0.00919695 0)
(0.00696609 0.00928327 0)
(0.00797983 0.0093857 0)
(0.00887431 0.00950366 0)
(0.00963658 0.00963658 0)
(0.0102558 0.00978383 0)
(0.0107236 0.00994482 0)
(0.0110339 0.010119 0)
(0.0111831 0.0103057 0)
(0.0111703 0.0105047 0)
(0.0109974 0.0107155 0)
(0.0106684 0.0109378 0)
(0.0101902 0.0111716 0)
(0.00957171 0.0114168 0)
(0.00882434 0.0116736 0)
(0.00796129 0.0119422 0)
(0.00699755 0.0122229 0)
(0.00594962 0.0125161 0)
(0.00483517 0.0128224 0)
(0.00367277 0.0131423 0)
(0.00248154 0.0134762 0)
(0.00128087 0.0138245 0)
(9.00078e-05 0.0141877 0)
(-0.00107219 0.0145656 0)
(-0.00218761 0.0149584 0)
(-0.00323915 0.0153655 0)
(-0.00421103 0.0157862 0)
(-0.00508898 0.0162193 0)
(-0.00586049 0.0166632 0)
(-0.00651497 0.0171159 0)
(-0.00704388 0.0175748 0)
(-0.00744083 0.0180369 0)
(-0.00770163 0.0184987 0)
(-0.0078243 0.0189562 0)
(-0.00780907 0.0194051 0)
(-0.00765829 0.0198407 0)
(-0.00737638 0.0202582 0)
(-0.00696968 0.0206526 0)
(-0.00644633 0.0210187 0)
(-0.0058161 0.0213519 0)
(-0.00509023 0.0216473 0)
(-0.00428125 0.0219007 0)
(-0.00340281 0.0221083 0)
(-0.00246959 0.022267 0)
(-0.00149829 0.0223743 0)
(-0.00050269 0.0224282 0)
(0.000693125 0.0095832 0)
(0.00206823 0.00960243 0)
(0.00341231 0.0096409 0)
(0.0047061 0.0096983 0)
(0.00592968 0.00977431 0)
(0.007065 0.00986855 0)
(0.00809542 0.00998056 0)
(0.00900602 0.0101098 0)
(0.00978383 0.0102558 0)
(0.0104181 0.0104181 0)
(0.0109003 0.010596 0)
(0.0112244 0.0107892 0)
(0.0113871 0.0109972 0)
(0.0113876 0.0112198 0)
(0.0112275 0.0114569 0)
(0.0109114 0.0117082 0)
(0.010446 0.011974 0)
(0.00984057 0.0122545 0)
(0.00910651 0.0125501 0)
(0.00825717 0.0128613 0)
(0.00730766 0.0131886 0)
(0.00627453 0.0135329 0)
(0.00517549 0.0138948 0)
(0.0040291 0.0142752 0)
(0.00285443 0.0146747 0)
(0.00167073 0.0150939 0)
(0.000497096 0.0155333 0)
(-0.000647872 0.015993 0)
(-0.00174636 0.016473 0)
(-0.00278163 0.0169726 0)
(-0.00373833 0.017491 0)
(-0.00460265 0.0180265 0)
(-0.00536261 0.0185772 0)
(-0.00600816 0.0191404 0)
(-0.00653129 0.0197127 0)
(-0.00692616 0.0202903 0)
(-0.00718909 0.0208687 0)
(-0.00731858 0.0214427 0)
(-0.00731524 0.0220067 0)
(-0.00718173 0.0225548 0)
(-0.00692267 0.0230807 0)
(-0.00654447 0.0235779 0)
(-0.0060552 0.0240401 0)
(-0.00546445 0.0244608 0)
(-0.00478309 0.0248341 0)
(-0.00402318 0.0251546 0)
(-0.00319773 0.0254172 0)
(-0.00232071 0.025618 0)
(-0.00140801 0.0257537 0)
(-0.000472456 0.0258221 0)
(0.000703108 0.00999734 0)
(0.0020982 0.010018 0)
(0.00346211 0.0100593 0)
(0.00477543 0.0101209 0)
(0.00601822 0.0102027 0)
(0.00717234 0.0103043 0)
(0.00822112 0.0104252 0)
(0.0091496 0.0105651 0)
(0.00994482 0.0107236 0)
(0.010596 0.0109003 0)
(0.0110947 0.0110947 0)
(0.0114351 0.0113067 0)
(0.0116137 0.0115361 0)
(0.01163 0.0117828 0)
(0.0114858 0.0120468 0)
(0.0111856 0.0123285 0)
(0.0107365 0.0126282 0)
(0.0101478 0.0129465 0)
(0.00943106 0.0132841 0)
(0.00859979 0.0136419 0)
(0.00766916 0.014021 0)
(0.0066558 0.0144222 0)
(0.00557745 0.0148469 0)
(0.00445261 0.015296 0)
(0.00330027 0.0157706 0)
(0.00213951 0.0162715 0)
(0.00098916 0.0167993 0)
(-0.000132482 0.0173542 0)
(-0.001208 0.0179363 0)
(-0.00222116 0.0185446 0)
(-0.00315713 0.0191782 0)
(-0.00400273 0.019835 0)
(-0.00474663 0.0205124 0)
(-0.00537947 0.021207 0)
(-0.00589394 0.0219147 0)
(-0.0062849 0.0226304 0)
(-0.00654932 0.0233484 0)
(-0.00668629 0.0240622 0)
(-0.00669693 0.0247647 0)
(-0.0065843 0.0254483 0)
(-0.00635325 0.0261049 0)
(-0.00601031 0.0267264 0)
(-0.00556346 0.0273045 0)
(-0.00502203 0.0278313 0)
(-0.00439646 0.028299 0)
(-0.00369816 0.0287007 0)
(-0.00293935 0.02903 0)
(-0.00213307 0.0292819 0)
(-0.00129421 0.0294522 0)
(-0.000434343 0.029538 0)
(0.000713758 0.0102578 0)
(0.00213017 0.0102797 0)
(0.00351529 0.0103235 0)
(0.00484954 0.0103891 0)
(0.00611301 0.0104761 0)
(0.00728749 0.0105844 0)
(0.00835627 0.0107136 0)
(0.00930442 0.0108635 0)
(0.010119 0.0110339 0)
(0.0107892 0.0112244 0)
(0.0113067 0.0114351 0)
(0.0116658 0.0116658 0)
(0.0118631 0.0119166 0)
(0.0118983 0.0121879 0)
(0.0117732 0.01248 0)
(0.0114928 0.0127936 0)
(0.011064 0.0131294 0)
(0.0104965 0.0134884 0)
(0.00980196 0.0138719 0)
(0.00899401 0.0142811 0)
(0.00808796 0.0147176 0)
(0.00710046 0.0151827 0)
(0.00604925 0.0156782 0)
(0.00495279 0.0162055 0)
(0.0038299 0.016766 0)
(0.00269942 0.0173608 0)
(0.00157987 0.0179908 0)
(0.000489113 0.0186564 0)
(-0.000555952 0.0193575 0)
(-0.0015397 0.0200932 0)
(-0.002448 0.020862 0)
(-0.00326846 0.0216616 0)
(-0.00399057 0.0224888 0)
(-0.00460585 0.0233391 0)
(-0.00510791 0.0242074 0)
(-0.00549245 0.0250875 0)
(-0.0057573 0.0259719 0)
(-0.00590228 0.0268527 0)
(-0.00592917 0.0277209 0)
(-0.00584153 0.0285668 0)
(-0.00564453 0.0293803 0)
(-0.00534483 0.030151 0)
(-0.00495031 0.0308687 0)
(-0.00446998 0.0315231 0)
(-0.00391372 0.0321045 0)
(-0.00329214 0.0326042 0)
(-0.00261647 0.033014 0)
(-0.00189852 0.0333276 0)
(-0.00115194 0.0335397 0)
(-0.000386686 0.0336465 0)
(0.000725001 0.0103609 0)
(0.00216393 0.0103839 0)
(0.00357149 0.01043 0)
(0.00492798 0.010499 0)
(0.0062135 0.0105908 0)
(0.00740983 0.0107052 0)
(0.00850026 0.0108421 0)
(0.00946986 0.0110014 0)
(0.0103057 0.0111831 0)
(0.0109972 0.0113871 0)
(0.0115361 0.0116137 0)
(0.0119166 0.0118631 0)
(0.0121359 0.0121359 0)
(0.0121934 0.0124325 0)
(0.0120914 0.0127539 0)
(0.0118349 0.0131013 0)
(0.0114313 0.0134757 0)
(0.0108903 0.0138789 0)
(0.0102238 0.0143126 0)
(0.00944544 0.0147786 0)
(0.00857077 0.0152789 0)
(0.00761647 0.0158158 0)
(0.00660023 0.0163913 0)
(0.0055404 0.0170074 0)
(0.00445559 0.017666 0)
(0.00336435 0.0183687 0)
(0.00228476 0.0191166 0)
(0.00123414 0.0199102 0)
(0.000228733 0.0207495 0)
(-0.000716615 0.0216336 0)
(-0.00158867 0.0225606 0)
(-0.002376 0.0235277 0)
(-0.00306917 0.0245308 0)
(-0.00366079 0.0255647 0)
(-0.00414558 0.0266228 0)
(-0.00452038 0.0276973 0)
(-0.00478404 0.0287792 0)
(-0.00493735 0.0298584 0)
(-0.00498292 0.0309237 0)
(-0.00492492 0.0319631 0)
(-0.00476896 0.0329639 0)
(-0.00452186 0.0339131 0)
(-0.00419141 0.0347977 0)
(-0.0037862 0.0356051 0)
(-0.00331541 0.0363229 0)
(-0.00278866 0.0369401 0)
(-0.0022159 0.0374466 0)
(-0.00160746 0.0378343 0)
(-0.000975351 0.0380966 0)
(-0.000327528 0.0382287 0)
(0.000736767 0.0103055 0)
(0.00219928 0.0103295 0)
(0.00363038 0.0103776 0)
(0.00501029 0.0104497 0)
(0.00631917 0.0105457 0)
(0.00753879 0.0106657 0)
(0.00865249 0.0108097 0)
(0.00964539 0.0109778 0)
(0.0105047 0.0111703 0)
(0.0112198 0.0113876 0)
(0.0117828 0.01163 0)
(0.0121879 0.0118983 0)
(0.0124325 0.0121934 0)
(0.0125164 0.0125164 0)
(0.012442 0.0128687 0)
(0.0122146 0.0132519 0)
(0.0118417 0.0136681 0)
(0.0113333 0.0141193 0)
(0.0107016 0.014608 0)
(0.00996037 0.0151368 0)
(0.00912519 0.0157084 0)
(0.0082128 0.0163257 0)
(0.00724086 0.0169915 0)
(0.00622754 0.0177083 0)
(0.00519119 0.0184788 0)
(0.00414994 0.0193048 0)
(0.00312135 0.0201881 0)
(0.00212206 0.0211293 0)
(0.00116747 0.0221286 0)
(0.000271449 0.0231849 0)
(-0.000553858 0.024296 0)
(-0.00129826 0.0254585 0)
(-0.00195361 0.0266675 0)
(-0.00251392 0.0279165 0)
(-0.00297531 0.0291976 0)
(-0.00333599 0.0305011 0)
(-0.00359615 0.0318161 0)
(-0.00375779 0.0331299 0)
(-0.00382454 0.0344286 0)
(-0.0038014 0.0356975 0)
(-0.00369452 0.0369208 0)
(-0.00351094 0.0380824 0)
(-0.00325835 0.039166 0)
(-0.00294483 0.0401557 0)
(-0.00257872 0.0410364 0)
(-0.00216839 0.0417941 0)
(-0.0017222 0.0424163 0)
(-0.00124861 0.0428927 0)
(-0.000757584 0.043215 0)
(-0.000254567 0.0433774 0)
(0.000748988 0.010093 0)
(0.002236 0.0101178 0)
(0.00369162 0.0101676 0)
(0.00509605 0.0102424 0)
(0.0064295 0.0103422 0)
(0.00767383 0.0104673 0)
(0.00881243 0.0106179 0)
(0.00983053 0.0107944 0)
(0.0107155 0.0109974 0)
(0.0114569 0.0112275 0)
(0.0120468 0.0114858 0)
(0.01248 0.0117732 0)
(0.0127539 0.0120914 0)
(0.0128687 0.012442 0)
(0.012827 0.012827 0)
(0.0126344 0.0132488 0)
(0.0122987 0.01371 0)
(0.0118302 0.0142136 0)
(0.0112412 0.0147629 0)
(0.0105459 0.0153612 0)
(0.00975967 0.0160122 0)
(0.00889947 0.0167196 0)
(0.00798282 0.0174869 0)
(0.0070277 0.0183177 0)
(0.00605211 0.0192152 0)
(0.00507367 0.020182 0)
(0.00410926 0.0212201 0)
(0.00317468 0.0223309 0)
(0.0022843 0.0235143 0)
(0.00145081 0.0247695 0)
(0.000684968 0.0260938 0)
(-4.53608e-06 0.0274832 0)
(-0.000611194 0.0289317 0)
(-0.00113071 0.0304318 0)
(-0.00156096 0.0319736 0)
(-0.00190188 0.0335456 0)
(-0.00215532 0.0351342 0)
(-0.00232481 0.036724 0)
(-0.00241527 0.038298 0)
(-0.00243274 0.039838 0)
(-0.0023841 0.0413245 0)
(-0.00227669 0.0427377 0)
(-0.00211807 0.0440574 0)
(-0.00191577 0.0452638 0)
(-0.00167705 0.0463382 0)
(-0.00140876 0.0472632 0)
(-0.0011173 0.0480232 0)
(-0.000808777 0.0486053 0)
(-0.000490609 0.0489993 0)
(-0.000165107 0.0491978 0)
(0.000761599 0.00972708 0)
(0.00227391 0.00975263 0)
(0.00375493 0.00980393 0)
(0.00518487 0.00988105 0)
(0.00654406 0.00998427 0)
(0.00781447 0.010114 0)
(0.00897961 0.0102707 0)
(0.0100249 0.0104552 0)
(0.0109378 0.0106684 0)
(0.0117082 0.0109114 0)
(0.0123285 0.0111856 0)
(0.0127936 0.0114928 0)
(0.0131013 0.0118349 0)
(0.0132519 0.0122146 0)
(0.0132488 0.0126344 0)
(0.0130976 0.0130976 0)
(0.0128065 0.0136077 0)
(0.0123862 0.0141685 0)
(0.0118492 0.0147844 0)
(0.0112097 0.0154596 0)
(0.0104836 0.016199 0)
(0.00968751 0.017007 0)
(0.00883902 0.0178885 0)
(0.0079558 0.0188477 0)
(0.00705542 0.0198889 0)
(0.00615487 0.0210154 0)
(0.00527024 0.0222301 0)
(0.00441627 0.0235345 0)
(0.00360609 0.024929 0)
(0.00285091 0.0264127 0)
(0.00215983 0.0279827 0)
(0.00153969 0.0296342 0)
(0.000995004 0.0313603 0)
(0.000527954 0.0331518 0)
(0.000138507 0.0349972 0)
(-0.000175432 0.0368823 0)
(-0.000417771 0.0387908 0)
(-0.000593935 0.040704 0)
(-0.000710512 0.0426013 0)
(-0.000774881 0.0444601 0)
(-0.000794814 0.0462569 0)
(-0.000778104 0.0479671 0)
(-0.000732214 0.0495658 0)
(-0.000663981 0.0510289 0)
(-0.000579391 0.0523329 0)
(-0.000483435 0.0534563 0)
(-0.00038008 0.05438 0)
(-0.000272525 0.0550878 0)
(-0.000165023 0.055567 0)
(-5.59909e-05 0.0558085 0)
(0.000774544 0.00921406 0)
(0.00231285 0.00924024 0)
(0.00382004 0.00929281 0)
(0.00527639 0.009372 0)
(0.00666244 0.00947827 0)
(0.0079603 0.00961225 0)
(0.00915368 0.00977479 0)
(0.0102282 0.00996698 0)
(0.0111716 0.0101902 0)
(0.011974 0.010446 0)
(0.0126282 0.0107365 0)
(0.0131294 0.011064 0)
(0.0134757 0.0114313 0)
(0.0136681 0.0118417 0)
(0.01371 0.0122987 0)
(0.0136077 0.0128065 0)
(0.0133697 0.0133697 0)
(0.013007 0.0139931 0)
(0.0125324 0.0146821 0)
(0.0119604 0.0154424 0)
(0.011307 0.0162797 0)
(0.010589 0.0172 0)
(0.00982354 0.0182091 0)
(0.00902814 0.0193127 0)
(0.00821982 0.0205158 0)
(0.00741484 0.0218229 0)
(0.00662827 0.0232376 0)
(0.00587364 0.0247622 0)
(0.00516256 0.0263976 0)
(0.00450446 0.0281426 0)
(0.00390644 0.0299943 0)
(0.00337308 0.0319472 0)
(0.00290645 0.0339933 0)
(0.00250615 0.0361217 0)
(0.0021695 0.0383187 0)
(0.00189174 0.0405675 0)
(0.0016664 0.0428485 0)
(0.00148566 0.0451392 0)
(0.00134085 0.0474144 0)
(0.0012229 0.049647 0)
(0.00112283 0.0518081 0)
(0.00103225 0.0538677 0)
(0.000943749 0.0557954 0)
(0.00085128 0.0575613 0)
(0.000750382 0.0591367 0)
(0.000638335 0.060495 0)
(0.000514144 0.0616126 0)
(0.000378196 0.0624693 0)
(0.000230175 0.0630496 0)
(7.64762e-05 0.0633422 0)
(0.000787772 0.00856251 0)
(0.00235266 0.0085892 0)
(0.0038867 0.00864287 0)
(0.00537033 0.00872389 0)
(0.00678431 0.00883291 0)
(0.00811099 0.00897085 0)
(0.00933434 0.0091389 0)
(0.0104403 0.00933857 0)
(0.0114168 0.00957171 0)
(0.0122545 0.00984057 0)
(0.0129465 0.0101478 0)
(0.0134884 0.0104965 0)
(0.0138789 0.0108903 0)
(0.0141193 0.0113333 0)
(0.0142136 0.0118302 0)
(0.0141685 0.0123862 0)
(0.0139931 0.013007 0)
(0.0136987 0.0136987 0)
(0.0132985 0.014468 0)
(0.0128073 0.0153219 0)
(0.0122412 0.0162677 0)
(0.0116169 0.0173126 0)
(0.0109517 0.018464 0)
(0.0102624 0.0197288 0)
(0.00956566 0.0211135 0)
(0.00887673 0.0226238 0)
(0.00820957 0.0242643 0)
(0.0075762 0.0260381 0)
(0.00698645 0.0279466 0)
(0.00644764 0.0299891 0)
(0.00596442 0.0321622 0)
(0.00553867 0.03446 0)
(0.0051695 0.0368733 0)
(0.00485337 0.0393893 0)
(0.00458435 0.041992 0)
(0.0043544 0.0446616 0)
(0.00415386 0.0473746 0)
(0.00397195 0.050104 0)
(0.00379735 0.0528198 0)
(0.00361883 0.055489 0)
(0.00342585 0.0580766 0)
(0.00320919 0.0605461 0)
(0.00296141 0.0628604 0)
(0.00267734 0.0649829 0)
(0.00235433 0.0668783 0)
(0.00199241 0.068514 0)
(0.0015942 0.0698606 0)
(0.0011645 0.0708936 0)
(0.000707865 0.0715935 0)
(0.000236622 0.0719466 0)
(0.000801239 0.00778313 0)
(0.00239321 0.00781027 0)
(0.00395472 0.00786488 0)
(0.00546643 0.00794752 0)
(0.0069094 0.00805905 0)
(0.00826629 0.00820072 0)
(0.0095214 0.0083741 0)
(0.010661 0.00858117 0)
(0.0116736 0.00882434 0)
(0.0125501 0.00910651 0)
(0.0132841 0.00943106 0)
(0.0138719 0.00980196 0)
(0.0143126 0.0102238 0)
(0.014608 0.0107016 0)
(0.0147629 0.0112412 0)
(0.0147844 0.0118492 0)
(0.0146821 0.0125324 0)
(0.014468 0.0132985 0)
(0.0141556 0.0141556 0)
(0.0137601 0.0151124 0)
(0.0132977 0.0161776 0)
(0.0127853 0.0173603 0)
(0.0122397 0.0186694 0)
(0.0116776 0.0201136 0)
(0.0111148 0.021701 0)
(0.0105656 0.0234387 0)
(0.0100426 0.0253325 0)
(0.00955597 0.0273869 0)
(0.00911354 0.0296038 0)
(0.00872011 0.0319831 0)
(0.00837742 0.0345213 0)
(0.00808411 0.0372119 0)
(0.00783572 0.0400445 0)
(0.00762492 0.0430047 0)
(0.00744179 0.0460735 0)
(0.00727429 0.0492278 0)
(0.00710882 0.05244 0)
(0.00693088 0.0556778 0)
(0.00672584 0.0589053 0)
(0.00647971 0.062083 0)
(0.00617991 0.0651686 0)
(0.00581605 0.0681177 0)
(0.00538055 0.0708854 0)
(0.0048692 0.0734268 0)
(0.00428145 0.0756988 0)
(0.00362064 0.0776613 0)
(0.00289379 0.0792784 0)
(0.0021111 0.0805195 0)
(0.00128314 0.0813608 0)
(0.000429521 0.0817854 0)
(0.00081491 0.00688866 0)
(0.00243441 0.00691618 0)
(0.00402395 0.00697163 0)
(0.0055645 0.00705572 0)
(0.00703751 0.0071696 0)
(0.00842603 0.00731484 0)
(0.00971479 0.00749344 0)
(0.0108905 0.00770791 0)
(0.0119422 0.00796129 0)
(0.0128613 0.00825717 0)
(0.0136419 0.00859979 0)
(0.0142811 0.00899401 0)
(0.0147786 0.00944544 0)
(0.0151368 0.00996037 0)
(0.0153612 0.0105459 0)
(0.0154596 0.0112097 0)
(0.0154424 0.0119604 0)
(0.0153219 0.0128073 0)
(0.0151124 0.0137601 0)
(0.0148293 0.0148293 0)
(0.0144891 0.0160255 0)
(0.0141088 0.0173598 0)
(0.013705 0.018843 0)
(0.013294 0.0204857 0)
(0.0128907 0.0222979 0)
(0.0125083 0.0242887 0)
(0.0121578 0.0264654 0)
(0.0118475 0.0288339 0)
(0.0115827 0.0313972 0)
(0.0113651 0.0341558 0)
(0.0111933 0.0371066 0)
(0.0110619 0.0402425 0)
(0.0109622 0.043552 0)
(0.0108823 0.0470186 0)
(0.0108075 0.0506209 0)
(0.0107208 0.0543316 0)
(0.0106038 0.0581184 0)
(0.0104373 0.0619434 0)
(0.0102026 0.0657637 0)
(0.00988207 0.069532 0)
(0.00946053 0.0731975 0)
(0.00892598 0.0767067 0)
(0.00827048 0.0800049 0)
(0.0074908 0.0830377 0)
(0.00658888 0.0857523 0)
(0.00557195 0.0880995 0)
(0.00445239 0.0900353 0)
(0.00324698 0.091522 0)
(0.0019737 0.0925303 0)
(0.00066113 0.0930393 0)
(0.000828758 0.00589363 0)
(0.00247618 0.00592148 0)
(0.00409426 0.00597767 0)
(0.0056644 0.00606311 0)
(0.00716852 0.00617922 0)
(0.00859013 0.00632793 0)
(0.00991448 0.00651174 0)
(0.0111289 0.00673371 0)
(0.0122229 0.00699755 0)
(0.0131886 0.00730766 0)
(0.014021 0.00766916 0)
(0.0147176 0.00808796 0)
(0.0152789 0.00857077 0)
(0.0157084 0.00912519 0)
(0.0160122 0.00975967 0)
(0.016199 0.0104836 0)
(0.0162797 0.011307 0)
(0.0162677 0.0122412 0)
(0.0161776 0.0132977 0)
(0.0160255 0.0144891 0)
(0.0158282 0.0158282 0)
(0.0156027 0.0173282 0)
(0.0153656 0.0190023 0)
(0.0151326 0.0208635 0)
(0.0149178 0.0229238 0)
(0.0147331 0.0251946 0)
(0.0145877 0.0276854 0)
(0.0144878 0.0304035 0)
(0.0144355 0.0333538 0)
(0.0144295 0.0365375 0)
(0.0144641 0.0399522 0)
(0.0145295 0.0435903 0)
(0.0146118 0.0474396 0)
(0.0146938 0.0514816 0)
(0.0147548 0.0556917 0)
(0.0147719 0.0600388 0)
(0.0147206 0.0644851 0)
(0.0145761 0.0689861 0)
(0.0143145 0.0734911 0)
(0.0139135 0.0779438 0)
(0.0133546 0.0822833 0)
(0.0126235 0.0864452 0)
(0.0117115 0.0903635 0)
(0.0106166 0.0939718 0)
(0.00934329 0.0972059 0)
(0.00790359 0.100006 0)
(0.00631628 0.102317 0)
(0.00460619 0.104093 0)
(0.00280039 0.105299 0)
(0.00093846 0.105907 0)
(0.000842764 0.0048141 0)
(0.00251845 0.00484225 0)
(0.00416557 0.00489912 0)
(0.00576604 0.00498583 0)
(0.00730234 0.00510411 0)
(0.00875855 0.00525628 0)
(0.0101206 0.00544533 0)
(0.0113763 0.00567497 0)
(0.0125161 0.00594962 0)
(0.0135329 0.00627453 0)
(0.0144222 0.0066558 0)
(0.0151827 0.00710046 0)
(0.0158158 0.00761647 0)
(0.0163257 0.0082128 0)
(0.0167196 0.00889947 0)
(0.017007 0.00968751 0)
(0.0172 0.010589 0)
(0.0173126 0.0116169 0)
(0.0173603 0.0127853 0)
(0.0173598 0.0141088 0)
(0.0173282 0.0156027 0)
(0.0172829 0.0172829 0)
(0.0172402 0.0191651 0)
(0.0172155 0.0212649 0)
(0.0172218 0.0235973 0)
(0.0172698 0.0261761 0)
(0.0173667 0.0290133 0)
(0.0175159 0.0321185 0)
(0.0177167 0.0354985 0)
(0.0179635 0.0391561 0)
(0.0182461 0.0430895 0)
(0.0185493 0.0472916 0)
(0.0188534 0.051749 0)
(0.0191344 0.0564416 0)
(0.0193648 0.0613418 0)
(0.0195142 0.0664141 0)
(0.0195511 0.0716147 0)
(0.0194433 0.0768917 0)
(0.0191603 0.0821856 0)
(0.0186743 0.0874297 0)
(0.017962 0.0925511 0)
(0.0170062 0.0974728 0)
(0.0157971 0.102115 0)
(0.0143332 0.106397 0)
(0.0126227 0.11024 0)
(0.0106827 0.113572 0)
(0.0085399 0.116325 0)
(0.00622881 0.118443 0)
(0.00378777 0.119881 0)
(0.00126978 0.120607 0)
(0.000856913 0.00366743 0)
(0.0025612 0.00369586 0)
(0.00423784 0.00375338 0)
(0.00586939 0.00384133 0)
(0.00743896 0.00396176 0)
(0.00893135 0.00411741 0)
(0.0103332 0.00431181 0)
(0.0116331 0.00454933 0)
(0.0128224 0.00483517 0)
(0.0138948 0.00517549 0)
(0.0148469 0.00557745 0)
(0.0156782 0.00604925 0)
(0.0163913 0.00660023 0)
(0.0169915 0.00724086 0)
(0.0174869 0.00798282 0)
(0.0178885 0.00883902 0)
(0.0182091 0.00982354 0)
(0.018464 0.0109517 0)
(0.0186694 0.0122397 0)
(0.018843 0.013705 0)
(0.0190023 0.0153656 0)
(0.0191651 0.0172402 0)
(0.0193477 0.0193477 0)
(0.0195649 0.0217067 0)
(0.019829 0.0243354 0)
(0.020149 0.0272506 0)
(0.0205302 0.0304675 0)
(0.020973 0.0339986 0)
(0.0214731 0.0378531 0)
(0.0220205 0.0420357 0)
(0.0225995 0.0465462 0)
(0.0231889 0.051378 0)
(0.0237619 0.0565175 0)
(0.0242867 0.0619428 0)
(0.0247273 0.0676233 0)
(0.0250447 0.0735189 0)
(0.0251982 0.0795795 0)
(0.0251471 0.085745 0)
(0.0248524 0.0919458 0)
(0.024279 0.098103 0)
(0.0233977 0.10413 0)
(0.0221871 0.109935 0)
(0.0206354 0.115421 0)
(0.0187421 0.120491 0)
(0.0165185 0.125049 0)
(0.0139883 0.129006 0)
(0.0111874 0.13228 0)
(0.00816223 0.134801 0)
(0.00496488 0.136514 0)
(0.00166488 0.137379 0)
(0.0008712 0.00247199 0)
(0.00260441 0.0025007 0)
(0.00431104 0.00255885 0)