/*--------------------------------*- C++ -*----------------------------------*\
| =========                 |                                                 |
| \\      /  F ield         | OpenFOAM: The Open Source CFD Toolbox           |
|  \\    /   O peration     | Version:  2406                                  |
|   \\  /    A nd           | Website:  www.openfoam.com                      |
|    \\/     M anipulation  |                                                 |
\*---------------------------------------------------------------------------*/
FoamFile
{
    version     2.0;
    format      ascii;
    arch        "LSB;label=32;scalar=64";
    class       volScalarField;
    location    "0.7";
    object      gradTy;
}
// * * * * * * * * * * * * * * * * * * * * * * * * * * * * * * * * * * * * * //

dimensions      [0 -1 0 1 0 0 0];

internalField   nonuniform List<scalar> 
2500
(
0.00644255
0.00645338
0.00647689
0.0065115
0.00655699
0.006613
0.00667904
0.00675453
0.00683883
0.00693125
0.00703108
0.00713758
0.00725001
0.00736767
0.00748988
0.00761599
0.00774544
0.00787772
0.00801239
0.0081491
0.00828758
0.00842764
0.00856913
0.008712
0.00885622
0.00900181
0.00914879
0.00929717
0.00944693
0.00959802
0.00975029
0.00990352
0.0100574
0.0102113
0.0103649
0.0105172
0.0106675
0.0108148
0.0109578
0.0110955
0.0112265
0.0113495
0.0114631
0.0115661
0.0116572
0.0117352
0.0117994
0.0118489
0.0118821
0.0118937
0.0192144
0.0192488
0.019319
0.0194228
0.0195593
0.0197274
0.0199255
0.020152
0.020405
0.0206823
0.020982
0.0213017
0.0216393
0.0219928
0.02236
0.0227391
0.0231285
0.0235266
0.0239321
0.0243441
0.0247618
0.0251845
0.025612
0.0260441
0.0264806
0.0269218
0.0273676
0.0278181
0.0282732
0.0287329
0.0291965
0.0296634
0.0301326
0.0306026
0.0310715
0.0315371
0.0319967
0.0324471
0.032885
0.0333065
0.0337077
0.0340845
0.0344327
0.0347483
0.0350275
0.0352668
0.0354635
0.0356154
0.0357204
0.0357667
0.031687
0.0317452
0.0318611
0.0320329
0.0322592
0.0325379
0.0328666
0.0332425
0.0336624
0.0341231
0.0346211
0.0351529
0.0357149
0.0363038
0.0369162
0.0375493
0.0382004
0.038867
0.0395472
0.0402395
0.0409426
0.0416557
0.0423784
0.0431104
0.0438518
0.0446027
0.0453632
0.0461335
0.0469135
0.0477027
0.0485004
0.0493052
0.0501152
0.0509278
0.0517397
0.0525468
0.0533442
0.0541266
0.0548877
0.0556209
0.0563192
0.0569753
0.0575818
0.0581317
0.0586182
0.0590351
0.0593771
0.0596401
0.0598211
0.0599106
0.0436803
0.0437604
0.0439206
0.0441585
0.0444721
0.0448586
0.0453147
0.0458366
0.0464202
0.047061
0.0477543
0.0484954
0.0492798
0.0501029
0.0509605
0.0518487
0.0527639
0.0537033
0.0546643
0.055645
0.056644
0.0576604
0.0586939
0.0597442
0.0608116
0.0618964
0.0629989
0.0641193
0.0652573
0.0664123
0.0675829
0.0687671
0.0699618
0.0711628
0.072365
0.0735621
0.0747467
0.0759104
0.0770436
0.0781364
0.0791779
0.0801571
0.0810629
0.0818843
0.082611
0.0832335
0.0837433
0.0841335
0.0843981
0.0845312
0.0549965
0.055098
0.0553011
0.055603
0.0560012
0.0564923
0.0570722
0.0577363
0.0584797
0.0592968
0.0601822
0.0611301
0.062135
0.0631917
0.064295
0.0654406
0.0666244
0.0678431
0.069094
0.0703751
0.0716852
0.0730234
0.0743896
0.0757841
0.0772074
0.07866
0.0801426
0.0816554
0.0831979
0.0847693
0.0863673
0.0879889
0.0896294
0.0912829
0.0929419
0.0945971
0.0962379
0.0978521
0.0994263
0.100946
0.102396
0.10376
0.105022
0.106168
0.107182
0.10805
0.108761
0.109304
0.109671
0.109856
0.0654611
0.0655832
0.0658273
0.0661906
0.0666699
0.0672615
0.0679608
0.0687625
0.0696609
0.07065
0.0717234
0.0728749
0.0740983
0.0753879
0.0767383
0.0781447
0.079603
0.0811099
0.0826629
0.0842603
0.0859013
0.0875855
0.0893135
0.0910861
0.0929043
0.0947694
0.096682
0.0986426
0.100651
0.102704
0.104801
0.106936
0.109103
0.111293
0.113496
0.115699
0.117887
0.120043
0.122148
0.124184
0.126127
0.127958
0.129653
0.131193
0.132555
0.133723
0.134679
0.135409
0.135902
0.13615
0.0749128
0.0750543
0.0753374
0.0757589
0.0763154
0.0770029
0.0778164
0.0787503
0.0797983
0.0809542
0.0822112
0.0835627
0.0850026
0.0865249
0.0881243
0.0897961
0.0915368
0.0933434
0.095214
0.0971479
0.0991448
0.101206
0.103332
0.105525
0.107787
0.11012
0.112525
0.115003
0.117552
0.120172
0.122856
0.1256
0.128394
0.131226
0.134083
0.136945
0.139795
0.142607
0.145358
0.148021
0.150567
0.152967
0.155191
0.157212
0.159002
0.160536
0.161793
0.162752
0.1634
0.163727
0.0832063
0.0833661
0.0836858
0.0841619
0.0847912
0.0855694
0.0864914
0.0875513
0.0887431
0.0900602
0.091496
0.0930442
0.0946986
0.0964539
0.0983053
0.100249
0.102282
0.104403
0.10661
0.108905
0.111289
0.113763
0.116331
0.118997
0.121762
0.12463
0.127603
0.130682
0.133866
0.137151
0.140533
0.144001
0.147545
0.151148
0.154791
0.15845
0.1621
0.16571
0.169246
0.172673
0.175954
0.179049
0.181921
0.184532
0.186846
0.18883
0.190455
0.191696
0.192535
0.192957
0.0902149
0.0903916
0.0907452
0.0912723
0.0919695
0.0928327
0.093857
0.0950366
0.0963658
0.0978383
0.0994482
0.10119
0.103057
0.105047
0.107155
0.109378
0.111716
0.114168
0.116736
0.119422
0.122229
0.125161
0.128224
0.131423
0.134762
0.138245
0.141877
0.145656
0.149584
0.153655
0.157862
0.162193
0.166632
0.171159
0.175748
0.180369
0.184987
0.189562
0.194051
0.198407
0.202582
0.206526
0.210187
0.213519
0.216473
0.219007
0.221083
0.22267
0.223743
0.224282
0.095832
0.0960243
0.096409
0.096983
0.0977431
0.0986855
0.0998056
0.101098
0.102558
0.104181
0.10596
0.107892
0.109972
0.112198
0.114569
0.117082
0.11974
0.122545
0.125501
0.128613
0.131886
0.135329
0.138948
0.142752
0.146747
0.150939
0.155333
0.15993
0.16473
0.169726
0.17491
0.180265
0.185772
0.191404
0.197127
0.202903
0.208687
0.214427
0.220067
0.225548
0.230807
0.235779
0.240401
0.244608
0.248341
0.251546
0.254172
0.25618
0.257537
0.258221
0.0999734
0.10018
0.100593
0.101209
0.102027
0.103043
0.104252
0.105651
0.107236
0.109003
0.110947
0.113067
0.115361
0.117828
0.120468
0.123285
0.126282
0.129465
0.132841
0.136419
0.14021
0.144222
0.148469
0.15296
0.157706
0.162715
0.167993
0.173542
0.179363
0.185446
0.191782
0.19835
0.205124
0.21207
0.219147
0.226304
0.233484
0.240622
0.247647
0.254483
0.261049
0.267264
0.273045
0.278313
0.28299
0.287007
0.2903
0.292819
0.294522
0.29538
0.102578
0.102797
0.103235
0.103891
0.104761
0.105844
0.107136
0.108635
0.110339
0.112244
0.114351
0.116658
0.119166
0.121879
0.1248
0.127936
0.131294
0.134884
0.138719
0.142811
0.147176
0.151827
0.156782
0.162055
0.16766
0.173608
0.179908
0.186564
0.193575
0.200932
0.20862
0.216616
0.224888
0.233391
0.242074
0.250875
0.259719
0.268527
0.277209
0.285668
0.293803
0.30151
0.308687
0.315231
0.321045
0.326042
0.33014
0.333276
0.335397
0.336465
0.103609
0.103839
0.1043
0.10499
0.105908
0.107052
0.108421
0.110014
0.111831
0.113871
0.116137
0.118631
0.121359
0.124325
0.127539
0.131013
0.134757
0.138789
0.143126
0.147786
0.152789
0.158158
0.163913
0.170074
0.17666
0.183687
0.191166
0.199102
0.207495
0.216336
0.225606
0.235277
0.245308
0.255647
0.266228
0.276973
0.287792
0.298584
0.309237
0.319631
0.329639
0.339131
0.347977
0.356051
0.363229
0.369401
0.374466
0.378343
0.380966
0.382287
0.103055
0.103295
0.103776
0.104497
0.105457
0.106657
0.108097
0.109778
0.111703
0.113876
0.1163
0.118983
0.121934
0.125164
0.128687
0.132519
0.136681
0.141193
0.14608
0.151368
0.157084
0.163257
0.169915
0.177083
0.184788
0.193048
0.201881
0.211293
0.221286
0.231849
0.24296
0.254585
0.266675
0.279165
0.291976
0.305011
0.318161
0.331299
0.344286
0.356975
0.369208
0.380824
0.39166
0.401557
0.410364
0.417941
0.424163
0.428927
0.43215
0.433774
0.10093
0.101178
0.101676
0.102424
0.103422
0.104673
0.106179
0.107944
0.109974
0.112275
0.114858
0.117732
0.120914
0.12442
0.12827
0.132488
0.1371
0.142136
0.147629
0.153612
0.160122
0.167196
0.174869
0.183177
0.192152
0.20182
0.212201
0.223309
0.235143
0.247695
0.260938
0.274832
0.289317
0.304318
0.319736
0.335456
0.351342
0.36724
0.38298
0.39838
0.413245
0.427377
0.440574
0.452638
0.463382
0.472632
0.480232
0.486053
0.489993
0.491978
0.0972708
0.0975263
0.0980393
0.0988105
0.0998427
0.10114
0.102707
0.104552
0.106684
0.109114
0.111856
0.114928
0.118349
0.122146
0.126344
0.130976
0.136077
0.141685
0.147844
0.154596
0.16199
0.17007
0.178885
0.188477
0.198889
0.210154
0.222301
0.235345
0.24929
0.264127
0.279827
0.296342
0.313603
0.331518
0.349972
0.368823
0.387908
0.40704
0.426013
0.444601
0.462569
0.479671
0.495658
0.510289
0.523329
0.534563
0.5438
0.550878
0.55567
0.558085
0.0921406
0.0924024
0.0929281
0.09372
0.0947827
0.0961225
0.0977479
0.0996698
0.101902
0.10446
0.107365
0.11064
0.114313
0.118417
0.122987
0.128065
0.133697
0.139931
0.146821
0.154424
0.162797
0.172
0.182091
0.193127
0.205158
0.218229
0.232376
0.247622
0.263976
0.281426
0.299943
0.319472
0.339933
0.361217
0.383187
0.405675
0.428485
0.451392
0.474144
0.49647
0.518081
0.538677
0.557954
0.575613
0.591367
0.60495
0.616126
0.624693
0.630496
0.633422
0.0856251
0.085892
0.0864287
0.0872389
0.0883291
0.0897085
0.091389
0.0933857
0.0957171
0.0984057
0.101478
0.104965
0.108903
0.113333
0.118302
0.123862
0.13007
0.136987
0.14468
0.153219
0.162677
0.173126
0.18464
0.197288
0.211135
0.226238
0.242643
0.260381
0.279466
0.299891
0.321622
0.3446
0.368733
0.393893
0.41992
0.446616
0.473746
0.50104
0.528198
0.55489
0.580766
0.605461
0.628604
0.649829
0.668783
0.68514
0.698606
0.708936
0.715935
0.719466
0.0778313
0.0781027
0.0786488
0.0794752
0.0805905
0.0820072
0.083741
0.0858117
0.0882434
0.0910651
0.0943106
0.0980196
0.102238
0.107016
0.112412
0.118492
0.125324
0.132985
0.141556
0.151124
0.161776
0.173603
0.186694
0.201136
0.21701
0.234387
0.253325
0.273869
0.296038
0.319831
0.345213
0.372119
0.400445
0.430047
0.460735
0.492278
0.5244
0.556778
0.589053
0.62083
0.651686
0.681177
0.708854
0.734268
0.756988
0.776613
0.792784
0.805195
0.813608
0.817854
0.0688866
0.0691618
0.0697163
0.0705572
0.071696
0.0731484
0.0749344
0.0770791
0.0796129
0.0825717
0.0859979
0.0899401
0.0944544
0.0996037
0.105459
0.112097
0.119604
0.128073
0.137601
0.148293
0.160255
0.173598
0.18843
0.204857
0.222979
0.242887
0.264654
0.288339
0.313972
0.341558
0.371066
0.402425
0.43552
0.470186
0.506209
0.543316
0.581184
0.619434
0.657637
0.69532
0.731975
0.767067
0.800049
0.830377
0.857523
0.880995
0.900353
0.91522
0.925303
0.930393
0.0589363
0.0592148
0.0597767
0.0606311
0.0617922
0.0632793
0.0651174
0.0673371
0.0699755
0.0730766
0.0766916
0.0808796
0.0857077
0.0912519
0.0975967
0.104836
0.11307
0.122412
0.132977
0.144891
0.158282
0.173282
0.190023
0.208635
0.229238
0.251946
0.276854
0.304035
0.333538
0.365375
0.399522
0.435903
0.474396
0.514816
0.556917
0.600388
0.644851
0.689861
0.734911
0.779438
0.822833
0.864452
0.903635
0.939718
0.972059
1.00006
1.02317
1.04093
1.05299
1.05907
0.048141
0.0484225
0.0489912
0.0498583
0.0510411
0.0525628
0.0544533
0.0567497
0.0594962
0.0627453
0.066558
0.0710046
0.0761647
0.082128
0.0889947
0.0968751
0.10589
0.116169
0.127853
0.141088
0.156027
0.172829
0.191651
0.212649
0.235973
0.261761
0.290133
0.321185
0.354985
0.391561
0.430895
0.472916
0.51749
0.564416
0.613418
0.664141
0.716147
0.768917
0.821856
0.874297
0.925511
0.974728
1.02115
1.06397
1.1024
1.13572
1.16325
1.18443
1.19881
1.20607
0.0366743
0.0369586
0.0375338
0.0384133
0.0396176
0.0411741
0.0431181
0.0454933
0.0483517
0.0517549
0.0557745
0.0604925
0.0660023
0.0724086
0.0798282
0.0883902
0.0982354
0.109517
0.122397
0.13705
0.153656
0.172402
0.193477
0.217067
0.243354
0.272506
0.304675
0.339986
0.378531
0.420357
0.465462
0.51378
0.565175
0.619428
0.676233
0.735189
0.795795
0.85745
0.919458
0.98103
1.0413
1.09935
1.15421
1.20491
1.25049
1.29006
1.3228
1.34801
1.36514
1.37379
0.0247199
0.025007
0.0255885
0.0264804
0.0277063
0.0292982
0.0312971
0.0337534
0.0367277
0.040291
0.0445261
0.0495279
0.055404
0.0622754
0.070277
0.079558
0.0902814
0.102624
0.116776
0.13294
0.151326
0.172155
0.195649
0.222032
0.251521
0.284324
0.320627
0.360592
0.404341
0.451951
0.50344
0.558755
0.61776
0.680225
0.745817
0.814088
0.884469
0.956269
1.02868
1.10077
1.17152
1.23982
1.30452
1.36444
1.41841
1.46533
1.50421
1.53418
1.55455
1.56486
0.0124687
0.0127585
0.0133464
0.0142507
0.0154986
0.0171267
0.0191818
0.0217217
0.0248154
0.0285443
0.0330027
0.038299
0.0445559
0.0519119
0.0605211
0.0705542
0.0821982
0.0956566
0.111148
0.128907
0.149178
0.172218
0.19829
0.227657
0.260582
0.297314
0.338085
0.383099
0.43252
0.48646
0.544968
0.608011
0.675465
0.747093
0.822539
0.901308
0.982763
1.06612
1.15043
1.23462
1.31747
1.39768
1.47385
1.54454
1.60836
1.66395
1.71007
1.74567
1.76989
1.78215
0.000115346
0.000407912
0.00100229
0.00191932
0.00318959
0.00485459
0.00696723
0.0095926
0.0128087
0.0167073
0.0213951
0.0269942
0.0336435
0.0414994
0.0507367
0.0615487
0.0741484
0.0887673
0.105656
0.125083
0.147331
0.172698
0.20149
0.23402
0.270596
0.311523
0.357083
0.407533
0.463088
0.523909
0.590084
0.661614
0.738395
0.820195
0.90664
0.997196
1.09116
1.18763
1.28553
1.38362
1.48045
1.57447
1.664
1.74733
1.82272
1.88852
1.94321
1.98547
2.01426
2.02884
-0.0121444
-0.011849
-0.0112481
-0.0103182
-0.00902524
-0.00732287
-0.00515203
-0.00244008
0.000900078
0.00497096
0.0098916
0.0157987
0.0228476
0.0312135
0.0410926
0.0527024
0.0662827
0.0820957
0.100426
0.121578
0.145877
0.173667
0.205302
0.241147
0.28157
0.326932
0.37758
0.433834
0.495971
0.564212
0.638703
0.719492
0.806508
0.899538
0.998203
1.10194
1.20997
1.3213
1.4347
1.54871
1.66167
1.77171
1.87684
1.97496
2.06397
2.14184
2.20669
2.25688
2.29111
2.30845
-0.0241171
-0.023819
-0.0232115
-0.0222687
-0.0209531
-0.0192134
-0.0169845
-0.0141861
-0.0107219
-0.00647872
-0.00132482
0.00489113
0.0123414
0.0212206
0.0317468
0.0441627
0.0587364
0.075762
0.0955597
0.118475
0.144878
0.175159
0.20973
0.249015
0.293444
0.343449
0.399449
0.46184
0.530976
0.607155
0.690595
0.78141
0.879583
0.984938
1.09711
1.21551
1.33932
1.46742
1.59844
1.7307
1.86225
1.99088
2.11421
2.2297
2.33479
2.42695
2.50387
2.56351
2.60424
2.62489
-0.0356148
-0.035314
-0.0347
-0.0337448
-0.032407
-0.0306309
-0.0283451
-0.0254619
-0.0218761
-0.0174636
-0.01208
-0.00555952
0.00228733
0.0116747
0.022843
0.0360609
0.0516256
0.0698645
0.0911354
0.115827
0.144355
0.177167
0.214731
0.257538
0.306091
0.360899
0.422466
0.491278
0.567782
0.65237
0.745356
0.84694
0.957186
1.07598
1.20299
1.33764
1.47905
1.62604
1.77704
1.93016
2.08313
2.23335
2.37795
2.51387
2.63796
2.74712
2.83844
2.9094
2.95791
2.98253
-0.0464577
-0.0461544
-0.0455345
-0.0445675
-0.0432088
-0.0413981
-0.0390581
-0.036094
-0.0323915
-0.0278163
-0.0222116
-0.015397
-0.00716615
0.00271449
0.0145081
0.0285091
0.0450446
0.0644764
0.0872011
0.113651
0.144295
0.179635
0.220205
0.266567
0.319304
0.379015
0.4463
0.521747
0.605919
0.699322
0.802387
0.915433
1.03863
1.17196
1.31517
1.46771
1.62869
1.79684
1.97047
2.1474
2.32504
2.50033
2.66983
2.82982
2.97646
3.10588
3.21447
3.29902
3.35693
3.38635
-0.0564773
-0.0561718
-0.0555467
-0.0545693
-0.0531918
-0.0513496
-0.04896
-0.045921
-0.0421103
-0.0373833
-0.0315713
-0.02448
-0.0158867
-0.00553858
0.00684968
0.0215983
0.0390644
0.0596442
0.0837742
0.111933
0.144641
0.182461
0.225995
0.275884
0.332799
0.397435
0.470504
0.552715
0.644759
0.747285
0.860871
0.985985
1.12295
1.27187
1.43262
1.60473
1.78733
1.97912
2.17826
2.38234
2.58837
2.79278
2.99147
3.17993
3.3534
3.50711
3.63649
3.73748
3.80678
3.84202
-0.0655187
-0.0652116
-0.0645825
-0.0635968
-0.0622037
-0.0603347
-0.0579018
-0.0547969
-0.0508898
-0.0460265
-0.0400273
-0.0326846
-0.02376
-0.0129826
-4.53608e-05
0.0153969
0.0337308
0.0553867
0.0808411
0.110619
0.145295
0.185493
0.231889
0.285206
0.346209
0.415703
0.49452
0.583507
0.683508
0.795338
0.919754
1.05741
1.20883
1.37431
1.55388
1.74723
1.95357
2.17161
2.39943
2.63437
2.87306
3.11134
3.34432
3.56653
3.77209
3.95503
4.10958
4.23057
4.31375
4.35611
-0.0734433
-0.0731355
-0.0725042
-0.0715129
-0.0701085
-0.0682188
-0.0657515
-0.0625926
-0.0586049
-0.0536261
-0.0474663
-0.0399057
-0.0306917
-0.0195361
-0.00611194
0.00995004
0.0290645
0.051695
0.0783572
0.109622
0.146118
0.188534
0.237619
0.294182
0.35909
0.433263
0.51767
0.613309
0.721198
0.842348
0.97773
1.12824
1.29463
1.47746
1.67702
1.89319
2.1254
2.37242
2.63231
2.90226
3.17846
3.45613
3.72948
3.99185
4.23596
4.4543
4.63952
4.78499
4.88524
4.93636
-0.0801309
-0.0798234
-0.079192
-0.0781989
-0.0767887
-0.0748864
-0.0723957
-0.0691979
-0.0651497
-0.0600816
-0.0537947
-0.0460585
-0.0366079
-0.0251392
-0.0113071
0.00527954
0.0250615
0.0485337
0.0762492
0.108823
0.146938
0.191344
0.242867
0.302402
0.370924
0.449476
0.539169
0.641172
0.756697
0.886977
1.03324
1.19665
1.37829
1.57904
1.79952
2.03996
2.30006
2.57882
2.8744
3.18387
3.50309
3.82661
4.14758
4.45793
4.74861
5.01008
5.23295
5.40862
5.52998
5.59197
-0.0854812
-0.0851753
-0.0845467
-0.0835563
-0.0821473
-0.0802422
-0.0777417
-0.0745232
-0.0704388
-0.0653129
-0.0589394
-0.0510791
-0.0414558
-0.0297531
-0.0156096
0.00138507
0.021695
0.0458435
0.0744179
0.108075
0.147548
0.193648
0.247273
0.309409
0.381135
0.463623
0.558137
0.666024
0.788713
0.927685
1.08446
1.26054
1.45737
1.67627
1.91829
2.18413
2.47394
2.78712
3.12207
3.47595
3.84438
4.22124
4.59852
4.96644
5.3137
5.62813
5.89757
6.11079
6.25849
6.33406
-0.0894155
-0.0891129
-0.0884904
-0.0875083
-0.0861087
-0.0842123
-0.0817181
-0.0785005
-0.0744083
-0.0692616
-0.062849
-0.0549245
-0.0452038
-0.0333599
-0.0190188
-0.00175432
0.0189174
0.043544
0.0727429
0.107208
0.147719
0.195142
0.250447
0.314704
0.389098
0.474928
0.573614
0.686694
0.815822
0.962757
1.12934
1.31747
1.52903
1.76585
2.02956
2.3215
2.64244
2.99243
3.3704
3.77381
4.19828
4.63713
5.08113
5.51845
5.93493
6.31492
6.64246
6.90277
7.08362
7.17627
-0.0918779
-0.0915804
-0.0909679
-0.0900005
-0.0886197
-0.0867455
-0.0842758
-0.0810838
-0.0770163
-0.0718909
-0.0654932
-0.057573
-0.0478404
-0.0359615
-0.0215532
-0.00417771
0.016664
0.0415386
0.0710882
0.106038
0.147206
0.195511
0.251982
0.317772
0.394163
0.48258
0.584595
0.701939
0.836503
0.990336
1.16564
1.36473
1.59002
1.84396
2.12889
2.44694
2.79982
3.18848
3.61276
4.07085
4.55872
5.06944
5.59261
6.11402
6.61586
7.07774
7.4785
7.79841
8.02125
8.13558
-0.0928357
-0.0925454
-0.0919474
-0.091002
-0.0896505
-0.0878136
-0.0853889
-0.0822498
-0.078243
-0.0731858
-0.0668629
-0.0590228
-0.0493735
-0.0375779
-0.0232481
-0.00593935
0.0148566
0.0397195
0.0693088
0.104373
0.145761
0.194433
0.251471
0.318096
0.39568
0.485761
0.590058
0.710489
0.84918
1.00848
1.19095
1.3994
1.63681
1.90632
2.21115
2.55445
2.9391
3.36739
3.84053
4.35806
4.91694
5.51059
6.12772
6.75154
7.35961
7.92496
8.41896
8.81495
9.09135
9.23329
-0.0922802
-0.0919995
-0.0914209
-0.0905052
-0.0891948
-0.0874114
-0.085054
-0.0819976
-0.0780907
-0.0731524
-0.0669693
-0.0592917
-0.0498292
-0.0382454
-0.0241527
-0.00710512
0.0134085
0.0379735
0.0672584
0.102026
0.143145
0.191603
0.248524
0.315183
0.393024
0.483685
0.589013
0.711098
0.85229
1.01522
1.20285
1.41844
1.66561
1.94828
2.27065
2.63711
3.05203
3.51947
4.0427
4.6234
5.26057
5.94902
6.67748
7.4267
8.16838
8.86624
9.48043
9.97433
10.3193
10.4964
-0.0902264
-0.0899577
-0.0894037
-0.0885262
-0.0872694
-0.0855569
-0.0832905
-0.0803485
-0.0765829
-0.0718173
-0.065843
-0.0584153
-0.0492492
-0.038014
-0.0243274
-0.00774881
0.012229
0.0361883
0.0647971
0.0988207
0.139135
0.186743
0.24279
0.308587
0.385632
0.475634
0.580548
0.702606
0.844355
1.0087
1.19893
1.41881
1.67257
1.96496
2.30126
2.68727
3.12914
3.63323
4.20556
4.85109
5.57239
6.36753
7.2271
8.13051
9.04254
9.91312
10.6844
11.3051
11.7377
11.9594
-0.0867126
-0.0864587
-0.0859347
-0.0851043
-0.083914
-0.0822905
-0.0801398
-0.0773449
-0.0737638
-0.0692267
-0.0635325
-0.0564453
-0.0476896
-0.0369452
-0.023841
-0.00794814
0.0112283
0.0342585
0.0617991
0.0946053
0.133546
0.17962
0.233977
0.297939
0.37303
0.461003
0.563883
0.684005
0.824069
0.987195
1.17699
1.39764
1.65396
1.95151
2.2967
2.6968
3.16001
3.69539
4.31254
5.02101
5.82897
6.74076
7.75258
8.84587
9.97871
11.0802
12.0602
12.8453
13.3887
13.6656
-0.0818001
-0.0815635
-0.0810752
-0.0803009
-0.0791902
-0.0776742
-0.0756642
-0.0730498
-0.0696968
-0.0654447
-0.0601031
-0.0534483
-0.0452186
-0.0351094
-0.0227669
-0.00778104
0.0103225
0.0320919
0.0581605
0.0892598
0.126235
0.170062
0.221871
0.282969
0.354872
0.439341
0.538425
0.654512
0.790392
0.949335
1.13518
1.35244
1.60643
1.90345
2.25092
2.65759
3.13377
3.69148
4.34455
5.10839
5.99925
7.032
8.21515
9.54066
10.9656
12.3885
13.6509
14.6473
15.3266
15.6692
-0.0755717
-0.0753551
-0.0749079
-0.0741986
-0.0731807
-0.0717905
-0.069946
-0.0675449
-0.0644633
-0.060552
-0.0556346
-0.0495031
-0.0419141
-0.0325835
-0.0211807
-0.00732214
0.00943749
0.0296141
0.0538055
0.0827048
0.117115
0.157971
0.206354
0.263529
0.330968
0.410393
0.503825
0.613641
0.742645
0.894161
1.07214
1.28131
1.52733
1.81703
2.15865
2.56223
3.03997
3.6068
4.28093
5.08448
6.04391
7.18959
8.55257
10.1536
11.9724
13.8757
15.5262
16.785
17.62
18.0342
-0.0681304
-0.0679364
-0.0675356
-0.0669
-0.0659875
-0.0647407
-0.0630855
-0.0609297
-0.058161
-0.0546445
-0.0502203
-0.0446998
-0.037862
-0.0294483
-0.0191577
-0.00663981
0.0085128
0.0267734
0.048692
0.074908
0.106166
0.143332
0.187421
0.239616
0.301307
0.374131
0.46002
0.561264
0.680592
0.821268
0.987221
1.1832
1.415
1.68969
2.01602
2.40486
2.86982
3.42811
4.10171
4.91902
5.91715
7.14514
8.66759
10.565
12.9111
15.6324
17.8101
19.3635
20.3515
20.8306
-0.0595981
-0.0594289
-0.0590795
-0.0585256
-0.0577303
-0.0566435
-0.0552001
-0.0533192
-0.0509023
-0.0478309
-0.0439646
-0.0391372
-0.0331541
-0.0257872
-0.0167705
-0.00579391
0.00750382
0.0235433
0.0428145
0.0658888
0.0934329
0.126227
0.165185
0.21138
0.26608
0.330783
0.407269
0.497663
0.604516
0.730906
0.880572
1.05809
1.26908
1.52054
1.82124
2.18224
2.6177
3.14597
3.79112
4.58551
5.57373
6.81986
8.42162
10.542
13.4891
17.9477
20.7333
22.5227
23.607
24.1215
-0.0501132
-0.0499709
-0.0496772
-0.0492121
-0.0485448
-0.0476329
-0.0464215
-0.0448425
-0.0428125
-0.0402318
-0.0369816
-0.0329214
-0.0278866
-0.0216839
-0.0140876
-0.00483435
0.00638335
0.0199241
0.0362064
0.0557195
0.0790359
0.106827
0.139883
0.179134
0.225684
0.280842
0.346173
0.423556
0.51526
0.624042
0.753277
0.907126
1.09077
1.31069
1.57511
1.89456
2.28263
2.75719
3.34198
4.06924
4.98385
6.15074
7.66919
9.70454
12.5682
16.9488
19.6659
21.4
22.4457
22.9403
-0.0398291
-0.0397155
-0.0394805
-0.0391105
-0.0385805
-0.0378564
-0.0368946
-0.0356406
-0.0340281
-0.0319773
-0.0293935
-0.0261647
-0.022159
-0.017222
-0.011173
-0.0038008
0.00514144
0.015942
0.0289379
0.0445239
0.0631628
0.085399
0.111874
0.143347
0.180718
0.225064
0.277674
0.340103
0.414237
0.502383
0.60738
0.732754
0.882917
1.06344
1.28145
1.5461
1.86931
2.26676
2.7593
3.37485
4.15126
5.13991
6.40997
8.04915
10.141
12.6241
14.5922
15.9768
16.8465
17.2647
-0.0289114
-0.0288287
-0.0286544
-0.0283847
-0.0279997
-0.0274742
-0.0267763
-0.0258663
-0.0246959
-0.0232071
-0.0213307
-0.0189852
-0.0160746
-0.0124861
-0.00808777
-0.00272525
0.00378196
0.011645
0.021111
0.0324698
0.0460619
0.0622881
0.0816223
0.104626
0.131967
0.164446
0.203025
0.248867
0.303391
0.368335
0.445851
0.538622
0.650022
0.784336
0.947052
1.14526
1.38821
1.68801
2.06061
2.5269
3.11394
3.85542
4.7896
5.94922
7.33095
8.82291
10.1108
11.0771
11.7074
12.0162
-0.0175348
-0.0174899
-0.0173834
-0.0172193
-0.0169857
-0.0166672
-0.0162441
-0.0156925
-0.0149829
-0.0140801
-0.0129421
-0.0115194
-0.00975351
-0.00757584
-0.00490609
-0.00165023
0.00230175
0.00707865
0.0128314
0.019737
0.0280039
0.0378777
0.0496488
0.0636622
0.0803292
0.100143
0.123697
0.151713
0.18507
0.224851
0.272397
0.329389
0.397943
0.480756
0.581291
0.704025
0.85479
1.04119
1.27313
1.5633
1.92743
2.38365
2.94933
3.63284
4.41642
5.2317
5.95669
6.51962
6.89572
7.08249
-0.00587701
-0.0058654
-0.00583068
-0.00577584
-0.0056976
-0.00559092
-0.00544925
-0.00526453
-0.0050269
-0.00472456
-0.00434343
-0.00386686
-0.00327528
-0.00254567
-0.00165107
-0.000559909
0.000764762
0.00236622
0.00429521
0.0066113
0.0093846
0.0126978
0.0166488
0.021354
0.0269523
0.0336101
0.0415284
0.0509513
0.062177
0.0755729
0.0915954
0.110816
0.133956
0.161937
0.195941
0.237498
0.288598
0.351829
0.430535
0.528947
0.652179
0.805842
0.994754
1.22001
1.47389
1.73451
1.96849
2.15277
2.27729
2.33954
)
;

boundaryField
{
    walls
    {
        type            calculated;
        value           nonuniform List<scalar> 
200
(
0
0
0
0
0
0
0
0
0
0
0
0
0
0
0
0
0
0
0
0
0
0
0
0
0
0
0
0
0
0
0
0
0
0
0
0
0
0
0
0
0
0
0
0
0
0
0
0
0
0
0.00644255
0.0192144
0.031687
0.0436803
0.0549965
0.0654611
0.0749128
0.0832063
0.0902149
0.095832
0.0999734
0.102578
0.103609
0.103055
0.10093
0.0972708
0.0921406
0.0856251
0.0778313
0.0688866
0.0589363
0.048141
0.0366743
0.0247199
0.0124687
0.000115346
-0.0121444
-0.0241171
-0.0356148
-0.0464577
-0.0564773
-0.0655187
-0.0734433
-0.0801309
-0.0854812
-0.0894155
-0.0918779
-0.0928357
-0.0922802
-0.0902264
-0.0867126
-0.0818001
-0.0755717
-0.0681304
-0.0595981
-0.0501132
-0.0398291
-0.0289114
-0.0175348
-0.00587701
0.0118937
0.0357667
0.0599106
0.0845312
0.109856
0.13615
0.163727
0.192957
0.224282
0.258221
0.29538
0.336465
0.382287
0.433774
0.491978
0.558085
0.633422
0.719466
0.817854
0.930393
1.05907
1.20607
1.37379
1.56486
1.78215
2.02884
2.30845
2.62489
2.98253
3.38635
3.84202
4.35611
4.93636
5.59197
6.33406
7.17627
8.13558
9.23329
10.4964
11.9594
13.6656
15.6692
18.0342
20.8306
24.1215
22.9403
17.2647
12.0162
7.08249
2.33954
0
0
0
0
0
0
0
0
0
0
0
0
0
0
0
0
0
0
0
0
0
0
0
0
0
0
0
0
0
0
0
0
0
0
0
0
0
0
0
0
0
0
0
0
0
0
0
0
0
0
)
;
    }
    frontAndBack
    {
        type            empty;
    }
}


// ************************************************************************* //
