/*--------------------------------*- C++ -*----------------------------------*\
| =========                 |                                                 |
| \\      /  F ield         | OpenFOAM: The Open Source CFD Toolbox           |
|  \\    /   O peration     | Version:  2406                                  |
|   \\  /    A nd           | Website:  www.openfoam.com                      |
|    \\/     M anipulation  |                                                 |
\*---------------------------------------------------------------------------*/
FoamFile
{
    version     2.0;
    format      ascii;
    arch        "LSB;label=32;scalar=64";
    class       volScalarField;
    location    "0.7";
    object      T;
}
// * * * * * * * * * * * * * * * * * * * * * * * * * * * * * * * * * * * * * //

dimensions      [0 0 0 1 0 0 0];

internalField   nonuniform List<scalar> 
2500
(
0.159591
0.159849
0.160359
0.161116
0.162107
0.163316
0.164725
0.166312
0.168053
0.169921
0.171887
0.17392
0.17599
0.178064
0.180112
0.182102
0.184003
0.185787
0.187428
0.1889
0.190183
0.191258
0.192109
0.192725
0.193098
0.193224
0.193102
0.192738
0.192138
0.191313
0.190279
0.189054
0.187659
0.186116
0.184453
0.182697
0.180877
0.179022
0.177163
0.175331
0.173554
0.171862
0.170282
0.168839
0.167557
0.166456
0.165553
0.164862
0.164396
0.164161
0.159849
0.160107
0.160619
0.161377
0.162369
0.16358
0.164992
0.166583
0.168327
0.170198
0.172168
0.174206
0.17628
0.178359
0.180412
0.182406
0.184313
0.186102
0.187748
0.189226
0.190515
0.191595
0.192452
0.193073
0.193452
0.193584
0.193468
0.19311
0.192516
0.191697
0.190669
0.18945
0.188061
0.186525
0.184868
0.183118
0.181303
0.179455
0.177602
0.175775
0.174003
0.172316
0.170741
0.169302
0.168023
0.166925
0.166025
0.165336
0.164871
0.164637
0.160359
0.160619
0.161132
0.161893
0.162889
0.164105
0.165522
0.167119
0.16887
0.170748
0.172726
0.174772
0.176855
0.178944
0.181006
0.183011
0.184928
0.186728
0.188385
0.189874
0.191174
0.192265
0.193133
0.193767
0.194157
0.1943
0.194197
0.193851
0.193269
0.192463
0.191447
0.190241
0.188864
0.187341
0.185696
0.183959
0.182157
0.18032
0.178479
0.176663
0.174903
0.173226
0.17166
0.170229
0.168958
0.167866
0.166971
0.166287
0.165825
0.165592
0.161116
0.161377
0.161893
0.162658
0.163659
0.164882
0.166307
0.167912
0.169673
0.171563
0.173553
0.175612
0.177708
0.179811
0.181888
0.183908
0.185841
0.187657
0.18933
0.190836
0.192153
0.193261
0.194147
0.194798
0.195206
0.195368
0.195283
0.194955
0.194392
0.193605
0.192609
0.191422
0.190066
0.188562
0.186938
0.18522
0.183437
0.18162
0.179797
0.177999
0.176256
0.174595
0.173044
0.171627
0.170368
0.169286
0.1684
0.167722
0.167264
0.167033
0.162107
0.162369
0.162889
0.163659
0.164668
0.165899
0.167335
0.168952
0.170726
0.172631
0.174636
0.176712
0.178827
0.180948
0.183045
0.185085
0.187039
0.188876
0.190572
0.1921
0.19344
0.194572
0.195481
0.196156
0.196589
0.196776
0.196717
0.196415
0.195879
0.195119
0.194151
0.192991
0.191662
0.190187
0.188591
0.186901
0.185146
0.183356
0.18156
0.179789
0.17807
0.176432
0.174902
0.173505
0.172263
0.171196
0.170321
0.169652
0.169201
0.168973
0.163316
0.16358
0.164105
0.164882
0.165899
0.167142
0.16859
0.170222
0.172013
0.173935
0.17596
0.178057
0.180194
0.182339
0.18446
0.186526
0.188506
0.190371
0.192094
0.193651
0.19502
0.196182
0.197122
0.197829
0.198294
0.198514
0.198489
0.198221
0.19772
0.196996
0.196064
0.194942
0.193651
0.192213
0.190655
0.189004
0.187287
0.185534
0.183774
0.182037
0.180352
0.178746
0.177245
0.175874
0.174655
0.173608
0.17275
0.172094
0.171651
0.171427
0.164725
0.164992
0.165522
0.166307
0.167335
0.16859
0.170053
0.171703
0.173513
0.175457
0.177505
0.179627
0.18179
0.183964
0.186114
0.188211
0.190223
0.192121
0.193878
0.19547
0.196876
0.198075
0.199054
0.1998
0.200306
0.200567
0.200584
0.200361
0.199905
0.199227
0.198343
0.197269
0.196027
0.194639
0.193131
0.191529
0.189862
0.188158
0.186446
0.184756
0.183115
0.18155
0.180088
0.178752
0.177565
0.176544
0.175708
0.175069
0.174637
0.174419
0.166312
0.166583
0.167119
0.167912
0.168952
0.170222
0.171703
0.173372
0.175205
0.177173
0.179248
0.181399
0.183594
0.1858
0.187985
0.190118
0.192167
0.194104
0.195903
0.197537
0.198986
0.20023
0.201256
0.20205
0.202606
0.202919
0.20299
0.202821
0.202422
0.201803
0.200978
0.199966
0.198786
0.197462
0.196019
0.194481
0.192879
0.191238
0.189589
0.187958
0.186375
0.184864
0.183453
0.182163
0.181015
0.18003
0.179222
0.178604
0.178187
0.177976
0.168053
0.168327
0.16887
0.169673
0.170726
0.172013
0.173513
0.175205
0.177063
0.179059
0.181165
0.183349
0.185578
0.187822
0.190047
0.192221
0.194314
0.196297
0.198143
0.199827
0.201327
0.202626
0.203707
0.20456
0.205176
0.205552
0.205688
0.205588
0.20526
0.204713
0.203964
0.203029
0.201928
0.200685
0.199322
0.197867
0.196346
0.194786
0.193216
0.191663
0.190153
0.188712
0.187365
0.186134
0.185039
0.184098
0.183326
0.182737
0.182338
0.182137
0.169921
0.170198
0.170748
0.171563
0.172631
0.173935
0.175457
0.177173
0.179059
0.181087
0.183226
0.185447
0.187716
0.190002
0.192271
0.194493
0.196636
0.198671
0.200572
0.202314
0.203875
0.205237
0.206385
0.207307
0.207996
0.208449
0.208665
0.208648
0.208405
0.207949
0.207293
0.206454
0.205452
0.204309
0.203048
0.201696
0.200278
0.198821
0.197351
0.195894
0.194478
0.193125
0.19186
0.190703
0.189674
0.18879
0.188065
0.187511
0.187137
0.186948
0.171887
0.172168
0.172726
0.173553
0.174636
0.17596
0.177505
0.179248
0.181165
0.183226
0.185403
0.187664
0.189977
0.19231
0.194629
0.196904
0.199104
0.201199
0.203163
0.204971
0.206603
0.208039
0.209265
0.21027
0.211046
0.21159
0.211902
0.211986
0.211849
0.211502
0.21096
0.210239
0.209359
0.208341
0.207207
0.205983
0.204693
0.203364
0.202019
0.200685
0.199385
0.198143
0.196981
0.195918
0.194972
0.194159
0.193493
0.192984
0.19264
0.192466
0.17392
0.174206
0.174772
0.175612
0.176712
0.178057
0.179627
0.181399
0.183349
0.185447
0.187664
0.18997
0.192331
0.194715
0.19709
0.199424
0.201687
0.20385
0.205886
0.207771
0.209483
0.211006
0.212323
0.213425
0.214305
0.214957
0.215384
0.215589
0.21558
0.215367
0.214964
0.214388
0.213657
0.212792
0.211814
0.210748
0.209617
0.208445
0.207256
0.206074
0.20492
0.203816
0.202782
0.201836
0.200994
0.20027
0.199677
0.199224
0.198918
0.198763
0.17599
0.17628
0.176855
0.177708
0.178827
0.180194
0.18179
0.183594
0.185578
0.187716
0.189977
0.192331
0.194744
0.197185
0.199621
0.202022
0.204355
0.206594
0.208711
0.210684
0.21249
0.214112
0.215536
0.216752
0.217752
0.218534
0.219098
0.219448
0.219592
0.21954
0.219305
0.218904
0.218355
0.217676
0.21689
0.216018
0.215082
0.214105
0.213107
0.212111
0.211137
0.210204
0.209329
0.208527
0.207814
0.207201
0.206699
0.206315
0.206056
0.205925
0.178064
0.178359
0.178944
0.179811
0.180948
0.182339
0.183964
0.1858
0.187822
0.190002
0.19231
0.194715
0.197185
0.199688
0.202192
0.204665
0.207077
0.209401
0.211611
0.213682
0.215595
0.217332
0.21888
0.220228
0.221371
0.222305
0.223031
0.223553
0.22388
0.22402
0.223988
0.223799
0.223469
0.223017
0.222463
0.221827
0.221129
0.220389
0.219626
0.218859
0.218105
0.217381
0.216701
0.216078
0.215523
0.215046
0.214656
0.214357
0.214156
0.214054
0.180112
0.180412
0.181006
0.181888
0.183045
0.18446
0.186114
0.187985
0.190047
0.192271
0.194629
0.19709
0.199621
0.202192
0.204769
0.207322
0.209823
0.212242
0.214555
0.216738
0.218773
0.220642
0.222333
0.223835
0.225144
0.226256
0.227173
0.2279
0.228443
0.228814
0.229024
0.229088
0.229022
0.228843
0.228569
0.228219
0.227809
0.227357
0.226879
0.22639
0.225906
0.225437
0.224995
0.22459
0.224229
0.223919
0.223665
0.223472
0.223342
0.223276
0.182102
0.182406
0.183011
0.183908
0.185085
0.186526
0.188211
0.190118
0.192221
0.194493
0.196904
0.199424
0.202022
0.204665
0.207322
0.209964
0.212561
0.215087
0.217516
0.219826
0.222
0.22402
0.225875
0.227555
0.229057
0.230378
0.231519
0.232486
0.233285
0.233928
0.234426
0.234792
0.235042
0.23519
0.235253
0.235246
0.235183
0.235078
0.234945
0.234794
0.234635
0.234476
0.234324
0.234183
0.234058
0.233952
0.233865
0.2338
0.233756
0.233734
0.184003
0.184313
0.184928
0.185841
0.187039
0.188506
0.190223
0.192167
0.194314
0.196636
0.199104
0.201687
0.204355
0.207077
0.209823
0.212561
0.215266
0.217909
0.220468
0.222922
0.225253
0.227445
0.229488
0.231374
0.233099
0.234662
0.236065
0.237314
0.238415
0.239379
0.240217
0.240941
0.241566
0.242104
0.242568
0.242972
0.243325
0.243638
0.243919
0.244175
0.244408
0.244624
0.244821
0.245001
0.245162
0.245301
0.245417
0.245507
0.245568
0.245599
0.185787
0.186102
0.186728
0.187657
0.188876
0.190371
0.192121
0.194104
0.196297
0.198671
0.201199
0.20385
0.206594
0.209401
0.212242
0.215087
0.217909
0.220684
0.223389
0.226003
0.228512
0.2309
0.233158
0.235281
0.237263
0.239107
0.240814
0.242391
0.243845
0.245185
0.246424
0.247571
0.248639
0.249639
0.25058
0.251473
0.252322
0.253134
0.253911
0.254653
0.255358
0.256023
0.256642
0.257208
0.257713
0.25815
0.25851
0.258787
0.258976
0.25907
0.187428
0.187748
0.188385
0.18933
0.190572
0.192094
0.193878
0.195903
0.198143
0.200572
0.203163
0.205886
0.208711
0.211611
0.214555
0.217516
0.220468
0.223389
0.226256
0.229051
0.23176
0.23437
0.236874
0.239266
0.241545
0.243712
0.245771
0.247729
0.249593
0.251374
0.253081
0.254725
0.256315
0.25786
0.259365
0.260836
0.262275
0.26368
0.265047
0.26637
0.267639
0.268842
0.269965
0.270994
0.271913
0.272707
0.273361
0.273864
0.274206
0.274378
0.1889
0.189226
0.189874
0.190836
0.1921
0.193651
0.19547
0.197537
0.199827
0.202314
0.204971
0.207771
0.210684
0.213682
0.216738
0.219826
0.222922
0.226003
0.229051
0.232048
0.234983
0.237844
0.240626
0.243326
0.245944
0.248482
0.250947
0.253345
0.255686
0.257978
0.260232
0.262456
0.264657
0.266841
0.26901
0.271164
0.273298
0.275405
0.277473
0.279486
0.281426
0.28327
0.284996
0.286579
0.287993
0.289214
0.290221
0.290995
0.29152
0.291785
0.190183
0.190515
0.191174
0.192153
0.19344
0.19502
0.196876
0.198986
0.201327
0.203875
0.206603
0.209483
0.21249
0.215595
0.218773
0.222
0.225253
0.228512
0.23176
0.234983
0.23817
0.241314
0.244411
0.24746
0.250464
0.253427
0.256357
0.259262
0.262152
0.265037
0.267924
0.270822
0.273736
0.276667
0.279613
0.282569
0.285522
0.288457
0.291353
0.294183
0.296918
0.299525
0.301967
0.304209
0.306214
0.307947
0.309376
0.310473
0.311218
0.311593
0.191258
0.191595
0.192265
0.193261
0.194572
0.196182
0.198075
0.20023
0.202626
0.205237
0.208039
0.211006
0.214112
0.217332
0.220642
0.22402
0.227445
0.2309
0.23437
0.237844
0.241314
0.244775
0.248227
0.251671
0.255113
0.25856
0.262021
0.265507
0.269028
0.272593
0.276213
0.279892
0.283633
0.287433
0.291286
0.295179
0.299092
0.303
0.306869
0.310664
0.314339
0.317849
0.321142
0.324167
0.326875
0.329216
0.331148
0.332632
0.33364
0.334147
0.192109
0.192452
0.193133
0.194147
0.195481
0.197122
0.199054
0.201256
0.203707
0.206385
0.209265
0.212323
0.215536
0.21888
0.222333
0.225875
0.229488
0.233158
0.236874
0.240626
0.244411
0.248227
0.252077
0.255966
0.259903
0.263898
0.267963
0.27211
0.276352
0.280699
0.28516
0.289739
0.294436
0.299244
0.30415
0.309135
0.314168
0.319214
0.324227
0.329155
0.333939
0.338514
0.342813
0.346768
0.35031
0.353375
0.355905
0.35785
0.35917
0.359836
0.192725
0.193073
0.193767
0.194798
0.196156
0.197829
0.1998
0.20205
0.20456
0.207307
0.21027
0.213425
0.216752
0.220228
0.223835
0.227555
0.231374
0.235281
0.239266
0.243326
0.24746
0.251671
0.255966
0.260354
0.264847
0.26946
0.274208
0.279106
0.284169
0.289408
0.294831
0.300443
0.30624
0.31221
0.318336
0.324587
0.330924
0.337298
0.343648
0.349905
0.355991
0.361823
0.36731
0.372364
0.376895
0.380819
0.38406
0.386553
0.388245
0.389099
0.193098
0.193452
0.194157
0.195206
0.196589
0.198294
0.200306
0.202606
0.205176
0.207996
0.211046
0.214305
0.217752
0.221371
0.225144
0.229057
0.233099
0.237263
0.241545
0.245944
0.250464
0.255113
0.259903
0.264847
0.269964
0.275271
0.280788
0.286533
0.292525
0.298777
0.305298
0.312089
0.319146
0.326453
0.333983
0.341698
0.349547
0.357465
0.365374
0.373186
0.380799
0.388107
0.394994
0.401345
0.407046
0.411989
0.416074
0.419217
0.421352
0.422431
0.193224
0.193584
0.1943
0.195368
0.196776
0.198514
0.200567
0.202919
0.205552
0.208449
0.21159
0.214957
0.218534
0.222305
0.226256
0.230378
0.234662
0.239107
0.243712
0.248482
0.253427
0.25856
0.263898
0.26946
0.275271
0.281353
0.287732
0.29443
0.30147
0.308866
0.31663
0.324764
0.333258
0.342094
0.351237
0.360639
0.370234
0.379942
0.389665
0.39929
0.40869
0.41773
0.426264
0.434145
0.441229
0.447377
0.452463
0.456379
0.459041
0.460385
0.193102
0.193468
0.194197
0.195283
0.196717
0.198489
0.200584
0.20299
0.205688
0.208665
0.211902
0.215384
0.219098
0.223031
0.227173
0.231519
0.236065
0.240814
0.245771
0.250947
0.256357
0.262021
0.267963
0.274208
0.280788
0.287732
0.295071
0.302835
0.311049
0.319733
0.328901
0.338554
0.348682
0.35926
0.370248
0.381586
0.393193
0.40497
0.416795
0.42853
0.440017
0.451086
0.461554
0.471239
0.479955
0.487529
0.493802
0.498636
0.501923
0.503584
0.192738
0.19311
0.193851
0.194955
0.196415
0.198221
0.200361
0.202821
0.205588
0.208648
0.211986
0.215589
0.219448
0.223553
0.2279
0.232486
0.237314
0.242391
0.247729
0.253345
0.259262
0.265507
0.27211
0.279106
0.286533
0.29443
0.302835
0.311784
0.321308
0.331435
0.342178
0.353543
0.365519
0.378076
0.391165
0.404717
0.418633
0.432794
0.447053
0.461238
0.475157
0.488598
0.501338
0.513144
0.523788
0.53305
0.54073
0.546655
0.550685
0.552723
0.192138
0.192516
0.193269
0.194392
0.195879
0.19772
0.199905
0.202422
0.20526
0.208405
0.211849
0.21558
0.219592
0.22388
0.228443
0.233285
0.238415
0.243845
0.249593
0.255686
0.262152
0.269028
0.276352
0.284169
0.292525
0.30147
0.311049
0.321308
0.332288
0.34402
0.356525
0.36981
0.383865
0.398658
0.414133
0.430206
0.446766
0.463667
0.480733
0.497758
0.514507
0.530721
0.546123
0.560427
0.573347
0.584607
0.593957
0.601177
0.606093
0.60858
0.191313
0.191697
0.192463
0.193605
0.195119
0.196996
0.199227
0.201803
0.204713
0.207949
0.211502
0.215367
0.21954
0.22402
0.228814
0.233928
0.239379
0.245185
0.251374
0.257978
0.265037
0.272593
0.280699
0.289408
0.298777
0.308866
0.319733
0.331435
0.34402
0.357529
0.371993
0.387421
0.403806
0.421115
0.439285
0.458222
0.477795
0.497836
0.518134
0.538445
0.558482
0.577932
0.596456
0.613699
0.629306
0.642935
0.654268
0.66303
0.669001
0.672024
0.190279
0.190669
0.191447
0.192609
0.194151
0.196064
0.198343
0.200978
0.203964
0.207293
0.21096
0.214964
0.219305
0.223988
0.229024
0.234426
0.240217
0.246424
0.253081
0.260232
0.267924
0.276213
0.28516
0.294831
0.305298
0.31663
0.328901
0.342178
0.356525
0.371993
0.38862
0.406427
0.42541
0.445537
0.46674
0.488915
0.511913
0.53554
0.559552
0.583654
0.607509
0.630734
0.652916
0.67362
0.692405
0.708843
0.722536
0.733138
0.74037
0.744034
0.189054
0.18945
0.190241
0.191422
0.192991
0.194942
0.197269
0.199966
0.203029
0.206454
0.210239
0.214388
0.218904
0.223799
0.229088
0.234792
0.240941
0.247571
0.254725
0.262456
0.270822
0.279892
0.289739
0.300443
0.312089
0.324764
0.338554
0.353543
0.36981
0.387421
0.406427
0.42686
0.448724
0.47199
0.49659
0.522411
0.549289
0.577
0.605265
0.633738
0.662017
0.689644
0.716115
0.740896
0.763443
0.783219
0.799728
0.81253
0.821273
0.825705
0.187659
0.188061
0.188864
0.190066
0.191662
0.193651
0.196027
0.198786
0.201928
0.205452
0.209359
0.213657
0.218355
0.223469
0.229022
0.235042
0.241566
0.248639
0.256315
0.264657
0.273736
0.283633
0.294436
0.30624
0.319146
0.333258
0.348682
0.365519
0.383865
0.403806
0.42541
0.448724
0.473764
0.500509
0.528895
0.558804
0.590056
0.622405
0.655529
0.689029
0.722431
0.755187
0.786689
0.816281
0.843288
0.867044
0.886919
0.90236
0.91292
0.918278
0.186116
0.186525
0.187341
0.188562
0.190187
0.192213
0.194639
0.197462
0.200685
0.204309
0.208341
0.212792
0.217676
0.223017
0.228843
0.23519
0.242104
0.249639
0.25786
0.266841
0.276667
0.287433
0.299244
0.31221
0.326453
0.342094
0.35926
0.378076
0.398658
0.421115
0.445537
0.47199
0.500509
0.531088
0.563671
0.598139
0.634304
0.671897
0.710557
0.749828
0.789156
0.827889
0.865294
0.90057
0.932881
0.961392
0.985309
1.00393
1.01668
1.02316
0.184453
0.184868
0.185696
0.186938
0.188591
0.190655
0.193131
0.196019
0.199322
0.203048
0.207207
0.211814
0.21689
0.222463
0.228569
0.235253
0.242568
0.25058
0.259365
0.26901
0.279613
0.291286
0.30415
0.318336
0.333983
0.351237
0.370248
0.391165
0.414133
0.439285
0.46674
0.49659
0.528895
0.563671
0.600876
0.640402
0.682059
0.725558
0.770505
0.816384
0.862555
0.908252
0.952592
0.994598
1.03323
1.06745
1.09624
1.11871
1.13412
1.14196
0.182697
0.183118
0.183959
0.18522
0.186901
0.189004
0.191529
0.194481
0.197867
0.201696
0.205983
0.210748
0.216018
0.221827
0.228219
0.235246
0.242972
0.251473
0.260836
0.271164
0.282569
0.295179
0.309135
0.324587
0.341698
0.360639
0.381586
0.404717
0.430206
0.458222
0.488915
0.522411
0.558804
0.598139
0.640402
0.685504
0.733262
0.783382
0.83544
0.888866
0.942931
0.996738
1.04923
1.09923
1.14543
1.18652
1.22121
1.24836
1.26702
1.27652
0.180877
0.181303
0.182157
0.183437
0.185146
0.187287
0.189862
0.192879
0.196346
0.200278
0.204693
0.209617
0.215082
0.221129
0.227809
0.235183
0.243325
0.252322
0.262275
0.273298
0.285522
0.299092
0.314168
0.330924
0.349547
0.370234
0.393193
0.418633
0.446766
0.477795
0.511913
0.549289
0.590056
0.634304
0.682059
0.733262
0.787756
0.845255
0.90532
0.967336
1.03049
1.09374
1.15584
1.21534
1.27063
1.32004
1.36194
1.39482
1.41746
1.42901
0.179022
0.179455
0.18032
0.18162
0.183356
0.185534
0.188158
0.191238
0.194786
0.198821
0.203364
0.208445
0.214105
0.220389
0.227357
0.235078
0.243638
0.253134
0.26368
0.275405
0.288457
0.303
0.319214
0.337298
0.357465
0.379942
0.40497
0.432794
0.463667
0.497836
0.53554
0.577
0.622405
0.671897
0.725558
0.783382
0.845255
0.910921
0.979951
1.0517
1.12528
1.19952
1.27294
1.34379
1.41006
1.46963
1.52035
1.5603
1.58787
1.60194
0.177163
0.177602
0.178479
0.179797
0.18156
0.183774
0.186446
0.189589
0.193216
0.197351
0.202019
0.207256
0.213107
0.219626
0.226879
0.234945
0.243919
0.253911
0.265047
0.277473
0.291353
0.306869
0.324227
0.343648
0.365374
0.389665
0.416795
0.447053
0.480733
0.518134
0.559552
0.605265
0.655529
0.710557
0.770505
0.83544
0.90532
0.979951
1.05894
1.14166
1.22716
1.31416
1.40095
1.4854
1.56501
1.63704
1.69869
1.74741
1.78112
1.79834
0.175331
0.175775
0.176663
0.177999
0.179789
0.182037
0.184756
0.187958
0.191663
0.195894
0.200685
0.206074
0.212111
0.218859
0.22639
0.234794
0.244175
0.254653
0.26637
0.279486
0.294183
0.310664
0.329155
0.349905
0.373186
0.39929
0.42853
0.461238
0.497758
0.538445
0.583654
0.633738
0.689029
0.749828
0.816384
0.888866
0.967336
1.0517
1.14166
1.23664
1.3357
1.43748
1.54004
1.64086
1.7368
1.82428
1.89957
1.95927
2.00064
2.0218
0.173554
0.174003
0.174903
0.176256
0.17807
0.180352
0.183115
0.186375
0.190153
0.194478
0.199385
0.20492
0.211137
0.218105
0.225906
0.234635
0.244408
0.255358
0.267639
0.281426
0.296918
0.314339
0.333939
0.355991
0.380799
0.40869
0.440017
0.475157
0.514507
0.558482
0.607509
0.662017
0.722431
0.789156
0.862555
0.942931
1.03049
1.12528
1.22716
1.3357
1.45006
1.56886
1.69003
1.81062
1.92672
2.03357
2.12607
2.19962
2.25063
2.27671
0.171862
0.172316
0.173226
0.174595
0.176432
0.178746
0.18155
0.184864
0.188712
0.193125
0.198143
0.203816
0.210204
0.217381
0.225437
0.234476
0.244624
0.256023
0.268842
0.28327
0.299525
0.317849
0.338514
0.361823
0.388107
0.41773
0.451086
0.488598
0.530721
0.577932
0.630734
0.689644
0.755187
0.827889
0.908252
0.996738
1.09374
1.19952
1.31416
1.43748
1.56886
1.70711
1.85014
1.99469
2.13595
2.26749
2.38198
2.47308
2.53619
2.56843
0.170282
0.170741
0.17166
0.173044
0.174902
0.177245
0.180088
0.183453
0.187365
0.19186
0.196981
0.202782
0.209329
0.216701
0.224995
0.234324
0.244821
0.256642
0.269965
0.284996
0.301967
0.321142
0.342813
0.36731
0.394994
0.426264
0.461554
0.501338
0.546123
0.596456
0.652916
0.716115
0.786689
0.865294
0.952592
1.04923
1.15584
1.27294
1.40095
1.54004
1.69003
1.85014
2.01864
2.19224
2.36534
2.52911
2.67211
2.78551
2.86369
2.90348
0.168839
0.169302
0.170229
0.171627
0.173505
0.175874
0.178752
0.182163
0.186134
0.190703
0.195918
0.201836
0.208527
0.216078
0.22459
0.234183
0.245001
0.257208
0.270994
0.286579
0.304209
0.324167
0.346768
0.372364
0.401345
0.434145
0.471239
0.513144
0.560427
0.613699
0.67362
0.740896
0.816281
0.90057
0.994598
1.09923
1.21534
1.34379
1.4854
1.64086
1.81062
1.99469
2.19224
2.40084
2.61484
2.82251
3.00303
3.14448
3.24099
3.28979
0.167557
0.168023
0.168958
0.170368
0.172263
0.174655
0.177565
0.181015
0.185039
0.189674
0.194972
0.200994
0.207814
0.215523
0.224229
0.234058
0.245162
0.257713
0.271913
0.287993
0.306214
0.326875
0.35031
0.376895
0.407046
0.441229
0.479955
0.523788
0.573347
0.629306
0.692405
0.763443
0.843288
0.932881
1.03323
1.14543
1.27063
1.41006
1.56501
1.7368
1.92672
2.13595
2.36534
2.61484
2.88178
3.15441
3.38451
3.56005
3.67775
3.73671
0.166456
0.166925
0.167866
0.169286
0.171196
0.173608
0.176544
0.18003
0.184098
0.18879
0.194159
0.20027
0.207201
0.215046
0.223919
0.233952
0.245301
0.25815
0.272707
0.289214
0.307947
0.329216
0.353375
0.380819
0.411989
0.447377
0.487529
0.53305
0.584607
0.642935
0.708843
0.783219
0.867044
0.961392
1.06745
1.18652
1.32004
1.46963
1.63704
1.82428
2.03357
2.26749
2.52911
2.82251
3.15441
3.54042
3.83236
4.04539
4.18528
4.25466
0.165553
0.166025
0.166971
0.1684
0.170321
0.17275
0.175708
0.179222
0.183326
0.188065
0.193493
0.199677
0.206699
0.214656
0.223665
0.233865
0.245417
0.25851
0.273361
0.290221
0.309376
0.331148
0.355905
0.38406
0.416074
0.452463
0.493802
0.54073
0.593957
0.654268
0.722536
0.799728
0.886919
0.985309
1.09624
1.22121
1.36194
1.52035
1.69869
1.89957
2.12607
2.38198
2.67211
3.00303
3.38451
3.83236
4.17115
4.41605
4.57558
4.65432
0.164862
0.165336
0.166287
0.167722
0.169652
0.172094
0.175069
0.178604
0.182737
0.187511
0.192984
0.199224
0.206315
0.214357
0.223472
0.2338
0.245507
0.258787
0.273864
0.290995
0.310473
0.332632
0.35785
0.386553
0.419217
0.456379
0.498636
0.546655
0.601177
0.66303
0.733138
0.81253
0.90236
1.00393
1.11871
1.24836
1.39482
1.5603
1.74741
1.95927
2.19962
2.47308
2.78551
3.14448
3.56005
4.04539
4.41605
4.68446
4.85913
4.94524
0.164396
0.164871
0.165825
0.167264
0.169201
0.171651
0.174637
0.178187
0.182338
0.187137
0.19264
0.198918
0.206056
0.214156
0.223342
0.233756
0.245568
0.258976
0.274206
0.29152
0.311218
0.33364
0.35917
0.388245
0.421352
0.459041
0.501923
0.550685
0.606093
0.669001
0.74037
0.821273
0.91292
1.01668
1.13412
1.26702
1.41746
1.58787
1.78112
2.00064
2.25063
2.53619
2.86369
3.24099
3.67775
4.18528
4.57558
4.85913
5.04387
5.13496
0.164161
0.164637
0.165592
0.167033
0.168973
0.171427
0.174419
0.177976
0.182137
0.186948
0.192466
0.198763
0.205925
0.214054
0.223276
0.233734
0.245599
0.25907
0.274378
0.291785
0.311593
0.334147
0.359836
0.389099
0.422431
0.460385
0.503584
0.552723
0.60858
0.672024
0.744034
0.825705
0.918278
1.02316
1.14196
1.27652
1.42901
1.60194
1.79834
2.0218
2.27671
2.56843
2.90348
3.28979
3.73671
4.25466
4.65432
4.94524
5.13496
5.22854
)
;

boundaryField
{
    walls
    {
        type            zeroGradient;
    }
    frontAndBack
    {
        type            empty;
    }
}


// ************************************************************************* //
