/*--------------------------------*- C++ -*----------------------------------*\
| =========                 |                                                 |
| \\      /  F ield         | OpenFOAM: The Open Source CFD Toolbox           |
|  \\    /   O peration     | Version:  2406                                  |
|   \\  /    A nd           | Website:  www.openfoam.com                      |
|    \\/     M anipulation  |                                                 |
\*---------------------------------------------------------------------------*/
FoamFile
{
    version     2.0;
    format      ascii;
    arch        "LSB;label=32;scalar=64";
    class       volScalarField;
    location    "0.65";
    object      nu;
}
// * * * * * * * * * * * * * * * * * * * * * * * * * * * * * * * * * * * * * //

dimensions      [0 2 -1 0 0 0 0];

internalField   nonuniform List<scalar> 
1800
(
0.0110183
0.011679
0.0108837
0.00996898
0.0093467
0.00899432
0.00878956
0.0086271
0.00857981
0.0089802
0.0153273
0.01359
0.0107591
0.00947659
0.00892427
0.0087015
0.00862264
0.00857851
0.00871405
0.00876128
0.0298512
0.0131568
0.00989442
0.00892903
0.00861481
0.0085594
0.00861612
0.00868654
0.00899149
0.00894309
0.0172544
0.010637
0.00894763
0.00847177
0.00839696
0.00849171
0.00865495
0.00879768
0.00918712
0.0089296
0.0115826
0.00905759
0.00828596
0.00815839
0.00829084
0.00853938
0.00881566
0.00902828
0.00945129
0.0087898
0.00930994
0.00815741
0.00785259
0.00797652
0.00830522
0.00871472
0.00908759
0.00930551
0.00954495
0.00865475
0.00811659
0.00760157
0.00760426
0.00795777
0.00849836
0.00906351
0.00945559
0.00953162
0.0094022
0.00857561
0.00738886
0.00725517
0.00751385
0.00811313
0.00888253
0.00953472
0.00976307
0.00954053
0.0091585
0.00865787
0.00691678
0.0070532
0.00755924
0.00843432
0.00941818
0.00999962
0.00989424
0.00943169
0.00906742
0.00898046
0.00660232
0.00695338
0.00771451
0.00889165
0.0100219
0.0103499
0.00990274
0.00937866
0.00921494
0.0095912
0.00756518
0.0105885
0.0147878
0.0160796
0.0158703
0.0155274
0.015068
0.014468
0.0138487
0.0134034
0.00737141
0.0103058
0.0153431
0.0171888
0.0166332
0.0159334
0.0152301
0.0144554
0.0137018
0.0131566
0.00724055
0.0101104
0.0164091
0.0201747
0.0185994
0.017126
0.0159442
0.0148176
0.013812
0.0130951
0.00715567
0.00992827
0.0180107
0.0363347
0.0264402
0.0199047
0.0172064
0.0155606
0.0141855
0.0132168
0.00713197
0.00985834
0.0197296
0.121448
0.0751302
0.0294279
0.019993
0.016718
0.0147371
0.0134643
0.00719927
0.00970029
0.0163669
0.0306204
0.0325575
0.0256383
0.0208749
0.0178252
0.0152929
0.0136855
0.00737338
0.00958003
0.0136254
0.0174234
0.0184658
0.017998
0.0174387
0.0167832
0.015013
0.0135054
0.00768888
0.00955765
0.0119019
0.0133116
0.0136393
0.0136497
0.0137946
0.0140937
0.0136029
0.01293
0.00824747
0.0097841
0.0110257
0.011435
0.0113347
0.011198
0.0112205
0.01147
0.0115092
0.0116739
0.00922366
0.0104272
0.0108128
0.0105633
0.0101553
0.00988145
0.00976858
0.00978906
0.009748
0.0104948
0.0144507
0.0130521
0.0148805
0.0174279
0.0205878
0.0253744
0.0309406
0.037267
0.0404184
0.0522559
0.0144689
0.0133198
0.0146274
0.0169594
0.0198946
0.0246698
0.0305349
0.0373037
0.0408422
0.0529244
0.0145852
0.0139644
0.0144435
0.0165043
0.019112
0.0236199
0.0293367
0.035951
0.0396329
0.0507905
0.0148882
0.0149063
0.0140294
0.0156648
0.0178853
0.0218017
0.0268237
0.0325419
0.0359881
0.0446921
0.0151373
0.0147079
0.0128683
0.0139494
0.0157429
0.0187502
0.0226478
0.0270188
0.0300141
0.0357338
0.0143138
0.0126799
0.0114712
0.0120878
0.0133545
0.0153663
0.0180153
0.0210134
0.0233682
0.0268388
0.012749
0.0111304
0.0106024
0.0109151
0.0117137
0.0129591
0.0146105
0.0165053
0.0181048
0.0202132
0.0108382
0.0105972
0.0103961
0.0104664
0.0109257
0.0116885
0.012712
0.0138948
0.0148905
0.0162016
0.0101804
0.0107481
0.0107062
0.0105718
0.0107699
0.0112333
0.0119009
0.012692
0.0133195
0.0141986
0.00936196
0.0105354
0.0110326
0.0109826
0.0110919
0.0113869
0.0118422
0.0124081
0.0128124
0.0134649
0.00975352
0.0105798
0.0107379
0.0112036
0.0118024
0.0122856
0.0127026
0.0131842
0.0134442
0.0139739
0.00895956
0.00960891
0.00989301
0.0105491
0.0117728
0.0131356
0.0142021
0.0149868
0.0153347
0.015856
0.00974947
0.0109493
0.01108
0.0113215
0.012409
0.0142071
0.0162183
0.018048
0.0192461
0.0203853
0.0145401
0.0142058
0.0125479
0.0124939
0.013642
0.0161351
0.0197887
0.0244949
0.028777
0.0359847
0.0501617
0.0148463
0.0128177
0.0129696
0.0143161
0.017297
0.0222707
0.0297369
0.0378215
0.0685121
0.0257134
0.0147185
0.0133175
0.0135281
0.0147017
0.0169168
0.0199956
0.0231258
0.0259522
0.0287184
0.0146726
0.0121037
0.0111674
0.011252
0.0120031
0.0129913
0.0139829
0.0147587
0.0154087
0.0157848
0.00946483
0.00891465
0.00881229
0.00913815
0.00970417
0.0102355
0.0106692
0.0109931
0.0112281
0.0113976
0.00740425
0.00748957
0.00779655
0.00823579
0.00867296
0.00899233
0.00921305
0.00936722
0.00945623
0.00954491
0.00700415
0.00751613
0.00813546
0.00869334
0.00894138
0.00894667
0.0088794
0.00882092
0.00876696
0.00877483
0.0119376
0.0104741
0.00956093
0.0089734
0.00868234
0.00855652
0.00842969
0.00867308
0.00819435
0.00938995
0.014853
0.0150613
0.0118828
0.0113806
0.00964136
0.00944998
0.00843117
0.00862062
0.00801577
0.00859296
0.0157838
0.0160016
0.0139292
0.0144089
0.0118903
0.0118439
0.0101539
0.00976964
0.00916621
0.00866618
0.0177604
0.0151409
0.017471
0.0146219
0.0177744
0.0138096
0.0159498
0.0118402
0.0131911
0.0104602
0.0176792
0.0160427
0.0191583
0.0164378
0.02356
0.0172141
0.0307774
0.0162978
0.0245475
0.0147207
0.0159384
0.0169792
0.0182235
0.0192381
0.0207638
0.0215994
0.0233408
0.0233754
0.0271872
0.0228005
0.0123828
0.0130791
0.0129534
0.0136507
0.0133435
0.0141053
0.0138416
0.0150951
0.0148409
0.0171643
0.00940258
0.0095445
0.00939806
0.00959575
0.00943574
0.00964048
0.00949589
0.00976003
0.0096376
0.0100319
0.00760384
0.00754856
0.00752885
0.00748598
0.00747366
0.00745768
0.0074554
0.00746659
0.00748378
0.00753367
0.0064302
0.00642468
0.00644524
0.0064457
0.00648569
0.00649885
0.0065656
0.00659027
0.00670293
0.00672323
0.010681
0.0126799
0.0132046
0.0129895
0.0126947
0.0126577
0.0127535
0.0105916
0.0075007
0.00603908
0.0108308
0.0120605
0.0129672
0.0132364
0.013223
0.0133944
0.0133491
0.0103893
0.00737482
0.00599657
0.0105943
0.0112108
0.012216
0.0133553
0.0141961
0.0150004
0.014515
0.0102143
0.00726491
0.0059717
0.0104885
0.0106752
0.0114656
0.0131421
0.0152907
0.0173877
0.0155661
0.00997904
0.00718004
0.00596925
0.010694
0.0105144
0.0109497
0.0125292
0.0153956
0.018359
0.0150119
0.00964418
0.00711938
0.00598932
0.0112781
0.0106506
0.0106827
0.0118297
0.0142224
0.016416
0.0134851
0.00927732
0.00707007
0.00602679
0.0118246
0.0107272
0.0104393
0.0111453
0.0127577
0.0140281
0.0120415
0.00891095
0.0070228
0.00607911
0.0120321
0.0105873
0.0101394
0.0105757
0.0116835
0.012403
0.0109403
0.00856006
0.00697602
0.00614952
0.011483
0.0101412
0.00977813
0.0101665
0.011023
0.0113778
0.0101153
0.00823675
0.00693797
0.00624803
0.010492
0.00959681
0.00949234
0.00995535
0.0106387
0.010652
0.00945313
0.00794972
0.00692365
0.00639101
0.0126591
0.012446
0.0122573
0.012076
0.0118785
0.0116816
0.0114896
0.011121
0.0100001
0.00790988
0.0125843
0.0123533
0.0121567
0.0119698
0.0117687
0.0115737
0.0113961
0.0109732
0.00953222
0.00743532
0.012596
0.0123831
0.0122057
0.0120129
0.011789
0.0115704
0.0113813
0.0108668
0.00912803
0.00708553
0.0124955
0.0122564
0.0120771
0.0118961
0.0117002
0.0115272
0.0114014
0.0108451
0.008831
0.00683511
0.0126007
0.0123578
0.0121775
0.0119596
0.0117095
0.0114883
0.0113317
0.0106788
0.00851573
0.00662551
0.0126273
0.012447
0.0123548
0.0121951
0.0119876
0.0118143
0.0117048
0.0108418
0.00830876
0.00647188
0.0125727
0.0123265
0.0121698
0.0119508
0.0117157
0.0115613
0.0115266
0.0106897
0.00809718
0.00634436
0.0130127
0.0128512
0.0128653
0.0126562
0.0123452
0.0121107
0.0119643
0.0106944
0.00790235
0.00623823
0.0134706
0.0130821
0.0129271
0.0127144
0.012486
0.0123913
0.0124117
0.0108196
0.00776507
0.00615755
0.0131671
0.0135009
0.0135575
0.0131098
0.0126755
0.0125378
0.01262
0.0107777
0.00763375
0.006093
0.0254337
0.0291735
0.0316915
0.0455134
0.051647
0.0536138
0.0335722
0.0258168
0.0167971
0.0131895
0.0251355
0.0281207
0.0314555
0.042859
0.0506313
0.0641879
0.037345
0.0261345
0.0169342
0.0130973
0.0248426
0.0271149
0.0308626
0.0393541
0.048899
0.0794925
0.0424181
0.0265084
0.0171646
0.0130274
0.0245201
0.026054
0.0297575
0.036036
0.0495906
0.103845
0.0479987
0.0269746
0.0175132
0.0128454
0.0241405
0.0249242
0.0282478
0.0348979
0.0567554
0.12982
0.0512756
0.0275519
0.017847
0.0130048
0.0237351
0.023857
0.0271378
0.0395041
0.0725411
0.114302
0.0484334
0.0272005
0.0177801
0.0127079
0.0233732
0.0230233
0.0272177
0.056124
0.0782514
0.0682015
0.037985
0.0257286
0.0173076
0.0124089
0.0232768
0.0223377
0.0280332
0.0818582
0.0471619
0.0352886
0.0260019
0.0218793
0.0155636
0.0130471
0.0239228
0.0213363
0.0282199
0.0441519
0.0253069
0.0216411
0.0189955
0.0184778
0.014487
0.0118969
0.0257964
0.0199235
0.0249784
0.0237999
0.017679
0.0160271
0.0150735
0.0147004
0.012839
0.0133885
0.0280564
0.0185215
0.0208387
0.0182882
0.0152183
0.0143095
0.0129398
0.0134155
0.0109956
0.014385
0.0309318
0.0167722
0.0185601
0.0172699
0.0149114
0.014367
0.0122111
0.0137516
0.0103313
0.0130032
0.0339834
0.0153359
0.0181007
0.018347
0.0164947
0.0153564
0.0131589
0.0138319
0.0110968
0.0114252
0.0378345
0.0145159
0.0173305
0.0198265
0.0205371
0.017139
0.0163262
0.0141695
0.0133203
0.0112122
0.0444729
0.0143016
0.0163744
0.0200642
0.0267771
0.0193545
0.0259247
0.0149374
0.0151174
0.0123487
0.055956
0.014504
0.0159867
0.0194399
0.0255012
0.0233403
0.0275092
0.0165771
0.0161554
0.0143914
0.0683255
0.0155075
0.0161366
0.0172464
0.0173922
0.0206901
0.0163466
0.0194402
0.0152455
0.0148146
0.0527718
0.0182638
0.0142854
0.0130652
0.0122618
0.012603
0.0118061
0.0131209
0.0115495
0.012038
0.0286907
0.0142528
0.0108411
0.0102216
0.00982532
0.00964834
0.00961584
0.00932975
0.00934156
0.00908086
0.00805693
0.00792531
0.00878951
0.00851524
0.00840948
0.00818644
0.00805579
0.00760056
0.0076684
0.00710105
0.0117548
0.0118768
0.0116449
0.0116756
0.0120656
0.0130104
0.0142319
0.01581
0.0153369
0.013897
0.011194
0.0109718
0.0110483
0.0113505
0.0118652
0.0126231
0.0136298
0.0152732
0.0157909
0.0175042
0.0114477
0.011474
0.0118582
0.0124793
0.0133414
0.0139745
0.0149778
0.0158117
0.0168289
0.0169536
0.0122606
0.0125522
0.0131571
0.0138131
0.0145537
0.0147303
0.0154122
0.0154403
0.0171181
0.0161128
0.0136533
0.0138876
0.0143804
0.0146359
0.0147917
0.0146495
0.0149404
0.0150338
0.0160516
0.0159458
0.0143113
0.0139734
0.0139813
0.0139807
0.0140247
0.0139444
0.0140821
0.0142336
0.0145811
0.0152195
0.0134319
0.0129351
0.0127146
0.0126367
0.0126266
0.0125244
0.0123733
0.0122816
0.0121274
0.0124636
0.0112593
0.0109143
0.0106196
0.0104367
0.0102535
0.0101011
0.00988464
0.00973655
0.00955755
0.00953869
0.00885517
0.008671
0.00850172
0.00835592
0.00820472
0.00806875
0.00794092
0.00783052
0.00773438
0.00765394
0.00695723
0.00685348
0.00675292
0.00666331
0.00659492
0.00654685
0.00650807
0.00647119
0.0064468
0.00642763
0.00620763
0.0071303
0.00910789
0.0138217
0.0233587
0.0190345
0.0146687
0.0120546
0.0100139
0.00853315
0.00628235
0.00703308
0.00862864
0.0130997
0.0415364
0.0292584
0.0153656
0.0115884
0.00972205
0.00847495
0.00641801
0.00698775
0.00818208
0.0112619
0.022617
0.0328546
0.0166987
0.0117465
0.0097203
0.00856382
0.00663507
0.00701475
0.00784135
0.00980287
0.0147165
0.022497
0.0178306
0.0125857
0.0101
0.00880935
0.00695702
0.00713577
0.0076544
0.00889649
0.0115039
0.0158
0.0171828
0.0138319
0.0109804
0.00932257
0.00741435
0.00737415
0.00764185
0.00842566
0.00995477
0.0123732
0.0145689
0.0141857
0.0121125
0.010194
0.00803481
0.0077491
0.00781389
0.00829782
0.00924968
0.0106748
0.0122323
0.0130213
0.0125498
0.0112216
0.00881412
0.00827306
0.0081824
0.00846119
0.00906391
0.00992081
0.0108482
0.0115361
0.0118209
0.0113705
0.00962226
0.00892617
0.00875688
0.00889627
0.00925773
0.00975354
0.0102628
0.0106706
0.0110757
0.0109761
0.010197
0.00964933
0.009547
0.00960588
0.0097531
0.00994036
0.0101076
0.0101992
0.0103213
0.0105815
0.0103816
0.0103768
0.0105967
0.0106901
0.0106405
0.0105435
0.0104444
0.0103496
0.0103233
0.0114021
0.010312
0.0110831
0.0119727
0.0123224
0.0120882
0.0117127
0.0114012
0.0112184
0.0111406
0.0119284
0.010169
0.0117673
0.013838
0.014961
0.0144944
0.0137821
0.0132431
0.0129318
0.0126741
0.0130216
0.010032
0.0124196
0.0166452
0.0212984
0.0205952
0.0182658
0.016471
0.0153883
0.0145414
0.014226
0.00981718
0.0127032
0.0192295
0.0420538
0.0564209
0.0276517
0.0201776
0.0176629
0.0161933
0.015281
0.00941032
0.0126993
0.0199087
0.0364158
0.0435332
0.0284686
0.0211432
0.0185368
0.0171727
0.0159923
0.00894388
0.0124469
0.0182286
0.0228536
0.0241675
0.0223622
0.0194526
0.0176812
0.0166885
0.0157814
0.00851719
0.0119718
0.0163363
0.0181849
0.0186882
0.0184374
0.017376
0.0163394
0.0156111
0.0150175
0.00814177
0.0114406
0.0152408
0.0164652
0.0166741
0.0165759
0.0160616
0.0153854
0.0147847
0.0143353
0.00782194
0.0109656
0.0147608
0.0158818
0.0158948
0.0157291
0.0153362
0.0147761
0.0142088
0.0138003
0.0130473
0.0151501
0.0213832
0.0388169
0.0384477
0.0328558
0.032578
0.035214
0.0372859
0.0483939
0.0127676
0.0151228
0.0201865
0.0280811
0.0322611
0.0315315
0.0323435
0.0357082
0.0393744
0.0561886
0.0128485
0.0156822
0.0198869
0.0266457
0.0295157
0.0303191
0.0317031
0.0352897
0.0394521
0.0569113
0.0131821
0.0161413
0.0194577
0.0251864
0.027347
0.0288012
0.030631
0.0343386
0.0384816
0.0543829
0.0135596
0.0158455
0.018584
0.0233714
0.0254858
0.027437
0.0296206
0.0333395
0.0371292
0.0510588
0.0138647
0.0150409
0.0175834
0.0217081
0.0241557
0.0266502
0.0291959
0.0329317
0.0362195
0.0485158
0.0141178
0.0142122
0.0167107
0.020378
0.0232488
0.0263538
0.0293847
0.033298
0.036159
0.0474095
0.0143062
0.0135826
0.0160587
0.0193572
0.0225372
0.0262426
0.0298965
0.0342079
0.0368415
0.0476374
0.0144107
0.0131996
0.0155824
0.018578
0.0218877
0.0261028
0.0304435
0.0353472
0.0379659
0.0488029
0.0144488
0.0130289
0.0152022
0.0179591
0.0212476
0.0258354
0.0308435
0.036463
0.0392627
0.0505157
0.00934916
0.0113986
0.0125714
0.0131844
0.0125288
0.0118095
0.0112709
0.0108252
0.010596
0.0104583
0.0099877
0.011284
0.0125608
0.0129425
0.0127974
0.0124008
0.0120764
0.0117589
0.0116103
0.0114313
0.0125893
0.0134749
0.0163225
0.0170811
0.0166126
0.0157953
0.0152286
0.0147583
0.0144713
0.0140728
0.0152862
0.01665
0.0250319
0.036215
0.0275632
0.023608
0.0220984
0.0214602
0.0207557
0.0202042
0.0141143
0.0160301
0.0247065
0.132818
0.0386577
0.0307884
0.0294717
0.0303709
0.0303026
0.0327734
0.00639773
0.00655183
0.00676314
0.00702848
0.00733895
0.00767522
0.00799488
0.00827605
0.00856327
0.00863653
0.00667542
0.00682255
0.00703276
0.00728867
0.00756736
0.00786828
0.00817542
0.0086041
0.00900225
0.00955692
0.00698376
0.00711298
0.00730993
0.0075477
0.00780905
0.00812871
0.00853507
0.00925127
0.00984772
0.0114537
0.00734418
0.00744143
0.00762017
0.00784944
0.00813438
0.00853235
0.00915008
0.0100498
0.0106407
0.0123012
0.00777205
0.00782182
0.00798906
0.00824339
0.0086209
0.00919286
0.0100411
0.0107496
0.010897
0.0121894
0.0131635
0.01347
0.0141147
0.0142198
0.0139486
0.013519
0.0129611
0.0119374
0.00995643
0.0077045
0.0144765
0.0141448
0.0138371
0.0133689
0.0129655
0.0126565
0.0123492
0.0117822
0.0103915
0.00812157
0.0137163
0.0134035
0.013283
0.0130804
0.0128801
0.0127023
0.0124882
0.012084
0.0110647
0.00873571
0.0137316
0.0134908
0.0133628
0.013142
0.0128981
0.0126691
0.0124363
0.0121777
0.0117399
0.00964549
0.0135868
0.0133108
0.0131182
0.0128786
0.01263
0.0124122
0.012247
0.0122424
0.0126289
0.0113872
0.0134294
0.0131518
0.0129241
0.0126671
0.0123976
0.0121613
0.012018
0.0121984
0.0135046
0.0154438
0.0132279
0.0129639
0.0127323
0.0124891
0.0122331
0.0120046
0.0118609
0.011994
0.0133017
0.0181112
0.0130369
0.0128021
0.0125923
0.0123859
0.0121719
0.0119769
0.0118214
0.0117818
0.0122521
0.012272
0.0128766
0.0126609
0.0124666
0.0122823
0.012091
0.0119101
0.0117384
0.0115468
0.0113187
0.00979931
0.0127476
0.0125352
0.0123442
0.0121644
0.0119739
0.0117866
0.0115996
0.0113074
0.0105845
0.00862134
0.00883825
0.0106362
0.0129853
0.0150999
0.0162352
0.0165965
0.0137595
0.00952792
0.00725382
0.00617812
0.00951146
0.0116072
0.0137912
0.0150172
0.0151237
0.0146442
0.013064
0.00979946
0.00739539
0.00618642
0.010526
0.0125991
0.0140465
0.0143076
0.0138654
0.0132424
0.0122315
0.00991152
0.00755013
0.00622908
0.0115356
0.0131328
0.0139678
0.0139073
0.0133048
0.012605
0.0118056
0.0100319
0.00772346
0.00629955
0.012336
0.0135585
0.0140526
0.0137517
0.0130014
0.0122273
0.0114627
0.0100391
0.00790097
0.0063967
0.0132234
0.0142295
0.0142324
0.0133911
0.0124243
0.0117046
0.0111349
0.0100883
0.00812635
0.00652952
0.0141943
0.0145314
0.013615
0.0124886
0.0117363
0.0113161
0.0110048
0.0102344
0.00839262
0.00669362
0.0143805
0.0135146
0.0122634
0.0115292
0.0112437
0.0111727
0.0111137
0.0105478
0.00873502
0.00689761
0.0128222
0.0118209
0.0112249
0.0111253
0.0112865
0.011503
0.0116238
0.0111013
0.00915004
0.00713607
0.0109068
0.0111422
0.0114403
0.0118395
0.0122339
0.0125122
0.012545
0.0117626
0.00959129
0.00740388
0.0286029
0.0811224
0.0295507
0.0294259
0.0280631
0.0291164
0.0331302
0.03292
0.0251851
0.0179305
0.0286095
0.0690132
0.0284874
0.0288062
0.0282137
0.0287011
0.0304402
0.0269148
0.0245434
0.0154594
0.0283179
0.0575347
0.0280444
0.0295404
0.0290664
0.0290788
0.0294674
0.0259306
0.0244807
0.0149774
0.0279207
0.0492007
0.0284906
0.0316144
0.0306362
0.0297893
0.0288622
0.0257591
0.0230325
0.0149231
0.0275543
0.0433455
0.02927
0.0345043
0.0326559
0.0305864
0.0282275
0.0255948
0.0212407
0.0147983
0.0271994
0.0392357
0.030052
0.0378081
0.03514
0.0316756
0.0277042
0.0253809
0.0195611
0.0145425
0.0268339
0.0361817
0.0307142
0.0412335
0.0383229
0.0334364
0.0275873
0.0252256
0.018291
0.0141832
0.0264614
0.0337892
0.0312094
0.0443005
0.0423119
0.0361721
0.0280515
0.025172
0.0174742
0.0138213
0.0260967
0.0318945
0.031532
0.0463161
0.0466867
0.0401656
0.0291413
0.025263
0.0170114
0.0135365
0.0257527
0.0303929
0.0316958
0.0467524
0.0502609
0.0458139
0.030926
0.0255026
0.0168101
0.013336
0.00730838
0.00757875
0.00915121
0.00916244
0.00973457
0.00986771
0.0101317
0.00994178
0.00990117
0.00847578
0.0145966
0.0106699
0.01022
0.0106421
0.0108723
0.0112603
0.0117486
0.0119264
0.0123883
0.0115264
0.026354
0.0170823
0.0128113
0.013319
0.0132786
0.0139983
0.0149425
0.0167006
0.0173555
0.0166145
0.0295659
0.0339128
0.0185525
0.0190261
0.0182934
0.0197323
0.0220326
0.0323455
0.0337426
0.0156019
0.0292398
0.0694129
0.0263989
0.0263879
0.0245495
0.026136
0.0303826
0.0445556
0.0364467
0.0163169
0.00808239
0.00772529
0.00736175
0.00702822
0.00674395
0.00652205
0.00636974
0.0062865
0.00626402
0.00629972
0.0105892
0.00978812
0.00904324
0.00839331
0.00782285
0.00734175
0.00697703
0.00674085
0.00662061
0.00660203
0.0135507
0.0121345
0.0109448
0.00999371
0.00917572
0.00843967
0.00780168
0.00733586
0.00706154
0.0069533
0.0143683
0.0133628
0.0124717
0.0115595
0.0106295
0.00974129
0.0088525
0.0081011
0.00761529
0.00737971
0.0147619
0.0146513
0.0138248
0.0128511
0.0118396
0.0109422
0.0100306
0.0090826
0.00834135
0.00791549
)
;

boundaryField
{
    left
    {
        type            calculated;
        value           nonuniform List<scalar> 
35
(
0.0198801
0.0169857
0.0151907
0.0143693
0.0141737
0.0143791
0.0149565
0.015913
0.0162256
0.0079906
0.0205257
0.0205765
0.0206286
0.0206811
0.020755
0.0208971
0.0211374
0.0215164
0.0219595
0.0218057
0.0201063
0.0201709
0.0201678
0.0201905
0.0202502
0.0203146
0.0203658
0.0204051
0.0204407
0.0204801
0.00726452
0.0131252
0.0187085
0.0198642
0.0200791
)
;
    }
    right
    {
        type            calculated;
        value           nonuniform List<scalar> 
35
(
0.0104595
0.0114375
0.0141082
0.0204376
0.0345022
0.0561162
0.0707978
0.0742826
0.0714686
0.0667013
0.0631539
0.0622436
0.064012
0.0680655
0.074073
0.0812168
0.086172
0.0821634
0.0661961
0.0462996
0.0310392
0.0218353
0.0169245
0.0146164
0.0137814
0.0142975
0.016291
0.021226
0.0402837
0.0848767
0.02877
0.0158234
0.0114158
0.00955214
0.00877625
)
;
    }
    down
    {
        type            calculated;
        value           nonuniform List<scalar> 
40
(
0.00642992
0.00687533
0.00887099
0.00866289
0.00937476
0.00939662
0.00958719
0.00932861
0.00910062
0.00771125
0.00739609
0.00713053
0.00685098
0.00659763
0.00639228
0.006244
0.00615252
0.0061135
0.00611929
0.00616991
0.00627493
0.00643125
0.00664175
0.00690914
0.00723497
0.00760299
0.00795939
0.00823711
0.0084841
0.00844105
0.00944307
0.01234
0.0137839
0.0147923
0.0133231
0.0121254
0.0113167
0.010717
0.0104006
0.0102519
)
;
    }
    up
    {
        type            calculated;
        value           nonuniform List<scalar> 
40
(
0.00712156
0.00812908
0.00915113
0.00981116
0.00969364
0.00929387
0.00895812
0.00874414
0.00860552
0.00857172
0.00607579
0.00609216
0.0061165
0.00614239
0.00618971
0.00622929
0.00631503
0.00636228
0.00651437
0.00653833
0.00643392
0.00634695
0.00626352
0.00619246
0.00614216
0.00611007
0.00608647
0.00607048
0.00606227
0.00606512
0.00684774
0.00697132
0.00823506
0.00797586
0.00793188
0.00770708
0.00751123
0.00709205
0.00710478
0.00656184
)
;
    }
    cylinder
    {
        type            calculated;
        value           nonuniform List<scalar> 
80
(
0.0068767
0.00672343
0.00662366
0.00656523
0.00655675
0.00663506
0.00682001
0.00714655
0.00771151
0.00868089
0.0104256
0.014534
0.0309769
0.0314559
0.0153075
0.0106714
0.00870425
0.0076268
0.00696506
0.00653427
0.0056976
0.0056692
0.00565802
0.00566813
0.00569963
0.00575011
0.00581985
0.00591528
0.00605015
0.00624593
0.00723024
0.00682563
0.00653383
0.00632603
0.00615624
0.00603178
0.00593035
0.00584756
0.00578485
0.00573631
0.00705654
0.00739974
0.00790731
0.00869179
0.0102686
0.0144247
0.0195348
0.0115333
0.00894499
0.00785394
0.0058889
0.00586963
0.00588718
0.00593316
0.00600516
0.00610801
0.00623841
0.00640147
0.00659288
0.00680963
0.00595084
0.00606609
0.0062524
0.00653364
0.00694016
0.00751841
0.00832656
0.0093813
0.010431
0.0108945
0.0106152
0.0100865
0.00963636
0.00931963
0.0090187
0.00855628
0.00807061
0.00767357
0.00735003
0.00708481
)
;
    }
    defaultFaces
    {
        type            empty;
    }
}


// ************************************************************************* //
