/*--------------------------------*- C++ -*----------------------------------*\
| =========                 |                                                 |
| \\      /  F ield         | OpenFOAM: The Open Source CFD Toolbox           |
|  \\    /   O peration     | Version:  2406                                  |
|   \\  /    A nd           | Website:  www.openfoam.com                      |
|    \\/     M anipulation  |                                                 |
\*---------------------------------------------------------------------------*/
FoamFile
{
    version     2.0;
    format      ascii;
    arch        "LSB;label=32;scalar=64";
    class       volScalarField;
    location    "0.65";
    object      p;
}
// * * * * * * * * * * * * * * * * * * * * * * * * * * * * * * * * * * * * * //

dimensions      [0 2 -2 0 0 0 0];

internalField   nonuniform List<scalar> 
1800
(
-1.69766
-1.68106
-1.67704
-1.67775
-1.68343
-1.69648
-1.71951
-1.75465
-1.80304
-1.86599
-1.68563
-1.67125
-1.66575
-1.66162
-1.66017
-1.66485
-1.67729
-1.6981
-1.72722
-1.76545
-1.68249
-1.67568
-1.66962
-1.66212
-1.65681
-1.65644
-1.66208
-1.67381
-1.6907
-1.71548
-1.70533
-1.69389
-1.6855
-1.67688
-1.66939
-1.66489
-1.66428
-1.66751
-1.67378
-1.68717
-1.73819
-1.72382
-1.71477
-1.70516
-1.69538
-1.687
-1.68103
-1.67756
-1.67633
-1.6818
-1.77886
-1.76288
-1.75252
-1.74054
-1.72716
-1.71408
-1.70247
-1.69264
-1.68481
-1.68208
-1.82388
-1.80624
-1.79353
-1.77779
-1.75952
-1.74089
-1.72314
-1.70653
-1.6912
-1.67793
-1.86774
-1.84834
-1.8321
-1.81126
-1.78713
-1.76238
-1.7381
-1.71426
-1.69048
-1.66638
-1.90354
-1.88241
-1.86151
-1.83474
-1.80448
-1.77355
-1.74259
-1.71096
-1.67777
-1.6421
-1.92358
-1.90076
-1.87455
-1.8416
-1.80549
-1.76872
-1.73126
-1.69189
-1.64939
-1.60324
-1.09486
-1.09876
-1.09633
-1.09016
-1.08156
-1.07175
-1.06114
-1.04977
-1.03751
-1.02429
-1.19732
-1.19982
-1.19715
-1.19179
-1.18473
-1.17715
-1.16944
-1.16142
-1.15279
-1.14319
-1.30468
-1.30552
-1.30251
-1.29795
-1.29342
-1.28939
-1.28574
-1.28234
-1.27878
-1.27449
-1.41085
-1.40982
-1.40664
-1.4023
-1.40044
-1.40177
-1.40386
-1.4065
-1.40945
-1.41204
-1.51233
-1.50904
-1.50611
-1.50425
-1.50588
-1.51097
-1.51809
-1.52698
-1.537
-1.54565
-1.59924
-1.59254
-1.59115
-1.59507
-1.60156
-1.60993
-1.62256
-1.63884
-1.65739
-1.67651
-1.66284
-1.65339
-1.65265
-1.65851
-1.66955
-1.68469
-1.70405
-1.72767
-1.75468
-1.78231
-1.7009
-1.68893
-1.68852
-1.69585
-1.70985
-1.72975
-1.75502
-1.78553
-1.82044
-1.85567
-1.71538
-1.70106
-1.70014
-1.70741
-1.72192
-1.74353
-1.77218
-1.80779
-1.84932
-1.89106
-1.71083
-1.6947
-1.69213
-1.69655
-1.70737
-1.72554
-1.75197
-1.78725
-1.83104
-1.87884
-0.945444
-0.638945
-0.440407
-0.256845
-0.151195
-0.0824753
-0.0414246
-0.0182464
-0.00471276
-3.1071e-05
-1.0628
-0.713269
-0.469343
-0.260008
-0.144078
-0.0728136
-0.0327113
-0.0117593
-0.000538703
0.00116638
-1.2008
-0.802077
-0.504862
-0.264892
-0.136383
-0.0621057
-0.0230254
-0.00450291
0.00420943
0.00259616
-1.35705
-0.904423
-0.547092
-0.271128
-0.127575
-0.0499409
-0.0120901
0.00369713
0.00964559
0.004397
-1.52514
-1.01855
-0.596633
-0.279106
-0.117753
-0.0363652
7.18643e-05
0.012813
0.0157521
0.00665555
-1.6915
-1.14374
-0.654941
-0.290826
-0.108463
-0.0224696
0.0127448
0.022387
0.0222521
0.00930841
-1.8459
-1.27893
-0.723949
-0.309923
-0.102834
-0.0104584
0.0244672
0.0314894
0.0285626
0.0121105
-1.9713
-1.41715
-0.803118
-0.340053
-0.104759
-0.00325696
0.0332256
0.038814
0.0338289
0.0146475
-2.07479
-1.54486
-0.887902
-0.380699
-0.115964
-0.00313207
0.0369784
0.0428579
0.0369891
0.0163847
-2.11248
-1.65919
-0.976122
-0.428748
-0.134879
-0.00976961
0.0352985
0.0429672
0.037385
0.0168999
-2.19837
-1.75562
-1.0338
-0.457021
-0.149476
-0.0201681
0.0281222
0.0384679
0.0343675
0.0158596
-2.26155
-1.75048
-1.01862
-0.458093
-0.166404
-0.0439608
0.00664807
0.0230494
0.0241063
0.0115362
-2.1848
-1.66044
-0.974998
-0.462372
-0.189563
-0.0706829
-0.0164313
0.00685543
0.0136703
0.00720963
-1.9569
-1.50283
-0.92583
-0.484786
-0.233233
-0.109548
-0.0446427
-0.0107479
0.00401882
0.00422833
-1.71558
-1.36545
-0.892022
-0.514022
-0.27946
-0.149358
-0.0732804
-0.028919
-0.00554223
0.00149399
-1.49601
-1.23876
-0.862692
-0.549413
-0.332268
-0.192337
-0.103007
-0.0485612
-0.0174877
-0.0040764
-1.30379
-1.14248
-0.858705
-0.597122
-0.389944
-0.236015
-0.131772
-0.0669709
-0.0278026
-0.00759527
-1.14759
-1.08007
-0.868317
-0.640373
-0.436
-0.268691
-0.151501
-0.0781196
-0.0325093
-0.00867054
-1.04184
-1.04928
-0.876987
-0.665575
-0.461057
-0.28652
-0.162619
-0.084722
-0.0359612
-0.00947494
-0.998715
-1.05714
-0.893404
-0.677517
-0.468077
-0.29275
-0.167261
-0.0876639
-0.0377381
-0.0102724
-1.50899
-1.56563
-1.60854
-1.63981
-1.66077
-1.67725
-1.70188
-1.75647
-1.84548
-1.99663
-1.36368
-1.43542
-1.4972
-1.5553
-1.60673
-1.66502
-1.72419
-1.80492
-1.887
-2.0326
-1.23074
-1.31076
-1.38298
-1.45777
-1.52583
-1.60618
-1.67722
-1.77133
-1.86041
-1.99244
-1.10485
-1.18731
-1.26283
-1.34137
-1.41192
-1.49241
-1.56378
-1.65088
-1.73494
-1.8375
-0.987952
-1.06808
-1.14294
-1.21549
-1.283
-1.35306
-1.42028
-1.49351
-1.56555
-1.6425
-0.882992
-0.959148
-1.02992
-1.09453
-1.15529
-1.21382
-1.2721
-1.33055
-1.38908
-1.44933
-0.794011
-0.866208
-0.930682
-0.986063
-1.037
-1.08242
-1.12818
-1.17308
-1.21913
-1.26394
-0.724891
-0.794414
-0.850457
-0.896869
-0.934587
-0.965414
-0.998824
-1.02911
-1.06386
-1.09759
-0.684664
-0.749477
-0.800177
-0.840685
-0.868972
-0.891088
-0.91302
-0.93032
-0.954846
-0.977788
-0.66923
-0.732803
-0.782749
-0.818963
-0.846085
-0.867611
-0.88697
-0.904794
-0.925427
-0.940306
-0.0698158
-0.134084
-0.198054
-0.258684
-0.317849
-0.37746
-0.43695
-0.493069
-0.541519
-0.571717
-0.256062
-0.322957
-0.388524
-0.451866
-0.514756
-0.578508
-0.642184
-0.702465
-0.754658
-0.789671
-0.465798
-0.531612
-0.595805
-0.659254
-0.723263
-0.7882
-0.852995
-0.915196
-0.969009
-1.00843
-0.677138
-0.742777
-0.80636
-0.869765
-0.934039
-0.998563
-1.06215
-1.12524
-1.1801
-1.21984
-0.875523
-0.943736
-1.00874
-1.07246
-1.1362
-1.1991
-1.26077
-1.32167
-1.37609
-1.41493
-1.05651
-1.12839
-1.19512
-1.25861
-1.32014
-1.37975
-1.43832
-1.49652
-1.54813
-1.58433
-1.2167
-1.28994
-1.35626
-1.4182
-1.47651
-1.53223
-1.58712
-1.64141
-1.68854
-1.72124
-1.35397
-1.42298
-1.48661
-1.54522
-1.59943
-1.65098
-1.70173
-1.75126
-1.79317
-1.82257
-1.46275
-1.52591
-1.58435
-1.6378
-1.68707
-1.73413
-1.78042
-1.82482
-1.86148
-1.88823
-1.54439
-1.59996
-1.65124
-1.69813
-1.7418
-1.78397
-1.82544
-1.86435
-1.89585
-1.92049
1.06424
1.05812
1.05238
1.04669
1.04099
1.03532
1.02985
1.0253
1.02414
1.03422
1.00747
0.998611
0.990082
0.981566
0.972972
0.96432
0.955833
0.948506
0.945075
0.953062
0.935494
0.92364
0.911914
0.900085
0.888082
0.875883
0.863747
0.852942
0.84643
0.851551
0.84749
0.831757
0.816031
0.800151
0.784027
0.767583
0.751119
0.736203
0.726032
0.727889
0.745399
0.726191
0.706599
0.686545
0.666023
0.64491
0.623519
0.603665
0.588959
0.587065
0.628821
0.604603
0.579587
0.554175
0.528407
0.502042
0.475441
0.450604
0.431059
0.424703
0.498113
0.470347
0.441437
0.411467
0.380487
0.348295
0.315392
0.284244
0.258992
0.248653
0.359106
0.326081
0.290744
0.25435
0.217332
0.179327
0.140733
0.10393
0.0728096
0.0579551
0.210872
0.173886
0.133319
0.0906828
0.0468577
0.00176752
-0.0438153
-0.0872028
-0.124595
-0.144819
0.0615191
0.0157948
-0.033758
-0.0839302
-0.134381
-0.18604
-0.23823
-0.287851
-0.330878
-0.356197
1.29148
1.19718
1.23153
1.18132
1.16122
1.13892
1.12396
1.10631
1.11235
1.09959
1.28956
1.19514
1.22934
1.17753
1.15724
1.1332
1.11778
1.09467
1.09492
1.06586
1.28859
1.19328
1.22724
1.17305
1.15245
1.12713
1.11088
1.08061
1.07308
1.02222
1.28858
1.19164
1.22515
1.16781
1.14697
1.12088
1.10318
1.06429
1.04733
0.968981
1.28947
1.19028
1.22297
1.1619
1.14133
1.1144
1.09453
1.04604
1.0178
0.904607
1.2912
1.18924
1.2205
1.15593
1.13622
1.10723
1.08496
1.0261
0.985516
0.8305
1.29375
1.1885
1.21752
1.15068
1.13096
1.0985
1.07476
1.00527
0.950681
0.743524
1.29715
1.18797
1.21409
1.14513
1.12332
1.08834
1.0643
0.98352
0.912278
0.643605
1.30151
1.18752
1.2109
1.13707
1.11334
1.07806
1.05373
0.960506
0.870308
0.531468
1.30672
1.18783
1.20837
1.12715
1.10294
1.06855
1.04318
0.937498
0.825973
0.408351
1.31203
1.19017
1.20819
1.12021
1.09316
1.0583
1.03206
0.911676
0.783246
0.30727
1.32014
1.19797
1.21514
1.11957
1.0848
1.0459
1.01955
0.888839
0.758811
0.326234
1.32755
1.20895
1.22697
1.12422
1.07815
1.03213
1.00276
0.863887
0.731826
0.346835
1.33562
1.22058
1.23874
1.13031
1.07207
1.01682
0.982282
0.837789
0.697116
0.358379
1.34514
1.2285
1.24453
1.13331
1.06543
1.00194
0.957604
0.81246
0.658448
0.362286
1.35563
1.23062
1.24104
1.12939
1.05889
0.988924
0.932481
0.792923
0.618174
0.36134
1.3679
1.22516
1.2283
1.11827
1.05237
0.97883
0.912356
0.781738
0.581943
0.365503
1.38441
1.22159
1.21057
1.10438
1.04577
0.972566
0.896956
0.777028
0.555942
0.379081
1.40326
1.22385
1.19646
1.09134
1.04087
0.968334
0.885046
0.775864
0.539008
0.39559
1.44359
1.23102
1.1922
1.09136
1.04214
0.968296
0.886002
0.776556
0.538724
0.419463
-0.0545177
-0.223404
-0.420006
-0.615795
-0.794695
-0.954963
-1.10007
-1.23261
-1.3454
-1.43707
-0.0725494
-0.218939
-0.375517
-0.532547
-0.679904
-0.817117
-0.946579
-1.07185
-1.18623
-1.28424
-0.0574282
-0.197285
-0.333193
-0.464303
-0.591384
-0.71638
-0.837604
-0.954364
-1.0551
-1.14839
-0.0246751
-0.158913
-0.284519
-0.39656
-0.503249
-0.61135
-0.719967
-0.825927
-0.926115
-1.01928
0.0173385
-0.106862
-0.222164
-0.320678
-0.412537
-0.508356
-0.609947
-0.712278
-0.810741
-0.901875
0.0675879
-0.0418146
-0.147874
-0.241097
-0.327599
-0.417439
-0.5142
-0.61388
-0.710439
-0.799897
0.124367
0.0287009
-0.071629
-0.165762
-0.25363
-0.341287
-0.433678
-0.529568
-0.62484
-0.714276
0.176758
0.0905573
-0.00520326
-0.100849
-0.192287
-0.279699
-0.368515
-0.460138
-0.554929
-0.64498
0.20832
0.125334
0.0326955
-0.0619342
-0.15293
-0.241355
-0.333425
-0.427917
-0.522991
-0.608869
0.229158
0.145158
0.0542997
-0.038745
-0.131145
-0.224925
-0.320264
-0.415045
-0.506919
-0.59276
-0.591337
-0.567227
-0.533911
-0.49638
-0.458125
-0.423544
-0.393392
-0.366887
-0.345579
-0.330507
-0.678717
-0.6539
-0.621521
-0.583976
-0.546074
-0.511925
-0.482591
-0.457409
-0.437554
-0.424075
-0.740042
-0.71587
-0.685927
-0.649728
-0.613551
-0.580446
-0.551872
-0.528179
-0.509244
-0.496125
-0.776424
-0.753875
-0.727979
-0.695197
-0.660507
-0.627989
-0.600022
-0.577544
-0.559646
-0.546708
-0.79191
-0.77188
-0.750701
-0.72229
-0.689903
-0.658219
-0.630335
-0.607849
-0.590412
-0.577576
-0.792122
-0.775341
-0.758553
-0.734572
-0.70517
-0.674751
-0.646642
-0.623027
-0.604722
-0.591423
-0.78158
-0.768431
-0.755155
-0.734861
-0.708238
-0.679119
-0.650876
-0.625819
-0.605547
-0.590914
-0.763115
-0.753525
-0.742688
-0.725116
-0.700965
-0.673395
-0.645695
-0.620177
-0.598689
-0.583156
-0.739281
-0.732651
-0.723073
-0.707164
-0.685123
-0.659455
-0.633028
-0.607978
-0.586306
-0.571476
-0.714996
-0.71045
-0.70124
-0.686196
-0.666061
-0.642885
-0.61898
-0.596198
-0.576084
-0.562586
-0.696677
-0.693502
-0.684468
-0.670076
-0.65189
-0.631553
-0.61069
-0.590773
-0.571988
-0.552911
-0.689078
-0.686902
-0.678442
-0.664964
-0.649149
-0.632206
-0.614928
-0.59822
-0.581911
-0.5633
-0.693156
-0.691935
-0.684702
-0.672034
-0.658457
-0.64488
-0.631051
-0.61715
-0.602859
-0.585843
-0.706873
-0.706987
-0.701615
-0.690763
-0.678221
-0.666809
-0.655115
-0.642496
-0.628915
-0.612899
-0.726268
-0.727493
-0.723966
-0.716022
-0.704888
-0.694581
-0.683867
-0.67112
-0.657157
-0.641077
-0.753405
-0.756159
-0.754577
-0.750137
-0.740507
-0.727602
-0.714835
-0.701924
-0.688133
-0.672626
-0.79518
-0.799585
-0.798987
-0.794586
-0.785017
-0.771815
-0.757969
-0.74406
-0.729564
-0.714189
-0.851019
-0.856267
-0.855497
-0.850231
-0.840616
-0.827937
-0.813844
-0.799099
-0.783709
-0.767786
-0.919824
-0.925163
-0.923723
-0.91765
-0.907951
-0.895859
-0.882257
-0.867643
-0.852166
-0.836077
-1.00145
-1.00631
-1.00429
-0.997888
-0.988453
-0.977203
-0.964702
-0.951183
-0.936702
-0.921425
-0.542884
-0.449801
-0.385901
-0.308658
-0.232668
-0.163877
-0.1082
-0.0658598
-0.0345794
-0.00972696
-0.557976
-0.446598
-0.379235
-0.295933
-0.222388
-0.155923
-0.102528
-0.0623465
-0.0326721
-0.00922474
-0.573903
-0.445247
-0.37513
-0.287906
-0.213073
-0.147865
-0.0964311
-0.0582206
-0.0301098
-0.0082973
-0.59105
-0.446797
-0.373264
-0.280699
-0.204334
-0.139819
-0.0901108
-0.0537662
-0.0272256
-0.00717905
-0.611172
-0.451311
-0.372777
-0.273716
-0.195826
-0.131776
-0.0836457
-0.0491164
-0.0241954
-0.00604079
-0.636416
-0.459548
-0.374568
-0.267358
-0.187616
-0.123811
-0.0771278
-0.0443847
-0.021141
-0.00496545
-0.669742
-0.473731
-0.37929
-0.262086
-0.179778
-0.115917
-0.0705594
-0.039606
-0.0181081
-0.00397221
-0.714254
-0.495906
-0.387659
-0.258237
-0.172297
-0.107984
-0.0638398
-0.0347131
-0.015047
-0.00302922
-0.772171
-0.531749
-0.400271
-0.256024
-0.165116
-0.0998701
-0.0568338
-0.029596
-0.0118599
-0.00208521
-0.848857
-0.578778
-0.417614
-0.25554
-0.158133
-0.0914232
-0.0494086
-0.0241452
-0.00844801
-0.00109742
-0.511117
-0.451006
-0.391677
-0.313806
-0.235763
-0.166076
-0.11015
-0.0659526
-0.0335702
-0.00953189
-0.503289
-0.445102
-0.389789
-0.314296
-0.23675
-0.167153
-0.110993
-0.0666167
-0.0338238
-0.00947904
-0.50186
-0.44176
-0.386919
-0.313828
-0.236562
-0.167294
-0.111034
-0.06667
-0.0338979
-0.00930954
-0.504679
-0.439355
-0.381723
-0.313558
-0.237451
-0.168158
-0.111541
-0.0672581
-0.0345434
-0.009405
-0.517872
-0.442281
-0.380885
-0.309008
-0.237722
-0.168273
-0.111474
-0.0676613
-0.0352639
-0.00973694
-0.319965
-0.409304
-0.478586
-0.5284
-0.561098
-0.578759
-0.583631
-0.578162
-0.564712
-0.542022
-0.3176
-0.407637
-0.476548
-0.525305
-0.556893
-0.574151
-0.579155
-0.573738
-0.561476
-0.538738
-0.317993
-0.408992
-0.478237
-0.526897
-0.55796
-0.574287
-0.577254
-0.570662
-0.556593
-0.538233
-0.320027
-0.412429
-0.482487
-0.531424
-0.561952
-0.576706
-0.576842
-0.568112
-0.552478
-0.540974
-0.323834
-0.41784
-0.489017
-0.538492
-0.568625
-0.581807
-0.579796
-0.569196
-0.554514
-0.550627
0.89497
0.889729
0.882096
0.874477
0.867497
0.860872
0.854714
0.849826
0.848061
0.854691
0.957567
0.956061
0.952075
0.947361
0.942711
0.938126
0.933775
0.930399
0.930054
0.938546
1.01086
1.0103
1.00817
1.00566
1.0033
1.00105
0.998966
0.997462
0.998463
1.00836
1.05839
1.05891
1.05837
1.05752
1.05673
1.05598
1.05519
1.05448
1.05575
1.0664
1.09627
1.09715
1.0975
1.09771
1.09801
1.09837
1.09861
1.0985
1.09971
1.11021
1.12399
1.12491
1.12573
1.1266
1.12763
1.12883
1.13001
1.1307
1.13187
1.13983
1.13977
1.14022
1.14086
1.14164
1.14264
1.1439
1.14536
1.14654
1.14781
1.15444
1.14243
1.14185
1.14159
1.14147
1.14146
1.14162
1.14189
1.14201
1.14341
1.15462
1.13119
1.12916
1.12751
1.12596
1.12448
1.12311
1.12186
1.12081
1.12188
1.13405
1.10531
1.10143
1.09794
1.09455
1.09119
1.08791
1.08483
1.08235
1.0827
1.09424
-0.21759
-0.235419
-0.2587
-0.286193
-0.317011
-0.350936
-0.38743
-0.424527
-0.457548
-0.479524
-0.089861
-0.110992
-0.136017
-0.16381
-0.194104
-0.227057
-0.262003
-0.297
-0.328279
-0.34757
0.0476559
0.0234562
-0.00303269
-0.0310036
-0.0605448
-0.0920441
-0.124991
-0.157414
-0.186211
-0.20116
0.186825
0.160693
0.133539
0.10594
0.0776793
0.0483749
0.0183818
-0.010617
-0.0355704
-0.0465529
0.318164
0.291979
0.265782
0.240061
0.214416
0.188359
0.162101
0.137154
0.116633
0.109479
0.438199
0.414255
0.39108
0.368769
0.346605
0.324103
0.301563
0.280594
0.264335
0.260821
0.547212
0.527404
0.508594
0.4902
0.471512
0.452434
0.433525
0.416453
0.404202
0.40393
0.648546
0.633013
0.618088
0.602922
0.587161
0.571055
0.55532
0.541668
0.532874
0.535163
0.747423
0.734103
0.720726
0.707204
0.69345
0.679697
0.666674
0.655996
0.649993
0.65395
0.841033
0.828417
0.814252
0.800936
0.788639
0.777173
0.766909
0.758952
0.755091
0.760183
1.36732
1.22837
1.24672
1.18278
1.1707
1.15082
1.12331
1.09803
1.05856
0.982943
1.35465
1.22372
1.24746
1.18612
1.17242
1.15405
1.1288
1.10569
1.07705
1.02112
1.34316
1.21957
1.24725
1.18837
1.17331
1.15621
1.13336
1.11375
1.09679
1.05828
1.33286
1.21592
1.24646
1.18993
1.17368
1.15751
1.13695
1.12054
1.11279
1.0898
1.32374
1.2126
1.24506
1.19073
1.17345
1.15778
1.13915
1.12524
1.12462
1.11447
1.31576
1.20953
1.24315
1.19075
1.17257
1.15695
1.13984
1.12776
1.13258
1.13226
1.30888
1.20671
1.24095
1.1901
1.17115
1.15509
1.13911
1.12815
1.13677
1.14248
1.30304
1.20409
1.23859
1.18883
1.16932
1.15228
1.13705
1.12632
1.1371
1.1448
1.29821
1.20165
1.23619
1.18696
1.16712
1.14859
1.13376
1.12212
1.13333
1.13872
1.29436
1.19935
1.23382
1.18446
1.16446
1.1441
1.12934
1.11546
1.12514
1.12378
1.48321
1.23769
1.22743
1.16212
1.15758
1.13352
1.09993
1.066
1.00555
0.918842
1.44662
1.24092
1.23306
1.16438
1.15969
1.13559
1.10121
1.06672
1.00435
0.911735
1.42357
1.23893
1.2367
1.16756
1.1614
1.13807
1.10401
1.07061
1.00919
0.914389
1.40101
1.23659
1.24107
1.17286
1.16457
1.14236
1.11008
1.07898
1.01785
0.92335
1.38224
1.23336
1.24442
1.178
1.16783
1.14663
1.1164
1.08618
1.03205
0.935089
0.770146
0.707673
0.632603
0.543063
0.437656
0.316131
0.182676
0.0446326
-0.0887109
-0.211539
0.763655
0.701229
0.626709
0.539053
0.437139
0.319312
0.188112
0.0502347
-0.0843811
-0.20856
0.772159
0.708171
0.631539
0.542965
0.441288
0.324235
0.193472
0.0549584
-0.0811601
-0.207121
0.791502
0.719923
0.638307
0.547721
0.445294
0.328291
0.197591
0.05827
-0.0794629
-0.207344
0.826117
0.739657
0.647956
0.552744
0.448066
0.330316
0.199547
0.0596278
-0.0796008
-0.209405
)
;

boundaryField
{
    left
    {
        type            zeroGradient;
    }
    right
    {
        type            fixedValue;
        value           uniform 0;
    }
    down
    {
        type            zeroGradient;
    }
    up
    {
        type            zeroGradient;
    }
    cylinder
    {
        type            zeroGradient;
    }
    defaultFaces
    {
        type            empty;
    }
}


// ************************************************************************* //
