/*--------------------------------*- C++ -*----------------------------------*\
| =========                 |                                                 |
| \\      /  F ield         | OpenFOAM: The Open Source CFD Toolbox           |
|  \\    /   O peration     | Version:  2406                                  |
|   \\  /    A nd           | Website:  www.openfoam.com                      |
|    \\/     M anipulation  |                                                 |
\*---------------------------------------------------------------------------*/
FoamFile
{
    version     2.0;
    format      ascii;
    arch        "LSB;label=32;scalar=64";
    class       surfaceScalarField;
    location    "0.65";
    object      phi;
}
// * * * * * * * * * * * * * * * * * * * * * * * * * * * * * * * * * * * * * //

dimensions      [0 3 -1 0 0 0 0];

oriented        oriented;

internalField   nonuniform List<scalar> 
3485
(
0.00275271
0.00282934
-0.00558206
0.0088917
0.00697143
-0.0131104
0.0174362
0.00803949
-0.016584
0.0285208
0.00571819
-0.0168027
0.0422474
0.000971087
-0.0146978
0.0586684
-0.00508337
-0.0113376
0.0776435
-0.0113682
-0.0076069
0.0990597
-0.0175023
-0.00391388
0.122806
-0.0237639
1.79521e-05
-0.0264973
0.00255319
0.14675
0.00190111
0.000928229
0.00682827
0.00204428
0.0149741
-0.000106301
0.0265387
-0.00584643
0.0411963
-0.0136866
0.0581889
-0.0220759
0.0769639
-0.0301433
0.0971016
-0.03764
0.118243
-0.0449055
-0.049016
0.140762
0.000936986
-8.75706e-06
0.00542138
-0.00244012
0.0143552
-0.0090401
0.0272839
-0.0187752
0.0431627
-0.0295653
0.0610255
-0.0399387
0.0801661
-0.0492839
0.100114
-0.057588
0.120466
-0.065257
-0.0699766
0.141426
0.000958165
-0.000966922
0.00637023
-0.00785219
0.0167537
-0.0194236
0.0310345
-0.0330559
0.0478061
-0.046337
0.0659619
-0.0580945
0.0847977
-0.0681197
0.103954
-0.0767448
0.123246
-0.0845484
-0.089607
0.142876
0.00179548
-0.0027624
0.00900791
-0.0150646
0.0212099
-0.0316255
0.0367456
-0.0485917
0.0539883
-0.0635797
0.0718542
-0.0759603
0.0898237
-0.0860892
0.107808
-0.094729
0.125926
-0.102667
-0.108913
0.145232
0.00278362
-0.00554602
0.0118584
-0.0241394
0.0256323
-0.0453995
0.0417762
-0.0647356
0.0585515
-0.080355
0.0751165
-0.0925253
0.0913541
-0.102327
0.107611
-0.110986
0.124476
-0.119531
-0.127982
0.143545
0.00380731
-0.00935333
0.0144404
-0.0347724
0.0289763
-0.0599354
0.044562
-0.0803213
0.0596783
-0.0954714
0.0740168
-0.106864
0.0879974
-0.116307
0.102385
-0.125374
0.11804
-0.135185
-0.146085
0.136143
0.00478875
-0.0141421
0.0163272
-0.0463108
0.0303758
-0.0739841
0.0440779
-0.0940233
0.0565739
-0.107967
0.0682264
-0.118516
0.0799009
-0.127982
0.0925557
-0.138029
0.106882
-0.149512
-0.162208
0.123005
0.00556088
-0.019703
0.0170338
-0.0577837
0.0293714
-0.0863217
0.0403569
-0.105009
0.0499602
-0.117571
0.0590229
-0.127579
0.0685511
-0.13751
0.0793438
-0.148822
0.0915122
-0.16168
-0.174814
0.104118
0.0059424
-0.0256454
0.0163581
-0.0681995
0.0262498
-0.0962134
0.0343758
-0.113135
0.0413167
-0.124512
0.0480396
-0.134302
0.0554122
-0.144883
0.0638654
-0.157275
0.0729428
-0.170758
0.0813805
-0.183252
-0.00209131
0.0190635
-0.0169722
-0.00559745
0.0328686
-0.0293625
-0.00942322
0.0373758
-0.0335501
-0.0132954
0.0387791
-0.0349069
-0.0170916
0.0387317
-0.0349355
-0.0207168
0.0377299
-0.0341047
-0.0241029
0.0359775
-0.0325913
-0.0271842
0.0335062
-0.030425
-0.0298634
0.0302789
-0.0275997
0.0263203
-0.0320183
-0.0241654
-0.00172935
0.0207928
-0.00477088
0.0359102
-0.00807554
0.0406805
-0.0114706
0.0421741
-0.0148676
0.0421286
-0.0181949
0.0410572
-0.021385
0.0391676
-0.0243682
0.0364895
-0.0270498
0.0329605
0.0285769
-0.0293065
-0.00115822
0.021951
-0.00344123
0.0381932
-0.00589799
0.0431373
-0.00835471
0.0446308
-0.0109462
0.0447201
-0.0136193
0.0437304
-0.0162574
0.0418057
-0.0187977
0.0390297
-0.0211608
0.0353237
0.0306365
-0.0232204
-0.000580646
0.0225317
-0.00193686
0.0395494
-0.00318157
0.044382
-0.00411665
0.0455659
-0.00528877
0.0458923
-0.00687732
0.0453189
-0.00863546
0.0435638
-0.0103978
0.040792
-0.0120885
0.0370144
0.0321057
-0.0135577
0.000588438
0.0219432
0.000974908
0.0391629
0.00120601
0.0441509
0.00136966
0.0454022
0.00147592
0.045786
0.00135025
0.0454446
0.000984137
0.0439299
0.000480585
0.0412956
-5.73232e-05
0.0375524
0.0325379
-0.00048953
0.00202868
0.0199146
0.00436178
0.0368298
0.00609776
0.0424149
0.00732339
0.0441766
0.0086058
0.0445036
0.0101317
0.0439187
0.0117117
0.0423498
0.0131953
0.039812
0.0145639
0.0361838
0.0310287
0.0160731
0.00309669
0.0168179
0.00723359
0.0326929
0.0108992
0.0387493
0.0141828
0.040893
0.017476
0.0412103
0.0209961
0.0403986
0.0246577
0.0386883
0.0283159
0.0361539
0.0319107
0.032589
0.0272243
0.035715
0.00378705
0.0130308
0.00957169
0.0269083
0.0154127
0.0329083
0.021212
0.0350938
0.0271817
0.0352406
0.0334239
0.0341564
0.0398396
0.0322725
0.0462497
0.0297438
0.0525171
0.0263216
0.0209001
0.0588413
0.00397609
0.00905473
0.0108787
0.0200057
0.0186489
0.0251381
0.026987
0.0267557
0.0360357
0.0261919
0.0458412
0.0243509
0.0562298
0.0218839
0.066856
0.0191176
0.0772552
0.0159224
0.0110076
0.0871477
0.00347268
0.0103679
0.018922
0.028875
0.0403691
0.0533824
0.0676594
0.0828631
0.0988035
0.112364
-0.0138512
0.0273061
-0.0454732
0.0387644
-0.218284
0.165668
0.0808924
-0.246236
0.204108
0.112865
-0.237543
0.20557
0.133945
-0.202353
0.181273
0.146864
-0.161968
0.149048
0.154074
-0.123924
0.116714
0.157536
-0.0898398
0.0863779
0.158731
-0.0618595
0.0606649
-0.0284371
0.0290968
-0.018643
0.0166427
0.0287564
-0.265683
0.0736129
-0.291093
0.108305
-0.272235
0.131676
-0.225723
0.146069
-0.176361
0.154192
-0.132047
0.158232
-0.0938796
0.159896
-0.0635243
-0.0279995
-0.0216106
0.0150329
0.018671
-0.305965
0.0656761
-0.338098
0.102874
-0.309433
0.128531
-0.251381
0.144498
-0.192328
0.153701
-0.14125
0.158491
-0.0986693
0.16083
-0.0658635
-0.0279593
-0.0201307
0.0216059
0.0126377
-0.338733
0.0601398
-0.3856
0.0986859
-0.347979
0.125831
-0.278526
0.14298
-0.209477
0.153157
-0.151427
0.158715
-0.104227
0.161845
-0.0689937
-0.0284673
-0.0111609
0.0322772
0.0154407
-0.365335
0.0614732
-0.431632
0.0992197
-0.385725
0.125998
-0.305305
0.143134
-0.226612
0.153655
-0.161948
0.159687
-0.110259
0.163548
-0.0728553
-0.0296193
0.00631591
0.0420344
0.0300572
-0.389076
0.0736573
-0.475232
0.108506
-0.420574
0.132502
-0.329301
0.147639
-0.241749
0.157162
-0.17147
0.162879
-0.115976
0.16709
-0.0770663
-0.0313965
0.0294028
0.0483466
0.0546294
-0.414303
0.0961001
-0.516703
0.128092
-0.452566
0.148152
-0.349361
0.159574
-0.253171
0.166457
-0.178353
0.170655
-0.120175
0.174423
-0.0808335
-0.0336115
0.0572096
0.0499782
0.0813365
-0.438429
0.121914
-0.55728
0.153827
-0.484479
0.171772
-0.367306
0.17985
-0.26125
0.183527
-0.18203
0.185417
-0.122064
0.187914
-0.0833303
-0.0360244
0.0831409
0.053985
0.102479
-0.457768
0.142612
-0.597413
0.178067
-0.519934
0.197715
-0.386954
0.205084
-0.268618
0.20694
-0.183886
0.207116
-0.12224
0.208394
-0.0846085
-0.0387212
0.110394
0.0559553
0.116877
-0.464251
0.154319
-0.634855
0.195127
-0.560742
0.219817
-0.411644
0.229528
-0.278329
0.231871
-0.186229
0.231986
-0.122355
0.233186
-0.0858081
-0.0422887
0.356956
-0.0841646
-0.216836
0.434168
-0.541462
0.471225
-0.671913
0.487907
-0.577424
0.484196
-0.407933
0.467661
-0.261795
0.447299
-0.165867
0.429997
-0.105054
0.417954
-0.0737644
-0.0376756
0.547548
-0.231992
-0.39972
0.594911
-0.588825
0.585102
-0.662103
0.560366
-0.552689
0.537506
-0.385072
0.516368
-0.240657
0.496484
-0.145983
0.480339
-0.0889085
0.468579
-0.0620048
-0.0325859
0.758321
-0.330346
-0.659967
0.758664
-0.589169
0.707781
-0.61122
0.647453
-0.492361
0.597516
-0.335135
0.561289
-0.20443
0.535521
-0.120215
0.517638
-0.071026
0.504953
-0.0493194
-0.0270111
0.866874
-0.362045
-0.835176
0.816665
-0.538959
0.744806
-0.539361
0.678396
-0.42595
0.622599
-0.279338
0.581223
-0.163054
0.552862
-0.0918536
0.534034
-0.0521981
0.520792
-0.0360774
-0.0214182
0.923178
-0.36288
-0.922343
0.868333
-0.484115
0.788779
-0.459807
0.708027
-0.345198
0.638868
-0.210179
0.589169
-0.113356
0.557132
-0.059816
0.536897
-0.0319629
0.52282
-0.0220011
-0.0154591
0.94366
-0.344098
-0.962443
0.872621
-0.413075
0.782454
-0.369641
0.696732
-0.259476
0.626827
-0.140274
0.577838
-0.0643664
0.547321
-0.0292994
0.528896
-0.0135378
0.516842
-0.00994744
-0.00983243
0.940381
-0.307063
-0.977416
0.852904
-0.325597
0.744835
-0.261572
0.6489
-0.163542
0.580664
-0.0720381
0.538405
-0.022107
0.514068
-0.00496225
0.500223
0.000306939
0.491153
-0.00087709
-0.00472728
0.871826
-0.236365
-0.942524
0.752713
-0.206484
0.627051
-0.13591
0.531993
-0.0684837
0.476955
-0.0169997
0.449315
0.00553271
0.435414
0.00893851
0.428284
0.0074369
0.423356
0.00405119
-0.0010265
0.631782
-0.115573
-0.752573
0.493083
-0.067785
0.384972
-0.0277992
0.323047
-0.00655886
0.299426
0.00662179
0.294308
0.0106507
0.294281
0.00896485
0.295459
0.0062593
0.295834
0.00367583
0.000448503
0.174351
-0.289925
0.106566
0.0787672
0.0722083
0.0788301
0.0894808
0.0984456
0.104705
0.108381
0.55129
0.0838334
-0.553743
0.541142
0.114267
0.523822
0.140325
0.494911
0.165054
0.456795
0.18166
0.406454
0.195573
0.351907
0.197423
0.296251
0.197082
0.246591
0.190423
0.176504
0.590494
0.075672
-0.582333
0.595044
0.109717
0.599262
0.136107
0.596181
0.168135
0.589021
0.18882
0.573035
0.211558
0.544587
0.225871
0.507982
0.233687
0.452221
0.246184
0.229005
0.619537
0.0658461
-0.609711
0.632063
0.0971918
0.645063
0.123106
0.659516
0.153682
0.670901
0.177435
0.683077
0.199383
0.688557
0.220392
0.689905
0.232339
0.683962
0.252126
0.253
0.642684
0.0556135
-0.632452
0.658895
0.0809808
0.675847
0.106155
0.69764
0.131889
0.719094
0.155981
0.742559
0.175917
0.768078
0.194874
0.791184
0.209233
0.818915
0.224395
0.23674
0.660137
0.0437794
-0.648303
0.677644
0.0634738
0.697454
0.0863452
0.721839
0.107503
0.74866
0.12916
0.777723
0.146854
0.810187
0.16241
0.844117
0.175302
0.882882
0.18563
0.19728
0.667198
0.0306573
-0.654076
0.684819
0.0458532
0.706172
0.0649923
0.732125
0.0815501
0.761745
0.0995399
0.79522
0.113379
0.831814
0.125817
0.871879
0.135237
0.915028
0.142481
0.149865
0.655282
0.0171377
-0.641762
0.672569
0.0285661
0.694931
0.0426297
0.722026
0.0544551
0.754168
0.0673983
0.791302
0.0762443
0.832155
0.0849636
0.877622
0.0897703
0.92578
0.0943233
0.0982283
0.607488
0.00574778
-0.596098
0.623224
0.0128309
0.644839
0.0210146
0.671515
0.0277785
0.705153
0.0337607
0.743815
0.0375825
0.78804
0.0407385
0.836279
0.0415308
0.888007
0.042595
0.043712
0.491975
-0.00137313
-0.484854
0.50396
0.000845498
0.521678
0.00329635
0.544553
0.0049039
0.572388
0.00592588
0.603852
0.00611825
0.638414
0.00617706
0.674751
0.00519292
0.712746
0.00460025
0.00388499
0.24898
-0.250353
0.249825
0.253122
0.258025
0.263951
0.27007
0.276247
0.28144
0.28604
0.0552259
0.129217
-0.117689
-0.0667539
0.0463808
0.124789
-0.115944
0.0389067
0.121908
-0.114434
0.0319352
0.120008
-0.113036
0.0251264
0.1185
-0.111691
0.0185068
0.116815
-0.110196
0.0122362
0.114006
-0.107736
0.0065283
0.108155
-0.102447
0.00201839
0.0931471
-0.0886372
0.0511992
-0.0491808
0.0508216
0.139879
-0.0614839
0.041771
0.13384
0.0341681
0.129511
0.0274261
0.12675
0.0211436
0.124782
0.0152502
0.122709
0.00980149
0.119455
0.00491556
0.113041
0.00132676
0.0967359
0.052526
0.0428681
0.15065
-0.0536393
0.0332888
0.143419
0.025463
0.137337
0.0190877
0.133125
0.0137269
0.130143
0.00915873
0.127277
0.0052447
0.123369
0.00196599
0.11632
7.3486e-06
0.0986945
0.0525333
0.0327437
0.161203
-0.0432966
0.0230341
0.153129
0.0151662
0.145205
0.00928884
0.139003
0.00501458
0.134417
0.00193136
0.13036
-0.000267409
0.125568
-0.00150705
0.117559
-0.00130379
0.0984913
0.0512296
0.0228083
0.17087
-0.0324746
0.0137477
0.162189
0.00630001
0.152652
0.00101757
0.144285
-0.00231038
0.137745
-0.00417866
0.132229
-0.00490504
0.126294
-0.00440692
0.117061
-0.00245899
0.0965433
0.0487706
0.0125322
0.178678
-0.0203409
0.00514342
0.169578
-0.00101919
0.158815
-0.00531725
0.148583
-0.00773066
0.140158
-0.00864276
0.133141
-0.00827983
0.125931
-0.00650807
0.115289
-0.00329235
0.0933276
0.0454782
0.00146957
0.184355
-0.00714617
-0.00374431
0.174792
-0.00801256
0.163083
-0.0108305
0.151401
-0.0121299
0.141458
-0.0121175
0.133128
-0.0108713
0.124685
-0.00817303
0.112591
-0.00396976
0.0891244
0.0415085
-0.0131851
0.18732
0.0102202
-0.0155135
0.17712
-0.016988
0.164558
-0.0175449
0.151958
-0.0172172
0.14113
-0.016011
0.131922
-0.0137513
0.122425
-0.0100102
0.10885
-0.00466434
0.0837785
0.0368441
-0.0314461
0.187268
0.0314984
-0.0302826
0.175957
-0.0283953
0.16267
-0.0262349
0.149798
-0.0239065
0.138802
-0.0211562
0.129172
-0.017488
0.118757
-0.0122269
0.103589
-0.00535129
0.0769029
0.0314928
-0.0522187
0.0562347
-0.0470197
-0.0416239
-0.0367091
-0.0322091
-0.0275491
-0.0219266
-0.0145509
-0.00584746
0.0705761
0.038675
-0.0797415
-0.0295096
0.0615783
0.0387227
-0.0297248
0.0527532
0.0386718
-0.0298468
0.0440947
0.038574
-0.0299155
0.0355824
0.0384588
-0.0299465
0.027201
0.0382249
-0.0298436
0.0189829
0.0374855
-0.0292673
0.0110937
0.0353527
-0.0274635
0.00411214
0.0299449
-0.0229634
0.016495
-0.0123828
0.0718296
0.0479557
-0.0811104
0.0626873
0.047865
0.0537132
0.047646
0.044905
0.0473822
0.0362464
0.0471174
0.0277215
0.0467499
0.0193581
0.0458489
0.0113153
0.0433954
0.00418286
0.0370774
0.0206778
0.0724197
0.0573147
-0.0817786
0.0632701
0.0570146
0.0542934
0.0566227
0.0454726
0.056203
0.036775
0.0558151
0.0281791
0.0553457
0.0197194
0.0543087
0.0115597
0.0515551
0.00428722
0.0443499
0.024965
0.0716159
0.0666196
-0.0809208
0.0623966
0.0662339
0.053375
0.0656442
0.0445508
0.0650271
0.035908
0.0644579
0.0274242
0.0638295
0.0191158
0.0626171
0.0111282
0.0595427
0.00405748
0.0514206
0.0290225
0.0732563
0.0760659
-0.0827026
0.0640646
0.0754255
0.0549886
0.0747203
0.0460253
0.0739904
0.0371642
0.073319
0.0284138
0.0725798
0.0198364
0.0711944
0.0115985
0.0677807
0.00427391
0.0587451
0.0332964
0.0670666
0.0850429
-0.0760437
0.0582239
0.0842682
0.0496944
0.0832497
0.0414406
0.0822443
0.0333917
0.081368
0.0254817
0.0804898
0.0177106
0.0789656
0.0102254
0.0752659
0.00363517
0.0653353
0.0369316
0.0703511
0.0943299
-0.0796381
0.0613217
0.0932976
0.0523726
0.0921989
0.0435262
0.0910907
0.0348378
0.0900564
0.0263712
0.0889563
0.0182085
0.0871284
0.0104956
0.0829788
0.00375546
0.0720755
0.0406871
0.0625827
0.102919
-0.0711718
0.0543447
0.101536
0.0464801
0.100063
0.0388502
0.0987205
0.0313184
0.0975883
0.0238366
0.0964381
0.0164674
0.0944976
0.00939936
0.0900468
0.0032744
0.0782004
0.0439615
0.0592508
0.110823
-0.0671543
0.0514458
0.109341
0.043632
0.107877
0.0360086
0.106344
0.0286629
0.104934
0.0215809
0.10352
0.0147699
0.101309
0.00833999
0.0964767
0.00283903
0.0837014
0.0468005
0.0529994
-0.0598658
0.0463958
0.039839
0.0331466
0.0263897
0.0197139
0.0132867
0.00731615
0.00238035
0.201005
0.0349459
-0.0379606
0.19644
0.181332
-0.176768
0.190147
0.199313
-0.193019
0.186087
0.165217
-0.161158
0.183146
0.143911
-0.14097
0.179818
0.142175
-0.138848
0.173209
0.150296
-0.143687
0.161642
0.177989
-0.166421
0.132759
0.220385
-0.191503
0.303678
-0.25066
0.200626
0.0323102
0.195081
0.186876
0.18819
0.206204
0.183701
0.169706
0.180667
0.146945
0.177737
0.145105
0.172021
0.156013
0.16072
0.18929
0.132783
0.248322
0.355351
0.200135
0.0301651
0.193333
0.193679
0.185506
0.214031
0.180294
0.174918
0.176999
0.150241
0.174287
0.147817
0.169253
0.161047
0.157957
0.200585
0.131414
0.274866
0.404986
0.199568
0.0285868
0.191215
0.202032
0.181993
0.223253
0.17592
0.180991
0.17244
0.153721
0.169763
0.150494
0.165005
0.165804
0.153493
0.212097
0.128218
0.300141
0.452283
0.198991
0.0275856
0.188752
0.21227
0.17761
0.234395
0.170938
0.187663
0.167476
0.157182
0.164418
0.153553
0.159391
0.170831
0.147333
0.224155
0.125694
0.32178
0.495274
0.198453
0.0271221
0.18599
0.224734
0.172735
0.24765
0.166172
0.194226
0.16258
0.160774
0.158434
0.157699
0.152712
0.176553
0.140101
0.236767
0.118635
0.343245
0.537866
0.197928
0.0271837
0.18319
0.239472
0.168439
0.262401
0.162472
0.200193
0.157945
0.165301
0.152149
0.163495
0.145587
0.183115
0.131613
0.25074
0.115314
0.359545
0.573542
0.197386
0.0277871
0.180991
0.255868
0.165733
0.277659
0.159848
0.206078
0.153954
0.171195
0.146608
0.170841
0.1389
0.190822
0.123699
0.265942
0.10913
0.374114
0.6115
0.196835
0.0289421
0.180009
0.272694
0.165208
0.292459
0.158748
0.212538
0.152616
0.177328
0.144437
0.17902
0.13534
0.199919
0.118237
0.283045
0.102805
0.389546
0.64715
0.196393
0.0305392
0.180646
0.28844
0.167951
0.305155
0.16237
0.218119
0.156793
0.182904
0.146938
0.188876
0.134011
0.212846
0.11298
0.304075
0.100974
0.401552
0.688258
0.312713
0.0198365
0.317908
0.283245
0.321968
0.301094
0.32596
0.214127
0.332013
0.17685
0.330977
0.189912
0.335571
0.208251
0.337458
0.302189
0.375466
0.363544
0.623213
0.440512
0.314887
0.00695985
0.3427
0.255433
0.365032
0.278762
0.377663
0.201497
0.387459
0.167054
0.39543
0.181941
0.399608
0.204074
0.413743
0.288054
0.431058
0.346229
0.568191
0.48608
0.314828
-0.00585788
0.36389
0.20637
0.403546
0.239106
0.424707
0.180336
0.437989
0.153772
0.456362
0.163568
0.459336
0.201099
0.488895
0.258495
0.511418
0.323705
0.517397
0.562212
0.312983
-0.0168305
0.375469
0.143884
0.428532
0.186043
0.45699
0.151879
0.473339
0.137423
0.499465
0.137442
0.506504
0.19406
0.541802
0.223198
0.584812
0.280694
0.464594
0.637616
0.310672
-0.0254926
0.377926
0.0766306
0.439944
0.124024
0.473663
0.11816
0.493667
0.117419
0.522499
0.10861
0.536945
0.179614
0.57284
0.187303
0.63153
0.222004
0.405207
0.690917
0.309554
-0.0330366
0.375034
0.0111511
0.439994
0.0590645
0.47637
0.0817835
0.500724
0.0930654
0.527834
0.0815
0.55268
0.154768
0.590087
0.149896
0.648518
0.163572
0.340762
0.712963
0.31034
-0.0413659
0.366871
-0.04538
0.42613
-0.000195325
0.461594
0.0463201
0.490346
0.0643133
0.514893
0.0569528
0.55064
0.119021
0.589829
0.110707
0.637955
0.115446
0.264752
0.713965
0.311033
-0.0503882
0.346844
-0.081191
0.386489
-0.0398411
0.41468
0.0181296
0.444771
0.0342222
0.466277
0.0354464
0.510588
0.0747101
0.553168
0.0681269
0.592096
0.0765178
0.17338
0.683469
0.303645
-0.0520229
0.296911
-0.0744573
0.297385
-0.0403144
0.311787
0.00372689
0.335062
0.0109476
0.355308
0.0152005
0.400574
0.0294438
0.439959
0.028742
0.481564
0.034913
0.0723033
0.58264
0.249987
0.17553
0.135216
0.138942
0.14989
0.165091
0.194534
0.223276
0.258189
0.330493
0.458734
-0.0849764
0.473569
-0.0763189
0.48915
-0.0692195
0.505394
-0.0595409
0.521314
-0.0483949
0.534082
-0.0331087
0.543609
-0.0166734
0.548912
0.00491773
0.553086
0.0273244
0.0555773
0.501736
-0.100633
0.517298
-0.0918806
0.53067
-0.0825911
0.54209
-0.0709614
0.5518
-0.0581051
0.559503
-0.0408109
0.565978
-0.0231485
0.571324
-0.000428145
0.577102
0.0215459
0.0503468
0.568098
-0.106519
0.576162
-0.0999444
0.582235
-0.0886639
0.586282
-0.0750084
0.588859
-0.0606821
0.591667
-0.0436183
0.594481
-0.0259632
0.597382
-0.0033293
0.602367
0.0165611
0.0430029
0.63426
-0.103163
0.630234
-0.0959189
0.62623
-0.0846597
0.62256
-0.0713383
0.619099
-0.0572213
0.617304
-0.0418229
0.616814
-0.0254729
0.619674
-0.00618997
0.623752
0.0124839
0.0343029
0.677734
-0.0899803
0.664419
-0.0826036
0.652772
-0.0730122
0.643575
-0.0621415
0.636684
-0.0503311
0.632677
-0.0378158
0.631292
-0.0240872
0.633851
-0.00874966
0.638812
0.00752371
0.0248113
0.69501
-0.0720269
0.677281
-0.0648747
0.662465
-0.0581958
0.65117
-0.0508471
0.643119
-0.0422795
0.638419
-0.0331159
0.63681
-0.0224786
0.638879
-0.0108191
0.644484
0.00191956
0.0152188
0.692063
-0.0501254
0.67306
-0.0458718
0.657019
-0.0421546
0.644569
-0.0383965
0.635341
-0.033052
0.629559
-0.0273336
0.626833
-0.0197527
0.627873
-0.0118597
0.632907
-0.00311397
0.00636365
0.661189
-0.027846
0.641939
-0.0266212
0.625071
-0.0252872
0.610827
-0.0241528
0.599633
-0.0218575
0.591548
-0.0192489
0.586707
-0.0149116
0.585797
-0.0109491
0.588807
-0.00612399
-0.000928143
0.563706
-0.00891192
0.545899
-0.00881435
0.529443
-0.00883051
0.514511
-0.00922059
0.502317
-0.00966388
0.492732
-0.00966363
0.486253
-0.00843301
0.482489
-0.00718511
0.481881
-0.00551556
-0.00390127
0.321581
0.312766
0.303936
0.294715
0.285051
0.275388
0.266955
0.25977
0.254254
0.00333368
0.0359589
-0.0392926
0.0056978
0.0800213
-0.0823854
0.00550574
0.102537
-0.102345
0.00397788
0.112221
-0.110693
0.00243548
0.115761
-0.114218
0.000645957
0.117165
-0.115375
-0.00116024
0.116526
-0.11472
-0.00218484
0.11322
-0.112196
-0.00196592
0.106693
-0.106912
0.0953971
-0.000441612
-0.0969214
0.00471649
0.0312424
0.0100852
0.0746526
0.012897
0.0997256
0.0137301
0.111388
0.0141187
0.115372
0.0142223
0.117061
0.0137651
0.116984
0.0133136
0.113672
0.0134064
0.1066
0.0949073
0.0138963
0.00557404
0.0256684
0.0138539
0.0663727
0.0201571
0.0934224
0.0238839
0.107661
0.025966
0.11329
0.0275792
0.115448
0.0287223
0.115841
0.0291066
0.113287
0.0289444
0.106762
0.0957041
0.0281476
0.00571159
0.0199568
0.0160561
0.0560281
0.0257028
0.0837757
0.0326407
0.100724
0.0370819
0.108849
0.0403387
0.112191
0.043042
0.113137
0.044685
0.111644
0.0448622
0.106585
0.0972356
0.0433307
0.00520532
0.0147515
0.0162483
0.0449852
0.0283234
0.0717006
0.0383962
0.0906507
0.0457286
0.101516
0.0511561
0.106764
0.0555502
0.108743
0.0588624
0.108332
0.0604178
0.10503
0.0980911
0.0595624
0.00432038
0.0104311
0.0146746
0.0346309
0.0276617
0.0587135
0.0401124
0.0782
0.0504062
0.0912225
0.0585216
0.0986485
0.0650816
0.102183
0.0704305
0.102983
0.0742076
0.101252
0.0966467
0.075652
0.00324182
0.00718925
0.0118246
0.0260482
0.02397
0.0465681
0.0372215
0.0649485
0.0496266
0.0788174
0.0603651
0.0879099
0.0694557
0.0930926
0.0771561
0.095283
0.0834481
0.0949604
0.0921519
0.0879429
0.00209599
0.00509326
0.00834713
0.019797
0.0183291
0.0365862
0.0306581
0.0526195
0.0436618
0.0658138
0.0561548
0.0754169
0.0676087
0.0816387
0.0779105
0.0849812
0.0870081
0.0858628
0.0844134
0.0947466
0.000987658
0.0041056
0.00484967
0.015935
0.0121015
0.0293344
0.0222906
0.0424304
0.0343035
0.0538008
0.0470171
0.0627033
0.0596447
0.0690112
0.0717319
0.072894
0.083065
0.0745297
0.0737196
0.0937588
0.0001002
0.0040054
0.00203013
0.0140051
0.0068304
0.0245341
0.0146361
0.0346247
0.0248709
0.0435659
0.0367288
0.0508455
0.0495064
0.0562335
0.062679
0.0597213
0.0758561
0.0613526
0.0611483
0.0884274
-0.00045842
0.00446382
0.000220639
0.013326
0.00322115
0.0215336
0.00891738
0.0289285
0.0170783
0.035405
0.0272015
0.0407222
0.0387489
0.0446861
0.0511804
0.0472899
0.0637524
0.0487806
0.0500352
0.0748655
-0.000656064
0.00511989
-0.000579547
0.0132495
0.00128205
0.019672
0.00533851
0.0248721
0.0114804
0.0292631
0.0193549
0.0328477
0.0285312
0.0355099
0.0385025
0.0373185
0.0486599
0.0386232
0.0401304
0.0585647
-0.000637823
0.00575771
-0.000834847
0.0134465
0.000252528
0.0185846
0.00296189
0.0221627
0.00723299
0.024992
0.0126964
0.0273843
0.019046
0.0291603
0.0259631
0.0304014
0.0331766
0.0314097
0.0325459
0.0407612
-0.000571358
0.00632907
-0.000987897
0.0138631
-0.000663589
0.0182603
0.000651496
0.0208476
0.00290664
0.0227369
0.00593243
0.0243585
0.00964479
0.025448
0.013939
0.0261071
0.0187501
0.0265986
0.0270885
0.0242075
-0.000870176
0.00719924
-0.00190808
0.014901
-0.00251996
0.0188722
-0.00259052
0.0209182
-0.00218343
0.0223298
-0.00117364
0.0233487
0.000528107
0.0237462
0.00287684
0.0237584
0.00584797
0.0236275
0.0234058
0.00953063
-0.00152523
0.00872447
-0.0034371
0.0168129
-0.00490382
0.0203389
-0.00595826
0.0219726
-0.00664787
0.0230194
-0.00694447
0.0236453
-0.00682169
0.0236234
-0.00616711
0.0231038
-0.00489391
0.0223543
0.0214645
-0.00295259
-0.00183321
0.0105577
-0.00430921
0.0192889
-0.00665294
0.0226826
-0.00879558
0.0241152
-0.0105975
0.0248213
-0.0119784
0.0250262
-0.0129797
0.0246248
-0.0135484
0.0236725
-0.0135507
0.0223566
0.0207765
-0.0128627
-0.00200458
0.0125623
-0.00500825
0.0222925
-0.0081772
0.0258516
-0.0112778
0.0272158
-0.0140826
0.0276261
-0.0164649
0.0274084
-0.0184403
0.0266003
-0.0199919
0.0252241
-0.0210123
0.023377
0.021153
-0.0213888
-0.00217641
0.0147387
-0.00561499
0.0257311
-0.00935
0.0295866
-0.0130655
0.0309313
-0.0165534
0.0311141
-0.0196914
0.0305464
-0.0224454
0.0293543
-0.0247838
0.0275624
-0.0266131
0.0252063
0.0223579
-0.027818
-0.00223349
-0.00586489
-0.00982839
-0.013804
-0.0176254
-0.0211836
-0.0244207
-0.0272833
-0.0296767
-0.0314841
0.0693485
0.190289
-0.184772
0.0661439
0.145591
-0.142387
0.0735255
0.0530005
-0.0603821
0.0841512
-0.00935076
-0.00127497
0.0955221
-0.0419541
0.0305832
0.106903
-0.0511411
0.0397605
0.117522
-0.0483724
0.0377536
0.126795
-0.0407389
0.0314655
0.134881
-0.03047
0.0223841
-0.0164973
0.0109939
0.0581167
0.190737
0.0616349
0.142073
0.0746914
0.0399439
0.0884862
-0.0231455
0.100831
-0.0542992
0.112015
-0.0623245
0.12199
-0.0583475
0.130428
-0.049177
0.137538
-0.0375799
-0.021002
0.046013
0.185485
0.0577336
0.130352
0.0761806
0.0214969
0.0924551
-0.03942
0.105883
-0.0677273
0.116943
-0.0733838
0.126247
-0.0676521
0.133766
-0.056696
0.139842
-0.0436562
-0.024578
0.0348522
0.174841
0.0555171
0.109688
0.0786703
-0.00165626
0.0969686
-0.0577183
0.111184
-0.0819422
0.122085
-0.0842848
0.130662
-0.0762296
0.137179
-0.0632125
0.142173
-0.0486501
-0.0272767
0.025076
0.159295
0.0548607
0.079903
0.081967
-0.0287626
0.102084
-0.0778349
0.116888
-0.0967469
0.127563
-0.0949593
0.135364
-0.0840304
0.140836
-0.0686844
0.144716
-0.0525303
-0.0291239
0.0166131
0.13973
0.0550683
0.0414477
0.0854294
-0.0591237
0.107296
-0.0997012
0.1226
-0.112051
0.133057
-0.105417
0.140134
-0.0911074
0.144642
-0.0731923
0.147471
-0.055359
-0.0301678
0.00919511
0.117672
0.0552184
-0.00457552
0.0882078
-0.0921132
0.111815
-0.123308
0.127658
-0.127894
0.13803
-0.115789
0.144562
-0.0976395
0.148312
-0.0769424
0.150273
-0.0573198
-0.0305161
0.00287426
0.0934088
0.0543596
-0.0560608
0.0895401
-0.127294
0.114952
-0.14872
0.131534
-0.144475
0.142057
-0.126312
0.148302
-0.103884
0.151563
-0.0802028
0.152913
-0.0586706
-0.0303288
-0.00282823
0.068419
0.0516714
-0.11056
0.0889443
-0.164567
0.116292
-0.176068
0.133945
-0.162128
0.144918
-0.137285
0.151171
-0.110138
0.154224
-0.0832549
0.155245
-0.0596921
-0.0297915
-0.00853831
0.0465692
0.0861107
0.115613
0.134758
0.146521
0.153097
0.15622
0.157192
0.0268905
0.0196606
-0.0465511
0.0162894
0.0106012
0.0127845
0.00350485
0.0135173
-0.000732829
0.0168314
-0.00331404
0.0206185
-0.00378713
0.0239578
-0.0033393
0.0268608
-0.00290306
0.0285136
-0.00165276
-0.000555814
0.0909955
0.0562387
-0.127574
0.0629137
0.038683
0.0521476
0.014271
0.0522804
-0.000865662
0.0578496
-0.00888327
0.064764
-0.0107015
0.0710995
-0.00967474
0.0764245
-0.00822809
0.079651
-0.00487928
-0.00185583
0.130031
0.0978834
-0.171676
0.0952344
0.0734794
0.0803047
0.0292007
0.0794364
2.60974e-06
0.0856538
-0.0151006
0.0941229
-0.0191706
0.102338
-0.0178901
0.109164
-0.0150538
0.113869
-0.00958395
-0.00418567
0.143288
0.142022
-0.187427
0.107828
0.108939
0.0915403
0.0454885
0.0903334
0.00120949
0.097605
-0.0223722
0.107439
-0.029005
0.117033
-0.0274838
0.124976
-0.0229963
0.131067
-0.0156756
-0.00745576
0.142128
-0.184878
0.108681
0.0937871
0.0937216
0.101933
0.112688
0.122958
0.131427
0.138136
0.00721959
0.000191255
-0.00741085
0.00787984
-0.000660251
0.00925412
-0.00137427
0.0112419
-0.0019878
0.0137806
-0.00253872
0.0170665
-0.00328585
0.0216416
-0.00457514
0.0278912
-0.00624958
0.0367404
-0.00884919
-0.00981072
0.0188405
0.000527591
-0.0191769
0.0206353
-0.00245501
0.0243745
-0.00511351
0.0300527
-0.00766598
0.0378963
-0.0103823
0.0485921
-0.0139817
0.0628437
-0.0188267
0.0807691
-0.024175
0.103192
-0.0312724
-0.034192
0.0283145
0.000798499
-0.0285854
0.0311579
-0.0052984
0.0370163
-0.0109719
0.046102
-0.0167516
0.0588825
-0.0231629
0.0760037
-0.0311029
0.0970681
-0.039891
0.121382
-0.0484894
0.147412
-0.0573023
-0.0584552
0.036021
0.000820019
-0.0360425
0.0398505
-0.00912788
0.0476088
-0.0187303
0.0596983
-0.0288411
0.0765557
-0.0400203
0.0980019
-0.0525491
0.122254
-0.0641427
0.147447
-0.0736824
0.16973
-0.0795858
-0.0761517
0.0422451
-0.0418667
0.0470135
0.0564308
0.0709204
0.0904625
0.113565
0.137366
0.15843
0.172603
0.0507568
-0.042999
0.0505405
-0.0582983
0.0437462
-0.0417044
0.048715
0.0374099
-0.0406695
0.0470058
0.0314291
-0.0396572
0.045638
0.0255308
-0.0385935
0.0444919
0.0195858
-0.0373387
0.0432837
0.0136178
-0.0355657
0.0415336
0.00782007
-0.0326002
0.038398
0.00276408
-0.0269716
0.0320275
-0.0147052
0.0174693
0.0563308
-0.0359814
-0.0633484
0.0494717
-0.0348453
0.0424987
-0.0336965
0.0354421
-0.0326007
0.0283897
-0.0315411
0.0214428
-0.0303918
0.0147183
-0.0288412
0.00840926
-0.0262912
0.00301465
-0.021577
-0.0116906
0.0565458
-0.0284767
-0.0640505
0.0490611
-0.0273605
0.0416997
-0.0263352
0.0344989
-0.0253999
0.0274869
-0.0245291
0.0206893
-0.0235942
0.0141639
-0.0223158
0.008071
-0.0201982
0.00288361
-0.0163896
-0.00880698
0.0571653
-0.0208153
-0.0648268
0.049656
-0.0198511
0.0422836
-0.0189628
0.0350505
-0.0181668
0.0279591
-0.0174377
0.0210396
-0.0166747
0.0143854
-0.0156616
0.00820521
-0.014018
0.00297131
-0.0111556
-0.00583567
0.0583102
-0.0130154
-0.0661101
0.0506099
-0.0121508
0.0430183
-0.0113711
0.035537
-0.0106855
0.0281767
-0.0100774
0.0209895
-0.00948748
0.0141242
-0.00879635
0.00788878
-0.00778264
0.00281201
-0.00607888
-0.00302366
0.0596988
-0.00500015
-0.0677141
0.0517829
-0.00423484
0.0439555
-0.00354379
0.0362044
-0.00293436
0.0285269
-0.00239992
0.0209751
-0.00193565
0.0137404
-0.00156175
0.00727201
-0.0013142
0.00233133
-0.0011382
-0.000692333
0.0616938
0.00325823
-0.0699522
0.0535425
0.00391647
0.0454909
0.00450787
0.037523
0.00503348
0.0296286
0.00549452
0.0218435
0.00584945
0.0143306
0.00595116
0.00752078
0.00549558
0.00228868
0.0040939
0.00159634
0.0640843
0.0117679
-0.072594
0.0557066
0.0122942
0.0474667
0.0127477
0.0393586
0.0131416
0.0313772
0.0134759
0.0235482
0.0136784
0.0159841
0.0135153
0.00897825
0.0125014
0.00316577
0.00990638
0.00476212
0.0665343
0.0205262
-0.0752926
0.0579282
0.0209003
0.0494839
0.021192
0.0411984
0.021427
0.0330641
0.0216103
0.0250893
0.0216531
0.0173403
0.0212643
0.0100196
0.0198221
0.00367927
0.0162467
0.00844139
0.0687969
-0.0777803
0.0599724
0.0513176
0.0428292
0.0344929
0.0263025
0.0182995
0.0106581