/*--------------------------------*- C++ -*----------------------------------*\
| =========                 |                                                 |
| \\      /  F ield         | OpenFOAM: The Open Source CFD Toolbox           |
|  \\    /   O peration     | Version:  2406                                  |
|   \\  /    A nd           | Website:  www.openfoam.com                      |
|    \\/     M anipulation  |                                                 |
\*---------------------------------------------------------------------------*/
FoamFile
{
    version     2.0;
    format      ascii;
    arch        "LSB;label=32;scalar=64";
    class       volVectorField;
    location    "0.65";
    object      U;
}
// * * * * * * * * * * * * * * * * * * * * * * * * * * * * * * * * * * * * * //

dimensions      [0 1 -1 0 0 0 0];

internalField   nonuniform List<vector> 
1800
(
(-0.0309654 0.0419776 0)
(-0.0710141 0.105548 -6.34142e-21)
(-0.0640517 0.157957 -2.77772e-20)
(-0.0205108 0.190628 -4.05309e-20)
(0.0521488 0.209356 -1.27344e-19)
(0.143429 0.223937 -5.42976e-20)
(0.243922 0.241696 6.49076e-20)
(0.347824 0.265603 4.79165e-19)
(0.457547 0.294737 0)
(0.533508 0.352005 8.11998e-21)
(-0.0119862 0.0188817 -4.03768e-20)
(-0.029802 0.0487303 -1.35761e-19)
(-0.00358288 0.0766165 4.3144e-20)
(0.0683664 0.0901885 3.94217e-20)
(0.172572 0.0942028 -4.39243e-21)
(0.292483 0.0978867 1.15037e-19)
(0.416264 0.105354 -6.07774e-20)
(0.538981 0.116971 -4.42003e-19)
(0.663611 0.129846 1.59823e-19)
(0.745853 0.169372 2.35426e-19)
(-0.00206007 0.00379073 3.18995e-21)
(0.00791286 0.00787867 -3.46645e-20)
(0.072798 0.0138246 -1.46389e-20)
(0.186848 0.0116066 1.80501e-20)
(0.326179 0.00860168 -2.80312e-21)
(0.470892 0.0112647 -1.50956e-20)
(0.60992 0.0208087 6.93799e-21)
(0.740043 0.0359883 2.47032e-19)
(0.865784 0.0561147 -2.44852e-19)
(0.950546 0.0816341 -5.93624e-19)
(0.004202 -0.00113372 3.05606e-20)
(0.0578479 -0.0176599 7.98459e-20)
(0.180755 -0.0312934 -5.74701e-20)
(0.344147 -0.0427932 -6.14515e-22)
(0.517215 -0.0469824 6.5153e-20)
(0.681666 -0.0416051 -4.64395e-21)
(0.830312 -0.0283797 1.88099e-20)
(0.963823 -0.00979581 2.53338e-20)
(1.08909 0.0137439 3.42464e-21)
(1.17069 0.0357955 -9.04232e-20)
(0.0201666 -0.00511174 -2.68409e-20)
(0.134568 -0.0379729 4.47038e-20)
(0.320171 -0.0576436 5.3521e-20)
(0.529256 -0.0675393 -7.57707e-20)
(0.728142 -0.0658346 -2.56143e-20)
(0.902915 -0.0536752 2.8137e-20)
(1.05237 -0.0346132 1.09862e-20)
(1.18249 -0.0114599 5.462e-21)
(1.3024 0.015409 1.8959e-20)
(1.38704 0.034266 3.38232e-20)
(0.0485926 -0.0110838 5.0039e-22)
(0.237348 -0.0528997 1.8453e-19)
(0.485652 -0.0684781 8.94101e-20)
(0.731476 -0.0690654 -1.13681e-19)
(0.943602 -0.0577665 8.4163e-20)
(1.11692 -0.0384299 -7.61765e-21)
(1.25916 -0.0151605 5.80568e-20)
(1.38295 0.00977693 7.88142e-20)
(1.50049 0.0361511 -6.55071e-20)
(1.60406 0.0525061 -4.48332e-20)
(0.0899769 -0.0158579 -3.01392e-20)
(0.363947 -0.0576436 -2.5228e-19)
(0.66866 -0.0607294 2.19824e-20)
(0.935046 -0.0480061 2.85637e-19)
(1.14372 -0.0273658 -1.62112e-20)
(1.30425 -0.0033245 -1.47075e-19)
(1.43513 0.0212413 -8.14091e-20)
(1.55503 0.0455489 2.39484e-19)
(1.67882 0.0698243 2.46046e-19)
(1.81163 0.0887973 2.13081e-20)
(0.144867 -0.0165749 3.29205e-20)
(0.508262 -0.0467997 4.84963e-20)
(0.853426 -0.0317454 -1.08836e-19)
(1.11991 -0.00668811 5.92725e-20)
(1.31148 0.0192778 -2.39333e-21)
(1.45523 0.0440147 -4.88913e-19)
(1.57855 0.0673359 -5.34042e-21)
(1.70322 0.0904525 3.43676e-19)
(1.84348 0.114474 -2.21136e-19)
(2.00338 0.137465 -2.52714e-19)
(0.21141 -0.0102931 1.20371e-19)
(0.65755 -0.0168895 1.21685e-19)
(1.02041 0.0173592 -2.89882e-19)
(1.26983 0.0505443 -6.60835e-20)
(1.43913 0.0777351 1.60989e-21)
(1.56972 0.101067 1.81594e-19)
(1.69307 0.123091 -3.45466e-19)
(1.82997 0.146363 -1.92857e-19)
(1.98809 0.17194 4.89972e-19)
(2.15843 0.199522 1.23486e-19)
(0.284902 0.00540704 3.3701e-20)
(0.796273 0.0320298 2.79451e-19)
(1.15527 0.0827086 -2.48896e-19)
(1.37941 0.119641 -9.85641e-20)
(1.52899 0.146097 9.81964e-20)
(1.65281 0.168179 -1.17812e-19)
(1.78195 0.190167 2.29906e-19)
(1.93252 0.215005 2.33261e-20)
(2.101 0.242654 -2.19427e-19)
(2.26492 0.270119 -7.94784e-20)
(-0.0154336 0.2252 -3.3145e-20)
(-0.0369762 0.388455 1.28114e-19)
(-0.0607632 0.442135 8.19081e-20)
(-0.081419 0.458515 -1.05999e-19)
(-0.100248 0.457409 -7.82272e-22)
(-0.116687 0.44501 4.36339e-20)
(-0.130514 0.423772 2.99861e-20)
(-0.141839 0.394069 -6.3814e-20)
(-0.150327 0.355625 2.94381e-22)
(-0.155274 0.308913 7.46782e-21)
(-0.0343798 0.247673 4.25685e-20)
(-0.068821 0.426303 1.63628e-23)
(-0.0944095 0.482016 2.46492e-20)
(-0.113699 0.497737 -1.38531e-19)
(-0.130195 0.494989 -1.23558e-19)
(-0.144041 0.479991 -6.48684e-20)
(-0.155045 0.455385 6.8079e-20)
(-0.163318 0.421606 0)
(-0.168455 0.378079 -1.77353e-20)
(-0.169492 0.325037 6.51007e-20)
(-0.0550998 0.262554 -1.69989e-23)
(-0.103152 0.453544 -1.67102e-19)
(-0.129161 0.510876 -1.12811e-19)
(-0.145308 0.527458 1.03856e-19)
(-0.1573 0.524544 -2.50164e-20)
(-0.166731 0.508897 -5.87604e-20)
(-0.173337 0.483006 -2.0157e-20)
(-0.17695 0.447175 -9.57592e-21)
(-0.177085 0.40057 -3.50845e-20)
(-0.172611 0.343163 -1.09705e-19)
(-0.0766212 0.26901 3.71058e-20)
(-0.139409 0.469185 3.49536e-20)
(-0.164807 0.52735 7.07148e-21)
(-0.173933 0.543506 9.60795e-20)
(-0.179807 0.544399 -2.28926e-20)
(-0.18247 0.53109 4.08723e-20)
(-0.183259 0.50531 -2.37178e-20)
(-0.181097 0.469241 0)
(-0.175 0.421916 -3.06782e-20)
(-0.163561 0.362381 -1.75139e-19)
(-0.0943882 0.264517 -6.3182e-20)
(-0.167138 0.467664 2.91736e-20)
(-0.186261 0.524148 1.17763e-19)
(-0.189788 0.535643 -1.9703e-20)
(-0.191303 0.540853 1.85879e-20)
(-0.190271 0.538301 4.53336e-20)
(-0.185081 0.519266 -6.42204e-20)
(-0.175512 0.486169 9.61397e-20)
(-0.161724 0.440414 -1.02967e-19)
(-0.141552 0.381029 -9.09484e-20)
(-0.10376 0.243546 -5.80717e-20)
(-0.182809 0.444321 -1.12682e-20)
(-0.200072 0.509242 -8.26541e-20)
(-0.202912 0.529031 1.00537e-20)
(-0.198991 0.534991 1.48339e-19)
(-0.191384 0.531599 -1.49693e-19)
(-0.177616 0.517127 -8.72026e-21)
(-0.158944 0.490379 9.17e-20)
(-0.135338 0.450212 -3.04839e-19)
(-0.103394 0.394231 -6.67501e-20)
(-0.103712 0.208106 8.9629e-21)
(-0.187731 0.398964 2.78952e-20)
(-0.204349 0.474149 6.94865e-21)
(-0.20192 0.504166 1.95011e-19)
(-0.19049 0.515008 -1.33291e-20)
(-0.172865 0.514096 -2.62453e-19)
(-0.149389 0.503191 -1.94883e-19)
(-0.121508 0.482242 -2.16499e-19)
(-0.0884222 0.449097 4.72272e-19)
(-0.0431963 0.398642 3.76993e-19)
(-0.0937559 0.164124 8.72358e-23)
(-0.1777 0.335694 -1.71523e-20)
(-0.19253 0.418832 3.45197e-20)
(-0.183302 0.458604 -9.15892e-20)
(-0.161848 0.477023 -2.23219e-19)
(-0.132317 0.48272 1.25758e-19)
(-0.0970731 0.47915 -1.1846e-19)
(-0.0582519 0.466586 3.2441e-20)
(-0.0149495 0.442137 4.61727e-19)
(0.0447279 0.399966 -1.72053e-20)
(-0.0751184 0.117171 -1.29669e-20)
(-0.151003 0.258449 1.59408e-21)
(-0.161694 0.341944 -9.52481e-21)
(-0.144439 0.388444 3.29111e-20)
(-0.110569 0.41419 8.29596e-21)
(-0.0658362 0.428165 2.81603e-19)
(-0.0144716 0.43527 8.30238e-20)
(0.040128 0.43601 2.10909e-19)
(0.0976992 0.426022 -6.16325e-21)
(0.175509 0.397777 -7.50654e-19)
(-0.0529215 0.0745831 -1.90052e-20)
(-0.113745 0.177371 -2.7007e-20)
(-0.118308 0.249781 -1.52296e-20)
(-0.0919502 0.29427 -1.04677e-19)
(-0.0438485 0.321032 1.11864e-19)
(0.0182592 0.339182 4.57632e-19)
(0.0870547 0.355375 1.22534e-19)
(0.156776 0.372064 -4.69897e-19)
(0.225374 0.386934 -6.30221e-19)
(0.311485 0.393937 -6.4742e-19)
(-0.164142 0.0488253 -5.09087e-19)
(0.0547783 -0.2679 -5.10674e-19)
(0.31216 -0.312302 -1.53902e-19)
(0.472791 -0.307627 1.65829e-20)
(0.603483 -0.266708 4.70415e-20)
(0.687631 -0.216655 4.05537e-21)
(0.738264 -0.168021 -6.21947e-20)
(0.771112 -0.123429 2.1586e-20)
(0.787971 -0.0861944 -1.36082e-20)
(0.798113 -0.0411348 -7.30309e-21)
(-0.155953 0.0283389 -4.80472e-19)
(0.0298456 -0.337507 1.87552e-20)
(0.297583 -0.372736 -9.18634e-20)
(0.466003 -0.354493 -2.81231e-20)
(0.604088 -0.298675 4.9844e-20)
(0.691956 -0.237095 -9.10829e-20)
(0.744205 -0.180408 3.83039e-20)
(0.777309 -0.130587 6.44652e-22)
(0.794679 -0.0902621 -2.59211e-20)
(0.805162 -0.042621 1.54865e-20)
(-0.132702 0.0196324 8.57326e-19)
(0.0146439 -0.39715 6.32465e-19)
(0.289125 -0.435489 6.94806e-20)
(0.46233 -0.403959 -1.2613e-20)
(0.605387 -0.332893 -6.81347e-20)
(0.69576 -0.258852 1.41889e-21)
(0.749122 -0.193508 1.67316e-20)
(0.782603 -0.138121 -2.3632e-20)
(0.800527 -0.0946915 4.42451e-22)
(0.811917 -0.0442352 -5.7828e-22)
(-0.0941563 0.0231175 8.4985e-19)
(0.0279572 -0.443734 -1.36226e-20)
(0.303548 -0.498082 3.95747e-20)
(0.474144 -0.454303 1.23394e-20)
(0.615247 -0.36829 2.00371e-20)
(0.703933 -0.28134 1.82606e-20)
(0.756167 -0.207088 -3.1358e-20)
(0.789276 -0.145958 0)
(0.807241 -0.0995195 0)
(0.819809 -0.0460308 -1.7636e-23)
(-0.0360281 0.0356591 -8.91529e-20)
(0.0906777 -0.478158 -6.51523e-19)
(0.36477 -0.557506 -1.08709e-20)
(0.521203 -0.502894 -1.53116e-20)
(0.647792 -0.402805 4.0727e-21)
(0.726012 -0.303382 7.51212e-20)
(0.77171 -0.220573 1.62269e-21)
(0.801813 -0.153818 -1.30416e-20)
(0.818223 -0.104664 -3.84277e-20)
(0.831603 -0.0480501 -1.6417e-21)
(0.0469363 0.0501493 -2.22937e-19)
(0.220056 -0.507409 -3.00084e-19)
(0.492879 -0.612281 -6.00927e-19)
(0.625427 -0.546918 7.90838e-21)
(0.722533 -0.4336 -1.12738e-20)
(0.777531 -0.322973 4.03647e-20)
(0.807268 -0.232752 1.40433e-20)
(0.828634 -0.161013 -5.7375e-20)
(0.839991 -0.109802 6.39221e-22)
(0.852491 -0.0502747 -1.86679e-20)
(0.161633 0.0562556 1.64625e-20)
(0.418971 -0.538875 1.28347e-20)
(0.685124 -0.663081 2.88853e-19)
(0.793398 -0.584912 -7.46716e-20)
(0.853609 -0.457795 -1.14333e-20)
(0.875182 -0.337141 -3.99945e-20)
(0.878508 -0.241345 -2.40441e-21)
(0.882871 -0.16608 1.33235e-20)
(0.883629 -0.114096 1.58204e-20)
(0.891468 -0.0524979 8.64118e-21)
(0.309784 0.0703782 1.70822e-19)
(0.656358 -0.569062 1.712e-18)
(0.908678 -0.711562 4.50507e-19)
(1.00174 -0.619916 3.12835e-20)
(1.03238 -0.476242 -1.78427e-20)
(1.02194 -0.34471 2.03503e-20)
(0.995211 -0.244353 -4.08011e-20)
(0.976781 -0.167235 3.59952e-20)
(0.962053 -0.116131 -2.25174e-22)
(0.960232 -0.0542111 -3.08679e-21)
(0.513912 0.0450752 4.54751e-19)
(0.880899 -0.586419 5.41877e-19)
(1.11821 -0.751347 -7.64804e-19)
(1.21028 -0.653391 3.22159e-19)
(1.22827 -0.492247 -7.04646e-20)
(1.19817 -0.348017 -1.08196e-20)
(1.14804 -0.242543 1.25845e-21)
(1.10861 -0.164187 3.39397e-23)
(1.07864 -0.114944 -5.71026e-21)
(1.06475 -0.0548021 -3.67809e-21)
(0.713066 0.0960428 1.93241e-19)
(1.08801 -0.568723 -1.23065e-18)
(1.29443 -0.776124 -6.25692e-19)
(1.38859 -0.682751 2.60053e-19)
(1.40979 -0.50585 -1.03116e-19)
(1.37516 -0.348299 1.80613e-20)
(1.31266 -0.23744 -4.89256e-20)
(1.25879 -0.158259 5.55285e-23)
(1.2184 -0.111249 -2.63637e-21)
(1.19409 -0.0541678 -3.40771e-21)
(1.05405 0.0100808 -3.52572e-19)
(1.37948 -0.619916 -1.63223e-19)
(1.53446 -0.820162 -7.90765e-20)
(1.59573 -0.722528 -1.21097e-19)
(1.61103 -0.521184 8.02723e-20)
(1.57872 -0.342319 6.82365e-21)
(1.51219 -0.22245 2.29923e-20)
(1.44904 -0.143569 1.73382e-20)
(1.40153 -0.100918 -3.68091e-20)
(1.36664 -0.0508118 4.62643e-21)
(1.73031 -0.230879 3.7222e-20)
(1.99588 -0.746043 -2.52005e-19)
(1.98844 -0.86664 -1.55682e-19)
(1.8821 -0.726716 -2.42159e-21)
(1.79947 -0.50594 1.06098e-19)
(1.73794 -0.318804 1.33654e-19)
(1.67138 -0.19721 1.14734e-19)
(1.61186 -0.12244 -1.42889e-20)
(1.56948 -0.0857277 5.50038e-20)
(1.53301 -0.0442477 1.4133e-20)
(2.51847 -0.357583 -1.2803e-21)
(2.61264 -0.713999 -5.73648e-20)
(2.45394 -0.769277 8.46762e-20)
(2.22633 -0.639284 2.25689e-35)
(2.03283 -0.445764 -2.76737e-20)
(1.90275 -0.27741 -5.11759e-34)
(1.80567 -0.16616 7.34366e-21)
(1.73711 -0.0998007 1.73573e-35)
(1.69047 -0.0698505 -8.53781e-24)
(1.65235 -0.0376603 -1.65048e-21)
(2.97687 -0.437763 -1.21866e-20)
(2.85464 -0.725391 3.90207e-19)
(2.59104 -0.748972 1.09793e-19)
(2.34112 -0.597406 0)
(2.12853 -0.397375 -1.18915e-19)
(1.97603 -0.236395 -1.04008e-19)
(1.86587 -0.135293 -7.96729e-20)
(1.79253 -0.0774636 5.67375e-34)
(1.74306 -0.0530825 -2.56784e-20)
(1.70495 -0.0294162 7.77861e-22)
(3.15724 -0.459867 -1.78477e-20)
(3.02502 -0.629645 1.91326e-20)
(2.75882 -0.603948 0)
(2.46881 -0.4673 0)
(2.20344 -0.299342 0)
(2.01214 -0.170312 0)
(1.88344 -0.0937025 2.90254e-21)
(1.80341 -0.0520324 6.80674e-34)
(1.75126 -0.0357649 -7.30641e-22)
(1.71043 -0.0231488 3.21902e-35)
(3.24635 -0.44355 1.78221e-19)
(3.0558 -0.564204 0)
(2.74807 -0.531219 0)
(2.43859 -0.389543 0)
(2.16692 -0.224608 0)
(1.9733 -0.112867 0)
(1.84789 -0.0562469 -6.67454e-21)
(1.77345 -0.0287319 5.022e-20)
(1.72794 -0.0202561 -1.07075e-21)
(1.69217 -0.0163899 1.05182e-20)
(3.24854 -0.412448 0)
(3.01565 -0.468788 1.38216e-19)
(2.65124 -0.398763 -4.90014e-21)
(2.28943 -0.265596 0)
(2.00806 -0.131147 -9.03416e-20)
(1.83113 -0.0511164 -6.64797e-20)
(1.72891 -0.0188529 -5.00647e-20)
(1.67103 -0.00634139 -2.57195e-20)
(1.63985 -0.00538871 2.4702e-20)
(1.60881 -0.00832712 -6.49953e-21)
(3.06633 -0.350556 1.05791e-20)
(2.72539 -0.346059 1.29968e-20)
(2.27622 -0.260708 -2.04633e-20)
(1.88818 -0.148033 -5.03788e-36)
(1.64163 -0.0519023 1.72944e-20)
(1.51525 -0.00531907 -3.99858e-34)
(1.45483 0.00631956 -8.86488e-21)
(1.42328 0.0071966 -1.66039e-20)
(1.41072 0.0035196 -1.55235e-21)
(1.38861 -0.00304218 2.74547e-21)
(2.31886 -0.234497 0)
(1.86388 -0.163859 -1.9989e-20)
(1.42438 -0.0737479 2.18705e-20)
(1.13743 -0.0201832 0)
(1.01061 0.0106261 2.79583e-20)
(0.973659 0.0196645 2.09679e-20)
(0.970161 0.0165262 4.34375e-21)
(0.972947 0.0115828 8.31752e-21)
(0.981296 0.00665623 -1.09318e-20)
(0.973457 0.000575723 -1.58015e-21)
(0.705717 -0.0568877 1.08831e-20)
(0.431628 -0.0130684 0)
(0.292001 0.000463265 0)
(0.237626 0.0032042 0)
(0.245717 0.00685865 0)
(0.277861 0.00725448 0)
(0.311299 0.0055933 -9.53566e-21)
(0.336432 0.00378465 2.88731e-35)
(0.354515 0.00228775 -1.86915e-21)
(0.359366 0.00045468 -3.22584e-21)
(2.51499 0.31462 4.14303e-19)
(2.47036 0.255953 1.66324e-19)
(2.3707 0.208296 2.7331e-19)
(2.22491 0.152202 -2.64161e-19)
(2.0168 0.116774 7.73773e-20)
(1.77567 0.0780286 3.08135e-20)
(1.48611 0.0671451 -1.33619e-19)
(1.20744 0.101699 -4.81004e-20)
(0.982186 0.130116 1.55231e-19)
(0.687053 0.358517 1.37898e-19)
(2.66707 0.282134 -2.34778e-19)
(2.66932 0.261219 4.49861e-20)
(2.65637 0.210793 1.90645e-19)
(2.5941 0.19694 1.49363e-19)
(2.51533 0.135587 -1.96349e-19)
(2.35612 0.142649 1.54216e-20)
(2.23101 0.0809446 -1.93101e-19)
(1.91753 0.136217 -5.45649e-20)
(1.83606 0.0637537 -1.88333e-19)
(1.26797 0.209746 -2.18785e-19)
(2.81153 0.244224 3.28563e-20)
(2.78808 0.238099 -1.65431e-19)
(2.8683 0.182472 -2.30155e-19)
(2.78369 0.189756 4.91086e-19)
(2.86322 0.116813 2.50195e-20)
(2.68341 0.12971 -7.06158e-20)
(2.78256 0.0436645 -1.08376e-19)
(2.46982 0.088363 -9.55894e-20)
(2.60672 -0.0134205 1.39103e-19)
(2.13033 0.0798937 -1.83061e-20)
(2.91508 0.214155 6.61668e-20)
(2.89873 0.198309 -2.20392e-19)
(2.99467 0.157517 3.37563e-20)
(2.93 0.150836 -1.6959e-19)
(3.04053 0.0952298 3.07713e-19)
(2.90564 0.0841881 -9.02373e-20)
(3.03395 -0.00162565 9.6899e-20)
(2.83299 0.00496457 -1.49765e-19)
(2.97337 -0.100705 -3.59652e-19)
(2.7233 -0.0612253 -1.55009e-19)
(2.98068 0.171179 1.14945e-19)
(2.99484 0.141698 -3.5002e-19)
(3.06548 0.117559 -2.15942e-20)
(3.05396 0.0969399 -4.37733e-20)
(3.12147 0.063193 -1.48889e-20)
(3.07712 0.034274 -2.8313e-21)
(3.13789 -0.0299365 7.03818e-20)
(3.06204 -0.0626505 -9.02718e-20)
(3.12224 -0.151293 -1.68369e-19)
(3.03061 -0.166351 -2.5699e-19)
(3.00357 0.126536 2.13139e-19)
(3.03625 0.0960804 4.49902e-20)
(3.08988 0.0821732 -2.41826e-19)
(3.10875 0.0584304 1.35963e-19)
(3.15441 0.0369745 1.50974e-19)
(3.15819 0.00350457 -6.33857e-20)
(3.19316 -0.0453539 1.44288e-19)
(3.17874 -0.0945615 1.84242e-20)
(3.20487 -0.166863 -2.15014e-19)
(3.17421 -0.215267 -2.89686e-19)
(2.94465 0.0734139 1.36821e-20)
(2.98744 0.0496862 8.08263e-20)
(3.03204 0.0433687 -9.15798e-20)
(3.06949 0.0226441 -2.56511e-20)
(3.10968 0.00908825 1.76916e-19)
(3.1439 -0.0257493 2.96642e-23)
(3.17643 -0.0632537 1.18315e-19)
(3.20162 -0.117193 1.42643e-19)
(3.2221 -0.175431 5.88369e-20)
(3.2343 -0.234926 1.25676e-19)
(2.72722 0.0260356 2.2066e-20)
(2.7758 0.0161311 -5.52351e-22)
(2.80276 0.0137338 -7.85976e-20)
(2.86061 -0.000893652 -6.18132e-20)
(2.88971 -0.00946327 -3.15863e-20)
(2.95838 -0.0440871 -3.29749e-20)
(2.98449 -0.0717716 -4.50001e-21)
(3.05849 -0.13006 1.1854e-19)
(3.06158 -0.172073 -9.44403e-20)
(3.13349 -0.235196 -1.04074e-19)
(2.20505 -0.0124573 7.38653e-20)
(2.25376 -0.0168113 -2.69397e-20)
(2.25554 -0.0195333 -1.82227e-20)
(2.32976 -0.0289466 2.50825e-20)
(2.33383 -0.0463384 -2.65977e-22)
(2.41568 -0.0703196 2.43941e-20)
(2.41065 -0.0954187 -1.05171e-19)
(2.48887 -0.129529 1.82325e-20)
(2.4472 -0.153458 3.88928e-20)
(2.52941 -0.185629 -3.94911e-20)
(1.13208 -0.0161992 0)
(1.12342 -0.0191711 3.78932e-21)
(1.1141 -0.0216486 -3.63596e-20)
(1.11227 -0.0266357 -4.26602e-20)
(1.09631 -0.0282228 2.76215e-20)
(1.09584 -0.0345533 8.99646e-20)
(1.05905 -0.0347979 -1.82938e-20)
(1.06273 -0.0427534 -7.64882e-20)
(0.98873 -0.0427709 -1.09949e-20)
(1.01642 -0.0496301 5.48243e-21)
(1.32481 0.850161 -5.06537e-20)
(1.26575 0.846945 -1.09556e-19)
(1.22682 0.849989 -5.78607e-19)
(1.19304 0.857825 1.16648e-19)
(1.15964 0.868417 7.70336e-19)
(1.12318 0.878741 5.32086e-20)
(1.07688 0.880245 -8.87756e-20)
(1.00392 0.856374 -1.52732e-19)
(0.850038 0.757418 -2.44548e-19)
(0.461986 0.4266 -2.47427e-20)
(1.47454 0.837441 -4.35754e-19)
(1.4001 0.826957 1.12879e-18)
(1.34673 0.825532 4.73911e-19)
(1.30733 0.832187 -5.58821e-19)
(1.27374 0.842763 1.82345e-19)
(1.23824 0.852177 1.42828e-19)
(1.19135 0.851625 4.51613e-19)
(1.11381 0.82613 -7.10198e-19)
(0.943691 0.725713 -5.73765e-20)
(0.509919 0.403952 8.95636e-20)
(1.62751 0.82366 1.22533e-19)
(1.53725 0.811255 8.80169e-19)
(1.46379 0.80624 1.48055e-20)
(1.41217 0.809433 -3.42186e-19)
(1.37345 0.815936 1.36595e-19)
(1.33589 0.819762 3.59215e-20)
(1.28751 0.813226 -5.14375e-20)
(1.20634 0.783652 -2.85926e-19)
(1.02104 0.678585 1.30404e-19)
(0.5459 0.369629 -1.95207e-19)
(1.78457 0.801776 -4.84316e-19)
(1.68105 0.790477 3.88573e-19)
(1.58491 0.782019 -5.87851e-19)
(1.51349 0.779125 -1.88466e-19)
(1.46195 0.778219 9.0521e-19)
(1.41655 0.773404 -5.23825e-19)
(1.36324 0.758983 -5.88181e-19)
(1.27613 0.723562 2.9285e-19)
(1.07372 0.614804 -1.30163e-19)
(0.564031 0.325404 -3.93733e-20)
(1.94197 0.758209 5.94444e-19)
(1.8299 0.748599 4.5035e-19)
(1.71286 0.737222 -1.72989e-19)
(1.61637 0.727458 6.28604e-19)
(1.54451 0.718389 5.18428e-20)
(1.48523 0.705588 -2.58224e-19)
(1.42163 0.684895 2.48993e-19)
(1.32254 0.643826 -3.86046e-19)
(1.10043 0.533839 -4.60906e-19)
(0.564653 0.272894 -3.22993e-20)
(2.08035 0.690006 8.16914e-19)
(1.96569 0.680736 9.01243e-19)
(1.83408 0.667385 -7.82863e-19)
(1.71443 0.652089 -6.61925e-19)
(1.61985 0.636236 1.07413e-19)
(1.54298 0.617869 -4.23665e-19)
(1.46478 0.592847 -1.29353e-19)
(1.34895 0.548261 8.57031e-20)
(1.10486 0.442611 9.07132e-20)
(0.549787 0.217063 1.99585e-20)
(2.19518 0.600943 7.58122e-19)
(2.07805 0.591701 -8.91073e-19)
(1.93589 0.577173 -6.76383e-19)
(1.79747 0.558139 3.74947e-19)
(1.68207 0.538259 -3.28477e-19)
(1.58725 0.517012 8.24145e-19)
(1.4927 0.490097 -7.08282e-20)
(1.3577 0.445343 -6.73842e-19)
(1.09011 0.348812 2.98398e-19)
(0.521398 0.162451 4.3131e-20)
(2.27543 0.510225 -4.81096e-19)
(2.15405 0.498829 -6.03153e-19)
(2.00318 0.480678 -6.77802e-19)
(1.85134 0.457922 3.96932e-20)
(1.72119 0.435529 2.12217e-19)
(1.61225 0.41322 1.81596e-19)
(1.50266 0.38626 2.26396e-19)
(1.34777 0.343557 -6.49931e-20)
(1.05565 0.258029 3.05415e-20)
(0.479856 0.111985 5.71693e-20)
(2.3187 0.424075 2.30502e-19)
(2.18688 0.408067 -7.81177e-20)
(2.02624 0.385045 3.35271e-19)
(1.86676 0.359621 8.06313e-19)
(1.72997 0.336434 -2.23722e-19)
(1.61275 0.314263 -7.23985e-19)
(1.49038 0.288047 5.16188e-19)
(1.31482 0.247822 5.09275e-19)
(0.997613 0.173264 -2.82285e-19)
(0.424985 0.0676929 -3.86474e-20)
(2.31762 0.345407 -4.5497e-19)
(2.16937 0.322382 -4.41413e-21)
(2.00102 0.295388 4.82593e-19)
(1.84187 0.269337 4.08225e-19)
(1.70651 0.246606 2.52843e-19)
(1.58565 0.224795 -3.81836e-19)
(1.45105 0.198911 5.70068e-20)
(1.25261 0.160416 -2.47677e-19)
(0.911533 0.0968548 -3.40334e-19)
(0.358423 0.0315932 3.59504e-21)
(0.362999 0.412195 -1.07276e-20)
(0.330878 0.415185 1.28709e-19)
(0.29689 0.416993 1.61251e-20)
(0.261582 0.418208 -9.91967e-20)
(0.22486 0.419107 -3.88153e-20)
(0.186241 0.418473 -8.74759e-20)
(0.145184 0.411788 4.34687e-20)
(0.101202 0.388805 -3.64432e-20)
(0.0547826 0.328549 8.94174e-20)
(0.0210718 0.179639 1.83683e-20)
(0.413799 0.496068 -5.56345e-20)
(0.381306 0.499495 -1.33434e-20)
(0.346751 0.501776 -1.21355e-19)
(0.310799 0.503702 1.28645e-20)
(0.273427 0.505733 2.13227e-20)
(0.233992 0.506642 3.59559e-20)
(0.191527 0.501362 1.73074e-19)
(0.144804 0.478014 -5.47844e-20)
(0.0916291 0.410501 6.23944e-20)
(0.0409129 0.228917 -1.58145e-20)
(0.477298 0.576995 3.93261e-20)
(0.444698 0.581507 1.49939e-19)
(0.410157 0.584727 9.28034e-20)
(0.374206 0.587576 1.37486e-19)
(0.336736 0.590738 3.89817e-20)
(0.296905 0.593104 1.76097e-19)
(0.253291 0.589225 -6.25053e-20)
(0.203702 0.565741 -7.15222e-20)
(0.142472 0.491459 8.04961e-23)
(0.068968 0.277574 9.29829e-21)
(0.548555 0.648388 4.01081e-19)
(0.515152 0.652594 2.92596e-19)
(0.479794 0.655829 -3.40632e-19)
(0.443303 0.659429 -1.55423e-19)
(0.405786 0.664189 3.2257e-20)
(0.36624 0.668747 -7.82019e-20)
(0.322602 0.666886 -2.48548e-19)
(0.271318 0.64378 7.42502e-20)
(0.202464 0.563923 -5.16003e-20)
(0.103137 0.321239 -8.96383e-20)
(0.647852 0.716166 -1.37212e-19)
(0.614671 0.722492 -2.95762e-19)
(0.579328 0.727157 2.58936e-19)
(0.542293 0.731448 -8.84498e-20)
(0.503611 0.736577 -1.59559e-19)
(0.462372 0.741733 2.01742e-19)
(0.416264 0.740765 8.51975e-20)
(0.36043 0.717706 -1.20219e-19)
(0.280082 0.63257 -2.17774e-19)
(0.146505 0.36222 4.90403e-20)
(0.720115 0.771963 -2.56096e-20)
(0.686071 0.777519 -2.62835e-20)
(0.651434 0.781894 -4.08449e-20)
(0.616633 0.787126 7.10241e-20)
(0.581504 0.794205 2.06852e-19)
(0.544401 0.801521 -1.84757e-19)
(0.501824 0.801957 -1.18031e-19)
(0.446795 0.778759 -2.281e-20)
(0.358959 0.688725 5.62594e-20)
(0.192094 0.394995 1.31685e-19)
(0.852928 0.813483 -2.62337e-19)
(0.818484 0.820477 1.22236e-19)
(0.781548 0.825251 3.36327e-19)
(0.742875 0.829931 -1.93873e-19)
(0.703226 0.836502 -3.94707e-19)
(0.661832 0.844252 1.86489e-19)
(0.615194 0.845883 4.97029e-19)
(0.554707 0.823476 1.46756e-19)
(0.453612 0.731113 1.27122e-20)
(0.245025 0.419739 1.96332e-19)
(0.941533 0.850948 -4.54221e-19)
(0.9059 0.856934 -1.48437e-19)
(0.872278 0.86171 3.2009e-19)
(0.839419 0.867676 -1.17684e-19)
(0.805871 0.875623 7.60605e-20)
(0.76943 0.88376 3.41634e-19)
(0.725593 0.884668 -3.14155e-19)
(0.663731 0.860828 -2.9409e-19)
(0.55068 0.764289 2.04345e-19)
(0.299253 0.437636 -2.83274e-20)
(1.06023 0.869997 -1.67654e-20)
(1.02589 0.87625 4.89406e-20)
(0.989077 0.879067 -2.29737e-19)
(0.95218 0.88282 -6.34617e-20)
(0.916508 0.889816 4.11485e-19)
(0.880167 0.898301 9.91622e-20)
(0.837281 0.899678 -6.93776e-20)
(0.774206 0.876064 0)
(0.650057 0.778182 -1.55986e-19)
(0.354663 0.444131 -9.22095e-20)
(1.15924 0.866571 0)
(1.12777 0.87416 0)
(1.09986 0.878824 5.8435e-19)
(1.06873 0.883281 1.07471e-19)
(1.03503 0.889967 -1.45868e-19)
(0.998642 0.897815 2.9593e-19)
(0.95445 0.898452 -1.48591e-19)
(0.887421 0.874308 -4.83169e-19)
(0.749843 0.775428 2.69125e-19)
(0.409136 0.440073 1.5254e-19)
(0.931877 0.0519475 -1.23233e-20)
(1.04683 0.249998 -5.58105e-21)
(0.927174 0.27373 7.71977e-21)
(0.922076 0.227972 5.84561e-21)
(0.89096 0.199245 1.93732e-20)
(0.870651 0.196617 3.19514e-20)
(0.843889 0.205686 -1.54756e-20)
(0.790589 0.240396 -2.90319e-20)
(0.738492 0.287105 -8.86992e-20)
(0.511569 0.385846 1.18774e-19)
(0.931471 0.0506616 -1.33555e-21)
(1.04732 0.259426 7.69665e-21)
(0.925519 0.284905 7.1627e-23)
(0.9211 0.235981 1.53724e-20)
(0.88903 0.205404 1.52367e-20)
(0.871288 0.202995 -4.21577e-20)
(0.85201 0.216238 -1.39256e-20)
(0.805467 0.25785 -3.3648e-23)
(0.763909 0.327903 2.36954e-19)
(0.557405 0.459657 -5.91135e-21)
(0.930993 0.0496011 4.13103e-21)
(1.04814 0.269427 1.42522e-20)
(0.923022 0.296066 -1.13332e-20)
(0.918149 0.243907 -2.05345e-21)
(0.88464 0.211042 -1.82785e-20)
(0.869569 0.208214 3.5527e-21)
(0.856943 0.224883 1.95841e-20)
(0.81873 0.274317 -1.97119e-20)
(0.788786 0.36605 1.1021e-19)
(0.613702 0.528864 -3.58407e-19)
(0.930494 0.0487391 1.63429e-21)
(1.04959 0.280126 -2.59931e-21)
(0.919532 0.307493 -1.35203e-20)
(0.912335 0.251743 -4.25354e-20)
(0.878578 0.21606 3.94772e-20)
(0.866952 0.212264 2.02552e-20)
(0.859296 0.231726 -2.40507e-20)
(0.830181 0.289745 9.39557e-20)
(0.813977 0.40147 -1.00018e-19)
(0.676169 0.595939 -3.44807e-19)
(0.930164 0.0479782 2.04003e-21)
(1.05213 0.291701 -1.12163e-20)
(0.914683 0.319707 6.881e-21)
(0.903736 0.259237 6.77237e-20)
(0.873569 0.220249 1.3386e-20)
(0.864715 0.215346 4.43625e-20)
(0.859887 0.237284 3.07106e-20)
(0.839564 0.304401 6.81144e-20)
(0.837853 0.43051 -1.82515e-20)
(0.763453 0.649815 2.75528e-19)
(0.930242 0.0471042 3.90723e-21)
(1.05608 0.304391 4.18938e-22)
(0.908345 0.333025 -5.63111e-21)
(0.896912 0.266311 1.72069e-20)
(0.872913 0.223306 -3.97345e-20)
(0.863634 0.218108 5.92583e-21)
(0.859963 0.242243 -8.29878e-21)
(0.847319 0.317899 -1.97367e-19)
(0.866063 0.457267 0)
(0.827323 0.707597 -2.97704e-20)
(0.930754 0.0459476 -5.2866e-21)
(1.06116 0.318247 5.31843e-22)
(0.903097 0.346778 1.7468e-21)
(0.89989 0.271643 -7.53046e-20)
(0.877166 0.225263 -1.66555e-20)
(0.864966 0.221221 -6.44998e-20)
(0.862276 0.247 3.60165e-21)
(0.856914 0.331394 7.25682e-21)
(0.88976 0.474283 -4.67262e-21)
(0.93893 0.741522 9.27277e-19)
(0.931487 0.0444277 -4.77962e-20)
(1.06714 0.332365 1.1148e-21)
(0.905781 0.360427 2.8422e-20)
(0.912866 0.273497 4.10819e-20)
(0.886834 0.226653 -8.65826e-20)
(0.873265 0.225413 1.45163e-20)
(0.873667 0.251824 -3.73821e-21)
(0.871029 0.345352 1.60749e-20)
(0.928151 0.49049 1.48688e-19)
(1.03526 0.788479 -1.12641e-19)
(0.931051 0.0425007 1.55328e-20)
(1.07526 0.345414 -5.46016e-21)
(0.922153 0.372088 -1.06791e-20)
(0.933873 0.273768 1.07369e-19)
(0.91152 0.229303 7.46479e-21)
(0.902897 0.230176 2.12305e-20)
(0.907456 0.255586 -3.67399e-20)
(0.904403 0.35477 5.80023e-20)
(0.977551 0.491064 2.68291e-19)
(1.10896 0.804756 -6.37564e-19)
(0.926383 0.0406685 2.82039e-20)
(1.08943 0.356967 6.93172e-21)
(0.952079 0.378428 1.11342e-21)
(0.977546 0.273092 -3.73806e-20)
(0.971267 0.229914 8.05705e-20)
(0.966846 0.234969 -2.5338e-20)
(0.970927 0.263937 -9.2901e-21)
(0.956381 0.377679 5.29044e-20)
(1.04966 0.514863 -6.8755e-20)
(1.27003 0.851162 4.17145e-19)
(0.91011 0.0333817 -5.70039e-21)
(1.1204 0.364185 -1.35176e-20)
(1.02297 0.384518 -5.75206e-21)
(1.07952 0.272714 -5.31043e-20)
(1.09686 0.226402 -4.69382e-20)
(1.10561 0.236203 -3.68735e-20)
(1.10428 0.264805 4.9595e-21)
(1.10031 0.37419 -1.35655e-19)
(1.17954 0.463618 -4.08432e-19)
(1.27344 0.836607 -4.33363e-20)
(0.879629 0.0172109 -1.41448e-20)
(1.16399 0.344642 -2.4827e-20)
(1.14722 0.369055 2.95297e-21)
(1.23613 0.263041 -1.05877e-20)
(1.2812 0.21527 3.96797e-20)
(1.29096 0.236009 7.22341e-20)
(1.35218 0.25341 1.32499e-20)
(1.27126 0.377787 1.1431e-19)
(1.51853 0.440833 9.63611e-20)
(1.3076 0.74897 4.26957e-19)
(0.848393 4.05133e-05 -5.39842e-21)
(1.19531 0.29588 -6.91816e-21)
(1.25831 0.330168 5.97894e-21)
(1.37811 0.241969 1.04994e-20)
(1.44753 0.201237 1.00872e-34)
(1.45997 0.216679 -5.3223e-21)
(1.58905 0.252988 -5.15599e-34)
(1.42607 0.341675 1.91366e-20)
(1.86161 0.419401 -6.05897e-20)
(1.51171 0.683293 -3.29761e-19)
(0.828084 -0.0148473 2.78498e-20)
(1.20442 0.222653 -5.72082e-35)
(1.32697 0.27034 -6.36979e-21)
(1.47394 0.210222 1.20123e-20)
(1.5626 0.181953 -1.67991e-20)
(1.57831 0.188812 -3.57315e-20)
(1.75738 0.24745 -6.26657e-34)
(1.56804 0.298679 -8.12688e-20)
(2.06647 0.38544 -1.30939e-19)
(1.81136 0.613644 3.55726e-19)
(0.822143 -0.026928 0)
(1.19575 0.138262 -1.26657e-34)
(1.35222 0.196236 0)
(1.52418 0.170468 0)
(1.62088 0.159706 0)
(1.65444 0.152275 0)
(1.83169 0.233371 -4.34802e-34)
(1.69755 0.254923 0)
(2.13608 0.31473 -2.09211e-20)
(2.06466 0.54211 2.0537e-19)
(0.827411 -0.0369787 5.81116e-21)
(1.1832 0.0539097 4.40508e-21)
(1.34527 0.11355 -7.14596e-21)
(1.53183 0.124554 0)
(1.63199 0.132893 0)
(1.68997 0.117367 5.86421e-21)
(1.82794 0.211475 3.92889e-20)
(1.81141 0.209971 -1.45985e-20)
(2.12568 0.235271 -3.04685e-20)
(2.19724 0.469596 1.47042e-19)
(0.841531 -0.046273 -5.46509e-20)
(1.17294 -0.0276479 -8.15819e-21)
(1.30088 0.0322887 -7.54646e-21)
(1.48503 0.0774089 -2.17568e-20)
(1.58451 0.0990763 -1.14118e-20)
(1.66899 0.0860159 -7.72113e-21)
(1.75954 0.175165 -3.08935e-20)
(1.8757 0.164947 -2.91719e-20)
(2.04289 0.168788 -8.35555e-20)
(2.22176 0.385289 9.58574e-20)
(0.862182 -0.0560551 -9.97415e-21)
(1.15462 -0.0872664 -2.0026e-20)
(1.18408 -0.032917 -8.06704e-21)
(1.34221 0.0362641 -7.66189e-21)
(1.42091 0.0602642 6.58012e-35)
(1.53118 0.0572087 6.91788e-21)
(1.56872 0.121652 -9.10235e-34)
(1.81896 0.113561 -1.58531e-20)
(1.82864 0.117722 1.85074e-20)
(2.14375 0.282074 2.53403e-20)
(0.882254 -0.0734696 1.353e-19)
(1.08298 -0.116834 -8.52518e-21)
(0.921022 -0.0683322 -9.36498e-21)
(1.01994 0.00684321 1.13422e-20)
(1.06429 0.0234304 3.16218e-21)
(1.15946 0.0299012 1.0971e-20)
(1.19797 0.0613281 9.54571e-21)
(1.47272 0.0557514 -1.56909e-20)
(1.40461 0.0695015 -1.1883e-20)
(1.83869 0.146461 1.08131e-19)
(0.832357 -0.0477264 9.97385e-21)
(0.777119 -0.0640302 -8.69025e-35)
(0.414182 -0.0303306 -9.8673e-21)
(0.463763 0.00347944 0)
(0.470127 0.00519154 0)
(0.522581 0.00914337 7.26205e-21)
(0.575477 0.0148061 -9.69917e-36)
(0.727055 0.0172175 -1.61552e-20)
(0.721714 0.0210128 -2.524e-20)
(1.0303 0.0414098 -3.94464e-20)
(1.5343 0.855427 1.51781e-19)
(1.66152 0.84899 -9.28852e-20)
(1.81428 0.831859 -3.26581e-21)
(1.97201 0.800345 7.07475e-20)
(2.12424 0.747903 -2.94633e-19)
(2.25126 0.678884 -5.44534e-19)
(2.35983 0.594469 -2.44797e-19)