/*--------------------------------*- C++ -*----------------------------------*\
| =========                 |                                                 |
| \\      /  F ield         | OpenFOAM: The Open Source CFD Toolbox           |
|  \\    /   O peration     | Version:  2406                                  |
|   \\  /    A nd           | Website:  www.openfoam.com                      |
|    \\/     M anipulation  |                                                 |
\*---------------------------------------------------------------------------*/
FoamFile
{
    version     2.0;
    format      ascii;
    arch        "LSB;label=32;scalar=64";
    class       volVectorField;
    location    "1.3";
    object      flux;
}
// * * * * * * * * * * * * * * * * * * * * * * * * * * * * * * * * * * * * * //

dimensions      [0 1 -1 1 0 0 0];

internalField   nonuniform List<vector> 
2500
(
(0.000391437 0.000391437 0)
(0.00117281 0.000395058 0)
(0.00195211 0.000402411 0)
(0.00272883 0.000413452 0)
(0.00350084 0.000428224 0)
(0.00426676 0.000446777 0)
(0.00502518 0.000469167 0)
(0.00577461 0.00049546 0)
(0.00651352 0.000525729 0)
(0.00724031 0.00056005 0)
(0.00795327 0.000598504 0)
(0.00865064 0.000641171 0)
(0.00933052 0.00068813 0)
(0.00999091 0.000739454 0)
(0.0106297 0.000795208 0)
(0.0112445 0.000855447 0)
(0.0118331 0.00092021 0)
(0.0123928 0.000989516 0)
(0.0129209 0.00106336 0)
(0.0134145 0.00114173 0)
(0.0138707 0.00122454 0)
(0.0142864 0.00131172 0)
(0.0146583 0.00140313 0)
(0.014983 0.00149859 0)
(0.0152572 0.0015979 0)
(0.0154775 0.00170077 0)
(0.0156405 0.00180691 0)
(0.0157429 0.00191594 0)
(0.0157815 0.00202743 0)
(0.0157532 0.00214092 0)
(0.0156552 0.00225587 0)
(0.0154852 0.00237171 0)
(0.015241 0.0024878 0)
(0.014921 0.00260348 0)
(0.0145239 0.00271802 0)
(0.0140494 0.00283069 0)
(0.0134974 0.0029407 0)
(0.0128687 0.00304727 0)
(0.0121647 0.00314958 0)
(0.0113877 0.00324684 0)
(0.0105406 0.00333827 0)
(0.00962724 0.00342308 0)
(0.00865212 0.00350056 0)
(0.00762046 0.00357003 0)
(0.00653821 0.00363085 0)
(0.00541191 0.00368247 0)
(0.00424863 0.00372445 0)
(0.00305592 0.00375638 0)
(0.00184177 0.00377782 0)
(0.000615184 0.00378766 0)
(0.000395058 0.00117281 0)
(0.00118378 0.00118378 0)
(0.00197051 0.00120583 0)
(0.00275464 0.00123897 0)
(0.00353416 0.00128332 0)
(0.00430771 0.00133902 0)
(0.00507386 0.00140625 0)
(0.00583117 0.0014852 0)
(0.00657811 0.00157609 0)
(0.00731308 0.00167916 0)
(0.0080344 0.00179465 0)
(0.00874027 0.00192279 0)
(0.00942881 0.00206383 0)
(0.010098 0.002218 0)
(0.0107457 0.00238548 0)
(0.0113695 0.00256645 0)
(0.0119671 0.00276102 0)
(0.0125359 0.00296926 0)
(0.0130731 0.00319117 0)
(0.0135757 0.00342666 0)
(0.0140407 0.00367555 0)
(0.014465 0.00393758 0)
(0.0148451 0.00421235 0)
(0.0151778 0.00449934 0)
(0.0154594 0.00479791 0)
(0.0156866 0.00510725 0)
(0.0158557 0.00542642 0)
(0.0159634 0.00575431 0)
(0.0160064 0.00608967 0)
(0.0159816 0.00643105 0)
(0.015886 0.00677688 0)
(0.0157171 0.0071254 0)
(0.0154728 0.00747473 0)
(0.0151512 0.00782285 0)
(0.0147512 0.00816759 0)
(0.0142721 0.00850671 0)
(0.013714 0.00883787 0)
(0.0130775 0.00915868 0)
(0.0123642 0.00946673 0)
(0.0115763 0.00975959 0)
(0.0107168 0.0100349 0)
(0.00978954 0.0102903 0)
(0.00879906 0.0105237 0)
(0.00775074 0.0107329 0)
(0.00665066 0.010916 0)
(0.00550551 0.0110715 0)
(0.00432254 0.0111979 0)
(0.00310929 0.0112942 0)
(0.00187305 0.0113593 0)
(0.000625029 0.0113908 0)
(0.000402411 0.00195211 0)
(0.00120583 0.00197051 0)
(0.0020073 0.0020073 0)
(0.00280632 0.00206264 0)
(0.00360089 0.00213671 0)
(0.00438969 0.00222976 0)
(0.00517136 0.00234206 0)
(0.00594446 0.00247396 0)
(0.00670748 0.00262582 0)
(0.00745886 0.00279804 0)
(0.0081969 0.00299103 0)
(0.00891983 0.00320519 0)
(0.00962573 0.00344094 0)
(0.0103126 0.00369865 0)
(0.0109781 0.00397866 0)
(0.0116201 0.00428126 0)
(0.0122359 0.00460665 0)
(0.0128229 0.00495496 0)
(0.0133783 0.00532618 0)
(0.0138989 0.00572019 0)
(0.0143817 0.0061367 0)
(0.0148232 0.00657527 0)
(0.01522 0.00703524 0)
(0.0155686 0.00751577 0)
(0.0158651 0.00801576 0)
(0.0161061 0.0085339 0)
(0.0162876 0.00906861 0)
(0.0164062 0.00961805 0)
(0.0164582 0.0101801 0)
(0.0164404 0.0107524 0)
(0.0163496 0.0113322 0)
(0.0161831 0.0119167 0)
(0.0159384 0.0125026 0)
(0.0156138 0.0130866 0)
(0.0152078 0.0136651 0)
(0.0147197 0.0142342 0)
(0.0141494 0.0147901 0)
(0.0134975 0.0153287 0)
(0.0127656 0.015846 0)
(0.0119558 0.0163378 0)
(0.0110713 0.0168002 0)
(0.010116 0.0172293 0)
(0.00909466 0.0176213 0)
(0.00801284 0.0179728 0)
(0.00687688 0.0182806 0)
(0.00569381 0.0185419 0)
(0.00447127 0.0187542 0)
(0.00321727 0.0189156 0)
(0.00193842 0.0190247 0)
(0.00064672 0.0190793 0)
(0.000413452 0.00272883 0)
(0.00123897 0.00275464 0)
(0.00206264 0.00280632 0)
(0.00288405 0.00288405 0)
(0.00370128 0.00298812 0)
(0.00451306 0.00311884 0)
(0.00531807 0.00327665 0)
(0.00611494 0.003462 0)
(0.00690219 0.00367544 0)
(0.00767829 0.00391751 0)
(0.00844154 0.00418881 0)
(0.00919018 0.00448993 0)
(0.00992226 0.00482146 0)
(0.0106357 0.00518393 0)
(0.0113283 0.00557785 0)
(0.0119975 0.00600363 0)
(0.0126408 0.00646158 0)
(0.0132554 0.00695188 0)
(0.0138383 0.00747457 0)
(0.0143862 0.00802948 0)
(0.0148958 0.00861622 0)
(0.0153635 0.0092342 0)
(0.0157856 0.00988251 0)
(0.0161583 0.01056 0)
(0.0164776 0.0112651 0)
(0.0167394 0.011996 0)
(0.0169399 0.0127505 0)
(0.0170749 0.013526 0)
(0.0171408 0.0143196 0)
(0.0171337 0.0151278 0)
(0.0170503 0.015947 0)
(0.0168875 0.0167729 0)
(0.0166427 0.0176012 0)
(0.0163136 0.018427 0)
(0.0158988 0.0192451 0)
(0.0153971 0.0200503 0)
(0.0148084 0.020837 0)
(0.0141334 0.0215994 0)
(0.0133733 0.0223317 0)
(0.0125306 0.0230283 0)
(0.0116083 0.0236833 0)
(0.0106107 0.0242912 0)
(0.0095426 0.0248467 0)
(0.00841004 0.0253449 0)
(0.00721969 0.0257811 0)
(0.00597905 0.0261514 0)
(0.00469627 0.0264521 0)
(0.00337985 0.0266805 0)
(0.00203672 0.0268342 0)
(0.000679568 0.0269115 0)
(0.000428224 0.00350084 0)
(0.00128332 0.00353416 0)
(0.00213671 0.00360089 0)
(0.00298812 0.00370128 0)
(0.00383568 0.00383568 0)
(0.00467823 0.00400453 0)
(0.00551452 0.00420839 0)
(0.00634325 0.00444786 0)
(0.00716299 0.00472366 0)
(0.00797223 0.00503652 0)
(0.00876933 0.00538721 0)
(0.00955247 0.00577653 0)
(0.0103197 0.00620526 0)
(0.0110689 0.00667412 0)
(0.0117978 0.00718378 0)
(0.0125038 0.00773482 0)
(0.0131842 0.00832766 0)
(0.0138359 0.00896258 0)
(0.0144558 0.00963964 0)
(0.0150406 0.0103587 0)
(0.0155864 0.0111192 0)
(0.0160895 0.0119205 0)
(0.0165458 0.0127615 0)
(0.0169512 0.0136405 0)
(0.0173012 0.0145559 0)
(0.0175915 0.015505 0)
(0.0178176 0.0164852 0)
(0.0179752 0.0174931 0)
(0.01806 0.0185248 0)
(0.0180677 0.019576 0)
(0.0179947 0.0206418 0)
(0.0178373 0.0217169 0)
(0.0175925 0.0227955 0)
(0.0172578 0.0238712 0)
(0.0168312 0.0249374 0)
(0.0163115 0.0259871 0)
(0.0156984 0.027013 0)
(0.0149923 0.0280076 0)
(0.0141945 0.0289634 0)
(0.0133074 0.0298727 0)
(0.0123342 0.030728 0)
(0.0112794 0.031522 0)
(0.0101483 0.0322477 0)
(0.00894723 0.0328987 0)
(0.00768336 0.0334688 0)
(0.00636482 0.0339527 0)
(0.00500043 0.0343458 0)
(0.00359941 0.0346442 0)
(0.00216938 0.0348448 0)
(0.000723926 0.0349456 0)
(0.000446777 0.00426676 0)
(0.00133902 0.00430771 0)
(0.00222976 0.00438969 0)
(0.00311884 0.00451306 0)
(0.00400453 0.00467823 0)
(0.00488576 0.00488576 0)
(0.0057614 0.00513636 0)
(0.00663021 0.00543079 0)
(0.00749084 0.00576994 0)
(0.00834184 0.00615474 0)
(0.00918156 0.00658618 0)
(0.0100082 0.00706527 0)
(0.0108198 0.00759299 0)
(0.0116142 0.00817029 0)
(0.012389 0.00879803 0)
(0.0131414 0.00947696 0)
(0.0138686 0.0102077 0)
(0.0145674 0.0109905 0)
(0.0152344 0.0118256 0)
(0.0158658 0.0127129 0)
(0.0164577 0.0136518 0)
(0.0170058 0.0146414 0)
(0.0175057 0.0156805 0)
(0.0179527 0.0167671 0)
(0.018342 0.0178991 0)
(0.0186687 0.0190735 0)
(0.0189279 0.0202869 0)
(0.0191145 0.0215352 0)
(0.0192237 0.0228136 0)
(0.0192507 0.0241169 0)
(0.0191913 0.0254389 0)
(0.0190412 0.0267731 0)
(0.018797 0.0281123 0)
(0.0184556 0.0294486 0)
(0.0180147 0.0307737 0)
(0.0174727 0.0320789 0)
(0.016829 0.033355 0)
(0.0160838 0.0345928 0)
(0.0152384 0.0357828 0)
(0.0142952 0.0369153 0)
(0.0132576 0.0379809 0)
(0.0121304 0.0389706 0)
(0.0109193 0.0398755 0)
(0.00963111 0.0406873 0)
(0.00827372 0.0413984 0)
(0.00685602 0.0420021 0)
(0.00538769 0.0424925 0)
(0.00387889 0.0428647 0)
(0.00233821 0.0431151 0)
(0.00078038 0.0432408 0)
(0.000469167 0.00502518 0)
(0.00140625 0.00507386 0)
(0.00234206 0.00517136 0)
(0.00327665 0.00531807 0)
(0.00420839 0.00551452 0)
(0.00513636 0.0057614 0)
(0.00605954 0.00605954 0)
(0.00697682 0.00640992 0)
(0.00788694 0.00681359 0)
(0.00878848 0.00727172 0)
(0.00967986 0.00778552 0)
(0.0105593 0.00835624 0)
(0.0114247 0.0089851 0)
(0.012274 0.00967329 0)
(0.0131045 0.0104219 0)
(0.0139134 0.0112319 0)
(0.0146977 0.012104 0)
(0.0154539 0.0130387 0)
(0.0161782 0.0140364 0)
(0.0168667 0.0150968 0)
(0.0175149 0.0162195 0)
(0.0181182 0.0174035 0)
(0.0186715 0.0186474 0)
(0.0191698 0.0199489 0)
(0.0196076 0.0213055 0)
(0.0199793 0.0227137 0)
(0.0202793 0.0241695 0)
(0.0205019 0.025668 0)
(0.0206416 0.0272037 0)
(0.020693 0.0287701 0)
(0.0206509 0.03036 0)
(0.0205106 0.0319656 0)
(0.0202679 0.033578 0)
(0.0199191 0.035188 0)
(0.0194615 0.0367854 0)
(0.0188929 0.0383597 0)
(0.0182124 0.0398998 0)
(0.01742 0.0413944 0)
(0.0165169 0.0428319 0)
(0.0155055 0.0442007 0)
(0.0143896 0.0454893 0)
(0.013174 0.0466865 0)
(0.011865 0.0477815 0)
(0.0104702 0.0487642 0)
(0.00899821 0.0496253 0)
(0.00745892 0.0503565 0)
(0.00586306 0.0509505 0)
(0.00422197 0.0514015 0)
(0.00254545 0.0517047 0)
(0.000849676 0.0518571 0)
(0.00049546 0.00577461 0)
(0.0014852 0.00583117 0)
(0.00247396 0.00594446 0)
(0.003462 0.00611494 0)
(0.00444786 0.00634325 0)
(0.00543079 0.00663021 0)
(0.00640992 0.00697682 0)
(0.00738425 0.00738425 0)
(0.00835265 0.00785378 0)
(0.00931377 0.00838681 0)
(0.0102661 0.00898481 0)
(0.0112078 0.00964929 0)
(0.0121369 0.0103817 0)
(0.013051 0.0111836 0)
(0.0139475 0.0120563 0)
(0.0148235 0.0130009 0)
(0.0156755 0.0140185 0)
(0.0164998 0.0151098 0)
(0.0172925 0.0162752 0)
(0.018049 0.0175146 0)
(0.0187644 0.0188275 0)
(0.0194336 0.020213 0)
(0.020051 0.0216693 0)
(0.0206108 0.0231942 0)
(0.0211068 0.0247846 0)
(0.0215328 0.0264368 0)
(0.0218822 0.0281458 0)
(0.0221487 0.0299063 0)
(0.0223257 0.0317116 0)
(0.0224071 0.0335544 0)
(0.0223868 0.0354262 0)
(0.0222592 0.0373177 0)
(0.0220194 0.0392186 0)
(0.0216629 0.0411179 0)
(0.0211864 0.0430037 0)
(0.0205871 0.0448634 0)
(0.0198637 0.0466839 0)
(0.0190159 0.0484517 0)
(0.0180447 0.050153 0)
(0.0169526 0.0517739 0)
(0.0157434 0.0533006 0)
(0.0144226 0.0547196 0)
(0.012997 0.0560182 0)
(0.0114749 0.057184 0)
(0.00986601 0.058206 0)
(0.00818124 0.059074 0)
(0.00643268 0.0597793 0)
(0.00463311 0.0603149 0)
(0.00279382 0.0606751 0)
(0.000932728 0.060856 0)
(0.000525729 0.00651352 0)
(0.00157609 0.00657811 0)
(0.00262582 0.00670748 0)
(0.00367544 0.00690219 0)
(0.00472366 0.00716299 0)
(0.00576994 0.00749084 0)
(0.00681359 0.00788694 0)
(0.00785378 0.00835265 0)
(0.0088895 0.0088895 0)
(0.00991951 0.00949916 0)
(0.0109423 0.0101834 0)
(0.0119562 0.010944 0)
(0.0129591 0.0117827 0)
(0.0139485 0.0127014 0)
(0.0149218 0.0137017 0)
(0.0158757 0.0147851 0)
(0.0168066 0.0159528 0)
(0.0177105 0.0172058 0)
(0.018583 0.0185447 0)
(0.019419 0.0199695 0)
(0.0202133 0.02148 0)
(0.02096 0.0230749 0)
(0.0216528 0.0247527 0)
(0.0222852 0.0265107 0)
(0.0228501 0.0283456 0)
(0.0233405 0.0302532 0)
(0.0237488 0.032228 0)
(0.0240677 0.0342639 0)
(0.0242898 0.0363533 0)
(0.0244076 0.0384878 0)
(0.0244142 0.0406576 0)
(0.0243031 0.0428521 0)
(0.0240681 0.0450592 0)
(0.0237042 0.0472662 0)
(0.023207 0.0494592 0)
(0.0225731 0.0516235 0)
(0.0218007 0.0537438 0)
(0.0208891 0.0558041 0)
(0.0198391 0.0577883 0)
(0.0186531 0.0596799 0)
(0.0173353 0.0614627 0)
(0.0158916 0.0631208 0)
(0.0143294 0.0646388 0)
(0.012658 0.0660024 0)
(0.0108881 0.0671981 0)
(0.00903226 0.068214 0)
(0.00710395 0.0690398 0)
(0.0051177 0.0696669 0)
(0.0030866 0.0700888 0)
(0.00103063 0.0703008 0)
(0.00056005 0.00724031 0)
(0.00167916 0.00731308 0)
(0.00279804 0.00745886 0)
(0.00391751 0.00767829 0)
(0.00503652 0.00797223 0)
(0.00615474 0.00834184 0)
(0.00727172 0.00878848 0)
(0.00838681 0.00931377 0)
(0.00949916 0.00991951 0)
(0.0106077 0.0106077 0)
(0.0117109 0.0113803 0)
(0.0128072 0.0122395 0)
(0.0138944 0.0131875 0)
(0.01497 0.0142264 0)
(0.0160312 0.0153582 0)
(0.0170746 0.0165848 0)
(0.0180962 0.0179077 0)
(0.0190917 0.0193281 0)
(0.0200562 0.0208469 0)
(0.0209842 0.0224644 0)
(0.0218698 0.0241804 0)
(0.0227063 0.0259938 0)
(0.0234868 0.0279028 0)
(0.0242037 0.0299048 0)
(0.0248493 0.0319962 0)
(0.0254152 0.0341723 0)
(0.025893 0.0364271 0)
(0.026274 0.0387536 0)
(0.0265496 0.0411435 0)
(0.0267114 0.0435871 0)
(0.026751 0.0460735 0)
(0.0266608 0.0485903 0)
(0.0264335 0.051124 0)
(0.0260629 0.0536598 0)
(0.0255437 0.0561818 0)
(0.0248717 0.0586729 0)
(0.0240443 0.0611154 0)
(0.0230604 0.0634908 0)
(0.0219205 0.0657802 0)
(0.020627 0.0679644 0)
(0.0191843 0.0700244 0)
(0.0175987 0.0719415 0)
(0.0158786 0.0736977 0)
(0.0140342 0.075276 0)
(0.0120777 0.0766607 0)
(0.010023 0.0778376 0)
(0.00788563 0.0787947 0)
(0.00568211 0.0795217 0)
(0.00342764 0.0800108 0)
(0.00114468 0.0802566 0)
(0.000598504 0.00795327 0)
(0.00179465 0.0080344 0)
(0.00299103 0.0081969 0)
(0.00418881 0.00844154 0)
(0.00538721 0.00876933 0)
(0.00658618 0.00918156 0)
(0.00778552 0.00967986 0)
(0.00898481 0.0102661 0)
(0.0101834 0.0109423 0)
(0.0113803 0.0117109 0)
(0.0125742 0.0125742 0)
(0.0137635 0.0135348 0)
(0.014946 0.0145951 0)
(0.0161192 0.0157578 0)
(0.0172801 0.0170253 0)
(0.0184251 0.0183998 0)
(0.0195499 0.0198832 0)
(0.0206498 0.0214772 0)
(0.0217193 0.0231829 0)
(0.0227525 0.0250009 0)
(0.0237427 0.0269312 0)
(0.0246824 0.0289728 0)
(0.0255639 0.031124 0)
(0.0263786 0.033382 0)
(0.0271175 0.0357431 0)
(0.0277713 0.0382021 0)
(0.0283302 0.0407526 0)
(0.0287842 0.0433868 0)
(0.0291233 0.0460955 0)
(0.0293376 0.0488679 0)
(0.0294174 0.0516916 0)
(0.0293536 0.0545529 0)
(0.0291377 0.0574363 0)
(0.028762 0.060325 0)
(0.02822 0.0632008 0)
(0.0275068 0.0660441 0)
(0.0266186 0.0688346 0)
(0.0255538 0.071551 0)
(0.0243126 0.0741712 0)
(0.0228973 0.0766731 0)
(0.0213124 0.0790347 0)
(0.0195649 0.081234 0)
(0.0176639 0.0832501 0)
(0.015621 0.0850631 0)
(0.0134498 0.0866545 0)
(0.0111663 0.0880078 0)
(0.00878798 0.0891087 0)
(0.0063338 0.0899451 0)
(0.00382149 0.090508 0)
(0.00127641 0.0907909 0)
(0.000641171 0.00865064 0)
(0.00192279 0.00874027 0)
(0.00320519 0.00891983 0)
(0.00448993 0.00919018 0)
(0.00577653 0.00955247 0)
(0.00706527 0.0100082 0)
(0.00835624 0.0105593 0)
(0.00964929 0.0112078 0)
(0.010944 0.0119562 0)
(0.0122395 0.0128072 0)
(0.0135348 0.0137635 0)
(0.0148281 0.0148281 0)
(0.0161174 0.016004 0)
(0.0174002 0.0172943 0)
(0.0186731 0.0187017 0)
(0.0199324 0.0202291 0)
(0.0211736 0.0218788 0)
(0.0223914 0.0236528 0)
(0.0235799 0.0255528 0)
(0.0247325 0.0275797 0)
(0.0258416 0.0297336 0)
(0.0268991 0.032014 0)
(0.0278961 0.0344191 0)
(0.0288229 0.0369463 0)
(0.0296693 0.0395914 0)
(0.0304246 0.0423491 0)
(0.0310777 0.0452126 0)
(0.0316169 0.0481733 0)
(0.0320307 0.0512211 0)
(0.0323075 0.0543441 0)
(0.0324361 0.0575285 0)
(0.0324055 0.0607589 0)
(0.0322056 0.064018 0)
(0.0318273 0.0672867 0)
(0.0312628 0.0705443 0)
(0.0305056 0.0737687 0)
(0.0295512 0.0769365 0)
(0.0283969 0.0800233 0)
(0.0270427 0.0830038 0)
(0.0254905 0.0858524 0)
(0.0237452 0.0885435 0)
(0.0218141 0.0910518 0)
(0.0197076 0.0933529 0)
(0.0174386 0.0954235 0)
(0.0150224 0.0972423 0)
(0.0124772 0.0987896 0)
(0.00982294 0.100049 0)
(0.00708148 0.101006 0)
(0.00427343 0.10165 0)
(0.00142757 0.101974 0)
(0.00068813 0.00933052 0)
(0.00206383 0.00942881 0)
(0.00344094 0.00962573 0)
(0.00482146 0.00992226 0)
(0.00620526 0.0103197 0)
(0.00759299 0.0108198 0)
(0.0089851 0.0114247 0)
(0.0103817 0.0121369 0)
(0.0117827 0.0129591 0)
(0.0131875 0.0138944 0)
(0.0145951 0.014946 0)
(0.016004 0.0161174 0)
(0.0174122 0.0174122 0)
(0.0188169 0.0188338 0)
(0.0202149 0.0203856 0)
(0.0216021 0.022071 0)
(0.0229736 0.0238928 0)
(0.0243238 0.0258537 0)
(0.0256462 0.0279557 0)
(0.0269333 0.0302002 0)
(0.0281769 0.0325878 0)
(0.0293679 0.0351181 0)
(0.0304962 0.0377897 0)
(0.0315509 0.0405999 0)
(0.0325204 0.0435446 0)
(0.0333925 0.0466182 0)
(0.0341543 0.0498134 0)
(0.0347927 0.0531212 0)
(0.035294 0.0565304 0)
(0.035645 0.0600279 0)
(0.0358323 0.0635988 0)
(0.0358431 0.0672257 0)
(0.0356654 0.0708893 0)
(0.0352883 0.0745683 0)
(0.0347021 0.0782393 0)
(0.033899 0.0818773 0)
(0.0328732 0.0854556 0)
(0.0316211 0.0889462 0)
(0.0301417 0.0923204 0)
(0.028437 0.0955487 0)
(0.0265118 0.0986014 0)
(0.0243743 0.101449 0)
(0.0220356 0.104064 0)
(0.0195103 0.106419 0)
(0.0168159 0.108489 0)
(0.0139729 0.110251 0)
(0.0110044 0.111685 0)
(0.00793522 0.112776 0)
(0.00478959 0.11351 0)
(0.00160024 0.11388 0)
(0.000739454 0.00999091 0)
(0.002218 0.010098 0)
(0.00369865 0.0103126 0)
(0.00518393 0.0106357 0)
(0.00667412 0.0110689 0)
(0.00817029 0.0116142 0)
(0.00967329 0.012274 0)
(0.0111836 0.013051 0)
(0.0127014 0.0139485 0)
(0.0142264 0.01497 0)
(0.0157578 0.0161192 0)
(0.0172943 0.0174002 0)
(0.0188338 0.0188169 0)
(0.0203736 0.0203736 0)
(0.0219103 0.0220743 0)
(0.0234396 0.0239228 0)
(0.0249564 0.0259227 0)
(0.0264543 0.0280774 0)
(0.0279264 0.0303893 0)
(0.0293646 0.0328605 0)
(0.0307595 0.0354921 0)
(0.032101 0.038284 0)
(0.0333779 0.0412353 0)
(0.0345778 0.0443434 0)
(0.0356877 0.0476042 0)
(0.0366935 0.0510121 0)
(0.0375806 0.0545593 0)
(0.0383338 0.0582363 0)
(0.0389375 0.062031 0)
(0.039376 0.0659294 0)
(0.0396339 0.0699149 0)
(0.039696 0.0739685 0)
(0.0395482 0.0780687 0)
(0.0391773 0.0821917 0)
(0.0385718 0.0863113 0)
(0.0377219 0.0903992 0)
(0.0366201 0.0944252 0)
(0.0352618 0.0983576 0)
(0.0336451 0.102163 0)
(0.0317714 0.105809 0)
(0.0296458 0.109259 0)
(0.027277 0.112482 0)
(0.0246773 0.115444 0)
(0.021863 0.118113 0)
(0.018854 0.120461 0)
(0.0156736 0.122461 0)
(0.0123483 0.124091 0)
(0.00890669 0.12533 0)
(0.00537706 0.126165 0)
(0.00179678 0.126584 0)
(0.000795208 0.0106297 0)
(0.00238548 0.0107457 0)
(0.00397866 0.0109781 0)
(0.00557785 0.0113283 0)
(0.00718378 0.0117978 0)
(0.00879803 0.012389 0)
(0.0104219 0.0131045 0)
(0.0120563 0.0139475 0)
(0.0137017 0.0149218 0)
(0.0153582 0.0160312 0)
(0.0170253 0.0172801 0)
(0.0187017 0.0186731 0)
(0.0203856 0.0202149 0)
(0.0220743 0.0219103 0)
(0.0237641 0.0237641 0)
(0.0254506 0.0257808 0)
(0.0271282 0.0279649 0)
(0.0287904 0.0303202 0)
(0.0304293 0.0328501 0)
(0.0320361 0.0355573 0)
(0.0336005 0.0384434 0)
(0.0351111 0.0415091 0)
(0.0365555 0.0447538 0)
(0.0379198 0.0481753 0)
(0.0391891 0.0517696 0)
(0.0403476 0.0555312 0)
(0.0413785 0.059452 0)
(0.0422644 0.0635219 0)
(0.0429872 0.0677284 0)
(0.0435289 0.072056 0)
(0.0438714 0.0764869 0)
(0.0439969 0.0810002 0)
(0.0438886 0.0855723 0)
(0.0435308 0.0901765 0)
(0.0429096 0.0947837 0)
(0.042013 0.0993622 0)
(0.0408316 0.103878 0)
(0.0393592 0.108294 0)
(0.0375928 0.112574 0)
(0.0355332 0.116679 0)
(0.0331854 0.12057 0)
(0.0305586 0.124207 0)
(0.0276666 0.127553 0)
(0.0245276 0.130572 0)
(0.021164 0.13323 0)
(0.0176024 0.135495 0)
(0.0138731 0.137342 0)
(0.0100094 0.138747 0)
(0.00604405 0.139694 0)
(0.00201996 0.14017 0)
(0.000855447 0.0112445 0)
(0.00256645 0.0113695 0)
(0.00428126 0.0116201 0)
(0.00600363 0.0119975 0)
(0.00773482 0.0125038 0)
(0.00947696 0.0131414 0)
(0.0112319 0.0139134 0)
(0.0130009 0.0148235 0)
(0.0147851 0.0158757 0)
(0.0165848 0.0170746 0)
(0.0183998 0.0184251 0)
(0.0202291 0.0199324 0)
(0.022071 0.0216021 0)
(0.0239228 0.0234396 0)
(0.0257808 0.0254506 0)
(0.0276404 0.0276404 0)
(0.0294957 0.0300143 0)
(0.0313396 0.0325771 0)
(0.0331635 0.035333 0)
(0.0349579 0.0382854 0)
(0.0367114 0.0414368 0)
(0.0384114 0.0447886 0)
(0.040044 0.0483408 0)
(0.0415936 0.0520917 0)
(0.0430436 0.0560377 0)
(0.0443759 0.0601733 0)
(0.0455714 0.0644905 0)
(0.0466102 0.0689787 0)
(0.0474716 0.0736247 0)
(0.0481346 0.0784123 0)
(0.048578 0.0833219 0)
(0.0487813 0.0883309 0)
(0.0487245 0.0934133 0)
(0.0483888 0.0985398 0)
(0.0477574 0.103678 0)
(0.0468158 0.108792 0)
(0.0455522 0.113844 0)
(0.0439584 0.118792 0)
(0.0420299 0.123595 0)
(0.0397668 0.128207 0)
(0.0371738 0.132585 0)
(0.0342606 0.136682 0)
(0.0310424 0.140456 0)
(0.0275393 0.143864 0)
(0.023777 0.146867 0)
(0.0197856 0.149429 0)
(0.0156001 0.151519 0)
(0.0112588 0.15311 0)
(0.00680004 0.154183 0)
(0.00227296 0.154722 0)
(0.00092021 0.0118331 0)
(0.00276102 0.0119671 0)
(0.00460665 0.0122359 0)
(0.00646158 0.0126408 0)
(0.00832766 0.0131842 0)
(0.0102077 0.0138686 0)
(0.012104 0.0146977 0)
(0.0140185 0.0156755 0)
(0.0159528 0.0168066 0)
(0.0179077 0.0180962 0)
(0.0198832 0.0195499 0)
(0.0218788 0.0211736 0)
(0.0238928 0.0229736 0)
(0.0259227 0.0249564 0)
(0.0279649 0.0271282 0)
(0.0300143 0.0294957 0)
(0.0320649 0.0320649 0)
(0.034109 0.0348417 0)
(0.0361376 0.0378312 0)
(0.0381399 0.0410379 0)
(0.0401037 0.0444653 0)
(0.0420151 0.0481156 0)
(0.0438585 0.0519895 0)
(0.0456167 0.0560861 0)
(0.0472707 0.0604025 0)
(0.0488004 0.0649333 0)
(0.050184 0.0696707 0)
(0.0513987 0.0746039 0)
(0.0524208 0.0797192 0)
(0.053226 0.0849993 0)
(0.05379 0.0904234 0)
(0.0540883 0.0959671 0)
(0.0540975 0.101602 0)
(0.0537954 0.107296 0)
(0.0531618 0.113012 0)
(0.0521788 0.118712 0)
(0.0508318 0.124352 0)
(0.0491102 0.129886 0)
(0.0470077 0.135265 0)
(0.044523 0.140439 0)
(0.0416604 0.145357 0)
(0.0384302 0.149967 0)
(0.0348488 0.154218 0)
(0.0309388 0.158061 0)
(0.026729 0.161451 0)
(0.0222541 0.164346 0)
(0.017554 0.166709 0)
(0.012673 0.168509 0)
(0.00765597 0.169723 0)
(0.00255946 0.170333 0)
(0.000989516 0.0123928 0)
(0.00296926 0.0125359 0)
(0.00495496 0.0128229 0)
(0.00695188 0.0132554 0)
(0.00896258 0.0138359 0)
(0.0109905 0.0145674 0)
(0.0130387 0.0154539 0)
(0.0151098 0.0164998 0)
(0.0172058 0.0177105 0)
(0.0193281 0.0190917 0)
(0.0214772 0.0206498 0)
(0.0236528 0.0223914 0)
(0.0258537 0.0243238 0)
(0.0280774 0.0264543 0)
(0.0303202 0.0287904 0)
(0.0325771 0.0313396 0)
(0.0348417 0.034109 0)
(0.0371058 0.0371058 0)
(0.0393597 0.0403363 0)
(0.0415919 0.043806 0)
(0.043789 0.0475196 0)
(0.0459356 0.0514805 0)
(0.0480146 0.0556904 0)
(0.0500066 0.0601493 0)
(0.0518907 0.064855 0)
(0.053644 0.0698027 0)
(0.055242 0.074985 0)
(0.0566587 0.0803911 0)
(0.0578669 0.0860068 0)
(0.0588388 0.0918141 0)
(0.0595459 0.0977911 0)
(0.0599598 0.103911 0)
(0.0600531 0.110144 0)
(0.0597992 0.116454 0)
(0.0591739 0.122802 0)
(0.0581555 0.129143 0)
(0.056726 0.135429 0)
(0.0548715 0.141608 0)
(0.0525834 0.147625 0)
(0.0498588 0.153422 0)
(0.0467013 0.158941 0)
(0.0431214 0.164122 0)
(0.0391368 0.168906 0)
(0.0347727 0.173238 0)
(0.0300616 0.177062 0)
(0.0250431 0.180331 0)
(0.019763 0.183002 0)
(0.0142727 0.185037 0)
(0.00862455 0.186411 0)
(0.00288372 0.187102 0)
(0.00106336 0.0129209 0)
(0.00319117 0.0130731 0)
(0.00532618 0.0133783 0)
(0.00747457 0.0138383 0)
(0.00963964 0.0144558 0)
(0.0118256 0.0152344 0)
(0.0140364 0.0161782 0)
(0.0162752 0.0172925 0)
(0.0185447 0.018583 0)
(0.0208469 0.0200562 0)
(0.0231829 0.0217193 0)
(0.0255528 0.0235799 0)
(0.0279557 0.0256462 0)
(0.0303893 0.0279264 0)
(0.0328501 0.0304293 0)
(0.035333 0.0331635 0)
(0.0378312 0.0361376 0)
(0.0403363 0.0393597 0)
(0.0428378 0.0428378 0)
(0.0453233 0.0465786 0)
(0.0477782 0.0505883 0)
(0.0501859 0.0548715 0)
(0.0525273 0.0594312 0)
(0.0547812 0.0642687 0)
(0.0569241 0.0693827 0)
(0.0589303 0.0747694 0)
(0.0607723 0.0804218 0)
(0.0624204 0.0863295 0)
(0.0638439 0.0924783 0)
(0.0650104 0.0988495 0)
(0.0658873 0.10542 0)
(0.0664415 0.112162 0)
(0.0666405 0.119042 0)
(0.0664532 0.126022 0)
(0.0658503 0.133058 0)
(0.0648055 0.140101 0)
(0.0632966 0.147097 0)
(0.061306 0.153988 0)
(0.0588219 0.160711 0)
(0.0558392 0.167201 0)
(0.0523604 0.17339 0)
(0.0483958 0.17921 0)
(0.0439646 0.184592 0)
(0.0390946 0.189472 0)
(0.0338226 0.193786 0)
(0.0281935 0.197477 0)
(0.0222602 0.200495 0)
(0.0160821 0.202798 0)
(0.00972054 0.204352 0)
(0.00325072 0.205135 0)
(0.00114173 0.0134145 0)
(0.00342666 0.0135757 0)
(0.00572019 0.0138989 0)
(0.00802948 0.0143862 0)
(0.0103587 0.0150406 0)
(0.0127129 0.0158658 0)
(0.0150968 0.0168667 0)
(0.0175146 0.018049 0)
(0.0199695 0.019419 0)
(0.0224644 0.0209842 0)
(0.0250009 0.0227525 0)
(0.0275797 0.0247325 0)
(0.0302002 0.0269333 0)
(0.0328605 0.0293646 0)
(0.0355573 0.0320361 0)
(0.0382854 0.0349579 0)
(0.0410379 0.0381399 0)
(0.043806 0.0415919 0)
(0.0465786 0.0453233 0)
(0.0493425 0.0493425 0)
(0.0520819 0.0536571 0)
(0.0547786 0.0582736 0)
(0.0574118 0.0631964 0)
(0.0599581 0.0684283 0)
(0.0623914 0.0739694 0)
(0.0646831 0.079817 0)
(0.0668021 0.0859652 0)
(0.0687152 0.092404 0)
(0.0703869 0.0991196 0)
(0.0717807 0.106093 0)
(0.0728584 0.1133 0)
(0.073582 0.120712 0)
(0.0739132 0.128292 0)
(0.0738151 0.136 0)
(0.0732528 0.143787 0)
(0.0721946 0.151599 0)
(0.0706128 0.159376 0)
(0.0684852 0.167054 0)
(0.0657962 0.17456 0)
(0.0625376 0.18182 0)
(0.0587101 0.188758 0)
(0.0543239 0.195293 0)
(0.049399 0.201348 0)
(0.0439663 0.206846 0)
(0.0380671 0.211713 0)
(0.0317526 0.215882 0)
(0.0250838 0.219295 0)
(0.0181294 0.221901 0)
(0.0109611 0.22366 0)
(0.00366623 0.224546 0)
(0.00122454 0.0138707 0)
(0.00367555 0.0140407 0)
(0.0061367 0.0143817 0)
(0.00861622 0.0148958 0)
(0.0111192 0.0155864 0)
(0.0136518 0.0164577 0)
(0.0162195 0.0175149 0)
(0.0188275 0.0187644 0)
(0.02148 0.0202133 0)
(0.0241804 0.0218698 0)
(0.0269312 0.0237427 0)
(0.0297336 0.0258416 0)
(0.0325878 0.0281769 0)
(0.0354921 0.0307595 0)
(0.0384434 0.0336005 0)
(0.0414368 0.0367114 0)
(0.0444653 0.0401037 0)
(0.0475196 0.043789 0)
(0.0505883 0.0477782 0)
(0.0536571 0.0520819 0)
(0.0567094 0.0567094 0)
(0.0597252 0.0616689 0)
(0.0626821 0.0669671 0)
(0.0655542 0.0726083 0)
(0.0683128 0.0785946 0)
(0.0709261 0.0849247 0)
(0.0733593 0.0915941 0)
(0.0755748 0.0985939 0)
(0.0775328 0.105911 0)
(0.079191 0.113526 0)
(0.0805061 0.121415 0)
(0.0814334 0.129547 0)
(0.0819285 0.137884 0)
(0.0819478 0.146382 0)
(0.0814495 0.154988 0)
(0.0803953 0.163643 0)
(0.0787512 0.172281 0)
(0.0764891 0.180828 0)
(0.0735884 0.189203 0)
(0.0700372 0.197323 0)
(0.0658334 0.205098 0)
(0.0609863 0.212437 0)
(0.0555171 0.21925 0)
(0.0494593 0.225446 0)
(0.0428593 0.23094 0)
(0.0357757 0.235653 0)
(0.0282784 0.239514 0)
(0.0204472 0.242465 0)
(0.0123664 0.244459 0)
(0.00413701 0.245464 0)
(0.00131172 0.0142864 0)
(0.00393758 0.014465 0)
(0.00657527 0.0148232 0)
(0.0092342 0.0153635 0)
(0.0119205 0.0160895 0)
(0.0146414 0.0170058 0)
(0.0174035 0.0181182 0)
(0.020213 0.0194336 0)
(0.0230749 0.02096 0)
(0.0259938 0.0227063 0)
(0.0289728 0.0246824 0)
(0.032014 0.0268991 0)
(0.0351181 0.0293679 0)
(0.038284 0.032101 0)
(0.0415091 0.0351111 0)
(0.0447886 0.0384114 0)
(0.0481156 0.0420151 0)
(0.0514805 0.0459356 0)
(0.0548715 0.0501859 0)
(0.0582736 0.0547786 0)
(0.0616689 0.0597252 0)
(0.0650363 0.0650363 0)
(0.0683512 0.0707206 0)
(0.0715856 0.0767849 0)
(0.0747078 0.0832333 0)
(0.0776826 0.0900666 0)
(0.0804713 0.0972821 0)
(0.0830318 0.104873 0)
(0.0853189 0.112826 0)
(0.0872847 0.121123 0)
(0.0888792 0.12974 0)
(0.090051 0.138646 0)
(0.0907482 0.1478 0)
(0.0909192 0.157155 0)
(0.0905146 0.166655 0)
(0.0894877 0.176235 0)
(0.087797 0.18582 0)
(0.0854072 0.195328 0)
(0.0822914 0.20467 0)
(0.0784324 0.213749 0)
(0.0738247 0.222464 0)
(0.0684759 0.230708 0)
(0.0624075 0.238377 0)
(0.0556563 0.245364 0)
(0.0482738 0.251571 0)
(0.0403269 0.256903 0)
(0.0318962 0.261277 0)
(0.0230742 0.264623 0)
(0.0139599 0.266885 0)
(0.00467103 0.268026 0)
(0.00140313 0.0146583 0)
(0.00421235 0.0148451 0)
(0.00703524 0.01522 0)
(0.00988251 0.0157856 0)
(0.0127615 0.0165458 0)
(0.0156805 0.0175057 0)
(0.0186474 0.0186715 0)
(0.0216693 0.020051 0)
(0.0247527 0.0216528 0)
(0.0279028 0.0234868 0)
(0.031124 0.0255639 0)
(0.0344191 0.0278961 0)
(0.0377897 0.0304962 0)
(0.0412353 0.0333779 0)
(0.0447538 0.0365555 0)
(0.0483408 0.040044 0)
(0.0519895 0.0438585 0)
(0.0556904 0.0480146 0)
(0.0594312 0.0525273 0)
(0.0631964 0.0574118 0)
(0.0669671 0.0626821 0)
(0.0707206 0.0683512 0)
(0.0744307 0.0744307 0)
(0.0780668 0.0809299 0)
(0.0815945 0.0878557 0)
(0.084975 0.0952115 0)
(0.0881653 0.102997 0)
(0.0911183 0.111207 0)
(0.0937833 0.119831 0)
(0.0961059 0.128852 0)
(0.0980289 0.138246 0)
(0.0994931 0.147981 0)
(0.100438 0.158015 0)
(0.100803 0.1683 0)
(0.100529 0.178773 0)
(0.0995597 0.189365 0)
(0.0978448 0.199993 0)
(0.0953397 0.210567 0)
(0.0920096 0.220985 0)
(0.0878306 0.231137 0)
(0.0827922 0.240906 0)
(0.0768993 0.250172 0)
(0.0701732 0.25881 0)
(0.0626535 0.266698 0)
(0.0543978 0.273717 0)
(0.0454818 0.279757 0)
(0.0359985 0.284719 0)
(0.0260557 0.288519 0)
(0.0157695 0.29109 0)
(0.00527765 0.292387 0)
(0.00149859 0.014983 0)
(0.00449934 0.0151778 0)
(0.00751577 0.0155686 0)
(0.01056 0.0161583 0)
(0.0136405 0.0169512 0)
(0.0167671 0.0179527 0)
(0.0199489 0.0191698 0)
(0.0231942 0.0206108 0)
(0.0265107 0.0222852 0)
(0.0299048 0.0242037 0)
(0.033382 0.0263786 0)
(0.0369463 0.0288229 0)
(0.0405999 0.0315509 0)
(0.0443434 0.0345778 0)
(0.0481753 0.0379198 0)
(0.0520917 0.0415936 0)
(0.0560861 0.0456167 0)
(0.0601493 0.0500066 0)
(0.0642687 0.0547812 0)
(0.0684283 0.0599581 0)
(0.0726083 0.0655542 0)
(0.0767849 0.0715856 0)
(0.0809299 0.0780668 0)
(0.0850106 0.0850106 0)
(0.0889894 0.0924269 0)
(0.092824 0.100322 0)
(0.0964669 0.1087 0)
(0.0998658 0.117557 0)
(0.102964 0.126886 0)
(0.1057 0.136671 0)
(0.108008 0.146891 0)
(0.109821 0.157512 0)
(0.111067 0.168494 0)
(0.111677 0.179784 0)
(0.11158 0.191317 0)
(0.110708 0.203017 0)
(0.108999 0.214795 0)
(0.106399 0.226549 0)
(0.102861 0.238164 0)
(0.0983538 0.249518 0)
(0.0928598 0.260475 0)
(0.0863796 0.270895 0)
(0.0789335 0.280635 0)
(0.0705634 0.28955 0)
(0.0613333 0.297499 0)
(0.0513291 0.304353 0)
(0.0406579 0.309991 0)
(0.0294453 0.314314 0)
(0.0178282 0.317243 0)
(0.00596802 0.31872 0)
(0.0015979 0.0152572 0)
(0.00479791 0.0154594 0)
(0.00801576 0.0158651 0)
(0.0112651 0.0164776 0)
(0.0145559 0.0173012 0)
(0.0178991 0.018342 0)
(0.0213055 0.0196076 0)
(0.0247846 0.0211068 0)
(0.0283456 0.0228501 0)