/*--------------------------------*- C++ -*----------------------------------*\
| =========                 |                                                 |
| \\      /  F ield         | OpenFOAM: The Open Source CFD Toolbox           |
|  \\    /   O peration     | Version:  2406                                  |
|   \\  /    A nd           | Website:  www.openfoam.com                      |
|    \\/     M anipulation  |                                                 |
\*---------------------------------------------------------------------------*/
FoamFile
{
    version     2.0;
    format      ascii;
    arch        "LSB;label=32;scalar=64";
    class       volScalarField;
    location    "1.3";
    object      gradTy;
}
// * * * * * * * * * * * * * * * * * * * * * * * * * * * * * * * * * * * * * //

dimensions      [0 -1 0 1 0 0 0];

internalField   nonuniform List<scalar> 
2500
(
0.00391437
0.00395058
0.00402411
0.00413452
0.00428224
0.00446777
0.00469167
0.0049546
0.00525729
0.0056005
0.00598504
0.00641171
0.0068813
0.00739454
0.00795208
0.00855447
0.0092021
0.00989516
0.0106336
0.0114173
0.0122454
0.0131172
0.0140313
0.0149859
0.015979
0.0170077
0.0180691
0.0191594
0.0202743
0.0214092
0.0225587
0.0237171
0.024878
0.0260348
0.0271802
0.0283069
0.029407
0.0304727
0.0314958
0.0324684
0.0333827
0.0342308
0.0350056
0.0357003
0.0363085
0.0368247
0.0372445
0.0375638
0.0377782
0.0378766
0.0117281
0.0118378
0.0120583
0.0123897
0.0128332
0.0133902
0.0140625
0.014852
0.0157609
0.0167916
0.0179465
0.0192279
0.0206383
0.02218
0.0238548
0.0256645
0.0276102
0.0296926
0.0319117
0.0342666
0.0367555
0.0393758
0.0421235
0.0449934
0.0479791
0.0510725
0.0542642
0.0575431
0.0608967
0.0643105
0.0677688
0.071254
0.0747473
0.0782285
0.0816759
0.0850671
0.0883787
0.0915868
0.0946673
0.0975959
0.100349
0.102903
0.105237
0.107329
0.10916
0.110715
0.111979
0.112942
0.113593
0.113908
0.0195211
0.0197051
0.020073
0.0206264
0.0213671
0.0222976
0.0234206
0.0247396
0.0262582
0.0279804
0.0299103
0.0320519
0.0344094
0.0369865
0.0397866
0.0428126
0.0460665
0.0495496
0.0532618
0.0572019
0.061367
0.0657527
0.0703524
0.0751577
0.0801576
0.085339
0.0906861
0.0961805
0.101801
0.107524
0.113322
0.119167
0.125026
0.130866
0.136651
0.142342
0.147901
0.153287
0.15846
0.163378
0.168002
0.172293
0.176213
0.179728
0.182806
0.185419
0.187542
0.189156
0.190247
0.190793
0.0272883
0.0275464
0.0280632
0.0288405
0.0298812
0.0311884
0.0327665
0.03462
0.0367544
0.0391751
0.0418881
0.0448993
0.0482146
0.0518393
0.0557785
0.0600363
0.0646158
0.0695188
0.0747457
0.0802948
0.0861622
0.092342
0.0988251
0.1056
0.112651
0.11996
0.127505
0.13526
0.143196
0.151278
0.15947
0.167729
0.176012
0.18427
0.192451
0.200503
0.20837
0.215994
0.223317
0.230283
0.236833
0.242912
0.248467
0.253449
0.257811
0.261514
0.264521
0.266805
0.268342
0.269115
0.0350084
0.0353416
0.0360089
0.0370128
0.0383568
0.0400453
0.0420839
0.0444786
0.0472366
0.0503652
0.0538721
0.0577653
0.0620526
0.0667412
0.0718378
0.0773482
0.0832766
0.0896258
0.0963964
0.103587
0.111192
0.119205
0.127615
0.136405
0.145559
0.15505
0.164852
0.174931
0.185248
0.19576
0.206418
0.217169
0.227955
0.238712
0.249374
0.259871
0.27013
0.280076
0.289634
0.298727
0.30728
0.31522
0.322477
0.328987
0.334688
0.339527
0.343458
0.346442
0.348448
0.349456
0.0426676
0.0430771
0.0438969
0.0451306
0.0467823
0.0488576
0.0513636
0.0543079
0.0576994
0.0615474
0.0658618
0.0706527
0.0759299
0.0817029
0.0879803
0.0947696
0.102077
0.109905
0.118256
0.127129
0.136518
0.146414
0.156805
0.167671
0.178991
0.190735
0.202869
0.215352
0.228136
0.241169
0.254389
0.267731
0.281123
0.294486
0.307737
0.320789
0.33355
0.345928
0.357828
0.369153
0.379809
0.389706
0.398755
0.406873
0.413984
0.420021
0.424925
0.428647
0.431151
0.432408
0.0502518
0.0507386
0.0517136
0.0531807
0.0551452
0.057614
0.0605954
0.0640992
0.0681359
0.0727172
0.0778552
0.0835624
0.089851
0.0967329
0.104219
0.112319
0.12104
0.130387
0.140364
0.150968
0.162195
0.174035
0.186474
0.199489
0.213055
0.227137
0.241695
0.25668
0.272037
0.287701
0.3036
0.319656
0.33578
0.35188
0.367854
0.383597
0.398998
0.413944
0.428319
0.442007
0.454893
0.466865
0.477815
0.487642
0.496253
0.503565
0.509505
0.514015
0.517047
0.518571
0.0577461
0.0583117
0.0594446
0.0611494
0.0634325
0.0663021
0.0697682
0.0738425
0.0785378
0.0838681
0.0898481
0.0964929
0.103817
0.111836
0.120563
0.130009
0.140185
0.151098
0.162752
0.175146
0.188275
0.20213
0.216693
0.231942
0.247846
0.264368
0.281458
0.299063
0.317116
0.335544
0.354262
0.373177
0.392186
0.411179
0.430037
0.448634
0.466839
0.484517
0.50153
0.517739
0.533006
0.547196
0.560182
0.57184
0.58206
0.59074
0.597793
0.603149
0.606751
0.60856
0.0651352
0.0657811
0.0670748
0.0690219
0.0716299
0.0749084
0.0788694
0.0835265
0.088895
0.0949916
0.101834
0.10944
0.117827
0.127014
0.137017
0.147851
0.159528
0.172058
0.185447
0.199695
0.2148
0.230749
0.247527
0.265107
0.283456
0.302532
0.32228
0.342639
0.363533
0.384878
0.406576
0.428521
0.450592
0.472662
0.494592
0.516235
0.537438
0.558041
0.577883
0.596799
0.614627
0.631208
0.646388
0.660024
0.671981
0.68214
0.690398
0.696669
0.700888
0.703008
0.0724031
0.0731308
0.0745886
0.0767829
0.0797223
0.0834184
0.0878848
0.0931377
0.0991951
0.106077
0.113803
0.122395
0.131875
0.142264
0.153582
0.165848
0.179077
0.193281
0.208469
0.224644
0.241804
0.259938
0.279028
0.299048
0.319962
0.341723
0.364271
0.387536
0.411435
0.435871
0.460735
0.485903
0.51124
0.536598
0.561818
0.586729
0.611154
0.634908
0.657802
0.679644
0.700244
0.719415
0.736977
0.75276
0.766607
0.778376
0.787947
0.795217
0.800108
0.802566
0.0795327
0.080344
0.081969
0.0844154
0.0876933
0.0918156
0.0967986
0.102661
0.109423
0.117109
0.125742
0.135348
0.145951
0.157578
0.170253
0.183998
0.198832
0.214772
0.231829
0.250009
0.269312
0.289728
0.31124
0.33382
0.357431
0.382021
0.407526
0.433868
0.460955
0.488679
0.516916
0.545529
0.574363
0.60325
0.632008
0.660441
0.688346
0.71551
0.741712
0.766731
0.790347
0.81234
0.832501
0.850631
0.866545
0.880078
0.891087
0.899451
0.90508
0.907909
0.0865064
0.0874027
0.0891983
0.0919018
0.0955247
0.100082
0.105593
0.112078
0.119562
0.128072
0.137635
0.148281
0.16004
0.172943
0.187017
0.202291
0.218788
0.236528
0.255528
0.275797
0.297336
0.32014
0.344191
0.369463
0.395914
0.423491
0.452126
0.481733
0.512211
0.543441
0.575285
0.607589
0.64018
0.672867
0.705443
0.737687
0.769365
0.800233
0.830038
0.858524
0.885435
0.910518
0.933529
0.954235
0.972423
0.987896
1.00049
1.01006
1.0165
1.01974
0.0933052
0.0942881
0.0962573
0.0992226
0.103197
0.108198
0.114247
0.121369
0.129591
0.138944
0.14946
0.161174
0.174122
0.188338
0.203856
0.22071
0.238928
0.258537
0.279557
0.302002
0.325878
0.351181
0.377897
0.405999
0.435446
0.466182
0.498134
0.531212
0.565304
0.600279
0.635988
0.672257
0.708893
0.745683
0.782393
0.818773
0.854556
0.889462
0.923204
0.955487
0.986014
1.01449
1.04064
1.06419
1.08489
1.10251
1.11685
1.12776
1.1351
1.1388
0.0999091
0.10098
0.103126
0.106357
0.110689
0.116142
0.12274
0.13051
0.139485
0.1497
0.161192
0.174002
0.188169
0.203736
0.220743
0.239228
0.259227
0.280774
0.303893
0.328605
0.354921
0.38284
0.412353
0.443434
0.476042
0.510121
0.545593
0.582363
0.62031
0.659294
0.699149
0.739685
0.780687
0.821917
0.863113
0.903992
0.944252
0.983576
1.02163
1.05809
1.09259
1.12482
1.15444
1.18113
1.20461
1.22461
1.24091
1.2533
1.26165
1.26584
0.106297
0.107457
0.109781
0.113283
0.117978
0.12389
0.131045
0.139475
0.149218
0.160312
0.172801
0.186731
0.202149
0.219103
0.237641
0.257808
0.279649
0.303202
0.328501
0.355573
0.384434
0.415091
0.447538
0.481753
0.517696
0.555312
0.59452
0.635219
0.677284
0.72056
0.764869
0.810002
0.855723
0.901765
0.947837
0.993622
1.03878
1.08294
1.12574
1.16679
1.2057
1.24207
1.27553
1.30572
1.3323
1.35495
1.37342
1.38747
1.39694
1.4017
0.112445
0.113695
0.116201
0.119975
0.125038
0.131414
0.139134
0.148235
0.158757
0.170746
0.184251
0.199324
0.216021
0.234396
0.254506
0.276404
0.300143
0.325771
0.35333
0.382854
0.414368
0.447886
0.483408
0.520917
0.560377
0.601733
0.644905
0.689787
0.736247
0.784123
0.833219
0.883309
0.934133
0.985398
1.03678
1.08792
1.13844
1.18792
1.23595
1.28207
1.32585
1.36682
1.40456
1.43864
1.46867
1.49429
1.51519
1.5311
1.54183
1.54722
0.118331
0.119671
0.122359
0.126408
0.131842
0.138686
0.146977
0.156755
0.168066
0.180962
0.195499
0.211736
0.229736
0.249564
0.271282
0.294957
0.320649
0.348417
0.378312
0.410379
0.444653
0.481156
0.519895
0.560861
0.604025
0.649333
0.696707
0.746039
0.797192
0.849993
0.904234
0.959671
1.01602
1.07296
1.13012
1.18712
1.24352
1.29886
1.35265
1.40439
1.45357
1.49967
1.54218
1.58061
1.61451
1.64346
1.66709
1.68509
1.69723
1.70333
0.123928
0.125359
0.128229
0.132554
0.138359
0.145674
0.154539
0.164998
0.177105
0.190917
0.206498
0.223914
0.243238
0.264543
0.287904
0.313396
0.34109
0.371058
0.403363
0.43806
0.475196
0.514805
0.556904
0.601493
0.64855
0.698027
0.74985
0.803911
0.860068
0.918141
0.977911
1.03911
1.10144
1.16454
1.22802
1.29143
1.35429
1.41608
1.47625
1.53422
1.58941
1.64122
1.68906
1.73238
1.77062
1.80331
1.83002
1.85037
1.86411
1.87102
0.129209
0.130731
0.133783
0.138383
0.144558
0.152344
0.161782
0.172925
0.18583
0.200562
0.217193
0.235799
0.256462
0.279264
0.304293
0.331635
0.361376
0.393597
0.428378
0.465786
0.505883
0.548715
0.594312
0.642687
0.693827
0.747694
0.804218
0.863295
0.924783
0.988495
1.0542
1.12162
1.19042
1.26022
1.33058
1.40101
1.47097
1.53988
1.60711
1.67201
1.7339
1.7921
1.84592
1.89472
1.93786
1.97477
2.00495
2.02798
2.04352
2.05135
0.134145
0.135757
0.138989
0.143862
0.150406
0.158658
0.168667
0.18049
0.19419
0.209842
0.227525
0.247325
0.269333
0.293646
0.320361
0.349579
0.381399
0.415919
0.453233
0.493425
0.536571
0.582736
0.631964
0.684283
0.739694
0.79817
0.859652
0.92404
0.991196
1.06093
1.133
1.20712
1.28292
1.36
1.43787
1.51599
1.59376
1.67054
1.7456
1.8182
1.88758
1.95293
2.01348
2.06846
2.11713
2.15882
2.19295
2.21901
2.2366
2.24546
0.138707
0.140407
0.143817
0.148958
0.155864
0.164577
0.175149
0.187644
0.202133
0.218698
0.237427
0.258416
0.281769
0.307595
0.336005
0.367114
0.401037
0.43789
0.477782
0.520819
0.567094
0.616689
0.669671
0.726083
0.785946
0.849247
0.915941
0.985939
1.05911
1.13526
1.21415
1.29547
1.37884
1.46382
1.54988
1.63643
1.72281
1.80828
1.89203
1.97323
2.05098
2.12437
2.1925
2.25446
2.3094
2.35653
2.39514
2.42465
2.44459
2.45464
0.142864
0.14465
0.148232
0.153635
0.160895
0.170058
0.181182
0.194336
0.2096
0.227063
0.246824
0.268991
0.293679
0.32101
0.351111
0.384114
0.420151
0.459356
0.501859
0.547786
0.597252
0.650363
0.707206
0.767849
0.832333
0.900666
0.972821
1.04873
1.12826
1.21123
1.2974
1.38646
1.478
1.57155
1.66655
1.76235
1.8582
1.95328
2.0467
2.13749
2.22464
2.30708
2.38377
2.45364
2.51571
2.56903
2.61277
2.64623
2.66885
2.68026
0.146583
0.148451
0.1522
0.157856
0.165458
0.175057
0.186715
0.20051
0.216528
0.234868
0.255639
0.278961
0.304962
0.333779
0.365555
0.40044
0.438585
0.480146
0.525273
0.574118
0.626821
0.683512
0.744307
0.809299
0.878557
0.952115
1.02997
1.11207
1.19831
1.28852
1.38246
1.47981
1.58015
1.683
1.78773
1.89365
1.99993
2.10567
2.20985
2.31137
2.40906
2.50172
2.5881
2.66698
2.73717
2.79757
2.84719
2.88519
2.9109
2.92387
0.14983
0.151778
0.155686
0.161583
0.169512
0.179527
0.191698
0.206108
0.222852
0.242037
0.263786
0.288229
0.315509
0.345778
0.379198
0.415936
0.456167
0.500066
0.547812
0.599581
0.655542
0.715856
0.780668
0.850106
0.924269
1.00322
1.087
1.17557
1.26886
1.36671
1.46891
1.57512
1.68494
1.79784
1.91317
2.03017
2.14795
2.26549
2.38164
2.49518
2.60475
2.70895
2.80635
2.8955
2.97499
3.04353
3.09991
3.14314
3.17243
3.1872
0.152572
0.154594
0.158651
0.164776
0.173012
0.18342
0.196076
0.211068
0.228501
0.248493
0.271175
0.296693
0.325204
0.356877
0.391891
0.430436
0.472707
0.518907
0.569241
0.623914
0.683128
0.747078
0.815945
0.889894
0.969064
1.05356
1.14345
1.23875
1.33941
1.44531
1.55624
1.67191
1.79189
1.91564
2.04249
2.17162
2.30205
2.43267
2.56218
2.68919
2.81216
2.92945
3.0394
3.1403
3.23048
3.30839
3.3726
3.4219
3.45532
3.4722
0.154775
0.156866
0.161061
0.167394
0.175915
0.186687
0.199793
0.215328
0.233405
0.254152
0.277713
0.304246
0.333925
0.366935
0.403476
0.443759
0.488004
0.53644
0.589303
0.646831
0.709261
0.776826
0.84975
0.92824
1.01248
1.10263
1.19879
1.30104
1.40936
1.52368
1.64384
1.76954
1.90039
2.03584
2.17519
2.31757
2.46193
2.60703
2.75145
2.89359
3.03169
3.16387
3.28815
3.40255
3.50506
3.59383
3.66712
3.72348
3.76174
3.78107
0.156405
0.158557
0.162876
0.169399
0.178176
0.189279
0.202793
0.218822
0.237488
0.25893
0.283302
0.310777
0.341543
0.375806
0.413785
0.455714
0.50184
0.55242
0.607723
0.668021
0.733593
0.804713
0.881653
0.964669
1.054
1.14986
1.25241
1.36178
1.47802
1.60112
1.73094
1.86726
2.00969
2.1577
2.31058
2.46742
2.62709
2.78824
2.9493
3.10845
3.26368
3.41282
3.55355
3.68349
3.80029
3.90169
3.98559
4.05022
4.09414
4.11636
0.157429
0.159634
0.164062
0.170749
0.179752
0.191145
0.205019
0.221487
0.240677
0.26274
0.287842
0.316169
0.347927
0.383338
0.422644
0.466102
0.513987
0.566587
0.624204
0.687152
0.755748
0.830318
0.911183
0.998658
1.09304
1.19461
1.30361
1.42023
1.5446
1.67676
1.81667
1.96414
2.11886
2.28031
2.44779
2.62037
2.79685
2.97578
3.1554
3.3337
3.50837
3.67688
3.83652
3.98447
4.11789
4.23405
4.33041
4.40477
4.45538
4.481
0.157815
0.160064
0.164582
0.171408
0.1806
0.192237
0.206416
0.223257
0.242898
0.265496
0.291233
0.320307
0.35294
0.389375
0.429872
0.474716
0.524208
0.578669
0.638439
0.703869
0.775328
0.853189
0.937833
1.02964
1.12898
1.2362
1.35162
1.47554
1.60815
1.74962
1.89996
2.0591
2.22677
2.40253
2.58571
2.77537
2.97027
3.16886
3.36922
3.56908
3.76583
3.95653
4.138
4.30687
4.45974
4.59325
4.70432
4.79022
4.84877
4.87843
0.157532
0.159816
0.164404
0.171337
0.180677
0.192507
0.20693
0.224071
0.244076
0.267114
0.293376
0.323075
0.35645
0.39376
0.435289
0.481346
0.53226
0.588388
0.650104
0.717807
0.79191
0.872847
0.961059
1.057
1.16111
1.27383
1.39558
1.52675
1.66766
1.81856
1.97961
2.15082
2.33207
2.52298
2.72295
2.93108
3.14612
3.36642
3.58991
3.81408
4.03596
4.25215
4.45891
4.6522
4.82791
4.98194
5.11048
5.21013
5.27818
5.3127
0.156552
0.15886
0.163496
0.170503
0.179947
0.191913
0.206509
0.223868
0.244142
0.26751
0.294174
0.324361
0.358323
0.396339
0.438714
0.48578
0.5379
0.595459
0.658873
0.728584
0.805061
0.888792
0.980289
1.08008
1.1887
1.30668
1.43455
1.57282
1.72193
1.8823
2.0542
2.23782
2.43316
2.63998
2.85781
3.08582
3.32278
3.567
3.81628
4.06786
4.31837
4.56391
4.80005
5.02199
5.2247
5.40315
5.55258
5.66876
5.74824
5.78861
0.154852
0.157171
0.161831
0.168875
0.178373
0.190412
0.205106
0.222592
0.243031
0.266608
0.293536
0.324055
0.358431
0.39696
0.439969
0.487813
0.540883
0.599598
0.664415
0.73582
0.814334
0.90051
0.994931
1.09821
1.21096
1.33385
1.46751
1.6126
1.7697
1.9394
2.12216
2.31835
2.52816
2.75156
2.98823
3.23749
3.4982
3.76869
4.04666
4.32911
4.61228
4.89169
5.16213
5.41783
5.65263
5.86032
6.03492
6.1711
6.26448
6.31196
0.15241
0.154728
0.159384
0.166427
0.175925
0.18797
0.202679
0.220194
0.240681
0.264335
0.291377
0.322056
0.356654
0.395482
0.438886
0.487245
0.540975
0.600531
0.666405
0.739132
0.819285
0.907482
1.00438
1.11067
1.22709
1.35441
1.49339
1.64485
1.80956
1.98828
2.18171
2.39044
2.61492
2.85537
3.11172
3.38351
3.66979
3.96899
4.27877
4.59595
4.91641
5.23499
5.5456
5.84127
6.11447
6.35742
6.56259
6.72316
6.83355
6.88977
0.14921
0.151512
0.156138
0.163136
0.172578
0.184556
0.199191
0.216629
0.237042
0.260629
0.28762
0.318273
0.352883
0.391773
0.435308
0.483888
0.537954
0.597992
0.664532
0.738151
0.819478
0.909192
1.00803
1.11677
1.23626
1.36738
1.51106
1.66827
1.83999
2.02721
2.23087
2.45187
2.69095
2.94867
3.22531
3.52074
3.83431
4.16466
4.50956
4.86574
5.22872
5.59269
5.9505
6.29378
6.61321
6.89902
7.14161
7.33221
7.4636
7.53063
0.145239
0.147512
0.152078
0.158988
0.168312
0.180147
0.194615
0.211864
0.23207
0.255437
0.2822
0.312628
0.347021
0.385718
0.429096
0.477574
0.531618
0.591739
0.658503
0.732528
0.814495
0.905146
1.00529
1.1158
1.23762
1.37178
1.51935
1.6815
1.85941
2.05434
2.26752
2.50017
2.75345
3.02832
3.32552
3.6454
3.98774
4.3516
4.73501
5.13479
5.5462
5.9628
6.37628
6.77655
7.15206
7.49041
7.77922
8.00711
8.16466
8.24518
0.140494
0.142721
0.147197
0.153971
0.163115
0.174727
0.188929
0.205871
0.225731
0.248717
0.275068
0.305056
0.33899
0.377219
0.42013
0.468158
0.521788
0.581555
0.648055
0.721946
0.803953
0.894877
0.995597
1.10708
1.23038
1.36664
1.51712
1.68315
1.86618
2.06772
2.28935
2.53268
2.79932
3.09076
3.40832
3.75298
4.12519
4.52462
4.94988
5.39808
5.86448
6.34212
6.82144
7.29033
7.73437
8.13769
8.48414
8.75877
8.94922
9.04671
0.134974
0.13714
0.141494
0.148084
0.156984
0.16829
0.182124
0.198637
0.218007
0.240443
0.266186
0.295512
0.328732
0.366201
0.408316
0.455522
0.508318
0.56726
0.632966
0.706128
0.787512
0.87797
0.978448
1.08999
1.21376
1.35104
1.50322
1.67186
1.85863
2.06535
2.29397
2.54654
2.82517
3.13201
3.46909
3.83821
4.24073
4.67728
5.14736
5.64882
6.17731
6.7256
7.28297
7.83495
8.36349
8.84797
9.26704
9.60082
9.83296
9.95197
0.128687
0.130775
0.134975
0.141334
0.149923
0.160838
0.1742
0.190159
0.208891
0.230604
0.255538
0.283969
0.316211
0.352618
0.393592
0.439584
0.491102
0.548715
0.61306
0.684852
0.764891
0.854072
0.953397
1.06399
1.18709
1.32412
1.47661
1.64632
1.83517
2.04527
2.27896
2.53877
2.82742
3.14774
3.50266
3.89502
4.32735
4.80164
5.31878
5.87797
6.47587
7.10559
7.75558
8.40877
9.04248
9.62954
10.1411
10.5504
10.8358
10.9822
0.121647
0.123642
0.127656
0.133733
0.141945
0.152384
0.165169
0.180447
0.198391
0.219205
0.243126
0.270427
0.301417
0.336451
0.375928
0.420299
0.470077
0.525834
0.588219
0.657962
0.735884
0.822914
0.920096
1.02861
1.14979
1.28513
1.43635
1.60534
1.79427
2.00556
2.24193
2.50641
2.80235
3.13338
3.50343
3.91657
4.37688
4.88811
5.4532
6.07355
6.74786
7.47065
8.23038
9.00756
9.77365
10.4922
11.1231
11.6297
11.9832
12.1646
0.113877
0.115763
0.119558
0.125306
0.133074
0.142952
0.155055
0.169526
0.186531
0.20627
0.228973
0.254905
0.28437
0.317714
0.355332
0.397668
0.44523
0.498588
0.558392
0.625376
0.700372
0.784324
0.878306
0.983538
1.10141
1.23351
1.38165
1.5479
1.73461
1.94451
2.18066
2.44659
2.74629
3.08423
3.46545
3.89543
4.38006
4.92538
5.53715
6.22004
6.97632
7.8038
8.69283
9.62257
10.5576
11.4476
12.2347
12.8673
13.308
13.5337
0.105406
0.107168
0.110713
0.116083
0.123342
0.132576
0.143896
0.157434
0.173353
0.191843
0.213124
0.237452
0.265118
0.296458
0.331854
0.371738
0.416604
0.467013
0.523604
0.587101
0.658334
0.738247
0.827922
0.928598
1.0417
1.16886
1.31198
1.47323
1.65516
1.86069
2.09323
2.35674
2.65582
2.99578
3.38276
3.82379
4.32681
4.90057
5.55443
6.29767
7.13819
8.08009
9.11933
10.2371
11.3914
12.511
13.5057
14.3018
14.8528
15.1334
0.0962724
0.0978954
0.10116
0.106107
0.112794
0.121304
0.13174
0.144226
0.158916
0.175987
0.195649
0.218141
0.243743
0.27277
0.305586
0.342606
0.384302
0.431214
0.483958
0.543239
0.609863
0.684759
0.768993
0.863796
0.970593
1.09104
1.22706
1.3809
1.55521
1.75308
1.97815
2.23476
2.528
2.86395
3.24979
3.69403
4.20674
4.79969
5.48645
6.28221
7.20296
8.26334
9.47166
10.8197
12.2642
13.7038
14.9797
15.9862
16.6724
17.0184
0.0865212
0.0879906
0.0909466
0.095426
0.101483
0.109193
0.11865
0.12997
0.143294
0.158786
0.176639
0.197076
0.220356
0.246773
0.276666
0.310424
0.348488
0.391368
0.439646
0.49399
0.555171
0.624075
0.701732
0.789335
0.888275
1.00018
1.12695
1.27085
1.43454
1.62119
1.83459
2.07928
2.36073
2.68556
3.06181
3.49931
4.01002
4.60866
5.31321
6.14556
7.13198
8.3026
9.6883
11.3097
13.1462
15.0645
16.7272
17.9951
18.8363
19.2536
0.0762046
0.0775074
0.0801284
0.0841004
0.0894723
0.0963111
0.104702
0.114749
0.12658
0.140342
0.15621
0.174386
0.195103
0.21863
0.245276
0.275393
0.309388
0.347727
0.390946
0.439663
0.494593
0.556563
0.626535
0.705634
0.795178
0.896717
1.01209
1.14346
1.29346
1.4652
1.66246
1.88985
2.15296
2.45872
2.81567
3.2345
3.72861
4.31502
5.01551
5.85828
6.88027
8.13032
9.67285
11.5882
13.95
16.6846
18.873
20.4346
21.428
21.9099
0.0653821
0.0665066
0.0687688
0.0721969
0.0768336
0.0827372
0.0899821
0.0986601
0.108881
0.120777
0.134498
0.150224
0.168159
0.18854
0.21164
0.23777
0.26729
0.300616
0.338226
0.380671
0.428593
0.482738
0.543978
0.613333
0.692007
0.781427
0.883288
0.99962
1.13287
1.286
1.46261
1.66715
1.9051
2.1833
2.51035
2.89716
3.35772
3.91018
4.57848
5.39479
6.40354
7.66866
9.28771
11.4235
14.3841
18.8541
21.649
23.4454
24.5344
25.0513
0.0541191
0.0550551
0.0569381
0.0597905
0.0636482
0.0685602
0.0745892
0.0818124
0.0903226
0.10023
0.111663
0.124772
0.139729
0.156736
0.176024
0.197856
0.222541
0.250431
0.281935
0.317526
0.357757
0.403269
0.454818
0.513291
0.579738
0.655408
0.741799
0.840708
0.954317
1.08529
1.23689
1.41317
1.61918
1.86128
2.14758
2.48844
2.89734
3.39198
3.99598
4.74143
5.67308
6.85572
8.38852
10.4367
13.3116
17.7016
20.4264
22.1663
23.2159
23.7125
0.0424863
0.0432254
0.0447127
0.0469627
0.0500043
0.0538769
0.0586306
0.0643268
0.0710395
0.0788563
0.0878798
0.0982294
0.110044
0.123483
0.138731
0.156001
0.17554
0.19763
0.222602
0.250838
0.282784
0.318962
0.359985
0.406579
0.459603
0.520086
0.589262
0.668623
0.759988
0.865588
0.988178
1.13119
1.29895
1.49693
1.73214
2.01363
2.35322
2.76648
3.27412
3.90398
4.69379
5.69483
6.97618
8.62544
10.7261
13.2167
15.1908
16.58
17.4527
17.8725
0.0305592
0.0310929
0.0321727
0.0337985
0.0359941
0.0387889
0.0422197
0.0463311
0.051177
0.0568211
0.063338
0.0708148
0.0793522
0.0890669
0.100094
0.112588
0.12673
0.142727
0.160821
0.181294
0.204472
0.230742
0.260557
0.294453
0.33307
0.377173
0.427684
0.485723
0.552658
0.630174
0.720362
0.82584
0.949915
1.0968
1.2719
1.48225
1.73699
2.04817
2.43165
2.90825
3.50494
4.25534
5.19764
6.36452
7.7526
9.24993
10.5421
11.5118
12.1442
12.4542
0.0184177
0.0187305
0.0193842
0.0203672
0.0216938
0.0233821
0.0254545
0.0279382
0.030866
0.0342764
0.0382149
0.0427343
0.0478959
0.0537706
0.0604405
0.0680004
0.0765597
0.0862455
0.0972054
0.109611
0.123664
0.139599
0.157695
0.178282
0.201754
0.228583
0.25934
0.294717
0.335565
0.382934
0.438129
0.50279
0.578995
0.669396
0.777409
0.907467
1.06535
1.25862
1.49713
1.79352
2.16348
2.62508
3.19567
3.88357
4.67098
5.48949
6.21711
6.78203
7.15948
7.34693
0.00615184
0.00625029
0.0064672
0.00679568
0.00723926
0.0078038
0.00849676
0.00932728
0.0103063
0.0114468
0.0127641
0.0142757
0.0160024
0.0179678
0.0201996
0.0227296
0.0255946
0.0288372
0.0325072
0.0366623
0.0413701
0.0467103
0.0527765
0.0596802
0.0675543
0.0765586
0.0868859
0.0987712
0.112503
0.128437
0.147018
0.168805
0.194506
0.225025
0.261532
0.305539
0.359022
0.424553
0.505457
0.60595
0.731133
0.8866
1.07715
1.30388
1.55904
1.82075
2.05561
2.24055
2.36553
2.42801
)
;

boundaryField
{
    walls
    {
        type            calculated;
        value           nonuniform List<scalar> 
200
(
0
0
0
0
0
0
0
0
0
0
0
0
0
0
0
0
0
0
0
0
0
0
0
0
0
0
0
0
0
0
0
0
0
0
0
0
0
0
0
0
0
0
0
0
0
0
0
0
0
0
0.00391437
0.0117281
0.0195211
0.0272883
0.0350084
0.0426676
0.0502518
0.0577461
0.0651352
0.0724031
0.0795327
0.0865064
0.0933052
0.0999091
0.106297
0.112445
0.118331
0.123928
0.129209
0.134145
0.138707
0.142864
0.146583
0.14983
0.152572
0.154775
0.156405
0.157429
0.157815
0.157532
0.156552
0.154852
0.15241
0.14921
0.145239
0.140494
0.134974
0.128687
0.121647
0.113877
0.105406
0.0962724
0.0865212
0.0762046
0.0653821
0.0541191
0.0424863
0.0305592
0.0184177
0.00615184
0.0378766
0.113908
0.190793
0.269115
0.349456
0.432408
0.518571
0.60856
0.703008
0.802566
0.907909
1.01974
1.1388
1.26584
1.4017
1.54722
1.70333
1.87102
2.05135
2.24546
2.45464
2.68026
2.92387
3.1872
3.4722
3.78107
4.11636
4.481
4.87843
5.3127
5.78861
6.31196
6.88977
7.53063
8.24518
9.04671
9.95197
10.9822
12.1646
13.5337
15.1334
17.0184
19.2536
21.9099
25.0513
23.7125
17.8725
12.4542
7.34693
2.42801
0
0
0
0
0
0
0
0
0
0
0
0
0
0
0
0
0
0
0
0
0
0
0
0
0
0
0
0
0
0
0
0
0
0
0
0
0
0
0
0
0
0
0
0
0
0
0
0
0
0
)
;
    }
    frontAndBack
    {
        type            empty;
    }
}


// ************************************************************************* //
