/*--------------------------------*- C++ -*----------------------------------*\
| =========                 |                                                 |
| \\      /  F ield         | OpenFOAM: The Open Source CFD Toolbox           |
|  \\    /   O peration     | Version:  2406                                  |
|   \\  /    A nd           | Website:  www.openfoam.com                      |
|    \\/     M anipulation  |                                                 |
\*---------------------------------------------------------------------------*/
FoamFile
{
    version     2.0;
    format      ascii;
    arch        "LSB;label=32;scalar=64";
    class       volScalarField;
    location    "1.3";
    object      T;
}
// * * * * * * * * * * * * * * * * * * * * * * * * * * * * * * * * * * * * * //

dimensions      [0 0 0 1 0 0 0];

internalField   nonuniform List<scalar> 
2500
(
0.204009
0.204166
0.204479
0.204947
0.20557
0.206347
0.207277
0.208357
0.209587
0.210963
0.212483
0.214144
0.215943
0.217876
0.219939
0.222128
0.224437
0.226861
0.229394
0.23203
0.23476
0.237578
0.240475
0.243441
0.246468
0.249544
0.252659
0.2558
0.258956
0.262113
0.265257
0.268375
0.271451
0.274471
0.27742
0.280281
0.28304
0.28568
0.288187
0.290546
0.292742
0.294762
0.296593
0.298223
0.299641
0.300838
0.301806
0.302538
0.303028
0.303274
0.204166
0.204324
0.20464
0.205112
0.205741
0.206526
0.207464
0.208555
0.209797
0.211187
0.212722
0.2144
0.216218
0.218172
0.220257
0.22247
0.224805
0.227257
0.22982
0.232486
0.23525
0.238103
0.241036
0.244041
0.247107
0.250224
0.253382
0.256567
0.259767
0.262969
0.26616
0.269324
0.272447
0.275513
0.278507
0.281413
0.284216
0.286899
0.289447
0.291845
0.294077
0.296131
0.297993
0.299651
0.301094
0.302311
0.303296
0.30404
0.304539
0.304789
0.204479
0.20464
0.204961
0.205442
0.206083
0.206883
0.207839
0.208951
0.210217
0.211634
0.213201
0.214913
0.216769
0.218763
0.220894
0.223155
0.225542
0.228049
0.230671
0.2334
0.23623
0.239153
0.24216
0.245241
0.248387
0.251587
0.254829
0.258102
0.261392
0.264685
0.267968
0.271225
0.274441
0.277601
0.280687
0.283684
0.286575
0.289343
0.291974
0.29445
0.296756
0.298878
0.300802
0.302516
0.304008
0.305267
0.306285
0.307055
0.307572
0.307831
0.204947
0.205112
0.205442
0.205937
0.206596
0.207418
0.208401
0.209545
0.210847
0.212306
0.213919
0.215683
0.217595
0.219651
0.221849
0.224183
0.226648
0.229239
0.23195
0.234774
0.237705
0.240733
0.24385
0.247047
0.250313
0.253638
0.257009
0.260414
0.263839
0.26727
0.270693
0.27409
0.277448
0.280747
0.283973
0.287107
0.290132
0.29303
0.295785
0.29838
0.300797
0.303023
0.305042
0.30684
0.308406
0.309728
0.310797
0.311606
0.312149
0.312421
0.20557
0.205741
0.206083
0.206596
0.207279
0.20813
0.20915
0.210336
0.211687
0.213201
0.214876
0.216709
0.218697
0.220837
0.223125
0.225556
0.228126
0.23083
0.233661
0.236612
0.239677
0.242847
0.246113
0.249465
0.252893
0.256385
0.25993
0.263513
0.26712
0.270737
0.274347
0.277934
0.281482
0.284971
0.288385
0.291704
0.294909
0.297983
0.300906
0.303661
0.306229
0.308595
0.310741
0.312654
0.31432
0.315727
0.316866
0.317728
0.318306
0.318595
0.206347
0.206526
0.206883
0.207418
0.20813
0.20902
0.210085
0.211324
0.212737
0.214321
0.216073
0.217993
0.220077
0.222321
0.224722
0.227277
0.229979
0.232824
0.235806
0.238918
0.242152
0.245501
0.248955
0.252503
0.256136
0.25984
0.263603
0.267411
0.271249
0.275101
0.278949
0.282777
0.286566
0.290296
0.293948
0.297502
0.300937
0.304233
0.307371
0.310329
0.313089
0.315632
0.317941
0.32
0.321793
0.323309
0.324536
0.325464
0.326087
0.326399
0.207277
0.207464
0.207839
0.208401
0.20915
0.210085
0.211205
0.212508
0.213995
0.215663
0.217511
0.219535
0.221734
0.224105
0.226644
0.229347
0.232209
0.235226
0.238391
0.241697
0.245138
0.248703
0.252385
0.256172
0.260053
0.264015
0.268044
0.272127
0.276245
0.280383
0.284522
0.288644
0.292727
0.296751
0.300694
0.304535
0.308252
0.31182
0.31522
0.318427
0.321422
0.324183
0.326691
0.328929
0.330879
0.332528
0.333863
0.334873
0.335552
0.335892
0.208357
0.208555
0.208951
0.209545
0.210336
0.211324
0.212508
0.213888
0.215462
0.217229
0.219188
0.221336
0.223671
0.22619
0.228891
0.231769
0.234821
0.23804
0.241421
0.244957
0.24864
0.252462
0.256414
0.260483
0.264658
0.268926
0.273271
0.277678
0.28213
0.286609
0.291093
0.295563
0.299997
0.304371
0.308662
0.312846
0.316897
0.320791
0.324503
0.328009
0.331284
0.334306
0.337053
0.339505
0.341643
0.343452
0.344916
0.346025
0.346769
0.347142
0.209587
0.209797
0.210217
0.210847
0.211687
0.212737
0.213995
0.215462
0.217137
0.219018
0.221105
0.223395
0.225887
0.228579
0.231466
0.234547
0.237817
0.24127
0.244901
0.248703
0.252669
0.256788
0.261053
0.26545
0.269967
0.27459
0.279303
0.284089
0.28893
0.293805
0.298693
0.303571
0.308414
0.313198
0.317896
0.322481
0.326925
0.331201
0.335281
0.339137
0.342742
0.346071
0.349099
0.351803
0.354162
0.356158
0.357775
0.358999
0.359822
0.360234
0.210963
0.211187
0.211634
0.212306
0.213201
0.214321
0.215663
0.217229
0.219018
0.221029
0.223261
0.225713
0.228384
0.231271
0.234372
0.237683
0.241202
0.244922
0.248838
0.252944
0.257232
0.261692
0.266315
0.271087
0.275996
0.281027
0.286162
0.291384
0.296672
0.302004
0.307356
0.312704
0.318021
0.323278
0.328446
0.333495
0.338395
0.343113
0.347619
0.351881
0.355869
0.359555
0.362909
0.365906
0.368523
0.370737
0.372532
0.373891
0.374805
0.375263
0.212483
0.212722
0.213201
0.213919
0.214876
0.216073
0.217511
0.219188
0.221105
0.223261
0.225657
0.228291
0.231162
0.234269
0.23761
0.241181
0.24498
0.249001
0.25324
0.257689
0.262341
0.267186
0.272214
0.277411
0.282765
0.288258
0.293874
0.299591
0.305387
0.31124
0.317122
0.323007
0.328864
0.334662
0.340369
0.34595
0.351371
0.356597
0.361593
0.366322
0.370752
0.374847
0.378578
0.381913
0.384826
0.387293
0.389293
0.390808
0.391826
0.392337
0.214144
0.2144
0.214913
0.215683
0.216709
0.217993
0.219535
0.221336
0.223395
0.225713
0.228291
0.231127
0.234222
0.237574
0.241182
0.245043
0.249155
0.253513
0.258112
0.262945
0.268005
0.273281
0.278764
0.28444
0.290293
0.296308
0.302463
0.308739
0.31511
0.321551
0.328033
0.334525
0.340995
0.347408
0.353726
0.359913
0.365928
0.371733
0.377287
0.38255
0.387483
0.392048
0.396209
0.399931
0.403184
0.40594
0.408175
0.40987
0.411008
0.411579
0.215943
0.216218
0.216769
0.217595
0.218697
0.220077
0.221734
0.223671
0.225887
0.228384
0.231162
0.234222
0.237564
0.241187
0.24509
0.249273
0.253731
0.258462
0.263461
0.268721
0.274234
0.279992
0.285981
0.29219
0.298602
0.305198
0.311959
0.31886
0.325876
0.332977
0.340134
0.34731
0.354471
0.361577
0.368586
0.375457
0.382146
0.388607
0.394794
0.400663
0.406169
0.411268
0.415919
0.420082
0.423723
0.426809
0.429312
0.43121
0.432486
0.433126
0.217876
0.218172
0.218763
0.219651
0.220837
0.222321
0.224105
0.22619
0.228579
0.231271
0.234269
0.237574
0.241187
0.245108
0.249336
0.253872
0.258712
0.263854
0.269294
0.275025
0.28104
0.287329
0.29388
0.30068
0.307711
0.314955
0.322389
0.329987
0.337722
0.345562
0.353473
0.361416
0.369351
0.377235
0.385022
0.392664
0.400111
0.407312
0.414215
0.42077
0.426924
0.432628
0.437835
0.442499
0.44658
0.450041
0.452849
0.45498
0.456412
0.457131
0.219939
0.220257
0.220894
0.221849
0.223125
0.224722
0.226644
0.228891
0.231466
0.234372
0.23761
0.241182
0.24509
0.249336
0.25392
0.258842
0.2641
0.269693
0.275617
0.281865
0.288431
0.295305
0.302475
0.309927
0.317643
0.325603
0.333782
0.342154
0.350688
0.359349
0.3681
0.376898
0.385698
0.394453
0.403111
0.411617
0.419916
0.42795
0.43566
0.442987
0.449873
0.456261
0.462096
0.467328
0.471907
0.475793
0.478948
0.481342
0.482952
0.48376
0.222128
0.22247
0.223155
0.224183
0.225556
0.227277
0.229347
0.231769
0.234547
0.237683
0.241181
0.245043
0.249273
0.253872
0.258842
0.264184
0.269898
0.275982
0.282434
0.289248
0.296417
0.303932
0.311782
0.31995
0.328419
0.337167
0.346169
0.355396
0.364813
0.374385
0.384067
0.393816
0.40358
0.413306
0.422935
0.432409
0.441662
0.450629
0.459245
0.467441
0.475152
0.482311
0.488856
0.494728
0.499872
0.504239
0.507786
0.510479
0.51229
0.513199
0.224437
0.224805
0.225542
0.226648
0.228126
0.229979
0.232209
0.234821
0.237817
0.241202
0.24498
0.249155
0.253731
0.258712
0.2641
0.269898
0.276106
0.282724
0.28975
0.297179
0.305006
0.313221
0.321812
0.330764
0.340058
0.349672
0.359579
0.369746
0.380138
0.390714
0.401428
0.41223
0.423064
0.433869
0.444582
0.455134
0.465453
0.475467
0.485098
0.49427
0.502907
0.510934
0.518279
0.524873
0.530654
0.535565
0.539556
0.542587
0.544625
0.545649
0.226861
0.227257
0.228049
0.229239
0.23083
0.232824
0.235226
0.23804
0.24127
0.244922
0.249001
0.253513
0.258462
0.263854
0.269693
0.275982
0.282724
0.289919
0.297566
0.305663
0.314203
0.323179
0.332577
0.342384
0.35258
0.363141
0.374038
0.385237
0.396701
0.408384
0.420237
0.432203
0.444221
0.456224
0.46814
0.479893
0.491402
0.502584
0.513351
0.523617
0.533295
0.542298
0.550543
0.557952
0.564452
0.569977
0.574469
0.577882
0.580179
0.581332
0.229394
0.22982
0.230671
0.23195
0.233661
0.235806
0.238391
0.241421
0.244901
0.248838
0.25324
0.258112
0.263461
0.269294
0.275617
0.282434
0.28975
0.297566
0.305884
0.314701
0.324014
0.333813
0.344088
0.354824
0.366
0.377593
0.389573
0.401902
0.414541
0.42744
0.440545
0.453795
0.467122
0.480451
0.493703
0.506791
0.519625
0.53211
0.544147
0.555638
0.566483
0.576583
0.585841
0.594168
0.601479
0.607697
0.612757
0.616602
0.619189
0.62049
0.23203
0.232486
0.2334
0.234774
0.236612
0.238918
0.241697
0.244957
0.248703
0.252944
0.257689
0.262945
0.268721
0.275025
0.281865
0.289248
0.297179
0.305663
0.314701
0.324294
0.334438
0.345127
0.35635
0.368092
0.380333
0.393048
0.406206
0.419769
0.433692
0.447924
0.462405
0.477067
0.491838
0.506633
0.521364
0.535934
0.550241
0.564179
0.577635
0.590497
0.60265
0.613981
0.62438
0.633741
0.641967
0.648968
0.654668
0.659001
0.661919
0.663386
0.23476
0.23525
0.23623
0.237705
0.239677
0.242152
0.245138
0.24864
0.252669
0.257232
0.262341
0.268005
0.274234
0.28104
0.288431
0.296417
0.305006
0.314203
0.324014
0.334438
0.345476
0.357122
0.369367
0.382195
0.395588
0.40952
0.423959
0.438864
0.454189
0.469877
0.485865
0.502079
0.518438
0.534851
0.551217
0.567431
0.583376
0.598931
0.613971
0.628366
0.641986
0.6547
0.666381
0.676907
0.686164
0.69405
0.700475
0.705362
0.708653
0.710308
0.237578
0.238103
0.239153
0.240733
0.242847
0.245501
0.248703
0.252462
0.256788
0.261692
0.267186
0.273281
0.279992
0.287329
0.295305
0.303932
0.313221
0.323179
0.333813
0.345127
0.357122
0.369795
0.383137
0.397135
0.411771
0.427018
0.442844
0.459207
0.476057
0.493334
0.510971
0.528886
0.546991
0.565185
0.583359
0.601391
0.619154
0.63651
0.653317
0.669427
0.68469
0.698956
0.71208
0.723919
0.734343
0.743229
0.750473
0.755987
0.759703
0.761571
0.240475
0.241036
0.24216
0.24385
0.246113
0.248955
0.252385
0.256414
0.261053
0.266315
0.272214
0.278764
0.285981
0.29388
0.302475
0.311782
0.321812
0.332577
0.344088
0.35635
0.369367
0.383137
0.397655
0.412909
0.428881
0.445547
0.462871
0.480813
0.499319
0.518326
0.537761
0.557538
0.577558
0.597713
0.61788
0.637924
0.657703
0.677062
0.695839
0.713866
0.730972
0.746983
0.761731
0.775052
0.786793
0.796811
0.804985
0.811211
0.815408
0.817519
0.243441
0.244041
0.245241
0.247047
0.249465
0.252503
0.256172
0.260483
0.26545
0.271087
0.277411
0.28444
0.29219
0.30068
0.309927
0.31995
0.330764
0.342384
0.354824
0.368092
0.382195
0.397135
0.412909
0.429507
0.446913
0.465103
0.484043
0.50369
0.523989
0.544875
0.566269
0.588078
0.610197
0.632505
0.654868
0.677137
0.699151
0.720737
0.741711
0.761881
0.781052
0.799025
0.815604
0.830599
0.843829
0.855132
0.864361
0.871395
0.876139
0.878526
0.246468
0.247107
0.248387
0.250313
0.252893
0.256136
0.260053
0.264658
0.269967
0.275996
0.282765
0.290293
0.298602
0.307711
0.317643
0.328419
0.340058
0.35258
0.366
0.380333
0.395588
0.411771
0.428881
0.446913
0.465852
0.485676
0.506351
0.527836
0.550073
0.572995
0.596517
0.620543
0.644956
0.669626
0.694406
0.719131
0.743621
0.767682
0.791105
0.813673
0.835162
0.855341
0.873985
0.890872
0.905792
0.918553
0.928982
0.936937
0.942305
0.945007
0.249544
0.250224
0.251587
0.253638
0.256385
0.25984
0.264015
0.268926
0.27459
0.281027
0.288258
0.296308
0.305198
0.314955
0.325603
0.337167
0.349672
0.363141
0.377593
0.393048
0.40952
0.427018
0.445547
0.465103
0.485676
0.507245
0.529781
0.55324
0.577565
0.602687
0.628519
0.654955
0.681873
0.709131
0.736568
0.764002
0.791233
0.818043
0.844198
0.869449
0.893538
0.916203
0.93718
0.95621
0.973049
0.987467
0.999265
1.00827
1.01435
1.01741
0.252659
0.253382
0.254829
0.257009
0.25993
0.263603
0.268044
0.273271
0.279303
0.286162
0.293874
0.302463
0.311959
0.322389
0.333782
0.346169
0.359579
0.374038
0.389573
0.406206
0.423959
0.442844
0.462871
0.484043
0.506351
0.529781
0.554303
0.579877
0.606448
0.633942
0.662271
0.691324
0.720971
0.75106
0.781414
0.811834
0.842098
0.871963
0.901163
0.929417
0.956429
0.981896
1.00551
1.02697
1.04599
1.06231
1.07567
1.08588
1.09277
1.09625
0.2558
0.256567
0.258102
0.260414
0.263513
0.267411
0.272127
0.277678
0.284089
0.291384
0.299591
0.308739
0.31886
0.329987
0.342154
0.355396
0.369746
0.385237
0.401902
0.419769
0.438864
0.459207
0.480813
0.50369
0.527836
0.55324
0.579877
0.607711
0.636686
0.666732
0.697756
0.729645
0.76226
0.795439
0.828991
0.862699
0.896317
0.929573
0.96217
0.993787
1.02409
1.05272
1.07932
1.10355
1.12506
1.14353
1.15869
1.17028
1.17812
1.18207
0.258956
0.259767
0.261392
0.263839
0.26712
0.271249
0.276245
0.28213
0.28893
0.296672
0.305387
0.31511
0.325876
0.337722
0.350688
0.364813
0.380138
0.396701
0.414541
0.433692
0.454189
0.476057
0.499319
0.523989
0.550073
0.577565
0.606448
0.636686
0.668231
0.701013
0.734938
0.76989
0.805726
0.842272
0.879325
0.916649
0.953972
0.990994
1.02738
1.06276
1.09676
1.12897
1.15897
1.18635
1.21071
1.23167
1.24888
1.26207
1.27099
1.27549
0.262113
0.262969
0.264685
0.26727
0.270737
0.275101
0.280383
0.286609
0.293805
0.302004
0.31124
0.321551
0.332977
0.345562
0.359349
0.374385
0.390714
0.408384
0.42744
0.447924
0.469877
0.493334
0.518326
0.544875
0.572995
0.602687
0.633942
0.666732
0.701013
0.736717
0.773755
0.812009
0.851331
0.89154
0.932419
0.973713
1.01513
1.05633
1.09694
1.13655
1.17472
1.21098
1.24484
1.27583
1.30345
1.32726
1.34686
1.36189
1.37207
1.37721
0.265257
0.26616
0.267968
0.270693
0.274347
0.278949
0.284522
0.291093
0.298693
0.307356
0.317122
0.328033
0.340134
0.353473
0.3681
0.384067
0.401428
0.420237
0.440545
0.462405
0.485865
0.510971
0.537761
0.566269
0.596517
0.628519
0.662271
0.697756
0.734938
0.773755
0.814122
0.855923
0.899008
0.943191
0.988243
1.03389
1.07982
1.12565
1.17098
1.21533
1.2582
1.29906
1.33733
1.37244
1.40383
1.43095
1.4533
1.47047
1.48212
1.488
0.268375
0.269324
0.271225
0.27409
0.277934
0.282777
0.288644
0.295563
0.303571
0.312704
0.323007
0.334525
0.34731
0.361416
0.376898
0.393816
0.41223
0.432203
0.453795
0.477067
0.502079
0.528886
0.557538
0.588078
0.620543
0.654955
0.691324
0.729645
0.76989
0.812009
0.855923
0.901522
0.948657
0.997139
1.04673
1.09715
1.14804
1.19901
1.24959
1.29926
1.34745
1.39353
1.43684
1.4767
1.51244
1.54339
1.56896
1.58864
1.602
1.60875
0.271451
0.272447
0.274441
0.277448
0.281482
0.286566
0.292727
0.299997
0.308414
0.318021
0.328864
0.340995
0.354471
0.369351
0.385698
0.40358
0.423064
0.444221
0.467122
0.491838
0.518438
0.546991
0.577558
0.610197
0.644956
0.681873
0.720971
0.76226
0.805726
0.851331
0.899008
0.948657
1.00013
1.05325
1.10777
1.16339
1.21975
1.2764
1.33284
1.38849
1.44269
1.49472
1.54381
1.58915
1.62993
1.66536
1.6947
1.71732
1.7327
1.74048
0.274471
0.275513
0.277601
0.280747
0.284971
0.290296
0.296751
0.304371
0.313198
0.323278
0.334662
0.347408
0.361577
0.377235
0.394453
0.413306
0.433869
0.456224
0.480451
0.506633
0.534851
0.565185
0.597713
0.632505
0.669626
0.709131
0.75106
0.795439
0.842272
0.89154
0.943191
0.997139
1.05325
1.11135
1.1712
1.23249
1.29483
1.35777
1.42074
1.4831
1.54411
1.60293
1.65867
1.71036
1.75702
1.79769
1.83147
1.85757
1.87534
1.88434
0.27742
0.278507
0.280687
0.283973
0.288385
0.293948
0.300694
0.308662
0.317896
0.328446
0.340369
0.353726
0.368586
0.385022
0.403111
0.422935
0.444582
0.46814
0.493703
0.521364
0.551217
0.583359
0.61788
0.654868
0.694406
0.736568
0.781414
0.828991
0.879325
0.932419
0.988243
1.04673
1.10777
1.1712
1.23679
1.30422
1.37312
1.44298
1.51322
1.58312
1.65184
1.71843
1.78183
1.8409
1.89446
1.94132
1.98036
2.0106
2.03124
2.0417
0.280281
0.281413
0.283684
0.287107
0.291704
0.297502
0.304535
0.312846
0.322481
0.333495
0.34595
0.359913
0.375457
0.392664
0.411617
0.432409
0.455134
0.479893
0.506791
0.535934
0.567431
0.601391
0.637924
0.677137
0.719131
0.764002
0.811834
0.862699
0.916649
0.973713
1.03389
1.09715
1.16339
1.23249
1.30422
1.3783
1.45434
1.53183
1.61014
1.68849
1.76596
1.84145
1.91372
1.98142
2.0431
2.0973
2.14264
2.17785
2.20193
2.21415
0.28304
0.284216
0.286575
0.290132
0.294909
0.300937
0.308252
0.316897
0.326925
0.338395
0.351371
0.365928
0.382146
0.400111
0.419916
0.441662
0.465453
0.491402
0.519625
0.550241
0.583376
0.619154
0.657703
0.699151
0.743621
0.791233
0.842098
0.896317
0.953972
1.01513
1.07982
1.14804
1.21975
1.29483
1.37312
1.45434
1.53813
1.62397
1.71122
1.79904
1.88642
1.97212
2.05469
2.13252
2.20384
2.26683
2.31973
2.36096
2.38921
2.40357
0.28568
0.286899
0.289343
0.29303
0.297983
0.304233
0.31182
0.320791
0.331201
0.343113
0.356597
0.371733
0.388607
0.407312
0.42795
0.450629
0.475467
0.502584
0.53211
0.564179
0.598931
0.63651
0.677062
0.720737
0.767682
0.818043
0.871963
0.929573
0.990994
1.05633
1.12565
1.19901
1.2764
1.35777
1.44298
1.53183
1.62397
1.71892
1.81604
1.91445
2.01305
2.11047
2.20504
2.29482
2.37764
2.45122
2.51332
2.56188
2.59524
2.61223
0.288187
0.289447
0.291974
0.295785
0.300906
0.307371
0.31522
0.324503
0.335281
0.347619
0.361593
0.377287
0.394794
0.414215
0.43566
0.459245
0.485098
0.513351
0.544147
0.577635
0.613971
0.653317
0.695839
0.741711
0.791105
0.844198
0.901163
0.96217
1.02738
1.09694
1.17098
1.24959
1.33284
1.42074
1.51322
1.61014
1.71122
1.81604
1.92397
2.03416
2.14546
2.25634
2.36491
2.46887
2.56553
2.65201
2.72537
2.78297
2.82264
2.84286
0.290546
0.291845
0.29445
0.29838
0.303661
0.310329
0.318427
0.328009
0.339137
0.351881
0.366322
0.38255
0.400663
0.42077
0.442987
0.467441
0.49427
0.523617
0.555638
0.590497
0.628366
0.669427
0.713866
0.761881
0.813673
0.869449
0.929417
0.993787
1.06276
1.13655
1.21533
1.29926
1.38849
1.4831
1.58312
1.68849
1.79904
1.91445
2.03416
2.15739
2.28297
2.4093
2.53425
2.65512
2.76858
2.87091
2.95824
3.02707
3.07457
3.09881
0.292742
0.294077
0.296756
0.300797
0.306229
0.313089
0.321422
0.331284
0.342742
0.355869
0.370752
0.387483
0.406169
0.426924
0.449873
0.475152
0.502907
0.533295
0.566483
0.60265
0.641986
0.68469
0.730972
0.781052
0.835162
0.893538
0.956429
1.02409
1.09676
1.17472
1.2582
1.34745
1.44269
1.54411
1.65184
1.76596
1.88642
2.01305
2.14546
2.28297
2.42451
2.56849
2.71263
2.85377
2.98784
3.10991
3.21476
3.29767
3.35496
3.3842
0.294762
0.296131
0.298878
0.303023
0.308595
0.315632
0.324183
0.334306
0.346071
0.359555
0.374847
0.392048
0.411268
0.432628
0.456261
0.482311
0.510934
0.542298
0.576583
0.613981
0.6547
0.698956
0.746983
0.799025
0.855341
0.916203
0.981896
1.05272
1.12897
1.21098
1.29906
1.39353
1.49472
1.60293
1.71843
1.84145
1.97212
2.11047
2.25634
2.4093
2.56849
2.7325
2.89903
3.0646
3.22424
3.37135
3.49847
3.59914
3.66868
3.70415
0.296593
0.297993
0.300802
0.305042
0.310741
0.317941
0.326691
0.337053
0.349099
0.362909
0.378578
0.396209
0.415919
0.437835
0.462096
0.488856
0.518279
0.550543
0.585841
0.62438
0.666381
0.71208
0.761731
0.815604
0.873985
0.93718
1.00551
1.07932
1.15897
1.24484
1.33733
1.43684
1.54381
1.65867
1.78183
1.91372
2.05469
2.20504
2.36491
2.53425
2.71263
2.89903
3.09149
3.28656
3.47841
3.65807
3.81395
3.93711
4.02185
4.06494
0.298223
0.299651
0.302516
0.30684
0.312654
0.32
0.328929
0.339505
0.351803
0.365906
0.381913
0.399931
0.420082
0.442499
0.467328
0.494728
0.524873
0.557952
0.594168
0.633741
0.676907
0.723919
0.775052
0.830599
0.890872
0.95621
1.02697
1.10355
1.18635
1.27583
1.37244
1.4767
1.58915
1.71036
1.8409
1.98142
2.13252
2.29482
2.46887
2.65512
2.85377
3.0646
3.28656
3.51699
3.75009
3.97393
4.16755
4.31895
4.42214
4.47429
0.299641
0.301094
0.304008
0.308406
0.31432
0.321793
0.330879
0.341643
0.354162
0.368523
0.384826
0.403184
0.423723
0.44658
0.471907
0.499872
0.530654
0.564452
0.601479
0.641967
0.686164
0.734343
0.786793
0.843829
0.905792
0.973049
1.04599
1.12506
1.21071
1.30345
1.40383
1.51244
1.62993
1.75702
1.89446
2.0431
2.20384
2.37764
2.56553
2.76858
2.98784
3.22424
3.47841
3.75009
4.03641
4.32545
4.56887
4.7545
4.87897
4.94134
0.300838
0.302311
0.305267
0.309728
0.315727
0.323309
0.332528
0.343452
0.356158
0.370737
0.387293
0.40594
0.426809
0.450041
0.475793
0.504239
0.535565
0.569977
0.607697
0.648968
0.69405
0.743229
0.796811
0.855132
0.918553
0.987467
1.06231
1.14353
1.23167
1.32726
1.43095
1.54339
1.66536
1.79769
1.94132
2.0973
2.26683
2.45122
2.65201
2.87091
3.10991
3.37135
3.65807
3.97393
4.32545
4.7281
5.03352
5.25676
5.40351
5.47634
0.301806
0.303296
0.306285
0.310797
0.316866
0.324536
0.333863
0.344916
0.357775
0.372532
0.389293
0.408175
0.429312
0.452849
0.478948
0.507786
0.539556
0.574469
0.612757
0.654668
0.700475
0.750473
0.804985
0.864361
0.928982
0.999265
1.07567
1.15869
1.24888
1.34686
1.4533
1.56896
1.6947
1.83147
1.98036
2.14264
2.31973
2.51332
2.72537
2.95824
3.21476
3.49847
3.81395
4.16755
4.56887
5.03352
5.38592
5.64115
5.80761
5.88983
0.302538
0.30404
0.307055
0.311606
0.317728
0.325464
0.334873
0.346025
0.358999
0.373891
0.390808
0.40987
0.43121
0.45498
0.481342
0.510479
0.542587
0.577882
0.616602
0.659001
0.705362
0.755987
0.811211
0.871395
0.936937
1.00827
1.08588
1.17028
1.26207
1.36189
1.47047
1.58864
1.71732
1.85757
2.0106
2.17785
2.36096
2.56188
2.78297
3.02707
3.29767
3.59914
3.93711
4.31895
4.7545
5.25676
5.64115
5.91996
6.10162
6.19124
0.303028
0.304539
0.307572
0.312149
0.318306
0.326087
0.335552
0.346769
0.359822
0.374805
0.391826
0.411008
0.432486
0.456412
0.482952
0.51229
0.544625
0.580179
0.619189
0.661919
0.708653
0.759703
0.815408
0.876139
0.942305
1.01435
1.09277
1.17812
1.27099
1.37207
1.48212
1.602
1.7327
1.87534
2.03124
2.20193
2.38921
2.59524
2.82264
3.07457
3.35496
3.66868
4.02185
4.42214
4.87897
5.40351
5.80761
6.10162
6.29338
6.388
0.303274
0.304789
0.307831
0.312421
0.318595
0.326399
0.335892
0.347142
0.360234
0.375263
0.392337
0.411579
0.433126
0.457131
0.48376
0.513199
0.545649
0.581332
0.62049
0.663386
0.710308
0.761571
0.817519
0.878526
0.945007
1.01741
1.09625
1.18207
1.27549
1.37721
1.488
1.60875
1.74048
1.88434
2.0417
2.21415
2.40357
2.61223
2.84286
3.09881
3.3842
3.70415
4.06494
4.47429
4.94134
5.47634
5.88983
6.19124
6.388
6.48512
)
;

boundaryField
{
    walls
    {
        type            zeroGradient;
    }
    frontAndBack
    {
        type            empty;
    }
}


// ************************************************************************* //
