/*--------------------------------*- C++ -*----------------------------------*\
| =========                 |                                                 |
| \\      /  F ield         | OpenFOAM: The Open Source CFD Toolbox           |
|  \\    /   O peration     | Version:  2406                                  |
|   \\  /    A nd           | Website:  www.openfoam.com                      |
|    \\/     M anipulation  |                                                 |
\*---------------------------------------------------------------------------*/
FoamFile
{
    version     2.0;
    format      ascii;
    arch        "LSB;label=32;scalar=64";
    class       volVectorField;
    location    "0.45";
    object      flux;
}
// * * * * * * * * * * * * * * * * * * * * * * * * * * * * * * * * * * * * * //

dimensions      [0 1 -1 1 0 0 0];

internalField   nonuniform List<vector> 
2500
(
(0.00142425 0.00142425 0)
(0.00424785 0.0014311 0)
(0.00700539 0.0014451 0)
(0.00965685 0.00146573 0)
(0.0121583 0.00149271 0)
(0.0144709 0.00152563 0)
(0.0165582 0.00156398 0)
(0.0183875 0.00160715 0)
(0.0199298 0.00165447 0)
(0.0211604 0.00170521 0)
(0.0220594 0.00175856 0)
(0.022612 0.00181369 0)
(0.0228088 0.00186974 0)
(0.0226458 0.00192581 0)
(0.0221249 0.00198103 0)
(0.0212536 0.00203452 0)
(0.020045 0.00208545 0)
(0.0185176 0.002133 0)
(0.0166952 0.00217643 0)
(0.0146065 0.00221504 0)
(0.0122843 0.00224823 0)
(0.00976567 0.00227548 0)
(0.00709063 0.00229634 0)
(0.004302 0.00231051 0)
(0.00144445 0.00231775 0)
(-0.0014362 0.00231796 0)
(-0.0042937 0.00231114 0)
(-0.00708224 0.0022974 0)
(-0.00975714 0.00227698 0)
(-0.0122756 0.0022502 0)
(-0.0145976 0.0022175 0)
(-0.0166862 0.00217941 0)
(-0.0185083 0.00213653 0)
(-0.0200355 0.00208956 0)
(-0.021244 0.00203924 0)
(-0.0221152 0.00198639 0)
(-0.0226361 0.00193183 0)
(-0.0227991 0.00187644 0)
(-0.0226025 0.00182109 0)
(-0.0220502 0.00176665 0)
(-0.0211516 0.00171399 0)
(-0.0199215 0.00166392 0)
(-0.01838 0.00161724 0)
(-0.0165516 0.00157468 0)
(-0.0144653 0.0015369 0)
(-0.0121541 0.00150451 0)
(-0.00965418 0.00147804 0)
(-0.00700474 0.00145789 0)
(-0.00424699 0.00144427 0)
(-0.00142315 0.0014366 0)
(0.0014311 0.00424785 0)
(0.00426869 0.00426869 0)
(0.00704002 0.00431043 0)
(0.00970447 0.00437205 0)
(0.0122182 0.00445264 0)
(0.0145421 0.00455097 0)
(0.0166397 0.0046655 0)
(0.018478 0.00479444 0)
(0.0200278 0.00493578 0)
(0.0212645 0.00508731 0)
(0.0221679 0.00524665 0)
(0.0227232 0.0054113 0)
(0.0229209 0.00557867 0)
(0.0227571 0.00574613 0)
(0.0222336 0.00591103 0)
(0.021358 0.00607078 0)
(0.0201435 0.00622285 0)
(0.0186086 0.00636485 0)
(0.0167773 0.00649452 0)
(0.0146783 0.00660982 0)
(0.0123448 0.00670893 0)
(0.00981378 0.00679027 0)
(0.00712566 0.00685258 0)
(0.00432341 0.00689487 0)
(0.0014519 0.00691648 0)
(-0.00144281 0.0069171 0)
(-0.00431426 0.00689673 0)
(-0.0071164 0.00685572 0)
(-0.00980435 0.00679474 0)
(-0.0123351 0.00671478 0)
(-0.0146684 0.00661716 0)
(-0.0167671 0.00650343 0)
(-0.0185982 0.00637543 0)
(-0.0201328 0.00623522 0)
(-0.0213472 0.00608503 0)
(-0.0222226 0.00592726 0)
(-0.022746 0.00576442 0)
(-0.0229098 0.00559909 0)
(-0.0227123 0.00543389 0)
(-0.0221573 0.00527143 0)
(-0.0212543 0.00511426 0)
(-0.0200183 0.00496485 0)
(-0.0184692 0.00482555 0)
(-0.0166319 0.00469853 0)
(-0.0145355 0.00458581 0)
(-0.0122129 0.00448916 0)
(-0.0097008 0.00441014 0)
(-0.0070385 0.00435008 0)
(-0.00426829 0.00430993 0)
(-0.00143083 0.00428866 0)
(0.0014451 0.00700539 0)
(0.00431043 0.00704002 0)
(0.00710874 0.00710874 0)
(0.00979907 0.00721036 0)
(0.0123373 0.00734331 0)
(0.0146837 0.00750551 0)
(0.0168017 0.00769444 0)
(0.0186578 0.00790715 0)
(0.0202227 0.00814032 0)
(0.0214712 0.00839029 0)
(0.0223834 0.00865315 0)
(0.022944 0.00892476 0)
(0.0231436 0.00920086 0)
(0.0229782 0.0094771 0)
(0.0224496 0.00974913 0)
(0.0215654 0.0100127 0)
(0.0203391 0.0102635 0)
(0.0187893 0.0104978 0)
(0.0169402 0.0107117 0)
(0.0148209 0.0109019 0)
(0.0124648 0.0110654 0)
(0.00990932 0.0111997 0)
(0.00719523 0.0113025 0)
(0.0043659 0.0113723 0)
(0.00146668 0.011408 0)
(-0.00145595 0.0114091 0)
(-0.00435509 0.0113756 0)
(-0.00718424 0.0113081 0)
(-0.00989808 0.0112076 0)
(-0.0124532 0.0110759 0)
(-0.014809 0.010915 0)
(-0.0169279 0.0107276 0)
(-0.0187766 0.0105167 0)
(-0.0203259 0.0102856 0)
(-0.021552 0.0100381 0)
(-0.0224358 0.00977816 0)
(-0.0229642 0.00950985 0)
(-0.0231296 0.00923744 0)
(-0.0229301 0.00896526 0)
(-0.0223698 0.0086976 0)
(-0.0214581 0.00843867 0)
(-0.0202102 0.00819253 0)
(-0.0186463 0.00796305 0)
(-0.0167913 0.00775381 0)
(-0.0146747 0.0075681 0)
(-0.0123297 0.00740883 0)
(-0.00979325 0.00727854 0)
(-0.00710495 0.00717935 0)
(-0.00430842 0.00711291 0)
(-0.00144442 0.0070792 0)
(0.00146573 0.00965685 0)
(0.00437205 0.00970447 0)
(0.00721036 0.00979907 0)
(0.00993903 0.00993903 0)
(0.0125134 0.0101222 0)
(0.0148933 0.0103456 0)
(0.0170414 0.0106059 0)
(0.0189239 0.010899 0)
(0.020511 0.0112203 0)
(0.0217773 0.0115647 0)
(0.0227023 0.0119269 0)
(0.0232709 0.0123011 0)
(0.0234732 0.0126815 0)
(0.0233054 0.0130622 0)
(0.0227692 0.013437 0)
(0.0218724 0.0138001 0)
(0.0206286 0.0141458 0)
(0.0190568 0.0144686 0)
(0.0171814 0.0147635 0)
(0.015032 0.0150256 0)
(0.0126425 0.015251 0)
(0.0100508 0.0154361 0)
(0.0072983 0.0155779 0)
(0.00442894 0.0156742 0)
(0.00148871 0.0157236 0)
(-0.00147522 0.0157254 0)
(-0.00441531 0.0156794 0)
(-0.0072844 0.0155867 0)
(-0.0100365 0.0154486 0)
(-0.0126277 0.0152675 0)
(-0.0150167 0.0150463 0)
(-0.0171655 0.0147885 0)
(-0.0190402 0.0144984 0)
(-0.0206114 0.0141807 0)
(-0.0218546 0.0138403 0)
(-0.0227509 0.0134828 0)
(-0.0232867 0.0131138 0)
(-0.0234544 0.0127392 0)
(-0.0232521 0.0123649 0)
(-0.0226839 0.0119968 0)
(-0.0217594 0.0116408 0)
(-0.0204939 0.0113024 0)
(-0.0189079 0.0109868 0)
(-0.0170268 0.0106991 0)
(-0.0148804 0.0104438 0)
(-0.0125025 0.0102247 0)
(-0.00993029 0.0100454 0)
(-0.00720413 0.0099086 0)
(-0.00436844 0.0098164 0)
(-0.00146454 0.00976993 0)
(0.00149271 0.0121583 0)
(0.00445264 0.0122182 0)
(0.00734331 0.0123373 0)
(0.0101222 0.0125134 0)
(0.0127439 0.0127439 0)
(0.0151675 0.0130251 0)
(0.017355 0.0133527 0)
(0.0192721 0.0137216 0)
(0.0208883 0.0141259 0)
(0.0221778 0.0145594 0)
(0.0231198 0.0150153 0)
(0.0236987 0.0154863 0)
(0.0239046 0.0159651 0)
(0.0237336 0.0164442 0)
(0.0231875 0.016916 0)
(0.0222743 0.0173731 0)
(0.0210076 0.0178083 0)
(0.0194069 0.0182147 0)
(0.0174972 0.0185858 0)
(0.0153084 0.0189159 0)
(0.0128752 0.0191997 0)
(0.0102362 0.0194328 0)
(0.00743339 0.0196115 0)
(0.00451167 0.0197331 0)
(0.00151782 0.0197956 0)
(-0.00150013 0.0197982 0)
(-0.00449376 0.0197408 0)
(-0.00741508 0.0196246 0)
(-0.0102173 0.0194514 0)
(-0.0128556 0.0192242 0)
(-0.0152879 0.0189465 0)
(-0.0174757 0.018623 0)
(-0.0193844 0.0182588 0)
(-0.0209841 0.0178599 0)
(-0.0222499 0.0174327 0)
(-0.0231624 0.0169839 0)
(-0.0237078 0.0165207 0)
(-0.0238785 0.0160506 0)
(-0.0236725 0.0155808 0)
(-0.0230939 0.015119 0)
(-0.0221526 0.0146722 0)
(-0.0208642 0.0142476 0)
(-0.0192495 0.0138517 0)
(-0.0173343 0.0134908 0)
(-0.0151491 0.0131704 0)
(-0.0127281 0.0128955 0)
(-0.0101094 0.0126705 0)
(-0.00733396 0.0124986 0)
(-0.00444709 0.0123826 0)
(-0.00149089 0.0123242 0)
(0.00152563 0.0144709 0)
(0.00455097 0.0145421 0)
(0.00750551 0.0146837 0)
(0.0103456 0.0148933 0)
(0.0130251 0.0151675 0)
(0.0155021 0.0155021 0)
(0.0177378 0.0158919 0)
(0.0196971 0.0163308 0)
(0.0213488 0.0168119 0)
(0.0226666 0.0173277 0)
(0.0236292 0.0178701 0)
(0.0242208 0.0184306 0)
(0.0244311 0.0190004 0)
(0.0242563 0.0195705 0)
(0.0236981 0.020132 0)
(0.0227647 0.0206759 0)
(0.0214701 0.0211938 0)
(0.0198343 0.0216774 0)
(0.0178827 0.0221192 0)
(0.0156459 0.0225122 0)
(0.0131594 0.0228501 0)
(0.0104626 0.0231278 0)
(0.00759855 0.0233408 0)
(0.004613 0.0234858 0)
(0.0015538 0.0235608 0)
(-0.00152999 0.0235644 0)
(-0.00458888 0.023497 0)
(-0.00757381 0.0233595 0)
(-0.010437 0.0231545 0)
(-0.0131327 0.0228852 0)
(-0.0156178 0.0225561 0)
(-0.0178531 0.0221726 0)
(-0.0198032 0.0217409 0)
(-0.0214375 0.021268 0)
(-0.0227307 0.0207615 0)
(-0.0236629 0.0202295 0)
(-0.0242201 0.0196805 0)
(-0.0243943 0.0191233 0)
(-0.0241837 0.0185667 0)
(-0.0235925 0.0180194 0)
(-0.0226308 0.0174901 0)
(-0.0213144 0.0169871 0)
(-0.0196647 0.0165182 0)
(-0.0177082 0.0160907 0)
(-0.0154757 0.0157113 0)
(-0.0130024 0.0153857 0)
(-0.0103272 0.0151191 0)
(-0.00749195 0.0149155 0)
(-0.00454282 0.0147781 0)
(-0.00152295 0.0147088 0)
(0.00156398 0.0165582 0)
(0.0046655 0.0166397 0)
(0.00769444 0.0168017 0)
(0.0106059 0.0170414 0)
(0.0133527 0.017355 0)
(0.0158919 0.0177378 0)
(0.0181838 0.0181838 0)
(0.0201921 0.0186858 0)
(0.0218853 0.0192362 0)
(0.023236 0.0198263 0)
(0.0242227 0.0204468 0)
(0.024829 0.021088 0)
(0.0250445 0.0217398 0)
(0.0248652 0.022392 0)
(0.0242929 0.0230344 0)
(0.0233361 0.0236567 0)
(0.0220091 0.0242493 0)
(0.0203323 0.0248027 0)
(0.0183319 0.0253083 0)
(0.0160393 0.0257582 0)
(0.0134908 0.0261451 0)
(0.0107268 0.0264632 0)
(0.00779145 0.0267074 0)
(0.00473164 0.026874 0)
(0.00159642 0.0269606 0)
(-0.00156392 0.0269657 0)
(-0.00469868 0.0268897 0)
(-0.00775758 0.0267338 0)
(-0.0106916 0.0265008 0)
(-0.0134539 0.0261945 0)
(-0.0160005 0.0258201 0)
(-0.0182909 0.0253836 0)
(-0.020289 0.0248923 0)
(-0.0219635 0.024354 0)
(-0.0232884 0.0237776 0)
(-0.0242433 0.0231722 0)
(-0.024814 0.0225476 0)
(-0.0249923 0.0219137 0)
(-0.0247764 0.0212805 0)
(-0.0241704 0.0206581 0)
(-0.0231849 0.0200563 0)
(-0.0218361 0.0194844 0)
(-0.0201459 0.0189514 0)
(-0.0181413 0.0184655 0)
(-0.0158541 0.0180342 0)
(-0.0133203 0.0176643 0)
(-0.0105796 0.0173613 0)
(-0.00767502 0.01713 0)
(-0.00465377 0.0169737 0)
(-0.0015601 0.0168951 0)
(0.00160715 0.0183875 0)
(0.00479444 0.018478 0)
(0.00790715 0.0186578 0)
(0.010899 0.0189239 0)
(0.0137216 0.0192721 0)
(0.0163308 0.0196971 0)
(0.0186858 0.0201921 0)
(0.0207495 0.0207495 0)
(0.0224893 0.0213606 0)
(0.0238772 0.0220157 0)
(0.0248909 0.0227046 0)
(0.0255138 0.0234165 0)
(0.0257352 0.0241402 0)
(0.0255508 0.0248644 0)
(0.0249628 0.0255776 0)
(0.0239796 0.0262687 0)
(0.0226161 0.0269268 0)
(0.0208933 0.0275415 0)
(0.0188381 0.0281031 0)
(0.0164827 0.0286029 0)
(0.0138645 0.0290331 0)
(0.0110249 0.0293869 0)
(0.0080094 0.0296589 0)
(0.00486614 0.0298449 0)
(0.0016455 0.0299421 0)
(-0.00160084 0.0299494 0)
(-0.00482079 0.0298667 0)
(-0.00796272 0.0296956 0)
(-0.0109763 0.0294393 0)
(-0.0138134 0.0291019 0)
(-0.0164287 0.0286893 0)
(-0.0187809 0.0282081 0)
(-0.0208328 0.0276664 0)
(-0.0225522 0.027073 0)
(-0.0239125 0.0264375 0)
(-0.0248929 0.0257703 0)
(-0.0254786 0.0250819 0)
(-0.0256614 0.0243835 0)
(-0.0254393 0.023686 0)
(-0.0248167 0.0230006 0)
(-0.0238045 0.0223379 0)
(-0.0224193 0.0217084 0)
(-0.0206836 0.0211218 0)
(-0.0186253 0.0205872 0)
(-0.0162768 0.0201128 0)
(-0.0136753 0.0197059 0)
(-0.0108615 0.0193727 0)
(-0.00787955 0.0191182 0)
(-0.00477773 0.0189464 0)
(-0.00160161 0.0188599 0)
(0.00165447 0.0199298 0)
(0.00493578 0.0200278 0)
(0.00814032 0.0202227 0)
(0.0112203 0.020511 0)
(0.0141259 0.0208883 0)
(0.0168119 0.0213488 0)
(0.0192362 0.0218853 0)
(0.0213606 0.0224893 0)
(0.0231514 0.0231514 0)
(0.0245801 0.0238613 0)
(0.0256235 0.0246078 0)
(0.0262646 0.0253793 0)
(0.0264924 0.0261636 0)
(0.0263026 0.0269485 0)
(0.0256973 0.0277215 0)
(0.0246853 0.0284706 0)
(0.0232818 0.029184 0)
(0.0215087 0.0298504 0)
(0.0193934 0.0304595 0)
(0.0169693 0.0310018 0)
(0.0142748 0.0314687 0)
(0.0113526 0.031853 0)
(0.00824943 0.032149 0)
(0.00501492 0.032352 0)
(0.00170092 0.0324592 0)
(-0.00163939 0.0324692 0)
(-0.00495241 0.0323821 0)
(-0.00818499 0.0321997 0)
(-0.0112854 0.0319253 0)
(-0.014204 0.0315637 0)
(-0.0168943 0.031121 0)
(-0.0193137 0.0306046 0)
(-0.0214241 0.0300232 0)
(-0.0231924 0.0293863 0)
(-0.0245911 0.0287043 0)
(-0.0255989 0.0279884 0)
(-0.0262008 0.02725 0)
(-0.0263882 0.026501 0)
(-0.0261593 0.0257533 0)
(-0.0255185 0.0250188 0)
(-0.0244771 0.0243089 0)
(-0.0230523 0.0236348 0)
(-0.0212671 0.0230068 0)
(-0.0191503 0.0224346 0)
(-0.0167353 0.0219271 0)
(-0.0140604 0.0214918 0)
(-0.0111672 0.0211355 0)
(-0.00810128 0.0208634 0)
(-0.00491209 0.0206797 0)
(-0.00164661 0.0205872 0)
(0.00170521 0.0211604 0)
(0.00508731 0.0212645 0)
(0.00839029 0.0214712 0)
(0.0115647 0.0217773 0)
(0.0145594 0.0221778 0)
(0.0173277 0.0226666 0)
(0.0198263 0.023236 0)
(0.0220157 0.0238772 0)
(0.0238613 0.0245801 0)
(0.0253336 0.0253336 0)
(0.0264089 0.0261261 0)
(0.0270696 0.0269451 0)
(0.0273044 0.0277778 0)
(0.0271087 0.028611 0)
(0.0264849 0.0294318 0)
(0.0254421 0.0302273 0)
(0.023996 0.0309849 0)
(0.0221689 0.0316929 0)
(0.0199894 0.0323402 0)
(0.0174919 0.0329167 0)
(0.0147157 0.0334134 0)
(0.0117052 0.0338228 0)
(0.00850836 0.0341387 0)
(0.00517637 0.0343563 0)
(0.00176266 0.0344727 0)
(-0.00167796 0.0344863 0)
(-0.00509026 0.0343975 0)
(-0.00841949 0.0342081 0)
(-0.0116123 0.0339218 0)
(-0.0146177 0.0335435 0)
(-0.0173878 0.03308 0)
(-0.0198787 0.0325391 0)
(-0.0220511 0.03193 0)
(-0.0238711 0.0312627 0)
(-0.0253104 0.0305484 0)
(-0.0263472 0.0297987 0)
(-0.026966 0.0290258 0)
(-0.027158 0.0282422 0)
(-0.0269215 0.0274603 0)
(-0.0262611 0.0266925 0)
(-0.0251885 0.0259509 0)
(-0.0237215 0.0252469 0)
(-0.0218838 0.0245915 0)
(-0.019705 0.0239946 0)
(-0.0172196 0.0234653 0)
(-0.0144669 0.0230116 0)
(-0.0114899 0.0226403 0)
(-0.00833532 0.0223568 0)
(-0.00505391 0.0221655 0)
(-0.00169409 0.0220691 0)
(0.00175856 0.0220594 0)
(0.00524665 0.0221679 0)
(0.00865315 0.0223834 0)
(0.0119269 0.0227023 0)
(0.0150153 0.0231198 0)
(0.0178701 0.0236292 0)
(0.0204468 0.0242227 0)
(0.0227046 0.0248909 0)
(0.0246078 0.0256235 0)
(0.0261261 0.0264089 0)
(0.027235 0.027235 0)
(0.0279162 0.0280887 0)
(0.0281583 0.0289567 0)
(0.0279566 0.0298254 0)
(0.0273135 0.0306811 0)
(0.0262384 0.0315106 0)
(0.0247475 0.0323009 0)
(0.0228639 0.0330395 0)
(0.0206171 0.0337151 0)
(0.0180425 0.0343172 0)
(0.0151809 0.0348365 0)
(0.0120779 0.0352652 0)
(0.00878292 0.0355969 0)
(0.00534889 0.0358267 0)
(0.00183089 0.0359515 0)
(-0.00171459 0.03597 0)
(-0.00523059 0.0358825 0)
(-0.00866069 0.0356912 0)
(-0.0119499 0.0353997 0)
(-0.0150457 0.0350135 0)
(-0.0178987 0.0345395 0)
(-0.0204638 0.0339859 0)
(-0.0227005 0.0333624 0)
(-0.0245739 0.0326795 0)
(-0.0260551 0.0319487 0)
(-0.0271215 0.031182 0)
(-0.0277573 0.030392 0)
(-0.0279538 0.0295915 0)
(-0.0277089 0.0287934 0)
(-0.0270279 0.0280103 0)
(-0.0259227 0.0272543 0)
(-0.0244116 0.0265373 0)
(-0.0225194 0.0258702 0)
(-0.0202764 0.0252631 0)
(-0.0177183 0.0247251 0)
(-0.0148854 0.0242642 0)
(-0.011822 0.0238871 0)
(-0.00857609 0.0235993 0)
(-0.00519977 0.0234051 0)
(-0.00174293 0.0233074 0)
(0.00181369 0.022612 0)
(0.0054113 0.0227232 0)
(0.00892476 0.022944 0)
(0.0123011 0.0232709 0)
(0.0154863 0.0236987 0)
(0.0184306 0.0242208 0)
(0.021088 0.024829 0)
(0.0234165 0.0255138 0)
(0.0253793 0.0262646 0)
(0.0269451 0.0270696 0)
(0.0280887 0.0279162 0)
(0.0287913 0.0287913 0)
(0.029041 0.029681 0)
(0.0288332 0.0305716 0)
(0.0281702 0.0314491 0)
(0.0270618 0.0322998 0)
(0.0255249 0.0331105 0)
(0.0235832 0.0338685 0)
(0.0212671 0.0345623 0)
(0.0186133 0.035181 0)
(0.0156637 0.0357154 0)
(0.0124655 0.0361575 0)
(0.0090698 0.0365008 0)
(0.00553102 0.0367404 0)
(0.00190602 0.0368733 0)
(-0.00174693 0.0368983 0)
(-0.00536911 0.0368158 0)
(-0.00890235 0.036628 0)
(-0.01229 0.036339 0)
(-0.0154779 0.0359543 0)
(-0.0184154 0.0354813 0)
(-0.0210557 0.0349283 0)
(-0.0233575 0.0343053 0)
(-0.0252848 0.0336231 0)
(-0.026808 0.0328932 0)
(-0.0279039 0.0321281 0)
(-0.0285564 0.0313405 0)
(-0.0287566 0.0305431 0)
(-0.0285027 0.0297489 0)
(-0.0278002 0.0289704 0)
(-0.0266615 0.0282198 0)
(-0.0251056 0.0275086 0)
(-0.023158 0.0268477 0)
(-0.0208501 0.0262468 0)
(-0.0182186 0.0257147 0)
(-0.015305 0.0252593 0)
(-0.0121548 0.024887 0)
(-0.00881725 0.024603 0)
(-0.00534583 0.0244115 0)
(-0.00179182 0.0243151 0)
(0.00186974 0.0228088 0)
(0.00557867 0.0229209 0)
(0.00920086 0.0231436 0)
(0.0126815 0.0234732 0)
(0.0159651 0.0239046 0)
(0.0190004 0.0244311 0)
(0.0217398 0.0250445 0)
(0.0241402 0.0257352 0)
(0.0261636 0.0264924 0)
(0.0277778 0.0273044 0)
(0.0289567 0.0281583 0)
(0.029681 0.029041 0)
(0.0299387 0.0299387 0)
(0.0297247 0.0308373 0)
(0.0290417 0.0317228 0)
(0.0278997 0.0325816 0)
(0.0263162 0.0334003 0)
(0.0243157 0.0341662 0)
(0.0219297 0.0348677 0)
(0.0191957 0.0354942 0)
(0.0161574 0.0360361 0)
(0.0128632 0.0364857 0)
(0.00936582 0.0368365 0)
(0.00572149 0.0370839 0)
(0.0019888 0.0372248 0)
(-0.00177217 0.0372583 0)
(-0.00550092 0.0371848 0)
(-0.0091375 0.0370069 0)
(-0.0126236 0.0367289 0)
(-0.0159034 0.0363564 0)
(-0.0189247 0.0358969 0)
(-0.0216398 0.0353591 0)
(-0.0240058 0.034753 0)
(-0.025986 0.0340894 0)
(-0.02755 0.0333801 0)
(-0.0286743 0.0326372 0)
(-0.0293424 0.0318735 0)
(-0.0295454 0.0311014 0)
(-0.0292816 0.0303336 0)
(-0.028557 0.0295822 0)
(-0.0273844 0.0288591 0)
(-0.0257838 0.028175 0)
(-0.0237813 0.0275403 0)
(-0.0214094 0.0269642 0)
(-0.0187058 0.0264548 0)
(-0.0157132 0.0260194 0)
(-0.0124783 0.0256638 0)
(-0.00905157 0.0253929 0)
(-0.00548769 0.0252102 0)
(-0.0018393 0.0251184 0)
(0.00192581 0.0226458 0)
(0.00574613 0.0227571 0)
(0.0094771 0.0229782 0)
(0.0130622 0.0233054 0)
(0.0164442 0.0237336 0)
(0.0195705 0.0242563 0)
(0.022392 0.0248652 0)
(0.0248644 0.0255508 0)
(0.0269485 0.0263026 0)
(0.028611 0.0271087 0)
(0.0298254 0.0279566 0)
(0.0305716 0.0288332 0)
(0.0308373 0.0297247 0)
(0.0306174 0.0306174 0)
(0.0299145 0.0314973 0)
(0.0287392 0.0323509 0)
(0.0271095 0.0331651 0)
(0.0250506 0.0339274 0)
(0.022595 0.0346263 0)
(0.0197817 0.0352514 0)
(0.0166553 0.0357935 0)
(0.0132659 0.0362449 0)
(0.00966798 0.0365995 0)
(0.00591935 0.0368528 0)
(0.0020804 0.0370021 0)
(-0.00178696 0.0370465 0)
(-0.00562043 0.036987 0)
(-0.0093583 0.0368262 0)
(-0.0129406 0.0365685 0)
(-0.0163099 0.0362199 0)
(-0.0194126 0.035788 0)
(-0.0221996 0.0352814 0)
(-0.0246272 0.0347103 0)
(-0.0266578 0.0340853 0)
(-0.0282602 0.033418 0)
(-0.0294105 0.0327203 0)
(-0.0300922 0.0320045 0)
(-0.0302965 0.0312825 0)
(-0.0300219 0.0305664 0)
(-0.0292748 0.0298674 0)
(-0.0280687 0.0291965 0)
(-0.0264243 0.0285636 0)
(-0.0243688 0.027978 0)
(-0.0219356 0.0274478 0)
(-0.0191634 0.0269801 0)
(-0.016096 0.0265812 0)
(-0.0127813 0.026256 0)
(-0.00927082 0.0260086 0)
(-0.00562034 0.025842 0)
(-0.00188369 0.0257583 0)
(0.00198103 0.0221249 0)
(0.00591103 0.0222336 0)
(0.00974913 0.0224496 0)
(0.013437 0.0227692 0)
(0.016916 0.0231875 0)
(0.020132 0.0236981 0)
(0.0230344 0.0242929 0)
(0.0255776 0.0249628 0)
(0.0277215 0.0256973 0)
(0.0294318 0.0264849 0)
(0.0306811 0.0273135 0)
(0.0314491 0.0281702 0)
(0.0317228 0.0290417 0)
(0.0314973 0.0299145 0)
(0.0307753 0.0307753 0)
(0.0295675 0.0316107 0)
(0.0278927 0.0324081 0)
(0.025777 0.0331554 0)
(0.0232537 0.0338416 0)
(0.0203629 0.0344566 0)
(0.0171509 0.0349917 0)
(0.0136692 0.0354396 0)
(0.00997368 0.0357945 0)
(0.00612408 0.0360524 0)
(0.00218254 0.0362109 0)
(-0.00178729 0.0362695 0)
(-0.00572128 0.0362295 0)
(-0.00955602 0.0360938 0)
(-0.0132298 0.035867 0)
(-0.0166839 0.0355553 0)
(-0.0198632 0.0351663 0)
(-0.0227174 0.0347089 0)
(-0.0252019 0.0341927 0)
(-0.0272783 0.0336283 0)
(-0.028915 0.033027 0)
(-0.0300878 0.0324001 0)
(-0.0307802 0.031759 0)
(-0.0309835 0.031115 0)
(-0.0306968 0.0304788 0)
(-0.0299269 0.0298608 0)
(-0.0286882 0.0292704 0)
(-0.0270023 0.028716 0)
(-0.0248972 0.0282055 0)
(-0.0224073 0.0277453 0)
(-0.0195724 0.0273411 0)
(-0.0164373 0.0269977 0)
(-0.0130508 0.0267186 0)
(-0.00946555 0.0265069 0)
(-0.00573802 0.0263647 0)
(-0.00192304 0.0262932 0)
(0.00203452 0.0212536 0)
(0.00607078 0.021358 0)
(0.0100127 0.0215654 0)
(0.0138001 0.0218724 0)
(0.0173731 0.0222743 0)
(0.0206759 0.0227647 0)
(0.0236567 0.0233361 0)
(0.0262687 0.0239796 0)
(0.0284706 0.0246853 0)
(0.0302273 0.0254421 0)
(0.0315106 0.0262384 0)
(0.0322998 0.0270618 0)
(0.0325816 0.0278997 0)
(0.0323509 0.0287392 0)
(0.0316107 0.0295675 0)
(0.0303721 0.0303721 0)
(0.0286542 0.0311407 0)
(0.0264841 0.0318621 0)
(0.0238962 0.0325258 0)
(0.0209317 0.0331224 0)
(0.0176382 0.0336438 0)
(0.0140687 0.0340832 0)
(0.0102808 0.0344356 0)
(0.00633577 0.0346974 0)
(0.00229758 0.0348667 0)
(-0.00176835 0.0349435 0)
(-0.00579618 0.0349295 0)
(-0.00972081 0.034828 0)
(-0.013479 0.0346439 0)
(-0.0170105 0.0343836 0)
(-0.0202591 0.0340546 0)
(-0.0231733 0.0336658 0)
(-0.0257078 0.0332268 0)
(-0.0278234 0.0327477 0)
(-0.0294884 0.032239 0)
(-0.0306785 0.0317114 0)
(-0.0313773 0.0311752 0)
(-0.0315766 0.0306405 0)
(-0.031276 0.0301166 0)
(-0.0304832 0.0296119 0)
(-0.0292135 0.029134 0)
(-0.0274892 0.0286896 0)
(-0.0253396 0.028284 0)
(-0.0227999 0.0279217 0)
(-0.019911 0.0276062 0)
(-0.0167185 0.0273403 0)
(-0.013272 0.0271257 0)
(-0.00962479 0.0269638 0)
(-0.00583404 0.0268555 0)
(-0.00195512 0.0268012 0)
(0.00208545 0.020045 0)
(0.00622285 0.0201435 0)
(0.0102635 0.0203391 0)
(0.0141458 0.0206286 0)
(0.0178083 0.0210076 0)
(0.0211938 0.0214701 0)
(0.0242493 0.0220091 0)
(0.0269268 0.0226161 0)
(0.029184 0.0232818 0)
(0.0309849 0.023996 0)
(0.0323009 0.0247475 0)
(0.0331105 0.0255249 0)
(0.0334003 0.0263162 0)
(0.0331651 0.0271095 0)
(0.0324081 0.0278927 0)
(0.0311407 0.0286542 0)
(0.0293828 0.0293828 0)
(0.0271621 0.0300679 0)
(0.024514 0.0307 0)
(0.0214809 0.0312705 0)
(0.0181117 0.031772 0)
(0.0144609 0.0321988 0)
(0.0105878 0.0325464 0)
(0.00655516 0.032812 0)
(0.00242871 0.0329946 0)
(-0.00172444 0.0330945 0)
(-0.00583679 0.0331141 0)
(-0.00984164 0.0330572 0)
(-0.0136743 0.0329289 0)
(-0.0172732 0.032736 0)
(-0.0205809 0.0324861 0)
(-0.0235453 0.0321879 0)
(-0.0261201 0.0318507 0)
(-0.0282661 0.0314842 0)
(-0.0299513 0.0310981 0)
(-0.0311516 0.030702 0)
(-0.0318511 0.0303049 0)
(-0.0320421 0.0299151 0)
(-0.0317254 0.02954 0)
(-0.0309094 0.0291858 0)
(-0.0296105 0.0288576 0)
(-0.0278523 0.0285591 0)
(-0.025665 0.0282931 0)
(-0.023085 0.0280612 0)
(-0.0201538 0.0278638 0)
(-0.0169179 0.027701 0)
(-0.0134273 0.0275723 0)
(-0.00973577 0.0274768 0)
(-0.00590061 0.0274137 0)
(-0.0019773 0.0273824 0)
(0.002133 0.0185176 0)
(0.00636485 0.0186086 0)
(0.0104978 0.0187893 0)
(0.0144686 0.0190568 0)
(0.0182147 0.0194069 0)
(0.0216774 0.0198343 0)
(0.0248027 0.0203323 0)
(0.0275415 0.0208933 0)
(0.0298504 0.0215087 0)
(0.0316929 0.0221689 0)
(0.0330395 0.0228639 0)
(0.0338685 0.0235832 0)
(0.0341662 0.0243157 0)
(0.0339274 0.0250506 0)
(0.0331554 0.025777 0)
(0.0318621 0.0264841 0)
(0.0300679 0.0271621 0)
(0.0278013 0.0278013 0)
(0.0250988 0.0283934 0)
(0.0220038 0.0289308 0)
(0.0185666 0.0294073 0)
(0.0148431 0.029818 0)
(0.010894 0.0301595 0)
(0.0067839 0.0304299 0)
(0.00258005 0.030629 0)
(-0.00164879 0.030758 0)
(-0.00583354 0.03082 0)
(-0.00990603 0.0308193 0)
(-0.0138002 0.0307617 0)
(-0.0174534 0.0306542 0)
(-0.0208072 0.0305045 0)
(-0.0238087 0.0303214 0)
(-0.0264114 0.0301138 0)
(-0.028576 0.0298907 0)
(-0.0302706 0.029661 0)
(-0.0314717 0.0294328 0)
(-0.0321642 0.0292136 0)
(-0.0323415 0.0290094 0)
(-0.0320054 0.0288253 0)
(-0.0311657 0.0286645 0)
(-0.0298401 0.0285288 0)
(-0.0280536 0.0284185 0)
(-0.0258375 0.0283327 0)
(-0.0232292 0.028269 0)
(-0.0202711 0.0282244 0)
(-0.01701 0.0281952 0)
(-0.0134962 0.0281777 0)
(-0.00978337 0.0281683 0)
(-0.00592849 0.0281639 0)
(-0.00198648 0.0281622 0)
(0.00217643 0.0166952 0)
(0.00649452 0.0167773 0)
(0.0107117 0.0169402 0)
(0.0147635 0.0171814 0)
(0.0185858 0.0174972 0)
(0.0221192 0.0178827 0)
(0.0253083 0.0183319 0)
(0.0281031 0.0188381 0)
(0.0304595 0.0193934 0)
(0.0323402 0.0199894 0)
(0.0337151 0.0206171 0)
(0.0345623 0.0212671 0)
(0.0348677 0.0219297 0)
(0.0346263 0.022595 0)
(0.0338416 0.0232537 0)
(0.0325258 0.0238962 0)
(0.0307 0.024514 0)
(0.0283934 0.0250988 0)
(0.0256434 0.0256434 0)
(0.0224948 0.0261418 0)
(0.0189989 0.0265889 0)
(0.0152131 0.026981 0)
(0.0111997 0.027316 0)
(0.00702462 0.0275931 0)
(0.00275683 0.0278132 0)
(-0.00153339 0.0279786 0)
(-0.00577548 0.0280931 0)
(-0.00989991 0.0281621 0)
(-0.0138394 0.0281918 0)
(-0.0175304 0.0281898 0)
(-0.0209137 0.0281642 0)
(-0.023936 0.0281236 0)
(-0.0265508 0.0280766 0)
(-0.0287189 0.0280318 0)
(-0.0304091 0.0279967 0)
(-0.0315989 0.027978 0)
(-0.0322744 0.0279811 0)
(-0.0324304 0.0280096 0)
(-0.0320704 0.0280652 0)
(-0.0312059 0.0281477 0)
(-0.0298565 0.0282547 0)
(-0.0280484 0.0283822 0)
(-0.0258146 0.0285243 0)
(-0.0231933 0.0286739 0)
(-0.0202276 0.0288232 0)
(-0.0169645 0.0289638 0)
(-0.0134543 0.0290878 0)
(-0.0097496 0.029188 0)
(-0.00590667 0.0292584 0)
(-0.00197896 0.0292946 0)
(0.00221504 0.0146065 0)
(0.00660982 0.0146783 0)
(0.0109019 0.0148209 0)
(0.0150256 0.015032 0)
(0.0189159 0.0153084 0)
(0.0225122 0.0156459 0)
(0.0257582 0.0160393 0)
(0.0286029 0.0164827 0)
(0.0310018 0.0169693 0)
(0.0329167 0.0174919 0)
(0.0343172 0.0180425 0)
(0.035181 0.0186133 0)
(0.0354942 0.0191957 0)
(0.0352514 0.0197817 0)
(0.0344566 0.0203629 0)
(0.0331224 0.0209317 0)
(0.0312705 0.0214809 0)
(0.0289308 0.0220038 0)
(0.0261418 0.0224948 0)
(0.0229492 0.0229492 0)
(0.0194058 0.0233636 0)
(0.0155702 0.0237358 0)
(0.0115061 0.0240651 0)
(0.00728109 0.024352 0)
(0.00296553 0.0245988 0)
(-0.00136883 0.0248092 0)
(-0.00565004 0.0249881 0)
(-0.00980734 0.0251418 0)
(-0.0137725 0.0252777 0)
(-0.017481 0.0254039 0)
(-0.0208734 0.025529 0)
(-0.0238963 0.0256618 0)
(-0.0265033 0.0258107 0)
(-0.028656 0.0259835 0)
(-0.0303243 0.0261867 0)
(-0.0314873 0.0264253 0)
(-0.0321326 0.026702 0)
(-0.0322575 0.0270175 0)
(-0.0318673 0.0273697 0)
(-0.0309762 0.0277539 0)
(-0.0296056 0.0281627 0)
(-0.027784 0.0285865 0)
(-0.0255458 0.0290133 0)
(-0.0229303 0.02943 0)
(-0.0199812 0.0298224 0)
(-0.0167453 0.0301763 0)
(-0.0132721 0.0304783 0)
(-0.00961284 0.0307165 0)
(-0.00582193 0.030881 0)
(-0.00195029 0.0309649 0)
(0.00224823 0.0122843 0)
(0.00670893 0.0123448 0)
(0.0110654 0.0124648 0)
(0.015251 0.0126425 0)
(0.0191997 0.0128752 0)
(0.0228501 0.0131594 0)
(0.0261451 0.0134908 0)
(0.0290331 0.0138645 0)
(0.0314687 0.0142748 0)
(0.0334134 0.0147157 0)
(0.0348365 0.0151809 0)
(0.0357154 0.0156637 0)
(0.0360361 0.0161574 0)
(0.0357935 0.0166553 0)
(0.0349917 0.0171509 0)
(0.0336438 0.0176382 0)
(0.031772 0.0181117 0)
(0.0294073 0.0185666 0)
(0.0265889 0.0189989 0)
(0.0233636 0.0194058 0)
(0.0197855 0.0197855 0)
(0.0159146 0.0201376 0)
(0.0118158 0.0204631 0)
(0.00755839 0.0207643 0)
(0.00321402 0.021045 0)
(-0.00114413 0.0213105 0)
(-0.00544286 0.0215672 0)
(-0.00961031 0.0218229 0)
(-0.0135774 0.0220861 0)
(-0.0172791 0.0223659 0)
(-0.0206558 0.0226718 0)
(-0.0236543 0.0230128 0)
(-0.0262291 0.0233975 0)
(-0.0283429 0.0238329 0)
(-0.0299674 0.0243244 0)
(-0.0310837 0.024875 0)
(-0.0316822 0.0254848 0)
(-0.0317627 0.0261506 0)
(-0.031334 0.0268661 0)
(-0.0304129 0.0276209 0)
(-0.0290239 0.0284015 0)
(-0.0271978 0.0291913 0)
(-0.024971 0.0299708 0)
(-0.0223842 0.030719 0)
(-0.0194813 0.0314139 0)
(-0.0163086 0.0320336 0)
(-0.0129141 0.0325578 0)
(-0.0093469 0.0329684 0)
(-0.0056582 0.0332508 0)
(-0.00189505 0.0333944 0)
(0.00227548 0.00976567 0)
(0.00679027 0.00981378 0)
(0.0111997 0.00990932 0)
(0.0154361 0.0100508 0)
(0.0194328 0.0102362 0)
(0.0231278 0.0104626 0)
(0.0264632 0.0107268 0)
(0.0293869 0.0110249 0)
(0.031853 0.0113526 0)
(0.0338228 0.0117052 0)
(0.0352652 0.0120779 0)
(0.0361575 0.0124655 0)
(0.0364857 0.0128632 0)
(0.0362449 0.0132659 0)
(0.0354396 0.0136692 0)
(0.0340832 0.0140687 0)
(0.0321988 0.0144609 0)
(0.029818 0.0148431 0)
(0.026981 0.0152131 0)
(0.0237358 0.0155702 0)
(0.0201376 0.0159146 0)
(0.0162478 0.0162478 0)
(0.0121327 0.0165728 0)
(0.007863 0.0168941 0)
(0.00351171 0.0172173 0)
(-0.000846622 0.0175497 0)
(-0.00513763 0.0178997 0)
(-0.0092885 0.0182767 0)
(-0.0132295 0.0186909 0)
(-0.0168953 0.019153 0)
(-0.0202264 0.0196734 0)
(-0.0231705 0.0202621 0)
(-0.0256832 0.0209278 0)
(-0.027729 0.0216771 0)
(-0.0292823 0.0225142 0)
(-0.0303269 0.0234401 0)
(-0.030857 0.0244518 0)
(-0.0308762 0.0255421 0)
(-0.0303971 0.0266991 0)
(-0.0294407 0.027906 0)
(-0.0280352 0.0291418 0)
(-0.0262148 0.0303809 0)
(-0.024018 0.0315947 0)
(-0.0214872 0.0327522 0)
(-0.0186666 0.0338215 0)
(-0.0156014 0.0347709 0)
(-0.0123373 0.035571 0)
(-0.00891988 0.0361961 0)
(-0.00539591 0.0366252 0)
(-0.00180666 0.0368433 0)
(0.00229634 0.00709063 0)
(0.00685258 0.00712566 0)
(0.0113025 0.00719523 0)
(0.0155779 0.0072983 0)
(0.0196115 0.00743339 0)
(0.0233408 0.00759855 0)
(0.0267074 0.00779145 0)
(0.0296589 0.0080094 0)
(0.032149 0.00824943 0)
(0.0341387 0.00850836 0)
(0.0355969 0.00878292 0)
(0.0365008 0.0090698 0)
(0.0368365 0.00936582 0)
(0.0365995 0.00966798 0)
(0.0357945 0.00997368 0)
(0.0344356 0.0102808 0)
(0.0325464 0.0105878 0)
(0.0301595 0.010894 0)
(0.027316 0.0111997 0)
(0.0240651 0.0115061 0)
(0.0204631 0.0118158 0)
(0.0165728 0.0121327 0)
(0.0124621 0.0124621 0)
(0.00820287 0.0128107 0)
(0.00386964 0.0131866 0)
(-0.000461776 0.0135995 0)
(-0.0047159 0.0140601 0)
(-0.00881907 0.0145801 0)
(-0.0127011 0.015172 0)
(-0.0162966 0.0158483 0)
(-0.0195466 0.0166213 0)
(-0.0224 0.017502 0)
(-0.0248142 0.0184998 0)
(-0.0267565 0.0196214 0)
(-0.0282044 0.02087 0)
(-0.029146 0.0222444 0)
(-0.0295801 0.0237383 0)
(-0.0295155 0.0253397 0)
(-0.0289701 0.0270305 0)
(-0.0279702 0.0287862 0)
(-0.026549 0.0305763 0)
(-0.0247449 0.0323648 0)
(-0.0225997 0.0341113 0)
(-0.0201574 0.0357723 0)
(-0.0174626 0.0373033 0)
(-0.014559 0.0386603 0)
(-0.0114889 0.0398024 0)
(-0.00829272 0.0406935 0)
(-0.00501105 0.0413048 0)
(-0.00167701 0.0416154 0)
(0.00231051 0.004302 0)
(0.00689487 0.00432341 0)
(0.0113723 0.0043659 0)
(0.0156742 0.00442894 0)
(0.0197331 0.00451167 0)
(0.0234858 0.004613 0)
(0.026874 0.00473164 0)
(0.0298449 0.00486614 0)
(0.032352 0.00501492 0)
(0.0343563 0.00517637 0)
(0.0358267 0.00534889 0)
(0.0367404 0.00553102 0)
(0.0370839 0.00572149 0)
(0.0368528 0.00591935 0)
(0.0360524 0.00612408 0)
(0.0346974 0.00633577 0)
(0.032812 0.00655516 0)
(0.0304299 0.0067839 0)
(0.0275931 0.00702462 0)
(0.024352 0.00728109 0)
(0.0207643 0.00755839 0)
(0.0168941 0.007863 0)
(0.0128107 0.00820287 0)
(0.0085875 0.0085875 0)
(0.00430052 0.00902792 0)
(2.68245e-05 0.00953658 0)
(-0.004157 0.0101272 0)
(-0.00817655 0.0108144 0)
(-0.0119613 0.0116135 0)
(-0.015446 0.0125397 0)