/*--------------------------------*- C++ -*----------------------------------*\
| =========                 |                                                 |
| \\      /  F ield         | OpenFOAM: The Open Source CFD Toolbox           |
|  \\    /   O peration     | Version:  2406                                  |
|   \\  /    A nd           | Website:  www.openfoam.com                      |
|    \\/     M anipulation  |                                                 |
\*---------------------------------------------------------------------------*/
FoamFile
{
    version     2.0;
    format      ascii;
    arch        "LSB;label=32;scalar=64";
    class       volScalarField;
    location    "0.45";
    object      gradTx;
}
// * * * * * * * * * * * * * * * * * * * * * * * * * * * * * * * * * * * * * //

dimensions      [0 -1 0 1 0 0 0];

internalField   nonuniform List<scalar> 
2500
(
0.0142425
0.0424785
0.0700539
0.0965685
0.121583
0.144709
0.165582
0.183875
0.199298
0.211604
0.220594
0.22612
0.228088
0.226458
0.221249
0.212536
0.20045
0.185176
0.166952
0.146065
0.122843
0.0976567
0.0709063
0.04302
0.0144445
-0.014362
-0.042937
-0.0708224
-0.0975714
-0.122756
-0.145976
-0.166862
-0.185083
-0.200355
-0.21244
-0.221152
-0.226361
-0.227991
-0.226025
-0.220502
-0.211516
-0.199215
-0.1838
-0.165516
-0.144653
-0.121541
-0.0965418
-0.0700474
-0.0424699
-0.0142315
0.014311
0.0426869
0.0704002
0.0970447
0.122182
0.145421
0.166397
0.18478
0.200278
0.212645
0.221679
0.227232
0.229209
0.227571
0.222336
0.21358
0.201435
0.186086
0.167773
0.146783
0.123448
0.0981378
0.0712566
0.0432341
0.014519
-0.0144281
-0.0431426
-0.071164
-0.0980435
-0.123351
-0.146684
-0.167671
-0.185982
-0.201328
-0.213472
-0.222226
-0.22746
-0.229098
-0.227123
-0.221573
-0.212543
-0.200183
-0.184692
-0.166319
-0.145355
-0.122129
-0.097008
-0.070385
-0.0426829
-0.0143083
0.014451
0.0431043
0.0710874
0.0979907
0.123373
0.146837
0.168017
0.186578
0.202227
0.214712
0.223834
0.22944
0.231436
0.229782
0.224496
0.215654
0.203391
0.187893
0.169402
0.148209
0.124648
0.0990932
0.0719523
0.043659
0.0146668
-0.0145595
-0.0435509
-0.0718424
-0.0989808
-0.124532
-0.14809
-0.169279
-0.187766
-0.203259
-0.21552
-0.224358
-0.229642
-0.231296
-0.229301
-0.223698
-0.214581
-0.202102
-0.186463
-0.167913
-0.146747
-0.123297
-0.0979325
-0.0710495
-0.0430842
-0.0144442
0.0146573
0.0437205
0.0721036
0.0993903
0.125134
0.148933
0.170414
0.189239
0.20511
0.217773
0.227023
0.232709
0.234732
0.233054
0.227692
0.218724
0.206286
0.190568
0.171814
0.15032
0.126425
0.100508
0.072983
0.0442894
0.0148871
-0.0147522
-0.0441531
-0.072844
-0.100365
-0.126277
-0.150167
-0.171655
-0.190402
-0.206114
-0.218546
-0.227509
-0.232867
-0.234544
-0.232521
-0.226839
-0.217594
-0.204939
-0.189079
-0.170268
-0.148804
-0.125025
-0.0993029
-0.0720413
-0.0436844
-0.0146454
0.0149271
0.0445264
0.0734331
0.101222
0.127439
0.151675
0.17355
0.192721
0.208883
0.221778
0.231198
0.236987
0.239046
0.237336
0.231875
0.222743
0.210076
0.194069
0.174972
0.153084
0.128752
0.102362
0.0743339
0.0451167
0.0151782
-0.0150013
-0.0449376
-0.0741508
-0.102173
-0.128556
-0.152879
-0.174757
-0.193844
-0.209841
-0.222499
-0.231624
-0.237078
-0.238785
-0.236725
-0.230939
-0.221526
-0.208642
-0.192495
-0.173343
-0.151491
-0.127281
-0.101094
-0.0733396
-0.0444709
-0.0149089
0.0152563
0.0455097
0.0750551
0.103456
0.130251
0.155021
0.177378
0.196971
0.213488
0.226666
0.236292
0.242208
0.244311
0.242563
0.236981
0.227647
0.214701
0.198343
0.178827
0.156459
0.131594
0.104626
0.0759855
0.04613
0.015538
-0.0152999
-0.0458888
-0.0757381
-0.10437
-0.131327
-0.156178
-0.178531
-0.198032
-0.214375
-0.227307
-0.236629
-0.242201
-0.243943
-0.241837
-0.235925
-0.226308
-0.213144
-0.196647
-0.177082
-0.154757
-0.130024
-0.103272
-0.0749195
-0.0454282
-0.0152295
0.0156398
0.046655
0.0769444
0.106059
0.133527
0.158919
0.181838
0.201921
0.218853
0.23236
0.242227
0.24829
0.250445
0.248652
0.242929
0.233361
0.220091
0.203323
0.183319
0.160393
0.134908
0.107268
0.0779145
0.0473164
0.0159642
-0.0156392
-0.0469868
-0.0775758
-0.106916
-0.134539
-0.160005
-0.182909
-0.20289
-0.219635
-0.232884
-0.242433
-0.24814
-0.249923
-0.247764
-0.241704
-0.231849
-0.218361
-0.201459
-0.181413
-0.158541
-0.133203
-0.105796
-0.0767502
-0.0465377
-0.015601
0.0160715
0.0479444
0.0790715
0.10899
0.137216
0.163308
0.186858
0.207495
0.224893
0.238772
0.248909
0.255138
0.257352
0.255508
0.249628
0.239796
0.226161
0.208933
0.188381
0.164827
0.138645
0.110249
0.080094
0.0486614
0.016455
-0.0160084
-0.0482079
-0.0796272
-0.109763
-0.138134
-0.164287
-0.187809
-0.208328
-0.225522
-0.239125
-0.248929
-0.254786
-0.256614
-0.254393
-0.248167
-0.238045
-0.224193
-0.206836
-0.186253
-0.162768
-0.136753
-0.108615
-0.0787955
-0.0477773
-0.0160161
0.0165447
0.0493578
0.0814032
0.112203
0.141259
0.168119
0.192362
0.213606
0.231514
0.245801
0.256235
0.262646
0.264924
0.263026
0.256973
0.246853
0.232818
0.215087
0.193934
0.169693
0.142748
0.113526
0.0824943
0.0501492
0.0170092
-0.0163939
-0.0495241
-0.0818499
-0.112854
-0.14204
-0.168943
-0.193137
-0.214241
-0.231924
-0.245911
-0.255989
-0.262008
-0.263882
-0.261593
-0.255185
-0.244771
-0.230523
-0.212671
-0.191503
-0.167353
-0.140604
-0.111672
-0.0810128
-0.0491209
-0.0164661
0.0170521
0.0508731
0.0839029
0.115647
0.145594
0.173277
0.198263
0.220157
0.238613
0.253336
0.264089
0.270696
0.273044
0.271087
0.264849
0.254421
0.23996
0.221689
0.199894
0.174919
0.147157
0.117052
0.0850836
0.0517637
0.0176266
-0.0167796
-0.0509026
-0.0841949
-0.116123
-0.146177
-0.173878
-0.198787
-0.220511
-0.238711
-0.253104
-0.263472
-0.26966
-0.27158
-0.269215
-0.262611
-0.251885
-0.237215
-0.218838
-0.19705
-0.172196
-0.144669
-0.114899
-0.0833532
-0.0505391
-0.0169409
0.0175856
0.0524665
0.0865315
0.119269
0.150153
0.178701
0.204468
0.227046
0.246078
0.261261
0.27235
0.279162
0.281583
0.279566
0.273135
0.262384
0.247475
0.228639
0.206171
0.180425
0.151809
0.120779
0.0878292
0.0534889
0.0183089
-0.0171459
-0.0523059
-0.0866069
-0.119499
-0.150457
-0.178987
-0.204638
-0.227005
-0.245739
-0.260551
-0.271215
-0.277573
-0.279538
-0.277089
-0.270279
-0.259227
-0.244116
-0.225194
-0.202764
-0.177183
-0.148854
-0.11822
-0.0857609
-0.0519977
-0.0174293
0.0181369
0.054113
0.0892476
0.123011
0.154863
0.184306
0.21088
0.234165
0.253793
0.269451
0.280887
0.287913
0.29041
0.288332
0.281702
0.270618
0.255249
0.235832
0.212671
0.186133
0.156637
0.124655
0.090698
0.0553102
0.0190602
-0.0174693
-0.0536911
-0.0890235
-0.1229
-0.154779
-0.184154
-0.210557
-0.233575
-0.252848
-0.26808
-0.279039
-0.285564
-0.287566
-0.285027
-0.278002
-0.266615
-0.251056
-0.23158
-0.208501
-0.182186
-0.15305
-0.121548
-0.0881725
-0.0534583
-0.0179182
0.0186974
0.0557867
0.0920086
0.126815
0.159651
0.190004
0.217398
0.241402
0.261636
0.277778
0.289567
0.29681
0.299387
0.297247
0.290417
0.278997
0.263162
0.243157
0.219297
0.191957
0.161574
0.128632
0.0936582
0.0572149
0.019888
-0.0177217
-0.0550092
-0.091375
-0.126236
-0.159034
-0.189247
-0.216398
-0.240058
-0.25986
-0.2755
-0.286743
-0.293424
-0.295454
-0.292816
-0.28557
-0.273844
-0.257838
-0.237813
-0.214094
-0.187058
-0.157132
-0.124783
-0.0905157
-0.0548769
-0.018393
0.0192581
0.0574613
0.094771
0.130622
0.164442
0.195705
0.22392
0.248644
0.269485
0.28611
0.298254
0.305716
0.308373
0.306174
0.299145
0.287392
0.271095
0.250506
0.22595
0.197817
0.166553
0.132659
0.0966798
0.0591935
0.020804
-0.0178696
-0.0562043
-0.093583
-0.129406
-0.163099
-0.194126
-0.221996
-0.246272
-0.266578
-0.282602
-0.294105
-0.300922
-0.302965
-0.300219
-0.292748
-0.280687
-0.264243
-0.243688
-0.219356
-0.191634
-0.16096
-0.127813
-0.0927082
-0.0562034
-0.0188369
0.0198103
0.0591103
0.0974913
0.13437
0.16916
0.20132
0.230344
0.255776
0.277215
0.294318
0.306811
0.314491
0.317228
0.314973
0.307753
0.295675
0.278927
0.25777
0.232537
0.203629
0.171509
0.136692
0.0997368
0.0612408
0.0218254
-0.0178729
-0.0572128
-0.0955602
-0.132298
-0.166839
-0.198632
-0.227174
-0.252019
-0.272783
-0.28915
-0.300878
-0.307802
-0.309835
-0.306968
-0.299269
-0.286882
-0.270023
-0.248972
-0.224073
-0.195724
-0.164373
-0.130508
-0.0946555
-0.0573802
-0.0192304
0.0203452
0.0607078
0.100127
0.138001
0.173731
0.206759
0.236567
0.262687
0.284706
0.302273
0.315106
0.322998
0.325816
0.323509
0.316107
0.303721
0.286542
0.264841
0.238962
0.209317
0.176382
0.140687
0.102808
0.0633577
0.0229758
-0.0176835
-0.0579618
-0.0972081
-0.13479
-0.170105
-0.202591
-0.231733
-0.257078
-0.278234
-0.294884
-0.306785
-0.313773
-0.315766
-0.31276
-0.304832
-0.292135
-0.274892
-0.253396
-0.227999
-0.19911
-0.167185
-0.13272
-0.0962479
-0.0583404
-0.0195512
0.0208545
0.0622285
0.102635
0.141458
0.178083
0.211938
0.242493
0.269268
0.29184
0.309849
0.323009
0.331105
0.334003
0.331651
0.324081
0.311407
0.293828
0.271621
0.24514
0.214809
0.181117
0.144609
0.105878
0.0655516
0.0242871
-0.0172444
-0.0583679
-0.0984164
-0.136743
-0.172732
-0.205809
-0.235453
-0.261201
-0.282661
-0.299513
-0.311516
-0.318511
-0.320421
-0.317254
-0.309094
-0.296105
-0.278523
-0.25665
-0.23085
-0.201538
-0.169179
-0.134273
-0.0973577
-0.0590061
-0.019773
0.02133
0.0636485
0.104978
0.144686
0.182147
0.216774
0.248027
0.275415
0.298504
0.316929
0.330395
0.338685
0.341662
0.339274
0.331554
0.318621
0.300679
0.278013
0.250988
0.220038
0.185666
0.148431
0.10894
0.067839
0.0258005
-0.0164879
-0.0583354
-0.0990603
-0.138002
-0.174534
-0.208072
-0.238087
-0.264114
-0.28576
-0.302706
-0.314717
-0.321642
-0.323415
-0.320054
-0.311657
-0.298401
-0.280536
-0.258375
-0.232292
-0.202711
-0.1701
-0.134962
-0.0978337
-0.0592849
-0.0198648
0.0217643
0.0649452
0.107117
0.147635
0.185858
0.221192
0.253083
0.281031
0.304595
0.323402
0.337151
0.345623
0.348677
0.346263
0.338416
0.325258
0.307
0.283934
0.256434
0.224948
0.189989
0.152131
0.111997
0.0702462
0.0275683
-0.0153339
-0.0577548
-0.0989991
-0.138394
-0.175304
-0.209137
-0.23936
-0.265508
-0.287189
-0.304091
-0.315989
-0.322744
-0.324304
-0.320704
-0.312059
-0.298565
-0.280484
-0.258146
-0.231933
-0.202276
-0.169645
-0.134543
-0.097496
-0.0590667
-0.0197896
0.0221504
0.0660982
0.109019
0.150256
0.189159
0.225122
0.257582
0.286029
0.310018
0.329167
0.343172
0.35181
0.354942
0.352514
0.344566
0.331224
0.312705
0.289308
0.261418
0.229492
0.194058
0.155702
0.115061
0.0728109
0.0296553
-0.0136883
-0.0565004
-0.0980734
-0.137725
-0.17481
-0.208734
-0.238963
-0.265033
-0.28656
-0.303243
-0.314873
-0.321326
-0.322575
-0.318673
-0.309762
-0.296056
-0.27784
-0.255458
-0.229303
-0.199812
-0.167453
-0.132721
-0.0961284
-0.0582193
-0.0195029
0.0224823
0.0670893
0.110654
0.15251
0.191997
0.228501
0.261451
0.290331
0.314687
0.334134
0.348365
0.357154
0.360361
0.357935
0.349917
0.336438
0.31772
0.294073
0.265889
0.233636
0.197855
0.159146
0.118158
0.0755839
0.0321402
-0.0114413
-0.0544286
-0.0961031
-0.135774
-0.172791
-0.206558
-0.236543
-0.262291
-0.283429
-0.299674
-0.310837
-0.316822
-0.317627
-0.31334
-0.304129
-0.290239
-0.271978
-0.24971
-0.223842
-0.194813
-0.163086
-0.129141
-0.093469
-0.056582
-0.0189505
0.0227548
0.0679027
0.111997
0.154361
0.194328
0.231278
0.264632
0.293869
0.31853
0.338228
0.352652
0.361575
0.364857
0.362449
0.354396
0.340832
0.321988
0.29818
0.26981
0.237358
0.201376
0.162478
0.121327
0.07863
0.0351171
-0.00846622
-0.0513763
-0.092885
-0.132295
-0.168953
-0.202264
-0.231705
-0.256832
-0.27729
-0.292823
-0.303269
-0.30857
-0.308762
-0.303971
-0.294407
-0.280352
-0.262148
-0.24018
-0.214872
-0.186666
-0.156014
-0.123373
-0.0891988
-0.0539591
-0.0180666
0.0229634
0.0685258
0.113025
0.155779
0.196115
0.233408
0.267074
0.296589
0.32149
0.341387
0.355969
0.365008
0.368365
0.365995
0.357945
0.344356
0.325464
0.301595
0.27316
0.240651
0.204631
0.165728
0.124621
0.0820287
0.0386964
-0.00461776
-0.047159
-0.0881907
-0.127011
-0.162966
-0.195466
-0.224
-0.248142
-0.267565
-0.282044
-0.29146
-0.295801
-0.295155
-0.289701
-0.279702
-0.26549
-0.247449
-0.225997
-0.201574
-0.174626
-0.14559
-0.114889
-0.0829272
-0.0501105
-0.0167701
0.0231051
0.0689487
0.113723
0.156742
0.197331
0.234858
0.26874
0.298449
0.32352
0.343563
0.358267
0.367404
0.370839
0.368528
0.360524
0.346974
0.32812
0.304299
0.275931
0.24352
0.207643
0.168941
0.128107
0.085875
0.0430052
0.000268245
-0.04157
-0.0817655
-0.119613
-0.15446
-0.185728
-0.21292
-0.235638
-0.253589
-0.266593
-0.274586
-0.277617
-0.275839
-0.269506
-0.258949
-0.244567
-0.226798
-0.206105
-0.182952
-0.157786
-0.131023
-0.103041
-0.074174
-0.0447408
-0.0149614
0.0231775
0.0691648
0.11408
0.157236
0.197956
0.235608
0.269606
0.299421
0.324592
0.344727
0.359515
0.368733
0.372248
0.370021
0.362109
0.348667
0.329946
0.30629
0.278132
0.245988
0.21045
0.172173
0.131866
0.0902792
0.0481872
0.006375
-0.0343804
-0.0733274
-0.109758
-0.143025
-0.172562
-0.197895
-0.218659
-0.234607
-0.245617
-0.251694
-0.252967
-0.249679
-0.242175
-0.230881
-0.21628
-0.198889
-0.179228
-0.157792
-0.135034
-0.111343
-0.0870333
-0.0623471
-0.0374851
-0.0125172
0.0231796
0.069171
0.114091
0.157254
0.197982
0.235644
0.269657
0.299494
0.324692
0.344863
0.3597
0.368983
0.372583
0.370465
0.362695
0.349435
0.330945
0.30758
0.279786
0.248092
0.213105
0.175497
0.135995
0.0953658
0.054402
0.0139037
-0.0253395
-0.0625678
-0.097071
-0.128209
-0.15543
-0.178289
-0.196463
-0.209762
-0.218139
-0.221685
-0.220634
-0.215343
-0.206278
-0.193988
-0.179072
-0.162148
-0.143815
-0.124616
-0.105011
-0.0853559
-0.0658841
-0.0467149
-0.0278919
-0.00928495
0.0231114
0.0689673
0.113756
0.156794
0.197408
0.23497
0.268897
0.298667
0.323821
0.343975
0.358825
0.368158
0.371848
0.36987
0.362295
0.349295
0.331141
0.3082
0.280931
0.249881
0.215672
0.178997
0.140601
0.101272
0.0618227
0.0230712
-0.0141776
-0.0491539
-0.0811448
-0.109517
-0.133737
-0.153395
-0.168218
-0.178088
-0.183046
-0.183299
-0.179207
-0.171277
-0.160131
-0.146479
-0.131076
-0.114676
-0.0979862
-0.0816182
-0.0660494
-0.0515923
-0.03838
-0.0263709
-0.0154009
-0.00507509
0.022974
0.0685572
0.113081
0.155867
0.196246
0.233595
0.267338
0.296956
0.321997
0.342081
0.356912
0.36628
0.370069
0.368262
0.360938
0.34828
0.330572
0.308193
0.281621
0.251418
0.218229
0.182767
0.145801
0.108144
0.0706325
0.0341065
-0.000609936
-0.0327334
-0.0615457
-0.0864195
-0.106843
-0.122444
-0.13301
-0.138507
-0.139089
-0.135098
-0.127062
-0.115673
-0.101756
-0.0862331
-0.0700635
-0.0541881
-0.039463
-0.0265978
-0.0161012
-0.00824002
-0.00301943
-0.000190194
0.000684824
0.000348369
0.0227698
0.0679474
0.112076
0.154486
0.194514
0.231545
0.265008
0.294393
0.319253
0.339218
0.353997
0.36339
0.367289
0.365685
0.35867
0.346439
0.329289
0.307617
0.281918
0.252777
0.220861
0.186909
0.15172
0.116135
0.0810204
0.0472447
0.0156568
-0.012941
-0.0378209
-0.0583586
-0.0740631
-0.0846044
-0.0898393
-0.0898325
-0.0848702
-0.0754648
-0.0623472
-0.0464456
-0.0288479
-0.0107488
0.00661849
0.0220623
0.0345182
0.0431349
0.0473485
0.0469395
0.0420605
0.0332274
0.0212342
0.00728
0.022502
0.0671478
0.110759
0.152675
0.192242
0.228852
0.261945
0.291019
0.315637
0.335435
0.350135
0.359543
0.363564
0.362199
0.355553
0.343836
0.32736
0.306542
0.281898
0.254039
0.223659
0.19153
0.158483
0.125397
0.0931741
0.0627195
0.0349153
0.0105906
-0.0095099
-0.0247598
-0.0346857
-0.0390011
-0.0376383
-0.0307753
-0.0188546
-0.00259165
0.017032
0.0387926
0.0612693
0.0829105
0.102122
0.117371
0.127305
0.130865
0.127395
0.116717
0.0991768
0.0756292
0.0473343
0.0160887
0.022175
0.0661716
0.10915
0.150463
0.189465
0.225561
0.258201
0.286893
0.31121
0.3308
0.345395
0.354813
0.358969
0.35788
0.351663
0.340546
0.324861
0.305045
0.281642
0.25529
0.226718
0.196734
0.166213
0.136076
0.107272
0.0807532
0.057446
0.0382171
0.0238388
0.014949
0.0120102
0.0152677
0.0247103
0.0400344
0.060618
0.085506
0.113413
0.14275
0.171674
0.198173
0.220174
0.235685
0.24295
0.240611
0.227855
0.204534
0.171221
0.129204
0.08035
0.0272383
0.0217941
0.0650343
0.107276
0.147885
0.18623
0.221726
0.253836
0.282081
0.306046
0.325391
0.339859
0.349283
0.353591
0.352814
0.347089
0.336658
0.321879
0.303214
0.281236
0.256618
0.230128
0.202621
0.17502
0.148301
0.123472
0.101544
0.0835019
0.0702646
0.0626473
0.0613135
0.0667266
0.079099
0.0983415
0.124017
0.155305
0.19097
0.229368
0.268461
0.305879
0.339015
0.365169
0.381724
0.386363
0.37729
0.353446
0.314673
0.261813
0.196704
0.122003
0.0413145
0.0213653
0.0637543
0.105167
0.144984
0.182588
0.217409
0.248923
0.276664
0.300232
0.3193
0.333624
0.343053
0.34753
0.347103
0.341927
0.332268
0.318507
0.301138
0.280766
0.258107
0.233975
0.209278
0.184998
0.16218
0.141903
0.125253
0.113291
0.107008
0.107281
0.114821
0.13011
0.153343
0.184363
0.222598
0.267011
0.316059
0.367672
0.419275
0.467842
0.510011
0.542254
0.561113
0.563486
0.54694
0.510019
0.452495
0.375516
0.281612
0.174476
0.0590612
0.0208956
0.0623522
0.102856
0.141807
0.178599
0.21268
0.24354
0.27073
0.293863
0.312627
0.326795
0.336231
0.340894
0.340853
0.336283
0.327477
0.314842
0.298907
0.280318
0.259835
0.238329
0.216771
0.196214
0.177784
0.162647
0.151985
0.146955
0.148644
0.158019
0.175863
0.202706
0.238751
0.283793
0.337136
0.397525
0.463077
0.531244
0.598816
0.661965
0.716373
0.757433
0.780551
0.781524
0.756989
0.704867
0.624744
0.518104
0.388358
0.240553
0.081428
0.0203924
0.0608503
0.100381
0.138403
0.174327
0.207615
0.237776
0.264375
0.287043
0.305484
0.319487
0.328932
0.333801
0.33418
0.33027
0.32239
0.310981
0.29661
0.279967
0.261867
0.243244
0.225142
0.2087
0.195138
0.18573
0.181772
0.184546
0.195263
0.215013
0.244688
0.284903
0.335907
0.397481
0.468838
0.548513
0.634275
0.723055
0.810908
0.893049
0.963965
1.01765
1.04798
1.04921
1.01661
0.94713
0.839961
0.696946
0.522614
0.32381
0.109635
0.0198639
0.0592726
0.0977816
0.134828
0.169839
0.202295
0.231722
0.257703
0.279884
0.297987
0.31182
0.321281
0.326372
0.327203
0.324001
0.317114
0.30702
0.294328
0.27978
0.264253
0.24875
0.234401
0.222444
0.21421
0.211102
0.214556
0.226004
0.24682
0.278253
0.321351
0.376866
0.445145
0.526013
0.618637
0.721389
0.831705
0.945973
1.05944
1.1662
1.25927
1.33087
1.3728
1.37716
1.33721
1.24835
1.10906
0.921515
0.691701
0.428862
0.145259
0.0193183
0.0576442
0.0950985
0.131138
0.165207
0.196805
0.225476
0.250819
0.2725
0.290258
0.30392
0.313405
0.318735
0.320045
0.31759
0.311752
0.303049
0.292136
0.279811
0.26702
0.254848
0.244518
0.237383
0.234904
0.238631
0.250168
0.271133
0.303097
0.34752
0.405659
0.478465
0.56646
0.669588
0.787054
0.917141
1.05702
1.20255
1.34814
1.48662
1.60928
1.70606
1.76604
1.77827
1.733
1.62321
1.4461
1.2041
0.905123
0.561699
0.190344
0.0187644
0.0559909
0.0923744
0.127392
0.160506
0.191233
0.219137
0.243835
0.26501
0.282422
0.295915
0.305431
0.311014
0.312825
0.31115
0.306405
0.299151
0.290094
0.280096
0.270175
0.261506
0.255421
0.253397
0.257045
0.268084
0.288316
0.319576
0.36368
0.422348
0.497112
0.589202
0.699403
0.827889
0.97402
1.13612
1.3112
1.49472
1.68026
1.85935
2.02126
2.15318
2.24057
2.26822
2.2219
2.09068
1.86944
1.56079
1.1753
0.730111
0.247538
0.0182109
0.0543389
0.0896526
0.123649
0.155808
0.185667
0.212805
0.23686
0.257533
0.274603
0.287934
0.297489
0.303336
0.305664
0.304788
0.301166
0.2954
0.288253
0.280652
0.273697
0.268661
0.266991
0.270305
0.280379
0.299126
0.328571
0.370803
0.427928
0.501985
0.594855
0.708134
0.842984
0.999943
1.17869
1.37776
1.59425
1.82337
2.0581
2.28867
2.50228
2.68281
2.81114
2.8661
2.82667
2.67552
2.40342
2.01287
1.5185
0.944196
0.320252
0.0176665
0.0527143
0.086976
0.119968
0.15119
0.180194
0.206581
0.230006
0.250188
0.266925
0.280103
0.289704
0.295822
0.298674
0.298608
0.296119
0.291858
0.286645
0.281477
0.277539
0.276209
0.27906
0.287862
0.30457
0.331312
0.37036
0.424098
0.494963
0.585373
0.697634
0.833812
0.995571
1.18398
1.39923
1.64035
1.90477
2.18787
2.48231
2.77743
3.05838
3.30555
3.49417
3.59494
3.57653
3.4108
3.08088
2.58879
1.95598
1.21687
0.412791
0.0171399
0.0511426
0.0843867
0.116408
0.146722
0.174901
0.200563
0.223379
0.243089
0.259509
0.272543
0.282198
0.288591
0.291965
0.292704
0.29134
0.288576
0.285288
0.282547
0.281627
0.284015
0.291418
0.305763
0.329201
0.364088
0.412972
0.478558
0.563658
0.671129
0.803777
0.964238
1.15482
1.3773
1.63264
1.92066
2.23957
2.58537
2.95109
3.32579
3.69329
4.03069
4.30694
4.48219
4.50948
4.3419
3.94737
3.32687
2.51517
1.56409
0.530346
0.0166392
0.0496485
0.0819253
0.113024
0.142476
0.169871
0.194844
0.217084
0.236348
0.252469
0.265373
0.275086
0.28175
0.285636
0.28716
0.286896
0.285591
0.284185
0.283822
0.285865
0.291913
0.303809
0.323648
0.35378
0.396807
0.455565
0.533107
0.632657
0.757558
0.91119
1.09686
1.31765
1.57624
1.87463
2.21378
2.59319
3.01018
3.45906
3.9298
4.40626
4.86369
5.26541
5.55918
5.67546
5.53367
5.06847
4.27906
3.23015
2.00421
0.678606
0.0161724
0.0482555
0.0796305
0.109868
0.138517
0.165182
0.189514
0.211218
0.230068
0.245915
0.258702
0.268477
0.275403
0.27978
0.282055
0.28284
0.282931
0.283327
0.285243
0.290133
0.299708
0.315947
0.341113
0.37776
0.428738
0.497186
0.586518
0.700397
0.842688
1.0174
1.22859
1.48025
1.77613
2.11951
2.51291
2.95763
3.45314
3.99619
4.57939
5.1891
5.80193
6.37917
6.858
7.13996
7.08465
6.54412
5.51506
4.13956
2.55484
0.862467
0.0157468
0.0469853
0.0775381
0.106991
0.134908
0.160907
0.184655
0.205872
0.224346
0.239946
0.252631
0.262468
0.269642
0.274478
0.277453
0.279217
0.280612
0.28269
0.286739
0.2943
0.30719
0.327522
0.357723
0.40055
0.459097
0.536806
0.637458
0.765161
0.924326
1.11962
1.35592
1.63819
1.9714
2.36035
2.80942
3.32224
3.90124
4.54689
5.25652
6.02235
6.82794
7.64122
8.4004
8.98438
9.15854
8.54034
7.12308
5.27653
3.2246
1.0831
0.015369
0.0458581
0.075681
0.104438
0.131704
0.157113
0.180342
0.201128
0.219271
0.234653
0.247251
0.257147
0.264548
0.269801
0.273411
0.276062
0.278638
0.282244
0.288232
0.298224
0.314139
0.338215
0.373033
0.421542
0.487075
0.57336
0.684536
0.82515
1.00015
1.21488
1.47502
1.78658
2.15583
2.58918
3.09313
3.67401
4.33784
5.08986
5.93402
6.87191
7.90087
9.00965
10.1669
11.2833
12.0643
11.3692
9.1872
6.63808
3.99593
1.33287
0.0150451
0.0448916
0.0740883
0.102247
0.128955
0.153857
0.176643
0.197059
0.214918
0.230116
0.242642
0.252593
0.260194
0.265812
0.269977
0.273403
0.27701
0.281952
0.289638
0.301763
0.320336
0.347709
0.386603
0.440142
0.511872
0.605791
0.726368
0.878559
1.06782
1.30013
1.58197
1.92035
2.32282
2.79746
3.35289
3.99832
4.74358
5.5992
6.57664
7.68873
8.95081
10.384
12.0253
13.964
16.4873
15.7197
11.6464
8.11268
4.80065
1.58995
0.0147804
0.0441014
0.0727854
0.100454
0.126705
0.151191
0.173613
0.193727
0.211355
0.226403
0.238871
0.24887
0.256638
0.26256
0.267186
0.271257
0.275723
0.281777
0.290878
0.304783
0.325578
0.35571
0.398024
0.455789
0.532742
0.633111
0.761652
0.923681
1.12511
1.37247
1.67297
2.03454
2.4659
2.97665
3.57744
4.28015
5.09822
6.04719
7.14546
8.41586
9.88845
11.6064
13.6388
16.1083
19.2437
18.4121
13.5949
9.38625
5.51697
1.82101
0.0145789
0.0435008
0.0717935
0.099086
0.124986
0.149155
0.1713
0.191182
0.208634
0.223568
0.235993
0.24603
0.253929
0.260086
0.265069
0.269638
0.274768
0.281683
0.29188
0.307165
0.329684
0.361961
0.406935
0.467997
0.549029
0.654445
0.789233
0.959
1.17002
1.42929
1.7446
2.12465
2.57911
3.11889
3.7563
4.50548
5.38285
6.40797
7.60464
9.00273
10.6411
12.5722
14.8693
17.6362
21.0106
20.1274
14.9644
10.3417
6.07326
2.00306
0.0144427
0.0430993
0.0711291
0.098164
0.123826
0.147781
0.169737
0.189464
0.206797
0.221655
0.234051
0.244115
0.252102
0.25842
0.263647
0.268555
0.274137
0.281639
0.292584
0.30881
0.332508
0.366252
0.413048
0.47637
0.560201
0.669087
0.808176
0.98328
1.20093
1.46845
1.79405
2.18695
2.65755
3.21765
3.88078
4.66266
5.58182
6.66056
7.92614
9.41253
11.1626
13.2308
15.6852
18.6068
22.0798
21.1603
15.8239
10.9645
6.44487
2.12607
0.014366
0.0428866
0.070792
0.0976993
0.123242
0.147088
0.168951
0.188599
0.205872
0.220691
0.233074
0.243151
0.251184
0.257583
0.262932
0.268012
0.273824
0.281622
0.292946
0.309649
0.333944
0.368433
0.416154
0.480622
0.565878
0.676529
0.81781
0.995635
1.21667
1.4884
1.81927
2.21877
2.69766
3.26823
3.94461
4.74336
5.6841
6.79047
8.09139
9.62262
11.4284
13.5629
16.0897
19.0772
22.5867
21.6485
16.237
11.2696
6.62934
2.18753
)
;

boundaryField
{
    walls
    {
        type            calculated;
        value           nonuniform List<scalar> 
200
(
0.014366
0.0428866
0.070792
0.0976993
0.123242
0.147088
0.168951
0.188599
0.205872
0.220691
0.233074
0.243151
0.251184
0.257583
0.262932
0.268012
0.273824
0.281622
0.292946
0.309649
0.333944
0.368433
0.416154
0.480622
0.565878
0.676529
0.81781
0.995635
1.21667
1.4884
1.81927
2.21877
2.69766
3.26823
3.94461
4.74336
5.6841
6.79047
8.09139
9.62262
11.4284
13.5629
16.0897
19.0772
22.5867
21.6485
16.237
11.2696
6.62934
2.18753
0
0
0
0
0
0
0
0
0
0
0
0
0
0
0
0
0
0
0
0
0
0
0
0
0
0
0
0
0
0
0
0
0
0
0
0
0
0
0
0
0
0
0
0
0
0
0
0
0
0
0
0
0
0
0
0
0
0
0
0
0
0
0
0
0
0
0
0
0
0
0
0
0
0
0
0
0
0
0
0
0
0
0
0
0
0
0
0
0
0
0
0
0
0
0
0
0
0
0
0
0.0142425
0.0424785
0.0700539
0.0965685
0.121583
0.144709
0.165582
0.183875
0.199298
0.211604
0.220594
0.22612
0.228088
0.226458
0.221249
0.212536
0.20045
0.185176
0.166952
0.146065
0.122843
0.0976567
0.0709063
0.04302
0.0144445
-0.014362
-0.042937
-0.0708224
-0.0975714
-0.122756
-0.145976
-0.166862
-0.185083
-0.200355
-0.21244
-0.221152
-0.226361
-0.227991
-0.226025
-0.220502
-0.211516
-0.199215
-0.1838
-0.165516
-0.144653
-0.121541
-0.0965418
-0.0700474
-0.0424699
-0.0142315
)
;
    }
    frontAndBack
    {
        type            empty;
    }
}


// ************************************************************************* //
