/*--------------------------------*- C++ -*----------------------------------*\
| =========                 |                                                 |
| \\      /  F ield         | OpenFOAM: The Open Source CFD Toolbox           |
|  \\    /   O peration     | Version:  2406                                  |
|   \\  /    A nd           | Website:  www.openfoam.com                      |
|    \\/     M anipulation  |                                                 |
\*---------------------------------------------------------------------------*/
FoamFile
{
    version     2.0;
    format      ascii;
    arch        "LSB;label=32;scalar=64";
    class       volScalarField;
    location    "0.45";
    object      T;
}
// * * * * * * * * * * * * * * * * * * * * * * * * * * * * * * * * * * * * * //

dimensions      [0 0 0 1 0 0 0];

internalField   nonuniform List<scalar> 
2500
(
0.109722
0.110291
0.111421
0.113094
0.115284
0.117957
0.121072
0.12458
0.128427
0.132552
0.136891
0.141376
0.145936
0.150499
0.154994
0.159349
0.163496
0.167367
0.170903
0.174045
0.176745
0.178959
0.180652
0.181795
0.182372
0.182373
0.181798
0.180656
0.178965
0.176753
0.174055
0.170914
0.16738
0.16351
0.159366
0.155013
0.15052
0.145958
0.1414
0.136917
0.13258
0.128457
0.124612
0.121105
0.117991
0.115319
0.113129
0.111457
0.110328
0.109758
0.110291
0.110864
0.111999
0.11368
0.115881
0.118567
0.121698
0.125223
0.129089
0.133234
0.137595
0.142101
0.146684
0.15127
0.155787
0.160163
0.16433
0.168221
0.171773
0.174931
0.177645
0.179869
0.18157
0.18272
0.183299
0.1833
0.182722
0.181575
0.179876
0.177653
0.174942
0.171786
0.168235
0.164346
0.160182
0.155807
0.151293
0.146709
0.142129
0.137624
0.133266
0.129122
0.125259
0.121735
0.118606
0.115921
0.113721
0.11204
0.110905
0.110333
0.111421
0.111999
0.113145
0.114842
0.117065
0.119777
0.122938
0.126498
0.130401
0.134587
0.13899
0.14354
0.148167
0.152798
0.157359
0.161778
0.165985
0.169913
0.173501
0.176689
0.179429
0.181675
0.183393
0.184553
0.185139
0.18514
0.184557
0.183398
0.181683
0.179439
0.176702
0.173515
0.16993
0.166005
0.1618
0.157384
0.152826
0.148198
0.143574
0.139026
0.134626
0.130443
0.126542
0.122984
0.119825
0.117114
0.114893
0.113197
0.112051
0.111474
0.113094
0.11368
0.114842
0.116564
0.118818
0.121569
0.124775
0.128386
0.132345
0.13659
0.141056
0.145671
0.150364
0.155061
0.159686
0.164168
0.168435
0.17242
0.176058
0.179292
0.182071
0.184349
0.186091
0.187269
0.187863
0.187864
0.187273
0.186098
0.184359
0.182083
0.179308
0.176077
0.172442
0.168461
0.164197
0.159719
0.155097
0.150404
0.145715
0.141103
0.136641
0.132399
0.128444
0.124836
0.121633
0.118884
0.116632
0.114912
0.11375
0.113165
0.115284
0.115881
0.117065
0.118818
0.121114
0.123916
0.127181
0.130858
0.134889
0.139213
0.14376
0.148461
0.15324
0.158023
0.162733
0.167298
0.171643
0.175701
0.179406
0.1827
0.185529
0.18785
0.189624
0.190823
0.191428
0.19143
0.190828
0.189633
0.187862
0.185546
0.18272
0.179431
0.17573
0.171677
0.167336
0.162777
0.158071
0.153294
0.14852
0.143825
0.139282
0.134964
0.130937
0.127264
0.124003
0.121204
0.118912
0.117161
0.115978
0.115382
0.117957
0.118567
0.119777
0.121569
0.123916
0.126779
0.130116
0.133875
0.137995
0.142414
0.147062
0.151866
0.15675
0.161638
0.166453
0.171117
0.175559
0.179706
0.183492
0.186859
0.189751
0.192122
0.193936
0.195162
0.195781
0.195783
0.195169
0.193948
0.192139
0.189773
0.186886
0.183526
0.179745
0.175605
0.17117
0.166512
0.161705
0.156824
0.151947
0.147151
0.14251
0.138098
0.133984
0.130233
0.126901
0.124042
0.1217
0.119911
0.118703
0.118094
0.121072
0.121698
0.122938
0.124775
0.127181
0.130116
0.133537
0.13739
0.141614
0.146144
0.150909
0.155833
0.16084
0.165851
0.170786
0.175568
0.180121
0.184372
0.188254
0.191704
0.194669
0.197101
0.19896
0.200217
0.200853
0.200856
0.200227
0.198976
0.197124
0.1947
0.191743
0.1883
0.184426
0.180184
0.175641
0.170869
0.165943
0.160943
0.155947
0.151033
0.146278
0.141759
0.137544
0.1337
0.130287
0.127359
0.124959
0.123127
0.121889
0.121265
0.12458
0.125223
0.126498
0.128386
0.130858
0.133875
0.13739
0.141349
0.14569
0.150345
0.155241
0.160301
0.165446
0.170595
0.175666
0.18058
0.185258
0.189627
0.193616
0.197162
0.200209
0.202708
0.204619
0.205911
0.206565
0.20657
0.205925
0.204641
0.20274
0.200251
0.197214
0.193679
0.189702
0.185346
0.180681
0.175781
0.170724
0.16559
0.160459
0.155414
0.150533
0.145892
0.141565
0.137619
0.134115
0.131108
0.128645
0.126763
0.125493
0.124852
0.128427
0.129089
0.130401
0.132345
0.134889
0.137995
0.141614
0.14569
0.150158
0.15495
0.15999
0.1652
0.170496
0.175797
0.181017
0.186076
0.190891
0.195388
0.199495
0.203146
0.206283
0.208856
0.210824
0.212155
0.21283
0.212836
0.212174
0.210855
0.2089
0.206341
0.203218
0.199583
0.195493
0.191013
0.186216
0.181177
0.175976
0.170696
0.165421
0.160233
0.155213
0.150442
0.145993
0.141935
0.138332
0.135241
0.132708
0.130774
0.129468
0.128809
0.132552
0.133234
0.134587
0.13659
0.139213
0.142414
0.146144
0.150345
0.15495
0.159889
0.165084
0.170453
0.175912
0.181374
0.186755
0.191968
0.196932
0.201567
0.205799
0.209563
0.212796
0.215449
0.217478
0.218852
0.219549
0.219557
0.218878
0.217521
0.21551
0.212876
0.209663
0.205921
0.201711
0.197101
0.192163
0.186976
0.181624
0.17619
0.170761
0.165421
0.160256
0.155346
0.150768
0.146593
0.142886
0.139705
0.137099
0.135109
0.133765
0.133087
0.136891
0.137595
0.13899
0.141056
0.14376
0.147062
0.150909
0.155241
0.15999
0.165084
0.170441
0.175978
0.181607
0.187241
0.19279
0.198166
0.203285
0.208065
0.212431
0.216312
0.219648
0.222385
0.224479
0.225898
0.226619
0.22663
0.225933
0.224538
0.222469
0.219758
0.21645
0.212599
0.208265
0.203518
0.198435
0.193096
0.187587
0.181993
0.176405
0.17091
0.165594
0.160541
0.155829
0.151533
0.147719
0.144446
0.141764
0.139717
0.138334
0.137637
0.141376
0.142101
0.14354
0.145671
0.148461
0.151866
0.155833
0.160301
0.1652
0.170453
0.175978
0.181688
0.187494
0.193305
0.199027
0.204573
0.209852
0.214783
0.219285
0.223289
0.226731
0.229555
0.231717
0.233183
0.233929
0.233945
0.233231
0.231798
0.22967
0.226882
0.223479
0.219515
0.215056
0.210172
0.204942
0.199449
0.193781
0.188027
0.182278
0.176626
0.171158
0.165961
0.161116
0.156698
0.152776
0.14941
0.146654
0.144548
0.143127
0.14241
0.145936
0.146684
0.148167
0.150364
0.15324
0.15675
0.16084
0.165446
0.170496
0.175912
0.181607
0.187494
0.19348
0.19947
0.20537
0.211086
0.21653
0.221613
0.226256
0.230385
0.233934
0.236848
0.239079
0.240594
0.241368
0.24139
0.240659
0.239189
0.237004
0.23414
0.230643
0.22657
0.221987
0.216968
0.211592
0.205948
0.200123
0.194211
0.188305
0.182498
0.176882
0.171544
0.166568
0.162032
0.158005
0.154549
0.151719
0.149558
0.148099
0.147363
0.150499
0.15127
0.152798
0.155061
0.158023
0.161638
0.165851
0.170595
0.175797
0.181374
0.187241
0.193305
0.19947
0.205639
0.211717
0.217605
0.223212
0.228449
0.233233
0.237487
0.241145
0.244149
0.246452
0.248016
0.248819
0.248849
0.248105
0.2466
0.244361
0.241424
0.237837
0.233659
0.228957
0.223808
0.218294
0.212504
0.20653
0.200467
0.194412
0.188459
0.182702
0.177231
0.172132
0.167483
0.163358
0.159818
0.156919
0.154706
0.153211
0.152457
0.154994
0.155787
0.157359
0.159686
0.162733
0.166453
0.170786
0.175666
0.181017
0.186755
0.19279
0.199027
0.20537
0.211717
0.217969
0.224027
0.229796
0.235184
0.240106
0.244485
0.248252
0.251346
0.253719
0.255335
0.256169
0.256208
0.255454
0.25392
0.251631
0.248628
0.244958
0.240682
0.235871
0.230602
0.22496
0.219036
0.212925
0.206724
0.200531
0.194445
0.18856
0.18297
0.177759
0.173011
0.168797
0.165182
0.162222
0.159961
0.158435
0.157666
0.159349
0.160163
0.161778
0.164168
0.167298
0.171117
0.175568
0.18058
0.186076
0.191968
0.198166
0.204573
0.211086
0.217605
0.224027
0.23025
0.236176
0.241711
0.246769
0.25127
0.255142
0.258325
0.260769
0.262437
0.263304
0.263356
0.262596
0.261038
0.258708
0.255646
0.251904
0.247543
0.242634
0.23726
0.231505
0.225464
0.219234
0.212913
0.206603
0.200403
0.19441
0.188717
0.183414
0.178582
0.174294
0.170617
0.167607
0.165308
0.163757
0.162975
0.163496
0.16433
0.165985
0.168435
0.171643
0.175559
0.180121
0.185258
0.190891
0.196932
0.203285
0.209852
0.21653
0.223212
0.229796
0.236176
0.242252
0.247929
0.253117
0.257734
0.261709
0.264979
0.267493
0.269214
0.270115
0.270186
0.269426
0.267851
0.265489
0.262381
0.25858
0.254149
0.249162
0.243701
0.237855
0.23172
0.225395
0.21898
0.212578
0.20629
0.200214
0.194445
0.189073
0.184179
0.179839
0.176118
0.173072
0.170747
0.169178
0.168387
0.167367
0.168221
0.169913
0.17242
0.175701
0.179706
0.184372
0.189627
0.195388
0.201567
0.208065
0.214783
0.221613
0.228449
0.235184
0.241711
0.247929
0.253738
0.259049
0.263778
0.267851
0.271205
0.273788
0.275562
0.276502
0.276594
0.275842
0.274261
0.27188
0.268741
0.264898
0.260418
0.255375
0.249853
0.243944
0.237745
0.231356
0.224879
0.218419
0.212077
0.205953
0.200141
0.194731
0.189806
0.18544
0.181698
0.178636
0.176299
0.174722
0.173928
0.170903
0.171773
0.173501
0.176058
0.179406
0.183492
0.188254
0.193616
0.199495
0.205799
0.212431
0.219285
0.226256
0.233233
0.240106
0.246769
0.253117
0.259049
0.264474
0.269307
0.273472
0.276906
0.279557
0.281386
0.282367
0.282489
0.281754
0.280179
0.277794
0.274643
0.270782
0.266277
0.261207
0.255657
0.24972
0.243493
0.23708
0.230584
0.224108
0.217755
0.211625
0.205813
0.200406
0.195487
0.191129
0.187396
0.184343
0.182014
0.180443
0.179652
0.174045
0.174931
0.176689
0.179292
0.1827
0.186859
0.191704
0.197162
0.203146
0.209563
0.216312
0.223289
0.230385
0.237487
0.244485
0.25127
0.257734
0.263778
0.269307
0.274235
0.278486
0.281997
0.284714
0.286599
0.287627
0.287786
0.287079
0.285526
0.283156
0.280017
0.276164
0.271667
0.266605
0.261066
0.255143
0.248936
0.242548
0.236083
0.229645
0.223336
0.217255
0.211494
0.206141
0.201276
0.196969
0.193283
0.190271
0.187974
0.186426
0.185646
0.176745
0.177645
0.179429
0.182071
0.185529
0.189751
0.194669
0.200209
0.206283
0.212796
0.219648
0.226731
0.233934
0.241145
0.248252
0.255142
0.261709
0.267851
0.273472
0.278486
0.282817
0.2864
0.289183
0.291127
0.292207
0.292412
0.291749
0.290235
0.287905
0.284804
0.280993
0.276542
0.271531
0.26605
0.260194
0.254063
0.247761
0.241391
0.235056
0.228857
0.222891
0.217247
0.212011
0.207259
0.203058
0.199466
0.196534
0.194301
0.192796
0.192038
0.178959
0.179869
0.181675
0.184349
0.18785
0.192122
0.197101
0.202708
0.208856
0.215449
0.222385
0.229555
0.236848
0.244149
0.251346
0.258325
0.264979
0.271205
0.276906
0.281997
0.2864
0.290052
0.2929
0.294905
0.296045
0.29631
0.295706
0.294255
0.291991
0.288963
0.285233
0.280872
0.275964
0.270599
0.264873
0.258886
0.252742
0.246543
0.240392
0.234385
0.228615
0.22317
0.218129
0.213563
0.209534
0.206097
0.203294
0.201162
0.199726
0.199003
0.180652
0.18157
0.183393
0.186091
0.189624
0.193936
0.19896
0.204619
0.210824
0.217478
0.224479
0.231717
0.239079
0.246452
0.253719
0.260769
0.267493
0.273788
0.279557
0.284714
0.289183
0.2929
0.295812
0.297884
0.299094
0.299432
0.298909
0.297546
0.295381
0.292466
0.288863
0.284647
0.279903
0.274721
0.2692
0.263439
0.257542
0.251607
0.245735
0.240019
0.234547
0.2294
0.224649
0.22036
0.216586
0.213375
0.210763
0.208779
0.207446
0.206775
0.181795
0.18272
0.184553
0.187269
0.190823
0.195162
0.200217
0.205911
0.212155
0.218852
0.225898
0.233183
0.240594
0.248016
0.255335
0.262437
0.269214
0.275562
0.281386
0.286599
0.291127
0.294905
0.297884
0.300029
0.301319
0.30175
0.30133
0.300087
0.29806
0.295302
0.291881
0.287873
0.283364
0.278448
0.273221
0.267784
0.262237
0.256679
0.251204
0.245899
0.240846
0.236116
0.231774
0.227872
0.224456
0.221561
0.219215
0.217439
0.216248
0.215649
0.182372
0.183299
0.185139
0.187863
0.191428
0.195781
0.200853
0.206565
0.21283
0.219549
0.226619
0.233929
0.241368
0.248819
0.256169
0.263304
0.270115
0.276502
0.282367
0.287627
0.292207
0.296045
0.299094
0.301319
0.302705
0.303247
0.30296
0.301872
0.300027
0.297481
0.294306
0.290579
0.28639
0.281833
0.277005
0.272008
0.266938
0.261889
0.256951
0.252202
0.247715
0.243551
0.23976
0.236382
0.233448
0.23098
0.228994
0.227499
0.2265
0.226
0.182373
0.1833
0.18514
0.187864
0.19143
0.195783
0.200856
0.20657
0.212836
0.219557
0.22663
0.233945
0.24139
0.248849
0.256208
0.263356
0.270186
0.276594
0.282489
0.287786
0.292412
0.29631
0.299432
0.30175
0.303247
0.303926
0.303803
0.302912
0.3013
0.299029
0.296172
0.292812
0.28904
0.284954
0.28065
0.276228
0.271783
0.267403
0.263169
0.259152
0.255409
0.251989
0.248923
0.246236
0.243939
0.242036
0.240525
0.2394
0.238656
0.238285
0.181798
0.182722
0.184557
0.187273
0.190828
0.195169
0.200227
0.205925
0.212174
0.218878
0.225933
0.233231
0.240659
0.248105
0.255454
0.262596
0.269426
0.275842
0.281754
0.287079
0.291749
0.295706
0.298909
0.30133
0.30296
0.303803
0.303883
0.303236
0.301916
0.29999
0.297536
0.294641
0.2914
0.287912
0.284276
0.28059
0.276944
0.273422
0.270093
0.267017
0.264234
0.261774
0.259647
0.257854
0.256382
0.255212
0.254319
0.253677
0.253264
0.253061
0.180656
0.181575
0.183398
0.186098
0.189633
0.193948
0.198976
0.204641
0.210855
0.217521
0.224538
0.231798
0.239189
0.2466
0.25392
0.261038
0.267851
0.274261
0.280179
0.285526
0.290235
0.294255
0.297546
0.300087
0.301872
0.302912
0.303236
0.302888
0.301927
0.300426
0.29847
0.296152
0.293572
0.290832
0.288032
0.285268
0.282628
0.280186
0.278001
0.276115
0.274552
0.273313
0.272384
0.271734
0.27132
0.27109
0.270991
0.27097
0.270983
0.270997
0.178965
0.179876
0.181683
0.184359
0.187862
0.192139
0.197124
0.20274
0.2089
0.21551
0.222469
0.22967
0.237004
0.244361
0.251631
0.258708
0.265489
0.27188
0.277794
0.283156
0.287905
0.291991
0.295381
0.29806
0.300027
0.3013
0.301916
0.301927
0.301399
0.300414
0.299064
0.297451
0.29568
0.293858
0.292087
0.290463
0.289068
0.287969
0.28721
0.286815
0.286781
0.28708
0.287663
0.288461
0.289388
0.290355
0.291266
0.292037
0.292595
0.292886
0.176753
0.177653
0.179439
0.182083
0.185546
0.189773
0.1947
0.200251
0.206341
0.212876
0.219758
0.226882
0.23414
0.241424
0.248628
0.255646
0.262381
0.268741
0.274643
0.280017
0.284804
0.288963
0.292466
0.295302
0.297481
0.299029
0.29999
0.300426
0.300414
0.300045
0.299423
0.298658
0.297863
0.297153
0.296632
0.296398
0.296529
0.29708
0.29808
0.29953
0.301397
0.303615
0.306092
0.308707
0.311326
0.313803
0.315995
0.31777
0.31902
0.319664
0.174055
0.174942
0.176702
0.179308
0.18272
0.186886
0.191743
0.197214
0.203218
0.209663
0.21645
0.223479
0.230643
0.237837
0.244958
0.251904
0.25858
0.264898
0.270782
0.276164
0.280993
0.285233
0.288863
0.291881
0.294306
0.296172
0.297536
0.29847
0.299064
0.299423
0.299662
0.299904
0.300273
0.300892
0.301874
0.303317
0.305295
0.307853
0.311005
0.31472
0.318932
0.323527
0.328359
0.333245
0.337983
0.34236
0.346165
0.349208
0.351333
0.352422
0.170914
0.171786
0.173515
0.176077
0.179431
0.183526
0.1883
0.193679
0.199583
0.205921
0.212599
0.219515
0.22657
0.233659
0.240682
0.247543
0.254149
0.260418
0.266277
0.271667
0.276542
0.280872
0.284647
0.287873
0.290579
0.292812
0.294641
0.296152
0.297451
0.298658
0.299904
0.301327
0.303068
0.305261
0.308028
0.311473
0.315667
0.320648
0.326406
0.332883
0.339966
0.34749
0.355235
0.362944
0.370327
0.377082
0.382914
0.387554
0.390782
0.392435
0.16738
0.168235
0.16993
0.172442
0.17573
0.179745
0.184426
0.189702
0.195493
0.201711
0.208265
0.215056
0.221987
0.228957
0.235871
0.242634
0.249162
0.255375
0.261207
0.266605
0.271531
0.275964
0.279903
0.283364
0.28639
0.28904
0.2914
0.293572
0.29568
0.297863
0.300273
0.303068
0.306407
0.310442
0.315311
0.321123
0.327953
0.33583
0.344724
0.354543
0.365124
0.376233
0.387569
0.398773
0.409447
0.419174
0.427546
0.434194
0.438811
0.441173
0.16351
0.164346
0.166005
0.168461
0.171677
0.175605
0.180184
0.185346
0.191013
0.197101
0.203518
0.210172
0.216968
0.223808
0.230602
0.23726
0.243701
0.249853
0.255657
0.261066
0.26605
0.270599
0.274721
0.278448
0.281833
0.284954
0.287912
0.290832
0.293858
0.297153
0.300892
0.305261
0.310442
0.316612
0.323928
0.332513
0.342451
0.353763
0.366403
0.380242
0.395058
0.410539
0.42628
0.4418
0.45656
0.469995
0.48155
0.490719
0.497084
0.500341
0.159366
0.160182
0.1618
0.164197
0.167336
0.17117
0.175641
0.180681
0.186216
0.192163
0.198435
0.204942
0.211592
0.218294
0.22496
0.231505
0.237855
0.243944
0.24972
0.255143
0.260194
0.264873
0.2692
0.273221
0.277005
0.28065
0.284276
0.288032
0.292087
0.296632
0.301874
0.308028
0.315311
0.323928
0.334064
0.345868
0.359435
0.37479
0.391872
0.410512
0.43043
0.451218
0.472349
0.493187
0.513014
0.531072
0.546612
0.55895
0.567517
0.571902
0.155013
0.155807
0.157384
0.159719
0.162777
0.166512
0.170869
0.175781
0.181177
0.186976
0.193096
0.199449
0.205948
0.212504
0.219036
0.225464
0.23172
0.237745
0.243493
0.248936
0.254063
0.258886
0.263439
0.267784
0.272008
0.276228
0.28059
0.285268
0.290463
0.296398
0.303317
0.311473
0.321123
0.332513
0.345868
0.361369
0.379136
0.399208
0.421514
0.445856
0.471885
0.49909
0.526797
0.554177
0.580285
0.604111
0.624647
0.640971
0.652315
0.658126
0.15052
0.151293
0.152826
0.155097
0.158071
0.161705
0.165943
0.170724
0.175976
0.181624
0.187587
0.193781
0.200123
0.20653
0.212925
0.219234
0.225395
0.231356
0.23708
0.242548
0.247761
0.252742
0.257542
0.262237
0.266938
0.271783
0.276944
0.282628
0.289068
0.296529
0.305295
0.315667
0.327953
0.342451
0.359435
0.379136
0.401716
0.427238
0.455642
0.486703
0.520013
0.554946
0.590654
0.626077
0.659974
0.691005
0.717818
0.739169
0.754023
0.761637
0.145958
0.146709
0.148198
0.150404
0.153294
0.156824
0.160943
0.16559
0.170696
0.17619
0.181993
0.188027
0.194211
0.200467
0.206724
0.212913
0.21898
0.224879
0.230584
0.236083
0.241391
0.246543
0.251607
0.256679
0.261889
0.267403
0.273422
0.280186
0.287969
0.29708
0.307853
0.320648
0.33583
0.353763
0.37479
0.399208
0.427238
0.458997
0.494449
0.53337
0.5753
0.619498
0.664922
0.710227
0.753798
0.793854
0.828576
0.856285
0.875588
0.88549
0.1414
0.142129
0.143574
0.145715
0.14852
0.151947
0.155947
0.160459
0.165421
0.170761
0.176405
0.182278
0.188305
0.194412
0.200531
0.206603
0.212578
0.218419
0.224108
0.229645
0.235056
0.240392
0.245735
0.251204
0.256951
0.263169
0.270093
0.278001
0.28721
0.29808
0.311005
0.326406
0.344724
0.366403
0.391872
0.421514
0.455642
0.494449
0.537965
0.585996
0.638057
0.693308
0.750502
0.807952
0.863569
0.914973
0.959706
0.995488
1.02045
1.03326
0.136917
0.137624
0.139026
0.141103
0.143825
0.147151
0.151033
0.155414
0.160233
0.165421
0.17091
0.176626
0.182498
0.188459
0.194445
0.200403
0.20629
0.212077
0.217755
0.223336
0.228857
0.234385
0.240019
0.245899
0.252202
0.259152
0.267017
0.276115
0.286815
0.29953
0.31472
0.332883
0.354543
0.380242
0.410512
0.445856
0.486703
0.53337
0.585996
0.644467
0.708331
0.77669
0.848098
0.920487
0.991159
1.05692
1.11439
1.16047
1.19263
1.20915
0.13258
0.133266
0.134626
0.136641
0.139282
0.14251
0.146278
0.150533
0.155213
0.160256
0.165594
0.171158
0.176882
0.182702
0.18856
0.19441
0.200214
0.205953
0.211625
0.217255
0.222891
0.228615
0.234547
0.240846
0.247715
0.255409
0.264234
0.274552
0.286781
0.301397
0.318932
0.339966
0.365124
0.395058
0.43043
0.471885
0.520013
0.5753
0.638057
0.708331
0.785788
0.869559
0.958066
1.04885
1.13845
1.22252
1.29634
1.3556
1.39695
1.41816
0.128457
0.129122
0.130443
0.132399
0.134964
0.138098
0.141759
0.145892
0.150442
0.155346
0.160541
0.165961
0.171544
0.177231
0.18297
0.188717
0.194445
0.200141
0.205813
0.211494
0.217247
0.22317
0.2294
0.236116
0.243551
0.251989
0.261774
0.273313
0.28708
0.303615
0.323527
0.34749
0.376233
0.410539
0.451218
0.49909
0.554946
0.619498
0.693308
0.77669
0.869559
0.971237
1.08018
1.1936
1.30719
1.41495
1.50993
1.58611
1.63914
1.66628
0.124612
0.125259
0.126542
0.128444
0.130937
0.133984
0.137544
0.141565
0.145993
0.150768
0.155829
0.161116
0.166568
0.172132
0.177759
0.183414
0.189073
0.194731
0.200406
0.206141
0.212011
0.218129
0.224649
0.231774
0.23976
0.248923
0.259647
0.272384
0.287663
0.306092
0.328359
0.355235
0.387569
0.42628
0.472349
0.526797
0.590654
0.664922
0.750502
0.848098
0.958066
1.08018
1.21323
1.3545
1.49883
1.63788
1.7606
1.85848
1.92618
1.96068
0.121105
0.121735
0.122984
0.124836
0.127264
0.130233
0.1337
0.137619
0.141935
0.146593
0.151533
0.156698
0.162032
0.167483
0.173011
0.178582
0.184179
0.189806
0.195487
0.201276
0.207259
0.213563
0.22036
0.227872
0.236382
0.246236
0.257854
0.271734
0.288461
0.308707
0.333245
0.362944
0.398773
0.4418
0.493187
0.554177
0.626077
0.710227
0.807952
0.920487
1.04885
1.1936
1.3545
1.52962
1.71387
1.89596
2.05548
2.18089
2.26655
2.30987
0.117991
0.118606
0.119825
0.121633
0.124003
0.126901
0.130287
0.134115
0.138332
0.142886
0.147719
0.152776
0.158005
0.163358
0.168797
0.174294
0.179839
0.18544
0.191129
0.196969
0.203058
0.209534
0.216586
0.224456
0.233448
0.243939
0.256382
0.27132
0.289388
0.311326
0.337983
0.370327
0.409447
0.45656
0.513014
0.580285
0.659974
0.753798
0.863569
0.991159
1.13845
1.30719
1.49883
1.71387
1.95016
2.19644
2.40493
2.56393
2.67045
2.72377
0.115319
0.115921
0.117114
0.118884
0.121204
0.124042
0.127359
0.131108
0.135241
0.139705
0.144446
0.14941
0.154549
0.159818
0.165182
0.170617
0.176118
0.181698
0.187396
0.193283
0.199466
0.206097
0.213375
0.221561
0.23098
0.242036
0.255212
0.27109
0.290355
0.313803
0.34236
0.377082
0.419174
0.469995
0.531072
0.604111
0.691005
0.793854
0.914973
1.05692
1.22252
1.41495
1.63788
1.89596
2.19644
2.55545
2.82523
3.02131
3.14974
3.21334
0.113129
0.113721
0.114893
0.116632
0.118912
0.1217
0.124959
0.128645
0.132708
0.137099
0.141764
0.146654
0.151719
0.156919
0.162222
0.167607
0.173072
0.178636
0.184343
0.190271
0.196534
0.203294
0.210763
0.219215
0.228994
0.240525
0.254319
0.270991
0.291266
0.315995
0.346165
0.382914
0.427546
0.48155
0.546612
0.624647
0.717818
0.828576
0.959706
1.11439
1.29634
1.50993
1.7606
2.05548
2.40493
2.82523
3.14141
3.36903
3.51686
3.58971
0.111457
0.11204
0.113197
0.114912
0.117161
0.119911
0.123127
0.126763
0.130774
0.135109
0.139717
0.144548
0.149558
0.154706
0.159961
0.165308
0.170747
0.176299
0.182014
0.187974
0.194301
0.201162
0.208779
0.217439
0.227499
0.2394
0.253677
0.27097
0.292037
0.31777
0.349208
0.387554
0.434194
0.490719
0.55895
0.640971
0.739169
0.856285
0.995488
1.16047
1.3556
1.58611
1.85848
2.18089
2.56393
3.02131
3.36903
3.61989
3.78269
3.86282
0.110328
0.110905
0.112051
0.11375
0.115978
0.118703
0.121889
0.125493
0.129468
0.133765
0.138334
0.143127
0.148099
0.153211
0.158435
0.163757
0.169178
0.174722
0.180443
0.186426
0.192796
0.199726
0.207446
0.216248
0.2265
0.238656
0.253264
0.270983
0.292595
0.31902
0.351333
0.390782
0.438811
0.497084
0.567517
0.652315
0.754023
0.875588
1.02045
1.19263
1.39695
1.63914
1.92618
2.26655
2.67045
3.14974
3.51686
3.78269
3.95545
4.04049
0.109758
0.110333
0.111474
0.113165
0.115382
0.118094
0.121265
0.124852
0.128809
0.133087
0.137637
0.14241
0.147363
0.152457
0.157666
0.162975
0.168387
0.173928
0.179652
0.185646
0.192038
0.199003
0.206775
0.215649
0.226
0.238285
0.253061
0.270997
0.292886
0.319664
0.352422
0.392435
0.441173
0.500341
0.571902
0.658126
0.761637
0.88549
1.03326
1.20915
1.41816
1.66628
1.96068
2.30987
2.72377
3.21334
3.58971
3.86282
4.04049
4.12799
)
;

boundaryField
{
    walls
    {
        type            zeroGradient;
    }
    frontAndBack
    {
        type            empty;
    }
}


// ************************************************************************* //
