/*--------------------------------*- C++ -*----------------------------------*\
| =========                 |                                                 |
| \\      /  F ield         | OpenFOAM: The Open Source CFD Toolbox           |
|  \\    /   O peration     | Version:  2406                                  |
|   \\  /    A nd           | Website:  www.openfoam.com                      |
|    \\/     M anipulation  |                                                 |
\*---------------------------------------------------------------------------*/
FoamFile
{
    version     2.0;
    format      ascii;
    arch        "LSB;label=32;scalar=64";
    class       volScalarField;
    location    "200";
    object      omega;
}
// * * * * * * * * * * * * * * * * * * * * * * * * * * * * * * * * * * * * * //

dimensions      [0 0 -1 0 0 0 0];

internalField   nonuniform List<scalar> 
12225
(
37507.5
40327.9
42132.6
43092.7
43561
43633.4
43577.1
43436.5
43220.5
42989.3
42766.1
42548
42358.9
42168.7
42027.3
41859.4
41777.1
41615.5
2347.06
5050.25
6909.02
8342.25
9515.22
10498.1
11278.7
11943.3
12471.2
12938.1
13304.9
13646.5
13901.8
14157.4
14324.1
14512.1
14582.1
14723.8
590.61
1105.55
1571.89
1993.29
2350.77
2697.03
2976.29
3256.97
3470.8
3701.05
3864.27
4057.86
4182.3
4349.39
4442.91
4588.11
4657
4783.08
444.042
549.753
678.868
819.32
941.38
1071.27
1175.61
1290.2
1375.63
1475.62
1544.09
1631.4
1685.38
1761.99
1803.84
1870.2
1905.64
1964.83
433.491
458.182
486.172
535.59
580.505
633.713
677.113
727.786
766.077
812.449
844.911
886.779
913.516
951.2
972.589
1006.25
1023.57
1056.38
437.474
440.229
444.46
457.92
472.351
493.251
510.887
533.485
550.996
573.124
589.11
609.996
623.877
643.335
654.86
672.881
682.211
700.12
438.766
436.73
436.503
438.269
440.788
446.955
452.582
461.408
468.375
478.152
485.36
495.317
502.099
511.869
517.833
527.266
532.268
541.892
439.029
436.785
434.933
433.707
433.028
433.416
434.049
436.098
437.779
441.026
443.433
447.312
449.958
454.152
456.744
461.055
463.436
468.076
439.041
436.915
434.836
433.042
431.338
430.113
428.984
428.447
427.988
428.025
428.286
428.74
429.255
430.212
430.889
432.137
432.932
434.545
439.035
436.934
434.862
432.985
431.124
429.5
427.909
426.584
425.312
424.307
423.353
422.681
421.98
421.591
421.11
420.94
420.638
420.734
439.038
436.926
434.873
432.972
431.115
429.409
427.74
426.226
424.746
423.429
422.133
421.013
419.893
418.96
417.996
417.237
416.4
415.808
439.042
436.918
434.875
432.962
431.116
429.389
427.719
426.164
424.655
423.259
421.899
420.653
419.433
418.327
417.235
416.26
415.284
414.427
439.044
436.913
434.876
432.954
431.114
429.378
427.713
426.143
424.635
423.214
421.847
420.561
419.321
418.158
417.035
415.983
414.966
414.015
439.046
436.909
434.875
432.947
431.11
429.368
427.706
426.129
424.623
423.193
421.827
420.529
419.287
418.107
416.978
415.904
414.876
413.899
439.047
436.908
434.874
432.943
431.106
429.36
427.698
426.118
424.612
423.178
421.811
420.509
419.266
418.081
416.95
415.871
414.84
413.856
439.047
436.906
434.872
432.94
431.102
429.354
427.691
426.109
424.601
423.165
421.797
420.492
419.248
418.061
416.928
415.847
414.813
413.828
439.047
436.906
434.871
432.937
431.099
429.35
427.686
426.101
424.593
423.155
421.785
420.479
419.233
418.044
416.91
415.827
414.792
413.805
439.046
436.905
434.87
432.936
431.097
429.347
427.682
426.096
424.586
423.148
421.776
420.469
419.222
418.032
416.896
415.812
414.776
413.787
439.046
436.905
434.87
432.936
431.096
429.346
427.68
426.094
424.583
423.144
421.772
420.464
419.216
418.025
416.888
415.803
414.767
413.778
439.047
436.906
434.871
432.936
431.097
429.347
427.681
426.096
424.585
423.146
421.774
420.465
419.217
418.027
416.89
415.805
414.769
413.779
439.047
436.906
434.872
432.938
431.099
429.349
427.685
426.099
424.59
423.151
421.78
420.472
419.225
418.035
416.9
415.816
414.782
413.794
439.048
436.905
434.874
432.939
431.103
429.352
427.692
426.106
424.602
423.165
421.803
420.5
419.267
418.087
416.971
415.9
414.892
413.921
439.053
436.902
434.878
432.936
431.113
429.363
427.73
426.166
424.714
423.329
422.052
420.834
419.722
418.656
417.697
416.764
415.946
415.127
439.066
436.883
434.876
432.956
431.229
429.627
428.279
427.022
426.045
425.157
424.518
423.955
423.594
423.301
423.152
423.079
423.123
423.109
439.054
436.825
435.106
433.766
433.157
433.283
433.839
434.785
436.595
438.323
440.766
442.945
445.755
448.131
451.131
453.522
456.612
458.884
438.703
438.457
439.779
444.133
451.387
459.79
470.475
480.53
492.184
502.545
514.197
524.157
535.351
544.565
555.132
563.439
573.366
580.689
443.995
454.893
485.787
522.074
563.677
602.544
643.867
680.047
718.303
750.495
785.138
813.22
844.35
868.583
896.568
917.335
942.634
960.327
490
640.247
825.439
987.302
1142.54
1278.61
1411.87
1524.54
1638.21
1730.87
1828.37
1904.33
1988.7
2051.03
2124.89
2176.29
2241.85
2284.66
1284.28
2437.47
3297.9
3976.59
4582.77
5099.22
5559.12
5937.94
6284.38
6566.14
6835.43
7048.99
7266.39
7430.06
7611.77
7738.05
7896.08
7994.76
23112.4
24600.3
25738
26549.7
27107.4
27466.7
27692.6
27811.2
27871.5
27869.4
27848.5
27811.5
27755.3
27692.4
27626.5
27559.5
27493.3
27428.5
11463.3
2514.71
2517.58
2520.74
2523.93
2527.13
2531.13
2536.52
2543.63
2552.19
2560.97
2569.82
2577.71
2585.01
2590.77
2595.73
2598.53
2600.97
2602.26
2603.06
2601.56
2597.78
2591.8
2584.47
2578.03
2575.02
2575.69
2578.24
2581.09
2584.02
2586.98
2589.89
2592.79
2596.04
2599.93
2605.83
2612.07
2617.28
2620.7
2623.41
2625.55
2628.68
2633.39
2640.94
2645.98
2652.76
2661.2
2694.5
2840.42
3028.12
3195.28
3338.03
3461.18
3568.31
3663.04
3747.68
3824.43
3894.77
3960.03
4021.23
4079.58
4135.79
4190.87
4242.16
4292.36
4339.98
4386.79
4431.84
4476.26
4519.49
4562.23
4604.16
4645.68
4686.64
4727.24
4767.42
4807.29
4846.82
4886.06
4925.01
4963.67
5002.05
5040.13
5077.92
5115.4
5152.54
5189.34
5225.78
5261.83
5297.46
5332.66
5367.4
5401.67
5435.47
5468.79
5501.68
5534.2
5566.48
5598.7
5630.62
5662.04
5693.08
5723.69
5753.86
5783.57
5812.79
5841.5
5869.68
5897.3
5924.34
5950.77
5976.57
6001.71
6026.17
6049.92
6072.93
6095.17
6116.64
6137.28
6157.1
6176.05
6194.12
6211.28
6227.53
6242.84
6257.23
6270.7
6283.26
6294.9
6305.59
6315.94
6320.63
6329.56
6329.7
6335.63
6332.87
6334.3
6334.66
6333.17
6330.08
6325.46
6319.36
6310.92
6303.29
6293.33
6282.51
6270.4
6257.22
6242.94
6227.66
6211.41
6194.27
6176.21
6157.1
6137.13
6116.46
6095.48
6074.23
6052.81
6031.33
6009.88
5988.53
5967.36
5946.44
5925.81
5905.55
5885.66
5866.19
5847.29
5831.15
5832.29
5839.55
5847.08
5854.27
5860.68
5865.34
5866.71
5860.6
5846.94
5678.68
11463.5
2032.1
1080.16
908.753
799.433
736.543
766.757
772.89
762.796
739.043
705.804
672.432
642.818
617.511
600.713
586.963
586.976
609.953
668.914
772.498
899.206
1035.62
1166.55
1273.72
1339.67
1330.94
1276.4
1148.23
968.796
808.454
692.109
568.251
510.024
476.548
458.948
459.942
465.369
483.548
505.204
521.121
598.75
670.261
982.383
1558.12
2089.48
2297.96
2440.39
2471.31
2500.35
2485.87
2389.97
2311.25
2212.05
2125.86
2041.33
1969.11
1905.35
1852.34
1808.51
1773.21
1745.61
1724.36
1708.7
1697.29
1690.8
1685.89
1684.21
1683.38
1684.81
1687.72
1691.58
1696.27
1701.63
1707.47
1713.74
1720.3
1727.11
1734.09
1741.19
1748.36
1755.58
1762.81
1770.01
1777.17
1784.26
1791.26
1798.16
1804.95
1811.6
1818.13
1824.53
1830.81
1837.01
1843.16
1849.36
1855.73
1862.47
1869.86
1878.27
1887.1
1895.59
1904.04
1912.31
1920.45
1928.45
1936.28
1943.96
1951.48
1958.82
1965.99
1972.98
1979.78
1986.39
1992.81
1999.02
2005.03
2010.83
2016.42
2021.79
2026.93
2031.85
2036.54
2041
2045.22
2049.2
2052.95
2056.44
2059.68
2062.63
2065.27
2067.58
2069.38
2071.15
2072.16
2073.34
2073.8
2074.56
2075.04
2075.1
2074.82
2074.61
2073.3
2071.55
2069.91
2067.86
2065.58
2062.96
2060.03
2056.82
2053.36
2049.66
2045.68
2041.48
2036.99
2032.26
2027.32
2022.25
2017.08
2011.81
2006.48
2001.09
1995.66
1990.22
1984.76
1979.32
1973.89
1968.52
1963.24
1958.15
1953.73
1952.26
1952.07
1952.08
1952.29
1952.69
1953.46
1954.6
1957.16
1959.83
1972.78
11463.6
2065.1
878.334
763.117
854.431
897.933
867.51
802.07
728.422
652.429
582.761
522.937
473.467
434.352
404.047
382.451
367.742
361.023
363.292
376.594
401.171
447.123
513.093
591.462
680.754
753.556
808.934
804.274
772.385
697.725
598.897
502.852
434.831
394.919
385.617
394.446
410.284
467.558
562.721
831.618
1310.45
1621.3
1762.05
1890.45
1931.76
1957.98
1829.68
1752.55
1614.84
1517.62
1433.89
1360.07
1296.94
1245.95
1204.21
1171.77
1146.36
1127.09
1112.65
1102.1
1094.69
1089.73
1087.26
1085.66
1085.37
1086.02
1087.7
1089.92
1092.75
1095.97
1099.51
1103.32
1107.33
1111.49
1115.78
1120.16
1124.61
1129.11
1133.63
1138.17
1142.71
1147.25
1151.76
1156.26
1160.72
1165.15
1169.55
1173.91
1178.25
1182.56
1186.86
1191.16
1195.48
1199.84
1204.28
1208.83
1213.52
1218.36
1223.29
1228.15
1232.91
1237.61
1242.21
1246.72
1251.14
1255.46
1259.69
1263.82
1267.84
1271.75
1275.56
1279.25
1282.84
1286.3
1289.64
1292.86
1295.96
1298.93
1301.77
1304.48
1307.06
1309.5
1311.8
1313.96
1315.98
1317.85
1319.57
1321.12
1322.51
1323.73
1324.75
1325.59
1326.29
1326.77
1327.17
1327.36
1327.5
1327.54
1327.3
1326.68
1326.09
1325.14
1324.01
1322.84
1321.47
1319.92
1318.18
1316.28
1314.23
1312.04
1309.72
1307.25
1304.66
1301.93
1299.07
1296.11
1293.06
1289.94
1286.76
1283.53
1280.26
1276.95
1273.61
1270.25
1266.89
1263.54
1260.2
1256.9
1253.69
1250.7
1248.55
1246.89
1245.46
1244.2
1243.17
1242.57
1242.63
1243.98
1247.13
1260.84
11463.7
2095.57
1186.24
1211.04
1151.92
1018.21
877.555
738.482
612.839
510.967
435.352
381.22
342.807
315.59
296.383
283.094
274.639
269.579
269.739
273.108
279.759
294.518
319.865
355.978
406.428
463.855
522.675
568.782
579.013
567.625
536.194
484.03
449.591
461.908
520.421
623.66
794.405
1113.19
1366.93
1505.29
1605.25
1627.52
1647.09
1583.18
1442.99
1338.36
1250.48
1178.1
1107.01
1056.1
1010.11
973.343
943.664
920.581
902.845
889.611
879.925
873.091
868.479
865.792
864.599
864.219
864.68
865.942
867.737
869.996
872.63
875.537
878.683
882.004
885.47
889.049
892.717
896.454
900.244
904.073
907.93
911.805
915.69
919.578
923.465
927.346
931.217
935.075
938.921
942.752
946.57
950.375
954.172
957.964
961.755
965.552
969.361
973.189
977.041
980.916
984.811
988.708
992.569
996.365
1000.09
1003.76
1007.35
1010.86
1014.3
1017.66
1020.94
1024.14
1027.25
1030.28
1033.21
1036.05
1038.8
1041.45
1044
1046.45
1048.8
1051.03
1053.16
1055.18
1057.09
1058.88
1060.55
1062.1
1063.52
1064.82
1065.99
1067.02
1067.91
1068.65
1069.25
1069.69
1070
1070.17
1070.24
1070.13
1069.92
1069.57
1069.03
1068.28
1067.44
1066.41
1065.24
1063.97
1062.55
1060.99
1059.28
1057.45
1055.5
1053.44
1051.26
1048.98
1046.6
1044.12
1041.55
1038.9
1036.18
1033.4
1030.58
1027.71
1024.8
1021.86
1018.89
1015.9
1012.91
1009.91
1006.92
1003.94
1001
998.167
995.644
993.377
991.281
989.341
987.603
986.223
985.41
985.727
987.719
996.258
11463.7
2507.06
1821.8
1464.78
1184.62
919.379
693.731
527.41
422.096
357.571
314.702
284.554
262.708
246.731
235.297
227.484
222.663
220.543
221.224
223.498
228.596
237.24
250.887
270.92
300.176
338.826
384.866
433.152
468.943
478.658
481.545
484.548
574.581
718.695
976.672
1219.18
1347.95
1419.9
1450.1
1466.66
1445.92
1345.56
1222.7
1120.39
1051.36
990.838
940.505
898.346
862.026
833.724
809.707
791.075
776.663
765.939
758.242
752.976
749.719
748.188
747.686
747.985
749.196
750.944
753.156
755.75
758.626
761.734
765.021
768.448
771.988
775.614
779.309
783.057
786.847
790.668
794.512
798.373
802.244
806.121
810
813.877
817.751
821.618
825.478
829.328
833.169
836.999
840.82
844.631
848.433
852.228
856.017
859.799
863.576
867.346
871.105
874.848
878.563
882.241
885.868
889.436
892.943
896.386
899.763
903.07
906.306
909.468
912.553
915.559
918.482
921.321
924.074
926.737
929.309
931.787
934.168
936.449
938.627
940.699
942.664
944.518
946.257
947.881
949.384
950.765
952.02
953.146
954.138
954.993
955.707
956.278
956.7
956.974
957.103
957.121
957.019
956.737
956.312
955.739
954.994
954.082
953.034
951.838
950.502
949.033
947.422
945.674
943.794
941.789
939.665
937.43
935.088
932.645
930.109
927.483
924.776
921.996
919.153
916.255
913.309
910.323
907.302
904.254
901.191
898.113
895.026
891.936
888.844
885.748
882.671
879.647
876.764
874.028
871.42
868.947
866.65
864.638
863.084
862.435
863.229
867.727
11463.6
3477.27
2099.2
1466.87
986.138
658.523
479.369
383.644
326.886
289.133
262.065
241.756
226.194
214.274
205.379
199.18
195.435
194.239
194.987
197.404
202.431
210.002
220.848
236.053
257.525
286.717
323.582
369.174
419.964
478.354
532.842
673.373
933.163
1177.51
1277.22
1333.52
1340.73
1342.05
1290.56
1179.51
1082.66
996.013
930.61
878.67
838.447
802.793
773.297
748.53
728.077
711.867
698.983
689.341
682.391
677.689
675.068
673.987
673.816
674.726
676.393
678.633
681.356
684.425
687.766
691.318
695.028
698.861
702.785
706.78
710.826
714.912
719.027
723.163
727.314
731.475
735.642
739.812
743.981
748.148
752.31
756.467
760.616
764.757
768.889
773.01
777.12
781.219
785.305
789.379
793.439
797.486
801.517
805.531
809.526
813.498
817.442
821.351
825.217
829.035
832.8
836.506
840.152
843.734
847.249
850.695
854.068
857.366
860.584
863.721
866.774
869.738
872.612
875.392
878.075
880.662
883.145
885.522
887.788
889.941
891.978
893.894
895.687
897.353
898.888
900.289
901.551
902.672
903.647
904.472
905.143
905.657
906.009
906.192
906.242
906.166
905.904
905.47
904.87
904.104
903.162
902.048
900.773
899.342
897.757
896.021
894.134
892.099
889.924
887.615
885.179
882.623
879.956
877.184
874.315
871.356
868.316
865.202
862.025
858.794
855.515
852.196
848.843
845.464
842.067
838.655
835.237
831.816
828.393
824.978
821.575
818.203
814.904
811.698
808.59
805.597
802.757
800.151
797.901
796.329
795.946
797.758
11467.1
4002.08
2102.96
1163.56
694.65
494.218
391.824
330.754
289.979
260.5
238.036
220.474
206.777
196.308
188.672
183.605
180.794
180.29
181.428
184.522
190.002
198.373
210.276
226.891
250.134
282.383
325.498
383.02
462.374
585.256
788.952
1047.63
1184.62
1254.7
1265.22
1246.57
1178.08
1077.38
979.53
913.172
853.838
807.711
770.263
739.716
714.029
691.868
673.507
658.417
646.378
637.11
630.273
625.591
622.968
621.924
621.839
622.927
624.838
627.444
630.578
634.119
637.978
642.071
646.342
650.742
655.237
659.799
664.407
669.045
673.703
678.372
683.046
687.721
692.393
697.061
701.723
706.377
711.022
715.658
720.283
724.897
729.5
734.09
738.666
743.229
747.778
752.311
756.827
761.324
765.803
770.26
774.693
779.1
783.478
787.823
792.132
796.398
800.62
804.79
808.903
812.956
816.944
820.866
824.717
828.494
832.193
835.811
839.345
842.79
846.142
849.399
852.556
855.609
858.554
861.381
864.09
866.681
869.148
871.488
873.698
875.772
877.707
879.498
881.143
882.635
883.973
885.15
886.163
887.008
887.68
888.176
888.485
888.614
888.611
888.412
888.022
887.441
886.673
885.716
884.569
883.232
881.708
879.989
878.088
876.014
873.771
871.365
868.802
866.091
863.24
860.257
857.153
853.935
850.613
847.197
843.695
840.117
836.475
832.776
829.029
825.242
821.423
817.578
813.715
809.839
805.962
802.084
798.202
794.323
790.454
786.608
782.808
779.073
775.417
771.86
768.437
765.213
762.291
759.883
758.319
758.297
11486
4069.3
1695.89
850.883
543.35
408.824
337.804
293.93
263.127
239.628
220.969
206.149
194.685
186.081
179.96
176.051
174.439
175
177.656
182.669
190.192
200.499
214.782
234.468
262.123
302.966
364.98
463.42
631.203
862.64
1059.78
1146.01
1177.29
1177.04
1104.47
1007.02
918.521
853.972
799.049
759.314
724.051
695.978
672.085
651.986
634.863
620.461
608.752
599.498
592.496
587.517
584.452
583.082
582.827
583.734
585.598
588.285
591.624
595.489
599.764
604.358
609.193
614.208
619.353
624.589
629.888
635.225
640.585
645.953
651.321
656.683
662.034
667.371
672.694
678.002
683.293
688.568
693.825
699.066
704.289
709.495
714.684
719.854
725.006
730.138
735.25
740.34
745.409
750.452
755.467
760.454
765.408
770.327
775.208
780.048
784.843
789.592
794.288
798.922
803.491
807.992
812.419
816.77
821.042
825.229
829.328
833.336
837.247
841.058
844.765
848.362
851.847
855.213
858.458
861.577
864.565
867.417
870.13
872.697
875.116
877.38
879.485
881.425
883.198
884.796
886.216
887.453
888.503
889.36
890.02
890.477
890.716
890.775
890.645
890.295
889.729
888.948
887.953
886.743
885.318
883.681
881.833
879.777
877.527
875.084
872.453
869.64
866.655
863.506
860.203
856.756
853.176
849.472
845.657
841.739
837.731
833.644
829.487
825.272
821.007
816.702
812.365
808.003
803.623
799.232
794.841
790.415
785.983
781.556
777.14
772.746
768.388
764.082
759.845
755.695
751.664
747.803
744.187
740.973
738.342
736.684
11522.8
3622.78
1307.37
685.37
474.279
377.834
321.887
284.926
257.194
235.001
216.959
202.448
191.256
183.194
178.059
175.765
175.359
176.518
179.501
185.141
193.984
206.982
226.224
257.571
307.609
385.513
514.659
704.491
891.782
1016.71
1075.2
1094.16
1057.57
964.791
875.411
813.669
761.832
723.195
690.727
664.871
642.072
623.039
606.645
592.745
581.153
571.741
564.39
558.936
555.204
553.244
552.602
553.039
554.575
557.046
560.309
564.239
568.717
573.64
578.917
584.47
590.233
596.152
602.183
608.29
614.446
620.629
626.823
633.015
639.196
645.358
651.499
657.615
663.705
669.772
675.815
681.832
687.822
693.788
699.728
705.642
711.531
717.395
723.232
729.042
734.822
740.57
746.282
751.963
757.611
763.222
768.794
774.323
779.805
785.238
790.616
795.933
801.184
806.365
811.471
816.498
821.443
826.301
831.067
835.738
840.309
844.775
849.132
853.375
857.499
861.498
865.369
869.105
872.702
876.154
879.457
882.604
885.591
888.411
891.06
893.532
895.82
897.92
899.826
901.531
903.031
904.321
905.395
906.247
906.875
907.262
907.417
907.359
907.059
906.516
905.728
904.694
903.416
901.893
900.126
898.119
895.874
893.396
890.694
887.773
884.641
881.307
877.781
874.073
870.196
866.16
861.979
857.665
853.231
848.688
844.05
839.329
834.537
829.686
824.786
819.847
814.879
809.889
804.885
799.876
794.876
789.872
784.869
779.874
774.895
769.94
765.019
760.145
755.334
750.605
745.983
741.51
737.242
733.262
729.67
726.664
11561.6
2972.15
1027.88
584.595
430.407
357.742
313.754
281.451
255.699
234.338
216.827
203.156
193.227
186.844
183.6
183.324
186.171
192.25
201.719
214.988
233.06
257.903
294.904
353.368
457.43
602.76
757.496
884.01
959.073
993.832
1000.36
928.04
848.022
785.169
734.223
697.301
666.257
641.47
620.102
601.943
585.98
572.367
560.794
551.183
543.42
537.405
533.03
530.262
529.02
528.847
529.83
531.832
534.75
538.47
542.882
547.884
553.382
559.288
565.526
572.029
578.736
585.595
592.565
599.608
606.698
613.813
620.942
628.063
635.167
642.246
649.294
656.307
663.279
670.2
677.075
683.919
690.731
697.513
704.263
710.982
717.669
724.324
730.946
737.534
744.087
750.607
757.088
763.526
769.915
776.255
782.54
788.768
794.933
801.033
807.061
813.012
818.885
824.674
830.376
835.986
841.499
846.911
852.218
857.414
862.494
867.454
872.287
876.989
881.554
885.976
890.25
894.369
898.329
902.122
905.743
909.185
912.443
915.51
918.379
921.045
923.5
925.738
927.752
929.537
931.085
932.392
933.451
934.257
934.804
935.076
935.096
934.848
934.326
933.527
932.45
931.094
929.458
927.545
925.357
922.896
920.168
917.178
913.933
910.443
906.717
902.766
898.603
894.241
889.692
884.971
880.093
875.072
869.922
864.659
859.296
853.848
848.329
842.751
837.127
831.468
825.784
820.084
814.377
808.671
802.974
797.286
791.611
785.953
780.319
774.714
769.148
763.632
758.179
752.806
747.535
742.399
737.441
732.748
728.336
724.234
11589.6
2399.7
909.408
553.67
423.304
358.156
319.52
291.077
267.103
246.326
229.082
215.799
206.374
201.844
199.302
199.603
205.018
215.572
231.942
256.75
295.21
354.635
440.386
548.304
662.36
764.85
843.091
890.637
911.624
888.717
824.802
761.268
714.424
677.259
647.683
624.133
603.739
586.341
571.007
557.678
546.097
536.293
528.155
521.617
516.604
513.04
510.974
510.209
510.483
511.854
514.226
517.505
521.604
526.432
531.901
537.923
544.417
551.31
558.533
566.031
573.746
581.622
589.616
597.691
605.812
613.942
622.043
630.138
638.224
646.291
654.33
662.335
670.304
678.243
686.15
694.017
701.838
709.611
717.334
725.009
732.634
740.208
747.731
755.202
762.619
769.978
777.28
784.522
791.7
798.813
805.855
812.823
819.713
826.52
833.24
839.867
846.399
852.831
859.158
865.375
871.478
877.462
883.321
889.051
894.645
900.099
905.406
910.56
915.556
920.386
925.045
929.526
933.823
937.928
941.836
945.538
949.029
952.3
955.345
958.156
960.727
963.049
965.116
966.92
968.454
969.712
970.687
971.374
971.766
971.857
971.649
971.133
970.306
969.167
967.712
965.943
963.859
961.462
958.756
955.745
952.435
948.832
944.945
940.784
936.363
931.694
926.793
921.673
916.352
910.846
905.171
899.344
893.382
887.303
881.122
874.855
868.518
862.126
855.692
849.228
842.747
836.259
829.772
823.296
816.836
810.399
803.985
797.601
791.251
784.941
778.679
772.473
766.335
760.28
754.326
748.5
742.833
737.387
732.161
727.043
11604.5
1984.96
816.857
535.219
424.624
371.401
338.394
313.034
291.366
272.885
258.198
247.86
242.562
241.359
244.496
254.119
271.252
298.612
337.804
390.021
455.132
529.927
608.488
684.245
747.068
794.667
821.516
828.936
783.426
739.747
696.229
660.439
633.339
610.65
591.566
575.09
560.395
547.471
536.079
526.195
517.776
510.81
505.249
501.048
498.15
496.654
496.272
496.97
498.702
501.407
505.018
509.462
514.673
520.596
527.131
534.204
541.745
549.686
557.955
566.464
575.162
584.045
593.079
602.229
611.459
620.745
630.075
639.416
648.756
658.068
667.338
676.559
685.727
694.836
703.88
712.855
721.762
730.601
739.372
748.075
756.707
765.269
773.759
782.175
790.517
798.78
806.965
815.068
823.085
831.015
838.853
846.594
854.236
861.773
869.202
876.516
883.713
890.786
897.733
904.547
911.223
917.757
924.143
930.375
936.448
942.355
948.09
953.647
959.02
964.202
969.185
973.962
978.528
982.874
986.992
990.876
994.518
997.909
1001.04
1003.91
1006.5
1008.82
1010.84
1012.56
1013.98
1015.09
1015.88
1016.34
1016.47
1016.27
1015.72
1014.83
1013.59
1012
1010.05
1007.76
1005.11
1002.12
998.782
995.108
991.102
986.774
982.132
977.191
971.965
966.47
960.722
954.74
948.542
942.146
935.573
928.842
921.971
914.98
907.888
900.713
893.471
886.179
878.853
871.506
864.151
856.8
849.462
842.146
834.859
827.608
820.396
813.227
806.106
799.039
792.031
785.091
778.227
771.454
764.786
758.245
751.852
745.658
739.646
733.601
11615.1
1978.19
815.275
539.803
441.243
394.865
367.297
347.132
331.164
318.991
312.182
309.874
311.823
320.627
336.113
359.28
390.434
428.839
473.958
524.335
576.97
627.607
672.22
709.802
738.683
751.254
735.538
704.565
672.743
645.29
620.272
599.708
582.492
567.133
553.42
541.136
530.118
520.377
511.903
504.707
498.781
494.108
490.655
488.438
487.469
487.504
488.652
490.813
493.916
497.908
502.738
508.342
514.644
521.522
529.002
537.045
545.594
554.59
563.978
573.709
583.728
593.968
604.389
614.953
625.607
636.317
647.054
657.782
668.471
679.116
689.706
700.23
710.681
721.053
731.34
741.536
751.641
761.652
771.568
781.387
791.109
800.732
810.255
819.675
828.991
838.2
847.301
856.291
865.165
873.923
882.559
891.07
899.451
907.699
915.809
923.776
931.596
939.264
946.776
954.126
961.309
968.32
975.153
981.803
988.264
994.529
1000.59
1006.45
1012.09
1017.51
1022.7
1027.65
1032.36
1036.82
1041.02
1044.95
1048.61
1051.98
1055.06
1057.84
1060.32
1062.47
1064.31
1065.81
1066.96
1067.77
1068.22
1068.31
1068.04
1067.39
1066.35
1064.94
1063.14
1060.95
1058.38
1055.42
1052.07
1048.35
1044.24
1039.77
1034.95
1029.77
1024.25
1018.4
1012.26
1005.82
999.113
992.159
984.977
977.589
970.017
962.284
954.41
946.418
938.327
930.158
921.93
913.66
905.365
897.061
888.762
880.48
872.225
864.007
855.834
847.712
839.646
831.64
823.699
815.827
808.031
800.315
792.69
785.166
777.756
770.476
763.345
756.401
749.624
742.719
11620.6
1908.29
805.432
554.137
464.989
424.947
403.159
389.346
381.519
378.496
378.395
384.588
395.598
411.795
432.818
458.337
487.594
519.448
552.419
584.72
614.406
642.162
666.774
678.6
679.008
659.828
644.269
624.46
606.358
590.173
575.114
561.697
549.475
538.229
528
518.787
510.611
503.526
497.565
492.766
489.17
486.652
485.26
484.872
485.475
487.009
489.371
492.608
496.761
501.809
507.715
514.431
521.914
530.145
539.035
548.517
558.529
569.018
579.948
591.24
602.825
614.637
626.61
638.694
650.86
663.076
675.309
687.53
699.709
711.83
723.876
735.833
747.693
759.444
771.08
782.594
793.983
805.242
816.37
827.364
838.222
848.942
859.522
869.961
880.255
890.404
900.404
910.254
919.949
929.488
938.866
948.081
957.127
966.002
974.701
983.22
991.555
999.7
1007.65
1015.4
1022.96
1030.3
1037.43
1044.33
1051.02
1057.47
1063.69
1069.66
1075.39
1080.85
1086.06
1090.99
1095.64
1100.01
1104.09
1107.86
1111.33
1114.47
1117.3
1119.78
1121.93
1123.72
1125.15
1126.22
1126.9
1127.21
1127.12
1126.65
1125.76
1124.46
1122.75
1120.63
1118.08
1115.12
1111.74
1107.94
1103.73
1099.11
1094.09
1088.67
1082.87
1076.7
1070.17
1063.3
1056.1
1048.6
1040.83
1032.79
1024.52
1016.04
1007.37
998.545
989.582
980.505
971.337
962.099
952.813
943.496
934.168
924.844
915.54
906.269
897.042
887.869
878.76
869.72
860.754
851.867
843.064
834.349
825.726
817.203
808.785
800.484
792.309
784.275
776.394
768.7
761.161
753.437
11622.8
1893.36
813.094
573.877
490.977
456.716
438.599
430.443
427.162
426.982
432.631
441.911
454.517
469.92
487.541
506.731
526.732
546.718
567.024
587.079
606.971
617.432
620.1
613.087
608.631
598.142
589.025
578.244
567.902
557.843
548.066
538.927
530.486
522.829
515.847
509.603
504.168
499.589
495.876
492.964
490.765
489.623
489.494
490.402
492.326
495.248
499.187
504.1
509.94
516.676
524.278
532.709
541.929
551.914
562.592
573.869
585.671
597.927
610.555
623.518
636.764
650.238
663.881
677.644
691.484
705.362
719.244
733.094
746.884
760.59
774.191
787.671
801.013
814.208
827.244
840.114
852.811
865.331
877.669
889.822
901.787
913.562
925.145
936.533
947.726
958.72
969.513
980.104
990.489
1000.67
1010.63
1020.39
1029.93
1039.24
1048.34
1057.2
1065.84
1074.24
1082.4
1090.32
1097.99
1105.41
1112.58
1119.48
1126.12
1132.49
1138.58
1144.39
1149.91
1155.14
1160.07
1164.68
1168.99
1172.97
1176.63
1179.95
1182.92
1185.54
1187.81
1189.71
1191.23
1192.37
1193.13
1193.48
1193.41
1192.96
1192.04
1190.72
1188.97
1186.78
1184.15
1181.08
1177.56
1173.6
1169.19
1164.35
1159.07
1153.37
1147.24
1140.71
1133.77
1126.45
1118.76
1110.73
1102.36
1093.68
1084.71
1075.49
1066.03
1056.37
1046.52
1036.52
1026.4
1016.17
1005.86
995.495
985.094
974.679
964.267
953.877
943.524
933.222
922.983
912.818
902.735
892.741
882.842
873.043
863.348
853.762
844.288
834.932
825.702
816.607
807.653
798.851
790.205
781.75
773.451
764.949
11624.3
1871.99
821.417
593.461
515.248
483.712
466.722
459.306
456.037
455.71
460.188
467.255
476.581
487.642
500.013
513.279
527.031
540.881
553.337
563.29
568.456
570.665
572.711
573.022
572.175
569.082
565.282
560.248
554.702
548.802
542.744
536.714
530.723
524.784
519.439
514.842
511.076
508.196
506.243
505.292
505.384
506.523
508.679
511.861
516.062
521.278
527.515
534.724
542.851
551.856
561.72
572.42
583.865
595.973
608.676
621.93
635.683
649.871
664.432
679.31
694.451
709.798
725.298
740.896
756.547
772.207
787.835
803.396
818.855
834.186
849.362
864.364
879.172
893.773
908.154
922.305
936.218
949.885
963.303
976.466
989.372
1002.02
1014.4
1026.52
1038.38
1049.97
1061.29
1072.34
1083.13
1093.63
1103.87
1113.83
1123.51
1132.91
1142.04
1150.87
1159.42
1167.68
1175.65
1183.33
1190.71
1197.78
1204.56
1211.02
1217.18
1223.02
1228.54
1233.74
1238.61
1243.15
1247.34
1251.2
1254.7
1257.85
1260.65
1263.07
1265.11
1266.77
1268.06
1268.95
1269.42
1269.46
1269.16
1268.39
1267.17
1265.53
1263.45
1260.92
1257.94
1254.51
1250.62
1246.27
1241.46
1236.2
1230.48
1224.32
1217.71
1210.67
1203.21
1195.33
1187.05
1178.39
1169.37
1160
1150.3
1140.29
1130.01
1119.48
1108.73
1097.78
1086.67
1075.41
1064.05
1052.6
1041.09
1029.54
1017.98
1006.42
994.881
983.384
971.945
960.576
949.291
938.101
927.014
916.038
905.179
894.441
883.83
873.35
863.004
852.797
842.734
832.823
823.068
813.48
804.058
794.837
785.779
776.538
11621.5
1868.29
831.671
606.621
530.944
498.256
481.09
471.856
466.865
465.725
468.111
474.113
482.543
492.584
503.755
515.503
527.214
538.122
548.095
556.592
563.32
568.632
572.346
573.982
574.39
573.234
571.017
567.86
564.183
560.213
556.169
552.261
548.694
545.733
543.426
541.896
541.219
541.447
542.626
544.855
548.156
552.495
557.837
564.16
571.453
579.728
589.016
599.21
610.242
622.053
634.575
647.738
661.531
675.912
690.831
706.237
722.079
738.299
754.839
771.643
788.653
805.815
823.073
840.376
857.673
874.919
892.071
909.091
925.942
942.594
959.019
975.194
991.099
1006.72
1022.03
1037.04
1051.72
1066.08
1080.1
1093.78
1107.12
1120.11
1132.77
1145.08
1157.04
1168.66
1179.93
1190.85
1201.44
1211.67
1221.57
1231.12
1240.33
1249.19
1257.71
1265.89
1273.72
1281.2
1288.34
1295.14
1301.59
1307.69
1313.43
1318.83
1323.88
1328.56
1332.89
1336.87
1340.49
1343.73
1346.61
1349.1
1351.22
1352.98
1354.36
1355.32
1355.88
1356.03
1355.83
1355.21
1354.11
1352.61
1350.7
1348.35
1345.56
1342.32
1338.63
1334.5
1329.91
1324.86
1319.36
1313.4
1306.98
1300.12
1292.81
1285.06
1276.87
1268.27
1259.26
1249.85
1240.06
1229.91
1219.41
1208.59
1197.46
1186.05
1174.39
1162.49
1150.4
1138.14
1125.74
1113.22
1100.62
1087.96
1075.26
1062.54
1049.83
1037.14
1024.5
1011.92
999.423
987.011
974.703
962.51
950.442
938.505
926.705
915.047
903.535
892.173
880.966
869.916
859.029
848.311
837.765
827.402
817.217
807.249
797.45
787.525
11626.6
1873.3
837.992
611.865
535.473
502.319
485.178
476.836
473.667
473.569
478.413
486.365
496.31
507.778
520.114
532.725
545.132
557.111
568.02
577.551
585.587
592.246
597.474
601.36
604.121
605.699
606.336
606.413
606.09
605.577
605.125
604.942
605.242
606.224
607.926
610.42
613.744
617.934
623.025
629.075
636.156
644.283
653.334
663.249
673.988
685.496
697.688
710.595
724.2
738.465
753.342
768.78
784.739
801.176
818.044
835.295
852.877
870.736
888.818
907.068
925.431
943.853
962.282
980.667
998.958
1017.11
1035.08
1052.83
1070.33
1087.54
1104.44
1121
1137.2
1153.03
1168.47
1183.51
1198.14
1212.35
1226.15
1239.52
1252.46
1264.99
1277.08
1288.76
1300.01
1310.84
1321.25
1331.25
1340.84
1350.01