/*--------------------------------*- C++ -*----------------------------------*\
| =========                 |                                                 |
| \\      /  F ield         | OpenFOAM: The Open Source CFD Toolbox           |
|  \\    /   O peration     | Version:  2406                                  |
|   \\  /    A nd           | Website:  www.openfoam.com                      |
|    \\/     M anipulation  |                                                 |
\*---------------------------------------------------------------------------*/
FoamFile
{
    version     2.0;
    format      ascii;
    arch        "LSB;label=32;scalar=64";
    class       volScalarField;
    location    "200";
    object      p;
}
// * * * * * * * * * * * * * * * * * * * * * * * * * * * * * * * * * * * * * //

dimensions      [0 2 -2 0 0 0 0];

internalField   nonuniform List<scalar> 
12225
(
-2.51504
-4.64423
-5.74991
-6.07573
-6.25912
-6.44287
-6.59579
-6.71201
-6.80854
-6.8968
-6.9797
-7.0584
-7.13487
-7.2118
-7.29205
-7.3793
-7.48067
-7.59037
-5.69709
-6.50742
-6.70507
-6.60177
-6.56539
-6.6227
-6.70233
-6.77592
-6.84688
-6.91902
-6.99145
-7.0631
-7.13457
-7.20748
-7.28367
-7.36635
-7.45448
-7.56229
-6.0636
-5.9909
-6.11028
-6.19543
-6.3007
-6.44124
-6.57496
-6.68602
-6.78202
-6.87074
-6.95418
-7.03325
-7.10944
-7.18487
-7.26125
-7.34043
-7.42038
-7.4977
-5.9201
-5.82261
-6.08258
-6.27061
-6.38997
-6.51192
-6.62788
-6.72573
-6.81133
-6.89144
-6.96808
-7.04164
-7.11318
-7.18405
-7.25519
-7.32693
-7.39563
-7.45472
-5.90635
-5.91601
-6.16517
-6.3294
-6.42305
-6.52424
-6.62907
-6.72192
-6.80496
-6.88335
-6.95877
-7.03126
-7.10156
-7.17048
-7.23843
-7.30482
-7.36605
-7.4167
-5.96701
-6.00981
-6.1982
-6.33872
-6.4295
-6.52701
-6.62878
-6.72057
-6.80302
-6.88057
-6.95488
-7.02605
-7.09459
-7.16103
-7.2254
-7.28671
-7.34203
-7.38719
-6.02994
-6.07071
-6.21563
-6.34639
-6.44057
-6.5352
-6.6324
-6.72159
-6.80233
-6.87819
-6.95069
-7.01997
-7.08634
-7.15007
-7.21092
-7.26782
-7.31854
-7.36004
-6.08578
-6.1219
-6.23971
-6.36083
-6.45444
-6.54433
-6.63602
-6.72197
-6.80065
-6.87459
-6.94514
-7.01245
-7.07661
-7.13768
-7.19532
-7.24854
-7.29573
-7.33485
-6.13792
-6.17103
-6.26864
-6.37772
-6.46796
-6.55318
-6.63965
-6.72216
-6.79855
-6.8704
-6.93885
-7.00403
-7.06588
-7.12434
-7.17902
-7.22912
-7.27353
-7.31097
-6.18744
-6.21757
-6.29889
-6.39567
-6.4814
-6.56234
-6.64388
-6.72269
-6.79646
-6.86599
-6.93215
-6.99504
-7.0545
-7.11039
-7.16235
-7.20976
-7.25194
-7.28806
-6.23414
-6.26096
-6.32927
-6.41471
-6.4952
-6.57186
-6.64865
-6.72356
-6.79445
-6.86147
-6.9252
-6.98568
-7.04273
-7.09614
-7.1456
-7.19069
-7.23099
-7.26601
-6.27418
-6.298
-6.3568
-6.43291
-6.5081
-6.58073
-6.65332
-6.72459
-6.79267
-6.85726
-6.91868
-6.97691
-7.03175
-7.08298
-7.13035
-7.17355
-7.21236
-7.24645
-6.31106
-6.3323
-6.38328
-6.45108
-6.52089
-6.58948
-6.65806
-6.72575
-6.79093
-6.85304
-6.91213
-6.96812
-7.02081
-7.06998
-7.11543
-7.15693
-7.19441
-7.22766
-6.34953
-6.36819
-6.41189
-6.47146
-6.53526
-6.59923
-6.66342
-6.72712
-6.78895
-6.84817
-6.90458
-6.95805
-7.00837
-7.05532
-7.09875
-7.13853
-7.17465
-7.20701
-6.38813
-6.40425
-6.44143
-6.49324
-6.55068
-6.60957
-6.66909
-6.72848
-6.78658
-6.84254
-6.89597
-6.94668
-6.99445
-7.03908
-7.08045
-7.1185
-7.15326
-7.18469
-6.4246
-6.43838
-6.46998
-6.51484
-6.56602
-6.61964
-6.67438
-6.72935
-6.78349
-6.83594
-6.88622
-6.93404
-6.97917
-7.02146
-7.06079
-7.09714
-7.13057
-7.16106
-6.4557
-6.46751
-6.49462
-6.53369
-6.57925
-6.62788
-6.67806
-6.72877
-6.77903
-6.82799
-6.87512
-6.92009
-6.96266
-7.00269
-7.0401
-7.07486
-7.10703
-7.13664
-6.47662
-6.487
-6.51093
-6.54581
-6.58709
-6.63172
-6.67812
-6.72525
-6.77215
-6.81805
-6.86238
-6.90481
-6.94512
-6.98316
-7.01888
-7.05226
-7.08334
-7.11218
-6.47997
-6.48966
-6.51213
-6.54511
-6.58438
-6.62692
-6.67117
-6.71611
-6.76088
-6.80473
-6.84714
-6.88777
-6.92646
-6.96309
-6.99761
-7.03003
-7.06039
-7.08876
-6.45928
-6.46947
-6.49307
-6.52772
-6.56865
-6.61232
-6.65713
-6.70231
-6.74709
-6.79075
-6.83281
-6.87301
-6.91123
-6.9474
-6.98151
-7.01358
-7.04368
-7.07189
-6.42824
-6.43933
-6.46542
-6.50396
-6.5487
-6.59516
-6.64201
-6.68883
-6.73485
-6.77929
-6.82179
-6.86224
-6.9006
-6.93684
-6.97097
-7.00307
-7.03321
-7.06153
-6.38906
-6.40087
-6.43081
-6.47617
-6.52671
-6.57666
-6.62618
-6.67557
-6.72368
-6.76952
-6.81293
-6.854
-6.89277
-6.92926
-6.96354
-6.99573
-7.02594
-7.05431
-6.34507
-6.35615
-6.39073
-6.4465
-6.50503
-6.55904
-6.61155
-6.66372
-6.71395
-6.76126
-6.80577
-6.84771
-6.88712
-6.92406
-6.95866
-6.9911
-7.02154
-7.05017
-6.29874
-6.30735
-6.34852
-6.41637
-6.48219
-6.54115
-6.59879
-6.65483
-6.70707
-6.75544
-6.80072
-6.84322
-6.88296
-6.92006
-6.95472
-6.98717
-7.01758
-7.04613
-6.25
-6.25034
-6.31359
-6.39689
-6.46139
-6.52062
-6.58392
-6.64537
-6.70077
-6.75112
-6.79798
-6.84166
-6.88216
-6.91969
-6.95458
-6.98715
-7.01766
-7.04651
-6.2062
-6.15496
-6.27134
-6.39522
-6.46033
-6.51362
-6.57546
-6.63658
-6.69141
-6.74158
-6.78869
-6.83277
-6.87365
-6.91153
-6.94674
-6.97962
-7.01037
-7.03924
-6.22816
-6.02464
-6.15864
-6.3373
-6.44165
-6.51939
-6.59322
-6.65808
-6.71326
-6.76275
-6.80862
-6.85107
-6.8901
-6.9261
-6.95948
-6.99062
-7.01994
-7.04828
-6.37884
-6.12687
-6.10853
-6.17187
-6.25986
-6.36671
-6.47032
-6.55739
-6.63076
-6.69582
-6.75455
-6.80727
-6.85448
-6.89698
-6.93547
-6.97057
-7.00297
-7.03384
-6.11157
-6.75828
-6.87906
-6.73818
-6.65029
-6.6523
-6.68416
-6.71714
-6.7509
-6.78775
-6.82591
-6.86322
-6.89874
-6.93227
-6.96371
-6.99292
-7.02017
-7.04697
-3.00779
-4.77715
-5.80401
-6.1038
-6.24509
-6.39
-6.51242
-6.60178
-6.67202
-6.73344
-6.78866
-6.83777
-6.8815
-6.92082
-6.9563
-6.988
-7.01582
-7.03809
-8.12764
-8.12779
-8.12793
-8.12814
-8.12803
-8.12641
-8.12247
-8.11704
-8.11179
-8.1082
-8.10785
-8.11087
-8.11632
-8.12286
-8.12927
-8.1345
-8.13782
-8.13916
-8.13906
-8.13799
-8.13635
-8.13461
-8.13322
-8.13242
-8.13217
-8.13213
-8.13198
-8.13164
-8.13115
-8.13065
-8.13015
-8.12941
-8.12801
-8.12582
-8.12332
-8.12124
-8.12043
-8.12111
-8.12266
-8.12427
-8.1256
-8.12669
-8.12786
-8.13128
-8.13658
-8.13982
-8.13748
-8.1299
-8.12152
-8.12052
-8.13343
-8.16356
-8.21134
-8.27465
-8.34967
-8.43178
-8.51648
-8.59988
-8.67901
-8.75191
-8.81747
-8.87514
-8.92475
-8.96652
-9.00096
-9.02865
-9.05016
-9.06602
-9.0767
-9.0826
-9.08405
-9.08134
-9.07468
-9.06424
-9.05015
-9.0325
-9.01136
-8.98677
-8.95873
-8.92724
-8.89228
-8.85381
-8.81179
-8.76618
-8.71689
-8.66388
-8.60705
-8.54633
-8.48164
-8.41286
-8.3399
-8.26267
-8.18104
-8.09497
-8.00444
-7.9095
-7.81011
-7.70603
-7.59688
-7.48246
-7.36281
-7.2379
-7.10769
-6.97209
-6.83102
-6.6844
-6.53215
-6.37419
-6.21046
-6.04092
-5.86549
-5.68415
-5.49687
-5.30361
-5.10439
-4.89918
-4.68803
-4.47096
-4.24804
-4.01932
-3.78489
-3.54486
-3.29936
-3.04855
-2.79259
-2.5317
-2.2661
-1.99604
-1.72179
-1.44364
-1.16194
-0.877031
-0.58929
-0.299111
-0.00692124
0.286848
0.581743
0.877309
1.17308
1.46859
1.76337
2.05699
2.34898
2.63889
2.92629
3.21074
3.49186
3.76929
4.04269
4.31176
4.57626
4.83595
5.09065
5.34022
5.58454
5.82354
6.05718
6.28546
6.50839
6.72602
6.93843
7.14571
7.34794
7.54524
7.73771
7.92549
8.10867
8.28736
8.46167
8.63175
8.79772
8.95954
9.11707
9.27035
9.4196
9.56519
9.70802
9.84834
9.99261
10.1296
-8.12947
-8.1298
-8.13052
-8.13133
-8.13154
-8.1304
-8.12728
-8.12314
-8.12001
-8.11938
-8.12157
-8.12623
-8.13248
-8.13923
-8.1455
-8.15055
-8.15394
-8.15532
-8.15442
-8.15155
-8.14741
-8.14286
-8.13877
-8.13569
-8.13372
-8.13246
-8.13146
-8.1307
-8.13048
-8.13067
-8.13085
-8.13059
-8.12955
-8.12765
-8.12548
-8.12406
-8.12402
-8.12508
-8.12634
-8.12717
-8.1277
-8.12658
-8.12252
-8.11881
-8.12188
-8.13264
-8.14062
-8.13942
-8.13526
-8.13978
-8.16093
-8.2019
-8.2613
-8.33479
-8.41681
-8.502
-8.58594
-8.66544
-8.73851
-8.80414
-8.86198
-8.91211
-8.95483
-8.99061
-9.01996
-9.0434
-9.06142
-9.07445
-9.08284
-9.08692
-9.08693
-9.08308
-9.07553
-9.06441
-9.04981
-9.03178
-9.01037
-8.9856
-8.95747
-8.92596
-8.89103
-8.85265
-8.81077
-8.76534
-8.71627
-8.66352
-8.607
-8.54663
-8.48233
-8.414
-8.34155
-8.26488
-8.18389
-8.09846
-8.0085
-7.91385
-7.81437
-7.71
-7.60079
-7.48672
-7.36763
-7.24338
-7.11385
-6.97897
-6.83864
-6.69279
-6.54133
-6.38419
-6.2213
-6.05262
-5.87808
-5.69765
-5.5113
-5.319
-5.12075
-4.91654
-4.70639
-4.49035
-4.26845
-4.04078
-3.8074
-3.56843
-3.32398
-3.07422
-2.8193
-2.55944
-2.29484
-2.02574
-1.75243
-1.4752
-1.19437
-0.910284
-0.623319
-0.333868
-0.0423466
0.25082
0.545186
0.840308
1.13572
1.43093
1.72551
2.01901
2.31098
2.60095
2.88849
3.17317
3.4546
3.7324
4.00625
4.27584
4.54091
4.80123
5.05659
5.30686
5.55191
5.79165
6.02605
6.25509
6.47878
6.69718
6.91033
7.11834
7.32129
7.5193
7.71246
7.90092
8.0848
8.2642
8.43922
8.60998
8.77644
8.93852
9.09623
9.2497
9.39917
9.5451
9.68865
9.82951
9.97591
10.1115
-8.13131
-8.13131
-8.13143
-8.1317
-8.13202
-8.13227
-8.13285
-8.1345
-8.13784
-8.14297
-8.14948
-8.15679
-8.1642
-8.17107
-8.17683
-8.18102
-8.1834
-8.18381
-8.18217
-8.17858
-8.17331
-8.16674
-8.15936
-8.15173
-8.14451
-8.13825
-8.13342
-8.13029
-8.12872
-8.12809
-8.12767
-8.12711
-8.12631
-8.12553
-8.12564
-8.12729
-8.1298
-8.13175
-8.13053
-8.12506
-8.11935
-8.1191
-8.12173
-8.12242
-8.12872
-8.14636
-8.17087
-8.19703
-8.22483
-8.25808
-8.29966
-8.35021
-8.40847
-8.47212
-8.53852
-8.60522
-8.67017
-8.73182
-8.7891
-8.84135
-8.88819
-8.92947
-8.96522
-8.9956
-9.02081
-9.0411
-9.05676
-9.06802
-9.07511
-9.07823
-9.07757
-9.07326
-9.06542
-9.05415
-9.03949
-9.02151
-9.00022
-8.97562
-8.94772
-8.91648
-8.88188
-8.84387
-8.80238
-8.75737
-8.70877
-8.6565
-8.60049
-8.54066
-8.47692
-8.40918
-8.33736
-8.26136
-8.18111
-8.09651
-8.00745
-7.9138
-7.81536
-7.71204
-7.60383
-7.49072
-7.37261
-7.24938
-7.12093
-6.98716
-6.84798
-6.7033
-6.55305
-6.39716
-6.23556
-6.06818
-5.89499
-5.71594
-5.53099
-5.34012
-5.14331
-4.94058
-4.73193
-4.5174
-4.29704
-4.0709
-3.83906
-3.60163
-3.35873
-3.1105
-2.8571
-2.59873
-2.3356
-2.06795
-1.79604
-1.52017
-1.24064
-0.957805
-0.67202
-0.38368
-0.0931879
0.199035
0.492553
0.786918
1.08166
1.37631
1.67043
1.96357
2.25529
2.54513
2.83264
3.11739
3.39899
3.67706
3.95127
4.2213
4.48689
4.74778
5.00378
5.25472
5.50047
5.74094
5.97608
6.20587
6.43031
6.64943
6.86329
7.07197
7.27556
7.47416
7.66787
7.85681
8.04107
8.22075
8.39599
8.56689
8.73351
8.89584
9.05397
9.20804
9.35838
9.50532
9.65021
9.79171
9.94049
10.0701
-8.13269
-8.13226
-8.1317
-8.13193
-8.13435
-8.13952
-8.14686
-8.15547
-8.16466
-8.17394
-8.18295
-8.19129
-8.19861
-8.20462
-8.20908
-8.21181
-8.21273
-8.21176
-8.20884
-8.20401
-8.19742
-8.18921
-8.1796
-8.16888
-8.15752
-8.14617
-8.13564
-8.12669
-8.11981
-8.11502
-8.11203
-8.11063
-8.11109
-8.11405
-8.1192
-8.12407
-8.12594
-8.1258
-8.12545
-8.12374
-8.12269
-8.12898
-8.14336
-8.16207
-8.1852
-8.21488
-8.25029
-8.28892
-8.32916
-8.3712
-8.41584
-8.46354
-8.51417
-8.56707
-8.62117
-8.67525
-8.72811
-8.77869
-8.82613
-8.86982
-8.90936
-8.94452
-8.9752
-9.00144
-9.02331
-9.04095
-9.05451
-9.06412
-9.06994
-9.07211
-9.07073
-9.06592
-9.05774
-9.04627
-9.03153
-9.01356
-8.99237
-8.96795
-8.94028
-8.90934
-8.87507
-8.83744
-8.79639
-8.75185
-8.70375
-8.65202
-8.59658
-8.53734
-8.47422
-8.40713
-8.33597
-8.26066
-8.1811
-8.09721
-8.00888
-7.91599
-7.81841
-7.71605
-7.60885
-7.49675
-7.37967
-7.2575
-7.13014
-6.9975
-6.85948
-6.716
-6.56698
-6.41235
-6.25205
-6.086
-5.91417
-5.7365
-5.55296
-5.36352
-5.16818
-4.96693
-4.75978
-4.54676
-4.32792
-4.10331
-3.87301
-3.63711
-3.39574
-3.14902
-2.89713
-2.64025
-2.37857
-2.11235
-1.84182
-1.56729
-1.28906
-1.00745
-0.722838
-0.435597
-0.146127
0.145157
0.437825
0.731429
1.02551
1.31961
1.61328
1.90606
2.19751
2.48718
2.77463
3.05943
3.34118
3.6195
3.89405
4.1645
4.43059
4.69206
4.9487
5.20033
5.44682
5.68806
5.92399
6.15458
6.37983
6.59974
6.81439
7.02381
7.22811
7.42736
7.62168
7.81117
7.99595
8.17611
8.35177
8.52301
8.68991
8.85256
9.01106
9.16559
9.31648
9.46395
9.60933
9.75044
9.89905
10.0197
-8.13599
-8.13503
-8.13461
-8.13777
-8.1458
-8.15695
-8.16928
-8.18168
-8.19345
-8.2041
-8.21341
-8.22134
-8.22781
-8.23273
-8.23598
-8.23747
-8.23713
-8.2349
-8.23071
-8.22457
-8.21653
-8.20666
-8.19504
-8.18182
-8.16724
-8.15174
-8.13602
-8.12103
-8.10787
-8.0977
-8.09155
-8.08998
-8.09291
-8.09893
-8.10498
-8.10992
-8.11409
-8.11812
-8.12426
-8.13387
-8.14822
-8.16927
-8.19706
-8.22934
-8.26406
-8.30068
-8.33885
-8.37814
-8.41847
-8.46007
-8.50317
-8.54782
-8.59377
-8.64049
-8.68732
-8.73349
-8.77826
-8.82094
-8.86099
-8.89795
-8.93152
-8.9615
-8.98777
-9.0103
-9.0291
-9.04421
-9.0557
-9.06366
-9.06816
-9.0693
-9.06713
-9.06172
-9.05312
-9.04136
-9.02646
-9.00842
-8.98725
-8.96292
-8.93541
-8.90468
-8.87068
-8.83336
-8.79267
-8.74852
-8.70085
-8.64958
-8.59463
-8.53592
-8.47336
-8.40685
-8.33631
-8.26164
-8.18274
-8.09952
-8.01188
-7.91972
-7.82293
-7.72141
-7.61509
-7.50389
-7.38772
-7.26648
-7.14008
-7.00842
-6.87141
-6.72897
-6.58101
-6.42747
-6.26828
-6.10338
-5.9327
-5.75621
-5.57387
-5.38566
-5.19155
-4.99155
-4.78565
-4.5739
-4.35633
-4.133
-3.90397
-3.66934
-3.42922
-3.18375
-2.93309
-2.6774
-2.41691
-2.15183
-1.88242
-1.60896
-1.33175
-1.05112
-0.767429
-0.48105
-0.19238
0.0981753
0.390184
0.683205
0.976782
1.27047
1.56382
1.85635
2.14761
2.43717
2.72459
3.00944
3.29132
3.56985
3.84467
4.11548
4.38198
4.64391
4.90107
5.15326
5.40035
5.64223
5.8788
6.11005
6.33595
6.55652
6.77179
6.98183
7.18671
7.38653
7.58137
7.77135
7.95656
8.13711
8.3131
8.48462
8.65176
8.81462
8.97333
9.12805
9.27905
9.42644
9.57145
9.71128
9.85824
9.96899
-8.14206
-8.14084
-8.14261
-8.15137
-8.1645
-8.17872
-8.19273
-8.20576
-8.21743
-8.22769
-8.23654
-8.24393
-8.24977
-8.25396
-8.25641
-8.25704
-8.25578
-8.25258
-8.24741
-8.24024
-8.23107
-8.21991
-8.20677
-8.19172
-8.17489
-8.15657
-8.13734
-8.11828
-8.10105
-8.08779
-8.0805
-8.07943
-8.08227
-8.08596
-8.0904
-8.09704
-8.10733
-8.12223
-8.14211
-8.16671
-8.19533
-8.22738
-8.2623
-8.29933
-8.33762
-8.37664
-8.4161
-8.45587
-8.49598
-8.53653
-8.57756
-8.619
-8.66065
-8.70217
-8.74315
-8.78312
-8.82163
-8.85822
-8.89252
-8.92421
-8.95304
-8.97883
-9.00146
-9.02085
-9.03698
-9.04986
-9.05949
-9.06592
-9.06919
-9.06933
-9.06638
-9.06037
-9.05132
-9.03924
-9.02414
-9.006
-8.9848
-8.96052
-8.93312
-8.90255
-8.86877
-8.83171
-8.79131
-8.74749
-8.70019
-8.64931
-8.59479
-8.53654
-8.47445
-8.40845
-8.33844
-8.26432
-8.186
-8.10339
-8.01637
-7.92486
-7.82874
-7.72794
-7.62236
-7.51192
-7.39653
-7.27608
-7.15049
-7.01966
-6.88349
-6.74192
-6.59485
-6.44221
-6.28394
-6.11997
-5.95024
-5.77472
-5.59335
-5.40612
-5.21301
-5.014
-4.80911
-4.59835
-4.38178
-4.15943
-3.93138
-3.69773
-3.45856
-3.21403
-2.96428
-2.70949
-2.44985
-2.18561
-1.91699
-1.64429
-1.3678
-1.08785
-0.804784
-0.518986
-0.230841
0.0592431
0.350837
0.643499
0.936779
1.23023
1.5234
1.81581
2.107
2.39653
2.68397
2.9689
3.25089
3.52959
3.80463
4.0757
4.34249
4.60476
4.86228
5.11486
5.36235
5.60464
5.84164
6.07331
6.29962
6.52059
6.73625
6.94666
7.15188
7.35201
7.54713
7.73735
7.92277
8.1035
8.27962
8.45125
8.61845
8.78134
8.94004
9.09469
9.24548
9.39244
9.53661
9.67469
9.81972
9.92088
-8.14882
-8.14897
-8.15552
-8.16861
-8.18334
-8.19761
-8.21096
-8.22323
-8.23434
-8.2442
-8.25269
-8.25968
-8.26504
-8.26869
-8.27054
-8.27053
-8.26864
-8.2648
-8.25898
-8.25116
-8.24132
-8.22943
-8.21551
-8.19957
-8.18172
-8.16225
-8.14181
-8.12171
-8.10409
-8.09171
-8.08548
-8.08273
-8.08179
-8.08405
-8.0914
-8.10533
-8.12577
-8.15151
-8.18123
-8.21388
-8.24872
-8.2852
-8.32291
-8.36154
-8.40078
-8.44036
-8.48004
-8.51962
-8.55901
-8.5982
-8.63717
-8.67586
-8.71412
-8.75174
-8.78846
-8.82396
-8.85795
-8.89012
-8.92019
-8.94792
-8.97312
-8.99564
-9.01535
-9.0322
-9.04613
-9.05712
-9.06516
-9.07026
-9.07243
-9.07168
-9.06801
-9.06145
-9.05198
-9.03959
-9.02428
-9.00602
-8.98478
-8.96052
-8.9332
-8.90277
-8.86916
-8.83231
-8.79215
-8.74862
-8.70162
-8.65109
-8.59693
-8.53905
-8.47737
-8.4118
-8.34224
-8.26859
-8.19076
-8.10865
-8.02217
-7.9312
-7.83567
-7.73547
-7.63051
-7.5207
-7.40595
-7.28616
-7.16123
-7.03108
-6.89561
-6.75474
-6.60839
-6.45649
-6.29896
-6.13574
-5.96678
-5.79202
-5.61142
-5.42496
-5.23262
-5.03438
-4.83026
-4.62027
-4.40444
-4.18284
-3.95552
-3.72257
-3.48409
-3.24023
-2.99112
-2.73694
-2.47789
-2.21419
-1.94609
-1.67387
-1.39782
-1.11827
-0.835574
-0.550096
-0.262222
0.0276323
0.31904
0.61156
0.904742
1.19813
1.49128
1.7837
2.07493
2.36452
2.65205
2.93708
3.21921
3.49807
3.77329
4.04454
4.31155
4.57404
4.8318
5.08462
5.33236
5.57488
5.8121
6.04398
6.27049
6.49163
6.70744
6.91796
7.12328
7.32346
7.51862
7.70885
7.89427
8.07495
8.25102
8.42254
8.58962
8.75234
8.91083
9.06517
9.21552
9.36177
9.50483
9.64094
9.78407
9.87633
-8.15391
-8.15684
-8.16803
-8.18229
-8.19613
-8.20929
-8.22178
-8.23348
-8.24421
-8.25376
-8.26193
-8.26858
-8.27358
-8.27684
-8.27831
-8.27795
-8.27573
-8.27159
-8.26552
-8.2575
-8.24752
-8.23555
-8.22162
-8.20578
-8.18821
-8.16934
-8.15012
-8.13243
-8.11846
-8.10852
-8.10103
-8.09593
-8.09531
-8.10154
-8.11553
-8.13638
-8.16253
-8.19266
-8.22571
-8.26088
-8.29762
-8.33548
-8.37411
-8.41318
-8.45244
-8.4917
-8.53079
-8.56957
-8.60794
-8.64584
-8.68318
-8.71987
-8.75576
-8.79069
-8.82447
-8.85689
-8.88771
-8.91674
-8.94375
-8.96859
-8.99109
-9.01113
-9.02862
-9.04348
-9.05567
-9.06516
-9.07191
-9.07593
-9.07719
-9.0757
-9.07144
-9.0644
-9.05457
-9.04192
-9.02644
-9.00807
-8.98679
-8.96255
-8.93529
-8.90496
-8.8715
-8.83483
-8.79488
-8.75158
-8.70484
-8.65459
-8.60072
-8.54317
-8.48182
-8.4166
-8.34741
-8.27415
-8.19672
-8.11503
-8.02898
-7.93848
-7.84341
-7.7437
-7.63924
-7.52994
-7.41571
-7.29644
-7.17205
-7.04245
-6.90753
-6.76723
-6.62145
-6.47012
-6.31318
-6.15054
-5.98217
-5.808
-5.62799
-5.44212
-5.25036
-5.0527
-4.84914
-4.63971
-4.42443
-4.20335
-3.97653
-3.74407
-3.50605
-3.26262
-3.01392
-2.76012
-2.50141
-2.23803
-1.97021
-1.69823
-1.42238
-1.14301
-0.860445
-0.575059
-0.287244
0.00258598
0.294003
0.586564
0.879817
1.1733
1.46655
1.7591
2.05046
2.34021
2.62789
2.91306
3.19534
3.47435
3.74973
4.02115
4.28832
4.55097
4.80887
5.06182
5.30967
5.55228
5.78957
6.02149
6.24801
6.46913
6.68489
6.89534
7.10056
7.30063
7.49565
7.68571
7.87094
8.05142
8.22725
8.39852
8.56531
8.72771
8.88581
9.03967
9.18938
9.33473
9.47651
9.61055
9.75181
9.83601
-8.15626
-8.16232
-8.17494
-8.188
-8.2006
-8.2129
-8.22483
-8.23615
-8.24661
-8.25595
-8.26394
-8.27043
-8.2753
-8.27847
-8.27989
-8.27951
-8.27731
-8.27326
-8.26735
-8.25957
-8.24992
-8.23845
-8.2252
-8.21033
-8.1942
-8.17766
-8.16198
-8.14825
-8.13653
-8.12644
-8.11889
-8.11613
-8.12016
-8.13139
-8.14914
-8.17236
-8.19997
-8.231
-8.26465
-8.30024
-8.33725
-8.37521
-8.41377
-8.45263
-8.49154
-8.53033
-8.56884
-8.60695
-8.64453
-8.68148
-8.71767
-8.75297
-8.78725
-8.82038
-8.85219
-8.88252
-8.91119
-8.93806
-8.96296
-8.98576
-9.00634
-9.02461
-9.04049
-9.05391
-9.06483
-9.0732
-9.079
-9.0822
-9.08278
-9.08072
-9.07601
-9.06862
-9.05853
-9.04569
-9.03008
-9.01165
-8.99035
-8.96613
-8.93893
-8.9087
-8.87535
-8.83883
-8.79906
-8.75594
-8.70941
-8.65938
-8.60576
-8.54845
-8.48738
-8.42244
-8.35355
-8.28059
-8.20349
-8.12213
-8.03643
-7.94628
-7.85159
-7.75225
-7.64818
-7.53927
-7.42544
-7.30659
-7.18261
-7.05342
-6.91893
-6.77906
-6.63372
-6.48283
-6.32632
-6.16413
-5.9962
-5.82247
-5.64289
-5.45744
-5.2661
-5.06884
-4.86568
-4.65662
-4.4417
-4.22095
-3.99445
-3.76227
-3.52452
-3.28133
-3.03283
-2.7792
-2.52063
-2.25735
-1.9896
-1.71766
-1.44182
-1.16242
-0.879799
-0.594318
-0.306383
-0.0164039
0.275186
0.567941
0.861402
1.1551
1.44856
1.74131
2.03289
2.32286
2.61073
2.89609
3.17854
3.45771
3.73323
4.00478
4.27205
4.53477
4.79271
5.04568
5.29351
5.53607
5.77327
6.00507
6.23143
6.45237
6.66791
6.87812
7.08307
7.28286
7.47757
7.66732
7.85221
8.03234
8.20781
8.3787
8.54508
8.70704
8.86462
9.01787
9.16681
9.31114
9.45152
9.5835
9.72294
9.80003
-8.15248
-8.16038
-8.17201
-8.18383
-8.19572
-8.20758
-8.21925
-8.2305
-8.24103
-8.25051
-8.2587
-8.26541
-8.27051
-8.27392
-8.27559
-8.27549
-8.2736
-8.26991
-8.26443
-8.25719
-8.24822
-8.23757
-8.22541
-8.21213
-8.19842
-8.18495
-8.17211
-8.15999
-8.14901
-8.14039
-8.13607
-8.13748
-8.14494
-8.1583
-8.17722
-8.20096
-8.22872
-8.2597
-8.29318
-8.32854
-8.36525
-8.4029
-8.44115
-8.4797
-8.51833
-8.55683
-8.59504
-8.63279
-8.66993
-8.70631
-8.74179
-8.77626
-8.80957
-8.84159
-8.87219
-8.90122
-8.92855
-8.95404
-8.97759
-8.99909
-9.01843
-9.03555
-9.05037
-9.06284
-9.07292
-9.08056
-9.08572
-9.08839
-9.08852
-9.0861
-9.0811
-9.07349
-9.06322
-9.05027
-9.03459
-9.01614
-8.99485
-8.97068
-8.94355
-8.91341
-8.88018
-8.84379
-8.80415
-8.76119
-8.71483
-8.66497
-8.61154
-8.55443
-8.49356
-8.42884
-8.36016
-8.28744
-8.21057
-8.12946
-8.04401
-7.95412
-7.8597
-7.76065
-7.65686
-7.54825
-7.43471
-7.31616
-7.19249
-7.06361
-6.92943
-6.78988
-6.64485
-6.49428
-6.33809
-6.17621
-6.00858
-5.83515
-5.65587
-5.47071
-5.27964
-5.08264
-4.87972
-4.67088
-4.45616
-4.23559
-4.00924
-3.77718
-3.53953
-3.2964
-3.04793
-2.7943
-2.5357
-2.27235
-2.0045
-1.73242
-1.45643
-1.17683
-0.893982
-0.608251
-0.320045
-0.0297803
0.262112
0.555185
0.848969
1.14299
1.43676
1.72982
2.02169
2.31193
2.60004
2.88561
3.16824
3.44755
3.72318
3.9948
4.2621
4.52482
4.78271
5.03558
5.28327
5.52565
5.76262
5.99415
6.2202
6.4408
6.65597
6.86578
7.07031
7.26965
7.46391
7.6532
7.83762
8.01727
8.19224
8.36263
8.5285
8.6899
8.84687
8.9994
9.14747
9.29067
9.42962
9.55958
9.69723
9.76816
-8.13775
-8.14577
-8.1566
-8.16845
-8.18056
-8.19261
-8.20453
-8.21616
-8.22718
-8.23726
-8.24608
-8.25344
-8.25916
-8.26318
-8.26543
-8.26589
-8.26452
-8.26134
-8.25637
-8.24966
-8.24132
-8.23161
-8.22086
-8.20941
-8.19752
-8.18537
-8.17335
-8.16218
-8.15308
-8.1474
-8.14608
-8.14979
-8.15893
-8.17349
-8.19314
-8.21725
-8.24511
-8.27601
-8.3093
-8.34443
-8.38094
-8.41842
-8.45654
-8.49503
-8.53362
-8.57211
-8.6103
-8.64799
-8.68501
-8.7212
-8.75643
-8.79055
-8.82343
-8.85493
-8.88493
-8.9133
-8.93993
-8.96471
-8.98755
-9.00836
-9.02704
-9.04353
-9.05778
-9.06972
-9.07934
-9.08657
-9.0914
-9.09379
-9.09372
-9.09114
-9.08602
-9.07833
-9.06802
-9.05505
-9.03939
-9.02097
-8.99974
-8.97563
-8.94858
-8.91853
-8.8854
-8.84911
-8.80958
-8.76674
-8.7205
-8.67077
-8.61746
-8.56048
-8.49975
-8.43517
-8.36664
-8.29406
-8.21735
-8.1364
-8.05112
-7.96142
-7.86718
-7.76831
-7.66472
-7.55631
-7.44298
-7.32463
-7.20117
-7.0725
-6.93854
-6.7992
-6.65439
-6.50403
-6.34805
-6.18637
-6.01895
-5.84571
-5.66661
-5.48161
-5.2907
-5.09384
-4.89104
-4.6823
-4.46765
-4.24713
-4.0208
-3.78873
-3.55104
-3.30784
-3.05927
-2.8055
-2.54673
-2.28318
-2.01511
-1.74278
-1.4665
-1.18658
-0.903385
-0.617287
-0.328687
-0.038012
0.254305
0.547806
0.842019
1.13646
1.43063
1.72407
2.01629
2.30683
2.59519
2.88097
3.16377
3.4432
3.71891
3.99055
4.25782
4.52044
4.77819
5.03087
5.2783
5.52037
5.757
5.98813
6.21374
6.43386
6.64852
6.85778
7.06174
7.2605
7.45417
7.64286
7.82668
8.00572
8.1801
8.34987
8.51511
8.67585
8.83211
8.98381
9.13091
9.27292
9.4104
9.53839
9.67426
9.73996
-8.10872
-8.11609
-8.12781
-8.14124
-8.15447
-8.16726
-8.17992
-8.19245
-8.20454
-8.21576
-8.22572
-8.23415
-8.24087
-8.24578
-8.24878
-8.24981
-8.2489
-8.24612
-8.24158
-8.2354
-8.22773
-8.21874
-8.20858
-8.19744
-8.18564
-8.17367
-8.16232
-8.15261
-8.14544
-8.14166
-8.14216
-8.14769
-8.1585
-8.17447
-8.19516
-8.21997
-8.24825
-8.27938
-8.31283
-8.34808
-8.38471
-8.42235
-8.46067
-8.49938
-8.53824
-8.577
-8.61544
-8.65337
-8.69059
-8.72696
-8.76232
-8.79652
-8.82942
-8.8609
-8.89081
-8.91905
-8.94551
-8.97009
-8.99271
-9.0133
-9.03178
-9.0481
-9.06219
-9.07402
-9.08353
-9.0907
-9.09549
-9.09788
-9.09782
-9.09527
-9.0902
-9.08257
-9.07233
-9.05944
-9.04385
-9.02551
-9.00435
-8.98032
-8.95334
-8.92336
-8.89029
-8.85407
-8.81462
-8.77184
-8.72566
-8.676
-8.62276
-8.56585
-8.50519
-8.44068
-8.37222
-8.29973
-8.2231
-8.14224
-8.05705
-7.96744
-7.87331
-7.77455
-7.67107
-7.56277
-7.44956
-7.33133
-7.208
-7.07946
-6.94563
-6.80642
-6.66173
-6.5115
-6.35565
-6.19409
-6.02678
-5.85364
-5.67463
-5.48972
-5.29886
-5.10205
-4.89928
-4.69055
-4.47588
-4.25532
-4.02893
-3.79678
-3.55896
-3.3156
-3.06684
-2.81286
-2.55383
-2.29
-2.0216
-1.74892
-1.47225
-1.19192
-0.90828
-0.621717
-0.332632
-0.0414564
0.251369
0.545376
0.840086
1.135
1.42964
1.7235
2.0161
2.30695
2.59556
2.88155
3.16451
3.44403
3.71977
3.99138
4.25856
4.52103
4.77856
5.03095
5.27804
5.5197
5.75587
5.98648
6.21154
6.43105
6.64507
6.85368
7.05696
7.25502
7.44798
7.63596
7.81907
7.9974
8.17107
8.34014
8.50466
8.66464
8.82009
8.97089
9.11694
9.2577
9.39367
9.51975
9.65382
9.71517
-8.06434
-8.07214
-8.08643
-8.10263
-8.11755
-8.13139
-8.14508
-8.1589
-8.17246
-8.18521
-8.19665
-8.20646
-8.2144
-8.22031
-8.22412
-8.2258
-8.22539
-8.22294
-8.21854
-8.21229
-8.20431
-8.19479
-8.18394
-8.17216
-8.16001
-8.14821
-8.13752
-8.12874
-8.12286
-8.12085
-8.12353
-8.13133
-8.14425
-8.16198
-8.18405
-8.2099
-8.23897
-8.27074
-8.3047
-8.34042
-8.3775
-8.4156
-8.4544
-8.49363
-8.53302
-8.57231
-8.61129
-8.64974
-8.68747
-8.72432
-8.76012
-8.79472
-8.82799
-8.8598
-8.89002
-8.91855
-8.94528
-8.97011
-8.99296
-9.01377
-9.03247
-9.04902
-9.06335
-9.07542
-9.08516
-9.09256
-9.09757
-9.10015
-9.10027
-9.0979
-9.09299
-9.0855
-9.07539
-9.06262
-9.04714
-9.02889
-9.00781
-8.98385
-8.95694
-8.927
-8.89398
-8.85779
-8.81836
-8.77561
-8.72944
-8.67979
-8.62656
-8.56966
-8.509
-8.44449
-8.37604
-8.30356
-8.22694
-8.1461
-8.06094
-7.97135
-7.87724
-7.77852
-7.67508
-7.56683
-7.45366
-7.33548
-7.21221
-7.08373
-6.94996
-6.81082
-6.6662
-6.51603
-6.36024
-6.19874
-6.03148
-5.85839
-5.67942
-5.49453
-5.30369
-5.10687
-4.90408
-4.6953
-4.48056
-4.25991
-4.0334
-3.8011
-3.5631
-3.31953
-3.07053
-2.81627
-2.55694
-2.29276
-2.02399
-1.75089
-1.47377
-1.19297
-0.908836
-0.621753
-0.332135
-0.0404123
0.25296
0.547513
0.842753
1.13818
1.4333
1.7276
2.02058
2.31172
2.60056
2.88675
3.16983
3.44942
3.72514
3.99667
4.26369
4.52593
4.78316
5.03518
5.28183
5.523
5.7586
5.9886
6.21299
6.4318
6.64508
6.85293
7.05542
7.25269
7.44484
7.63202
7.81432
7.99187
8.16474
8.33302
8.49673
8.65589
8.81045
8.96028
9.10522
9.24469
9.37914
9.50339
9.6356
9.69347
-8.00731
-8.01714
-8.03521
-8.05482
-8.07155
-8.08636
-8.10108
-8.11626
-8.13147
-8.14598
-8.15913
-8.17049
-8.17976
-8.18674
-8.1913
-8.1934
-8.19304
-8.19029
-8.18524
-8.17804
-8.1689
-8.15814
-8.1462
-8.13361
-8.121
-8.10911
-8.09886
-8.09127
-8.08731
-8.08779
-8.09315
-8.10349
-8.11863
-8.13822
-8.16179
-8.18885
-8.21893
-8.25155
-8.2863
-8.32276
-8.36056
-8.39936
-8.43887
-8.47879
-8.51887
-8.55886
-8.59854
-8.6377
-8.67616
-8.71374
-8.75026
-8.78556
-8.81951
-8.85199
-8.88288
-8.91207
-8.93945
-8.96493
-8.98842
-9.00983
-9.02911
-9.04619
-9.06101
-9.07354
-9.08372
-9.09152
-9.09689
-9.0998
-9.10022
-9.09811
-9.09344
-9.08616
-9.07624
-9.06363
-9.04827
-9.03013
-9.00913
-8.98523
-8.95836
-8.92845
-8.89544
-8.85925
-8.8198
-8.77701
-8.73081
-8.68111
-8.62783
-8.57088
-8.51017
-8.44561
-8.3771
-8.30457
-8.22791
-8.14702
-8.06182
-7.97219
-7.87806
-7.77931
-7.67585
-7.56759
-7.45441
-7.33624
-7.21297
-7.0845
-6.95075
-6.81162
-6.66703
-6.51688
-6.36111
-6.19964
-6.0324
-5.85932
-5.68035
-5.49545
-5.3046
-5.10776
-4.90491
-4.69606
-4.48123
-4.26047
-4.03381
-3.80134
-3.56314
-3.31934
-3.07007
-2.81552
-2.55586
-2.29132
-2.02215
-1.74863
-1.47105
-1.18977
-0.905127
-0.617519
-0.327361
-0.0350917
0.258828
0.553921
0.849688
1.14562
1.4412
1.73592
2.02924
2.32063
2.60969
2.89603
3.1792
3.45879
3.73445
4.00583
4.27262
4.53457
4.79143
5.04301
5.28915
5.52974
5.7647
5.994
6.21764
6.43566
6.64813
6.85512
7.05675
7.25314
7.44442
7.63072
7.81215
7.98883
8.16084
8.32826
8.4911
8.64936
8.80298
8.95178
9.09557
9.23371
9.36665
9.48913
9.61944
9.67463
-7.94453
-7.95691
-7.97946
-8.00278
-8.02116
-8.03667
-8.05221
-8.06868
-8.08552
-8.10176
-8.11653
-8.12927
-8.1396
-8.14725
-8.15205
-8.15393
-8.15292
-8.14911
-8.14268
-8.13392
-8.1232
-8.11094
-8.09768
-8.0841
-8.07107
-8.05955
-8.05055
-8.04496
-8.04353
-8.04672
-8.05471
-8.06742
-8.08461
-8.1059
-8.13088
-8.15912
-8.19021
-8.22373
-8.2593
-8.29653
-8.33509
-8.37466
-8.41495
-8.45567
-8.49655
-8.53736
-8.57789
-8.61795
-8.65734
-8.69587
-8.73336
-8.76965
-8.80461
-8.83809
-8.86995
-8.90008
-8.92837
-8.95472
-8.97904
-9.00125
-9.02127
-9.03904
-9.05452
-9.06764
-9.07838
-9.08669
-9.09253
-9.09587
-9.09667
-9.09489
-9.09051
-9.08348
-9.07377
-9.06133
-9.04611
-9.02806
-9.00714
-8.98328
-8.95642
-8.92651
-8.89347
-8.85723
-8.81772
-8.77486
-8.72858
-8.67879
-8.62541
-8.56835
-8.50753
-8.44287
-8.37427
-8.30163
-8.22487
-8.14389
-8.05859
-7.96889
-7.87468
-7.77586
-7.67235
-7.56403
-7.45081
-7.33261
-7.20931
-7.08083
-6.94706
-6.80793
-6.66333
-6.51319
-6.35743
-6.19596
-6.02873
-5.85565
-5.67668
-5.49177
-5.3009
-5.10403
-4.90113
-4.69222
-4.4773
-4.25643
-4.02965
-3.79701
-3.55863
-3.31462
-3.06512
-2.81029
-2.55033
-2.28546
-2.01592
-1.742
-1.46401
-1.18228
-0.89717
-0.609079
-0.318427
-0.0256635
0.268753
0.564333
0.860576
1.15696
1.45295
1.748
2.04157
2.33316
2.62238
2.90881
3.19199
3.47152
3.74704
4.0182
4.28471
4.54629
4.80272
5.05378
5.29934
5.53928
5.77354
6.00208
6.22492
6.44209
6.65367
6.85976
7.06047
7.25593
7.44628
7.63165
7.81216
7.98792
8.15903
8.32553
8.48746
8.64478
8.7974
8.94513
9.08774
9.22455
9.35598
9.47677
9.6051
9.65835
-7.88444
-7.8991
-7.92603
-7.95292
-7.97265
-7.9885
-8.00453
-8.02201
-8.04019
-8.05781
-8.07377
-8.0874
-8.09822
-8.10586
-8.11014
-8.11102
-8.10859
-8.10305
-8.0947
-8.08393
-8.07123
-8.05725
-8.04277
-8.0287
-8.01598
-8.00556
-7.99829
-7.99487
-7.99576
-8.00122
-8.01127
-8.02577
-8.04443
-8.06695
-8.09297
-8.12212
-8.15402
-8.18826
-8.22448
-8.26236
-8.3016
-8.34189
-8.38296
-8.4245
-8.46627
-8.50803
-8.54955
-8.59064
-8.6311
-8.67073
-8.70936
-8.74681
-8.78292
-8.81754
-8.85051
-8.88171
-8.91103
-8.93837
-8.96363
-8.98675
-9.00763
-9.02622
-9.04245
-9.05629
-9.06768
-9.07658
-9.08296
-9.08678
-9.08801
-9.08661
-9.08255
-9.07579
-9.0663
-9.05403
-9.03894
-9.02099
-9.00013
-8.97629
-8.94943
-8.91949
-8.88639
-8.85008
-8.81048
-8.76752
-8.72112
-8.67121
-8.6177
-8.56051
-8.49956
-8.43477
-8.36603
-8.29326
-8.21636
-8.13526
-8.04985
-7.96003
-7.86572