/*--------------------------------*- C++ -*----------------------------------*\
| =========                 |                                                 |
| \\      /  F ield         | OpenFOAM: The Open Source CFD Toolbox           |
|  \\    /   O peration     | Version:  2406                                  |
|   \\  /    A nd           | Website:  www.openfoam.com                      |
|    \\/     M anipulation  |                                                 |
\*---------------------------------------------------------------------------*/
FoamFile
{
    version     2.0;
    format      ascii;
    arch        "LSB;label=32;scalar=64";
    class       surfaceScalarField;
    location    "200";
    object      phi;
}
// * * * * * * * * * * * * * * * * * * * * * * * * * * * * * * * * * * * * * //

dimensions      [0 3 -1 0 0 0 0];

oriented        oriented;

internalField   nonuniform List<scalar> 
24170
(
3.11204e-06
7.63688e-08
3.00844e-06
1.03593e-07
2.9124e-06
9.60421e-08
2.82045e-06
9.19508e-08
2.73274e-06
8.77165e-08
2.65255e-06
8.01863e-08
2.58126e-06
7.12926e-08
2.5185e-06
6.27566e-08
2.46341e-06
5.50868e-08
2.41511e-06
4.8305e-08
2.3728e-06
4.23055e-08
2.33581e-06
3.69927e-08
2.30358e-06
3.22281e-08
2.27571e-06
2.78736e-08
2.25203e-06
2.36821e-08
2.23271e-06
1.93173e-08
2.2182e-06
1.45046e-08
4.21403e-09
2.21399e-06
3.46995e-06
2.36657e-08
3.48703e-06
8.65108e-08
3.4918e-06
9.12749e-08
3.48951e-06
9.42379e-08
3.4817e-06
9.55304e-08
3.46942e-06
9.24685e-08
3.45361e-06
8.70973e-08
3.43526e-06
8.11132e-08
3.41523e-06
7.5117e-08
3.39429e-06
6.92436e-08
3.37303e-06
6.35655e-08
3.3519e-06
5.81213e-08
3.33123e-06
5.28942e-08
3.3113e-06
4.78047e-08
3.29229e-06
4.26911e-08
3.27444e-06
3.71723e-08
3.25803e-06
3.09102e-08
2.09e-08
3.24135e-06
3.66901e-06
1.71718e-08
3.68278e-06
7.27369e-08
3.69306e-06
8.10038e-08
3.7027e-06
8.45911e-08
3.71096e-06
8.72733e-08
3.71699e-06
8.64418e-08
3.72088e-06
8.32047e-08
3.72292e-06
7.90687e-08
3.72343e-06
7.46132e-08
3.72266e-06
7.00129e-08
3.72088e-06
6.5348e-08
3.7183e-06
6.06949e-08
3.71514e-06
5.6056e-08
3.71157e-06
5.1372e-08
3.70775e-06
4.65109e-08
3.7038e-06
4.11211e-08
3.6997e-06
3.50137e-08
2.69401e-08
3.69366e-06
3.92539e-06
1.71707e-08
3.93666e-06
6.14638e-08
3.94492e-06
7.27429e-08
3.95246e-06
7.70534e-08
3.95943e-06
8.03078e-08
3.96535e-06
8.05172e-08
3.9703e-06
7.82532e-08
3.97447e-06
7.49053e-08
3.97796e-06
7.11159e-08
3.98089e-06
6.70912e-08
3.98332e-06
6.29168e-08
3.98534e-06
5.86707e-08
3.98704e-06
5.436e-08
3.98847e-06
4.99362e-08
3.9897e-06
4.52859e-08
3.99065e-06
4.0168e-08
3.99116e-06
3.4503e-08
2.78452e-08
3.99026e-06
4.20787e-06
1.64268e-08
4.2164e-06
5.2933e-08
4.22302e-06
6.61289e-08
4.22907e-06
7.10037e-08
4.235e-06
7.43732e-08
4.24044e-06
7.50731e-08
4.2453e-06
7.33957e-08
4.24966e-06
7.05477e-08
4.25359e-06
6.71851e-08
4.25716e-06
6.35247e-08
4.26041e-06
5.96636e-08
4.2634e-06
5.56765e-08
4.26618e-06
5.15815e-08
4.26878e-06
4.73422e-08
4.27118e-06
4.28778e-08
4.27331e-06
3.8047e-08
4.27497e-06
3.2838e-08
2.71827e-08
4.27563e-06
4.51049e-06
1.50208e-08
4.51719e-06
4.62405e-08
4.52311e-06
6.02085e-08
4.52859e-06
6.55166e-08
4.53411e-06
6.88581e-08
4.53934e-06
6.98446e-08
4.54412e-06
6.86114e-08
4.5485e-06
6.61669e-08
4.55254e-06
6.31469e-08
4.55629e-06
5.97759e-08
4.55979e-06
5.61645e-08
4.56308e-06
5.23873e-08
4.56618e-06
4.84759e-08
4.56912e-06
4.44097e-08
4.57185e-06
4.01445e-08
4.57428e-06
3.56121e-08
4.57627e-06
3.08485e-08
2.5936e-08
4.57752e-06
4.83418e-06
1.35588e-08
4.83989e-06
4.0535e-08
4.8456e-06
5.45002e-08
4.85088e-06
6.02318e-08
4.85618e-06
6.35571e-08
4.86129e-06
6.4739e-08
4.86604e-06
6.38632e-08
4.87044e-06
6.17609e-08
4.87455e-06
5.90336e-08
4.87842e-06
5.59153e-08
4.88205e-06
5.25263e-08
4.8855e-06
4.89444e-08
4.88876e-06
4.52136e-08
4.89184e-06
4.13317e-08
4.89469e-06
3.72868e-08
4.89724e-06
3.30621e-08
4.89937e-06
2.87219e-08
2.43943e-08
4.90091e-06
5.18097e-06
1.21741e-08
5.18602e-06
3.54814e-08
5.19156e-06
4.89612e-08
5.19675e-06
5.50386e-08
5.20194e-06
5.83685e-08
5.207e-06
5.96833e-08
5.21176e-06
5.91013e-08
5.21622e-06
5.7299e-08
5.22042e-06
5.48335e-08
5.22439e-06
5.19488e-08
5.22814e-06
4.87718e-08
5.2317e-06
4.53853e-08
5.23507e-06
4.18437e-08
5.23824e-06
3.81637e-08
5.24117e-06
3.43587e-08
5.24378e-06
3.04463e-08
5.246e-06
2.65012e-08
2.26522e-08
5.24774e-06
5.55267e-06
1.08401e-08
5.55718e-06
3.09763e-08
5.56248e-06
4.36532e-08
5.56762e-06
4.99051e-08
5.57275e-06
5.32316e-08
5.57781e-06
5.46298e-08
5.58262e-06
5.4291e-08
5.58716e-06
5.27592e-08
5.59145e-06
5.05373e-08
5.59553e-06
4.78769e-08
5.59939e-06
4.49101e-08
5.60305e-06
4.17257e-08
5.60651e-06
3.83863e-08
5.60974e-06
3.49261e-08
5.61273e-06
3.13762e-08
5.6154e-06
2.77752e-08
5.6177e-06
2.41969e-08
2.07553e-08
5.6196e-06
5.95106e-06
9.55396e-09
5.95509e-06
2.69463e-08
5.96014e-06
3.86095e-08
5.96521e-06
4.48325e-08
5.97032e-06
4.81247e-08
5.97538e-06
4.95631e-08
5.98025e-06
4.94198e-08
5.98488e-06
4.81319e-08
5.98928e-06
4.61411e-08
5.99345e-06
4.37004e-08
5.99742e-06
4.09471e-08
6.00117e-06
3.79744e-08
6.0047e-06
3.48519e-08
6.008e-06
3.16273e-08
6.01103e-06
2.83434e-08
6.01376e-06
2.50496e-08
6.01614e-06
2.18132e-08
1.87301e-08
6.01817e-06
6.37803e-06
8.33155e-09
6.38166e-06
2.33177e-08
6.38644e-06
3.38372e-08
6.39143e-06
3.98371e-08
6.39651e-06
4.30477e-08
6.40158e-06
4.44868e-08
6.40651e-06
4.44894e-08
6.41123e-06
4.34156e-08
6.41573e-06
4.16442e-08
6.42001e-06
3.94208e-08
6.42407e-06
3.68859e-08
6.42791e-06
3.41358e-08
6.43151e-06
3.12446e-08
6.43487e-06
2.82689e-08
6.43796e-06
2.52586e-08
6.44074e-06
2.22664e-08
6.4432e-06
1.93513e-08
1.65919e-08
6.44534e-06
5.74182e-06
7.34876e-09
5.74461e-06
2.05205e-08
5.74844e-06
3.00133e-08
5.75259e-06
3.56876e-08
5.75685e-06
3.87853e-08
5.76114e-06
4.01978e-08
5.76534e-06
4.0285e-08
5.76939e-06
3.93655e-08
5.77327e-06
3.77692e-08
5.77696e-06
3.57273e-08
5.78047e-06
3.33803e-08
5.78378e-06
3.08256e-08
5.78688e-06
2.81394e-08
5.78977e-06
2.53822e-08
5.79242e-06
2.26068e-08
5.79482e-06
1.98653e-08
5.79696e-06
1.72092e-08
1.47064e-08
5.79885e-06
6.99921e-06
6.29357e-09
7.00218e-06
1.75494e-08
7.00633e-06
2.58639e-08
7.01096e-06
3.10537e-08
7.0158e-06
3.39512e-08
7.0207e-06
3.52921e-08
7.02555e-06
3.54372e-08
7.03025e-06
3.46648e-08
7.03477e-06
3.32537e-08
7.03908e-06
3.14149e-08
7.04318e-06
2.92851e-08
7.04704e-06
2.69605e-08
7.05066e-06
2.45173e-08
7.05403e-06
2.20172e-08
7.05712e-06
1.9513e-08
7.05993e-06
1.70539e-08
7.06246e-06
1.46836e-08
1.24589e-08
7.06471e-06
8.53197e-06
5.17521e-09
8.53508e-06
1.44345e-08
8.53952e-06
2.1422e-08
8.54463e-06
2.595e-08
8.55004e-06
2.85348e-08
8.55559e-06
2.97412e-08
8.56113e-06
2.99024e-08
8.56654e-06
2.92579e-08
8.57175e-06
2.80351e-08
8.57675e-06
2.64177e-08
8.5815e-06
2.45338e-08
8.58599e-06
2.2475e-08
8.59019e-06
2.03141e-08
8.5941e-06
1.81107e-08
8.5977e-06
1.59147e-08
8.60098e-06
1.37703e-08
8.60395e-06
1.1713e-08
9.7899e-09
8.60662e-06
1.04004e-05
4.00628e-09
1.04036e-05
1.12006e-08
1.04083e-05
1.67178e-08
1.04139e-05
2.03975e-08
1.04199e-05
2.25343e-08
1.04261e-05
2.35243e-08
1.04324e-05
2.36457e-08
1.04385e-05
2.3097e-08
1.04445e-05
2.20559e-08
1.04502e-05
2.0673e-08
1.04557e-05
1.90603e-08
1.04609e-05
1.73009e-08
1.04657e-05
1.54601e-08
1.04703e-05
1.35915e-08
1.04744e-05
1.17394e-08
1.04783e-05
9.94119e-09
1.04818e-05
8.2246e-09
6.62817e-09
1.04849e-05
1.2678e-05
2.79649e-09
1.26813e-05
7.85068e-09
1.26863e-05
1.17614e-08
1.26923e-05
1.44082e-08
1.26989e-05
1.59438e-08
1.27058e-05
1.66167e-08
1.27128e-05
1.66296e-08
1.27198e-05
1.61331e-08
1.27266e-05
1.52569e-08
1.27331e-05
1.41136e-08
1.27394e-05
1.27925e-08
1.27453e-05
1.13614e-08
1.27509e-05
9.8745e-09
1.27561e-05
8.37559e-09
1.2761e-05
6.90061e-09
1.27654e-05
5.47881e-09
1.27695e-05
4.13067e-09
2.88665e-09
1.27733e-05
1.54544e-05
1.54051e-09
1.54579e-05
4.34941e-09
1.54632e-05
6.51011e-09
1.54697e-05
7.94305e-09
1.54769e-05
8.7155e-09
1.54845e-05
8.95646e-09
1.54924e-05
8.78338e-09
1.55002e-05
8.28894e-09
1.55079e-05
7.5536e-09
1.55154e-05
6.6488e-09
1.55226e-05
5.63375e-09
1.55294e-05
4.55552e-09
1.55358e-05
3.45198e-09
1.55418e-05
2.35414e-09
1.55474e-05
1.28706e-09
1.55526e-05
2.70967e-10
1.55574e-05
-6.81063e-10
-1.54606e-09
1.55619e-05
1.8839e-05
2.03241e-10
1.88427e-05
5.83127e-10
1.88484e-05
8.04086e-10
1.88556e-05
8.28894e-10
1.88636e-05
6.73427e-10
1.88722e-05
3.66363e-10
1.8881e-05
-6.79083e-11
1.88899e-05
-6.05305e-10
1.88987e-05
-1.21928e-09
1.89072e-05
-1.88389e-09
1.89155e-05
-2.57617e-09
1.89233e-05
-3.27597e-09
1.89307e-05
-3.96568e-09
1.89377e-05
-4.63013e-09
1.89442e-05
-5.25685e-09
1.89503e-05
-5.8356e-09
1.8956e-05
-6.36064e-09
-6.81662e-09
1.89613e-05
2.29649e-05
-1.31106e-09
2.29692e-05
-3.72951e-09
2.29757e-05
-5.77079e-09
2.2984e-05
-7.40802e-09
2.29933e-05
-8.65739e-09
2.30033e-05
-9.60817e-09
2.30136e-05
-1.03537e-08
2.30239e-05
-1.095e-08
2.30341e-05
-1.14307e-08
2.30441e-05
-1.18244e-08
2.30536e-05
-1.21526e-08
2.30628e-05
-1.2428e-08
2.30715e-05
-1.26567e-08
2.30797e-05
-1.28415e-08
2.30874e-05
-1.29839e-08
2.30947e-05
-1.30841e-08
2.31015e-05
-1.31437e-08
-1.31549e-08
2.31078e-05
1.68119e-05
-2.48079e-09
1.68152e-05
-7.04051e-09
1.68202e-05
-1.0832e-08
1.68265e-05
-1.37033e-08
1.68336e-05
-1.56939e-08
1.6841e-05
-1.70455e-08
1.68486e-05
-1.79639e-08
1.68562e-05
-1.8556e-08
1.68637e-05
-1.88986e-08
1.68709e-05
-1.90638e-08
1.68779e-05
-1.91067e-08
1.68845e-05
-1.90615e-08
1.68908e-05
-1.89504e-08
1.68968e-05
-1.87881e-08
1.69024e-05
-1.85851e-08
1.69076e-05
-1.83475e-08
1.69126e-05
-1.80809e-08
-1.77813e-08
1.69172e-05
1.46357e-05
-3.5856e-09
1.46389e-05
-1.02241e-08
1.46438e-05
-1.57403e-08
1.46498e-05
-1.97063e-08
1.46563e-05
-2.22553e-08
1.46632e-05
-2.38802e-08
1.46701e-05
-2.48817e-08
1.46769e-05
-2.53953e-08
1.46836e-05
-2.55494e-08
1.469e-05
-2.54656e-08
1.46961e-05
-2.52253e-08
1.47019e-05
-2.4877e-08
1.47074e-05
-2.44541e-08
1.47126e-05
-2.3981e-08
1.47175e-05
-2.34741e-08
1.47221e-05
-2.29439e-08
1.47264e-05
-2.23979e-08
-2.1835e-08
1.47305e-05
1.27411e-05
-4.58476e-09
1.27443e-05
-1.3408e-08
1.27493e-05
-2.07616e-08
1.27552e-05
-2.55989e-08
1.27614e-05
-2.84752e-08
1.27678e-05
-3.0273e-08
1.27742e-05
-3.12855e-08
1.27805e-05
-3.16438e-08
1.27865e-05
-3.15537e-08
1.27922e-05
-3.11929e-08
1.27977e-05
-3.0661e-08
1.28028e-05
-3.00151e-08
1.28076e-05
-2.92972e-08
1.28122e-05
-2.85383e-08
1.28165e-05
-2.77583e-08
1.28205e-05
-2.69691e-08
1.28243e-05
-2.61779e-08
-2.5384e-08
1.28278e-05
1.10917e-05
-5.34217e-09
1.10949e-05
-1.66347e-08
1.11003e-05
-2.6112e-08
1.11061e-05
-3.14796e-08
1.11121e-05
-3.44241e-08
1.11181e-05
-3.62929e-08
1.11241e-05
-3.72239e-08
1.11298e-05
-3.73549e-08
1.11352e-05
-3.699e-08
1.11404e-05
-3.63456e-08
1.11452e-05
-3.55246e-08
1.11498e-05
-3.45907e-08
1.11541e-05
-3.35947e-08
1.11581e-05
-3.25726e-08
1.11619e-05
-3.1546e-08
1.11655e-05
-3.05273e-08
1.11688e-05
-2.95247e-08
-2.85384e-08
1.1172e-05
9.65562e-06
-5.74683e-09
9.65899e-06
-2.00079e-08
9.66459e-06
-3.17128e-08
9.67034e-06
-3.72277e-08
9.67611e-06
-4.01901e-08
9.68188e-06
-4.20681e-08
9.68744e-06
-4.27766e-08
9.69267e-06
-4.25915e-08
9.69761e-06
-4.19294e-08
9.70227e-06
-4.10071e-08
9.70666e-06
-3.9912e-08
9.71078e-06
-3.87106e-08
9.71464e-06
-3.74593e-08
9.71827e-06
-3.61979e-08
9.72167e-06
-3.49482e-08
9.72487e-06
-3.37229e-08
9.72787e-06
-3.25262e-08
-3.13496e-08
9.73068e-06
8.40493e-06
-5.3238e-09
8.40926e-06
-2.43388e-08
8.41476e-06
-3.7211e-08
8.41995e-06
-4.24161e-08
8.42549e-06
-4.57344e-08
8.43116e-06
-4.77413e-08
8.43657e-06
-4.81774e-08
8.44161e-06
-4.76323e-08
8.44632e-06
-4.66453e-08
8.45073e-06
-4.542e-08
8.45486e-06
-4.40326e-08
8.4587e-06
-4.25536e-08
8.46228e-06
-4.10428e-08
8.46562e-06
-3.95406e-08
8.46875e-06
-3.807e-08
8.47167e-06
-3.66445e-08
8.47442e-06
-3.5274e-08
-3.39564e-08
8.47702e-06
7.31362e-06
-1.65885e-09
7.32062e-06
-3.13344e-08
7.3266e-06
-4.31935e-08
7.33173e-06
-4.75463e-08
7.33735e-06
-5.13606e-08
7.34307e-06
-5.34566e-08
7.34849e-06
-5.35933e-08
7.35355e-06
-5.27003e-08
7.35829e-06
-5.1379e-08
7.36268e-06
-4.98104e-08
7.36673e-06
-4.8083e-08
7.37045e-06
-4.62791e-08
7.37388e-06
-4.4467e-08
7.37702e-06
-4.26866e-08
7.37992e-06
-4.09648e-08
7.38259e-06
-3.93142e-08
7.38505e-06
-3.77374e-08
-3.61925e-08
7.38729e-06
6.36053e-06
7.88214e-09
6.37062e-06
-4.14289e-08
6.37893e-06
-5.15062e-08
6.38647e-06
-5.5079e-08
6.39386e-06
-5.87568e-08
6.40052e-06
-6.0112e-08
6.40635e-06
-5.94267e-08
6.41157e-06
-5.79203e-08
6.4163e-06
-5.61049e-08
6.42056e-06
-5.40724e-08
6.42438e-06
-5.19048e-08
6.42779e-06
-4.96884e-08
6.43082e-06
-4.74967e-08
6.4335e-06
-4.53692e-08
6.43587e-06
-4.33367e-08
6.43798e-06
-4.14177e-08
6.43987e-06
-3.96278e-08
-3.79742e-08
6.44165e-06
5.53964e-06
1.37115e-08
5.54925e-06
-5.10466e-08
5.55858e-06
-6.08342e-08
5.56919e-06
-6.56927e-08
5.57995e-06
-6.95103e-08
5.58933e-06
-6.94891e-08
5.59697e-06
-6.70712e-08
5.60309e-06
-6.40369e-08
5.6079e-06
-6.0916e-08
5.61159e-06
-5.77661e-08
5.61433e-06
-5.46395e-08
5.61624e-06
-5.1604e-08
5.61745e-06
-4.87076e-08
5.61806e-06
-4.59803e-08
5.61816e-06
-4.3437e-08
5.61786e-06
-4.11125e-08
5.61723e-06
-3.89995e-08
-3.71499e-08
5.61641e-06
4.87136e-06
-3.00385e-08
4.88543e-06
-6.51218e-08
4.89437e-06
-6.97713e-08
4.90074e-06
-7.20628e-08
4.90502e-06
-7.37872e-08
4.90664e-06
-7.1111e-08
4.90536e-06
-6.57939e-08
4.90133e-06
-6.00026e-08
4.89495e-06
-5.45415e-08
4.88672e-06
-4.95347e-08
4.87709e-06
-4.50129e-08
4.86645e-06
-4.09616e-08
4.85511e-06
-3.73606e-08
4.8433e-06
-3.41722e-08
4.83122e-06
-3.13622e-08
4.81905e-06
-2.89368e-08
4.80697e-06
-2.69242e-08
-2.58295e-08
4.79565e-06
4.17264e-06
4.10752e-06
4.03774e-06
3.96568e-06
3.89189e-06
3.82078e-06
3.75499e-06
3.69499e-06
3.64045e-06
3.59091e-06
3.5459e-06
3.50494e-06
3.46758e-06
3.4334e-06
3.40204e-06
3.3731e-06
3.34618e-06
3.32035e-06
-1.14912e-08
1.14895e-08
-3.03109e-08
1.88168e-08
-5.0731e-08
2.04174e-08
-6.86645e-08
1.79311e-08
-7.74635e-08
8.79641e-09
-6.90092e-08
-8.45639e-09
-4.06904e-08
-2.83214e-08
3.95053e-09
-4.46428e-08
5.93801e-08
-5.54318e-08
1.19539e-07
-6.01604e-08
1.78408e-07
-5.88703e-08
2.31878e-07
-5.34708e-08
2.77228e-07
-4.53512e-08
3.12773e-07
-3.55451e-08
3.37491e-07
-2.4719e-08
3.50744e-07
-1.32531e-08
3.51992e-07
-1.2493e-09
3.40994e-07
1.09989e-08
3.18173e-07
2.28194e-08
2.84676e-07
3.34974e-08
2.42341e-07
4.23339e-08
1.93788e-07
4.85549e-08
1.42458e-07
5.13284e-08
9.25297e-08
4.99306e-08
4.84677e-08
4.40611e-08
1.39778e-08
3.44927e-08
-9.72041e-09
2.36978e-08
-2.48079e-08
1.50901e-08
-3.43939e-08
9.58654e-09
-4.08976e-08
6.50618e-09
-4.51506e-08
4.25298e-09
-4.49118e-08
-2.3511e-10
-3.58991e-08
-9.01487e-09
-1.57089e-08
-2.01862e-08
1.47902e-08
-3.05042e-08
5.02025e-08
-3.54093e-08
8.30887e-08
-3.28912e-08
1.08161e-07
-2.50704e-08
1.2289e-07
-1.47319e-08
1.28303e-07
-5.41049e-09
1.28727e-07
-4.26755e-10
1.31769e-07
-3.04e-09
1.4897e-07
-1.72057e-08
1.67704e-07
-1.87307e-08
1.65034e-07
2.6601e-09
1.30237e-07
3.48023e-08
5.52375e-08
7.49868e-08
-6.17727e-08
1.17015e-07
-2.13829e-07
1.52046e-07
-3.8913e-07
1.75304e-07
-5.77253e-07
1.88117e-07
-7.69311e-07
1.9206e-07
-9.58138e-07
1.88824e-07
-1.13828e-06
1.80139e-07
-1.30602e-06
1.67742e-07
-1.45923e-06
1.53207e-07
-1.59707e-06
1.37841e-07
-1.71971e-06
1.22641e-07
-1.82801e-06
1.08296e-07
-1.92324e-06
9.52229e-08
-2.00686e-06
8.36244e-08
-2.08042e-06
7.3555e-08
-2.14539e-06
6.49685e-08
-2.20312e-06
5.7727e-08
-2.25477e-06
5.16488e-08
-2.30133e-06
4.65587e-08
-2.34363e-06
4.22931e-08
-2.38234e-06
3.87073e-08
-2.41802e-06
3.56773e-08
-2.45112e-06
3.31015e-08
-2.48201e-06
3.08917e-08
-2.51099e-06
2.89769e-08
-2.53829e-06
2.72987e-08
-2.5641e-06
2.58102e-08
-2.58858e-06
2.4473e-08
-2.61184e-06
2.3256e-08
-2.63397e-06
2.21339e-08
-2.65506e-06
2.10862e-08
-2.67516e-06
2.0096e-08
-2.69431e-06
1.91493e-08
-2.71255e-06
1.82347e-08
-2.7299e-06
1.73424e-08
-2.74636e-06
1.64644e-08
-2.76196e-06
1.5593e-08
-2.77668e-06
1.47223e-08
-2.79053e-06
1.38461e-08
-2.80349e-06
1.29596e-08
-2.81555e-06
1.20571e-08
-2.82669e-06
1.11338e-08
-2.83687e-06
1.01847e-08
-2.84607e-06
9.20334e-09
-2.85425e-06
8.18414e-09
-2.86137e-06
7.12058e-09
-2.86737e-06
6.00476e-09
-2.87219e-06
4.82461e-09
-2.87576e-06
3.56659e-09
-2.87799e-06
2.22771e-09
-2.87883e-06
8.44424e-10
-2.87836e-06
-4.74014e-10
-2.87672e-06
-1.64175e-09
-2.874e-06
-2.72306e-09
-2.8702e-06
-3.8034e-09
-2.8653e-06
-4.89957e-09
-2.85929e-06
-6.02073e-09
-2.85213e-06
-7.16735e-09
-2.8438e-06
-8.34165e-09
-2.83427e-06
-9.54218e-09
-2.82351e-06
-1.07707e-08
-2.81149e-06
-1.20254e-08
-2.79819e-06
-1.33081e-08
-2.78358e-06
-1.46166e-08
-2.76763e-06
-1.59526e-08
-2.75032e-06
-1.73135e-08
-2.73162e-06
-1.87006e-08
-2.71151e-06
-2.01109e-08
-2.68997e-06
-2.15455e-08
-2.66697e-06
-2.30013e-08
-2.64249e-06
-2.44789e-08
-2.61651e-06
-2.59746e-08
-2.58902e-06
-2.74877e-08
-2.56e-06
-2.90147e-08
-2.52944e-06
-3.0554e-08
-2.49733e-06
-3.2102e-08
-2.46367e-06
-3.36561e-08
-2.42845e-06
-3.52123e-08
-2.39168e-06
-3.67665e-08
-2.35335e-06
-3.83145e-08
-2.31349e-06
-3.98507e-08
-2.2721e-06
-4.13739e-08
-2.22921e-06
-4.28805e-08
-2.18485e-06
-4.43535e-08
-2.13902e-06
-4.58115e-08
-2.09179e-06
-4.72297e-08
-2.04317e-06
-4.86123e-08
-1.99322e-06
-4.99582e-08
-1.94198e-06
-5.12409e-08
-1.88951e-06
-5.24858e-08
-1.83588e-06
-5.3642e-08
-1.78117e-06
-5.47418e-08
-1.72544e-06
-5.57714e-08
-1.66877e-06
-5.67175e-08
-1.61122e-06
-5.75909e-08
-1.55288e-06
-5.83933e-08
-1.49383e-06
-5.91022e-08
-1.43417e-06
-5.97044e-08
-1.37401e-06
-6.02104e-08
-1.31344e-06
-6.06185e-08
-1.25256e-06
-6.09332e-08
-1.19145e-06
-6.11539e-08
-1.13021e-06
-6.1285e-08
-1.06892e-06
-6.1327e-08
-1.00767e-06
-6.12849e-08
-9.46546e-07
-6.11613e-08
-8.85615e-07
-6.09655e-08
-8.2494e-07
-6.07019e-08
-7.64584e-07
-6.03817e-08
-7.04593e-07
-6.00099e-08
-6.45015e-07
-5.95966e-08
-5.85879e-07
-5.91457e-08
-5.27216e-07
-5.86722e-08
-4.69037e-07
-5.81789e-08
-4.11359e-07
-5.76785e-08
-3.54172e-07
-5.7178e-08
-2.97478e-07
-5.66856e-08
-2.41259e-07
-5.62003e-08
-1.85491e-07
-5.57509e-08
-1.30153e-07
-5.53102e-08
-7.52876e-08
-5.48416e-08
-2.10006e-08
-5.42507e-08
3.24464e-08
-5.34177e-08
8.50351e-08
-5.25468e-08
1.36775e-07
-5.17087e-08
1.87604e-07
-5.07853e-08
2.37415e-07
-4.97765e-08
2.85989e-07
-4.85244e-08
3.32772e-07
-4.67418e-08
3.76751e-07
-4.39206e-08
4.15247e-07
-3.84536e-08
4.46395e-07
-3.11023e-08
3.64667e-09
4.4276e-07
-4.42835e-09
1.5915e-08
-1.24931e-08
2.68763e-08
-1.65328e-08
2.44516e-08
-6.9988e-09
8.39158e-09
2.23706e-08
-2.05775e-08
6.97174e-08
-5.58058e-08
1.29264e-07
-8.78703e-08
1.94192e-07
-1.09571e-07
2.57978e-07
-1.19219e-07
3.16206e-07
-1.18388e-07
3.6707e-07
-1.09736e-07
4.09651e-07
-9.6052e-08
4.43793e-07
-7.94938e-08
4.69735e-07
-6.14883e-08
4.87907e-07
-4.28916e-08
4.98809e-07
-2.41545e-08
5.03109e-07
-5.54998e-09
5.01242e-07
1.28654e-08
4.92924e-07
3.11369e-08
4.77398e-07
4.90236e-08
4.53803e-07
6.59282e-08
4.21471e-07
8.08873e-08
3.80218e-07
9.2581e-08
3.30653e-07
9.94962e-08
2.74407e-07
1.00307e-07
2.14448e-07
9.4453e-08
1.55501e-07
8.26444e-08
1.04006e-07
6.65893e-08
6.53425e-08
4.82483e-08
4.22929e-08
2.9562e-08
3.53028e-08
1.12403e-08
4.25349e-08
-7.46086e-09
6.16447e-08
-2.81282e-08
9.06305e-08
-4.91686e-08
1.23179e-07
-6.30558e-08
1.50546e-07
-6.27736e-08
1.67711e-07
-5.0059e-08
1.73459e-07
-3.08158e-08
1.6957e-07
-1.08465e-08
1.62613e-07
1.54921e-09
1.47563e-07
1.46159e-08
1.03787e-07
4.07385e-08
5.04564e-09
8.15261e-08
-1.53935e-07
1.40248e-07
-3.52468e-07
2.01189e-07
-5.6905e-07
2.51383e-07
-7.88069e-07
2.94004e-07
-9.99075e-07
3.2802e-07
-1.19678e-06
3.4975e-07
-1.37812e-06
3.56647e-07
-1.54032e-06
3.50313e-07
-1.68178e-06
3.33522e-07
-1.8024e-06
3.09436e-07
-1.90349e-06
2.81233e-07
-1.98733e-06
2.51583e-07
-2.05667e-06
2.22541e-07
-2.11429e-06
1.95458e-07
-2.16275e-06
1.711e-07
-2.20421e-06
1.49763e-07
-2.24042e-06
1.31423e-07
-2.27266e-06
1.15865e-07
-2.3019e-06
1.02793e-07
-2.32879e-06
9.18642e-08
-2.35381e-06
8.27404e-08
-2.37727e-06
7.51091e-08
-2.39941e-06
6.86986e-08
-2.4204e-06
6.32827e-08
-2.44037e-06
5.86721e-08
-2.4594e-06
5.47105e-08
-2.47758e-06
5.12712e-08
-2.49494e-06
4.82505e-08
-2.51153e-06
4.55658e-08
-2.52738e-06
4.31497e-08
-2.54252e-06
4.09476e-08
-2.55696e-06
3.8915e-08
-2.57072e-06
3.70155e-08
-2.58381e-06
3.52195e-08
-2.59623e-06
3.35023e-08
-2.60798e-06
3.18437e-08
-2.61906e-06
3.02267e-08
-2.62946e-06
2.86373e-08
-2.63918e-06
2.70634e-08
-2.64822e-06
2.54949e-08
-2.65655e-06
2.39229e-08
-2.66417e-06
2.23401e-08
-2.67106e-06
2.07395e-08
-2.67722e-06
1.91157e-08
-2.68263e-06
1.74633e-08
-2.68727e-06
1.57784e-08
-2.69114e-06
1.40563e-08
-2.69423e-06
1.22938e-08
-2.69653e-06
1.04874e-08
-2.69805e-06
8.63413e-09
-2.69877e-06
6.7331e-09
-2.69873e-06
4.78719e-09
-2.69798e-06
2.80923e-09
-2.69657e-06
8.21098e-10
-2.69457e-06
-1.15744e-09
-2.6919e-06
-3.14103e-09
-2.68838e-06
-5.16777e-09
-2.68385e-06
-7.25013e-09
-2.67828e-06
-9.38053e-09
-2.67162e-06
-1.15604e-08
-2.66386e-06
-1.37922e-08
-2.65496e-06
-1.60772e-08
-2.64489e-06
-1.84158e-08
-2.63363e-06
-2.08082e-08
-2.62116e-06
-2.32546e-08
-2.60743e-06
-2.57546e-08
-2.59244e-06
-2.83082e-08
-2.57615e-06
-3.09146e-08
-2.55853e-06
-3.35734e-08
-2.53956e-06
-3.6283e-08
-2.51922e-06
-3.90423e-08
-2.49749e-06
-4.1849e-08
-2.47433e-06
-4.47016e-08
-2.44973e-06
-4.75974e-08
-2.42368e-06
-5.05337e-08
-2.39614e-06
-5.35065e-08
-2.36711e-06
-5.65121e-08
-2.33658e-06
-5.95451e-08
-2.30453e-06
-6.26011e-08
-2.27096e-06
-6.56739e-08
-2.23585e-06
-6.87576e-08
-2.19921e-06
-7.18445e-08
-2.16105e-06
-7.49274e-08
-2.12136e-06
-7.79971e-08
-2.08015e-06
-8.10456e-08
-2.03745e-06
-8.40648e-08
-1.99328e-06
-8.70466e-08
-1.94765e-06
-8.99788e-08
-1.9006e-06
-9.28563e-08
-1.85216e-06
-9.56625e-08
-1.80238e-06
-9.83886e-08
-1.75131e-06
-1.01024e-07
-1.69901e-06
-1.03553e-07
-1.64553e-06
-1.05969e-07
-1.59094e-06
-1.08252e-07
-1.5353e-06
-1.10405e-07
-1.47868e-06
-1.12414e-07
-1.42117e-06
-1.1426e-07
-1.36284e-06
-1.15952e-07
-1.30379e-06
-1.17479e-07
-1.24411e-06
-1.18819e-07
-1.18388e-06
-1.19961e-07
-1.12322e-06
-1.20908e-07
-1.06221e-06
-1.2166e-07
-1.00095e-06
-1.22222e-07
-9.39541e-07
-1.22595e-07
-8.78068e-07
-1.22787e-07
-8.16623e-07
-1.228e-07
-7.5529e-07
-1.22643e-07
-6.9415e-07
-1.22325e-07
-6.33277e-07
-1.2186e-07
-5.72738e-07
-1.2126e-07
-5.12594e-07
-1.20541e-07
-4.52899e-07
-1.19719e-07
-3.93696e-07
-1.1881e-07
-3.3502e-07
-1.17829e-07
-2.76897e-07
-1.16799e-07
-2.19342e-07
-1.15737e-07
-1.62364e-07
-1.14654e-07
-1.05958e-07
-1.13579e-07
-5.01172e-08
-1.12518e-07
5.14654e-09
-1.11454e-07
5.9815e-08
-1.10404e-07
1.13911e-07
-1.09391e-07
1.67477e-07
-1.08387e-07
2.20601e-07
-1.07355e-07
2.73431e-07
-1.06222e-07
3.2593e-07
-1.05022e-07
3.78003e-07
-1.03754e-07
4.29603e-07
-1.02358e-07
4.80594e-07
-1.00737e-07
5.30742e-07
-9.86407e-08
5.79644e-07
-9.56086e-08
6.26472e-07
-9.07126e-08
6.70458e-07
-8.24031e-08
7.08101e-07
-6.87151e-08
-2.95106e-08
7.41275e-07
7.99582e-10
1.51126e-08
5.40414e-09
2.22662e-08
2.49885e-08
4.8625e-09
6.96423e-08
-3.62651e-08
1.36402e-07
-8.73395e-08
2.12041e-07
-1.31445e-07
2.83643e-07
-1.59473e-07
3.44386e-07
-1.70315e-07
3.92445e-07
-1.67279e-07
4.28864e-07
-1.54808e-07
4.55851e-07
-1.36723e-07
4.75506e-07
-1.15708e-07
4.89433e-07
-9.34209e-08
4.98732e-07
-7.07875e-08
5.04132e-07
-4.82922e-08
5.06119e-07
-2.61416e-08
5.05001e-07
-4.43206e-09
5.01111e-07
1.67552e-08
4.94813e-07
3.74336e-08
4.86241e-07
5.7596e-08
4.75075e-07
7.70939e-08
4.60458e-07
9.55036e-08
4.41037e-07
1.12002e-07
4.15254e-07
1.25279e-07
3.81946e-07
1.33615e-07
3.41237e-07
1.35162e-07
2.95378e-07
1.28504e-07
2.48821e-07
1.13147e-07
2.07107e-07
8.99616e-08
1.75681e-07
6.09903e-08
1.58333e-07
2.85883e-08
1.56103e-07
-5.22898e-09
1.66497e-07
-3.85224e-08
1.80078e-07
-6.27482e-08
1.84643e-07
-6.76212e-08
1.73817e-07
-5.1946e-08
1.4786e-07
-2.41041e-08
1.07364e-07
9.682e-09
4.35331e-08
5.29802e-08
-6.27948e-08
1.07875e-07
-2.21469e-07
1.73287e-07
-4.21709e-07
2.40977e-07
-6.44548e-07
3.04363e-07
-8.66336e-07
3.62036e-07
-1.07358e-06
4.08427e-07
-1.26136e-06
4.39162e-07
-1.42332e-06
4.55962e-07
-1.55532e-06
4.60023e-07
-1.6578e-06
4.52235e-07
-1.73538e-06
4.34221e-07
-1.79333e-06
4.0826e-07
-1.83695e-06
3.77147e-07
-1.87103e-06
3.43512e-07
-1.89936e-06
3.09569e-07
-1.9247e-06
2.76922e-07
-1.94879e-06
2.46624e-07
-1.97257e-06
2.1924e-07
-1.99645e-06
1.94977e-07
-2.02048e-06
1.7379e-07
-2.04453e-06
1.55475e-07
-2.06842e-06
1.39754e-07
-2.09195e-06
1.26318e-07
-2.11494e-06
1.14855e-07
-2.13727e-06
1.0507e-07
-2.15886e-06
9.6696e-08
-2.17966e-06
8.94988e-08
-2.19965e-06
8.32791e-08
-2.21885e-06
7.78643e-08
-2.23725e-06
7.3111e-08
-2.25488e-06
6.88993e-08
-2.27176e-06
6.51288e-08
-2.28791e-06
6.17169e-08
-2.30336e-06
5.85947e-08
-2.31811e-06
5.57053e-08
-2.3322e-06
5.30011e-08
-2.34563e-06
5.04425e-08
-2.35841e-06
4.79964e-08
-2.37054e-06
4.56351e-08
-2.38204e-06
4.33354e-08
-2.39289e-06
4.10776e-08
-2.4031e-06
3.88451e-08
-2.41266e-06
3.66239e-08
-2.42157e-06
3.44018e-08
-2.42981e-06
3.21686e-08
-2.43739e-06
2.99154e-08
-2.44429e-06
2.76347e-08
-2.45049e-06
2.532e-08
-2.456e-06
2.29659e-08
-2.46079e-06
2.05679e-08
-2.46485e-06
1.81225e-08
-2.46818e-06
1.56264e-08
-2.47077e-06
1.30773e-08
-2.47261e-06
1.04743e-08
-2.47369e-06
7.81716e-09
-2.47402e-06
5.10951e-09
-2.47357e-06
2.35782e-09
-2.47231e-06
-4.31053e-10
-2.47021e-06
-3.26145e-09
-2.4672e-06
-6.15438e-09
-2.46323e-06
-9.13284e-09
-2.45829e-06
-1.21995e-08
-2.45232e-06
-1.5348e-08
-2.44531e-06
-1.85769e-08
-2.43722e-06
-2.18858e-08
-2.42803e-06
-2.52754e-08
-2.41771e-06
-2.87451e-08
-2.40623e-06
-3.22956e-08
-2.39356e-06
-3.59263e-08
-2.37968e-06
-3.96374e-08
-2.36457e-06
-4.34279e-08
-2.34819e-06
-4.72976e-08
-2.33052e-06
-5.12446e-08
-2.31154e-06
-5.52677e-08
-2.29121e-06
-5.93643e-08
-2.26953e-06
-6.35322e-08
-2.24647e-06
-6.77677e-08
-2.222e-06
-7.20676e-08
-2.1961e-06
-7.6427e-08
-2.16876e-06
-8.08409e-08
-2.13997e-06
-8.53028e-08
-2.10971e-06
-8.98061e-08
-2.07797e-06
-9.43429e-08
-2.04473e-06
-9.89047e-08
-2.01001e-06
-1.03482e-07
-1.97378e-06
-1.08064e-07
-1.93607e-06
-1.12639e-07
-1.89686e-06
-1.17195e-07
-1.85618e-06
-1.21718e-07
-1.81404e-06
-1.26197e-07
-1.77047e-06
-1.30618e-07
-1.72548e-06
-1.34965e-07
-1.6791e-06
-1.39225e-07
-1.63138e-06
-1.43377e-07
-1.58237e-06
-1.47404e-07
-1.5321e-06
-1.5129e-07
-1.48064e-06
-1.55018e-07
-1.42804e-06
-1.58572e-07
-1.37437e-06
-1.61932e-07
-1.3197e-06
-1.65091e-07
-1.2641e-06
-1.68031e-07
-1.20765e-06
-1.70728e-07
-1.15043e-06
-1.73182e-07
-1.09255e-06
-1.75381e-07
-1.03408e-06
-1.773e-07
-9.75124e-07
-1.78933e-07
-9.15772e-07
-1.80273e-07
-8.56123e-07
-1.81322e-07
-7.96272e-07
-1.82084e-07
-7.36314e-07
-1.82565e-07
-6.76339e-07
-1.82771e-07
-6.16436e-07
-1.82712e-07
-5.56688e-07
-1.82399e-07
-4.97173e-07
-1.81847e-07
-4.37962e-07
-1.81076e-07
-3.79121e-07
-1.80106e-07
-3.20707e-07
-1.78959e-07
-2.62769e-07
-1.7766e-07
-2.05347e-07
-1.76234e-07
-1.48471e-07
-1.74706e-07
-9.21619e-08
-1.73109e-07
-3.64259e-08
-1.71472e-07
1.87329e-08
-1.69813e-07
7.33143e-08
-1.68159e-07
1.27332e-07
-1.66535e-07
1.80827e-07
-1.64948e-07
2.33834e-07
-1.63411e-07
2.86388e-07
-1.61944e-07
3.38538e-07
-1.60538e-07
3.90352e-07
-1.59168e-07
4.41916e-07
-1.57787e-07
4.93264e-07
-1.56368e-07
5.44369e-07
-1.54859e-07
5.95188e-07
-1.53174e-07
6.45605e-07
-1.51154e-07
6.9544e-07
-1.48473e-07
7.44399e-07
-1.44565e-07
7.92057e-07
-1.38366e-07
8.37982e-07
-1.28325e-07
8.81137e-07
-1.11869e-07
-7.42218e-08
9.25842e-07
-1.10692e-09
1.62165e-08
1.7032e-08
4.12246e-09
7.25912e-08
-5.06995e-08
1.5589e-07
-1.19565e-07
2.42504e-07
-1.73955e-07
3.14761e-07
-2.03703e-07
3.66524e-07
-2.11237e-07
3.99659e-07
-2.0345e-07
4.19193e-07
-1.86814e-07
4.30082e-07
-1.65698e-07
4.35922e-07
-1.42564e-07
4.38864e-07
-1.1865e-07
4.39997e-07
-9.4555e-08
4.39787e-07
-7.05772e-08
4.3839e-07
-4.68959e-08
4.35872e-07
-2.36236e-08
4.32285e-07
-8.45251e-10
4.27664e-07
2.13755e-08
4.22093e-07
4.30048e-08
4.157e-07
6.39884e-08
4.08576e-07
8.42175e-08
4.0062e-07
1.03459e-07
3.91364e-07
1.21258e-07
3.79874e-07
1.36769e-07
3.64869e-07
1.48619e-07
3.45173e-07
1.54857e-07
3.20444e-07
1.53233e-07
2.91963e-07
1.41628e-07
2.62742e-07
1.19182e-07
2.36827e-07
8.69073e-08
2.17961e-07
4.74538e-08
2.0732e-07
5.41339e-09
1.96265e-07
-2.74678e-08
1.6926e-07
-3.57411e-08
1.19069e-07
-1.7431e-08
4.3924e-08
2.31996e-08
-6.41042e-08
8.39224e-08
-2.11942e-07
1.57519e-07
-3.94193e-07
2.35231e-07
-5.97884e-07
3.11565e-07
-8.073e-07
3.82702e-07
-1.00869e-06
4.42369e-07
-1.19107e-06
4.86743e-07
-1.34446e-06
5.15419e-07
-1.4655e-06
5.29471e-07
-1.55693e-06
5.30595e-07
-1.62196e-06
5.20983e-07
-1.66488e-06
5.02946e-07
-1.69112e-06
4.78479e-07
-1.70644e-06
4.4954e-07
-1.71599e-06
4.17807e-07
-1.72371e-06
3.84865e-07
-1.73222e-06
3.52023e-07
-1.74294e-06
3.2029e-07
-1.7564e-06
2.90377e-07
-1.77251e-06
2.62739e-07
-1.79088e-06
2.3761e-07
-1.81096e-06
2.15058e-07
-1.8322e-06
1.95023e-07
-1.85408e-06
1.77358e-07
-1.8762e-06
1.61869e-07
-1.89822e-06
1.48337e-07
-1.9199e-06
1.36533e-07
-1.94106e-06
1.26238e-07
-1.96161e-06
1.17243e-07
-1.98147e-06
1.09358e-07
-2.00061e-06
1.02415e-07
-2.01901e-06
9.62638e-08
-2.03668e-06
9.07762e-08
-2.05362e-06
8.58409e-08
-2.06985e-06
8.13624e-08
-2.0854e-06
7.72596e-08
-2.10027e-06
7.34635e-08
-2.11448e-06
6.99156e-08
-2.12804e-06
6.65661e-08
-2.14097e-06
6.33729e-08
-2.15328e-06
6.03001e-08
-2.16496e-06
5.73173e-08
-2.17603e-06
5.43985e-08
-2.18647e-06
5.15217e-08
-2.19629e-06
4.86681e-08
-2.20549e-06
4.58215e-08
-2.21406e-06
4.2968e-08
-2.22199e-06
4.00959e-08
-2.22927e-06
3.71949e-08
-2.23589e-06
3.42565e-08
-2.24185e-06
3.12732e-08
-2.24712e-06
2.82387e-08
-2.2517e-06
2.51481e-08
-2.25557e-06
2.19966e-08
-2.25873e-06
1.87812e-08
-2.26115e-06
1.54986e-08
-2.26282e-06
1.21471e-08
-2.26373e-06
8.72547e-09
-2.26385e-06
5.23398e-09
-2.26317e-06
1.67317e-09
-2.26164e-06
-1.95886e-09
-2.25923e-06
-5.67143e-09
-2.25591e-06
-9.47999e-09
-2.25165e-06
-1.33975e-08
-2.24642e-06
-1.74262e-08
-2.24021e-06
-2.15637e-08
-2.23298e-06
-2.58088e-08
-2.22471e-06
-3.01608e-08
-2.21537e-06
-3.46198e-08
-2.20494e-06
-3.91853e-08
-2.19338e-06
-4.38577e-08
-2.18068e-06
-4.86365e-08
-2.16679e-06
-5.35217e-08