/*--------------------------------*- C++ -*----------------------------------*\
| =========                 |                                                 |
| \\      /  F ield         | OpenFOAM: The Open Source CFD Toolbox           |
|  \\    /   O peration     | Version:  2406                                  |
|   \\  /    A nd           | Website:  www.openfoam.com                      |
|    \\/     M anipulation  |                                                 |
\*---------------------------------------------------------------------------*/
FoamFile
{
    version     2.0;
    format      ascii;
    arch        "LSB;label=32;scalar=64";
    class       volScalarField;
    location    "0.75";
    object      nu;
}
// * * * * * * * * * * * * * * * * * * * * * * * * * * * * * * * * * * * * * //

dimensions      [0 2 -1 0 0 0 0];

internalField   nonuniform List<scalar> 
1800
(
0.0131241
0.0120736
0.0109924
0.0100641
0.00936185
0.00892157
0.00865254
0.00844853
0.00836882
0.0086592
0.0225148
0.0155649
0.011403
0.00974113
0.00899195
0.00864327
0.00848625
0.00839601
0.00852103
0.00855262
0.0577155
0.0148056
0.01036
0.00911465
0.00863439
0.00847188
0.00846505
0.0085035
0.00881918
0.00874323
0.0200266
0.0111224
0.00912438
0.00851284
0.00833366
0.00835686
0.00848297
0.00861607
0.00902728
0.00877766
0.0125938
0.00922885
0.00830385
0.00808746
0.00815122
0.00835664
0.00861838
0.00883843
0.00928574
0.00867326
0.00977744
0.00821014
0.00779513
0.00784981
0.008129
0.00851385
0.00888783
0.00912539
0.00937114
0.00860636
0.00834912
0.00759892
0.00751429
0.00780936
0.00831022
0.00885989
0.00925827
0.00935923
0.00926744
0.00861437
0.0075083
0.00722617
0.00740828
0.00794839
0.00867347
0.00931041
0.00956407
0.00941183
0.00913651
0.0088629
0.00697654
0.0070089
0.00743666
0.0082333
0.00915756
0.00976105
0.00977219
0.00945998
0.00927052
0.0094649
0.00662622
0.00689325
0.00755882
0.00862203
0.00971774
0.0102252
0.0100318
0.00970053
0.0097388
0.0104568
0.0073764
0.00996207
0.0136781
0.0151688
0.0151007
0.0148465
0.0145249
0.0141158
0.0137011
0.0134254
0.00720419
0.00969149
0.0140755
0.0163699
0.0160641
0.0154891
0.014905
0.0142978
0.0137501
0.0133726
0.00709669
0.00948401
0.014695
0.0198829
0.0190294
0.0171979
0.0159839
0.0149998
0.0141713
0.0135802
0.00703671
0.00929623
0.0153732
0.0334721
0.0363893
0.0238253
0.0184811
0.0162303
0.0149107
0.0140341
0.00704845
0.00917044
0.0150595
0.0372057
0.0856072
0.0504593
0.0265184
0.0190423
0.0161218
0.0147162
0.00716577
0.00904655
0.0130658
0.0197291
0.0251297
0.0256103
0.0230462
0.0200395
0.017032
0.0153059
0.00741241
0.00899916
0.0115801
0.014233
0.015689
0.016275
0.0164673
0.0163594
0.0153036
0.0146953
0.00784401
0.00908263
0.0106362
0.0118598
0.012404
0.012608
0.0127916
0.0130506
0.0129044
0.0132681
0.00861886
0.00943762
0.0102306
0.0106985
0.0107541
0.0106748
0.0106562
0.0107818
0.0108042
0.0114964
0.0100696
0.0102923
0.0103915
0.0102602
0.00991677
0.00961062
0.00942265
0.00934458
0.00919938
0.00996226
0.0145239
0.0129397
0.0144248
0.0165412
0.019184
0.0233584
0.0283077
0.0340917
0.0371354
0.0480084
0.0146738
0.0132507
0.0142145
0.0160877
0.0184677
0.022522
0.0275921
0.0336475
0.0369968
0.0479191
0.0150091
0.0140455
0.0141011
0.0156601
0.0176974
0.0214261
0.0262516
0.0320793
0.0354874
0.045447
0.0157395
0.0151967
0.0136391
0.0147392
0.016448
0.0196299
0.0238395
0.0288982
0.0321044
0.0399659
0.0164005
0.0148578
0.0124068
0.0130435
0.0144195
0.0168483
0.0201541
0.0241144
0.0269815
0.0324229
0.0154442
0.012709
0.0111991
0.0114994
0.0124398
0.0140611
0.0163428
0.0191261
0.0214256
0.0249711
0.0134597
0.0113041
0.0106251
0.0106851
0.0112263
0.0122157
0.0136575
0.0154581
0.0170437
0.0193135
0.0114137
0.0108777
0.0106679
0.0105339
0.0107646
0.011325
0.0122109
0.0133558
0.0143583
0.0158121
0.0106668
0.0109884
0.0109728
0.0108002
0.0108496
0.0111291
0.0116672
0.0124231
0.0130522
0.0140276
0.00971327
0.0103524
0.0108573
0.0110171
0.0112319
0.0114617
0.0118095
0.012331
0.0127178
0.0134176
0.00978605
0.0102671
0.0103029
0.0107247
0.0115368
0.0122514
0.0127325
0.0132179
0.01347
0.0140139
0.00890037
0.0095652
0.00983784
0.0101937
0.0112206
0.0126941
0.0140327
0.015029
0.0154665
0.0160171
0.00947279
0.011234
0.0115476
0.0114014
0.0120674
0.0136571
0.0157741
0.01794
0.0194408
0.0208684
0.0125838
0.0165084
0.0130154
0.0124778
0.0132235
0.015294
0.0187107
0.023595
0.0283388
0.0370716
0.0216326
0.0180379
0.0132942
0.0128958
0.0137989
0.0161566
0.0203928
0.027177
0.0343337
0.0584138
0.0312734
0.0164324
0.0132792
0.0131053
0.0139808
0.0157644
0.0184568
0.0214934
0.0241827
0.0271096
0.0153322
0.0123452
0.0110105
0.0108898
0.0114929
0.0124246
0.0134478
0.0143133
0.0150224
0.0155325
0.00954698
0.00883766
0.00862998
0.00889109
0.00944445
0.0100153
0.0104976
0.0108679
0.0111298
0.0113411
0.00739507
0.00740764
0.00767433
0.00811521
0.00858109
0.00893601
0.00917955
0.00934953
0.00944338
0.00954079
0.00695244
0.00746052
0.00814386
0.00880524
0.00911245
0.00910687
0.00899796
0.00890368
0.00882173
0.00881455
0.01348
0.0114816
0.0101884
0.00927889
0.00886053
0.00864734
0.00851528
0.0086737
0.00816119
0.00911706
0.0166747
0.0173917
0.0130957
0.0122956
0.0101159
0.00982351
0.00862698
0.00883429
0.00805323
0.0086274
0.0175355
0.019168
0.0147153
0.0159144
0.0120213
0.0125131
0.0102269
0.0101411
0.00921076
0.00872834
0.0197672
0.0171978
0.018517
0.0152865
0.0161107
0.0136102
0.014586
0.0118839
0.0128105
0.0103314
0.0185181
0.0170456
0.0209852
0.0160749
0.0214219
0.0149107
0.0227241
0.0145136
0.0213821
0.0138999
0.0156654
0.0163333
0.0176915
0.0181574
0.0209141
0.0191334
0.0246733
0.019895
0.0316626
0.0213809
0.0125366
0.0129826
0.0130207
0.0138677
0.0139663
0.0150306
0.0148084
0.0161214
0.0157003
0.017497
0.00957617
0.0096741
0.0095194
0.00973891
0.00962051
0.00990708
0.00975545
0.0100982
0.009874
0.0102586
0.00768342
0.00762308
0.00759956
0.00757462
0.00756595
0.00756078
0.00756152
0.00756693
0.00756532
0.00760311
0.00642116
0.00641676
0.00644271
0.006449
0.00649304
0.00650586
0.00657398
0.00658448
0.00669231
0.00669664
0.01057
0.0118518
0.0121169
0.0120979
0.0120695
0.0122545
0.0125824
0.0104265
0.00736504
0.0059754
0.0113555
0.0120808
0.0123378
0.0123339
0.0122888
0.0124893
0.0127195
0.0101757
0.00724549
0.00593454
0.0118234
0.0123989
0.0127961
0.0130038
0.0130662
0.0133657
0.0132333
0.00989218
0.00712608
0.00590499
0.011898
0.0123812
0.0130426
0.0138603
0.0145457
0.0153341
0.0141447
0.00960225
0.00701958
0.00589352
0.0117561
0.0120778
0.0128782
0.0145512
0.0167445
0.0184367
0.0143977
0.00925092
0.00693526
0.00590645
0.011914
0.011936
0.0125936
0.0146514
0.0181138
0.0191844
0.0132304
0.00886502
0.00687701
0.00594512
0.0122278
0.0118556
0.0121711
0.0138064
0.0163579
0.0158935
0.0117061
0.00850918
0.00684171
0.00600903
0.0125727
0.0116613
0.0116024
0.0125466
0.0137804
0.0131245
0.0105359
0.0082085
0.00682423
0.00609894
0.0124603
0.0112044
0.0109159
0.0113831
0.0119699
0.0114469
0.00970882
0.00795554
0.006822
0.00622068
0.0116007
0.0104679
0.0102175
0.0105367
0.0108807
0.0104196
0.00910159
0.00773887
0.00684
0.00638811
0.0123853
0.0121383
0.011924
0.0117242
0.0115194
0.0113227
0.0111307
0.0107757
0.00976401
0.00782474
0.012289
0.0120369
0.011819
0.0116139
0.0114068
0.0112154
0.0110423
0.0106419
0.00931708
0.00734652
0.0122688
0.0120404
0.0118449
0.0116406
0.0114178
0.0112075
0.0110251
0.0105393
0.00892334
0.00699518
0.0121495
0.0119321
0.0117537
0.0115639
0.0113679
0.0112035
0.0110854
0.0105526
0.00864304
0.00674836
0.01219
0.0119604
0.0117692
0.0115466
0.0113087
0.011111
0.0109818
0.0103884
0.00834455
0.00654421
0.0122332
0.012085
0.0119778
0.0117995
0.01159
0.0114241
0.0113182
0.0105063
0.00812897
0.0063906
0.0120876
0.0119503
0.0118455
0.0116529
0.011443
0.0113185
0.0113113
0.0104758
0.0079407
0.00626924
0.0123816
0.0122339
0.0121872
0.0119769
0.0117167
0.0115561
0.0115129
0.0104152
0.00775527
0.00616774
0.0129614
0.0127882
0.0126019
0.0122857
0.0120016
0.0118901
0.0119039
0.0104488
0.00760482
0.0060869
0.0124622
0.0126829
0.0128356
0.012603
0.0123255
0.012291
0.0124216
0.0105117
0.00748032
0.00602463
0.0296908
0.0277989
0.0334445
0.0446507
0.0487124
0.0531972
0.0345466
0.0266232
0.0173298
0.0132069
0.0294838
0.0267624
0.0333202
0.043051
0.0476351
0.0617677
0.0387809
0.0270357
0.0174829
0.0130991
0.0292697
0.0258089
0.0328713
0.0403274
0.0458742
0.0731851
0.0445185
0.0274609
0.0177361
0.013019
0.0290156
0.0248472
0.0319039
0.0372509
0.045819
0.0915115
0.0508077
0.0279084
0.0180704
0.0128125
0.0286851
0.023853
0.0304443
0.0356558
0.0504661
0.11615
0.0544702
0.0284008
0.0183765
0.0128851
0.0282809
0.0229298
0.0290998
0.038435
0.0614452
0.118546
0.0517309
0.028201
0.0182023
0.0127229
0.0278883
0.022237
0.028542
0.0489999
0.0691021
0.0808927
0.0412187
0.0266916
0.0176675
0.0122699
0.0278836
0.0217588
0.0284694
0.0643288
0.0535204
0.0430393
0.0286008
0.0232346
0.0158403
0.0127579
0.0292559
0.0211142
0.0280505
0.0510912
0.0301981
0.0247199
0.0205237
0.0197663
0.0148921
0.0119881
0.032464
0.0202441
0.0255386
0.0278925
0.0196676
0.0172981
0.0158982
0.0155718
0.0131598
0.0130181
0.0364785
0.0193338
0.0218348
0.0198972
0.0159966
0.0149757
0.0132608
0.0140465
0.0112144
0.0138882
0.0429703
0.0178039
0.0188673
0.0178119
0.0151758
0.0148673
0.0122443
0.0143917
0.0104095
0.0135775
0.0513099
0.0162866
0.0177578
0.0182085
0.016543
0.0157522
0.0129832
0.0144887
0.0111241
0.0119671
0.0570102
0.0153832
0.0168187
0.018927
0.020581
0.0170957
0.0161133
0.0145493
0.0135705
0.0113366
0.0622668
0.0152128
0.0159409
0.0188492
0.0269191
0.0187962
0.0264787
0.0152578
0.015637
0.0121124
0.0789562
0.0155184
0.0156467
0.0184335
0.0247499
0.0223069
0.0285607
0.0170212
0.0163633
0.0140681
0.148804
0.0166801
0.0161128
0.0171565
0.0172544
0.0213835
0.0163939
0.0197473
0.0156727
0.0153051
0.0607706
0.0204342
0.0150437
0.0134427
0.012381
0.0129052
0.0118496
0.0135123
0.0117369
0.0124178
0.0291748
0.0151426
0.0111273
0.0103602
0.00990251
0.00970667
0.00968079
0.00941703
0.00939601
0.00921564
0.00801904
0.00790755
0.00871988
0.00851207
0.00840624
0.00817427
0.0080738
0.00756825
0.00766752
0.00712105
0.0119182
0.0122855
0.0122538
0.0122667
0.0122605
0.0126448
0.0132259
0.0146765
0.0156798
0.0153515
0.0115975
0.0113389
0.0113195
0.0114749
0.0117576
0.0122788
0.0128156
0.0142326
0.0153706
0.0188964
0.011619
0.0115456
0.0117796
0.0121557
0.0128193
0.0134787
0.0143201
0.0152181
0.0163727
0.0184456
0.0121535
0.012366
0.0128697
0.0133831
0.0141733
0.0145211
0.0154345
0.0153013
0.0169779
0.0166775
0.0134362
0.013728
0.0142757
0.0146346
0.0149565
0.0148387
0.0151718
0.01509
0.0161849
0.0160027
0.0145504
0.0142738
0.0142704
0.0142485
0.0142298
0.0140757
0.0140371
0.0142008
0.0145285
0.0149707
0.0138809
0.0132877
0.0130028
0.012876
0.0127725
0.01266
0.0124378
0.0125216
0.0123476
0.0126547
0.0115377
0.0111747
0.0108811
0.010695
0.0104856
0.010315
0.0101067
0.0100206
0.00980576
0.00980288
0.008993
0.0088077
0.00862791
0.00847787
0.00833005
0.00819161
0.0080639
0.00794352
0.00784129
0.0077414
0.00697196
0.00686628
0.00676664
0.00667518
0.00659857
0.00654054
0.0065
0.00646289
0.00643995
0.00641768
0.00617241
0.00710567
0.00911864
0.0140179
0.0257347
0.0215045
0.0156981
0.0124768
0.0101515
0.00852287
0.00624
0.00701204
0.00866706
0.0132239
0.0400314
0.0343388
0.0166319
0.012072
0.00988219
0.00846864
0.00636271
0.00695847
0.00822065
0.011441
0.0229805
0.0352223
0.0178366
0.0122136
0.00989913
0.00858284
0.00656211
0.00696839
0.00785175
0.00992984
0.0151412
0.0234315
0.0186344
0.0129808
0.0102672
0.0088462
0.0068638
0.00706847
0.00762259
0.00893057
0.0117034
0.016368
0.0178862
0.0142343
0.0111329
0.00934469
0.00730087
0.00728799
0.00756747
0.00837084
0.00996774
0.0126146
0.0151892
0.0148047
0.0123914
0.010197
0.00791077
0.00765287
0.00770422
0.00817198
0.00913497
0.0106793
0.0125534
0.0136598
0.0131156
0.0113462
0.00871977
0.00818435
0.00804949
0.00828404
0.00887016
0.00979191
0.0109203
0.0118996
0.0123822
0.0116744
0.00965458
0.00887683
0.0086217
0.00869227
0.00902641
0.00956926
0.0102128
0.010804
0.0113967
0.0111894
0.0104176
0.00965702
0.00942903
0.00940307
0.00952589
0.00976376
0.0100423
0.0102628
0.0105065
0.0107225
0.0106591
0.0103821
0.0104687
0.0104847
0.0104123
0.0103543
0.01033
0.010306
0.0102816
0.0111722
0.0104703
0.0109754
0.0117337
0.0120835
0.0118507
0.0114808
0.0111877
0.0109881
0.0108235
0.0114503
0.0101634
0.0114627
0.0132693
0.0146037
0.0142161
0.0134939
0.0129286
0.0125225
0.0121329
0.0123824
0.00992007
0.0119245
0.0154582
0.0210079
0.0210604
0.0186561
0.0164091
0.0150195
0.0139586
0.0135829
0.00961281
0.0120497
0.0168478
0.0313103
0.117567
0.0327855
0.0207541
0.0175329
0.0157954
0.014775
0.00915751
0.0119712
0.0174506
0.0292497
0.0394307
0.0311133
0.0219228
0.0185182
0.0168921
0.0156179
0.00868503
0.0116847
0.016314
0.0202138
0.0217861
0.0213817
0.0191006
0.0173045
0.016259
0.0153655
0.00827096
0.0112413
0.0149608
0.0167214
0.0172878
0.0173816
0.0167214
0.0158535
0.0151922
0.0146568
0.00791245
0.0107523
0.0140834
0.0153247
0.0155872
0.0156353
0.015358
0.0148793
0.0144194
0.0140773
0.00761226
0.0103148
0.0136758
0.0148789
0.0149715
0.0149058
0.0146822
0.0143163
0.0139301
0.0136693
0.0126468
0.0146439
0.0206423
0.0383163
0.0394206
0.0319452
0.0311168
0.0332516
0.0349501
0.0448719
0.01246
0.0145077
0.019637
0.0274316
0.0321566
0.0305706
0.0308848
0.0337045
0.0367389
0.0514586
0.0125154
0.0149282
0.01922
0.0254897
0.0288965
0.0293668
0.0303309
0.0334017
0.0368805
0.0522169
0.0128424
0.0154775
0.0188014
0.0241346
0.0266222
0.0279305
0.0294132
0.0326567
0.0361442
0.0502598
0.0132481
0.0154901
0.0180071
0.0225176
0.0247592
0.0266243
0.0285277
0.0318589
0.0350742
0.0476017
0.0136078
0.0149198
0.0170789
0.0209667
0.0233621
0.0257736
0.0280889
0.0315091
0.0343313
0.0455281
0.013874
0.0141838
0.0162473
0.0196617
0.022323
0.0252993
0.0281147
0.0317553
0.0342559
0.0445958
0.014096
0.0135604
0.0156072
0.0186182
0.0214631
0.0249497
0.028358
0.0324053
0.0347727
0.044751
0.0142794
0.0131353
0.0151309
0.0177884
0.0206776
0.0245515
0.0285709
0.0331776
0.0356183
0.0456646
0.0144141
0.0129261
0.014745
0.0171102
0.0199232
0.0240317
0.028594
0.0338257
0.0365147
0.0469379
0.00948432
0.0116184
0.0130838
0.0139399
0.0131985
0.0122877
0.0116103
0.0110644
0.0107763
0.0105945
0.00996045
0.0112574
0.0126727
0.0131691
0.0130489
0.0126075
0.0122404
0.0118832
0.0117066
0.0115044
0.012069
0.0131657
0.016025
0.0171254
0.016805
0.0159465
0.0153373
0.0148395
0.0145314
0.0141145
0.0138703
0.0157897
0.0229934
0.0349903
0.0279128
0.0235041
0.0218742
0.0212306
0.0205552
0.0200568
0.0133717
0.0154411
0.0229347
0.105714
0.0397838
0.0300316
0.0283681
0.0290756
0.02904
0.0315197
0.00630068
0.00644381
0.00664622
0.00690648
0.00721785
0.00757161
0.0079266
0.00826592
0.00863249
0.00873211
0.00656851
0.00670521
0.00690991
0.00716724
0.00745283
0.00776375
0.00806473
0.00846889
0.0088624
0.00936525
0.00687709
0.00699687
0.00719393
0.00743976
0.00770741
0.00801365
0.00835747
0.00895559
0.00942095
0.0105907
0.00725024
0.00733994
0.00752623
0.00777005
0.00805887
0.00841694
0.00894473
0.00971782
0.0102411
0.0114454
0.00770524
0.00774894
0.0079286
0.00819993
0.00857647
0.00910227
0.00992832
0.0106703
0.0109125
0.0119839
0.013359
0.013588
0.0140429
0.0139695
0.0135915
0.0131324
0.0126105
0.0116386
0.00965161
0.0074689
0.0144954
0.0141389
0.0137326
0.0131743
0.0127069
0.0123659
0.0120647
0.0115125
0.0100667
0.00783936
0.0136574
0.0133226
0.0131315
0.0128664
0.0126203
0.0124155
0.0121983
0.0117887
0.0106777
0.00836777
0.0136296
0.0133495
0.0131552
0.0128853
0.0126078
0.0123573
0.0121171
0.011841
0.0112803
0.00913127
0.0134622
0.0131375
0.0128847
0.0126035
0.012329
0.0120958
0.0119206
0.0118804
0.0120734
0.0105184
0.0132727
0.0129398
0.01266
0.0123712
0.012085
0.0118392
0.0116849
0.0118254
0.0128928
0.0135655
0.013044
0.0127195
0.0124379
0.0121625
0.0118864
0.011643
0.0114826
0.0115896
0.0128733
0.017918
0.0128299
0.0125341
0.0122771
0.0120385
0.0118028
0.0115899
0.0114171
0.0113731
0.0119379
0.0126314
0.0126475
0.012377
0.0121421
0.0119302
0.0117223
0.011531
0.0113503
0.0111622
0.011034
0.00981651
0.0124972
0.0122393
0.0120148
0.0118116
0.0116092
0.0114177
0.0112276
0.0109448
0.0103275
0.00855909
0.00883584
0.0107101
0.0131555
0.0156199
0.0174492
0.01795
0.0140045
0.00949925
0.00721814
0.00614481
0.00947775
0.0114761
0.0135277
0.0149022
0.0153705
0.015055
0.0132022
0.00974687
0.00734751
0.00615072
0.0103593
0.0121433
0.0135029
0.0140609
0.0139589
0.0135109
0.0124376
0.00989666
0.00749195
0.00618547
0.0111834
0.0124978
0.0133572
0.0136179
0.0133453
0.0128003
0.011945
0.00998411
0.00764479
0.00624474
0.0118675
0.0128722
0.0134224
0.0133743
0.0128546
0.0122012
0.0114696
0.00998969
0.00781243
0.00633048
0.0125959
0.0133685
0.0134912
0.0129703
0.0122337
0.0116312
0.0111229
0.0100521
0.00802477
0.00644761
0.0133337
0.0136214
0.0130592
0.0122393
0.0116235
0.0112702
0.0110124
0.0102208
0.00827633
0.00659223
0.0136164
0.0130793
0.0121257
0.0114999
0.0112375
0.0111849
0.0111608
0.0105548
0.00859328
0.00677017
0.0126785
0.0118681
0.0113238
0.0112055
0.0113314
0.0115346
0.011667
0.0110735
0.00895689
0.00697365
0.011122
0.0113655
0.0115952
0.0118934
0.012191
0.0124067
0.0124122
0.0115783
0.009327
0.0072027
0.0300609
0.081259
0.0312409
0.0290593
0.0276452
0.0286712
0.0325386
0.0346399
0.0261033
0.0187845
0.0306141
0.0636769
0.0311591
0.0286704
0.0278893
0.0283587
0.0302132
0.027625
0.024943
0.0158174
0.0307842
0.0529815
0.0308139
0.0291325
0.0286576
0.0287624
0.0293575
0.026136
0.0247153
0.0151361
0.0307063
0.0462555
0.0310636
0.0307125
0.0301164
0.0295474
0.0288086
0.0257463
0.0232701
0.0150501
0.0306072
0.0414299
0.0316037
0.0331263
0.032133
0.0305437
0.0283341
0.0256344
0.021595
0.0149253
0.030521
0.0377387
0.0321526
0.0360172
0.0346566
0.0318664
0.0279862
0.0255803
0.0200358
0.0146576
0.0304161
0.0348083
0.0326155
0.0390564
0.0377539
0.0338108
0.0279767
0.0255749
0.0188138
0.0142849
0.0302736
0.0324404
0.0329728
0.0418495
0.0413789
0.0366732
0.0285039
0.0256517
0.0180017
0.0139059
0.0300964
0.0305388
0.0332288
0.043933
0.0450653
0.0407167
0.0296791
0.0258592
0.0175333
0.0135967
0.0298976
0.0290233
0.0333911
0.0449313
0.0478344
0.0461874
0.0316215
0.0262048
0.0173311
0.0133741
0.00728008
0.00754648
0.00901141
0.00914899
0.00972351
0.00984289
0.0100945
0.00988608
0.00984772
0.0083957
0.014704
0.0106212
0.0101699
0.0105764
0.0108367
0.0112195
0.0117124
0.0119049
0.0123516
0.0116411
0.0268585
0.0173471
0.0127708
0.0131865
0.0131633
0.0138759
0.0148111
0.0166195
0.017274
0.0165486
0.030183
0.0374565
0.018286
0.0185648
0.0178907
0.0192601
0.0213896
0.0312135
0.0340936
0.015654
0.0300891
0.0911455
0.0263097
0.0254673
0.0238308
0.0253439
0.0291515
0.0446124
0.0392061
0.0168093
0.00798934
0.00763909
0.0072873
0.00696679
0.00669194
0.00647188
0.00631405
0.00622161
0.00619022
0.00621564
0.0106424
0.00981037
0.00904937
0.00838915
0.0078062
0.00731122
0.00693019
0.00667726
0.00654296
0.00651034
0.0135211
0.0121347
0.0109695
0.0100289
0.00919322
0.00843505
0.00777644
0.00728679
0.00699167
0.00686469
0.0140546
0.013086
0.0122649
0.0114579
0.0105743
0.00969623
0.00882353
0.00806759
0.00756302
0.00730622
0.0144644
0.0139661
0.0131431
0.012353
0.0115207
0.0107217
0.00989744
0.00902316
0.00830452
0.00786827
)
;

boundaryField
{
    left
    {
        type            calculated;
        value           nonuniform List<scalar> 
35
(
0.0204176
0.0173667
0.0157398
0.0150677
0.0150391
0.015476
0.0163034
0.0173037
0.0173933
0.00796516
0.0245719
0.0246249
0.0246598
0.0246784
0.0247032
0.0247735
0.0249133
0.0250653
0.0248501
0.0233092
0.0228697
0.0232099
0.0233806
0.0235344
0.0237351
0.0239517
0.0241447
0.0242981
0.0244143
0.0245028
0.00724027
0.0133567
0.0202868
0.0220768
0.0225371
)
;
    }
    right
    {
        type            calculated;
        value           nonuniform List<scalar> 
35
(
0.0105959
0.0115113
0.014154
0.0203102
0.0332328
0.0517594
0.0640501
0.067294
0.0654177
0.0618854
0.0592276
0.058667
0.0603407
0.0639422
0.0689998
0.07434
0.0768325
0.0717336
0.0579614
0.0416147
0.0288512
0.0209078
0.0165604
0.0144731
0.0137619
0.0143719
0.016502
0.0218504
0.0424307
0.069943
0.0273475
0.015597
0.0113657
0.00954994
0.0088163
)
;
    }
    down
    {
        type            calculated;
        value           nonuniform List<scalar> 
40
(
0.00640939
0.00685297
0.00868077
0.00867255
0.00937217
0.00937626
0.00954609
0.00926395
0.00903926
0.00760797
0.00728587
0.00702976
0.00676545
0.00652839
0.00633537
0.00619158
0.00609714
0.00605093
0.00604936
0.00609112
0.00618402
0.00632919
0.00652975
0.00678927
0.00711099
0.0074934
0.00789661
0.00826737
0.00864234
0.00863067
0.00967494
0.0128626
0.0149227
0.0166263
0.0146557
0.0129394
0.0118353
0.0110583
0.010648
0.0104352
)
;
    }
    up
    {
        type            calculated;
        value           nonuniform List<scalar> 
40
(
0.0070385
0.00813623
0.00950278
0.0104769
0.010305
0.00970176
0.00920341
0.00889347
0.00869781
0.00863507
0.00604825
0.00606632
0.0060973
0.00612401
0.00617387
0.00620648
0.00628735
0.00631926
0.0064603
0.00647274
0.00643049
0.00634277
0.00626068
0.0061876
0.00612945
0.0060897
0.00606226
0.00604466
0.00603519
0.00603607
0.00681898
0.0069322
0.00808664
0.007948
0.00790771
0.00768403
0.00750957
0.00704426
0.00709391
0.00656279
)
;
    }
    cylinder
    {
        type            calculated;
        value           nonuniform List<scalar> 
80
(
0.00675859
0.00662435
0.00654761
0.00651524
0.00654725
0.00668536
0.00696089
0.00744061
0.00830931
0.00997435
0.0135888
0.0243487
0.0865169
0.0601097
0.0201271
0.0120889
0.00928283
0.00789954
0.00710226
0.00660236
0.00565013
0.00562306
0.005608
0.00561144
0.00563919
0.00569329
0.00577521
0.00588956
0.00604805
0.00627298
0.00717394
0.00676175
0.00646669
0.00626062
0.00609433
0.00597008
0.00587313
0.00579376
0.00573149
0.00568509
0.00685722
0.00715925
0.00759167
0.00823963
0.00946191
0.0124069
0.0192021
0.0121463
0.00902329
0.00782757
0.00585746
0.00583802
0.00584932
0.0058863
0.00594855
0.00603781
0.00615143
0.00629244
0.00645504
0.00663993
0.0059147
0.00602024
0.00619183
0.00645359
0.00683499
0.00737945
0.0081514
0.00922241
0.0104973
0.0113525
0.0111491
0.0104023
0.00973202
0.00929783
0.00890133
0.00838522
0.00789723
0.00751127
0.00720022
0.00694976
)
;
    }
    defaultFaces
    {
        type            empty;
    }
}


// ************************************************************************* //
