/*--------------------------------*- C++ -*----------------------------------*\
| =========                 |                                                 |
| \\      /  F ield         | OpenFOAM: The Open Source CFD Toolbox           |
|  \\    /   O peration     | Version:  2406                                  |
|   \\  /    A nd           | Website:  www.openfoam.com                      |
|    \\/     M anipulation  |                                                 |
\*---------------------------------------------------------------------------*/
FoamFile
{
    version     2.0;
    format      ascii;
    arch        "LSB;label=32;scalar=64";
    class       volScalarField;
    location    "0.75";
    object      p;
}
// * * * * * * * * * * * * * * * * * * * * * * * * * * * * * * * * * * * * * //

dimensions      [0 2 -2 0 0 0 0];

internalField   nonuniform List<scalar> 
1800
(
-1.57647
-1.55958
-1.55269
-1.54814
-1.54675
-1.55146
-1.56519
-1.59021
-1.62824
-1.68047
-1.55799
-1.54645
-1.53942
-1.53107
-1.52343
-1.52059
-1.52471
-1.53675
-1.5568
-1.58564
-1.55476
-1.55346
-1.54822
-1.53801
-1.52829
-1.5223
-1.52153
-1.52631
-1.53577
-1.55347
-1.59253
-1.5809
-1.57265
-1.56263
-1.55236
-1.54395
-1.53859
-1.53645
-1.53676
-1.54453
-1.63451
-1.62076
-1.61162
-1.60099
-1.58924
-1.57794
-1.56821
-1.5603
-1.55405
-1.55437
-1.68332
-1.66819
-1.65798
-1.64548
-1.63074
-1.61539
-1.60062
-1.58684
-1.57436
-1.56602
-1.73652
-1.71962
-1.70749
-1.69176
-1.67268
-1.65233
-1.63199
-1.61199
-1.59241
-1.57384
-1.78845
-1.76965
-1.75432
-1.73383
-1.70916
-1.68301
-1.65657
-1.62974
-1.60199
-1.57285
-1.83185
-1.81112
-1.79108
-1.76442
-1.73333
-1.7009
-1.6679
-1.6335
-1.59658
-1.55658
-1.8585
-1.83564
-1.80943
-1.77542
-1.73732
-1.6983
-1.65847
-1.61632
-1.57054
-1.52099
-1.15316
-1.1567
-1.15394
-1.14794
-1.13998
-1.13125
-1.1222
-1.1128
-1.10295
-1.09275
-1.2502
-1.25204
-1.24902
-1.24393
-1.23785
-1.23183
-1.22625
-1.22095
-1.2156
-1.21004
-1.34893
-1.34869
-1.34535
-1.34091
-1.33725
-1.33551
-1.33498
-1.33519
-1.33584
-1.33671
-1.44241
-1.4396
-1.4367
-1.43394
-1.43246
-1.43501
-1.44075
-1.44797
-1.45598
-1.4646
-1.52575
-1.52067
-1.51819
-1.51802
-1.52048
-1.52747
-1.53846
-1.55196
-1.56734
-1.58384
-1.58868
-1.58016
-1.57847
-1.58263
-1.59161
-1.60346
-1.61867
-1.63843
-1.66165
-1.6866
-1.62504
-1.61359
-1.61207
-1.6176
-1.62941
-1.64664
-1.66863
-1.69527
-1.72577
-1.75815
-1.63554
-1.62147
-1.61965
-1.62549
-1.63838
-1.65806
-1.68404
-1.71601
-1.75286
-1.79126
-1.62535
-1.60906
-1.60592
-1.61003
-1.62109
-1.63954
-1.66553
-1.69917
-1.73951
-1.78176
-1.60182
-1.58438
-1.57906
-1.57907
-1.58459
-1.59725
-1.61846
-1.6494
-1.69013
-1.73648
-1.03157
-0.748779
-0.525889
-0.312764
-0.186915
-0.103492
-0.0531841
-0.0245522
-0.00773043
-0.000629404
-1.15392
-0.840245
-0.564398
-0.320438
-0.180586
-0.0930812
-0.0433644
-0.0171361
-0.00292393
0.000783292
-1.29598
-0.94958
-0.612057
-0.331118
-0.17394
-0.0815971
-0.0324639
-0.00886599
0.00252031
0.00247916
-1.45337
-1.07504
-0.669136
-0.344587
-0.16654
-0.068677
-0.0202288
0.000410776
0.00869337
0.00458881
-1.61653
-1.21308
-0.735882
-0.361522
-0.158831
-0.0546067
-0.00681811
0.0105935
0.0155313
0.0071706
-1.76953
-1.35854
-0.81396
-0.384137
-0.152776
-0.0408302
0.0068127
0.0210911
0.0226801
0.0101225
-1.89813
-1.50736
-0.90239
-0.415773
-0.151799
-0.029883
0.0189268
0.0308033
0.0294526
0.0131472
-1.99147
-1.65135
-0.998481
-0.458623
-0.159532
-0.0248296
0.0272746
0.0382483
0.0348809
0.0157665
-2.04537
-1.77663
-1.09714
-0.51094
-0.176694
-0.0275315
0.0298338
0.0418512
0.0378294
0.0173975
-2.0505
-1.87808
-1.19842
-0.570441
-0.201343
-0.0372287
0.0263823
0.0410406
0.0376716
0.0176312
-2.07763
-1.97567
-1.26639
-0.60593
-0.218081
-0.0493821
0.0171792
0.0350602
0.033648
0.0160814
-2.09189
-1.96055
-1.24188
-0.601266
-0.230675
-0.0717233
-0.00545951
0.0178658
0.0220424
0.0110628
-2.01963
-1.84364
-1.17699
-0.59825
-0.255735
-0.10103
-0.0309582
-0.000204832
0.0106067
0.00638073
-1.83457
-1.65223
-1.09954
-0.606055
-0.299835
-0.144882
-0.063498
-0.0205404
-0.000326987
0.00309715
-1.63099
-1.47698
-1.03866
-0.624134
-0.347221
-0.189137
-0.0959742
-0.0413224
-0.0113479
-0.000218244
-1.43444
-1.3218
-0.98482
-0.648879
-0.401823
-0.23764
-0.129954
-0.0634873
-0.024394
-0.00598209
-1.245
-1.19804
-0.960342
-0.689521
-0.46208
-0.286339
-0.162197
-0.0835638
-0.0351107
-0.00954144
-1.07956
-1.11329
-0.956731
-0.729624
-0.51033
-0.322256
-0.184008
-0.0958347
-0.040842
-0.0106712
-0.967393
-1.06938
-0.955998
-0.752435
-0.536806
-0.341812
-0.19626
-0.103072
-0.0444384
-0.0116192
-0.916564
-1.07498
-0.970255
-0.762738
-0.541735
-0.346642
-0.200834
-0.106112
-0.0462022
-0.0124516
-1.42097
-1.47369
-1.50841
-1.52855
-1.53758
-1.54139
-1.54948
-1.58269
-1.64827
-1.78282
-1.27299
-1.33936
-1.39126
-1.43613
-1.4723
-1.51557
-1.56082
-1.62586
-1.68975
-1.80845
-1.13727
-1.21368
-1.27574
-1.33955
-1.39208
-1.46058
-1.52156
-1.60332
-1.6825
-1.79495
-1.01109
-1.09306
-1.16143
-1.23354
-1.29285
-1.36445
-1.42968
-1.51008
-1.59289
-1.68934
-0.896729
-0.977456
-1.04949
-1.11975
-1.18157
-1.24593
-1.30863
-1.37761
-1.44977
-1.52967
-0.795224
-0.872382
-0.943798
-1.00916
-1.06943
-1.12524
-1.18084
-1.23712
-1.29534
-1.36134
-0.709451
-0.783096
-0.851297
-0.911661
-0.966198
-1.01347
-1.05797
-1.10136
-1.14517
-1.19303
-0.640601
-0.713436
-0.778733
-0.834257
-0.882353
-0.917647
-0.949462
-0.976475
-1.00377
-1.03249
-0.601676
-0.672111
-0.733613
-0.785132
-0.826411
-0.852517
-0.875838
-0.888879
-0.903945
-0.917636
-0.586999
-0.658765
-0.720801
-0.770408
-0.807306
-0.832113
-0.849304
-0.857703
-0.86711
-0.869994
0.0320685
-0.0340066
-0.10188
-0.1677
-0.23303
-0.299594
-0.366571
-0.430363
-0.486068
-0.520999
-0.155895
-0.223984
-0.292385
-0.360126
-0.428946
-0.50006
-0.572141
-0.641049
-0.701164
-0.740584
-0.361249
-0.428568
-0.495844
-0.563641
-0.633462
-0.706073
-0.780046
-0.851559
-0.914227
-0.957209
-0.563063
-0.630037
-0.697208
-0.765681
-0.836466
-0.909751
-0.984041
-1.05631
-1.12137
-1.16559
-0.753378
-0.82151
-0.889586
-0.959065
-1.03066
-1.10387
-1.17711
-1.24937
-1.3133
-1.35823
-0.932059
-1.00259
-1.07153
-1.14099
-1.21117
-1.28137
-1.35189
-1.42222
-1.48394
-1.52707
-1.09728
-1.16873
-1.23754
-1.30484
-1.37088
-1.43622
-1.50251
-1.56877
-1.62545
-1.66462
-1.24469
-1.31427
-1.38018
-1.44303
-1.50335
-1.56282
-1.62325
-1.68277
-1.7321
-1.76638
-1.36739
-1.43211
-1.49273
-1.5495
-1.60324
-1.65608
-1.70929
-1.76039
-1.80155
-1.83112
-1.45901
-1.51698
-1.57091
-1.62074
-1.6676
-1.71351
-1.75906
-1.80138
-1.83472
-1.86042
1.14041
1.13669
1.13308
1.12924
1.12507
1.1206
1.11599
1.11192
1.11093
1.1216
1.08609
1.07954
1.07297
1.06604
1.05867
1.05085
1.04281
1.03556
1.03196
1.0403
1.01593
1.0062
0.99619
0.985647
0.974523
0.962782
0.950674
0.93949
0.93239
0.93754
0.930017
0.916299
0.901907
0.886785
0.870924
0.854246
0.837074
0.821061
0.809646
0.810973
0.828416
0.810794
0.792187
0.77253
0.751838
0.729967
0.707241
0.685613
0.669064
0.666298
0.713473
0.690886
0.666528
0.640902
0.614214
0.586278
0.557492
0.529988
0.507738
0.499933
0.584278
0.557373
0.528221
0.497212
0.464511
0.429904
0.393966
0.359341
0.330489
0.318027
0.445558
0.413731
0.378279
0.340502
0.301032
0.259607
0.216767
0.175304
0.139718
0.122294
0.300775
0.264179
0.222437
0.17746
0.130335
0.0810094
0.0303171
-0.0186833
-0.0614251
-0.0849084
0.157835
0.111235
0.0588974
0.00470785
-0.0505677
-0.107735
-0.166038
-0.222204
-0.2716
-0.301135
1.3104
1.23376
1.25725
1.21537
1.19529
1.17281
1.16094
1.14633
1.15566
1.16306
1.30853
1.23168
1.25525
1.21179
1.1912
1.16679
1.15455
1.1347
1.1377
1.13142
1.30753
1.22985
1.25335
1.20761
1.18628
1.16027
1.14737
1.12062
1.11524
1.08983
1.30737
1.22835
1.25152
1.2028
1.18063
1.15346
1.13936
1.10419
1.08883
1.03859
1.308
1.22724
1.2497
1.19742
1.17466
1.14642
1.13039
1.08566
1.05876
0.976106
1.30933
1.22658
1.24775
1.19188
1.16894
1.13876
1.1204
1.06523
1.02585
0.903102
1.31123
1.22645
1.2455
1.18659
1.16325
1.12951
1.10948
1.04354
0.99081
0.81804
1.31375
1.22683
1.24298
1.18092
1.15586
1.11845
1.09796
1.02071
0.952605
0.719189
1.31702
1.22761
1.24055
1.17331
1.14597
1.10689
1.08621
0.99658
0.910866
0.607077
1.32129
1.22922
1.23868
1.16376
1.135
1.0959
1.07452
0.972369
0.868318
0.486983
1.32446
1.23278
1.2387
1.15641
1.12451
1.0844
1.06214
0.945818
0.823735
0.384389
1.33152
1.24081
1.24461
1.15441
1.11629
1.07195
1.0488
0.922466
0.793701
0.403828
1.33947
1.25054
1.25437
1.15788
1.11053
1.0593
1.03231
0.898324
0.765057
0.41952
1.34954
1.26057
1.26408
1.16344
1.10566
1.04596
1.01251
0.875059
0.730645
0.425685
1.36119
1.26799
1.26846
1.16629
1.10012
1.03315
0.988816
0.852647
0.692612
0.425296
1.37318
1.27158
1.26415
1.16194
1.09423
1.02161
0.964198
0.835673
0.65434
0.419342
1.38558
1.2578
1.2503
1.14997
1.0879
1.01214
0.94412
0.82704
0.621395
0.415327
1.4011
1.25639
1.23475
1.13605
1.081
1.00601
0.928728
0.825359
0.597981
0.421061
1.41989
1.26001
1.22229
1.12271
1.0755
1.00194
0.916661
0.826206
0.582977
0.433596
1.46014
1.26578
1.21847
1.12354
1.07604
1.00149
0.918934
0.827786
0.581961
0.457808
0.0417208
-0.124868
-0.314109
-0.500689
-0.675192
-0.837223
-0.98768
-1.12649
-1.24827
-1.34699
0.0209699
-0.123398
-0.276296
-0.428299
-0.573696
-0.712089
-0.843752
-0.972458
-1.08965
-1.19175
0.0338082
-0.102051
-0.235853
-0.36447
-0.489611
-0.613812
-0.735107
-0.851908
-0.957206
-1.05416
0.0632888
-0.06558
-0.189793
-0.302512
-0.409322
-0.516423
-0.624077
-0.729932
-0.83129
-0.926224
0.10043
-0.0191133
-0.133898
-0.234505
-0.327195
-0.421042
-0.519893
-0.620617
-0.719233
-0.811377
0.14151
0.0357692
-0.0686426
-0.162243
-0.248548
-0.335727
-0.428537
-0.52539
-0.621381
-0.711469
0.186521
0.0953621
-0.000876124
-0.0921889
-0.178172
-0.263116
-0.351741
-0.44489
-0.538276
-0.627347
0.23054
0.149811
0.0595496
-0.0306173
-0.118288
-0.203074
-0.289656
-0.378978
-0.469801
-0.559168
0.258345
0.181572
0.0949228
0.00551867
-0.0821042
-0.166187
-0.253494
-0.344561
-0.436825
-0.52418
0.2805
0.202715
0.117719
0.0294092
-0.0588554
-0.148163
-0.239915
-0.33207
-0.421719
-0.507111
-0.668991
-0.643602
-0.607585
-0.566977
-0.525652
-0.487721
-0.454355
-0.424838
-0.400802
-0.383244
-0.758643
-0.732696
-0.697961
-0.657614
-0.616783
-0.579262
-0.546753
-0.518686
-0.496138
-0.480428
-0.821531
-0.796108
-0.764041
-0.725445
-0.686553
-0.650266
-0.618744
-0.592506
-0.571138
-0.555917
-0.858963
-0.834974
-0.807042
-0.772141
-0.735283
-0.700393
-0.670041
-0.645257
-0.625117
-0.610091
-0.875123
-0.853469
-0.830556
-0.800417
-0.766432
-0.733071
-0.703395
-0.679041
-0.659637
-0.644769
-0.876198
-0.857705
-0.839625
-0.814483
-0.784065
-0.752516
-0.723061
-0.697974
-0.678045
-0.662864
-0.86769
-0.852885
-0.838854
-0.818065
-0.79101
-0.761162
-0.731754
-0.705229
-0.683319
-0.666767
-0.852667
-0.841762
-0.830822
-0.813414
-0.789256
-0.761048
-0.731985
-0.704524
-0.680778
-0.66277
-0.832235
-0.824986
-0.815985
-0.80079
-0.77897
-0.7525
-0.724223
-0.696457
-0.671549
-0.653457
-0.808654
-0.804314
-0.796097
-0.781943
-0.761896
-0.737524
-0.711096
-0.684599
-0.65982
-0.641536
-0.787302
-0.785038
-0.777034
-0.763225
-0.744674
-0.722789
-0.699218
-0.675655
-0.652638
-0.629117
-0.774495
-0.773581
-0.766079
-0.752422
-0.735588
-0.716682
-0.696619
-0.676466
-0.6563
-0.633741
-0.773236
-0.77322
-0.766646
-0.754205
-0.738403
-0.722631
-0.706328
-0.689516
-0.671923
-0.651507
-0.782885
-0.783974
-0.779695
-0.770291
-0.75491
-0.740176
-0.726659
-0.711974
-0.695817
-0.676988
-0.798009
-0.799885
-0.79668
-0.789635
-0.777619
-0.765464
-0.753961
-0.73965
-0.723583
-0.704982
-0.822752
-0.826081
-0.824284
-0.819554
-0.810128
-0.796242
-0.78249
-0.768732
-0.754062
-0.737828
-0.862874
-0.867699
-0.86692
-0.862536
-0.853441
-0.840018
-0.825342
-0.810695
-0.795714
-0.78022
-0.916939
-0.922433
-0.92146
-0.916182
-0.906843
-0.894341
-0.880157
-0.865263
-0.849902
-0.834397
-0.983848
-0.989277
-0.987616
-0.981536
-0.972094
-0.960419
-0.947298
-0.93324
-0.918548
-0.903716
-1.06314
-1.06791
-1.06561
-1.05927
-1.05023
-1.0397
-1.0282
-1.01594
-1.00303
-0.989875
-0.604043
-0.503433
-0.437287
-0.355094
-0.270599
-0.192288
-0.127884
-0.078312
-0.0414177
-0.0116213
-0.617948
-0.500568
-0.431902
-0.342568
-0.259488
-0.183542
-0.121512
-0.0742789
-0.039192
-0.0109824
-0.635011
-0.500145
-0.429332
-0.334453
-0.249437
-0.174723
-0.114735
-0.0696579
-0.0363415
-0.00994256
-0.654793
-0.503354
-0.429468
-0.327129
-0.240144
-0.165956
-0.10774
-0.0647096
-0.0331745
-0.00872641
-0.677652
-0.510642
-0.431673
-0.32028
-0.231225
-0.15721
-0.100583
-0.0595456
-0.0298452
-0.00748798
-0.704929
-0.522939
-0.436182
-0.314266
-0.222701
-0.148532
-0.0933339
-0.05426
-0.0264583
-0.00629981
-0.74031
-0.542566
-0.443969
-0.309625
-0.214653
-0.139908
-0.0859856
-0.0488788
-0.023053
-0.00517963
-0.786529
-0.573781
-0.455873
-0.306826
-0.207101
-0.131234
-0.0784375
-0.0433348
-0.0195806
-0.00410012
-0.849035
-0.617077
-0.472775
-0.306234
-0.200017
-0.122376
-0.0705515
-0.037514
-0.015942
-0.00301301
-0.930158
-0.674817
-0.495736
-0.308121
-0.193327
-0.113184
-0.0621845
-0.0312954
-0.012029
-0.00187168
-0.575323
-0.506079
-0.442349
-0.360734
-0.273625
-0.194833
-0.130449
-0.079074
-0.0407869
-0.011533
-0.567609
-0.499869
-0.440202
-0.361022
-0.274749
-0.196044
-0.131413
-0.0798272
-0.0411316
-0.0115259
-0.565684
-0.496147
-0.437452
-0.361053
-0.274667
-0.196197
-0.131454
-0.079863
-0.0412122
-0.0113738
-0.567873
-0.493338
-0.432613
-0.358561
-0.275508
-0.197009
-0.131869
-0.0803423
-0.0418084
-0.0114706
-0.579709
-0.495563
-0.431835
-0.354007
-0.275747
-0.197037
-0.131615
-0.0805206
-0.0423783
-0.0117598
-0.370161
-0.463572
-0.536359
-0.589017
-0.624049
-0.644062
-0.651253
-0.648285
-0.636792
-0.614709
-0.367777
-0.461786
-0.533984
-0.585332
-0.618885
-0.638108
-0.645142
-0.642269
-0.632466
-0.610374
-0.368413
-0.463222
-0.535692
-0.586976
-0.620176
-0.638848
-0.644193
-0.640323
-0.628437
-0.609075
-0.370824
-0.466973
-0.540281
-0.592062
-0.625227
-0.643028
-0.64627
-0.640476
-0.626647
-0.612261
-0.375252
-0.472988
-0.547515
-0.600212
-0.633693
-0.650779
-0.652816
-0.645391
-0.631752
-0.624041
0.92905
0.923572
0.915401
0.907023
0.899111
0.891367
0.883904
0.877653
0.874698
0.880671
0.99582
0.994423
0.990513
0.985809
0.98101
0.976043
0.97107
0.96695
0.965935
0.974159
1.05458
1.05461
1.05299
1.05086
1.0487
1.04645
1.04417
1.04234
1.04305
1.05294
1.10708
1.10848
1.10879
1.10871
1.10854
1.10822
1.10766
1.10702
1.10834
1.11931
1.14981
1.1519
1.15345
1.15478
1.15602
1.15711
1.15784
1.15802
1.15947
1.17065
1.18211
1.18459
1.18696
1.18925
1.19151
1.19369
1.19555
1.19658
1.19803
1.20724
1.20227
1.20459
1.20711
1.20966
1.21222
1.21484
1.2174
1.21934
1.22089
1.22756
1.20895
1.21051
1.21236
1.2142
1.21596
1.21769
1.21929
1.22045
1.22243
1.23369
1.20132
1.2016
1.20216
1.20264
1.20294
1.20311
1.20311
1.20293
1.20444
1.21727
1.17865
1.17715
1.17589
1.17448
1.17283
1.17096
1.16898
1.16721
1.16792
1.18018
-0.265748
-0.285941
-0.31189
-0.342403
-0.376538
-0.413958
-0.453924
-0.494513
-0.530362
-0.553948
-0.130942
-0.154325
-0.182024
-0.213057
-0.247071
-0.283931
-0.322701
-0.361276
-0.395892
-0.417151
0.0154002
-0.0109118
-0.0401097
-0.0715354
-0.105081
-0.140723
-0.177612
-0.213669
-0.245761
-0.263498
0.163434
0.13539
0.105613
0.074639
0.0424949
0.00913722
-0.0248119
-0.0575307
-0.0859783
-0.0994303
0.304522
0.276598
0.247913
0.218975
0.189613
0.159558
0.129233
0.100427
0.0764816
0.0667989
0.43484
0.40918
0.383558
0.358158
0.332475
0.306164
0.279709
0.255035
0.235549
0.229486
0.553704
0.531994
0.510726
0.489493
0.467646
0.445088
0.422535
0.402015
0.3868
0.38413
0.663758
0.646335
0.629265
0.611747
0.593303
0.574139
0.555158
0.538431
0.526976
0.52705
0.770129
0.755343
0.740335
0.724951
0.708996
0.692721
0.677023
0.663783
0.655506
0.657594
0.869781
0.856222
0.840946
0.826337
0.812513
0.799277
0.787067
0.77715
0.771521
0.77533
1.38542
1.26627
1.27186
1.21769
1.20378
1.18502
1.1603
1.13598
1.09677
1.02176
1.37245
1.26165
1.27237
1.2208
1.2058
1.18831
1.16598
1.14398
1.11625
1.06365
1.36078
1.25778
1.27204
1.22285
1.20689
1.19047
1.17062
1.15239
1.13694
1.10414
1.3505
1.25419
1.27122
1.22426
1.20743
1.19176
1.17426
1.1596
1.15396
1.13851
1.34152
1.25071
1.26989
1.22495
1.20735
1.19202
1.17651
1.1647
1.16673
1.1657
1.33375
1.24737
1.2681
1.22489
1.20663
1.1912
1.17725
1.16752
1.17551
1.18563
1.32708
1.24423
1.26602
1.22414
1.20534
1.18932
1.17651
1.16807
1.1803
1.19796
1.32147
1.2413
1.26379
1.2228
1.20357
1.18648
1.1744
1.16629
1.18095
1.20228
1.31684
1.23858
1.26155
1.22088
1.20135
1.18273
1.17102
1.16211
1.17724
1.19817
1.31316
1.23607
1.25935
1.2184
1.19863
1.17815
1.16648
1.15546
1.16885
1.18521
1.50313
1.27593
1.25454
1.19681
1.18952
1.16735
1.13601
1.10171
1.04047
0.952696
1.46577
1.27954
1.26061
1.19964
1.19175
1.16933
1.13724
1.10247
1.03925
0.945072
1.4421
1.2779
1.26396
1.20282
1.19361
1.17185
1.14014
1.10656
1.0446
0.948144
1.41907
1.27604
1.26777
1.20804
1.19698
1.17617
1.14627
1.11526
1.054
0.957926
1.40036
1.27239
1.27025
1.21309
1.20051
1.18061
1.15295
1.12328
1.06885
0.971482
0.793706
0.726037
0.643759
0.545411
0.431084
0.301239
0.15991
0.0140703
-0.127359
-0.256791
0.787123
0.719848
0.638374
0.54194
0.430858
0.304433
0.165228
0.0196112
-0.123113
-0.253955
0.796639
0.727705
0.644156
0.546803
0.435738
0.309707
0.17062
0.0242331
-0.120078
-0.252767
0.817549
0.740917
0.652304
0.552952
0.440879
0.314357
0.174841
0.0273786
-0.118713
-0.25341
0.853749
0.762076
0.66319
0.559317
0.444919
0.317182
0.176991
0.0284973
-0.119353
-0.256123
)
;

boundaryField
{
    left
    {
        type            zeroGradient;
    }
    right
    {
        type            fixedValue;
        value           uniform 0;
    }
    down
    {
        type            zeroGradient;
    }
    up
    {
        type            zeroGradient;
    }
    cylinder
    {
        type            zeroGradient;
    }
    defaultFaces
    {
        type            empty;
    }
}


// ************************************************************************* //
