/*--------------------------------*- C++ -*----------------------------------*\
| =========                 |                                                 |
| \\      /  F ield         | OpenFOAM: The Open Source CFD Toolbox           |
|  \\    /   O peration     | Version:  2406                                  |
|   \\  /    A nd           | Website:  www.openfoam.com                      |
|    \\/     M anipulation  |                                                 |
\*---------------------------------------------------------------------------*/
FoamFile
{
    version     2.0;
    format      ascii;
    arch        "LSB;label=32;scalar=64";
    class       surfaceScalarField;
    location    "0.75";
    object      phi;
}
// * * * * * * * * * * * * * * * * * * * * * * * * * * * * * * * * * * * * * //

dimensions      [0 3 -1 0 0 0 0];

oriented        oriented;

internalField   nonuniform List<scalar> 
3485
(
0.00203494
0.00124444
-0.00327938
0.00755955
0.00449555
-0.0100202
0.0157808
0.00606232
-0.0142836
0.0266527
0.00475019
-0.0156221
0.0402822
0.000876139
-0.0145056
0.0567877
-0.00479818
-0.0117073
0.0761041
-0.0112955
-0.00802097
0.0982073
-0.0180825
-0.0040207
0.123303
-0.0254649
0.000369668
-0.0290945
0.00350387
0.148893
0.000975491
0.000268951
0.00460213
0.000868909
0.0116139
-0.00094946
0.0223237
-0.00595956
0.0365171
-0.0133173
0.0535278
-0.0218089
0.0727512
-0.0305189
0.0936693
-0.0390005
0.115683
-0.0474783
-0.0525023
0.13909
0.0002211
4.78516e-05
0.00325225
-0.00216224
0.0108496
-0.00854683
0.0228716
-0.0179815
0.038457
-0.0289027
0.0565981
-0.03995
0.0764113
-0.0503321
0.0972268
-0.0598161
0.118405
-0.068656
-0.074205
0.140107
0.000523604
-0.000475752
0.00497429
-0.00661293
0.0143709
-0.0179434
0.0281973
-0.0318079
0.0451615
-0.0458669
0.0639849
-0.0587734
0.0837229
-0.0700701
0.103818
-0.0799109
0.123948
-0.0887863
-0.0945707
0.144314
0.00136984
-0.00184559
0.00798608
-0.0132292
0.0198569
-0.0298143
0.0356111
-0.0475621
0.0535397
-0.0637955
0.0723168
-0.0775505
0.0912224
-0.0889756
0.110069
-0.0987576
0.128952
-0.107669
-0.114657
0.149038
0.00246832
-0.00431391
0.0112654
-0.0220263
0.0252157
-0.0437645
0.0419885
-0.0643349
0.0595865
-0.0813936
0.0769436
-0.0949076
0.0938546
-0.105887
0.110684
-0.115587
0.128062
-0.125048
-0.134246
0.147651
0.00363323
-0.00794714
0.0143361
-0.0327292
0.0293912
-0.0588197
0.0457187
-0.0806623
0.0615364
-0.0972113
0.0764296
-0.109801
0.0908392
-0.120296
0.105581
-0.130329
0.121498
-0.140965
-0.152351
0.139603
0.00477169
-0.0127188
0.0166962
-0.0446537
0.0314739
-0.0735974
0.0459549
-0.0951433
0.0591158
-0.110372
0.0712905
-0.121976
0.083349
-0.132355
0.0961981
-0.143178
0.110359
-0.155125
-0.167636
0.125644
0.00571604
-0.0184349
0.0178722
-0.0568098
0.0311841
-0.0869093
0.0431781
-0.107137
0.0536875
-0.120882
0.0634554
-0.131743
0.0733492
-0.142248
0.0839622
-0.153791
0.0951807
-0.166344
-0.178445
0.10599
0.00629787
-0.0247327
0.0177648
-0.0682767
0.0290704
-0.0982149
0.0386796
-0.116746
0.0469246
-0.129127
0.0545274
-0.139346
0.0620736
-0.149795
0.0697519
-0.161469
0.0771038
-0.173696
0.0832998
-0.184641
-0.00212948
0.0205183
-0.0183889
-0.00592846
0.0365463
-0.0327473
-0.0101883
0.0421661
-0.0379063
-0.0145684
0.0441075
-0.0397274
-0.0189276
0.0443508
-0.0399916
-0.0231574
0.0435025
-0.0392728
-0.0271754
0.041825
-0.0378069
-0.0309102
0.039405
-0.0356702
-0.0342797
0.036273
-0.0329036
0.0325304
-0.0372013
-0.0296087
-0.00160527
0.0221236
-0.00474353
0.0396846
-0.00831283
0.0457354
-0.0120309
0.0478255
-0.0158368
0.0481567
-0.0196386
0.0473044
-0.0233585
0.0455448
-0.0269254
0.0429719
-0.030255
0.0396027
0.0355348
-0.0332595
-0.000845901
0.0229695
-0.00298612
0.0418248
-0.00550605
0.0482554
-0.00799182
0.0503113
-0.010631
0.0507959
-0.0135216
0.050195
-0.0165132
0.0485363
-0.0194777
0.0459364
-0.0223326
0.0424576
0.0381933
-0.0249911
-4.83825e-05
0.0230179
-0.000932382
0.0427088
-0.00199914
0.0493221
-0.00280314
0.0511153
-0.00364998
0.0516427
-0.00490642
0.0514515
-0.00662032
0.0502502
-0.00854103
0.0478571
-0.0104761
0.0443926
0.0399698
-0.0122526
0.00144632
0.0215716
0.00282022
0.0413349
0.00374365
0.0483987
0.00431932
0.0505396
0.00475151
0.0512105
0.0050982
0.0511048
0.00518109
0.0501673
0.0049422
0.048096
0.00449039
0.0448445
0.0404518
0.00400835
0.00293271
0.0186389
0.00658979
0.0376778
0.00961736
0.0453711
0.0119313
0.0482257
0.0139598
0.0491821
0.0160291
0.0490355
0.0182009
0.0479955
0.0203061
0.0459908
0.0222753
0.0428752
0.0383866
0.0243405
0.00388414
0.0147547
0.00950818
0.0320537
0.0147818
0.0400975
0.0195054
0.043502
0.0240203
0.0446672
0.0285435
0.0445123
0.0331526
0.0433864
0.0377754
0.041368
0.0423636
0.038287
0.0335983
0.0471519
0.00427534
0.0104794
0.0113931
0.024936
0.0188706
0.03262
0.0262415
0.0361311
0.033651
0.0372576
0.041241
0.0369224
0.0490218
0.0356057
0.0568728
0.033517
0.0646501
0.0305097
0.0256302
0.0726182
0.00405847
0.00642092
0.0118537
0.0171407
0.0209555
0.0235182
0.0306866
0.0264001
0.0410644
0.0268798
0.0521931
0.0257937
0.0640213
0.0237774
0.0762834
0.0212548
0.0885116
0.0182816
0.0136477
0.100494
0.00314154
0.0102621
0.0194968
0.0302748
0.0426489
0.0567353
0.0724918
0.0897259
0.108377
0.125529
-0.0272148
0.094004
-0.103991
0.0220015
-0.179759
0.130543
0.0659655
-0.239473
0.195509
0.10146
-0.248979
0.213484
0.126141
-0.22036
0.195679
0.141842
-0.180181
0.16448
0.150999
-0.139741
0.130584
0.155751
-0.10247
0.0977182
0.15787
-0.0720609
0.069942
-0.0341084
0.0343275
-0.0319743
0.0927188
0.0108256
-0.222559
0.0575754
-0.286222
0.0961071
-0.287511
0.123463
-0.247715
0.140904
-0.197622
0.151132
-0.149969
0.15653
-0.107867
0.15917
-0.074701
-0.0341335
-0.0335357
0.101263
0.00109652
-0.257191
0.0496829
-0.334809
0.090651
-0.328479
0.120361
-0.277426
0.139446
-0.216707
0.150805
-0.161329
0.156963
-0.114025
0.160298
-0.0780359
-0.0345728
-0.0288176
0.117828
-0.00216165
-0.283847
0.0461918
-0.383162
0.0879168
-0.370204
0.118635
-0.308144
0.138575
-0.236647
0.150726
-0.17348
0.157534
-0.120834
0.161613
-0.0821146
-0.035561
-0.0151313
0.136968
0.00520249
-0.304181
0.0517858
-0.429746
0.0919196
-0.410338
0.121243
-0.337467
0.140307
-0.255711
0.152236
-0.185408
0.159169
-0.127767
0.163798
-0.0867432
-0.0371527
0.00728136
0.154027
0.0246325
-0.321532
0.0691142
-0.474227
0.106235
-0.447458
0.131775
-0.363007
0.147637
-0.271573
0.157584
-0.195355
0.163532
-0.133715
0.168105
-0.0913171
-0.0392429
0.0342626
0.166917
0.0522177
-0.339487
0.0947024
-0.516712
0.130174
-0.48293
0.151909
-0.384742
0.163267
-0.282931
0.169516
-0.201604
0.173054
-0.137253
0.176541
-0.0948042
-0.0415187
0.0639613
0.175573
0.079148
-0.354674
0.1196
-0.557164
0.156934
-0.520264
0.178308
-0.406117
0.186735
-0.291358
0.189272
-0.204142
0.189764
-0.137744
0.191282
-0.0963229
-0.0436499
0.092421
0.183647
0.100147
-0.3624
0.137084
-0.594102
0.178533
-0.561712
0.204068
-0.431651
0.213376
-0.300666
0.214423
-0.205188
0.212932
-0.136253
0.212726
-0.0961169
-0.0457476
0.121105
0.188071
0.117889
-0.359185
0.147521
-0.623733
0.191899
-0.60609
0.223608
-0.463361
0.237209
-0.314267
0.239805
-0.207785
0.238518
-0.134966
0.238068
-0.0956672
-0.0485338
0.34894
0.0690638
-0.229934
0.433738
-0.443983
0.474537
-0.664531
0.492803
-0.624356
0.493509
-0.464067
0.480376
-0.301134
0.459933
-0.187343
0.440302
-0.115334
0.425405
-0.0807702
-0.0423769
0.545353
-0.0755155
-0.400774
0.617384
-0.516014
0.616444
-0.663591
0.58528
-0.593192
0.554262
-0.433049
0.529134
-0.276007
0.507099
-0.165307
0.488851
-0.0970872
0.474827
-0.0667464
-0.0359851
0.752192
-0.187841
-0.639867
0.776546
-0.540368
0.738071
-0.625116
0.677087
-0.532207
0.619513
-0.375475
0.575904
-0.232398
0.545352
-0.134755
0.52459
-0.0763257
0.509701
-0.0518575
-0.0291732
0.870498
-0.249088
-0.80925
0.842584
-0.512455
0.775311
-0.557843
0.705144
-0.46204
0.642795
-0.313125
0.594721
-0.184324
0.561429
-0.101463
0.539628
-0.0545253
0.524132
-0.036361
-0.0223131
0.929255
-0.275361
-0.902983
0.891932
-0.475131
0.819355
-0.485266
0.736862
-0.379547
0.660535
-0.236798
0.602725
-0.126514
0.564846
-0.0635838
0.54146
-0.0311401
0.525407
-0.0203079
-0.0152958
0.958513
-0.282533
-0.951341
0.90131
-0.417928
0.811412
-0.395368
0.720286
-0.28842
0.643462
-0.159974
0.587778
-0.0708308
0.552504
-0.0283096
0.531635
-0.0102708
0.518121
-0.00679457
-0.00879996
0.959738
-0.272808
-0.969463
0.882972
-0.341162
0.773069
-0.285466
0.668382
-0.183732
0.591113
-0.0827052
0.542682
-0.0224003
0.515132
-0.000759363
0.500098
0.0047627
0.490541
0.00276254
-0.0033018
0.892503
-0.230928
-0.934383
0.778672
-0.227332
0.64673
-0.153524
0.540709
-0.0777114
0.477301
-0.0192971
0.446165
0.00873596
0.431695
0.0137107
0.425079
0.0113785
0.420865
0.00697642
0.000207367
0.653145
-0.124029
-0.760044
0.505515
-0.0797013
0.385773
-0.0337817
0.315619
-0.00755777
0.2889
0.00742221
0.284794
0.0128417
0.287021
0.0114833
0.290182
0.00821779
0.292093
0.00506531
0.00105412
0.181285
-0.305314
0.101584
0.0678019
0.0602441
0.0676663
0.080508
0.0919913
0.100209
0.105274
0.551652
0.0819403
-0.550293
0.547225
0.110417
0.535361
0.137508
0.511206
0.163757
0.475869
0.182988
0.426661
0.198246
0.370779
0.200195
0.312454
0.198432
0.261293
0.190252
0.180253
0.584953
0.0740618
-0.577074
0.590549
0.10482
0.597355
0.130703
0.597277
0.163835
0.592351
0.187914
0.577189
0.213409
0.548924
0.22846
0.510344
0.237012
0.452973
0.247623
0.232452
0.610452
0.0652773
-0.601668
0.621102
0.0941703
0.634343
0.117462
0.649126
0.149052
0.662668
0.174371
0.674039
0.202039
0.678433
0.224066
0.675756
0.239688
0.666136
0.257243
0.258721
0.63189
0.0559623
-0.622575
0.645949
0.0801112
0.661862
0.101549
0.682764
0.12815
0.705536
0.151599
0.72936
0.178215
0.754332
0.199094
0.774541
0.21948
0.797696
0.234088
0.247166
0.646665
0.0446824
-0.635385
0.663075
0.0637009
0.681899
0.0827245
0.705974
0.104075
0.733292
0.124282
0.764171
0.147336
0.797717
0.165548
0.831617
0.18558
0.868035
0.19767
0.212218
0.651868
0.0315082
-0.638694
0.669852
0.0457171
0.691095
0.0614815
0.717391
0.0777791
0.74717
0.0945034
0.782046
0.11246
0.819969
0.127625
0.861689
0.143859
0.905431
0.153929
0.166308
0.64073
0.0177304
-0.626952
0.659181
0.0272665
0.681671
0.0389914
0.709313
0.0501376
0.740796
0.0630198
0.778286
0.0749702
0.819606
0.0863047
0.866166
0.0972998
0.916448
0.103646
0.113294
0.598242
0.00538033
-0.585892
0.614898
0.01061
0.63631
0.01758
0.662191
0.0242567
0.693315
0.0318955
0.730368
0.0379174
0.772824
0.0438486
0.821687
0.0484368
0.875251
0.0500816
0.0541621
0.491017
-0.00189746
-0.483739
0.501805
-0.00017825
0.517162
0.00222275
0.537174
0.00424452
0.562733
0.0063372
0.593319
0.00733133
0.628852
0.00831513
0.669233
0.00805554
0.712196
0.00711899
0.00631368
0.255553
-0.25745
0.255375
0.257597
0.261842
0.268179
0.27551
0.283825
0.291881
0.299
0.0592997
0.13311
-0.121109
-0.0713004
0.0494557
0.130295
-0.120452
0.0409958
0.128283
-0.119823
0.0332837
0.126897
-0.119185
0.0259959
0.125729
-0.118441
0.0190675
0.124278
-0.11735
0.0125696
0.121547
-0.115049
0.00667356
0.115458
-0.109562
0.00200863
0.099363
-0.0946981
0.0541809
-0.0521723
0.0564191
0.143347
-0.0666568
0.0471053
0.139609
0.0387612
0.136628
0.0311474
0.134511
0.0240141
0.132862
0.0173027
0.13099
0.011092
0.127757
0.00557005
0.12098
0.00148858
0.103444
0.0556695
0.0481729
0.152567
-0.0573925
0.0396797
0.148102
0.0320812
0.144226
0.0252081
0.141384
0.0188739
0.139196
0.0130568
0.136807
0.00781339
0.133001
0.00331406
0.12548
0.000407505
0.106351
0.056077
0.0352846
0.161073
-0.0437905
0.0275463
0.155841
0.0208322
0.15094
0.0150557
0.147161
0.0100797
0.144172
0.00585525
0.141031
0.00230204
0.136554
-0.000347805
0.12813
-0.00108241
0.107086
0.0549946
0.0206625
0.169158
-0.0287481
0.013448
0.163055
0.00751681
0.156871
0.00293497
0.151743
-0.000430193
0.147537
-0.00277256
0.143374
-0.00424673
0.138028
-0.00444815
0.128331
-0.00269826
0.105336
0.0522963
0.00528154
0.176284
-0.0124073
-0.000913297
0.16925
-0.00573828
0.161696
-0.00894729
0.154952
-0.010697
0.149287
-0.011243
0.14392
-0.0105899
0.137375
-0.00826574
0.126007
-0.0040742
0.101144
0.0482221
-0.00923065
0.181955
0.00355936
-0.014009
0.174028
-0.0174359
0.165123
-0.0192265
0.156742
-0.0194628
0.149523
-0.0183153
0.142772
-0.0156673
0.134727
-0.0111778
0.121517
-0.00506144
0.0950278
0.0431607
-0.0237093
0.185586
0.0200788
-0.0265072
0.176826
-0.0280746
0.166691
-0.0281564
0.156824
-0.0267536
0.14812
-0.0239319
0.13995
-0.0195475
0.130343
-0.0133462
0.115316
-0.00575134
0.087433
0.0374093
-0.0397372
0.186684
0.0386391
-0.0398712
0.17696
-0.0388664
0.165686
-0.036686
0.154644
-0.0333566
0.144791
-0.0288312
0.135425
-0.0228632
0.124375
-0.0151373
0.10759
-0.00622747
0.0785231
0.0311819
-0.0577724
0.0598153
-0.0545079
-0.0502907
-0.0454418
-0.039997
-0.0336989
-0.0260708
-0.0166955
-0.00644912
0.0758883
0.0391416
-0.0854776
-0.0295524
0.0664024
0.039502
-0.0300161
0.0570269
0.0397714
-0.0303959
0.0477654
0.0399608
-0.0306993
0.0386095
0.0400713
-0.0309153
0.029555
0.0399854
-0.0309309
0.0206466
0.0392976
-0.0303892
0.0120728
0.037071
-0.0284971
0.0044742
0.0313195
-0.023721
0.0171254
-0.0126512
0.0771659
0.0488416
-0.0868659
0.0675347
0.0491332
0.0580045
0.0493016
0.0485833
0.0493821
0.0392695
0.049385
0.0300625
0.0491924
0.0210043
0.0483559
0.0122762
0.045799
0.00453176
0.039064
0.0216572
0.0778593
0.0586089
-0.0876266
0.0682249
0.0587676
0.0586956
0.058831
0.0492655
0.0588121
0.0399137
0.0587368
0.0306292
0.0584769
0.0214588
0.0575263
0.0125895
0.0546684
0.00467035
0.0469831
0.0263275
0.0764468
0.0683393
-0.0861772
0.0667704
0.068444
0.0572363
0.068365
0.0478544
0.0681941
0.0386192
0.067972
0.0295204
0.0675757
0.0205862
0.0664604
0.0119811
0.0632735
0.00435933
0.0546049
0.0306868
0.0784059
0.0781185
-0.0881852
0.0687562
0.0780937
0.0591503
0.0779709
0.0495929
0.0777516
0.0400901
0.0774748
0.0306683
0.0769975
0.0214083
0.0757203
0.0125032
0.0721786
0.00459106
0.062517
0.0352779
0.0724432
0.0875515
-0.0818762
0.06314
0.0873968
0.0540558
0.0870552
0.0451788
0.0866286
0.0364595
0.0861941
0.0278503
0.0856066
0.01937
0.0842006
0.0111888
0.0803598
0.00397775
0.0697281
0.0392556
0.0730969
0.0970608
-0.0826061
0.0637667
0.0967271
0.0545318
0.0962901
0.0453968
0.0957635
0.0363989
0.095192
0.0275898
0.0944158
0.0190523
0.0927381
0.0109546
0.0884575
0.00388387
0.0767988
0.0431395
0.0684459
0.106164
-0.0775495
0.0596004
0.105573
0.0510041
0.104886
0.0425797
0.104188
0.0342418
0.10353
0.0259788
0.102679
0.0178816
0.100835
0.0101678
0.0961713
0.0035269
0.0834397
0.0466664
0.0634841
0.114142
-0.071462
0.0555534
0.113503
0.0474826
0.112957
0.0394271
0.112244
0.0314949
0.111462
0.0237342
0.110439
0.0162169
0.108353
0.00910739
0.103281
0.0030633
0.0894838
0.0497297
0.0552798
-0.0622463
0.0483316
0.0414652
0.0345236
0.0275449
0.0206345
0.0139384
0.00765678
0.00244256
0.20217
0.0114914
-0.0156715
0.19923
0.154458
-0.151518
0.193283
0.196639
-0.190691
0.188751
0.172648
-0.168117
0.185402
0.149286
-0.145936
0.18185
0.145463
-0.141911
0.175552
0.149346
-0.143049
0.164658
0.175182
-0.164287
0.137509
0.2125
-0.185351
0.293496
-0.241464
0.201857
0.00762456
0.19799
0.158325
0.191377
0.203251
0.186392
0.177634
0.182871
0.152807
0.179688
0.148646
0.174322
0.154713
0.163807
0.185697
0.137579
0.238728
0.344209
0.201447
0.00416713
0.19642
0.163352
0.188827
0.210844
0.183059
0.183402
0.179182
0.156684
0.176201
0.151627
0.171545
0.159368
0.161126
0.196117
0.136247
0.263607
0.392829
0.200968
0.0011894
0.194543
0.169776
0.185539
0.219848
0.178766
0.190174
0.174592
0.160858
0.171694
0.154525
0.16735
0.163713
0.156767
0.206699
0.133011
0.287363
0.439663
0.200469
-0.00129019
0.192386
0.177859
0.18145
0.230785
0.173802
0.197822
0.16957
0.165091
0.166439
0.157656
0.161875
0.168277
0.150683
0.217891
0.130174
0.307873
0.481652
0.199996
-0.00329688
0.189962
0.187893
0.176813
0.243934
0.168901
0.205735
0.164607
0.169385
0.160585
0.161677
0.155355
0.173507
0.143577
0.229668
0.123896
0.327554
0.523672
0.199519
-0.00482641
0.18738
0.200033
0.17243
0.258883
0.164872
0.213293
0.159917
0.174339
0.154351
0.167244
0.148317
0.179541
0.135172
0.242813
0.118991
0.343734
0.560057
0.198948
-0.00578504
0.185041
0.21394
0.169175
0.27475
0.16184
0.220628
0.155725
0.180454
0.148514
0.174456
0.141566
0.186488
0.127038
0.257341
0.113768
0.357003
0.596276
0.198179
-0.00597448
0.183481
0.228638
0.167646
0.290584
0.15992
0.228354
0.153263
0.187111
0.145122
0.182597
0.137054
0.194556
0.121045
0.273351
0.106871
0.371178
0.631684
0.197241
-0.00522608
0.183031
0.242849
0.168476
0.305139
0.161299
0.235532
0.155372
0.193039
0.146098
0.19187
0.134861
0.205793
0.114855
0.293357
0.103925
0.382108
0.673363
0.310971
-0.0141869
0.316021
0.237799
0.31795
0.303209
0.320499
0.232983
0.326415
0.187123
0.325352
0.192932
0.330584
0.200562
0.33116
0.292781
0.376557
0.336711
0.602337
0.447582
0.310454
-0.0226303
0.33465
0.213603
0.355578
0.282281
0.368969
0.219592
0.379586
0.176506
0.387607
0.184911
0.39219
0.195979
0.403869
0.281101
0.426645
0.313936
0.548068
0.480914
0.308371
-0.0289915
0.351375
0.170599
0.391177
0.242479
0.415024
0.195745
0.428888
0.162642
0.448431
0.165368
0.450574
0.193835
0.476865
0.254811
0.498802
0.291999
0.499911
0.546959
0.305629
-0.03261
0.360638
0.11559
0.415196
0.187922
0.44774
0.163201
0.464362
0.14602
0.492492
0.137238
0.498076
0.188252
0.529105
0.223781
0.567404
0.2537
0.448197
0.619118
0.303392
-0.0339923
0.362293
0.0566892
0.42637
0.123845
0.464835
0.124736
0.485421
0.125434
0.516194
0.106465
0.529223
0.175223
0.560042
0.192963
0.613705
0.200037
0.386881
0.675021
0.302862
-0.0348436
0.359673
-0.000121823
0.426566
0.0569511
0.46764
0.0836618
0.493497
0.0995769
0.522105
0.0778572
0.544944
0.152384
0.578383
0.159524
0.63383
0.14459
0.321137
0.699573
0.304678
-0.0375112
0.353216
-0.0486601
0.413992
-0.00382524
0.453281
0.0443728
0.48434
0.0685181
0.509472
0.0527256
0.542875
0.11898
0.581863
0.120536
0.627337
0.0991169
0.249421
0.699053
0.308583
-0.0440836
0.33921
-0.0792872
0.378703
-0.0433186
0.408782
0.0142937
0.441495
0.0358048
0.462024
0.0321968
0.504219
0.0767854
0.55102
0.0737344
0.58459
0.065547
0.166718
0.667293
0.304951
-0.0470242
0.297869
-0.0722055
0.297427
-0.0428762
0.310902
0.000818103
0.335505
0.0112026
0.353559
0.0141427
0.39941
0.0309343
0.442504
0.03064
0.476666
0.0313854
0.0714728
0.571911
0.254986
0.18278
0.139904
0.140722
0.151925
0.166068
0.197002
0.227642
0.259027
0.3305
0.462608
-0.0863263
0.472043
-0.0760918
0.481971
-0.0673204
0.493086
-0.0549057
0.506338
-0.0419997
0.519321
-0.0253906
0.531625
-0.00874528
0.540293
0.0114108
0.546874
0.0320582
0.0563969
0.492358
-0.0977698
0.504408
-0.0881419
0.515646
-0.0785585
0.526411
-0.0656705
0.537087
-0.0526762
0.546716
-0.0350197
0.556566
-0.018595
0.564266
0.00371139
0.571813
0.0245108
0.051136
0.551793
-0.102604
0.559417
-0.0957657
0.565931
-0.0850725
0.571374
-0.0711139
0.575625
-0.0569277
0.579939
-0.0393329
0.584399
-0.0230553
0.588729
-0.000618842
0.594983
0.0182567
0.0444514
0.61716
-0.100646
0.614625
-0.0932311
0.611889
-0.0823362
0.609625
-0.0688496
0.60723
-0.0545327
0.606304
-0.0384074
0.606152
-0.0229032
0.609638
-0.00410441
0.614128
0.0137667
0.0360044
0.663467
-0.0890915
0.651378
-0.0811421
0.640322
-0.0712804
0.631351
-0.059878
0.624326
-0.0475084
0.620287
-0.0343678
0.618572
-0.0211889
0.621168
-0.00670007
0.625812
0.00912276
0.0264313
0.681771
-0.0712895
0.663989
-0.0633598
0.64866
-0.0559511
0.636649
-0.0478669
0.627938
-0.0387975
0.622911
-0.0293405
0.621214
-0.0194925
0.623357
-0.00884261
0.62874
0.00373991
0.0164767
0.676641
-0.0488775
0.657223
-0.0439414
0.640718
-0.0394461
0.627865
-0.0350139
0.61856
-0.0294931
0.61305
-0.0238308
0.611047
-0.0174894
0.612416
-0.0102116
0.61758
-0.00142392
0.00710437
0.64494
-0.0265244
0.625906
-0.0249076
0.609473
-0.0230131
0.595964
-0.021505
0.585754
-0.0192829
0.579046
-0.0171229
0.575256
-0.0136992
0.574753
-0.00970915
0.578254
-0.00492436
-0.000533719
0.553783
-0.00839592
0.537173
-0.00829791
0.522338
-0.00817817
0.509023
-0.00818973
0.498029
-0.0082891
0.489403
-0.00849695
0.483406
-0.00770209
0.480298
-0.00660101
0.480436
-0.00506211
-0.00383692
0.322104
0.313806
0.305628
0.297438
0.289149
0.280652
0.27295
0.266349
0.261287
0.00326437
0.037433
-0.0406974
0.00552284
0.0825556
-0.084814
0.00545173
0.105131
-0.10506
0.00420855
0.114856
-0.113613
0.00299847
0.118628
-0.117418
0.0016286
0.120426
-0.119056
0.000154945
0.120466
-0.118992
-0.000808389
0.11799
-0.117027
-0.000804478
0.112254
-0.112258
0.101474
0.000348801
-0.102627
0.00465495
0.0327781
0.00971963
0.0774909
0.0122984
0.102552
0.0130941
0.11406
0.0135369
0.118186
0.0138413
0.120122
0.0137459
0.120561
0.0136875
0.118048
0.0141099
0.111832
0.100735
0.0148486
0.00561905
0.027159
0.0136278
0.0694821
0.0194841
0.0966957
0.0228761
0.110668
0.0248355
0.116226
0.026452
0.118505
0.0278235
0.11919
0.0286869
0.117185
0.0291784
0.11134
0.100833
0.0290807
0.00588739
0.0212716
0.0162618
0.0591077
0.0255689
0.0873886
0.0320505
0.104186
0.0361791
0.112098
0.0392977
0.115387
0.0420515
0.116436
0.0440054
0.115231
0.0447466
0.110599
0.101631
0.0439481
0.00545692
0.0158147
0.0169226
0.047642
0.029105
0.0752062
0.0389339
0.0943574
0.0459077
0.105124
0.0510549
0.110239
0.0553061
0.112185
0.0586375
0.1119
0.0603692
0.108867
0.102178
0.0598228
0.00459561
0.0112191
0.0156641
0.0365735
0.0293084
0.0615619
0.0420195
0.0816463
0.0521954
0.0949479
0.0600084
0.102427
0.0662481
0.105945
0.0713321
0.106816
0.074892
0.105307
0.100958
0.076111
0.00355083
0.00766827
0.0129851
0.0271392
0.0261729
0.0483742
0.0402315
0.0675877
0.0529983
0.0821812
0.0636821
0.0917427
0.0724468
0.0971802
0.0796927
0.0995699
0.085469
0.0995311
0.0970822
0.0893453
0.00245262
0.00521565
0.00954558
0.0200463
0.0206294
0.0372904
0.0340229
0.0541941
0.0477885
0.0684156
0.0606122
0.078919
0.0719768
0.0858156
0.0818707
0.0896759
0.0903616
0.0910402
0.0901042
0.0973396
0.00133618
0.00387947
0.00585848
0.015524
0.0139373
0.0292116
0.0250198
0.0431116
0.0378336
0.0556018
0.0510916
0.065661
0.063916
0.0729912
0.0758637
0.0777282
0.0868226
0.0800813
0.0798906
0.0970362
0.000319503
0.00355997
0.00253132
0.0133121
0.00762782
0.0241151
0.0158037
0.0349357
0.0264584
0.0449471
0.0386671
0.0534523
0.0515989
0.0600594
0.0646588
0.0646682
0.0774809
0.0672593
0.0676769
0.0896946
-0.000443079
0.00400305
0.000100436
0.0127686
0.00287974
0.0213358
0.00843567
0.0293797
0.0166094
0.0367734
0.0268706
0.0431911
0.0386143
0.0483158
0.0512705
0.0520121
0.0641398
0.0543899
0.0560781
0.0757386
-0.000826333
0.00482938
-0.00116937
0.0131117
0.000175377
0.0199911
0.00378033
0.0257748
0.00971081
0.0308429
0.0176352
0.0352668
0.0271142
0.0388367
0.0376441
0.0414822
0.0486142
0.0434198
0.0452269
0.0594654
-0.000872255
0.00570163
-0.00155088
0.0137903
-0.00105059
0.0194908
0.00112904
0.0235952
0.0051905
0.0267815
0.0106917
0.0297655
0.017339
0.0321894
0.0248234
0.0339978
0.0328354
0.0354078
0.0367301
0.0413322
-0.000754829
0.00645646
-0.00155184
0.0145873
-0.00167341
0.0196124
-0.000809787
0.0227315
0.00114604
0.0248256
0.00402712
0.0268845
0.00780929
0.0284073
0.0124096
0.0293975
0.0177034
0.0301139
0.0306823
0.0237513
-0.00114503
0.00760149
-0.00264392
0.0160862
-0.00371346
0.0206819
-0.00418861
0.0232067
-0.00415906
0.0247961
-0.00338936
0.0261148
-0.00177216
0.02679
0.000632062
0.0269933
0.00375151
0.0269945
0.0268406
0.00759319
-0.00177486
0.00937635
-0.00413282
0.0184442
-0.0060593
0.0226084
-0.00745002
0.0245974
-0.00845351
0.0257996
-0.00898814
0.0266494
-0.00906958
0.0268715
-0.008576
0.0264997
-0.00740415
0.0258226
0.0249487
-0.00551217
-0.00204243
0.0114188
-0.00495909
0.0213608
-0.00778649
0.0254358
-0.0103952
0.0272062
-0.0126678
0.0280721
-0.0144372
0.0284188
-0.0157372
0.0281715
-0.0165672
0.0273297
-0.0168142
0.0260695
0.0245111
-0.0163765
-0.00221785
0.0136366
-0.00567552
0.0248185
-0.00936753
0.0291278
-0.0130125
0.0308512
-0.0163779
0.0314375
-0.0192827
0.0313237
-0.0217118
0.0306006
-0.0236726
0.0292905
-0.0250942
0.0274911
0.0253139
-0.0258971
-0.00237471
0.0160113
-0.0062655
0.0287093
-0.0105507
0.033413
-0.0148603
0.0351607
-0.0189651
0.0355423
-0.0227125
0.0350711
-0.0260424
0.0339305
-0.0289272
0.0321753
-0.0313012
0.0298652
0.0271031
-0.0330905
-0.00237752
-0.00641556
-0.0109088
-0.0154755
-0.0199248
-0.0241265
-0.0280029
-0.0314978
-0.0345362
-0.0370418
0.0698867
0.212624
-0.206773
0.0642207
0.157882
-0.152216
0.0694022
0.0640903
-0.0692719
0.0795027
-0.00368997
-0.00641053
0.0909318
-0.0412784
0.0298493
0.102812
-0.0536023
0.0417226
0.114016
-0.0520287
0.0408246
0.123857
-0.0443891
0.0345472
0.132473
-0.0338728
0.0252575
-0.0186539
0.0128583
0.0581158
0.213974
0.0587294
0.157268
0.0699048
0.0529149
0.0835799
-0.0173651
0.09628
-0.0539785
0.108087
-0.0654094
0.118705
-0.0626462
0.127734
-0.0534186
0.135375
-0.0415134
-0.0234511
0.0446
0.210706
0.0532886
0.14858
0.0705308
0.0356728
0.0871536
-0.0339879
0.101294
-0.0681194
0.113126
-0.0772409
0.123147
-0.0726677
0.131288
-0.061559
0.137895
-0.0481204
-0.0273202
0.0315569
0.202901
0.0493968
0.13074
0.0720738
0.0129958
0.0911853
-0.0530994
0.106429
-0.083363
0.11829
-0.0891017
0.127689
-0.0820671
0.134878
-0.0687478
0.140416
-0.0536587
-0.0303187
0.0200264
0.190467
0.0471763
0.10359
0.0744043
-0.0142322
0.095728
-0.0744232
0.111857
-0.0994918
0.123699
-0.100944
0.132452
-0.0908198
0.138669
-0.0749644
0.143126
-0.0581161
-0.0324803
0.0100414
0.174914
0.0459184
0.0677128
0.076872
-0.0451857
0.100294
-0.0978447
0.117221
-0.116419
0.129063
-0.112787
0.137235
-0.0989921
0.142572
-0.0803014
0.146025
-0.0615686
-0.0338583
0.00139915
0.157138
0.0446599
0.0244521
0.0786202
-0.079146
0.10411
-0.123334
0.121892
-0.134201
0.133876
-0.12477
0.141653
-0.106769
0.14632
-0.0849693
0.148958
-0.0642059
-0.0345609
-0.00709812
0.138339
0.0423838
-0.0250298
0.078838
-0.1156
0.106469
-0.150965
0.125337
-0.153069
0.137719
-0.137152
0.145368
-0.114418
0.149638
-0.0892391
0.151722
-0.0662904
-0.0347476
-0.0145697
0.119818
0.0382331
-0.0778326
0.0769627
-0.15433
0.106919
-0.180921
0.127254
-0.173405
0.140366
-0.150263
0.148195
-0.122247
0.152351
-0.0933954
0.154169
-0.0681079
-0.034605
-0.021214
0.0314965
0.0726755
0.105238
0.127513
0.14173
0.150066
0.154389
0.156223
0.0248509
0.0183648
-0.0432158
0.0143259
0.010525
0.0104451
0.00388078
0.010712
-0.000266859
0.0140531
-0.00334118
0.0180783
-0.00402515
0.0217688
-0.00369051
0.0249937
-0.00322488
0.0269501
-0.00195639
-0.000792301
0.0880323
0.0549339
-0.124601
0.0597028
0.0388546
0.0479238
0.0156598
0.0472716
0.000385353
0.0529507
-0.00902031
0.0603191
-0.0113935
0.0672729
-0.0106443
0.0731846
-0.00913667
0.0769495
-0.00572123
-0.00246393
0.129012
0.101819
-0.175897
0.0925973
0.0752692
0.0759301
0.032327
0.0739198
0.00239562
0.0800591
-0.0151595
0.0889537
-0.0202881
0.0978457
-0.0195363
0.105366
-0.0166568
0.110726
-0.0110812
-0.00522216
0.145181
0.15523
-0.198592
0.106383
0.114067
0.0875973
0.0511126
0.0850356
0.00495737
0.0919308
-0.0220548
0.102166
-0.0305233
0.112455
-0.0298254
0.121126
-0.0253273
0.127902
-0.0178576
-0.00891425
0.146399
-0.197942
0.108251
0.0900916
0.0886384
0.0964329
0.107632
0.118631
0.127851
0.135251
0.007823
0.000164116
-0.00798711
0.00855458
-0.000731582
0.0100307
-0.00147611
0.0121241
-0.00209346
0.0147
-0.00257588
0.0177994
-0.00309942
0.0218147
-0.0040153
0.0269795
-0.00516473
0.0344293
-0.0074498
-0.0087865
0.0204267
0.000411671
-0.0206742
0.0223908
-0.00269571
0.02635
-0.00543537
0.0322175
-0.00796089
0.0400571
-0.0104155
0.0503695
-0.0134118
0.0638177
-0.0174635
0.0804625
-0.0218095
0.101492
-0.0284792
-0.0318961
0.0306365
0.000523177
-0.030748
0.0337112
-0.00577036
0.0398283
-0.0115525
0.0490974
-0.01723
0.0618605
-0.0231786
0.0788144
-0.0303657
0.0998217
-0.0384708
0.124295
-0.0462828
0.151252
-0.0554361
-0.0565409
0.0388268
0.000314567
-0.0386182
0.0429067
-0.00985027
0.0508867
-0.0195325
0.0630891
-0.0294324
0.0799962
-0.0400858
0.101787
-0.0521563
0.127049
-0.063733
0.154254
-0.0734877
0.179315
-0.0804971
-0.0758181
0.0453082
-0.0446448
0.0503066
0.0598548
0.0743705
0.0941075
0.118062
0.143674
0.167526
0.184065
0.0531473
-0.0454376
0.0526413
-0.060351
0.0462652
-0.0444745
0.0513566
0.0398659
-0.0437481
0.0501475
0.0336665
-0.0430128
0.0492122
0.0274334
-0.0421816
0.0484148
0.0210793
-0.041103
0.047457
0.0146717
-0.0394278
0.0458354
0.00843974
-0.0364178
0.0426498
0.00299443
-0.0303978
0.0358431
-0.0167318
0.0197262
0.0591354
-0.03842
-0.066153
0.0521802
-0.0375193
0.0450276
-0.0365955
0.0377007
-0.035686
0.0302955
-0.0347764
0.0229374
-0.0337449
0.0157746
-0.032265
0.00902973
-0.029673
0.00324226
-0.0246104
-0.0134895
0.0595061
-0.0307716
-0.0671545
0.0518297
-0.0298429
0.0442124
-0.0289782
0.0366968
-0.0281704
0.0293223
-0.027402
0.0221287
-0.0265512
0.0151881
-0.0253244
0.00867698
-0.0231619
0.00310558
-0.019039
-0.0103839
0.0605201
-0.0229121
-0.0683797
0.0527568
-0.0220796
0.0450741
-0.0212954
0.0374801
-0.0205764
0.0299861
-0.019908
0.0226324
-0.0191975
0.0155244
-0.0182165
0.00888584
-0.0165233
0.00322589
-0.013379
-0.00715806
0.0620729
-0.0148585
-0.0701264
0.0540604
-0.0140671
0.0461002
-0.0133352
0.0382015
-0.0126777
0.0303872
-0.0120937
0.0227243
-0.0115345
0.0153754
-0.0108676
0.00865674
-0.00980461
0.00311728
-0.00783955
-0.00404077
0.0638455
-0.00653131
-0.0721727
0.0555592
-0.00578086
0.0473065
-0.00508247
0.0390844
-0.00445559
0.0309034
-0.00391272
0.0228322
-0.00346339
0.0150838
-0.00311921
0.00812694
-0.00284772
0.00271934
-0.00243195
-0.00132143
0.0661752
0.00208797
-0.0747944
0.0576006
0.00279373
0.0490641
0.00345405
0.0405562
0.00405231
0.0320748
0.00456868
0.023666
0.0049454
0.015513
0.00503373
0.00810467
0.00456066
0.00243781
0.00323491
0.00111637
0.0688731
0.0109867
-0.0777719
0.0600398
0.0116271
0.0512807
0.0122132
0.0425967
0.0127363
0.0339912
0.0131742
0.0254984
0.0134382
0.0172486
0.0132836
0.00959086
0.0122183
0.0032947
0.00953108
0.00441107
0.0715716
0.0201526
-0.0807375
0.0624914
0.0207073
0.0535106
0.021194
0.0446357
0.0216111
0.0358706
0.0219393
0.0272358
0.022073
0.0188141
0.0217053
0.0108451
0.0201873
0.00396253
0.0164137
0.00837359
0.0740114
-0.0834112
0.0647026
0.0555008
0.0464126
0.0374365
0.0285786
0.0198946
0.0115849
0.0042776
0.0154106