/*--------------------------------*- C++ -*----------------------------------*\
| =========                 |                                                 |
| \\      /  F ield         | OpenFOAM: The Open Source CFD Toolbox           |
|  \\    /   O peration     | Version:  2406                                  |
|   \\  /    A nd           | Website:  www.openfoam.com                      |
|    \\/     M anipulation  |                                                 |
\*---------------------------------------------------------------------------*/
FoamFile
{
    version     2.0;
    format      ascii;
    arch        "LSB;label=32;scalar=64";
    class       volVectorField;
    location    "0.75";
    object      U;
}
// * * * * * * * * * * * * * * * * * * * * * * * * * * * * * * * * * * * * * //

dimensions      [0 1 -1 0 0 0 0];

internalField   nonuniform List<vector> 
1800
(
(-0.0139942 0.0223963 0)
(-0.0481666 0.0751078 -1.07242e-20)
(-0.0481584 0.131408 -6.80853e-20)
(-0.0153469 0.172524 5.10924e-21)
(0.047527 0.199317 -4.73232e-20)
(0.133892 0.218702 -3.71494e-20)
(0.235645 0.237167 3.48303e-20)
(0.346279 0.258715 3.61289e-19)
(0.468515 0.281225 0)
(0.557784 0.338976 -2.50464e-20)
(-0.00304895 0.00712708 -3.12747e-20)
(-0.0159606 0.0260056 -1.26274e-19)
(0.00194442 0.0515201 6.97994e-20)
(0.0614513 0.0682421 9.90308e-20)
(0.156385 0.0757381 -2.18379e-20)
(0.274433 0.0804191 5.00762e-21)
(0.403743 0.0861135 -3.21107e-20)
(0.53718 0.0940379 -2.83287e-19)
(0.676661 0.101025 1.12367e-19)
(0.772259 0.137012 1.85438e-19)
(-0.000693074 0.00076714 4.66624e-21)
(0.00661539 -0.00174989 -3.51811e-20)
(0.0653768 -0.000874773 -2.57293e-20)
(0.170592 -0.00494607 2.80746e-20)
(0.306633 -0.00886029 -8.55783e-21)
(0.456188 -0.00823026 9.87176e-21)
(0.606305 -0.00202035 -8.09693e-21)
(0.750724 0.00900055 1.22577e-19)
(0.892103 0.0252197 -1.57312e-19)
(0.987329 0.0463884 -4.16711e-19)
(0.000674498 0.000268309 2.84744e-20)
(0.0464208 -0.0174897 8.87499e-20)
(0.163291 -0.0347673 -6.3781e-20)
(0.324235 -0.0493796 -6.92148e-22)
(0.502612 -0.0565528 1.01679e-19)
(0.679158 -0.0544038 -1.52452e-20)
(0.843293 -0.0445622 -1.51083e-20)
(0.992663 -0.0293518 -5.07374e-21)
(1.13289 -0.00816167 -6.2049e-21)
(1.22408 0.0100337 -3.66675e-20)
(0.0112341 -0.00261949 -2.18556e-20)
(0.114507 -0.0334921 5.62957e-20)
(0.296754 -0.055245 5.06984e-20)
(0.511535 -0.0679233 -8.61699e-20)
(0.723907 -0.0690219 -3.24795e-20)
(0.915797 -0.0595758 4.11941e-20)
(1.08242 -0.0430989 2.13735e-20)
(1.22792 -0.0223485 2.50945e-20)
(1.36111 0.00296902 -5.06574e-20)
(1.45404 0.0195185 -2.57839e-20)
(0.0351328 -0.00741974 4.71422e-22)
(0.211987 -0.0468588 1.68108e-19)
(0.462866 -0.0640832 1.02177e-19)
(0.72212 -0.0667517 -1.22177e-19)
(0.95241 -0.0574373 9.08988e-20)
(1.14375 -0.0401162 -1.02345e-20)
(1.30185 -0.0189734 7.73925e-20)
(1.43919 0.00376403 1.18839e-19)
(1.5683 0.0281264 -1.31795e-19)
(1.68184 0.0433083 -1.12964e-19)
(0.0734024 -0.0120326 -3.5653e-20)
(0.337523 -0.0518436 -2.50744e-19)
(0.651579 -0.0556459 2.67467e-20)
(0.936078 -0.0438096 2.90306e-19)
(1.16342 -0.0242156 -2.07473e-20)
(1.3401 -0.00158178 -1.61777e-19)
(1.48478 0.0212236 -8.90646e-20)
(1.61709 0.0435488 3.0257e-19)
(1.752 0.0657535 3.33376e-19)
(1.89347 0.0837794 3.6306e-20)
(0.126967 -0.013434 3.49345e-20)
(0.484851 -0.0420248 3.42519e-20)
(0.844703 -0.0260534 -1.20406e-19)
(1.1306 -0.000160655 5.95685e-20)
(1.33933 0.0261883 -9.54403e-22)
(1.49734 0.0507796 -5.2475e-19)
(1.6333 0.0734303 -1.15433e-20)
(1.7696 0.0952727 3.96758e-19)
(1.91897 0.117368 -2.57985e-19)
(2.08157 0.138458 -2.94542e-19)
(0.194238 -0.00824436 1.23225e-19)
(0.640784 -0.0129454 1.20477e-19)
(1.02194 0.0246416 -2.84082e-19)
(1.29087 0.0613403 -6.26564e-20)
(1.47609 0.0914959 3.75799e-21)
(1.61943 0.116988 1.94003e-19)
(1.75329 0.139956 -3.75519e-19)
(1.89785 0.162371 -2.12088e-19)
(2.05772 0.184904 5.47872e-19)
(2.21911 0.206908 1.35031e-19)
(0.27077 0.00644947 2.74087e-20)
(0.789873 0.0363389 2.82974e-19)
(1.17067 0.0940909 -2.5029e-19)
(1.41487 0.138595 -1.02985e-19)
(1.5789 0.171501 1.04406e-19)
(1.71188 0.198154 -1.25008e-19)
(1.84513 0.221935 2.45146e-19)
(1.99359 0.244725 2.44923e-20)
(2.15186 0.265969 -2.36506e-19)
(2.29749 0.28327 -8.44424e-20)
(-0.0159779 0.24334 -3.18388e-20)
(-0.0393361 0.432786 1.19768e-19)
(-0.0660531 0.499396 7.8173e-20)
(-0.089542 0.521909 -1.01593e-19)
(-0.111189 0.523933 4.74954e-22)
(-0.130523 0.512996 3.94631e-20)
(-0.14717 0.492301 2.52139e-20)
(-0.161172 0.462905 -5.2059e-20)
(-0.172312 0.425246 2.31861e-22)
(-0.180485 0.380489 -1.13149e-21)
(-0.035737 0.265414 3.84353e-20)
(-0.0733745 0.473156 7.42191e-23)
(-0.102158 0.54346 2.92566e-20)
(-0.123951 0.566104 -1.29572e-19)
(-0.142774 0.567061 -1.02107e-19)
(-0.159089 0.554101 -6.10404e-20)
(-0.172601 0.530473 4.70947e-20)
(-0.18338 0.497278 0)
(-0.191188 0.454929 -1.71682e-20)
(-0.195792 0.404565 6.16481e-20)
(-0.0566865 0.277539 3.7228e-24)
(-0.109437 0.500018 -1.49598e-19)
(-0.139314 0.574387 -9.36143e-20)
(-0.157176 0.598819 9.39386e-20)
(-0.17062 0.601054 -8.81759e-21)
(-0.181226 0.588012 -5.92704e-20)
(-0.189664 0.563623 -8.55482e-22)
(-0.195456 0.529102 1.18626e-21)
(-0.198068 0.484516 6.76395e-21)
(-0.197317 0.430781 -6.00825e-20)
(-0.0774614 0.279306 3.5244e-20)
(-0.146163 0.512449 4.70033e-20)
(-0.175794 0.589691 8.32022e-21)
(-0.186173 0.611791 9.26423e-20)
(-0.191971 0.617695 -2.15691e-20)
(-0.195358 0.611742 2.7243e-20)
(-0.196582 0.590634 -2.04025e-20)
(-0.195664 0.556699 0)
(-0.191559 0.511935 -9.18834e-20)
(-0.183713 0.457048 -2.31206e-19)
(-0.0920846 0.266819 -4.68401e-20)
(-0.171021 0.503183 2.24477e-20)
(-0.194605 0.584411 9.70548e-20)
(-0.198895 0.605803 -2.39795e-20)
(-0.199524 0.612032 1.53634e-20)
(-0.198371 0.612091 2.49077e-20)
(-0.19402 0.602274 -5.14502e-20)
(-0.185892 0.576146 1.17073e-19)
(-0.173645 0.535116 -1.75284e-19)
(-0.156275 0.481467 -1.7834e-19)
(-0.0969373 0.235703 -4.21152e-20)
(-0.182813 0.466391 -1.43106e-20)
(-0.204174 0.558582 -5.37566e-20)
(-0.206469 0.592416 2.43377e-20)
(-0.202056 0.605763 1.45292e-19)
(-0.193267 0.606856 -1.92253e-19)
(-0.180547 0.598307 -2.82524e-20)
(-0.163006 0.578695 1.46995e-19)
(-0.140343 0.545787 -3.68425e-19)
(-0.11051 0.497558 -1.45856e-19)
(-0.0914712 0.19086 -2.55449e-21)
(-0.181312 0.40468 3.58267e-20)
(-0.202113 0.507316 3.29224e-22)
(-0.199885 0.554118 1.86843e-19)
(-0.187791 0.576148 1.78608e-20)
(-0.169607 0.583957 -2.57227e-19)
(-0.146365 0.580844 -2.4601e-19)
(-0.118542 0.56703 -1.99693e-19)
(-0.0852329 0.540888 5.42975e-19)
(-0.0415321 0.498573 4.21843e-19)
(-0.0764978 0.140233 -2.53678e-22)
(-0.163794 0.325085 -2.22409e-20)
(-0.183551 0.433146 1.06444e-20)
(-0.176289 0.491561 -8.04715e-20)
(-0.155353 0.523632 -1.88477e-19)
(-0.125877 0.540328 1.34142e-19)
(-0.090296 0.546146 -1.50985e-19)
(-0.050331 0.541882 6.96293e-21)
(-0.00509349 0.525464 4.40719e-19)
(0.0547807 0.491658 -4.02164e-21)
(-0.054645 0.0906335 -1.47869e-20)
(-0.130144 0.234722 -5.40464e-21)
(-0.146344 0.337723 -1.88514e-21)
(-0.133328 0.402059 5.43081e-20)
(-0.102287 0.442064 1.33502e-20)
(-0.0589619 0.467407 2.42831e-19)
(-0.00740936 0.48365 5.31674e-20)
(0.0487297 0.492626 1.79279e-19)
(0.108438 0.491911 -6.12191e-21)
(0.187608 0.473441 -7.44015e-19)
(-0.0323051 0.049785 -2.54795e-20)
(-0.0888824 0.146626 -3.30625e-20)
(-0.0992063 0.230947 2.37346e-20)
(-0.0797225 0.289573 -6.39203e-20)
(-0.0373412 0.328756 8.71804e-20)
(0.0222482 0.356398 3.47821e-19)
(0.0930148 0.379025 1.45308e-19)
(0.168994 0.400376 -4.26593e-19)
(0.246596 0.420669 -5.68402e-19)
(0.343227 0.434152 -6.31279e-19)
(-0.209523 0.135507 -5.30457e-19)
(-0.0239613 -0.21697 -6.23886e-19)
(0.23717 -0.301358 -2.05547e-19)
(0.409268 -0.320809 5.15489e-20)
(0.558952 -0.289018 4.31457e-20)
(0.65795 -0.239885 4.95876e-21)
(0.719732 -0.188556 -7.06338e-20)
(0.759694 -0.140034 2.50253e-20)
(0.781797 -0.099695 -1.58544e-20)
(0.795877 -0.0486987 -8.92359e-21)
(-0.205991 0.126913 -5.24047e-19)
(-0.0569836 -0.281092 1.93373e-20)
(0.215854 -0.364333 -1.05438e-19)
(0.398706 -0.372685 -5.08197e-20)
(0.557906 -0.326128 5.41759e-20)
(0.661995 -0.264266 -9.93806e-20)
(0.726102 -0.203672 4.34196e-20)
(0.766597 -0.148966 8.26636e-22)
(0.789215 -0.105035 -2.99562e-20)
(0.803722 -0.0507896 1.83688e-20)
(-0.184829 0.131115 8.27627e-19)
(-0.0738909 -0.333899 7.94183e-19)
(0.206918 -0.429484 8.90439e-20)
(0.396187 -0.427264 -4.98015e-20)
(0.560597 -0.365748 -6.74444e-20)
(0.667301 -0.290144 1.67133e-21)
(0.732458 -0.2196 1.92556e-20)
(0.773199 -0.158294 -2.69583e-20)
(0.79615 -0.110755 7.09471e-22)
(0.811535 -0.0530166 -5.00953e-22)
(-0.144433 0.147608 8.778e-19)
(-0.052793 -0.372816 -1.64529e-20)
(0.231564 -0.493706 5.6828e-20)
(0.418055 -0.482115 4.10843e-20)
(0.577771 -0.406146 1.98253e-20)
(0.68052 -0.316503 1.96441e-20)
(0.742929 -0.235869 -3.48679e-20)
(0.782303 -0.167817 0)
(0.804639 -0.116827 0)
(0.820926 -0.0554228 -2.89953e-23)
(-0.0802168 0.171349 -3.52209e-20)
(0.0253855 -0.399733 -7.65853e-19)
(0.314605 -0.554341 -1.27496e-20)
(0.486635 -0.534309 -4.06061e-20)
(0.626536 -0.444618 -1.90896e-21)
(0.713566 -0.341609 7.47113e-20)
(0.76543 -0.251532 2.07379e-21)
(0.799287 -0.177039 -1.4369e-20)
(0.818607 -0.123046 -4.24782e-20)
(0.834908 -0.0580191 -1.71901e-21)
(0.00764702 0.194861 -1.72424e-19)
(0.172238 -0.421906 -3.48454e-19)
(0.468721 -0.61052 -7.73285e-19)
(0.620235 -0.581139 9.57074e-21)
(0.726419 -0.477784 1.29139e-20)
(0.78355 -0.362758 3.96207e-20)
(0.813116 -0.264813 1.37971e-20)
(0.833725 -0.184906 -6.24437e-20)
(0.845329 -0.128863 7.07741e-22)
(0.858966 -0.0607053 -2.03974e-20)
(0.122926 0.209738 -2.49409e-20)
(0.381092 -0.445736 3.65064e-21)
(0.675718 -0.66355 3.53882e-19)
(0.812197 -0.622675 -9.01355e-20)
(0.883988 -0.503406 -1.59165e-20)
(0.904176 -0.376801 -3.16146e-20)
(0.901146 -0.272929 -3.47428e-21)
(0.899031 -0.189502 1.38259e-20)
(0.896315 -0.133094 1.6857e-20)
(0.902172 -0.0631215 9.13655e-21)
(0.266127 0.226864 8.7858e-20)
(0.61284 -0.466091 1.7193e-18)
(0.892416 -0.71258 5.45898e-19)
(1.02519 -0.663253 3.75108e-20)
(1.07821 -0.524523 -4.13956e-20)
(1.06991 -0.383859 3.06186e-21)
(1.03448 -0.274239 -3.55328e-20)
(1.00498 -0.188944 3.48203e-20)
(0.983254 -0.134053 -1.87928e-22)
(0.975486 -0.0645733 -3.25549e-21)
(0.455687 0.2154 2.38217e-19)
(0.830991 -0.470025 5.28911e-19)
(1.08611 -0.747973 -8.89756e-19)
(1.21911 -0.702797 4.04536e-19)
(1.27214 -0.545379 -9.87954e-20)
(1.25396 -0.387725 -1.77753e-20)
(1.19794 -0.270558 -8.94186e-21)
(1.1457 -0.183517 4.56572e-22)
(1.10668 -0.13097 -4.48768e-21)
(1.08327 -0.0644075 -3.02901e-21)
(0.635185 0.256959 1.71499e-19)
(1.04202 -0.441457 -1.14959e-18)
(1.26741 -0.767981 -7.02075e-19)
(1.38388 -0.738794 3.15565e-19)
(1.43948 -0.566558 -1.2916e-19)
(1.42653 -0.390596 2.40224e-20)
(1.36503 -0.264097 -7.31704e-20)
(1.30002 -0.174955 -7.16606e-22)
(1.25039 -0.124805 -3.46031e-21)
(1.21449 -0.062631 -4.78765e-21)
(0.978586 0.189196 -1.22925e-19)
(1.37381 -0.48971 -1.39842e-19)
(1.55578 -0.808313 -8.18291e-20)
(1.60914 -0.783796 -1.38311e-19)
(1.63041 -0.59355 8.5466e-20)
(1.61592 -0.392471 3.81093e-21)
(1.55644 -0.250554 2.39318e-20)
(1.48655 -0.158178 2.03288e-20)
(1.43208 -0.111497 -4.37219e-20)
(1.38588 -0.0576467 5.53198e-21)
(1.63042 -0.0233893 1.84453e-19)
(2.05045 -0.628494 -3.49601e-19)
(2.10923 -0.855234 -2.36682e-19)
(1.98617 -0.778026 3.47548e-21)
(1.86227 -0.570836 9.96682e-20)
(1.78197 -0.365845 1.36664e-19)
(1.70951 -0.22265 1.2317e-19)
(1.64251 -0.133721 -1.59398e-20)
(1.59481 -0.0928789 6.10863e-20)
(1.54919 -0.0492914 1.53509e-20)
(2.40327 -0.17158 3.27411e-20)
(2.65555 -0.646348 -3.99486e-20)
(2.55581 -0.783592 8.80136e-20)
(2.33861 -0.690256 2.6472e-35)
(2.11866 -0.500892 -3.51332e-20)
(1.95891 -0.317523 -5.71836e-34)
(1.84386 -0.187933 9.55036e-21)
(1.76284 -0.108493 6.08888e-35)
(1.71039 -0.0743759 -1.58741e-22)
(1.66385 -0.0410596 -1.39074e-21)
(2.89775 -0.277626 4.45441e-20)
(2.93422 -0.671245 4.84798e-19)
(2.70337 -0.763885 1.83024e-19)
(2.44129 -0.64452 0)
(2.20662 -0.444393 -1.2103e-19)
(2.02908 -0.267789 -1.16502e-19)
(1.90032 -0.150773 -9.16708e-20)
(1.8139 -0.082337 7.17306e-34)
(1.75839 -0.0547133 -2.95072e-20)
(1.71167 -0.0312466 4.17614e-22)
(3.1146 -0.33621 3.38318e-20)
(3.09125 -0.614314 1.37554e-20)
(2.86405 -0.635631 0)
(2.57462 -0.510343 0)
(2.28931 -0.335293 0)
(2.06806 -0.191016 0)
(1.91595 -0.101874 3.56372e-21)
(1.82124 -0.0529654 8.51671e-34)
(1.76331 -0.0349499 -9.88129e-22)
(1.71535 -0.0236276 -2.75167e-35)
(3.23649 -0.349892 1.66999e-19)
(3.15062 -0.559211 0)
(2.85708 -0.562121 0)
(2.52742 -0.431078 0)
(2.23418 -0.255589 0)
(2.01568 -0.125796 0)
(1.87071 -0.0578911 -8.08755e-21)
(1.7842 -0.0258755 5.57709e-20)
(1.7349 -0.0168597 -1.38478e-21)
(1.69338 -0.015491 1.02438e-20)
(3.26512 -0.350578 0)
(3.11587 -0.483562 1.81573e-19)
(2.76198 -0.431702 2.44699e-20)
(2.37047 -0.296697 0)
(2.05637 -0.149942 -9.45127e-20)
(1.85284 -0.0546938 -7.3684e-20)
(1.73557 -0.0148015 -5.64812e-20)
(1.67058 -0.000831704 -2.81507e-20)
(1.63897 -0.000731852 2.68346e-20)
(1.60527 -0.00661975 -7.20143e-21)
(3.09681 -0.323262 2.20826e-20)
(2.81938 -0.369682 5.71644e-21)
(2.36399 -0.288486 -1.78567e-20)
(1.93505 -0.168111 -8.39234e-36)
(1.65345 -0.0599232 1.89561e-20)
(1.50778 -0.00239616 -4.39416e-34)
(1.44197 0.0129798 -1.05331e-20)
(1.41056 0.013131 -1.9978e-20)
(1.40169 0.00794802 -1.90367e-21)
(1.3807 -0.00124605 3.41813e-21)
(2.37857 -0.247703 0)
(1.92825 -0.191908 -3.34012e-20)
(1.44865 -0.0893481 1.1791e-20)
(1.12201 -0.0231967 0)
(0.977872 0.0125302 2.73733e-20)
(0.939372 0.024745 2.12531e-20)
(0.942258 0.0218523 3.55455e-21)
(0.951966 0.0155915 8.95647e-21)
(0.966748 0.00950288 -1.15526e-20)
(0.962804 0.00177446 -2.11989e-21)
(0.741175 -0.0632323 1.44764e-20)
(0.429886 -0.0159294 0)
(0.260629 0.000528536 0)
(0.19803 0.00387715 0)
(0.20675 0.00741452 0)
(0.244516 0.00850298 0)
(0.28613 0.00690051 -1.1183e-20)
(0.318587 0.00475307 3.42142e-35)
(0.34231 0.00291338 -2.26202e-21)
(0.350763 0.000715148 -3.93177e-21)
(2.50618 0.306989 4.31641e-19)
(2.48468 0.244805 1.65769e-19)
(2.41057 0.198914 3.04825e-19)
(2.2873 0.145089 -2.81936e-19)
(2.09183 0.108991 5.83984e-20)
(1.85993 0.070253 2.36537e-20)
(1.56468 0.0474939 -6.96555e-20)
(1.28017 0.0639053 -3.29891e-20)
(1.03199 0.0919253 1.33031e-19)
(0.744687 0.333921 1.57509e-19)
(2.63933 0.271218 -2.39022e-19)
(2.6497 0.236011 5.10968e-20)
(2.63598 0.190223 1.55387e-19)
(2.59905 0.177086 1.34413e-19)
(2.51996 0.134324 -1.97786e-19)
(2.37841 0.136896 3.46073e-20)
(2.24404 0.0861004 -1.52284e-19)
(1.93727 0.132994 -4.18328e-20)
(1.83677 0.0622923 -1.46555e-19)
(1.27925 0.228184 -1.98804e-19)
(2.77029 0.24182 3.17379e-20)
(2.74791 0.221653 -1.60067e-19)
(2.81306 0.16241 -2.14064e-19)
(2.74328 0.172376 4.45175e-19)
(2.81909 0.116101 1.35973e-20)
(2.65231 0.149157 -5.86889e-20)
(2.7447 0.0690252 -8.89837e-20)
(2.42521 0.132502 -7.10015e-20)
(2.54892 0.0239171 1.32509e-19)
(2.0653 0.139337 -4.63006e-21)
(2.87294 0.212878 6.54691e-20)
(2.84147 0.192448 -2.15061e-19)
(2.94064 0.137289 3.63697e-20)
(2.85815 0.143136 -1.54992e-19)
(2.98998 0.0868279 2.67104e-19)
(2.83942 0.119734 -7.3423e-20)
(2.99442 0.035988 9.01887e-20)
(2.76424 0.0844623 -1.41328e-19)
(2.91557 -0.0301876 -3.51466e-19)
(2.63267 0.0325989 -1.72715e-19)
(2.92507 0.177326 1.14704e-19)
(2.92723 0.148237 -3.40991e-19)
(3.00482 0.106691 -2.31797e-20)
(2.97657 0.0941276 -3.49043e-20)
(3.06536 0.0522439 -1.08498e-20)
(3.00525 0.0613559 -2.56978e-21)
(3.09898 0.00348686 4.72736e-20)
(3.00325 0.018083 -8.347e-20)
(3.08466 -0.0702812 -1.55798e-19)
(2.96158 -0.059169 -2.34104e-19)
(2.93532 0.13169 2.12774e-19)
(2.96593 0.101039 4.3238e-20)
(3.02615 0.0716246 -2.36116e-19)
(3.04072 0.0501106 1.35914e-19)
(3.09704 0.0219648 1.31755e-19)
(3.09591 0.0132721 -7.12252e-20)
(3.14842 -0.0221984 1.37487e-19)
(3.13063 -0.0313786 3.71502e-20)
(3.17578 -0.0908915 -2.1502e-19)
(3.13194 -0.108633 -2.88407e-19)
(2.8783 0.0781503 1.60298e-20)
(2.92292 0.0502441 7.79681e-20)
(2.97544 0.0297929 -9.098e-20)
(3.01136 0.00866732 -3.72147e-20)
(3.05901 -0.00917272 1.43226e-19)
(3.08517 -0.0227527 1.76492e-20)
(3.1307 -0.047698 1.08565e-19)
(3.14907 -0.0647365 1.23105e-19)
(3.18896 -0.11178 4.86105e-20)
(3.1982 -0.136543 1.17507e-19)
(2.68161 0.0290382 2.42387e-20)
(2.73648 0.00586037 -2.51107e-22)
(2.76772 -0.00471077 -9.24299e-20)
(2.82227 -0.0233106 -7.6646e-20)
(2.84736 -0.0271602 4.37286e-21)
(2.90686 -0.0457845 -3.3331e-20)
(2.92648 -0.0566381 -7.52923e-21)
(2.99952 -0.0821394 1.00323e-19)
(3.01161 -0.117 -7.79129e-20)
(3.09134 -0.150807 -9.19513e-20)
(2.20007 -0.0189494 7.63073e-20)
(2.24802 -0.0274281 -3.49596e-20)
(2.24322 -0.0320366 -3.00607e-20)
(2.30162 -0.037208 3.44868e-20)
(2.29866 -0.0414094 -9.55877e-21)
(2.37416 -0.0567226 1.72792e-20)
(2.36382 -0.069153 -9.36231e-20)
(2.46494 -0.0975287 1.21653e-20)
(2.42816 -0.122583 3.84191e-20)
(2.54319 -0.15747 -4.02402e-20)
(1.16253 -0.0155566 0)
(1.15156 -0.018717 3.17394e-21)
(1.13474 -0.0202262 -4.5357e-20)
(1.13112 -0.0254248 -6.05924e-20)
(1.11157 -0.0279874 3.19945e-20)
(1.11699 -0.0348528 9.26253e-20)
(1.08263 -0.0372089 -1.77095e-20)
(1.09946 -0.0455347 -3.57462e-20)
(1.02832 -0.0484392 -1.19197e-21)
(1.06742 -0.0564659 4.90841e-21)
(1.37318 0.866401 -5.10699e-20)
(1.3224 0.876193 -1.08902e-19)
(1.28789 0.88953 -6.32877e-19)
(1.2572 0.905771 1.49902e-19)
(1.22635 0.922611 8.62615e-19)
(1.19165 0.937216 7.69524e-20)
(1.14572 0.940778 -8.72907e-20)
(1.07025 0.916133 -1.90541e-19)
(0.905948 0.809118 -2.63664e-19)
(0.488872 0.452069 -2.89709e-20)
(1.53183 0.849353 -4.40065e-19)
(1.47579 0.852672 1.1627e-18)
(1.43045 0.860201 4.92399e-19)
(1.39304 0.872886 -6.19726e-19)
(1.35912 0.888163 2.01686e-19)
(1.32237 0.901942 1.67162e-19)
(1.2731 0.904731 5.29046e-19)
(1.19046 0.879955 -8.06469e-19)
(1.00723 0.773641 -5.60753e-20)
(0.539626 0.427485 1.10813e-19)
(1.67261 0.827255 1.18764e-19)
(1.61204 0.827089 8.98793e-19)
(1.55861 0.83033 1.56347e-20)
(1.51594 0.838956 -3.69722e-19)
(1.47982 0.850862 1.34141e-19)
(1.44179 0.861196 1.04298e-20)
(1.38991 0.860443 -5.01827e-20)
(1.3004 0.833361 -3.09804e-19)
(1.09725 0.725068 1.07999e-19)
(0.580814 0.392882 -1.96845e-19)
(1.79859 0.800535 -4.81279e-19)
(1.73092 0.798857 4.01117e-19)
(1.66872 0.799331 -6.0041e-19)
(1.61998 0.80416 -2.00193e-19)
(1.58054 0.811114 1.021e-18)
(1.54008 0.814692 -6.06635e-19)
(1.48538 0.80707 -6.74115e-19)
(1.38978 0.774754 3.20467e-19)
(1.16507 0.662193 -1.27948e-19)
(0.604705 0.348467 -4.38552e-20)
(1.92309 0.763591 5.86314e-19)
(1.84538 0.762187 4.51306e-19)
(1.77022 0.760614 -1.83689e-19)
(1.71011 0.76096 6.80773e-19)
(1.66204 0.760815 7.95584e-20)
(1.6151 0.755409 -2.85703e-19)
(1.55537 0.74015 3.16514e-19)
(1.44993 0.70121 -4.46162e-19)
(1.20106 0.582543 -5.27777e-19)
(0.606759 0.293969 -2.63478e-20)
(2.04172 0.712446 7.97835e-19)
(1.95479 0.710904 9.0259e-19)
(1.86468 0.706932 -8.22972e-19)
(1.78814 0.70149 -7.35972e-19)
(1.7262 0.693388 1.34475e-19)
(1.66856 0.679922 -4.86422e-19)
(1.59893 0.657409 -1.98956e-19)
(1.47697 0.609593 1.49608e-19)
(1.20235 0.487399 8.91042e-20)
(0.58665 0.233434 1.30369e-20)
(2.15067 0.63971 7.39138e-19)
(2.05456 0.637441 -8.97077e-19)
(1.94902 0.631374 -7.13183e-19)
(1.85347 0.621184 4.17951e-19)
(1.77412 0.606891 -3.74654e-19)
(1.70154 0.5873 9.94032e-19)
(1.61572 0.557888 -1.04539e-19)
(1.47186 0.502767 -8.25566e-19)
(1.17112 0.384068 3.65925e-19)
(0.547316 0.172732 4.32786e-20)
(2.23921 0.551206 -4.85708e-19)
(2.13425 0.547142 -6.19498e-19)
(2.01438 0.53872 -7.07808e-19)
(1.90037 0.52465 4.40026e-20)
(1.80215 0.505914 2.36324e-19)
(1.71165 0.481756 2.08505e-19)
(1.60595 0.447356 2.96057e-19)
(1.4375 0.389687 -1.04451e-19)
(1.11196 0.281545 3.11703e-20)
(0.492579 0.116968 6.15754e-20)
(2.29766 0.456858 2.31519e-19)
(2.18334 0.450317 -8.55841e-20)
(2.05007 0.438429 3.50306e-19)
(1.91952 0.420552 8.68768e-19)
(1.80392 0.398553 -2.44507e-19)
(1.69577 0.371649 -8.22281e-19)
(1.56973 0.335437 5.95186e-19)
(1.37621 0.279856 5.77437e-19)
(1.02817 0.186741 -3.13118e-19)
(0.425691 0.0694804 -3.73888e-20)
(2.32016 0.365939 -4.71298e-19)
(2.19232 0.354954 -4.60701e-21)
(2.04522 0.33824 5.10357e-19)
(1.90197 0.317115 4.33079e-19)
(1.77406 0.293439 2.72295e-19)
(1.65169 0.265948 -4.18055e-19)
(1.50655 0.230713 6.18016e-20)
(1.28799 0.180005 -2.62568e-19)
(0.920584 0.103937 -3.56801e-19)
(0.350089 0.0322993 2.13443e-21)
(0.388845 0.414377 -4.32617e-21)
(0.355343 0.420957 8.89221e-20)
(0.319662 0.426463 1.05627e-20)
(0.282271 0.431042 -7.57481e-20)
(0.243046 0.434622 -3.76326e-20)
(0.201524 0.435777 -8.26099e-20)
(0.157181 0.429763 3.78295e-20)
(0.109452 0.405784 -3.59209e-20)
(0.0589269 0.341785 9.07094e-20)
(0.0224863 0.18522 1.76114e-20)
(0.440524 0.501391 -4.76145e-20)
(0.406964 0.509329 -7.94102e-21)
(0.37109 0.516161 -1.09219e-19)
(0.333367 0.522206 1.26546e-20)
(0.293702 0.527564 2.36152e-20)
(0.251485 0.530803 3.56518e-20)
(0.20576 0.526623 1.70534e-19)
(0.155199 0.502478 -5.47226e-20)
(0.0975659 0.430727 6.29726e-20)
(0.0431736 0.238679 -1.5388e-20)
(0.505835 0.585045 2.29305e-20)
(0.472701 0.595066 1.33061e-19)
(0.437418 0.603885 8.7637e-20)
(0.400243 0.611845 1.25197e-19)
(0.360927 0.619177 3.68837e-20)
(0.318607 0.624552 1.75429e-19)
(0.271828 0.622305 -6.35392e-20)
(0.218247 0.59831 -7.54823e-20)
(0.151922 0.519293 1.07471e-22)
(0.0729859 0.291841 9.32848e-21)
(0.576659 0.660462 3.53105e-19)
(0.543178 0.671156 2.55979e-19)
(0.507783 0.680616 -3.22725e-19)
(0.470741 0.689715 -1.50019e-19)
(0.431966 0.698942 3.15474e-20)
(0.390477 0.706786 -7.88879e-20)
(0.344185 0.706778 -2.57887e-19)
(0.289303 0.683213 7.85364e-20)
(0.215276 0.598084 -5.51313e-20)
(0.109026 0.339211 -9.31249e-20)
(0.678961 0.728132 -1.18872e-19)
(0.646673 0.741378 -2.80635e-19)
(0.612089 0.753064 2.47715e-19)
(0.575183 0.763888 -8.81722e-20)
(0.535752 0.774509 -1.63726e-19)
(0.492834 0.783827 2.17987e-19)
(0.444059 0.785411 9.38715e-20)
(0.38435 0.762351 -1.22536e-19)
(0.297993 0.671872 -2.33161e-19)
(0.15509 0.383247 4.79595e-20)
(0.757136 0.788936 -2.16104e-20)
(0.724774 0.802774 -2.35531e-20)
(0.691715 0.814928 -3.97637e-20)
(0.65761 0.826933 7.26993e-20)
(0.622026 0.839499 2.10991e-19)
(0.583366 0.85092 -1.96216e-19)
(0.53809 0.853853 -1.26212e-19)
(0.4788 0.830494 -3.02107e-20)
(0.383731 0.734288 7.24926e-20)
(0.204111 0.419416 1.38045e-19)
(0.879107 0.831663 -2.5153e-19)
(0.847458 0.847283 1.20764e-19)
(0.814063 0.860354 3.43973e-19)
(0.778485 0.872578 -2.08994e-19)
(0.740886 0.885351 -4.19034e-19)
(0.700305 0.897634 1.88893e-19)
(0.653085 0.901846 5.37174e-19)
(0.590053 0.879137 1.5018e-19)
(0.482409 0.780097 -7.3653e-22)
(0.25941 0.445773 2.02296e-19)
(0.987864 0.867776 -4.38211e-19)
(0.9552 0.882697 -1.46116e-19)
(0.923783 0.895629 3.30377e-19)
(0.891956 0.90874 -1.17465e-19)
(0.858297 0.922816 8.48985e-20)
(0.820667 0.936013 3.65351e-19)
(0.774433 0.940357 -3.51725e-19)
(0.708434 0.9169 -3.21285e-19)
(0.586932 0.814207 2.35618e-19)
(0.317278 0.464223 -2.26338e-20)
(1.10132 0.888885 -1.59005e-20)
(1.07348 0.904757 4.77281e-20)
(1.04361 0.916585 -2.39678e-19)
(1.01192 0.928535 -7.22521e-20)
(0.978902 0.942343 4.43349e-19)
(0.942778 0.95591 1.1313e-19)
(0.897764 0.96036 -8.36795e-20)
(0.829689 0.936548 0)
(0.694852 0.831308 -1.70503e-19)
(0.376611 0.471964 -9.69595e-20)
(1.1962 0.888193 0)
(1.17037 0.905778 0)
(1.14924 0.919826 6.25645e-19)
(1.12464 0.932741 1.2362e-19)
(1.09611 0.946345 -1.72428e-19)
(1.0628 0.959017 3.29508e-19)
(1.01918 0.962009 -1.8394e-19)
(0.949096 0.937017 -5.58019e-19)
(0.801035 0.829739 3.0197e-19)
(0.434082 0.467651 1.66686e-19)
(0.945597 0.0202241 -1.21814e-20)
(1.04914 0.213808 -6.47806e-21)
(0.947881 0.270255 7.32325e-21)
(0.935211 0.237981 5.89839e-21)
(0.902915 0.20642 1.99584e-20)
(0.879859 0.201044 3.29178e-20)
(0.854969 0.204633 -1.5628e-20)
(0.800286 0.237058 -2.78191e-20)
(0.754583 0.277443 -9.29716e-20)
(0.54244 0.372408 1.05399e-19)
(0.945153 0.0173824 -1.11671e-21)
(1.04969 0.221044 7.49708e-21)
(0.946676 0.281052 8.87781e-23)
(0.934658 0.246669 1.42531e-20)
(0.901464 0.213225 1.56756e-20)
(0.880186 0.20775 -4.43064e-20)
(0.862743 0.214772 -1.45526e-20)
(0.815037 0.253575 2.40597e-23)
(0.779349 0.315938 2.40925e-19)
(0.58804 0.445024 -4.23655e-21)
(0.944634 0.0147523 3.3649e-21)
(1.0507 0.228861 1.3285e-20)
(0.945027 0.291931 -9.79414e-21)
(0.932619 0.255287 -1.84987e-21)
(0.897678 0.219599 -1.88358e-20)
(0.878472 0.213332 3.40478e-21)
(0.867514 0.222941 1.99377e-20)
(0.828288 0.268939 -1.97115e-20)
(0.803348 0.351915 1.14965e-19)
(0.643985 0.512727 -3.35215e-19)
(0.944051 0.0122964 1.67532e-21)
(1.05243 0.237332 -2.28996e-21)
(0.942868 0.303143 -1.17809e-20)
(0.928192 0.263934 -3.89423e-20)
(0.892078 0.225445 4.13972e-20)
(0.876142 0.217748 2.25409e-20)
(0.870016 0.229284 -2.46116e-20)
(0.839888 0.283175 9.4633e-20)
(0.827482 0.385038 -1.03206e-19)
(0.705094 0.579026 -3.2778e-19)
(0.943491 0.0099091 1.65982e-21)
(1.05532 0.246553 -8.51385e-21)
(0.939929 0.315156 5.44157e-21)
(0.921116 0.272526 6.22398e-20)
(0.887133 0.230535 1.46304e-20)
(0.874514 0.221036 4.81977e-20)
(0.871132 0.234313 3.08489e-20)
(0.849692 0.296642 6.9861e-20)
(0.849926 0.412861 -1.41733e-20)
(0.789584 0.632168 2.62073e-19)
(0.943102 0.0074369 2.81321e-21)
(1.0597 0.256668 3.43384e-22)
(0.935778 0.328329 -3.44056e-21)
(0.914761 0.280938 1.65855e-20)
(0.886399 0.234542 -4.38744e-20)
(0.874212 0.223734 6.8225e-21)
(0.871924 0.238684 -7.61648e-21)
(0.857836 0.309136 -2.03575e-19)
(0.876677 0.43696 0)
(0.858952 0.688153 -2.88559e-20)
(0.942974 0.00472717 -3.65789e-21)
(1.06524 0.267785 -2.73612e-21)
(0.93154 0.342266 1.59897e-21)
(0.915999 0.287982 -7.73288e-20)
(0.891013 0.237213 -1.6893e-20)
(0.875907 0.226537 -6.92135e-20)
(0.874534 0.242777 4.04018e-21)
(0.867209 0.321621 7.13921e-21)
(0.90023 0.454191 -4.02516e-21)
(0.955979 0.724274 8.9774e-19)
(0.942922 0.00168988 -3.56049e-20)
(1.07117 0.279357 -5.36232e-21)
(0.932086 0.356278 2.01364e-20)
(0.926584 0.291763 4.01748e-20)
(0.900733 0.239082 -8.47335e-20)
(0.882722 0.230163 1.60214e-20)
(0.884503 0.246664 -3.66731e-21)
(0.880815 0.334268 1.7778e-20)
(0.934359 0.468404 1.44381e-19)
(1.06379 0.768419 -1.01522e-19)
(0.941555 -0.00177361 1.22155e-20)
(1.07763 0.290245 -5.11656e-22)
(0.943139 0.368916 -8.25278e-21)
(0.944983 0.293563 1.02278e-19)
(0.920227 0.241212 7.78976e-21)
(0.905212 0.23471 2.3445e-20)
(0.912732 0.24966 -4.03851e-20)
(0.908519 0.343882 5.96882e-20)
(0.982046 0.468211 2.62361e-19)
(1.13382 0.784978 -6.38176e-19)
(0.935743 -0.00413735 2.05328e-20)
(1.08735 0.300565 2.02934e-20)
(0.965456 0.377435 1.17539e-21)
(0.97811 0.293656 -3.72399e-20)
(0.967329 0.242134 8.63906e-20)
(0.959102 0.238866 -2.9399e-20)
(0.968599 0.255775 -1.08849e-20)
(0.954197 0.363179 5.03998e-20)
(1.04587 0.49236 -7.98241e-20)
(1.28361 0.833626 4.0793e-19)
(0.919348 -0.0108935 -4.28689e-21)
(1.10697 0.306139 -1.53517e-20)
(1.01819 0.38549 -4.68538e-21)
(1.06123 0.295544 -5.79619e-20)
(1.07786 0.239679 -4.97554e-20)
(1.08444 0.240149 -3.92947e-20)
(1.09073 0.255398 7.10595e-21)
(1.0792 0.363594 -1.35562e-19)
(1.15635 0.433933 -4.22369e-19)
(1.30992 0.813269 -5.39971e-20)
(0.890751 -0.023672 -1.49253e-20)
(1.13152 0.289005 -2.34676e-20)
(1.11998 0.372939 9.77655e-22)
(1.2043 0.286779 -3.88805e-21)
(1.25587 0.227689 3.69865e-20)
(1.26037 0.239918 6.9521e-20)
(1.33264 0.243829 1.34918e-20)
(1.24046 0.36545 1.13774e-19)
(1.47942 0.403753 1.18679e-19)
(1.32913 0.722492 4.01797e-19)
(0.863355 -0.0332288 -4.0332e-21)
(1.14588 0.246587 -5.85199e-21)
(1.21809 0.33488 6.53822e-21)
(1.34003 0.263541 1.01482e-20)
(1.42303 0.212813 8.3532e-35)
(1.42016 0.220494 -5.52151e-21)
(1.57806 0.243002 -4.93461e-34)
(1.37855 0.336077 1.88739e-20)
(1.82439 0.378517 -5.6106e-20)
(1.4826 0.658171 -3.09673e-19)
(0.846962 -0.0391618 3.17741e-20)
(1.1449 0.182235 -5.04098e-35)
(1.28142 0.273967 -6.85471e-21)
(1.43499 0.227501 1.11081e-20)
(1.5421 0.192957 -1.37381e-20)
(1.53535 0.18982 -3.02366e-20)
(1.75537 0.239696 -5.99166e-34)
(1.51532 0.29621 -7.35038e-20)
(2.02947 0.347023 -1.27575e-19)
(1.75279 0.594978 3.32922e-19)
(0.844353 -0.0418569 0)
(1.13317 0.107905 -1.38724e-34)
(1.30439 0.197326 0)
(1.48623 0.181893 0)
(1.60198 0.170303 0)
(1.61509 0.150975 0)
(1.83001 0.226907 -4.18563e-34)
(1.65053 0.258475 0)
(2.09162 0.284861 -1.98586e-20)
(2.00802 0.520919 1.91713e-19)
(0.852622 -0.0431516 4.68546e-21)
(1.12208 0.0350518 1.34721e-20)
(1.29771 0.111968 -7.7399e-21)
(1.4948 0.129551 0)
(1.61279 0.142359 0)
(1.65795 0.113443 6.03292e-21)
(1.82227 0.206834 3.88035e-20)
(1.76968 0.220427 -1.43904e-20)
(2.08179 0.210128 -2.93894e-20)
(2.15604 0.443287 1.32357e-19)
(0.86755 -0.0444209 -5.29346e-20)
(1.11781 -0.0356213 -1.37123e-20)
(1.25893 0.0279526 -7.6118e-21)
(1.4509 0.0767308 -2.25218e-20)
(1.56526 0.105908 -1.15054e-20)
(1.64502 0.0805016 -6.88507e-21)
(1.7478 0.173701 -3.08438e-20)
(1.84134 0.178698 -2.39577e-20)
(2.01371 0.146879 -7.81175e-20)
(2.18606 0.36059 1.11405e-19)
(0.883599 -0.0486475 -8.81772e-21)
(1.1235 -0.0870486 -1.91545e-20)
(1.1589 -0.0380736 -8.28091e-21)
(1.31945 0.0323476 -7.14747e-21)
(1.40563 0.0637697 5.95113e-35)
(1.52177 0.0520945 7.07815e-21)
(1.55046 0.12342 -8.52018e-34)
(1.80228 0.124315 -1.53747e-20)
(1.81915 0.0996262 1.88018e-20)
(2.10277 0.26787 2.4198e-20)
(0.899861 -0.0647442 1.34036e-19)
(1.07869 -0.111163 -8.48895e-21)
(0.926939 -0.0719811 -9.70324e-21)
(1.01694 0.00132432 1.08998e-20)
(1.06164 0.0238292 4.31926e-21)
(1.16274 0.0271117 1.13251e-20)
(1.1829 0.0643526 8.53399e-21)
(1.48677 0.0596415 -1.76408e-20)
(1.40249 0.0608562 -1.37985e-20)
(1.80598 0.14399 1.01166e-19)
(0.84936 -0.0444303 9.11979e-21)
(0.796142 -0.0649296 -8.23617e-35)
(0.44058 -0.0332388 -1.00497e-20)
(0.4699 0.00126327 0)
(0.475519 0.00533635 0)
(0.528585 0.00913311 7.30723e-21)
(0.575788 0.0159122 -9.5476e-36)
(0.748033 0.017991 -1.5676e-20)
(0.726667 0.0203487 -2.61507e-20)
(1.02957 0.0422736 -3.75927e-20)
(1.55483 0.837047 1.54415e-19)
(1.66935 0.830102 -8.75692e-20)
(1.7994 0.812591 -3.07167e-21)
(1.92944 0.786505 6.83094e-20)
(2.06365 0.745596 -2.70853e-19)
(2.1864 0.692903 -5.02859e-19)