/*--------------------------------*- C++ -*----------------------------------*\
| =========                 |                                                 |
| \\      /  F ield         | OpenFOAM: The Open Source CFD Toolbox           |
|  \\    /   O peration     | Version:  2406                                  |
|   \\  /    A nd           | Website:  www.openfoam.com                      |
|    \\/     M anipulation  |                                                 |
\*---------------------------------------------------------------------------*/
FoamFile
{
    version     2.0;
    format      ascii;
    arch        "LSB;label=32;scalar=64";
    class       volVectorField;
    location    "1.55";
    object      flux;
}
// * * * * * * * * * * * * * * * * * * * * * * * * * * * * * * * * * * * * * //

dimensions      [0 1 -1 1 0 0 0];

internalField   nonuniform List<vector> 
2500
(
(0.000626445 0.000626445 0)
(0.00187727 0.000631387 0)
(0.00312575 0.000641436 0)
(0.00437167 0.000656501 0)
(0.00561219 0.000676619 0)
(0.00684559 0.000701827 0)
(0.00806999 0.000732166 0)
(0.00928333 0.000767682 0)
(0.0104833 0.000808422 0)
(0.0116675 0.000854436 0)
(0.0128331 0.000905772 0)
(0.0139771 0.000962474 0)
(0.0150961 0.00102458 0)
(0.0161865 0.00109212 0)
(0.0172445 0.00116512 0)
(0.0182657 0.00124357 0)
(0.0192456 0.00132745 0)
(0.0201794 0.00141673 0)
(0.0210621 0.00151134 0)
(0.0218882 0.00161118 0)
(0.0226522 0.00171611 0)
(0.0233483 0.00182598 0)
(0.0239708 0.00194055 0)
(0.0245137 0.00205958 0)
(0.0249712 0.00218276 0)
(0.0253372 0.00230973 0)
(0.0256063 0.00244008 0)
(0.0257729 0.00257335 0)
(0.0258319 0.00270901 0)
(0.0257786 0.00284648 0)
(0.0256088 0.00298515 0)
(0.0253189 0.00312431 0)
(0.0249061 0.00326325 0)
(0.0243681 0.00340119 0)
(0.0237039 0.00353731 0)
(0.0229132 0.00367076 0)
(0.0219967 0.00380067 0)
(0.0209562 0.00392615 0)
(0.0197949 0.00404632 0)
(0.0185167 0.00416028 0)
(0.017127 0.00426716 0)
(0.0156322 0.00436612 0)
(0.0140398 0.00445636 0)
(0.0123585 0.00453714 0)
(0.0105978 0.00460776 0)
(0.00876816 0.00466765 0)
(0.00688091 0.0047163 0)
(0.00494789 0.00475328 0)
(0.00298162 0.0047781 0)
(0.000995893 0.00478947 0)
(0.000631387 0.00187727 0)
(0.00189226 0.00189226 0)
(0.00315087 0.00192237 0)
(0.00440685 0.00196756 0)
(0.00565751 0.00202793 0)
(0.00690113 0.00210357 0)
(0.00813584 0.00219462 0)
(0.00935958 0.0023012 0)
(0.0105701 0.00242348 0)
(0.0117649 0.00256158 0)
(0.0129411 0.00271567 0)
(0.0140959 0.00288587 0)
(0.0152257 0.00307231 0)
(0.0163271 0.00327508 0)
(0.0173959 0.00349423 0)
(0.018428 0.00372977 0)
(0.0194188 0.00398165 0)
(0.0203633 0.00424975 0)
(0.0212565 0.00453388 0)
(0.0220929 0.00483373 0)
(0.022867 0.00514893 0)
(0.0235728 0.00547895 0)
(0.0242044 0.00582315 0)
(0.0247559 0.00618078 0)
(0.0252213 0.00655091 0)
(0.0255946 0.00693246 0)
(0.0258699 0.00732421 0)
(0.0260419 0.00772476 0)
(0.0261051 0.00813255 0)
(0.0260548 0.00854584 0)
(0.0258867 0.00896274 0)
(0.025597 0.00938119 0)
(0.0251829 0.00979901 0)
(0.0246422 0.0102138 0)
(0.0239735 0.0106233 0)
(0.0231765 0.0110247 0)
(0.0222521 0.0114155 0)
(0.0212019 0.011793 0)
(0.020029 0.0121546 0)
(0.0187375 0.0124975 0)
(0.0173328 0.0128191 0)
(0.0158214 0.013117 0)
(0.0142108 0.0133885 0)
(0.0125099 0.0136317 0)
(0.0107283 0.0138442 0)
(0.0088767 0.0140245 0)
(0.00696654 0.0141709 0)
(0.00500969 0.0142823 0)
(0.0030178 0.0143576 0)
(0.00100726 0.0143941 0)
(0.000641436 0.00312575 0)
(0.00192237 0.00315087 0)
(0.00320106 0.00320106 0)
(0.00447722 0.00327644 0)
(0.0057482 0.00337715 0)
(0.00701228 0.00350338 0)
(0.00826762 0.00365531 0)
(0.00951219 0.00383319 0)
(0.0107437 0.00403725 0)
(0.0119597 0.00426777 0)
(0.0131574 0.00452498 0)
(0.0143337 0.00480912 0)
(0.0154853 0.0051204 0)
(0.0166084 0.00545898 0)
(0.0176992 0.00582495 0)
(0.0187531 0.00621835 0)
(0.0197656 0.00663909 0)
(0.0207317 0.00708699 0)
(0.0216461 0.00756173 0)
(0.0225032 0.00806284 0)
(0.0232974 0.00858965 0)
(0.0240226 0.00914134 0)
(0.0246727 0.00971685 0)
(0.0252415 0.0103149 0)
(0.0257228 0.010934 0)
(0.0261106 0.0115722 0)
(0.0263986 0.0122277 0)
(0.0265813 0.012898 0)
(0.026653 0.0135806 0)
(0.0266088 0.0142725 0)
(0.0264442 0.0149706 0)
(0.0261552 0.0156714 0)
(0.0257387 0.0163713 0)
(0.0251924 0.0170663 0)
(0.0245148 0.0177524 0)
(0.0237054 0.0184252 0)
(0.022765 0.0190803 0)
(0.0216953 0.0197133 0)
(0.0204993 0.0203196 0)
(0.0191812 0.0208947 0)
(0.0177465 0.0214342 0)
(0.0162016 0.0219338 0)
(0.0145545 0.0223895 0)
(0.0128142 0.0227974 0)
(0.0109906 0.0231541 0)
(0.00909482 0.0234566 0)
(0.0071387 0.0237021 0)
(0.00513462 0.0238887 0)
(0.00309341 0.0240148 0)
(0.00103233 0.0240777 0)
(0.000656501 0.00437167 0)
(0.00196756 0.00440685 0)
(0.00327644 0.00447722 0)
(0.00458295 0.00458295 0)
(0.00588445 0.00472422 0)
(0.00717929 0.00490129 0)
(0.00846565 0.00511444 0)
(0.00974153 0.00536401 0)
(0.0110047 0.00565035 0)
(0.0122526 0.00597384 0)
(0.0134825 0.00633484 0)
(0.0146913 0.00673369 0)
(0.0158756 0.0071707 0)
(0.0170316 0.00764611 0)
(0.0181553 0.00816008 0)
(0.0192421 0.00871266 0)
(0.0202874 0.00930376 0)
(0.021286 0.00993316 0)
(0.0222324 0.0106004 0)
(0.0231209 0.0113049 0)
(0.0239455 0.0120457 0)
(0.0247 0.0128216 0)
(0.025378 0.0136313 0)
(0.0259731 0.0144728 0)
(0.0264787 0.0153442 0)
(0.0268883 0.0162429 0)
(0.0271957 0.0171661 0)
(0.0273947 0.0181104 0)
(0.0274795 0.0190722 0)
(0.0274448 0.0200475 0)
(0.0272856 0.0210318 0)
(0.0269978 0.0220202 0)
(0.0265779 0.0230076 0)
(0.0260233 0.0239884 0)
(0.0253323 0.0249568 0)
(0.0245045 0.0259067 0)
(0.0235402 0.026832 0)
(0.0224412 0.0277262 0)
(0.0212104 0.0285829 0)
(0.0198522 0.0293957 0)
(0.018372 0.0301583 0)
(0.0167767 0.0308647 0)
(0.0150744 0.0315091 0)
(0.0132745 0.032086 0)
(0.0113874 0.0325906 0)
(0.00942465 0.0330183 0)
(0.00739865 0.0333654 0)
(0.00532236 0.0336288 0)
(0.00320688 0.033806 0)
(0.00107024 0.033895 0)
(0.000676619 0.00561219 0)
(0.00202793 0.00565751 0)
(0.00337715 0.0057482 0)
(0.00472422 0.00588445 0)
(0.00606653 0.00606653 0)
(0.00740249 0.00629477 0)
(0.00873034 0.00656954 0)
(0.0100481 0.00689131 0)
(0.0113535 0.00726053 0)
(0.0126442 0.00767772 0)
(0.0139172 0.00814335 0)
(0.0151696 0.00865791 0)
(0.0163977 0.00922181 0)
(0.0175978 0.00983539 0)
(0.0187657 0.0104989 0)
(0.0198968 0.0112124 0)
(0.0209861 0.0119759 0)
(0.0220283 0.012789 0)
(0.0230178 0.0136513 0)
(0.0239485 0.014562 0)
(0.0248141 0.0155199 0)
(0.0256082 0.0165236 0)
(0.0263239 0.0175713 0)
(0.0269545 0.0186607 0)
(0.0274929 0.019789 0)
(0.0279324 0.0209532 0)
(0.0282661 0.0221494 0)
(0.0284874 0.0233736 0)
(0.0285901 0.0246209 0)
(0.0285684 0.0258862 0)
(0.0284169 0.0271636 0)
(0.028131 0.0284469 0)
(0.0277069 0.0297293 0)
(0.0271416 0.0310036 0)
(0.0264331 0.0322623 0)
(0.0255806 0.0334975 0)
(0.0245844 0.034701 0)
(0.0234462 0.0358644 0)
(0.0221688 0.0369795 0)
(0.0207567 0.0380377 0)
(0.0192155 0.0390309 0)
(0.0175524 0.0399511 0)
(0.0157758 0.0407907 0)
(0.0138956 0.0415426 0)
(0.0119228 0.0422002 0)
(0.00986966 0.0427577 0)
(0.00774923 0.0432102 0)
(0.00557526 0.0435533 0)
(0.00335962 0.043784 0)
(0.00112131 0.0438999 0)
(0.000701827 0.00684559 0)
(0.00210357 0.00690113 0)
(0.00350338 0.00701228 0)
(0.00490129 0.00717929 0)
(0.00629477 0.00740249 0)
(0.0076823 0.0076823 0)
(0.00906219 0.00801921 0)
(0.0104325 0.0084138 0)
(0.0117911 0.00886666 0)
(0.0131354 0.00937844 0)
(0.0144627 0.00994977 0)
(0.0157698 0.0105813 0)
(0.0170531 0.0112735 0)
(0.0183087 0.0120269 0)
(0.0195323 0.0128419 0)
(0.0207191 0.0137186 0)
(0.021864 0.0146569 0)
(0.0229614 0.0156567 0)
(0.0240053 0.0167173 0)
(0.0249894 0.0178378 0)
(0.0259071 0.0190168 0)
(0.0267514 0.0202528 0)
(0.027515 0.0215435 0)
(0.0281908 0.022886 0)
(0.0287712 0.0242773 0)
(0.0292487 0.0257133 0)
(0.0296161 0.0271897 0)
(0.0298662 0.0287011 0)
(0.0299921 0.030242 0)
(0.0299874 0.0318057 0)
(0.0298463 0.0333852 0)
(0.0295635 0.0349728 0)
(0.0291346 0.03656 0)
(0.0285563 0.038138 0)
(0.0278262 0.0396973 0)
(0.0269431 0.0412282 0)
(0.0259071 0.0427204 0)
(0.0247196 0.0441637 0)
(0.0233837 0.0455474 0)
(0.0219036 0.0468612 0)
(0.0202854 0.0480947 0)
(0.0185365 0.0492379 0)
(0.0166659 0.0502813 0)
(0.014684 0.0512159 0)
(0.0126025 0.0520335 0)
(0.0104346 0.0527267 0)
(0.00819424 0.0532893 0)
(0.00589621 0.0537161 0)
(0.00355343 0.0540029 0)
(0.00118611 0.0541469 0)
(0.000732166 0.00806999 0)
(0.00219462 0.00813584 0)
(0.00365531 0.00826762 0)
(0.00511444 0.00846565 0)
(0.00656954 0.00873034 0)
(0.00801921 0.00906219 0)
(0.00946183 0.00946183 0)
(0.0108955 0.00992996 0)
(0.0123182 0.0104673 0)
(0.0137273 0.0110748 0)
(0.0151201 0.0117531 0)
(0.0164933 0.012503 0)
(0.0178434 0.0133253 0)
(0.0191662 0.0142205 0)
(0.0204573 0.0151893 0)
(0.0217118 0.0162317 0)
(0.0229242 0.017348 0)
(0.0240886 0.0185378 0)
(0.0251988 0.0198005 0)
(0.026248 0.0211351 0)
(0.0272292 0.0225403 0)
(0.0281348 0.0240139 0)
(0.0289571 0.0255535 0)
(0.0296883 0.0271559 0)
(0.0303202 0.0288172 0)
(0.0308448 0.030533 0)
(0.0312539 0.032298 0)
(0.0315397 0.0341059 0)
(0.0316947 0.0359501 0)
(0.0317116 0.0378227 0)
(0.0315839 0.0397154 0)
(0.0313058 0.0416187 0)
(0.0308721 0.0435228 0)
(0.0302789 0.0454169 0)
(0.0295233 0.0472897 0)
(0.0286037 0.0491292 0)
(0.0275199 0.0509234 0)
(0.0262732 0.0526595 0)
(0.0248664 0.0543248 0)
(0.023304 0.0559067 0)
(0.0215922 0.0573926 0)
(0.019739 0.0587703 0)
(0.0177538 0.0600281 0)
(0.0156478 0.0611552 0)
(0.0134337 0.0621414 0)
(0.0111255 0.0629778 0)
(0.00873855 0.0636567 0)
(0.00628879 0.0641717 0)
(0.00379048 0.0645179 0)
(0.00126537 0.0646917 0)
(0.000767682 0.00928333 0)
(0.0023012 0.00935958 0)
(0.00383319 0.00951219 0)
(0.00536401 0.00974153 0)
(0.00689131 0.0100481 0)
(0.0084138 0.0104325 0)
(0.00992996 0.0108955 0)
(0.011438 0.011438 0)
(0.0129359 0.0120609 0)
(0.0144211 0.0127652 0)
(0.0158909 0.0135518 0)
(0.017342 0.0144218 0)
(0.0187706 0.0153761 0)
(0.0201727 0.0164155 0)
(0.0215435 0.0175406 0)
(0.0228779 0.0187519 0)
(0.0241701 0.0200495 0)
(0.0254139 0.0214332 0)
(0.0266027 0.0229025 0)
(0.0277292 0.0244564 0)
(0.0287859 0.0260932 0)
(0.0297646 0.0278108 0)
(0.030657 0.0296063 0)
(0.0314545 0.0314762 0)
(0.0321483 0.0334162 0)
(0.0327294 0.035421 0)
(0.033189 0.0374846 0)
(0.0335183 0.0395999 0)
(0.0337089 0.041759 0)
(0.0337527 0.0439529 0)
(0.0336423 0.0461718 0)
(0.0333709 0.0484048 0)
(0.0329328 0.0506401 0)
(0.0323232 0.0528652 0)
(0.0315386 0.0550667 0)
(0.0305768 0.0572306 0)
(0.0294373 0.0593424 0)
(0.0281211 0.0613871 0)
(0.0266309 0.0633496 0)
(0.0249714 0.0652148 0)
(0.023149 0.0669678 0)
(0.021172 0.0685938 0)
(0.0190508 0.070079 0)
(0.0167972 0.0714104 0)
(0.0144252 0.0725758 0)
(0.0119499 0.0735644 0)
(0.00938813 0.0743671 0)
(0.00675733 0.074976 0)
(0.00407342 0.0753854 0)
(0.00135997 0.075591 0)
(0.000808422 0.0104833 0)
(0.00242348 0.0105701 0)
(0.00403725 0.0107437 0)
(0.00565035 0.0110047 0)
(0.00726053 0.0113535 0)
(0.00886666 0.0117911 0)
(0.0104673 0.0123182 0)
(0.0120609 0.0129359 0)
(0.0136453 0.0136453 0)
(0.0152182 0.0144477 0)
(0.0167767 0.0153442 0)
(0.0183176 0.0163361 0)
(0.019837 0.0174245 0)
(0.0213307 0.0186105 0)
(0.0227937 0.0198949 0)
(0.0242207 0.0212783 0)
(0.0256056 0.0227611 0)
(0.0269417 0.0243433 0)
(0.028222 0.0260242 0)
(0.0294387 0.0278029 0)
(0.0305836 0.0296778 0)
(0.0316479 0.0316465 0)
(0.0326226 0.0337059 0)
(0.0334982 0.0358522 0)
(0.034265 0.0380804 0)
(0.0349131 0.0403848 0)
(0.0354328 0.0427586 0)
(0.0358141 0.0451937 0)
(0.0360477 0.0476812 0)
(0.0361244 0.0502108 0)
(0.0360358 0.0527712 0)
(0.0357741 0.0553498 0)
(0.0353325 0.0579332 0)
(0.0347055 0.0605068 0)
(0.0338888 0.0630551 0)
(0.0328794 0.0655616 0)
(0.0316764 0.0680096 0)
(0.0302804 0.0703816 0)
(0.0286941 0.0726597 0)
(0.0269221 0.0748262 0)
(0.0249712 0.0768635 0)
(0.0228503 0.0787545 0)
(0.0205704 0.0804826 0)
(0.0181445 0.0820323 0)
(0.0155877 0.0833894 0)
(0.0129168 0.0845411 0)
(0.0101501 0.0854763 0)
(0.00730707 0.086186 0)
(0.00440543 0.0866632 0)
(0.00147098 0.0869029 0)
(0.000854436 0.0116675 0)
(0.00256158 0.0117649 0)
(0.00426777 0.0119597 0)
(0.00597384 0.0122526 0)
(0.00767772 0.0126442 0)
(0.00937844 0.0131354 0)
(0.0110748 0.0137273 0)
(0.0127652 0.0144211 0)
(0.0144477 0.0152182 0)
(0.01612 0.01612 0)
(0.0177793 0.017128 0)
(0.0194223 0.0182437 0)
(0.021045 0.0194685 0)
(0.0226431 0.0208037 0)
(0.0242113 0.0222505 0)
(0.0257441 0.0238098 0)
(0.027235 0.025482 0)
(0.028677 0.0272673 0)
(0.0300623 0.0291653 0)
(0.0313828 0.0311751 0)
(0.0326294 0.0332951 0)
(0.0337927 0.0355228 0)
(0.0348627 0.037855 0)
(0.0358291 0.0402874 0)
(0.036681 0.0428149 0)
(0.0374076 0.0454309 0)
(0.0379979 0.0481278 0)
(0.0384409 0.050897 0)
(0.038726 0.0537281 0)
(0.0388427 0.0566097 0)
(0.0387813 0.059529 0)
(0.038533 0.0624718 0)
(0.0380898 0.0654226 0)
(0.037445 0.0683647 0)
(0.0365934 0.0712805 0)
(0.0355314 0.074151 0)
(0.0342572 0.0769568 0)
(0.0327712 0.0796775 0)
(0.0310756 0.0822927 0)
(0.0291752 0.0847816 0)
(0.0270772 0.0871237 0)
(0.024791 0.0892989 0)
(0.0223286 0.0912879 0)
(0.0197041 0.0930726 0)
(0.016934 0.0946362 0)
(0.0140369 0.0959636 0)
(0.0110331 0.097042 0)
(0.00794419 0.0978605 0)
(0.00479026 0.0984109 0)
(0.00159966 0.0986874 0)
(0.000905772 0.0128331 0)
(0.00271567 0.0129411 0)
(0.00452498 0.0131574 0)
(0.00633484 0.0134825 0)
(0.00814335 0.0139172 0)
(0.00994977 0.0144627 0)
(0.0117531 0.0151201 0)
(0.0135518 0.0158909 0)
(0.0153442 0.0167767 0)
(0.017128 0.0177793 0)
(0.0189004 0.0189004 0)
(0.0206581 0.0201419 0)
(0.0223971 0.0215054 0)
(0.0241127 0.0229927 0)
(0.0257998 0.0246052 0)
(0.0274521 0.026344 0)
(0.0290631 0.02821 0)
(0.0306251 0.0302036 0)
(0.0321299 0.0323247 0)
(0.0335685 0.0345724 0)
(0.0349312 0.0369451 0)
(0.0362078 0.0394404 0)
(0.0373872 0.0420551 0)
(0.038458 0.0447845 0)
(0.0394084 0.047623 0)
(0.0402261 0.0505638 0)
(0.0408989 0.0535985 0)
(0.0414144 0.0567175 0)
(0.0417604 0.0599093 0)
(0.0419253 0.0631614 0)
(0.0418978 0.0664592 0)
(0.0416677 0.0697869 0)
(0.0412255 0.073127 0)
(0.0405634 0.0764607 0)
(0.039675 0.0797677 0)
(0.0385557 0.0830265 0)
(0.0372029 0.0862148 0)
(0.0356164 0.0893093 0)
(0.0337982 0.0922863 0)
(0.0317531 0.0951219 0)
(0.0294885 0.0977923 0)
(0.0270145 0.100274 0)
(0.0243441 0.102545 0)
(0.0214928 0.104584 0)
(0.0184788 0.106371 0)
(0.0153226 0.10789 0)
(0.012047 0.109123 0)
(0.00867595 0.11006 0)
(0.00523232 0.11069 0)
(0.00174749 0.111006 0)
(0.000962474 0.0139771 0)
(0.00288587 0.0140959 0)
(0.00480912 0.0143337 0)
(0.00673369 0.0146913 0)
(0.00865791 0.0151696 0)
(0.0105813 0.0157698 0)
(0.012503 0.0164933 0)
(0.0144218 0.017342 0)
(0.0163361 0.0183176 0)
(0.0182437 0.0194223 0)
(0.0201419 0.0206581 0)
(0.0220273 0.0220273 0)
(0.0238958 0.0235319 0)
(0.0257428 0.025174 0)
(0.0275626 0.0269555 0)
(0.029349 0.0288779 0)
(0.0310947 0.0309424 0)
(0.0327916 0.0331497 0)
(0.0344311 0.0354999 0)
(0.0360032 0.0379926 0)
(0.0374975 0.0406262 0)
(0.0389027 0.0433985 0)
(0.0402068 0.0463059 0)
(0.041397 0.049344 0)
(0.0424603 0.0525068 0)
(0.0433831 0.0557868 0)
(0.0441516 0.0591752 0)
(0.0447517 0.0626613 0)
(0.0451699 0.0662329 0)
(0.0453925 0.0698758 0)
(0.0454068 0.0735741 0)
(0.0452008 0.07731 0)
(0.0447636 0.0810641 0)
(0.0440856 0.0848151 0)
(0.0431592 0.0885401 0)
(0.0419785 0.0922149 0)
(0.04054 0.0958138 0)
(0.0388426 0.0993105 0)
(0.0368882 0.102678 0)
(0.0346813 0.105888 0)
(0.0322296 0.108914 0)
(0.029544 0.111728 0)
(0.0266385 0.114306 0)
(0.0235303 0.116621 0)
(0.0202394 0.118652 0)
(0.0167887 0.120378 0)
(0.0132034 0.121781 0)
(0.00951084 0.122847 0)
(0.00573678 0.123564 0)
(0.0019162 0.123924 0)
(0.00102458 0.0150961 0)
(0.00307231 0.0152257 0)
(0.0051204 0.0154853 0)
(0.0071707 0.0158756 0)
(0.00922181 0.0163977 0)
(0.0112735 0.0170531 0)
(0.0133253 0.0178434 0)
(0.0153761 0.0187706 0)
(0.0174245 0.019837 0)
(0.0194685 0.021045 0)
(0.0215054 0.0223971 0)
(0.0235319 0.0238958 0)
(0.0255438 0.0255438 0)
(0.0275363 0.0273436 0)
(0.0295036 0.0292974 0)
(0.031439 0.0314073 0)
(0.0333349 0.0336749 0)
(0.0351826 0.0361014 0)
(0.0369728 0.0386873 0)
(0.0386947 0.0414324 0)
(0.0403371 0.0443354 0)
(0.0418876 0.0473944 0)
(0.0433328 0.0506058 0)
(0.0446589 0.0539651 0)
(0.0458512 0.057466 0)
(0.0468945 0.0611009 0)
(0.0477734 0.0648602 0)
(0.0484721 0.0687325 0)
(0.0489749 0.0727045 0)
(0.0492665 0.0767607 0)
(0.0493321 0.0808837 0)
(0.0491577 0.0850539 0)
(0.0487306 0.0892494 0)
(0.0480394 0.0934466 0)
(0.0470748 0.0976198 0)
(0.0458294 0.101742 0)
(0.0442985 0.105783 0)
(0.0424802 0.109714 0)
(0.0403756 0.113504 0)
(0.0379892 0.117121 0)
(0.035329 0.120533 0)
(0.0324065 0.12371 0)
(0.029237 0.126622 0)
(0.0258393 0.12924 0)
(0.0222357 0.131538 0)
(0.0184518 0.133491 0)
(0.0145159 0.135081 0)
(0.0104587 0.136288 0)
(0.00630959 0.1371 0)
(0.0021078 0.137509 0)
(0.00109212 0.0161865 0)
(0.00327508 0.0163271 0)
(0.00545898 0.0166084 0)
(0.00764611 0.0170316 0)
(0.00983539 0.0175978 0)
(0.0120269 0.0183087 0)
(0.0142205 0.0191662 0)
(0.0164155 0.0201727 0)
(0.0186105 0.0213307 0)
(0.0208037 0.0226431 0)
(0.0229927 0.0241127 0)
(0.025174 0.0257428 0)
(0.0273436 0.0275363 0)
(0.0294964 0.0294964 0)
(0.0316263 0.0316258 0)
(0.0337265 0.0339271 0)
(0.0357888 0.0364025 0)
(0.037804 0.0390537 0)
(0.039762 0.0418817 0)
(0.0416513 0.0448868 0)
(0.0434595 0.0480681 0)
(0.0451731 0.0514239 0)
(0.0467775 0.0549508 0)
(0.0482573 0.0586445 0)
(0.0495962 0.0624985 0)
(0.0507773 0.0665049 0)
(0.0517832 0.0706537 0)
(0.052596 0.0749327 0)
(0.0531981 0.0793276 0)
(0.0535718 0.0838217 0)
(0.0537 0.088396 0)
(0.0535665 0.0930289 0)
(0.0531563 0.0976963 0)
(0.052456 0.102372 0)
(0.0514542 0.107027 0)
(0.0501418 0.111631 0)
(0.0485126 0.116151 0)
(0.0465634 0.120553 0)
(0.0442946 0.124801 0)
(0.0417105 0.128861 0)
(0.0388191 0.132695 0)
(0.0356328 0.136269 0)
(0.0321682 0.139547 0)
(0.028446 0.142497 0)
(0.0244909 0.145088 0)
(0.0203316 0.147293 0)
(0.0160001 0.149087 0)
(0.0115308 0.150451 0)
(0.0069577 0.151369 0)
(0.0023246 0.15183 0)
(0.00116512 0.0172445 0)
(0.00349423 0.0173959 0)
(0.00582495 0.0176992 0)
(0.00816008 0.0181553 0)
(0.0104989 0.0187657 0)
(0.0128419 0.0195323 0)
(0.0151893 0.0204573 0)
(0.0175406 0.0215435 0)
(0.0198949 0.0227937 0)
(0.0222505 0.0242113 0)
(0.0246052 0.0257998 0)
(0.0269555 0.0275626 0)
(0.0292974 0.0295036 0)
(0.0316258 0.0316263 0)
(0.0339343 0.0339343 0)
(0.0362157 0.0364307 0)
(0.0384615 0.0391185 0)
(0.0406619 0.0419998 0)
(0.0428058 0.0450765 0)
(0.0448811 0.0483492 0)
(0.0468742 0.0518177 0)
(0.0487703 0.0554806 0)
(0.0505534 0.0593352 0)
(0.0522065 0.0633769 0)
(0.0537116 0.0675996 0)
(0.0550497 0.0719951 0)
(0.0562011 0.0765531 0)
(0.057146 0.0812608 0)
(0.057864 0.0861029 0)
(0.058335 0.0910616 0)
(0.0585393 0.0961161 0)
(0.058458 0.101243 0)
(0.0580736 0.106416 0)
(0.0573701 0.111605 0)
(0.0563337 0.11678 0)
(0.0549532 0.121904 0)
(0.0532204 0.126943 0)
(0.0511309 0.131857 0)
(0.0486839 0.136606 0)
(0.0458832 0.14115 0)
(0.042737 0.145447 0)
(0.0392583 0.149456 0)
(0.0354651 0.153137 0)
(0.0313803 0.156453 0)
(0.0270315 0.159368 0)
(0.0224507 0.16185 0)
(0.017674 0.163871 0)
(0.0127405 0.165408 0)
(0.00768911 0.166443 0)
(0.00256931 0.166964 0)
(0.00124357 0.0182657 0)
(0.00372977 0.018428 0)
(0.00621835 0.0187531 0)
(0.00871266 0.0192421 0)
(0.0112124 0.0198968 0)
(0.0137186 0.0207191 0)
(0.0162317 0.0217118 0)
(0.0187519 0.0228779 0)
(0.0212783 0.0242207 0)
(0.0238098 0.0257441 0)
(0.026344 0.0274521 0)
(0.0288779 0.029349 0)
(0.0314073 0.031439 0)
(0.0339271 0.0337265 0)
(0.0364307 0.0362157 0)
(0.0389107 0.0389107 0)
(0.0413579 0.0418149 0)
(0.043762 0.0449316 0)
(0.0461113 0.0482631 0)
(0.0483925 0.051811 0)
(0.050591 0.0555756 0)
(0.0526905 0.0595562 0)
(0.0546737 0.0637505 0)
(0.0565217 0.0681544 0)
(0.0582144 0.072762 0)
(0.0597308 0.077565 0)
(0.0610488 0.082553 0)
(0.0621458 0.0877127 0)
(0.0629989 0.0930279 0)
(0.063585 0.0984798 0)
(0.0638814 0.104046 0)
(0.0638661 0.109701 0)
(0.0635186 0.115416 0)
(0.06282 0.121158 0)
(0.0617534 0.126893 0)
(0.0603053 0.132583 0)
(0.0584651 0.138185 0)
(0.0562265 0.143657 0)
(0.0535874 0.148954 0)
(0.0505508 0.154028 0)
(0.0471248 0.158833 0)
(0.0433233 0.163322 0)
(0.0391655 0.167448 0)
(0.0346769 0.171169 0)
(0.029888 0.174443 0)
(0.0248349 0.177233 0)
(0.0195583 0.179507 0)
(0.0141029 0.181237 0)
(0.00851311 0.182402 0)
(0.00284503 0.182988 0)
(0.00132745 0.0192456 0)
(0.00398165 0.0194188 0)
(0.00663909 0.0197656 0)
(0.00930376 0.0202874 0)
(0.0119759 0.0209861 0)
(0.0146569 0.021864 0)
(0.017348 0.0229242 0)
(0.0200495 0.0241701 0)
(0.0227611 0.0256056 0)
(0.025482 0.027235 0)
(0.02821 0.0290631 0)
(0.0309424 0.0310947 0)
(0.0336749 0.0333349 0)
(0.0364025 0.0357888 0)
(0.0391185 0.0384615 0)
(0.0418149 0.0413579 0)
(0.0444825 0.0444825 0)
(0.0471101 0.0478392 0)
(0.0496852 0.0514315 0)
(0.0521936 0.0552617 0)
(0.0546194 0.0593311 0)
(0.0569452 0.0636398 0)
(0.0591516 0.068186 0)
(0.061218 0.0729664 0)
(0.0631222 0.0779754 0)
(0.0648407 0.083205 0)
(0.0663487 0.0886447 0)
(0.0676209 0.0942808 0)
(0.0686311 0.100097 0)
(0.0693529 0.106072 0)
(0.0697603 0.112184 0)
(0.0698278 0.118404 0)
(0.0695311 0.124701 0)
(0.0688479 0.131039 0)
(0.0677581 0.137381 0)
(0.0662448 0.143683 0)
(0.0642948 0.149899 0)
(0.0618993 0.155981 0)
(0.0590546 0.161877 0)
(0.0557624 0.167535 0)
(0.0520307 0.1729 0)
(0.0478739 0.17792 0)
(0.0433129 0.18254 0)
(0.0383753 0.186711 0)
(0.0330956 0.190385 0)
(0.0275142 0.193518 0)
(0.0216773 0.196073 0)
(0.0156356 0.198018 0)
(0.00944043 0.199329 0)
(0.00315538 0.199989 0)
(0.00141673 0.0201794 0)
(0.00424975 0.0203633 0)
(0.00708699 0.0207317 0)
(0.00993316 0.021286 0)
(0.012789 0.0220283 0)
(0.0156567 0.0229614 0)
(0.0185378 0.0240886 0)
(0.0214332 0.0254139 0)
(0.0243433 0.0269417 0)
(0.0272673 0.028677 0)
(0.0302036 0.0306251 0)
(0.0331497 0.0327916 0)
(0.0361014 0.0351826 0)
(0.0390537 0.037804 0)
(0.0419998 0.0406619 0)
(0.0449316 0.043762 0)
(0.0478392 0.0471101 0)
(0.0507111 0.0507111 0)
(0.0535338 0.0545694 0)
(0.0562921 0.0586886 0)
(0.058969 0.0630711 0)
(0.0615454 0.0677178 0)
(0.0640004 0.072628 0)
(0.0663111 0.0777992 0)
(0.068453 0.0832263 0)
(0.0704001 0.088902 0)
(0.0721246 0.0948157 0)
(0.0735979 0.100954 0)
(0.0747904 0.107299 0)
(0.075672 0.113831 0)
(0.0762127 0.120524 0)
(0.0763829 0.127349 0)
(0.0761544 0.134271 0)
(0.0755004 0.141253 0)
(0.0743971 0.148252 0)
(0.0728236 0.155219 0)
(0.0707633 0.162106 0)
(0.0682046 0.168855 0)
(0.0651413 0.175411 0)
(0.0615738 0.181712 0)
(0.0575094 0.187697 0)
(0.0529629 0.193304 0)
(0.0479567 0.198473 0)
(0.0425214 0.203145 0)
(0.0366951 0.207265 0)
(0.0305234 0.210783 0)
(0.0240588 0.213654 0)
(0.0173591 0.215841 0)
(0.0104835 0.217315 0)
(0.00350455 0.218057 0)
(0.00151134 0.0210621 0)
(0.00453388 0.0212565 0)
(0.00756173 0.0216461 0)
(0.0106004 0.0222324 0)
(0.0136513 0.0230178 0)
(0.0167173 0.0240053 0)
(0.0198005 0.0251988 0)
(0.0229025 0.0266027 0)
(0.0260242 0.028222 0)
(0.0291653 0.0300623 0)
(0.0323247 0.0321299 0)
(0.0354999 0.0344311 0)
(0.0386873 0.0369728 0)
(0.0418817 0.039762 0)
(0.0450765 0.0428058 0)
(0.0482631 0.0461113 0)
(0.0514315 0.0496852 0)
(0.0545694 0.0535338 0)
(0.0576628 0.0576628 0)
(0.0606953 0.0620769 0)
(0.0636486 0.06678 0)
(0.0665021 0.0717741 0)
(0.069233 0.0770599 0)
(0.0718163 0.0826357 0)
(0.074225 0.0884976 0)
(0.0764301 0.0946389 0)
(0.0784007 0.10105 0)
(0.0801046 0.107716 0)
(0.0815083 0.114621 0)
(0.0825775 0.121744 0)
(0.0832777 0.129056 0)
(0.0835748 0.136528 0)
(0.0834355 0.144123 0)
(0.0828284 0.151799 0)
(0.0817247 0.15951 0)
(0.080099 0.167203 0)
(0.0779307 0.174821 0)
(0.0752043 0.182303 0)
(0.0719107 0.189585 0)
(0.0680483 0.196596 0)
(0.0636233 0.203268 0)
(0.0586505 0.20953 0)
(0.0531542 0.215311 0)
(0.0471676 0.220544 0)
(0.0407332 0.225164 0)
(0.0339025 0.229113 0)
(0.0267351 0.232339 0)
(0.0192971 0.234799 0)
(0.0116569 0.236457 0)
(0.00389742 0.237293 0)
(0.00161118 0.0218882 0)
(0.00483373 0.0220929 0)
(0.00806284 0.0225032 0)
(0.0113049 0.0231209 0)
(0.014562 0.0239485 0)
(0.0178378 0.0249894 0)
(0.0211351 0.026248 0)
(0.0244564 0.0277292 0)
(0.0278029 0.0294387 0)
(0.0311751 0.0313828 0)
(0.0345724 0.0335685 0)
(0.0379926 0.0360032 0)
(0.0414324 0.0386947 0)
(0.0448868 0.0416513 0)
(0.0483492 0.0448811 0)
(0.051811 0.0483925 0)
(0.0552617 0.0521936 0)
(0.0586886 0.0562921 0)
(0.0620769 0.0606953 0)
(0.0654094 0.0654094 0)
(0.0686662 0.0704396 0)
(0.0718253 0.0757897 0)
(0.074862 0.0814618 0)
(0.0777488 0.0874556 0)
(0.0804562 0.0937684 0)
(0.082952 0.100395 0)
(0.0852019 0.107325 0)
(0.0871697 0.114547 0)
(0.0888177 0.122043 0)
(0.0901067 0.129792 0)
(0.0909973 0.137764 0)
(0.0914498 0.145929 0)
(0.0914255 0.154247 0)
(0.0908873 0.162673 0)
(0.0898007 0.171156 0)
(0.0881349 0.179639 0)
(0.085864 0.188059 0)
(0.0829679 0.196346 0)
(0.079434 0.204428 0)
(0.0752576 0.212227 0)
(0.0704433 0.219663 0)
(0.0650059 0.226654 0)
(0.0589709 0.23312 0)
(0.0523746 0.238982 0)
(0.0452644 0.244165 0)
(0.0376982 0.248601 0)
(0.0297439 0.252228 0)
(0.0214772 0.254995 0)
(0.0129776 0.256862 0)
(0.00433968 0.257803 0)
(0.00171611 0.0226522 0)
(0.00514893 0.022867 0)
(0.00858965 0.0232974 0)
(0.0120457 0.0239455 0)
(0.0155199 0.0248141 0)
(0.0190168 0.0259071 0)
(0.0225403 0.0272292 0)
(0.0260932 0.0287859 0)
(0.0296778 0.0305836 0)
(0.0332951 0.0326294 0)
(0.0369451 0.0349312 0)
(0.0406262 0.0374975 0)
(0.0443354 0.0403371 0)
(0.0480681 0.0434595 0)
(0.0518177 0.0468742 0)
(0.0555756 0.050591 0)
(0.0593311 0.0546194 0)
(0.0630711 0.058969 0)
(0.06678 0.0636486 0)
(0.0704396 0.0686662 0)
(0.074029 0.074029 0)
(0.0775243 0.0797424 0)
(0.0808988 0.0858103 0)
(0.084123 0.0922344 0)
(0.0871642 0.0990136 0)
(0.0899869 0.106144 0)
(0.0925533 0.113617 0)
(0.0948227 0.121421 0)
(0.0967525 0.12954 0)
(0.0982985 0.137951 0)
(0.0994154 0.146627 0)
(0.100057 0.155532 0)
(0.100179 0.164627 0)
(0.0997376 0.173863 0)
(0.0986907 0.183185 0)
(0.0970015 0.192529 0)
(0.0946376 0.201826 0)
(0.0915735 0.211 0)
(0.0877914 0.219967 0)
(0.0832831 0.228639 0)
(0.0780507 0.236926 0)
(0.0721083 0.244734 0)
(0.0654824 0.251969 0)
(0.0582127 0.25854 0)
(0.0503517 0.264358 0)
(0.0419647 0.269344 0)
(0.0331291 0.273425 0)
(0.0239319 0.276542 0)
(0.0144652 0.278647 0)
(0.00483801 0.279708 0)
(0.00182598 0.0233483 0)
(0.00547895 0.0235728 0)
(0.00914134 0.0240226 0)
(0.0128216 0.0247 0)
(0.0165236 0.0256082 0)
(0.0202528 0.0267514 0)
(0.0240139 0.0281348 0)
(0.0278108 0.0297646 0)
(0.0316465 0.0316479 0)
(0.0355228 0.0337927 0)
(0.0394404 0.0362078 0)
(0.0433985 0.0389027 0)
(0.0473944 0.0418876 0)
(0.0514239 0.0451731 0)
(0.0554806 0.0487703 0)
(0.0595562 0.0526905 0)
(0.0636398 0.0569452 0)
(0.0677178 0.0615454 0)
(0.0717741 0.0665021 0)
(0.0757897 0.0718253 0)
(0.0797424 0.0775243 0)
(0.0836067 0.0836067 0)
(0.087354 0.0900787 0)
(0.0909521 0.0969439 0)
(0.0943655 0.104204 0)
(0.0975554 0.111855 0)
(0.10048 0.119893 0)
(0.103093 0.128307 0)
(0.105347 0.13708 0)
(0.107193 0.146192 0)
(0.108578 0.155614 0)
(0.10945 0.165311 0)
(0.109756 0.175241 0)
(0.109445 0.185351 0)
(0.108466 0.195582 0)
(0.106776 0.205866 0)
(0.104335 0.216126 0)
(0.101108 0.226276 0)
(0.0970737 0.236223 0)
(0.0922174 0.245868 0)
(0.0865382 0.255106 0)
(0.0800488 0.26383 0)
(0.0727763 0.27193 0)
(0.0647634 0.279301 0)
(0.0560686 0.285839 0)
(0.0467656 0.291451 0)
(0.0369423 0.29605 0)
(0.0266992 0.299566 0)
(0.0161432 0.301942 0)
(0.00540025 0.303139 0)
(0.00194055 0.0239708 0)
(0.00582315 0.0242044 0)
(0.00971685 0.0246727 0)
(0.0136313 0.025378 0)
(0.0175713 0.0263239 0)
(0.0215435 0.027515 0)
(0.0255535 0.0289571 0)
(0.0296063 0.030657 0)
(0.0337059 0.0326226 0)
(0.037855 0.0348627 0)
(0.0420551 0.0373872 0)
(0.0463059 0.0402068 0)
(0.0506058 0.0433328 0)
(0.0549508 0.0467775 0)
(0.0593352 0.0505534 0)
(0.0637505 0.0546737 0)
(0.068186 0.0591516 0)
(0.072628 0.0640004 0)
(0.0770599 0.069233 0)
(0.0814618 0.074862 0)
(0.0858103 0.0808988 0)
(0.0900787 0.087354 0)
(0.094236 0.094236 0)
(0.0982479 0.101551 0)
(0.102076 0.109304 0)
(0.105677 0.117494 0)
(0.109005 0.126117 0)
(0.11201 0.135166 0)
(0.114638 0.144626 0)
(0.116832 0.154477 0)
(0.118535 0.16469 0)
(0.119684 0.175232 0)
(0.120219 0.186056 0)
(0.120079 0.19711 0)
(0.119206 0.208328 0)
(0.117545 0.219638 0)
(0.115047 0.230954 0)
(0.111671 0.242181 0)
(0.107383 0.253215 0)
(0.102166 0.263943 0)
(0.0960123 0.274246 0)
(0.0889325 0.284 0)
(0.0809538 0.293078 0)
(0.0721219 0.301357 0)
(0.0625013 0.308714 0)
(0.0521752 0.315039 0)
(0.0412441 0.32023 0)
(0.0298238 0.324203 0)
(0.018039 0.32689 0)
(0.00603569 0.328245 0)
(0.00205958 0.0245137 0)
(0.00618078 0.0247559 0)
(0.0103149 0.0252415 0)
(0.0144728 0.0259731 0)
(0.0186607 0.0269545 0)
(0.022886 0.0281908 0)
(0.0271559 0.0296883 0)
(0.0314762 0.0314545 0)
(0.0358522 0.0334982 0)
(0.0402874 0.0358291 0)
(0.0447845 0.038458 0)
(0.049344 0.041397 0)
(0.0539651 0.0446589 0)
(0.0586445 0.0482573 0)
(0.0633769 0.0522065 0)
(0.0681544 0.0565217 0)
(0.0729664 0.061218 0)
(0.0777992 0.0663111 0)
(0.0826357 0.0718163 0)
(0.0874556 0.0777488 0)
(0.0922344 0.084123 0)
(0.0969439 0.0909521 0)
(0.101551 0.0982479 0)
(0.10602 0.10602 0)
(0.110308 0.114275 0)
(0.114369 0.123017 0)
(0.118152 0.132245 0)
(0.121602 0.141953 0)
(0.124658 0.152131 0)
(0.127258 0.162758 0)
(0.129334 0.173809 0)
(0.130816 0.185249 0)
(0.131634 0.197032 0)
(0.131717 0.209103 0)
(0.130995 0.221392 0)
(0.129402 0.233821 0)
(0.126878 0.246296 0)
(0.12337 0.258713 0)
(0.118836 0.270954 0)
(0.113249 0.282892 0)
(0.106595 0.294391 0)
(0.0988808 0.305306 0)
(0.0901327 0.315493 0)
(0.080399 0.324803 0)
(0.0697507 0.333096 0)
(0.0582814 0.340238 0)
(0.0461062 0.346109 0)
(0.033359 0.350608 0)
(0.0201854 0.353653 0)
(0.00675536 0.35519 0)
(0.00218276 0.0249712 0)
(0.00655091 0.0252213 0)
(0.010934 0.0257228 0)
(0.0153442 0.0264787 0)
(0.019789 0.0274929 0)
(0.0242773 0.0287712 0)
(0.0288172 0.0303202 0)
(0.0334162 0.0321483 0)
(0.0380804 0.034265 0)
(0.0428149 0.036681 0)
(0.047623 0.0394084 0)
(0.0525068 0.0424603 0)
(0.057466 0.0458512 0)
(0.0624985 0.0495962 0)
(0.0675996 0.0537116 0)
(0.072762 0.0582144 0)
(0.0779754 0.0631222 0)
(0.0832263 0.068453 0)
(0.0884976 0.074225 0)
(0.0937684 0.0804562 0)
(0.0990136 0.0871642 0)
(0.104204 0.0943655 0)