/*--------------------------------*- C++ -*----------------------------------*\
| =========                 |                                                 |
| \\      /  F ield         | OpenFOAM: The Open Source CFD Toolbox           |
|  \\    /   O peration     | Version:  2406                                  |
|   \\  /    A nd           | Website:  www.openfoam.com                      |
|    \\/     M anipulation  |                                                 |
\*---------------------------------------------------------------------------*/
FoamFile
{
    version     2.0;
    format      ascii;
    arch        "LSB;label=32;scalar=64";
    class       volScalarField;
    location    "1.55";
    object      gradTx;
}
// * * * * * * * * * * * * * * * * * * * * * * * * * * * * * * * * * * * * * //

dimensions      [0 -1 0 1 0 0 0];

internalField   nonuniform List<scalar> 
2500
(
0.00626445
0.0187727
0.0312575
0.0437167
0.0561219
0.0684559
0.0806999
0.0928333
0.104833
0.116675
0.128331
0.139771
0.150961
0.161865
0.172445
0.182657
0.192456
0.201794
0.210621
0.218882
0.226522
0.233483
0.239708
0.245137
0.249712
0.253372
0.256063
0.257729
0.258319
0.257786
0.256088
0.253189
0.249061
0.243681
0.237039
0.229132
0.219967
0.209562
0.197949
0.185167
0.17127
0.156322
0.140398
0.123585
0.105978
0.0876816
0.0688091
0.0494789
0.0298162
0.00995893
0.00631387
0.0189226
0.0315087
0.0440685
0.0565751
0.0690113
0.0813584
0.0935958
0.105701
0.117649
0.129411
0.140959
0.152257
0.163271
0.173959
0.18428
0.194188
0.203633
0.212565
0.220929
0.22867
0.235728
0.242044
0.247559
0.252213
0.255946
0.258699
0.260419
0.261051
0.260548
0.258867
0.25597
0.251829
0.246422
0.239735
0.231765
0.222521
0.212019
0.20029
0.187375
0.173328
0.158214
0.142108
0.125099
0.107283
0.088767
0.0696654
0.0500969
0.030178
0.0100726
0.00641436
0.0192237
0.0320106
0.0447722
0.057482
0.0701228
0.0826762
0.0951219
0.107437
0.119597
0.131574
0.143337
0.154853
0.166084
0.176992
0.187531
0.197656
0.207317
0.216461
0.225032
0.232974
0.240226
0.246727
0.252415
0.257228
0.261106
0.263986
0.265813
0.26653
0.266088
0.264442
0.261552
0.257387
0.251924
0.245148
0.237054
0.22765
0.216953
0.204993
0.191812
0.177465
0.162016
0.145545
0.128142
0.109906
0.0909482
0.071387
0.0513462
0.0309341
0.0103233
0.00656501
0.0196756
0.0327644
0.0458295
0.0588445
0.0717929
0.0846565
0.0974153
0.110047
0.122526
0.134825
0.146913
0.158756
0.170316
0.181553
0.192421
0.202874
0.21286
0.222324
0.231209
0.239455
0.247
0.25378
0.259731
0.264787
0.268883
0.271957
0.273947
0.274795
0.274448
0.272856
0.269978
0.265779
0.260233
0.253323
0.245045
0.235402
0.224412
0.212104
0.198522
0.18372
0.167767
0.150744
0.132745
0.113874
0.0942465
0.0739865
0.0532236
0.0320688
0.0107024
0.00676619
0.0202793
0.0337715
0.0472422
0.0606653
0.0740249
0.0873034
0.100481
0.113535
0.126442
0.139172
0.151696
0.163977
0.175978
0.187657
0.198968
0.209861
0.220283
0.230178
0.239485
0.248141
0.256082
0.263239
0.269545
0.274929
0.279324
0.282661
0.284874
0.285901
0.285684
0.284169
0.28131
0.277069
0.271416
0.264331
0.255806
0.245844
0.234462
0.221688
0.207567
0.192155
0.175524
0.157758
0.138956
0.119228
0.0986966
0.0774923
0.0557526
0.0335962
0.0112131
0.00701827
0.0210357
0.0350338
0.0490129
0.0629477
0.076823
0.0906219
0.104325
0.117911
0.131354
0.144627
0.157698
0.170531
0.183087
0.195323
0.207191
0.21864
0.229614
0.240053
0.249894
0.259071
0.267514
0.27515
0.281908
0.287712
0.292487
0.296161
0.298662
0.299921
0.299874
0.298463
0.295635
0.291346
0.285563
0.278262
0.269431
0.259071
0.247196
0.233837
0.219036
0.202854
0.185365
0.166659
0.14684
0.126025
0.104346
0.0819424
0.0589621
0.0355343
0.0118611
0.00732166
0.0219462
0.0365531
0.0511444
0.0656954
0.0801921
0.0946183
0.108955
0.123182
0.137273
0.151201
0.164933
0.178434
0.191662
0.204573
0.217118
0.229242
0.240886
0.251988
0.26248
0.272292
0.281348
0.289571
0.296883
0.303202
0.308448
0.312539
0.315397
0.316947
0.317116
0.315839
0.313058
0.308721
0.302789
0.295233
0.286037
0.275199
0.262732
0.248664
0.23304
0.215922
0.19739
0.177538
0.156478
0.134337
0.111255
0.0873855
0.0628879
0.0379048
0.0126537
0.00767682
0.023012
0.0383319
0.0536401
0.0689131
0.084138
0.0992996
0.11438
0.129359
0.144211
0.158909
0.17342
0.187706
0.201727
0.215435
0.228779
0.241701
0.254139
0.266027
0.277292
0.287859
0.297646
0.30657
0.314545
0.321483
0.327294
0.33189
0.335183
0.337089
0.337527
0.336423
0.333709
0.329328
0.323232
0.315386
0.305768
0.294373
0.281211
0.266309
0.249714
0.23149
0.21172
0.190508
0.167972
0.144252
0.119499
0.0938813
0.0675733
0.0407342
0.0135997
0.00808422
0.0242348
0.0403725
0.0565035
0.0726053
0.0886666
0.104673
0.120609
0.136453
0.152182
0.167767
0.183176
0.19837
0.213307
0.227937
0.242207
0.256056
0.269417
0.28222
0.294387
0.305836
0.316479
0.326226
0.334982
0.34265
0.349131
0.354328
0.358141
0.360477
0.361244
0.360358
0.357741
0.353325
0.347055
0.338888
0.328794
0.316764
0.302804
0.286941
0.269221
0.249712
0.228503
0.205704
0.181445
0.155877
0.129168
0.101501
0.0730707
0.0440543
0.0147098
0.00854436
0.0256158
0.0426777
0.0597384
0.0767772
0.0937844
0.110748
0.127652
0.144477
0.1612
0.177793
0.194223
0.21045
0.226431
0.242113
0.257441
0.27235
0.28677
0.300623
0.313828
0.326294
0.337927
0.348627
0.358291
0.36681
0.374076
0.379979
0.384409
0.38726
0.388427
0.387813
0.38533
0.380898
0.37445
0.365934
0.355314
0.342572
0.327712
0.310756
0.291752
0.270772
0.24791
0.223286
0.197041
0.16934
0.140369
0.110331
0.0794419
0.0479026
0.0159966
0.00905772
0.0271567
0.0452498
0.0633484
0.0814335
0.0994977
0.117531
0.135518
0.153442
0.17128
0.189004
0.206581
0.223971
0.241127
0.257998
0.274521
0.290631
0.306251
0.321299
0.335685
0.349312
0.362078
0.373872
0.38458
0.394084
0.402261
0.408989
0.414144
0.417604
0.419253
0.418978
0.416677
0.412255
0.405634
0.39675
0.385557
0.372029
0.356164
0.337982
0.317531
0.294885
0.270145
0.243441
0.214928
0.184788
0.153226
0.12047
0.0867595
0.0523232
0.0174749
0.00962474
0.0288587
0.0480912
0.0673369
0.0865791
0.105813
0.12503
0.144218
0.163361
0.182437
0.201419
0.220273
0.238958
0.257428
0.275626
0.29349
0.310947
0.327916
0.344311
0.360032
0.374975
0.389027
0.402068
0.41397
0.424603
0.433831
0.441516
0.447517
0.451699
0.453925
0.454068
0.452008
0.447636
0.440856
0.431592
0.419785
0.4054
0.388426
0.368882
0.346813
0.322296
0.29544
0.266385
0.235303
0.202394
0.167887
0.132034
0.0951084
0.0573678
0.019162
0.0102458
0.0307231
0.051204
0.071707
0.0922181
0.112735
0.133253
0.153761
0.174245
0.194685
0.215054
0.235319
0.255438
0.275363
0.295036
0.31439
0.333349
0.351826
0.369728
0.386947
0.403371
0.418876
0.433328
0.446589
0.458512
0.468945
0.477734
0.484721
0.489749
0.492665
0.493321
0.491577
0.487306
0.480394
0.470748
0.458294
0.442985
0.424802
0.403756
0.379892
0.35329
0.324065
0.29237
0.258393
0.222357
0.184518
0.145159
0.104587
0.0630959
0.021078
0.0109212
0.0327508
0.0545898
0.0764611
0.0983539
0.120269
0.142205
0.164155
0.186105
0.208037
0.229927
0.25174
0.273436
0.294964
0.316263
0.337265
0.357888
0.37804
0.39762
0.416513
0.434595
0.451731
0.467775
0.482573
0.495962
0.507773
0.517832
0.52596
0.531981
0.535718
0.537
0.535665
0.531563
0.52456
0.514542
0.501418
0.485126
0.465634
0.442946
0.417105
0.388191
0.356328
0.321682
0.28446
0.244909
0.203316
0.160001
0.115308
0.069577
0.023246
0.0116512
0.0349423
0.0582495
0.0816008
0.104989
0.128419
0.151893
0.175406
0.198949
0.222505
0.246052
0.269555
0.292974
0.316258
0.339343
0.362157
0.384615
0.406619
0.428058
0.448811
0.468742
0.487703
0.505534
0.522065
0.537116
0.550497
0.562011
0.57146
0.57864
0.58335
0.585393
0.58458
0.580736
0.573701
0.563337
0.549532
0.532204
0.511309
0.486839
0.458832
0.42737
0.392583
0.354651
0.313803
0.270315
0.224507
0.17674
0.127405
0.0768911
0.0256931
0.0124357
0.0372977
0.0621835
0.0871266
0.112124
0.137186
0.162317
0.187519
0.212783
0.238098
0.26344
0.288779
0.314073
0.339271
0.364307
0.389107
0.413579
0.43762
0.461113
0.483925
0.50591
0.526905
0.546737
0.565217
0.582144
0.597308
0.610488
0.621458
0.629989
0.63585
0.638814
0.638661
0.635186
0.6282
0.617534
0.603053
0.584651
0.562265
0.535874
0.505508
0.471248
0.433233
0.391655
0.346769
0.29888
0.248349
0.195583
0.141029
0.0851311
0.0284503
0.0132745
0.0398165
0.0663909
0.0930376
0.119759
0.146569
0.17348
0.200495
0.227611
0.25482
0.2821
0.309424
0.336749
0.364025
0.391185
0.418149
0.444825
0.471101
0.496852
0.521936
0.546194
0.569452
0.591516
0.61218
0.631222
0.648407
0.663487
0.676209
0.686311
0.693529
0.697603
0.698278
0.695311
0.688479
0.677581
0.662448
0.642948
0.618993
0.590546
0.557624
0.520307
0.478739
0.433129
0.383753
0.330956
0.275142
0.216773
0.156356
0.0944043
0.0315538
0.0141673
0.0424975
0.0708699
0.0993316
0.12789
0.156567
0.185378
0.214332
0.243433
0.272673
0.302036
0.331497
0.361014
0.390537
0.419998
0.449316
0.478392
0.507111
0.535338
0.562921
0.58969
0.615454
0.640004
0.663111
0.68453
0.704001
0.721246
0.735979
0.747904
0.75672
0.762127
0.763829
0.761544
0.755004
0.743971
0.728236
0.707633
0.682046
0.651413
0.615738
0.575094
0.529629
0.479567
0.425214
0.366951
0.305234
0.240588
0.173591
0.104835
0.0350455
0.0151134
0.0453388
0.0756173
0.106004
0.136513
0.167173
0.198005
0.229025
0.260242
0.291653
0.323247
0.354999
0.386873
0.418817
0.450765
0.482631
0.514315
0.545694
0.576628
0.606953
0.636486
0.665021
0.69233
0.718163
0.74225
0.764301
0.784007
0.801046
0.815083
0.825775
0.832777
0.835748
0.834355
0.828284
0.817247
0.80099
0.779307
0.752043
0.719107
0.680483
0.636233
0.586505
0.531542
0.471676
0.407332
0.339025
0.267351
0.192971
0.116569
0.0389742
0.0161118
0.0483373
0.0806284
0.113049
0.14562
0.178378
0.211351
0.244564
0.278029
0.311751
0.345724
0.379926
0.414324
0.448868
0.483492
0.51811
0.552617
0.586886
0.620769
0.654094
0.686662
0.718253
0.74862
0.777488
0.804562
0.82952
0.852019
0.871697
0.888177
0.901067
0.909973
0.914498
0.914255
0.908873
0.898007
0.881349
0.85864
0.829679
0.79434
0.752576
0.704433
0.650059
0.589709
0.523746
0.452644
0.376982
0.297439
0.214772
0.129776
0.0433968
0.0171611
0.0514893
0.0858965
0.120457
0.155199
0.190168
0.225403
0.260932
0.296778
0.332951
0.369451
0.406262
0.443354
0.480681
0.518177
0.555756
0.593311
0.630711
0.6678
0.704396
0.74029
0.775243
0.808988
0.84123
0.871642
0.899869
0.925533
0.948227
0.967525
0.982985
0.994154
1.00057
1.00179
0.997376
0.986907
0.970015
0.946376
0.915735
0.877914
0.832831
0.780507
0.721083
0.654824
0.582127
0.503517
0.419647
0.331291
0.239319
0.144652
0.0483801
0.0182598
0.0547895
0.0914134
0.128216
0.165236
0.202528
0.240139
0.278108
0.316465
0.355228
0.394404
0.433985
0.473944
0.514239
0.554806
0.595562
0.636398
0.677178
0.717741
0.757897
0.797424
0.836067
0.87354
0.909521
0.943655
0.975554
1.0048
1.03093
1.05347
1.07193
1.08578
1.0945
1.09756
1.09445
1.08466
1.06776
1.04335
1.01108
0.970737
0.922174
0.865382
0.800488
0.727763
0.647634
0.560686
0.467656
0.369423
0.266992
0.161432
0.0540025
0.0194055
0.0582315
0.0971685
0.136313
0.175713
0.215435
0.255535
0.296063
0.337059
0.37855
0.420551
0.463059
0.506058
0.549508
0.593352
0.637505
0.68186
0.72628
0.770599
0.814618
0.858103
0.900787
0.94236
0.982479
1.02076
1.05677
1.09005
1.1201
1.14638
1.16832
1.18535
1.19684
1.20219
1.20079
1.19206
1.17545
1.15047
1.11671
1.07383
1.02166
0.960123
0.889325
0.809538
0.721219
0.625013
0.521752
0.412441
0.298238
0.18039
0.0603569
0.0205958
0.0618078
0.103149
0.144728
0.186607
0.22886
0.271559
0.314762
0.358522
0.402874
0.447845
0.49344
0.539651
0.586445
0.633769
0.681544
0.729664
0.777992
0.826357
0.874556
0.922344
0.969439
1.01551
1.0602
1.10308
1.14369
1.18152
1.21602
1.24658
1.27258
1.29334
1.30816
1.31634
1.31717
1.30995
1.29402
1.26878
1.2337
1.18836
1.13249
1.06595
0.988808
0.901327
0.80399
0.697507
0.582814
0.461062
0.33359
0.201854
0.0675536
0.0218276
0.0655091
0.10934
0.153442
0.19789
0.242773
0.288172
0.334162
0.380804
0.428149
0.47623
0.525068
0.57466
0.624985
0.675996
0.72762
0.779754
0.832263
0.884976
0.937684
0.990136
1.04204
1.09304
1.14275
1.19073
1.23647
1.27941
1.31895
1.35442
1.38511
1.41026
1.42907
1.44072
1.44439
1.43924
1.42449
1.39939
1.36329
1.31563
1.25603
1.18427
1.10034
1.00451
0.897252
0.77936
0.651884
0.51614
0.373681
0.226214
0.0757244
0.0230973
0.0693246
0.115722
0.162429
0.209532
0.257133
0.30533
0.35421
0.403848
0.454309
0.505638
0.557868
0.611009
0.665049
0.719951
0.77565
0.83205
0.88902
0.946389
1.00395
1.06144
1.11855
1.17494
1.23017
1.28378
1.33523
1.38391
1.42915
1.47022
1.50633
1.53662
1.56018
1.57606
1.58331
1.58094
1.56799
1.54357
1.50685
1.45712
1.39384
1.31669
1.22557
1.12068
1.00254
0.871985
0.730199
0.578694
0.41927
0.253938
0.0850278
0.0244008
0.0732421
0.122277
0.171661
0.221494
0.271897
0.32298
0.374846
0.427586
0.481278
0.535985
0.591752
0.648602
0.706537
0.765531
0.82553
0.886447
0.948157
1.0105
1.07325
1.13617
1.19893
1.26117
1.32245
1.38227
1.44005
1.49514
1.54681
1.59427
1.63662
1.67291
1.7021
1.72312
1.73483
1.73608
1.72574
1.70269
1.66591
1.6145
1.54772
1.46509
1.36639
1.25176
1.12168
0.977066
0.819247
0.64995
0.471275
0.285594
0.0956557
0.0257335
0.0772476
0.12898
0.181104
0.233736
0.287011
0.341059
0.395999
0.451937
0.50897
0.567175
0.626613
0.687325
0.749327
0.812608
0.877127
0.942808
1.00954
1.07716
1.14547
1.21421
1.28307
1.35166
1.41953
1.48617
1.55095
1.61319
1.67211
1.72681
1.77633
1.81959
1.85545
1.88264
1.89988
1.9058
1.89905
1.87827
1.84219
1.78966
1.71971
1.63163
1.52504
1.39995
1.25683
1.09662
0.920815
0.731393
0.530808
0.321871
0.107842
0.0270901
0.0813255
0.135806
0.190722
0.246209
0.30242
0.359501
0.41759
0.476812
0.537281
0.599093
0.662329
0.727045
0.793276
0.861029
0.930279
1.00097
1.07299
1.14621
1.22043
1.2954
1.3708
1.44626
1.52131
1.5954
1.66791
1.73809
1.80512
1.86802
1.92575
1.9771
2.02079
2.0554
2.07942
2.09127
2.08933
2.07196
2.03759
1.98474
1.91215
1.81883
1.70414
1.56793
1.41058
1.23308
1.03707
0.824832
0.599232
0.363616
0.121873
0.0284648
0.0854584
0.142725
0.200475
0.258862
0.318057
0.378227
0.439529
0.502108
0.566097
0.631614
0.698758
0.767607
0.838217
0.910616
0.984798
1.06072
1.13831
1.21744
1.29792
1.37951
1.46192
1.54477
1.62758
1.70981
1.7908
1.86978
1.94586
2.01802
2.0851
2.1458
2.19866
2.2421
2.27439
2.29368
2.29806
2.28554
2.25419
2.20214
2.12773
2.02958
1.90675
1.75883
1.58604
1.38939
1.17067
0.93249
0.678224
0.411874
0.138105
0.0298515
0.0896274
0.149706
0.210318
0.271636
0.333852
0.397154
0.461718
0.527712
0.59529
0.664592
0.735741
0.808837
0.88396
0.961161
1.04046
1.12184
1.20524
1.29056
1.37764
1.46627
1.55614
1.6469
1.73809
1.82915
1.91942
2.00809
2.09424
2.17679
2.2545
2.32593
2.3895
2.44342
2.48572
2.51427
2.5268
2.52094
2.4943
2.44455
2.3695
2.26729
2.13652
1.97642
1.78699
1.56916
1.32487
1.05711
0.769871
0.467948
0.15698
0.0312431
0.0938119
0.156714
0.220202
0.284469
0.349728
0.416187
0.484048
0.553498
0.624718
0.697869
0.7731
0.850539
0.930289
1.01243
1.09701
1.18404
1.27349
1.36528
1.45929
1.55532
1.65311
1.75232
1.85249
1.95309
2.05345
2.15276
2.25006
2.34422
2.43393
2.51765
2.59363
2.65991
2.71425
2.7542
2.77712
2.78018
2.76043
2.71496
2.64095
2.53588
2.39775
2.22524
2.01799
1.77679
1.5037
1.20213
0.876784
0.533474
0.179056
0.0326325
0.0979901
0.163713
0.230076
0.297293
0.3656
0.435228
0.506401
0.579332
0.654226
0.73127
0.810641
0.892494
0.976963
1.06416
1.15416
1.24701
1.34271
1.44123
1.54247
1.64627
1.75241
1.86056
1.97032
2.08117
2.19245
2.30336
2.41294
2.52001
2.62321
2.72091
2.81122
2.89198
2.9607
3.0146
3.0506
3.06534
3.05526
3.0167
2.94604
2.83993
2.69551
2.51073
2.28465
2.01777
1.71221
1.37185
1.00226
0.610524
0.205039
0.0340119
0.102138
0.170663
0.239884
0.310036
0.38138
0.454169
0.528652
0.605068
0.683647
0.764607
0.848151
0.934466
1.02372
1.11605
1.21158
1.31039
1.41253
1.51799
1.62673
1.73863
1.85351
1.9711
2.09103
2.21281
2.33584
2.45934
2.58234
2.70368
2.82195
2.93545
3.0422
3.13982
3.22561
3.29642
3.34871
3.37854
3.38161
3.35339
3.28925
3.18474
3.03586
2.83949
2.59386
2.29892
1.95675
1.57173
1.15052
0.701749
0.235834
0.0353731
0.106233
0.177524
0.249568
0.322623
0.396973
0.472897
0.550667
0.630551
0.712805
0.797677
0.885401
0.976198
1.07027
1.1678
1.26893
1.37381
1.48252
1.5951
1.71156
1.83185
1.95582
2.08328
2.21392
2.34731
2.48289
2.61993
2.75752
2.89452
3.02951
3.16076
3.28621
3.40334
3.50921
3.60035
3.67273
3.72177
3.74236
3.72892
3.67556
3.57642
3.42596
3.21957
2.95416
2.62883
2.24541
1.80879
1.32695
0.810561
0.272607
0.0367076
0.110247
0.184252
0.259067
0.334975
0.412282
0.491292
0.572306
0.655616
0.74151
0.830265
0.922149
1.01742
1.11631
1.21904
1.32583
1.43683
1.55219
1.67203
1.79639
1.92529
2.05866
2.19638
2.33821
2.4838
2.63268
2.7842
2.93752
3.09156
3.24495
3.39597
3.54253
3.68204
3.81135
3.9267
4.02361
4.09683
4.14033
4.14734
4.11045
4.02197
3.87431
3.66073
3.37621
3.01839
2.58854
2.09206
1.53857
0.941388
0.316872
0.0380067
0.114155
0.190803
0.26832
0.34701
0.427204
0.509234
0.593424
0.680096
0.769568
0.862148
0.958138
1.05783
1.16151
1.26943
1.38185
1.49899
1.62106
1.74821
1.88059
2.01826
2.16126
2.30954
2.46296
2.62128
2.78414
2.95099
3.12111
3.29353
3.46698
3.63983
3.81001
3.97493
4.13134
4.27524
4.40177
4.50503
4.57805
4.6127
4.59978
4.5293
4.39095
4.17496
3.8734
3.48159
2.99962
2.43335
1.79453
1.10001
0.370601
0.0392615
0.11793
0.197133
0.277262
0.358644
0.441637
0.526595
0.613871
0.703816
0.796775
0.893093
0.993105
1.09714
1.20553
1.31857
1.43657
1.55981
1.68855
1.82303
1.96346
2.11
2.26276
2.42181
2.58713
2.7586
2.93598
3.1189
3.30679
3.49883
3.69393
3.89061
4.08693
4.2804
4.46778
4.64499
4.80687
4.94698
5.05745
5.12872
5.14957
5.10718
4.98763
4.77694
4.46274
4.03655
3.49632
2.84822
2.10687
1.29398
0.436365
0.0404632
0.121546
0.203196
0.285829
0.369795
0.455474
0.543248
0.633496
0.726597
0.822927
0.922863
1.02678
1.13504
1.24801
1.36606
1.48954
1.61877
1.75411
1.89585
2.04428
2.19967
2.36223
2.53215
2.70954
2.89443
3.08676
3.28634
3.49278
3.70552
3.92369
4.14607
4.37097
4.5961
4.81844
5.03397
5.23746
5.42215
5.5794
5.69835
5.76556
5.76492
5.67791
5.48464
5.166
4.70722
4.10227
3.35738
2.49145
1.53314
0.51749
0.0416028
0.124975
0.208947
0.293957
0.380377
0.468612
0.559067
0.652148
0.748262
0.847816
0.951219
1.05888
1.17121
1.28861
1.4115
1.54028
1.67535
1.81712
1.96596
2.12227
2.28639
2.45868
2.63943
2.82892
3.02735
3.23485
3.45145
3.67704
3.91131
4.15373
4.40342
4.65909
4.91883
5.18
5.43894
5.69065
5.92837
6.1431
6.32293
6.45239
6.51178
6.47697
6.31994
6.01135
5.52573
4.84954
3.98868
2.96907
1.83015
0.61819
0.0426716
0.128191
0.214342
0.301583
0.390309
0.480947
0.573926
0.669678
0.768635
0.871237
0.977923
1.08914
1.20533
1.32695
1.45447
1.58833
1.729
1.87697
2.03268
2.19663
2.36926
2.55106
2.74246
2.94391
3.15579
3.37846
3.61221
3.85722
4.11354
4.38104
4.65929
4.94751
5.24441
5.54796
5.85517
6.16168
6.46127
6.74518
7.00116
7.21231
7.35566
7.40077
7.30908
7.03573
6.53653
5.78288
4.7798
3.5667
2.20068
0.743563
0.0436612
0.13117
0.219338
0.308647
0.399511
0.492379
0.587703
0.685938
0.787545
0.892989
1.00274
1.11728
1.2371
1.36269
1.49456
1.63322
1.7792
1.93304
2.0953
2.26654
2.44734
2.6383
2.84
3.05306
3.27809
3.51568
3.76639
4.03077
4.30926
4.60219
4.90972
5.23173
5.56769
5.91649
6.27617
6.64353
7.01358
7.37872
7.72754
8.04313
8.30062
8.46394
8.4822
8.28797
7.80352
6.96706
5.78205
4.31798
2.6628
0.899205
0.0445636
0.133885
0.223895
0.315091
0.407907
0.502813
0.600281
0.70079
0.804826
0.912879
1.02545
1.14306
1.26622
1.39547
1.53137
1.67448
1.8254
1.98473
2.15311
2.3312
2.51969
2.7193
2.93078
3.15493
3.39255
3.64451
3.91168
4.19496
4.49525
4.81342
5.15028
5.5065
5.88252
6.27841
6.69362
7.12667
7.57459
8.03215
8.4905
8.93517
9.34264
9.67477
9.87015
9.83247
9.42425
8.50125
7.06449
5.26106
3.23386
1.08992
0.0453714
0.136317
0.227974
0.32086
0.415426
0.512159
0.611552
0.714104
0.820323
0.930726
1.04584
1.16621
1.2924
1.42497
1.56453
1.71169
1.86711
2.03145
2.20544
2.38982
2.5854
2.79301
3.01357
3.24803
3.49745
3.76293
4.04566
4.34694
4.66813
5.01069
5.37613
5.76603
6.18194
6.62532
7.0974
7.59893
8.1298
8.68839
9.27054
9.86758
10.4629
11.025
11.4935
11.7496
11.5615
10.5507
8.71472
6.42863
3.92218
1.31678
0.0460776
0.138442
0.231541
0.325906
0.422002
0.520335
0.621414
0.725758
0.833894
0.946362
1.06371
1.18652
1.31538
1.45088
1.59368
1.74443
1.90385
2.07265
2.25164
2.44165
2.64358
2.85839
3.08714
3.33096
3.5911
3.86893
4.16596
4.48386
4.82447
5.18984
5.58223
6.00416
6.45839
6.94791
7.47596
8.04591
8.66113
9.32474
10.0391
10.8049
11.6193
12.4715
13.3318
14.1129
14.5234
13.4266
10.8162
7.81731
4.70995
1.57207
0.0466765
0.140245
0.234566
0.330183
0.427577
0.527267
0.629778
0.735644
0.845411
0.959636
1.0789
1.20378
1.33491
1.47293
1.6185
1.77233
1.93518
2.10783
2.29113
2.48601
2.69344
2.91451
3.15039
3.40238
3.67193
3.96063
4.2703
4.60296
4.96091
5.34677
5.76353
6.21465
6.70407
7.23638
7.81687
8.45168
9.14796
9.91403
10.7597
11.6969
12.7407
13.9127
15.2515
16.8488
18.9946
17.8176
13.3075
9.31515
5.52877
1.83388
0.047163
0.141709
0.237021
0.333654
0.432102
0.532893
0.636567
0.743671
0.854763
0.97042
1.09123
1.21781
1.35081
1.49087
1.63871
1.79507
1.96073
2.13654
2.32339
2.52228
2.73425
2.9605
3.2023
3.46109
3.73849
4.0363
4.35658
4.70169
5.07433
5.47763
5.91526
6.39151
6.91144
7.48111
8.10775
8.80011
9.56891
10.4274
11.3923
12.4855
13.7368
15.1899
16.9154
19.0382
21.7903
20.543
15.2822
10.6077
6.25664
2.06881
0.0475328
0.142823
0.238887
0.336288
0.435533
0.537161
0.641717
0.74976
0.86186
0.978605
1.1006
1.22847
1.36288
1.50451
1.65408
1.81237
1.98018
2.15841
2.34799
2.54995
2.76542
2.99566
3.24203
3.50608
3.78956
4.09444
4.423
4.77784
5.162
5.57905
6.03317
6.52938
7.07368
7.67332
8.3372
9.07624
9.90412
10.8381
11.9002
13.1193
14.534
16.1974
18.1842
20.6005
23.5874
22.2835
16.6718
11.5777
6.82174
2.25382
0.047781
0.143576
0.240148
0.33806
0.43784
0.540029
0.645179
0.753854
0.866632
0.984109
1.1069
1.23564
1.371
1.51369
1.66443
1.82402
1.99329
2.17315
2.36457
2.56862
2.78647
3.01942
3.2689
3.53653
3.82417
4.13389
4.46812
4.82964
5.22174
5.64827
6.11382
6.6239
7.18518
7.80579
8.4958
9.2677
10.1372
11.1243
12.2545
13.5608
15.0857
16.8842
19.026
21.5945
24.6768
23.3335
17.5448
12.2104
7.19931
2.37884
0.0478947
0.143941
0.240777
0.33895
0.438999
0.541469
0.646917
0.75591
0.869029
0.986874
1.11006
1.23924
1.37509
1.5183
1.66964
1.82988
1.99989
2.18057
2.37293
2.57803
2.79708
3.03139
3.28245
3.5519
3.84164
4.15382
4.49093
4.85586
5.252
5.68338
6.15477
6.67196
7.24195
7.87336
8.57683
9.36569
10.2567
11.2712
12.4363
13.7868
15.3667
17.2306
19.4436
22.0766
25.1939
23.8302
17.9647
12.5204
7.38683
2.44134
)
;

boundaryField
{
    walls
    {
        type            calculated;
        value           nonuniform List<scalar> 
200
(
0.0478947
0.143941
0.240777
0.33895
0.438999
0.541469
0.646917
0.75591
0.869029
0.986874
1.11006
1.23924
1.37509
1.5183
1.66964
1.82988
1.99989
2.18057
2.37293
2.57803
2.79708
3.03139
3.28245
3.5519
3.84164
4.15382
4.49093
4.85586
5.252
5.68338
6.15477
6.67196
7.24195
7.87336
8.57683
9.36569
10.2567
11.2712
12.4363
13.7868
15.3667
17.2306
19.4436
22.0766
25.1939
23.8302
17.9647
12.5204
7.38683
2.44134
0
0
0
0
0
0
0
0
0
0
0
0
0
0
0
0
0
0
0
0
0
0
0
0
0
0
0
0
0
0
0
0
0
0
0
0
0
0
0
0
0
0
0
0
0
0
0
0
0
0
0
0
0
0
0
0
0
0
0
0
0
0
0
0
0
0
0
0
0
0
0
0
0
0
0
0
0
0
0
0
0
0
0
0
0
0
0
0
0
0
0
0
0
0
0
0
0
0
0
0
0.00626445
0.0187727
0.0312575
0.0437167
0.0561219
0.0684559
0.0806999
0.0928333
0.104833
0.116675
0.128331
0.139771
0.150961
0.161865
0.172445
0.182657
0.192456
0.201794
0.210621
0.218882
0.226522
0.233483
0.239708
0.245137
0.249712
0.253372
0.256063
0.257729
0.258319
0.257786
0.256088
0.253189
0.249061
0.243681
0.237039
0.229132
0.219967
0.209562
0.197949
0.185167
0.17127
0.156322
0.140398
0.123585
0.105978
0.0876816
0.0688091
0.0494789
0.0298162
0.00995893
)
;
    }
    frontAndBack
    {
        type            empty;
    }
}


// ************************************************************************* //
