/*--------------------------------*- C++ -*----------------------------------*\
| =========                 |                                                 |
| \\      /  F ield         | OpenFOAM: The Open Source CFD Toolbox           |
|  \\    /   O peration     | Version:  2406                                  |
|   \\  /    A nd           | Website:  www.openfoam.com                      |
|    \\/     M anipulation  |                                                 |
\*---------------------------------------------------------------------------*/
FoamFile
{
    version     2.0;
    format      ascii;
    arch        "LSB;label=32;scalar=64";
    class       volScalarField;
    location    "1.55";
    object      gradTy;
}
// * * * * * * * * * * * * * * * * * * * * * * * * * * * * * * * * * * * * * //

dimensions      [0 -1 0 1 0 0 0];

internalField   nonuniform List<scalar> 
2500
(
0.00626445
0.00631387
0.00641436
0.00656501
0.00676619
0.00701827
0.00732166
0.00767682
0.00808422
0.00854436
0.00905772
0.00962474
0.0102458
0.0109212
0.0116512
0.0124357
0.0132745
0.0141673
0.0151134
0.0161118
0.0171611
0.0182598
0.0194055
0.0205958
0.0218276
0.0230973
0.0244008
0.0257335
0.0270901
0.0284648
0.0298515
0.0312431
0.0326325
0.0340119
0.0353731
0.0367076
0.0380067
0.0392615
0.0404632
0.0416028
0.0426716
0.0436612
0.0445636
0.0453714
0.0460776
0.0466765
0.047163
0.0475328
0.047781
0.0478947
0.0187727
0.0189226
0.0192237
0.0196756
0.0202793
0.0210357
0.0219462
0.023012
0.0242348
0.0256158
0.0271567
0.0288587
0.0307231
0.0327508
0.0349423
0.0372977
0.0398165
0.0424975
0.0453388
0.0483373
0.0514893
0.0547895
0.0582315
0.0618078
0.0655091
0.0693246
0.0732421
0.0772476
0.0813255
0.0854584
0.0896274
0.0938119
0.0979901
0.102138
0.106233
0.110247
0.114155
0.11793
0.121546
0.124975
0.128191
0.13117
0.133885
0.136317
0.138442
0.140245
0.141709
0.142823
0.143576
0.143941
0.0312575
0.0315087
0.0320106
0.0327644
0.0337715
0.0350338
0.0365531
0.0383319
0.0403725
0.0426777
0.0452498
0.0480912
0.051204
0.0545898
0.0582495
0.0621835
0.0663909
0.0708699
0.0756173
0.0806284
0.0858965
0.0914134
0.0971685
0.103149
0.10934
0.115722
0.122277
0.12898
0.135806
0.142725
0.149706
0.156714
0.163713
0.170663
0.177524
0.184252
0.190803
0.197133
0.203196
0.208947
0.214342
0.219338
0.223895
0.227974
0.231541
0.234566
0.237021
0.238887
0.240148
0.240777
0.0437167
0.0440685
0.0447722
0.0458295
0.0472422
0.0490129
0.0511444
0.0536401
0.0565035
0.0597384
0.0633484
0.0673369
0.071707
0.0764611
0.0816008
0.0871266
0.0930376
0.0993316
0.106004
0.113049
0.120457
0.128216
0.136313
0.144728
0.153442
0.162429
0.171661
0.181104
0.190722
0.200475
0.210318
0.220202
0.230076
0.239884
0.249568
0.259067
0.26832
0.277262
0.285829
0.293957
0.301583
0.308647
0.315091
0.32086
0.325906
0.330183
0.333654
0.336288
0.33806
0.33895
0.0561219
0.0565751
0.057482
0.0588445
0.0606653
0.0629477
0.0656954
0.0689131
0.0726053
0.0767772
0.0814335
0.0865791
0.0922181
0.0983539
0.104989
0.112124
0.119759
0.12789
0.136513
0.14562
0.155199
0.165236
0.175713
0.186607
0.19789
0.209532
0.221494
0.233736
0.246209
0.258862
0.271636
0.284469
0.297293
0.310036
0.322623
0.334975
0.34701
0.358644
0.369795
0.380377
0.390309
0.399511
0.407907
0.415426
0.422002
0.427577
0.432102
0.435533
0.43784
0.438999
0.0684559
0.0690113
0.0701228
0.0717929
0.0740249
0.076823
0.0801921
0.084138
0.0886666
0.0937844
0.0994977
0.105813
0.112735
0.120269
0.128419
0.137186
0.146569
0.156567
0.167173
0.178378
0.190168
0.202528
0.215435
0.22886
0.242773
0.257133
0.271897
0.287011
0.30242
0.318057
0.333852
0.349728
0.3656
0.38138
0.396973
0.412282
0.427204
0.441637
0.455474
0.468612
0.480947
0.492379
0.502813
0.512159
0.520335
0.527267
0.532893
0.537161
0.540029
0.541469
0.0806999
0.0813584
0.0826762
0.0846565
0.0873034
0.0906219
0.0946183
0.0992996
0.104673
0.110748
0.117531
0.12503
0.133253
0.142205
0.151893
0.162317
0.17348
0.185378
0.198005
0.211351
0.225403
0.240139
0.255535
0.271559
0.288172
0.30533
0.32298
0.341059
0.359501
0.378227
0.397154
0.416187
0.435228
0.454169
0.472897
0.491292
0.509234
0.526595
0.543248
0.559067
0.573926
0.587703
0.600281
0.611552
0.621414
0.629778
0.636567
0.641717
0.645179
0.646917
0.0928333
0.0935958
0.0951219
0.0974153
0.100481
0.104325
0.108955
0.11438
0.120609
0.127652
0.135518
0.144218
0.153761
0.164155
0.175406
0.187519
0.200495
0.214332
0.229025
0.244564
0.260932
0.278108
0.296063
0.314762
0.334162
0.35421
0.374846
0.395999
0.41759
0.439529
0.461718
0.484048
0.506401
0.528652
0.550667
0.572306
0.593424
0.613871
0.633496
0.652148
0.669678
0.685938
0.70079
0.714104
0.725758
0.735644
0.743671
0.74976
0.753854
0.75591
0.104833
0.105701
0.107437
0.110047
0.113535
0.117911
0.123182
0.129359
0.136453
0.144477
0.153442
0.163361
0.174245
0.186105
0.198949
0.212783
0.227611
0.243433
0.260242
0.278029
0.296778
0.316465
0.337059
0.358522
0.380804
0.403848
0.427586
0.451937
0.476812
0.502108
0.527712
0.553498
0.579332
0.605068
0.630551
0.655616
0.680096
0.703816
0.726597
0.748262
0.768635
0.787545
0.804826
0.820323
0.833894
0.845411
0.854763
0.86186
0.866632
0.869029
0.116675
0.117649
0.119597
0.122526
0.126442
0.131354
0.137273
0.144211
0.152182
0.1612
0.17128
0.182437
0.194685
0.208037
0.222505
0.238098
0.25482
0.272673
0.291653
0.311751
0.332951
0.355228
0.37855
0.402874
0.428149
0.454309
0.481278
0.50897
0.537281
0.566097
0.59529
0.624718
0.654226
0.683647
0.712805
0.74151
0.769568
0.796775
0.822927
0.847816
0.871237
0.892989
0.912879
0.930726
0.946362
0.959636
0.97042
0.978605
0.984109
0.986874
0.128331
0.129411
0.131574
0.134825
0.139172
0.144627
0.151201
0.158909
0.167767
0.177793
0.189004
0.201419
0.215054
0.229927
0.246052
0.26344
0.2821
0.302036
0.323247
0.345724
0.369451
0.394404
0.420551
0.447845
0.47623
0.505638
0.535985
0.567175
0.599093
0.631614
0.664592
0.697869
0.73127
0.764607
0.797677
0.830265
0.862148
0.893093
0.922863
0.951219
0.977923
1.00274
1.02545
1.04584
1.06371
1.0789
1.09123
1.1006
1.1069
1.11006
0.139771
0.140959
0.143337
0.146913
0.151696
0.157698
0.164933
0.17342
0.183176
0.194223
0.206581
0.220273
0.235319
0.25174
0.269555
0.288779
0.309424
0.331497
0.354999
0.379926
0.406262
0.433985
0.463059
0.49344
0.525068
0.557868
0.591752
0.626613
0.662329
0.698758
0.735741
0.7731
0.810641
0.848151
0.885401
0.922149
0.958138
0.993105
1.02678
1.05888
1.08914
1.11728
1.14306
1.16621
1.18652
1.20378
1.21781
1.22847
1.23564
1.23924
0.150961
0.152257
0.154853
0.158756
0.163977
0.170531
0.178434
0.187706
0.19837
0.21045
0.223971
0.238958
0.255438
0.273436
0.292974
0.314073
0.336749
0.361014
0.386873
0.414324
0.443354
0.473944
0.506058
0.539651
0.57466
0.611009
0.648602
0.687325
0.727045
0.767607
0.808837
0.850539
0.892494
0.934466
0.976198
1.01742
1.05783
1.09714
1.13504
1.17121
1.20533
1.2371
1.26622
1.2924
1.31538
1.33491
1.35081
1.36288
1.371
1.37509
0.161865
0.163271
0.166084
0.170316
0.175978
0.183087
0.191662
0.201727
0.213307
0.226431
0.241127
0.257428
0.275363
0.294964
0.316258
0.339271
0.364025
0.390537
0.418817
0.448868
0.480681
0.514239
0.549508
0.586445
0.624985
0.665049
0.706537
0.749327
0.793276
0.838217
0.88396
0.930289
0.976963
1.02372
1.07027
1.11631
1.16151
1.20553
1.24801
1.28861
1.32695
1.36269
1.39547
1.42497
1.45088
1.47293
1.49087
1.50451
1.51369
1.5183
0.172445
0.173959
0.176992
0.181553
0.187657
0.195323
0.204573
0.215435
0.227937
0.242113
0.257998
0.275626
0.295036
0.316263
0.339343
0.364307
0.391185
0.419998
0.450765
0.483492
0.518177
0.554806
0.593352
0.633769
0.675996
0.719951
0.765531
0.812608
0.861029
0.910616
0.961161
1.01243
1.06416
1.11605
1.1678
1.21904
1.26943
1.31857
1.36606
1.4115
1.45447
1.49456
1.53137
1.56453
1.59368
1.6185
1.63871
1.65408
1.66443
1.66964
0.182657
0.18428
0.187531
0.192421
0.198968
0.207191
0.217118
0.228779
0.242207
0.257441
0.274521
0.29349
0.31439
0.337265
0.362157
0.389107
0.418149
0.449316
0.482631
0.51811
0.555756
0.595562
0.637505
0.681544
0.72762
0.77565
0.82553
0.877127
0.930279
0.984798
1.04046
1.09701
1.15416
1.21158
1.26893
1.32583
1.38185
1.43657
1.48954
1.54028
1.58833
1.63322
1.67448
1.71169
1.74443
1.77233
1.79507
1.81237
1.82402
1.82988
0.192456
0.194188
0.197656
0.202874
0.209861
0.21864
0.229242
0.241701
0.256056
0.27235
0.290631
0.310947
0.333349
0.357888
0.384615
0.413579
0.444825
0.478392
0.514315
0.552617
0.593311
0.636398
0.68186
0.729664
0.779754
0.83205
0.886447
0.942808
1.00097
1.06072
1.12184
1.18404
1.24701
1.31039
1.37381
1.43683
1.49899
1.55981
1.61877
1.67535
1.729
1.7792
1.8254
1.86711
1.90385
1.93518
1.96073
1.98018
1.99329
1.99989
0.201794
0.203633
0.207317
0.21286
0.220283
0.229614
0.240886
0.254139
0.269417
0.28677
0.306251
0.327916
0.351826
0.37804
0.406619
0.43762
0.471101
0.507111
0.545694
0.586886
0.630711
0.677178
0.72628
0.777992
0.832263
0.88902
0.948157
1.00954
1.07299
1.13831
1.20524
1.27349
1.34271
1.41253
1.48252
1.55219
1.62106
1.68855
1.75411
1.81712
1.87697
1.93304
1.98473
2.03145
2.07265
2.10783
2.13654
2.15841
2.17315
2.18057
0.210621
0.212565
0.216461
0.222324
0.230178
0.240053
0.251988
0.266027
0.28222
0.300623
0.321299
0.344311
0.369728
0.39762
0.428058
0.461113
0.496852
0.535338
0.576628
0.620769
0.6678
0.717741
0.770599
0.826357
0.884976
0.946389
1.0105
1.07716
1.14621
1.21744
1.29056
1.36528
1.44123
1.51799
1.5951
1.67203
1.74821
1.82303
1.89585
1.96596
2.03268
2.0953
2.15311
2.20544
2.25164
2.29113
2.32339
2.34799
2.36457
2.37293
0.218882
0.220929
0.225032
0.231209
0.239485
0.249894
0.26248
0.277292
0.294387
0.313828
0.335685
0.360032
0.386947
0.416513
0.448811
0.483925
0.521936
0.562921
0.606953
0.654094
0.704396
0.757897
0.814618
0.874556
0.937684
1.00395
1.07325
1.14547
1.22043
1.29792
1.37764
1.45929
1.54247
1.62673
1.71156
1.79639
1.88059
1.96346
2.04428
2.12227
2.19663
2.26654
2.3312
2.38982
2.44165
2.48601
2.52228
2.54995
2.56862
2.57803
0.226522
0.22867
0.232974
0.239455
0.248141
0.259071
0.272292
0.287859
0.305836
0.326294
0.349312
0.374975
0.403371
0.434595
0.468742
0.50591
0.546194
0.58969
0.636486
0.686662
0.74029
0.797424
0.858103
0.922344
0.990136
1.06144
1.13617
1.21421
1.2954
1.37951
1.46627
1.55532
1.64627
1.73863
1.83185
1.92529
2.01826
2.11
2.19967
2.28639
2.36926
2.44734
2.51969
2.5854
2.64358
2.69344
2.73425
2.76542
2.78647
2.79708
0.233483
0.235728
0.240226
0.247
0.256082
0.267514
0.281348
0.297646
0.316479
0.337927
0.362078
0.389027
0.418876
0.451731
0.487703
0.526905
0.569452
0.615454
0.665021
0.718253
0.775243
0.836067
0.900787
0.969439
1.04204
1.11855
1.19893
1.28307
1.3708
1.46192
1.55614
1.65311
1.75241
1.85351
1.95582
2.05866
2.16126
2.26276
2.36223
2.45868
2.55106
2.6383
2.7193
2.79301
2.85839
2.91451
2.9605
2.99566
3.01942
3.03139
0.239708
0.242044
0.246727
0.25378
0.263239
0.27515
0.289571
0.30657
0.326226
0.348627
0.373872
0.402068
0.433328
0.467775
0.505534
0.546737
0.591516
0.640004
0.69233
0.74862
0.808988
0.87354
0.94236
1.01551
1.09304
1.17494
1.26117
1.35166
1.44626
1.54477
1.6469
1.75232
1.86056
1.9711
2.08328
2.19638
2.30954
2.42181
2.53215
2.63943
2.74246
2.84
2.93078
3.01357
3.08714
3.15039
3.2023
3.24203
3.2689
3.28245
0.245137
0.247559
0.252415
0.259731
0.269545
0.281908
0.296883
0.314545
0.334982
0.358291
0.38458
0.41397
0.446589
0.482573
0.522065
0.565217
0.61218
0.663111
0.718163
0.777488
0.84123
0.909521
0.982479
1.0602
1.14275
1.23017
1.32245
1.41953
1.52131
1.62758
1.73809
1.85249
1.97032
2.09103
2.21392
2.33821
2.46296
2.58713
2.70954
2.82892
2.94391
3.05306
3.15493
3.24803
3.33096
3.40238
3.46109
3.50608
3.53653
3.5519
0.249712
0.252213
0.257228
0.264787
0.274929
0.287712
0.303202
0.321483
0.34265
0.36681
0.394084
0.424603
0.458512
0.495962
0.537116
0.582144
0.631222
0.68453
0.74225
0.804562
0.871642
0.943655
1.02076
1.10308
1.19073
1.28378
1.38227
1.48617
1.5954
1.70981
1.82915
1.95309
2.08117
2.21281
2.34731
2.4838
2.62128
2.7586
2.89443
3.02735
3.15579
3.27809
3.39255
3.49745
3.5911
3.67193
3.73849
3.78956
3.82417
3.84164
0.253372
0.255946
0.261106
0.268883
0.279324
0.292487
0.308448
0.327294
0.349131
0.374076
0.402261
0.433831
0.468945
0.507773
0.550497
0.597308
0.648407
0.704001
0.764301
0.82952
0.899869
0.975554
1.05677
1.14369
1.23647
1.33523
1.44005
1.55095
1.66791
1.7908
1.91942
2.05345
2.19245
2.33584
2.48289
2.63268
2.78414
2.93598
3.08676
3.23485
3.37846
3.51568
3.64451
3.76293
3.86893
3.96063
4.0363
4.09444
4.13389
4.15382
0.256063
0.258699
0.263986
0.271957
0.282661
0.296161
0.312539
0.33189
0.354328
0.379979
0.408989
0.441516
0.477734
0.517832
0.562011
0.610488
0.663487
0.721246
0.784007
0.852019
0.925533
1.0048
1.09005
1.18152
1.27941
1.38391
1.49514
1.61319
1.73809
1.86978
2.00809
2.15276
2.30336
2.45934
2.61993
2.7842
2.95099
3.1189
3.28634
3.45145
3.61221
3.76639
3.91168
4.04566
4.16596
4.2703
4.35658
4.423
4.46812
4.49093
0.257729
0.260419
0.265813
0.273947
0.284874
0.298662
0.315397
0.335183
0.358141
0.384409
0.414144
0.447517
0.484721
0.52596
0.57146
0.621458
0.676209
0.735979
0.801046
0.871697
0.948227
1.03093
1.1201
1.21602
1.31895
1.42915
1.54681
1.67211
1.80512
1.94586
2.09424
2.25006
2.41294
2.58234
2.75752
2.93752
3.12111
3.30679
3.49278
3.67704
3.85722
4.03077
4.19496
4.34694
4.48386
4.60296
4.70169
4.77784
4.82964
4.85586
0.258319
0.261051
0.26653
0.274795
0.285901
0.299921
0.316947
0.337089
0.360477
0.38726
0.417604
0.451699
0.489749
0.531981
0.57864
0.629989
0.686311
0.747904
0.815083
0.888177
0.967525
1.05347
1.14638
1.24658
1.35442
1.47022
1.59427
1.72681
1.86802
2.01802
2.17679
2.34422
2.52001
2.70368
2.89452
3.09156
3.29353
3.49883
3.70552
3.91131
4.11354
4.30926
4.49525
4.66813
4.82447
4.96091
5.07433
5.162
5.22174
5.252
0.257786
0.260548
0.266088
0.274448
0.285684
0.299874
0.317116
0.337527
0.361244
0.388427
0.419253
0.453925
0.492665
0.535718
0.58335
0.63585
0.693529
0.75672
0.825775
0.901067
0.982985
1.07193
1.16832
1.27258
1.38511
1.50633
1.63662
1.77633
1.92575
2.0851
2.2545
2.43393
2.62321
2.82195
3.02951
3.24495
3.46698
3.69393
3.92369
4.15373
4.38104
4.60219
4.81342
5.01069
5.18984
5.34677
5.47763
5.57905
5.64827
5.68338
0.256088
0.258867
0.264442
0.272856
0.284169
0.298463
0.315839
0.336423
0.360358
0.387813
0.418978
0.454068
0.493321
0.537
0.585393
0.638814
0.697603
0.762127
0.832777
0.909973
0.994154
1.08578
1.18535
1.29334
1.41026
1.53662
1.67291
1.81959
1.9771
2.1458
2.32593
2.51765
2.72091
2.93545
3.16076
3.39597
3.63983
3.89061
4.14607
4.40342
4.65929
4.90972
5.15028
5.37613
5.58223
5.76353
5.91526
6.03317
6.11382
6.15477
0.253189
0.25597
0.261552
0.269978
0.28131
0.295635
0.313058
0.333709
0.357741
0.38533
0.416677
0.452008
0.491577
0.535665
0.58458
0.638661
0.698278
0.763829
0.835748
0.914498
1.00057
1.0945
1.19684
1.30816
1.42907
1.56018
1.7021
1.85545
2.02079
2.19866
2.3895
2.59363
2.81122
3.0422
3.28621
3.54253
3.81001
4.08693
4.37097
4.65909
4.94751
5.23173
5.5065
5.76603
6.00416
6.21465
6.39151
6.52938
6.6239
6.67196
0.249061
0.251829
0.257387
0.265779
0.277069
0.291346
0.308721
0.329328
0.353325
0.380898
0.412255
0.447636
0.487306
0.531563
0.580736
0.635186
0.695311
0.761544
0.834355
0.914255
1.00179
1.09756
1.20219
1.31634
1.44072
1.57606
1.72312
1.88264
2.0554
2.2421
2.44342
2.65991
2.89198
3.13982
3.40334
3.68204
3.97493
4.2804
4.5961
4.91883
5.24441
5.56769
5.88252
6.18194
6.45839
6.70407
6.91144
7.07368
7.18518
7.24195
0.243681
0.246422
0.251924
0.260233
0.271416
0.285563
0.302789
0.323232
0.347055
0.37445
0.405634
0.440856
0.480394
0.52456
0.573701
0.6282
0.688479
0.755004
0.828284
0.908873
0.997376
1.09445
1.20079
1.31717
1.44439
1.58331
1.73483
1.89988
2.07942
2.27439
2.48572
2.71425
2.9607
3.22561
3.50921
3.81135
4.13134
4.46778
4.81844
5.18
5.54796
5.91649
6.27841
6.62532
6.94791
7.23638
7.48111
7.67332
7.80579
7.87336
0.237039
0.239735
0.245148
0.253323
0.264331
0.278262
0.295233
0.315386
0.338888
0.365934
0.39675
0.431592
0.470748
0.514542
0.563337
0.617534
0.677581
0.743971
0.817247
0.898007
0.986907
1.08466
1.19206
1.30995
1.43924
1.58094
1.73608
1.9058
2.09127
2.29368
2.51427
2.7542
3.0146
3.29642
3.60035
3.9267
4.27524
4.64499
5.03397
5.43894
5.85517
6.27617
6.69362
7.0974
7.47596
7.81687
8.10775
8.3372
8.4958
8.57683
0.229132
0.231765
0.237054
0.245045
0.255806
0.269431
0.286037
0.305768
0.328794
0.355314
0.385557
0.419785
0.458294
0.501418
0.549532
0.603053
0.662448
0.728236
0.80099
0.881349
0.970015
1.06776
1.17545
1.29402
1.42449
1.56799
1.72574
1.89905
2.08933
2.29806
2.5268
2.77712
3.0506
3.34871
3.67273
4.02361
4.40177
4.80687
5.23746
5.69065
6.16168
6.64353
7.12667
7.59893
8.04591
8.45168
8.80011
9.07624
9.2677
9.36569
0.219967
0.222521
0.22765
0.235402
0.245844
0.259071
0.275199
0.294373
0.316764
0.342572
0.372029
0.4054
0.442985
0.485126
0.532204
0.584651
0.642948
0.707633
0.779307
0.85864
0.946376
1.04335
1.15047
1.26878
1.39939
1.54357
1.70269
1.87827
2.07196
2.28554
2.52094
2.78018
3.06534
3.37854
3.72177
4.09683
4.50503
4.94698
5.42215
5.92837
6.46127
7.01358
7.57459
8.1298
8.66113
9.14796
9.56891
9.90412
10.1372
10.2567
0.209562
0.212019
0.216953
0.224412
0.234462
0.247196
0.262732
0.281211
0.302804
0.327712
0.356164
0.388426
0.424802
0.465634
0.511309
0.562265
0.618993
0.682046
0.752043
0.829679
0.915735
1.01108
1.11671
1.2337
1.36329
1.50685
1.66591
1.84219
2.03759
2.25419
2.4943
2.76043
3.05526
3.38161
3.74236
4.14033
4.57805
5.05745
5.5794
6.1431
6.74518
7.37872
8.03215
8.68839
9.32474
9.91403
10.4274
10.8381
11.1243
11.2712
0.197949
0.20029
0.204993
0.212104
0.221688
0.233837
0.248664
0.266309
0.286941
0.310756
0.337982
0.368882
0.403756
0.442946
0.486839
0.535874
0.590546
0.651413
0.719107
0.79434
0.877914
0.970737
1.07383
1.18836
1.31563
1.45712
1.6145
1.78966
1.98474
2.20214
2.44455
2.71496
3.0167
3.35339
3.72892
4.14734
4.6127
5.12872
5.69835
6.32293
7.00116
7.72754
8.4905
9.27054
10.0391
10.7597
11.3923
11.9002
12.2545
12.4363
0.185167
0.187375
0.191812
0.198522
0.207567
0.219036
0.23304
0.249714
0.269221
0.291752
0.317531
0.346813
0.379892
0.417105
0.458832
0.505508
0.557624
0.615738
0.680483
0.752576
0.832831
0.922174
1.02166
1.13249
1.25603
1.39384
1.54772
1.71971
1.91215
2.12773
2.3695
2.64095
2.94604
3.28925
3.67556
4.11045
4.59978
5.14957
5.76556
6.45239
7.21231
8.04313
8.93517
9.86758
10.8049
11.6969
12.4855
13.1193
13.5608
13.7868
0.17127
0.173328
0.177465
0.18372
0.192155
0.202854
0.215922
0.23149
0.249712
0.270772
0.294885
0.322296
0.35329
0.388191
0.42737
0.471248
0.520307
0.575094
0.636233
0.704433
0.780507
0.865382
0.960123
1.06595
1.18427
1.31669
1.46509
1.63163
1.81883
2.02958
2.26729
2.53588
2.83993
3.18474
3.57642
4.02197
4.5293
5.10718
5.76492
6.51178
7.35566
8.30062
9.34264
10.4629
11.6193
12.7407
13.7368
14.534
15.0857
15.3667
0.156322
0.158214
0.162016
0.167767
0.175524
0.185365
0.19739
0.21172
0.228503
0.24791
0.270145
0.29544
0.324065
0.356328
0.392583
0.433233
0.478739
0.529629
0.586505
0.650059
0.721083
0.800488
0.889325
0.988808
1.10034
1.22557
1.36639
1.52504
1.70414
1.90675
2.13652
2.39775
2.69551
3.03586
3.42596
3.87431
4.39095
4.98763
5.67791
6.47697
7.40077
8.46394
9.67477
11.025
12.4715
13.9127
15.1899
16.1974
16.8842
17.2306
0.140398
0.142108
0.145545
0.150744
0.157758
0.166659
0.177538
0.190508
0.205704
0.223286
0.243441
0.266385
0.29237
0.321682
0.354651
0.391655
0.433129
0.479567
0.531542
0.589709
0.654824
0.727763
0.809538
0.901327
1.00451
1.12068
1.25176
1.39995
1.56793
1.75883
1.97642
2.22524
2.51073
2.83949
3.21957
3.66073
4.17496
4.77694
5.48464
6.31994
7.30908
8.4822
9.87015
11.4935
13.3318
15.2515
16.9154
18.1842
19.026
19.4436
0.123585
0.125099
0.128142
0.132745
0.138956
0.14684
0.156478
0.167972
0.181445
0.197041
0.214928
0.235303
0.258393
0.28446
0.313803
0.346769
0.383753
0.425214
0.471676
0.523746
0.582127
0.647634
0.721219
0.80399
0.897252
1.00254
1.12168
1.25683
1.41058
1.58604
1.78699
2.01799
2.28465
2.59386
2.95416
3.37621
3.8734
4.46274
5.166
6.01135
7.03573
8.28797
9.83247
11.7496
14.1129
16.8488
19.0382
20.6005
21.5945
22.0766
0.105978
0.107283
0.109906
0.113874
0.119228
0.126025
0.134337
0.144252
0.155877
0.16934
0.184788
0.202394
0.222357
0.244909
0.270315
0.29888
0.330956
0.366951
0.407332
0.452644
0.503517
0.560686
0.625013
0.697507
0.77936
0.871985
0.977066
1.09662
1.23308
1.38939
1.56916
1.77679
2.01777
2.29892
2.62883
3.01839
3.48159
4.03655
4.70722
5.52573
6.53653
7.80352
9.42425
11.5615
14.5234
18.9946
21.7903
23.5874
24.6768
25.1939
0.0876816
0.088767
0.0909482
0.0942465
0.0986966
0.104346
0.111255
0.119499
0.129168
0.140369
0.153226
0.167887
0.184518
0.203316
0.224507
0.248349
0.275142
0.305234
0.339025
0.376982
0.419647
0.467656
0.521752
0.582814
0.651884
0.730199
0.819247
0.920815
1.03707
1.17067
1.32487
1.5037
1.71221
1.95675
2.24541
2.58854
2.99962
3.49632
4.10227
4.84954
5.78288
6.96706
8.50125
10.5507
13.4266
17.8176
20.543
22.2835
23.3335
23.8302
0.0688091
0.0696654
0.071387
0.0739865
0.0774923
0.0819424
0.0873855
0.0938813
0.101501
0.110331
0.12047
0.132034
0.145159
0.160001
0.17674
0.195583
0.216773
0.240588
0.267351
0.297439
0.331291
0.369423
0.412441
0.461062
0.51614
0.578694
0.64995
0.731393
0.824832
0.93249
1.05711
1.20213
1.37185
1.57173
1.80879
2.09206
2.43335
2.84822
3.35738
3.98868
4.7798
5.78205
7.06449
8.71472
10.8162
13.3075
15.2822
16.6718
17.5448
17.9647
0.0494789
0.0500969
0.0513462
0.0532236
0.0557526
0.0589621
0.0628879
0.0675733
0.0730707
0.0794419
0.0867595
0.0951084
0.104587
0.115308
0.127405
0.141029
0.156356
0.173591
0.192971
0.214772
0.239319
0.266992
0.298238
0.33359
0.373681
0.41927
0.471275
0.530808
0.599232
0.678224
0.769871
0.876784
1.00226
1.15052
1.32695
1.53857
1.79453
2.10687
2.49145
2.96907
3.5667
4.31798
5.26106
6.42863
7.81731
9.31515
10.6077
11.5777
12.2104
12.5204
0.0298162
0.030178
0.0309341
0.0320688
0.0335962
0.0355343
0.0379048
0.0407342
0.0440543
0.0479026
0.0523232
0.0573678
0.0630959
0.069577
0.0768911
0.0851311
0.0944043
0.104835
0.116569
0.129776
0.144652
0.161432
0.18039
0.201854
0.226214
0.253938
0.285594
0.321871
0.363616
0.411874
0.467948
0.533474
0.610524
0.701749
0.810561
0.941388
1.10001
1.29398
1.53314
1.83015
2.20068
2.6628
3.23386
3.92218
4.70995
5.52877
6.25664
6.82174
7.19931
7.38683
0.00995893
0.0100726
0.0103233
0.0107024
0.0112131
0.0118611
0.0126537
0.0135997
0.0147098
0.0159966
0.0174749
0.019162
0.021078
0.023246
0.0256931
0.0284503
0.0315538
0.0350455
0.0389742
0.0433968
0.0483801
0.0540025
0.0603569
0.0675536
0.0757244
0.0850278
0.0956557
0.107842
0.121873
0.138105
0.15698
0.179056
0.205039
0.235834
0.272607
0.316872
0.370601
0.436365
0.51749
0.61819
0.743563
0.899205
1.08992
1.31678
1.57207
1.83388
2.06881
2.25382
2.37884
2.44134
)
;

boundaryField
{
    walls
    {
        type            calculated;
        value           nonuniform List<scalar> 
200
(
0
0
0
0
0
0
0
0
0
0
0
0
0
0
0
0
0
0
0
0
0
0
0
0
0
0
0
0
0
0
0
0
0
0
0
0
0
0
0
0
0
0
0
0
0
0
0
0
0
0
0.00626445
0.0187727
0.0312575
0.0437167
0.0561219
0.0684559
0.0806999
0.0928333
0.104833
0.116675
0.128331
0.139771
0.150961
0.161865
0.172445
0.182657
0.192456
0.201794
0.210621
0.218882
0.226522
0.233483
0.239708
0.245137
0.249712
0.253372
0.256063
0.257729
0.258319
0.257786
0.256088
0.253189
0.249061
0.243681
0.237039
0.229132
0.219967
0.209562
0.197949
0.185167
0.17127
0.156322
0.140398
0.123585
0.105978
0.0876816
0.0688091
0.0494789
0.0298162
0.00995893
0.0478947
0.143941
0.240777
0.33895
0.438999
0.541469
0.646917
0.75591
0.869029
0.986874
1.11006
1.23924
1.37509
1.5183
1.66964
1.82988
1.99989
2.18057
2.37293
2.57803
2.79708
3.03139
3.28245
3.5519
3.84164
4.15382
4.49093
4.85586
5.252
5.68338
6.15477
6.67196
7.24195
7.87336
8.57683
9.36569
10.2567
11.2712
12.4363
13.7868
15.3667
17.2306
19.4436
22.0766
25.1939
23.8302
17.9647
12.5204
7.38683
2.44134
0
0
0
0
0
0
0
0
0
0
0
0
0
0
0
0
0
0
0
0
0
0
0
0
0
0
0
0
0
0
0
0
0
0
0
0
0
0
0
0
0
0
0
0
0
0
0
0
0
0
)
;
    }
    frontAndBack
    {
        type            empty;
    }
}


// ************************************************************************* //
