/*--------------------------------*- C++ -*----------------------------------*\
| =========                 |                                                 |
| \\      /  F ield         | OpenFOAM: The Open Source CFD Toolbox           |
|  \\    /   O peration     | Version:  2406                                  |
|   \\  /    A nd           | Website:  www.openfoam.com                      |
|    \\/     M anipulation  |                                                 |
\*---------------------------------------------------------------------------*/
FoamFile
{
    version     2.0;
    format      ascii;
    arch        "LSB;label=32;scalar=64";
    class       volScalarField;
    location    "1.55";
    object      T;
}
// * * * * * * * * * * * * * * * * * * * * * * * * * * * * * * * * * * * * * //

dimensions      [0 0 0 1 0 0 0];

internalField   nonuniform List<scalar> 
2500
(
0.229143
0.229394
0.229894
0.230644
0.231643
0.232889
0.234381
0.236117
0.238095
0.240311
0.242762
0.245444
0.248352
0.251482
0.254827
0.25838
0.262133
0.266078
0.270205
0.274503
0.27896
0.283564
0.2883
0.293152
0.298105
0.303141
0.30824
0.313383
0.318549
0.323716
0.328861
0.33396
0.338988
0.343922
0.348735
0.353404
0.357901
0.362202
0.366283
0.37012
0.37369
0.376971
0.379943
0.382587
0.384886
0.386826
0.388393
0.389578
0.390373
0.390771
0.229394
0.229647
0.230151
0.230907
0.231914
0.23317
0.234674
0.236424
0.238418
0.240652
0.243124
0.245829
0.248762
0.251919
0.255293
0.258877
0.262664
0.266645
0.27081
0.275148
0.279647
0.284294
0.289076
0.293976
0.298978
0.304065
0.309216
0.314413
0.319633
0.324855
0.330055
0.335209
0.340294
0.345282
0.35015
0.354872
0.359421
0.363773
0.367902
0.371784
0.375397
0.378717
0.381725
0.384402
0.386729
0.388693
0.39028
0.39148
0.392284
0.392687
0.229894
0.230151
0.230663
0.231431
0.232454
0.233731
0.235259
0.237038
0.239064
0.241335
0.243848
0.246598
0.249581
0.252792
0.256225
0.259872
0.263726
0.267778
0.272019
0.276437
0.28102
0.285755
0.290629
0.295625
0.300726
0.305914
0.31117
0.316473
0.321802
0.327134
0.332446
0.337712
0.342908
0.348007
0.352985
0.357813
0.362467
0.366919
0.371145
0.375119
0.378818
0.382218
0.385298
0.38804
0.390424
0.392436
0.394062
0.395291
0.396116
0.396529
0.230644
0.230907
0.231431
0.232217
0.233265
0.234571
0.236136
0.237958
0.240033
0.242359
0.244934
0.247752
0.25081
0.254103
0.257623
0.261365
0.26532
0.26948
0.273834
0.278373
0.283083
0.287951
0.292963
0.298102
0.303352
0.308693
0.314107
0.319572
0.325065
0.330564
0.336043
0.341478
0.346842
0.352109
0.357251
0.362242
0.367053
0.371658
0.37603
0.380142
0.38397
0.387491
0.390681
0.393521
0.395991
0.398076
0.399761
0.401035
0.40189
0.402318
0.231643
0.231914
0.232454
0.233265
0.234344
0.235691
0.237305
0.239183
0.241324
0.243725
0.246382
0.249292
0.25245
0.255851
0.259489
0.263357
0.267447
0.271751
0.276259
0.280958
0.285838
0.290884
0.296081
0.301414
0.306863
0.312411
0.318036
0.323717
0.329431
0.335153
0.340858
0.34652
0.352111
0.357603
0.362968
0.368176
0.3732
0.37801
0.382578
0.386877
0.390881
0.394564
0.397902
0.400874
0.40346
0.405643
0.407408
0.408743
0.409638
0.410087
0.232889
0.23317
0.233731
0.234571
0.235691
0.237089
0.238764
0.240714
0.242937
0.24543
0.248191
0.251216
0.254499
0.258037
0.261823
0.26585
0.27011
0.274595
0.279295
0.284197
0.289291
0.29456
0.299991
0.305566
0.311267
0.317075
0.322967
0.328921
0.334913
0.340918
0.346908
0.352857
0.358734
0.36451
0.370156
0.375641
0.380934
0.386004
0.390821
0.395357
0.399583
0.403471
0.406997
0.410138
0.412871
0.415179
0.417045
0.418456
0.419403
0.419878
0.234381
0.234674
0.235259
0.236136
0.237305
0.238764
0.240513
0.242549
0.244871
0.247476
0.250362
0.253524
0.256959
0.260661
0.264625
0.268844
0.27331
0.278014
0.282946
0.288094
0.293445
0.298985
0.304699
0.310568
0.316574
0.322696
0.328912
0.335198
0.341528
0.347876
0.354213
0.360509
0.366735
0.372858
0.378846
0.384667
0.390288
0.395675
0.400797
0.405622
0.410119
0.414259
0.418014
0.42136
0.424274
0.426734
0.428724
0.430229
0.431239
0.431745
0.236117
0.236424
0.237038
0.237958
0.239183
0.240714
0.242549
0.244686
0.247124
0.24986
0.252892
0.256217
0.259829
0.263725
0.267898
0.272342
0.277049
0.28201
0.287215
0.292651
0.298307
0.304166
0.310213
0.316429
0.322794
0.329288
0.335886
0.342564
0.349293
0.356047
0.362795
0.369504
0.376143
0.382677
0.389072
0.395293
0.401303
0.407068
0.412551
0.41772
0.42254
0.426979
0.431009
0.4346
0.437728
0.44037
0.442508
0.444125
0.445211
0.445755
0.238095
0.238418
0.239064
0.240033
0.241324
0.242937
0.244871
0.247124
0.249695
0.252582
0.255782
0.259293
0.263109
0.267228
0.271642
0.276345
0.28133
0.286587
0.292107
0.297876
0.303882
0.31011
0.316541
0.323159
0.329941
0.336865
0.343906
0.351038
0.358232
0.365457
0.372681
0.379871
0.386991
0.394004
0.400873
0.40756
0.414025
0.42023
0.426137
0.431708
0.436906
0.441696
0.446046
0.449924
0.453304
0.45616
0.458471
0.46022
0.461393
0.461982
0.240311
0.240652
0.241335
0.242359
0.243725
0.24543
0.247476
0.24986
0.252582
0.255639
0.25903
0.262751
0.266799
0.271169
0.275856
0.280854
0.286154
0.291748
0.297625
0.303773
0.310178
0.316824
0.323695
0.33077
0.338027
0.345442
0.35299
0.360641
0.368366
0.376131
0.383903
0.391644
0.399316
0.40688
0.414294
0.421517
0.428507
0.43522
0.441615
0.44765
0.453285
0.458481
0.463202
0.467413
0.471083
0.474186
0.476698
0.4786
0.479876
0.480516
0.242762
0.243124
0.243848
0.244934
0.246382
0.248191
0.250362
0.252892
0.255782
0.25903
0.262634
0.26659
0.270897
0.275549
0.280542
0.285869
0.291523
0.297494
0.303773
0.310346
0.3172
0.324319
0.331683
0.339274
0.347067
0.355037
0.363157
0.371396
0.379723
0.388101
0.396493
0.40486
0.41316
0.42135
0.429385
0.43722
0.444808
0.452101
0.459054
0.46562
0.471755
0.477416
0.482561
0.487153
0.491158
0.494545
0.497287
0.499364
0.500758
0.501457
0.245444
0.245829
0.246598
0.247752
0.249292
0.251216
0.253524
0.256217
0.259293
0.262751
0.26659
0.270808
0.275401
0.280366
0.285698
0.291391
0.297438
0.303829
0.310555
0.317602
0.324956
0.332601
0.340517
0.348683
0.357076
0.365667
0.374429
0.383328
0.39233
0.401396
0.410487
0.419559
0.428567
0.437464
0.446201
0.454728
0.462993
0.470944
0.47853
0.485699
0.492402
0.498591
0.50422
0.509246
0.513632
0.517342
0.520347
0.522624
0.524152
0.524918
0.248352
0.248762
0.249581
0.25081
0.25245
0.254499
0.256959
0.259829
0.263109
0.266799
0.270897
0.275401
0.28031
0.285619
0.291324
0.29742
0.3039
0.310754
0.317973
0.325543
0.333451
0.341678
0.350206
0.359011
0.368069
0.377352
0.386827
0.396461
0.406216
0.416051
0.425922
0.435784
0.445586
0.455276
0.464801
0.474106
0.483133
0.491825
0.500125
0.507976
0.515321
0.522107
0.528283
0.533802
0.538619
0.542696
0.546
0.548503
0.550183
0.551027
0.251482
0.251919
0.252792
0.254103
0.255851
0.258037
0.260661
0.263725
0.267228
0.271169
0.275549
0.280366
0.285619
0.291304
0.297417
0.303954
0.310908
0.31827
0.326029
0.334175
0.34269
0.351558
0.360759
0.370269
0.380062
0.390108
0.400373
0.410821
0.421411
0.4321
0.44284
0.45358
0.464267
0.474843
0.485249
0.495425
0.505306
0.51483
0.523931
0.532547
0.540615
0.548075
0.554869
0.560942
0.566247
0.570739
0.57438
0.577139
0.578992
0.579922
0.254827
0.255293
0.256225
0.257623
0.259489
0.261823
0.264625
0.267898
0.271642
0.275856
0.280542
0.285698
0.291324
0.297417
0.303974
0.310991
0.318461
0.326376
0.334725
0.343498
0.352678
0.362248
0.372186
0.382469
0.393069
0.403954
0.415089
0.426434
0.437947
0.44958
0.461281
0.472995
0.484664
0.496225
0.507612
0.518758
0.529593
0.540046
0.550046
0.55952
0.568399
0.576615
0.584102
0.590801
0.596654
0.601613
0.605635
0.608683
0.610731
0.611759
0.25838
0.258877
0.259872
0.261365
0.263357
0.26585
0.268844
0.272342
0.276345
0.280854
0.285869
0.291391
0.29742
0.303954
0.310991
0.318527
0.326555
0.33507
0.34406
0.353514
0.363417
0.373751
0.384493
0.39562
0.407102
0.418906
0.430994
0.443325
0.455853
0.468525
0.481287
0.494077
0.506833
0.519485
0.531961
0.544186
0.556083
0.567572
0.578574
0.589007
0.598794
0.607857
0.616123
0.623523
0.629994
0.635479
0.639928
0.643302
0.645569
0.646707
0.262133
0.262664
0.263726
0.26532
0.267447
0.27011
0.27331
0.277049
0.28133
0.286154
0.291523
0.297438
0.3039
0.310908
0.318461
0.326555
0.335187
0.344348
0.354031
0.364222
0.374908
0.38607
0.397686
0.409731
0.422173
0.43498
0.44811
0.461519
0.475158
0.488972
0.502899
0.516876
0.53083
0.544688
0.55837
0.571791
0.584867
0.597509
0.609627
0.621131
0.631932
0.641943
0.651082
0.659269
0.666432
0.672507
0.677438
0.681178
0.683692
0.684954
0.266078
0.266645
0.267778
0.26948
0.271751
0.274595
0.278014
0.28201
0.286587
0.291748
0.297494
0.303829
0.310754
0.31827
0.326376
0.33507
0.344348
0.354205
0.364633
0.375619
0.38715
0.399207
0.411768
0.424807
0.438292
0.452188
0.466452
0.481038
0.495891
0.510954
0.52616
0.541439
0.556713
0.571901
0.586913
0.601659
0.616043
0.629965
0.643325
0.656021
0.667954
0.679025
0.689139
0.698208
0.706148
0.712886
0.718357
0.722509
0.725301
0.726703
0.270205
0.27081
0.272019
0.273834
0.276259
0.279295
0.282946
0.287215
0.292107
0.297625
0.303773
0.310555
0.317973
0.326029
0.334725
0.34406
0.354031
0.364633
0.375858
0.387698
0.400137
0.413157
0.426737
0.44085
0.455464
0.47054
0.486036
0.501901
0.518078
0.534504
0.551109
0.567815
0.584539
0.601189
0.61767
0.633879
0.64971
0.665051
0.679791
0.693816
0.707011
0.719265
0.730471
0.740527
0.749338
0.75682
0.762899
0.767514
0.770618
0.772177
0.274503
0.275148
0.276437
0.278373
0.280958
0.284197
0.288094
0.292651
0.297876
0.303773
0.310346
0.317602
0.325543
0.334175
0.343498
0.353514
0.364222
0.375619
0.387698
0.40045
0.413862
0.427916
0.442592
0.457861
0.473691
0.490043
0.506872
0.524124
0.54174
0.559651
0.577783
0.59605
0.614362
0.63262
0.650717
0.668541
0.685971
0.702886
0.719159
0.73466
0.749262
0.762837
0.775264
0.786425
0.796214
0.804531
0.811293
0.816429
0.819884
0.82162
0.27896
0.279647
0.28102
0.283083
0.285838
0.289291
0.293445
0.298307
0.303882
0.310178
0.3172
0.324956
0.333451
0.34269
0.352678
0.363417
0.374908
0.38715
0.400137
0.413862
0.428312
0.443473
0.459322
0.475833
0.492971
0.510698
0.528966
0.54772
0.566895
0.586421
0.606215
0.626187
0.646238
0.666259
0.686133
0.705735
0.724933
0.74359
0.761563
0.778706
0.794876
0.809927
0.823719
0.83612
0.847004
0.85626
0.86379
0.869512
0.873363
0.875298
0.283564
0.284294
0.285755
0.287951
0.290884
0.29456
0.298985
0.304166
0.31011
0.316824
0.324319
0.332601
0.341678
0.351558
0.362248
0.373751
0.38607
0.399207
0.413157
0.427916
0.443473
0.459813
0.476916
0.494755
0.513297
0.532501
0.552319
0.572693
0.593556
0.614832
0.636433
0.658263
0.680213
0.702166
0.723991
0.745552
0.766702
0.787286
0.807145
0.826116
0.844032
0.860731
0.876052
0.889841
0.901957
0.912269
0.920663
0.927046
0.931343
0.933503
0.2883
0.289076
0.290629
0.292963
0.296081
0.299991
0.304699
0.310213
0.316541
0.323695
0.331683
0.340517
0.350206
0.360759
0.372186
0.384493
0.397686
0.411768
0.426737
0.442592
0.459322
0.476916
0.495354
0.51461
0.534653
0.55544
0.576924
0.599042
0.621727
0.644898
0.66846
0.692311
0.716334
0.740399
0.764366
0.788081
0.811384
0.8341
0.856052
0.877054
0.896918
0.915459
0.932491
0.94784
0.96134
0.972841
0.98221
0.989338
0.99414
0.996554
0.293152
0.293976
0.295625
0.298102
0.301414
0.305566
0.310568
0.316429
0.323159
0.33077
0.339274
0.348683
0.359011
0.370269
0.382469
0.39562
0.409731
0.424807
0.44085
0.457861
0.475833
0.494755
0.51461
0.535375
0.557018
0.579498
0.602766
0.626759
0.651406
0.676622
0.702309
0.728356
0.754636
0.781009
0.807323
0.833407
0.859083
0.884158
0.908431
0.931693
0.953731
0.974331
0.993283
1.01038
1.02544
1.03828
1.04876
1.05673
1.0621
1.0648
0.298105
0.298978
0.300726
0.303352
0.306863
0.311267
0.316574
0.322794
0.329941
0.338027
0.347067
0.357076
0.368069
0.380062
0.393069
0.407102
0.422173
0.438292
0.455464
0.473691
0.492971
0.513297
0.534653
0.557018
0.580363
0.604647
0.629822
0.655824
0.68258
0.710001
0.737984
0.766411
0.795147
0.82404
0.852922
0.88161
0.909902
0.937585
0.964433
0.99021
1.01467
1.03758
1.05869
1.07776
1.09458
1.10894
1.12065
1.12958
1.1356
1.13863
0.303141
0.304065
0.305914
0.308693
0.312411
0.317075
0.322696
0.329288
0.336865
0.345442
0.355037
0.365667
0.377352
0.390108
0.403954
0.418906
0.43498
0.452188
0.47054
0.490043
0.510698
0.532501
0.55544
0.579498
0.604647
0.63085
0.658056
0.686206
0.715222
0.745015
0.775476
0.806479
0.837883
0.869522
0.901215
0.932759
0.963935
0.994502
1.02421
1.05279
1.07996
1.10545
1.12898
1.15028
1.16909
1.18516
1.19829
1.20831
1.21507
1.21847
0.30824
0.309216
0.31117
0.314107
0.318036
0.322967
0.328912
0.335886
0.343906
0.35299
0.363157
0.374429
0.386827
0.400373
0.415089
0.430994
0.44811
0.466452
0.486036
0.506872
0.528966
0.552319
0.576924
0.602766
0.629822
0.658056
0.687423
0.717862
0.749296
0.781633
0.814761
0.848549
0.882845
0.917474
0.952238
0.986917
1.02127
1.05502
1.0879
1.1196
1.14981
1.17821
1.20447
1.22828
1.24934
1.26736
1.28211
1.29336
1.30096
1.30478
0.313383
0.314413
0.316473
0.319572
0.323717
0.328921
0.335198
0.342564
0.351038
0.360641
0.371396
0.383328
0.396461
0.410821
0.426434
0.443325
0.461519
0.481038
0.501901
0.524124
0.54772
0.572693
0.599042
0.626759
0.655824
0.686206
0.717862
0.750734
0.784746
0.819806
0.855799
0.89259
0.930017
0.967895
1.00601
1.04413
1.08197
1.11926
1.15566
1.19084
1.22445
1.25611
1.28545
1.31211
1.33573
1.35597
1.37256
1.38523
1.39379
1.3981
0.318549
0.319633
0.321802
0.325065
0.329431
0.334913
0.341528
0.349293
0.358232
0.368366
0.379723
0.39233
0.406216
0.421411
0.437947
0.455853
0.475158
0.495891
0.518078
0.54174
0.566895
0.593556
0.621727
0.651406
0.68258
0.715222
0.749296
0.784746
0.821501
0.859467
0.898531
0.938551
0.979362
1.02077
1.06254
1.10442
1.14611
1.1873
1.22762
1.26669
1.3041
1.33944
1.37227
1.40216
1.42869
1.45148
1.47017
1.48447
1.49414
1.49902
0.323716
0.324855
0.327134
0.330564
0.335153
0.340918
0.347876
0.356047
0.365457
0.376131
0.388101
0.401396
0.416051
0.4321
0.44958
0.468525
0.488972
0.510954
0.534504
0.559651
0.586421
0.614832
0.644898
0.676622
0.710001
0.745015
0.781633
0.819806
0.859467
0.900527
0.942871
0.986359
1.03082
1.07604
1.12179
1.16779
1.21372
1.25921
1.30388
1.3473
1.38899
1.42848
1.46526
1.49883
1.5287
1.55441
1.57553
1.59171
1.60266
1.60818
0.328861
0.330055
0.332446
0.336043
0.340858
0.346908
0.354213
0.362795
0.372681
0.383903
0.396493
0.410487
0.425922
0.44284
0.461281
0.481287
0.502899
0.52616
0.551109
0.577783
0.606215
0.636433
0.66846
0.702309
0.737984
0.775476
0.814761
0.855799
0.898531
0.942871
0.98871
1.03591
1.08429
1.13365
1.18372
1.23422
1.28479
1.33505
1.38456
1.43284
1.47934
1.52353
1.5648
1.60258
1.63628
1.66535
1.68928
1.70763
1.72007
1.72635
0.33396
0.335209
0.337712
0.341478
0.34652
0.352857
0.360509
0.369504
0.379871
0.391644
0.40486
0.419559
0.435784
0.45358
0.472995
0.494077
0.516876
0.541439
0.567815
0.59605
0.626187
0.658263
0.692311
0.728356
0.766411
0.806479
0.848549
0.89259
0.938551
0.986359
1.03591
1.08706
1.13965
1.19346
1.24822
1.30363
1.35931
1.41484
1.46973
1.52343
1.57536
1.62487
1.67127
1.71388
1.75199
1.78495
1.81214
1.83304
1.84721
1.85437
0.338988
0.340294
0.342908
0.346842
0.352111
0.358734
0.366735
0.376143
0.386991
0.399316
0.41316
0.428567
0.445586
0.464267
0.484664
0.506833
0.53083
0.556713
0.584539
0.614362
0.646238
0.680213
0.716334
0.754636
0.795147
0.837883
0.882845
0.930017
0.979362
1.03082
1.08429
1.13965
1.19674
1.25533
1.31517
1.37592
1.43719
1.49853
1.5594
1.6192
1.67724
1.7328
1.78506
1.83322
1.87645
1.91394
1.94494
1.96881
1.98503
1.99323
0.343922
0.345282
0.348007
0.352109
0.357603
0.36451
0.372858
0.382677
0.394004
0.40688
0.42135
0.437464
0.455276
0.474843
0.496225
0.519485
0.544688
0.571901
0.601189
0.63262
0.666259
0.702166
0.740399
0.781009
0.82404
0.869522
0.917474
0.967895
1.02077
1.07604
1.13365
1.19346
1.25533
1.31905
1.38436
1.45091
1.51831
1.58605
1.65357
1.72019
1.78514
1.84758
1.90657
1.96116
2.01033
2.05311
2.0886
2.11598
2.13462
2.14405
0.348735
0.35015
0.352985
0.357251
0.362968
0.370156
0.378846
0.389072
0.400873
0.414294
0.429385
0.446201
0.464801
0.485249
0.507612
0.531961
0.55837
0.586913
0.61767
0.650717
0.686133
0.723991
0.764366
0.807323
0.852922
0.901215
0.952238
1.00601
1.06254
1.12179
1.18372
1.24822
1.31517
1.38436
1.45554
1.52837
1.60244
1.67724
1.75214
1.8264
1.89916
1.96946
2.0362
2.09824
2.15437
2.20339
2.24418
2.27574
2.29726
2.30817
0.353404
0.354872
0.357813
0.362242
0.368176
0.375641
0.384667
0.395293
0.40756
0.421517
0.43722
0.454728
0.474106
0.495425
0.518758
0.544186
0.571791
0.601659
0.633879
0.668541
0.705735
0.745552
0.788081
0.833407
0.88161
0.932759
0.986917
1.04413
1.10442
1.16779
1.23422
1.30363
1.37592
1.45091
1.52837
1.60798
1.68932
1.77185
1.85493
1.93775
2.01935
2.09862
2.17432
2.24505
2.30937
2.36579
2.41291
2.44947
2.47445
2.48713
0.357901
0.359421
0.362467
0.367053
0.3732
0.380934
0.390288
0.401303
0.414025
0.428507
0.444808
0.462993
0.483133
0.505306
0.529593
0.556083
0.584867
0.616043
0.64971
0.685971
0.724933
0.766702
0.811384
0.859083
0.909902
0.963935
1.02127
1.08197
1.14611
1.21372
1.28479
1.35931
1.43719
1.51831
1.60244
1.68932
1.77852
1.86952
1.96164
2.05402
2.14563
2.2352
2.32127
2.4022
2.4762
2.54146
2.59619
2.63879
2.66797
2.68279
0.362202
0.363773
0.366919
0.371658
0.37801
0.386004
0.395675
0.407068
0.42023
0.43522
0.452101
0.470944
0.491825
0.51483
0.540046
0.567572
0.597509
0.629965
0.665051
0.702886
0.74359
0.787286
0.8341
0.884158
0.937585
0.994502
1.05502
1.11926
1.1873
1.25921
1.33505
1.41484
1.49853
1.58605
1.67724
1.77185
1.86952
1.96973
2.07181
2.17488
2.2778
2.37917
2.4773
2.57024
2.65581
2.73171
2.79567
2.84564
2.87994
2.89739
0.366283
0.367902
0.371145
0.37603
0.382578
0.390821
0.400797
0.412551
0.426137
0.441615
0.459054
0.47853
0.500125
0.523931
0.550046
0.578574
0.609627
0.643325
0.679791
0.719159
0.761563
0.807145
0.856052
0.908431
0.964433
1.02421
1.0879
1.15566
1.22762
1.30388
1.38456
1.46973
1.5594
1.65357
1.75214
1.85493
1.96164
2.07181
2.18481
2.29975
2.41544
2.53035
2.64255
2.74973
2.84919
2.93802
3.01328
3.07232
3.11294
3.13364
0.37012
0.371784
0.375119
0.380142
0.386877
0.395357
0.405622
0.41772
0.431708
0.44765
0.46562
0.485699
0.507976
0.532547
0.55952
0.589007
0.621131
0.656021
0.693816
0.73466
0.778706
0.826116
0.877054
0.931693
0.99021
1.05279
1.1196
1.19084
1.26669
1.3473
1.43284
1.52343
1.6192
1.72019
1.8264
1.93775
2.05402
2.17488
2.29975
2.4278
2.55784
2.68827
2.81692
2.94107
3.05738
3.1621
3.25136
3.32164
3.37012
3.39485
0.37369
0.375397
0.378818
0.38397
0.390881
0.399583
0.410119
0.42254
0.436906
0.453285
0.471755
0.492402
0.515321
0.540615
0.568399
0.598794
0.631932
0.667954
0.707011
0.749262
0.794876
0.844032
0.896918
0.953731
1.01467
1.07996
1.14981
1.22445
1.3041
1.38899
1.47934
1.57536
1.67724
1.78514
1.89916
2.01935
2.14563
2.2778
2.41544
2.55784
2.70393
2.85207
2.99996
3.14443
3.28139
3.4059
3.5127
3.59709
3.65537
3.68511
0.376971
0.378717
0.382218
0.387491
0.394564
0.403471
0.414259
0.426979
0.441696
0.458481
0.477416
0.498591
0.522107
0.548075
0.576615
0.607857
0.641943
0.679025
0.719265
0.762837
0.809927
0.860731
0.915459
0.974331
1.03758
1.10545
1.17821
1.25611
1.33944
1.42848
1.52353
1.62487
1.7328
1.84758
1.96946
2.09862
2.2352
2.37917
2.53035
2.68827
2.85207
3.02029
3.19063
3.35958
3.52215
3.67172
3.80083
3.903
3.97355
4.00952
0.379943
0.381725
0.385298
0.390681
0.397902
0.406997
0.418014
0.431009
0.446046
0.463202
0.482561
0.50422
0.528283
0.554869
0.584102
0.616123
0.651082
0.689139
0.730471
0.775264
0.823719
0.876052
0.932491
0.993283
1.05869
1.12898
1.20447
1.28545
1.37227
1.46526
1.5648
1.67127
1.78506
1.90657
2.0362
2.17432
2.32127
2.4773
2.64255
2.81692
2.99996
3.19063
3.38695
3.58543
3.78025
3.9624
4.1203
4.24498
4.33074
4.37434
0.382587
0.384402
0.38804
0.393521
0.400874
0.410138
0.42136
0.4346
0.449924
0.467413
0.487153
0.509246
0.533802
0.560942
0.590801
0.623523
0.659269
0.698208
0.740527
0.786425
0.83612
0.889841
0.94784
1.01038
1.07776
1.15028
1.22828
1.31211
1.40216
1.49883
1.60258
1.71388
1.83322
1.96116
2.09824
2.24505
2.4022
2.57024
2.74973
2.94107
3.14443
3.35958
3.58543
3.81932
4.05542
4.28178
4.47744
4.63037
4.73459
4.78726
0.384886
0.386729
0.390424
0.395991
0.40346
0.412871
0.424274
0.437728
0.453304
0.471083
0.491158
0.513632
0.538619
0.566247
0.596654
0.629994
0.666432
0.706148
0.749338
0.796214
0.847004
0.901957
0.96134
1.02544
1.09458
1.16909
1.24934
1.33573
1.42869
1.5287
1.63628
1.75199
1.87645
2.01033
2.15437
2.30937
2.4762
2.65581
2.84919
3.05738
3.28139
3.52215
3.78025
4.05542
4.34476
4.63635
4.88183
5.069
5.19452
5.2574
0.386826
0.388693
0.392436
0.398076
0.405643
0.415179
0.426734
0.44037
0.45616
0.474186
0.494545
0.517342
0.542696
0.570739
0.601613
0.635479
0.672507
0.712886
0.75682
0.804531
0.85626
0.912269
0.972841
1.03828
1.10894
1.18516
1.26736
1.35597
1.45148
1.55441
1.66535
1.78495
1.91394
2.05311
2.20339
2.36579
2.54146
2.73171
2.93802
3.1621
3.4059
3.67172
3.9624
4.28178
4.63635
5.04157
5.34906
5.57387
5.72166
5.79502
0.388393
0.39028
0.394062
0.399761
0.407408
0.417045
0.428724
0.442508
0.458471
0.476698
0.497287
0.520347
0.546
0.57438
0.605635
0.639928
0.677438
0.718357
0.762899
0.811293
0.86379
0.920663
0.98221
1.04876
1.12065
1.19829
1.28211
1.37256
1.47017
1.57553
1.68928
1.81214
1.94494
2.0886
2.24418
2.41291
2.59619
2.79567
3.01328
3.25136
3.5127
3.80083
4.1203
4.47744
4.88183
5.34906
5.70355
5.96035
6.12786
6.21061
0.389578
0.39148
0.395291
0.401035
0.408743
0.418456
0.430229
0.444125
0.46022
0.4786
0.499364
0.522624
0.548503
0.577139
0.608683
0.643302
0.681178
0.722509
0.767514
0.816429
0.869512
0.927046
0.989338
1.05673
1.12958
1.20831
1.29336
1.38523
1.48447
1.59171
1.70763
1.83304
1.96881
2.11598
2.27574
2.44947
2.63879
2.84564
3.07232
3.32164
3.59709
3.903
4.24498
4.63037
5.069
5.57387
5.96035
6.24074
6.42345
6.51361
0.390373
0.392284
0.396116
0.40189
0.409638
0.419403
0.431239
0.445211
0.461393
0.479876
0.500758
0.524152
0.550183
0.578992
0.610731
0.645569
0.683692
0.725301
0.770618
0.819884
0.873363
0.931343
0.99414
1.0621
1.1356
1.21507
1.30096
1.39379
1.49414
1.60266
1.72007
1.84721
1.98503
2.13462
2.29726
2.47445
2.66797
2.87994
3.11294
3.37012
3.65537
3.97355
4.33074
4.73459
5.19452
5.72166
6.12786
6.42345
6.61627
6.71143
0.390771
0.392687
0.396529
0.402318
0.410087
0.419878
0.431745
0.445755
0.461982
0.480516
0.501457
0.524918
0.551027
0.579922
0.611759
0.646707
0.684954
0.726703
0.772177
0.82162
0.875298
0.933503
0.996554
1.0648
1.13863
1.21847
1.30478
1.3981
1.49902
1.60818
1.72635
1.85437
1.99323
2.14405
2.30817
2.48713
2.68279
2.89739
3.13364
3.39485
3.68511
4.00952
4.37434
4.78726
5.2574
5.79502
6.21061
6.51361
6.71143
6.80908
)
;

boundaryField
{
    walls
    {
        type            zeroGradient;
    }
    frontAndBack
    {
        type            empty;
    }
}


// ************************************************************************* //
