/*--------------------------------*- C++ -*----------------------------------*\
| =========                 |                                                 |
| \\      /  F ield         | OpenFOAM: The Open Source CFD Toolbox           |
|  \\    /   O peration     | Version:  2406                                  |
|   \\  /    A nd           | Website:  www.openfoam.com                      |
|    \\/     M anipulation  |                                                 |
\*---------------------------------------------------------------------------*/
FoamFile
{
    version     2.0;
    format      ascii;
    arch        "LSB;label=32;scalar=64";
    class       volScalarField;
    location    "0.55";
    object      nu;
}
// * * * * * * * * * * * * * * * * * * * * * * * * * * * * * * * * * * * * * //

dimensions      [0 2 -1 0 0 0 0];

internalField   nonuniform List<scalar> 
1800
(
0.00999329
0.0120286
0.0110582
0.0100019
0.0094662
0.00922247
0.00908956
0.00896584
0.00896533
0.00953511
0.0124376
0.013006
0.0104479
0.00937491
0.00902126
0.00894004
0.00894413
0.00894797
0.00910589
0.00903677
0.0194311
0.0121779
0.00956987
0.00885442
0.00872346
0.00878519
0.00889783
0.00898111
0.00925712
0.00913637
0.0162762
0.0102399
0.00878703
0.00848072
0.00853768
0.00871096
0.00889607
0.00901991
0.00935007
0.00897451
0.0111316
0.00891047
0.00826648
0.00825698
0.00848115
0.00877456
0.00904498
0.00921593
0.00955324
0.00880767
0.00903137
0.00812575
0.00792257
0.0081363
0.00853167
0.00896466
0.00931669
0.00948599
0.00966041
0.00863525
0.00796128
0.00762732
0.00771769
0.00814481
0.00873739
0.00931656
0.00969094
0.00972524
0.00952235
0.00853569
0.00730608
0.00730707
0.0076441
0.00830927
0.00912839
0.00980473
0.0100303
0.00974994
0.00924979
0.00854736
0.00687514
0.00711508
0.00769531
0.00864278
0.0096975
0.0103237
0.0101869
0.00959807
0.0090559
0.00873319
0.00658443
0.00701958
0.00786029
0.00913808
0.0103715
0.0107076
0.010133
0.00941991
0.00903359
0.00907287
0.00785545
0.0115606
0.0165252
0.01759
0.0172155
0.016731
0.0160557
0.0151799
0.0142593
0.0135462
0.00763617
0.0112711
0.017289
0.0185765
0.0176918
0.0168579
0.0159979
0.0149779
0.0139233
0.0131184
0.00747758
0.011083
0.0190593
0.0211409
0.0190724
0.0175216
0.0162948
0.0150227
0.0137722
0.0128396
0.0073704
0.0109707
0.0228316
0.0306396
0.0223469
0.0187441
0.0169155
0.0153218
0.0138084
0.0127056
0.00731537
0.0109701
0.0291638
0.106064
0.031307
0.0208987
0.0177391
0.0157521
0.0139439
0.0126556
0.00733688
0.0108439
0.0247549
0.0531615
0.0306934
0.0218055
0.0185003
0.0163598
0.0141892
0.0126384
0.00745007
0.0106037
0.0179461
0.023047
0.0208064
0.0186386
0.0177294
0.0167182
0.0144745
0.0125771
0.00768268
0.0104532
0.0141482
0.015381
0.0150318
0.0147906
0.0149981
0.0152666
0.0140068
0.0122042
0.00810082
0.0105681
0.0123394
0.0123909
0.0120424
0.0119149
0.0120947
0.0126124
0.0125818
0.0116252
0.00880349
0.0110821
0.0115616
0.0109481
0.010447
0.0102224
0.0101819
0.0103125
0.0104001
0.0108726
0.0143853
0.0132216
0.0154215
0.0184176
0.0221533
0.0276115
0.033793
0.0406513
0.0438362
0.0566878
0.0142892
0.0134949
0.0151673
0.0179974
0.0215551
0.0271546
0.033868
0.0413898
0.0450302
0.0583517
0.0142584
0.0140674
0.0149534
0.017554
0.0208113
0.0262425
0.0329698
0.0404599
0.0443823
0.0568758
0.0143119
0.0149106
0.014582
0.0167841
0.0196122
0.024421
0.0303982
0.0368501
0.0405489
0.0502003
0.0143087
0.0148729
0.0135168
0.0150868
0.0173678
0.0210612
0.0256326
0.0304101
0.0335203
0.039501
0.0136562
0.0129429
0.0119673
0.0129135
0.0145336
0.0169686
0.0199906
0.0231524
0.0255131
0.0288386
0.0121222
0.0111695
0.0107995
0.0113523
0.0123938
0.0138756
0.0157047
0.0176428
0.0192103
0.0211115
0.0105519
0.0103851
0.0102769
0.0105836
0.0112485
0.0121651
0.0132754
0.014449
0.015404
0.0165508
0.00990923
0.0104299
0.0103682
0.0104169
0.0108298
0.0114487
0.0121942
0.0129785
0.0135767
0.0143495
0.00896211
0.0106045
0.0108664
0.0107339
0.0109484
0.0113817
0.0119268
0.0125059
0.0129087
0.0135083
0.00962681
0.0109049
0.0111823
0.0114656
0.0118332
0.0122319
0.0126716
0.0131613
0.0134288
0.0139443
0.00918688
0.0097177
0.0101787
0.0110627
0.0122772
0.0134078
0.0142504
0.0149079
0.0152184
0.0157292
0.00997332
0.0105876
0.0108601
0.011498
0.0128899
0.0147208
0.0165127
0.0180323
0.0190161
0.019954
0.0157419
0.0129218
0.0122932
0.0126358
0.0142165
0.0170559
0.0207445
0.0250825
0.0288372
0.0347325
0.0230877
0.0132745
0.0126064
0.0131778
0.0150238
0.0186529
0.0242623
0.0322643
0.0414747
0.0807555
0.0179419
0.0140128
0.0134869
0.0139738
0.0155503
0.01827
0.0216859
0.0248362
0.0278296
0.0303484
0.0138594
0.0120154
0.0113777
0.0116751
0.0125766
0.0135856
0.0145133
0.0151871
0.0157697
0.0160118
0.00949028
0.00902898
0.00901236
0.00940006
0.0099646
0.0104456
0.0108309
0.0111107
0.0113192
0.0114488
0.00745244
0.00758828
0.00792528
0.00835622
0.00876117
0.00904577
0.00924585
0.0093856
0.00947002
0.00954935
0.00705634
0.00754861
0.00810185
0.00858053
0.00879203
0.00881281
0.00878104
0.00875137
0.00872014
0.00873945
0.0106756
0.00979051
0.00913773
0.00873797
0.0084632
0.00841096
0.00830301
0.00869064
0.00825206
0.00936098
0.0135765
0.0133783
0.0110935
0.010717
0.00923971
0.00909776
0.00826308
0.00842909
0.00806528
0.00842381
0.0149349
0.015101
0.0141789
0.0137167
0.0120206
0.0111547
0.0102136
0.00953812
0.00936434
0.00870031
0.016399
0.0154174
0.0202578
0.0158323
0.0221766
0.0139012
0.0170463
0.0120354
0.0144952
0.01104
0.0170923
0.0172408
0.0222279
0.0203257
0.0264403
0.020561
0.0235869
0.0177533
0.0252392
0.0179825
0.0167997
0.0180229
0.0178869
0.0196117
0.0185837
0.0213174
0.0204901
0.0241956
0.0237569
0.0311216
0.0124996
0.0128593
0.0123808
0.0130051
0.0126932
0.0136935
0.0137031
0.0151891
0.0149776
0.0168417
0.00933718
0.00936929
0.00921187
0.00936262
0.00919081
0.00943156
0.00934127
0.00961722
0.00957234
0.00988053
0.00751694
0.00745655
0.00741959
0.00737107
0.00737261
0.00735739
0.0073796
0.00741414
0.00745078
0.00752509
0.00642872
0.00641738
0.00642965
0.00643222
0.00647626
0.00649926
0.00657931
0.00662042
0.00674173
0.00677392
0.0100103
0.0129025
0.0145537
0.0144726
0.0140801
0.01397
0.0137693
0.0109734
0.00768767
0.00612557
0.00962599
0.0107865
0.0124122
0.0138954
0.0148662
0.015689
0.0154084
0.0109905
0.00758432
0.00608946
0.00948672
0.00977434
0.0107182
0.01256
0.0148465
0.0171002
0.0168197
0.0109204
0.00750653
0.00607424
0.009767
0.00955906
0.00997693
0.0114039
0.0138949
0.016893
0.0165487
0.0106673
0.00744139
0.00607632
0.0103799
0.0097201
0.00971628
0.0106473
0.0126195
0.0151823
0.0148711
0.0102456
0.00737085
0.00608851
0.0110866
0.00995957
0.00963075
0.0102081
0.0116858
0.0135849
0.0132251
0.00975024
0.00728381
0.00610655
0.0113367
0.00994986
0.00950673
0.00993129
0.0111359
0.012557
0.0120295
0.00926871
0.00718752
0.00613415
0.0110204
0.00971498
0.00937679
0.0098188
0.0109128
0.0119662
0.0111686
0.00883585
0.00709701
0.00618128
0.0102735
0.00939216
0.00929646
0.00984843
0.0108783
0.0115294
0.0104432
0.00845226
0.00702852
0.00626119
0.00959354
0.00914914
0.00931112
0.00998101
0.0108683
0.011018
0.00975914
0.00812098
0.0069972
0.00638906
0.0130334
0.0128593
0.0127
0.0125382
0.0123447
0.0121425
0.011949
0.0115714
0.010329
0.00803634
0.012981
0.0127734
0.0126045
0.0124384
0.0122393
0.0120343
0.0118504
0.0114093
0.00983263
0.0075592
0.0130226
0.0128133
0.0126548
0.0124768
0.0122504
0.0120203
0.0118269
0.0112935
0.00941151
0.00720686
0.0129323
0.0126592
0.0124943
0.0123352
0.0121395
0.0119518
0.0118156
0.0112375
0.00908864
0.00694842
0.0131019
0.0128324
0.0126796
0.0124798
0.01222
0.0119742
0.0117965
0.0110902
0.00875953
0.00673315
0.0131254
0.0128565
0.0127743
0.0126363
0.0124238
0.0122363
0.0121313
0.0112569
0.00855175
0.00657667
0.0131592
0.0127413
0.0125668
0.0123682
0.0121342
0.0119583
0.0118896
0.0110095
0.00830672
0.00644013
0.013689
0.0135291
0.0137214
0.0135837
0.0132316
0.012916
0.0126766
0.0111794
0.00811909
0.00633184
0.0141674
0.0132316
0.0130669
0.012976
0.0127889
0.0127043
0.0127913
0.0112576
0.00798579
0.00625061
0.0144126
0.0154
0.0150403
0.0139713
0.0132278
0.0129472
0.012905
0.0110472
0.00782592
0.0061808
0.0222459
0.0319001
0.0296814
0.0475976
0.0550783
0.0522874
0.0324815
0.0248672
0.0162734
0.0132145
0.0219349
0.03083
0.0292354
0.0436722
0.0546746
0.0635442
0.0357658
0.0250892
0.0164075
0.0131338
0.021632
0.0297263
0.0284624
0.0393548
0.0533541
0.080341
0.0402156
0.0254065
0.0166334
0.0130744
0.0213023
0.0284655
0.0272807
0.0358707
0.0553201
0.104208
0.0452319
0.0258918
0.0170146
0.0129182
0.020924
0.027047
0.0258999
0.0352498
0.0664153
0.119035
0.0481693
0.0265542
0.0173884
0.0131498
0.0205484
0.0256624
0.02523
0.0423324
0.0891252
0.0954912
0.0451208
0.0260572
0.0174103
0.0126953
0.0202249
0.0245467
0.0260168
0.0693313
0.0834234
0.0560023
0.0349675
0.0247424
0.0169699
0.0126835
0.0200991
0.0234887
0.0276807
0.0975874
0.0380311
0.0294546
0.0236378
0.0204512
0.0152576
0.0132607
0.0204021
0.0218903
0.0281119
0.0343
0.0215465
0.0193219
0.0176374
0.0171683
0.0140131
0.0118082
0.02154
0.0197211
0.0237188
0.0205537
0.0162387
0.015042
0.0143455
0.0138823
0.0125351
0.0140205
0.022738
0.0178406
0.0197009
0.0171121
0.014625
0.0137708
0.0126522
0.0128158
0.0108089
0.0143526
0.0239601
0.0160029
0.0184537
0.0168436
0.01468
0.0139566
0.0121928
0.0131598
0.0102528
0.0121219
0.0252005
0.0146884
0.0187964
0.0184449
0.0164015
0.0150453
0.0133453
0.0132298
0.0110667
0.0110976
0.0271695
0.0139329
0.0182158
0.020708
0.0203933
0.0172217
0.0164986
0.0137975
0.0131252
0.0113151
0.030583
0.0136888
0.0171176
0.0213912
0.0263622
0.0199558
0.0247773
0.0145874
0.0149255
0.01274
0.0352361
0.0138169
0.0165408
0.0205481
0.0260345
0.024296
0.0257673
0.0162587
0.0161359
0.0144534
0.0407147
0.0146493
0.0162307
0.0173214
0.0174598
0.0198247
0.0162801
0.0191719
0.0148027
0.0141676
0.0415549
0.0165781
0.0136801
0.0127591
0.0121396
0.0123251
0.0117443
0.012695
0.0113829
0.011654
0.0267305
0.0134413
0.0105826
0.0101006
0.0097535
0.00958929
0.00954232
0.0092458
0.00926994
0.00892531
0.00810984
0.00794365
0.00886072
0.0085228
0.00841536
0.00819868
0.00804767
0.00763786
0.00765888
0.00708505
0.0110522
0.0111472
0.0112122
0.0118027
0.0128794
0.0141752
0.0150259
0.0151742
0.0135593
0.0120583
0.0108153
0.0107518
0.0110378
0.0115858
0.0123887
0.0132637
0.0139936
0.0145233
0.0145349
0.0153169
0.0114477
0.0116162
0.0121921
0.0129468
0.013787
0.014403
0.0151124
0.0150487
0.0151595
0.0148587
0.0124913
0.0128669
0.013549
0.0141265
0.0145816
0.0147523
0.0153437
0.0152128
0.0156875
0.0148593
0.0137594
0.0139332
0.0143225
0.0144213
0.0144476
0.014372
0.0146923
0.0148444
0.0155309
0.0154931
0.0139129
0.0136317
0.0137241
0.0138542
0.013985
0.0139431
0.0141082
0.0143243
0.0150945
0.0158959
0.0130071
0.0126031
0.0124912
0.0125752
0.0125884
0.0123481
0.0120968
0.0120251
0.012195
0.0125239
0.0109522
0.0106113
0.0103632
0.0102238
0.0100345
0.00982635
0.00960023
0.00950906
0.00941543
0.00942157
0.0087026
0.00853185
0.00837661
0.0082214
0.00806514
0.00793835
0.00782749
0.00773699
0.00765043
0.00758038
0.00694902
0.00684537
0.00674426
0.00666126
0.00660365
0.00656007
0.00651822
0.00648053
0.00645425
0.00643483
0.00624895
0.00713785
0.00901348
0.0136448
0.0244224
0.0178065
0.0136132
0.0114898
0.00981987
0.0085311
0.00633422
0.00704803
0.00854604
0.0128563
0.0449606
0.0265661
0.0143531
0.0110837
0.00951275
0.00845127
0.00648429
0.00701899
0.00813633
0.0110364
0.021463
0.0291734
0.0157585
0.0113302
0.00952219
0.00851539
0.00671729
0.00706493
0.00784312
0.0097033
0.0142559
0.021074
0.0169858
0.0122193
0.00994292
0.00877131
0.00705366
0.00720266
0.00770301
0.00890928
0.0113747
0.0151751
0.0162291
0.013319
0.0108212
0.00933174
0.00751812
0.0074504
0.00772928
0.00852524
0.0100113
0.0121605
0.0138304
0.0133927
0.0117593
0.0102287
0.00812093
0.00782072
0.00792743
0.00845816
0.00941428
0.0106919
0.0118736
0.0123253
0.0119435
0.0111102
0.00882484
0.00831879
0.00830543
0.00865768
0.0092848
0.0100493
0.0107421
0.0111608
0.011322
0.0111537
0.00948749
0.00892393
0.00886888
0.00910181
0.00949344
0.00991988
0.0102773
0.0105275
0.0108252
0.0108827
0.00995277
0.00961432
0.00964416
0.00980069
0.00997101
0.0100955
0.0101541
0.010153
0.0102236
0.0105936
0.0101805
0.0103848
0.0107204
0.0108925
0.0108629
0.010724
0.0105675
0.0104499
0.0104785
0.0118187
0.0102657
0.0112309
0.0121923
0.0125383
0.012321
0.0119468
0.0116526
0.0115533
0.0116173
0.0126088
0.0102945
0.0121312
0.0142933
0.0151622
0.0146867
0.0140402
0.0136031
0.0134685
0.0133743
0.0137987
0.0102613
0.0130049
0.0176563
0.0209303
0.0197381
0.0179289
0.0166386
0.0159212
0.0152707
0.0149487
0.0101484
0.0136014
0.0220072
0.0455344
0.0383144
0.0251034
0.0200885
0.0180738
0.0167804
0.0158591
0.00978975
0.0136304
0.0235231
0.0569287
0.0486104
0.0275372
0.02111
0.0189856
0.017712
0.016464
0.00932884
0.0135319
0.021503
0.0279809
0.0286015
0.0241038
0.0202808
0.0184382
0.0173728
0.0163017
0.00888322
0.0130481
0.0185484
0.0206768
0.0211197
0.0201841
0.0184816
0.0171881
0.0162956
0.0155113
0.0084846
0.0124804
0.0170694
0.0183543
0.0185098
0.0181364
0.0172262
0.0162536
0.0154187
0.0147449
0.00813875
0.0119638
0.0164637
0.0175282
0.0174504
0.0171153
0.0164494
0.0156008
0.014755
0.0140917
0.0133989
0.0156632
0.0219009
0.0387153
0.0376019
0.0339679
0.0342554
0.0375032
0.0400286
0.0526688
0.0130914
0.0158255
0.020764
0.0290105
0.0324978
0.0326291
0.0339746
0.0379914
0.0424236
0.0618808
0.0131959
0.0165156
0.0206432
0.0277719
0.0301554
0.0313624
0.0332018
0.0373854
0.0423516
0.0624236
0.0135038
0.0168288
0.0201932
0.0262471
0.0280335
0.0296977
0.0319054
0.0361339
0.0410342
0.0590849
0.0138154
0.0162312
0.0192262
0.0242264
0.0261526
0.0282318
0.0307191
0.0348562
0.0392994
0.0548621
0.01408
0.0152261
0.0181378
0.0224447
0.0249028
0.0275005
0.0302953
0.0343637
0.0381775
0.0517059
0.014339
0.014313
0.0172185
0.0211009
0.0241585
0.0273953
0.0306556
0.034855
0.0381288
0.0503791
0.0144983
0.0136521
0.0165577
0.0201127
0.0236322
0.0275484
0.0314532
0.0360354
0.0389819
0.0506786
0.0145373
0.0132869
0.0160898
0.0193973
0.0231577
0.0277106
0.0323634
0.037555
0.0403791
0.0520878
0.0144875
0.013159
0.0157247
0.0188642
0.0226757
0.0277639
0.0331986
0.0391831
0.0420752
0.054222
0.0092427
0.0112229
0.0121365
0.0125876
0.0120099
0.0114293
0.0109931
0.0106243
0.0104427
0.0103401
0.00999206
0.0113235
0.0124523
0.0127452
0.0125813
0.0122223
0.0119329
0.0116497
0.0115262
0.0113662
0.0130391
0.0137765
0.0165935
0.01702
0.0164101
0.0156473
0.0151209
0.0146778
0.0144131
0.0140334
0.0171083
0.0174841
0.0273156
0.0368465
0.0272358
0.023745
0.0223363
0.0216921
0.020955
0.020353
0.0149193
0.0165639
0.0265524
0.112842
0.0380878
0.0318126
0.0307731
0.0318737
0.0317302
0.0341889
0.006513
0.00667463
0.00689199
0.00715817
0.00745901
0.00776221
0.00802675
0.00823678
0.0084532
0.00852619
0.0067984
0.00694922
0.00715882
0.00740679
0.00767317
0.00796318
0.00827675
0.00872193
0.00910859
0.00969192
0.00710304
0.00723109
0.00741951
0.00764585
0.00790865
0.00826379
0.00876853
0.00965172
0.0104162
0.0126227
0.00744622
0.00753649
0.00769843
0.00791698
0.00822186
0.00870134
0.00946953
0.0105818
0.0113101
0.0140018
0.00784181
0.00788068
0.00802674
0.00827645
0.00868884
0.00934624
0.0102406
0.0109485
0.0110682
0.0129384
0.0129505
0.0133384
0.0141823
0.0144862
0.0143369
0.013938
0.0133405
0.0122609
0.0102859
0.00797417
0.014397
0.014116
0.0139506
0.0136096
0.0132913
0.0130187
0.0126969
0.0120974
0.0107476
0.00844867
0.0137526
0.0134924
0.0134741
0.0133537
0.0132083
0.0130588
0.0128416
0.0124281
0.0114894
0.00916783
0.0138381
0.0136658
0.013628
0.0134667
0.0132598
0.0130517
0.0128207
0.0125681
0.0122482
0.0102634
0.0137449
0.0135462
0.0134333
0.0132407
0.013017
0.0128097
0.0126451
0.0126648
0.0132506
0.0124874
0.0136443
0.013448
0.0132872
0.0130642
0.0128081
0.0125758
0.0124373
0.0126472
0.0141834
0.0178247
0.013487
0.0133066
0.0131357
0.0129248
0.0126846
0.0124654
0.012335
0.012502
0.013833
0.0177218
0.0133312
0.0131766
0.0130211
0.0128449
0.0126464
0.0124622
0.0123214
0.0122963
0.0126894
0.0120926
0.0132016
0.0130558
0.0129068
0.0127481
0.0125675
0.0123904
0.0122254
0.0120375
0.0117157
0.00986455
0.0130985
0.0129422
0.0127886
0.0126311
0.0124476
0.0122587
0.0120729
0.0117767
0.0109437
0.00873671
0.00882496
0.010458
0.0124866
0.0140623
0.0148286
0.0154475
0.0132891
0.00944453
0.00726549
0.00621298
0.00949922
0.011559
0.0137087
0.0147004
0.0144674
0.013978
0.0128813
0.00980546
0.00741794
0.006218
0.0106547
0.0129709
0.0143891
0.0142791
0.0136115
0.0129606
0.0120296
0.00987345
0.00758022
0.0062646
0.0119791
0.0138968
0.0145262
0.0139733
0.0130431
0.0122611
0.011579
0.0100234
0.007776
0.00634548
0.0130073
0.0144195
0.0146175
0.0138889
0.0129069
0.0120805
0.0113668
0.0100566
0.00797039
0.00645518
0.0140894
0.0152902
0.014908
0.0136345
0.0124879
0.0117087
0.0111226
0.0101173
0.0082118
0.00660485
0.0154095
0.0156883
0.0141339
0.012675
0.0118343
0.0113692
0.011014
0.0102571
0.0084967
0.00679183
0.0153937
0.0139633
0.012365
0.0115662
0.0112874
0.0111983
0.0110965
0.0105488
0.00886226
0.00702556
0.0129539
0.0117514
0.0111355
0.0110769
0.0112713
0.0114795
0.0115703
0.0111035
0.00932648
0.00730624
0.0106973
0.0109336
0.0113061
0.0118007
0.0122657
0.0125706
0.0126169
0.0119073
0.00985547
0.00762602
0.0270702
0.0695493
0.0279465
0.0299004
0.0284544
0.0294783
0.033573
0.0310162
0.0241714
0.0170181
0.0265955
0.0641438
0.0264365
0.029271
0.0285279
0.0289454
0.0305242
0.0261418
0.0240824
0.0150538
0.0259453
0.056233
0.0261856
0.0304858
0.029477
0.0292934
0.0295322
0.0257246
0.0241595
0.0147655
0.0253567
0.0492404
0.0268613
0.033206
0.0310875
0.0298754
0.0288761
0.0257022
0.0227094
0.0147633
0.0248369
0.0441542
0.0277785
0.0366723
0.0329745
0.0304079
0.028041
0.0254148
0.0208054
0.0146588
0.0243344
0.0407233
0.0286275
0.0405251
0.0352775
0.0312405
0.0273419
0.0250197
0.0190255
0.0144346
0.0238457
0.0382039
0.0292915
0.0446122
0.0384223
0.0328098
0.0271381
0.0247294
0.0177318
0.0141034
0.0233839
0.0361539
0.0297125
0.0483009
0.0426919
0.0353602
0.0275477
0.0245549
0.016926
0.0137694
0.0229616
0.0344617
0.0298975
0.0504086
0.0478203
0.0391149
0.02854
0.0245296
0.0164788
0.0135161
0.0225841
0.0330732
0.0298855
0.0501143
0.0525714
0.0445115
0.0301444
0.0246612
0.016287
0.013341
0.00735098
0.00761409
0.00930279
0.00917639
0.0097424
0.00989946
0.0101748
0.0100019
0.00995943
0.00856151
0.0144345
0.0107331
0.010256
0.0107053
0.010905
0.0112988
0.0117795
0.0119398
0.0123979
0.0113856
0.0249251
0.0169265
0.0128481
0.013439
0.0133938
0.0141152
0.0150665
0.0167616
0.0173718
0.0165217
0.0278496
0.0322602
0.0188885
0.0194918
0.0187316
0.0202369
0.0227625
0.0337194
0.0328666
0.0155837
0.0279077
0.0584957
0.0266348
0.0273625
0.0253376
0.0269841
0.0318308
0.0443146
0.0332673
0.0157808
0.00817373
0.00780473
0.00742601
0.00708069
0.00679268
0.0065764
0.00643586
0.00636466
0.00635302
0.00640186
0.0105139
0.00974114
0.00900983
0.00837618
0.00782765
0.00737092
0.00703193
0.00681752
0.00671445
0.00671212
0.0135278
0.0120963
0.010886
0.00994411
0.00915642
0.00844321
0.00783077
0.00739482
0.00714562
0.00705867
0.0147457
0.0136921
0.012713
0.0117015
0.0107413
0.00981886
0.00888668
0.00813802
0.00767637
0.00746657
0.0150745
0.0156887
0.0148571
0.0135686
0.0123113
0.0112724
0.0101959
0.00913545
0.00837528
0.00796991
)
;

boundaryField
{
    left
    {
        type            calculated;
        value           nonuniform List<scalar> 
35
(
0.0177124
0.0161239
0.0146734
0.0138862
0.0136207
0.0137006
0.0141079
0.0148354
0.0149901
0.00802413
0.0170893
0.0170684
0.0170498
0.01703
0.0170221
0.0170684
0.0171802
0.0174031
0.0177565
0.0181712
0.0177182
0.0176109
0.0175014
0.0174331
0.0173832
0.0173287
0.0172673
0.0172074
0.0171561
0.0171173
0.00730018
0.0127748
0.0168945
0.0176465
0.0178191
)
;
    }
    right
    {
        type            calculated;
        value           nonuniform List<scalar> 
35
(
0.0103413
0.0113718
0.0140655
0.0205683
0.0359543
0.0615798
0.0792834
0.0828281
0.0785872
0.0720762
0.0673398
0.0659811
0.0678207
0.0722548
0.0790495
0.0879514
0.0959862
0.0941672
0.0759525
0.051596
0.0333254
0.0227339
0.0172364
0.0147365
0.013798
0.0142379
0.0161255
0.0206903
0.0382527
0.10564
0.0301614
0.0160254
0.0114612
0.00955486
0.0087406
)
;
    }
    down
    {
        type            calculated;
        value           nonuniform List<scalar> 
40
(
0.0064609
0.00689898
0.00909887
0.00865388
0.00937347
0.00942777
0.00963846
0.00940111
0.00917615
0.00782727
0.00751206
0.00723149
0.00693236
0.00666263
0.00644898
0.00630198
0.00621846
0.00618883
0.0062034
0.00626611
0.0063846
0.00654992
0.00676905
0.00704233
0.00736527
0.00769963
0.0079805
0.00815047
0.00829213
0.00826706
0.0092757
0.011934
0.0129071
0.0135464
0.0124047
0.0115244
0.010912
0.0104386
0.0101939
0.0100958
)
;
    }
    up
    {
        type            calculated;
        value           nonuniform List<scalar> 
40
(
0.00718155
0.0080387
0.00878938
0.00928938
0.00923657
0.00898133
0.00876312
0.00862092
0.00852686
0.00851535
0.00609425
0.00610601
0.00612693
0.00616049
0.00621311
0.00626896
0.00636359
0.00642652
0.00658527
0.0066092
0.00644649
0.00635786
0.00627322
0.00620855
0.00616823
0.0061413
0.0061185
0.00610181
0.00609196
0.00609069
0.00689193
0.0070147
0.00839874
0.00800868
0.00795915
0.0077329
0.00752674
0.00714663
0.00711168
0.0065696
)
;
    }
    cylinder
    {
        type            calculated;
        value           nonuniform List<scalar> 
80
(
0.00706417
0.00688923
0.00676475
0.00668304
0.00664168
0.00666782
0.00678338
0.00700685
0.00738866
0.00800186
0.00899504
0.0109822
0.0171595
0.0252325
0.0139109
0.00996667
0.00833414
0.00742473
0.00685237
0.00647173
0.00576206
0.00573846
0.00573381
0.00574587
0.00576947
0.00580282
0.00585093
0.00592488
0.00603971
0.00621369
0.00731517
0.00691355
0.00662216
0.00640964
0.00623627
0.00610966
0.00600196
0.00591736
0.00585381
0.00580162
0.00728892
0.00768422
0.008287
0.0092522
0.0113435
0.0173179
0.0182994
0.0111489
0.0089359
0.00791887
0.00592605
0.00590103
0.00592059
0.0059744
0.00605675
0.00617432
0.00632473
0.00651377
0.00674091
0.00700093
0.00599734
0.00612524
0.00632793
0.00662906
0.00705946
0.00766318
0.00847211
0.00942085
0.010186
0.0104341
0.0102458
0.00994147
0.00968557
0.0094636
0.00924498
0.00883982
0.00834397
0.00792363
0.00757937
0.00729352
)
;
    }
    defaultFaces
    {
        type            empty;
    }
}


// ************************************************************************* //
