/*--------------------------------*- C++ -*----------------------------------*\
| =========                 |                                                 |
| \\      /  F ield         | OpenFOAM: The Open Source CFD Toolbox           |
|  \\    /   O peration     | Version:  2406                                  |
|   \\  /    A nd           | Website:  www.openfoam.com                      |
|    \\/     M anipulation  |                                                 |
\*---------------------------------------------------------------------------*/
FoamFile
{
    version     2.0;
    format      ascii;
    arch        "LSB;label=32;scalar=64";
    class       volScalarField;
    location    "0.55";
    object      p;
}
// * * * * * * * * * * * * * * * * * * * * * * * * * * * * * * * * * * * * * //

dimensions      [0 2 -2 0 0 0 0];

internalField   nonuniform List<scalar> 
1800
(
-1.80964
-1.79467
-1.79392
-1.79933
-1.81051
-1.829
-1.85762
-1.89807
-1.95121
-2.01897
-1.81432
-1.80005
-1.79763
-1.79882
-1.80403
-1.81636
-1.83666
-1.86537
-1.90238
-1.94946
-1.82093
-1.81114
-1.80638
-1.80353
-1.8043
-1.81077
-1.8238
-1.84332
-1.86855
-1.90236
-1.83753
-1.82719
-1.82015
-1.81443
-1.81116
-1.81183
-1.81719
-1.82709
-1.84084
-1.86211
-1.86479
-1.85
-1.84193
-1.83431
-1.82749
-1.823
-1.82178
-1.8238
-1.82875
-1.8404
-1.89689
-1.88029
-1.87062
-1.86016
-1.84915
-1.83939
-1.83199
-1.82713
-1.8249
-1.8281
-1.93189
-1.91388
-1.90156
-1.88704
-1.87094
-1.85547
-1.84182
-1.8302
-1.82056
-1.81361
-1.96447
-1.94489
-1.92876
-1.90896
-1.8869
-1.86522
-1.84502
-1.8262
-1.80829
-1.79073
-1.98803
-1.96677
-1.94589
-1.9201
-1.89187
-1.86395
-1.83697
-1.81033
-1.78311
-1.75397
-1.99557
-1.97267
-1.94672
-1.91506
-1.88122
-1.84752
-1.81397
-1.77957
-1.74305
-1.70305
-1.02077
-1.02504
-1.02312
-1.01707
-1.00821
-0.997759
-0.986176
-0.97356
-0.959787
-0.944616
-1.1246
-1.12781
-1.12565
-1.12016
-1.11242
-1.10359
-1.09402
-1.08365
-1.07218
-1.05909
-1.23584
-1.23772
-1.23525
-1.23083
-1.22511
-1.2188
-1.21226
-1.20537
-1.19765
-1.18833
-1.35031
-1.35039
-1.34702
-1.34378
-1.34172
-1.33925
-1.33701
-1.33499
-1.33256
-1.32869
-1.46462
-1.46276
-1.46049
-1.4588
-1.4585
-1.46003
-1.46321
-1.46738
-1.47179
-1.47487
-1.57245
-1.56784
-1.56658
-1.56728
-1.57005
-1.57658
-1.58558
-1.59655
-1.60881
-1.6201
-1.6627
-1.65525
-1.65512
-1.65962
-1.66751
-1.67901
-1.69403
-1.71241
-1.73329
-1.75317
-1.73072
-1.72076
-1.72126
-1.72852
-1.74111
-1.75826
-1.77966
-1.80543
-1.83492
-1.86316
-1.77567
-1.76341
-1.76399
-1.7725
-1.78733
-1.80801
-1.83436
-1.86646
-1.90361
-1.93936
-1.79949
-1.78532
-1.78518
-1.79253
-1.80598
-1.82591
-1.85282
-1.8867
-1.92646
-1.96598
-0.853744
-0.532499
-0.361399
-0.207375
-0.119824
-0.0635625
-0.0304542
-0.0120396
-0.00150791
0.000629887
-0.95788
-0.595974
-0.383716
-0.207973
-0.112711
-0.0549203
-0.0228722
-0.00644233
0.00207501
0.00164311
-1.08397
-0.669164
-0.410339
-0.209359
-0.104919
-0.0453176
-0.0144328
-0.000159406
0.00616139
0.00283604
-1.23007
-0.752804
-0.441024
-0.21099
-0.0958834
-0.0343304
-0.00484875
0.00700482
0.0108885
0.00435184
-1.39214
-0.846561
-0.476172
-0.212831
-0.0853995
-0.0218229
0.00595663
0.0150806
0.0162838
0.00630738
-1.56356
-0.951728
-0.517695
-0.216553
-0.0745688
-0.0085705
0.0174568
0.0237112
0.0221348
0.0086744
-1.73204
-1.07196
-0.56915
-0.225915
-0.0661016
0.00356485
0.0284245
0.0321005
0.0279414
0.0112478
-1.88798
-1.20189
-0.633439
-0.245439
-0.0637944
0.0119257
0.0370932
0.0390989
0.0329475
0.0136634
-2.02788
-1.32942
-0.707467
-0.276205
-0.0701026
0.0140799
0.0414918
0.0433001
0.0361711
0.0154362
-2.06589
-1.44569
-0.785212
-0.314984
-0.0839508
0.0100378
0.0410726
0.0439965
0.0369363
0.0161438
-2.22862
-1.53602
-0.832633
-0.338673
-0.0962753
0.00179014
0.0357015
0.0406151
0.0346854
0.0155001
-2.30621
-1.53874
-0.827316
-0.348718
-0.118639
-0.023022
0.0155908
0.0268005
0.0255857
0.0117825
-2.21591
-1.47322
-0.801282
-0.35829
-0.141766
-0.048678
-0.00573654
0.0119875
0.0159371
0.00778425
-1.96004
-1.34861
-0.777857
-0.390059
-0.182814
-0.0831162
-0.0305915
-0.0035833
0.00719287
0.00501976
-1.70993
-1.24241
-0.765802
-0.426899
-0.227259
-0.11912
-0.0561262
-0.0197343
-0.0011741
0.00275604
-1.49174
-1.13963
-0.755058
-0.468819
-0.277104
-0.157357
-0.082543
-0.0374805
-0.0121532
-0.00265158
-1.30852
-1.06576
-0.765494
-0.520311
-0.331391
-0.196552
-0.108507
-0.054303
-0.0218705
-0.00614167
-1.17038
-1.02005
-0.783821
-0.564924
-0.375044
-0.226529
-0.126736
-0.0649288
-0.0269499
-0.00726092
-1.08009
-1.00004
-0.798159
-0.590464
-0.39847
-0.24293
-0.136888
-0.0709339
-0.0300872
-0.00793855
-1.04419
-1.01263
-0.817131
-0.603158
-0.407142
-0.249616
-0.141662
-0.073916
-0.0319087
-0.00899249
-1.6172
-1.68655
-1.7416
-1.7839
-1.81455
-1.84562
-1.88884
-1.95993
-2.04999
-2.1805
-1.4742
-1.55994
-1.63451
-1.70482
-1.76568
-1.83387
-1.90874
-2.00393
-2.09444
-2.22889
-1.33955
-1.43053
-1.51411
-1.59625
-1.67169
-1.75284
-1.83237
-1.93331
-2.02785
-2.15199
-1.20741
-1.29508
-1.37961
-1.46086
-1.53514
-1.61346
-1.68282
-1.76539
-1.84169
-1.93393
-1.08237
-1.16336
-1.24223
-1.31602
-1.38571
-1.45452
-1.51446
-1.57843
-1.63632
-1.6993
-0.969848
-1.04351
-1.11251
-1.17654
-1.23784
-1.29511
-1.3487
-1.39969
-1.44695
-1.49242
-0.873494
-0.938057
-0.994207
-1.04762
-1.09864
-1.14609
-1.19385
-1.2354
-1.27427
-1.30643
-0.797023
-0.850194
-0.894828
-0.937971
-0.976228
-1.01723
-1.05682
-1.09127
-1.12655
-1.15224
-0.749843
-0.796203
-0.835617
-0.870897
-0.900488
-0.933982
-0.963873
-0.992248
-1.02155
-1.04116
-0.72915
-0.775807
-0.814535
-0.848076
-0.882436
-0.915406
-0.947952
-0.976639
-1.00067
-1.0125
-0.175093
-0.238109
-0.299847
-0.356681
-0.410539
-0.463482
-0.515197
-0.563211
-0.604132
-0.629974
-0.369755
-0.435459
-0.497971
-0.556712
-0.613521
-0.669279
-0.723308
-0.773766
-0.817482
-0.847821
-0.595586
-0.659655
-0.718888
-0.775591
-0.831593
-0.886548
-0.939395
-0.989465
-1.03405
-1.06697
-0.815819
-0.880116
-0.938615
-0.993915
-1.04815
-1.10103
-1.15159
-1.20032
-1.24427
-1.27639
-1.00923
-1.0772
-1.13835
-1.19423
-1.24715
-1.298
-1.34671
-1.39364
-1.43613
-1.46656
-1.17679
-1.24788
-1.31122
-1.36771
-1.41953
-1.46868
-1.51582
-1.5612
-1.60175
-1.63033
-1.32279
-1.39267
-1.45504
-1.51058
-1.56072
-1.60848
-1.65435
-1.69841
-1.73703
-1.76417
-1.44848
-1.51311
-1.57152
-1.62401
-1.67205
-1.71762
-1.76179
-1.80423
-1.84073
-1.86697
-1.55107
-1.6093
-1.66226
-1.7102
-1.75467
-1.79739
-1.83925
-1.87941
-1.9133
-1.93877
-1.63571
-1.68562
-1.73096
-1.77264
-1.81216
-1.8509
-1.88935
-1.92595
-1.95636
-1.98074
0.975388
0.967002
0.959293
0.951987
0.945007
0.938398
0.932324
0.927486
0.926293
0.935834
0.9161
0.905139
0.894909
0.885095
0.875589
0.866408
0.857748
0.850573
0.847471
0.855179
0.842016
0.828308
0.815216
0.802476
0.789985
0.777718
0.765912
0.755782
0.750083
0.755311
0.751903
0.734602
0.718018
0.701846
0.685932
0.670176
0.654822
0.64133
0.632633
0.63512
0.64949
0.629226
0.609132
0.589134
0.569227
0.549293
0.529613
0.511862
0.49925
0.498337
0.530032
0.504853
0.480019
0.455657
0.431597
0.407515
0.383689
0.361974
0.345505
0.340886
0.399901
0.372174
0.344128
0.315623
0.286785
0.257478
0.228092
0.200832
0.179422
0.171301
0.259888
0.226383
0.191844
0.157574
0.123715
0.0897064
0.0558372
0.0241448
-0.00217805
-0.0144602
0.107533
0.0717626
0.0336963
-0.00568219
-0.0454865
-0.0857978
-0.125955
-0.163434
-0.195011
-0.211677
-0.043075
-0.0877339
-0.134656
-0.180824
-0.226243
-0.272043
-0.317709
-0.360401
-0.396647
-0.417671
1.26677
1.14867
1.19906
1.13745
1.11781
1.09624
1.07706
1.05664
1.05735
1.02317
1.26492
1.14672
1.19667
1.13346
1.11403
1.09091
1.07099
1.04502
1.04044
0.987032
1.26415
1.14485
1.19435
1.12867
1.1095
1.08535
1.06422
1.03102
1.01925
0.940897
1.26446
1.14306
1.19201
1.12299
1.10445
1.07962
1.05673
1.01485
0.994246
0.885103
1.26585
1.14139
1.18947
1.11653
1.09951
1.07367
1.04841
0.996909
0.965275
0.818348
1.2683
1.13979
1.18645
1.11014
1.09517
1.06707
1.03941
0.977489
0.933698
0.742327
1.27183
1.13816
1.18268
1.10495
1.09034
1.05907
1.03011
0.957522
0.898613
0.652857
1.27648
1.13628
1.17839
1.09975
1.08238
1.05003
1.0208
0.936798
0.860163
0.552168
1.28226
1.13415
1.1745
1.09167
1.07254
1.04114
1.01137
0.914829
0.818216
0.438256
1.28889
1.13273
1.1711
1.08211
1.06315
1.03315
1.00186
0.8929
0.77218
0.310312
1.29635
1.13363
1.17054
1.0766
1.05409
1.02406
0.991672
0.86775
0.732704
0.211822
1.30602
1.14128
1.17855
1.07784
1.0454
1.01158
0.979583
0.845355
0.713436
0.228812
1.31379
1.15346
1.19229
1.08349
1.0376
0.996586
0.961996
0.8189
0.685418
0.254135
1.32102
1.1666
1.20605
1.08966
1.02996
0.979308
0.940385
0.789052
0.649219
0.273626
1.32897
1.17574
1.21336
1.0923
1.02187
0.962437
0.914493
0.760354
0.611179
0.284502
1.33774
1.17841
1.21064
1.08828
1.01433
0.947958
0.888846
0.737922
0.571703
0.291604
1.34836
1.17308
1.19767
1.07723
1.00727
0.9372
0.868435
0.724245
0.535258
0.305714
1.36362
1.16868
1.17731
1.06273
1.0008
0.930501
0.852504
0.717868
0.507703
0.326771
1.38155
1.16981
1.16125
1.04937
0.996434
0.925807
0.840362
0.714926
0.489562
0.346643
1.42205
1.17897
1.15685
1.04866
0.998628
0.925863
0.839966
0.715262
0.489934
0.369565
-0.16212
-0.34067
-0.552176
-0.752673
-0.922451
-1.07003
-1.2059
-1.33247
-1.4415
-1.53654
-0.181215
-0.330729
-0.491484
-0.648419
-0.790172
-0.921959
-1.04867
-1.17176
-1.28416
-1.38561
-0.165174
-0.307858
-0.443543
-0.573245
-0.698167
-0.821094
-0.940455
-1.05427
-1.1539
-1.24942
-0.129321
-0.267218
-0.389649
-0.497266
-0.602296
-0.711402
-0.820798
-0.926009
-1.02407
-1.11729
-0.081686
-0.208762
-0.320094
-0.413649
-0.504533
-0.60305
-0.706603
-0.808413
-0.90465
-0.99546
-0.0206458
-0.1331
-0.238302
-0.329062
-0.415557
-0.508549
-0.608234
-0.708427
-0.802794
-0.889633
0.0489208
-0.0517187
-0.155703
-0.251491
-0.339951
-0.429214
-0.523714
-0.621626
-0.716387
-0.800621
0.109765
0.0173258
-0.0851791
-0.185951
-0.277609
-0.364245
-0.454714
-0.551445
-0.647546
-0.729
0.144839
0.054959
-0.0444858
-0.144021
-0.236797
-0.327751
-0.422983
-0.520452
-0.612316
-0.687596
0.163496
0.0725657
-0.0239392
-0.120024
-0.214826
-0.311983
-0.410411
-0.506422
-0.594137
-0.669067
-0.528687
-0.505743
-0.474526
-0.439065
-0.40295
-0.371085
-0.343786
-0.320071
-0.301206
-0.288081
-0.612101
-0.588714
-0.558355
-0.522422
-0.486331
-0.454878
-0.428072
-0.405207
-0.387446
-0.375632
-0.669644
-0.647091
-0.619004
-0.58432
-0.549976
-0.51901
-0.492328
-0.470431
-0.453316
-0.441828
-0.702659
-0.681926
-0.657756
-0.62638
-0.592945
-0.561819
-0.535316
-0.514372
-0.498197
-0.487039
-0.715
-0.696886
-0.677051
-0.649673
-0.618144
-0.587443
-0.560677
-0.539441
-0.523558
-0.512549
-0.711539
-0.696594
-0.680591
-0.657037
-0.628019
-0.598315
-0.571267
-0.548895
-0.532063
-0.52059
-0.69625
-0.684592
-0.671438
-0.650912
-0.624254
-0.595756
-0.568798
-0.545454
-0.527104
-0.514584
-0.672869
-0.6641
-0.652711
-0.634386
-0.61003
-0.583305
-0.557432
-0.534445
-0.515814
-0.503134
-0.646144
-0.639474
-0.628872
-0.611993
-0.58987
-0.565485
-0.541587
-0.519995
-0.502245
-0.491065
-0.622804
-0.617421
-0.607132
-0.591368
-0.57162
-0.550286
-0.529574
-0.511079
-0.495973
-0.487215
-0.608339
-0.603995
-0.594077
-0.579568
-0.562387
-0.544263
-0.526681
-0.51081
-0.496411
-0.481446
-0.605703
-0.602166
-0.592905
-0.58012
-0.565898
-0.551385
-0.537247
-0.524194
-0.511769
-0.496713
-0.613774
-0.61134
-0.603327
-0.591864
-0.58013
-0.568782
-0.557524
-0.546558
-0.535449
-0.521407
-0.630516
-0.629572
-0.623457
-0.612474
-0.602105
-0.592782
-0.582928
-0.57245
-0.561318
-0.547661
-0.652702
-0.653213
-0.648895
-0.640091
-0.630441
-0.621914
-0.612011
-0.600687
-0.588524
-0.574384
-0.680443
-0.682543
-0.681061
-0.67642
-0.666509
-0.65493
-0.643301
-0.631012
-0.617619
-0.601938
-0.721958
-0.725822
-0.725366
-0.721013
-0.71116
-0.698427
-0.685572
-0.672494
-0.658569
-0.643393
-0.777685
-0.782649
-0.78221
-0.777183
-0.767478
-0.754902
-0.741268
-0.727071
-0.712048
-0.696007
-0.846165
-0.851415
-0.850379
-0.844601
-0.834973
-0.822887
-0.809365
-0.794884
-0.779408
-0.762866
-0.927368
-0.932348
-0.930778
-0.92464
-0.915213
-0.903761
-0.890916
-0.876968
-0.861895
-0.845605
-0.48081
-0.396022
-0.334294
-0.262378
-0.19615
-0.136485
-0.0892388
-0.053739
-0.0278339
-0.00787137
-0.495138
-0.392924
-0.326962
-0.25083
-0.186764
-0.129365
-0.0842609
-0.0507302
-0.0262302
-0.00750992
-0.508296
-0.391376
-0.32172
-0.242808
-0.178195
-0.122114
-0.0788375
-0.0470791
-0.0239336
-0.00669132
-0.52212
-0.39214
-0.317994
-0.235613
-0.170089
-0.114844
-0.0731885
-0.0430973
-0.0213054
-0.00566143
-0.539574
-0.394659
-0.315273
-0.228567
-0.162158
-0.107574
-0.0674173
-0.0389424
-0.0185479
-0.00461232
-0.563548
-0.399252
-0.31428
-0.222077
-0.154507
-0.100412
-0.0616405
-0.0347494
-0.0158023
-0.00364109
-0.594911
-0.407707
-0.315997
-0.216593
-0.147198
-0.093355
-0.0558657
-0.0305573
-0.0131192
-0.00276807
-0.637454
-0.423112
-0.321137
-0.21236
-0.140181
-0.0862907
-0.0499878
-0.0262942
-0.0104428
-0.00195359
-0.693714
-0.447988
-0.330237
-0.209461
-0.133366
-0.0790714
-0.0438742
-0.0218519
-0.00767416
-0.00114021
-0.765475
-0.483989
-0.3436
-0.207836
-0.126634
-0.0715478
-0.0374041
-0.017133
-0.00472349
-0.000286941
-0.449077
-0.396081
-0.341992
-0.268274
-0.1991
-0.13826
-0.0904952
-0.0531325
-0.0264663
-0.00754441
-0.441277
-0.3905
-0.340329
-0.268676
-0.199999
-0.139218
-0.0912418
-0.0537248
-0.0266354
-0.00745102
-0.440322
-0.387443
-0.33733
-0.26836
-0.199801
-0.139338
-0.0912811
-0.0537907
-0.026694
-0.00727216
-0.443502
-0.385315
-0.331814
-0.267475
-0.200813
-0.140258
-0.0918983
-0.0544947
-0.0273824
-0.00736532
-0.457226
-0.388788
-0.330317
-0.264119
-0.200966
-0.140445
-0.0920409
-0.0551333
-0.0282478
-0.00774355
-0.279283
-0.362409
-0.426295
-0.47178
-0.500598
-0.514269
-0.515316
-0.506389
-0.491066
-0.469629
-0.277047
-0.360931
-0.424588
-0.469278
-0.497415
-0.511086
-0.512364
-0.50315
-0.488651
-0.466555
-0.277352
-0.362225
-0.426199
-0.470731
-0.498173
-0.510603
-0.50964
-0.499304
-0.483659
-0.467497
-0.279152
-0.365388
-0.430043
-0.474565
-0.500972
-0.511184
-0.506917
-0.494642
-0.478372
-0.470873
-0.282507
-0.370272
-0.435812
-0.4804
-0.505681
-0.513491
-0.506431
-0.492689
-0.478517
-0.479718
0.848851
0.843817
0.836741
0.829949
0.823984
0.81853
0.813662
0.810061
0.809374
0.816603
0.907776
0.906116
0.901938
0.897105
0.892532
0.888273
0.88448
0.88176
0.881967
0.890599
0.955586
0.954333
0.951584
0.948591
0.945942
0.943626
0.941671
0.940409
0.941611
0.951369
0.998031
0.99759
0.996061
0.994337
0.992854
0.991613
0.990553
0.989735
0.990908
1.00113
1.03092
1.03049
1.02952
1.02854
1.02786
1.02747
1.02722
1.02685
1.02782
1.03752
1.05379
1.0531
1.0523
1.05169
1.05147
1.05169
1.05221
1.05255
1.0534
1.06015
1.06501
1.06355
1.06228
1.06132
1.06077
1.06071
1.06107
1.06143
1.06243
1.06945
1.06351
1.06081
1.05848
1.05646
1.0548
1.05354
1.0526
1.05181
1.05269
1.06358
1.04857
1.04428
1.04049
1.03704
1.03392
1.03119
1.02886
1.02705
1.02774
1.03921
1.01939
1.0132
1.00761
1.00241
0.997535
0.993058
0.989077
0.986018
0.986105
0.996951
-0.180981
-0.196538
-0.217229
-0.241819
-0.269503
-0.300469
-0.334544
-0.369485
-0.400057
-0.42102
-0.0597334
-0.0784728
-0.100784
-0.125501
-0.152502
-0.182257
-0.214245
-0.246529
-0.275337
-0.293266
0.0688195
0.0469788
0.0234079
-0.000994776
-0.0266521
-0.0544167
-0.0840566
-0.113652
-0.139963
-0.152873
0.198973
0.17506
0.150881
0.126953
0.102649
0.0771228
0.0504691
0.0244014
0.00214528
-0.00684336
0.321201
0.297025
0.273686
0.251489
0.229629
0.20732
0.184572
0.162747
0.144909
0.139878
0.4315
0.409364
0.388837
0.369766
0.351118
0.332229
0.313197
0.295371
0.281757
0.280456
0.530877
0.512952
0.496618
0.481055
0.465472
0.44972
0.434133
0.420042
0.410257
0.412094
0.62324
0.609551
0.596669
0.583779
0.570675
0.557556
0.54486
0.533934
0.527394
0.531653
0.71384
0.701912
0.690101
0.678467
0.666998
0.655801
0.645352
0.636991
0.632955
0.638646
0.800453
0.78875
0.775799
0.763941
0.75333
0.743715
0.73535
0.729188
0.726903
0.733237
1.3438
1.17711
1.21502
1.13713
1.12788
1.10696
1.07621
1.04991
1.00917
0.932828
1.33101
1.17288
1.2161
1.14074
1.12931
1.11016
1.08157
1.05726
1.02661
0.967274
1.31939
1.1689
1.21615
1.1433
1.13003
1.11237
1.0861
1.06503
1.04535
1.001
1.30894
1.16542
1.21539
1.14515
1.13029
1.11374
1.08969
1.07143
1.06032
1.02955
1.29966
1.16236
1.21386
1.14618
1.12993
1.11407
1.09188
1.07575
1.0712
1.05153
1.29152
1.15964
1.21178
1.14642
1.12891
1.11332
1.09256
1.07804
1.07836
1.06675
1.28448
1.15718
1.20938
1.14597
1.1274
1.1116
1.09186
1.07836
1.08197
1.07467
1.27851
1.15491
1.20681
1.14489
1.12554
1.10896
1.08988
1.07655
1.08194
1.07483
1.27357
1.15275
1.20417
1.14315
1.12339
1.10545
1.08668
1.0724
1.078
1.06666
1.26966
1.15068
1.20157
1.14067
1.12087
1.10115
1.08235
1.06578
1.06985
1.04961
1.45736
1.18717
1.19419
1.11685
1.11593
1.08995
1.05377
1.02015
0.959786
0.874577
1.42161
1.18962
1.19938
1.1186
1.1179
1.09213
1.05509
1.02082
0.958571
0.867851
1.39928
1.18743
1.20334
1.12175
1.11944
1.09457
1.05774
1.0245
0.962837
0.869917
1.37737
1.18474
1.20823
1.12712
1.12242
1.09886
1.06379
1.03249
0.970674
0.877735
1.35876
1.18143
1.21218
1.13228
1.12542
1.10297
1.06973
1.03877
0.984068
0.8874
0.736662
0.679849
0.612241
0.531018
0.43341
0.319223
0.193364
0.0637111
-0.0611652
-0.17737
0.7299
0.67282
0.605776
0.526762
0.433054
0.322739
0.199038
0.0693591
-0.0567442
-0.174314
0.737261
0.678647
0.609476
0.529746
0.436683
0.327565
0.204501
0.0742181
-0.0533335
-0.172715
0.754675
0.688586
0.614503
0.532925
0.439646
0.331267
0.208694
0.0777709
-0.0512918
-0.172619
0.787187
0.706638
0.622683
0.5363
0.441049
0.332656
0.210676
0.0795028
-0.0508864
-0.174124
)
;

boundaryField
{
    left
    {
        type            zeroGradient;
    }
    right
    {
        type            fixedValue;
        value           uniform 0;
    }
    down
    {
        type            zeroGradient;
    }
    up
    {
        type            zeroGradient;
    }
    cylinder
    {
        type            zeroGradient;
    }
    defaultFaces
    {
        type            empty;
    }
}


// ************************************************************************* //
