/*--------------------------------*- C++ -*----------------------------------*\
| =========                 |                                                 |
| \\      /  F ield         | OpenFOAM: The Open Source CFD Toolbox           |
|  \\    /   O peration     | Version:  2406                                  |
|   \\  /    A nd           | Website:  www.openfoam.com                      |
|    \\/     M anipulation  |                                                 |
\*---------------------------------------------------------------------------*/
FoamFile
{
    version     2.0;
    format      ascii;
    arch        "LSB;label=32;scalar=64";
    class       surfaceScalarField;
    location    "0.55";
    object      phi;
}
// * * * * * * * * * * * * * * * * * * * * * * * * * * * * * * * * * * * * * //

dimensions      [0 3 -1 0 0 0 0];

oriented        oriented;

internalField   nonuniform List<scalar> 
3485
(
0.00307356
0.00490384
-0.0079774
0.00905686
0.00923101
-0.0152143
0.0171964
0.00917328
-0.0173128
0.0278447
0.00542316
-0.0160715
0.0409441
-0.000244393
-0.012855
0.0563455
-0.00637878
-0.00902268
0.073777
-0.0120599
-0.00537154
0.0930733
-0.0172565
-0.00203978
0.114162
-0.0222587
0.00116992
-0.0245939
0.00375054
0.135005
0.00265967
0.00224417
0.00822
0.00367068
0.0167763
0.000616984
0.0284692
-0.00626971
0.0427355
-0.0145107
0.0587679
-0.0224112
0.0761156
-0.0294076
0.0944662
-0.0356071
0.113669
-0.0414618
-0.0449023
0.133978
0.0018908
0.000353377
0.00749321
-0.00193173
0.0172603
-0.00915011
0.0304508
-0.0194602
0.0459357
-0.0299956
0.0628924
-0.0393679
0.0808306
-0.0473458
0.0994738
-0.0542503
0.118668
-0.0606558
-0.0648146
0.13858
0.0015037
-0.00115033
0.00791876
-0.00834679
0.0191081
-0.0203395
0.0334753
-0.0338274
0.0496725
-0.0461927
0.0668812
-0.0565767
0.0846737
-0.0651382
0.102881
-0.0724576
0.121466
-0.0792414
-0.0839516
0.140603
0.00223059
-0.00338091
0.0101311
-0.0162473
0.0225861
-0.0327945
0.0376978
-0.0489391
0.054055
-0.0625499
0.0708888
-0.0734105
0.087902
-0.0821513
0.105108
-0.0896632
0.122673
-0.096807
-0.102799
0.141521
0.00315425
-0.00653516
0.0125322
-0.0256252
0.0260033
-0.0462656
0.0413207
-0.0642566
0.0570846
-0.0783137
0.072709
-0.0890349
0.0881676
-0.0976099
0.10378
-0.105276
0.120081
-0.113108
-0.121277
0.138559
0.00404302
-0.0105782
0.0145924
-0.0361746
0.0284931
-0.0601663
0.0432025
-0.078966
0.0575127
-0.0926239
0.0712213
-0.102744
0.084696
-0.111085
0.098605
-0.119185
0.113772
-0.128275
-0.138966
0.131461
0.00486541
-0.0154436
0.0160332
-0.0473424
0.0293789
-0.073512
0.0424075
-0.0919946
0.0544139
-0.10463
0.0657132
-0.114043
0.0770524
-0.122424
0.0893229
-0.131455
0.103294
-0.142246
-0.154992
0.11932
0.00548213
-0.0209257
0.0164302
-0.0582905
0.0281328
-0.0852146
0.0386224
-0.102484
0.0478776
-0.113886
0.0566547
-0.12282
0.0659
-0.131669
0.0764718
-0.142027
0.0887006
-0.154475
-0.168219
0.101928
0.00571808
-0.0266438
0.0155026
-0.068075
0.0247258
-0.0944378
0.032275
-0.110033
0.0387306
-0.120341
0.045058
-0.129147
0.0521895
-0.138801
0.0607381
-0.150576
0.0704907
-0.164227
0.0802618
-0.177991
-0.00194168
0.0170211
-0.0150794
-0.00498386
0.0282622
-0.02522
-0.0082056
0.0316166
-0.0283948
-0.0113996
0.0325005
-0.0293065
-0.0144607
0.0322052
-0.0291442
-0.0173086
0.0311116
-0.0282637
-0.0198963
0.0293695
-0.0267818
-0.0221697
0.0269653
-0.0246919
-0.0240229
0.0237957
-0.0219425
0.0197843
-0.0252977
-0.0185095
-0.00171232
0.0187334
-0.00445298
0.0310028
-0.007309
0.0344726
-0.0101661
0.0353575
-0.0129587
0.0349978
-0.0156084
0.0337614
-0.0180596
0.0318207
-0.0202578
0.0291635
-0.0221049
0.0256428
0.0211216
-0.0234421
-0.00133117
0.0200646
-0.00354063
0.0332123
-0.00571705
0.036649
-0.00792025
0.0375607
-0.0101713
0.0372489
-0.0123609
0.035951
-0.0144162
0.033876
-0.0162938
0.031041
-0.0179123
0.0272614
0.0223289
-0.0191196
-0.000868858
0.0209334
-0.00234051
0.0346839
-0.00355279
0.0378613
-0.0046836
0.0386915
-0.006073
0.0386383
-0.00754543
0.0374234
-0.00894911
0.0352796
-0.0102404
0.0323323
-0.0113641
0.028385
0.0231417
-0.0121769
-0.000145634
0.0210791
-0.000475119
0.0350134
-0.000646399
0.0380326
-0.000742673
0.0387878
-0.001006
0.0389016
-0.00141814
0.0378355
-0.00183169
0.0356932
-0.00220123
0.0327019
-0.00248841
0.0286722
0.0231617
-0.0025084
0.0010896
0.0199895
0.00224308
0.0338599
0.0029809
0.0372948
0.00358373
0.038185
0.004438
0.0380473
0.00544536
0.0368282
0.00648833
0.0346502
0.00749896
0.0316912
0.0084735
0.0276977
0.021985
0.00965016
0.00217513
0.0178144
0.00486972
0.0311654
0.00704654
0.035118
0.00912506
0.0361065
0.0115317
0.0356407
0.014221
0.0341389
0.0169995
0.0318717
0.0197473
0.0289435
0.0224179
0.025027
0.0191101
0.0252928
0.00300358
0.0148108
0.00730214
0.0268668
0.0114917
0.0309284
0.0158089
0.0317892
0.0204964
0.0309532
0.0254892
0.0291461
0.0305794
0.0267815
0.0356164
0.0239065
0.0405241
0.0201194
0.014067
0.0455671
0.00346931
0.0113415
0.00906085
0.0212753
0.0152548
0.0247344
0.0220894
0.0249547
0.0297151
0.0233275
0.0379927
0.0208684
0.0465849
0.0181893
0.0550919
0.0153995
0.0631077
0.0121036
0.00679569
0.070379
0.00336406
0.009425
0.0168466
0.0257298
0.0362024
0.0480481
0.0608659
0.0742256
0.0874991
0.0980454
0.00100621
-0.036642
0.0103381
0.0551044
-0.246314
0.192216
0.0945129
-0.247045
0.207637
0.122833
-0.224082
0.195762
0.140608
-0.184881
0.167107
0.151088
-0.145274
0.134794
0.156619
-0.109735
0.104205
0.158962
-0.0785345
0.076192
0.15936
-0.0528155
0.0524169
-0.0234294
0.0244613
-0.00319585
-0.0568883
0.0465676
-0.296078
0.0884591
-0.288937
0.11907
-0.254693
0.138745
-0.204556
0.150439
-0.156968
0.15674
-0.116037
0.159599
-0.0813928
0.160417
-0.0536343
-0.0225998
-0.00699108
-0.0690168
0.0368046
-0.339873
0.0809707
-0.333103
0.113943
-0.287665
0.135716
-0.22633
0.148844
-0.170097
0.156148
-0.12334
0.159731
-0.0849761
0.161194
-0.0550976
-0.0221506
-0.00795257
-0.0732411
0.0289608
-0.376787
0.0742378
-0.37838
0.108948
-0.322375
0.132456
-0.249838
0.146918
-0.184559
0.15528
-0.131702
0.159693
-0.0893898
0.161964
-0.0573685
-0.0222412
-0.00303391
-0.0727156
0.0275802
-0.407401
0.0721328
-0.422932
0.106909
-0.357151
0.130883
-0.273812
0.14595
-0.199626
0.155036
-0.140787
0.160159
-0.0945131
0.163275
-0.0604845
-0.0229929
0.00835598
-0.0714214
0.0366374
-0.435682
0.0791
-0.465395
0.111767
-0.389819
0.134118
-0.296163
0.148259
-0.213766
0.157119
-0.149648
0.162435
-0.0998291
0.166192
-0.0642415
-0.0244488
0.0272202
-0.0733488
0.056671
-0.465133
0.0967155
-0.505439
0.126438
-0.419541
0.145521
-0.315245
0.157003
-0.225248
0.164225
-0.15687
0.168789
-0.104393
0.172617
-0.0680694
-0.0265283
0.0519684
-0.07975
0.0824824
-0.495647
0.120978
-0.543935
0.149245
-0.447808
0.165648
-0.331649
0.174117
-0.233717
0.178882
-0.161635
0.181886
-0.107397
0.185056
-0.0712398
-0.029086
0.0769218
-0.0862928
0.105301
-0.524026
0.144145
-0.582779
0.173949
-0.477612
0.190289
-0.347988
0.197443
-0.240872
0.200584
-0.164776
0.202318
-0.109131
0.204777
-0.0736984
-0.0322096
0.101945
-0.0901929
0.119942
-0.542022
0.160168
-0.623006
0.194477
-0.511921
0.213471
-0.366982
0.221458
-0.248858
0.224625
-0.167944
0.226357
-0.110863
0.229021
-0.0763624
-0.0364
0.371341
-0.255395
-0.206138
0.441049
-0.611731
0.473324
-0.655281
0.483271
-0.521868
0.472983
-0.356693
0.45425
-0.230126
0.435358
-0.149052
0.420896
-0.0964014
0.411566
-0.0670317
-0.0331171
0.541338
-0.384891
-0.411842
0.56876
-0.639153
0.559293
-0.645814
0.54247
-0.505045
0.524122
-0.338346
0.504764
-0.210767
0.486631
-0.130919
0.472666
-0.0824362
0.46307
-0.0574353
-0.0291632
0.754844
-0.451387
-0.688348
0.731349
-0.615658
0.674598
-0.589063
0.620602
-0.451049
0.579252
-0.296996
0.549026
-0.180542
0.526947
-0.108839
0.511481
-0.066971
0.500761
-0.0467154
-0.0246748
0.853555
-0.441543
-0.863399
0.785425
-0.547528
0.714485
-0.518123
0.653982
-0.390547
0.605181
-0.248194
0.569784
-0.145145
0.545473
-0.0845286
0.529135
-0.0506336
0.517927
-0.0355072
-0.0202213
0.910417
-0.410774
-0.941186
0.839596
-0.476707
0.757062
-0.435589
0.681033
-0.314518
0.620144
-0.187305
0.577927
-0.102927
0.550691
-0.0572933
0.533005
-0.0329477
0.520673
-0.0231749
-0.0151989
0.923293
-0.364294
-0.969773
0.84425
-0.397663
0.755324
-0.346663
0.674931
-0.234125
0.612036
-0.12441
0.569369
-0.0602605
0.542914
-0.0308385
0.526505
-0.0165384
0.515777
-0.012447
-0.0104054
0.91615
-0.305454
-0.974991
0.823969
-0.305482
0.719449
-0.242143
0.632007
-0.146683
0.571853
-0.0642557
0.534836
-0.023243
0.513089
-0.00909174
0.500214
-0.00366358
0.491636
-0.00386857
-0.00575101
0.847456
-0.220011
-0.932899
0.728546
-0.186573
0.609827
-0.123424
0.525106
-0.0619613
0.477145
-0.0162951
0.452119
0.00178316
0.438545
0.00448217
0.430917
0.00396463
0.425466
0.00158233
-0.00200809
0.614109
-0.102677
-0.731443
0.484727
-0.0571902
0.385702
-0.0244001
0.33055
-0.00680895
0.309035
0.00521968
0.302617
0.00820164
0.300541
0.00655782
0.300004
0.00450158
0.299115
0.00247152
-5.55937e-05
0.172642
-0.275319
0.115452
0.0910516
0.0842427
0.0894624
0.097664
0.104222
0.108723
0.111195
0.543573
0.0873681
-0.55068
0.529324
0.116178
0.509667
0.138977
0.479026
0.162101
0.440595
0.176991
0.39068
0.191436
0.3377
0.193583
0.283577
0.192703
0.234061
0.183493
0.162929
0.595346
0.0809698
-0.588948
0.598142
0.113382
0.601168
0.135951
0.598807
0.164463
0.592887
0.18291
0.578822
0.205501
0.552026
0.220379
0.517773
0.226956
0.463491
0.237775
0.214578
0.631982
0.0709532
-0.621965
0.644263
0.1011
0.655988
0.124226
0.671367
0.149084
0.6846
0.169677
0.70157
0.188531
0.70991
0.212039
0.715732
0.221134
0.710895
0.242611
0.237125
0.657415
0.0593604
-0.645822
0.673365
0.0851495
0.689165
0.108426
0.710185
0.128064
0.731675
0.148186
0.758598
0.161608
0.788364
0.182273
0.815835
0.193663
0.84633
0.212117
0.220056
0.676026
0.0469767
-0.663643
0.692501
0.0686754
0.710735
0.0901919
0.733146
0.105653
0.758421
0.122912
0.787337
0.132692
0.822434
0.147177
0.85933
0.156766
0.901172
0.170276
0.180041
0.681979
0.0345049
-0.669507
0.698356
0.0522985
0.718889
0.069658
0.742974
0.0815686
0.771176
0.0947098
0.802714
0.101154
0.838922
0.110968
0.878847
0.116842
0.922973
0.12615
0.133242
0.668147
0.0219835
-0.655625
0.684892
0.0355528
0.707801
0.0467493
0.734106
0.055264
0.765956
0.0628593
0.800692
0.0664178
0.839741
0.07192
0.881695
0.0748874
0.926885
0.0809597
0.0851356
0.616456
0.0104203
-0.604893
0.634442
0.017567
0.658277
0.0229143
0.686924
0.0266174
0.721145
0.0286384
0.757411
0.0301512
0.798068
0.0312631
0.84006
0.0328952
0.885693
0.0353274
0.0379292
0.498152
0.000312257
-0.488044
0.513895
0.00182363
0.533589
0.0032205
0.556822
0.00338425
0.582011
0.00344989
0.608659
0.00350324
0.636552
0.0033699
0.666087
0.00335989
0.69755
0.00386504
0.00403545
0.245307
-0.244995
0.24713
0.250351
0.253735
0.257185
0.260688
0.264058
0.267418
0.271283
0.0473056
0.124276
-0.112065
-0.0595173
0.0390006
0.117397
-0.109092
0.0325818
0.113347
-0.106928
0.026746
0.110931
-0.105095
0.0210498
0.10913
-0.103434
0.0155415
0.107223
-0.101715
0.0103417
0.104376
-0.099176
0.0055482
0.0989425
-0.0941489
0.00173467
0.085351
-0.0815374
0.0474081
-0.0456734
0.0441162
0.137311
-0.0571508
0.0335456
0.127967
0.0257136
0.121179
0.0197157
0.116929
0.0147475
0.114098
0.0104575
0.111513
0.00668029
0.108153
0.0033217
0.102301
0.000843299
0.0878294
0.0482514
0.0418712
0.150859
-0.0554196
0.0295128
0.140326
0.0199991
0.130693
0.013304
0.123624
0.00860456
0.118798
0.00519174
0.114926
0.00263041
0.110714
0.000726748
0.104205
-0.000253173
0.0888093
0.0479982
0.0385
0.163101
-0.0507414
0.0265055
0.15232
0.0165523
0.140646
0.00944038
0.130736
0.00476269
0.123475
0.00173328
0.117955
-0.000195404
0.112643
-0.00115719
0.105167
-0.00102582
0.0886779
0.0469724
0.0334072
0.173073
-0.0433793
0.0233596
0.162368
0.0144618
0.149544
0.00772301
0.137475
0.00316986
0.128029
0.00023919
0.120886
-0.00152652
0.114409
-0.00217968
0.10582
-0.00154651
0.0880447
0.0454259
0.0245934
0.180383
-0.0319038
0.0173169
0.169644
0.0107147
0.156146
0.00542566
0.142764
0.00158451
0.13187
-0.00105506
0.123525
-0.0026789
0.116033
-0.00312883
0.10627
-0.00205022
0.0869661
0.0433757
0.0113318
0.185024
-0.0159729
0.00717892
0.173797
0.00356003
0.159765
0.000500855
0.145823
-0.00197598
0.134347
-0.00382378
0.125373
-0.0048841
0.117093
-0.00471761
0.106103
-0.00277725
0.0850258
0.0405984
-0.0073238
0.186313
0.0060347
-0.00774107
0.174215
-0.00784969
0.159874
-0.00813662
0.14611
-0.00862751
0.134837
-0.00901045
0.125756
-0.00879444
0.116877
-0.00724183
0.10455
-0.00374848
0.0815324
0.03685
-0.0282574
0.184137
0.0304338
-0.0250431
0.171
-0.0218724
0.156703
-0.0194652
0.143702
-0.0177657
0.133138
-0.0162143
0.124205
-0.0140489
0.114711
-0.0103391
0.100841
-0.00474152
0.0759348
0.0321084
-0.0500615
0.056208
-0.0432887
-0.0371613
-0.0322595
-0.0282689
-0.0244054
-0.0197273
-0.0133245
-0.00546465
0.0646036
0.0375338
-0.0732474
-0.02889
0.056197
0.0371968
-0.0287902
0.0480257
0.0367857
-0.0286144
0.0400679
0.036398
-0.0284401
0.0322878
0.0360834
-0.0283033
0.0246579
0.0357456
-0.0281157
0.0171989
0.0350114
-0.0275523
0.0100537
0.0330499
-0.0259047
0.0037336
0.0281143
-0.0217942
0.0156549
-0.0119213
0.0658062
0.0463012
-0.0745735
0.0572591
0.0457438
0.0489486
0.0450962
0.0408546
0.044492
0.0329414
0.0439966
0.0251777
0.0435092
0.0175794
0.0426097
0.0102841
0.0403452
0.00381282
0.0345856
0.0194677
0.0663851
0.0551505
-0.0752345
0.0578149
0.054314
0.0494837
0.0534274
0.0413584
0.0526173
0.0333929
0.0519622
0.0255553
0.0513468
0.0178678
0.0502972
0.0104714
0.0477415
0.0038871
0.04117
0.0233548
0.0660888
0.0639664
-0.0749046
0.0574237
0.062979
0.0490199
0.0618312
0.0408598
0.0607774
0.0329077
0.0599143
0.025126
0.0591284
0.0175203
0.057903
0.0102165
0.0550453
0.00374381
0.0476426
0.0270987
0.0671552
0.0729792
-0.076168
0.0585273
0.071607
0.0500997
0.0702588
0.0418509
0.0690262
0.0337487
0.0680164
0.0257833
0.0670939
0.0179983
0.065688
0.0105341
0.0625095
0.00389452
0.0542822
0.0309932
0.0616179
0.0813924
-0.0700312
0.0533303
0.0798946
0.0454223
0.0781668
0.0378222
0.0766263
0.030442
0.0753966
0.0232106
0.0743252
0.0161243
0.0727743
0.00931434
0.0693195
0.00332207
0.0602745
0.0343153
0.0662694
0.0904447
-0.0753217
0.0576419
0.0885221
0.0491154
0.0866933
0.0407321
0.0850097
0.0325515
0.0835772
0.0246292
0.0822475
0.0170278
0.0803757
0.00985701
0.0764903
0.00356829
0.0665632
0.0378835
0.0548005
0.0982939
-0.0626497
0.0473417
0.095981
0.0404334
0.0936016
0.0338455
0.0915976
0.0273695
0.0900531
0.0209099
0.0887072
0.0144992
0.0867864
0.00830453
0.0826849
0.00289835
0.0719694
0.0407819
0.0563447
0.106052
-0.0641025
0.0486777
0.103648
0.0410075
0.101272
0.0336102
0.098995
0.0265785
0.0970848
0.0198881
0.0953976
0.0135474
0.0931271
0.00765455
0.0885778
0.00264557
0.0769784
0.0434275
0.0482918
-0.0543047
0.0428479
0.0371912
0.0310911
0.024742
0.0184251
0.0123762
0.00680503
0.00224599
0.199343
0.0664148
-0.0677684
0.193331
0.205549
-0.199537
0.186981
0.197091
-0.190742
0.183508
0.156694
-0.153221
0.180919
0.139207
-0.136618
0.177692
0.139767
-0.136541
0.170542
0.15232
-0.145171
0.158099
0.181667
-0.169224
0.127091
0.230032
-0.199024
0.312066
-0.258222
0.198879
0.0655258
0.191837
0.212591
0.184971
0.203958
0.181097
0.160568
0.178504
0.1418
0.175672
0.142599
0.169349
0.158644
0.157065
0.193951
0.127094
0.260003
0.364586
0.198278
0.0652379
0.189887
0.220982
0.182149
0.211696
0.177632
0.165086
0.174876
0.144555
0.172223
0.145252
0.16655
0.164317
0.154177
0.206324
0.125724
0.288456
0.415076
0.197587
0.0656402
0.187498
0.231072
0.178417
0.220776
0.173213
0.170289
0.170357
0.147411
0.167626
0.147983
0.162221
0.169723
0.149572
0.218973
0.122688
0.31534
0.46286
0.19689
0.0667397
0.184692
0.24327
0.17377
0.231698
0.168273
0.175786
0.165438
0.150246
0.162142
0.151279
0.156446
0.175418
0.143313
0.232106
0.120427
0.338226
0.507118
0.196249
0.0684804
0.181586
0.257933
0.168716
0.244569
0.163661
0.180841
0.160558
0.153349
0.156024
0.155813
0.149596
0.181846
0.135848
0.245854
0.112677
0.361397
0.549764
0.195649
0.0708208
0.178674
0.274909
0.164688
0.258554
0.160218
0.185311
0.155895
0.157673
0.149714
0.161994
0.142403
0.189157
0.127402
0.260855
0.111571
0.377227
0.586014
0.19518
0.0736303
0.176837
0.293253
0.162744
0.272647
0.157884
0.190171
0.152093
0.163463
0.144541
0.169546
0.135766
0.197932
0.119654
0.276968
0.103111
0.39377
0.626475
0.194974
0.0766462
0.176675
0.311552
0.163419
0.285903
0.158043
0.195547
0.152396
0.169111
0.143878
0.178064
0.133495
0.208314
0.114982
0.29548
0.0986331
0.410119
0.661006
0.195327
0.0793086
0.178867
0.328013
0.16861
0.29616
0.164322
0.199835
0.158626
0.174807
0.147863
0.188827
0.133146
0.223031
0.111055
0.317571
0.0971429
0.424031
0.703844
0.315005
0.0663138
0.32146
0.321557
0.327659
0.28996
0.332425
0.195069
0.338238
0.168994
0.337432
0.189633
0.341796
0.218667
0.344259
0.315109
0.371655
0.396636
0.641256
0.434243
0.320893
0.047431
0.352499
0.289951
0.375119
0.267341
0.38647
0.183718
0.395496
0.159968
0.403658
0.181471
0.407997
0.214328
0.424462
0.298644
0.438699
0.382398
0.583088
0.496867
0.323389
0.0260522
0.377633
0.235707
0.415646
0.229328
0.434131
0.165232
0.447057
0.147043
0.46443
0.164097
0.469478
0.209279
0.502511
0.265611
0.527429
0.357481
0.530588
0.579929
0.322699
0.00536382
0.391029
0.167377
0.441012
0.179345
0.465737
0.140507
0.482053
0.130728
0.506396
0.139754
0.516382
0.199294
0.556374
0.225619
0.603409
0.310446
0.478621
0.655376
0.320392
-0.0130181
0.394128
0.0936405
0.452476
0.120998
0.48188
0.111103
0.501603
0.111005
0.528769
0.112588
0.546163
0.1819
0.587446
0.184336
0.64913
0.248762
0.422559
0.705192
0.318537
-0.0295448
0.390932
0.0212454
0.452431
0.0594984
0.484435
0.0790986
0.50767
0.0877706
0.533848
0.0864094
0.561702
0.154046
0.602682
0.143355
0.663167
0.188277
0.358256
0.72747
0.317593
-0.0451275
0.380688
-0.0418502
0.437465
0.0027221
0.469232
0.0473315
0.496045
0.0609577
0.52083
0.0616247
0.558787
0.116088
0.598018
0.104125
0.650443
0.135852
0.276014
0.732685
0.314813
-0.0579299
0.355126
-0.0821639
0.393949
-0.0361008
0.419938
0.0213423
0.447767
0.0331287
0.470995
0.038397
0.516162
0.0709214
0.555243
0.0650433
0.602634
0.0884611
0.175929
0.70272
0.302245
-0.0581651
0.295968
-0.0758867
0.2973
-0.0374322
0.312276
0.00636585
0.334571
0.0108334
0.356983
0.0159849
0.400554
0.0273506
0.437961
0.0276369
0.488314
0.0381073
0.071553
0.59269
0.243845
0.167958
0.130526
0.136892
0.147725
0.16371
0.191061
0.218698
0.256805
0.328358
0.461011
-0.0862858
0.484151
-0.0802903
0.50471
-0.075979
0.522337
-0.0683677
0.535898
-0.0569404
0.544821
-0.0408273
0.550565
-0.0217168
0.553238
0.00336161
0.554356
0.0293164
0.0598838
0.516574
-0.105993
0.533935
-0.0976514
0.546653
-0.0886974
0.555669
-0.0773836
0.562025
-0.063296
0.566647
-0.0454495
0.571027
-0.0260968
0.57678
-0.00239133
0.583142
0.0229539
0.0540782
0.585503
-0.111567
0.592527
-0.104675
0.596847
-0.0930177
0.598889
-0.079425
0.599853
-0.06426
0.601172
-0.0467685
0.603032
-0.0279571
0.606513
-0.00587277
0.612795
0.0166719
0.0449085
0.649807
-0.105998
0.644115
-0.0989831
0.638854
-0.087757
0.63414
-0.0747115
0.630175
-0.0602946
0.627902
-0.0444958
0.627354
-0.0274084
0.630248
-0.00876683
0.635733
0.0111861
0.03482
0.690869
-0.0916747
0.677136
-0.0852501
0.665728
-0.0763488
0.656939
-0.0659226
0.65046
-0.0538152
0.646632
-0.0406683
0.645607
-0.0263827
0.648346
-0.0115066
0.653953
0.00557946
0.0251303
0.710178
-0.0743827
0.693155
-0.0682271
0.679299
-0.0624935
0.668628
-0.055251
0.660759
-0.0459465
0.655915
-0.0358238
0.654161
-0.0246286
0.655948
-0.0132936
0.660896
0.000631088
0.0165195
0.711205
-0.052903
0.692361
-0.049383
0.676334
-0.0464665
0.6634
-0.0423169
0.653428
-0.0359744
0.646876
-0.0292722
0.643572
-0.0213241
0.644083
-0.0138045
0.647742
-0.00302825
0.00863641
0.679815
-0.0299983
0.659619
-0.0291874
0.64122
-0.0280669
0.625204
-0.0263007
0.612637
-0.0234081
0.60374
-0.020375
0.598434
-0.0160185
0.596441
-0.0118115
0.598338
-0.00492481
0.00208133
0.572196
-0.00950398
0.552433
-0.00942461
0.534019
-0.00965278
0.518078
-0.0103602
0.505593
-0.0109226
0.495703
-0.0104855
0.488532
-0.00884705
0.483838
-0.00711759
0.483564
-0.00465036
-0.00239886
0.318854
0.30943
0.299777
0.289417
0.278494
0.268008
0.259161
0.252044
0.247393
0.00346174
0.034194
-0.0376558
0.00617187
0.0772563
-0.0799664
0.00619015
0.100146
-0.100164
0.00478788
0.110108
-0.108706
0.00338174
0.113443
-0.112037
0.00145594
0.114576
-0.11265
-0.000715525
0.113313
-0.111142
-0.00209498
0.109059
-0.107679
-0.00207912
0.101541
-0.101556
0.0895667
-0.000637207
-0.0910086
0.00474073
0.0294533
0.0104945
0.0715025
0.0138472
0.0967931
0.0151123
0.108843
0.0157189
0.112836
0.0158616
0.114433
0.0151718
0.114003
0.0142189
0.110012
0.0136785
0.102081
0.0897009
0.0135443
0.00543234
0.024021
0.0138301
0.0631048
0.0205903
0.090033
0.0248114
0.104622
0.027173
0.110475
0.0289336
0.112673
0.0300127
0.112924
0.0300369
0.109987
0.029251
0.102867
0.091258
0.027694
0.00543801
0.018583
0.0154795
0.0530632
0.025209
0.0803035
0.0324896
0.0973416
0.0372696
0.105695
0.0407561
0.109186
0.0435571
0.110123
0.0451401
0.108404
0.0450574
0.102949
0.0932575
0.0430579
0.00487057
0.0137124
0.0152313
0.0427025
0.0268479
0.0686868
0.0368851
0.0873044
0.0444618
0.098118
0.0502073
0.103441
0.0548936
0.105436
0.0584545
0.104844
0.0602119
0.101192
0.093993
0.0594764
0.00395768
0.0097547
0.0134185
0.0332417
0.0254816
0.0566237
0.0373961
0.0753899
0.047628
0.0878862
0.0560201
0.0950485
0.0630219
0.0984346
0.0688676
0.0989978
0.0731793
0.0968804
0.0919366
0.0752357
0.00284631
0.00690839
0.0105012
0.0255868
0.021526
0.0455989
0.0338627
0.0630532
0.0458045
0.0759443
0.0565642
0.0842888
0.0660508
0.088948
0.0743677
0.0906809
0.0813917
0.0898564
0.0865865
0.0867418
0.0017105
0.00519789
0.00719228
0.0201051
0.0162178
0.0365734
0.0276165
0.0516546
0.0399477
0.0636131
0.0521755
0.072061
0.0637892
0.0773343
0.0745784
0.0798917
0.0843399
0.0800949
0.0780995
0.092827
0.000709826
0.00448806
0.00415032
0.0166646
0.0109042
0.0298195
0.0205251
0.0420337
0.0320048
0.0521334
0.0443721
0.0596938
0.0569331
0.0647732
0.0692154
0.0676095
0.0808824
0.0684279
0.0671032
0.0918786
3.20373e-05
0.00445602
0.00198933
0.0147073
0.00685928
0.0249495
0.0146414
0.0342516
0.0247425
0.0420323
0.0364501
0.0479862
0.0491659
0.0520574
0.0624075
0.0543679
0.0757343
0.0551011
0.0545103
0.0883272
-0.000336273
0.0047923
0.000721603
0.0136494
0.00418554
0.0214856
0.0102253
0.0282118
0.0185122
0.0337453
0.0285519
0.0379465
0.0398411
0.0407682
0.0518415
0.0423675
0.0637787
0.0431639
0.0442282
0.0740608
-0.000402173
0.00519447
0.000205306
0.0130419
0.00268054
0.0190104
0.00720451
0.0236878
0.0135411
0.0274087
0.0213027
0.0301849
0.0300458
0.0320251
0.0392607
0.0331526
0.048388
0.0340366
0.0354245
0.0571918
-0.000386923
0.00558139
-8.4909e-05
0.0127399
0.00155794
0.0173675
0.00473055
0.0205152
0.00917838
0.0229609
0.0145442
0.0248191
0.0205103
0.0260591
0.0267793
0.0268835
0.0331661
0.0276499
0.028719
0.0398715
-0.000403896
0.00598529
-0.000452797
0.0127888
0.000352662
0.016562
0.00210971
0.0187582
0.00465822
0.0204124
0.00777889
0.0216984
0.0113658
0.0224722
0.0153371
0.0229121
0.0197043
0.0232827
0.0237629
0.0246604
-0.000586191
0.00657148
-0.00116712
0.0133697
-0.0013399
0.0167348
-0.00102167
0.01844
-0.000255415
0.0196461
0.00101662
0.0204264
0.00283937
0.0206495
0.00518531
0.0205662
0.00807489
0.0203931
0.0201847
0.0116532
-0.00124205
0.00781353
-0.00270026
0.0148279
-0.00370799
0.0177426
-0.00432114
0.0190531
-0.0046411
0.0199661
-0.00462935
0.0204146
-0.00419699
0.0202171
-0.00326634
0.0196356
-0.00176792
0.0188947
0.0180453
0.000371393
-0.00159869
0.00941222
-0.00357436
0.0168036
-0.00534203
0.0195102
-0.00691432
0.0206254
-0.00816803
0.0212198
-0.00907938
0.021326
-0.00968799
0.0208257
-0.0098893
0.0198369
-0.00953956
0.018545
0.0170061
-0.00850035
-0.00174821
0.0111604
-0.00420648
0.0192619
-0.00674315
0.0220469
-0.00919084
0.0230731
-0.0113254
0.0233543
-0.0130858
0.0230865
-0.0145123
0.0222521
-0.015563
0.0208876
-0.0161045
0.0190864
0.0169
-0.0159984
-0.00191589
0.0130763
-0.00478876
0.0221348
-0.00784873
0.0251069
-0.0108437
0.0260681
-0.0135872
0.0260977
-0.0159937
0.025493
-0.0180609
0.0243193
-0.0197561
0.0225828
-0.0209646
0.020295
0.017475
-0.0215396
-0.0020031
-0.00508833
-0.00837631
-0.0116147
-0.0146611
-0.0174318
-0.0198942
-0.0220034
-0.0236509
-0.0246855
0.0689835
0.172299
-0.167221
0.0682108
0.133848
-0.133075
0.077387
0.0429932
-0.0521694
0.0884483
-0.0142899
0.00322863
0.0996975
-0.0420638
0.0308146
0.110589
-0.0485571
0.0376654
0.120665
-0.044875
0.0347987
0.129411
-0.0373413
0.0285955
0.137013
-0.0273121
0.0197101
-0.0144981
0.00925429
0.0585682
0.170922
0.0647704
0.127646
0.0792205
0.0285431
0.0929271
-0.0279965
0.104895
-0.0540315
0.115492
-0.0591544
0.124884
-0.0542669
0.132783
-0.0452404
0.139417
-0.033946
-0.0187484
0.0482311
0.162563
0.0623462
0.113531
0.0814802
0.00940914
0.0972085
-0.0437248
0.109927
-0.0667502
0.12027
-0.0694974
0.128932
-0.0629289
0.135894
-0.0522019
0.141503
-0.0395555
-0.0220731
0.0390947
0.148128
0.0616051
0.0910202
0.084799
-0.0137848
0.10213
-0.0610555
0.115346
-0.0799667
0.125362
-0.0795135
0.133207
-0.0707734
0.139125
-0.0581198
0.143645
-0.0440756
-0.0245153
0.0311009
0.12868
0.0623102
0.0598109
0.0889546
-0.0404293
0.107747
-0.0798482
0.121281
-0.0935005
0.130885
-0.0891176
0.137839
-0.077727
0.14265
-0.0629309
0.146029
-0.0474545
-0.0260914
0.0241229
0.104929
0.0638437
0.0200901
0.0933203
-0.069906
0.113527
-0.100055
0.127282
-0.107255
0.13648
-0.0983154
0.142585
-0.0838322
0.14636
-0.0667059
0.148648
-0.0497426
-0.0268459
0.0181148
0.0783138
0.0653283
-0.0271234
0.0970243
-0.101602
0.118648
-0.121679
0.132652
-0.121259
0.141572
-0.107236
0.147005
-0.0892648
0.149948
-0.0696486
0.151326
-0.0511206
-0.0268883
0.0130295
0.0492859
0.0657984
-0.0798922
0.0993454
-0.135149
0.122439
-0.144772
0.136869
-0.13569
0.145736
-0.116103
0.150747
-0.0942761
0.153124
-0.0720249
0.153845
-0.0518425
-0.0263811
0.00867104
0.0190753
0.0645842
-0.135805
0.0998742
-0.170439
0.124521
-0.169419
0.139675
-0.150844
0.148759
-0.125186
0.153636
-0.0991536
0.155725
-0.074113
0.156065
-0.0521827
-0.0255087
0.00472795
0.0611385
0.0983362
0.124679
0.140942
0.150549
0.1556
0.157679
0.157914
0.028571
0.0212604
-0.0498314
0.0182224
0.0103486
0.0151172
0.00310513
0.0162365
-0.00111929
0.0194541
-0.00321754
0.0229852
-0.00353113
0.0259841
-0.00299895
0.0285927
-0.00260854
0.029956
-0.00136336
-0.00032234
0.0934566
0.0592824
-0.131479
0.0659277
0.0378776
0.0561856
0.0128472
0.0569713
-0.001905
0.0623752
-0.0086215
0.0688375
-0.00999337
0.0745908
-0.00875227
0.0793827
-0.00740047
0.0821153
-0.00409595
-0.00127975
0.131044
0.0973722
-0.169134
0.0977789
0.0711424
0.0845501
0.026076
0.084656
-0.00201088
0.090877
-0.0148425
0.0989114
-0.0180277
0.106475
-0.0163162
0.112652
-0.0135773
0.116746
-0.00818984
-0.00320837
0.142033
0.133287
-0.177948
0.109422
0.103753
0.0953151
0.0401834
0.0954314
-0.00212714
0.102945
-0.0223567
0.112351
-0.0274335
0.121268
-0.025233
0.128523
-0.0208322
0.133972
-0.0136391
-0.00608507
0.138861
-0.172796
0.109539
0.0975532
0.0986547
0.107113
0.117344
0.12691
0.134673
0.140744
0.0065939
0.000199167
-0.00679306
0.0072023
-0.000608405
0.00849089
-0.00128859
0.0103954
-0.00190453
0.0129637
-0.00256828
0.016583
-0.00361927
0.0219145
-0.00533153
0.029382
-0.00746754
0.0395257
-0.0101437
-0.0103057
0.0172414
0.000555375
-0.0175976
0.0189356
-0.0023026
0.0225244
-0.00487741
0.0281164
-0.00749651
0.0361515
-0.0106034
0.0475023
-0.0149701
0.0628868
-0.020716
0.0823241
-0.0269048
0.106155
-0.0339748
-0.0356291
0.0260119
0.000864885
-0.0263215
0.0287481
-0.00503876
0.0344661
-0.0105954
0.0435076
-0.016538
0.0564653
-0.023561
0.0738871
-0.032392
0.095141
-0.0419699
0.119434
-0.0511981
0.144882
-0.0594222
-0.059881
0.0332746
0.000945224
-0.0333549
0.0370282
-0.00879239
0.0447074
-0.0182746
0.056779
-0.0286096
0.0735735
-0.0403556
0.0945265
-0.0533449
0.11759
-0.0650337
0.140794
-0.0744015
0.160887
-0.0795158
-0.0769416
0.0392824
-0.0389744
0.0440343
0.0534537
0.0679019
0.0870227
0.108914
0.130622
0.149047
0.16141
0.0484678
-0.0406468
0.0485438
-0.0563649
0.0413376
-0.0389977
0.0461279
0.0350875
-0.0376417
0.0438918
0.0293496
-0.0363598
0.0420977
0.0237993
-0.0350966
0.040647
0.0182542
-0.0337199
0.0392649
0.0126918
-0.0319097
0.0374721
0.00727702
-0.02903
0.0344448
0.00255894
-0.0237789
0.028497
-0.0127922
0.0153511
0.0533071
-0.0336154
-0.0603385
0.0465483
-0.0322389
0.0397837
-0.0308771
0.0330465
-0.0296226
0.026402
-0.0284522
0.0199122
-0.0272301
0.0136532
-0.0256506
0.00778792
-0.0231647
0.0027839
-0.0187749
-0.0100083
0.0532733
-0.026268
-0.0606208
0.0460126
-0.0249782
0.038955
-0.0238195
0.0321248
-0.0227923
0.0255302
-0.0218576
0.0191755
-0.0208754
0.013099
-0.0195741
0.00744405
-0.0175098
0.00265131
-0.0139821
-0.00735696
0.0535033
-0.0188358
-0.0609355
0.0462903
-0.0177651
0.0392782
-0.0168074
0.0324578
-0.0159719
0.025818
-0.0152178
0.0193744
-0.0144317
0.0132046
-0.0134044
0.00750119
-0.0118063
0.0027045
-0.00918543
-0.00465246
0.054194
-0.0113379
-0.0616919
0.0468649
-0.010436
0.0397064
-0.00964896
0.032707
-0.00897251
0.0258598
-0.00837062
0.0191975
-0.00776942
0.0128497
-0.00705661
0.00711158
-0.0060682
0.00249695
-0.0045708
-0.00215551
0.0551462
-0.00369964
-0.0627844
0.0476745
-0.00296427
0.0403504
-0.00232495
0.0331477
-0.00176977
0.026047
-0.00126989
0.0190811
-0.000803585
0.0124162
-0.000391705
0.0064687
-0.000120667
0.00198586
-8.79625e-05
-0.000169651
0.0567382
0.00412382
-0.0645616
0.0490917
0.00468225
0.0416074
0.00515928
0.0342578
0.00557984
0.0270206
0.00596738
0.0199202
0.00629681
0.0131007
0.00642781
0.00693985
0.00604013
0.00217369
0.0046782
0.00200404
0.0587523
0.012161
-0.0667895
0.0509186
0.0125159
0.0432845
0.0127933
0.03583
0.0130344
0.028537
0.0132603
0.0214211
0.0134127
0.0145782
0.0132707
0.00825387
0.0123645
0.00296771
0.00996436
0.00497175
0.0609003
0.02042
-0.0691592
0.0528647
0.0205515
0.0450512
0.0206069
0.0374413
0.0206443
0.0300122
0.0206894
0.0227602
0.0206648
0.0157372
0.0202937
0.00911382
0.0189878
0.00336477
0.0157134
0.00833652
0.0629481
-0.0714181
0.0547094
0.0467019
0.038906
0.0312921