/*--------------------------------*- C++ -*----------------------------------*\
| =========                 |                                                 |
| \\      /  F ield         | OpenFOAM: The Open Source CFD Toolbox           |
|  \\    /   O peration     | Version:  2406                                  |
|   \\  /    A nd           | Website:  www.openfoam.com                      |
|    \\/     M anipulation  |                                                 |
\*---------------------------------------------------------------------------*/
FoamFile
{
    version     2.0;
    format      ascii;
    arch        "LSB;label=32;scalar=64";
    class       volVectorField;
    location    "0.55";
    object      U;
}
// * * * * * * * * * * * * * * * * * * * * * * * * * * * * * * * * * * * * * //

dimensions      [0 1 -1 0 0 0 0];

internalField   nonuniform List<vector> 
1800
(
(-0.0512733 0.0631421 0)
(-0.0909076 0.127202 5.48592e-21)
(-0.0744705 0.166967 2.60526e-20)
(-0.0186196 0.185337 -6.58753e-20)
(0.0626673 0.192793 -1.67349e-19)
(0.154516 0.201311 -5.64619e-20)
(0.248157 0.216903 9.07396e-20)
(0.340463 0.240159 5.36703e-19)
(0.434407 0.270667 0)
(0.498848 0.319513 7.26769e-20)
(-0.0277266 0.0354164 -4.04871e-20)
(-0.0463631 0.0706987 -1.13572e-19)
(-0.00857732 0.0922159 7.26565e-21)
(0.0779499 0.0964259 -3.93493e-20)
(0.18876 0.0942251 2.36483e-20)
(0.304176 0.0964424 2.261e-19)
(0.415388 0.105698 -8.09182e-20)
(0.521537 0.120508 -5.82556e-19)
(0.626329 0.137993 2.17976e-19)
(0.695704 0.17308 2.52018e-19)
(-0.00842862 0.0122828 3.96721e-21)
(0.00177102 0.0236768 -4.06151e-20)
(0.0770899 0.028325 -1.79733e-20)
(0.202236 0.0225564 2.92751e-21)
(0.341859 0.0183424 -9.23312e-22)
(0.476057 0.0229648 -5.44657e-20)
(0.598448 0.0364386 1.01601e-20)
(0.71037 0.0561765 3.86811e-19)
(0.818276 0.0802822 -3.4498e-19)
(0.894277 0.105806 -8.08866e-19)
(0.00488025 -0.000695716 2.8232e-20)
(0.0613289 -0.0122872 6.8437e-20)
(0.19299 -0.0240497 -4.32738e-20)
(0.359684 -0.0349623 -2.79861e-22)
(0.524797 -0.0371394 1.94289e-20)
(0.673273 -0.0283067 1.05609e-20)
(0.803147 -0.0109037 6.66136e-20)
(0.919018 0.0118722 6.33692e-20)
(1.02927 0.0384165 1.05555e-20)
(1.1048 0.0619202 -1.51574e-19)
(0.0248851 -0.00599933 -3.04689e-20)
(0.146535 -0.0382755 3.45707e-20)
(0.336684 -0.0561538 4.74071e-20)
(0.539689 -0.0641676 -5.65822e-20)
(0.722971 -0.0600253 -1.59185e-20)
(0.878235 -0.0449732 1.20394e-20)
(1.00887 -0.0228642 -2.54923e-21)
(1.12332 0.00303002 -2.0863e-20)
(1.23162 0.0313868 1.01041e-19)
(1.31372 0.0512056 1.03919e-19)
(0.0587658 -0.0133792 5.20411e-22)
(0.255407 -0.0556279 1.92558e-19)
(0.500165 -0.0695567 7.24575e-20)
(0.731237 -0.0686513 -9.61419e-20)
(0.923344 -0.0558505 6.91979e-20)
(1.07694 -0.0347837 -4.75035e-21)
(1.2024 -0.00963214 3.31162e-20)
(1.313 0.016952 3.06238e-20)
(1.42125 0.0439979 8.01547e-21)
(1.52116 0.0602007 2.59585e-20)
(0.104055 -0.018689 -2.28625e-20)
(0.382865 -0.0607923 -2.42026e-19)
(0.675564 -0.0629824 1.59409e-20)
(0.922024 -0.0496382 2.58901e-19)
(1.11048 -0.0281776 -1.06322e-20)
(1.25371 -0.00284013 -1.20141e-19)
(1.37034 0.0233042 -6.58865e-20)
(1.47838 0.0489669 1.53872e-19)
(1.59324 0.0738531 1.37566e-19)
(1.7227 0.0917071 4.9465e-21)
(0.160935 -0.0190496 2.91349e-20)
(0.523741 -0.0495232 6.38497e-20)
(0.85087 -0.0348443 -8.70937e-20)
(1.09663 -0.00996444 5.51262e-20)
(1.27047 0.0165835 -4.26172e-21)
(1.39947 0.0425283 -4.16938e-19)
(1.50946 0.0672213 3.74222e-21)
(1.62176 0.091359 2.60837e-19)
(1.75261 0.115674 -1.70257e-19)
(1.91052 0.137633 -1.97905e-19)
(0.227454 -0.0119091 1.12476e-19)
(0.666963 -0.0192672 1.17935e-19)
(1.00941 0.0131752 -2.83634e-19)
(1.23999 0.045359 -7.14558e-20)
(1.39403 0.0725179 -3.66637e-21)
(1.51092 0.0962941 1.55676e-19)
(1.6205 0.118853 -2.86074e-19)
(1.7444 0.142576 -1.60083e-19)
(1.89467 0.168599 3.98552e-19)
(2.06888 0.196946 1.06808e-19)
(0.299022 0.00470279 4.71068e-20)
(0.798548 0.029275 2.70486e-19)
(1.13704 0.0763746 -2.51827e-19)
(1.34417 0.110615 -9.33897e-20)
(1.47976 0.135217 8.58085e-20)
(1.59027 0.155972 -1.14309e-19)
(1.70597 0.17718 1.98264e-19)
(1.84556 0.20216 2.96965e-20)
(2.01166 0.231577 -1.81465e-19)
(2.18755 0.263701 -7.1661e-20)
(-0.0143346 0.200475 -3.30275e-20)
(-0.03304 0.3337 1.32354e-19)
(-0.0529044 0.373957 8.22975e-20)
(-0.0698689 0.384464 -1.06206e-19)
(-0.0850671 0.380823 -1.85739e-21)
(-0.0978673 0.36778 4.56544e-20)
(-0.108203 0.34704 3.29029e-20)
(-0.116262 0.318455 -7.10668e-20)
(-0.121691 0.281044 3.33934e-22)
(-0.1232 0.234256 1.43873e-20)
(-0.0316926 0.221882 4.53189e-20)
(-0.0613136 0.366848 -5.40363e-23)
(-0.082554 0.407622 1.93843e-20)
(-0.0983588 0.416784 -1.41136e-19)
(-0.111621 0.410869 -1.39561e-19)
(-0.122181 0.394706 -6.56011e-20)
(-0.129941 0.370374 8.60859e-20)
(-0.135066 0.337666 0)
(-0.137094 0.295039 -1.74207e-20)
(-0.134386 0.241455 6.51934e-20)
(-0.0512066 0.237917 -3.67362e-23)
(-0.0924661 0.39238 -1.76417e-19)
(-0.113466 0.433007 -1.27015e-19)
(-0.126577 0.441749 1.09913e-19)
(-0.136288 0.435031 -4.39253e-20)
(-0.143224 0.417194 -5.52496e-20)
(-0.147053 0.390619 -3.84037e-20)
(-0.147864 0.355166 -2.00922e-20)
(-0.145081 0.308833 -7.6157e-20)
(-0.136697 0.250065 -1.54815e-19)
(-0.0718215 0.247173 3.8565e-20)
(-0.125088 0.408193 2.75334e-20)
(-0.143796 0.447225 1.24974e-20)
(-0.152862 0.456714 1.19611e-19)
(-0.157164 0.451655 -1.98505e-20)
(-0.159344 0.433767 5.69752e-20)
(-0.158186 0.406325 -2.59168e-20)
(-0.153568 0.369793 0)
(-0.144785 0.321727 3.50416e-20)
(-0.12942 0.259804 -1.0895e-19)
(-0.0912374 0.248405 -7.61569e-20)
(-0.153783 0.411357 3.45138e-20)
(-0.168068 0.445731 1.39128e-19)
(-0.171639 0.454294 -1.94183e-20)
(-0.172913 0.456198 2.24215e-20)
(-0.169942 0.442289 6.67769e-20)
(-0.16241 0.416053 -7.31739e-20)
(-0.151065 0.380163 7.10896e-20)
(-0.135114 0.332375 -4.13707e-20)
(-0.11133 0.269389 -2.01045e-20)
(-0.104484 0.23725 -7.24554e-20)
(-0.172143 0.398743 -8.09734e-21)
(-0.184113 0.4364 -1.06198e-19)
(-0.185488 0.44666 -1.28118e-20)
(-0.183287 0.448104 1.49838e-19)
(-0.173593 0.437887 -1.12324e-19)
(-0.158215 0.415446 1.33632e-20)
(-0.139013 0.382958 2.40931e-20)
(-0.11486 0.338191 -2.11299e-19)
(-0.0805979 0.27656 2.20108e-20)
(-0.10952 0.212367 2.07619e-20)
(-0.181867 0.369233 2.05363e-20)
(-0.193504 0.416522 1.59832e-20)
(-0.190205 0.432212 1.62517e-19)
(-0.17921 0.433278 -4.96312e-20)
(-0.160397 0.423737 -2.47884e-19)
(-0.136235 0.40517 -1.24574e-19)
(-0.108873 0.378197 -2.16453e-19)
(-0.0765219 0.339412 3.52799e-19)
(-0.0300328 0.282164 2.93563e-19)
(-0.10536 0.177449 4.7311e-22)
(-0.178982 0.322589 -1.29775e-20)
(-0.187975 0.379023 5.41924e-20)
(-0.176704 0.4012 -8.52277e-20)
(-0.154175 0.40648 -2.28643e-19)
(-0.123882 0.401529 9.92476e-20)
(-0.0892273 0.389418 -6.92561e-20)
(-0.052236 0.369825 5.64312e-20)
(-0.0108432 0.338651 4.38046e-19)
(0.0497079 0.288356 -2.90422e-20)
(-0.0921115 0.136992 -1.10622e-20)
(-0.160659 0.261181 1.12526e-20)
(-0.164576 0.320838 -1.31357e-20)
(-0.143175 0.348753 -6.79603e-21)
(-0.106666 0.360193 -3.52992e-22)
(-0.0616915 0.363426 2.71006e-19)
(-0.0129344 0.362439 1.042e-19)
(0.0369786 0.355713 2.15779e-19)
(0.0890701 0.337057 -5.38169e-21)
(0.163677 0.299534 -6.65606e-19)
(-0.0732559 0.097086 -8.32909e-21)
(-0.130415 0.19246 -2.04687e-20)
(-0.12708 0.246058 -3.98139e-20)
(-0.0929189 0.273297 -1.08693e-19)
(-0.0388446 0.286567 1.05886e-19)
(0.024607 0.296046 4.80068e-19)
(0.0899417 0.307572 6.4634e-20)
(0.153278 0.320939 -4.36578e-19)
(0.214249 0.329847 -5.8553e-19)
(0.294582 0.327309 -5.37335e-19)
(-0.110763 -0.0335665 -4.59877e-19)
(0.135721 -0.305588 -4.27904e-19)
(0.381168 -0.315553 -1.18823e-19)
(0.528892 -0.291699 -2.44492e-21)
(0.641895 -0.244908 4.63022e-20)
(0.712684 -0.195279 3.29058e-21)
(0.753648 -0.149547 -5.37586e-20)
(0.780496 -0.108539 1.83576e-20)
(0.792619 -0.0742074 -1.15127e-20)
(0.799518 -0.0344424 -5.83153e-21)
(-0.0967713 -0.0661135 -4.05761e-19)
(0.119659 -0.377843 1.77356e-20)
(0.373543 -0.372126 -7.85495e-20)
(0.52602 -0.333325 -1.40389e-20)
(0.644159 -0.272155 4.4284e-20)
(0.717343 -0.212259 -8.07071e-20)
(0.759281 -0.159586 3.31552e-20)
(0.786143 -0.114158 4.8749e-22)
(0.798773 -0.0771759 -2.21189e-20)
(0.805913 -0.0354159 1.29699e-20)
(-0.0694761 -0.0886106 8.35958e-19)
(0.108449 -0.441479 5.08473e-19)
(0.36749 -0.430907 5.39635e-20)
(0.5229 -0.377204 9.27231e-21)
(0.645085 -0.301293 -6.41959e-20)
(0.72027 -0.23033 1.18812e-21)
(0.763171 -0.170227 1.43072e-20)
(0.790425 -0.120128 -2.04547e-20)
(0.803764 -0.0804817 1.85511e-22)
(0.811789 -0.0365114 -6.83236e-22)
(-0.0296428 -0.0999097 7.71347e-19)
(0.116455 -0.493241 -1.12419e-20)
(0.374962 -0.490182 2.59746e-20)
(0.528241 -0.422301 -6.00302e-21)
(0.650179 -0.331773 1.89452e-20)
(0.724994 -0.249212 1.6375e-20)
(0.767729 -0.181402 -2.76341e-20)
(0.795227 -0.126459 0)
(0.809064 -0.0842045 0)
(0.818418 -0.0377854 -5.47122e-24)
(0.0256676 -0.101631 -1.38052e-19)
(0.164086 -0.532721 -5.45324e-19)
(0.416767 -0.546986 -9.13923e-21)
(0.558215 -0.466502 2.22139e-21)
(0.670587 -0.362134 7.45926e-21)
(0.739025 -0.268186 7.12477e-20)
(0.778098 -0.192811 1.26565e-21)
(0.804338 -0.133029 -1.16983e-20)
(0.817665 -0.0883476 -3.44331e-20)
(0.828352 -0.0392943 -1.59904e-21)
(0.104418 -0.099308 -2.57103e-19)
(0.272036 -0.566426 -2.53335e-19)
(0.516243 -0.59983 -4.48816e-19)
(0.634926 -0.507341 6.40861e-21)
(0.724146 -0.390212 -2.62696e-20)
(0.775882 -0.28589 3.88709e-20)
(0.804207 -0.203698 1.35609e-20)
(0.825157 -0.139433 -5.20149e-20)
(0.835466 -0.0927603 5.69093e-22)
(0.84655 -0.0410764 -1.6993e-20)
(0.215075 -0.0985891 5.37066e-20)
(0.451862 -0.601825 1.84601e-20)
(0.682809 -0.648408 2.30154e-19)
(0.773614 -0.542804 -6.05266e-20)
(0.828961 -0.413251 -7.9411e-21)
(0.853205 -0.299865 -4.37381e-20)
(0.861379 -0.212333 -1.63791e-21)
(0.870245 -0.144627 1.25399e-20)
(0.873092 -0.0968968 1.45937e-20)
(0.88195 -0.0430464 8.07315e-21)
(0.369971 -0.105116 2.39899e-19)
(0.687058 -0.639487 1.66699e-18)
(0.898803 -0.694504 3.74074e-19)
(0.964524 -0.574236 2.55716e-20)
(0.98663 -0.430668 2.86161e-22)
(0.980417 -0.308344 3.15777e-20)
(0.962858 -0.216752 -4.2633e-20)
(0.953623 -0.147084 3.55634e-20)
(0.944329 -0.0996468 -2.62309e-22)
(0.946859 -0.0448693 -2.93728e-21)
(0.568159 -0.123126 5.32819e-19)
(0.929715 -0.665901 5.29895e-19)
(1.12427 -0.734893 -6.68653e-19)
(1.17569 -0.603367 2.53641e-19)
(1.17445 -0.444601 -4.62238e-20)
(1.14478 -0.31239 -5.36818e-21)
(1.10468 -0.216853 7.98314e-21)
(1.0774 -0.146035 -2.49045e-22)
(1.05528 -0.0998931 -6.40505e-21)
(1.04898 -0.0459963 -4.06147e-21)
(0.780655 -0.0782984 1.98675e-19)
(1.13856 -0.66162 -1.21487e-18)
(1.31829 -0.759758 -5.53881e-19)
(1.3729 -0.625883 2.14245e-19)
(1.36288 -0.454221 -7.93982e-20)
(1.31941 -0.313048 1.28206e-20)
(1.26363 -0.214219 -3.00404e-20)
(1.22239 -0.142811 5.69325e-22)
(1.19102 -0.0983239 -2.03741e-21)
(1.17652 -0.0462572 -2.36281e-21)
(1.13543 -0.208447 -5.66128e-19)
(1.40223 -0.709002 -1.73521e-19)
(1.5425 -0.797116 -7.11669e-20)
(1.59396 -0.651153 -1.18523e-19)
(1.58449 -0.456788 7.75817e-20)
(1.53558 -0.301956 8.67897e-21)
(1.46856 -0.199745 2.15122e-20)
(1.41502 -0.130764 1.4867e-20)
(1.37511 -0.0907528 -3.11986e-20)
(1.35026 -0.0442881 3.87162e-21)
(1.77576 -0.440545 -1.25415e-19)
(1.91222 -0.83564 -1.66275e-19)
(1.88036 -0.853163 -8.30056e-20)
(1.81031 -0.663446 -8.87568e-21)
(1.75372 -0.444306 1.20388e-19)
(1.69872 -0.280442 1.33522e-19)
(1.63564 -0.177707 1.0729e-19)
(1.5837 -0.11334 -1.29399e-20)
(1.54701 -0.0788324 4.99367e-20)
(1.51878 -0.0392576 1.30088e-20)
(2.57141 -0.526204 -4.52834e-20)
(2.53456 -0.752039 -6.70845e-20)
(2.33399 -0.742524 7.88026e-20)
(2.12047 -0.583967 1.89496e-35)
(1.96187 -0.392444 -2.18721e-20)
(1.85634 -0.243034 -4.68183e-34)
(1.77266 -0.149037 5.74509e-21)
(1.71428 -0.0930328 -1.45323e-35)
(1.67277 -0.065384 1.01322e-22)
(1.64222 -0.0340997 -1.83736e-21)
(2.99014 -0.564767 -8.13922e-20)
(2.74537 -0.755506 3.05398e-19)
(2.47971 -0.724647 4.69502e-20)
(2.24833 -0.548197 0)
(2.06057 -0.352732 -1.13073e-19)
(1.93121 -0.209431 -9.31028e-20)
(1.83641 -0.123263 -7.0229e-20)
(1.77377 -0.0739721 4.54852e-34)
(1.72963 -0.0512818 -2.27517e-20)
(1.69939 -0.0273358 1.03574e-21)
(3.1632 -0.537842 -7.36062e-20)
(2.93106 -0.622313 2.1945e-20)
(2.64831 -0.574503 0)
(2.3668 -0.42885 0)
(2.12768 -0.267515 0)
(1.96568 -0.153178 0)
(1.85659 -0.0875991 2.39415e-21)
(1.78821 -0.0516205 5.51273e-34)
(1.74095 -0.0360611 -5.39945e-22)
(1.70656 -0.0222072 7.6289e-35)
(3.21216 -0.483047 1.74186e-19)
(2.95126 -0.552002 0)
(2.64972 -0.501129 0)
(2.3563 -0.352083 0)
(2.10583 -0.198843 0)
(1.93707 -0.103422 0)
(1.82877 -0.0557388 -5.563e-21)
(1.76408 -0.031458 4.56045e-20)
(1.72178 -0.0228295 -8.37932e-22)
(1.69153 -0.0166662 1.0706e-20)
(3.18977 -0.42404 0)
(2.90873 -0.444132 1.04159e-19)
(2.55279 -0.371311 -2.50554e-20)
(2.21915 -0.239188 0)
(1.96681 -0.116708 -8.52867e-20)
(1.81343 -0.0499803 -6.02158e-20)
(1.72335 -0.0231352 -4.50685e-20)
(1.67101 -0.0110486 -2.38796e-20)
(1.64019 -0.00908408 2.45775e-20)
(1.61207 -0.00950728 -6.03051e-21)
(2.99697 -0.336739 -9.9487e-21)
(2.62945 -0.320428 1.79894e-20)
(2.19935 -0.239 -2.11804e-20)
(1.85017 -0.131927 -2.53459e-36)
(1.63366 -0.0468055 1.57444e-20)
(1.52286 -0.00949611 -3.66972e-34)
(1.4659 3.31519e-05 -7.51679e-21)
(1.43387 0.00219755 -1.39235e-20)
(1.41809 -0.000115811 -1.28897e-21)
(1.39569 -0.00441359 2.28617e-21)
(2.2543 -0.208258 0)
(1.81173 -0.139441 -6.46387e-21)
(1.41008 -0.0642055 2.90384e-20)
(1.15557 -0.0198108 0)
(1.04154 0.00753264 2.79758e-20)
(1.00431 0.0142536 2.01207e-20)
(0.994373 0.0115813 5.00393e-21)
(0.991059 0.00801018 7.83195e-21)
(0.993874 0.00418191 -1.01652e-20)
(0.98303 -0.000419507 -9.70358e-22)
(0.682537 -0.051147 2.63339e-21)
(0.449143 -0.0105771 0)
(0.331103 -0.000440999 0)
(0.278973 0.00206184 0)
(0.283639 0.00582982 0)
(0.308839 0.00584877 0)
(0.333999 0.00436906 -8.16972e-21)
(0.352406 0.00292167 2.47313e-35)
(0.365477 0.00174994 -1.56805e-21)
(0.367304 0.000229749 -2.77084e-21)
(2.4905 0.324298 3.90133e-19)
(2.4229 0.261669 1.7218e-19)
(2.31369 0.207397 2.36305e-19)
(2.15743 0.150208 -2.44366e-19)
(1.95097 0.112941 9.80428e-20)
(1.70352 0.0829286 4.36291e-20)
(1.43042 0.0789515 -1.94478e-19)
(1.14881 0.115322 -5.44547e-20)
(0.949717 0.111715 8.24511e-20)
(0.63458 0.310215 5.44889e-20)
(2.69704 0.306856 -2.33858e-19)
(2.68167 0.278261 3.74307e-20)
(2.67241 0.206622 2.29016e-19)
(2.59595 0.186701 1.65422e-19)
(2.53755 0.109762 -2.12445e-19)
(2.36698 0.124811 2.41273e-20)
(2.26387 0.0434804 -2.34676e-19)
(1.94584 0.0996215 -6.86484e-20)
(1.87475 -0.0028417 -1.92989e-19)
(1.316 0.0913008 -1.73747e-19)
(2.86697 0.268381 3.80931e-20)
(2.84432 0.251944 -1.80245e-19)
(2.92091 0.178534 -2.53797e-19)
(2.82989 0.160562 5.54786e-19)
(2.91909 0.0698122 1.82162e-20)
(2.75021 0.0691497 -5.72294e-20)
(2.85868 -0.0139946 -1.50218e-19)
(2.5685 -0.00270289 -1.51506e-19)
(2.69334 -0.100629 1.02579e-19)
(2.2417 -0.0792506 -4.19975e-20)
(2.97336 0.235686 7.01535e-20)
(2.97316 0.211675 -2.43238e-19)
(3.04822 0.158141 4.64881e-20)
(2.99721 0.114995 -2.01717e-19)
(3.08083 0.0436096 3.36036e-19)
(2.9789 -0.00760367 -1.18601e-19)
(3.0896 -0.0761438 8.9756e-20)
(2.93999 -0.111391 -1.42914e-19)
(3.05038 -0.19644 -3.09497e-19)
(2.8414 -0.219665 -7.78719e-20)
(3.04951 0.182537 1.16339e-19)
(3.06861 0.156828 -3.74684e-19)
(3.12415 0.124775 -1.38501e-20)
(3.11302 0.0722209 -6.84714e-20)
(3.16065 0.0187685 -2.41059e-20)
(3.12562 -0.0538979 -2.82712e-21)
(3.17149 -0.117155 1.2137e-19)
(3.12856 -0.181166 -8.7113e-20)
(3.17358 -0.249548 -1.70157e-19)
(3.10915 -0.299008 -2.64004e-19)
(3.07234 0.142092 2.12311e-19)
(3.10001 0.121331 5.04517e-20)
(3.14699 0.0994461 -2.57634e-19)
(3.16212 0.0483622 1.36603e-19)
(3.19583 0.00403649 1.77066e-19)
(3.1991 -0.072709 -3.86053e-20)
(3.21845 -0.132915 1.31286e-19)
(3.21439 -0.206465 -2.22648e-20)
(3.22581 -0.264531 -1.83454e-19)
(3.21284 -0.324624 -2.56198e-19)
(3.00705 0.093034 4.37911e-21)
(3.04136 0.0813912 9.50059e-20)
(3.08721 0.0628858 -9.80144e-20)
(3.12488 0.0198908 -1.43172e-20)
(3.16051 -0.0197884 2.15085e-19)
(3.19207 -0.0899042 -7.68909e-21)
(3.21048 -0.14203 1.20563e-19)
(3.23116 -0.214342 1.46152e-19)
(3.22804 -0.26022 6.53889e-20)
(3.2396 -0.322391 1.21664e-19)
(2.76847 0.0541078 7.8566e-21)
(2.81614 0.0521087 -1.47696e-21)
(2.85834 0.0292824 -6.77364e-20)
(2.92356 0.000511758 -5.95187e-20)
(2.95809 -0.0400567 -3.90036e-20)
(3.02368 -0.0973229 -4.05813e-20)
(3.03591 -0.142552 -9.33917e-21)
(3.08537 -0.201705 1.2439e-19)
(3.06937 -0.234667 -8.42106e-20)
(3.11241 -0.286623 -7.55059e-20)
(2.22807 0.00563563 6.41245e-20)
(2.28684 -0.00774654 -1.23522e-20)
(2.30762 -0.0206041 -7.772e-21)
(2.38501 -0.0474949 2.3429e-20)
(2.38034 -0.0745452 -3.99012e-21)
(2.45132 -0.0997858 1.88911e-20)
(2.41635 -0.126167 -9.39976e-20)
(2.46728 -0.147168 2.51519e-20)
(2.41065 -0.162315 3.53324e-20)
(2.46123 -0.181246 -3.50423e-20)
(1.11239 -0.0169546 0)
(1.10871 -0.0190825 4.4657e-21)
(1.10379 -0.0222604 -3.16925e-20)
(1.09519 -0.0250132 -4.58789e-20)
(1.0748 -0.0264256 3.41357e-20)
(1.0603 -0.0316704 1.46235e-19)
(1.01835 -0.0308452 -1.40017e-20)
(1.01068 -0.039254 -1.04218e-19)
(0.939133 -0.0357644 -1.19112e-20)
(0.964404 -0.0438661 4.03762e-21)
(1.245 0.827072 -5.17895e-20)
(1.17004 0.809578 -1.12132e-19)
(1.12813 0.804783 -5.40254e-19)
(1.09506 0.806912 8.69378e-20)
(1.06331 0.812404 6.84234e-19)
(1.02915 0.81742 2.78382e-20)
(0.986379 0.814446 -9.11045e-20)
(0.919874 0.789317 -1.12172e-19)
(0.780791 0.697286 -2.26419e-19)
(0.428689 0.396008 -2.08433e-20)
(1.4133 0.823796 -4.2647e-19)
(1.30432 0.798084 1.09713e-18)
(1.23151 0.788083 4.61842e-19)
(1.18507 0.789197 -4.91784e-19)
(1.15044 0.793375 1.61779e-19)
(1.11685 0.794962 1.14487e-19)
(1.07515 0.787488 3.60817e-19)
(1.00804 0.7594 -6.03153e-19)
(0.858696 0.664845 -5.92336e-20)
(0.469826 0.372726 6.69213e-20)
(1.61634 0.815483 1.29353e-19)
(1.48352 0.789298 8.53279e-19)
(1.36967 0.771891 1.35076e-20)
(1.29168 0.764924 -3.03209e-19)
(1.2397 0.762105 1.40118e-19)
(1.19717 0.756945 6.7976e-20)
(1.15068 0.743549 -5.27033e-20)
(1.07988 0.71183 -2.56051e-19)
(0.919686 0.615246 1.55291e-19)
(0.499042 0.338482 -1.88173e-19)
(1.81697 0.785605 -4.82615e-19)
(1.67601 0.762174 3.70554e-19)
(1.53171 0.738967 -5.551e-19)
(1.41737 0.72168 -1.68274e-19)
(1.33767 0.709648 7.48616e-19)
(1.27781 0.69768 -4.23282e-19)
(1.22032 0.67949 -4.71105e-19)
(1.13992 0.645142 2.53135e-19)
(0.964651 0.55068 -1.28139e-19)
(0.515529 0.296384 -3.17443e-20)
(1.99024 0.726195 5.97837e-19)
(1.85198 0.705417 4.35757e-19)
(1.69222 0.679202 -1.57931e-19)
(1.54876 0.654391 5.48121e-19)
(1.44027 0.635078 2.56564e-20)
(1.35954 0.618684 -2.22688e-19)
(1.28721 0.59871 1.76269e-19)
(1.19256 0.564338 -3.09283e-19)
(0.998007 0.475928 -3.71079e-19)
(0.521941 0.249779 -3.78087e-20)
(2.12298 0.648058 8.05142e-19)
(1.99047 0.628316 8.70951e-19)
(1.82503 0.60046 -7.22642e-19)
(1.66378 0.571196 -5.75251e-19)
(1.53398 0.547738 8.38242e-20)
(1.4355 0.529542 -3.56574e-19)
(1.34869 0.51004 -7.16678e-20)
(1.23821 0.477813 2.82578e-20)
(1.02139 0.397449 8.87166e-20)
(0.518943 0.201965 2.59597e-20)
(2.22185 0.564605 7.29756e-19)
(2.08862 0.543743 -8.42364e-19)
(1.91834 0.513734 -6.21405e-19)
(1.74755 0.482178 3.29384e-19)
(1.60638 0.457479 -2.83469e-19)
(1.49698 0.439378 6.91666e-19)
(1.39878 0.421232 -4.73142e-20)
(1.27248 0.391447 -5.43499e-19)
(1.03124 0.318626 2.39875e-19)
(0.504531 0.154681 4.28792e-20)
(2.27926 0.487972 -4.53856e-19)
(2.13806 0.46253 -5.60758e-19)
(1.96316 0.429037 -6.16788e-19)
(1.79103 0.396423 3.62354e-20)
(1.64884 0.372101 1.91514e-19)
(1.53601 0.354547 1.62237e-19)
(1.42986 0.336867 1.77275e-19)
(1.2875 0.307906 -3.33346e-20)
(1.01998 0.24067 3.10675e-20)
(0.475322 0.109085 5.56884e-20)
(2.29464 0.412017 2.12524e-19)
(2.13941 0.381379 -7.44793e-20)
(1.96167 0.346724 3.03008e-19)
(1.79522 0.31598 7.30522e-19)
(1.65943 0.293367 -1.98905e-19)
(1.54784 0.275956 -6.48725e-19)
(1.43487 0.257291 4.64583e-19)
(1.27436 0.227129 4.70156e-19)
(0.979556 0.164386 -2.67535e-19)
(0.429437 0.0670706 -4.45201e-20)
(2.26303 0.337754 -4.0768e-19)
(2.0949 0.303918 -3.94273e-21)
(1.91978 0.270813 4.32085e-19)
(1.76504 0.243027 3.62175e-19)
(1.63947 0.221663 2.28706e-19)
(1.5299 0.203167 -3.54197e-19)
(1.40798 0.181927 6.75259e-20)
(1.22566 0.149277 -2.52715e-19)
(0.905395 0.0923643 -3.35783e-19)
(0.368821 0.0314191 7.27044e-21)
(0.333583 0.402311 -1.67821e-20)
(0.303174 0.400826 1.65799e-19)
(0.271281 0.398429 2.11027e-20)
(0.238496 0.396206 -1.19294e-19)
(0.204714 0.394692 -3.9895e-20)
(0.169413 0.39275 -9.13204e-20)
(0.132036 0.38604 4.71825e-20)
(0.0921705 0.364954 -3.68089e-20)
(0.0502263 0.309935 8.83074e-20)
(0.0195438 0.171559 1.89291e-20)
(0.382675 0.482238 -6.31023e-20)
(0.351488 0.480181 -1.80832e-20)
(0.318619 0.477356 -1.31827e-19)
(0.284898 0.475093 1.30687e-20)
(0.250294 0.47411 1.98424e-20)
(0.214105 0.473224 3.61698e-20)
(0.175353 0.467539 1.73057e-19)
(0.132927 0.445944 -5.51748e-20)
(0.084744 0.384303 6.19578e-20)
(0.0382935 0.216408 -1.59608e-20)
(0.443826 0.559231 5.3475e-20)
(0.411891 0.55708 1.64189e-19)
(0.378343 0.554108 9.68538e-20)
(0.344024 0.551878 1.45293e-19)
(0.308884 0.551365 3.98069e-20)
(0.272043 0.551452 1.7503e-19)
(0.232093 0.546801 -5.96756e-20)
(0.187018 0.524914 -6.54648e-20)
(0.131538 0.457157 3.66449e-23)
(0.0643486 0.260367 9.52852e-21)
(0.514323 0.626739 4.39299e-19)
(0.480933 0.623431 3.18821e-19)
(0.445855 0.619934 -3.50152e-19)
(0.410429 0.618057 -1.5563e-19)
(0.374783 0.618757 2.68825e-20)
(0.337807 0.62064 -7.72841e-20)
(0.297457 0.617673 -2.35795e-19)
(0.250455 0.596033 6.90045e-20)
(0.187647 0.523217 -4.74683e-20)
(0.0964088 0.300321 -8.56903e-20)
(0.608061 0.693718 -1.49161e-19)
(0.573677 0.691654 -3.05206e-19)
(0.537659 0.688341 2.61955e-19)
(0.500979 0.685918 -8.72502e-20)
(0.463779 0.686038 -1.51544e-19)
(0.425073 0.687852 1.79076e-19)
(0.382542 0.685258 7.45335e-20)
(0.33162 0.663337 -1.17556e-19)
(0.258662 0.585553 -2.00311e-19)
(0.136435 0.337676 5.02466e-20)
(0.676876 0.742813 -2.8056e-20)
(0.641048 0.738621 -2.7101e-20)
(0.604964 0.734713 -3.54242e-20)
(0.569885 0.733462 6.70747e-20)
(0.535673 0.735815 2.00257e-19)
(0.500514 0.739992 -1.69402e-19)
(0.460965 0.738987 -1.08076e-19)
(0.410633 0.717188 -1.43577e-20)
(0.330933 0.635442 3.75242e-20)
(0.178619 0.367129 1.24234e-19)
(0.815157 0.786778 -2.63888e-19)
(0.776972 0.78394 1.19468e-19)
(0.736352 0.779551 3.2273e-19)
(0.695312 0.776526 -1.74673e-19)
(0.654849 0.777345 -3.65079e-19)
(0.614066 0.781149 1.83452e-19)
(0.569448 0.78068 4.51311e-19)
(0.512929 0.759222 1.42937e-19)
(0.420096 0.675029 2.68397e-20)
(0.228531 0.390455 1.90076e-19)
(0.876846 0.823162 -4.61278e-19)
(0.837502 0.818486 -1.46658e-19)
(0.802042 0.814235 3.01224e-19)
(0.769198 0.812884 -1.17661e-19)
(0.737185 0.814921 6.53709e-20)
(0.703587 0.818507 3.14361e-19)
(0.663995 0.816674 -2.72593e-19)
(0.608486 0.7935 -2.64443e-19)
(0.506885 0.705283 1.71521e-19)
(0.277987 0.406791 -3.38649e-20)
(1.01604 0.836964 -1.77921e-20)
(0.973915 0.831477 4.95648e-20)
(0.928402 0.823666 -2.137e-19)
(0.885273 0.818744 -5.27672e-20)
(0.846386 0.819868 3.74467e-19)
(0.809334 0.82501 8.41674e-20)
(0.768064 0.825116 -5.45209e-20)
(0.709923 0.803216 0)
(0.597834 0.715114 -1.40032e-19)
(0.329268 0.411738 -8.6883e-20)
(1.09687 0.836523 0)
(1.06272 0.832465 0)
(1.03199 0.827008 5.42927e-19)
(0.997849 0.823575 9.14046e-20)
(0.961716 0.824692 -1.182e-19)
(0.924121 0.82869 2.60103e-19)
(0.880292 0.827123 -1.11038e-19)
(0.81667 0.803567 -4.03864e-19)
(0.69069 0.713413 2.3485e-19)
(0.380263 0.408567 1.38313e-19)
(0.913393 0.094449 -1.15889e-20)
(1.04359 0.282624 -4.49062e-21)
(0.905076 0.270615 8.06095e-21)
(0.909222 0.216524 5.56001e-21)
(0.879716 0.192968 1.8332e-20)
(0.861252 0.193314 3.0562e-20)
(0.83186 0.208051 -1.55744e-20)
(0.779713 0.244783 -3.04841e-20)
(0.717995 0.298918 -8.45757e-20)
(0.475877 0.396895 1.3316e-19)
(0.913031 0.0953885 -1.61412e-21)
(1.04389 0.294009 7.84978e-21)
(0.902763 0.281778 4.15581e-23)
(0.907746 0.2237 1.65834e-20)
(0.877367 0.198545 1.43663e-20)
(0.862328 0.199548 -3.97015e-20)
(0.84016 0.219327 -1.35585e-20)
(0.794758 0.263428 -1.08152e-22)
(0.743844 0.34248 2.33326e-19)
(0.521705 0.471732 -7.58587e-21)
(0.912567 0.096565 5.16653e-21)
(1.04432 0.305964 1.52412e-20)
(0.899164 0.292824 -1.29954e-20)
(0.903848 0.230771 -2.31127e-21)
(0.872513 0.203504 -1.70569e-20)
(0.860686 0.204634 3.79039e-21)
(0.845102 0.228797 1.9577e-20)
(0.808128 0.281251 -1.96956e-20)
(0.769378 0.383161 1.04913e-19)
(0.578252 0.542326 -3.84733e-19)
(0.912108 0.0979679 1.15628e-21)
(1.04523 0.318653 -2.96443e-21)
(0.894032 0.304053 -1.51581e-20)
(0.896767 0.237607 -4.61844e-20)
(0.866179 0.207789 3.53967e-20)
(0.857766 0.208643 1.81342e-20)
(0.847163 0.236483 -2.36642e-20)
(0.819564 0.298151 9.31773e-20)
(0.795482 0.421086 -9.64693e-20)
(0.642387 0.609911 -3.6433e-19)
(0.911974 0.0995101 2.55564e-21)
(1.04711 0.33235 -1.48268e-20)
(0.886945 0.315995 8.39876e-21)
(0.887061 0.243777 7.35068e-20)
(0.861165 0.211194 1.14691e-20)
(0.854913 0.211942 4.07077e-20)
(0.847155 0.242879 3.0438e-20)
(0.828659 0.314235 6.61195e-20)
(0.820757 0.45132 -2.29962e-20)
(0.731223 0.665206 2.9035e-19)
(0.912538 0.100928 5.77427e-21)
(1.05024 0.347395 5.1752e-22)
(0.878437 0.328932 -8.20125e-21)
(0.880229 0.24937 1.77616e-20)
(0.860274 0.213437 -3.48969e-20)
(0.853179 0.215143 4.71708e-21)
(0.846663 0.248639 -9.05029e-21)
(0.836161 0.32913 -1.90988e-19)
(0.84983 0.481107 0)
(0.790377 0.724118 -3.08939e-20)
(0.913671 0.102043 -7.70495e-21)
(1.05463 0.363684 5.44138e-21)
(0.873148 0.341889 1.83163e-21)
(0.884998 0.252615 -7.11569e-20)
(0.863652 0.215002 -1.65432e-20)
(0.854316 0.21879 -5.82095e-20)
(0.848987 0.254273 3.09633e-21)
(0.846394 0.343785 7.46126e-21)
(0.874268 0.496656 -5.43305e-21)
(0.919377 0.756435 9.55184e-19)
(0.915233 0.102723 -6.43092e-20)
(1.06104 0.379813 1.03544e-20)
(0.879736 0.354827 3.64107e-20)
(0.899749 0.253096 4.03783e-20)
(0.873457 0.2163 -8.77432e-20)
(0.864679 0.223808 1.27368e-20)
(0.862342 0.260495 -3.84115e-21)
(0.861123 0.359652 1.43143e-20)
(0.917496 0.5159 1.53008e-19)
(0.992714 0.808792 -1.22235e-19)
(0.915721 0.102492 2.01828e-20)
(1.07206 0.394403 -1.20042e-20)
(0.90235 0.364621 -1.33323e-20)
(0.924304 0.252673 1.04835e-19)
(0.907254 0.21949 6.91677e-21)
(0.903269 0.228692 1.90266e-20)
(0.903344 0.265133 -3.33442e-20)
(0.902754 0.368713 5.66301e-20)
(0.969042 0.516553 2.7303e-19)
(1.08433 0.821482 -6.5087e-19)
(0.912806 0.101862 3.74243e-20)
(1.09295 0.406386 -1.00138e-20)
(0.942322 0.368589 9.68497e-22)
(0.982182 0.251228 -3.23322e-20)
(0.979801 0.219802 7.27011e-20)
(0.977002 0.234701 -2.11529e-20)
(0.975148 0.276287 -7.88636e-21)
(0.962597 0.39607 5.58132e-20)
(1.05376 0.540078 -5.18879e-20)
(1.24701 0.869989 4.26538e-19)
(0.898116 0.0945003 -7.61554e-21)
(1.13919 0.414087 -1.14556e-20)
(1.03491 0.371913 -6.76257e-21)
(1.10093 0.24906 -4.29324e-20)
(1.11836 0.215993 -4.44575e-20)
(1.12828 0.235926 -3.49561e-20)
(1.12071 0.277538 3.18874e-21)
(1.12864 0.387999 -1.35896e-19)
(1.19919 0.501061 -3.90906e-19)
(1.22075 0.85987 -3.34214e-20)
(0.869113 0.0728632 -1.46497e-20)
(1.20503 0.390838 -2.62064e-20)
(1.17907 0.354267 5.34668e-21)
(1.2668 0.239432 -1.82164e-20)
(1.30677 0.206042 4.3608e-20)
(1.32211 0.235316 7.573e-20)
(1.37301 0.266402 1.34224e-20)
(1.30951 0.395189 1.16882e-19)
(1.55613 0.483663 8.16064e-20)
(1.30847 0.768599 4.5074e-19)
(0.837345 0.0455913 -7.31339e-21)
(1.25341 0.336203 -8.3596e-21)
(1.29964 0.316423 4.93612e-21)
(1.41254 0.22083 1.09132e-20)
(1.47233 0.19244 1.22954e-34)
(1.49895 0.215908 -5.33779e-21)
(1.60066 0.264902 -5.44476e-34)
(1.48425 0.351234 1.95373e-20)
(1.89877 0.46457 -6.61825e-20)
(1.56512 0.701502 -3.49275e-19)
(0.815154 0.0188902 2.66546e-20)
(1.27188 0.255779 -6.80886e-35)
(1.37123 0.259632 -5.42852e-21)
(1.50779 0.193139 1.16347e-20)
(1.58355 0.173558 -2.07662e-20)
(1.61886 0.19062 -4.0969e-20)
(1.7602 0.255475 -6.64786e-34)
(1.63122 0.305834 -9.0973e-20)
(2.10547 0.425824 -1.34629e-19)
(1.87626 0.627268 3.78502e-19)
(0.806407 -0.00547002 0)
(1.26612 0.163741 -1.48878e-34)
(1.3979 0.190148 0)
(1.55669 0.158695 0)
(1.64012 0.151281 0)
(1.69134 0.156128 0)
(1.83404 0.238291 -4.55838e-34)
(1.75546 0.254605 0)
(2.18153 0.349045 -2.21152e-20)
(2.11465 0.563098 2.19659e-19)
(0.808891 -0.0272677 7.44151e-21)
(1.25158 0.0706272 3.52151e-21)
(1.39085 0.112193 -6.36159e-21)
(1.56361 0.1187 0)
(1.65106 0.125219 0)
(1.72027 0.123333 5.8206e-21)
(1.83545 0.212551 4.00033e-20)
(1.86176 0.202966 -1.47315e-20)
(2.16652 0.268076 -3.151e-20)
(2.23521 0.494417 1.64956e-19)
(0.821245 -0.0473827 -4.71868e-20)
(1.23218 -0.0196446 -8.79023e-21)
(1.34148 0.0345214 -6.76679e-21)
(1.5145 0.0768847 -2.22197e-20)
(1.60292 0.0935202 -1.17622e-20)
(1.6917 0.092588 -8.73144e-21)
(1.7738 0.172326 -3.16078e-20)
(1.91293 0.15534 -3.29204e-20)
(2.06959 0.197787 -8.52621e-20)
(2.26586 0.405388 8.00354e-20)
(0.841543 -0.0641373 -1.19768e-20)
(1.19235 -0.0863323 -2.14714e-20)
(1.20906 -0.0285646 -7.29263e-21)
(1.36162 0.0391855 -8.20605e-21)
(1.43463 0.0576179 6.95475e-35)
(1.54018 0.0622089 6.89457e-21)
(1.58812 0.116822 -9.81734e-34)
(1.83251 0.107122 -1.60303e-20)
(1.8425 0.138814 1.81899e-20)
(2.1972 0.289702 2.68981e-20)
(0.860607 -0.0847256 1.35338e-19)
(1.08891 -0.121268 -9.30581e-21)
(0.915284 -0.0637896 -8.51276e-21)
(1.02125 0.0118529 1.22566e-20)
(1.06594 0.0233577 1.89605e-21)
(1.15679 0.032099 1.13038e-20)
(1.2097 0.0570457 1.09268e-20)
(1.45577 0.0538259 -1.4053e-20)
(1.41588 0.0775993 -1.05544e-20)
(1.87307 0.145202 1.14533e-19)
(0.80748 -0.0511769 1.14066e-20)
(0.757051 -0.062298 -9.33356e-35)
(0.387875 -0.0275047 -9.20626e-21)
(0.456733 0.0052578 0)
(0.4642 0.00510577 0)
(0.516004 0.00899276 7.3794e-21)
(0.571107 0.0134714 -9.87166e-36)
(0.704154 0.0165828 -1.62832e-20)
(0.718522 0.0212612 -2.44346e-20)
(1.0247 0.0401424 -4.21471e-20)
(1.52294 0.873337 1.6258e-19)
(1.68054 0.86529 -9.36189e-20)
(1.86878 0.841658 -3.39336e-21)
(2.04536 0.795993 7.7917e-20)
(2.19154 0.728436 -3.40418e-19)
(2.3028 0.650722 -5.77936e-19)