/*--------------------------------*- C++ -*----------------------------------*\
| =========                 |                                                 |
| \\      /  F ield         | OpenFOAM: The Open Source CFD Toolbox           |
|  \\    /   O peration     | Version:  2406                                  |
|   \\  /    A nd           | Website:  www.openfoam.com                      |
|    \\/     M anipulation  |                                                 |
\*---------------------------------------------------------------------------*/
FoamFile
{
    version     2.0;
    format      ascii;
    arch        "LSB;label=32;scalar=64";
    class       volScalarField;
    location    "258";
    object      k;
}
// * * * * * * * * * * * * * * * * * * * * * * * * * * * * * * * * * * * * * //

dimensions      [0 2 -2 0 0 0 0];

internalField   nonuniform List<scalar> 
12225
(
0.533136
0.814484
1.00523
1.1101
1.16212
1.1702
1.16392
1.14824
1.12424
1.09871
1.07417
1.05033
1.02975
1.00914
0.99389
0.975861
0.966918
0.949804
0.431054
0.485307
0.500598
0.507026
0.514628
0.524156
0.533354
0.545205
0.55565
0.568959
0.579818
0.594207
0.604902
0.619967
0.629754
0.645103
0.652804
0.667971
0.383026
0.416479
0.429041
0.427415
0.422953
0.415299
0.407738
0.400172
0.393454
0.387328
0.382146
0.377838
0.374315
0.371803
0.369766
0.368792
0.367843
0.368529
0.374582
0.379528
0.384634
0.385889
0.385333
0.383659
0.380902
0.376936
0.373134
0.368619
0.364508
0.360007
0.355987
0.351815
0.348099
0.344432
0.341078
0.337959
0.373629
0.372881
0.373081
0.37295
0.372376
0.371313
0.369963
0.367801
0.36575
0.363104
0.360682
0.357826
0.355264
0.352378
0.349825
0.347016
0.344573
0.341913
0.373773
0.37164
0.3702
0.368863
0.36775
0.366359
0.365122
0.363491
0.36199
0.360156
0.358474
0.356523
0.354754
0.352763
0.350981
0.349013
0.347272
0.345366
0.373842
0.371535
0.369572
0.367692
0.366108
0.364472
0.363045
0.361494
0.360082
0.358539
0.357114
0.35557
0.354143
0.352617
0.35121
0.34972
0.348353
0.346918
0.373847
0.371551
0.369463
0.367435
0.365619
0.363845
0.362245
0.360655
0.359193
0.357719
0.356347
0.354957
0.353654
0.352333
0.351093
0.34984
0.348658
0.347472
0.373839
0.371558
0.369437
0.367393
0.365496
0.363672
0.361981
0.360351
0.358828
0.357354
0.355966
0.354618
0.353341
0.352097
0.350914
0.349763
0.348661
0.347591
0.373834
0.371559
0.369422
0.367381
0.365459
0.363625
0.361898
0.36025
0.358693
0.357206
0.355798
0.354451
0.353171
0.351944
0.350775
0.349654
0.34858
0.347551
0.37383
0.371558
0.369412
0.367371
0.36544
0.363604
0.361864
0.360209
0.358638
0.357143
0.355722
0.354369
0.35308
0.351853
0.350681
0.349565
0.348496
0.347478
0.373828
0.371556
0.369405
0.367363
0.365428
0.363589
0.361844
0.360185
0.358609
0.357109
0.355682
0.354325
0.353031
0.351799
0.350623
0.349504
0.348433
0.347414
0.373827
0.371554
0.3694
0.367357
0.365418
0.363577
0.361829
0.360167
0.358587
0.357084
0.355654
0.354292
0.352994
0.351759
0.35058
0.349457
0.348383
0.347361
0.373826
0.371552
0.369396
0.36735
0.365409
0.363566
0.361814
0.36015
0.358567
0.357061
0.355627
0.354263
0.352961
0.351723
0.35054
0.349414
0.348337
0.347311
0.373826
0.371551
0.369392
0.367345
0.365401
0.363555
0.361801
0.360134
0.358549
0.35704
0.355603
0.354236
0.352932
0.35169
0.350504
0.349374
0.348295
0.347266
0.373825
0.371549
0.369389
0.36734
0.365395
0.363547
0.36179
0.360121
0.358533
0.357022
0.355582
0.354212
0.352905
0.35166
0.350472
0.34934
0.348258
0.347226
0.373825
0.371548
0.369388
0.367337
0.36539
0.36354
0.361782
0.36011
0.35852
0.357006
0.355565
0.354192
0.352883
0.351636
0.350445
0.349311
0.348227
0.347193
0.373825
0.371548
0.369386
0.367335
0.365386
0.363536
0.361776
0.360103
0.358511
0.356996
0.355552
0.354177
0.352867
0.351618
0.350426
0.349289
0.348203
0.347168
0.373825
0.371548
0.369386
0.367334
0.365385
0.363534
0.361774
0.3601
0.358507
0.35699
0.355546
0.35417
0.352858
0.351608
0.350415
0.349277
0.34819
0.347154
0.373825
0.371548
0.369387
0.367335
0.365387
0.363536
0.361776
0.360102
0.358509
0.356992
0.355548
0.354172
0.35286
0.351609
0.350416
0.349278
0.348192
0.347155
0.373825
0.371549
0.369388
0.367338
0.36539
0.36354
0.361781
0.360107
0.358515
0.356999
0.355556
0.35418
0.352869
0.351618
0.350426
0.349288
0.348202
0.347165
0.373825
0.37155
0.369391
0.367341
0.365395
0.363546
0.361789
0.360117
0.358526
0.357011
0.355569
0.354194
0.352884
0.351635
0.350444
0.349307
0.348222
0.347186
0.373825
0.371552
0.369394
0.367347
0.365403
0.363556
0.361801
0.360134
0.358547
0.357037
0.355599
0.354229
0.352924
0.351679
0.350492
0.349358
0.348277
0.347242
0.373825
0.371555
0.369399
0.367361
0.365424
0.363594
0.361856
0.360212
0.358648
0.357163
0.355746
0.354396
0.353107
0.351872
0.350692
0.349559
0.348475
0.347431
0.373824
0.371558
0.36942
0.367457
0.365612
0.363901
0.362271
0.36074
0.359259
0.357846
0.356469
0.355144
0.353849
0.352596
0.351372
0.350185
0.349029
0.347904
0.373786
0.371652
0.369859
0.368432
0.367089
0.365859
0.364556
0.363253
0.361849
0.360436
0.358953
0.357477
0.355963
0.354468
0.352961
0.351481
0.350008
0.348567
0.373848
0.37365
0.374438
0.37507
0.374797
0.374229
0.372867
0.37123
0.369197
0.367092
0.364793
0.362497
0.360123
0.357782
0.355438
0.353138
0.350886
0.34868
0.380332
0.391477
0.404533
0.405103
0.403629
0.400411
0.395742
0.391306
0.38653
0.382174
0.377765
0.373721
0.36983
0.366186
0.362868
0.359653
0.356911
0.354121
0.406243
0.439098
0.44576
0.445491
0.44567
0.446696
0.448537
0.452199
0.455505
0.460283
0.464478
0.469743
0.474579
0.479937
0.485231
0.490453
0.496152
0.501129
0.458615
0.616687
0.744203
0.838712
0.905345
0.949009
0.976751
0.991409
0.998879
0.998405
0.996384
0.991251
0.984444
0.976696
0.968589
0.960348
0.952223
0.944301
4.15878e-06
3.20824e-05
8.03581e-05
0.000148505
0.000218027
0.000273767
0.000344271
0.000480113
0.000700091
0.00103362
0.00143154
0.00183732
0.00222883
0.00257012
0.00285314
0.0030577
0.00316457
0.00319167
0.0031715
0.00304371
0.0028327
0.00241147
0.00182791
0.00114572
0.000531651
0.00016024
3.68114e-05
2.60697e-05
3.03015e-05
3.78367e-05
4.86337e-05
6.19531e-05
7.15811e-05
7.52091e-05
0.000100486
0.000166429
0.000347385
0.000560541
0.000680108
0.000707147
0.00068921
0.00063985
0.000635473
0.000747871
0.00110504
0.00127981
0.00157524
0.00199051
0.00407517
0.0155487
0.0326517
0.0488327
0.0633269
0.0763082
0.0879017
0.0984003
0.107923
0.116706
0.124827
0.132466
0.139673
0.146646
0.15341
0.159832
0.165967
0.171869
0.177573
0.183117
0.188525
0.19382
0.199023
0.204152
0.209215
0.214225
0.219188
0.224112
0.228997
0.233851
0.238671
0.243461
0.248218
0.252943
0.257632
0.262284
0.266896
0.271462
0.27598
0.280444
0.284848
0.289189
0.293461
0.29766
0.301783
0.305831
0.309805
0.313717
0.317582
0.321432
0.32524
0.328951
0.332606
0.336179
0.33968
0.343096
0.34643
0.349674
0.352826
0.35588
0.358833
0.361681
0.36442
0.367046
0.369554
0.371941
0.374203
0.376336
0.378336
0.3802
0.381922
0.383502
0.384933
0.386215
0.387342
0.388313
0.389125
0.389776
0.390264
0.390587
0.390741
0.390719
0.390602
0.390084
0.389631
0.388659
0.387755
0.38665
0.385348
0.383881
0.382225
0.380394
0.378385
0.376188
0.373804
0.371263
0.36855
0.365679
0.362644
0.359458
0.35612
0.352639
0.349021
0.345279
0.341407
0.33742
0.333312
0.329088
0.324762
0.320349
0.315859
0.311299
0.30668
0.302011
0.297299
0.292554
0.287784
0.282998
0.278208
0.273421
0.268656
0.263995
0.260677
0.259592
0.258659
0.257642
0.256436
0.254924
0.252858
0.249711
0.245505
0.219826
2.11595e-05
1.21103e-05
3.59872e-05
7.99924e-05
0.000172425
0.000452124
0.000998642
0.00192326
0.00303962
0.00425582
0.00547339
0.00652682
0.00737917
0.00793918
0.00830332
0.00825918
0.00816193
0.00785749
0.00736523
0.0066264
0.00575349
0.00467912
0.00360723
0.00258616
0.00166067
0.000946527
0.000485668
0.000238653
0.000120328
6.77189e-05
4.57242e-05
3.98959e-05
6.37685e-05
0.000108969
0.000505368
0.00103338
0.00221469
0.00336161
0.00375404
0.00369663
0.0033863
0.00309393
0.00330431
0.00416447
0.0064205
0.0111177
0.0184842
0.0286995
0.0429683
0.0623687
0.0823429
0.101892
0.120516
0.139859
0.15903
0.179191
0.199391
0.220199
0.240826
0.261568
0.280933
0.299811
0.317508
0.334565
0.350729
0.366322
0.381289
0.39582
0.40994
0.423737
0.437283
0.450643
0.463848
0.476958
0.489986
0.502977
0.515938
0.528897
0.54186
0.554842
0.567848
0.580883
0.593948
0.607044
0.620168
0.633316
0.64648
0.659653
0.672823
0.685977
0.699097
0.712166
0.725162
0.738061
0.750837
0.763464
0.775916
0.788184
0.800358
0.81253
0.824635
0.836711
0.848721
0.860674
0.872552
0.884351
0.896057
0.907664
0.919159
0.930533
0.941775
0.952874
0.96382
0.974602
0.985207
0.995625
1.00584
1.01585
1.02564
1.03519
1.04449
1.05353
1.06231
1.07079
1.07898
1.08687
1.09443
1.10166
1.10854
1.11507
1.12122
1.12699
1.13237
1.13732
1.14188
1.14601
1.14971
1.15297
1.15578
1.15814
1.16005
1.16149
1.16235
1.16278
1.16278
1.16228
1.1613
1.15985
1.15793
1.15555
1.15271
1.14945
1.14575
1.14162
1.13709
1.13215
1.1268
1.12108
1.11501
1.10862
1.10192
1.09493
1.08768
1.0802
1.07249
1.06458
1.0565
1.04825
1.03984
1.03126
1.02257
1.01367
1.00436
0.99472
0.984699
0.974231
0.962748
0.950348
0.93604
0.886037
2.73031e-05
9.24773e-06
3.44835e-05
0.000142483
0.000418268
0.00123649
0.00247608
0.0042487
0.00596526
0.0077609
0.00939682
0.0107209
0.0117606
0.0124807
0.0128067
0.0127994
0.012545
0.0122017
0.0116344
0.0109472
0.0100818
0.00912483
0.00789681
0.00652698
0.00499721
0.00357976
0.00218597
0.00126098
0.000714167
0.000410303
0.000260102
0.000176462
0.000243664
0.000347605
0.00137591
0.0030421
0.00597753
0.00821696
0.0090041
0.0102409
0.0106326
0.0116833
0.0170636
0.0255521
0.0366649
0.0533527
0.0761657
0.10017
0.127194
0.155995
0.186335
0.220468
0.256407
0.294666
0.332849
0.371025
0.407336
0.441856
0.473708
0.503091
0.530712
0.556579
0.580934
0.604012
0.625993
0.647097
0.667449
0.687206
0.706488
0.72539
0.743998
0.762375
0.780578
0.79865
0.816628
0.834542
0.852414
0.870263
0.888103
0.905945
0.923796
0.941661
0.959542
0.977438
0.99535
1.01327
1.0312
1.04913
1.06706
1.08498
1.10288
1.12076
1.1386
1.15642
1.1742
1.19195
1.20966
1.22735
1.245
1.26259
1.2801
1.29752
1.31483
1.33203
1.3491
1.36602
1.38278
1.39938
1.41578
1.43199
1.44798
1.46374
1.47925
1.4945
1.50948
1.52416
1.53853
1.55257
1.56628
1.57962
1.59259
1.60516
1.61733
1.62906
1.64036
1.65119
1.66155
1.67141
1.68076
1.68958
1.69785
1.70556
1.7127
1.71924
1.72518
1.7305
1.7352
1.73925
1.74265
1.74538
1.74745
1.74872
1.7493
1.74945
1.7488
1.74742
1.74533
1.74256
1.73912
1.73501
1.73024
1.72484
1.71881
1.71216
1.70493
1.69712
1.68876
1.67987
1.67048
1.66062
1.65032
1.63961
1.62852
1.61709
1.60534
1.59331
1.58103
1.56852
1.55581
1.54289
1.52979
1.51647
1.50284
1.48891
1.47465
1.46002
1.44463
1.42869
1.41151
1.36546
2.98709e-05
1.95384e-05
0.000118409
0.00053897
0.00145856
0.00356001
0.00613665
0.00912139
0.0117004
0.0144671
0.0164318
0.0177883
0.0182997
0.0182099
0.0180135
0.017541
0.0169515
0.0162809
0.0155137
0.0146636
0.0137081
0.012658
0.0114675
0.0101293
0.00864942
0.00701333
0.0054721
0.0037871
0.00252677
0.00154931
0.000999202
0.000778112
0.000942354
0.00164655
0.00515382
0.0112849
0.0177918
0.0218553
0.0207061
0.0244711
0.0323898
0.0444719
0.0618906
0.0816688
0.106298
0.135189
0.165532
0.200971
0.239732
0.281289
0.324652
0.369273
0.413628
0.457481
0.499865
0.540702
0.579542
0.616443
0.651334
0.684413
0.715848
0.745769
0.774361
0.801785
0.828194
0.853754
0.878592
0.902836
0.926587
0.949937
0.972964
0.995733
1.0183
1.04071
1.06301
1.08523
1.10738
1.1295
1.1516
1.1737
1.19579
1.2179
1.24002
1.26215
1.2843
1.30646
1.32864
1.35082
1.37301
1.39519
1.41737
1.43954
1.46169
1.48382
1.50593
1.528
1.55002
1.57199
1.59388
1.61567
1.63735
1.6589
1.6803
1.70154
1.72259
1.74345
1.76409
1.7845
1.80466
1.82455
1.84416
1.86346
1.88243
1.90106
1.91933
1.93722
1.9547
1.97177
1.98839
2.00455
2.02023
2.03542
2.05007
2.06419
2.07774
2.09071
2.10308
2.11482
2.12593
2.13636
2.14612
2.15517
2.1635
2.1711
2.17794
2.18401
2.18931
2.19381
2.19749
2.20035
2.20233
2.20336
2.20373
2.20334
2.20198
2.19975
2.19668
2.19276
2.188
2.18243
2.17605
2.16888
2.16094
2.15225
2.14282
2.13269
2.12187
2.11041
2.09834
2.08567
2.07247
2.05875
2.04456
2.02994
2.01493
1.99957
1.9839
1.96796
1.95179
1.93539
1.91881
1.90203
1.88502
1.86779
1.85033
1.83267
1.81459
1.79638
1.77785
1.73643
3.83008e-05
7.1768e-05
0.000445245
0.00159007
0.00441142
0.00871265
0.0131206
0.0171978
0.0203216
0.0218032
0.0219486
0.0217534
0.0211754
0.0204933
0.0197915
0.0191034
0.0184409
0.0177803
0.0170953
0.0163686
0.015573
0.0146832
0.0136691
0.0125061
0.0111917
0.00970771
0.00812657
0.00663101
0.00477944
0.00377169
0.00266057
0.00259068
0.00393361
0.00971353
0.0244479
0.0344391
0.0374214
0.0441316
0.0521173
0.0644955
0.0807165
0.100542
0.125463
0.154787
0.188894
0.22691
0.268481
0.312896
0.358683
0.405037
0.451396
0.497299
0.542378
0.586546
0.629566
0.671368
0.711822
0.750897
0.788571
0.824884
0.859887
0.893644
0.926255
0.957825
0.988467
1.01829
1.04741
1.07592
1.10391
1.13147
1.15868
1.18559
1.21227
1.23877
1.26512
1.29137
1.31754
1.34367
1.36976
1.39583
1.4219
1.44798
1.47407
1.50017
1.52629
1.55243
1.57857
1.60473
1.63089
1.65705
1.68321
1.70934
1.73546
1.76154
1.78758
1.81355
1.83945
1.86526
1.89095
1.91652
1.94194
1.96719
1.99226
2.01712
2.04175
2.06613
2.09024
2.11406
2.13757
2.16075
2.18357
2.20602
2.22807
2.2497
2.27089
2.29161
2.31185
2.33157
2.35077
2.3694
2.38746
2.40492
2.42175
2.43793
2.45343
2.46825
2.48234
2.49569
2.50828
2.52009
2.53108
2.54125
2.55058
2.55903
2.56659
2.57326
2.57901
2.58383
2.5877
2.59062
2.59246
2.59327
2.59333
2.59237
2.59036
2.58734
2.58333
2.57834
2.57238
2.56547
2.55762
2.54885
2.53918
2.52864
2.51724
2.50502
2.492
2.47823
2.46374
2.44856
2.43275
2.41633
2.39937
2.38189
2.36395
2.34561
2.32689
2.30786
2.28856
2.26903
2.2493
2.22941
2.20935
2.18914
2.16883
2.14848
2.12802
2.10779
2.0878
2.04939
2.46576e-05
0.000236933
0.00139278
0.00465837
0.0112693
0.0177481
0.0227104
0.0250003
0.0252746
0.0247644
0.0238336
0.0227443
0.0217566
0.020856
0.0200395
0.0193029
0.0186388
0.0180243
0.0174429
0.0168652
0.0162544
0.0155711
0.0147749
0.0138322
0.0127186
0.0114207
0.00992915
0.00860288
0.00740933
0.0052667
0.00514366
0.00951143
0.0255965
0.0523655
0.0649497
0.0696012
0.0716401
0.0799187
0.0918964
0.110725
0.134382
0.163754
0.198187
0.236884
0.279303
0.323822
0.369808
0.416242
0.462636
0.508736
0.554457
0.599731
0.644534
0.688833
0.732539
0.775559
0.817787
0.859134
0.899525
0.938917
0.977295
1.01467
1.05108
1.08658
1.12124
1.15513
1.18833
1.22093
1.253
1.28462
1.31587
1.34679
1.37746
1.40791
1.43821
1.46838
1.49845
1.52846
1.55843
1.58838
1.61832
1.64826
1.67821
1.70817
1.73814
1.76814
1.79814
1.82815
1.85816
1.88817
1.91816
1.94813
1.97806
2.00793
2.03774
2.06746
2.09707
2.12657
2.15592
2.18511
2.21412
2.24292
2.2715
2.29982
2.32787
2.35562
2.38305
2.41013
2.43684
2.46315
2.48904
2.51448
2.53945
2.56393
2.58789
2.61129
2.63412
2.65636
2.67796
2.69892
2.7192
2.73877
2.75762
2.77571
2.79301
2.80952
2.82519
2.84001
2.85394
2.86697
2.87908
2.89024
2.90042
2.90961
2.91779
2.92494
2.93105
2.93609
2.94007
2.94296
2.94462
2.94522
2.94485
2.94331
2.94062
2.93679
2.93185
2.92581
2.91867
2.91045
2.90118
2.89086
2.87953
2.86721
2.85392
2.83971
2.8246
2.80863
2.79184
2.77428
2.75598
2.73701
2.71741
2.69722
2.67651
2.65533
2.63373
2.61177
2.5895
2.56698
2.54425
2.52138
2.49839
2.47533
2.45226
2.42931
2.40649
2.38417
2.36224
2.32562
0.000124686
0.000854428
0.00406103
0.0123778
0.0215198
0.0267981
0.0281538
0.0276665
0.0267302
0.0252748
0.0239233
0.0226868
0.0215635
0.0205824
0.0197448
0.0190336
0.0184289
0.0179034
0.0174168
0.0169502
0.0164779
0.0159631
0.0153721
0.0146599
0.0138194
0.0128685
0.0116814
0.0103071
0.00986311
0.0114265
0.0211213
0.045906
0.0758433
0.0881536
0.0910699
0.0919572
0.100078
0.115366
0.136716
0.164394
0.197439
0.235448
0.276865
0.320568
0.365599
0.411056
0.456646
0.502056
0.547261
0.592299
0.637246
0.682127
0.726965
0.771734
0.816366
0.860756
0.904775
0.948311
0.991257
1.03353
1.07506
1.11583
1.15581
1.19503
1.23351
1.27129
1.30844
1.345
1.38105
1.41665
1.45186
1.48673
1.52134
1.55571
1.58991
1.62397
1.65792
1.6918
1.72562
1.75942
1.7932
1.82698
1.86076
1.89456
1.92837
1.96219
1.99602
2.02986
2.06369
2.09751
2.1313
2.16505
2.19875
2.23237
2.26591
2.29933
2.33262
2.36575
2.39872
2.43149
2.46404
2.49635
2.52839
2.56014
2.59155
2.62262
2.65331
2.68359
2.71343
2.74282
2.77171
2.80008
2.8279
2.85514
2.88178
2.90779
2.93313
2.95778
2.9817
3.00488
3.02728
3.04887
3.06963
3.08952
3.10853
3.12661
3.14375
3.15992
3.17509
3.18923
3.20234
3.21437
3.2253
3.23512
3.24381
3.25135
3.25772
3.2629
3.26689
3.26966
3.27109
3.2714
3.27051
3.26834
3.26491
3.26024
3.25432
3.24719
3.23885
3.22931
3.21861
3.20675
3.19376
3.17968
3.16454
3.14836
3.13119
3.11307
3.09403
3.07414
3.05344
3.03197
3.0098
2.98697
2.96356
2.93961
2.91519
2.89037
2.8652
2.83976
2.8141
2.7883
2.76242
2.73653
2.71072
2.68515
2.65988
2.63529
2.61117
2.5751
0.00107726
0.00270793
0.0101554
0.0230837
0.0297384
0.0313637
0.030912
0.0293837
0.0272012
0.0252911
0.0235894
0.0221564
0.0209866
0.0200467
0.0192886
0.018669
0.0181548
0.0177144
0.0173157
0.0169068
0.0164616
0.0159628
0.0153838
0.0146814
0.0137698
0.0125024
0.0114423
0.0108961
0.0155543
0.0309798
0.0654462
0.0922477
0.102471
0.105193
0.106356
0.117177
0.134883
0.159428
0.189971
0.225884
0.26548
0.307618
0.351034
0.395069
0.43927
0.483411
0.527491
0.571522
0.615604
0.659847
0.704343
0.749148
0.794283
0.839718
0.885368
0.931128
0.976873
1.02248
1.06781
1.11277
1.15725
1.20119
1.24455
1.2873
1.32943
1.37097
1.41194
1.45238
1.49234
1.53186
1.571
1.60981
1.64834
1.68664
1.72475
1.76271
1.80056
1.83832
1.87603
1.91369
1.95134
1.98899
2.02663
2.06429
2.10195
2.13962
2.1773
2.21497
2.25264
2.29027
2.32787
2.36542
2.40289
2.44027
2.47753
2.51465
2.55162
2.58841
2.62498
2.66133
2.69742
2.73322
2.76871
2.80385
2.83862
2.87297
2.90689
2.94033
2.97327
3.00568
3.03752
3.06876
3.09937
3.12932
3.15857
3.1871
3.21486
3.24184
3.268
3.2933
3.31772
3.34123
3.36379
3.38538
3.40596
3.42551
3.444
3.46139
3.47767
3.49281
3.50679
3.51957
3.53113
3.54146
3.55054
3.55834
3.56486
3.57006
3.57396
3.5765
3.57764
3.57751
3.57602
3.57315
3.56891
3.56332
3.55637
3.5481
3.53851
3.52762
3.51545
3.50202
3.48738
3.47153
3.45453
3.4364
3.41719
3.39694
3.3757
3.35351
3.33043
3.30651
3.28182
3.2564
3.23033
3.20366
3.17648
3.14884
3.12081
3.09248
3.06392
3.03522
3.00645
2.97772
2.94915
2.92089
2.89306
2.86603
2.83948
2.80304
0.00348324
0.00642243
0.0201565
0.0314558
0.0348461
0.0344694
0.0324827
0.0296103
0.0270003
0.0247535
0.0229551
0.0215613
0.0204859
0.0196443
0.0189738
0.0184223
0.0179546
0.0175407
0.0171483
0.0167396
0.0162727
0.0157824
0.0152588
0.0148014
0.0146747
0.0154803
0.0187339
0.0281216
0.0479187
0.0805612
0.100654
0.110088
0.112933
0.117571
0.130454
0.15111
0.178089
0.211089
0.248165
0.288187
0.329702
0.372
0.414526
0.457095
0.499649
0.542195
0.584849
0.627738
0.670994
0.714733
0.759046
0.803986
0.849559
0.895719
0.942396
0.989487
1.03687
1.08441
1.13198
1.17944
1.22669
1.27363
1.32019
1.36631
1.41196
1.45714
1.50184
1.54609
1.5899
1.63332
1.67638
1.71912
1.7616
1.80384
1.8459
1.8878
1.92958
1.97128
2.01291
2.0545
2.09607
2.13762
2.17917
2.22073
2.26228
2.30384
2.3454
2.38694
2.42846
2.46994
2.51136
2.55272
2.59398
2.63512
2.67612
2.71696
2.75761
2.79804
2.83822
2.87813
2.91774
2.95701
2.99591
3.03442
3.07248
3.11008
3.14717
3.18372
3.21969
3.25505
3.28976
3.32379
3.35709
3.38965
3.42142
3.45236
3.48244
3.51163
3.53989
3.5672
3.59351
3.61879
3.64302
3.66615
3.68816
3.70903
3.72871
3.74718
3.76441
3.78038
3.79507
3.80844
3.82048
3.83116
3.84047
3.84838
3.85489
3.85997
3.86363
3.86582
3.86655
3.86586
3.86367
3.85999
3.85485
3.84825
3.8402
3.83072
3.81982
3.80753
3.79386
3.77885
3.76252
3.74491
3.72605
3.70599
3.68475
3.6624
3.63898
3.61453
3.58912
3.5628
3.53563
3.50768
3.47901
3.44969
3.41978
3.38938
3.35855
3.32737
3.29595
3.26437
3.23274
3.20117
3.16981
3.13882
3.10833
3.07871
3.0496
3.01213
0.00651718
0.0119848
0.0299857
0.0383732
0.0391831
0.0369942
0.033369
0.0298039
0.0267665
0.024376
0.0225879
0.0212592
0.0202512
0.0194566
0.0188037
0.018259
0.0177879
0.0173627
0.01697
0.0165917
0.0162254
0.0159867
0.0158446
0.0164214
0.0185975
0.0247558
0.0387493
0.0639604
0.0890123
0.105363
0.112974
0.11705
0.125532
0.141024
0.164099
0.19342
0.227456
0.264927
0.304243
0.344613
0.385332
0.426167
0.466994
0.507823
0.548743
0.589887
0.631405
0.673445
0.716138
0.759597
0.803902
0.849087
0.895153
0.942064
0.989753
1.03813
1.08706
1.13643
1.18609
1.23592
1.28577
1.33555
1.38516
1.43452
1.48358
1.53229
1.58065
1.62864
1.67628
1.72357
1.77055
1.81724
1.86369
1.90991
1.95596
2.00185
2.04762
2.09331
2.13892
2.18449
2.23002
2.27554
2.32104
2.36654
2.41203
2.45751
2.50297
2.5484
2.5938
2.63914
2.6844
2.72957
2.77461
2.81951
2.86424
2.90877
2.95307
2.99711
3.04086
3.08429
3.12736
3.17004
3.21229
3.25408
3.29536
3.33611
3.37627
3.41582
3.45471
3.4929
3.53036
3.56704
3.60291
3.63793
3.67205
3.70525
3.73749
3.76872
3.79891
3.82804
3.85605
3.88292
3.90862
3.9331
3.95635
3.97832
3.99899
4.01833
4.03631
4.05291
4.0681
4.08186
4.09416
4.105
4.11435
4.12219
4.1285
4.13329
4.13653
4.13821
4.13835
4.13696
4.13393
4.12932
4.12316
4.11545
4.1062
4.09543
4.08315
4.0694
4.05419
4.03756
4.01953
4.00014
3.97942
3.95743
3.93419
3.90977
3.8842
3.85754
3.82985
3.80119
3.77161
3.74119
3.70999
3.67808
3.64554
3.61245
3.57889
3.54495
3.51074
3.47635
3.4419
3.40753
3.37338
3.33964
3.30645
3.27415
3.24239
3.20349
0.00896486
0.019411
0.0386795
0.0442042
0.0430615
0.0390342
0.034341
0.0300839
0.0267155
0.02425
0.0224664
0.0211662
0.0201943
0.0194452
0.0188508
0.0183546
0.0179306
0.0175953
0.0174269
0.0173824
0.0177052
0.0187797
0.0212884
0.026626
0.0372615
0.0561936
0.0768447
0.0940498
0.106145
0.113179
0.120371
0.131132
0.150175
0.175121
0.20587
0.240271
0.277109
0.315301
0.354065
0.393064
0.432074
0.471084
0.510146
0.54938
0.588934
0.628967
0.669631
0.711071
0.753417
0.796767
0.84118
0.886693
0.933306
0.98099
1.02968
1.0793
1.12972
1.18083
1.23249
1.28455
1.3369
1.38939
1.44193
1.49442
1.54678
1.59895
1.65089
1.70259
1.75401
1.80517
1.85606
1.90672
1.95716
2.0074
2.05747
2.10739
2.15721
2.20692
2.25657
2.30616
2.3557
2.40522
2.45471
2.50418
2.55362
2.60304
2.65242
2.70175
2.75101
2.80019
2.84926
2.8982
2.94699
2.9956
3.04399
3.09214
3.14001
3.18757
3.23479
3.28162
3.32804
3.374
3.41946
3.46439
3.50874
3.55248
3.59555
3.63791
3.67953
3.72036
3.76036
3.79949
3.8377
3.87495
3.91121
3.94643
3.98057
4.0136
4.04547
4.07615
4.10561
4.13381
4.1607
4.18627
4.21048
4.23329
4.25468
4.27462
4.29308
4.31004
4.32548
4.33937
4.35169
4.36243
4.37158
4.3791
4.38501
4.38927
4.39189
4.39287
4.39226
4.38998
4.38594
4.38026
4.37295
4.36401
4.35345
4.34131
4.32758
4.31231
4.29552
4.27723
4.25748
4.23631
4.21376
4.18986
4.16466
4.13821
4.11056
4.08176
4.05187
4.02095
3.98906
3.95627
3.92265
3.88826
3.8532
3.81753
3.78135
3.74476
3.70785
3.67074
3.63356
3.59645
3.55957
3.52311
3.4872
3.4522
3.41775
3.37722
0.0103981
0.0279828
0.0465411
0.0502782
0.0473825
0.0417431
0.0358905
0.0310519
0.0274601
0.0249053
0.0231073
0.0218288
0.0209165
0.0202703
0.0197996
0.0195568
0.0194895
0.019728
0.0204811
0.0219804
0.0248484
0.0302044
0.0400482
0.0538377
0.0696424
0.0836602
0.0957819
0.104754
0.112976
0.1229
0.136811
0.158895
0.185614
0.216731
0.250797
0.286483
0.323083
0.360077
0.397172
0.434292
0.471446
0.508724
0.546256
0.584193
0.622694
0.661912
0.701996
0.743085
0.785289
0.828691
0.87335
0.9193
0.966542
1.01505
1.06478
1.11563
1.16752
1.22032
1.2739
1.32813
1.38287
1.43798
1.49335
1.54887
1.60445
1.66
1.71546
1.7708
1.82597
1.88097
1.93578
1.9904
2.04485
2.09913
2.15326
2.20726
2.26114
2.31493
2.36863
2.42227
2.47585
2.52938
2.58285
2.63628
2.68966
2.74298
2.79623
2.84939
2.90245
2.95539
3.00818
3.0608
3.11321
3.1654
3.21731
3.26893
3.3202
3.37111
3.4216
3.47165
3.5212
3.57022
3.61866
3.66649
3.71365
3.7601
3.8058
3.85071
3.89476
3.93793
3.98016
4.02141
4.06164
4.1008
4.13886
4.17576
4.21146
4.24594
4.27914
4.31103
4.34157
4.37074
4.39848
4.42478
4.4496
4.4729
4.49466
4.51485
4.53346
4.55044
4.56579
4.57949
4.59152
4.60186
4.61051
4.61745
4.62267
4.62616
4.62792
4.62797
4.62643
4.62299
4.6178
4.61089
4.60229
4.592
4.58003
4.56642
4.55118
4.53435
4.51593
4.49598
4.47452
4.45159
4.42723
4.40149
4.37439
4.346
4.31637
4.28554
4.25357
4.22052
4.18646
4.15145
4.11555
4.07885
4.04141
4.00333
3.96469
3.92559
3.88614
3.84646
3.80669
3.76696
3.72745
3.68835
3.64978
3.61212
3.57501
3.53278
0.0111541
0.0363889
0.0546296
0.0573602
0.0527395
0.0455156
0.0387982
0.0336982
0.0300822
0.0275482
0.0258047
0.0246091
0.0239411
0.0236634
0.0236268
0.0241902
0.0253567
0.0275605
0.0314087
0.0376058
0.0457283
0.055769
0.066257
0.0767091
0.0865646
0.0952947
0.104201
0.114243
0.126949
0.144681
0.168842
0.196743
0.227653
0.260671
0.294855
0.329618
0.364646
0.39977
0.434961
0.470269
0.505792
0.541664
0.578031
0.615045
0.652855
0.691607
0.731438
0.772463
0.814779
0.858462
0.903566
0.950122
0.998135
1.04758
1.09842
1.15057
1.20394
1.25843
1.3139
1.37023
1.42729
1.48494
1.54305
1.60152
1.66022
1.71908
1.778
1.83694
1.89583
1.95464
2.01334
2.07192
2.13037
2.18868
2.24687
2.30493
2.36288
2.42072
2.47846
2.53611
2.59367
2.65115
2.70855
2.76586
2.82308
2.88019
2.93718
2.99403
3.05074
3.10726
3.16357
3.21966
3.27547
3.33099
3.38618
3.44099
3.49539
3.54934
3.6028
3.65572
3.70807
3.75979
3.81085
3.86119
3.91077
3.95955
4.00747
4.05448
4.10055
4.14561
4.18963
4.23256
4.27436
4.31497
4.35435
4.39246
4.42926
4.46471
4.49877
4.5314
4.56257
4.59223
4.62036
4.64693
4.6719
4.69525
4.71694
4.73696
4.75528
4.77188
4.78675
4.79987
4.81122
4.82082
4.82862
4.83465
4.83887
4.8413
4.84193
4.84091
4.83805
4.83329
4.82675
4.81846
4.80842
4.79666
4.7832
4.76805
4.75124
4.73281
4.71277
4.69117
4.66804
4.64341
4.61732
4.58982
4.56095
4.53075
4.49927
4.46657
4.4327
4.39771
4.36167
4.32463
4.28668
4.24787
4.20828
4.168
4.12712
4.08574
4.04396
4.00192
3.95974
3.91758
3.8756
3.834
3.7929
3.75269
3.71301
3.66916
0.0115634
0.0452645
0.0640218
0.0660421
0.0597264
0.0511145
0.0439378
0.0390327
0.0358124
0.0336853
0.0326067
0.0321976
0.0321728
0.0332216
0.0349332
0.0376579
0.0413842
0.0461984
0.0518755
0.0580551
0.0649867
0.0722543
0.0796903
0.0875548
0.0962365
0.106546
0.11899
0.134974
0.156508
0.181759
0.210042
0.240268
0.271855
0.304256
0.337062
0.370078
0.403246
0.436577
0.47014
0.504042
0.538409
0.573381
0.609094
0.645687
0.683295
0.722046
0.762054
0.803415
0.846206
0.890494
0.936327
0.98373
1.03271
1.08325
1.13532
1.18884
1.24376
1.29995
1.35733
1.41575
1.47509
1.53523
1.59603
1.65737
1.71914
1.78122
1.84353
1.90598
1.9685
2.03105
2.09356
2.15602
2.21839
2.28066
2.34281
2.40485
2.46676
2.52854
2.5902
2.65173
2.71314
2.77441
2.83555
2.89654
2.95737
3.01803
3.07851
3.13878
3.19883
3.25861
3.31812
3.37731
3.43615
3.49461
3.55265
3.61022
3.66729
3.72382
3.77976
3.83507
3.88969
3.94359
3.99672
4.04903
4.10047
4.15099
4.20054
4.24908
4.29656
4.34292
4.38812
4.43211
4.47485
4.51629
4.55638
4.59509
4.63237
4.66819
4.70249
4.73526
4.76644
4.79602
4.82396
4.85023
4.87479
4.89763
4.91872
4.93804
4.95558
4.97131
4.98522
4.99731
5.00757
5.016
5.02258
5.02732
5.03021
5.03125
5.03056
5.0281
5.02365
5.01738
5.00932
4.99948
4.98789
4.97456
4.95951
4.94278
4.92439
4.90436
4.88274
4.85955
4.83482
4.8086
4.78091
4.75181
4.72132
4.6895
4.65639
4.62204
4.5865
4.54982
4.51206
4.47328
4.43354
4.39291
4.35146
4.30927
4.26644
4.22306
4.17924
4.13511
4.09079
4.04645
4.00224
3.95837
3.91494
3.87236
3.83028
3.785
0.0118853
0.0551767
0.0748575
0.0765484
0.0686561
0.0588473
0.0515594
0.047185
0.0449015
0.0436925
0.043367
0.0436634
0.0447774
0.0465014
0.0488408
0.0518034
0.055374
0.0595507
0.0643221
0.0697521
0.0760234
0.0833127
0.0920312
0.102335
0.114973
0.130973
0.150795
0.174045
0.199788
0.227546
0.256692
0.286688
0.317247
0.348169
0.379363
0.410822
0.442591
0.47475
0.507402
0.540667
0.574662
0.609497
0.645285
0.682142
0.720179
0.759497
0.80019
0.84234
0.886019
0.931286
0.978182
1.02673
1.07695
1.12882
1.18231
1.23737
1.29395
1.35195
1.41128
1.47181
1.53343
1.59601
1.65942
1.72354
1.78824
1.8534
1.91893
1.98473
2.0507
2.11679
2.18292
2.24905
2.31513
2.38113
2.44703
2.51279
2.57841
2.64388
2.70917
2.77428
2.8392
2.90392
2.96843
3.03271
3.09676
3.16054
3.22405
3.28726
3.35014
3.41266
3.4748
3.53653
3.5978
3.65858
3.71883
3.77852
3.83758
3.89599
3.9537
4.01067
4.06683
4.12216
4.1766
4.2301
4.28261
4.33409
4.38448
4.43374
4.48182
4.52867
4.57425
4.6185
4.66138
4.70284
4.74286
4.78138
4.81836
4.85376
4.88756
4.91971
4.95018
4.97896
5.006
5.03128
5.05477
5.07646
5.09632
5.11434
5.13051
5.14481
5.15724
5.16778
5.17646
5.18329
5.18822
5.19129
5.19248
5.19189
5.18958
5.18523
5.17907
5.1711
5.16135
5.14983
5.13657
5.12161
5.10495
5.08663
5.06668
5.04513
5.022
4.99734
4.97116
4.94352
4.91443
4.88394
4.85209
4.81891
4.78445
4.74875
4.71185
4.67381
4.63468
4.59449
4.55333
4.51124
4.46829
4.42457
4.38016
4.33515
4.28965
4.24377
4.19766
4.15147
4.10534
4.0595
4.01402
3.96937
3.92508
3.87868
0.0120448
0.065621
0.0870399
0.0887465
0.0793547
0.0680974
0.060162
0.0555796
0.0533417
0.0521715
0.0519233
0.0525685
0.0539712
0.0560901
0.0589451
0.0625967
0.0669824
0.0722213
0.0784418
0.085868
0.0947945
0.105567
0.118636
0.134803
0.154272
0.176028
0.200128
0.226054
0.253282
0.281476
0.310324
0.339649
0.369388
0.399516
0.430045
0.461018
0.492512
0.524619
0.55744
0.591073
0.625613
0.661159
0.697813
0.73567
0.774822
0.815351
0.857333
0.900837
0.945929
0.992657
1.04106
1.09116
1.14298
1.19649
1.2517
1.30854
1.36696
1.42689
1.48823
1.55088
1.61474
1.67967
1.74556
1.81228
1.87971
1.94772
2.0162
2.08505
2.15417
2.22347
2.29287
2.3623
2.4317
2.50103
2.57024
2.6393
2.70816
2.77682
2.84523
2.91339
2.98127
3.04885
3.11612
3.18305
3.24963
3.31584
3.38165
3.44703
3.51196
3.57641
3.64035
3.70374
3.76654
3.82873
3.89026
3.95109
4.01117
4.07047
4.12894
4.18653
4.24319
4.29889
4.35358
4.4072
4.45972
4.51107
4.56122
4.61012
4.65773
4.70399
4.74887
4.79231
4.83427
4.87472
4.91362
4.95093
4.98661
5.02062
5.05293
5.08352
5.11236
5.13942
5.16469
5.18813
5.20972
5.22946
5.24733
5.26331
5.27741
5.28961
5.29992
5.30833
5.31485