/*--------------------------------*- C++ -*----------------------------------*\
| =========                 |                                                 |
| \\      /  F ield         | OpenFOAM: The Open Source CFD Toolbox           |
|  \\    /   O peration     | Version:  2406                                  |
|   \\  /    A nd           | Website:  www.openfoam.com                      |
|    \\/     M anipulation  |                                                 |
\*---------------------------------------------------------------------------*/
FoamFile
{
    version     2.0;
    format      ascii;
    arch        "LSB;label=32;scalar=64";
    class       volScalarField;
    location    "258";
    object      omega;
}
// * * * * * * * * * * * * * * * * * * * * * * * * * * * * * * * * * * * * * //

dimensions      [0 0 -1 0 0 0 0];

internalField   nonuniform List<scalar> 
12225
(
37507.5
40327.9
42132.6
43092.7
43561
43633.4
43577.2
43436.6
43220.5
42989.4
42766.2
42548.1
42359.1
42168.8
42027.5
41859.6
41777.2
41615.5
2347.45
5048.96
6908.28
8341.87
9515
10497.9
11278.6
11943.1
12471
12937.7
13304.9
13645.9
13902.2
14156.1
14325.7
14509.5
14585.6
14722.9
591.232
1104.09
1571.04
1992.87
2350.57
2696.93
2976.22
3256.91
3470.73
3701
3864.1
4057.94
4181.85
4349.79
4442.32
4587.55
4661.31
4780.56
444.448
548.828
678.296
818.938
941.177
1071.17
1175.55
1290.16
1375.61
1475.58
1544.06
1631.39
1685.26
1762.09
1803.65
1869.9
1907.52
1964.07
433.66
457.811
485.936
535.352
580.384
633.647
677.082
727.765
766.071
812.428
844.912
886.748
913.519
951.154
972.613
1006.15
1023.69
1056.32
437.487
440.138
444.416
457.822
472.305
493.204
510.868
533.472
550.992
573.115
589.109
609.985
623.875
643.318
654.863
672.848
682.266
700.056
438.767
436.713
436.491
438.265
440.786
446.936
452.58
461.397
468.37
478.148
485.358
495.313
502.098
511.861
517.835
527.249
532.302
541.855
439.024
436.792
434.937
433.715
433.034
433.422
434.059
436.1
437.777
441.026
443.429
447.313
449.957
454.15
456.745
461.047
463.454
468.057
439.039
436.918
434.837
433.047
431.34
430.119
428.99
428.45
427.989
428.024
428.288
428.74
429.261
430.209
430.893
432.132
432.942
434.536
439.034
436.935
434.863
432.986
431.125
429.501
427.911
426.585
425.314
424.307
423.354
422.68
421.981
421.59
421.112
420.939
420.638
420.734
439.037
436.926
434.873
432.973
431.116
429.409
427.741
426.226
424.747
423.429
422.133
421.013
419.893
418.96
417.997
417.237
416.4
415.808
439.041
436.918
434.875
432.962
431.116
429.39
427.72
426.164
424.655
423.259
421.899
420.653
419.433
418.327
417.236
416.261
415.284
414.428
439.044
436.913
434.876
432.954
431.114
429.378
427.713
426.143
424.635
423.214
421.847
420.561
419.321
418.158
417.035
415.984
414.967
414.016
439.046
436.909
434.875
432.947
431.11
429.368
427.706
426.129
424.623
423.193
421.827
420.529
419.287
418.107
416.978
415.905
414.877
413.899
439.047
436.908
434.874
432.943
431.106
429.36
427.698
426.118
424.612
423.178
421.811
420.509
419.266
418.082
416.95
415.872
414.84
413.857
439.047
436.906
434.872
432.94
431.102
429.354
427.691
426.109
424.601
423.166
421.797
420.493
419.248
418.061
416.928
415.847
414.814
413.828
439.047
436.906
434.871
432.937
431.099
429.35
427.686
426.101
424.593
423.155
421.785
420.479
419.233
418.044
416.91
415.827
414.792
413.805
439.046
436.905
434.87
432.936
431.097
429.347
427.682
426.096
424.586
423.148
421.776
420.469
419.222
418.032
416.896
415.812
414.776
413.787
439.046
436.905
434.87
432.936
431.096
429.346
427.68
426.094
424.583
423.144
421.772
420.464
419.216
418.025
416.888
415.803
414.767
413.778
439.047
436.906
434.871
432.936
431.097
429.347
427.681
426.096
424.585
423.146
421.774
420.465
419.217
418.026
416.89
415.805
414.769
413.779
439.047
436.906
434.872
432.938
431.099
429.349
427.685
426.099
424.59
423.15
421.78
420.471
419.225
418.035
416.9
415.816
414.782
413.793
439.048
436.905
434.874
432.939
431.104
429.352
427.692
426.106
424.602
423.165
421.803
420.5
419.267
418.086
416.971
415.9
414.891
413.921
439.049
436.904
434.879
432.937
431.113
429.363
427.73
426.166
424.714
423.329
422.052
420.834
419.722
418.656
417.696
416.764
415.946
415.127
439.045
436.9
434.892
432.965
431.236
429.631
428.281
427.023
426.045
425.157
424.518
423.955
423.594
423.302
423.153
423.081
423.124
423.111
438.978
436.905
435.27
433.829
433.215
433.334
433.856
434.793
436.598
438.325
440.768
442.947
445.758
448.135
451.137
453.528
456.62
458.893
438.606
438.359
441.437
444.379
451.444
459.833
470.501
480.544
492.192
502.551
514.204
524.166
535.363
544.58
555.15
563.459
573.389
580.715
443.79
455.742
486.632
522.532
563.897
602.65
643.919
680.075
718.321
750.512
785.158
813.246
844.384
868.624
896.618
917.392
942.699
960.399
488.599
640.878
825.937
987.618
1142.72
1278.71
1411.93
1524.59
1638.25
1730.92
1828.44
1904.41
1988.79
2051.15
2125.03
2176.46
2242.04
2284.88
1284
2437.66
3298.15
3976.81
4582.92
5099.35
5559.25
5938.07
6284.55
6566.33
6835.67
7049.29
7266.74
7430.48
7612.26
7738.62
7896.73
7995.51
23112.4
24600.3
25738
26549.7
27107.4
27466.7
27692.6
27811.2
27871.4
27869.3
27848.4
27811.4
27755.2
27692.2
27626.3
27559.2
27493
27428.2
11463.3
2514.64
2517.41
2520.46
2523.54
2526.46
2529.6
2533.57
2538.61
2545.06
2552.33
2559.69
2566.89
2573.48
2579.38
2584.33
2588.1
2590.91
2593.02
2594.47
2594.03
2591.53
2587
2581.24
2576.31
2574.39
2575.57
2578.18
2581
2583.88
2586.84
2589.85
2592.83
2595.8
2598.95
2602.83
2608.03
2613.68
2618.2
2621.58
2624.48
2626.97
2630.07
2634.7
2642.31
2647.66
2654.6
2663.09
2692.38
2833.01
3027.92
3201.83
3350.7
3479.33
3591.02
3689.88
3777.93
3857.9
3930.91
3998.83
4062.3
4123.12
4181.6
4236.77
4289.19
4339.37
4387.63
4434.35
4479.73
4523.98
4567.3
4609.83
4651.66
4692.91
4733.63
4773.88
4813.69
4853.12
4892.16
4930.86
4969.19
5007.18
5044.8
5082.07
5118.95
5155.45
5191.53
5227.17
5262.35
5297.06
5331.25
5364.92
5398.06
5430.68
5462.81
5494.51
5525.92
5557.21
5588.23
5618.65
5648.72
5678.28
5707.41
5736.04
5764.19
5791.81
5818.9
5845.42
5871.38
5896.75
5921.5
5945.62
5969.09
5991.89
6014.01
6035.41
6056.09
6076.03
6095.21
6113.6
6131.2
6147.98
6163.93
6179.04
6193.28
6206.66
6219.16
6230.78
6241.53
6251.46
6259.8
6268.44
6273.49
6279.57
6283.63
6287.5
6290.05
6291.71
6292.27
6291.84
6290.37
6287.82
6284.17
6279.54
6273.84
6267.31
6259.71
6251.21
6241.76
6231.41
6220.19
6208.14
6195.29
6181.63
6167.19
6151.93
6135.99
6119.42
6102.28
6084.62
6066.51
6047.98
6029.1
6009.93
5990.5
5970.88
5951.16
5931.37
5911.64
5892.52
5882.78
5889.77
5898.21
5906.25
5913.1
5917.87
5918.7
5911.7
5896.61
5716.49
11463.5
2026.54
1076.5
917.216
812.406
694.801
713.09
748.95
745.697
734.248
707.698
677.402
648.83
622.997
604.728
589.73
587.174
604.333
653.291
751.061
874.804
1010.91
1143.33
1252.9
1321.32
1312.44
1254.58
1116.63
918.154
754.686
682.78
639.938
533.597
472.88
444.042
434.771
436.02
446.961
460.129
484.027
510.453
541.622
690.674
900.298
1498.84
2002.27
2334.01
2417.19
2501.39
2525.66
2528.31
2421.94
2348.37
2240.27
2154.48
2063.36
1990.26
1922.18
1868.32
1821.95
1786.07
1757.15
1735.54
1719.17
1707.71
1700.08
1696.42
1693.78
1692.9
1693.96
1696.88
1700.44
1705.03
1710.1
1715.74
1721.7
1727.98
1734.44
1741.06
1747.76
1754.51
1761.28
1768.02
1774.71
1781.33
1787.87
1794.29
1800.59
1806.76
1812.81
1818.74
1824.58
1830.39
1836.24
1842.26
1848.66
1855.72
1863.84
1872.49
1880.71
1888.97
1897.02
1904.97
1912.77
1920.43
1927.94
1935.3
1942.5
1949.55
1956.43
1963.15
1969.69
1976.06
1982.25
1988.26
1994.08
1999.7
2005.13
2010.37
2015.4
2020.22
2024.83
2029.23
2033.42
2037.38
2041.12
2044.64
2047.92
2050.97
2053.77
2056.28
2058.59
2060.51
2062.33
2063.85
2065.18
2066.22
2067.03
2067.59
2067.94
2068.05
2067.79
2067.27
2066.5
2065.48
2064.23
2062.72
2060.98
2059
2056.8
2054.38
2051.74
2048.79
2045.7
2042.33
2038.78
2035.01
2031.06
2026.94
2022.65
2018.21
2013.63
2008.92
2004.09
1999.17
1994.15
1989.05
1983.91
1978.76
1973.8
1970.27
1969.47
1969.41
1969.58
1969.88
1970.45
1971.29
1973.42
1976.67
1985.78
11463.6
2055.16
846.962
681.759
739.788
851.595
843.522
802.309
741.112
671.574
603.878
543.328
491.895
449.9
417.116
392.231
375.683
365.045
365.925
376.543
396.839
438.835
502.253
579.103
670.213
745.582
807.553
804.215
771.404
691.991
584.107
484.12
407.539
364.49
347.735
350.704
361.546
384.203
402.707
534.47
672.892
1247.58
1602.67
1770.84
1894.02
1989.21
1997.67
1880.64
1799.85
1652.63
1548.65
1458.77
1382.71
1313.46
1261.43
1215.9
1182.72
1155.35
1135.56
1120.15
1109.27
1101.38
1096.34
1093.12
1091.93
1091.35
1091.8
1093.36
1095.43
1098.12
1101.22
1104.61
1108.27
1112.1
1116.09
1120.19
1124.38
1128.62
1132.89
1137.19
1141.49
1145.79
1150.07
1154.34
1158.57
1162.78
1166.96
1171.11
1175.25
1179.37
1183.51
1187.66
1191.87
1196.16
1200.57
1205.13
1209.85
1214.69
1219.47
1224.15
1228.78
1233.31
1237.77
1242.15
1246.44
1250.64
1254.75
1258.77
1262.7
1266.52
1270.25
1273.88
1277.4
1280.81
1284.12
1287.31
1290.39
1293.36
1296.2
1298.93
1301.53
1304
1306.35
1308.57
1310.65
1312.61
1314.42
1316.1
1317.63
1319.01
1320.25
1321.33
1322.26
1323.07
1323.72
1324.24
1324.59
1324.79
1324.84
1324.78
1324.57
1324.09
1323.52
1322.8
1321.93
1320.91
1319.75
1318.43
1316.97
1315.37
1313.63
1311.75
1309.72
1307.57
1305.28
1302.87
1300.34
1297.68
1294.92
1292.06
1289.1
1286.05
1282.92
1279.7
1276.42
1273.08
1269.69
1266.27
1262.83
1259.46
1256.49
1254.33
1252.59
1251.09
1249.82
1248.94
1248.66
1249.67
1252.99
1266.22
11463.6
2064.43
1046.63
1098.45
1091.88
1019.87
894.736
767.919
648.719
541.264
457.225
394.991
350.053
318.033
295.61
280.166
270.592
264.492
264.543
267.34
273.503
286.901
310.898
345.216
395.571
454.034
517.987
570.25
588.54
577.404
544.425
485.128
430.258
404.245
420.203
479.718
575.87
700.969
1026.73
1343.41
1540.88
1609
1667.63
1680.98
1653.87
1493.97
1370.72
1289.93
1203.82
1129.45
1074.29
1024.59
985.844
953.556
929.457
910.272
896.457
886.059
878.882
873.906
871.151
869.623
869.219
869.51
870.727
872.42
874.579
877.132
879.946
883.001
886.224
889.584
893.053
896.603
900.218
903.878
907.573
911.29
915.021
918.759
922.497
926.233
929.961
933.681
937.391
941.092
944.785
948.474
952.162
955.854
959.557
963.279
967.025
970.803
974.612
978.449
982.299
986.122
989.888
993.589
997.234
1000.81
1004.33
1007.77
1011.15
1014.45
1017.68
1020.83
1023.9
1026.89
1029.79
1032.61
1035.35
1037.99
1040.54
1042.99
1045.35
1047.6
1049.76
1051.81
1053.75
1055.59
1057.31
1058.92
1060.42
1061.8
1063.06
1064.2
1065.21
1066.1
1066.85
1067.48
1067.98
1068.36
1068.61
1068.73
1068.71
1068.56
1068.28
1067.87
1067.33
1066.62
1065.8
1064.85
1063.77
1062.56
1061.22
1059.75
1058.16
1056.45
1054.62
1052.67
1050.6
1048.42
1046.13
1043.74
1041.24
1038.65
1035.97
1033.2
1030.35
1027.42
1024.43
1021.36
1018.24
1015.08
1011.87
1008.65
1005.4
1002.19
999.136
996.417
993.956
991.7
989.667
987.979
986.823
986.871
988.72
997.154
11463.7
2309.92
1653.68
1437.91
1197.15
961.871
744.215
568.215
440.238
363.145
313.4
279.361
255.221
237.812
225.33
216.734
211.43
209.098
209.711
212.356
217.339
225.745
238.823
257.511
285.454
322.819
369.573
419.821
461.741
481.426
476.373
460.838
464.437
507.209
655.992
927.218
1203.76
1351.22
1427.64
1477.49
1490.76
1499.33
1407.56
1276.81
1160.21
1081.84
1013.63
962.818
913.514
875.723
844.751
818.939
799.058
783.506
772.127
763.828
758.211
754.759
752.963
752.388
752.586
753.715
755.421
757.583
760.138
762.97
766.028
769.268
772.641
776.122
779.684
783.309
786.984
790.694
794.432
798.188
801.957
805.734
809.514
813.294
817.071
820.844
824.611
828.372
832.125
835.873
839.614
843.35
847.083
850.814
854.544
858.273
862.001
865.725
869.438
873.131
876.793
880.411
883.975
887.483
890.934
894.324
897.652
900.914
904.109
907.233
910.284
913.26
916.158
918.975
921.71
924.359
926.922
929.394
931.773
934.056
936.241
938.324
940.305
942.179
943.945
945.601
947.142
948.569
949.877
951.065
952.129
953.069
953.881
954.563
955.114
955.532
955.817
955.972
955.998
955.9
955.65
955.263
954.738
954.08
953.281
952.34
951.269
950.068
948.731
947.262
945.663
943.935
942.083
940.108
938.014
935.803
933.477
931.042
928.5
925.857
923.116
920.283
917.364
914.362
911.285
908.139
904.933
901.675
898.368
895.02
891.642
888.242
884.825
881.42
878.094
874.936
871.948
869.127
866.505
864.178
862.293
861.326
861.897
866.284
11463.5
3183.26
2058.92
1493.17
1053.06
712.025
501.715
387.705
323.287
281.925
252.785
231.241
214.985
202.652
193.437
186.886
182.746
181.055
181.469
183.799
188.263
195.486
205.8
219.948
239.894
267.183
303.256
346.083
387.972
425.819
467.853
513.245
657.734
919.771
1167.45
1316.54
1346.94
1371.16
1376.93
1343.41
1249.37
1133.03
1031.49
962.828
901.285
857.58
817.912
786.605
758.808
737.169
719.548
705.692
695.335
687.826
682.762
679.855
678.586
678.348
679.162
680.798
683.014
685.727
688.793
692.132
695.682
699.386
703.208
707.118
711.093
715.114
719.169
723.248
727.344
731.45
735.562
739.675
743.788
747.899
752.004
756.103
760.195
764.279
768.354
772.42
776.476
780.522
784.559
788.585
792.6
796.603
800.594
804.569
808.526
812.46
816.363
820.227
824.049
827.822
831.54
835.202
838.805
842.345
845.82
849.227
852.563
855.825
859.01
862.114
865.135
868.069
870.915
873.668
876.327
878.889
881.351
883.707
885.957
888.095
890.121
892.03
893.82
895.488
897.031
898.447
899.732
900.885
901.902
902.78
903.518
904.113
904.564
904.867
905.015
905.037
904.915
904.635
904.2
903.613
902.873
901.983
900.942
899.752
898.416
896.935
895.307
893.536
891.624
889.574
887.39
885.074
882.631
880.064
877.378
874.576
871.664
868.646
865.529
862.317
859.018
855.636
852.178
848.652
845.065
841.425
837.739
834.013
830.263
826.495
822.724
818.966
815.254
811.641
808.149
804.794
801.614
798.685
796.122
794.227
793.542
795.199
11464.8
3891.21
2134.31
1254.74
744.622
510.271
394.139
327.418
283.05
250.907
226.548
207.906
193.731
182.923
174.977
169.59
166.459
165.524
166.277
168.877
173.609
180.54
190.383
204.213
223.55
250.408
287.049
335.32
392.804
456.12
558.793
770.28
1052.62
1233.19
1277.26
1290.94
1292.9
1239.17
1135.23
1035.61
950.576
884.426
829.824
790.017
754.485
726.813
702.407
682.632
666.118
653.223
643.193
635.791
630.698
627.735
626.487
626.306
627.305
629.189
631.786
634.939
638.51
642.405
646.538
650.847
655.284
659.81
664.398
669.025
673.678
678.344
683.014
687.685
692.351
697.01
701.659
706.299
710.926
715.542
720.144
724.734
729.31
733.873
738.422
742.957
747.476
751.981
756.468
760.938
765.388
769.817
774.223
778.602
782.951
787.266
791.542
795.777
799.963
804.094
808.168
812.18
816.127
820.006
823.814
827.546
831.2
834.772
838.257
841.653
844.955
848.16
851.265
854.265
857.154
859.927
862.584
865.123
867.541
869.833
871.997
874.03
875.928
877.688
879.307
880.782
882.111
883.289
884.315
885.186
885.899
886.451
886.841
887.058
887.119
887.031
886.77
886.338
885.735
884.962
884.018
882.904
881.61
880.142
878.508
876.71
874.75
872.63
870.354
867.926
865.349
862.628
859.769
856.774
853.65
850.403
847.037
843.559
839.976
836.295
832.521
828.663
824.727
820.721
816.653
812.531
808.364
804.158
799.932
795.689
791.441
787.2
782.993
778.854
774.808
770.879
767.104
763.546
760.293
757.56
755.655
755.432
11476.6
4077.83
1825.79
912.12
556.64
406.728
329.364
281.543
248.449
223.687
204.517
189.608
178.196
169.925
164.179
160.43
158.542
158.619
160.446
164.463
170.774
179.604
191.164
206.289
227.301
257.487
300.371
361.08
450.473
597
858.199
1071.61
1196.18
1217.41
1227.97
1170.96
1065.71
966.893
892.993
831.074
782.454
743.517
711.231
685.317
662.725
644.231
628.555
615.909
605.855
598.27
592.823
589.36
587.736
587.348
588.134
589.95
592.626
595.989
599.899
604.239
608.905
613.819
618.913
624.136
629.446
634.813
640.213
645.628
651.045
656.454
661.85
667.229
672.588
677.928
683.246
688.543
693.819
699.073
704.305
709.517
714.709
719.879
725.028
730.156
735.261
740.344
745.402
750.433
755.435
760.407
765.344
770.244
775.104
779.92
784.692
789.411
794.071
798.666
803.193
807.648
812.026
816.326
820.541
824.67
828.706
832.648
836.489
840.227
843.858
847.376
850.779
854.061
857.22
860.251
863.151
865.915
868.54
871.021
873.356
875.54
877.57
879.443
881.154
882.701
884.079
885.288
886.322
887.179
887.858
888.354
888.658
888.776
888.724
888.483
888.05
887.426
886.61
885.602
884.403
883.013
881.434
879.669
877.719
875.588
873.278
870.793
868.135
865.311
862.324
859.181
855.885
852.444
848.863
845.149
841.308
837.349
833.277
829.101
824.829
820.468
816.027
811.513
806.936
802.304
797.626
792.91
788.146
783.352
778.55
773.756
768.991
764.279
759.645
755.116
750.724
746.522
742.578
739.041
736.086
734.225
11506.4
3809.99
1410.17
707.09
475.045
370.555
310.15
268.974
239.324
216.29
198.181
184.229
173.819
166.291
161.282
158.741
158.219
159.2
161.562
165.957
173.089
183.544
198.616
219.975
249.83
294.126
365.605
482.748
678.535
911.729
1060.64
1123.53
1148.36
1122.97
1020.79
922.213
853.112
792.271
748.655
710.985
680.944
655.736
634.422
616.566
601.328
588.787
578.557
570.557
564.572
560.432
558.137
557.312
557.573
559.021
561.451
564.718
568.689
573.236
578.248
583.628
589.294
595.174
601.211
607.357
613.575
619.837
626.119
632.405
638.68
644.935
651.164
657.364
663.532
669.669
675.777
681.853
687.896
693.908
699.889
705.839
711.759
717.649
723.509
729.337
735.132
740.888
746.61
752.297
757.947
763.557
769.124
774.644
780.114
785.528
790.881
796.168
801.383
806.522
811.58
816.554
821.439
826.232
830.927
835.52
840.006
844.382
848.642
852.781
856.796
860.682
864.433
868.046
871.515
874.838
878.008
881.022
883.876
886.564
889.084
891.431
893.6
895.588
897.391
899.006
900.428
901.655
902.684
903.511
904.134
904.548
904.74
904.738
904.524
904.097
903.454
902.595
901.521
900.23
898.725
897.007
895.077
892.938
890.594
888.047
885.301
882.361
879.231
875.917
872.425
868.761
864.932
860.944
856.805
852.524
848.107
843.563
838.901
834.13
829.257
824.293
819.247
814.127
808.943
803.706
798.423
793.105
787.764
782.407
777.045
771.694
766.369
761.093
755.888
750.779
745.796
740.983
736.392
732.133
728.287
725.045
11543.9
3212.42
1078.64
585.515
418.284
339.24
293.376
260.864
234.279
212.634
195.511
182.549
173.297
167.301
164.076
163.158
164.071
167.807
173.756
182.155
193.059
206.988
226.87
258.945
313.516
404.614
560.342
747.221
912.84
1001.02
1050.58
1057.88
994.395
897.641
823.063
765.469
723.325
687.036
659.103
634.576
614.138
596.611
581.657
569.074
558.598
550.15
543.566
538.734
535.55
534.017
533.678
534.512
536.421
539.305
543.035
547.496
552.58
558.184
564.216
570.594
577.247
584.107
591.12
598.24
605.43
612.661
619.917
627.172
634.411
641.623
648.8
655.937
663.027
670.058
677.035
683.972
690.872
697.734
704.558
711.344
718.092
724.803
731.475
738.109
744.703
751.26
757.771
764.232
770.639
776.991
783.282
789.509
795.668
801.751
807.755
813.677
819.512
825.255
830.901
836.447
841.888
847.219
852.434
857.529
862.499
867.339
872.043
876.607
881.024
885.291
889.402
893.353
897.137
900.75
904.187
907.444
910.516
913.397
916.084
918.571
920.856
922.932
924.796
926.445
927.874
929.08
930.06
930.811
931.331
931.607
931.65
931.458
931.026
930.354
929.439
928.282
926.883
925.242
923.362
921.244
918.89
916.304
913.49
910.451
907.194
903.722
900.043
896.162
892.088
887.826
883.386
878.775
874.002
869.076
864.008
858.805
853.478
848.037
842.493
836.854
831.132
825.337
819.479
813.569
807.617
801.633
795.63
789.616
783.605
777.608
771.642
765.725
759.878
754.124
748.49
743.015
737.737
732.74
728.068
723.713
11573.9
2584.16
926.121
547.826
407.084
337.808
295.046
263.788
238.13
217.262
201.104
189.221
180.928
176.246
174.002
173.263
175.93
181.859
190.575
203.089
221.849
252.223
300.933
380.738
504.619
647.903
781.236
884.601
943.153
966.463
957.778
876.99
802.955
746.561
703.104
669.507
642.571
619.162
599.679
582.503
567.787
555.152
544.455
535.588
528.435
522.916
518.932
516.498
515.507
515.564
516.801
519.088
522.333
526.444
531.324
536.877
543.013
549.646
556.695
564.091
571.776
579.677
587.739
595.917
604.17
612.456
620.722
628.981
637.234
645.468
653.671
661.836
669.96
678.046
686.094
694.095
702.042
709.931
717.764
725.54
733.259
740.919
748.522
756.065
763.546
770.964
778.317
785.603
792.818
799.959
807.021
814.001
820.892
827.691
834.393
840.992
847.485
853.866
860.131
866.274
872.29
878.174
883.921
889.524
894.98
900.281
905.423
910.399
915.205
919.835
924.282
928.542
932.61
936.479
940.145
943.603
946.847
949.872
952.674
955.248
957.589
959.692
961.554
963.171
964.538
965.651
966.51
967.108
967.444
967.514
967.317
966.853
966.119
965.117
963.845
962.302
960.49
958.411
956.066
953.458
950.59
947.467
944.093
940.474
936.616
932.525
928.208
923.674
918.931
913.987
908.852
903.535
898.047
892.398
886.599
880.661
874.595
868.412
862.123
855.741
849.275
842.738
836.142
829.496
822.814
816.106
809.384
802.659
795.944
789.251
782.594
775.992
769.464
763.029
756.715
750.551
744.569
738.835
733.36
727.975
11591.5
2090.57
801.21
509.07
399.872
346.296
310.377
280.824
255.724
235.482
220.321
209.931
203.928
201.379
202.196
206.491
215.422
229.158
249.774
280.821
328.569
401.564
493.054
597.265
695.373
779.775
837.248
871.8
883.046
841.44
782.824
729.618
687.735
655.7
629.579
607.968
589.348
572.871
558.57
546.015
535.208
526.04
518.44
512.345
507.692
504.42
502.592
502
502.504
504.093
506.713
510.284
514.737
520.009
526.013
532.66
539.874
547.578
555.697
564.145
572.821
581.729
590.834
600.094
609.465
618.912
628.421
637.954
647.494
657.012
666.487
675.91
685.273
694.571
703.797
712.944
722.015
731.01
739.927
748.767
757.528
766.209
774.81
783.329
791.765
800.114
808.375
816.545
824.621
832.598
840.473
848.241
855.897
863.436
870.853
878.143
885.3
892.32
899.198
905.927
912.503
918.919
925.17
931.251
937.154
942.875
948.407
953.745
958.882
963.814
968.532
973.034
977.312
981.361
985.175
988.75
992.079
995.159
997.983
1000.55
1002.85
1004.88
1006.63
1008.11
1009.31
1010.22
1010.85
1011.19
1011.23
1010.98
1010.43
1009.58
1008.43
1006.98
1005.24
1003.2
1000.86
998.229
995.308
992.1
988.609
984.84
980.8
976.496
971.934
967.122
962.07
956.785
951.279
945.56
939.641
933.531
927.243
920.789
914.18
907.429
900.548
893.55
886.448
879.254
871.98
864.639
857.243
849.805
842.337
834.851
827.36
819.874
812.408
804.973
797.585
790.259
783.013
775.866
768.842
761.968
755.266
748.793
742.544
736.222
11600.7
1957.78
787.345
514.804
417.319
369.658
337.399
311.24
289.572
272.672
260.538
254.336
252.24
254.406
263.093
278.734
302.67
336.783
382.31
439.45
505.511
572.818
640.181
699.558
744.978
781.191
798.482
791.886
748.181
708.837
672.891
643.389
619.469
599.551
582.156
566.841
553.184
541.02
530.359
521.115
513.284
506.826
501.699
497.862
495.29
494.054
493.896
494.891
496.919
499.928
503.869
508.682
514.296
520.599
527.567
535.186
543.402
552.149
561.365
570.989
580.978
591.247
601.742
612.427
623.24
634.136
645.08
656.034
666.959
677.841
688.669
699.43
710.114
720.714
731.22
741.629
751.937
762.142
772.242
782.237
792.125
801.903
811.571
821.127
830.569
839.894
849.1
858.183
867.14
875.968
884.661
893.215
901.625
909.887
917.995
925.943
933.726
941.34
948.777
956.033
963.103
969.979
976.656
983.129
989.39
995.435
1001.26
1006.85
1012.21
1017.33
1022.2
1026.82
1031.18
1035.28
1039.11
1042.66
1045.94
1048.93
1051.63
1054.04
1056.15
1057.96
1059.46
1060.65
1061.53
1062.09
1062.33
1062.25
1061.86
1061.12
1060.06
1058.68
1056.97
1054.93
1052.57
1049.89
1046.89
1043.56
1039.93
1035.99
1031.74
1027.2
1022.37
1017.26
1011.88
1006.23
1000.33
994.193
987.821
981.229
974.429
967.435
960.26
952.915
945.416
937.776
930.007
922.125
914.143
906.074
897.931
889.729
881.481
873.199
864.896
856.586
848.281
839.994
831.737
823.524
815.369
807.287
799.294
791.41
783.655
776.052
768.619
761.406
754.401
747.214
11605.9
1886.96
775.217
530.451
444.234
403.405
377.625
358.731
345.057
338.078
335.652
337.266
345.887
360.01
380.377
406.737
438.944
476.285
517.421
560.22
601.868
639.716
672.744
702.253
721.378
726.302
701.28
679.728
652.412
630.624
610.296
592.89
577.503
563.694
551.166
539.884
529.791
520.888
513.209
506.763
501.596
497.637
494.794
493.092
492.467
492.83
494.129
496.283
499.413
503.515
508.557
514.497
521.289
528.907
537.289
546.352
556.031
566.266
577.01
588.196
599.751
611.595
623.661
635.876
648.208
660.62
673.076
685.537
697.971
710.354
722.667
734.893
747.018
759.032
770.925
782.689
794.32
805.812
817.163
828.371
839.432
850.344
861.106
871.715
882.169
892.465
902.6
912.571
922.375
932.007
941.464
950.741
959.832
968.735
977.442
985.949
994.25
1002.34
1010.21
1017.87
1025.29
1032.48
1039.43
1046.14
1052.6
1058.8
1064.74
1070.41
1075.8
1080.92
1085.75
1090.29
1094.54
1098.49
1102.13
1105.46
1108.47
1111.17
1113.54
1115.59
1117.3
1118.68
1119.71
1120.4
1120.76
1120.75
1120.42
1119.72
1118.67
1117.26
1115.51
1113.4
1110.94
1108.13
1104.97
1101.47
1097.63
1093.45
1088.94
1084.11
1078.95
1073.49
1067.73
1061.68
1055.34
1048.74
1041.87
1034.76
1027.41
1019.84
1012.06
1004.09
995.941
987.624
979.156
970.553
961.828
952.998
944.075
935.075
926.012
916.9
907.753
898.585
889.409
880.238
871.086
861.966
852.89
843.871
834.924
826.064
817.306
808.667
800.165
791.824
783.655
775.703
767.955
759.961
11609.6
1852.11
782.293
554.805
478.036
443.312
423.702
413.698
408.47
407.656
412.576
421.952
435.351
452.206
472.145
494.489
518.533
543.342
567.871
591.601
614.808
637.146
653.059
658.437
650.812
639.067
625.532
612.867
598.723
586.422
574.35
563.244
552.98
543.657
535.243
527.615
520.82
514.909
509.909
505.792
502.424
499.917
498.513
498.176
498.909
500.689
503.518
507.409
512.29
518.135
524.915
532.6
541.15
550.531
560.708
571.574
583.045
595.051
607.509
620.363
633.565
647.055
660.771
674.653
688.653
702.725
716.83
730.928
744.984
758.969
772.857
786.628
800.265
813.752
827.077
840.23
853.204
865.992
878.588
890.99
903.194
915.197
926.995
938.587
949.97
961.141
972.098
982.837
993.356
1003.65
1013.72
1023.55
1033.15
1042.51
1051.62
1060.48
1069.08
1077.43
1085.51
1093.32
1100.86
1108.11
1115.09
1121.77
1128.15
1134.23
1140.01
1145.48
1150.63
1155.46
1159.97
1164.14
1167.99
1171.49
1174.65
1177.47
1179.93
1182.04
1183.8
1185.19
1186.21
1186.88
1187.17
1187.08
1186.66
1185.82
1184.62
1183.05
1181.09
1178.77
1176.07
1173
1169.55
1165.74
1161.57
1157.04
1152.16
1146.93
1141.35
1135.45
1129.21
1122.67
1115.81
1108.67
1101.24
1093.54
1085.58
1077.37
1068.94
1060.29
1051.43
1042.39
1033.18
1023.81
1014.31
1004.67
994.933
985.099
975.187
965.211
955.187
945.128
935.051
924.967
914.892
904.838
894.819
884.847
874.936
865.099
855.349
845.7
836.168
826.769
817.518
808.436
799.532
790.848
782.374
773.627
11612.3
1819.8
795.123
582.619
512.781
481.865
465.002
457.417
454.312
454.172
459.72
467.526
477.874
489.991
503.631
518.338
533.78
549.544
565.224
579.877
591.211
597.103
598.709
599.127
597.839
594.745
590.298
584.928
578.46
571.795
564.821
557.891
551.074
544.321
537.781
531.945
526.939
522.831
519.66
517.456
516.335
516.258
517.256
519.306
522.407
526.559
531.77
538.024
545.257
553.423
562.498
572.488
583.3
594.858
607.07
619.903
633.305
647.216
661.571
676.31
691.374
706.706
722.246
737.937
753.726
769.562
785.401
801.201
816.924
832.536
848.007
863.312
878.43
893.343
908.035
922.493
936.709
950.672
964.377
977.818
990.992
1003.89
1016.52
1028.87
1040.95
1052.74
1064.24
1075.47
1086.4
1097.04
1107.39
1117.45
1127.2
1136.65
1145.79
1154.63
1163.15
1171.35
1179.24
1186.79
1194.02
1200.92
1207.48
1213.7
1219.58
1225.11
1230.28
1235.11
1239.57
1243.68
1247.41
1250.78
1253.78
1256.41
1258.65
1260.52
1261.99
1263.11
1263.83
1264.14
1264.07
1263.65
1262.79
1261.54
1259.92
1257.89
1255.47
1252.66
1249.46
1245.87
1241.9
1237.55
1232.82
1227.71
1222.24
1216.4
1210.21
1203.67
1196.79
1189.57
1182.04
1174.2
1166.06
1157.63
1148.93
1139.97
1130.76
1121.32
1111.66
1101.81
1091.76
1081.55
1071.18
1060.68
1050.05
1039.32
1028.5
1017.6
1006.65
995.655
984.631
973.592
962.554
951.531
940.535
929.58
918.679
907.844
897.088
886.425
875.866
865.426
855.117
844.956
834.956
825.137
815.503
806.097
796.911
787.464
11612.1
1816.97
810.86
604.091
536.128
505.457
487.061
477.223
471.59
470.461
473.034
479.409
488.215
499.212
511.41
524.486
537.916
551.111
563.284
574.009
582.946
589.689
594.602
597.293
598.179
597.227
594.778
591.334
587.041
582.422
577.608
572.87
568.385
564.374
561.045
558.45
556.687
555.832
555.918
556.989
559.171
562.431
566.726
572.025
578.314
585.597
593.932
603.238
613.434
624.46
636.26
648.737
661.892
675.694
690.091
705.039
720.486
736.379
752.658
769.266
786.144
803.236
820.481
837.825
855.213
872.594
889.921
907.148
924.237
941.149
957.854
974.323
990.532
1006.46
1022.09
1037.41
1052.4
1067.06
1081.37
1095.35
1108.96
1122.23
1135.14
1147.69
1159.87
1171.7
1183.17
1194.27
1205.01
1215.39
1225.4
1235.04
1244.32
1253.23
1261.77
1269.93
1277.73
1285.14
1292.19
1298.85
1305.14
1311.04
1316.56
1321.69
1326.44
1330.79
1334.75
1338.33
1341.52
1344.3
1346.68
1348.66
1350.26
1351.47
1352.25
1352.63
1352.59
1352.22
1351.4
1350.16
1348.53
1346.51
1344.07
1341.24
1338
1334.37
1330.35
1325.93
1321.12
1315.92
1310.34
1304.39
1298.07
1291.37
1284.32
1276.92
1269.18
1261.1
1252.7
1243.98
1234.96
1225.65
1216.07
1206.21
1196.11
1185.77
1175.21
1164.44
1153.48
1142.35
1131.06
1119.62
1108.06
1096.39
1084.62
1072.78
1060.87
1048.91
1036.92
1024.92
1012.9
1000.9
988.928
976.989
965.101
953.275
941.524
929.859
918.293
906.837
895.503
884.304
873.253
862.363
851.647
841.123
830.794
820.703
810.838
800.764
11611.6
1823.23
821.248
614.132
544.829
513.689
495.024
485.883
482.028
481.797
487.344
496.148
507.189
519.693
533.172
547.106
560.937
574.218
586.692
597.979
607.568
615.322
621.381
625.705
628.657
630.314
630.857
630.665
629.848
628.745
627.593
626.606
626.027
626.02
626.773
628.301
630.637
633.823
637.888
642.873
648.857
655.962
664.024
672.97
682.757
693.346
704.636
716.648
729.385
742.82
756.91
771.602
786.861
802.65
818.925
835.64
852.748
870.197
887.934
905.903
924.05
942.318
960.653
979
997.308
1015.53
1033.61
1051.51
1069.19
1086.61
1103.74
1120.56
1137.03
1153.13
1168.86
1184.19
1199.1
1213.6
1227.68
1241.32
1254.53
1267.31
1279.65
1291.55
1303.01
1314.04
1324.63
1334.79
1344.52
1353.82
1362.69