/*--------------------------------*- C++ -*----------------------------------*\
| =========                 |                                                 |
| \\      /  F ield         | OpenFOAM: The Open Source CFD Toolbox           |
|  \\    /   O peration     | Version:  2406                                  |
|   \\  /    A nd           | Website:  www.openfoam.com                      |
|    \\/     M anipulation  |                                                 |
\*---------------------------------------------------------------------------*/
FoamFile
{
    version     2.0;
    format      ascii;
    arch        "LSB;label=32;scalar=64";
    class       volVectorField;
    location    "258";
    object      U;
}
// * * * * * * * * * * * * * * * * * * * * * * * * * * * * * * * * * * * * * //

dimensions      [0 1 -1 0 0 0 0];

internalField   nonuniform List<vector> 
12225
(
(9.83266 -0.996532 0)
(9.58029 -0.929434 0)
(9.30189 -0.618426 0)
(8.99838 -0.379291 0)
(8.70563 -0.226002 0)
(8.44001 -0.132808 0)
(8.20315 -0.0766915 0)
(7.99344 -0.0428474 0)
(7.80882 -0.0224033 0)
(7.64706 -0.0100327 0)
(7.50534 -0.00266527 0)
(7.3814 0.00159725 0)
(7.27304 0.0038263 0)
(7.17897 0.00474296 0)
(7.09795 0.00468052 0)
(7.0303 0.00326863 0)
(6.9756 0.00330815 0)
(6.93623 -0.0144895 0)
(10.0784 0.269016 0)
(10.1891 0.430085 0)
(10.2263 0.384349 0)
(10.222 0.303024 0)
(10.2025 0.235286 0)
(10.1729 0.185108 0)
(10.1322 0.148663 0)
(10.0818 0.122419 0)
(10.025 0.103302 0)
(9.96445 0.0890282 0)
(9.90244 0.0780214 0)
(9.84011 0.0692466 0)
(9.77882 0.0619947 0)
(9.71915 0.0557143 0)
(9.66219 0.0498728 0)
(9.60765 0.0440503 0)
(9.55823 0.0365873 0)
(9.50668 0.0277363 0)
(10.0053 0.0601609 0)
(10.0353 0.0501232 0)
(10.0697 0.0172864 0)
(10.0979 0.0117532 0)
(10.1216 0.0216092 0)
(10.1413 0.0323935 0)
(10.1553 0.0405715 0)
(10.1634 0.0462566 0)
(10.1666 0.0500334 0)
(10.1661 0.0522186 0)
(10.1625 0.0531704 0)
(10.1564 0.0531562 0)
(10.1485 0.0523706 0)
(10.1392 0.0508658 0)
(10.129 0.0485968 0)
(10.1182 0.0451086 0)
(10.1074 0.0402442 0)
(10.0934 0.0309254 0)
(9.99744 0.0101242 0)
(10.0108 0.0266293 0)
(10.0382 0.0392041 0)
(10.0608 0.0530446 0)
(10.0785 0.0632539 0)
(10.0945 0.0679838 0)
(10.1085 0.0691247 0)
(10.1202 0.0686836 0)
(10.1299 0.0674727 0)
(10.138 0.0658286 0)
(10.1447 0.0638524 0)
(10.1504 0.0616527 0)
(10.1551 0.0592079 0)
(10.1591 0.056455 0)
(10.1624 0.0532055 0)
(10.1652 0.0490714 0)
(10.1671 0.0437459 0)
(10.167 0.0359342 0)
(9.99904 0.00671471 0)
(10.0087 0.0342157 0)
(10.0292 0.0485921 0)
(10.0461 0.0554173 0)
(10.0595 0.0594828 0)
(10.0727 0.0613279 0)
(10.0851 0.061621 0)
(10.0962 0.0611833 0)
(10.106 0.060377 0)
(10.1148 0.0592718 0)
(10.1229 0.0578852 0)
(10.1303 0.0562274 0)
(10.1372 0.0542719 0)
(10.1436 0.0519291 0)
(10.1495 0.0490487 0)
(10.1549 0.0453518 0)
(10.1595 0.0406821 0)
(10.1626 0.0347182 0)
(10.0001 0.0092548 0)
(10.0081 0.0334962 0)
(10.0239 0.0445524 0)
(10.0379 0.0492823 0)
(10.0496 0.0531601 0)
(10.0612 0.0558104 0)
(10.0725 0.0569756 0)
(10.0827 0.057187 0)
(10.092 0.0568411 0)
(10.1006 0.056062 0)
(10.1087 0.0549011 0)
(10.1162 0.0533901 0)
(10.1233 0.0515241 0)
(10.13 0.0492404 0)
(10.1363 0.0464339 0)
(10.142 0.042938 0)
(10.1471 0.0387082 0)
(10.1508 0.0337366 0)
(10.0003 0.00917902 0)
(10.007 0.0288901 0)
(10.02 0.0392378 0)
(10.0325 0.0445974 0)
(10.0432 0.0489486 0)
(10.0537 0.051938 0)
(10.0641 0.0533393 0)
(10.0736 0.0536953 0)
(10.0824 0.0534388 0)
(10.0906 0.0527184 0)
(10.0984 0.0515967 0)
(10.1057 0.0501086 0)
(10.1127 0.0482601 0)
(10.1192 0.0460062 0)
(10.1254 0.0432811 0)
(10.1311 0.039996 0)
(10.136 0.0361679 0)
(10.1399 0.0319038 0)
(10.0004 0.00819841 0)
(10.006 0.0248777 0)
(10.017 0.03518 0)
(10.0283 0.0409765 0)
(10.0383 0.0452474 0)
(10.048 0.0481356 0)
(10.0575 0.0495647 0)
(10.0665 0.0499906 0)
(10.0749 0.0498002 0)
(10.0827 0.0491377 0)
(10.0902 0.0480667 0)
(10.0973 0.0466223 0)
(10.104 0.0448187 0)
(10.1103 0.0426302 0)
(10.1162 0.0400245 0)
(10.1216 0.0369684 0)
(10.1264 0.0335123 0)
(10.1303 0.0297971 0)
(10.0004 0.00726462 0)
(10.0052 0.0217168 0)
(10.0145 0.0315761 0)
(10.0247 0.0373867 0)
(10.0341 0.0414408 0)
(10.0431 0.0442066 0)
(10.052 0.0456761 0)
(10.0605 0.0461836 0)
(10.0685 0.0460602 0)
(10.076 0.0454542 0)
(10.0831 0.0444328 0)
(10.0899 0.0430358 0)
(10.0964 0.0412856 0)
(10.1024 0.0391775 0)
(10.108 0.0367054 0)
(10.1132 0.0338741 0)
(10.1177 0.0307481 0)
(10.1216 0.0274657 0)
(10.0004 0.00643103 0)
(10.0045 0.0189618 0)
(10.0124 0.02807 0)
(10.0216 0.0337314 0)
(10.0303 0.037607 0)
(10.0387 0.040268 0)
(10.0471 0.0417584 0)
(10.0552 0.0423231 0)
(10.0628 0.0422477 0)
(10.07 0.0416847 0)
(10.0768 0.0407064 0)
(10.0833 0.0393579 0)
(10.0894 0.0376694 0)
(10.0952 0.035654 0)
(10.1006 0.0333253 0)
(10.1055 0.0307114 0)
(10.1098 0.0278783 0)
(10.1136 0.0249491 0)
(10.0004 0.00564704 0)
(10.0039 0.0164719 0)
(10.0107 0.0247172 0)
(10.0188 0.0301255 0)
(10.0269 0.0338132 0)
(10.0348 0.0363387 0)
(10.0427 0.0378018 0)
(10.0503 0.0383917 0)
(10.0576 0.0383483 0)
(10.0644 0.0378208 0)
(10.071 0.0368854 0)
(10.0772 0.0355913 0)
(10.0831 0.0339757 0)
(10.0885 0.0320651 0)
(10.0936 0.0298868 0)
(10.0983 0.0274807 0)
(10.1024 0.0249092 0)
(10.1061 0.0222764 0)
(10.0003 0.00494647 0)
(10.0034 0.0143714 0)
(10.0093 0.0217975 0)
(10.0166 0.0268816 0)
(10.0241 0.0303589 0)
(10.0316 0.0327291 0)
(10.039 0.0341303 0)
(10.0462 0.0347177 0)
(10.0532 0.0346913 0)
(10.0598 0.0341914 0)
(10.0661 0.0332962 0)
(10.072 0.0320579 0)
(10.0776 0.0305188 0)
(10.0829 0.0287135 0)
(10.0877 0.0266773 0)
(10.0922 0.0244545 0)
(10.0961 0.0221012 0)
(10.0997 0.0197065 0)
(10.0003 0.0042898 0)
(10.003 0.0124503 0)
(10.0081 0.0190416 0)
(10.0147 0.0237195 0)
(10.0217 0.0269502 0)
(10.0287 0.0291446 0)
(10.0356 0.0304568 0)
(10.0425 0.03102 0)
(10.0491 0.0309994 0)
(10.0555 0.0305225 0)
(10.0615 0.0296676 0)
(10.0672 0.028489 0)
(10.0726 0.0270317 0)
(10.0776 0.0253357 0)
(10.0822 0.0234405 0)
(10.0865 0.0213913 0)
(10.0903 0.0192374 0)
(10.0938 0.0170567 0)
(10.0003 0.00360477 0)
(10.0026 0.0104471 0)
(10.007 0.0160863 0)
(10.0129 0.0202213 0)
(10.0192 0.0231137 0)
(10.0257 0.0250704 0)
(10.0322 0.0262434 0)
(10.0387 0.0267477 0)
(10.0449 0.0267143 0)
(10.0509 0.0262539 0)
(10.0567 0.0254418 0)
(10.0621 0.0243328 0)
(10.0672 0.022973 0)
(10.072 0.0214046 0)
(10.0764 0.0196683 0)
(10.0805 0.0178075 0)
(10.0842 0.0158644 0)
(10.0875 0.0139055 0)
(10.0002 0.0028886 0)
(10.0022 0.00836081 0)
(10.006 0.0129448 0)
(10.0111 0.0163989 0)
(10.0168 0.0188441 0)
(10.0228 0.0204868 0)
(10.0288 0.0214595 0)
(10.0348 0.0218585 0)
(10.0407 0.0217843 0)
(10.0463 0.0213276 0)
(10.0517 0.020557 0)
(10.0569 0.0195247 0)
(10.0617 0.0182755 0)
(10.0663 0.0168503 0)
(10.0705 0.0152882 0)
(10.0743 0.0136284 0)
(10.0779 0.0119055 0)
(10.0811 0.0101756 0)
(10.0002 0.00214279 0)
(10.0019 0.00619774 0)
(10.0051 0.00963256 0)
(10.0096 0.0122677 0)
(10.0147 0.0141427 0)
(10.0201 0.01538 0)
(10.0256 0.0160789 0)
(10.0311 0.0163147 0)
(10.0366 0.0161608 0)
(10.0419 0.0156863 0)
(10.047 0.0149485 0)
(10.0518 0.0139937 0)
(10.0564 0.0128619 0)
(10.0606 0.0115897 0)
(10.0646 0.0102116 0)
(10.0683 0.00876049 0)
(10.0717 0.00726385 0)
(10.0748 0.00576825 0)
(10.0002 0.00136747 0)
(10.0016 0.00395042 0)
(10.0044 0.00614261 0)
(10.0083 0.00782477 0)
(10.0128 0.0089993 0)
(10.0177 0.00972729 0)
(10.0228 0.0100694 0)
(10.0279 0.0100756 0)
(10.0329 0.00979398 0)
(10.0379 0.00927165 0)
(10.0426 0.00855046 0)
(10.0471 0.00766633 0)
(10.0514 0.00665104 0)
(10.0555 0.00553399 0)
(10.0593 0.00434229 0)
(10.0628 0.00310164 0)
(10.066 0.00183219 0)
(10.069 0.000571628 0)
(10.0002 0.000549481 0)
(10.0014 0.00157442 0)
(10.0039 0.00241304 0)
(10.0074 0.00300419 0)
(10.0115 0.00334137 0)
(10.016 0.00344428 0)
(10.0206 0.00333557 0)
(10.0254 0.00303667 0)
(10.0301 0.00257059 0)
(10.0347 0.00196135 0)
(10.0391 0.00123192 0)
(10.0434 0.000403616 0)
(10.0475 -0.000503474 0)
(10.0513 -0.00147011 0)
(10.0549 -0.0024782 0)
(10.0583 -0.0035104 0)
(10.0614 -0.0045537 0)
(10.0643 -0.00557927 0)
(10.0001 -0.000351425 0)
(10.0013 -0.0010448 0)
(10.0037 -0.00171869 0)
(10.0069 -0.00237211 0)
(10.0109 -0.00300571 0)
(10.0151 -0.00363518 0)
(10.0196 -0.00427979 0)
(10.0241 -0.00495091 0)
(10.0286 -0.00565265 0)
(10.033 -0.00638602 0)
(10.0372 -0.00715011 0)
(10.0413 -0.00794153 0)
(10.0452 -0.00875481 0)
(10.0489 -0.0095831 0)
(10.0524 -0.010419 0)
(10.0556 -0.0112544 0)
(10.0587 -0.0120837 0)
(10.0615 -0.0128876 0)
(10.0001 -0.00120103 0)
(10.0014 -0.00352344 0)
(10.0038 -0.00563854 0)
(10.0073 -0.00746519 0)
(10.0113 -0.00899371 0)
(10.0157 -0.0102863 0)
(10.0202 -0.0114087 0)
(10.0248 -0.0124031 0)
(10.0293 -0.0133013 0)
(10.0336 -0.0141324 0)
(10.0379 -0.0149183 0)
(10.0419 -0.0156728 0)
(10.0458 -0.0164034 0)
(10.0494 -0.0171144 0)
(10.0528 -0.0178072 0)
(10.0561 -0.0184816 0)
(10.0591 -0.0191374 0)
(10.0619 -0.0197628 0)
(10.0002 -0.00192113 0)
(10.0015 -0.00566029 0)
(10.0042 -0.00903358 0)
(10.0081 -0.0118151 0)
(10.0125 -0.0140109 0)
(10.0171 -0.0157835 0)
(10.0218 -0.0172487 0)
(10.0265 -0.0184607 0)
(10.0312 -0.0194719 0)
(10.0356 -0.02034 0)
(10.0399 -0.02111 0)
(10.044 -0.0218103 0)
(10.0479 -0.0224589 0)
(10.0515 -0.0230684 0)
(10.0549 -0.0236469 0)
(10.0582 -0.0241987 0)
(10.0612 -0.024727 0)
(10.064 -0.0252247 0)
(10.0002 -0.0025878 0)
(10.0017 -0.00774618 0)
(10.0048 -0.0124155 0)
(10.0092 -0.0160639 0)
(10.0142 -0.0187662 0)
(10.0192 -0.0208733 0)
(10.0242 -0.0225672 0)
(10.0292 -0.0239117 0)
(10.034 -0.0249802 0)
(10.0386 -0.0258525 0)
(10.043 -0.0265866 0)
(10.0471 -0.0272195 0)
(10.051 -0.0277784 0)
(10.0547 -0.0282838 0)
(10.0582 -0.0287498 0)
(10.0614 -0.0291848 0)
(10.0645 -0.0295944 0)
(10.0673 -0.0299737 0)
(10.0001 -0.00318161 0)
(10.0017 -0.0098214 0)
(10.0054 -0.0158056 0)
(10.0107 -0.0202329 0)
(10.0163 -0.0234022 0)
(10.0218 -0.0258033 0)
(10.0271 -0.0276109 0)
(10.0324 -0.0289429 0)
(10.0374 -0.0299551 0)
(10.0422 -0.0307643 0)
(10.0467 -0.0314293 0)
(10.051 -0.0319852 0)
(10.055 -0.0324621 0)
(10.0587 -0.0328835 0)
(10.0622 -0.0332654 0)
(10.0655 -0.0336172 0)
(10.0686 -0.0339451 0)
(10.0715 -0.0342473 0)
(10.0001 -0.00365577 0)
(10.0016 -0.0122947 0)
(10.006 -0.0193357 0)
(10.0124 -0.0239382 0)
(10.0187 -0.0274387 0)
(10.0246 -0.030305 0)
(10.0304 -0.0323663 0)
(10.0361 -0.0337175 0)
(10.0413 -0.034638 0)
(10.0463 -0.0353162 0)
(10.051 -0.0358321 0)
(10.0554 -0.036233 0)
(10.0595 -0.0365587 0)
(10.0634 -0.0368396 0)
(10.067 -0.0370936 0)
(10.0704 -0.0373307 0)
(10.0736 -0.0375554 0)
(10.0765 -0.0377602 0)
(9.9998 -0.00329562 0)
(10.0011 -0.0159119 0)
(10.0069 -0.0245877 0)
(10.0142 -0.0283567 0)
(10.0208 -0.0311078 0)
(10.0273 -0.033851 0)
(10.0338 -0.0360601 0)
(10.0401 -0.0376201 0)
(10.046 -0.0387369 0)
(10.0514 -0.0395595 0)
(10.0564 -0.0401563 0)
(10.0611 -0.0405837 0)
(10.0655 -0.0408955 0)
(10.0696 -0.041134 0)
(10.0735 -0.0413265 0)
(10.077 -0.0414907 0)
(10.0804 -0.0416383 0)
(10.0835 -0.0417683 0)
(9.99825 0.000384716 0)
(9.99792 -0.0167188 0)
(10.0067 -0.0303509 0)
(10.0165 -0.036056 0)
(10.0241 -0.0383743 0)
(10.0312 -0.0395508 0)
(10.0388 -0.0401684 0)
(10.0461 -0.0405925 0)
(10.0528 -0.0409949 0)
(10.059 -0.0413785 0)
(10.0648 -0.0417091 0)
(10.0701 -0.0419901 0)
(10.075 -0.0422337 0)
(10.0794 -0.0424566 0)
(10.0835 -0.042667 0)
(10.0873 -0.0428737 0)
(10.0908 -0.0430768 0)
(10.094 -0.0432494 0)
(9.99406 0.00309288 0)
(9.99014 -0.00682892 0)
(10.004 -0.0217133 0)
(10.0201 -0.036953 0)
(10.0323 -0.0482175 0)
(10.0428 -0.054026 0)
(10.0524 -0.0561324 0)
(10.0612 -0.0565074 0)
(10.069 -0.0561772 0)
(10.076 -0.0554796 0)
(10.0823 -0.0546106 0)
(10.088 -0.0536813 0)
(10.093 -0.0527825 0)
(10.0975 -0.0519479 0)
(10.1014 -0.0512098 0)
(10.1049 -0.0505749 0)
(10.108 -0.0500532 0)
(10.1108 -0.049592 0)
(9.99473 -0.0303994 0)
(9.99683 -0.0138831 0)
(10.0127 0.0179404 0)
(10.0326 0.0252459 0)
(10.0524 0.0160894 0)
(10.0708 0.00387813 0)
(10.0865 -0.00664785 0)
(10.099 -0.0153366 0)
(10.1087 -0.0223649 0)
(10.1163 -0.0279195 0)
(10.122 -0.0321853 0)
(10.1261 -0.0354498 0)
(10.1289 -0.0379314 0)
(10.1305 -0.0398268 0)
(10.1311 -0.0412782 0)
(10.1309 -0.0424274 0)
(10.13 -0.0433803 0)
(10.1285 -0.044237 0)
(10.0376 -0.214643 0)
(10.1072 -0.370535 0)
(10.1387 -0.350061 0)
(10.1484 -0.288517 0)
(10.156 -0.233318 0)
(10.1625 -0.189687 0)
(10.1638 -0.156133 0)
(10.1584 -0.130752 0)
(10.1473 -0.111712 0)
(10.1319 -0.0972326 0)
(10.1132 -0.0860629 0)
(10.0921 -0.077308 0)
(10.0692 -0.0703904 0)
(10.0451 -0.0648521 0)
(10.0202 -0.0603902 0)
(9.99503 -0.0568113 0)
(9.96982 -0.0539761 0)
(9.94508 -0.0521779 0)
(9.92762 0.783798 0)
(9.83965 0.760229 0)
(9.70767 0.533583 0)
(9.53329 0.350283 0)
(9.34935 0.225572 0)
(9.174 0.144101 0)
(9.01125 0.0912406 0)
(8.86173 0.0565087 0)
(8.7253 0.0333912 0)
(8.60154 0.0178569 0)
(8.48917 0.00731849 0)
(8.3871 0.00017684 0)
(8.29401 -0.00462573 0)
(8.20906 -0.00785768 0)
(8.13115 -0.0100054 0)
(8.05959 -0.0114457 0)
(7.99317 -0.0124385 0)
(7.93162 -0.013538 0)
(-0.00346547 0.00956186 -9.93184e-19)
(-0.0160387 0.0157383 1.03428e-18)
(-0.0330693 0.0173927 0)
(-0.0518825 0.0153724 0)
(-0.0685827 0.00892655 0)
(-0.074774 -0.00137702 -6.47352e-19)
(-0.0618633 -0.0146903 0)
(-0.0341945 -0.03022 0)
(0.00477633 -0.0432839 0)
(0.0506676 -0.050465 0)
(0.100397 -0.0515538 4.32168e-19)
(0.150031 -0.0479104 0)
(0.195415 -0.0409385 0)
(0.233596 -0.0317204 0)
(0.262936 -0.0210509 0)
(0.282475 -0.00947687 2.26499e-19)
(0.292052 0.00278066 0)
(0.290546 0.0152497 0)
(0.277922 0.0270612 0)
(0.255164 0.0370116 0)
(0.223541 0.0437841 0)
(0.184818 0.0461506 0)
(0.141573 0.0431631 0)
(0.0971855 0.0344576 4.63746e-19)
(0.0556956 0.0208596 -6.26949e-19)
(0.0215603 0.00567963 9.06221e-19)
(-0.00194306 -0.00481194 1.18311e-18)
(-0.0164859 -0.00660483 0)
(-0.0251341 -0.00291154 0)
(-0.0302838 0.00186844 -9.96882e-19)
(-0.0350047 0.00482705 -9.41075e-19)
(-0.0408645 0.00481649 0)
(-0.0450154 0.00162472 0)
(-0.0412225 -0.00463092 -8.86064e-19)
(-0.0270687 -0.0129593 0)
(-0.00338784 -0.021333 0)
(0.025838 -0.0256795 8.89144e-19)
(0.055226 -0.0236556 0)
(0.0803494 -0.0172585 5.65557e-19)
(0.0978272 -0.00978517 1.03928e-18)
(0.106903 -0.00423116 0)
(0.109267 -0.000105246 0)
(0.108041 0.00259053 0)
(0.118862 -0.009418 0)
(0.135781 -0.0314265 0)
(0.146771 -0.0537319 8.07934e-19)
(0.137719 -0.0659245 8.04267e-19)
(0.0991651 -0.0534186 9.24524e-19)
(0.0249828 -0.0119178 0)
(-0.108336 0.0460046 -6.08751e-19)
(-0.266895 0.0912933 0)
(-0.439435 0.121729 2.51094e-19)
(-0.619808 0.139218 1.9302e-19)
(-0.800573 0.14615 0)
(-0.975327 0.144671 0)
(-1.13987 0.137308 0)
(-1.29125 0.126242 1.09121e-19)
(-1.42821 0.113377 0)
(-1.55043 0.100087 0)
(-1.65855 0.0873407 0)
(-1.75364 0.0756995 0)
(-1.8371 0.0654645 0)
(-1.91037 0.056701 0)
(-1.975 0.0493291 0)
(-2.03233 0.043182 0)
(-2.08355 0.0380889 -7.64171e-20)
(-2.12966 0.03388 0)
(-2.1715 0.0303986 0)
(-2.20979 0.0275115 7.27798e-20)
(-2.24509 0.025103 7.17537e-20)
(-2.27786 0.0230798 0)
(-2.30848 0.0213648 -6.98726e-20)
(-2.33725 0.019895 6.89945e-20)
(-2.36441 0.0186211 0)
(-2.39015 0.0175025 -6.73228e-20)
(-2.41462 0.0165078 0)
(-2.43793 0.015611 0)
(-2.46019 0.0147917 6.49521e-20)
(-2.48146 0.0140333 0)
(-2.50179 0.0133224 -6.34233e-20)
(-2.52123 0.0126478 0)
(-2.53981 0.0120003 6.19145e-20)
(-2.55754 0.0113721 6.11634e-20)
(-2.57443 0.0107562 6.04126e-20)
(-2.5905 0.0101466 1.19322e-19)
(-2.60572 0.0095372 -1.17815e-19)
(-2.6201 0.00892237 0)
(-2.63362 0.00829614 0)
(-2.64627 0.00765228 0)
(-2.658 0.00698422 -1.11713e-19)
(-2.6688 0.00628518 -1.10161e-19)
(-2.67862 0.00554915 1.08598e-19)
(-2.68742 0.004772 0)
(-2.69514 0.00395419 -1.0543e-19)
(-2.70172 0.00310618 -1.03826e-19)
(-2.7071 0.00225868 -1.02209e-19)
(-2.71121 0.00146805 0)
(-2.71398 0.000791572 0)
(-2.71556 0.00023321 0)
(-2.71617 -0.000271014 -9.54638e-20)
(-2.71579 -0.000767603 0)
(-2.71441 -0.00126262 0)
(-2.71202 -0.00176042 8.99979e-20)
(-2.70861 -0.00226127 0)
(-2.70414 -0.00276545 0)
(-2.6986 -0.00327283 8.41327e-20)
(-2.69198 -0.00378313 0)
(-2.68424 -0.00429626 0)
(-2.67538 -0.00481182 -7.78121e-20)
(-2.66537 -0.00532976 -7.55935e-20)
(-2.6542 -0.00584958 0)
(-2.64184 -0.00637128 7.09743e-20)
(-2.62828 -0.00689431 0)
(-2.61351 -0.00741869 -6.60948e-20)
(-2.59751 -0.00794382 0)
(-2.58026 -0.00846977 -6.09322e-20)
(-2.56175 -0.00899596 -5.8237e-20)
(-2.54197 -0.00952239 0)
(-2.52092 -0.0100484 0)
(-2.49856 -0.0105739 0)
(-2.47491 -0.0110982 0)
(-2.44995 -0.0116212 0)
(-2.42368 -0.0121424 0)
(-2.39609 -0.0126617 0)
(-2.36718 -0.0131783 -3.34549e-20)
(-2.33694 -0.0136921 2.98888e-20)
(-2.30538 -0.014202 0)
(-2.27251 -0.0147076 0)
(-2.23832 -0.0152082 0)
(-2.20282 -0.0156999 0)
(-2.16604 -0.0161924 2.02234e-20)
(-2.12796 -0.0166706 0)
(-2.08862 -0.0171501 -2.31888e-21)
(-2.04802 -0.0176311 -7.14599e-21)
(-2.00618 -0.0180921 0)
(-1.96313 -0.0185513 0)
(-1.9189 -0.0190004 0)
(-1.8735 -0.0194416 4.89088e-20)
(-1.82697 -0.0198736 6.04469e-20)
(-1.77934 -0.0202951 0)
(-1.73064 -0.0207059 8.504e-20)
(-1.68091 -0.0211057 9.81623e-20)
(-1.63019 -0.0214963 -1.11886e-19)
(-1.57851 -0.0218781 0)
(-1.52591 -0.0222482 0)
(-1.47244 -0.0226059 -1.57098e-19)
(-1.41815 -0.0229526 0)
(-1.36308 -0.0232893 0)
(-1.30727 -0.0236161 0)
(-1.25079 -0.0239335 0)
(-1.19367 -0.0242422 2.49333e-19)
(-1.13595 -0.0245431 2.70978e-19)
(-1.07771 -0.024836 0)
(-1.01896 -0.0251228 3.18279e-19)
(-0.959775 -0.0254046 0)
(-0.900187 -0.0256834 0)
(-0.840244 -0.0259612 4.01396e-19)
(-0.779985 -0.0262401 0)
(-0.71945 -0.0265224 4.67126e-19)
(-0.658676 -0.0268105 0)
(-0.597698 -0.0271079 0)
(-0.536548 -0.0274174 5.86718e-19)
(-0.475254 -0.0277424 0)
(-0.413844 -0.0280874 6.85311e-19)
(-0.352343 -0.0284553 0)
(-0.290779 -0.0288626 0)
(-0.229172 -0.0293454 0)
(-0.167536 -0.0298947 -9.53431e-19)
(-0.105913 -0.030478 0)
(-0.0444576 -0.0310216 1.14362e-18)
(0.0168117 -0.0309143 0)
(0.0778803 -0.0298919 0)
(0.138603 -0.0285877 0)
(0.1987 -0.0272609 0)
(0.257911 -0.0258819 0)
(0.315515 -0.0243288 0)
(0.371505 -0.0223775 0)
(0.420236 -0.0194531 -1.81301e-18)
(0.473366 -0.0161124 0)
(0.473037 -0.000805647 0)
(-0.000172954 0.0257255 2.98467e-18)
(-0.00735417 0.044604 -3.15881e-18)
(-0.0164887 0.0476885 0)
(-0.0207852 0.0403076 2.04283e-18)
(-0.0101012 0.0204001 0)
(0.0225011 -0.0167386 8.37161e-19)
(0.0661056 -0.0657546 -9.68019e-19)
(0.117934 -0.110565 -6.59202e-19)
(0.173384 -0.141546 0)
(0.228108 -0.155995 -4.12932e-19)
(0.278514 -0.155509 -1.79081e-19)
(0.322599 -0.143751 0)
(0.359544 -0.124502 0)
(0.389101 -0.100758 0)
(0.411332 -0.0746076 0)
(0.426552 -0.0474011 -1.40866e-19)
(0.434997 -0.0199408 0)
(0.437581 0.00744131 2.86156e-19)
(0.434351 0.0342614 0)
(0.424758 0.0597185 0)
(0.408063 0.0826701 -2.96378e-19)
(0.383574 0.101553 0)
(0.350815 0.114424 3.31917e-19)
(0.309925 0.11926 -1.82523e-19)
(0.261892 0.114556 2.0881e-19)
(0.208871 0.100342 -2.50422e-19)
(0.154262 0.0788807 -3.17717e-19)
(0.102251 0.0540517 0)
(0.0582604 0.0303983 0)
(0.0272607 0.0131207 8.71295e-19)
(0.0103809 0.0044791 -1.18849e-18)
(0.00532873 -0.00145214 0)
(0.0132692 -0.0126202 0)
(0.0301156 -0.0311051 8.51445e-19)
(0.0557833 -0.0542732 0)
(0.0867726 -0.0736806 0)
(0.116034 -0.0795616 -3.54396e-19)
(0.137129 -0.0699563 0)
(0.147744 -0.0514875 3.23086e-19)
(0.148514 -0.0305099 -6.83267e-19)
(0.143918 -0.0163014 0)
(0.137066 -0.0170679 0)
(0.121076 -0.0293557 -1.63525e-18)
(0.0800656 -0.0354823 -1.98328e-18)
(-0.0303997 0.00688416 -1.56048e-18)
(-0.211028 0.0938896 4.22921e-19)
(-0.406832 0.175232 -2.57709e-19)
(-0.6085 0.247064 -5.44202e-19)
(-0.807769 0.30763 2.79653e-19)
(-1.00142 0.351523 1.13924e-19)
(-1.18145 0.373901 0)
(-1.3447 0.377569 -8.69269e-20)
(-1.48872 0.36627 8.14879e-20)
(-1.61243 0.344224 0)
(-1.71651 0.315529 0)
(-1.80286 0.283662 0)
(-1.87407 0.251348 -6.55081e-20)
(-1.93293 0.220452 0)
(-1.9821 0.192142 1.26026e-19)
(-2.02388 0.166987 0)
(-2.06015 0.14515 1.21218e-19)
(-2.0923 0.12652 0)
(-2.12137 0.110848 -1.17338e-19)
(-2.1481 0.097771 0)
(-2.17296 0.0869038 1.14001e-19)
(-2.19632 0.0778752 -5.63063e-20)
(-2.21842 0.0703566 0)
(-2.23943 0.0640666 -1.09602e-19)
(-2.25948 0.0587692 -5.41109e-20)
(-2.27867 0.0542687 -5.34602e-20)
(-2.29706 0.0504092 0)
(-2.31469 0.047061 -5.21594e-20)
(-2.33161 0.0441211 -5.15815e-20)
(-2.34785 0.0415077 0)
(-2.36342 0.0391544 5.03648e-20)
(-2.37835 0.0370087 -9.94648e-20)
(-2.39264 0.0350281 0)
(-2.4063 0.0331787 -4.85647e-20)
(-2.41934 0.0314327 0)
(-2.43175 0.0297681 1.42048e-19)
(-2.44352 0.0281668 0)
(-2.45466 0.0266139 -1.3845e-19)
(-2.46516 0.0250975 -4.55629e-20)
(-2.475 0.0236076 4.49112e-20)
(-2.48417 0.022136 8.86081e-20)
(-2.49267 0.0206757 -8.73856e-20)
(-2.50047 0.0192206 0)
(-2.50758 0.0177658 0)
(-2.51396 0.0163063 0)
(-2.51963 0.0148376 2.47232e-19)
(-2.52456 0.0133552 8.1129e-20)
(-2.52876 0.0118538 -7.98257e-20)
(-2.53223 0.0103277 0)
(-2.53498 0.00877013 -7.72062e-20)
(-2.53705 0.00717655 7.5833e-20)
(-2.53847 0.00555605 7.44757e-20)
(-2.5393 0.00394682 0)
(-2.53963 0.00240798 0)
(-2.53931 0.000962536 0)
(-2.53807 -0.000435051 6.87344e-20)
(-2.53589 -0.00182401 0)
(-2.53273 -0.00321129 -1.31532e-19)
(-2.52858 -0.00460225 -1.92584e-19)
(-2.52339 -0.00599718 1.25288e-19)
(-2.51717 -0.00739604 0)
(-2.50988 -0.00879812 5.9508e-20)
(-2.5015 -0.0102025 0)
(-2.49202 -0.0116084 1.12112e-19)
(-2.48142 -0.0130146 -5.4457e-20)
(-2.46968 -0.0144204 -5.27096e-20)
(-2.45677 -0.0158245 0)
(-2.4427 -0.017226 -1.4673e-19)
(-2.42742 -0.0186235 9.42024e-20)
(-2.41094 -0.0200162 4.5033e-20)
(-2.39324 -0.0214025 0)
(-2.3743 -0.0227813 4.11092e-20)
(-2.35411 -0.0241513 1.17671e-19)
(-2.33265 -0.0255113 0)
(-2.30992 -0.0268598 7.03001e-20)
(-2.28591 -0.0281954 6.60345e-20)
(-2.26061 -0.0295163 6.1683e-20)
(-2.23401 -0.0308212 0)
(-2.2061 -0.0321081 0)
(-2.17689 -0.0333756 0)
(-2.14636 -0.0346214 -2.19747e-20)
(-2.11453 -0.0358443 -1.89854e-20)
(-2.08138 -0.037042 0)
(-2.04693 -0.038213 -2.8641e-20)
(-2.01117 -0.0393554 -2.35249e-20)
(-1.97412 -0.0404678 0)
(-1.93579 -0.0415481 -1.22676e-20)
(-1.89618 -0.0425954 -1.5059e-20)
(-1.85532 -0.0436071 1.22524e-21)
(-1.81322 -0.0445804 -2.92796e-21)
(-1.76989 -0.0455141 0)
(-1.72537 -0.0464056 0)
(-1.67968 -0.047256 0)
(-1.63284 -0.0480632 -2.847e-20)
(-1.58488 -0.0488258 3.30327e-20)
(-1.53583 -0.0495406 8.06955e-20)
(-1.48573 -0.0502069 -4.7842e-20)
(-1.43462 -0.050823 5.26968e-20)
(-1.38253 -0.0513901 6.14619e-20)
(-1.32949 -0.051909 0)
(-1.27556 -0.0523739 0)
(-1.22077 -0.0527855 -8.0977e-20)
(-1.16518 -0.0531456 0)
(-1.10883 -0.0534558 0)
(-1.05177 -0.0537164 2.09868e-19)
(-0.994046 -0.0539289 0)
(-0.935705 -0.0540931 1.19985e-19)
(-0.876796 -0.0542122 -1.30545e-19)
(-0.81737 -0.0542867 0)
(-0.757471 -0.0543192 1.4554e-19)
(-0.697149 -0.0543117 0)
(-0.636447 -0.0542678 0)
(-0.575411 -0.05419 -1.7523e-19)
(-0.514083 -0.054082 3.67194e-19)
(-0.452502 -0.0539466 -1.94561e-19)
(-0.390708 -0.0537878 0)
(-0.328735 -0.0536095 0)
(-0.266617 -0.0534155 2.22835e-19)
(-0.204383 -0.0532085 0)
(-0.14206 -0.0529937 2.44523e-19)
(-0.079675 -0.0527726 0)
(-0.0172544 -0.0525433 0)
(0.045194 -0.0522999 0)
(0.107649 -0.0520383 2.74457e-19)
(0.170069 -0.0517562 0)
(0.23246 -0.0514339 -2.75366e-19)
(0.294792 -0.0508767 0)
(0.356889 -0.0499649 0)
(0.418659 -0.0488504 5.51692e-19)
(0.480008 -0.0475973 -5.52904e-19)
(0.540738 -0.0461196 0)
(0.600345 -0.0442301 0)
(0.658672 -0.0414874 0)
(0.712665 -0.0373452 1.68751e-18)
(0.768111 -0.0305235 0)
(0.797143 -0.0112074 -1.18592e-18)
(0.000768632 0.0289063 3.7581e-22)
(0.00102857 0.0518692 4.41622e-18)
(0.00545904 0.0485833 0)
(0.024795 0.0184583 -3.28221e-18)
(0.0686065 -0.0456625 0)
(0.130082 -0.12494 0)
(0.197089 -0.194622 -4.1728e-22)
(0.259644 -0.240481 3.48015e-19)
(0.31264 -0.259656 2.99666e-19)
(0.354879 -0.256185 2.69777e-19)
(0.387146 -0.236455 0)
(0.411164 -0.206545 0)
(0.428658 -0.171148 -2.3519e-19)
(0.440993 -0.133435 -4.63897e-19)
(0.449143 -0.0952892 4.63466e-19)
(0.453764 -0.0576772 0)
(0.45527 -0.0210624 4.79094e-19)
(0.45386 0.0143136 -2.39655e-19)
(0.449821 0.048361 0)
(0.443355 0.0809889 4.77545e-19)
(0.434406 0.111795 2.41146e-19)
(0.422462 0.139848 -4.96247e-19)
(0.406506 0.163563 -2.56977e-19)
(0.385118 0.180749 0)
(0.356887 0.188943 5.82918e-19)
(0.321044 0.18607 6.41282e-19)
(0.278308 0.171363 0)
(0.231345 0.145836 8.56804e-19)
(0.184912 0.112536 0)
(0.144702 0.0759767 1.31014e-18)
(0.11589 0.0402135 8.23844e-19)
(0.102038 0.00583164 0)
(0.103441 -0.0283373 0)
(0.118223 -0.0646313 0)
(0.139934 -0.0985831 0)
(0.15653 -0.115782 0)
(0.158847 -0.107725 0)
(0.146558 -0.0785973 1.04376e-18)
(0.119841 -0.0454756 -1.85231e-18)
(0.080111 -0.0169243 0)
(0.0273356 0.0106476 0)
(-0.087959 0.0654021 0)
(-0.262046 0.153757 5.43449e-23)
(-0.458619 0.248853 4.27063e-19)
(-0.66576 0.342543 6.17474e-19)
(-0.870772 0.426668 -4.82314e-19)
(-1.06042 0.490922 -2.00566e-19)
(-1.22841 0.535938 1.72167e-19)
(-1.36905 0.561381 1.47207e-21)
(-1.48043 0.56656 1.40931e-19)
(-1.56566 0.553057 0)
(-1.62932 0.524444 1.23437e-19)
(-1.67654 0.485343 2.04455e-21)
(-1.7123 0.440209 0)
(-1.74097 0.393064 0)
(-1.76575 0.346904 -1.03707e-19)
(-1.78884 0.303853 0)
(-1.81148 0.265082 0)
(-1.83426 0.231095 9.53072e-20)
(-1.85734 0.201884 1.84547e-19)
(-1.88062 0.177115 -8.98135e-20)
(-1.90391 0.156294 0)
(-1.92698 0.138885 8.64386e-20)
(-1.94965 0.124355 0)
(-1.97178 0.112207 8.36712e-20)
(-1.99325 0.102003 8.22531e-20)
(-2.01402 0.0933826 -1.61996e-19)
(-2.03405 0.0860472 -7.9765e-20)
(-2.05335 0.0797498 0)
(-2.07191 0.0742866 1.55095e-19)
(-2.08975 0.0694965 0)
(-2.10689 0.0652465 2.26393e-19)
(-2.12336 0.0614318 1.48847e-19)
(-2.13916 0.0579671 1.46849e-19)
(-2.15433 0.0547835 -1.4488e-19)
(-2.16886 0.0518255 2.14474e-19)
(-2.18278 0.0490476 0)
(-2.19609 0.0464129 0)
(-2.2088 0.0438915 -1.37173e-19)
(-2.2209 0.0414586 -2.02966e-19)
(-2.23241 0.0390941 0)
(-2.2433 0.0367815 6.57868e-20)
(-2.25358 0.0345071 0)
(-2.26324 0.0322598 -1.91502e-19)
(-2.27228 0.0300306 -9.04471e-23)
(-2.28067 0.027812 8.10772e-23)
(-2.28842 0.0255982 1.21843e-19)
(-2.29551 0.0233845 0)
(-2.30192 0.0211679 -1.17927e-19)
(-2.30766 0.0189465 -4.08873e-23)
(-2.31271 0.0167203 0)
(-2.31706 0.0144911 0)
(-2.32071 0.0122627 0)
(-2.32366 0.0100417 1.07887e-19)
(-2.32588 0.00783629 0)
(-2.32738 0.00565422 0)
(-2.32812 0.00349341 0)
(-2.32805 0.00133161 0)
(-2.32711 -0.000858164 0)
(-2.32528 -0.00307418 9.49828e-20)
(-2.32252 -0.00530199 0)
(-2.3188 -0.00753879 9.03165e-20)
(-2.31412 -0.0097837 8.79792e-20)
(-2.30843 -0.0120354 -8.56107e-20)
(-2.30173 -0.0142928 0)
(-2.29399 -0.0165542 -8.07782e-20)
(-2.2852 -0.0188183 0)
(-2.27532 -0.0210833 -7.58134e-20)
(-2.26435 -0.0233475 7.32799e-20)
(-2.25227 -0.0256092 2.12573e-19)
(-2.23906 -0.0278667 0)
(-2.22469 -0.0301181 1.96901e-19)
(-2.20917 -0.0323614 6.33183e-20)
(-2.19246 -0.0345947 0)
(-2.17456 -0.0368159 1.15244e-19)
(-2.15545 -0.0390228 1.09699e-19)
(-2.13512 -0.0412133 -1.55795e-19)
(-2.11355 -0.0433851 0)
(-2.09074 -0.0455359 -4.59513e-20)
(-2.06668 -0.0476633 -4.30108e-20)
(-2.04135 -0.0497645 -1.20861e-19)
(-2.01476 -0.0518369 0)
(-1.98689 -0.0538776 0)
(-1.95774 -0.0558837 0)
(-1.92731 -0.0578523 -2.86098e-20)
(-1.89559 -0.0597803 0)
(-1.8626 -0.0616645 0)
(-1.82832 -0.0635021 1.80779e-20)
(-1.79278 -0.06529 1.47841e-20)
(-1.75596 -0.0670253 0)
(-1.7179 -0.0687055 0)
(-1.67858 -0.0703275 9.33514e-21)
(-1.63804 -0.0718882 0)
(-1.59629 -0.0733837 4.54144e-21)
(-1.55334 -0.0748104 1.04183e-20)
(-1.50922 -0.076166 0)
(-1.46395 -0.0774495 0)
(-1.41756 -0.0786588 -3.19537e-20)
(-1.37008 -0.0797913 -1.28067e-21)
(-1.32154 -0.0808429 -1.3048e-21)
(-1.27197 -0.0818113 0)
(-1.22141 -0.0826944 -1.24783e-19)
(-1.16989 -0.0834918 0)
(-1.11746 -0.0842043 0)
(-1.06415 -0.0848278 0)
(-1.01002 -0.0853607 9.40372e-20)
(-0.955106 -0.0858052 0)
(-0.899453 -0.0861632 -2.16898e-19)
(-0.84311 -0.0864356 -1.17944e-19)
(-0.786126 -0.0866243 0)
(-0.728546 -0.0867299 -1.34176e-19)
(-0.670422 -0.0867554 0)
(-0.611798 -0.0867029 0)
(-0.552724 -0.0865755 -4.73655e-19)
(-0.493245 -0.0863767 3.31406e-19)
(-0.433406 -0.0861106 0)
(-0.37325 -0.0857811 3.6499e-19)
(-0.312819 -0.0853934 -1.9252e-19)
(-0.252154 -0.0849515 0)
(-0.191291 -0.0844599 0)
(-0.130264 -0.083923 0)
(-0.0691058 -0.0833464 -6.76836e-19)
(-0.00784219 -0.0827361 0)
(0.0535035 -0.0820986 -2.40021e-19)
(0.114906 -0.0814352 0)
(0.176346 -0.0807417 0)
(0.2378 -0.0800038 0)
(0.299247 -0.0792198 0)
(0.36067 -0.0783982 0)
(0.422067 -0.0775275 0)
(0.48342 -0.0765885 -5.24371e-19)
(0.544668 -0.0755258 0)
(0.605739 -0.0742921 -2.6928e-19)
(0.666531 -0.0728432 8.13635e-19)
(0.726883 -0.0710421 0)
(0.786427 -0.0686346 0)
(0.845077 -0.065124 -5.59036e-19)
(0.900947 -0.0597839 -5.6834e-19)
(0.958141 -0.0512155 5.75804e-19)
(1.00101 -0.0314884 5.98717e-19)
(-0.0015999 0.0298007 -5.93275e-18)
(0.0003564 0.0412818 -6.93337e-18)
(0.0222161 0.00224752 -3.20814e-18)
(0.0783637 -0.0921588 -8.37185e-19)
(0.154853 -0.200876 0)
(0.231275 -0.287246 7.23337e-19)
(0.294195 -0.336136 -2.94691e-19)
(0.339161 -0.349063 0)
(0.368016 -0.335197 -2.36018e-19)
(0.384924 -0.304618 0)
(0.394075 -0.265398 4.27775e-19)
(0.398653 -0.222685 0)
(0.400628 -0.179286 2.04236e-19)
(0.401056 -0.136506 4.08638e-19)
(0.400438 -0.0948877 -4.1366e-19)
(0.39898 -0.0546154 0)
(0.396757 -0.0157048 -4.37035e-19)
(0.39383 0.0218495 0)
(0.390188 0.0580603 0)
(0.385741 0.0929023 -4.39388e-19)
(0.380476 0.126219 0)
(0.3743 0.157584 -1.34985e-21)
(0.366885 0.186131 0)
(0.357506 0.210329 0)
(0.345039 0.227929 9.8854e-22)
(0.328104 0.236075 -5.49454e-19)
(0.305722 0.231966 -5.97564e-19)
(0.277989 0.213697 -6.64675e-19)
(0.246778 0.181262 0)
(0.215728 0.137301 -1.78953e-18)
(0.189825 0.0858156 0)
(0.173495 0.0310292 -1.29635e-18)
(0.168429 -0.0247404 0)
(0.170986 -0.0781589 0)
(0.165198 -0.109992 9.9321e-19)
(0.138721 -0.106396 0)
(0.0869947 -0.0712467 -1.15766e-18)
(0.020388 -0.00882964 -6.08235e-22)
(-0.0814488 0.0695268 2.10354e-18)
(-0.235222 0.163569 -1.28227e-18)
(-0.411663 0.268789 0)
(-0.606192 0.378315 0)
(-0.804302 0.482429 -2.42026e-19)
(-0.990479 0.568898 0)
(-1.15345 0.632729 -1.69006e-19)
(-1.28615 0.672533 1.48588e-19)
(-1.38925 0.689795 1.33954e-19)