/*--------------------------------*- C++ -*----------------------------------*\
| =========                 |                                                 |
| \\      /  F ield         | OpenFOAM: The Open Source CFD Toolbox           |
|  \\    /   O peration     | Version:  2406                                  |
|   \\  /    A nd           | Website:  www.openfoam.com                      |
|    \\/     M anipulation  |                                                 |
\*---------------------------------------------------------------------------*/
FoamFile
{
    version     2.0;
    format      ascii;
    arch        "LSB;label=32;scalar=64";
    class       volScalarField;
    location    "1.35";
    object      nu;
}
// * * * * * * * * * * * * * * * * * * * * * * * * * * * * * * * * * * * * * //

dimensions      [0 2 -1 0 0 0 0];

internalField   nonuniform List<scalar> 
1800
(
0.0272447
0.0359662
0.0749715
0.0229255
0.0134309
0.0109515
0.00975003
0.00905968
0.00887008
0.00865946
0.0282108
0.0441504
0.042404
0.0174989
0.0117101
0.00988817
0.00903141
0.0085067
0.00853034
0.00785876
0.0270937
0.0534226
0.0164578
0.010949
0.00925737
0.00854296
0.00819816
0.00795994
0.00814043
0.00772233
0.0332892
0.0161952
0.010426
0.00871116
0.00805888
0.00779284
0.00772677
0.00773994
0.00802782
0.00794731
0.0244403
0.0107983
0.00848005
0.00772887
0.00746975
0.00745456
0.00759551
0.00783904
0.00829908
0.008496
0.0131761
0.00865957
0.00754611
0.00721789
0.00721665
0.00742574
0.00780465
0.00834339
0.00908367
0.00979432
0.0095416
0.00758721
0.00703279
0.00698829
0.00723565
0.00772676
0.00846575
0.00946495
0.0107719
0.012089
0.00793266
0.00697415
0.00676931
0.0069906
0.00754827
0.00846589
0.00979303
0.0115361
0.0136596
0.0157974
0.00705878
0.00662192
0.00669779
0.00721856
0.00821023
0.00978802
0.0120147
0.0148849
0.01871
0.02374
0.00653814
0.00643791
0.00677827
0.00765971
0.00926984
0.0119255
0.0160135
0.0227727
0.0384548
0.102457
0.00758964
0.00899052
0.0113385
0.013959
0.0155449
0.0163529
0.0170382
0.0176519
0.0177923
0.0174738
0.00749089
0.00874632
0.0110854
0.0143431
0.0169416
0.0181155
0.0185768
0.018861
0.018909
0.0187009
0.00750681
0.00854412
0.0106281
0.0141017
0.0183742
0.0220487
0.0245336
0.0259652
0.0260408
0.0241723
0.00766153
0.00839807
0.0100173
0.0129193
0.0173707
0.0233471
0.0307989
0.0394816
0.0463607
0.0401472
0.00805445
0.00836308
0.00941556
0.011316
0.0138851
0.0166382
0.0191547
0.0212104
0.022636
0.0249187
0.00891758
0.00853585
0.00902856
0.0101659
0.0115985
0.0129782
0.0141124
0.0149267
0.0153802
0.0162653
0.0109675
0.00908353
0.00898417
0.00958834
0.0103834
0.0111226
0.0117184
0.012142
0.0123382
0.0127614
0.0176093
0.0104793
0.00943984
0.00958066
0.00994643
0.0102771
0.0105211
0.0106735
0.0107074
0.010882
0.0362025
0.0148365
0.0110323
0.0103427
0.0102521
0.0101732
0.0100544
0.00991023
0.00973877
0.00975288
0.0254034
0.0652178
0.0187274
0.0133911
0.0116771
0.0106736
0.00997573
0.00946346
0.00913319
0.00939183
0.0180457
0.0147063
0.0138359
0.0143154
0.0147287
0.0160427
0.0177879
0.0206123
0.0223496
0.0283797
0.0206948
0.0160559
0.0149924
0.0146364
0.0144287
0.0153461
0.0168221
0.0194659
0.0211969
0.0268011
0.0258615
0.0222861
0.0168023
0.0142592
0.0135073
0.0140839
0.0153794
0.0178369
0.0196001
0.0246096
0.029619
0.0834006
0.0168299
0.0130231
0.0122866
0.0125566
0.0135615
0.0156878
0.0174886
0.021869
0.0220724
0.028778
0.0145183
0.0121208
0.0115246
0.0115334
0.0120873
0.0136388
0.0152123
0.0189165
0.0166995
0.0168649
0.0132014
0.0116307
0.0111739
0.0111344
0.0113103
0.0122622
0.0133642
0.0162867
0.0136692
0.0135202
0.0125001
0.0111132
0.0108173
0.0110123
0.0111108
0.0116281
0.0122378
0.0143785
0.0118196
0.0120212
0.0117989
0.0105268
0.0103174
0.0107801
0.0111685
0.0115597
0.0118106
0.0132939
0.0105966
0.0116876
0.0113359
0.0101634
0.00997507
0.0104232
0.011164
0.0117932
0.0119544
0.0129654
0.00975874
0.0104559
0.0102645
0.00991871
0.00995564
0.0102277
0.0110694
0.0120886
0.0125189
0.0133087
0.00945557
0.009835
0.00997623
0.0101947
0.010371
0.0104201
0.011077
0.0123807
0.0134803
0.014564
0.00889877
0.00915299
0.00965604
0.0108818
0.0114533
0.0114284
0.0118256
0.0132087
0.0150718
0.0173836
0.00900815
0.009522
0.0113011
0.0133129
0.0124914
0.0125067
0.0132653
0.0150177
0.017562
0.0230432
0.0101501
0.0112704
0.0158944
0.0160915
0.0127548
0.0123559
0.0134273
0.016086
0.0196075
0.0301209
0.0122035
0.0143587
0.0262963
0.0183625
0.0133075
0.0128278
0.0136863
0.0160352
0.0189739
0.0262329
0.0157697
0.0161189
0.0241588
0.0145756
0.0116668
0.0115458
0.0124113
0.014054
0.0157933
0.0186821
0.0178155
0.0148576
0.0122965
0.00995235
0.00943252
0.00975881
0.0105188
0.0115353
0.0124361
0.0136134
0.011654
0.0100614
0.00850341
0.0079407
0.00809095
0.00862189
0.00927393
0.00992108
0.0103813
0.0108768
0.00797722
0.00746256
0.0072553
0.00747716
0.00798557
0.00853814
0.00895358
0.00925297
0.00939033
0.0095356
0.00678976
0.00699492
0.00754783
0.00870596
0.0102892
0.0111013
0.0106694
0.0100508
0.00953895
0.00927759
0.032145
0.053689
0.0231046
0.0160016
0.0125513
0.0103656
0.00898971
0.00856353
0.00805454
0.0084788
0.0199011
0.0260047
0.0234605
0.0229639
0.0159568
0.0150449
0.0113174
0.0104237
0.00900944
0.00846769
0.0177063
0.0190374
0.0190197
0.018921
0.0176966
0.0158435
0.0150584
0.0123341
0.0119598
0.00983409
0.0176971
0.0175575
0.0190213
0.0172816
0.0191829
0.0156955
0.0179668
0.0141017
0.015385
0.0121696
0.0184136
0.0182982
0.0200409
0.0189887
0.0208243
0.0182563
0.0197512
0.0169631
0.0177676
0.0152493
0.0167097
0.0175065
0.0178476
0.0192952
0.0193682
0.0213738
0.0205767
0.0218202
0.0207554
0.01989
0.013824
0.0144782
0.0142822
0.0152911
0.0151111
0.0167365
0.0162936
0.0188777
0.0178067
0.0215104
0.0107391
0.0110846
0.010773
0.0112208
0.0109558
0.01148
0.0112453
0.0118597
0.011612
0.0123299
0.0082045
0.00817627
0.00810984
0.00812696
0.00807496
0.00812545
0.00808825
0.0081587
0.00813149
0.00821439
0.0064563
0.00643111
0.006451
0.00644191
0.00648555
0.00648794
0.00655402
0.00656166
0.00665265
0.00666003
0.0101609
0.0105951
0.0104552
0.0103172
0.0102937
0.0105671
0.0113414
0.0100093
0.00704157
0.00580499
0.0105393
0.0106333
0.0104753
0.0102988
0.0102797
0.0106573
0.0116208
0.00984837
0.0069312
0.00576887
0.0108914
0.0109072
0.0107426
0.0105651
0.0105594
0.0110506
0.0121291
0.00958467
0.00682161
0.00574239
0.0113205
0.0113763
0.0112129
0.0110188
0.0110581
0.0117889
0.0129724
0.00926212
0.00671501
0.00572802
0.0118278
0.0119302
0.0117866
0.0116464
0.0118751
0.0131522
0.013909
0.0088749
0.00661537
0.0057301
0.0123685
0.0126585
0.0127299
0.0127459
0.0133827
0.0160081
0.0137303
0.00844564
0.00652395
0.00575226
0.0133657
0.0138019
0.0136775
0.0139034
0.0167302
0.0231067
0.012458
0.00801611
0.00644464
0.0058004
0.0143712
0.0147764
0.0160344
0.0202617
0.0290642
0.0204129
0.0107138
0.0076042
0.00638338
0.00588247
0.0164574
0.0201276
0.0349377
0.282061
0.0378042
0.0145762
0.00927418
0.0072453
0.0063501
0.00601246
0.0299431
0.0734836
0.0816846
0.0332767
0.016875
0.0109904
0.00831353
0.00697047
0.00636117
0.00621614
0.0119329
0.011524
0.0111631
0.0108428
0.0105475
0.0102882
0.010059
0.00978311
0.00929119
0.00787097
0.0117599
0.0113895
0.0110589
0.0107541
0.0104727
0.0102341
0.0100399
0.00974225
0.00889211
0.00725136
0.0116317
0.0112902
0.0109761
0.0106737
0.0103933
0.0101635
0.00999992
0.00968924
0.00853965
0.00684555
0.0115291
0.0112442
0.0109629
0.0106632
0.0103794
0.0101562
0.0100227
0.00968375
0.00824532
0.00656265
0.0113817
0.0111587
0.0109273
0.0106508
0.0103808
0.0101806
0.0100979
0.00972614
0.00799424
0.00635369
0.0112479
0.0110584
0.010857
0.0105944
0.0103527
0.0102128
0.0102329
0.00983132
0.00778937
0.00620063
0.0112733
0.01114
0.0109436
0.0106421
0.0103635
0.0102266
0.0103112
0.00985387
0.00759937
0.00607998
0.0112774
0.0111728
0.0110255
0.0107468
0.0104932
0.0104031
0.0105704
0.009936
0.00743322
0.00598509
0.011513
0.0113695
0.0111147
0.0107369
0.0104595
0.0104361
0.01076
0.00999197
0.00728913
0.00591039
0.0113815
0.0111562
0.011012
0.0107608
0.0105472
0.0106063
0.0110947
0.0100354
0.00715822
0.00585103
0.108117
0.0346489
0.0332754
0.0446785
0.0430462
0.04185
0.0345492
0.0282498
0.0198294
0.0137811
0.106076
0.033772
0.0316273
0.0429036
0.0436986
0.0436225
0.0378757
0.0290555
0.0203078
0.0135737
0.0989444
0.0328694
0.0302179
0.0413364
0.0438851
0.0449422
0.0425512
0.0296417
0.0209592
0.0134198
0.089768
0.0318993
0.0289439
0.039973
0.0438289
0.0463143
0.0490135
0.0299615
0.0216332
0.0132218
0.0805404
0.0308446
0.0278156
0.0387932
0.0438931
0.048061
0.0566146
0.0300632
0.0220988
0.0129543
0.0724214
0.029827
0.0269232
0.0377768
0.0443389
0.0497429
0.0607976
0.0302176
0.0215022
0.0128116
0.0661968
0.0291075
0.026294
0.0369186
0.0448024
0.050546
0.0559717
0.0301819
0.0201529
0.012572
0.0623736
0.0289696
0.0258075
0.0360446
0.0442832
0.0503029
0.0450558
0.0294799
0.0178397
0.0126218
0.0614474
0.0298128
0.0252955
0.0346382
0.0416382
0.0469783
0.0340256
0.0270737
0.0167816
0.0121924
0.0652485
0.0311844
0.0248026
0.0329432
0.0353843
0.035004
0.025021
0.0218861
0.0146735
0.0137686
0.0751419
0.0336693
0.0243107
0.0296802
0.025641
0.0254915
0.017169
0.0181989
0.0132095
0.0137925
0.0667087
0.0352137
0.0226203
0.0252868
0.0184297
0.02201
0.0133824
0.0176111
0.0117393
0.0129076
0.0554492
0.0353606
0.0211791
0.0204086
0.0165571
0.020574
0.0127299
0.0180248
0.0116693
0.0127492
0.0478797
0.0348312
0.0204245
0.0169579
0.0184701
0.0180965
0.014965
0.016754
0.0136905
0.0128078
0.0469334
0.0348459
0.0199085
0.015587
0.0226761
0.0171687
0.0219687
0.0160098
0.0176856
0.0136856
0.0522878
0.0329951
0.0199158
0.0156617
0.0205555
0.0181769
0.0229825
0.0177962
0.0203945
0.014901
0.0555349
0.0326103
0.0223074
0.017378
0.0165329
0.0200443
0.0165321
0.0216851
0.018066
0.0163964
0.0405331
0.0452128
0.0257983
0.0183952
0.0132518
0.0153999
0.0121147
0.0148873
0.0130416
0.0144925
0.0237297
0.0195066
0.0131217
0.0115679
0.0105324
0.0101706
0.00993786
0.0099301
0.00972502
0.00972607
0.00793882
0.00787223
0.008417
0.00853949
0.00849654
0.00806904
0.00826476
0.00754478
0.00757732
0.00718943
0.0111772
0.0111652
0.0111827
0.0114971
0.0119548
0.0124674
0.0131619
0.0142663
0.0153192
0.0190486
0.0117988
0.0117642
0.0118997
0.0123492
0.0128685
0.0135637
0.0141216
0.0151573
0.0161349
0.017595
0.0126172
0.0126849
0.0129762
0.0135432
0.0140289
0.0147337
0.0150836
0.0159268
0.0163902
0.017537
0.0134807
0.0135638
0.0138684
0.0142328
0.0146154
0.0150024
0.0153682
0.0158208
0.0163956
0.0168878
0.0143647
0.0143466
0.0146246
0.0148213
0.0152233
0.0153991
0.0158969
0.0161213
0.0169266
0.0171564
0.0152669
0.0151719
0.0153899
0.015489
0.0157258
0.0156851
0.0158251
0.0158975
0.0160734
0.0164323
0.0159343
0.0154868
0.0151735
0.0148927
0.0145944
0.0143614
0.0140241
0.0140509
0.013735
0.0140983
0.0131932
0.0126738
0.0121849
0.0118946
0.0115691
0.0114296
0.0111525
0.0111529
0.0108644
0.0110421
0.00950501
0.00930138
0.00911573
0.00895586
0.00881496
0.00868609
0.00856301
0.00845515
0.00835531
0.00828331
0.00706931
0.00696711
0.00687422
0.00678446
0.00670983
0.0066367
0.00658487
0.0065292
0.00650153
0.00646103
0.00591856
0.00672455
0.00855728
0.0140714
0.0563942
0.0215266
0.0141148
0.0116006
0.00985306
0.00830705
0.00599699
0.00666107
0.00813857
0.012175
0.0305261
0.0282297
0.0161399
0.0119723
0.00983226
0.0082641
0.00611953
0.00663451
0.00778002
0.0105029
0.0172825
0.0220161
0.0169909
0.0126454
0.0101115
0.00843405
0.0062987
0.00665392
0.00750463
0.00936915
0.0130956
0.0170151
0.0164519
0.0133823
0.0106883
0.00879527
0.00655244
0.00673064
0.00732271
0.00862615
0.0110331
0.0140894
0.0153092
0.0139088
0.0114962
0.00937606
0.00690803
0.00688006
0.00723409
0.00813856
0.00979736
0.0121843
0.0141192
0.0141798
0.0125434
0.0101521
0.00740849
0.00713085
0.00724851
0.00782583
0.00896091
0.0107633
0.0128373
0.0139429
0.0135583
0.0113542
0.00811114
0.00752625
0.00740026
0.00768626
0.00839777
0.00963204
0.0114024
0.0131655
0.0140758
0.0124662
0.00908595
0.00811427
0.00773753
0.00776368
0.00813513
0.00887661
0.0100207
0.0114507
0.0130461
0.0124361
0.0104114
0.00893054
0.00831103
0.00811219
0.00822238
0.00862616
0.0093237
0.0102623
0.0115261
0.0123527
0.0121083
0.00996683
0.00916533
0.00879285
0.008686
0.00882594
0.00919962
0.00977601
0.0103393
0.0115107
0.0137228
0.0110441
0.010296
0.00991911
0.00965388
0.00954475
0.00964058
0.00992047
0.0100487
0.0108325
0.0138548
0.0115797
0.0113192
0.0114343
0.0113258
0.010979
0.0107166
0.0106532
0.0104383
0.0107923
0.0125943
0.0114483
0.0117754
0.0127547
0.0137381
0.0136793
0.0128225
0.0121766
0.0115427
0.0114423
0.0112536
0.0111158
0.0119429
0.013617
0.0164404
0.0196357
0.0186269
0.0162308
0.0141256
0.0129114
0.0100751
0.0106715
0.0119123
0.0139665
0.0175212
0.0257371
0.0412971
0.0293796
0.0186491
0.0150281
0.00914536
0.0102329
0.0118306
0.0142414
0.0180912
0.027033
0.0632387
0.0580492
0.0237772
0.0172929
0.00851541
0.00989234
0.0118156
0.0142899
0.0171971
0.0208502
0.0252281
0.0272534
0.0222376
0.0179153
0.00808928
0.00958549
0.0117405
0.0140339
0.0157419
0.0170918
0.0185293
0.0196521
0.0189806
0.0172905
0.00779132
0.00928167
0.011566
0.0138396
0.0151624
0.0160136
0.0169036
0.0176691
0.017688
0.0170451
0.0111654
0.0122322
0.015094
0.0244196
0.0601746
0.0319475
0.0261056
0.0259802
0.025977
0.0320427
0.0110473
0.0122379
0.0153121
0.0223975
0.0335663
0.0287456
0.025509
0.025928
0.0264605
0.0343502
0.0112348
0.0122922
0.0153733
0.0202032
0.026437
0.0263521
0.0248806
0.0256559
0.0263987
0.034508
0.0116684
0.0125354
0.0155037
0.0190106
0.0231883
0.0242375
0.024027
0.0251926
0.0260198
0.0337104
0.0121378
0.013078
0.0154997
0.0181578
0.0210162
0.0224877
0.0231093
0.0246523
0.0255082
0.03264
0.0127621
0.0138337
0.0151745
0.0172417
0.0193081
0.0210272
0.0222359
0.0241381
0.0250356
0.0316967
0.0136316
0.014485
0.0146582
0.0162622
0.0178602
0.019725
0.021375
0.0236333
0.02465
0.0310235
0.0144467
0.0147271
0.0141304
0.0153532
0.0166378
0.0185355
0.0204759
0.0230598
0.0242832
0.0305492
0.0152761
0.0146309
0.013704
0.0146465
0.0156751
0.0174948
0.0195469
0.022365
0.0238286
0.0300876
0.0164185
0.014497
0.013521
0.0142617
0.0150368
0.016665
0.0186425
0.0215468
0.0232025
0.029427
0.0103855
0.0142826
0.0185173
0.0263978
0.0283058
0.0221368
0.0170568
0.0142091
0.0128962
0.0120261
0.00930804
0.0111908
0.0135828
0.0160047
0.0164917
0.0151248
0.0139922
0.0131238
0.0126501
0.012181
0.00957551
0.0112303
0.0139636
0.0168657
0.0178649
0.0172315
0.0162169
0.0154586
0.0149904
0.0144561
0.0104093
0.0116881
0.0150454
0.0224677
0.0299908
0.0246703
0.0212715
0.0202172
0.0194665
0.0193052
0.0117608
0.0124336
0.0153577
0.0262288
0.120575
0.030722
0.02481
0.0242292
0.0237441
0.0262243
0.00595203
0.00605347
0.00620296
0.00641
0.00665733
0.00697818
0.00734418
0.00774319
0.00833225
0.00863597
0.00618606
0.00626837
0.00640491
0.00659408
0.0068115
0.00708154
0.00737106
0.00764704
0.00809585
0.00826488
0.00649307
0.00655279
0.00668361
0.00686753
0.00708499
0.00734821
0.00759539
0.00793715
0.00828268
0.00867907
0.00690285
0.0069365
0.00707563
0.00728138
0.00756073
0.0078871
0.00820748
0.00886181
0.00910713
0.0103374
0.00743148
0.0074344
0.00759487
0.0078618
0.00826865
0.00873824
0.00940097
0.010465
0.01081
0.0132996
0.0130091
0.0127956
0.0125827
0.0121564
0.0117245
0.0114233
0.0112684
0.0106414
0.00846748
0.00658443
0.0132946
0.0129917
0.0125294
0.0119631
0.0115082
0.011225
0.0110923
0.0106378
0.00876179
0.00678281
0.0127935
0.012546
0.0122553
0.011879
0.0115387
0.0112853
0.0111168
0.0107046
0.0091029
0.00703312
0.0128681
0.0126002
0.0122723
0.0118721
0.011487
0.0111647
0.0109188
0.0105825
0.00945338
0.00737158
0.0128176
0.0124633
0.0120831
0.011681
0.011306
0.0109908
0.0107511
0.0105344
0.0099124
0.00788562
0.012735
0.0123197
0.01191
0.0115126
0.0111434
0.0108244
0.01058
0.0104636
0.0104081
0.00871724
0.0125958
0.0121372
0.0117078
0.011312
0.0109412
0.0106112
0.010355
0.0103192
0.0108826
0.0104097
0.0124249
0.0119506
0.0115203
0.0111347
0.0107704
0.010439
0.0101671
0.010106
0.0109551
0.0138826
0.0122522
0.0117891
0.0113784
0.0110181
0.010682
0.0103764
0.0101077
0.00995991
0.010415
0.011628
0.0120911
0.0116541
0.0112698
0.0109333
0.0106229
0.010346
0.0100958
0.00986757
0.00979682
0.00900777
0.00858634
0.0100966
0.0115318
0.0128277
0.0147458
0.0185985
0.0141703
0.00898641
0.00681499
0.00587451
0.00912163
0.0104152
0.0113987
0.0121583
0.0128953
0.0139425
0.0137358
0.00939468
0.0069223
0.00585812
0.00977777
0.0106534
0.0111648
0.0114981
0.0118451
0.0123923
0.0125481
0.00966596
0.00704638
0.00586723
0.0102532
0.0107213
0.0109728
0.0111168
0.0112399
0.0115168
0.0118145
0.00988284
0.00718146
0.00589591
0.0105066
0.0107625
0.010876
0.0109129
0.0109428
0.0111084
0.0113893
0.0100225
0.00731995
0.00594296
0.0107423
0.0109154
0.0109389
0.0108809
0.0108216
0.0109029
0.0111602
0.0101544
0.00747112
0.0060058
0.0110926
0.0112004
0.0111105
0.0109501
0.0108228
0.0108518
0.0110761
0.0102728
0.00763209
0.0060838
0.0115484
0.0115185
0.0112796
0.0110346
0.0108714
0.0108725
0.0110635
0.0103865
0.00780791
0.00617801
0.0118566
0.0116397
0.0113393
0.0111066
0.0109647
0.0109638
0.0111182
0.0105058
0.0080052
0.00629099
0.0115895
0.011707
0.0115516
0.0113704
0.0112284
0.0111804
0.0112368
0.0106162
0.00822611
0.00642514
0.0359228
0.0418576
0.0655311
0.0310357
0.0259011
0.0260339
0.029369
0.0409273
0.0274311
0.0190198
0.0398881
0.0404118
0.109314
0.03551
0.0273753
0.0262255
0.0280419
0.0296815
0.0259845
0.0159516
0.0447144
0.0399383
0.122124
0.0391798
0.0286244
0.0267431
0.0279921
0.026772
0.0249152
0.0149514
0.0504995
0.0392244
0.0904841
0.0420828
0.0297294
0.0273169
0.0277685
0.0250422
0.0231449
0.0149179
0.0572106
0.0384671
0.0677221
0.0448821
0.0311067
0.0282352
0.0276853
0.0244082
0.0217537
0.0149776
0.0647992
0.0378445
0.054904
0.047529
0.0329687
0.0296723
0.0279194
0.0245181
0.0208226
0.0149366
0.0734252
0.037335
0.0470535
0.0492985
0.0352435
0.0316301
0.028441
0.0250074
0.0201631
0.0147679
0.0832672
0.036829
0.0417909
0.0495407
0.0376827
0.0340379
0.0292564
0.025692
0.0197303
0.0145138
0.093893
0.0362234
0.0380675
0.0484128
0.0399661
0.0367469
0.0304522
0.0264904
0.0195309
0.0142419
0.103346
0.0354848
0.0353417
0.0466012
0.0418053
0.0394758
0.0321598
0.0273618
0.0195617
0.0139944
0.00724447
0.00743376
0.0083994
0.00898481
0.00959859
0.00974042
0.00990398
0.00953964
0.00951154
0.00799099
0.0149949
0.0106498
0.00980321
0.0101304
0.0105609
0.0109505
0.0114384
0.0116575
0.0118519
0.0116815
0.0249293
0.0217361
0.0128142
0.0123487
0.0124711
0.0131141
0.0139909
0.0158545
0.0162091
0.0150666
0.0295943
0.0626443
0.0195555
0.0165601
0.0160188
0.0170077
0.0186761
0.0264812
0.0301205
0.0156742
0.0327048
0.0459667
0.0342699
0.0230239
0.0208099
0.0217523
0.0246782
0.0456466
0.0398089
0.0177308
0.00749946
0.00716343
0.00683955
0.00655521
0.00632278
0.0061411
0.00600891
0.00592554
0.00588882
0.0058976
0.0106009
0.00971218
0.00888002
0.00816705
0.00754312
0.00702515
0.00663639
0.00637581
0.0062261
0.0061685
0.0126575
0.0116327
0.0106828
0.00988414
0.0090901
0.00828017
0.0075581
0.00702358
0.00669198
0.00652862
0.0128124
0.0119297
0.0112599
0.0107642
0.0102344
0.00953736
0.00867121
0.00786384
0.0073071
0.00700701
0.0129569
0.0120555
0.0113362
0.0108406
0.0104459
0.0100604
0.00951903
0.00877265
0.00807425
0.00762473
)
;

boundaryField
{
    left
    {
        type            calculated;
        value           nonuniform List<scalar> 
35
(
0.0278228
0.0274132
0.0274026
0.0284536
0.0308062
0.0336703
0.0346095
0.0304164
0.0200914
0.00790522
0.0434342
0.0412544
0.0390518
0.0368544
0.0346984
0.0326483
0.0308071
0.0292958
0.0282396
0.0277718
0.0354915
0.0395519
0.043715
0.0472444
0.0495098
0.0503904
0.0501597
0.0491181
0.0475062
0.0455505
0.00720858
0.0137343
0.0221812
0.0275438
0.0318095
)
;
    }
    right
    {
        type            calculated;
        value           nonuniform List<scalar> 
35
(
0.01203
0.0121971
0.0145375
0.0197291
0.0280757
0.0367717
0.0414432
0.042789
0.0424566
0.0415725
0.0408865
0.0407265
0.0410114
0.0413746
0.0412978
0.0402228
0.0376432
0.033305
0.0277346
0.0223082
0.01814
0.0154639
0.0140448
0.0136089
0.0139931
0.0155088
0.0189864
0.0272063
0.0380121
0.0285643
0.0191384
0.01378
0.0109488
0.00956276
0.0092843
)
;
    }
    down
    {
        type            calculated;
        value           nonuniform List<scalar> 
40
(
0.0063795
0.00676727
0.00798525
0.00862284
0.00929472
0.00932347
0.00935985
0.00888144
0.00873812
0.00716005
0.00677544
0.00653761
0.00630894
0.00611502
0.00596956
0.00586747
0.00580091
0.00576583
0.00576117
0.0057893
0.0058562
0.00596613
0.00612347
0.00634153
0.00660688
0.00695799
0.00736643
0.00786305
0.00857085
0.00908098
0.0121919
0.0237005
0.0414992
0.121641
0.0682417
0.11638
0.0284639
0.0171453
0.0141081
0.0125882
)
;
    }
    up
    {
        type            calculated;
        value           nonuniform List<scalar> 
40
(
0.0064986
0.00713193
0.00871088
0.0127365
0.0315849
0.0418679
0.0159493
0.0116803
0.0100792
0.00943207
0.00600865
0.00599667
0.00602278
0.00602121
0.0060734
0.00607744
0.00615648
0.00616054
0.00627052
0.00627015
0.00647858
0.00639497
0.00631737
0.00624541
0.00618361
0.0061284
0.00608788
0.00605059
0.00603102
0.00600714
0.00678369
0.0068211
0.00751942
0.00783212
0.00787113
0.00752095
0.00765949
0.00693669
0.00696738
0.00658906
)
;
    }
    cylinder
    {
        type            calculated;
        value           nonuniform List<scalar> 
80
(
0.00718241
0.00713285
0.00721956
0.00748794
0.00810644
0.00956905
0.0142262
0.0255056
0.0200096
0.0171196
0.0233636
0.0222222
0.0179133
0.0201905
0.0390768
0.0304427
0.0131273
0.00921271
0.00761338
0.00676754
0.00551792
0.00549565
0.00548359
0.00548486
0.00550504
0.0055503
0.00562986
0.005757
0.00595544
0.00626728
0.00726497
0.00670384
0.00635254
0.00611386
0.00594153
0.00581788
0.00572204
0.00564827
0.00559189
0.00554904
0.00612098
0.00627837
0.00647764
0.00675116
0.00717188
0.00787677
0.00941177
0.0137387
0.011552
0.00838147
0.0056275
0.00558916
0.00557839
0.0055887
0.00561876
0.00566407
0.0057235
0.00579731
0.00588697
0.00599396
0.00569871
0.0058123
0.00598191
0.00622515
0.00656695
0.00704561
0.00772223
0.00868373
0.0100582
0.0120842
0.015198
0.0190143
0.0183443
0.0144258
0.0117503
0.00996166
0.00877101
0.00805818
0.00762376
0.00734737
)
;
    }
    defaultFaces
    {
        type            empty;
    }
}


// ************************************************************************* //
