/*--------------------------------*- C++ -*----------------------------------*\
| =========                 |                                                 |
| \\      /  F ield         | OpenFOAM: The Open Source CFD Toolbox           |
|  \\    /   O peration     | Version:  2406                                  |
|   \\  /    A nd           | Website:  www.openfoam.com                      |
|    \\/     M anipulation  |                                                 |
\*---------------------------------------------------------------------------*/
FoamFile
{
    version     2.0;
    format      ascii;
    arch        "LSB;label=32;scalar=64";
    class       volScalarField;
    location    "1.35";
    object      p;
}
// * * * * * * * * * * * * * * * * * * * * * * * * * * * * * * * * * * * * * //

dimensions      [0 2 -2 0 0 0 0];

internalField   nonuniform List<scalar> 
1800
(
-0.77047
-0.773731
-0.76576
-0.755132
-0.745596
-0.731633
-0.71524
-0.700016
-0.688422
-0.687193
-0.776553
-0.780147
-0.772642
-0.763088
-0.755202
-0.743645
-0.729869
-0.715779
-0.70189
-0.705746
-0.808545
-0.807798
-0.801994
-0.794455
-0.784895
-0.773221
-0.760227
-0.74717
-0.733128
-0.734998
-0.845205
-0.839776
-0.830719
-0.822073
-0.8118
-0.799353
-0.785279
-0.770747
-0.755944
-0.748251
-0.882112
-0.874877
-0.866522
-0.855944
-0.842943
-0.827549
-0.810428
-0.792693
-0.775372
-0.761388
-0.93529
-0.920887
-0.910605
-0.897082
-0.879579
-0.858694
-0.835702
-0.811873
-0.788312
-0.766028
-0.993145
-0.975314
-0.962425
-0.944192
-0.919693
-0.890775
-0.859711
-0.828094
-0.796901
-0.767247
-1.05736
-1.03606
-1.01875
-0.992638
-0.957858
-0.918341
-0.877286
-0.836473
-0.796924
-0.759367
-1.12337
-1.09752
-1.07277
-1.03511
-0.987308
-0.935601
-0.883828
-0.833695
-0.7858
-0.740481
-1.18163
-1.15075
-1.11457
-1.06222
-1.00025
-0.936494
-0.874913
-0.815989
-0.757166
-0.700637
-1.08898
-1.09199
-1.09185
-1.09125
-1.09046
-1.08997
-1.09017
-1.09093
-1.09242
-1.09572
-1.09964
-1.09973
-1.09919
-1.09939
-1.10021
-1.1019
-1.10504
-1.10977
-1.11619
-1.12507
-1.10093
-1.09771
-1.09675
-1.09775
-1.10059
-1.10501
-1.11117
-1.11919
-1.12932
-1.1426
-1.08858
-1.08161
-1.08012
-1.08184
-1.08654
-1.09407
-1.10417
-1.11664
-1.13136
-1.14864
-1.06035
-1.04915
-1.04663
-1.04798
-1.05308
-1.06226
-1.07537
-1.09202
-1.11146
-1.13287
-1.01736
-1.00247
-0.998281
-0.997627
-1.00061
-1.00798
-1.0197
-1.03542
-1.05455
-1.07628
-0.964994
-0.947837
-0.941566
-0.937434
-0.936086
-0.938831
-0.945908
-0.957147
-0.972178
-0.990321
-0.906173
-0.892043
-0.883997
-0.876015
-0.869222
-0.865306
-0.864917
-0.868278
-0.875452
-0.886846
-0.852165
-0.844008
-0.832616
-0.821893
-0.810463
-0.799576
-0.790452
-0.784124
-0.781557
-0.78543
-0.807165
-0.80435
-0.793229
-0.782977
-0.768914
-0.752881
-0.736795
-0.722904
-0.713134
-0.710672
-1.12105
-1.17549
-1.0842
-0.849243
-0.582049
-0.348942
-0.186715
-0.089001
-0.0323131
-0.00409968
-1.18082
-1.29901
-1.20713
-0.938287
-0.619691
-0.354631
-0.177213
-0.0769943
-0.022933
-0.000500441
-1.23684
-1.43496
-1.3539
-1.04247
-0.66515
-0.361987
-0.166797
-0.0636085
-0.0124613
0.00377899
-1.28013
-1.57673
-1.5104
-1.15833
-0.717749
-0.371303
-0.15597
-0.0492052
-0.00108844
0.00872049
-1.29587
-1.70724
-1.67365
-1.28128
-0.776804
-0.383721
-0.146295
-0.0350272
0.0104678
0.0140108
-1.27109
-1.80752
-1.83192
-1.40871
-0.842289
-0.400906
-0.139999
-0.0230475
0.0208977
0.0189444
-1.19951
-1.87061
-1.97173
-1.53655
-0.913992
-0.424309
-0.139079
-0.0153061
0.0285627
0.0225515
-1.0846
-1.88909
-2.08307
-1.65744
-0.989382
-0.454395
-0.144649
-0.0131645
0.0320024
0.0239969
-0.93669
-1.85881
-2.15644
-1.76055
-1.06367
-0.490416
-0.157175
-0.0171272
0.0304184
0.0229605
-0.781988
-1.78617
-2.16686
-1.84179
-1.13336
-0.530599
-0.176574
-0.0271629
0.0238423
0.0196181
-0.639863
-1.73768
-2.19768
-1.87915
-1.16376
-0.554311
-0.197217
-0.044093
0.0103185
0.0129252
-0.623934
-1.69332
-2.1323
-1.79952
-1.12735
-0.564479
-0.231749
-0.076982
-0.0126227
0.00280694
-0.674361
-1.60104
-1.99491
-1.67429
-1.0815
-0.582338
-0.277937
-0.118923
-0.0387977
-0.00630595
-0.700514
-1.45221
-1.79236
-1.53134
-1.04179
-0.612663
-0.330963
-0.164559
-0.0666953
-0.0154392
-0.687465
-1.26699
-1.5735
-1.39647
-1.01905
-0.662223
-0.395314
-0.212915
-0.0937574
-0.0244056
-0.645163
-1.091
-1.36766
-1.28422
-1.01773
-0.724533
-0.464793
-0.263476
-0.122157
-0.033304
-0.578465
-0.924907
-1.18606
-1.20149
-1.04212
-0.797854
-0.529408
-0.304773
-0.141695
-0.0378113
-0.500025
-0.782832
-1.04324
-1.14846
-1.07112
-0.84902
-0.570088
-0.330068
-0.153341
-0.0399063
-0.418121
-0.705553
-0.963719
-1.0977
-1.07107
-0.867602
-0.586825
-0.342645
-0.159961
-0.0415811
-0.371846
-0.676065
-0.96868
-1.10834
-1.05959
-0.852343
-0.579574
-0.343132
-0.161935
-0.0425737
-0.600539
-0.6542
-0.68969
-0.712409
-0.726901
-0.736141
-0.732654
-0.711993
-0.673762
-0.685022
-0.479553
-0.54107
-0.59069
-0.628763
-0.656866
-0.677231
-0.689
-0.693311
-0.696738
-0.708746
-0.376986
-0.439606
-0.495398
-0.541684
-0.580289
-0.611535
-0.638638
-0.663733
-0.68079
-0.698479
-0.285955
-0.34875
-0.406835
-0.457224
-0.502395
-0.542618
-0.578129
-0.613013
-0.637811
-0.66739
-0.205103
-0.267531
-0.325567
-0.378326
-0.425664
-0.470937
-0.509236
-0.549263
-0.581345
-0.62057
-0.13465
-0.19597
-0.252663
-0.305328
-0.352414
-0.398362
-0.438039
-0.479911
-0.517127
-0.559913
-0.0755404
-0.135268
-0.190197
-0.240759
-0.286671
-0.330231
-0.369905
-0.409859
-0.448536
-0.488739
-0.0278185
-0.0866312
-0.139146
-0.18758
-0.231515
-0.271639
-0.309121
-0.344531
-0.379586
-0.414368
0.0014971
-0.0560195
-0.106646
-0.153318
-0.194813
-0.231532
-0.26509
-0.293928
-0.320962
-0.346647
0.0141028
-0.0426401
-0.0948884
-0.14197
-0.18431
-0.221155
-0.253289
-0.279652
-0.302183
-0.31977
0.657959
0.59535
0.524406
0.450467
0.372474
0.288214
0.198333
0.108343
0.0273248
-0.0245917
0.486751
0.421324
0.349106
0.271605
0.187269
0.094533
-0.00490586
-0.104238
-0.193019
-0.251293
0.294086
0.228195
0.15614
0.0773878
-0.00980199
-0.106692
-0.211074
-0.31571
-0.40907
-0.471354
0.107943
0.0410381
-0.0325171
-0.113547
-0.203477
-0.303281
-0.410528
-0.518264
-0.614488
-0.67671
-0.0617854
-0.130886
-0.206915
-0.290592
-0.383117
-0.485058
-0.593308
-0.703151
-0.797819
-0.859309
-0.213387
-0.28487
-0.362944
-0.448079
-0.541648
-0.643888
-0.751597
-0.85841
-0.950999
-1.01033
-0.346542
-0.419461
-0.498171
-0.583934
-0.676787
-0.776712
-0.880488
-0.98241
-1.06958
-1.12413
-0.466359
-0.537748
-0.613269
-0.690469
-0.776694
-0.874539
-0.973492
-1.06906
-1.14731
-1.19593
-0.557399
-0.621894
-0.694793
-0.77502
-0.860976
-0.949634
-1.03722
-1.12009
-1.18487
-1.22695
-0.637627
-0.700867
-0.770596
-0.841841
-0.914667
-0.98979
-1.06518
-1.13341
-1.1839
-1.21996
1.63134
1.63967
1.6482
1.65607
1.66283
1.66815
1.67173
1.67352
1.67578
1.69069
1.58915
1.59526
1.60097
1.60558
1.60871
1.61002
1.60927
1.6069
1.6058
1.61774
1.5284
1.53151
1.5336
1.53409
1.53271
1.52903
1.52284
1.51502
1.50911
1.51688
1.4504
1.44992
1.44742
1.44265
1.43552
1.42557
1.41257
1.39785
1.38558
1.38782
1.3562
1.35143
1.3435
1.33256
1.31871
1.30142
1.28049
1.25765
1.23772
1.23349
1.24833
1.23913
1.22513
1.20699
1.18511
1.15895
1.12845
1.09594
1.0669
1.0556
1.12734
1.11314
1.09284
1.06743
1.03741
1.00207
0.961413
0.918403
0.879205
0.860904
1.00138
0.981381
0.952793
0.917851
0.877752
0.831878
0.780375
0.726673
0.67727
0.650754
0.874663
0.848376
0.810936
0.765768
0.71455
0.656667
0.592592
0.52661
0.466137
0.430731
0.759719
0.718581
0.665781
0.606895
0.543171
0.473059
0.39677
0.319061
0.24817
0.204214
1.58463
1.56276
1.5553
1.53668
1.52536
1.51017
1.50443
1.50796
1.53022
1.59468
1.58323
1.56003
1.55369
1.53488
1.52269
1.50539
1.49864
1.49862
1.51547
1.57034
1.5824
1.55759
1.55232
1.53297
1.51963
1.4997
1.49177
1.48659
1.49581
1.53544
1.58198
1.55544
1.55118
1.53094
1.51617
1.49314
1.48389
1.47183
1.47168
1.48946
1.58187
1.55353
1.55028
1.52878
1.51234
1.48573
1.47487
1.45427
1.44361
1.43218
1.58199
1.55191
1.54964
1.52644
1.50814
1.47746
1.46456
1.43387
1.4121
1.36305
1.58233
1.55052
1.54923
1.52389
1.50352
1.46833
1.45297
1.41076
1.37773
1.28091
1.58293
1.54936
1.54904
1.52109
1.49837
1.45818
1.44019
1.38529
1.34025
1.1874
1.5838
1.54855
1.54915
1.51807
1.49249
1.44652
1.42621
1.35787
1.29888
1.0816
1.58488
1.54887
1.54996
1.51514
1.48579
1.43334
1.41112
1.32974
1.25652
0.972398
1.5868
1.54835
1.55064
1.51187
1.47918
1.41936
1.39345
1.29915
1.20457
0.87118
1.59232
1.55071
1.5559
1.51113
1.475
1.40618
1.37538
1.27535
1.16033
0.880939
1.59897
1.55282
1.56165
1.51167
1.47245
1.39757
1.35836
1.25585
1.12027
0.885789
1.60625
1.55517
1.5666
1.51397
1.4699
1.39442
1.34131
1.23953
1.08433
0.879159
1.61467
1.55804
1.56882
1.51465
1.46488
1.39421
1.32331
1.22573
1.05489
0.86585
1.62426
1.56064
1.56707
1.50783
1.45769
1.39305
1.30436
1.21572
1.03468
0.852085
1.63548
1.56229
1.55823
1.49245
1.44889
1.38993
1.28587
1.21158
1.02433
0.841409
1.65181
1.56622
1.5504
1.4776
1.4393
1.38696
1.26783
1.21606
1.02155
0.835921
1.66738
1.57152
1.54622
1.46897
1.43081
1.38446
1.25262
1.22387
1.02043
0.836689
1.71252
1.57245
1.54312
1.46478
1.43171
1.38193
1.2532
1.23539
1.02091
0.851992
0.649599
0.505859
0.331982
0.163219
0.0106524
-0.125596
-0.248023
-0.358254
-0.453448
-0.534838
0.612339
0.49245
0.353344
0.214637
0.0869967
-0.0293014
-0.136632
-0.237435
-0.329481
-0.410495
0.603757
0.492467
0.374097
0.257703
0.148585
0.0461394
-0.0507427
-0.143242
-0.22888
-0.307227
0.607479
0.503539
0.398682
0.298792
0.204569
0.113907
0.0260278
-0.059194
-0.140481
-0.216138
0.618168
0.523321
0.428644
0.339935
0.256147
0.174336
0.0934068
0.0137562
-0.0637191
-0.136621
0.632589
0.546617
0.460088
0.378814
0.301769
0.225897
0.150191
0.0748517
0.0014493
-0.068623
0.648078
0.570844
0.491548
0.415526
0.342434
0.270122
0.197857
0.125465
0.0556507
-0.0120689
0.664
0.594429
0.521541
0.449628
0.378643
0.308546
0.238428
0.168871
0.100923
0.0338268
0.675774
0.610179
0.541189
0.471275
0.400423
0.330375
0.259932
0.191788
0.125477
0.0615297
0.69447
0.629921
0.562284
0.491899
0.419991
0.348584
0.277733
0.208882
0.14075
0.075945
-1.1903
-1.14744
-1.08534
-1.01517
-0.945822
-0.88193
-0.825689
-0.777892
-0.738698
-0.708819
-1.29432
-1.2546
-1.19673
-1.12779
-1.06011
-0.997699
-0.942474
-0.894638
-0.854843
-0.824612
-1.35854
-1.32265
-1.27088
-1.20602
-1.14041
-1.07898
-1.02393
-0.976212
-0.935664
-0.903639
-1.38666
-1.35514
-1.31092
-1.25277
-1.19033
-1.1302
-1.07552
-1.02756
-0.986109
-0.951939
-1.38598
-1.3589
-1.32326
-1.27357
-1.21648
-1.15897
-1.1051
-1.0568
-1.01436
-0.978164
-1.36543
-1.34252
-1.31509
-1.27454
-1.22462
-1.17154
-1.11962
-1.07163
-1.0289
-0.992094
-1.33396
-1.31488
-1.29418
-1.26233
-1.22067
-1.17375
-1.12554
-1.07915
-1.03699
-1.0011
-1.29875
-1.28314
-1.26748
-1.2429
-1.2091
-1.16874
-1.12503
-1.08092
-1.03948
-1.00383
-1.26472
-1.2523
-1.24048
-1.2217
-1.19466
-1.16053
-1.12173
-1.08075
-1.04098
-1.00765
-1.23399
-1.22478
-1.21605
-1.20175
-1.17994
-1.15055
-1.11499
-1.07512
-1.033
-0.995299
-1.20557
-1.19996
-1.19397
-1.18322
-1.16574
-1.14086
-1.10925
-1.07282
-1.03295
-0.98898
-1.17587
-1.17406
-1.17051
-1.16241
-1.14811
-1.12693
-1.09907
-1.06596
-1.02853
-0.983322
-1.14287
-1.14441
-1.14248
-1.13621
-1.12364
-1.10474
-1.08001
-1.05047
-1.01619
-0.973552
-1.11108
-1.11495
-1.1141
-1.10897
-1.09803
-1.08081
-1.05853
-1.03302
-1.00364
-0.967092
-1.08492
-1.09053
-1.09042
-1.08679
-1.07871
-1.06442
-1.0442
-1.02179
-0.99885
-0.969838
-1.06434
-1.0715
-1.07181
-1.06911
-1.06369
-1.05391
-1.03754
-1.01876
-1.00164
-0.981251
-1.05279
-1.06033
-1.06046
-1.05769
-1.05313
-1.04719
-1.03707
-1.02164
-1.00736
-0.992359
-1.05282
-1.05993
-1.06025
-1.05839
-1.05521
-1.05065
-1.04333
-1.03188
-1.01911
-1.00743
-1.06146
-1.06774
-1.06818
-1.06696
-1.06463
-1.06116
-1.05616
-1.04891
-1.04046
-1.03287
-1.07488
-1.07987
-1.08011
-1.07913
-1.07735
-1.0751
-1.0725
-1.06931
-1.06586
-1.06355
-0.870349
-0.710527
-0.663981
-0.599872
-0.508056
-0.385916
-0.269894
-0.169472
-0.0906092
-0.0252318
-0.860761
-0.711407
-0.669293
-0.599674
-0.499322
-0.37712
-0.261725
-0.163258
-0.0866421
-0.0238263
-0.858522
-0.720868
-0.679964
-0.602064
-0.494174
-0.369181
-0.253461
-0.156616
-0.0821612
-0.022092
-0.866117
-0.739728
-0.696916
-0.607961
-0.492318
-0.362286
-0.245245
-0.149688
-0.0773452
-0.0202063
-0.88188
-0.767605
-0.720623
-0.618083
-0.492993
-0.356299
-0.237057
-0.142472
-0.0722345
-0.0182543
-0.903727
-0.804573
-0.751679
-0.631472
-0.496362
-0.351279
-0.228892
-0.134945
-0.0668327
-0.0162631
-0.931482
-0.85152
-0.791165
-0.652697
-0.503052
-0.34738
-0.220713
-0.127043
-0.0610962
-0.0142224
-0.966963
-0.909434
-0.841824
-0.68176
-0.513795
-0.344842
-0.212465
-0.118647
-0.0549207
-0.0120811
-1.01144
-0.980998
-0.906661
-0.720763
-0.529696
-0.344018
-0.204098
-0.109615
-0.0481644
-0.00975525
-1.06351
-1.06913
-0.984544
-0.777193
-0.552144
-0.345314
-0.195562
-0.0997926
-0.0406771
-0.0071372
-0.86566
-0.727331
-0.673656
-0.59852
-0.495989
-0.375712
-0.26553
-0.169529
-0.0910239
-0.0253094
-0.857416
-0.720741
-0.667773
-0.597315
-0.499679
-0.378622
-0.2689
-0.171615
-0.0922659
-0.0258572
-0.85458
-0.714668
-0.663574
-0.597051
-0.50074
-0.380634
-0.270316
-0.172034
-0.0924434
-0.0258002
-0.852593
-0.708757
-0.659135
-0.595765
-0.503783
-0.383798
-0.27233
-0.172814
-0.0929359
-0.0259491
-0.859966
-0.704239
-0.655496
-0.593619
-0.506162
-0.387825
-0.273691
-0.172917
-0.0929188
-0.0260376
-0.679472
-0.789299
-0.864723
-0.91021
-0.930271
-0.937094
-0.932885
-0.926987
-0.917503
-0.905709
-0.677212
-0.787613
-0.86123
-0.903805
-0.920298
-0.923509
-0.917274
-0.908584
-0.901423
-0.888577
-0.679659
-0.790541
-0.863864
-0.905599
-0.921598
-0.924698
-0.920722
-0.912547
-0.909539
-0.897408
-0.684808
-0.797405
-0.871597
-0.913854
-0.931422
-0.936499
-0.936491
-0.930813
-0.930555
-0.918323
-0.693383
-0.808317
-0.884378
-0.928561
-0.949598
-0.958826
-0.963877
-0.962834
-0.963336
-0.952265
1.1789
1.16933
1.15503
1.13915
1.12252
1.10443
1.08485
1.06567
1.0508
1.04877
1.27453
1.27179
1.26512
1.25653
1.24668
1.23514
1.22194
1.20873
1.19909
1.20131
1.36516
1.36598
1.36404
1.36064
1.35621
1.35044
1.34326
1.33572
1.33081
1.33693
1.44691
1.45067
1.45282
1.45402
1.45442
1.45366
1.45147
1.44835
1.44703
1.4567
1.5179
1.52419
1.52965
1.53449
1.53863
1.54171
1.54333
1.54352
1.54473
1.55712
1.57641
1.58477
1.59295
1.60077
1.60797
1.61419
1.61888
1.62155
1.62424
1.63805
1.62087
1.63075
1.64097
1.65104
1.66056
1.6692
1.67632
1.68097
1.68453
1.69769
1.64976
1.66049
1.67192
1.68333
1.69425
1.70442
1.71333
1.71986
1.72425
1.73433
1.66157
1.67229
1.68376
1.69511
1.70585
1.71571
1.72425
1.73064
1.73568
1.74901
1.65559
1.66551
1.67596
1.68605
1.69527
1.70331
1.70979
1.7142
1.71819
1.73413
-0.556311
-0.587959
-0.628185
-0.676509
-0.73256
-0.796035
-0.867014
-0.938703
-1.00251
-1.04675
-0.370704
-0.405252
-0.447104
-0.496387
-0.553481
-0.618119
-0.687868
-0.759085
-0.823368
-0.867287
-0.16242
-0.200196
-0.243969
-0.294086
-0.351042
-0.414866
-0.483695
-0.553178
-0.615583
-0.659385
0.0553438
0.0149853
-0.0303259
-0.0808455
-0.137066
-0.199179
-0.265599
-0.331755
-0.391207
-0.430823
0.268098
0.226795
0.18154
0.132295
0.0785167
0.0198324
-0.0424939
-0.10419
-0.15926
-0.193145
0.465037
0.425244
0.382429
0.336624
0.287204
0.233662
0.176996
0.121212
0.0720683
0.0442264
0.64164
0.605883
0.567901
0.527569
0.48416
0.437134
0.387364
0.338583
0.296307
0.274498
0.800768
0.770363
0.738386
0.704416
0.667656
0.627641
0.585208
0.543826
0.508796
0.492607
0.949904
0.924212
0.896973
0.868278
0.837423
0.803946
0.768586
0.734442
0.706463
0.695016
1.08647
1.06477
1.04027
1.0155
0.990101
0.963243
0.935199
0.908368
0.887037
0.880294
1.65763
1.59268
1.57535
1.53689
1.51993
1.50371
1.48366
1.45948
1.4028
1.3105
1.64329
1.58999
1.57555
1.53932
1.52409
1.50909
1.49215
1.47166
1.4319
1.37574
1.63098
1.58727
1.57293
1.54059
1.52698
1.51322
1.4994
1.48503
1.4615
1.43739
1.62058
1.5846
1.57001
1.54154
1.52905
1.51639
1.50546
1.49714
1.4872
1.48985
1.61187
1.58173
1.56768
1.5422
1.53043
1.51854
1.51002
1.50684
1.50825
1.53303
1.60461
1.57862
1.56555
1.54241
1.53114
1.51966
1.51297
1.51393
1.52468
1.56701
1.59862
1.57536
1.56337
1.54206
1.53119
1.51975
1.51431
1.51829
1.53627
1.59178
1.59373
1.57208
1.5612
1.54119
1.53059
1.51883
1.51405
1.51985
1.54276
1.60715
1.5898
1.56885
1.55909
1.53992
1.52937
1.51691
1.51226
1.51861
1.54395
1.6129
1.58679
1.56573
1.55711
1.53838
1.5276
1.51402
1.50901
1.51463
1.53976
1.6088
1.78007
1.60354
1.56233
1.51612
1.49806
1.47958
1.45094
1.41015
1.32465
1.2221
1.7409
1.60729
1.56996
1.52169
1.50103
1.48143
1.4518
1.41097
1.32353
1.20984
1.71725
1.60597
1.57157
1.52484
1.50384
1.48461
1.4556
1.41642
1.33166
1.21286
1.69425
1.60127
1.57217
1.5291
1.50866
1.49007
1.46277
1.42687
1.34499
1.2244
1.67448
1.5962
1.57304
1.53298
1.51405
1.49646
1.47213
1.43963
1.36419
1.24432
0.995708
0.898372
0.776579
0.626566
0.450767
0.253925
0.0450457
-0.163787
-0.36038
-0.534862
0.985429
0.889421
0.769992
0.623969
0.453281
0.260745
0.0536123
-0.156158
-0.355275
-0.532124
0.997949
0.899921
0.778281
0.632019
0.462226
0.270144
0.0621697
-0.149891
-0.352043
-0.531894
1.02387
0.917315
0.789676
0.641909
0.471837
0.278976
0.0692834
-0.145609
-0.351224
-0.53447
1.06704
0.943618
0.803964
0.651548
0.479604
0.285394
0.0738626
-0.143879
-0.353149
-0.540115
)
;

boundaryField
{
    left
    {
        type            zeroGradient;
    }
    right
    {
        type            fixedValue;
        value           uniform 0;
    }
    down
    {
        type            zeroGradient;
    }
    up
    {
        type            zeroGradient;
    }
    cylinder
    {
        type            zeroGradient;
    }
    defaultFaces
    {
        type            empty;
    }
}


// ************************************************************************* //
