/*--------------------------------*- C++ -*----------------------------------*\
| =========                 |                                                 |
| \\      /  F ield         | OpenFOAM: The Open Source CFD Toolbox           |
|  \\    /   O peration     | Version:  2406                                  |
|   \\  /    A nd           | Website:  www.openfoam.com                      |
|    \\/     M anipulation  |                                                 |
\*---------------------------------------------------------------------------*/
FoamFile
{
    version     2.0;
    format      ascii;
    arch        "LSB;label=32;scalar=64";
    class       surfaceScalarField;
    location    "1.35";
    object      phi;
}
// * * * * * * * * * * * * * * * * * * * * * * * * * * * * * * * * * * * * * //

dimensions      [0 3 -1 0 0 0 0];

oriented        oriented;

internalField   nonuniform List<scalar> 
3485
(
-0.00110523
0.000102495
0.00100273
-0.00213793
0.00013689
0.000895806
-0.00246707
3.79567e-05
0.000291186
-0.000836846
-0.000402079
-0.00122814
0.00401283
-0.00226325
-0.00258642
0.0125281
-0.00580954
-0.00270569
0.0248181
-0.0109648
-0.00132529
0.0408634
-0.0175208
0.00147551
0.0603954
-0.0249954
0.00546336
-0.0295776
0.00973969
0.0802334
-0.000885373
0.000987868
-0.00165805
0.000909563
-0.00169901
7.89219e-05
0.000605222
-0.00270631
0.00690323
-0.00856126
0.0179352
-0.0168415
0.0336319
-0.0266615
0.0534388
-0.0373277
0.0769116
-0.0484682
-0.0553608
0.102695
-0.00013939
0.00112726
5.91848e-06
0.000764254
0.00229422
-0.00220938
0.00914421
-0.0095563
0.0213441
-0.0207611
0.0387951
-0.0342925
0.0608178
-0.0486842
0.0863468
-0.0628567
0.114514
-0.0766349
-0.0855861
0.144739
0.000539949
0.00058731
0.00249384
-0.00118964
0.00903402
-0.00874955
0.021666
-0.0221883
0.0402586
-0.0393537
0.0637188
-0.0577528
0.0905024
-0.0754678
0.119029
-0.0913829
0.147825
-0.105431
-0.115072
0.17731
0.000578142
9.16741e-06
0.00522367
-0.00583517
0.0167601
-0.020286
0.0353772
-0.0408054
0.0595758
-0.0635523
0.0870658
-0.0852428
0.115618
-0.10402
0.143569
-0.119334
0.169621
-0.131483
-0.140211
0.194761
0.00128049
-0.00127132
0.00948472
-0.0140394
0.0260847
-0.036886
0.0496641
-0.0643847
0.0769597
-0.0908478
0.104724
-0.113008
0.13075
-0.130045
0.153977
-0.142561
0.174149
-0.151655
-0.158176
0.192113
0.0028054
-0.00407672
0.0148675
-0.0261015
0.0359474
-0.0579659
0.0620636
-0.0905009
0.0885723
-0.117356
0.112471
-0.136906
0.132666
-0.150241
0.149315
-0.15921
0.163122
-0.165462
-0.170016
0.174962
0.00461974
-0.00869646
0.0204174
-0.0418992
0.0439949
-0.0815435
0.0689517
-0.115458
0.0909181
-0.139323
0.108523
-0.154511
0.122247
-0.163964
0.133142
-0.170105
0.142166
-0.174485
-0.177873
0.150023
0.0065328
-0.0152293
0.0249425
-0.0603088
0.0478525
-0.104453
0.0684712
-0.136077
0.0844221
-0.155274
0.0961981
-0.166287
0.10513
-0.172896
0.112249
-0.177224
0.11818
-0.180416
-0.182921
0.123228
0.00824159
-0.0234709
0.0270935
-0.0791608
0.0465855
-0.123945
0.061808
-0.151299
0.0725259
-0.165992
0.0800531
-0.173815
0.0856559
-0.178499
0.0900536
-0.181622
0.0936987
-0.184061
0.0967125
-0.185935
-0.00089404
0.0151346
-0.0142405
-0.00350903
0.034115
-0.0315
-0.0070967
0.0440101
-0.0404224
-0.0110923
0.0489104
-0.0449148
-0.0152346
0.0514106
-0.0472683
-0.0193774
0.052612
-0.0484692
-0.0234004
0.0529823
-0.0489593
-0.0272224
0.0527819
-0.0489598
-0.030833
0.0521632
-0.0485525
0.0512685
-0.0343203
-0.0477813
0.000197235
0.0149373
-0.000868925
0.0351812
-0.00306529
0.0462064
-0.00584456
0.0516896
-0.00889462
0.0544607
-0.0120975
0.0558149
-0.0153828
0.0562676
-0.0186776
0.0560766
-0.0219268
0.0554123
0.0544214
-0.0250796
0.00143891
0.0134984
0.00241488
0.0342052
0.00217787
0.0464435
0.00111145
0.0527561
-0.000329767
0.0559019
-0.00192956
0.0574147
-0.00362462
0.0579627
-0.00539372
0.0578457
-0.00721701
0.0572356
0.0563086
-0.00910428
0.00269588
0.0108026
0.00623019
0.0306709
0.00874981
0.0439238
0.01024
0.0512659
0.011143
0.0549989
0.0117815
0.0567762
0.0123026
0.0574416
0.0127579
0.0573904
0.0131712
0.0568224
0.0559214
0.0135584
0.0036606
0.00714196
0.0098791
0.0244524
0.0157372
0.0380657
0.0205297
0.0464734
0.0244599
0.0510687
0.0278644
0.0533718
0.0309867
0.0543193
0.0339786
0.0543985
0.0369569
0.0538441
0.052729
0.0401493
0.00373634
0.00340562
0.0117345
0.0164542
0.0205854
0.0292148
0.0288074
0.0382514
0.0361517
0.0437243
0.0428245
0.046699
0.0491008
0.0480429
0.0552092
0.0482902
0.0613508
0.0477025
0.0462562
0.0678235
0.00274531
0.000660308
0.0108234
0.00837615
0.0212418
0.0187964
0.0320468
0.0274464
0.0424624
0.0333087
0.0523749
0.0367865
0.061935
0.0384828
0.0713523
0.0388728
0.0808538
0.038201
0.0361284
0.0909816
0.00134205
-0.000681745
0.00750881
0.00220939
0.017329
0.00897624
0.0287947
0.0159807
0.0407829
0.0213205
0.0528621
0.0247073
0.0649631
0.0263818
0.077152
0.026684
0.0895519
0.0258011
0.0227634
0.102917
0.000475018
-0.00115676
0.00335608
-0.000671671
0.0102178
0.00211455
0.0197564
0.00644214
0.0307974
0.0102794
0.0428361
0.0126686
0.0557151
0.0135029
0.0694148
0.0129842
0.0840238
0.011192
0.00682842
0.0999588
-0.000154029
7.01062e-05
0.00247584
0.00768984
0.0153828
0.0253458
0.0375234
0.0519831
0.0686385
0.0852066
-0.0483458
0.394735
-0.380709
-0.0448644
0.227872
-0.231353
-0.025576
0.00978197
-0.0290704
0.0113081
-0.176311
0.139427
0.0537686
-0.276294
0.233833
0.0901948
-0.294013
0.257587
0.117332
-0.264845
0.237708
0.134865
-0.210272
0.192739
0.146607
-0.164802
0.153061
-0.0869115
0.0822253
-0.046052
0.415707
-0.051771
0.233591
-0.0327979
-0.00919114
0.00719571
-0.216305
0.0524551
-0.321553
0.0907165
-0.332275
0.11906
-0.293188
0.137249
-0.228462
0.149614
-0.177168
-0.0919979
-0.0345832
0.441186
-0.048541
0.247549
-0.0299385
-0.0277937
0.0120281
-0.258272
0.0583927
-0.367918
0.0962307
-0.370113
0.123707
-0.320665
0.141194
-0.245949
0.153475
-0.189449
-0.0973671
-0.010853
0.465597
-0.0308736
0.267569
-0.0147398
-0.0439275
0.0278135
-0.300825
0.074383
-0.414487
0.109933
-0.405663
0.1339
-0.344632
0.148477
-0.260526
0.159257
-0.200228
-0.102586
0.0206607
0.485086
-0.00206117
0.290291
0.0111585
-0.0571471
0.0519035
-0.34157
0.0991078
-0.461691
0.133033
-0.439588
0.152073
-0.363671
0.161387
-0.269841
0.168554
-0.207395
-0.106783
0.0589161
0.493993
0.033641
0.315566
0.0415915
-0.0650976
0.0781217
-0.3781
0.126261
-0.509831
0.161938
-0.475265
0.178132
-0.379866
0.18163
-0.273338
0.1832
-0.208966
-0.108777
0.100428
0.484547
0.0749324
0.341062
0.07502
-0.0651852
0.105059
-0.408139
0.151333
-0.556104
0.190237
-0.514168
0.207976
-0.397605
0.208409
-0.273772
0.204194
-0.20475
-0.107766
0.138415
0.44905
0.117858
0.361618
0.112151
-0.059478
0.136796
-0.432784
0.17705
-0.596358
0.215294
-0.552413
0.236269
-0.41858
0.237866
-0.275369
0.230323
-0.197208
-0.104235
0.169145
0.379863
0.158235
0.372529
0.150628
-0.0518718
0.173221
-0.455378
0.206897
-0.630034
0.239521
-0.585037
0.260783
-0.439842
0.265468
-0.280054
0.258118
-0.189858
-0.0999904
0.180527
0.284543
0.190416
0.362639
0.186446
-0.0479021
0.207602
-0.476533
0.238382
-0.660814
0.264845
-0.6115
0.282516
-0.457513
0.28872
-0.286257
0.283711
-0.184849
-0.0970955
0.293034
0.195469
-0.20396
0.399236
0.256438
0.502143
-0.150809
0.578463
-0.552853
0.60156
-0.683912
0.582087
-0.592027
0.548949
-0.424375
0.519715
-0.257024
0.491118
-0.156252
-0.080123
0.448449
0.181261
-0.434241
0.569138
0.135749
0.680074
-0.261746
0.722881
-0.595659
0.710789
-0.671819
0.665799
-0.547037
0.610079
-0.368654
0.564834
-0.211779
0.530222
-0.121639
-0.0619541
0.643617
0.157386
-0.619742
0.743877
0.0354891
0.81358
-0.331449
0.809736
-0.591815
0.763765
-0.625848
0.703273
-0.486545
0.641992
-0.307373
0.592296
-0.162084
0.553984
-0.0833266
-0.0424892
0.789831
0.105135
-0.737579
0.865798
-0.0404783
0.900961
-0.366611
0.878746
-0.5696
0.812831
-0.559934
0.729136
-0.40285
0.652692
-0.230929
0.597615
-0.107006
0.558335
-0.044047
-0.0233039
0.872713
0.0434465
-0.811025
0.931622
-0.0993871
0.949138
-0.384127
0.911914
-0.532376
0.830085
-0.478105
0.734642
-0.307407
0.650364
-0.146651
0.591148
-0.047791
0.55181
-0.00470924
-0.00487906
0.911185
-0.0135631
-0.854176
0.962959
-0.151161
0.969335
-0.390504
0.907294
-0.470335
0.797013
-0.367824
0.687845
-0.19824
0.607097
-0.0659024
0.557676
0.00163026
0.528024
0.0249426
0.00918615
0.921186
-0.0641712
-0.870578
0.963991
-0.193966
0.936064
-0.362576
0.833522
-0.367794
0.703611
-0.237913
0.596141
-0.0907703
0.528696
0.00154313
0.494617
0.0357095
0.479283
0.0402759
0.0163183
0.888975
-0.101658
-0.851489
0.892365
-0.197355
0.795501
-0.265713
0.639737
-0.212029
0.503376
-0.101551
0.424704
-0.0120983
0.393291
0.0329556
0.386714
0.042287
0.390144
0.0368455
0.0150376
0.727258
-0.0931891
-0.735726
0.643895
-0.113992
0.470755
-0.0925731
0.307388
-0.0486622
0.221185
-0.0153481
0.201307
0.00777915
0.213442
0.0208203
0.233109
0.0226202
0.251521
0.0184341
0.00759688
0.274701
-0.36789
0.16071
0.0681365
0.0194743
0.00412622
0.0119054
0.0327256
0.0553459
0.07378
0.523243
0.0912293
-0.51776
0.527886
0.118585
0.532697
0.145211
0.534486
0.173174
0.530025
0.196573
0.507297
0.217489
0.459854
0.224753
0.382168
0.222425
0.278266
0.206597
0.154539
0.531554
0.0809964
-0.521321
0.541543
0.108596
0.552531
0.134224
0.563825
0.16188
0.573019
0.187379
0.579439
0.211069
0.569601
0.234591
0.553179
0.238847
0.50357
0.256205
0.223868
0.544528
0.0702995
-0.533831
0.557237
0.0958865
0.570925
0.120536
0.587866
0.144939
0.603231
0.172014
0.62278
0.19152
0.635741
0.22163
0.64614
0.228449
0.643875
0.25847
0.248
0.562077
0.0596809
-0.551459
0.576233
0.0817307
0.591932
0.104838
0.611695
0.125176
0.632393
0.151315
0.656507
0.167406
0.681543
0.196595
0.704046
0.205945
0.727199
0.235318
0.23762
0.574949
0.0486029
-0.563871
0.590083
0.0665963
0.608117
0.0868037
0.629851
0.103442
0.655137
0.126028
0.682393
0.140151
0.714483
0.164504
0.74499
0.175439
0.780972
0.199335
0.207567
0.576977
0.0368776
-0.565252
0.592761
0.0508127
0.612713
0.0668511
0.636276
0.0798801
0.664755
0.0975494
0.695452
0.109454
0.732094
0.127862
0.76905
0.138483
0.812311
0.156074
0.165703
0.565734
0.0247063
-0.553563
0.581771
0.0347763
0.602914
0.045708
0.62774
0.0550538
0.658166
0.0671232
0.691617
0.0760033
0.731291
0.0881878
0.77308
0.0966931
0.82124
0.107914
0.116365
0.53543
0.012615
-0.523339
0.551243
0.0189634
0.572749
0.0242022
0.597491
0.0303117
0.628646
0.0359678
0.662778
0.0418714
0.703668
0.047298
0.747456
0.0529051
0.798052
0.0573179
0.0629288
0.46297
0.00268513
-0.45304
0.476972
0.00496127
0.494955
0.00621893
0.516733
0.00853337
0.543071
0.00962996
0.572973
0.0119699
0.607639
0.012632
0.645778
0.0147663
0.688842
0.0142534
0.0160444
0.268881
-0.266196
0.273842
0.280061
0.288594
0.298224
0.310194
0.322826
0.337593
0.351846
0.0691598
0.134377
-0.123032
-0.080505
0.0589043
0.135847
-0.125591
0.0496066
0.137536
-0.128238
0.0407634
0.139851
-0.131008
0.0320901
0.142258
-0.133584
0.0235892
0.143953
-0.135452
0.0154819
0.143362
-0.135255
0.00807734
0.137825
-0.13042
0.00226528
0.119263
-0.113451
0.064119
-0.0618537
0.0674498
0.144997
-0.0780697
0.0571599
0.146136
0.0473717
0.147324
0.0381398
0.149083
0.0293481
0.151049
0.0210136
0.152288
0.0133271
0.151048
0.00654055
0.144611
0.0015701
0.124233
0.0656891
0.0611686
0.154761
-0.0709328
0.0514081
0.155897
0.0419939
0.156739
0.0331225
0.157955
0.0248068
0.159365
0.0171109
0.159984
0.0101978
0.157961
0.00431291
0.150496
0.000456199
0.12809
0.0661453
0.0504844
0.163445
-0.0591688
0.0418286
0.164553
0.0333844
0.165183
0.0253655
0.165973
0.0179266
0.166804
0.0112605
0.16665
0.00555355
0.163668
0.000960484
0.155089
-0.000995629
0.130046
0.0651497
0.0363662
0.170893
-0.0438136
0.0290053
0.171914
0.0218117
0.172376
0.0150172
0.172768
0.00885077
0.17297
0.00360656
0.171894
-0.000555231
0.16783
-0.00316355
0.157697
-0.00286427
0.129747
0.0622854
0.0192305
0.177086
-0.0254242
0.0133275
0.177817
0.00775025
0.177954
0.00255597
0.177962
-0.00197463
0.177501
-0.00533082
0.17525
-0.00761789
0.170117
-0.0080048
0.158084
-0.00488864
0.126631
0.0573967
-9.8025e-05
0.181918
-0.00473329
-0.00459337
0.182312
-0.00893168
0.182292
-0.0126876
0.181718
-0.0149809
0.179794
-0.0160864
0.176356
-0.0161061
0.170137
-0.0134271
0.155405
-0.00688672
0.12009
0.05051
-0.0213491
0.185118
0.0181494
-0.024058
0.185021
-0.0261025
0.184336
-0.0272412
0.182857
-0.0274281
0.179981
-0.0269514
0.175879
-0.0245761
0.167762
-0.0184739
0.149303
-0.00840177
0.110018
0.0421082
-0.0459738
0.187053
0.0440383
-0.0468937
0.185941
-0.046493
0.183936
-0.0450262
0.18139
-0.0430595
0.178015
-0.0397316
0.172551
-0.0335673
0.161597
-0.0231424
0.138878
-0.00934075
0.0962166
0.0327675
-0.069427
0.0705453
-0.0675474
-0.0652334
-0.0623425
-0.0581427
-0.0515834
-0.0412851
-0.0263525
-0.00929664
0.0959447
0.0345871
-0.106788
-0.0237441
0.0849357
0.0354727
-0.0244636
0.0737723
0.036417
-0.0252536
0.0624535
0.0374105
-0.0260918
0.0509812
0.0383923
-0.02692
0.0393736
0.0391753
-0.0275677
0.0277201
0.0392519
-0.0275984
0.01632
0.0374779
-0.0260777
0.00609405
0.0316239
-0.021398
0.0169792
-0.0108851
0.0966009
0.0455952
-0.107609
0.0854755
0.046598
0.0741988
0.0476937
0.0627789
0.0488304
0.0512242
0.049947
0.0395572
0.0508422
0.0278627
0.0509464
0.0164144
0.0489262
0.00611357
0.0419247
0.0230928
0.0972969
0.0565421
-0.108244
0.0861813
0.0577137
0.0749021
0.0589729
0.0634563
0.0602762
0.0518465
0.0615568
0.0400932
0.0625955
0.0282846
0.062755
0.0166959
0.0605149
0.0062255
0.0523951
0.0293183
0.0960064
0.0674202
-0.106884
0.0850176
0.0687024
0.0738742
0.0701164
0.0625673
0.0715831
0.0510913
0.0730328
0.0394638
0.0742231
0.02778
0.0744388
0.0163248
0.0719701
0.00601383
0.0627061
0.0353321
0.0937681
0.0781813
-0.104529
0.0829315
0.079539
0.0719935
0.0810543
0.0609324
0.0826442
0.049719
0.0842462
0.0383532
0.0855889
0.026937
0.085855
0.0157665
0.0831406
0.00574245
0.0727301
0.0410745
0.090345
0.0888825
-0.101046
0.079599
0.0902851
0.0687485
0.0919047
0.0578356
0.0935571
0.0468829
0.0951989
0.0359121
0.0965597
0.02502
0.0967471
0.0144772
0.0936834
0.00513135
0.082076
0.0462059
0.0870804
0.0989107
-0.0971085
0.0769876
0.100378
0.0667198
0.102172
0.0562268
0.10405
0.0455389
0.105887
0.0347618
0.107337
0.0240909
0.107418
0.0138445
0.10393
0.00487626
0.0910442
0.0510821
0.080044
0.108625
-0.0897583
0.0704766
0.109945
0.0609344
0.111715
0.0513413
0.113643
0.0416074
0.115621
0.0317314
0.117213
0.0218787
0.117271
0.0123937
0.113415
0.00419609
0.0992419
0.0552782
0.075606
0.116845
-0.0838265
0.0670878
0.118464
0.0580478
0.120755
0.0486677
0.123023
0.039114
0.125174
0.0295198
0.126807
0.0200973
0.126693
0.0111729
0.122339
0.00363191
0.106783
0.0589101
0.0659048
-0.0720912
0.0587773
0.0512935
0.0433088
0.034899
0.0262537
0.0176922
0.00961145
0.00294356
0.202284
-0.017596
0.0133017
0.207834
0.0125698
-0.0181192
0.208492
0.10318
-0.103838
0.205037
0.161879
-0.158424
0.200236
0.170741
-0.165941
0.194691
0.169452
-0.163907
0.187009
0.159581
-0.151899
0.176409
0.16958
-0.15898
0.153896
0.18863
-0.166117
0.230615
-0.183507
0.202182
-0.0217879
0.207152
0.00759948
0.206909
0.103423
0.202708
0.16608
0.197499
0.17595
0.191854
0.175097
0.184944
0.166491
0.174999
0.179524
0.153792
0.209837
0.276798
0.202008
-0.0258065
0.20631
0.00329805
0.205004
0.104728
0.199798
0.171286
0.1939
0.181848
0.187856
0.181142
0.181618
0.172729
0.171921
0.189222
0.152235
0.229523
0.320789
0.201752
-0.0295689
0.20532
-0.000269541
0.202766
0.107282
0.196268
0.177785
0.18948
0.188636
0.182896
0.187726
0.1772
0.178425
0.167316
0.199105
0.149266
0.247573
0.363171
0.20141
-0.0329895
0.204208
-0.00306718
0.200183
0.111306
0.192127
0.185841
0.184382
0.196382
0.177227
0.194881
0.171855
0.183797
0.161256
0.209704
0.14511
0.263719
0.403752
0.20098
-0.0359795
0.202978
-0.00506543
0.19723
0.117054
0.18748
0.195591
0.178844
0.205018
0.171074
0.202651
0.165676
0.189195
0.153992
0.221388
0.140111
0.2776
0.442816
0.200428
-0.0384176
0.201565
-0.00620237
0.193894
0.124725
0.182519
0.206966
0.173112
0.214425
0.164606
0.211157
0.158799
0.195002
0.145893
0.234293
0.133981
0.289512
0.479689
0.199674
-0.0401015
0.199852
-0.00638025
0.190245
0.134332
0.177472
0.219739
0.167366
0.22453
0.157988
0.220536
0.151505
0.201484
0.137355
0.248444
0.127679
0.299188
0.51761
0.19859
-0.0407019
0.197733
-0.00552346
0.186462
0.145604
0.172568
0.233633
0.161797
0.235301
0.151476
0.230857
0.144215
0.208745
0.129496
0.263163
0.120747
0.307937
0.55453
0.197091
-0.0398031
0.195075
-0.00350784
0.182738
0.157941
0.168036
0.248335
0.156841
0.246496
0.145635
0.242063
0.137726
0.216654
0.121413
0.279475
0.115438
0.313912
0.597877
0.304658
-0.0424513
0.312282
-0.0111311
0.317412
0.152811
0.313562
0.252184
0.312997
0.247062
0.307031
0.248029
0.315634
0.208051
0.313565
0.281544
0.360489
0.266988
0.522259
0.436107
0.301858
-0.0422988
0.310096
-0.0193695
0.324206
0.138701
0.331379
0.245011
0.340397
0.238044
0.345388
0.243038
0.35916
0.194278
0.361138
0.279567
0.386164
0.241962
0.448056
0.460367
0.298866
-0.0391545
0.308042
-0.028546
0.332084
0.11466
0.357808
0.219286
0.37411
0.221742
0.395795
0.221353
0.411417
0.178656
0.421664
0.269319
0.44518
0.218446
0.385789
0.507447
0.29633
-0.0334747
0.305772
-0.0379876
0.338398
0.0820336
0.383293
0.174391
0.404232
0.200803
0.439427
0.186158
0.459001
0.159082
0.474044
0.254276
0.507181
0.18531
0.336291
0.556679
0.295795
-0.0272591
0.303844
-0.046037
0.342358
0.0435201
0.398638
0.118111
0.426551
0.17289
0.46654
0.146169
0.491025
0.134597
0.511917
0.233384
0.547384
0.149842
0.287196
0.59648
0.297869
-0.0231176
0.304562
-0.05273
0.344296
0.00378543
0.40163
0.0607775
0.438719
0.135801
0.479123
0.105765
0.5073
0.106421
0.535669
0.205015
0.567778
0.117733
0.233064
0.621909
0.302664
-0.0237713
0.309079
-0.0591454
0.343465
-0.0306007
0.391507
0.0127357
0.435511
0.091797
0.475031
0.0662452
0.503642
0.0778095
0.541506
0.167151
0.573293
0.0859466
0.174082
0.632275
0.307958
-0.0297193
0.31196
-0.0631473
0.334069
-0.0527098
0.362438
-0.0156327
0.407725
0.0465091
0.442294
0.0316766
0.467372
0.0527314
0.520942
0.11358
0.554288
0.0526003
0.113584
0.614786
0.307789
-0.0354981
0.299231
-0.0545898
0.294678
-0.048156
0.296667
-0.017622
0.330401
0.0127747
0.350184
0.0118943
0.377641
0.0252745
0.443309
0.0479119
0.472959
0.0229503
0.0518083
0.534735
0.266512
0.211922
0.163766
0.146144
0.158919
0.170813
0.196088
0.244
0.26695
0.318758
0.453013
-0.0974109
0.462632
-0.0876888
0.470634
-0.0789341
0.477761
-0.0662961
0.484525
-0.0505772
0.491042
-0.0319416
0.497265
-0.0109566
0.503474
0.0119405
0.510944
0.0365689
0.0637293
0.470128
-0.107172
0.477805
-0.0953665
0.483252
-0.0843809
0.487099
-0.0701432
0.491112
-0.0545902
0.494909
-0.035738
0.500008
-0.0160562
0.505598
0.00635045
0.512699
0.0294687
0.0551069
0.508522
-0.108246
0.509768
-0.0966126
0.510588
-0.0852006
0.510571
-0.0701269
0.511372
-0.0553914
0.512529
-0.0368948
0.515595
-0.0191222
0.519477
0.00246911
0.525884
0.023061
0.0471605
0.550611
-0.102178
0.545357
-0.0913586
0.540677
-0.0805211
0.536945
-0.0663947
0.534535
-0.0529813
0.533598
-0.0359581
0.534728
-0.0202517
0.537759
-0.000562108
0.543313
0.0175065
0.0390154
0.584624
-0.0903221
0.574308
-0.0810427
0.565199
-0.0714117
0.55813
-0.0593255
0.552726
-0.0475782
0.549693
-0.032925
0.548818
-0.0193763
0.550949
-0.00269309
0.555605
0.012851
0.0307488
0.606625
-0.0750379
0.59219
-0.0666079
0.579361
-0.058582
0.568958
-0.0489224
0.560661
-0.0392819
0.555285
-0.0275486
0.552569
-0.0166602
0.553319
-0.0034433
0.557324
0.00884644
0.0228204
0.612184
-0.0549467
0.594119
-0.0485433
0.577964
-0.0424271
0.564622
-0.0355803
0.553937
-0.0285968
0.546726
-0.0203378
0.542768
-0.0127018
0.542355
-0.00303004
0.546044
0.00515651
0.0153017
0.591031
-0.0311916
0.5704
-0.027912
0.552271
-0.0242983
0.537327
-0.0206362
0.52545
-0.0167197
0.5174
-0.0122882
0.512719
-0.00802011
0.51242
-0.00273118
0.51593
0.00164646
0.00789311
0.513612
-0.0100682
0.494813
-0.00911353
0.478764
-0.00824925
0.465532
-0.00740441
0.45522
-0.00640699
0.448171
-0.00523939
0.444168
-0.00401761
0.443805
-0.00236823
0.446357
-0.000905193
0.0012102
0.30869
0.299577
0.291327
0.283923
0.277516
0.272277
0.268259
0.265891
0.264985
0.00540844
0.0470038
-0.0524122
0.0102924
0.104623
-0.109507
0.0122204
0.132938
-0.134866
0.0124605
0.14471
-0.14495
0.0125129
0.149052
-0.149105
0.0118174
0.151536
-0.150841
0.0101583
0.151848
-0.150189
0.00812502
0.149313
-0.14728
0.00625356
0.143547
-0.141675
0.132671
0.00498038
-0.131398
0.00672504
0.0402787
0.0146694
0.0966789
0.0198722
0.127735
0.0227548
0.141828
0.0244678
0.147339
0.0258621
0.150142
0.0265542
0.151156
0.0264187
0.149448
0.0257356
0.14423
0.133824
0.0245833
0.00737755
0.0329012
0.0179718
0.0860846
0.0263747
0.119332
0.032028
0.136174
0.0358378
0.143529
0.0389825
0.146998
0.0416461
0.148492
0.0434031
0.147692
0.0440371
0.143596
0.134631
0.0432295
0.00727803
0.0256232
0.0197843
0.0735783
0.031086
0.108031
0.0395106
0.12775
0.0456284
0.137412
0.0505841
0.142042
0.0549125
0.144164
0.0583925
0.144212
0.0605203
0.141468
0.134506
0.0606461
0.00657707
0.0190461
0.0199729
0.0601825
0.033629
0.0943745
0.0447168
0.116662
0.0531712
0.128957
0.0599734
0.13524
0.0658323
0.138305
0.0708126
0.139231
0.074436
0.137845
0.133063
0.0758785
0.00551116
0.0135349
0.0186988
0.0469949
0.0339278
0.0791455
0.047368
0.103222
0.0580602
0.118265
0.0666379
0.126662
0.0739029
0.13104
0.0801797
0.132954
0.0852069
0.132818
0.130087
0.0881835
0.00431687
0.00921805
0.0162996
0.0350122
0.0321361
0.063309
0.0475933
0.0877645
0.0606003
0.105258
0.0710929
0.116169
0.0798058
0.122327
0.0873393
0.125421
0.0937767
0.12638
0.125197
0.0986664
0.00315678
0.00606127
0.0131287
0.0250403
0.0282086
0.0482291
0.044844
0.0711291
0.0601416
0.0899603
0.072951
0.10336
0.083429
0.111849
0.0921925
0.116658
0.0996438
0.118929
0.119221
0.10562
0.0021926
0.00386868
0.00980543
0.0174274
0.0227058
0.0353287
0.0388908
0.0549441
0.05565
0.0732012
0.0710331
0.0879768
0.0842846
0.0985977
0.0955193
0.105423
0.105258
0.10919
0.110384
0.114094
0.00147867
0.00239
0.00681283
0.0120933
0.0165897
0.0255518
0.0303073
0.0412265
0.0462876
0.0572209
0.0625948
0.0716696
0.0778191
0.0833734
0.0912652
0.0919768
0.102808
0.0976476
0.100391
0.112801
0.000908725
0.00148128
0.00419196
0.00881004
0.0105992
0.0191445
0.0205617
0.031264
0.0335935
0.0441891
0.048479
0.0567842
0.0638809
0.0679715
0.078781
0.0770766
0.0924895
0.0839391
0.0887393
0.104141
0.000307663
0.00117361
0.00162572
0.00749198
0.00479613
0.0159741
0.0106297
0.0254304
0.0194612
0.0353576
0.0308945
0.0453509
0.044031
0.054835
0.0579073
0.0632003
0.0716998
0.0701467
0.0755874
0.0848516
-0.000394094
0.00156771
-0.000892333
0.00799022
-0.000509599
0.0155914
0.00164273
0.0232781
0.00619303
0.0308073
0.0133475
0.0381964
0.0227454
0.0454371
0.033666
0.0522797
0.0454777
0.0583349
0.0630933
0.0579718
-0.000977375
0.00254508
-0.00274017
0.00975301
-0.00415973
0.017011
-0.00449482
0.0236132
-0.003185
0.0294975
0.000202725
0.0348086
0.00577232
0.0398675
0.0131745
0.0448775
0.0219194
0.04959
0.0531056
0.0319071
-0.00140086
0.00394595
-0.00397532
0.0123275
-0.00646995
0.0195056
-0.00823438
0.0253776
-0.00896501
0.0302281
-0.00841546
0.0342591
-0.00627824
0.0377303
-0.00253607
0.0411353
0.00268453
0.0443694
0.0466784
0.00911172
-0.00200949
0.00595543
-0.00552676
0.0158448
-0.00905404
0.0230329
-0.0119058
0.0282294
-0.0138582
0.0321805
-0.014908
0.035309
-0.0149975
0.0378197
-0.0139292
0.0400671
-0.0115362
0.0419764
0.0428907
-0.00774841
-0.00239304
0.00834847
-0.00652013
0.0199718
-0.0107565
0.0272693
-0.014388
0.0318609
-0.0171466
0.0349391
-0.0189956
0.037158
-0.0200632
0.0388873
-0.0204455
0.0404494
-0.0200074
0.0415383
0.0417093
-0.018826
-0.00229427
0.0106427
-0.00642598
0.0241035
-0.0108477
0.031691
-0.0149209
0.035934
-0.0184384
0.0384566
-0.0213751
0.0400947
-0.0237607
0.0412729
-0.0255317
0.0422203
-0.0266988
0.0427055
0.0425044
-0.0274939
-0.00201726
0.01266
-0.0059351
0.0280214
-0.010397
0.0361529
-0.0148561
0.0403931
-0.0191248
0.0427253
-0.0230966
0.0440666
-0.0266629
0.0448392
-0.0296652
0.0452227
-0.0321466
0.0451868
0.0446611
-0.0343033
-0.00158053
-0.00505915
-0.00932869
-0.0138503
-0.0183934
-0.022796
-0.0269162
-0.0306534
-0.034019
-0.0371391
0.0878851
0.368419
-0.352163
0.0630259
0.246601
-0.221742
0.0472536
0.147072
-0.1313
0.0476032
0.0503969
-0.0507465
0.0562395
-0.0157758
0.0071395
0.0697818
-0.0560593
0.042517
0.0847965
-0.0715435
0.0565288
0.0987695
-0.0690586
0.0550856
0.111581
-0.0593258
0.0465146
-0.0351908
0.0269141
0.0731984
0.380072
0.0527495
0.26705
0.0433543
0.156467
0.0487688
0.0449824
0.0604245
-0.0274315
0.0749994
-0.0706341
0.0900996
-0.0866437
0.103685
-0.0826444
0.115761
-0.0714009
-0.0426045
0.0548037
0.38324
0.0402223
0.281631
0.0382399
0.15845
0.0486894
0.0345329
0.0635707
-0.0423129
0.079602
-0.0866654
0.0949505
-0.101992
0.108155
-0.0958485
0.119462
-0.082708
-0.0492289
0.0350674
0.38008
0.0267533
0.289945
0.0328135
0.152389
0.0480195
0.019327
0.0660791
-0.0603725
0.0837709
-0.104357
0.0995738
-0.117795
0.11248
-0.108754
0.123073
-0.0933017
-0.0551452
0.0157826
0.373409
0.01411
0.291618
0.0278637
0.138636
0.0471885
2.17689e-06
0.0681512
-0.0813352
0.0875798
-0.123786
0.104026
-0.134241
0.116774
-0.121503
0.126767
-0.103295
-0.0604293
-0.00207494
0.367735
0.00324859
0.286294
0.0230675
0.118817
0.0457562
-0.0226866
0.0694829
-0.105062
0.0907951
-0.145098
0.108125
-0.151571
0.120942
-0.134319
0.13053
-0.112883
-0.0651829
-0.0172797
0.366189
-0.00555564
0.27457
0.0174182
0.0958428
0.0428488
-0.0481172
0.0694872
-0.1317
0.0930109
-0.168622
0.111578
-0.170138
0.124772
-0.147514
0.134233
-0.122343
-0.0695511
-0.0294334
0.368129
-0.0137738
0.258911
0.00980379
0.0722653
0.0376663
-0.0759797
0.0676301
-0.161664
0.0938803
-0.194872
0.114141
-0.190399
0.128069
-0.161442
0.137722
-0.131996
-0.0737163
-0.0387714
0.372597
-0.0228998
0.243039
-0.000100507
0.049466
0.0298972
-0.105977
0.06378
-0.195547
0.0933261
-0.224418
0.115753
-0.212826
0.130754
-0.176443
0.140911
-0.142154
-0.0778774
-0.0452515
-0.0335658
-0.0131702
0.0202797
0.0585657
0.091735
0.116617
0.132914
0.14382
0.0107663
0.0227748
-0.0335411
0.00369572
0.00707057
0.000812602
0.00288312
-0.00075311
0.00156571
-0.000710863
-4.22474e-05
0.00158146
-0.00229232
0.0060462
-0.00446474
0.0110969
-0.00505065
0.0151146
-0.00401773
-0.00233878
0.0679081
0.0843605
-0.129494
0.0387568
0.0362219
0.0226848
0.0189551
0.0158522
0.00839831
0.0185327
-0.00272276
0.0272138
-0.0109734
0.0376306
-0.0148816
0.0476679
-0.0150879
0.0555185
-0.0118684
-0.00680097
0.127537
0.174049
-0.217225
0.0774688
0.0862902
0.0495564
0.0468675
0.0388151
0.0191396
0.0411305
-0.00503815
0.051056
-0.020899
0.0636165
-0.027442
0.0757938
-0.0272651
0.0859599
-0.0220346
-0.0127614
0.168918
0.271399
-0.266268
0.10442
0.150788
0.066338
0.0849493
0.0519991
0.0334785
0.05324
-0.006279
0.0635365
-0.0311955
0.0775064
-0.0414119
0.0910148
-0.0407736
0.102834
-0.0338538
-0.0196954
0.191738
-0.272502
0.120784
0.074434
0.057166
0.0580265
0.069348
0.0844649
0.0987769
0.111438
0.0108067
0.000117759
-0.0109244
0.0119086
-0.00110196
0.0139916
-0.002083
0.0168188
-0.0028272
0.0202347
-0.00341588
0.0235958
-0.00336107
0.0272114
-0.00361568
0.0296118
-0.00240034
0.0322394
-0.00262762
-0.00130172
0.0283922
-7.06422e-05
-0.0282038
0.0316507
-0.0043605
0.0376681
-0.00810039
0.0461587
-0.0113178
0.0568127
-0.0140698
0.068635
-0.0151834
0.0824602
-0.0174409
0.0959801
-0.0159202
0.112546
-0.0191935
-0.0182496
0.042336
-0.000904426
-0.0415022
0.0475786
-0.0096031
0.056983
-0.0175047
0.0703848
-0.0247197
0.0873663
-0.0310513
0.107288
-0.0351056
0.130712
-0.040864
0.1556
-0.0408089
0.185998
-0.0495916
-0.0494762
0.0529708
-0.00253994
-0.0513353
0.0598335
-0.0164658
0.0718157
-0.0294869
0.0887522
-0.0416562
0.110079
-0.0523779
0.135704
-0.0607308
0.164314
-0.0694738
0.196693
-0.0731876
0.232265
-0.0851645
-0.0834787
0.0608216
-0.0583811
0.0689391
0.0826816
0.101671
0.125172
0.152625
0.181817
0.21425
0.243179
0.06657
-0.0613365
0.06769
-0.0729234
0.0596238
-0.0619755
0.0689216
0.0524227
-0.0628652
0.0700663
0.0448604
-0.0637179
0.0712802
0.0368714
-0.0644252
0.0724142
0.0285083
-0.0647674
0.0731306
0.0199668
-0.0641733
0.0727148
0.0115891
-0.0613591
0.0697367
0.00415748
-0.0531543
0.060586
-0.0301878
0.0343453
0.072145
-0.0537307
-0.0797508
0.0642868
-0.0541174
0.0560102
-0.0545886
0.0473523
-0.05506
0.0384231
-0.0554959
0.0293752
-0.0557195
0.0204051
-0.0552032
0.0117964
-0.0527504
0.00424532
-0.0456032
-0.0259425
0.0733354
-0.0451623
-0.0819037
0.0646587
-0.0454407
0.0558702
-0.0458002
0.0469969
-0.0461867
0.0380637
-0.0465626
0.029111
-0.0467668
0.0202432
-0.0463355
0.0117079
-0.0442151
0.00421074
-0.0381061
-0.0217318
0.0765101
-0.0363303
-0.0853422
0.0676054
-0.0365359
0.0585869
-0.0367818
0.0494353
-0.037035
0.0401451
-0.0372724
0.0307598
-0.0373816
0.0214221
-0.0369977
0.012437
-0.03523
0.00454166
-0.0302107
-0.0171901
0.079402
-0.0271531
-0.0885791
0.0700997
-0.0272336
0.060652
-0.0273341
0.0510546
-0.0274376
0.0413259
-0.0275437
0.0315377
-0.0275934
0.0218646
-0.0273247
0.0126503
-0.0260157
0.00463759
-0.022198
-0.0125525
0.0823156
-0.0176242
-0.0918445
0.0726404
-0.0175583
0.0628017
-0.0174954
0.0527966
-0.0174325
0.0426437
-0.0173908
0.0324214
-0.0173711
0.0223423
-0.0172456
0.0128446
-0.0165181
0.00473108
-0.0140845
-0.00782142
0.085357
-0.00772404
-0.0952572
0.0752939
-0.00749527
0.0650445
-0.00724597
0.0545958
-0.00698378
0.0439523
-0.0067473
0.0331829
-0.00660169
0.022536
-0.0065987
0.0126166
-0.00659867
0.00448314
-0.00595096
-0.00333828
0.0884294
0.00252158
-0.0986751
0.0780124
0.00292173
0.0673964
0.0033701
0.0565588
0.00385383
0.0454853
0.00432615
0.0342102
0.00467341
0.0229398
0.00467166
0.012342
0.00399921
0.00391005
0.00248095
0.00057177
0.0914138
0.0130296
-0.101922
0.0807371
0.0135985
0.0698801
0.0142271
0.0588313
0.0149026
0.0475852
0.0155722
0.0361685
0.0160902
0.0247325
0.0161076
0.0137909
0.0149408
0.004649
0.0116229
0.00522077
0.0939732
-0.104688
0.0831081
0.0720816
0.0608925
0.0495447
0.0380672
0.0265764
0.0154395
0.00566437
0.0134569
-0.129757
-0.0150984
0.0104343
-0.138653
0.00687713
-0.143723
0.00320528
-0.146517
-0.000107276
-0.147528
-0.00267336