/*--------------------------------*- C++ -*----------------------------------*\
| =========                 |                                                 |
| \\      /  F ield         | OpenFOAM: The Open Source CFD Toolbox           |
|  \\    /   O peration     | Version:  2406                                  |
|   \\  /    A nd           | Website:  www.openfoam.com                      |
|    \\/     M anipulation  |                                                 |
\*---------------------------------------------------------------------------*/
FoamFile
{
    version     2.0;
    format      ascii;
    arch        "LSB;label=32;scalar=64";
    class       volVectorField;
    location    "1.35";
    object      U;
}
// * * * * * * * * * * * * * * * * * * * * * * * * * * * * * * * * * * * * * //

dimensions      [0 1 -1 0 0 0 0];

internalField   nonuniform List<vector> 
1800
(
(0.00116626 -0.00720393 0)
(-0.00345543 -0.0115997 -6.59605e-21)
(-0.00767551 -0.0108006 -7.57658e-20)
(-0.0119365 -0.00867357 7.02822e-20)
(0.00314363 0.00317284 1.23927e-19)
(0.0407858 0.0166709 3.31029e-20)
(0.102899 0.028647 -4.42469e-20)
(0.189628 0.039742 -1.54204e-19)
(0.296355 0.0539275 0)
(0.380856 0.0817231 -3.592e-21)
(-0.00866199 0.00138075 8.79506e-21)
(-0.011405 -0.00152128 -2.63069e-20)
(-0.00791331 -0.00650669 7.57545e-20)
(0.00553455 -0.0154064 8.49786e-20)
(0.0545539 -0.0245794 -1.52707e-20)
(0.139519 -0.0334068 -1.72942e-19)
(0.253882 -0.0399269 5.05819e-20)
(0.391994 -0.0420631 2.49074e-19)
(0.551379 -0.0317776 -1.48549e-20)
(0.656092 -0.0238057 -2.12492e-20)
(-0.0132286 0.00772607 1.09698e-20)
(-0.0115903 0.00637264 -5.1579e-20)
(0.00185093 0.00034273 -4.50896e-20)
(0.0625384 -0.0119831 2.36876e-20)
(0.17829 -0.0280102 -1.567e-20)
(0.334682 -0.0407017 4.76346e-20)
(0.516094 -0.046409 -3.10555e-20)
(0.709092 -0.0445974 -2.34606e-19)
(0.91726 -0.0252145 7.64269e-20)
(1.04827 -0.0181944 6.70582e-20)
(-0.0102664 0.00707915 1.45045e-20)
(-0.00181929 0.00794834 7.12984e-20)
(0.0588336 -0.00468751 -6.14992e-20)
(0.194995 -0.0206949 -6.16806e-22)
(0.390605 -0.0344792 1.17917e-19)
(0.620173 -0.0404201 -3.50421e-20)
(0.859842 -0.0362556 -1.07365e-19)
(1.09104 -0.0234208 -7.90678e-20)
(1.31452 0.00124027 -1.2081e-20)
(1.46577 0.0195675 6.10828e-20)
(-0.0028766 0.00183664 -4.44217e-21)
(0.0342472 -0.00734957 5.14898e-20)
(0.173128 -0.0210993 4.93212e-20)
(0.399972 -0.0330393 -9.26255e-20)
(0.677887 -0.0353055 -4.04046e-20)
(0.966995 -0.0251378 5.83844e-20)
(1.23751 -0.00446343 4.89612e-20)
(1.47389 0.022934 9.12015e-20)
(1.67464 0.0553369 -1.9163e-19)
(1.81836 0.0793261 -1.5064e-19)
(0.00344619 -0.000276382 4.23791e-22)
(0.111883 -0.0224606 1.61668e-19)
(0.35317 -0.033241 1.03972e-19)
(0.677974 -0.031162 -1.39686e-19)
(1.02247 -0.0134555 1.30487e-19)
(1.33674 0.0158678 -1.00752e-20)
(1.59692 0.0503474 1.27461e-19)
(1.80009 0.084811 2.04745e-19)
(1.95364 0.115641 -2.75646e-19)
(2.06542 0.138956 -2.11735e-19)
(0.0285594 -0.00307297 -4.08889e-20)
(0.240276 -0.0318703 -2.69438e-19)
(0.598189 -0.0273862 3.0074e-20)
(1.00644 -0.000565414 3.59901e-19)
(1.37663 0.0392106 -2.15327e-20)
(1.66809 0.0817715 -2.47978e-19)
(1.8791 0.120158 -1.60065e-19)
(2.02591 0.151385 4.64938e-19)
(2.12863 0.175006 5.20336e-19)
(2.20081 0.190434 4.84299e-20)
(0.0753726 -0.00568175 4.32602e-20)
(0.419275 -0.0280442 2.68278e-20)
(0.890923 0.00658715 -1.54126e-19)
(1.33908 0.0610933 8.07247e-20)
(1.68132 0.114451 -3.74651e-21)
(1.91246 0.158046 -8.06596e-19)
(2.06045 0.190098 -5.56106e-21)
(2.15639 0.212428 5.75454e-19)
(2.22309 0.226994 -3.48161e-19)
(2.27331 0.235356 -3.49342e-19)
(0.146104 -0.00356353 1.66771e-19)
(0.641599 -0.000497144 1.55394e-19)
(1.19135 0.0726344 -3.81608e-19)
(1.62156 0.145998 -9.00518e-20)
(1.89927 0.200179 5.49967e-21)
(2.06402 0.236536 3.05382e-19)
(2.16297 0.259759 -5.6117e-19)
(2.22768 0.274662 -2.85851e-19)
(2.2755 0.283326 6.41163e-19)
(2.31321 0.287093 1.41365e-19)
(0.240254 0.00871633 5.63115e-21)
(0.881825 0.0578391 4.06211e-19)
(1.45314 0.164243 -3.50376e-19)
(1.82676 0.243079 -1.64014e-19)
(2.03692 0.290585 1.786e-19)
(2.15217 0.318383 -1.86646e-19)
(2.22126 0.33346 3.56969e-19)
(2.26696 0.342622 2.42767e-20)
(2.29964 0.34801 -2.54141e-19)
(2.32436 0.348482 -7.83359e-20)
(-0.00939671 0.185305 -1.90753e-21)
(-0.0264745 0.41219 2.43743e-20)
(-0.0507424 0.528744 8.18684e-21)
(-0.0736695 0.586369 -1.1678e-20)
(-0.095199 0.615606 1.1057e-21)
(-0.115397 0.629339 2.42436e-21)
(-0.133535 0.633423 -1.3274e-21)
(-0.149111 0.631043 6.03449e-21)
(-0.162562 0.623666 -5.48365e-23)
(-0.175701 0.611897 -1.88031e-20)
(-0.0208225 0.189644 2.56784e-21)
(-0.0508313 0.434747 2.14791e-23)
(-0.0770573 0.562964 1.25802e-21)
(-0.0986727 0.625036 -6.42171e-21)
(-0.117327 0.655538 2.18538e-20)
(-0.134239 0.669138 -4.59593e-21)
(-0.149552 0.671705 -3.38208e-20)
(-0.162974 0.666657 0)
(-0.174743 0.656368 -2.80139e-21)
(-0.18645 0.642325 6.7548e-21)
(-0.0298204 0.17862 6.13479e-23)
(-0.072392 0.434068 1.46985e-20)
(-0.0995173 0.577034 1.46402e-20)
(-0.118849 0.647709 -8.54009e-21)
(-0.133334 0.682317 4.15351e-20)
(-0.144851 0.698732 -1.1407e-20)
(-0.154284 0.704068 3.9629e-20)
(-0.161927 0.701367 2.41058e-20)
(-0.168028 0.692325 1.00403e-19)
(-0.173914 0.678147 1.14276e-19)
(-0.0333369 0.152182 6.2532e-21)
(-0.0861223 0.405793 6.92952e-20)
(-0.112241 0.56499 -6.045e-21)
(-0.126566 0.648665 1.94877e-20)
(-0.134038 0.689735 -1.26561e-20)
(-0.137451 0.708627 -3.40091e-20)
(-0.138288 0.714932 4.10572e-21)
(-0.137267 0.713099 0)
(-0.134849 0.705611 -1.62083e-19)
(-0.131604 0.694394 -1.89266e-19)
(-0.0288126 0.11156 3.49984e-20)
(-0.0861974 0.344612 -1.34423e-20)
(-0.109997 0.517653 -5.79539e-20)
(-0.118387 0.619393 -8.43496e-21)
(-0.117976 0.673893 -8.03862e-21)
(-0.112761 0.701959 -5.83102e-20)
(-0.104954 0.71499 2.28877e-20)
(-0.095449 0.718466 9.09147e-20)
(-0.0841071 0.715067 -2.1994e-19)
(-0.0705279 0.70573 -2.42892e-19)
(-0.0175692 0.0640714 1.86214e-20)
(-0.0720629 0.253877 -2.74049e-20)
(-0.0943799 0.430084 6.11107e-20)
(-0.0991892 0.550124 2.02423e-20)
(-0.092342 0.622783 -2.32541e-20)
(-0.0785218 0.664885 -1.39694e-19)
(-0.0608683 0.688137 -6.74146e-20)
(-0.040876 0.699176 2.05779e-19)
(-0.0185145 0.701545 -2.70459e-19)
(0.00730173 0.695916 -2.50394e-19)
(-0.00423418 0.0216681 -3.49527e-20)
(-0.0472491 0.150036 6.60689e-20)
(-0.068329 0.309989 -3.02003e-21)
(-0.0730622 0.438597 -8.69912e-20)
(-0.0634051 0.527808 6.18231e-20)
(-0.0434464 0.586243 1.79649e-20)
(-0.0170388 0.622986 -1.47785e-19)
(0.0134757 0.644477 1.19031e-20)
(0.047868 0.654437 2.89267e-19)
(0.0887631 0.651496 1.8452e-19)
(0.00438241 -0.00127735 -8.52012e-22)
(-0.0188021 0.0580744 -3.13981e-20)
(-0.0370669 0.179698 -7.83789e-20)
(-0.0436816 0.298007 6.43793e-20)
(-0.035241 0.392074 1.2181e-19)
(-0.0135373 0.46135 1.16487e-21)
(0.0179696 0.50998 -6.60384e-20)
(0.0564548 0.542401 -5.83124e-20)
(0.101386 0.561668 -1.45359e-20)
(0.156958 0.560051 3.1184e-20)
(0.00862083 -0.00926607 -7.0211e-21)
(0.00562646 0.00198686 -1.33167e-20)
(-0.0085107 0.0667709 3.14289e-20)
(-0.0170934 0.154489 2.82087e-20)
(-0.0125802 0.235494 7.78832e-21)
(0.00683314 0.301413 -1.25686e-19)
(0.0395 0.351979 -6.95021e-20)
(0.0829189 0.389419 -7.44083e-20)
(0.137155 0.416014 -9.10111e-23)
(0.207995 0.412336 -1.5337e-20)
(0.0109409 -0.0128468 -1.52037e-20)
(0.00898089 -0.0120427 -1.83659e-20)
(0.00488915 -0.000924036 1.1104e-19)
(-0.00342836 0.0397219 1.07509e-19)
(-0.00271379 0.0912197 -8.02805e-20)
(0.0156642 0.137349 -3.29224e-19)
(0.0525924 0.174957 1.54028e-20)
(0.106799 0.204867 1.41595e-19)
(0.179365 0.228094 1.33021e-19)
(0.270602 0.224591 4.35408e-20)
(-0.241443 0.535215 -2.70154e-19)
(-0.246831 0.315929 -8.41411e-19)
(-0.178458 0.0273325 -6.85224e-19)
(-0.048295 -0.218046 7.24953e-19)
(0.172047 -0.353497 -2.14407e-19)
(0.362471 -0.382963 1.50693e-20)
(0.519037 -0.349324 -8.15747e-20)
(0.63144 -0.280563 4.78109e-20)
(0.70356 -0.221579 -3.32548e-20)
(0.762344 -0.118517 -2.43066e-20)
(-0.247229 0.557241 -3.29167e-19)
(-0.28924 0.316274 3.93489e-21)
(-0.21785 0.000737993 -7.35414e-20)
(-0.0579922 -0.27184 -4.0639e-19)
(0.181236 -0.414839 -9.6297e-21)
(0.379231 -0.435598 1.81879e-20)
(0.537576 -0.389032 4.82688e-20)
(0.64933 -0.306873 3.49878e-21)
(0.720506 -0.240029 -6.00895e-20)
(0.779429 -0.127333 4.70424e-20)
(-0.21504 0.588959 9.97488e-20)
(-0.2911 0.328835 1.02334e-18)
(-0.206907 -0.0259733 1.96393e-19)
(-0.0157394 -0.327748 -6.58581e-19)
(0.236797 -0.477174 1.7493e-19)
(0.430921 -0.487663 3.38092e-21)
(0.578109 -0.427818 3.08393e-20)
(0.679347 -0.332314 -4.49188e-20)
(0.744072 -0.258195 4.26014e-21)
(0.800121 -0.136197 -1.11873e-22)
(-0.14228 0.619658 3.05005e-19)
(-0.220656 0.34965 -1.60257e-20)
(-0.134794 -0.0501315 1.86967e-19)
(0.0894974 -0.384456 4.40294e-19)
(0.35122 -0.538464 -4.23433e-20)
(0.533968 -0.536073 -2.99862e-21)
(0.655947 -0.462273 -2.79894e-20)
(0.732063 -0.354334 0)
(0.78129 -0.274503 0)
(0.828177 -0.144602 -1.16396e-22)
(-0.043321 0.642565 1.87117e-19)
(-0.113871 0.376199 -5.86954e-19)
(0.00634256 -0.0723688 -8.9734e-21)
(0.246947 -0.439552 -3.27778e-19)
(0.513597 -0.598221 -1.17352e-19)
(0.690099 -0.579437 -1.16012e-19)
(0.78304 -0.489147 9.34612e-21)
(0.820125 -0.369652 -1.61442e-20)
(0.842398 -0.28651 -6.35929e-20)
(0.869439 -0.151594 -2.5239e-21)
(0.0749542 0.658448 1.46346e-19)
(0.0378442 0.402813 -2.39564e-19)
(0.194607 -0.0891692 -1.26141e-18)
(0.432304 -0.490421 1.42264e-20)
(0.693108 -0.658153 3.95353e-19)
(0.873716 -0.620755 -4.14288e-20)
(0.953263 -0.508256 -2.16329e-20)
(0.950425 -0.375649 -6.89455e-20)
(0.938098 -0.291142 1.13924e-21)
(0.931678 -0.155666 -2.92803e-20)
(0.204556 0.654154 -1.32137e-19)
(0.237471 0.429124 -5.01335e-20)
(0.407242 -0.0962736 4.23529e-19)
(0.643876 -0.533053 -1.25579e-19)
(0.880878 -0.717022 -5.87498e-20)
(1.05384 -0.664715 1.40769e-19)
(1.13856 -0.524691 -2.32197e-20)
(1.11323 -0.37351 5.51354e-21)
(1.07147 -0.286354 1.87912e-20)
(1.022 -0.155152 8.17256e-21)
(0.324643 0.617098 -2.5973e-19)
(0.457521 0.455232 -1.46162e-19)
(0.640281 -0.0917391 6.29951e-19)
(0.897831 -0.5626 4.81442e-20)
(1.10335 -0.766316 -3.0087e-19)
(1.23224 -0.70838 -2.33976e-19)
(1.31312 -0.543143 5.92831e-20)
(1.28395 -0.368513 -9.61296e-21)
(1.23016 -0.273478 9.33991e-22)
(1.14097 -0.149343 -3.99443e-21)
(0.432863 0.55157 -8.37654e-19)
(0.678438 0.469122 -1.3842e-19)
(0.887282 -0.0815338 -4.03574e-19)
(1.1854 -0.578743 6.53416e-19)
(1.37163 -0.799173 -3.49974e-19)
(1.43319 -0.742302 -9.67801e-20)
(1.47628 -0.561284 -1.29274e-19)
(1.44174 -0.364907 9.88879e-21)
(1.39069 -0.256881 1.32089e-20)
(1.27779 -0.139405 7.36857e-21)
(0.492096 0.418667 -1.34077e-19)
(0.834794 0.476266 7.20686e-19)
(1.12942 -0.0484941 -7.85584e-20)
(1.47374 -0.586432 3.6752e-19)
(1.65349 -0.81729 -3.25004e-19)
(1.66021 -0.760032 8.68135e-20)
(1.64132 -0.572307 -2.84929e-19)
(1.58246 -0.36215 -1.69518e-20)
(1.53369 -0.240462 -9.82045e-21)
(1.41404 -0.127711 -1.91247e-20)
(0.701253 0.262239 3.54904e-19)
(1.13018 0.410594 1.61146e-19)
(1.51143 -0.0938109 -2.11757e-20)
(1.87085 -0.623075 -1.88053e-21)
(2.01688 -0.833972 8.88405e-20)
(1.96711 -0.762439 -3.81482e-20)
(1.86358 -0.567582 4.23125e-21)
(1.74873 -0.351409 4.27974e-20)
(1.68555 -0.21834 -1.0474e-19)
(1.56572 -0.112273 1.30889e-20)
(1.19184 0.218408 1.82332e-19)
(1.6404 0.235571 -3.61878e-19)
(2.15938 -0.2707 -5.36915e-19)
(2.42575 -0.734722 9.26883e-20)
(2.42211 -0.86001 -2.17743e-19)
(2.28204 -0.716757 7.41861e-20)
(2.1012 -0.49645 1.90961e-19)
(1.91603 -0.293932 -3.38386e-20)
(1.81496 -0.174435 1.2796e-19)
(1.69245 -0.089141 2.50883e-20)
(1.8502 0.219117 6.73168e-20)
(2.2648 0.0976685 6.26389e-20)
(2.69389 -0.372083 -5.17638e-21)
(2.78014 -0.734352 2.6234e-35)
(2.63402 -0.80786 -7.71531e-20)
(2.41819 -0.649679 -3.95686e-34)
(2.21562 -0.426865 4.39288e-20)
(2.01725 -0.236024 9.47251e-34)
(1.8969 -0.129015 -2.71656e-21)
(1.76736 -0.0649278 2.69747e-21)
(2.35778 0.173754 1.44273e-19)
(2.73593 -0.00622588 4.42079e-19)
(3.0181 -0.436688 5.56953e-19)
(3.02881 -0.729217 0)
(2.83546 -0.747992 8.26135e-20)
(2.54167 -0.562747 -1.05698e-19)
(2.26801 -0.341353 -1.76101e-19)
(2.04039 -0.170639 2.72076e-33)
(1.91086 -0.0801289 -7.61931e-20)
(1.78271 -0.0407489 -5.27674e-21)
(2.67944 0.0938757 1.50971e-19)
(2.98482 -0.088363 -2.0591e-20)
(3.18991 -0.465702 0)
(3.16421 -0.687064 0)
(2.91343 -0.648578 0)
(2.57949 -0.444052 0)
(2.27405 -0.234496 1.08495e-20)
(2.02365 -0.0949153 3.05305e-33)
(1.886 -0.0285924 -4.54612e-21)
(1.76357 -0.0172259 -8.87759e-34)
(2.85156 0.016793 4.63246e-20)
(3.09147 -0.156335 0)
(3.27979 -0.484133 0)
(3.19645 -0.632385 0)
(2.84452 -0.539958 0)
(2.43442 -0.325922 0)
(2.11856 -0.135946 -2.14406e-20)
(1.89695 -0.0273074 1.21498e-19)
(1.79137 0.0158623 -5.55469e-21)
(1.69903 0.00442832 7.22971e-21)
(2.90669 -0.0485442 0)
(3.12347 -0.213951 2.68259e-19)
(3.24433 -0.484678 2.82411e-19)
(2.99791 -0.545572 0)
(2.54905 -0.388594 -4.65295e-20)
(2.12335 -0.178437 -1.08477e-19)
(1.83478 -0.0327375 -1.14675e-19)
(1.66383 0.03088 -5.80016e-20)
(1.60702 0.0467083 4.78628e-20)
(1.55966 0.0189226 -1.78994e-20)
(2.83369 -0.107743 6.32471e-20)
(2.99624 -0.257412 -2.52721e-20)
(2.89048 -0.414261 1.70164e-20)
(2.40079 -0.385537 -4.04864e-35)
(1.85925 -0.215898 1.39385e-20)
(1.49727 -0.0514285 -5.53994e-34)
(1.33179 0.0366722 -2.41499e-20)
(1.27104 0.0594418 -5.81715e-20)
(1.28506 0.0550124 -6.48765e-21)
(1.29136 0.0223955 1.28165e-20)
(2.40304 -0.137666 0)
(2.35567 -0.241856 -9.30818e-20)
(1.89521 -0.237905 -6.50066e-20)
(1.23371 -0.12879 0)
(0.813955 -0.0331573 -1.00524e-20)
(0.670645 0.0207477 2.8959e-21)
(0.679292 0.0453871 -1.61622e-20)
(0.733315 0.0464851 1.13842e-20)
(0.806239 0.0370826 -2.22555e-20)
(0.852449 0.0149892 -1.0977e-20)
(1.07075 -0.0879256 2.27597e-20)
(0.70909 -0.0480989 0)
(0.337769 -0.00567182 0)
(0.115169 -0.000679413 0)
(0.0175244 -0.0023731 0)
(0.0127588 0.00161495 0)
(0.0710311 0.0101792 -2.36369e-20)
(0.146702 0.0119913 8.81728e-35)
(0.218206 0.00942038 -7.25622e-21)
(0.265866 0.00367546 -1.36304e-20)
(2.36404 0.348497 3.87556e-19)
(2.36784 0.295747 1.57576e-19)
(2.34964 0.250304 2.92138e-19)
(2.31817 0.214966 -3.01919e-19)
(2.24614 0.182998 7.94026e-20)
(2.13427 0.152018 3.81336e-20)
(1.91498 0.092941 3.80793e-20)
(1.61266 0.069561 1.99942e-20)
(1.22425 -0.0254688 9.10026e-21)
(0.694102 0.0137312 -1.55831e-21)
(2.38971 0.317456 -1.87256e-19)
(2.4162 0.28595 3.78126e-20)
(2.42355 0.247631 1.3903e-19)
(2.41542 0.226526 1.16087e-19)
(2.39977 0.190611 -1.86169e-19)
(2.33553 0.186055 9.19848e-20)
(2.28679 0.141458 -2.20678e-20)
(2.07539 0.123976 -9.90658e-21)
(1.97623 0.0958878 -1.15407e-20)
(1.52162 0.0279586 4.97012e-21)
(2.45173 0.277817 2.78705e-20)
(2.47149 0.257232 -1.27917e-19)
(2.50888 0.22338 -1.71281e-19)
(2.49343 0.206818 3.6205e-19)
(2.52647 0.180759 -8.8173e-21)
(2.46386 0.164208 5.26516e-21)
(2.49773 0.15891 -7.16803e-20)
(2.36182 0.114553 -5.15617e-20)
(2.36464 0.140971 9.8872e-21)
(2.11797 0.0498777 -7.20479e-21)
(2.53708 0.23992 4.6782e-20)
(2.54759 0.219691 -1.53191e-19)
(2.60237 0.194739 2.42388e-20)
(2.58758 0.169976 -1.1586e-19)
(2.63681 0.160314 1.84466e-19)
(2.59549 0.124704 -5.34672e-20)
(2.63791 0.141175 4.22303e-20)
(2.56869 0.0840448 -5.26496e-20)
(2.58685 0.122943 -1.02997e-19)
(2.47503 0.0461667 -4.97069e-20)
(2.59297 0.200657 9.01264e-20)
(2.61019 0.178645 -2.5064e-19)
(2.66468 0.162082 -2.30561e-20)
(2.66848 0.132736 -1.2711e-20)
(2.71469 0.129337 -4.65678e-21)
(2.70503 0.0895644 -1.64504e-21)
(2.74133 0.103409 2.20251e-20)
(2.71731 0.0524215 -4.17287e-20)
(2.73941 0.0780698 -6.76965e-20)
(2.69638 0.0238524 -9.1347e-20)
(2.59743 0.158865 1.62628e-19)
(2.62421 0.137764 2.91825e-20)
(2.67674 0.125442 -1.76989e-19)
(2.69776 0.0979644 1.07328e-19)
(2.74339 0.0932088 8.43791e-20)
(2.75817 0.0595306 -7.0391e-20)
(2.79477 0.0624964 9.9015e-20)
(2.80252 0.0240371 5.17669e-20)
(2.82802 0.0315755 -1.28242e-19)
(2.82834 -0.00659804 -1.59141e-19)
(2.54229 0.112998 1.68056e-20)
(2.5768 0.0955414 5.34898e-20)
(2.62861 0.0842954 -6.87841e-20)
(2.66125 0.0610017 -3.83489e-20)
(2.70943 0.0540457 8.46873e-20)
(2.74129 0.0266811 4.15677e-20)
(2.78173 0.022539 8.3753e-20)
(2.81462 -0.00758189 6.31377e-20)
(2.84288 -0.0110745 8.69434e-21)
(2.87918 -0.0421789 5.17402e-20)
(2.39905 0.0694662 2.09447e-20)
(2.44614 0.0579555 7.301e-24)
(2.48853 0.045752 -7.70684e-20)
(2.53745 0.0276671 -6.85031e-20)
(2.57719 0.018568 3.69563e-20)
(2.63123 -0.00308004 -3.61444e-20)
(2.66331 -0.0124135 -3.41255e-20)
(2.72551 -0.0364503 1.05897e-19)
(2.74534 -0.0477874 -9.27454e-20)
(2.81727 -0.0745391 -1.09643e-19)
(2.06355 0.0162688 6.0421e-20)
(2.12891 0.0134888 -2.88645e-20)
(2.13946 -0.000590948 -2.7494e-20)
(2.20747 -0.00491181 3.29983e-20)
(2.21561 -0.0192362 -1.96406e-20)
(2.28733 -0.0258413 -5.09413e-21)
(2.28992 -0.0407854 -3.45362e-20)
(2.36787 -0.0504788 2.44023e-20)
(2.35941 -0.0681397 2.17009e-20)
(2.44507 -0.0817906 -2.44286e-20)
(1.20683 -0.0038526 0)
(1.23031 -0.00783644 3.10249e-21)
(1.21739 -0.0112045 -4.04379e-20)
(1.24649 -0.0155255 -6.32945e-20)
(1.22028 -0.0189111 3.68673e-20)
(1.25761 -0.0222677 1.54777e-19)
(1.21587 -0.0263933 -1.1333e-20)
(1.26313 -0.0296817 -9.66711e-20)
(1.20218 -0.0381492 -1.38321e-20)
(1.25844 -0.0389992 4.78271e-21)
(1.41925 0.845238 -4.70031e-20)
(1.40049 0.886519 -9.74388e-20)
(1.39783 0.93102 -7.11379e-19)
(1.39858 0.980299 2.25152e-19)
(1.39639 1.03075 1.08092e-18)
(1.38494 1.07706 1.49151e-19)
(1.35281 1.10518 -7.96049e-20)
(1.27712 1.09187 -3.24406e-19)
(1.08614 0.971281 -3.28417e-19)
(0.578172 0.536619 -4.42549e-20)
(1.58071 0.818057 -4.10881e-19)
(1.56347 0.857566 1.17785e-18)
(1.55387 0.89907 5.22552e-19)
(1.55034 0.94621 -7.74736e-19)
(1.54791 0.99584 2.5592e-19)
(1.53734 1.04124 2.42784e-19)
(1.50381 1.06698 7.90666e-19)
(1.42124 1.05167 -1.15099e-18)
(1.20797 0.929955 -5.18934e-20)
(0.636625 0.505947 2.00035e-19)
(1.73103 0.788724 1.12819e-19)
(1.71914 0.827128 9.14192e-19)
(1.70797 0.865901 1.75689e-20)
(1.70165 0.908343 -4.4933e-19)
(1.69758 0.952827 1.32239e-19)
(1.68557 0.992935 -6.32269e-20)
(1.64842 1.01313 -4.81399e-20)
(1.55686 0.994426 -4.00012e-19)
(1.31812 0.87107 3.20136e-20)
(0.684225 0.463547 -2.15882e-19)
(1.86505 0.753175 -4.62214e-19)
(1.85824 0.788966 4.21294e-19)
(1.84855 0.823889 -6.43883e-19)
(1.84141 0.860913 -2.37475e-19)
(1.83593 0.899374 1.37482e-18)
(1.82139 0.932599 -8.60064e-19)
(1.77895 0.945529 -9.67839e-19)
(1.67718 0.921811 4.19656e-19)
(1.40862 0.796251 -1.25579e-19)
(0.71446 0.411417 -6.17519e-20)
(1.98119 0.70871 5.74196e-19)
(1.97839 0.740766 4.5896e-19)
(1.97172 0.771764 -2.14068e-19)
(1.96545 0.803664 8.32358e-19)
(1.95818 0.835261 1.59903e-19)
(1.93891 0.859634 -3.70661e-19)
(1.88911 0.863324 5.31473e-19)
(1.77456 0.834388 -6.40544e-19)
(1.46991 0.70688 -7.28177e-19)
(0.72135 0.349508 -6.64846e-21)
(2.08196 0.658123 7.60669e-19)
(2.08237 0.686038 9.44546e-19)
(2.07775 0.711541 -9.51302e-19)
(2.07101 0.736247 -9.61436e-19)
(2.06057 0.760135 2.28238e-19)
(2.0347 0.774139 -6.86156e-19)
(1.97426 0.769658 -4.34912e-19)
(1.84146 0.735221 3.70307e-19)
(1.49533 0.603183 7.20279e-20)
(0.700259 0.2798 -1.07253e-20)
(2.16827 0.601136 7.0853e-19)
(2.16679 0.622581 -9.37897e-19)
(2.15957 0.643229 -8.16097e-19)
(2.15027 0.664667 6.18409e-19)
(2.1357 0.679667 -5.45568e-19)
(2.0979 0.681179 1.6096e-18)
(2.02893 0.668901 -2.36736e-19)
(1.86966 0.626936 -1.29939e-18)
(1.47587 0.489112 5.68744e-19)
(0.648297 0.207388 3.33662e-20)
(2.23434 0.537659 -4.63456e-19)
(2.23456 0.555607 -6.43257e-19)
(2.23374 0.571076 -8.40926e-19)
(2.225 0.578637 3.06072e-20)
(2.18689 0.583533 2.79618e-19)
(2.13645 0.57665 2.92448e-19)
(2.05178 0.560439 6.59311e-19)
(1.85374 0.508841 -3.36745e-19)
(1.4063 0.368934 2.07718e-20)
(0.567836 0.138489 6.32012e-20)
(2.29553 0.480892 2.22556e-19)
(2.28793 0.493265 -7.49463e-20)
(2.26485 0.501564 3.63244e-19)
(2.23372 0.496979 8.34595e-19)
(2.19759 0.493381 -3.54048e-19)
(2.14552 0.481532 -1.40958e-18)
(2.03255 0.454682 9.88584e-19)
(1.78357 0.389877 8.91172e-19)
(1.28227 0.252092 -4.54746e-19)
(0.464945 0.0798187 -1.19284e-20)
(2.3239 0.415537 -4.49658e-19)
(2.30181 0.416842 -4.63777e-21)
(2.27417 0.416026 5.73959e-19)
(2.24263 0.410883 5.80548e-19)
(2.19548 0.403874 4.27885e-19)
(2.11551 0.385269 -6.75268e-19)
(1.95971 0.347196 3.71692e-20)
(1.65124 0.272385 -3.42684e-19)
(1.10407 0.145035 -5.10228e-19)
(0.350813 0.0359373 -1.12796e-20)
(0.482138 0.34567 2.77173e-20)
(0.445188 0.357145 -1.24151e-19)
(0.40447 0.369582 -2.287e-20)
(0.360432 0.382804 8.21741e-20)
(0.312798 0.396076 -2.94386e-20)
(0.260975 0.407166 -4.12757e-20)
(0.20432 0.410173 -2.23163e-20)
(0.141593 0.392061 -2.98279e-20)
(0.0741861 0.328663 9.96391e-20)
(0.0278993 0.172951 9.37735e-21)
(0.527693 0.442382 -4.50062e-21)
(0.490983 0.458843 2.37931e-20)
(0.451053 0.476385 -2.76985e-20)
(0.408003 0.49484 1.10972e-20)
(0.361346 0.513488 4.60535e-20)
(0.310266 0.529978 3.17344e-20)
(0.253593 0.537662 1.07694e-19)
(0.189287 0.521182 -6.03922e-20)
(0.115323 0.4488 6.87702e-20)
(0.0496508 0.246074 -6.77908e-21)
(0.590975 0.532873 -7.64953e-20)
(0.555737 0.554158 2.41733e-20)
(0.517787 0.576687 4.89649e-20)
(0.476828 0.600383 5.74443e-21)
(0.432104 0.624568 8.34438e-21)
(0.382467 0.646794 1.4444e-19)
(0.326044 0.659766 -3.85108e-20)
(0.259674 0.645906 -5.75682e-20)
(0.176871 0.566019 -6.71541e-23)
(0.083443 0.317581 1.42339e-20)
(0.663082 0.618483 4.52283e-20)
(0.629599 0.644605 -2.17795e-20)
(0.594472 0.671851 -1.28107e-19)
(0.556688 0.700395 -4.55023e-20)
(0.515097 0.729687 -7.28553e-20)
(0.468231 0.75718 -7.78589e-20)
(0.413465 0.774878 -2.35682e-19)
(0.346139 0.763121 7.86596e-20)
(0.254256 0.675935 -5.64799e-20)
(0.127055 0.384263 -9.58152e-20)
(0.74653 0.692891 2.48589e-20)
(0.715063 0.723317 -1.3996e-19)
(0.683317 0.754829 8.6346e-20)
(0.64962 0.788014 -6.19756e-20)
(0.612367 0.822452 -1.13925e-19)
(0.569603 0.855412 1.65703e-19)
(0.517769 0.878073 9.17614e-20)
(0.450303 0.868725 -1.27283e-19)
(0.348502 0.775208 -2.62998e-19)
(0.180394 0.443561 4.7558e-20)
(0.841964 0.761578 1.18574e-20)
(0.81215 0.795914 6.75209e-21)
(0.783036 0.830402 2.96991e-20)
(0.75244 0.866504 5.58416e-20)
(0.718808 0.904309 2.00999e-19)
(0.680111 0.940923 -1.96719e-19)
(0.631855 0.966474 -1.37593e-19)
(0.565067 0.957543 -4.6743e-20)
(0.453149 0.857326 1.12862e-19)
(0.239686 0.490879 1.53541e-19)
(0.947532 0.812048 -1.13636e-19)
(0.923267 0.850099 6.01743e-20)
(0.900699 0.887771 2.61919e-19)
(0.876119 0.926738 -1.689e-19)
(0.847371 0.967329 -4.08512e-19)
(0.812386 1.00679 1.89789e-19)
(0.766255 1.03464 6.17291e-19)
(0.697961 1.02616 1.56489e-19)
(0.572203 0.921224 -4.08847e-20)
(0.305769 0.527008 2.17226e-19)
(1.05084 0.855954 -2.80811e-19)
(1.02796 0.895392 -9.77879e-20)
(1.01047 0.934158 2.81707e-19)
(0.993395 0.975016 -1.11238e-19)
(0.973045 1.01785 9.3982e-20)
(0.945712 1.059 4.03683e-19)
(0.904791 1.08719 -4.40018e-19)
(0.836536 1.07736 -3.97341e-19)
(0.696988 0.966772 3.37455e-19)
(0.374591 0.550619 -1.30517e-21)
(1.16744 0.873682 -1.49308e-20)
(1.1532 0.915337 4.17446e-20)
(1.14191 0.954244 -2.29298e-19)
(1.12924 0.995659 -8.35172e-20)
(1.11316 1.04053 4.96119e-19)
(1.0903 1.08446 1.4751e-19)
(1.05252 1.11431 -1.25687e-19)
(0.982647 1.1043 0)
(0.827504 0.989897 -2.18897e-19)
(0.444988 0.559872 -1.1236e-19)
(1.25851 0.878434 0)
(1.25285 0.921657 0)
(1.25657 0.963116 6.59647e-19)
(1.25714 1.00579 1.5264e-19)
(1.25109 1.05067 -2.33992e-19)
(1.23551 1.09397 4.20478e-19)
(1.20181 1.1222 -3.00494e-19)
(1.1302 1.11014 -8.09627e-19)
(0.958392 0.991876 4.11427e-19)
(0.513729 0.55522 2.12848e-19)
(0.982675 -0.0199657 -9.81276e-21)
(1.03389 0.022691 -1.10349e-20)
(1.02825 0.145047 6.80194e-21)
(1.01186 0.223758 3.30658e-21)
(0.981664 0.235215 1.32196e-20)
(0.943383 0.232967 2.46801e-20)
(0.913696 0.217934 -1.25967e-20)
(0.850988 0.229736 -1.60117e-20)
(0.799482 0.247851 -7.71474e-20)
(0.646424 0.288781 5.37056e-20)
(0.982317 -0.0229106 -4.05332e-22)
(1.03423 0.0183749 8.54882e-21)
(1.02739 0.147399 1.28397e-22)
(1.01075 0.231441 6.83527e-21)
(0.981718 0.244388 9.96942e-21)
(0.943569 0.242819 -3.65933e-20)
(0.918029 0.23023 -1.39299e-20)
(0.862967 0.245881 3.1407e-22)
(0.81853 0.279886 1.96617e-19)
(0.687043 0.355083 2.68407e-21)
(0.981708 -0.0258778 1.05267e-21)
(1.03516 0.0146337 1.54165e-20)
(1.02712 0.150445 -6.02752e-21)
(1.01037 0.23943 -8.86626e-22)
(0.981606 0.253406 -1.21188e-20)
(0.943146 0.25216 2.58815e-21)
(0.920874 0.240677 1.81798e-20)
(0.875093 0.260498 -1.68413e-20)
(0.836591 0.309138 1.07655e-19)
(0.737419 0.417516 -2.53846e-19)
(0.980764 -0.0289181 1.51785e-21)
(1.03669 0.0114003 -1.32969e-21)
(1.02755 0.154212 -7.04203e-21)
(1.01045 0.247866 -1.55839e-20)
(0.981078 0.262388 2.60164e-20)
(0.9425 0.261076 2.38431e-20)
(0.923077 0.249164 -2.3509e-20)
(0.88736 0.273924 8.54271e-20)
(0.854448 0.334752 -9.77713e-20)
(0.795612 0.476412 -2.71107e-19)
(0.97939 -0.0320728 5.77518e-22)
(1.03892 0.00857132 -1.45582e-20)
(1.02884 0.158764 1.99186e-21)
(1.01072 0.256917 2.68421e-20)
(0.98035 0.271335 9.97739e-21)
(0.942447 0.269437 5.33489e-20)
(0.925503 0.255682 2.83064e-20)
(0.899813 0.286564 7.05343e-20)
(0.871631 0.35649 -3.03013e-21)
(0.862377 0.529145 2.07438e-19)
(0.977508 -0.0353822 2.01541e-25)
(1.04193 0.00601929 2.53106e-22)
(1.03088 0.164203 8.01333e-22)
(1.01104 0.266671 7.59301e-21)
(0.980348 0.280035 -3.45004e-20)
(0.943951 0.277082 7.82341e-21)
(0.928883 0.260542 -4.81843e-21)
(0.912042 0.298899 -2.08991e-19)
(0.889523 0.373386 0)
(0.939004 0.579192 -2.58371e-20)
(0.975116 -0.0388446 -2.29445e-22)
(1.04549 0.00361728 4.92937e-21)
(1.03319 0.17062 7.52559e-22)
(1.01171 0.276963 -3.74878e-20)
(0.982372 0.288121 -1.26097e-20)
(0.94768 0.284002 -6.67719e-20)
(0.934057 0.264237 4.66983e-21)
(0.924067 0.311075 5.60469e-21)
(0.91101 0.386187 -2.32909e-21)
(1.01501 0.618371 7.78596e-19)
(0.972343 -0.0423656 -8.95719e-21)
(1.04871 0.00125244 5.38352e-21)
(1.03537 0.177892 -1.90278e-21)
(1.0136 0.287268 1.85754e-20)
(0.987503 0.295283 -5.39313e-20)
(0.953917 0.290185 1.54276e-20)
(0.942395 0.26706 -3.19114e-21)
(0.93712 0.322927 2.40985e-20)
(0.936782 0.393778 1.3281e-19)
(1.1063 0.663751 -4.45636e-20)
(0.969507 -0.0457556 3.09848e-21)
(1.05005 -0.00129573 -2.76657e-21)
(1.03765 0.185668 1.20681e-21)
(1.01788 0.296979 3.33058e-20)
(0.996577 0.301216 5.51903e-21)
(0.963123 0.295322 2.56871e-20)
(0.956201 0.269009 -4.88667e-20)
(0.953039 0.333546 6.32026e-20)
(0.973253 0.391947 2.61955e-19)
(1.17547 0.682444 -6.36288e-19)
(0.96717 -0.0487493 7.34915e-21)
(1.0478 -0.00247748 -1.42522e-21)
(1.04069 0.194805 5.53715e-22)
(1.02567 0.306294 -9.33501e-21)
(1.01089 0.305439 6.02953e-20)
(0.978118 0.299202 -3.50095e-20)
(0.97959 0.270926 -1.63144e-20)
(0.977933 0.344386 3.75519e-20)
(1.02101 0.407433 -1.2701e-19)
(1.29521 0.737944 3.58674e-19)
(0.96573 -0.0515688 -1.78917e-21)
(1.03865 -0.00782774 -2.24326e-21)
(1.04666 0.197721 -6.3946e-21)
(1.04297 0.314022 -2.95465e-20)
(1.04265 0.310007 -3.50925e-20)
(1.01775 0.306512 -4.62591e-20)
(1.03574 0.266411 1.56735e-20)
(1.03885 0.351575 -1.34175e-19)
(1.07242 0.348782 -4.64784e-19)
(1.28952 0.725683 -1.04814e-19)
(0.964836 -0.0533453 -1.3519e-20)
(1.01898 -0.0191392 -5.88415e-21)
(1.05426 0.185538 2.17521e-21)
(1.07665 0.31461 5.3805e-22)
(1.12977 0.305706 1.77712e-20)
(1.10843 0.310628 6.21452e-20)
(1.20274 0.251385 1.58638e-20)
(1.15856 0.352505 1.0446e-19)
(1.26288 0.313439 1.95206e-19)
(1.31381 0.610352 2.80008e-19)
(0.963703 -0.0519542 -2.08932e-21)
(0.997877 -0.0294362 -2.55511e-21)
(1.06402 0.162165 2.90089e-21)
(1.11664 0.297336 6.28943e-21)
(1.26624 0.28973 3.81842e-35)
(1.19451 0.295432 -8.046e-21)
(1.45135 0.233936 -4.34866e-34)
(1.25841 0.343872 1.68012e-20)
(1.55513 0.289332 -4.33552e-20)
(1.43406 0.516973 -2.22241e-19)
(0.963671 -0.046101 2.23691e-20)
(0.979115 -0.0417019 -2.38596e-35)
(1.06929 0.126 -2.90503e-21)
(1.15208 0.252744 3.93396e-21)
(1.39859 0.265445 -9.99421e-21)
(1.26404 0.257669 1.52726e-21)
(1.66813 0.212355 -5.32557e-34)
(1.36304 0.327753 -5.17411e-20)
(1.78493 0.253038 -1.11927e-19)
(1.62345 0.448132 2.44585e-19)
(0.965751 -0.0375146 0)
(0.972124 -0.0528523 -6.85929e-35)
(1.06425 0.0801085 0)
(1.18333 0.185897 0)
(1.4663 0.234973 0)
(1.35015 0.208377 0)
(1.75466 0.183309 -3.49732e-34)
(1.50045 0.304368 0)
(1.88172 0.206998 -1.6715e-20)
(1.79399 0.389847 1.44201e-19)
(0.968467 -0.0304593 2.9581e-21)
(0.982205 -0.0615511 -5.5874e-21)
(1.05925 0.0296635 -3.72325e-21)
(1.20049 0.109518 0)
(1.46964 0.195923 0)
(1.43348 0.156366 7.11933e-21)
(1.74474 0.150617 3.25375e-20)
(1.63299 0.274719 -1.25214e-20)
(1.89288 0.165571 -2.565e-20)
(1.91453 0.324818 9.69575e-20)
(0.969889 -0.0280256 -5.53641e-20)
(1.01152 -0.0713769 5.02258e-21)
(1.05921 -0.0211169 -4.92204e-21)
(1.19409 0.0389063 -2.63006e-20)
(1.41306 0.142362 -1.60018e-20)
(1.4725 0.106038 2.27484e-21)
(1.66515 0.114346 -3.17712e-20)
(1.70027 0.235444 -1.18478e-20)
(1.85602 0.128965 -3.75436e-20)
(1.9827 0.25368 1.18951e-19)
(0.968019 -0.0301221 -5.25225e-21)
(1.04615 -0.0765303 -1.1629e-20)
(1.04289 -0.0565706 -6.08656e-21)
(1.14797 -0.00840824 -5.16116e-21)
(1.26904 0.0850023 -6.47478e-36)
(1.438 0.0587465 7.96811e-21)
(1.46733 0.078717 -8.42195e-34)
(1.66764 0.185437 -1.14448e-20)
(1.74533 0.0876046 1.76721e-20)
(1.96272 0.180113 2.26834e-20)
(0.9561 -0.0478895 1.3482e-19)
(1.05307 -0.0785416 -5.61624e-21)
(0.95225 -0.0741115 -7.24082e-21)
(0.978142 -0.0305192 1.1158e-20)
(1.00301 0.0284328 6.60835e-21)
(1.19714 0.0203237 1.2668e-20)
(1.09064 0.0490671 1.27483e-20)
(1.45374 0.0978131 -2.76444e-20)
(1.44154 0.0431432 -2.68135e-20)
(1.72505 0.0987012 7.36978e-20)
(0.872954 -0.0328655 6.57429e-21)
(0.855542 -0.0583959 -5.44908e-35)
(0.572086 -0.0468633 -7.60718e-21)
(0.496163 -0.0132097 0)
(0.484628 0.00502762 0)
(0.573968 0.00851749 8.30276e-21)
(0.534247 0.0169016 -7.32994e-36)
(0.797704 0.0256879 -1.08063e-20)
(0.784613 0.0150073 -2.70994e-20)
(1.01169 0.0367219 -3.71648e-20)
(1.52022 0.740725 1.49074e-19)
(1.63302 0.725593 -5.82629e-20)
(1.75853 0.702647 -3.2852e-21)
(1.87765 0.672826 5.68035e-20)
(1.98464 0.635814 -2.34576e-19)
(2.07874 0.592463 -4.37299e-19)