/*--------------------------------*- C++ -*----------------------------------*\
| =========                 |                                                 |
| \\      /  F ield         | OpenFOAM: The Open Source CFD Toolbox           |
|  \\    /   O peration     | Version:  2406                                  |
|   \\  /    A nd           | Website:  www.openfoam.com                      |
|    \\/     M anipulation  |                                                 |
\*---------------------------------------------------------------------------*/
FoamFile
{
    version     2.0;
    format      ascii;
    arch        "LSB;label=32;scalar=64";
    class       volVectorField;
    location    "0.4";
    object      flux;
}
// * * * * * * * * * * * * * * * * * * * * * * * * * * * * * * * * * * * * * //

dimensions      [0 1 -1 1 0 0 0];

internalField   nonuniform List<vector> 
2500
(
(0.00160907 0.00160907 0)
(0.0047995 0.00161922 0)
(0.00791643 0.0016398 0)
(0.0109153 0.00167018 0)
(0.0137469 0.00170992 0)
(0.0163675 0.00175841 0)
(0.0187365 0.00181492 0)
(0.0208164 0.00187855 0)
(0.0225742 0.00194833 0)
(0.0239815 0.00202316 0)
(0.0250151 0.00210187 0)
(0.0256572 0.00218324 0)
(0.0258963 0.00226598 0)
(0.025727 0.00234879 0)
(0.0251503 0.00243037 0)
(0.0241738 0.00250941 0)
(0.0228116 0.00258468 0)
(0.021084 0.00265496 0)
(0.0190177 0.00271915 0)
(0.016645 0.00277621 0)
(0.0140033 0.00282524 0)
(0.0111348 0.00286545 0)
(0.00808576 0.00289619 0)
(0.00490532 0.00291697 0)
(0.00164511 0.00292747 0)
(-0.00164185 0.0029275 0)
(-0.00490209 0.00291708 0)
(-0.00808259 0.00289636 0)
(-0.0111318 0.00286569 0)
(-0.0140003 0.00282556 0)
(-0.0166421 0.00277662 0)
(-0.019015 0.00271964 0)
(-0.0210815 0.00265554 0)
(-0.0228092 0.00258536 0)
(-0.0241716 0.00251019 0)
(-0.0251484 0.00243126 0)
(-0.0257253 0.00234979 0)
(-0.0258948 0.0022671 0)
(-0.0256559 0.00218448 0)
(-0.0250139 0.00210323 0)
(-0.0239806 0.00202464 0)
(-0.0225736 0.00194993 0)
(-0.020816 0.00188028 0)
(-0.0187364 0.00181677 0)
(-0.0163678 0.00176041 0)
(-0.0137477 0.00171208 0)
(-0.0109167 0.00167255 0)
(-0.007919 0.00164245 0)
(-0.00480056 0.0016221 0)
(-0.00160852 0.00161095 0)
(0.00161922 0.0047995 0)
(0.00483023 0.00483023 0)
(0.00796739 0.0048916 0)
(0.0109854 0.0049823 0)
(0.0138351 0.00510096 0)
(0.0164725 0.00524577 0)
(0.0188566 0.00541449 0)
(0.0209498 0.00560451 0)
(0.0227188 0.00581286 0)
(0.0241351 0.0060363 0)
(0.0251751 0.00627134 0)
(0.0258213 0.0065143 0)
(0.0260619 0.00676135 0)
(0.0258914 0.0070086 0)
(0.0253109 0.00725216 0)
(0.0243281 0.00748817 0)
(0.0229571 0.00771289 0)
(0.0212185 0.00792273 0)
(0.019139 0.00811436 0)
(0.0167511 0.00828472 0)
(0.0140925 0.00843108 0)
(0.0112058 0.00855111 0)
(0.00813729 0.00864287 0)
(0.00493659 0.0087049 0)
(0.00165564 0.00873621 0)
(-0.00165224 0.00873628 0)
(-0.00493322 0.00870513 0)
(-0.00813397 0.00864326 0)
(-0.0112026 0.00855167 0)
(-0.0140894 0.00843182 0)
(-0.0167481 0.00828566 0)
(-0.0191361 0.00811553 0)
(-0.0212158 0.00792414 0)
(-0.0229546 0.00771457 0)
(-0.0243257 0.00749016 0)
(-0.0253088 0.00725447 0)
(-0.0258894 0.00701126 0)
(-0.0260601 0.00676437 0)
(-0.0258198 0.00651771 0)
(-0.0251738 0.00627515 0)
(-0.0241339 0.00604053 0)
(-0.0227179 0.00581751 0)
(-0.0209492 0.00560958 0)
(-0.0188563 0.00542 0)
(-0.0164725 0.00525174 0)
(-0.0138355 0.00510745 0)
(-0.0109864 0.00498943 0)
(-0.00796944 0.00489962 0)
(-0.00483205 0.00483943 0)
(-0.00161967 0.00480795 0)
(0.0016398 0.00791643 0)
(0.0048916 0.00796739 0)
(0.0080685 0.0080685 0)
(0.0111246 0.00821808 0)
(0.0140103 0.00841382 0)
(0.0166811 0.00865271 0)
(0.0190952 0.00893104 0)
(0.0212148 0.00924451 0)
(0.023006 0.00958822 0)
(0.02444 0.00995683 0)
(0.025493 0.0103446 0)
(0.0261472 0.0107454 0)
(0.0263906 0.0111529 0)
(0.0262178 0.0115608 0)
(0.0256299 0.0119626 0)
(0.0246345 0.0123519 0)
(0.0232461 0.0127226 0)
(0.0214855 0.0130688 0)
(0.0193797 0.0133849 0)
(0.0169617 0.0136659 0)
(0.0142697 0.0139073 0)
(0.0113466 0.0141053 0)
(0.00823956 0.0142567 0)
(0.00499865 0.014359 0)
(0.00167649 0.0144107 0)
(-0.00167293 0.0144108 0)
(-0.00499511 0.0143594 0)
(-0.00823605 0.0142574 0)
(-0.0113432 0.0141063 0)
(-0.0142663 0.0139086 0)
(-0.0169584 0.0136675 0)
(-0.0193765 0.0133869 0)
(-0.0214824 0.0130712 0)
(-0.0232432 0.0127255 0)
(-0.0246317 0.0123554 0)
(-0.0256273 0.0119667 0)
(-0.0262154 0.0115655 0)
(-0.0263883 0.0111583 0)
(-0.0261451 0.0107515 0)
(-0.0254911 0.0103514 0)
(-0.0244383 0.00996448 0)
(-0.0230045 0.00959666 0)
(-0.0212135 0.00925373 0)
(-0.0190942 0.00894106 0)
(-0.0166804 0.00866353 0)
(-0.01401 0.00842549 0)
(-0.0111246 0.00823068 0)
(-0.00806899 0.00808227 0)
(-0.00489223 0.00798266 0)
(-0.00164 0.00793219 0)
(0.00167018 0.0109153 0)
(0.0049823 0.0109854 0)
(0.00821808 0.0111246 0)
(0.0113307 0.0113307 0)
(0.0142697 0.0116004 0)
(0.0169898 0.0119296 0)
(0.0194484 0.0123132 0)
(0.021607 0.0127451 0)
(0.0234311 0.0132188 0)
(0.0248914 0.0137268 0)
(0.0259637 0.0142611 0)
(0.0266297 0.0148134 0)
(0.0268773 0.0153751 0)
(0.0267011 0.0159372 0)
(0.026102 0.0164909 0)
(0.0250881 0.0170274 0)
(0.023674 0.0175383 0)
(0.0218808 0.0180153 0)
(0.0197361 0.018451 0)
(0.0172735 0.0188383 0)
(0.014532 0.019171 0)
(0.0115552 0.0194439 0)
(0.00839098 0.0196526 0)
(0.00509056 0.0197936 0)
(0.0017074 0.0198648 0)
(-0.0017035 0.019865 0)
(-0.00508666 0.0197943 0)
(-0.00838711 0.0196537 0)
(-0.0115513 0.0194456 0)
(-0.0145282 0.0191733 0)
(-0.0172698 0.0188411 0)
(-0.0197324 0.0184545 0)
(-0.0218771 0.0180196 0)
(-0.0236704 0.0175434 0)
(-0.0250846 0.0170334 0)
(-0.0260986 0.0164979 0)
(-0.0266978 0.0159452 0)
(-0.0268741 0.0153842 0)
(-0.0266266 0.0148238 0)
(-0.0259608 0.0142727 0)
(-0.0248887 0.0137396 0)
(-0.0234287 0.0132328 0)
(-0.0216048 0.0127604 0)
(-0.0194465 0.0123296 0)
(-0.0169881 0.0119473 0)
(-0.0142684 0.0116192 0)
(-0.0113296 0.0113506 0)
(-0.00821747 0.0111456 0)
(-0.00498213 0.0110074 0)
(-0.00167014 0.0109378 0)
(0.00170992 0.0137469 0)
(0.00510096 0.0138351 0)
(0.00841382 0.0140103 0)
(0.0116004 0.0142697 0)
(0.0146093 0.0146093 0)
(0.0173938 0.0150237 0)
(0.0199107 0.0155065 0)
(0.0221204 0.0160503 0)
(0.0239876 0.0166466 0)
(0.0254823 0.0172861 0)
(0.0265797 0.0179587 0)
(0.0272612 0.018654 0)
(0.0275144 0.0193611 0)
(0.0273336 0.0200687 0)
(0.0267201 0.0207657 0)
(0.0256819 0.0214412 0)
(0.024234 0.0220843 0)
(0.0223982 0.0226848 0)
(0.0202027 0.0232333 0)
(0.0176817 0.0237209 0)
(0.0148753 0.0241398 0)
(0.0118282 0.0244833 0)
(0.00858924 0.024746 0)
(0.00521091 0.0249236 0)
(0.00174792 0.0250133 0)
(-0.00174345 0.0250137 0)
(-0.00520643 0.0249247 0)
(-0.00858475 0.0247479 0)
(-0.0118236 0.024486 0)
(-0.0148708 0.0241433 0)
(-0.0176772 0.0237254 0)
(-0.0201981 0.0232389 0)
(-0.0223936 0.0226916 0)
(-0.0242294 0.0220924 0)
(-0.0256772 0.0214507 0)
(-0.0267155 0.0207768 0)
(-0.027329 0.0200814 0)
(-0.0275098 0.0193755 0)
(-0.0272567 0.0186703 0)
(-0.0265753 0.0179769 0)
(-0.0254781 0.0173061 0)
(-0.0239837 0.0166685 0)
(-0.0221167 0.0160741 0)
(-0.0199074 0.0155321 0)
(-0.0173908 0.015051 0)
(-0.0146066 0.0146382 0)
(-0.0115981 0.0143001 0)
(-0.00841219 0.0140419 0)
(-0.00510011 0.0138676 0)
(-0.00170966 0.0137799 0)
(0.00175841 0.0163675 0)
(0.00524577 0.0164725 0)
(0.00865271 0.0166811 0)
(0.0119296 0.0169898 0)
(0.0150237 0.0173938 0)
(0.017887 0.017887 0)
(0.020475 0.0184617 0)
(0.0227471 0.0191089 0)
(0.0246669 0.0198185 0)
(0.0262035 0.0205796 0)
(0.0273316 0.0213801 0)
(0.028032 0.0222076 0)
(0.028292 0.0230491 0)
(0.0281057 0.0238913 0)
(0.0274745 0.0247209 0)
(0.0264067 0.0255247 0)
(0.0249176 0.0262901 0)
(0.0230298 0.0270048 0)
(0.0207721 0.0276576 0)
(0.01818 0.0282379 0)
(0.0152944 0.0287365 0)
(0.0121614 0.0291454 0)
(0.00883128 0.0294581 0)
(0.00535787 0.0296695 0)
(0.00179746 0.0297764 0)
(-0.00179211 0.0297769 0)
(-0.00535248 0.0296712 0)
(-0.00882583 0.0294609 0)
(-0.0121559 0.0291494 0)
(-0.0152888 0.0287419 0)
(-0.0181742 0.0282448 0)
(-0.0207662 0.0276661 0)
(-0.0230236 0.0270152 0)
(-0.0249113 0.0263024 0)
(-0.0264002 0.0255392 0)
(-0.0274679 0.0247377 0)
(-0.028099 0.0239106 0)
(-0.0282852 0.0230711 0)
(-0.0280253 0.0222324 0)
(-0.027325 0.0214078 0)
(-0.026197 0.0206101 0)
(-0.0246607 0.0198519 0)
(-0.0227412 0.0191451 0)
(-0.0204696 0.0185006 0)
(-0.0178821 0.0179284 0)
(-0.0150193 0.0174375 0)
(-0.0119258 0.0170354 0)
(-0.0086499 0.0167283 0)
(-0.00524417 0.0165209 0)
(-0.00175791 0.0164164 0)
(0.00181492 0.0187365 0)
(0.00541449 0.0188566 0)
(0.00893104 0.0190952 0)
(0.0123132 0.0194484 0)
(0.0155065 0.0199107 0)
(0.0184617 0.020475 0)
(0.0211326 0.0211326 0)
(0.0234773 0.0218731 0)
(0.0254584 0.0226851 0)
(0.0270439 0.023556 0)
(0.0282078 0.024472 0)
(0.0289302 0.0254188 0)
(0.029198 0.0263817 0)
(0.0290054 0.0273453 0)
(0.0283536 0.0282945 0)
(0.0272512 0.0292143 0)
(0.0257142 0.0300901 0)
(0.0237657 0.0309079 0)
(0.0214357 0.0316548 0)
(0.0187606 0.0323188 0)
(0.0157828 0.0328894 0)
(0.0125498 0.0333573 0)
(0.00911339 0.0337152 0)
(0.00552921 0.0339573 0)
(0.00185532 0.0340797 0)
(-0.00184864 0.0340805 0)
(-0.00552246 0.0339598 0)
(-0.00910649 0.0337194 0)
(-0.0125427 0.0333634 0)
(-0.0157755 0.0328975 0)
(-0.018753 0.0323291 0)
(-0.0214277 0.0316676 0)
(-0.0237573 0.0309234 0)
(-0.0257053 0.0301085 0)
(-0.027242 0.029236 0)
(-0.028344 0.0283198 0)
(-0.0289956 0.0273743 0)
(-0.029188 0.0264147 0)
(-0.02892 0.0254561 0)
(-0.0281977 0.0245135 0)
(-0.027034 0.0236019 0)
(-0.0254487 0.0227353 0)
(-0.0234681 0.0219275 0)
(-0.0211241 0.021191 0)
(-0.0184539 0.0205371 0)
(-0.0154997 0.0199761 0)
(-0.0123074 0.0195165 0)
(-0.00892668 0.0191655 0)
(-0.00541194 0.0189285 0)
(-0.00181411 0.0188091 0)
(0.00187855 0.0208164 0)
(0.00560451 0.0209498 0)
(0.00924451 0.0212148 0)
(0.0127451 0.021607 0)
(0.0160503 0.0221204 0)
(0.0191089 0.0227471 0)
(0.0218731 0.0234773 0)
(0.0242996 0.0242996 0)
(0.0263497 0.0252014 0)
(0.0279904 0.0261684 0)
(0.0291945 0.0271856 0)
(0.0299417 0.0282371 0)
(0.0302184 0.0293063 0)
(0.0300186 0.0303764 0)
(0.0293435 0.0314305 0)
(0.0282022 0.032452 0)
(0.0266112 0.0334245 0)
(0.0245945 0.0343327 0)
(0.022183 0.0351622 0)
(0.0194146 0.0358996 0)
(0.0163329 0.0365332 0)
(0.0129872 0.037053 0)
(0.00943122 0.0374505 0)
(0.00572235 0.0377195 0)
(0.00192069 0.0378557 0)
(-0.00191204 0.0378569 0)
(-0.00571357 0.0377232 0)
(-0.00942219 0.0374568 0)
(-0.0129778 0.0370619 0)
(-0.016323 0.0365452 0)
(-0.0194041 0.0359148 0)
(-0.0221719 0.035181 0)
(-0.0245827 0.0343556 0)
(-0.0265987 0.0334518 0)
(-0.028189 0.0324841 0)
(-0.0293296 0.031468 0)
(-0.0300041 0.0304195 0)
(-0.0302035 0.0293554 0)
(-0.0299264 0.0282925 0)
(-0.0291792 0.0272474 0)
(-0.0279752 0.0262367 0)
(-0.026335 0.0252761 0)
(-0.0242856 0.0243806 0)
(-0.02186 0.0235642 0)
(-0.019097 0.0228394 0)
(-0.0160399 0.0222176 0)
(-0.0127364 0.0217082 0)
(-0.00923795 0.0213192 0)
(-0.00560061 0.0210564 0)
(-0.0018773 0.0209241 0)
(0.00194833 0.0225742 0)
(0.00581286 0.0227188 0)
(0.00958822 0.023006 0)
(0.0132188 0.0234311 0)
(0.0166466 0.0239876 0)
(0.0198185 0.0246669 0)
(0.0226851 0.0254584 0)
(0.0252014 0.0263497 0)
(0.0273272 0.0273272 0)
(0.0290282 0.0283754 0)
(0.0302765 0.0294779 0)
(0.0310508 0.0306177 0)
(0.0313373 0.0317766 0)
(0.0311296 0.0329365 0)
(0.0304291 0.034079 0)
(0.0292451 0.0351862 0)
(0.0275949 0.0362403 0)
(0.0255033 0.0372248 0)
(0.0230026 0.0381239 0)
(0.0201317 0.0389233 0)
(0.0169362 0.0396102 0)
(0.013467 0.0401737 0)
(0.00977993 0.0406048 0)
(0.00593438 0.0408967 0)
(0.00199269 0.0410446 0)
(-0.00198116 0.0410464 0)
(-0.00592263 0.040902 0)
(-0.00976775 0.0406139 0)
(-0.0134542 0.0401868 0)
(-0.0169226 0.0396276 0)
(-0.0201171 0.0389455 0)
(-0.0229869 0.0381515 0)
(-0.0254865 0.0372583 0)
(-0.0275768 0.0362804 0)
(-0.0292258 0.0352334 0)
(-0.0304086 0.0341341 0)
(-0.0311081 0.0329999 0)
(-0.031315 0.0318489 0)
(-0.031028 0.0306993 0)
(-0.0302534 0.0295692 0)
(-0.0290053 0.0284762 0)
(-0.0273048 0.0274376 0)
(-0.02518 0.0264695 0)
(-0.0226652 0.0255869 0)
(-0.0198005 0.0248035 0)
(-0.0166309 0.0241314 0)
(-0.0132058 0.0235808 0)
(-0.00957847 0.0231604 0)
(-0.00580702 0.0228764 0)
(-0.00194643 0.0227334 0)
(0.00202316 0.0239815 0)
(0.0060363 0.0241351 0)
(0.00995683 0.02444 0)
(0.0137268 0.0248914 0)
(0.0172861 0.0254823 0)
(0.0205796 0.0262035 0)
(0.023556 0.0270439 0)
(0.0261684 0.0279904 0)
(0.0283754 0.0290282 0)
(0.0301412 0.0301412 0)
(0.0314368 0.0313119 0)
(0.0322403 0.032522 0)
(0.0325372 0.0337526 0)
(0.032321 0.0349841 0)
(0.0315932 0.0361973 0)
(0.0303635 0.0373729 0)
(0.0286499 0.0384922 0)
(0.026478 0.0395376 0)
(0.0238815 0.0404923 0)
(0.0209009 0.0413412 0)
(0.0175834 0.0420708 0)
(0.0139819 0.0426693 0)
(0.0101542 0.0431274 0)
(0.00616215 0.0434377 0)
(0.0020704 0.0435954 0)
(-0.00205467 0.0435979 0)
(-0.00614607 0.0434454 0)
(-0.0101374 0.0431406 0)
(-0.0139641 0.0426883 0)
(-0.0175643 0.0420961 0)
(-0.0208803 0.0413736 0)
(-0.0238591 0.0405325 0)
(-0.0264537 0.0395864 0)
(-0.0286236 0.0385507 0)
(-0.0303353 0.0374419 0)
(-0.0315631 0.0362778 0)
(-0.0322892 0.035077 0)
(-0.0325041 0.0338585 0)
(-0.0322062 0.0326417 0)
(-0.0314023 0.0314456 0)
(-0.0301068 0.0302892 0)
(-0.0283417 0.0291904 0)
(-0.0261363 0.0281663 0)
(-0.023526 0.0272328 0)
(-0.0205525 0.0264043 0)
(-0.0172625 0.0256935 0)
(-0.0137074 0.0251114 0)
(-0.0099424 0.0246669 0)
(-0.0060276 0.0243667 0)
(-0.00202031 0.0242155 0)
(0.00210187 0.0250151 0)
(0.00627134 0.0251751 0)
(0.0103446 0.025493 0)
(0.0142611 0.0259637 0)
(0.0179587 0.0265797 0)
(0.0213801 0.0273316 0)
(0.024472 0.0282078 0)
(0.0271856 0.0291945 0)
(0.0294779 0.0302765 0)
(0.0313119 0.0314368 0)
(0.0326574 0.0326574 0)
(0.0334915 0.033919 0)
(0.0337994 0.0352019 0)
(0.0335743 0.0364858 0)
(0.0328178 0.0377506 0)
(0.03154 0.0389762 0)
(0.0297596 0.0401433 0)
(0.0275034 0.0412332 0)
(0.0248062 0.0422287 0)
(0.0217102 0.0431139 0)
(0.0182644 0.0438747 0)
(0.0145237 0.0444991 0)
(0.0105483 0.0449772 0)
(0.00640232 0.0453013 0)
(0.00215288 0.0454665 0)
(-0.00213107 0.0454702 0)
(-0.00637997 0.0453125 0)
(-0.0105249 0.0449961 0)
(-0.0144987 0.0445265 0)
(-0.0182373 0.0439113 0)
(-0.0216807 0.0431606 0)
(-0.024774 0.0422867 0)
(-0.0274682 0.0413038 0)
(-0.0297214 0.0402279 0)
(-0.0314987 0.0390763 0)
(-0.0327735 0.0378674 0)
(-0.0335274 0.0366206 0)
(-0.0337503 0.0353558 0)
(-0.0334409 0.034093 0)
(-0.0326059 0.032852 0)
(-0.0312606 0.0316524 0)
(-0.0294277 0.0305128 0)
(-0.0271376 0.029451 0)
(-0.0244272 0.0284833 0)
(-0.0213397 0.0276246 0)
(-0.0179237 0.0268881 0)
(-0.0142324 0.026285 0)
(-0.0103232 0.0258244 0)
(-0.00625843 0.0255134 0)
(-0.00209762 0.0253568 0)
(0.00218324 0.0256572 0)
(0.0065143 0.0258213 0)
(0.0107454 0.0261472 0)
(0.0148134 0.0266297 0)
(0.018654 0.0272612 0)
(0.0222076 0.028032 0)
(0.0254188 0.0289302 0)
(0.0282371 0.0299417 0)
(0.0306177 0.0310508 0)
(0.032522 0.0322403 0)
(0.033919 0.0334915 0)
(0.0347848 0.0347848 0)
(0.0351041 0.0361 0)
(0.0348698 0.0374162 0)
(0.0340836 0.0387128 0)
(0.0327562 0.0399693 0)
(0.0309068 0.0411657 0)
(0.0285634 0.0422831 0)
(0.0257622 0.0433038 0)
(0.022547 0.0442115 0)
(0.0189687 0.0449919 0)
(0.0150843 0.0456326 0)
(0.0109564 0.0461233 0)
(0.00665144 0.0464565 0)
(0.00223923 0.046627 0)
(-0.00220868 0.0466323 0)
(-0.00662007 0.0464725 0)
(-0.0109234 0.0461505 0)
(-0.0150489 0.0456717 0)
(-0.0189302 0.0450443 0)
(-0.0225048 0.0442785 0)
(-0.0257159 0.0433871 0)
(-0.0285125 0.0423846 0)
(-0.0308512 0.0412874 0)
(-0.0326958 0.0401132 0)
(-0.0340187 0.038881 0)
(-0.0348008 0.0376105 0)
(-0.0350317 0.0363221 0)
(-0.03471 0.0350361 0)
(-0.0338428 0.0337729 0)
(-0.032446 0.0325521 0)
(-0.0305431 0.0313929 0)
(-0.0281658 0.0303131 0)
(-0.0253524 0.0293293 0)
(-0.0221477 0.0284567 0)
(-0.0186022 0.0277083 0)
(-0.0147711 0.0270957 0)
(-0.010714 0.0266279 0)
(-0.00649521 0.0263121 0)
(-0.00217692 0.0261531 0)
(0.00226598 0.0258963 0)
(0.00676135 0.0260619 0)
(0.0111529 0.0263906 0)
(0.0153751 0.0268773 0)
(0.0193611 0.0275144 0)
(0.0230491 0.028292 0)
(0.0263817 0.029198 0)
(0.0293063 0.0302184 0)
(0.0317766 0.0313373 0)
(0.0337526 0.0325372 0)
(0.0352019 0.0337994 0)
(0.0361 0.0351041 0)
(0.0364308 0.0364308 0)
(0.0361871 0.0377586 0)
(0.0353708 0.0390667 0)
(0.0339929 0.0403342 0)
(0.0320735 0.0415413 0)
(0.0296415 0.0426688 0)
(0.0267346 0.0436987 0)
(0.0233983 0.0446149 0)
(0.0196854 0.0454027 0)
(0.0156551 0.0460498 0)
(0.0113723 0.0465459 0)
(0.00690601 0.0468834 0)
(0.00232861 0.0470571 0)
(-0.00228563 0.0470645 0)
(-0.00686179 0.046906 0)
(-0.0113256 0.0465844 0)
(-0.0156049 0.0461054 0)
(-0.0196305 0.0454771 0)
(-0.0233379 0.0447102 0)
(-0.0266679 0.0438174 0)
(-0.029568 0.0428134 0)
(-0.0319928 0.0417149 0)
(-0.0339051 0.0405398 0)
(-0.0352762 0.039307 0)
(-0.0360863 0.0380366 0)
(-0.0363247 0.0367489 0)
(-0.0359901 0.0354643 0)
(-0.0350899 0.034203 0)
(-0.0336405 0.0329848 0)
(-0.0316668 0.0318287 0)
(-0.0292012 0.0307523 0)
(-0.0262836 0.0297721 0)
(-0.0229607 0.028903 0)
(-0.0192847 0.028158 0)
(-0.0153128 0.0275483 0)
(-0.0111068 0.027083 0)
(-0.00673327 0.0267688 0)
(-0.00225664 0.0266107 0)
(0.00234879 0.025727 0)
(0.0070086 0.0258914 0)
(0.0115608 0.0262178 0)
(0.0159372 0.0267011 0)
(0.0200687 0.0273336 0)
(0.0238913 0.0281057 0)
(0.0273453 0.0290054 0)
(0.0303764 0.0300186 0)
(0.0329365 0.0311296 0)
(0.0349841 0.032321 0)
(0.0364858 0.0335743 0)
(0.0374162 0.0348698 0)
(0.0377586 0.0361871 0)
(0.0375056 0.0375056 0)
(0.0366592 0.0388045 0)
(0.0352308 0.0400633 0)
(0.0332413 0.0412621 0)
(0.0307208 0.0423819 0)
(0.0277083 0.0434051 0)
(0.024251 0.0443154 0)
(0.0204035 0.0450985 0)
(0.0162275 0.0457422 0)
(0.01179 0.0462363 0)
(0.00716262 0.0465733 0)
(0.00242037 0.0467483 0)
(-0.00235978 0.0467588 0)
(-0.0071002 0.0466052 0)
(-0.011724 0.0462905 0)
(-0.0161562 0.0458206 0)
(-0.0203254 0.0452035 0)
(-0.0241646 0.0444499 0)
(-0.0276126 0.0435727 0)
(-0.030615 0.0425865 0)
(-0.0331248 0.0415079 0)
(-0.0351037 0.0403545 0)
(-0.0365218 0.0391455 0)
(-0.037359 0.0379004 0)
(-0.0376041 0.0366392 0)
(-0.0372559 0.0353821 0)
(-0.0363223 0.0341488 0)
(-0.0348203 0.0329587 0)
(-0.0327757 0.0318301 0)
(-0.0302224 0.0307802 0)
(-0.0272017 0.0298249 0)
(-0.0237618 0.0289784 0)
(-0.0199568 0.0282533 0)
(-0.0158462 0.0276601 0)
(-0.0114935 0.0272076 0)
(-0.00696752 0.0269022 0)
(-0.00233508 0.0267485 0)
(0.00243037 0.0251503 0)
(0.00725216 0.0253109 0)
(0.0119626 0.0256299 0)
(0.0164909 0.026102 0)
(0.0207657 0.0267201 0)
(0.0247209 0.0274745 0)
(0.0282945 0.0283536 0)
(0.0314305 0.0293435 0)
(0.034079 0.0304291 0)
(0.0361973 0.0315932 0)
(0.0377506 0.0328178 0)
(0.0387128 0.0340836 0)
(0.0390667 0.0353708 0)
(0.0388045 0.0366592 0)
(0.0379285 0.0379285 0)
(0.0364505 0.0391587 0)
(0.0343921 0.0403303 0)
(0.0317845 0.041425 0)
(0.0286681 0.0424254 0)
(0.0250918 0.0433158 0)
(0.0211122 0.0440822 0)
(0.0167929 0.0447127 0)
(0.0122035 0.0451977 0)
(0.00741799 0.0455298 0)
(0.00251404 0.0457042 0)
(-0.00242873 0.0457189 0)
(-0.00733002 0.0455742 0)
(-0.0121102 0.0452735 0)
(-0.0166919 0.0448224 0)
(-0.0210012 0.0442291 0)
(-0.0249687 0.0435042 0)
(-0.0285314 0.0426603 0)
(-0.0316328 0.041712 0)
(-0.0342248 0.0406754 0)
(-0.0362674 0.0395681 0)
(-0.0377303 0.0384083 0)
(-0.0385926 0.0372152 0)
(-0.038843 0.0360082 0)
(-0.0384805 0.0348066 0)
(-0.0375133 0.0336293 0)
(-0.0359593 0.0324947 0)
(-0.0338453 0.0314201 0)
(-0.0312064 0.0304217 0)
(-0.0280854 0.0295144 0)
(-0.0245323 0.0287114 0)
(-0.0206029 0.0280242 0)
(-0.0163585 0.0274625 0)
(-0.0118648 0.0270343 0)
(-0.00719237 0.0267455 0)
(-0.00241036 0.0266002 0)
(0.00250941 0.0241738 0)
(0.00748817 0.0243281 0)
(0.0123519 0.0246345 0)
(0.0170274 0.0250881 0)
(0.0214412 0.0256819 0)
(0.0255247 0.0264067 0)
(0.0292143 0.0272512 0)
(0.032452 0.0282022 0)
(0.0351862 0.0292451 0)
(0.0373729 0.0303635 0)
(0.0389762 0.03154 0)
(0.0399693 0.0327562 0)
(0.0403342 0.0339929 0)
(0.0400633 0.0352308 0)
(0.0391587 0.0364505 0)
(0.0376327 0.0376327 0)
(0.0355076 0.0387588 0)
(0.0328159 0.0398111 0)
(0.0295991 0.0407732 0)
(0.0259078 0.0416299 0)
(0.0218005 0.042368 0)
(0.017343 0.0429761 0)
(0.012607 0.043445 0)
(0.00766913 0.0437679 0)
(0.00260946 0.0439405 0)
(-0.00248975 0.0439608 0)
(-0.00754558 0.0438295 0)
(-0.0124758 0.04355 0)
(-0.0172006 0.043128 0)
(-0.0216436 0.0425717 0)
(-0.0257334 0.0418915 0)
(-0.0294048 0.0410996 0)
(-0.0325998 0.0402104 0)
(-0.0352688 0.0392394 0)
(-0.0373708 0.0382034 0)
(-0.0388747 0.0371201 0)
(-0.0397591 0.0360077 0)
(-0.0400128 0.0348844 0)
(-0.0396348 0.0337683 0)
(-0.0386342 0.0326772 0)
(-0.0370295 0.0316279 0)
(-0.0348486 0.0306363 0)
(-0.032128 0.0297169 0)
(-0.028912 0.028883 0)
(-0.025252 0.0281464 0)
(-0.0212057 0.027517 0)
(-0.016836 0.0270034 0)
(-0.0122105 0.0266123 0)
(-0.00740167 0.0263487 0)
(-0.00248041 0.0262161 0)
(0.00258468 0.0228116 0)
(0.00771289 0.0229571 0)
(0.0127226 0.0232461 0)
(0.0175383 0.023674 0)
(0.0220843 0.024234 0)
(0.0262901 0.0249176 0)
(0.0300901 0.0257142 0)
(0.0334245 0.0266112 0)
(0.0362403 0.0275949 0)
(0.0384922 0.0286499 0)
(0.0401433 0.0297596 0)
(0.0411657 0.0309068 0)
(0.0415413 0.0320735 0)
(0.0412621 0.0332413 0)
(0.0403303 0.0343921 0)
(0.0387588 0.0355076 0)
(0.0365705 0.0365705 0)
(0.0337989 0.0375641 0)
(0.0304869 0.0384729 0)
(0.0266866 0.0392829 0)
(0.0224583 0.0399815 0)
(0.0178699 0.0405584 0)
(0.0129953 0.0410049 0)
(0.00791345 0.041315 0)
(0.00270686 0.0414847 0)
(-0.00253969 0.0415125 0)
(-0.00774076 0.0413995 0)
(-0.0128117 0.0411492 0)
(-0.0176702 0.0407672 0)
(-0.0222377 0.0402618 0)
(-0.0264408 0.039643 0)
(-0.0302124 0.0389229 0)
(-0.0334931 0.038115 0)
(-0.0362317 0.0372344 0)
(-0.0383867 0.0362969 0)
(-0.0399261 0.0353191 0)
(-0.0408283 0.0343179 0)
(-0.0410824 0.0333103 0)
(-0.0406876 0.0323125 0)
(-0.0396537 0.0313406 0)
(-0.0380002 0.0304093 0)
(-0.0357563 0.0295325 0)
(-0.0329596 0.0287225 0)
(-0.029656 0.0279904 0)
(-0.0258983 0.0273458 0)
(-0.0217459 0.0267967 0)
(-0.0172633 0.0263497 0)
(-0.0125195 0.02601 0)
(-0.00758851 0.0257815 0)
(-0.00254292 0.0256666 0)
(0.00265496 0.021084 0)
(0.00792273 0.0212185 0)
(0.0130688 0.0214855 0)
(0.0180153 0.0218808 0)
(0.0226848 0.0223982 0)
(0.0270048 0.0230298 0)
(0.0309079 0.0237657 0)
(0.0343327 0.0245945 0)
(0.0372248 0.0255033 0)
(0.0395376 0.026478 0)
(0.0412332 0.0275034 0)
(0.0422831 0.0285634 0)
(0.0426688 0.0296415 0)
(0.0423819 0.0307208 0)
(0.041425 0.0317845 0)
(0.0398111 0.0328159 0)
(0.0375641 0.0337989 0)
(0.0347183 0.0347183 0)
(0.0313178 0.0355599 0)
(0.0274164 0.0363108 0)
(0.023076 0.0369597 0)
(0.0183664 0.0374972 0)
(0.0133637 0.0379157 0)
(0.00814887 0.0382098 0)
(0.00280698 0.0383763 0)
(-0.00257489 0.0384141 0)
(-0.00790893 0.0383249 0)
(-0.0131081 0.0381121 0)
(-0.018088 0.0377818 0)
(-0.0227678 0.0373419 0)
(-0.0270723 0.0368023 0)
(-0.0309328 0.0361746 0)
(-0.0342883 0.0354719 0)
(-0.0370869 0.034708 0)
(-0.0392861 0.033898 0)
(-0.0408536 0.0330571 0)
(-0.0417679 0.0322006 0)
(-0.0420182 0.0313434 0)
(-0.0416045 0.0305 0)
(-0.0405374 0.0296837 0)
(-0.0388376 0.0289069 0)
(-0.0365355 0.0281806 0)
(-0.0336701 0.0275142 0)
(-0.0302887 0.026916 0)
(-0.0264458 0.0263926 0)
(-0.0222018 0.0259494 0)
(-0.0176227 0.0255904 0)
(-0.0127787 0.0253187 0)
(-0.00774504 0.0251365 0)
(-0.00259525 0.025045 0)
(0.00271915 0.0190177 0)
(0.00811436 0.019139 0)
(0.0133849 0.0193797 0)
(0.018451 0.0197361 0)
(0.0232333 0.0202027 0)
(0.0276576 0.0207721 0)
(0.0316548 0.0214357 0)
(0.0351622 0.022183 0)
(0.0381239 0.0230026 0)
(0.0404923 0.0238815 0)
(0.0422287 0.0248062 0)
(0.0433038 0.0257622 0)
(0.0436987 0.0267346 0)
(0.0434051 0.0277083 0)
(0.0424254 0.0286681 0)
(0.0407732 0.0295991 0)
(0.0384729 0.0304869 0)
(0.0355599 0.0313178 0)
(0.0320794 0.0320794 0)
(0.0280864 0.0327601 0)
(0.0236448 0.03335 0)
(0.018826 0.033841 0)
(0.0137079 0.0342266 0)
(0.00837398 0.0345024 0)
(0.00291118 0.0346659 0)
(-0.00259109 0.034717 0)
(-0.00804279 0.0346575 0)
(-0.0133548 0.0344916 0)
(-0.0184404 0.0342253 0)
(-0.0232172 0.0338665 0)
(-0.0276081 0.0334251 0)
(-0.0315429 0.032912 0)
(-0.0349597 0.0323397 0)
(-0.0378055 0.0317213 0)
(-0.0400376 0.0310703 0)
(-0.0416235 0.0304005 0)
(-0.042542 0.0297253 0)
(-0.042783 0.0290573 0)
(-0.0423473 0.0284083 0)
(-0.0412468 0.0277888 0)
(-0.0395034 0.0272078 0)
(-0.037149 0.0266727 0)
(-0.0342242 0.0261893 0)
(-0.0307776 0.0257619 0)
(-0.026865 0.0253935 0)
(-0.0225482 0.0250858 0)
(-0.0178939 0.0248397 0)
(-0.0129734 0.0246553 0)
(-0.00786214 0.0245326 0)
(-0.00263433 0.0244714 0)
(0.00277621 0.016645 0)
(0.00828472 0.0167511 0)
(0.0136659 0.0169617 0)
(0.0188383 0.0172735 0)
(0.0237209 0.0176817 0)
(0.0282379 0.01818 0)
(0.0323188 0.0187606 0)
(0.0358996 0.0194146 0)
(0.0389233 0.0201317 0)
(0.0413412 0.0209009 0)
(0.0431139 0.0217102 0)
(0.0442115 0.022547 0)
(0.0446149 0.0233983 0)
(0.0443154 0.024251 0)
(0.0433158 0.0250918 0)
(0.0416299 0.0259078 0)
(0.0392829 0.0266866 0)
(0.0363108 0.0274164 0)
(0.0327601 0.0280864 0)
(0.0286871 0.0286871 0)
(0.024157 0.0292099 0)
(0.019243 0.0296483 0)
(0.014025 0.0299971 0)
(0.00858815 0.0302531 0)
(0.00302159 0.0304149 0)
(-0.00258325 0.0304831 0)
(-0.00813429 0.0304605 0)
(-0.0135404 0.0303515 0)
(-0.0187131 0.0301625 0)
(-0.023568 0.0299018 0)
(-0.0280268 0.0295788 0)
(-0.0320181 0.0292043 0)
(-0.0354791 0.02879 0)
(-0.0383563 0.0283481 0)
(-0.0406068 0.0278908 0)
(-0.0421987 0.0274301 0)
(-0.0431111 0.0269771 0)
(-0.0433351 0.0265419 0)
(-0.042873 0.026133 0)
(-0.0417379 0.0257572 0)
(-0.0399538 0.0254195 0)
(-0.037554 0.0251229 0)
(-0.0345808 0.0248683 0)
(-0.0310845 0.0246553 0)
(-0.0271219 0.0244818 0)
(-0.0227556 0.0243449 0)
(-0.0180532 0.0242412 0)
(-0.0130858 0.0241673 0)
(-0.00792899 0.0241199 0)
(-0.00265652 0.0240968 0)
(0.00282524 0.0140033 0)
(0.00843108 0.0140925 0)
(0.0139073 0.0142697 0)
(0.019171 0.014532 0)
(0.0241398 0.0148753 0)
(0.0287365 0.0152944 0)
(0.0328894 0.0157828 0)
(0.0365332 0.0163329 0)
(0.0396102 0.0169362 0)
(0.0420708 0.0175834 0)
(0.0438747 0.0182644 0)
(0.0449919 0.0189687 0)
(0.0454027 0.0196854 0)
(0.0450985 0.0204035 0)
(0.0440822 0.0211122 0)
(0.042368 0.0218005 0)
(0.0399815 0.0224583 0)
(0.0369597 0.023076 0)
(0.03335 0.0236448 0)
(0.0292099 0.024157 0)
(0.0246061 0.0246061 0)
(0.0196131 0.024987 0)
(0.0143127 0.0252963 0)
(0.00879173 0.0255321 0)
(0.00314123 0.0256943 0)
(-0.00254549 0.0257846 0)
(-0.00817445 0.0258067 0)
(-0.0136527 0.0257658 0)
(-0.0188901 0.0256688 0)
(-0.023801 0.0255243 0)
(-0.0283055 0.0253419 0)
(-0.0323316 0.0251321 0)
(-0.0358159 0.0249062 0)
(-0.0387047 0.0246753 0)
(-0.0409556 0.0244503 0)
(-0.0425373 0.0242413 0)
(-0.0434303 0.024057 0)
(-0.0436271 0.0239044 0)
(-0.043132 0.0237882 0)
(-0.0419602 0.0237108 0)
(-0.0401377 0.0236722 0)
(-0.0377002 0.0236698 0)
(-0.0346917 0.0236986 0)
(-0.0311641 0.0237517 0)
(-0.0271754 0.023821 0)
(-0.0227887 0.0238975 0)
(-0.0180716 0.023972 0)
(-0.0130947 0.0240364 0)
(-0.0079326 0.0240836 0)
(-0.00265743 0.0241084 0)
(0.00286545 0.0111348 0)
(0.00855111 0.0112058 0)
(0.0141053 0.0113466 0)
(0.0194439 0.0115552 0)
(0.0244833 0.0118282 0)
(0.0291454 0.0121614 0)
(0.0333573 0.0125498 0)
(0.037053 0.0129872 0)
(0.0401737 0.013467 0)
(0.0426693 0.0139819 0)
(0.0444991 0.0145237 0)
(0.0456326 0.0150843 0)
(0.0460498 0.0156551 0)
(0.0457422 0.0162275 0)
(0.0447127 0.0167929 0)
(0.0429761 0.017343 0)
(0.0405584 0.0178699 0)
(0.0374972 0.0183664 0)
(0.033841 0.018826 0)
(0.0296483 0.019243 0)
(0.024987 0.0196131 0)
(0.0199332 0.0199332 0)
(0.0145701 0.0202016 0)
(0.00898613 0.020418 0)
(0.00327415 0.0205839 0)
(-0.00247084 0.0207024 0)
(-0.00815316 0.0207782 0)
(-0.0136783 0.0208178 0)
(-0.0189545 0.0208289 0)
(-0.023895 0.0208207 0)
(-0.028419 0.0208031 0)
(-0.0324538 0.0207869 0)
(-0.0359359 0.0207829 0)
(-0.0388122 0.0208016 0)
(-0.0410408 0.0208527 0)
(-0.0425919 0.0209441 0)
(-0.0434481 0.0210819 0)
(-0.043604 0.0212697 0)
(-0.0430665 0.0215078 0)
(-0.0418539 0.0217934 0)
(-0.0399948 0.0221202 0)
(-0.0375277 0.0224787 0)
(-0.0344989 0.0228564 0)
(-0.030962 0.0232386 0)
(-0.0269761 0.023609 0)
(-0.0226046 0.0239508 0)
(-0.0179142 0.0242476 0)
(-0.0129742 0.0244847 0)
(-0.007857 0.0246501 0)
(-0.00263171 0.0247349 0)
(0.00289619 0.00808576 0)
(0.00864287 0.00813729 0)
(0.0142567 0.00823956 0)
(0.0196526 0.00839098 0)
(0.024746 0.00858924 0)
(0.0294581 0.00883128 0)
(0.0337152 0.00911339 0)
(0.0374505 0.00943122 0)
(0.0406048 0.00977993 0)
(0.0431274 0.0101542 0)
(0.0449772 0.0105483 0)
(0.0461233 0.0109564 0)
(0.0465459 0.0113723 0)
(0.0462363 0.01179 0)
(0.0451977 0.0122035 0)
(0.043445 0.012607 0)
(0.0410049 0.0129953 0)
(0.0379157 0.0133637 0)
(0.0342266 0.0137079 0)
(0.0299971 0.014025 0)
(0.0252963 0.0143127 0)
(0.0202016 0.0145701 0)
(0.0147974 0.0147974 0)
(0.00917402 0.0149965 0)
(0.00342562 0.0151706 0)
(-0.00235114 0.0153246 0)
(-0.00805902 0.0154646 0)
(-0.013602 0.0155986 0)
(-0.0188873 0.0157356 0)
(-0.0238268 0.0158857 0)
(-0.0283393 0.01606 0)
(-0.0323518 0.0162696 0)
(-0.0358011 0.0165253 0)
(-0.038635 0.0168374 0)
(-0.0408132 0.0172143 0)
(-0.042308 0.0176623 0)
(-0.0431047 0.0181845 0)
(-0.0432013 0.0187806 0)
(-0.0426083 0.0194459 0)
(-0.0413478 0.0201714 0)
(-0.0394524 0.0209433 0)
(-0.0369639 0.0217436 0)
(-0.0339318 0.0225503 0)
(-0.0304115 0.0233387 0)
(-0.0264632 0.024082 0)
(-0.0221502 0.0247533 0)
(-0.0175377 0.0253269 0)
(-0.0126922 0.0257796 0)
(-0.00768243 0.0260927 0)
(-0.00257266 0.0262525 0)
(0.00291697 0.00490532 0)
(0.0087049 0.00493659 0)
(0.014359 0.00499865 0)
(0.0197936 0.00509056 0)
(0.0249236 0.00521091 0)
(0.0296695 0.00535787 0)
(0.0339573 0.00552921 0)
(0.0377195 0.00572235 0)
(0.0408967 0.00593438 0)
(0.0434377 0.00616215 0)
(0.0453013 0.00640232 0)
(0.0464565 0.00665144 0)
(0.0468834 0.00690601 0)
(0.0465733 0.00716262 0)
(0.0455298 0.00741799 0)
(0.0437679 0.00766913 0)
(0.041315 0.00791345 0)
(0.0382098 0.00814887 0)
(0.0345024 0.00837398 0)
(0.0302531 0.00858815 0)
(0.0255321 0.00879173 0)
(0.020418 0.00898613 0)
(0.0149965 0.00917402 0)
(0.00935936 0.00935936 0)
(0.00360218 0.00954758 0)
(-0.00217688 0.00974557 0)
(-0.00787914 0.00996166 0)
(-0.0134073 0.0102056 0)
(-0.0186673 0.0104883 0)
(-0.0235705 0.0108215 0)
(-0.0280352 0.0112177 0)
(-0.0319885 0.0116891 0)
(-0.0353681 0.0122474 0)