/*--------------------------------*- C++ -*----------------------------------*\
| =========                 |                                                 |
| \\      /  F ield         | OpenFOAM: The Open Source CFD Toolbox           |
|  \\    /   O peration     | Version:  2406                                  |
|   \\  /    A nd           | Website:  www.openfoam.com                      |
|    \\/     M anipulation  |                                                 |
\*---------------------------------------------------------------------------*/
FoamFile
{
    version     2.0;
    format      ascii;
    arch        "LSB;label=32;scalar=64";
    class       volScalarField;
    location    "0.4";
    object      gradTy;
}
// * * * * * * * * * * * * * * * * * * * * * * * * * * * * * * * * * * * * * //

dimensions      [0 -1 0 1 0 0 0];

internalField   nonuniform List<scalar> 
2500
(
0.0160907
0.0161922
0.016398
0.0167018
0.0170992
0.0175841
0.0181492
0.0187855
0.0194833
0.0202316
0.0210187
0.0218324
0.0226598
0.0234879
0.0243037
0.0250941
0.0258468
0.0265496
0.0271915
0.0277621
0.0282524
0.0286545
0.0289619
0.0291697
0.0292747
0.029275
0.0291708
0.0289636
0.0286569
0.0282556
0.0277662
0.0271964
0.0265554
0.0258536
0.0251019
0.0243126
0.0234979
0.022671
0.0218448
0.0210323
0.0202464
0.0194993
0.0188028
0.0181677
0.0176041
0.0171208
0.0167255
0.0164245
0.016221
0.0161095
0.047995
0.0483023
0.048916
0.049823
0.0510096
0.0524577
0.0541449
0.0560451
0.0581286
0.060363
0.0627134
0.065143
0.0676135
0.070086
0.0725216
0.0748817
0.0771289
0.0792273
0.0811436
0.0828472
0.0843108
0.0855111
0.0864287
0.087049
0.0873621
0.0873628
0.0870513
0.0864326
0.0855167
0.0843182
0.0828566
0.0811553
0.0792414
0.0771457
0.0749016
0.0725447
0.0701126
0.0676437
0.0651771
0.0627515
0.0604053
0.0581751
0.0560958
0.0542
0.0525174
0.0510745
0.0498943
0.0489962
0.0483943
0.0480795
0.0791643
0.0796739
0.080685
0.0821808
0.0841382
0.0865271
0.0893104
0.0924451
0.0958822
0.0995683
0.103446
0.107454
0.111529
0.115608
0.119626
0.123519
0.127226
0.130688
0.133849
0.136659
0.139073
0.141053
0.142567
0.14359
0.144107
0.144108
0.143594
0.142574
0.141063
0.139086
0.136675
0.133869
0.130712
0.127255
0.123554
0.119667
0.115655
0.111583
0.107515
0.103514
0.0996448
0.0959666
0.0925373
0.0894106
0.0866353
0.0842549
0.0823068
0.0808227
0.0798266
0.0793219
0.109153
0.109854
0.111246
0.113307
0.116004
0.119296
0.123132
0.127451
0.132188
0.137268
0.142611
0.148134
0.153751
0.159372
0.164909
0.170274
0.175383
0.180153
0.18451
0.188383
0.19171
0.194439
0.196526
0.197936
0.198648
0.19865
0.197943
0.196537
0.194456
0.191733
0.188411
0.184545
0.180196
0.175434
0.170334
0.164979
0.159452
0.153842
0.148238
0.142727
0.137396
0.132328
0.127604
0.123296
0.119473
0.116192
0.113506
0.111456
0.110074
0.109378
0.137469
0.138351
0.140103
0.142697
0.146093
0.150237
0.155065
0.160503
0.166466
0.172861
0.179587
0.18654
0.193611
0.200687
0.207657
0.214412
0.220843
0.226848
0.232333
0.237209
0.241398
0.244833
0.24746
0.249236
0.250133
0.250137
0.249247
0.247479
0.24486
0.241433
0.237254
0.232389
0.226916
0.220924
0.214507
0.207768
0.200814
0.193755
0.186703
0.179769
0.173061
0.166685
0.160741
0.155321
0.15051
0.146382
0.143001
0.140419
0.138676
0.137799
0.163675
0.164725
0.166811
0.169898
0.173938
0.17887
0.184617
0.191089
0.198185
0.205796
0.213801
0.222076
0.230491
0.238913
0.247209
0.255247
0.262901
0.270048
0.276576
0.282379
0.287365
0.291454
0.294581
0.296695
0.297764
0.297769
0.296712
0.294609
0.291494
0.287419
0.282448
0.276661
0.270152
0.263024
0.255392
0.247377
0.239106
0.230711
0.222324
0.214078
0.206101
0.198519
0.191451
0.185006
0.179284
0.174375
0.170354
0.167283
0.165209
0.164164
0.187365
0.188566
0.190952
0.194484
0.199107
0.20475
0.211326
0.218731
0.226851
0.23556
0.24472
0.254188
0.263817
0.273453
0.282945
0.292143
0.300901
0.309079
0.316548
0.323188
0.328894
0.333573
0.337152
0.339573
0.340797
0.340805
0.339598
0.337194
0.333634
0.328975
0.323291
0.316676
0.309234
0.301085
0.29236
0.283198
0.273743
0.264147
0.254561
0.245135
0.236019
0.227353
0.219275
0.21191
0.205371
0.199761
0.195165
0.191655
0.189285
0.188091
0.208164
0.209498
0.212148
0.21607
0.221204
0.227471
0.234773
0.242996
0.252014
0.261684
0.271856
0.282371
0.293063
0.303764
0.314305
0.32452
0.334245
0.343327
0.351622
0.358996
0.365332
0.37053
0.374505
0.377195
0.378557
0.378569
0.377232
0.374568
0.370619
0.365452
0.359148
0.35181
0.343556
0.334518
0.324841
0.31468
0.304195
0.293554
0.282925
0.272474
0.262367
0.252761
0.243806
0.235642
0.228394
0.222176
0.217082
0.213192
0.210564
0.209241
0.225742
0.227188
0.23006
0.234311
0.239876
0.246669
0.254584
0.263497
0.273272
0.283754
0.294779
0.306177
0.317766
0.329365
0.34079
0.351862
0.362403
0.372248
0.381239
0.389233
0.396102
0.401737
0.406048
0.408967
0.410446
0.410464
0.40902
0.406139
0.401868
0.396276
0.389455
0.381515
0.372583
0.362804
0.352334
0.341341
0.329999
0.318489
0.306993
0.295692
0.284762
0.274376
0.264695
0.255869
0.248035
0.241314
0.235808
0.231604
0.228764
0.227334
0.239815
0.241351
0.2444
0.248914
0.254823
0.262035
0.270439
0.279904
0.290282
0.301412
0.313119
0.32522
0.337526
0.349841
0.361973
0.373729
0.384922
0.395376
0.404923
0.413412
0.420708
0.426693
0.431274
0.434377
0.435954
0.435979
0.434454
0.431406
0.426883
0.420961
0.413736
0.405325
0.395864
0.385507
0.374419
0.362778
0.35077
0.338585
0.326417
0.314456
0.302892
0.291904
0.281663
0.272328
0.264043
0.256935
0.251114
0.246669
0.243667
0.242155
0.250151
0.251751
0.25493
0.259637
0.265797
0.273316
0.282078
0.291945
0.302765
0.314368
0.326574
0.33919
0.352019
0.364858
0.377506
0.389762
0.401433
0.412332
0.422287
0.431139
0.438747
0.444991
0.449772
0.453013
0.454665
0.454702
0.453125
0.449961
0.445265
0.439113
0.431606
0.422867
0.413038
0.402279
0.390763
0.378674
0.366206
0.353558
0.34093
0.32852
0.316524
0.305128
0.29451
0.284833
0.276246
0.268881
0.26285
0.258244
0.255134
0.253568
0.256572
0.258213
0.261472
0.266297
0.272612
0.28032
0.289302
0.299417
0.310508
0.322403
0.334915
0.347848
0.361
0.374162
0.387128
0.399693
0.411657
0.422831
0.433038
0.442115
0.449919
0.456326
0.461233
0.464565
0.46627
0.466323
0.464725
0.461505
0.456717
0.450443
0.442785
0.433871
0.423846
0.412874
0.401132
0.38881
0.376105
0.363221
0.350361
0.337729
0.325521
0.313929
0.303131
0.293293
0.284567
0.277083
0.270957
0.266279
0.263121
0.261531
0.258963
0.260619
0.263906
0.268773
0.275144
0.28292
0.29198
0.302184
0.313373
0.325372
0.337994
0.351041
0.364308
0.377586
0.390667
0.403342
0.415413
0.426688
0.436987
0.446149
0.454027
0.460498
0.465459
0.468834
0.470571
0.470645
0.46906
0.465844
0.461054
0.454771
0.447102
0.438174
0.428134
0.417149
0.405398
0.39307
0.380366
0.367489
0.354643
0.34203
0.329848
0.318287
0.307523
0.297721
0.28903
0.28158
0.275483
0.27083
0.267688
0.266107
0.25727
0.258914
0.262178
0.267011
0.273336
0.281057
0.290054
0.300186
0.311296
0.32321
0.335743
0.348698
0.361871
0.375056
0.388045
0.400633
0.412621
0.423819
0.434051
0.443154
0.450985
0.457422
0.462363
0.465733
0.467483
0.467588
0.466052
0.462905
0.458206
0.452035
0.444499
0.435727
0.425865
0.415079
0.403545
0.391455
0.379004
0.366392
0.353821
0.341488
0.329587
0.318301
0.307802
0.298249
0.289784
0.282533
0.276601
0.272076
0.269022
0.267485
0.251503
0.253109
0.256299
0.26102
0.267201
0.274745
0.283536
0.293435
0.304291
0.315932
0.328178
0.340836
0.353708
0.366592
0.379285
0.391587
0.403303
0.41425
0.424254
0.433158
0.440822
0.447127
0.451977
0.455298
0.457042
0.457189
0.455742
0.452735
0.448224
0.442291
0.435042
0.426603
0.41712
0.406754
0.395681
0.384083
0.372152
0.360082
0.348066
0.336293
0.324947
0.314201
0.304217
0.295144
0.287114
0.280242
0.274625
0.270343
0.267455
0.266002
0.241738
0.243281
0.246345
0.250881
0.256819
0.264067
0.272512
0.282022
0.292451
0.303635
0.3154
0.327562
0.339929
0.352308
0.364505
0.376327
0.387588
0.398111
0.407732
0.416299
0.42368
0.429761
0.43445
0.437679
0.439405
0.439608
0.438295
0.4355
0.43128
0.425717
0.418915
0.410996
0.402104
0.392394
0.382034
0.371201
0.360077
0.348844
0.337683
0.326772
0.316279
0.306363
0.297169
0.28883
0.281464
0.27517
0.270034
0.266123
0.263487
0.262161
0.228116
0.229571
0.232461
0.23674
0.24234
0.249176
0.257142
0.266112
0.275949
0.286499
0.297596
0.309068
0.320735
0.332413
0.343921
0.355076
0.365705
0.375641
0.384729
0.392829
0.399815
0.405584
0.410049
0.41315
0.414847
0.415125
0.413995
0.411492
0.407672
0.402618
0.39643
0.389229
0.38115
0.372344
0.362969
0.353191
0.343179
0.333103
0.323125
0.313406
0.304093
0.295325
0.287225
0.279904
0.273458
0.267967
0.263497
0.2601
0.257815
0.256666
0.21084
0.212185
0.214855
0.218808
0.223982
0.230298
0.237657
0.245945
0.255033
0.26478
0.275034
0.285634
0.296415
0.307208
0.317845
0.328159
0.337989
0.347183
0.355599
0.363108
0.369597
0.374972
0.379157
0.382098
0.383763
0.384141
0.383249
0.381121
0.377818
0.373419
0.368023
0.361746
0.354719
0.34708
0.33898
0.330571
0.322006
0.313434
0.305
0.296837
0.289069
0.281806
0.275142
0.26916
0.263926
0.259494
0.255904
0.253187
0.251365
0.25045
0.190177
0.19139
0.193797
0.197361
0.202027
0.207721
0.214357
0.22183
0.230026
0.238815
0.248062
0.257622
0.267346
0.277083
0.286681
0.295991
0.304869
0.313178
0.320794
0.327601
0.3335
0.33841
0.342266
0.345024
0.346659
0.34717
0.346575
0.344916
0.342253
0.338665
0.334251
0.32912
0.323397
0.317213
0.310703
0.304005
0.297253
0.290573
0.284083
0.277888
0.272078
0.266727
0.261893
0.257619
0.253935
0.250858
0.248397
0.246553
0.245326
0.244714
0.16645
0.167511
0.169617
0.172735
0.176817
0.1818
0.187606
0.194146
0.201317
0.209009
0.217102
0.22547
0.233983
0.24251
0.250918
0.259078
0.266866
0.274164
0.280864
0.286871
0.292099
0.296483
0.299971
0.302531
0.304149
0.304831
0.304605
0.303515
0.301625
0.299018
0.295788
0.292043
0.2879
0.283481
0.278908
0.274301
0.269771
0.265419
0.26133
0.257572
0.254195
0.251229
0.248683
0.246553
0.244818
0.243449
0.242412
0.241673
0.241199
0.240968
0.140033
0.140925
0.142697
0.14532
0.148753
0.152944
0.157828
0.163329
0.169362
0.175834
0.182644
0.189687
0.196854
0.204035
0.211122
0.218005
0.224583
0.23076
0.236448
0.24157
0.246061
0.24987
0.252963
0.255321
0.256943
0.257846
0.258067
0.257658
0.256688
0.255243
0.253419
0.251321
0.249062
0.246753
0.244503
0.242413
0.24057
0.239044
0.237882
0.237108
0.236722
0.236698
0.236986
0.237517
0.23821
0.238975
0.23972
0.240364
0.240836
0.241084
0.111348
0.112058
0.113466
0.115552
0.118282
0.121614
0.125498
0.129872
0.13467
0.139819
0.145237
0.150843
0.156551
0.162275
0.167929
0.17343
0.178699
0.183664
0.18826
0.19243
0.196131
0.199332
0.202016
0.20418
0.205839
0.207024
0.207782
0.208178
0.208289
0.208207
0.208031
0.207869
0.207829
0.208016
0.208527
0.209441
0.210819
0.212697
0.215078
0.217934
0.221202
0.224787
0.228564
0.232386
0.23609
0.239508
0.242476
0.244847
0.246501
0.247349
0.0808576
0.0813729
0.0823956
0.0839098
0.0858924
0.0883128
0.0911339
0.0943122
0.0977993
0.101542
0.105483
0.109564
0.113723
0.1179
0.122035
0.12607
0.129953
0.133637
0.137079
0.14025
0.143127
0.145701
0.147974
0.149965
0.151706
0.153246
0.154646
0.155986
0.157356
0.158857
0.1606
0.162696
0.165253
0.168374
0.172143
0.176623
0.181845
0.187806
0.194459
0.201714
0.209433
0.217436
0.225503
0.233387
0.24082
0.247533
0.253269
0.257796
0.260927
0.262525
0.0490532
0.0493659
0.0499865
0.0509056
0.0521091
0.0535787
0.0552921
0.0572235
0.0593438
0.0616215
0.0640232
0.0665144
0.0690601
0.0716262
0.0741799
0.0766913
0.0791345
0.0814887
0.0837398
0.0858815
0.0879173
0.0898613
0.0917402
0.0935936
0.0954758
0.0974557
0.0996166
0.102056
0.104883
0.108215
0.112177
0.116891
0.122474
0.129028
0.13663
0.145327
0.155123
0.165971
0.177768
0.190348
0.203485
0.216893
0.230234
0.243132
0.255186
0.265997
0.275182
0.282403
0.287382
0.289919
0.0164511
0.0165564
0.0167649
0.017074
0.0174792
0.0179746
0.0185532
0.0192069
0.0199269
0.020704
0.0215288
0.0223923
0.0232861
0.0242037
0.0251404
0.0260946
0.0270686
0.0280698
0.0291118
0.0302159
0.0314123
0.0327415
0.0342562
0.0360218
0.0381182
0.0406398
0.0436956
0.0474082
0.051912
0.0573496
0.0638671
0.0716072
0.0807015
0.0912603
0.103361
0.117038
0.132268
0.148959
0.166944
0.185971
0.205706
0.225731
0.24556
0.264654
0.282443
0.298356
0.31185
0.322441
0.329737
0.333453
-0.0164185
-0.0165224
-0.0167293
-0.017035
-0.0174345
-0.0179211
-0.0184864
-0.0191204
-0.0198116
-0.0205467
-0.0213107
-0.0220868
-0.0228563
-0.0235978
-0.0242873
-0.0248975
-0.0253969
-0.0257489
-0.0259109
-0.0258325
-0.0254549
-0.0247084
-0.0235114
-0.0217688
-0.0193706
-0.0161914
-0.0120901
-0.00691099
-0.000485916
0.00736165
0.0168108
0.0280353
0.0411929
0.0564132
0.0737831
0.0933307
0.11501
0.138683
0.164112
0.190945
0.218716
0.246849
0.274671
0.301436
0.326355
0.348634
0.367519
0.382339
0.392546
0.397745
-0.0490209
-0.0493322
-0.0499511
-0.0508666
-0.0520643
-0.0535248
-0.0552246
-0.0571357
-0.0592263
-0.0614607
-0.0637997
-0.0662007
-0.0686179
-0.071002
-0.0733002
-0.0754558
-0.0774076
-0.0790893
-0.0804279
-0.0813429
-0.0817445
-0.0815316
-0.0805902
-0.0787914
-0.07599
-0.072023
-0.0667096
-0.0598518
-0.0512372
-0.0406432
-0.0278444
-0.0126218
0.00522363
0.0258554
0.0493828
0.07584
0.105164
0.137175
0.171555
0.207838
0.245403
0.283478
0.321157
0.357431
0.391227
0.421464
0.447112
0.467248
0.481121
0.488189
-0.0808259
-0.0813397
-0.0823605
-0.0838711
-0.0858475
-0.0882583
-0.0910649
-0.0942219
-0.0976775
-0.101374
-0.105249
-0.109234
-0.113256
-0.11724
-0.121102
-0.124758
-0.128117
-0.131081
-0.133548
-0.135404
-0.136527
-0.136783
-0.13602
-0.134073
-0.130754
-0.125857
-0.11915
-0.110384
-0.0992891
-0.0855818
-0.0689737
-0.0491825
-0.0259487
0.000944802
0.0316485
0.0662187
0.104589
0.146539
0.191671
0.23939
0.288889
0.339158
0.389
0.437073
0.481938
0.52214
0.556283
0.583116
0.601617
0.611047
-0.111318
-0.112026
-0.113432
-0.115513
-0.118236
-0.121559
-0.125427
-0.129778
-0.134542
-0.139641
-0.144987
-0.150489
-0.156049
-0.161562
-0.166919
-0.172006
-0.176702
-0.18088
-0.184404
-0.187131
-0.188901
-0.189545
-0.188873
-0.186673
-0.182713
-0.176732
-0.168441
-0.157523
-0.143639
-0.126424
-0.105509
-0.0805253
-0.0511274
-0.0170195
0.0220155
0.0660796
0.115121
0.168892
0.226915
0.288451
0.352479
0.4177
0.482554
0.545275
0.603956
0.65665
0.701483
0.736768
0.761121
0.773542
-0.140003
-0.140894
-0.142663
-0.145282
-0.148708
-0.152888
-0.157755
-0.16323
-0.169226
-0.175643
-0.182373
-0.189302
-0.196305
-0.203254
-0.210012
-0.216436
-0.222377
-0.227678
-0.232172
-0.23568
-0.23801
-0.23895
-0.238268
-0.235705
-0.230974
-0.22375
-0.213677
-0.200357
-0.183361
-0.162228
-0.136479
-0.105632
-0.0692267
-0.0268544
0.0218023
0.0769237
0.138501
0.206281
0.279713
0.357905
0.439591
0.523123
0.606496
0.687405
0.763339
0.83171
0.890013
0.93598
0.967745
0.98396
-0.166421
-0.167481
-0.169584
-0.172698
-0.176772
-0.181742
-0.18753
-0.194041
-0.201171
-0.208803
-0.216807
-0.225048
-0.233379
-0.241646
-0.249687
-0.257334
-0.264408
-0.270723
-0.276081
-0.280268
-0.283055
-0.28419
-0.283393
-0.280352
-0.274717
-0.266094
-0.254043
-0.238073
-0.217644
-0.192174
-0.161048
-0.123638
-0.0793293
-0.0275604
0.0321317
0.10005
0.176271
0.26057
0.352343
0.450545
0.553634
0.659554
0.765749
0.869235
0.966721
1.05478
1.13008
1.18957
1.23074
1.25177
-0.19015
-0.191361
-0.193765
-0.197324
-0.201981
-0.207662
-0.214277
-0.221719
-0.229869
-0.238591
-0.24774
-0.257159
-0.266679
-0.276126
-0.285314
-0.294048
-0.302124
-0.309328
-0.315429
-0.320181
-0.323316
-0.324538
-0.323518
-0.319885
-0.313221
-0.303051
-0.288839
-0.269983
-0.245814
-0.215601
-0.178561
-0.133882
-0.0807508
-0.0183984
0.0538392
0.136449
0.229651
0.333302
0.446785
0.568916
0.69786
0.831082
0.96536
1.09685
1.22127
1.33409
1.43085
1.50748
1.56061
1.58778
-0.210815
-0.212158
-0.214824
-0.218771
-0.223936
-0.230236
-0.237573
-0.245827
-0.254865
-0.264537
-0.274682
-0.285125
-0.29568
-0.30615
-0.316328
-0.325998
-0.334931
-0.342883
-0.349597
-0.354791
-0.358159
-0.359359
-0.358011
-0.353681
-0.345874
-0.334028
-0.317497
-0.29555
-0.267369
-0.232045
-0.188592
-0.135967
-0.0731076
0.00102471
0.0873681
0.186672
0.299385
0.425523
0.564524
0.715108
0.875142
1.04156
1.21033
1.37655
1.53463
1.67859
1.80252
1.90092
1.96927
2.00428
-0.228092
-0.229546
-0.232432
-0.236704
-0.242294
-0.249113
-0.257053
-0.265987
-0.275768
-0.286236
-0.297214
-0.308512
-0.319928
-0.331248
-0.342248
-0.352688
-0.362317
-0.370869
-0.378055
-0.383563
-0.387047
-0.388122
-0.38635
-0.381232
-0.372194
-0.358572
-0.339604
-0.314413
-0.282006
-0.24127
-0.190977
-0.129809
-0.0563875
0.0306667
0.132655
0.250691
0.385565
0.537568
0.706304
0.890476
1.08769
1.29431
1.50535
1.7146
1.91477
2.09801
2.25636
2.3825
2.47029
2.5153
-0.241716
-0.243257
-0.246317
-0.250846
-0.256772
-0.264002
-0.27242
-0.28189
-0.292258
-0.303353
-0.314987
-0.326958
-0.339051
-0.351037
-0.362674
-0.373708
-0.383867
-0.392861
-0.400376
-0.406068
-0.409556
-0.410408
-0.408132
-0.40216
-0.391832
-0.376382
-0.354915
-0.326397
-0.289641
-0.243298
-0.185863
-0.115687
-0.0310153
0.0699602
0.189009
0.32774
0.48743
0.668814
0.871824
1.0953
1.33669
1.59177
1.8545
2.11702
2.36992
2.60275
2.80488
2.96643
3.0791
3.13695
-0.251484
-0.253088
-0.256273
-0.260986
-0.267155
-0.274679
-0.28344
-0.293296
-0.304086
-0.315631
-0.327735
-0.340187
-0.352762
-0.365218
-0.377303
-0.388747
-0.399261
-0.408536
-0.416235
-0.421987
-0.425373
-0.425919
-0.42308
-0.416218
-0.404587
-0.387311
-0.36336
-0.33153
-0.29042
-0.238425
-0.173722
-0.0942852
0.00209015
0.117732
0.255
0.416152
0.603146
0.817384
1.05938
1.32834
1.62176
1.93496
2.26072
2.58922
2.90823
3.20392
3.46192
3.66884
3.81348
3.88783
-0.257253
-0.258894
-0.262154
-0.266978
-0.27329
-0.28099
-0.289956
-0.300041
-0.311081
-0.322892
-0.335274
-0.348008
-0.360863
-0.37359
-0.385926
-0.397591
-0.408283
-0.417679
-0.42542
-0.431111
-0.434303
-0.434481
-0.431047
-0.423298
-0.410403
-0.391377
-0.36505
-0.330042
-0.28473
-0.22723
-0.155374
-0.0667106
0.0414791
0.17214
0.328356
0.513214
0.729588
0.979843
1.26542
1.58631
1.9404
2.32279
2.72517
3.13537
3.53759
3.91329
4.24295
4.50826
4.69407
4.78968
-0.258948
-0.260601
-0.263883
-0.268741
-0.275098
-0.282852
-0.29188
-0.302035
-0.31315
-0.325041
-0.337503
-0.350317
-0.363247
-0.376041
-0.38843
-0.400128
-0.410824
-0.420182
-0.42783
-0.433351
-0.436271
-0.43604
-0.432013
-0.423426
-0.409368
-0.38875
-0.360266
-0.322359
-0.273183
-0.210564
-0.131971
-0.0344928
0.0851627
0.230646
0.405902
0.61504
0.862131
1.15087
1.48412
1.8632
2.28704
2.7511
3.24622
3.7577
4.26509
4.74333
5.16545
5.50624
5.74521
5.86822
-0.256559
-0.258198
-0.261451
-0.266266
-0.272567
-0.280253
-0.2892
-0.299264
-0.31028
-0.322062
-0.334409
-0.3471
-0.359901
-0.372559
-0.384805
-0.396348
-0.406876
-0.416045
-0.423473
-0.42873
-0.43132
-0.430665
-0.426083
-0.416757
-0.401706
-0.379745
-0.349444
-0.309081
-0.256593
-0.189522
-0.104969
0.000453102
0.130646
0.290038
0.483554
0.716524
0.99451
1.32299
1.70683
2.14955
2.65208
3.21131
3.81805
4.45517
5.09638
5.70729
6.24973
6.68851
6.99612
7.15433
-0.250139
-0.251738
-0.254911
-0.259608
-0.265753
-0.27325
-0.281977
-0.291792
-0.302534
-0.314023
-0.326059
-0.338428
-0.350899
-0.363223
-0.375133
-0.386342
-0.396537
-0.405374
-0.412468
-0.417379
-0.419602
-0.418539
-0.413478
-0.403565
-0.38776
-0.364803
-0.333157
-0.290955
-0.235939
-0.165391
-0.0760612
0.0359007
0.175014
0.346518
0.556402
0.81138
1.11879
1.48636
1.92172
2.43161
3.02051
3.68853
4.42836
5.22145
6.03458
6.81957
7.52022
8.08662
8.48248
8.6855
-0.239806
-0.241339
-0.244383
-0.248887
-0.254781
-0.26197
-0.27034
-0.279752
-0.290053
-0.301068
-0.312606
-0.32446
-0.336405
-0.348203
-0.359593
-0.370295
-0.380002
-0.388376
-0.395034
-0.399538
-0.401377
-0.399948
-0.394524
-0.384226
-0.367979
-0.344467
-0.312076
-0.268827
-0.212307
-0.139579
-0.0470893
0.0694307
0.215077
0.395879
0.618908
0.892348
1.22553
1.62883
2.11343
2.6906
3.37036
4.15903
5.05485
6.04124
7.07825
8.0968
9.00832
9.74078
10.2486
10.5074
-0.225736
-0.227179
-0.230045
-0.234287
-0.239837
-0.246607
-0.254487
-0.26335
-0.273048
-0.283417
-0.294277
-0.305431
-0.316668
-0.327757
-0.338453
-0.348486
-0.357563
-0.365355
-0.37149
-0.37554
-0.377002
-0.375277
-0.369639
-0.359206
-0.342891
-0.319352
-0.286936
-0.243598
-0.186824
-0.113523
-0.0199182
0.0985915
0.247582
0.433776
0.665242
0.951592
1.3042
1.73636
2.26338
2.90233
3.67123
4.58681
5.65955
6.8833
8.21699
9.56095
10.7581
11.7044
12.3497
12.6751
-0.20816
-0.209492
-0.212135
-0.216048
-0.221167
-0.227412
-0.234681
-0.242856
-0.2518
-0.261363
-0.271376
-0.281658
-0.292012
-0.302224
-0.312064
-0.32128
-0.329596
-0.336701
-0.342242
-0.345808
-0.346917
-0.344989
-0.339318
-0.329038
-0.31308
-0.290115
-0.258493
-0.216162
-0.160578
-0.0885869
0.00370442
0.121094
0.269477
0.456084
0.689765
0.981341
1.34402
1.79392
2.35062
3.03778
3.88353
4.91999
6.18002
7.6862
9.41987
11.2495
12.8392
14.0512
14.8545
15.2526
-0.187364
-0.188563
-0.190942
-0.194465
-0.199074
-0.204696
-0.211241
-0.2186
-0.226652
-0.23526
-0.244272
-0.253524
-0.262836
-0.272017
-0.280854
-0.28912
-0.29656
-0.302887
-0.307776
-0.310845
-0.311641
-0.30962
-0.304115
-0.294303
-0.279163
-0.25742
-0.227479
-0.18735
-0.134542
-0.0659487
0.0223004
0.135023
0.278212
0.459322
0.687634
0.974737
1.33515
1.78716
2.35401
3.06549
3.96024
5.08889
6.51768
8.32875
10.5974
13.2517
15.374
16.8849
17.844
18.3085
-0.163678
-0.164725
-0.166804
-0.169881
-0.173908
-0.178821
-0.184539
-0.19097
-0.198005
-0.205525
-0.213397
-0.221477
-0.229607
-0.237618
-0.245323
-0.25252
-0.258983
-0.264458
-0.26865
-0.271219
-0.271754
-0.269761
-0.264632
-0.255614
-0.241767
-0.221912
-0.194569
-0.157878
-0.109501
-0.0465029
0.0348038
0.139046
0.272038
0.441095
0.65545
0.926816
1.27015
1.70474
2.25578
2.95686
3.85391
5.01242
6.53156
8.57573
11.4545
15.854
18.5908
20.3426
21.4015
21.9031
-0.137477
-0.138355
-0.1401
-0.142684
-0.146066
-0.150193
-0.154997
-0.160399
-0.166309
-0.172625
-0.179237
-0.186022
-0.192847
-0.199568
-0.206029
-0.212057
-0.217459
-0.222018
-0.225482
-0.227556
-0.227887
-0.226046
-0.221502
-0.213597
-0.201506
-0.18419
-0.160341
-0.128306
-0.0859969
-0.0307789
0.0406772
0.132579
0.250255
0.400469
0.591844
0.835435
1.14553
1.54079
2.0459
2.69414
3.53154
4.62421
6.07268
8.0435
10.8493
15.1797
17.8554
19.5578
20.5819
21.0655
-0.109167
-0.109864
-0.111246
-0.113296
-0.115981
-0.119258
-0.123074
-0.127364
-0.132058
-0.137074
-0.142324
-0.147711
-0.153128
-0.158462
-0.163585
-0.16836
-0.172633
-0.176227
-0.178939
-0.180532
-0.180716
-0.179142
-0.175377
-0.168879
-0.158971
-0.144794
-0.125265
-0.0990109
-0.0642894
-0.0188932
0.03998
0.115891
0.213373
0.33822
0.497864
0.701899
0.96279
1.29686
1.7257
2.27809
2.99276
3.92207
5.13617
6.72375
8.76934
11.2124
13.1474
14.5065
15.3589
15.7684
-0.07919
-0.0796944
-0.0806899
-0.0821747
-0.0841219
-0.086499
-0.0892668
-0.0923795
-0.0957847
-0.099424
-0.103232
-0.10714
-0.111068
-0.114935
-0.118648
-0.122105
-0.125195
-0.127787
-0.129734
-0.130858
-0.130947
-0.129742
-0.126922
-0.122084
-0.114722
-0.104196
-0.0896948
-0.0701863
-0.0443599
-0.010548
0.0333727
0.0901108
0.163129
0.256869
0.377054
0.531089
0.728611
0.982209
1.30837
1.72861
2.27063
2.96884
3.86221
4.9842
6.33218
7.7949
9.05861
10.0064
10.6241
10.9265
-0.0480056
-0.0483205
-0.0489223
-0.0498213
-0.0510011
-0.0524417
-0.0541194
-0.0560061
-0.0580702
-0.060276
-0.0625843
-0.0649521
-0.0673327
-0.0696752
-0.0719237
-0.0740167
-0.0758851
-0.0774504
-0.0786214
-0.0792899
-0.079326
-0.07857
-0.0768243
-0.0738412
-0.0693083
-0.0628298
-0.0539032
-0.0418887
-0.025972
-0.00511473
0.0220083
0.0570913
0.102306
0.160444
0.235109
0.330971
0.454099
0.61239
0.816071
1.07821
1.41495
1.84483
2.38567
3.04628
3.80931
4.60679
5.31708
5.86871
6.23714
6.41999
-0.0160852
-0.0161967
-0.0164
-0.0167014
-0.0170966
-0.0175791
-0.0181411
-0.018773
-0.0194643
-0.0202031
-0.0209762
-0.0217692
-0.0225664
-0.0233508
-0.0241036
-0.0248041
-0.0254292
-0.0259525
-0.0263433
-0.0265652
-0.0265743
-0.0263171
-0.0257266
-0.0247194
-0.0231897
-0.0210039
-0.0179917
-0.0139364
-0.0085619
-0.00151557
0.00765297
0.0195202
0.0348261
0.0545228
0.0798404
0.112373
0.154192
0.207981
0.277195
0.36619
0.480218
0.625031
0.805595
1.02315
1.27013
1.52476
1.7538
1.93427
2.05621
2.11712
)
;

boundaryField
{
    walls
    {
        type            calculated;
        value           nonuniform List<scalar> 
200
(
0
0
0
0
0
0
0
0
0
0
0
0
0
0
0
0
0
0
0
0
0
0
0
0
0
0
0
0
0
0
0
0
0
0
0
0
0
0
0
0
0
0
0
0
0
0
0
0
0
0
0.0160907
0.047995
0.0791643
0.109153
0.137469
0.163675
0.187365
0.208164
0.225742
0.239815
0.250151
0.256572
0.258963
0.25727
0.251503
0.241738
0.228116
0.21084
0.190177
0.16645
0.140033
0.111348
0.0808576
0.0490532
0.0164511
-0.0164185
-0.0490209
-0.0808259
-0.111318
-0.140003
-0.166421
-0.19015
-0.210815
-0.228092
-0.241716
-0.251484
-0.257253
-0.258948
-0.256559
-0.250139
-0.239806
-0.225736
-0.20816
-0.187364
-0.163678
-0.137477
-0.109167
-0.07919
-0.0480056
-0.0160852
0.0161095
0.0480795
0.0793219
0.109378
0.137799
0.164164
0.188091
0.209241
0.227334
0.242155
0.253568
0.261531
0.266107
0.267485
0.266002
0.262161
0.256666
0.25045
0.244714
0.240968
0.241084
0.247349
0.262525
0.289919
0.333453
0.397745
0.488189
0.611047
0.773542
0.98396
1.25177
1.58778
2.00428
2.5153
3.13695
3.88783
4.78968
5.86822
7.15433
8.6855
10.5074
12.6751
15.2526
18.3085
21.9031
21.0655
15.7684
10.9265
6.41999
2.11712
0
0
0
0
0
0
0
0
0
0
0
0
0
0
0
0
0
0
0
0
0
0
0
0
0
0
0
0
0
0
0
0
0
0
0
0
0
0
0
0
0
0
0
0
0
0
0
0
0
0
)
;
    }
    frontAndBack
    {
        type            empty;
    }
}


// ************************************************************************* //
