/*--------------------------------*- C++ -*----------------------------------*\
| =========                 |                                                 |
| \\      /  F ield         | OpenFOAM: The Open Source CFD Toolbox           |
|  \\    /   O peration     | Version:  2406                                  |
|   \\  /    A nd           | Website:  www.openfoam.com                      |
|    \\/     M anipulation  |                                                 |
\*---------------------------------------------------------------------------*/
FoamFile
{
    version     2.0;
    format      ascii;
    arch        "LSB;label=32;scalar=64";
    class       volScalarField;
    location    "0.4";
    object      T;
}
// * * * * * * * * * * * * * * * * * * * * * * * * * * * * * * * * * * * * * //

dimensions      [0 0 0 1 0 0 0];

internalField   nonuniform List<scalar> 
2500
(
0.0945711
0.0952147
0.0964909
0.0983813
0.100857
0.10388
0.107404
0.111375
0.115731
0.120404
0.125323
0.13041
0.135586
0.140769
0.145877
0.150829
0.155546
0.159954
0.16398
0.167561
0.170638
0.173162
0.175092
0.176396
0.177054
0.177054
0.176397
0.175094
0.173164
0.170641
0.167564
0.163984
0.159958
0.155551
0.150834
0.145883
0.140775
0.135593
0.130417
0.12533
0.120412
0.115738
0.111382
0.107412
0.103888
0.100864
0.0983886
0.0964978
0.095221
0.0945776
0.0952147
0.0958624
0.0971468
0.0990494
0.101541
0.104583
0.10813
0.112126
0.11651
0.121214
0.126164
0.131284
0.136492
0.141708
0.146849
0.151833
0.15658
0.161016
0.165068
0.168671
0.171768
0.174308
0.17625
0.177563
0.178225
0.178225
0.177564
0.176252
0.174311
0.171771
0.168675
0.165072
0.16102
0.156586
0.151839
0.146855
0.141715
0.136499
0.131291
0.126172
0.121221
0.116518
0.112134
0.108138
0.104592
0.101549
0.0990576
0.0971548
0.0958698
0.0952219
0.0964909
0.0971468
0.0984475
0.100374
0.102897
0.105978
0.10957
0.113616
0.118056
0.122819
0.127832
0.133016
0.138291
0.143572
0.148778
0.153824
0.158632
0.163123
0.167226
0.170875
0.17401
0.176582
0.178549
0.179878
0.180549
0.180549
0.179879
0.178551
0.176585
0.174014
0.170878
0.16723
0.163128
0.158637
0.153831
0.148785
0.14358
0.138298
0.133024
0.12784
0.122828
0.118065
0.113626
0.10958
0.105988
0.102907
0.100384
0.0984576
0.0971567
0.0965007
0.0983813
0.0990494
0.100374
0.102337
0.104906
0.108044
0.111702
0.115824
0.120345
0.125196
0.130302
0.135582
0.140954
0.146333
0.151634
0.156774
0.161669
0.166243
0.170422
0.174138
0.177331
0.17995
0.181953
0.183307
0.183989
0.18399
0.183308
0.181955
0.179953
0.177334
0.174142
0.170427
0.166249
0.161676
0.156781
0.151642
0.146341
0.140963
0.135592
0.130312
0.125207
0.120357
0.115836
0.111715
0.108057
0.104919
0.10235
0.100388
0.0990629
0.0983948
0.100857
0.101541
0.102897
0.104906
0.107538
0.11075
0.114495
0.118714
0.123343
0.12831
0.133536
0.138941
0.144441
0.149947
0.155374
0.160635
0.165647
0.170329
0.174606
0.17841
0.181679
0.18436
0.18641
0.187796
0.188494
0.188495
0.187797
0.186412
0.184363
0.181683
0.178415
0.174612
0.170336
0.165655
0.160644
0.155384
0.149958
0.144452
0.138954
0.133549
0.128324
0.123358
0.11873
0.114511
0.110767
0.107555
0.104925
0.102916
0.10156
0.100876
0.10388
0.104583
0.105978
0.108044
0.11075
0.114054
0.117905
0.122244
0.127004
0.132111
0.137485
0.143043
0.148698
0.15436
0.15994
0.16535
0.170503
0.175317
0.179715
0.183626
0.186987
0.189744
0.191851
0.193276
0.193995
0.193995
0.193278
0.191854
0.189747
0.186992
0.183632
0.179722
0.175325
0.170513
0.165361
0.159953
0.154374
0.148713
0.14306
0.137503
0.13213
0.127024
0.122265
0.117928
0.114078
0.110775
0.10807
0.106004
0.10461
0.103907
0.107404
0.10813
0.10957
0.111702
0.114495
0.117905
0.12188
0.126358
0.131271
0.136541
0.142088
0.147824
0.15366
0.159504
0.165262
0.170845
0.176163
0.181131
0.185669
0.189705
0.193173
0.196018
0.198193
0.199664
0.200405
0.200406
0.199666
0.198197
0.196023
0.19318
0.189713
0.185678
0.181142
0.176176
0.17086
0.165279
0.159522
0.153681
0.147847
0.142113
0.136568
0.131299
0.126388
0.121912
0.117939
0.11453
0.111739
0.109607
0.108168
0.107442
0.111375
0.112126
0.113616
0.115824
0.118714
0.122244
0.126358
0.130993
0.136078
0.141533
0.147274
0.153211
0.159251
0.165298
0.171258
0.177036
0.182539
0.18768
0.192377
0.196553
0.200143
0.203087
0.205338
0.206859
0.207626
0.207627
0.206862
0.205342
0.203093
0.200151
0.196564
0.192389
0.187695
0.182556
0.177055
0.171281
0.165324
0.159279
0.153242
0.147308
0.14157
0.136118
0.131036
0.126404
0.122292
0.118765
0.115876
0.113671
0.112181
0.11143
0.115731
0.11651
0.118056
0.120345
0.123343
0.127004
0.131271
0.136078
0.141351
0.147009
0.152962
0.159119
0.165383
0.171654
0.177835
0.183826
0.189533
0.194864
0.199734
0.204065
0.207787
0.210839
0.213174
0.214751
0.215547
0.215548
0.214755
0.213179
0.210848
0.207798
0.204079
0.199751
0.194884
0.189556
0.183853
0.177866
0.17169
0.165423
0.159164
0.153011
0.147062
0.141409
0.13614
0.131337
0.127074
0.123417
0.120422
0.118135
0.116591
0.115812
0.120404
0.121214
0.122819
0.125196
0.12831
0.132111
0.136541
0.141533
0.147009
0.152883
0.159065
0.165458
0.171961
0.178473
0.18489
0.19111
0.197035
0.20257
0.207626
0.212123
0.215987
0.219156
0.221579
0.223218
0.224044
0.224046
0.223222
0.221587
0.219168
0.216002
0.212142
0.20765
0.202598
0.197068
0.191149
0.184934
0.178523
0.172018
0.165522
0.159136
0.152961
0.147093
0.141624
0.136639
0.132214
0.128418
0.125309
0.122935
0.121332
0.120524
0.125323
0.126164
0.127832
0.130302
0.133536
0.137485
0.142088
0.147274
0.152962
0.159065
0.165487
0.172128
0.178884
0.185648
0.192314
0.198775
0.20493
0.210679
0.215931
0.220601
0.224615
0.227907
0.230424
0.232126
0.232985
0.232988
0.232133
0.230436
0.227923
0.224636
0.220628
0.215964
0.210718
0.204977
0.19883
0.192377
0.185721
0.178966
0.17222
0.16559
0.159178
0.153086
0.147407
0.14223
0.137636
0.133695
0.130467
0.128002
0.126337
0.125498
0.13041
0.131284
0.133016
0.135582
0.138941
0.143043
0.147824
0.153211
0.159119
0.165458
0.172128
0.179026
0.186042
0.193067
0.19999
0.206701
0.213092
0.219063
0.224518
0.229368
0.233537
0.236956
0.23957
0.241338
0.242231
0.242234
0.241347
0.239586
0.236978
0.233566
0.229406
0.224564
0.21912
0.213159
0.206779
0.200081
0.193172
0.186161
0.179159
0.172277
0.165622
0.159298
0.153405
0.148032
0.143264
0.139173
0.135823
0.133265
0.131537
0.130666
0.135586
0.136492
0.138291
0.140954
0.144441
0.148698
0.15366
0.159251
0.165383
0.171961
0.178884
0.186042
0.193324
0.200614
0.207799
0.214763
0.221396
0.227592
0.233252
0.238286
0.242612
0.24616
0.248874
0.250709
0.251636
0.251641
0.250722
0.248896
0.246192
0.242654
0.23834
0.233319
0.227672
0.221491
0.214875
0.207929
0.200765
0.193495
0.186235
0.179099
0.172199
0.165643
0.159532
0.153962
0.149019
0.144778
0.141305
0.138653
0.136862
0.135959
0.140769
0.141708
0.143572
0.146333
0.149947
0.15436
0.159504
0.165298
0.171654
0.178473
0.185648
0.193067
0.200614
0.208171
0.215617
0.222834
0.229709
0.236131
0.241997
0.247214
0.251698
0.255376
0.258189
0.260092
0.261054
0.26106
0.26011
0.25822
0.25542
0.251757
0.24729
0.242091
0.236245
0.229845
0.222995
0.215804
0.208386
0.20086
0.193345
0.185958
0.178816
0.17203
0.165706
0.159941
0.154825
0.150436
0.146842
0.144098
0.142245
0.141311
0.145877
0.146849
0.148778
0.151634
0.155374
0.15994
0.165262
0.171258
0.177835
0.18489
0.192314
0.19999
0.207799
0.215617
0.22332
0.230788
0.237901
0.244545
0.250614
0.256012
0.260651
0.264457
0.267368
0.269338
0.270336
0.270344
0.269364
0.267412
0.26452
0.260735
0.256119
0.250748
0.244707
0.238095
0.231017
0.223588
0.215925
0.208151
0.200388
0.192758
0.185382
0.178375
0.171844
0.165892
0.16061
0.156079
0.152369
0.149536
0.147623
0.146659
0.150829
0.151833
0.153824
0.156774
0.160635
0.16535
0.170845
0.177036
0.183826
0.19111
0.198775
0.206701
0.214763
0.222834
0.230788
0.238498
0.245841
0.252701
0.258967
0.264541
0.269331
0.273261
0.276268
0.278304
0.279335
0.279347
0.27834
0.276329
0.273349
0.269449
0.264692
0.259155
0.25293
0.246116
0.238822
0.231167
0.223272
0.215264
0.207267
0.19941
0.191814
0.184598
0.177874
0.171747
0.166309
0.161646
0.157827
0.154911
0.152943
0.151951
0.155546
0.15658
0.158632
0.161669
0.165647
0.170503
0.176163
0.182539
0.189533
0.197035
0.20493
0.213092
0.221396
0.229709
0.237901
0.245841
0.253404
0.260469
0.266924
0.272664
0.277598
0.281647
0.284746
0.286846
0.287912
0.287928
0.286896
0.284832
0.281771
0.277764
0.272876
0.267188
0.260791
0.25379
0.246298
0.238436
0.230328
0.222104
0.213895
0.205829
0.198034
0.190629
0.183731
0.177445
0.171869
0.167086
0.16317
0.160181
0.158162
0.157145
0.159954
0.161016
0.163123
0.166243
0.170329
0.175317
0.181131
0.18768
0.194864
0.20257
0.210679
0.219063
0.227592
0.236131
0.244545
0.252701
0.260469
0.267727
0.274357
0.280254
0.285323
0.289484
0.29267
0.29483
0.295929
0.295952
0.294899
0.292789
0.289656
0.285554
0.280549
0.274725
0.268176
0.261009
0.253341
0.245295
0.237
0.228588
0.220192
0.211946
0.203977
0.196411
0.189363
0.182943
0.177248
0.172365
0.168367
0.165315
0.163256
0.162217
0.16398
0.165068
0.167226
0.170422
0.174606
0.179715
0.185669
0.192377
0.199734
0.207626
0.215931
0.224518
0.233252
0.241997
0.250614
0.258967
0.266924
0.274357
0.281148
0.287188
0.292382
0.296646
0.299913
0.302129
0.303262
0.303294
0.302226
0.300077
0.296884
0.292701
0.287597
0.281657
0.27498
0.267674
0.259858
0.251659
0.243208
0.234642
0.226095
0.217703
0.209596
0.201901
0.194737
0.188212
0.182426
0.177466
0.173406
0.170308
0.168217
0.167163
0.167561
0.168671
0.170875
0.174138
0.17841
0.183626
0.189705
0.196553
0.204065
0.212123
0.220601
0.229368
0.238286
0.247214
0.256012
0.264541
0.272664
0.280254
0.287188
0.293358
0.298663
0.30302
0.30636
0.30863
0.309796
0.309839
0.308762
0.306585
0.303346
0.2991
0.293919
0.287889
0.281112
0.273698
0.265769
0.257455
0.24889
0.240211
0.231556
0.223061
0.214861
0.20708
0.199839
0.193248
0.187405
0.182399
0.178303
0.175178
0.173069
0.172006
0.170638
0.171768
0.17401
0.177331
0.181679
0.186987
0.193173
0.200143
0.207787
0.215987
0.224615
0.233537
0.242612
0.251698
0.260651
0.269331
0.277598
0.285323
0.292382
0.298663
0.304066
0.308506
0.311911
0.314231
0.315428
0.315487
0.31441
0.312217
0.308949
0.304661
0.299429
0.293339
0.286496
0.279013
0.271014
0.262631
0.253999
0.245258
0.236548
0.228006
0.219764
0.211951
0.204684
0.198074
0.192218
0.187204
0.183103
0.179975
0.177865
0.176802
0.173162
0.174308
0.176582
0.17995
0.18436
0.189744
0.196018
0.203087
0.210839
0.219156
0.227907
0.236956
0.24616
0.255376
0.264457
0.273261
0.281647
0.289484
0.296646
0.30302
0.308506
0.313015
0.316479
0.318843
0.320073
0.320153
0.319085
0.316892
0.313614
0.30931
0.304056
0.297942
0.291074
0.283568
0.275549
0.267152
0.258513
0.249772
0.241071
0.232546
0.224329
0.216548
0.209318
0.202748
0.196934
0.191958
0.187892
0.184792
0.182702
0.181649
0.175092
0.17625
0.178549
0.181953
0.18641
0.191851
0.198193
0.205338
0.213174
0.221579
0.230424
0.23957
0.248874
0.258189
0.267368
0.276268
0.284746
0.29267
0.299913
0.30636
0.311911
0.316479
0.319992
0.322398
0.323662
0.323768
0.322721
0.320545
0.31728
0.31299
0.30775
0.301654
0.294809
0.287333
0.279355
0.271008
0.262432
0.253766
0.245151
0.236723
0.228612
0.220942
0.213827
0.207369
0.201662
0.196784
0.192802
0.189769
0.187725
0.186696
0.176396
0.177563
0.179878
0.183307
0.187796
0.193276
0.199664
0.206859
0.214751
0.223218
0.232126
0.241338
0.250709
0.260092
0.269338
0.278304
0.286846
0.29483
0.302129
0.30863
0.314231
0.318843
0.322398
0.324842
0.326142
0.326283
0.325271
0.323131
0.319908
0.315664
0.31048
0.30445
0.297684
0.290303
0.282435
0.274217
0.265786
0.257285
0.248849
0.240614
0.232707
0.225245
0.218339
0.212084
0.206566
0.201859
0.198022
0.195104
0.193139
0.19215
0.177054
0.178225
0.180549
0.183989
0.188494
0.193995
0.200405
0.207626
0.215547
0.224044
0.232985
0.242231
0.251636
0.261054
0.270336
0.279335
0.287912
0.295929
0.303262
0.309796
0.315428
0.320073
0.323662
0.326142
0.327481
0.327666
0.326706
0.324627
0.321476
0.317318
0.312237
0.30633
0.299708
0.292495
0.28482
0.276821
0.268637
0.260405
0.252262
0.244337
0.236752
0.229618
0.223036
0.217095
0.211869
0.207424
0.203809
0.201065
0.19922
0.198293
0.177054
0.178225
0.180549
0.18399
0.188495
0.193995
0.200406
0.207627
0.215548
0.224046
0.232988
0.242234
0.251641
0.26106
0.270344
0.279347
0.287928
0.295952
0.303294
0.309839
0.315487
0.320153
0.323768
0.326283
0.327666
0.327908
0.327019
0.325027
0.321984
0.317958
0.313034
0.307314
0.300912
0.293953
0.28657
0.278898
0.271077
0.263243
0.255527
0.248053
0.240935
0.234275
0.228161
0.22267
0.217864
0.213793
0.210496
0.208002
0.206329
0.205488
0.176397
0.177564
0.179879
0.183308
0.187797
0.193278
0.199666
0.206862
0.214755
0.223222
0.232133
0.241347
0.250722
0.26011
0.269364
0.27834
0.286896
0.294899
0.302226
0.308762
0.31441
0.319085
0.322721
0.325271
0.326706
0.327019
0.326222
0.32435
0.321456
0.317613
0.312909
0.307451
0.301356
0.294751
0.287772
0.280555
0.273237
0.265953
0.258827
0.251975
0.2455
0.239492
0.234023
0.229152
0.224924
0.221369
0.21851
0.216359
0.214922
0.214203
0.175094
0.176252
0.178551
0.181955
0.186412
0.191854
0.198197
0.205342
0.213179
0.221587
0.230436
0.239586
0.248896
0.25822
0.267412
0.276329
0.284832
0.292789
0.300077
0.306585
0.312217
0.316892
0.320545
0.323131
0.324627
0.325027
0.32435
0.322633
0.319935
0.316332
0.311921
0.30681
0.301121
0.294988
0.288545
0.281932
0.275284
0.26873
0.262389
0.256367
0.250751
0.245614
0.241007
0.236967
0.233513
0.230652
0.228381
0.226692
0.225574
0.225016
0.173164
0.174311
0.176585
0.179953
0.184363
0.189747
0.196023
0.203093
0.210848
0.219168
0.227923
0.236978
0.246192
0.25542
0.26452
0.273349
0.281771
0.289656
0.296884
0.303346
0.308949
0.313614
0.31728
0.319908
0.321476
0.321984
0.321456
0.319935
0.317485
0.314189
0.31015
0.305484
0.300318
0.294789
0.289038
0.283203
0.277421
0.271814
0.266493
0.26155
0.257056
0.253058
0.249583
0.246635
0.244201
0.242255
0.240761
0.239683
0.238987
0.238644
0.170641
0.171771
0.174014
0.177334
0.181683
0.186992
0.19318
0.200151
0.207798
0.216002
0.224636
0.233566
0.242654
0.251757
0.260735
0.269449
0.277764
0.285554
0.292701
0.2991
0.304661
0.30931
0.31299
0.315664
0.317318
0.317958
0.317613
0.316332
0.314189
0.311275
0.3077
0.303589
0.299076
0.294307
0.289425
0.284575
0.279888
0.275486
0.271466
0.267905
0.26485
0.262322
0.260309
0.258778
0.257671
0.256918
0.25644
0.256162
0.256018
0.255958
0.167564
0.168675
0.170878
0.174142
0.178415
0.183632
0.189713
0.196564
0.204079
0.212142
0.220628
0.229406
0.23834
0.24729
0.256119
0.264692
0.272876
0.280549
0.287597
0.293919
0.299429
0.304056
0.30775
0.31048
0.312237
0.313034
0.312909
0.311921
0.31015
0.3077
0.304691
0.301258
0.297549
0.293715
0.28991
0.28628
0.282961
0.280065
0.277682
0.275867
0.274639
0.273983
0.273843
0.274131
0.274735
0.275523
0.276362
0.277123
0.277697
0.278003
0.163984
0.165072
0.16723
0.170427
0.174612
0.179722
0.185678
0.192389
0.199751
0.20765
0.215964
0.224564
0.233319
0.242091
0.250748
0.259155
0.267188
0.274725
0.281657
0.287889
0.293339
0.297942
0.301654
0.30445
0.30633
0.307314
0.307451
0.30681
0.305484
0.303589
0.301258
0.298643
0.295903
0.293204
0.290711
0.288577
0.286939
0.285908
0.28556
0.285927
0.286996
0.288704
0.290939
0.293548
0.29634
0.299109
0.301643
0.303745
0.305248
0.306029
0.159958
0.16102
0.163128
0.166249
0.170336
0.175325
0.181142
0.187695
0.194884
0.202598
0.210718
0.21912
0.227672
0.236245
0.244707
0.25293
0.260791
0.268176
0.27498
0.281112
0.286496
0.291074
0.294809
0.297684
0.299708
0.300912
0.301356
0.301121
0.300318
0.299076
0.297549
0.295903
0.294319
0.292979
0.292063
0.291738
0.292147
0.293397
0.295553
0.298623
0.302554
0.307226
0.312457
0.318005
0.323586
0.328887
0.333596
0.337422
0.340121
0.341514
0.155551
0.156586
0.158637
0.161676
0.165655
0.170513
0.176176
0.182556
0.189556
0.197068
0.204977
0.213159
0.221491
0.229845
0.238095
0.246116
0.25379
0.261009
0.267674
0.273698
0.279013
0.283568
0.287333
0.290303
0.292495
0.293953
0.294751
0.294988
0.294789
0.294307
0.293715
0.293204
0.292979
0.293245
0.294205
0.296044
0.298915
0.302929
0.308141
0.314531
0.322001
0.330366
0.339352
0.348609
0.357725
0.366253
0.373744
0.379782
0.384019
0.3862
0.150834
0.151839
0.153831
0.156781
0.160644
0.165361
0.17086
0.177055
0.183853
0.191149
0.19883
0.206779
0.214875
0.222995
0.231017
0.238822
0.246298
0.253341
0.259858
0.265769
0.271014
0.275549
0.279355
0.282435
0.28482
0.28657
0.287772
0.288545
0.289038
0.289425
0.28991
0.290711
0.292063
0.294205
0.297369
0.301766
0.307569
0.3149
0.323805
0.334242
0.346062
0.358999
0.372671
0.386589
0.400177
0.412807
0.42385
0.432722
0.438932
0.442126
0.145883
0.146855
0.148785
0.151642
0.155384
0.159953
0.165279
0.171281
0.177866
0.184934
0.192377
0.200081
0.207929
0.215804
0.223588
0.231167
0.238436
0.245295
0.251659
0.257455
0.262631
0.267152
0.271008
0.274217
0.276821
0.278898
0.280555
0.281932
0.283203
0.284575
0.28628
0.288577
0.291738
0.296044
0.301766
0.309153
0.318412
0.329682
0.343014
0.358343
0.375469
0.394037
0.413532
0.43329
0.452522
0.470363
0.485939
0.498439
0.507183
0.511678
0.140775
0.141715
0.14358
0.146341
0.149958
0.154374
0.159522
0.165324
0.17169
0.178523
0.185721
0.193172
0.200765
0.208386
0.215925
0.223272
0.230328
0.237
0.243208
0.24889
0.253999
0.258513
0.262432
0.265786
0.268637
0.271077
0.273237
0.275284
0.277421
0.279888
0.282961
0.286939
0.292147
0.298915
0.307569
0.318412
0.331695
0.347595
0.36618
0.387376
0.410932
0.436397
0.4631
0.490158
0.516506
0.540964
0.562327
0.579475
0.591472
0.597639
0.135593
0.136499
0.138298
0.140963
0.144452
0.148713
0.153681
0.159279
0.165423
0.172018
0.178966
0.186161
0.193495
0.20086
0.208151
0.215264
0.222104
0.228588
0.234642
0.240211
0.245258
0.249772
0.253766
0.257285
0.260405
0.263243
0.265953
0.26873
0.271814
0.275486
0.280065
0.285908
0.293397
0.302929
0.3149
0.329682
0.347595
0.368876
0.39363
0.421795
0.453085
0.486948
0.522539
0.558705
0.594026
0.626895
0.655657
0.678769
0.694946
0.703265
0.130417
0.131291
0.133024
0.135592
0.138954
0.14306
0.147847
0.153242
0.159164
0.165522
0.17222
0.179159
0.186235
0.193345
0.200388
0.207267
0.213895
0.220192
0.226095
0.231556
0.236548
0.241071
0.245151
0.248849
0.252262
0.255527
0.258827
0.262389
0.266493
0.271466
0.277682
0.28556
0.295553
0.308141
0.323805
0.343014
0.36618
0.39363
0.425545
0.461904
0.502414
0.546441
0.592949
0.640466
0.687109
0.730697
0.768945
0.799725
0.82128
0.832368
0.12533
0.126172
0.12784
0.130312
0.133549
0.137503
0.142113
0.147308
0.153011
0.159136
0.16559
0.172277
0.179099
0.185958
0.192758
0.19941
0.205829
0.211946
0.217703
0.223061
0.228006
0.232546
0.236723
0.240614
0.244337
0.248053
0.251975
0.256367
0.26155
0.267905
0.275867
0.285927
0.298623
0.314531
0.334242
0.358343
0.387376
0.421795
0.461904
0.507777
0.559168
0.615401
0.675261
0.736912
0.797881
0.855186
0.905646
0.94631
0.974791
0.989438
0.120412
0.121221
0.122828
0.125207
0.128324
0.13213
0.136568
0.14157
0.147062
0.152961
0.159178
0.165622
0.172199
0.178816
0.185382
0.191814
0.198034
0.203977
0.209596
0.214861
0.219764
0.224329
0.228612
0.232707
0.236752
0.240935
0.2455
0.250751
0.257056
0.26485
0.274639
0.286996
0.302554
0.322001
0.346062
0.375469
0.410932
0.453085
0.502414
0.559168
0.623234
0.693982
0.770083
0.849324
0.928493
1.00348
1.06975
1.12319
1.16058
1.17979
0.115738
0.116518
0.118065
0.120357
0.123358
0.127024
0.131299
0.136118
0.141409
0.147093
0.153086
0.159298
0.165643
0.17203
0.178375
0.184598
0.190629
0.196411
0.201901
0.20708
0.211951
0.216548
0.220942
0.225245
0.229618
0.234275
0.239492
0.245614
0.253058
0.262322
0.273983
0.288704
0.307226
0.330366
0.358999
0.394037
0.436397
0.486948
0.546441
0.615401
0.693982
0.781762
0.877455
0.978561
1.08101
1.17906
1.26598
1.33594
1.38473
1.40973
0.111382
0.112134
0.113626
0.115836
0.11873
0.122265
0.126388
0.131036
0.13614
0.141624
0.147407
0.153405
0.159532
0.165706
0.171844
0.177874
0.183731
0.189363
0.194737
0.199839
0.204684
0.209318
0.213827
0.218339
0.223036
0.228161
0.234023
0.241007
0.249583
0.260309
0.273843
0.290939
0.312457
0.339352
0.372671
0.413532
0.4631
0.522539
0.592949
0.675261
0.770083
0.877455
0.996465
1.12466
1.25717
1.38592
1.50008
1.59136
1.65457
1.68679
0.107412
0.108138
0.10958
0.111715
0.114511
0.117928
0.121912
0.126404
0.131337
0.136639
0.14223
0.148032
0.153962
0.159941
0.165892
0.171747
0.177445
0.182943
0.188212
0.193248
0.198074
0.202748
0.207369
0.212084
0.217095
0.22267
0.229152
0.236967
0.246635
0.258778
0.274131
0.293548
0.318005
0.348609
0.386589
0.43329
0.490158
0.558705
0.640466
0.736912
0.849324
0.978561
1.12466
1.28601
1.45781
1.62904
1.77955
1.89799
1.97891
2.01984
0.103888
0.104592
0.105988
0.108057
0.110767
0.114078
0.117939
0.122292
0.127074
0.132214
0.137636
0.143264
0.149019
0.154825
0.16061
0.166309
0.171869
0.177248
0.182426
0.187405
0.192218
0.196934
0.201662
0.206566
0.211869
0.217864
0.224924
0.233513
0.244201
0.257671
0.274735
0.29634
0.323586
0.357725
0.400177
0.452522
0.516506
0.594026
0.687109
0.797881
0.928493
1.08101
1.25717
1.45781
1.68107
1.91599
2.11504
2.26676
2.36833
2.41913
0.100864
0.101549
0.102907
0.104919
0.107555
0.110775
0.11453
0.118765
0.123417
0.128418
0.133695
0.139173
0.144778
0.150436
0.156079
0.161646
0.167086
0.172365
0.177466
0.182399
0.187204
0.191958
0.196784
0.201859
0.207424
0.213793
0.221369
0.230652
0.242255
0.256918
0.275523
0.299109
0.328887
0.366253
0.412807
0.470363
0.540964
0.626895
0.730697
0.855186
1.00348
1.17906
1.38592
1.62904
1.91599
2.2632
2.52318
2.71169
2.83497
2.89596
0.0983886
0.0990576
0.100384
0.10235
0.104925
0.10807
0.111739
0.115876
0.120422
0.125309
0.130467
0.135823
0.141305
0.146842
0.152369
0.157827
0.16317
0.168367
0.173406
0.178303
0.183103
0.187892
0.192802
0.198022
0.203809
0.210496
0.21851
0.228381
0.240761
0.25644
0.276362
0.301643
0.333596
0.373744
0.42385
0.485939
0.562327
0.655657
0.768945
0.905646
1.06975
1.26598
1.50008
1.77955
2.11504
2.52318
2.82926
3.04907
3.1916
3.26175
0.0964978
0.0971548
0.0984576
0.100388
0.102916
0.106004
0.109607
0.113671
0.118135
0.122935
0.128002
0.133265
0.138653
0.144098
0.149536
0.154911
0.160181
0.165315
0.170308
0.175178
0.179975
0.184792
0.189769
0.195104
0.201065
0.208002
0.216359
0.226692
0.239683
0.256162
0.277123
0.303745
0.337422
0.379782
0.432722
0.498439
0.579475
0.678769
0.799725
0.94631
1.12319
1.33594
1.59136
1.89799
2.26676
2.71169
3.04907
3.29195
3.44933
3.5267
0.095221
0.0958698
0.0971567
0.0990629
0.10156
0.10461
0.108168
0.112181
0.116591
0.121332
0.126337
0.131537
0.136862
0.142245
0.147623
0.152943
0.158162
0.163256
0.168217
0.173069
0.177865
0.182702
0.187725
0.193139
0.19922
0.206329
0.214922
0.225574
0.238987
0.256018
0.277697
0.305248
0.340121
0.384019
0.438932
0.507183
0.591472
0.694946
0.82128
0.974791
1.16058
1.38473
1.65457
1.97891
2.36833
2.83497
3.1916
3.44933
3.61657
3.69881
0.0945776
0.0952219
0.0965007
0.0983948
0.100876
0.103907
0.107442
0.11143
0.115812
0.120524
0.125498
0.130666
0.135959
0.141311
0.146659
0.151951
0.157145
0.162217
0.167163
0.172006
0.176802
0.181649
0.186696
0.19215
0.198293
0.205488
0.214203
0.225016
0.238644
0.255958
0.278003
0.306029
0.341514
0.3862
0.442126
0.511678
0.597639
0.703265
0.832368
0.989438
1.17979
1.40973
1.68679
2.01984
2.41913
2.89596
3.26175
3.5267
3.69881
3.7835
)
;

boundaryField
{
    walls
    {
        type            zeroGradient;
    }
    frontAndBack
    {
        type            empty;
    }
}


// ************************************************************************* //
