/*--------------------------------*- C++ -*----------------------------------*\
| =========                 |                                                 |
| \\      /  F ield         | OpenFOAM: The Open Source CFD Toolbox           |
|  \\    /   O peration     | Version:  2406                                  |
|   \\  /    A nd           | Website:  www.openfoam.com                      |
|    \\/     M anipulation  |                                                 |
\*---------------------------------------------------------------------------*/
FoamFile
{
    version     2.0;
    format      ascii;
    arch        "LSB;label=32;scalar=64";
    class       volScalarField;
    location    "281";
    object      epsilon;
}
// * * * * * * * * * * * * * * * * * * * * * * * * * * * * * * * * * * * * * //

dimensions      [0 2 -3 0 0 0 0];

internalField   nonuniform List<scalar> 
12225
(
1086.12
2467.51
3645.54
4414.76
4812.17
4980.55
4972.22
4932.36
4837.76
4728.38
4620.49
4517.16
4425.49
4339.51
4269.03
4198.39
4150.99
4085.23
79.187
262.722
438.669
584.481
691.152
762.92
804.743
829.979
846.784
856.866
866.582
873.737
882.996
890.97
900.639
910.044
918.909
932.996
23.7079
50.3396
83.2998
112.496
136.909
156.199
170.145
179.904
186.372
190.792
193.484
195.626
196.862
198.389
199.316
201.039
201.373
206.443
17.0587
21.2942
30.0051
38.496
46.2151
53.039
58.6206
63.2646
66.7553
69.6472
71.6132
73.3331
74.319
75.3433
75.7312
76.402
76.4526
77.4272
15.2882
16.097
18.552
21.5028
24.4418
27.2627
29.736
31.9834
33.8188
35.4795
36.7453
37.9276
38.7448
39.5756
40.0577
40.6396
40.9134
41.3678
14.843
14.9042
15.5187
16.4543
17.6096
18.8292
19.9697
21.0769
22.0337
22.9483
23.6897
24.4158
24.9564
25.5275
25.8931
26.3471
26.5746
26.9667
14.7701
14.6429
14.7016
14.8629
15.2236
15.6844
16.1629
16.6724
17.1383
17.6109
18.0104
18.4208
18.7385
19.0879
19.3216
19.6218
19.7757
20.0676
14.767
14.5928
14.4733
14.4195
14.4433
14.5146
14.6475
14.8246
15.0022
15.2023
15.3793
15.576
15.7326
15.9149
16.0402
16.207
16.2972
16.4694
14.7668
14.5926
14.4351
14.3028
14.2032
14.137
14.0972
14.0987
14.1106
14.1415
14.1783
14.2346
14.2793
14.3426
14.3854
14.449
14.4866
14.5563
14.7661
14.5944
14.4321
14.2828
14.1466
14.0296
13.9256
13.8437
13.7744
13.7224
13.6771
13.6482
13.6204
13.6063
13.5892
13.5835
13.5731
13.5818
14.7658
14.5946
14.4323
14.2806
14.137
14.0051
13.8816
13.7705
13.6679
13.5777
13.4938
13.4219
13.3537
13.2971
13.2406
13.1972
13.1473
13.1179
14.7657
14.5944
14.4322
14.2801
14.1357
14.0007
13.8728
13.754
13.6417
13.5385
13.4409
13.3523
13.2677
13.1922
13.1185
13.0549
12.9895
12.9368
14.7657
14.5941
14.4321
14.2796
14.1353
13.9995
13.8707
13.7496
13.6347
13.5271
13.4247
13.3294
13.2383
13.1542
13.0731
12.999
12.9266
12.8616
14.7657
14.594
14.4319
14.2792
14.1349
13.9987
13.8698
13.7481
13.6326
13.5236
13.4201
13.3224
13.2294
13.1417
13.0581
12.9795
12.9043
12.8337
14.7657
14.5938
14.4317
14.2789
14.1345
13.9981
13.8691
13.7471
13.6315
13.5221
13.4183
13.32
13.2265
13.1379
13.0536
12.9737
12.8975
12.8253
14.7657
14.5938
14.4316
14.2786
14.1341
13.9976
13.8685
13.7463
13.6306
13.5211
13.4171
13.3185
13.2249
13.136
13.0515
12.9713
12.8948
12.8222
14.7657
14.5937
14.4315
14.2784
14.1338
13.9972
13.868
13.7457
13.6299
13.5202
13.4162
13.3174
13.2237
13.1347
13.0501
12.9696
12.8931
12.8203
14.7657
14.5937
14.4314
14.2783
14.1336
13.9969
13.8677
13.7453
13.6294
13.5196
13.4155
13.3167
13.2228
13.1337
13.049
12.9685
12.8919
12.819
14.7657
14.5937
14.4314
14.2782
14.1336
13.9969
13.8675
13.7451
13.6292
13.5194
13.4152
13.3163
13.2224
13.1333
13.0485
12.9679
12.8913
12.8184
14.7657
14.5937
14.4315
14.2783
14.1337
13.997
13.8677
13.7453
13.6294
13.5196
13.4154
13.3166
13.2227
13.1336
13.0489
12.9683
12.8917
12.8188
14.7657
14.5937
14.4316
14.2785
14.1339
13.9972
13.868
13.7457
13.63
13.5202
13.4163
13.3176
13.2241
13.1352
13.051
12.9708
12.8948
12.8224
14.7658
14.5938
14.4317
14.2786
14.1343
13.9977
13.869
13.7472
13.6325
13.524
13.4219
13.3252
13.2344
13.1482
13.0676
12.9907
12.9192
12.8504
14.766
14.5936
14.432
14.2789
14.1361
14.0021
13.8782
13.7628
13.6573
13.5595
13.4707
13.3883
13.314
13.2446
13.1828
13.1237
13.0728
13.0213
14.7664
14.5919
14.4339
14.2872
14.1626
14.0553
13.9688
13.8977
13.8459
13.8048
13.7783
13.758
13.7482
13.7415
13.7414
13.7454
13.7514
13.7511
14.7635
14.5927
14.4798
14.4111
14.4198
14.4675
14.5528
14.67
14.8168
14.9612
15.1237
15.2711
15.4319
15.5683
15.7195
15.8373
15.978
16.0719
14.7559
14.7332
14.9889
15.3353
15.9215
16.5509
17.2338
17.878
18.5377
19.1217
19.7127
20.2096
20.72
21.1248
21.5587
21.8755
22.2452
22.4805
15.1561
15.9275
18.0403
20.4321
22.9267
25.2658
27.5468
29.5525
31.4906
33.1025
34.6855
35.9137
37.1756
38.0656
39.0608
39.6723
40.4608
40.8521
17.6818
25.6331
36.6751
46.5427
55.8658
64.2726
72.1009
78.7408
84.8016
89.59
94.0125
97.1742
100.312
102.189
104.451
105.414
107.132
107.488
45.5096
105.214
164.441
217.229
267.838
313.448
353.657
386.102
413.216
433.649
450.586
462.692
472.88
479.758
486.797
490.285
496.128
497.462
632.296
1081.11
1534.74
1880.99
2183.47
2431.77
2631.53
2773.03
2876.15
2932.21
2969.07
2970.17
2963.16
2946.23
2918.32
2885.07
2849.27
2811.95
0.170632
0.171476
0.296944
0.434303
0.567818
0.690966
0.802157
0.901688
0.990879
1.07702
1.16469
1.25494
1.35045
1.45365
1.566
1.68786
1.81927
1.96126
2.1192
2.30903
2.55419
2.85583
3.20795
3.61217
4.07538
4.60681
5.21697
5.91624
6.7138
7.61487
8.62183
9.73854
10.9661
12.3031
13.7491
15.3023
16.9621
18.7272
20.5971
22.5719
24.6526
26.8418
29.1441
31.5672
34.1225
36.8278
39.709
42.8045
46.0358
49.4197
52.9526
56.6437
60.4946
64.5115
68.6978
73.0587
77.5981
82.3208
87.2305
92.3318
97.628
103.123
108.82
114.722
120.832
127.152
133.684
140.429
147.389
154.563
161.952
169.556
177.372
185.4
193.636
202.078
210.722
219.564
228.598
237.819
247.22
256.796
266.536
276.433
286.477
296.659
306.967
317.391
327.916
338.532
349.221
359.97
370.759
381.572
392.385
403.177
413.922
424.591
435.158
445.599
455.91
466.127
476.272
486.247
496.084
505.753
515.244
524.539
533.622
542.477
551.086
559.434
567.504
575.284
582.755
589.907
596.723
603.193
609.303
615.042
620.398
625.363
629.925
634.077
637.811
641.123
644.007
646.459
648.474
650.049
651.173
651.894
652.227
652.037
651.349
650.21
648.745
646.912
644.588
641.872
638.751
635.242
631.353
627.098
622.492
617.542
612.262
606.666
600.77
594.59
588.14
581.437
574.498
567.341
559.982
552.439
544.728
536.869
528.879
520.776
512.579
504.31
495.997
487.696
479.637
473.726
470.334
467.206
464.074
460.917
457.735
454.531
451.302
448.034
444.697
441.21
437.419
432.848
426.601
402.351
0.663493
0.392525
0.356456
0.370649
0.405152
0.450744
0.504044
0.564459
0.632968
0.711499
0.801265
0.902915
1.01786
1.14785
1.29468
1.46021
1.64646
1.85585
2.09134
2.35554
2.65619
2.99729
3.38005
3.80624
4.27844
4.79924
5.37017
5.9903
6.65411
7.35453
8.09915
8.88724
9.71812
10.5902
11.5038
12.4569
13.4476
14.4771
15.5466
16.6582
17.8142
19.0177
20.2718
21.5802
22.9468
24.3751
25.8678
27.4249
29.0409
30.7202
32.4633
34.2725
36.1488
38.0943
40.1101
42.1979
44.3589
46.5945
48.9058
51.2938
53.7595
56.3037
58.9272
61.6306
64.4143
67.2785
70.2235
73.2491
76.3552
79.5415
82.8073
86.1518
89.5742
93.0733
96.6476
100.296
104.015
107.805
111.662
115.584
119.569
123.613
127.712
131.865
136.065
140.311
144.597
148.919
153.271
157.648
162.045
166.455
170.871
175.286
179.692
184.082
188.447
192.781
197.08
201.347
205.597
209.865
214.163
218.395
222.573
226.688
230.734
234.704
238.591
242.391
246.095
249.699
253.195
256.577
259.841
262.98
265.989
268.863
271.596
274.185
276.624
278.909
281.037
283.004
284.806
286.441
287.907
289.202
290.324
291.272
292.044
292.645
293.07
293.297
293.337
293.203
292.921
292.477
291.846
291.049
290.085
288.959
287.673
286.232
284.64
282.901
281.02
279.002
276.853
274.577
272.181
269.671
267.053
264.334
261.519
258.616
255.632
252.572
249.446
246.258
243.018
239.734
236.418
233.09
229.83
226.995
224.674
222.472
220.29
218.109
215.929
213.751
211.579
209.415
207.258
205.11
202.956
200.835
198.657
194.995
1.43433
0.702664
0.554976
0.525702
0.536944
0.570517
0.620541
0.68483
0.763141
0.856568
0.966495
1.09428
1.24128
1.40879
1.59809
1.8105
2.04749
2.3109
2.60302
2.92684
3.28184
3.66739
4.08317
4.52869
5.00329
5.50634
6.0375
6.59734
7.18892
7.81649
8.47576
9.16672
9.89027
10.6472
11.4255
12.231
13.0718
13.9497
14.8663
15.8232
16.822
17.8642
18.9512
20.0846
21.2655
22.4952
23.7744
25.1037
26.4826
27.9126
29.3947
30.9299
32.5194
34.164
35.8647
37.6225
39.4383
41.3128
43.2469
45.2411
47.2959
49.4118
51.5894
53.8288
56.1305
58.4945
60.9208
63.4095
65.9603
68.5729
71.2469
73.9816
76.7764
79.6304
82.5425
85.5115
88.5362
91.6149
94.746
97.9275
101.157
104.434
107.753
111.114
114.513
117.947
121.413
124.907
128.426
131.965
135.521
139.089
142.664
146.242
149.819
153.39
156.952
160.501
164.038
167.564
171.083
174.596
178.089
181.54
184.947
188.303
191.604
194.844
198.017
201.119
204.144
207.087
209.943
212.708
215.375
217.941
220.402
222.752
224.989
227.107
229.104
230.975
232.718
234.33
235.808
237.151
238.355
239.419
240.343
241.124
241.763
242.258
242.607
242.795
242.841
242.75
242.524
242.162
241.654
241.009
240.229
239.315
238.272
237.101
235.808
234.395
232.866
231.225
229.476
227.625
225.676
223.634
221.503
219.29
216.999
214.636
212.206
209.715
207.168
204.572
201.933
199.258
196.555
193.84
191.158
188.631
186.3
184.047
181.821
179.607
177.404
175.214
173.042
170.891
168.77
166.694
164.677
162.799
161.066
159.345
2.2425
1.0081
0.772035
0.71583
0.718734
0.752762
0.809024
0.884612
0.979032
1.09291
1.22731
1.38335
1.562
1.76401
1.9899
2.24001
2.51463
2.81399
3.13827
3.48739
3.86068
4.2574
4.67703
5.11934
5.58448
6.07297
6.58578
7.12426
7.69001
8.28418
8.90673
9.55794
10.2378
10.946
11.6917
12.4758
13.2967
14.1554
15.0533
15.9916
16.9716
17.9934
19.0579
20.1658
21.3177
22.5137
23.7531
25.0375
26.3689
27.7484
29.177
30.6557
32.1854
33.7671
35.4016
37.0899
38.8329
40.6314
42.4862
44.3978
46.3669
48.3942
50.48
52.6249
54.8293
57.0935
59.4177
61.802
64.2465
66.7509
69.3151
71.9388
74.6214
77.3623
80.1607
83.0156
85.926
88.8906
91.9078
94.9761
98.0935
101.258
104.468
107.72
111.011
114.34
117.703
121.096
124.517
127.961
131.425
134.905
138.397
141.897
145.401
148.905
152.407
155.903
159.39
162.869
166.336
169.784
173.203
176.583
179.919
183.206
186.438
189.609
192.714
195.747
198.704
201.579
204.367
207.064
209.663
212.161
214.553
216.835
219.002
221.052
222.98
224.782
226.457
228
229.41
230.684
231.82
232.817
233.674
234.389
234.962
235.393
235.673
235.792
235.79
235.644
235.36
234.939
234.378
233.682
232.853
231.893
230.807
229.596
228.266
226.818
225.259
223.591
221.819
219.949
217.983
215.929
213.79
211.572
209.281
206.921
204.498
202.018
199.486
196.908
194.291
191.64
188.965
186.278
183.609
181.013
178.515
176.071
173.656
171.259
168.881
166.523
164.192
161.894
159.64
157.45
155.35
153.415
151.67
150.13
2.961
1.29943
0.997524
0.923574
0.922445
0.960075
1.02478
1.11248
1.22204
1.35359
1.5077
1.68494
1.88564
2.10986
2.35732
2.62752
2.91988
3.23378
3.56861
3.92387
4.29912
4.69418
5.10924
5.54485
6.00192
6.48168
6.98553
7.51497
8.07144
8.65621
9.27034
9.91496
10.5914
11.3012
12.0468
12.8292
13.6488
14.5064
15.4027
16.3383
17.3139
18.331
19.3904
20.4929
21.6394
22.8309
24.069
25.3544
26.6874
28.0689
29.5
30.9816
32.5149
34.1008
35.7405
37.4351
39.1855
40.9928
42.8583
44.7828
46.7668
48.8112
50.9167
53.0842
55.3142
57.6073
59.964
62.3848
64.8699
67.4195
70.0336
72.7122
75.455
78.2616
81.1315
84.0638
87.0578
90.1122
93.2258
96.3969
99.6239
102.905
106.237
109.619
113.047
116.519
120.031
123.581
127.164
130.777
134.415
138.076
141.755
145.446
149.147
152.853
156.56
160.263
163.958
167.641
171.303
174.94
178.543
182.106
185.622
189.085
192.489
195.828
199.095
202.286
205.394
208.413
211.338
214.163
216.884
219.494
221.99
224.366
226.618
228.742
230.735
232.592
234.31
235.886
237.319
238.605
239.742
240.73
241.566
242.251
242.782
243.16
243.369
243.429
243.348
243.113
242.731
242.202
241.527
240.708
239.75
238.655
237.426
236.068
234.584
232.98
231.258
229.425
227.485
225.443
223.304
221.074
218.758
216.363
213.893
211.355
208.754
206.097
203.39
200.638
197.848
195.026
192.182
189.327
186.48
183.672
180.92
178.209
175.526
172.868
170.234
167.629
165.059
162.534
160.067
157.681
155.407
153.315
151.423
149.709
3.55865
1.58148
1.22528
1.13716
1.13372
1.17523
1.24752
1.34524
1.46647
1.61071
1.77793
1.96812
2.18105
2.41624
2.67293
2.95025
3.24732
3.56338
3.89791
4.25063
4.62162
5.01127
5.42036
5.84995
6.30133
6.77597
7.27539
7.80113
8.35463
8.93728
9.5504
10.1953
10.8733
11.5858
12.3342
13.1193
13.9422
14.8036
15.7044
16.6456
17.6282
18.6531
19.7215
20.8342
21.9924
23.1971
24.4496
25.7507
27.1015
28.5032
29.9568
31.4638
33.0253
34.6426
36.3171
38.0501
39.8428
41.6964
43.6121
45.5911
47.6348
49.7447
51.9217
54.1671
56.4818
58.8669
61.3231
63.8512
66.4518
69.1255
71.8725
74.6931
77.5873
80.5549
83.5956
86.7086
89.8933
93.1486
96.4731
99.8653
103.323
106.845
110.429
114.071
117.769
121.52
125.319
129.165
133.052
136.976
140.933
144.918
148.927
152.954
156.994
161.043
165.094
169.141
173.18
177.203
181.203
185.172
189.105
192.992
196.827
200.604
204.314
207.952
211.511
214.983
218.362
221.641
224.815
227.877
230.821
233.641
236.332
238.889
241.307
243.582
245.708
247.683
249.503
251.164
252.665
254.001
255.173
256.178
257.014
257.682
258.182
258.505
258.645
258.633
258.455
258.11
257.602
256.933
256.106
255.122
253.986
252.702
251.274
249.707
248.004
246.172
244.215
242.139
239.949
237.652
235.253
232.758
230.174
227.506
224.763
221.949
219.071
216.136
213.151
210.122
207.057
203.961
200.844
197.716
194.591
191.491
188.426
185.395
182.394
179.421
176.48
173.575
170.715
167.911
165.178
162.539
160.028
157.704
155.573
153.553
4.03388
1.83873
1.44355
1.3449
1.33985
1.38423
1.46191
1.56637
1.69493
1.84644
2.02036
2.21622
2.43344
2.67125
2.92879
3.20516
3.4996
3.81156
4.14082
4.48748
4.85202
5.23522
5.63815
6.06209
6.50846
6.97876
7.4745
7.99718
8.54824
9.12907
9.74103
10.3854
11.0636
11.7768
12.5261
13.3128
14.1378
15.0024
15.9075
16.8542
17.8438
18.8773
19.956
21.0811
22.2538
23.4754
24.7473
26.0706
27.4468
28.8774
30.3639
31.9079
33.5109
35.1746
36.9005
38.6905
40.546
42.4688
44.4606
46.523
48.6577
50.8665
53.1509
55.5125
57.9527
60.4729
63.0743
65.7581
68.5254
71.3769
74.3133
77.3351
80.4426
83.6358
86.9146
90.2785
93.7266
97.2581
100.872
104.565
108.338
112.186
116.108
120.101
124.16
128.284
132.467
136.705
140.994
145.329
149.705
154.116
158.556
163.02
167.501
171.993
176.489
180.982
185.464
189.928
194.365
198.768
203.127
207.436
211.686
215.868
219.976
224.001
227.935
231.77
235.499
239.114
242.608
245.975
249.206
252.297
255.24
258.031
260.663
263.131
265.432
267.56
269.512
271.284
272.874
274.279
275.498
276.528
277.37
278.021
278.483
278.74
278.811
278.702
278.407
277.928
277.267
276.428
275.413
274.226
272.873
271.356
269.683
267.857
265.884
263.77
261.522
259.145
256.647
254.033
251.311
248.487
245.569
242.564
239.479
236.321
233.098
229.817
226.486
223.111
219.7
216.261
212.801
209.332
205.864
202.413
198.989
195.596
192.235
188.907
185.617
182.372
179.181
176.056
173.015
170.08
167.285
164.677
162.247
159.87
4.44814
2.07982
1.6499
1.5399
1.53156
1.57629
1.65625
1.76378
1.89541
2.04943
2.22486
2.42092
2.63687
2.8719
3.12524
3.39616
3.68417
3.989
4.31073
4.64976
5.0068
5.38283
5.779
6.19666
6.6372
7.10207
7.59276
8.11073
8.65743
9.23424
9.84255
10.4837
11.1591
11.8699
12.6173
13.4027
14.2273
15.0926
15.9999
16.9504
17.9455
18.9866
20.075
21.2124
22.4003
23.6402
24.9337
26.2823
27.688
29.1527
30.6782
32.2665
33.9197
35.6398
37.4288
39.2889
41.2222
43.2308
45.317
47.4829
49.7308
52.0627
54.4808
56.9871
59.5836
62.2721
65.0544
67.932
70.9064
73.9788
77.1502
80.4215
83.7931
87.2653
90.8381
94.5111
98.2837
102.155
106.123
110.186
114.343
118.589
122.924
127.342
131.841
136.416
141.062
145.774
150.547
155.376
160.253
165.172
170.127
175.111
180.115
185.132
190.153
195.171
200.177
205.16
210.113
215.025
219.887
224.69
229.425
234.082
238.653
243.127
247.497
251.753
255.887
259.889
263.752
267.468
271.029
274.428
277.658
280.713
283.587
286.273
288.767
291.065
293.162
295.055
296.74
298.216
299.481
300.532
301.37
301.994
302.4
302.581
302.56
302.33
301.892
301.25
300.405
299.362
298.125
296.698
295.087
293.297
291.334
289.204
286.915
284.473
281.885
279.158
276.3
273.318
270.221
267.015
263.711
260.314
256.835
253.28
249.658
245.978
242.246
238.472
234.663
230.828
226.974
223.111
219.251
215.405
211.583
207.792
204.036
200.318
196.646
193.027
189.472
185.993
182.609
179.343
176.223
173.292
170.523
167.763
5.32208
2.39638
1.86606
1.72491
1.70509
1.74486
1.82297
1.92978
2.06073
2.21348
2.38663
2.57922
2.79042
3.01951
3.26586
3.52901
3.80869
4.1049
4.41793
4.74833
5.09695
5.46482
5.85316
6.26325
6.69637
7.15375
7.63703
8.14772
8.68728
9.25715
9.85878
10.4936
11.1632
11.8691
12.6125
13.3946
14.2168
15.0807
15.9878
16.9397
17.9381
18.985
20.0823
21.2322
22.436
23.6957
25.013
26.3896
27.8281
29.3311
30.9011
32.5405
34.2519
36.0378
37.9007
39.8434
41.8685
43.9788
46.177
48.4659
50.8482
53.3266
55.904
58.5828
61.3655
64.2547
67.2524
70.3609
73.5818
76.917
80.3677
83.935
87.6197
91.4223
95.3428
99.3809
103.536
107.806
112.191
116.688
121.294
126.006
130.822
135.736
140.744
145.842
151.023
156.282
161.612
167.007
172.458
177.959
183.5
189.074
194.671
200.282
205.897
211.506
217.099
222.666
228.195
233.676
239.098
244.451
249.723
254.905
259.986
264.955
269.802
274.517
279.09
283.512
287.773
291.864
295.777
299.504
303.036
306.368
309.493
312.403
315.095
317.562
319.801
321.809
323.581
325.115
326.411
327.466
328.281
328.856
329.181
329.267
329.119
328.738
328.125
327.285
326.22
324.936
323.437
321.73
319.82
317.714
315.419
312.943
310.293
307.478
304.504
301.381
298.118
294.723
291.204
287.572
283.835
280.002
276.083
272.087
268.022
263.897
259.723
255.506
251.257
246.983
242.693
238.397
234.106
229.829
225.577
221.358
217.178
213.043
208.961
204.94
200.993
197.132
193.377
189.749
186.274
182.987
179.851
176.694
6.36827
2.73564
2.07525
1.89158
1.85441
1.88483
1.9575
2.06039
2.18772
2.33643
2.50477
2.69156
2.89599
3.11742
3.35537
3.60957
3.87995
4.16672
4.47026
4.79113
5.13014
5.48856
5.8677
6.269
6.69416
7.1444
7.62065
8.12424
8.6566
9.21921
9.81356
10.4412
11.1036
11.8023
12.5387
13.3147
14.132
14.9924
15.898
16.8508
17.8526
18.9055
20.0113
21.1723
22.391
23.6698
25.0115
26.4197
27.8959
29.4432
31.065
32.7644
34.5442
36.4078
38.3582
40.3988
42.5328
44.7637
47.0949
49.5298
52.0717
54.7242
57.4905
60.3738
63.3772
66.5038
69.7563
73.1372
76.6488
80.2932
84.0719
87.9865
92.0377
96.2262
100.552
105.014
109.613
114.346
119.212
124.207
129.33
134.576
139.94
145.419
151.006
156.695
162.481
168.355
174.31
180.337
186.428
192.574
198.765
204.99
211.24
217.502
223.766
230.02
236.252
242.45
248.602
254.695
260.718
266.657
272.502
278.239
283.858
289.346
294.692
299.884
304.912
309.765
314.432
318.904
323.172
327.226
331.058
334.66
338.026
341.149
344.023
346.643
349.004
351.104
352.938
354.505
355.804
356.833
357.592
358.082
358.297
358.248
357.936
357.363
356.535
355.457
354.131
352.563
350.761
348.729
346.477
344.012
341.342
338.475
335.421
332.188
328.786
325.225
321.514
317.663
313.683
309.583
305.374
301.066
296.668
292.192
287.647
283.043
278.389
273.695
268.971
264.225
259.468
254.707
249.954
245.218
240.511
235.84
231.213
226.638
222.124
217.68
213.319
209.054
204.904
200.891
197.037
193.37
189.845
186.284
7.38933
3.05297
2.26057
2.03174
1.97474
1.99325
2.05803
2.1547
2.27629
2.41909
2.58097
2.76061
2.95716
3.17005
3.39892
3.64351
3.90395
4.18078
4.47477
4.78712
5.11839
5.46917
5.8405
6.23353
6.64934
7.08897
7.55393
8.04598
8.56672
9.11774
9.70068
10.3172
10.9691
11.658
12.386
13.155
13.9674
14.825
15.7302
16.6851
17.6923
18.754
19.873
21.052
22.2941
23.6021
24.9787
26.4259
27.9477
29.5491
31.2346
33.0076
34.8719
36.831
38.8888
41.0493
43.3166
45.6948
48.188
50.8003
53.5359
56.3989
59.3933
62.5229
65.7915
69.2026
72.7594
76.4649
80.3218
84.3324
88.4985
92.8216
97.3026
101.942
106.74
111.695
116.806
122.072
127.489
133.055
138.766
144.616
150.601
156.714
162.949
169.299
175.755
182.31
188.952
195.674
202.464
209.311
216.204
223.132
230.081
237.038
243.992
250.929
257.834
264.694
271.496
278.225
284.868
291.41
297.839
304.142
310.304
316.313
322.156
327.82
333.295
338.567
343.626
348.461
353.062
357.419
361.524
365.369
368.945
372.247
375.269
378.004
380.449
382.601
384.456
386.012
387.269
388.226
388.884
389.243
389.303
389.07
388.543
387.732
386.641
385.276
383.64
381.742
379.588
377.186
374.546
371.675
368.585
365.284
361.782
358.09
354.219
350.18
345.982
341.639
337.159
332.556
327.84
323.023
318.115
313.128
308.072
302.959
297.799
292.601
287.376
282.133
276.882
271.634
266.397
261.183
256.001
250.861
245.771
240.74
235.778
230.896
226.105
221.421
216.86
212.444
208.192
204.129
200.203
196.236
8.34093
3.3349
2.41565
2.14226
2.06459
2.06991
2.12528
2.2142
2.32862
2.46428
2.61872
2.79042
2.97842
3.18245
3.40249
3.63901
3.89185
4.161
4.44681
4.7496
5.06992
5.40917
5.7686
6.14939
6.5528
6.98037
7.43385
7.91463
8.42431
8.96458
9.53726
10.1442
10.7875
11.4692
12.1914
12.9567
13.7673
14.6259
15.535
16.4976
17.5164
18.5944
19.7347
20.9408
22.2168
23.565
24.9879
26.4881
28.0736
29.7489
31.5185
33.3887
35.3634
37.4469
39.6437
41.9586
44.3964
46.9622
49.6607
52.4969
55.4757
58.6019
61.8801
65.3147
68.9101
72.6701
76.5985
80.6984
84.9728
89.4239
94.0536
98.8632
103.853
109.024
114.375
119.904
125.61
131.49
137.54
143.756
150.133
156.664
163.344
170.165
177.118
184.195
191.385
198.679
206.066
213.534
221.07
228.662
236.297
243.961
251.639
259.318
266.982
274.617
282.206
289.736
297.189
304.552
311.808
318.942
325.941
332.788
339.47
345.972
352.281
358.384
364.266
369.917
375.324
380.476
385.361
389.971
394.296
398.328
402.059
405.482
408.592
411.383
413.851
415.993
417.807
419.29
420.444
421.267
421.762
421.929
421.775
421.296
420.496
419.388
417.977
416.269
414.269
411.987
409.43
406.608
403.531
400.208
396.652
392.873
388.882
384.692
380.313
375.758
371.039
366.169
361.16
356.023
350.772
345.418
339.975
334.453
328.864
323.221
317.533
311.812
306.069
300.312
294.554
288.802
283.069
277.363
271.696
266.077
260.515
255.02
249.602
244.272
239.043
233.93
228.949
224.12
219.46
214.991
210.659
206.288
9.19949
3.57638
2.53921
2.22359
2.12473
2.11689
2.16192
2.24211
2.3484
2.4762
2.623
2.78762
2.96901
3.16626
3.3789
3.60648
3.84901
4.10724
4.38176
4.6733
4.98304
5.31189
5.6609
6.03129
6.42444
6.84187
7.28525
7.75626
8.25672
8.78855
9.35381
9.9547
10.5936
11.2729
11.9954
12.7636
13.5805
14.449
15.3725
16.3547
17.399
18.5086
19.6869
20.937
22.2606
23.6642
25.1542
26.7374
28.4187
30.2032
32.0966
34.1051
36.2346
38.4901
40.8774
43.402
46.0697
48.8863
51.8575
54.9889
58.286
61.7543
65.3987
69.2243
73.2356
77.4367
81.8313
86.4226
91.2133
96.2052
101.4
106.798
112.399
118.203
124.207
130.41
136.808
143.397
150.172
157.126
164.254
171.548
178.999
186.598
194.334
202.198
210.177
218.259
226.432
234.681
242.993
251.352
259.745
268.155
276.566
284.962
293.327
301.643
309.896
318.066
326.138
334.096
341.921
349.599
357.114
364.449
371.589
378.519
385.226
391.694
397.911
403.863
409.538
414.925
420.012
424.79
429.25
433.383
437.181
440.639
443.75
446.51
448.915
450.962
452.65
453.978
454.946
455.556
455.809
455.713
455.268
454.464
453.323
451.85
450.054
447.94
445.516
442.791
439.776
436.481
432.916
429.095
425.028
420.729
416.21
411.483
406.562
401.46
396.19
390.765
385.2
379.507
373.7
367.791
361.794
355.722
349.587
343.401
337.175
330.922
324.651
318.375
312.102
305.843
299.608
293.409
287.254
281.155
275.12
269.161
263.286
257.509
251.841
246.298
240.894
235.649
230.578
225.702
220.964
216.2
9.95445
3.7764
2.63223
2.27772
2.15814
2.13751
2.1719
2.24342
2.34284
2.46438
2.6048
2.762
2.93471
3.12268
3.32571
3.54386
3.77755
4.02705
4.29292
4.5759
4.87697
5.1972
5.53778
5.9001
6.28567
6.69618
7.13348
7.59951
8.09634
8.62621
9.19152
9.79488
10.4392
11.1276
11.8635
12.6497
13.4896
14.3867
15.3444
16.3654
17.4523
18.6116
19.8489
21.1699
22.5815
24.0886
25.6976
27.4152
29.2475
31.2012
33.2831
35.5009
37.8601
40.3677
43.0306
45.8558
48.8499
52.0194
55.3704
58.9092
62.6415
66.5729
70.7088
75.0538
79.6123
84.3881
89.3842
94.6032
100.047
105.715
111.61
117.729
124.072
130.636
137.417
144.411
151.613
159.018
166.617
174.403
182.367
190.5
198.79
207.226
215.797
224.489
233.288
242.181
251.153
260.187
269.269
278.382
287.509
296.632
305.736
314.801
323.81
332.746
341.59
350.325
358.933
367.396
375.698
383.82
391.747
399.462
406.95
414.195
421.182
427.897
434.327
440.458
446.278
451.776
456.941
461.763
466.234
470.345
474.089
477.461
480.455
483.068
485.296
487.137
488.591
489.656
490.338
490.634
490.553
490.105
489.264
488.058
486.494
484.581
482.326
479.736
476.822
473.593
470.062
466.239
462.138
457.771
453.152
448.293
443.21
437.915
432.423
426.748
420.904
414.906
408.768
402.505
396.129
389.656
383.099
376.472
369.786
363.056
356.293
349.508
342.714
335.92
329.138
322.378
315.649
308.963
302.33
295.759
289.261
282.846
276.524
270.307
264.209
258.242
252.423
246.768
241.292
236.014
230.879
225.737
10.5965
3.93337
2.69586
2.30725
2.169
2.13685
2.16293
2.2271
2.31832
2.43151
2.56368
2.71307
2.87872
3.05989
3.2563
3.46798
3.69523
3.93852
4.19854
4.47613
4.77233
5.08836
5.42561
5.78568
6.17035
6.5817
7.02225
7.49428
8.00003
8.54222
9.12376
9.74768
10.417
11.1342
11.9014
12.7245
13.6084
14.5581
15.5786
16.6758
17.8559
19.124
20.4866
21.9508
23.5241
25.2137
27.0267
28.9708
31.0538
33.2834
35.6675
38.2146
40.932
43.8281
46.9112
50.1896
53.6707
57.3607
61.2657
65.3914
69.7432
74.3259
79.144
84.2011
89.5002
95.0436
100.833
106.868
113.149
119.674
126.442
133.449
140.691
148.163
155.86
163.774
171.897
180.221
188.736
197.433
206.298
215.321
224.489
233.788
243.203
252.72
262.324
271.999
281.727
291.493
301.279
311.067
320.84
330.579
340.266
349.883
359.411
368.832
378.128
387.28
396.271
405.082
413.697
422.098
430.268
438.191
445.851
453.234
460.325
467.11
473.576
479.71
485.499
490.934
496.005
500.702
505.016
508.941
512.471
515.601
518.325
520.642
522.55
524.046
525.131
525.805
526.077
525.947
525.426
524.491
523.168
521.463
519.387
516.948
514.155
511.016
507.543
503.748
499.643
495.242
490.557
485.603
480.393
474.942
469.266
463.379
457.296
451.032
444.602
438.022
431.306
424.469
417.526
410.491
403.379
396.204
388.978
381.715
374.427
367.126
359.824
352.53
345.257
338.013
330.81
323.657
316.565
309.543
302.601
295.751
289.001
282.364
275.853
269.48
263.262
257.212
251.345
245.681
240.164
234.667
11.1747
4.0598
2.73743
2.31844
2.16399
2.12157
2.13745
2.19269
2.27678
2.38388
2.51069
2.65529
2.81654
2.9938
3.18687
3.39583
3.62113
3.86353
4.12427
4.40413
4.70436
5.0265
5.37233
5.7438
6.14298
6.57192
7.03217
7.52629
8.05852
8.63272
9.25287
9.92318
10.6482
11.4332
12.284
13.2055
14.2039
15.2856
16.4577
17.7279
19.1041
20.5941
22.2062
23.9492
25.8321
27.864
30.0537
32.4105
34.9434
37.6612
40.572
43.6822
47.0026
50.5429
54.3132
58.3254
62.5855
67.0962
71.8611
76.8834
82.1661
87.7115
93.521
99.5951
105.934
112.535
119.397
126.517
133.89
141.512
149.376
157.476
165.805
174.353
183.111
192.07
201.219
210.545
220.038
229.684
239.469
249.379
259.401
269.518
279.715
289.975
300.284
310.622
320.974
331.322
341.649
351.936
362.166
372.32
382.38
392.329
402.148
411.819
421.324
430.647
439.768
448.672
457.342
465.76
473.912
481.781
489.353
496.613
503.548
510.146
516.393
522.277
527.789
532.918
537.655
541.992
545.922
549.439
552.539
555.216
557.469
559.294
560.692
561.662
562.206
562.319
562.04
561.327
560.195
558.659
556.725
554.402
551.702
548.634
545.206
541.429
537.316
532.88
528.134
523.093
517.77
512.18
506.338
500.26
493.961
487.456
480.762
473.894
466.868
459.698
452.402
444.993
437.487
429.899
422.242
414.532
406.782
399.005
391.212
383.416
375.629
367.859
360.12
352.419
344.767
337.174
329.65
322.204
314.846
307.586
300.435
293.403
286.503
279.748
273.152
266.729
260.491
254.462
248.583
242.76
11.7051
4.16076
2.76039
2.31516
2.14691
2.09501
2.10469
2.15568
2.23685
2.3423
2.4688
2.61455
2.77829
2.95951
3.15816
3.37454
3.60919
3.8627
4.13526
4.42903
4.74625
5.0892
5.46041
5.86266
6.29912
6.77339
7.28994
7.85313
8.46738
9.13796
9.87076
10.6722
11.5494
12.5099
13.5619
14.7136
15.9737
17.3519
18.858
20.5025
22.2963
24.2501
26.3749
28.6818
31.1817
33.8852
36.8025
39.9438
43.3186
46.9354
50.8019
54.925
59.313
63.9732
68.9136
74.1425
79.6599
85.4632
91.5502
97.9186
104.565
111.487
118.679
126.136
133.851
141.819
150.03
158.477
167.15
176.041
185.14
194.434
203.915
213.57
223.387
233.354
243.458
253.687
264.026
274.463
284.982
295.569
306.21
316.889
327.591
338.3
349.001
359.678
370.314
380.893
391.399
401.815
412.124
422.31
432.357
442.248
451.966
461.495
470.819
479.921
488.787
497.4
505.745
513.807
521.572
529.025
536.153
542.943
549.383
555.463
561.17
566.494
571.425
575.956
580.079
583.786
587.071
589.932
592.365
594.362
595.93
597.06
597.757
598.02
597.857
597.281
596.257
594.821
592.973
590.721
588.072
585.039
581.632
577.861
573.733
569.263
564.464
559.349
553.933
548.23
542.254
536.022
529.547
522.847
515.937
508.833
501.551
494.106
486.515
478.792
470.955
463.017
454.994
446.901
438.751
430.559
422.339
414.102
405.862
397.629
389.414
381.227
373.079
364.979
356.936
348.96
341.06
333.246
325.525
317.909
310.406
303.028
295.787
288.694
281.764
275.009
268.441
262.083
255.88
249.776
12.166
4.2309
2.76744
2.30428
2.12809
2.07385
2.08409
2.13789
2.22378
2.33565
2.46987
2.62386
2.79749
2.99082
3.2043
3.43882
3.69568
3.97668
4.28449
4.62139
4.99051
5.39549
5.8405
6.33028
6.87025
7.46667
8.12657
8.85728
9.66657
10.5632
11.5569
12.6585
13.8794
15.2318
16.7281
18.3815
20.2052
22.2132
24.4198
26.8389
29.4838
32.3675
35.5023
38.9005
42.5724
46.5266
50.7707
55.3114
60.1551
65.3052
70.7626
76.528
82.6052
88.9939
95.6978
102.707
110.002
117.574
125.414
133.512
141.855
150.433
159.234
168.247
177.459
186.859
196.434
206.173
216.064
226.095
236.254
246.529
256.91
267.384
277.939
288.565
299.249
309.98
320.745
331.532
342.329