/*--------------------------------*- C++ -*----------------------------------*\
| =========                 |                                                 |
| \\      /  F ield         | OpenFOAM: The Open Source CFD Toolbox           |
|  \\    /   O peration     | Version:  2406                                  |
|   \\  /    A nd           | Website:  www.openfoam.com                      |
|    \\/     M anipulation  |                                                 |
\*---------------------------------------------------------------------------*/
FoamFile
{
    version     2.0;
    format      ascii;
    arch        "LSB;label=32;scalar=64";
    class       volScalarField;
    location    "281";
    object      k;
}
// * * * * * * * * * * * * * * * * * * * * * * * * * * * * * * * * * * * * * //

dimensions      [0 2 -2 0 0 0 0];

internalField   nonuniform List<scalar> 
12225
(
0.571355
0.987723
1.28114
1.45557
1.54166
1.57741
1.57632
1.56599
1.54775
1.52388
1.50049
1.47801
1.45794
1.43899
1.42336
1.40763
1.39698
1.38226
0.436368
0.496702
0.521953
0.534904
0.542887
0.547414
0.550241
0.552227
0.555993
0.559483
0.565525
0.571182
0.579496
0.586965
0.596701
0.605399
0.615178
0.625774
0.388596
0.417503
0.424145
0.421544
0.415
0.404966
0.393797
0.382813
0.371927
0.36243
0.353238
0.346114
0.338975
0.334343
0.329113
0.326702
0.323066
0.322349
0.377462
0.38452
0.388006
0.387472
0.385271
0.381193
0.375693
0.369564
0.363115
0.356562
0.350107
0.343801
0.33782
0.332059
0.326781
0.321672
0.317171
0.312713
0.37451
0.375403
0.37637
0.375959
0.37474
0.372522
0.369618
0.366137
0.362485
0.358469
0.354556
0.350368
0.34652
0.342381
0.338793
0.334817
0.331604
0.327844
0.373826
0.372561
0.371993
0.371088
0.36991
0.368266
0.36634
0.364031
0.36164
0.358967
0.356373
0.353536
0.350915
0.348046
0.34552
0.3427
0.340346
0.337625
0.373789
0.371731
0.37023
0.368833
0.367464
0.36594
0.364344
0.362552
0.360733
0.358749
0.356812
0.35473
0.352769
0.350664
0.348747
0.346671
0.34485
0.342829
0.373822
0.371564
0.36962
0.36786
0.36625
0.364663
0.363121
0.361521
0.359944
0.358297
0.356694
0.355025
0.353428
0.351768
0.350212
0.348587
0.347101
0.345522
0.373834
0.371554
0.369457
0.36751
0.365722
0.364025
0.362428
0.360861
0.359354
0.357851
0.3564
0.354942
0.35354
0.352129
0.350784
0.349424
0.348147
0.346841
0.373833
0.37156
0.369425
0.36741
0.365529
0.363752
0.362086
0.360492
0.35898
0.357515
0.356115
0.354747
0.353436
0.35215
0.350918
0.349705
0.348549
0.347403
0.37383
0.371561
0.369417
0.367384
0.365468
0.363652
0.361942
0.360316
0.358778
0.357309
0.355911
0.354569
0.353288
0.352053
0.350871
0.349728
0.348634
0.347573
0.373828
0.371559
0.369412
0.367375
0.365448
0.363619
0.361889
0.360247
0.35869
0.357209
0.355802
0.354459
0.35318
0.351957
0.350789
0.349669
0.348598
0.34757
0.373827
0.371557
0.369407
0.367369
0.365437
0.363603
0.361865
0.360213
0.358646
0.357156
0.355739
0.35439
0.353107
0.351883
0.350716
0.349601
0.348536
0.34752
0.373827
0.371555
0.369403
0.367362
0.365428
0.363591
0.361848
0.360192
0.358619
0.357123
0.3557
0.354345
0.353056
0.351828
0.350656
0.34954
0.348474
0.347458
0.373826
0.371553
0.369399
0.367357
0.36542
0.363581
0.361835
0.360176
0.358599
0.3571
0.355673
0.354314
0.353021
0.351788
0.350613
0.349493
0.348424
0.347405
0.373826
0.371552
0.369396
0.367352
0.365413
0.363572
0.361824
0.360163
0.358584
0.357081
0.355652
0.35429
0.352994
0.351758
0.35058
0.349457
0.348385
0.347363
0.373825
0.371551
0.369394
0.367349
0.365408
0.363566
0.361816
0.360152
0.358571
0.357067
0.355635
0.354271
0.352972
0.351735
0.350555
0.349429
0.348355
0.347331
0.373825
0.371551
0.369393
0.367347
0.365405
0.363561
0.36181
0.360145
0.358562
0.357056
0.355623
0.354258
0.352957
0.351718
0.350536
0.349409
0.348334
0.347308
0.373825
0.371551
0.369393
0.367347
0.365404
0.36356
0.361808
0.360143
0.358559
0.357052
0.355618
0.354252
0.35295
0.35171
0.350527
0.349399
0.348323
0.347296
0.373825
0.371551
0.369394
0.367348
0.365406
0.363562
0.361811
0.360146
0.358562
0.357056
0.355622
0.354256
0.352955
0.351715
0.350532
0.349405
0.348329
0.347302
0.373826
0.371552
0.369396
0.367351
0.36541
0.363567
0.361816
0.360152
0.35857
0.357065
0.355633
0.354268
0.352969
0.35173
0.35055
0.349423
0.348349
0.347323
0.373826
0.371553
0.369398
0.367355
0.365416
0.363575
0.361828
0.360168
0.358591
0.357091
0.355664
0.354306
0.353012
0.351779
0.350602
0.34948
0.348408
0.347383
0.373826
0.371555
0.369401
0.367363
0.365432
0.363605
0.361875
0.360237
0.358681
0.357203
0.355794
0.354451
0.353167
0.351939
0.350762
0.349635
0.348552
0.347513
0.373827
0.371555
0.369413
0.367418
0.365544
0.363793
0.362138
0.360572
0.359071
0.357632
0.35624
0.354896
0.353589
0.352323
0.35109
0.349894
0.348729
0.347601
0.373825
0.371565
0.369582
0.367846
0.366223
0.364711
0.363219
0.361754
0.360266
0.358787
0.357288
0.3558
0.354306
0.352833
0.351361
0.349924
0.348495
0.34711
0.373813
0.371945
0.370923
0.369984
0.368911
0.367769
0.366327
0.364737
0.362934
0.361062
0.35906
0.357054
0.354971
0.352925
0.350845
0.348825
0.346792
0.344839
0.374386
0.375097
0.377363
0.377613
0.37706
0.375839
0.373494
0.370865
0.367802
0.364686
0.361328
0.358027
0.354602
0.351291
0.347923
0.3447
0.341473
0.338414
0.379653
0.393541
0.402719
0.402409
0.400144
0.396078
0.390672
0.385167
0.379133
0.373302
0.367221
0.361475
0.355719
0.350305
0.345128
0.340198
0.335726
0.331324
0.405811
0.438978
0.451181
0.455812
0.459105
0.46226
0.46497
0.467227
0.46922
0.47084
0.472486
0.473922
0.47554
0.477066
0.479202
0.480825
0.483663
0.485376
0.479035
0.684949
0.865145
0.99081
1.09437
1.17584
1.23938
1.28342
1.31504
1.33208
1.34321
1.34355
1.34143
1.33632
1.32786
1.31776
1.30684
1.2954
0.00231999
0.00386057
0.00556661
0.00717196
0.00857447
0.00977212
0.0107928
0.0116665
0.0124218
0.0131276
0.0138271
0.0145284
0.0152522
0.0160151
0.0168252
0.0176823
0.0185835
0.0195323
0.0205587
0.021754
0.0232503
0.0250343
0.0270424
0.0292597
0.0317006
0.0343891
0.0373508
0.0406059
0.0441657
0.0480229
0.0521565
0.0565554
0.0612001
0.0660638
0.0711273
0.0763698
0.0817763
0.0873326
0.0930278
0.0988543
0.104808
0.11089
0.117105
0.123467
0.129997
0.13673
0.143715
0.151029
0.158481
0.16609
0.173847
0.181762
0.189833
0.198065
0.206458
0.215014
0.223735
0.232623
0.241676
0.250898
0.260286
0.269841
0.279562
0.289447
0.299494
0.309702
0.320066
0.330585
0.341252
0.352065
0.363017
0.374105
0.38532
0.396657
0.408109
0.419668
0.431324
0.443072
0.4549
0.466801
0.478762
0.490776
0.502829
0.514913
0.527013
0.53912
0.55122
0.563301
0.57535
0.587353
0.599295
0.611162
0.622935
0.634599
0.646133
0.657515
0.668724
0.679735
0.690523
0.701072
0.71138
0.721493
0.731437
0.741116
0.750569
0.75977
0.768716
0.777392
0.785788
0.793893
0.801696
0.809188
0.816357
0.823195
0.829692
0.83584
0.841631
0.847057
0.852112
0.85679
0.861084
0.864988
0.868498
0.87161
0.874321
0.876628
0.878531
0.880028
0.881118
0.881799
0.882064
0.881955
0.881496
0.880557
0.87917
0.877365
0.875261
0.872831
0.869951
0.866714
0.863109
0.859149
0.854842
0.850199
0.84523
0.839942
0.834346
0.828453
0.822274
0.815822
0.809109
0.802148
0.794951
0.787533
0.779907
0.772087
0.764087
0.755921
0.747605
0.739153
0.730581
0.721908
0.713159
0.704384
0.695786
0.689113
0.684989
0.681149
0.677301
0.67342
0.669506
0.665561
0.661582
0.657554
0.653447
0.649183
0.644609
0.639253
0.632231
0.607192
0.00573648
0.0089321
0.0126718
0.0157048
0.0182627
0.0205232
0.0225993
0.02457
0.0264952
0.0284211
0.0304126
0.0325383
0.0348404
0.0373383
0.0400343
0.0429212
0.0459908
0.049241
0.0526801
0.0563238
0.0601858
0.0642795
0.0686192
0.0732194
0.0781007
0.0832881
0.0888071
0.0946799
0.100921
0.107533
0.114506
0.121836
0.129518
0.137549
0.145926
0.154626
0.16364
0.172963
0.18259
0.192519
0.202746
0.213272
0.224094
0.235213
0.246631
0.258346
0.270358
0.282664
0.295249
0.308123
0.321289
0.334754
0.34852
0.362594
0.376979
0.391681
0.406702
0.422047
0.437719
0.453721
0.470057
0.486726
0.503731
0.521073
0.538751
0.556764
0.575111
0.593789
0.612795
0.632125
0.651773
0.671734
0.692
0.712565
0.733418
0.75455
0.775951
0.797608
0.819509
0.84164
0.863987
0.886534
0.909266
0.932163
0.955209
0.978384
1.00167
1.02504
1.04848
1.07197
1.09547
1.11897
1.14244
1.16585
1.18918
1.21238
1.23542
1.25828
1.28089
1.30321
1.32518
1.34671
1.36781
1.38861
1.40909
1.42922
1.44898
1.46835
1.48731
1.50583
1.52388
1.54146
1.55852
1.57506
1.59105
1.60648
1.62132
1.63555
1.64916
1.66213
1.67445
1.6861
1.69706
1.70733
1.71689
1.72574
1.73385
1.74124
1.74789
1.75379
1.75895
1.76337
1.76705
1.76997
1.77202
1.77319
1.77373
1.77372
1.77284
1.77123
1.76888
1.76581
1.76203
1.75755
1.75239
1.74656
1.74007
1.73295
1.72522
1.71688
1.70796
1.69848
1.68847
1.67794
1.66692
1.65543
1.64351
1.63116
1.61843
1.60534
1.59191
1.57817
1.56416
1.54992
1.53555
1.52141
1.50762
1.49377
1.47982
1.46579
1.4517
1.43758
1.42343
1.40926
1.39505
1.38077
1.36625
1.35138
1.3347
1.29924
0.00959717
0.0145906
0.0196653
0.0236222
0.0269727
0.0299994
0.0328656
0.0356823
0.0385357
0.0414975
0.044629
0.0479785
0.0515777
0.0554417
0.0595722
0.0639628
0.0686049
0.0734924
0.0786244
0.0840069
0.0896528
0.0955746
0.101785
0.1083
0.11514
0.122325
0.129877
0.137812
0.146145
0.15489
0.164065
0.173676
0.183729
0.194223
0.205154
0.216509
0.228281
0.240465
0.253055
0.266045
0.279429
0.293202
0.307358
0.321892
0.336801
0.352081
0.367729
0.383741
0.400116
0.416858
0.433971
0.451459
0.469326
0.487577
0.506215
0.525244
0.544668
0.564489
0.584711
0.605337
0.626366
0.647801
0.669642
0.691888
0.714538
0.73759
0.761041
0.784886
0.809121
0.833739
0.858735
0.884099
0.909823
0.935897
0.962309
0.989048
1.0161
1.04345
1.07108
1.09897
1.12712
1.15549
1.18407
1.21283
1.24176
1.27084
1.30002
1.3293
1.35865
1.38803
1.41742
1.44679
1.4761
1.50533
1.53444
1.5634
1.59218
1.62073
1.64902
1.67702
1.70471
1.73204
1.75902
1.78562
1.81181
1.83756
1.86284
1.88761
1.91185
1.93553
1.95861
1.98107
2.00287
2.024
2.04442
2.06411
2.08305
2.1012
2.11856
2.13509
2.15077
2.16559
2.17953
2.19258
2.20471
2.21592
2.22619
2.23552
2.2439
2.25133
2.25779
2.26329
2.26783
2.27138
2.27391
2.27532
2.27586
2.27559
2.27429
2.27204
2.26885
2.26473
2.25971
2.25379
2.247
2.23935
2.23087
2.22157
2.21148
2.20063
2.18903
2.17672
2.16373
2.15008
2.13581
2.12094
2.10551
2.08955
2.07309
2.05617
2.03883
2.02109
2.00301
1.98464
1.96606
1.94749
1.92901
1.91045
1.89179
1.87303
1.85421
1.83538
1.81655
1.79775
1.77901
1.76035
1.7417
1.72308
1.70309
1.67179
0.0129348
0.020521
0.0268803
0.0316876
0.0357436
0.0394293
0.0429545
0.0464569
0.0500388
0.0537808
0.0577456
0.0619781
0.0665057
0.0713395
0.0764783
0.0819132
0.0876338
0.093632
0.0999051
0.106457
0.113295
0.120434
0.127892
0.135694
0.143864
0.152432
0.161423
0.170863
0.180771
0.191165
0.202055
0.213445
0.225336
0.237719
0.250587
0.263937
0.277764
0.292061
0.306818
0.322029
0.337685
0.35378
0.370309
0.387265
0.404645
0.422447
0.440667
0.459305
0.478363
0.497843
0.517751
0.53809
0.558865
0.58008
0.601741
0.623851
0.646414
0.669434
0.692914
0.716857
0.741265
0.766139
0.791479
0.817286
0.843558
0.870293
0.897488
0.925139
0.953241
0.981787
1.01077
1.04018
1.07001
1.10025
1.13088
1.16189
1.19327
1.22499
1.25705
1.28942
1.32208
1.35501
1.38818
1.42158
1.45518
1.48894
1.52284
1.55686
1.59095
1.62509
1.65925
1.69339
1.72748
1.76147
1.79534
1.82905
1.86257
1.89584
1.92885
1.96156
1.99392
2.02592
2.0575
2.08864
2.1193
2.14943
2.17901
2.20799
2.23634
2.26401
2.29099
2.31722
2.34267
2.36732
2.39113
2.41408
2.43612
2.45724
2.4774
2.49658
2.51477
2.53193
2.54805
2.5631
2.57707
2.58995
2.60172
2.61238
2.62191
2.63031
2.63757
2.64369
2.64868
2.6525
2.65513
2.65647
2.65682
2.65609
2.65422
2.65122
2.64713
2.64194
2.6357
2.62841
2.6201
2.61079
2.6005
2.58927
2.57711
2.56406
2.55016
2.53542
2.51989
2.50359
2.48657
2.46887
2.45051
2.43154
2.41199
2.39191
2.37134
2.35033
2.32891
2.30716
2.28516
2.26306
2.24091
2.21866
2.19629
2.17385
2.15135
2.12886
2.10642
2.08408
2.0619
2.03996
2.01829
1.99699
1.97486
1.9457
0.0155731
0.0263877
0.0340922
0.039787
0.0445617
0.0488874
0.0530195
0.0571217
0.0613112
0.0656765
0.0702831
0.0751762
0.0803821
0.0859106
0.0917602
0.0979227
0.104389
0.111152
0.118213
0.125579
0.133264
0.141288
0.149677
0.158459
0.167664
0.177321
0.187456
0.198091
0.209243
0.220924
0.23314
0.245893
0.25918
0.272999
0.287344
0.30221
0.317591
0.333477
0.349864
0.366742
0.384107
0.401951
0.420271
0.439063
0.458324
0.478053
0.498249
0.518916
0.540056
0.561673
0.583771
0.606357
0.629435
0.65301
0.677089
0.701676
0.726776
0.752393
0.778533
0.805198
0.832391
0.860115
0.888371
0.917159
0.946479
0.976329
1.00671
1.03761
1.06903
1.10097
1.13341
1.16635
1.19977
1.23367
1.26803
1.30284
1.33807
1.37372
1.40975
1.44616
1.48291
1.51999
1.55736
1.595
1.63287
1.67096
1.70922
1.74762
1.78612
1.8247
1.86331
1.90191
1.94047
1.97894
2.01728
2.05546
2.09343
2.13115
2.16858
2.20567
2.24239
2.27869
2.31452
2.34984
2.3846
2.41877
2.4523
2.48514
2.51725
2.54859
2.57911
2.60879
2.63757
2.66542
2.69231
2.71819
2.74304
2.76683
2.78952
2.81108
2.83149
2.85072
2.86875
2.88556
2.90114
2.91546
2.9285
2.94027
2.95075
2.95993
2.96782
2.9744
2.97968
2.98365
2.98623
2.9874
2.98745
2.98621
2.98368
2.97989
2.97485
2.96858
2.96112
2.95247
2.94266
2.93173
2.9197
2.90661
2.89247
2.87734
2.86124
2.84421
2.82629
2.80752
2.78793
2.76758
2.7465
2.72474
2.70234
2.67935
2.65581
2.63178
2.6073
2.58245
2.55731
2.53199
2.50654
2.48096
2.45527
2.42949
2.40369
2.37791
2.35223
2.32673
2.3015
2.27666
2.25233
2.22863
2.20453
2.17574
0.0176072
0.0319227
0.0410388
0.0476489
0.0531457
0.0580907
0.0627833
0.0674107
0.0721044
0.0769612
0.0820514
0.0874237
0.093107
0.0991149
0.10545
0.112109
0.119089
0.126389
0.134016
0.141982
0.150306
0.159013
0.168131
0.177689
0.187714
0.198232
0.209267
0.220834
0.232948
0.245617
0.258846
0.272635
0.286983
0.301888
0.317346
0.333352
0.349901
0.366987
0.384605
0.402752
0.421421
0.440612
0.460321
0.480547
0.501291
0.522552
0.544334
0.56664
0.589474
0.612841
0.636747
0.661197
0.6862
0.71176
0.737885
0.764581
0.791855
0.819713
0.848159
0.8772
0.906838
0.937078
0.967922
0.999373
1.03143
1.06409
1.09736
1.13123
1.1657
1.20076
1.23641
1.27263
1.30941
1.34675
1.38462
1.42302
1.46192
1.5013
1.54115
1.58143
1.62212
1.6632
1.70463
1.74638
1.78842
1.83072
1.87323
1.91593
1.95876
2.00169
2.04467
2.08767
2.13063
2.17351
2.21627
2.25885
2.30121
2.3433
2.38507
2.42646
2.46744
2.50794
2.54791
2.58731
2.62608
2.66418
2.70155
2.73814
2.7739
2.8088
2.84277
2.87578
2.90777
2.93871
2.96856
2.99727
3.02481
3.05115
3.07624
3.10006
3.12258
3.14376
3.16359
3.18205
3.1991
3.21475
3.22896
3.24173
3.25305
3.26291
3.27131
3.27825
3.28373
3.28774
3.29019
3.29115
3.29078
3.28897
3.28574
3.28109
3.27506
3.26767
3.25894
3.24891
3.23759
3.22504
3.21126
3.19631
3.18022
3.16303
3.14477
3.12549
3.10524
3.08405
3.06197
3.03905
3.01533
2.99087
2.96571
2.93991
2.91352
2.88659
2.85918
2.83136
2.8032
2.7748
2.74623
2.7175
2.68865
2.65972
2.63078
2.6019
2.57316
2.54467
2.51655
2.48897
2.46208
2.43602
2.40988
2.38027
0.0191437
0.0370149
0.0474914
0.0549943
0.0611882
0.0667162
0.0719167
0.0769988
0.0821071
0.0873473
0.0927968
0.0985101
0.104523
0.110855
0.117518
0.124517
0.131855
0.13954
0.147583
0.156
0.164815
0.174051
0.183734
0.193892
0.204548
0.215725
0.227441
0.239709
0.252541
0.265943
0.27992
0.294473
0.309603
0.325309
0.341589
0.35844
0.37586
0.393846
0.412398
0.431512
0.451188
0.471426
0.492226
0.51359
0.53552
0.55802
0.581094
0.604747
0.628985
0.653815
0.679243
0.705279
0.731929
0.759203
0.787108
0.815653
0.844846
0.874694
0.905205
0.936385
0.968241
1.00078
1.034
1.06791
1.10251
1.1378
1.17378
1.21046
1.24782
1.28585
1.32457
1.36394
1.40397
1.44464
1.48593
1.52783
1.57032
1.61337
1.65696
1.70106
1.74565
1.79069
1.83616
1.882
1.9282
1.97469
2.02146
2.06844
2.1156
2.16289
2.21026
2.25765
2.30503
2.35233
2.3995
2.44649
2.49324
2.53969
2.58579
2.63148
2.6767
2.72138
2.76548
2.80894
2.85169
2.89368
2.93486
2.97517
3.01455
3.05295
3.09032
3.12661
3.16176
3.19573
3.22848
3.25996
3.29012
3.31894
3.34636
3.37236
3.39691
3.41997
3.44152
3.46153
3.47999
3.49687
3.51216
3.52584
3.53791
3.54837
3.5572
3.56442
3.57001
3.57398
3.57624
3.57692
3.57606
3.57362
3.56961
3.56405
3.55698
3.54841
3.53839
3.52693
3.51408
3.49987
3.48434
3.46752
3.44947
3.43021
3.40981
3.38829
3.36572
3.34214
3.3176
3.29215
3.26585
3.23874
3.21089
3.18234
3.15316
3.1234
3.09313
3.06241
3.03132
2.99995
2.96835
2.93658
2.90468
2.87271
2.84075
2.80887
2.77718
2.7458
2.71488
2.68461
2.65517
2.62671
2.59836
2.56715
0.0204252
0.04155
0.0532717
0.0615994
0.0684322
0.0744862
0.0801338
0.0856032
0.0910508
0.0965909
0.102309
0.108266
0.114507
0.12106
0.127946
0.135177
0.142767
0.150727
0.159074
0.167826
0.177005
0.186634
0.196737
0.207337
0.218454
0.230106
0.242309
0.255076
0.268414
0.282332
0.296835
0.311925
0.327605
0.343877
0.360741
0.378199
0.396251
0.414898
0.434141
0.453983
0.474424
0.495468
0.51712
0.539382
0.562261
0.585762
0.609892
0.634659
0.66007
0.686135
0.712863
0.740263
0.768347
0.797125
0.826606
0.856801
0.887721
0.919376
0.951774
0.984924
1.01884
1.05352
1.08897
1.1252
1.16222
1.20002
1.23861
1.27799
1.31814
1.35908
1.40079
1.44326
1.48647
1.53043
1.5751
1.62047
1.66652
1.71322
1.76055
1.80847
1.85696
1.90598
1.95548
2.00544
2.0558
2.10652
2.15756
2.20886
2.26037
2.31204
2.36382
2.41564
2.46745
2.51919
2.57079
2.6222
2.67334
2.72416
2.7746
2.82457
2.87402
2.92288
2.97108
3.01857
3.06528
3.11114
3.15609
3.20008
3.24303
3.28489
3.32561
3.36512
3.40337
3.44031
3.47589
3.51006
3.54278
3.57399
3.60367
3.63177
3.65826
3.68311
3.70629
3.72777
3.74753
3.76556
3.78183
3.79634
3.80907
3.82003
3.82921
3.8366
3.84223
3.84608
3.84808
3.84839
3.84697
3.84383
3.83898
3.83246
3.82428
3.8145
3.80313
3.79021
3.77579
3.7599
3.74259
3.7239
3.70387
3.68256
3.66001
3.63627
3.61141
3.58546
3.55849
3.53056
3.50171
3.47201
3.44151
3.41028
3.37838
3.34586
3.3128
3.27925
3.24531
3.21104
3.17651
3.1418
3.10695
3.07203
3.03713
3.00234
2.96778
2.93358
2.89992
2.86699
2.835
2.80406
2.77339
2.74039
0.0229974
0.0456904
0.058361
0.067355
0.0747165
0.0812117
0.087234
0.0930244
0.0987473
0.104524
0.110446
0.116582
0.122984
0.129689
0.136727
0.144118
0.15188
0.160032
0.16859
0.177576
0.187008
0.196909
0.207298
0.218196
0.22962
0.241585
0.254107
0.267195
0.28086
0.295108
0.309948
0.325384
0.341421
0.358065
0.375318
0.393186
0.411672
0.430781
0.450517
0.470887
0.491894
0.513547
0.53585
0.558814
0.582445
0.606752
0.631746
0.657437
0.683835
0.710951
0.738798
0.767389
0.796737
0.826854
0.857753
0.889448
0.921951
0.955275
0.989431
1.02443
1.06029
1.097
1.13459
1.17306
1.21242
1.25266
1.29379
1.33582
1.37873
1.42252
1.46719
1.51273
1.55912
1.60635
1.6544
1.70324
1.75286
1.80323
1.85431
1.90607
1.95848
2.01148
2.06506
2.11914
2.17369
2.22866
2.28399
2.33963
2.39551
2.45158
2.50777
2.56402
2.62027
2.67644
2.73246
2.78827
2.84379
2.89895
2.95367
3.00789
3.06153
3.11451
3.16677
3.21823
3.26882
3.31847
3.36713
3.4147
3.46114
3.50637
3.55034
3.59298
3.63422
3.67402
3.71232
3.74907
3.78422
3.81772
3.84953
3.87961
3.90793
3.93444
3.95913
3.98196
4.00291
4.02196
4.03911
4.05432
4.06761
4.07896
4.08837
4.09585
4.10141
4.10505
4.10672
4.10656
4.10451
4.10059
4.09484
4.08729
4.07796
4.06691
4.05415
4.03975
4.02373
4.00614
3.98704
3.96647
3.94448
3.92112
3.89644
3.87052
3.84339
3.81512
3.78577
3.7554
3.72407
3.69184
3.65878
3.62494
3.59039
3.5552
3.51942
3.48314
3.44643
3.40936
3.37202
3.33447
3.29677
3.25901
3.22127
3.18367
3.14632
3.10938
3.07303
3.03748
3.00292
2.96948
2.93639
2.90153
0.0259253
0.0492421
0.0626294
0.0721454
0.079927
0.0867765
0.0931014
0.0991506
0.105094
0.111057
0.117136
0.123406
0.129924
0.136735
0.143874
0.151369
0.159242
0.167514
0.176205
0.185334
0.19492
0.204982
0.215538
0.226606
0.238202
0.25034
0.263033
0.276293
0.290131
0.304555
0.319574
0.335197
0.351431
0.368285
0.385765
0.403879
0.422635
0.442042
0.462107
0.48284
0.50425
0.526347
0.549142
0.572647
0.596871
0.621829
0.647532
0.673996
0.701233
0.729258
0.758088
0.787737
0.818221
0.849558
0.881763
0.914851
0.948839
0.983742
1.01957
1.05635
1.09408
1.13278
1.17245
1.21311
1.25477
1.29743
1.34108
1.38574
1.4314
1.47806
1.5257
1.57431
1.62389
1.67441
1.72586
1.7782
1.83142
1.88547
1.94032
1.99595
2.05229
2.10931
2.16696
2.22519
2.28394
2.34316
2.40278
2.46274
2.52297
2.58341
2.64399
2.70462
2.76525
2.82579
2.88616
2.9463
3.0061
3.06551
3.12443
3.18279
3.2405
3.29748
3.35366
3.40896
3.4633
3.51661
3.5688
3.61982
3.66958
3.71802
3.76507
3.81065
3.85472
3.89721
3.93806
3.97721
4.01461
4.05022
4.08399
4.11588
4.14584
4.17386
4.19988
4.2239
4.24588
4.2658
4.28366
4.29944
4.31313
4.32474
4.33426
4.3417
4.34708
4.35039
4.35165
4.35092
4.34816
4.34339
4.33667
4.32802
4.3175
4.30513
4.29096
4.27504
4.25741
4.23813
4.21724
4.1948
4.17086
4.14549
4.11873
4.09066
4.06133
4.03081
3.99915
3.96643
3.9327
3.89804
3.8625
3.82616
3.78908
3.75132
3.71295
3.67405
3.6347
3.59496
3.55493
3.51467
3.47425
3.43378
3.39333
3.35303
3.31301
3.27342
3.23446
3.19633
3.15923
3.12327
3.08773
3.0508
0.0286343
0.0520782
0.0659962
0.0759107
0.0840145
0.0911377
0.0976971
0.103948
0.110063
0.11617
0.122368
0.128737
0.135337
0.142218
0.149419
0.156972
0.164902
0.173233
0.181985
0.191177
0.200829
0.210958
0.221579
0.232711
0.244366
0.25656
0.269304
0.282612
0.296495
0.310965
0.326034
0.341712
0.35801
0.37494
0.392513
0.41074
0.429634
0.449205
0.469468
0.490435
0.512119
0.534535
0.557696
0.581618
0.606316
0.631807
0.658109
0.685239
0.713214
0.742052
0.771773
0.802397
0.833942
0.86643
0.899879
0.934309
0.969737
1.00618
1.04366
1.08219
1.12178
1.16246
1.20422
1.24709
1.29106
1.33615
1.38236
1.42969
1.47813
1.52769
1.57834
1.63008
1.68289
1.73675
1.79163
1.84751
1.90435
1.96212
2.02077
2.08027
2.14056
2.2016
2.26332
2.32567
2.38859
2.45201
2.51587
2.58008
2.64459
2.70931
2.77417
2.83908
2.90396
2.96873
3.0333
3.0976
3.16152
3.22499
3.28791
3.35021
3.41178
3.47255
3.53242
3.59132
3.64917
3.70588
3.76137
3.81557
3.8684
3.91978
3.96965
4.01793
4.06456
4.10946
4.1526
4.19389
4.2333
4.27076
4.30624
4.33969
4.37107
4.40035
4.42749
4.45247
4.47527
4.49586
4.51424
4.5304
4.54432
4.55602
4.56549
4.57275
4.57781
4.58069
4.5814
4.58001
4.57643
4.57073
4.56297
4.55318
4.54141
4.5277
4.51209
4.49465
4.47541
4.45444
4.4318
4.40753
4.3817
4.35437
4.3256
4.29547
4.26402
4.23134
4.19748
4.16252
4.12652
4.08955
4.05168
4.01298
3.9735
3.93333
3.89253
3.85117
3.80933
3.76709
3.72453
3.68173
3.63877
3.59574
3.55273
3.50988
3.46732
3.42522
3.38375
3.34313
3.30355
3.26512
3.22715
3.1881
0.0310498
0.0541997
0.0684708
0.0786665
0.0869995
0.0943186
0.101047
0.107444
0.113683
0.119894
0.126178
0.132614
0.139265
0.146184
0.153412
0.160982
0.168925
0.177264
0.18602
0.195212
0.204858
0.214974
0.225576
0.236679
0.248297
0.260445
0.273137
0.286388
0.30021
0.31462
0.329632
0.345259
0.361517
0.378421
0.395985
0.414226
0.43316
0.452803
0.473173
0.494286
0.51616
0.538814
0.562264
0.58653
0.611633
0.637594
0.664436
0.69218
0.720847
0.75046
0.781044
0.812622
0.845218
0.878855
0.913556
0.949343
0.986237
1.02426
1.06343
1.10376
1.14528
1.18799
1.23191
1.27706
1.32344
1.37105
1.41989
1.46998
1.52129
1.57383
1.62758
1.68252
1.73863
1.79589
1.85426
1.91372
1.97422
2.03573
2.09819
2.16156
2.22578
2.29079
2.35653
2.42293
2.48992
2.55744
2.6254
2.69373
2.76235
2.83116
2.9001
2.96906
3.03796
3.10671
3.17522
3.2434
3.31114
3.37837
3.44497
3.51087
3.57596
3.64017
3.70338
3.76553
3.82652
3.88626
3.94468
4.00168
4.0572
4.11115
4.16346
4.21406
4.26287
4.30984
4.35489
4.39798
4.43904
4.47802
4.51488
4.54956
4.58205
4.61228
4.64025
4.66592
4.68926
4.71027
4.72893
4.74523
4.75918
4.77076
4.78
4.78691
4.79149
4.79379
4.79383
4.79169
4.78719
4.78047
4.77161
4.76062
4.74757
4.7325
4.71546
4.6965
4.67569
4.65307
4.62872
4.60269
4.57504
4.54585
4.51518
4.48309
4.44966
4.41495
4.37905
4.342
4.30389
4.26479
4.22476
4.18388
4.14221
4.09982
4.05678
4.01316
3.96905
3.92451
3.87964
3.83451
3.7892
3.74382
3.69846
3.65325
3.60833
3.56386
3.52004
3.47707
3.43511
3.39429
3.35398
3.31286
0.0331526
0.0556523
0.0701124
0.0804793
0.088952
0.0963909
0.103224
0.109711
0.116027
0.122302
0.128635
0.135107
0.141781
0.148711
0.155937
0.163496
0.171414
0.179716
0.188424
0.197557
0.207131
0.217164
0.227673
0.238672
0.250177
0.262202
0.274762
0.287873
0.301556
0.315828
0.330707
0.346211
0.362359
0.37917
0.396665
0.414864
0.433788
0.453457
0.473894
0.495121
0.517161
0.540036
0.563766
0.588371
0.613876
0.64031
0.667703
0.696081
0.725472
0.755906
0.78741
0.820011
0.853739
0.888619
0.924676
0.961934
1.00042
1.04015
1.08115
1.12343
1.16703
1.21194
1.25818
1.30577
1.35471
1.40501
1.45665
1.50965
1.56398
1.61964
1.6766
1.73485
1.79436
1.8551
1.91702
1.9801
2.04428
2.10952
2.17576
2.24294
2.311
2.37987
2.44949
2.51978
2.59067
2.66206
2.73389
2.80606
2.87849
2.95109
3.02376
3.09641
3.16895
3.24128
3.3133
3.38491
3.45603
3.52654
3.59635
3.66536
3.73348
3.80061
3.86665
3.93153
3.99513
4.05739
4.11821
4.1775
4.23519
4.2912
4.34545
4.39786
4.44837
4.49691
4.54341
4.58782
4.63008
4.67014
4.70795
4.74347
4.77666
4.80748
4.83591
4.86192
4.88549
4.9066
4.92525
4.94143
4.95514
4.96639
4.97518
4.98153
4.98548
4.98704
4.98631
4.98326
4.97774
4.96994
4.95992
4.94771
4.93336
4.91693
4.89847
4.87804
4.8557
4.83151
4.80553
4.77784
4.7485
4.71758
4.68514
4.65126
4.61602
4.57947
4.54171
4.50278
4.46278
4.42177
4.37981
4.33699
4.29336
4.249
4.20397
4.15836
4.11222
4.06565
4.01872
3.97152
3.92413
3.87664
3.82917
3.78184
3.73478
3.68817
3.64218
3.59702
3.55285
3.5098
3.46729
3.42423
0.0349492
0.0565061
0.0710048
0.0814404
0.0899681
0.0974533
0.104326
0.110847
0.117192
0.123491
0.129842
0.136323
0.142996
0.149911
0.157107
0.164618
0.172473
0.180696
0.189309
0.198331
0.207781
0.217678
0.228038
0.238881
0.250227
0.262102
0.274513
0.287477
0.301012
0.31514
0.329881
0.345259
0.361295
0.378014
0.395441
0.4136
0.432518
0.452218
0.472732
0.494088
0.516314
0.539436
0.56348
0.588477
0.614463
0.641472
0.669533
0.698681
0.728948
0.760368
0.792974
0.826801
0.861878
0.898232
0.93589
0.974877
1.01522
1.05693
1.10004
1.14456
1.19052
1.23791
1.28677
1.33708
1.38885
1.44208
1.49677
1.5529
1.61045
1.66941
1.72975
1.79144
1.85445
1.91873
1.98424
2.05093
2.11875
2.18764
2.25754
2.32838
2.40009
2.47259
2.54582
2.61969
2.69411
2.76901
2.84429
2.91985
2.99561
3.07148
3.14735
3.22313
3.29872
3.37402
3.44892
3.52333
3.59715
3.67028
3.74261
3.81405
3.8845
3.95386
4.02203
4.08893
4.15445
4.21853
4.28105
4.34195
4.40114
4.45854
4.51407
4.56765
4.61923
4.66873
4.71608
4.76124
4.80414
4.84474
4.88298
4.91883
4.95225
4.98321
5.01167
5.03762
5.06103
5.08189
5.1002
5.11595
5.12914
5.13978
5.1479
5.15349
5.15661
5.15728
5.15569
5.15156
5.14495
5.13602
5.1248
5.11135
5.09572
5.07796
5.05813
5.0363
5.01252
4.98687
4.9594
4.9302
4.89932
4.86685
4.83284
4.79739
4.76055
4.7224
4.68302
4.64248
4.60085
4.5582
4.51461
4.47014
4.42485
4.37882
4.33212
4.28482
4.23698
4.18869
4.14002
4.09106
4.04189
3.99261
3.94333
3.89415
3.84524
3.79674
3.74884
3.70173
3.65556
3.61048
3.56595
3.52117
0.0364438
0.0568058
0.07121
0.0816281
0.0901384
0.0976044
0.10446
0.110967
0.117298
0.123582
0.129914
0.13637
0.143012
0.149891
0.157042
0.164496
0.172282
0.180422
0.18894
0.197853
0.207183
0.216948
0.227166
0.237856
0.249035
0.260717
0.272921
0.285678
0.299015
0.312958
0.327535
0.342774
0.358705
0.375361
0.392771
0.410967
0.429981
0.449847
0.470596
0.492263
0.514892
0.538505
0.563129
0.588787
0.615518
0.643374
0.672398
0.702631
0.734111
0.766876
0.800967
0.836429
0.873283
0.911556
0.951274
0.99246
1.03513
1.07931
1.12501
1.17224
1.22102
1.27135
1.32324
1.37669
1.43168
1.48821
1.54625
1.6058
1.66681
1.72927
1.79313
1.85836
1.9249
1.99271
2.06174
2.13192
2.2032
2.27551
2.34878
2.42293
2.49789
2.57358
2.64992
2.72682
2.80419
2.88194
2.95999
3.03824
3.11659
3.19494
3.27321
3.35128
3.42906
3.50645
3.58334
3.65965
3.73526
3.81008
3.884
3.95694
4.02878
4.09944
4.16882
4.23683
4.30337
4.36836
4.43172
4.49336
4.55319
4.61115
4.66715
4.72112
4.773
4.82271
4.8702
4.91541
4.95829
4.99879
5.03686
5.07246
5.10556
5.13613
5.16413
5.18955
5.21238
5.2326
5.2502
5.26518
5.27755
5.28732
5.29451
5.29914
5.30124
5.30093
5.29832
5.29299
5.28525
5.27514
5.26273
5.24805
5.23118
5.21216
5.19106
5.16794
5.14287
5.11592
5.08715
5.05663
5.02444
4.99066
4.95534
4.91857
4.88043
4.84098
4.8003
4.75846
4.71554
4.6716
4.62672
4.58095
4.53438
4.48705
4.43905
4.39043
4.34127
4.29164
4.24161
4.19126
4.14069
4.08997
4.03923
3.98856
3.93812
3.88806
3.83854
3.78976
3.74186
3.69502
3.64873
3.60249
0.0377636
0.0567641
0.0710132
0.0813526
0.0897891
0.097186
0.103978
0.110426
0.116703
0.122937
0.12922
0.135626
0.14221
0.149016
0.156081
0.163434
0.171102
0.179104
0.187466
0.196211
0.205359
0.214932
0.224953
0.235444
0.24643
0.257939
0.270001
0.282643
0.295894
0.309786
0.324353
0.339629
0.355651
0.372461
0.390104
0.408619
0.428038
0.4484
0.469741
0.492091
0.515459
0.539903
0.565491
0.592291
0.620353
0.649714
0.680411
0.712485
0.745975
0.780917
0.817339
0.855264
0.894729
0.935764
0.978405
1.02266
1.06852
1.11601
1.16512
1.21587
1.26824
1.32223
1.37783
1.43502
1.49378
1.55409
1.61591
1.6792
1.74393
1.81006
1.87753
1.94629
2.01628
2.08746
2.15975
2.23308
2.3074
2.38263
2.45869
2.53551
2.61301
2.6911
2.76971
2.84874
2.92811
3.00774
3.08752
3.16737
3.24719
3.32689
3.40638
3.48555
3.56432
3.64258
3.72024
3.7972
3.87336
3.94863
4.02292
4.09612
4.16814
4.2389
4.30829
4.37624
4.44265
4.50743
4.57051
4.6318
4.69123
4.74872
4.8042
4.85759
4.90883
4.95785
5.00461
5.04904
5.0911
5.13074
5.1679
5.20257
5.2347
5.26426
5.29123
5.31559
5.33734
5.35644
5.37291
5.38675
5.39795
5.40654
5.41252
5.41593
5.41682
5.41546
5.41155
5.40499
5.39603
5.38472
5.37111
5.35524
5.33719
5.317
5.29474
5.27048
5.24428
5.21622
5.18635
5.15476
5.12151
5.08669
5.05035
5.01258
4.97345
4.93304
4.89141
4.84864
4.8048
4.75995
4.71417
4.66752
4.62006
4.57184
4.52295
4.47343
4.42336
4.3728
4.32182
4.2705
4.21892
4.16717
4.11534
4.06356
4.01196
3.96068
3.90988
3.85975
3.81043
3.76211
3.71433
3.66695
0.0389577
0.0565337
0.0704693
0.0806201
0.0888898
0.0961327
0.102785
0.109106
0.115271
0.121402
0.127587
0.133896
0.140379
0.147078
0.154029
0.161262
0.168807
0.176692
0.18494
0.193573
0.202617
0.212098
0.222044
0.232485
0.243452
0.254978
0.267098