/*--------------------------------*- C++ -*----------------------------------*\
| =========                 |                                                 |
| \\      /  F ield         | OpenFOAM: The Open Source CFD Toolbox           |
|  \\    /   O peration     | Version:  2406                                  |
|   \\  /    A nd           | Website:  www.openfoam.com                      |
|    \\/     M anipulation  |                                                 |
\*---------------------------------------------------------------------------*/
FoamFile
{
    version     2.0;
    format      ascii;
    arch        "LSB;label=32;scalar=64";
    class       volScalarField;
    location    "281";
    object      nut;
}
// * * * * * * * * * * * * * * * * * * * * * * * * * * * * * * * * * * * * * //

dimensions      [0 2 -1 0 0 0 0];

internalField   nonuniform List<scalar> 
12225
(
2.70507e-05
3.5584e-05
4.05203e-05
4.31919e-05
4.44508e-05
4.4963e-05
4.49759e-05
4.47472e-05
4.45657e-05
4.4201e-05
4.38553e-05
4.35241e-05
4.32273e-05
4.29454e-05
4.27115e-05
4.24753e-05
4.23129e-05
4.20927e-05
0.000216418
8.45158e-05
5.58945e-05
4.40579e-05
3.83784e-05
3.53504e-05
3.38603e-05
3.30682e-05
3.28556e-05
3.28779e-05
3.32152e-05
3.36056e-05
3.42283e-05
3.48019e-05
3.55799e-05
3.62463e-05
3.70657e-05
3.77744e-05
0.000573251
0.00031164
0.000194369
0.000142164
0.000113216
9.44933e-05
8.20291e-05
7.33123e-05
6.67998e-05
6.19626e-05
5.80404e-05
5.5113e-05
5.25309e-05
5.0712e-05
4.89092e-05
4.77822e-05
4.66469e-05
4.52998e-05
0.000751695
0.000624911
0.000451569
0.000351001
0.000289062
0.000246568
0.000216699
0.000194295
0.000177764
0.000164289
0.000154046
0.000145063
0.000138201
0.000131713
0.000126906
0.000121889
0.000118424
0.000113669
0.000825685
0.000787937
0.000687197
0.000591599
0.000517093
0.000458117
0.000413491
0.000377229
0.000349674
0.000325963
0.000307901
0.000291298
0.000278924
0.000266585
0.000257885
0.000248261
0.000241889
0.000233838
0.000847344
0.000838162
0.000802523
0.000753211
0.000699337
0.000648238
0.000604837
0.000565863
0.000534207
0.000505359
0.000482494
0.00046072
0.000444085
0.000427078
0.000414959
0.000401179
0.000392299
0.000380437
0.00085136
0.000849321
0.000839117
0.000823757
0.000798276
0.000768412
0.000739174
0.00070955
0.000683358
0.000657722
0.000636207
0.000614796
0.000597705
0.000579787
0.000566527
0.000551236
0.000541217
0.000527112
0.000851688
0.000851471
0.000849544
0.000844613
0.000835855
0.000824557
0.000810184
0.000793464
0.000777243
0.000760012
0.000744559
0.000728288
0.000714566
0.000699764
0.000688168
0.000674781
0.000665339
0.000652404
0.000851749
0.000851443
0.000851043
0.000849885
0.000847535
0.000843618
0.000838594
0.000831271
0.000823649
0.000814989
0.000806297
0.00079655
0.000787794
0.000778067
0.000769838
0.00076052
0.00075301
0.000743793
0.000851786
0.000851366
0.000851069
0.000850609
0.000850033
0.000848808
0.000847331
0.000844857
0.000841997
0.000838303
0.000834501
0.000829862
0.000825421
0.000820271
0.000815566
0.000810281
0.000805546
0.000799748
0.000851794
0.000851356
0.000851021
0.000850624
0.000850325
0.000849824
0.000849338
0.000848517
0.000847604
0.00084626
0.000844872
0.000843007
0.0008412
0.000838881
0.000836816
0.000834102
0.000832039
0.000828842
0.000851792
0.000851359
0.000851001
0.000850611
0.000850306
0.000849938
0.000849631
0.00084921
0.000848815
0.000848233
0.000847676
0.000846875
0.000846137
0.000845092
0.000844212
0.000842914
0.000841974
0.000840423
0.000851787
0.000851362
0.000850989
0.000850608
0.00085028
0.000849936
0.000849644
0.000849319
0.00084904
0.000848697
0.000848398
0.000848001
0.000847658
0.000847179
0.000846786
0.00084621
0.000845771
0.0008451
0.000851783
0.000851364
0.00085098
0.000850605
0.000850263
0.000849925
0.000849622
0.000849315
0.000849043
0.000848758
0.000848506
0.000848232
0.00084799
0.000847714
0.000847472
0.000847185
0.000846936
0.000846635
0.000851781
0.000851364
0.000850974
0.0008506
0.000850251
0.000849916
0.000849602
0.0008493
0.000849018
0.000848744
0.000848488
0.000848238
0.000848004
0.000847773
0.000847556
0.00084734
0.000847136
0.000846932
0.00085178
0.000851363
0.00085097
0.000850596
0.000850242
0.000849906
0.000849588
0.000849285
0.000848998
0.000848724
0.000848463
0.000848213
0.000847976
0.000847748
0.000847531
0.000847322
0.000847123
0.000846931
0.000851779
0.000851362
0.000850967
0.000850592
0.000850236
0.000849899
0.000849578
0.000849273
0.000848984
0.000848707
0.000848444
0.000848192
0.000847952
0.000847722
0.000847502
0.000847292
0.00084709
0.000846898
0.000851779
0.000851362
0.000850965
0.000850589
0.000850233
0.000849894
0.000849572
0.000849265
0.000848974
0.000848695
0.00084843
0.000848177
0.000847934
0.000847703
0.000847481
0.000847269
0.000847066
0.000846871
0.000851779
0.000851362
0.000850965
0.000850589
0.000850232
0.000849892
0.00084957
0.000849262
0.00084897
0.000848691
0.000848424
0.00084817
0.000847927
0.000847694
0.000847471
0.000847258
0.000847054
0.000846858
0.000851779
0.000851362
0.000850966
0.000850591
0.000850234
0.000849895
0.000849573
0.000849266
0.000848973
0.000848695
0.000848428
0.000848174
0.00084793
0.000847697
0.000847473
0.000847259
0.000847052
0.000846855
0.000851779
0.000851364
0.000850968
0.000850595
0.000850238
0.000849902
0.000849578
0.000849274
0.000848979
0.0008487
0.000848427
0.000848168
0.00084791
0.000847667
0.00084742
0.000847187
0.000846947
0.000846723
0.000851776
0.000851369
0.000850969
0.000850603
0.000850243
0.00084991
0.000849573
0.000849254
0.000848916
0.000848587
0.000848223
0.000847865
0.000847456
0.00084706
0.000846596
0.00084616
0.000845637
0.00084517
0.000851766
0.000851388
0.000850969
0.000850624
0.000850209
0.000849789
0.000849234
0.000848616
0.000847803
0.000846896
0.000845768
0.00084456
0.000843125
0.000841663
0.000839961
0.00083833
0.000836387
0.000834699
0.000851746
0.000851484
0.00085091
0.000850388
0.000849138
0.000847445
0.000844951
0.000841942
0.000838073
0.000833848
0.000828961
0.000823928
0.000818453
0.000813001
0.000807324
0.000801604
0.00079592
0.000790797
0.000851902
0.000851484
0.000848989
0.000845043
0.000837097
0.00082746
0.000815895
0.000802854
0.00078838
0.00077437
0.000759663
0.000746077
0.000732119
0.000719683
0.00070682
0.00069584
0.000684088
0.000674695
0.000852286
0.000845091
0.000826114
0.00080337
0.000769312
0.000735477
0.000700809
0.000669707
0.000639499
0.000613594
0.000588613
0.000567745
0.000547316
0.000530659
0.000513866
0.00050061
0.000486568
0.000476068
0.000832326
0.000795026
0.000710426
0.000628093
0.000558113
0.000503168
0.000455763
0.000418871
0.000386625
0.000361594
0.000338764
0.000321228
0.000304415
0.000291772
0.000278912
0.000269549
0.00025937
0.000252305
0.000733649
0.000543779
0.000397994
0.000313132
0.000257946
0.000219673
0.000190514
0.000169567
0.000152553
0.000139992
0.000129095
0.000121018
0.000113528
0.000108076
0.000102634
9.88117e-05
9.46879e-05
9.19152e-05
0.000325677
0.000164837
0.000111413
8.60789e-05
7.08262e-05
6.13549e-05
5.50186e-05
5.08857e-05
4.79533e-05
4.60099e-05
4.45906e-05
4.36882e-05
4.30394e-05
4.2695e-05
4.24553e-05
4.24393e-05
4.24359e-05
4.26225e-05
3.2663e-05
3.90563e-05
4.3892e-05
4.69717e-05
4.93653e-05
5.11698e-05
5.25342e-05
5.34594e-05
5.4114e-05
5.44634e-05
5.46906e-05
5.46974e-05
5.46544e-05
5.455e-05
5.43772e-05
5.41699e-05
5.3945e-05
5.37084e-05
2.83892e-06
7.82246e-06
9.39182e-06
1.06592e-05
1.16533e-05
1.24384e-05
1.30693e-05
1.35852e-05
1.4015e-05
1.4401e-05
1.47738e-05
1.51377e-05
1.55036e-05
1.58797e-05
1.62695e-05
1.66719e-05
1.70844e-05
1.75071e-05
1.79499e-05
1.84455e-05
1.90478e-05
1.97506e-05
2.05166e-05
2.13311e-05
2.21927e-05
2.31039e-05
2.40671e-05
2.50827e-05
2.61484e-05
2.72569e-05
2.83962e-05
2.95595e-05
3.07393e-05
3.19267e-05
3.31162e-05
3.43027e-05
3.54828e-05
3.66541e-05
3.78148e-05
3.89642e-05
4.01024e-05
4.12301e-05
4.2349e-05
4.34619e-05
4.45727e-05
4.56869e-05
4.68122e-05
4.79593e-05
4.91022e-05
5.02376e-05
5.13677e-05
5.24927e-05
5.36131e-05
5.47295e-05
5.58422e-05
5.69515e-05
5.80578e-05
5.91612e-05
6.02618e-05
6.13599e-05
6.24553e-05
6.35481e-05
6.4638e-05
6.57252e-05
6.68092e-05
6.789e-05
6.89672e-05
7.00406e-05
7.11096e-05
7.21741e-05
7.32336e-05
7.42876e-05
7.53357e-05
7.63774e-05
7.74121e-05
7.84394e-05
7.94587e-05
8.04695e-05
8.14711e-05
8.2463e-05
8.34446e-05
8.44153e-05
8.53745e-05
8.63217e-05
8.7256e-05
8.81771e-05
8.90842e-05
8.99767e-05
9.08539e-05
9.17153e-05
9.25601e-05
9.33875e-05
9.41968e-05
9.49871e-05
9.57575e-05
9.65069e-05
9.72341e-05
9.79379e-05
9.86172e-05
9.92712e-05
9.99004e-05
0.000100508
0.000101098
0.000101662
0.000102204
0.000102723
0.000103219
0.000103692
0.00010414
0.000104565
0.000104965
0.00010534
0.00010569
0.000106015
0.000106314
0.000106587
0.000106835
0.000107056
0.000107251
0.00010742
0.000107563
0.000107679
0.000107768
0.000107831
0.000107868
0.000107878
0.000107861
0.000107819
0.00010775
0.000107655
0.000107534
0.000107389
0.000107222
0.000107025
0.000106801
0.000106549
0.000106278
0.000105988
0.000105669
0.000105329
0.000104965
0.000104578
0.00010417
0.00010374
0.00010329
0.000102819
0.000102329
0.000101819
0.00010129
0.000100743
0.000100179
9.95975e-05
9.89998e-05
9.83865e-05
9.77583e-05
9.71159e-05
9.64601e-05
9.57915e-05
9.51109e-05
9.44191e-05
9.3717e-05
9.30055e-05
9.22861e-05
9.15614e-05
9.08408e-05
9.02187e-05
8.97849e-05
8.93756e-05
8.8965e-05
8.85508e-05
8.81328e-05
8.77112e-05
8.72856e-05
8.6855e-05
8.64172e-05
8.5967e-05
8.54942e-05
8.49676e-05
8.4328e-05
8.24686e-05
4.46372e-06
1.82929e-05
4.05428e-05
5.98888e-05
7.40894e-05
8.41012e-05
9.11931e-05
9.62544e-05
9.98152e-05
0.000102176
0.00010389
0.000105532
0.00010733
0.000109312
0.000111415
0.000113545
0.00011562
0.000117585
0.00011943
0.00012121
0.000122736
0.000124068
0.000125375
0.000126765
0.000128312
0.000130088
0.000132175
0.000134682
0.000137758
0.000141505
0.000145699
0.000150323
0.000155354
0.000160788
0.000166598
0.000172743
0.000179216
0.000185981
0.000193002
0.000200244
0.000207674
0.000215254
0.000222952
0.000230733
0.000238569
0.000246433
0.000254309
0.000262203
0.000270152
0.000278141
0.000286181
0.000294271
0.000302416
0.000310616
0.000318877
0.000327202
0.000335594
0.000344056
0.000352593
0.000361207
0.000369903
0.000378682
0.000387547
0.0003965
0.000405543
0.000414676
0.000423901
0.000433216
0.000442623
0.000452121
0.000461708
0.000471382
0.000481141
0.000490983
0.000500904
0.000510902
0.000520971
0.000531108
0.000541307
0.000551565
0.000561874
0.000572231
0.000582628
0.00059306
0.00060352
0.000614001
0.000624498
0.000635004
0.000645512
0.000656016
0.000666512
0.000676991
0.00068745
0.000697882
0.000708279
0.000718634
0.000728931
0.000739147
0.000749244
0.000759149
0.000768731
0.000777769
0.000786227
0.000794628
0.000802874
0.000810986
0.000818952
0.00082677
0.000834431
0.000841931
0.000849264
0.000856423
0.000863404
0.0008702
0.000876808
0.000883221
0.000889435
0.000895446
0.000901249
0.00090684
0.000912216
0.000917373
0.000922307
0.000927015
0.000931494
0.000935741
0.000939754
0.000943533
0.000947077
0.000950385
0.000953459
0.000956288
0.00095889
0.000961322
0.000963415
0.000965127
0.00096665
0.000968101
0.000969238
0.000970119
0.000970762
0.000971166
0.000971335
0.00097127
0.000970974
0.000970452
0.000969707
0.000968744
0.000967565
0.000966176
0.000964581
0.000962785
0.000960792
0.00095861
0.000956243
0.000953697
0.00095098
0.000948096
0.000945053
0.000941856
0.00093851
0.000935019
0.00093138
0.000927555
0.000923343
0.000917742
0.000910482
0.000902682
0.00089468
0.000886571
0.000878391
0.000870154
0.000861866
0.000853524
0.000845107
0.000836567
0.000827752
0.000818391
0.00080706
0.000779114
5.77936e-06
2.72671e-05
6.27146e-05
9.55311e-05
0.000121944
0.000141971
0.000156659
0.000167327
0.000175131
0.000180936
0.000185471
0.000189324
0.000192884
0.000196367
0.000199861
0.000203376
0.000206885
0.000210351
0.000213737
0.000217007
0.000220421
0.000224166
0.000228356
0.000233092
0.000238472
0.000244575
0.00025145
0.00025909
0.000267391
0.000276235
0.000285821
0.000296149
0.000307177
0.000318867
0.000331532
0.000344929
0.000358794
0.000373062
0.000387677
0.000402586
0.000417742
0.000433104
0.000448635
0.000464302
0.00048008
0.000495952
0.000511903
0.000527936
0.000544067
0.000560296
0.000576626
0.000593061
0.000609607
0.000626268
0.000643051
0.000659959
0.000676999
0.000694175
0.000711492
0.000728959
0.000746579
0.000764355
0.00078229
0.000800386
0.000818644
0.000837063
0.000855643
0.000874382
0.000893278
0.000912327
0.000931526
0.000950869
0.000970351
0.000989966
0.0010097
0.00102956
0.00104953
0.00106959
0.00108974
0.00110997
0.00113027
0.00115062
0.00117102
0.00119145
0.0012119
0.00123235
0.00125279
0.00127322
0.00129361
0.00131395
0.00133423
0.00135444
0.00137455
0.00139455
0.00141441
0.00143413
0.00145365
0.00147294
0.00149193
0.00151057
0.00152875
0.00154641
0.00156367
0.0015807
0.00159743
0.00161387
0.00163
0.00164581
0.0016613
0.00167644
0.00169122
0.00170564
0.00171968
0.00173333
0.00174658
0.00175942
0.00177185
0.00178384
0.0017954
0.00180652
0.00181718
0.00182739
0.00183713
0.00184639
0.00185518
0.00186349
0.0018713
0.00187863
0.00188547
0.00189182
0.00189767
0.00190303
0.00190792
0.00191242
0.00191632
0.00191941
0.00192212
0.00192453
0.00192637
0.00192771
0.00192854
0.00192889
0.00192875
0.00192813
0.00192703
0.00192548
0.00192346
0.001921
0.0019181
0.00191476
0.001911
0.00190683
0.00190225
0.00189729
0.00189195
0.00188624
0.00188018
0.00187378
0.00186705
0.00186001
0.00185266
0.00184502
0.00183707
0.00182878
0.00181988
0.00180959
0.00179762
0.00178478
0.0017715
0.00175795
0.00174421
0.00173031
0.00171627
0.00170209
0.00168774
0.00167309
0.00165789
0.00164136
0.00162074
0.00157858
6.71478e-06
3.75957e-05
8.42313e-05
0.000126244
0.000159982
0.000185876
0.000205257
0.000219578
0.000230176
0.000238185
0.000244527
0.000249912
0.000254846
0.000259658
0.000264538
0.000269588
0.00027486
0.000280394
0.000286238
0.000292474
0.000299227
0.000306617
0.000314747
0.000323703
0.000333553
0.000344344
0.000356097
0.000368806
0.00038245
0.000397019
0.000412538
0.000428995
0.000446371
0.000464639
0.000483372
0.000502546
0.000522216
0.000542332
0.000562826
0.000583632
0.000604704
0.000626031
0.000647582
0.000669333
0.000691274
0.000713411
0.000735771
0.000758323
0.000781026
0.000803878
0.000826882
0.000850043
0.000873368
0.000896862
0.000920531
0.000944382
0.00096842
0.00099265
0.00101708
0.00104171
0.00106655
0.0010916
0.00111687
0.00114235
0.00116804
0.00119395
0.00122007
0.00124639
0.00127291
0.00129963
0.00132653
0.00135362
0.00138088
0.00140829
0.00143586
0.00146356
0.00149139
0.00151933
0.00154737
0.00157549
0.00160367
0.00163191
0.00166018
0.00168846
0.00171674
0.00174501
0.00177323
0.00180139
0.00182948
0.00185746
0.00188533
0.00191305
0.00194061
0.00196798
0.00199512
0.00202202
0.00204862
0.00207489
0.00210077
0.00212621
0.00215117
0.00217565
0.00219972
0.00222342
0.00224672
0.00226961
0.00229207
0.00231408
0.00233563
0.00235671
0.00237728
0.00239734
0.00241688
0.00243587
0.00245431
0.00247217
0.00248946
0.00250615
0.00252224
0.00253771
0.00255255
0.00256675
0.00258031
0.00259321
0.00260546
0.00261703
0.00262793
0.00263815
0.00264769
0.00265655
0.00266473
0.00267222
0.00267912
0.0026855
0.00269084
0.00269523
0.0026992
0.00270256
0.00270519
0.00270713
0.00270838
0.00270895
0.00270886
0.0027081
0.00270669
0.00270463
0.00270194
0.00269862
0.0026947
0.00269017
0.00268505
0.00267936
0.00267311
0.00266631
0.00265899
0.00265115
0.00264281
0.00263399
0.00262471
0.00261499
0.00260483
0.00259426
0.00258326
0.0025718
0.00255967
0.00254638
0.00253172
0.00251614
0.00249997
0.00248339
0.00246652
0.00244941
0.00243209
0.00241457
0.00239682
0.00237871
0.00235993
0.00233953
0.00231427
0.00226949
7.37151e-06
4.82274e-05
0.000104865
0.00015426
0.000193743
0.000224042
0.000246878
0.000263969
0.000276845
0.000286796
0.000294869
0.00030187
0.00030839
0.000314835
0.000321465
0.000328445
0.00033588
0.00034385
0.000352432
0.000361713
0.000371783
0.000382731
0.000394635
0.000407555
0.000421533
0.000436591
0.000452732
0.000469942
0.000488194
0.000507457
0.00052769
0.000548836
0.000570815
0.000593529
0.000616845
0.000640709
0.000665092
0.000689946
0.000715226
0.000740898
0.000766922
0.000793238
0.000819814
0.000846627
0.000873659
0.000900887
0.000928278
0.000955835
0.000983588
0.00101154
0.0010397
0.00106806
0.00109663
0.00112543
0.00115444
0.00118369
0.00121316
0.00124287
0.0012728
0.00130298
0.0013334
0.00136407
0.00139499
0.00142615
0.00145756
0.00148922
0.0015211
0.00155322
0.00158556
0.00161811
0.00165086
0.00168381
0.00171693
0.00175022
0.00178367
0.00181725
0.00185095
0.00188475
0.00191864
0.0019526
0.0019866
0.00202064
0.00205468
0.00208871
0.0021227
0.00215664
0.0021905
0.00222426
0.00225789
0.00229137
0.00232468
0.00235778
0.00239066
0.00242328
0.00245562
0.00248763
0.00251929
0.00255057
0.00258142
0.00261184
0.0026418
0.00267131
0.00270035
0.00272894
0.00275706
0.00278468
0.00281179
0.00283837
0.0028644
0.00288985
0.00291471
0.00293897
0.0029626
0.00298558
0.00300791
0.00302957
0.00305053
0.00307079
0.00309034
0.00310915
0.00312722
0.00314454
0.0031611
0.00317688
0.00319189
0.0032061
0.00321951
0.00323212
0.00324393
0.00325493
0.00326513
0.00327454
0.00328335
0.00329127
0.0032981
0.00330385
0.00330917
0.00331364
0.00331729
0.00332011
0.00332211
0.00332332
0.00332372
0.00332335
0.00332219
0.00332027
0.00331759
0.00331416
0.00331001
0.00330513
0.00329955
0.00329328
0.00328633
0.00327872
0.00327047
0.0032616
0.00325212
0.00324205
0.00323142
0.00322024
0.00320852
0.0031963
0.00318356
0.00317027
0.0031563
0.00314139
0.00312539
0.00310851
0.00309099
0.00307298
0.00305458
0.00303588
0.00301692
0.00299771
0.00297825
0.00295841
0.00293788
0.00291564
0.00288858
0.00284583
7.84038e-06
5.79931e-05
0.000123707
0.000179691
0.000224219
0.000258425
0.000284369
0.00030402
0.000319075
0.000330955
0.000340801
0.000349502
0.000357718
0.000365916
0.000374411
0.000383412
0.000393061
0.000403458
0.000414689
0.000426828
0.000439948
0.000454111
0.000469365
0.000485747
0.000503271
0.000521939
0.000541733
0.000562623
0.000584567
0.000607512
0.000631398
0.000656154
0.000681701
0.000707959
0.000734851
0.000762319
0.000790317
0.000818798
0.000847717
0.000877034
0.00090671
0.000936706
0.000966996
0.000997556
0.00102837
0.00105942
0.00109069
0.00112219
0.00115393
0.00118589
0.00121809
0.00125053
0.00128321
0.00131613
0.0013493
0.00138272
0.0014164
0.00145033
0.00148454
0.00151901
0.00155374
0.00158872
0.00162396
0.00165944
0.00169517
0.00173114
0.00176734
0.00180376
0.00184039
0.00187724
0.00191427
0.00195148
0.00198886
0.00202639
0.00206406
0.00210185
0.00213974
0.00217772
0.00221577
0.00225386
0.00229197
0.0023301
0.00236821
0.00240628
0.00244429
0.00248222
0.00252004
0.00255774
0.00259528
0.00263264
0.00266979
0.00270671
0.00274337
0.00277975
0.0028158
0.00285151
0.00288685
0.00292178
0.00295628
0.00299034
0.00302392
0.00305703
0.00308965
0.00312177
0.00315337
0.00318442
0.00321491
0.00324481
0.00327411
0.00330278
0.00333081
0.00335816
0.00338483
0.0034108
0.00343605
0.00346056
0.00348431
0.00350729
0.00352949
0.00355089
0.00357148
0.00359125
0.00361018
0.00362826
0.00364548
0.00366184
0.00367733
0.00369193
0.00370566
0.00371849
0.00373044
0.00374161
0.00375209
0.00376142
0.00376965
0.00377687
0.00378348
0.00378916
0.00379393
0.00379779
0.00380076
0.00380285
0.00380406
0.00380441
0.00380389
0.00380253
0.00380034
0.00379732
0.00379349
0.00378885
0.00378344
0.00377725
0.0037703
0.00376262
0.00375422
0.00374511
0.00373532
0.00372486
0.00371375
0.00370202
0.00368969
0.00367676
0.00366325
0.00364914
0.00363436
0.00361875
0.00360225
0.00358494
0.00356697
0.00354846
0.00352953
0.00351023
0.00349063
0.00347078
0.00345067
0.00343023
0.00340918
0.00338657
0.00335968
0.00332076
8.17654e-06
6.70622e-05
0.000140618
0.000202389
0.000251491
0.000289399
0.000318405
0.000340655
0.000357975
0.000371882
0.0003836
0.000394086
0.000404058
0.000414039
0.000424391
0.00043536
0.000447113
0.000459764
0.000473398
0.00048808
0.000503863
0.000520785
0.000538872
0.000558135
0.00057857
0.000600159
0.00062287
0.000646659
0.000671475
0.000697258
0.000723945
0.000751466
0.000779753
0.00080874
0.000838364
0.000868572
0.000899314
0.000930543
0.000962219
0.000994304
0.00102676
0.00105957
0.00109269
0.00112611
0.00115982
0.00119379
0.00122803
0.00126252
0.00129727
0.00133227
0.00136752
0.00140303
0.00143878
0.00147479
0.00151105
0.00154757
0.00158434
0.00162138
0.00165868
0.00169623
0.00173403
0.00177209
0.00181039
0.00184893
0.0018877
0.0019267
0.00196593
0.00200536
0.002045
0.00208482
0.00212483
0.002165
0.00220533
0.00224579
0.00228638
0.00232707
0.00236785
0.00240871
0.00244961
0.00249055
0.0025315
0.00257245
0.00261336
0.00265423
0.00269502
0.00273572
0.00277629
0.00281673
0.00285699
0.00289706
0.00293692
0.00297653
0.00301586
0.0030549
0.00309361
0.00313197
0.00316995
0.00320753
0.00324467
0.00328137
0.0033176
0.00335333
0.00338857
0.00342328
0.00345744
0.00349104
0.00352404
0.00355644
0.0035882
0.0036193
0.00364973
0.00367946
0.00370847
0.00373675
0.00376426
0.00379101
0.00381696
0.0038421
0.00386642
0.0038899
0.00391253
0.00393429
0.00395518
0.00397517
0.00399426
0.00401243
0.00402969
0.00404602
0.00406142
0.00407588
0.00408942
0.00410224
0.00411407
0.00412484
0.00413443
0.00414313
0.00415102
0.00415794
0.00416389
0.0041689
0.00417297
0.0041761
0.0041783
0.00417959
0.00417997
0.00417946
0.00417805
0.00417578
0.00417263
0.00416864
0.00416381
0.00415816
0.00415169
0.00414444
0.00413641
0.00412762
0.00411808
0.00410783
0.00409687
0.00408522
0.00407291
0.00405996
0.00404637
0.00403214
0.00401723
0.00400158
0.00398514
0.00396795
0.0039501
0.0039317
0.00391283
0.00389357
0.00387399
0.00385414
0.00383407
0.00381374
0.00379291
0.00377079
0.0037451
0.00371005
8.44104e-06
7.47066e-05
0.000154803
0.000221769
0.000275188
0.00031678
0.000348937
0.000373919
0.000393647
0.000409715
0.000423414
0.000435758
0.000447523
0.000459276
0.000471422
0.00048424
0.000497917
0.000512579
0.000528311
0.000545168
0.000563188
0.000582392
0.000602785
0.000624363
0.000647107
0.000670987
0.000695958
0.000721972
0.000748971
0.000776895
0.000805683
0.00083527
0.000865596
0.000896604
0.000928256
0.000960489
0.000993253
0.0010265
0.0010602
0.00109431
0.00112881
0.00116366
0.00119886
0.00123437
0.00127017
0.00130627
0.00134265
0.0013793
0.00141622
0.00145339
0.00149082
0.00152849
0.00156641
0.00160458
0.00164299
0.00168164
0.00172054
0.00175969
0.00179907
0.0018387
0.00187856
0.00191866
0.00195898
0.00199953
0.00204029
0.00208127
0.00212244
0.00216382
0.00220538
0.00224712
0.00228902
0.00233108
0.00237328
0.00241561
0.00245805
0.00250059
0.00254321
0.0025859
0.00262864
0.00267141
0.00271419
0.00275697
0.00279972
0.00284242
0.00288505
0.00292759
0.00297001
0.0030123
0.00305442
0.00309636
0.00313809
0.00317958
0.00322081
0.00326175
0.00330238
0.00334266
0.00338258
0.00342211
0.00346122
0.00349989
0.0035381
0.00357582
0.00361304
0.00364974
0.00368588
0.00372146
0.00375643
0.00379078
0.00382449
0.00385754
0.00388989
0.00392153
0.00395244
0.0039826
0.00401198
0.00404058
0.00406836
0.00409531
0.00412142
0.00414666
0.00417103
0.00419451
0.00421709
0.00423875
0.00425948
0.00427927
0.00429811
0.004316
0.00433292
0.00434887
0.00436393
0.0043782
0.00439134
0.00440351
0.00441447
0.00442459
0.00443377
0.00444195
0.00444914
0.00445536
0.0044606
0.00446488
0.00446821
0.00447058
0.00447203
0.00447254
0.00447214
0.00447083
0.00446862
0.00446553
0.00446158
0.00445676
0.0044511
0.00444462
0.00443732
0.00442922
0.00442034
0.0044107
0.00440032
0.0043892
0.00437738
0.00436486
0.00435167
0.00433781
0.00432327
0.00430801
0.00429202
0.00427532
0.00425798
0.00424006
0.00422166
0.00420284
0.0041837
0.00416429
0.00414468
0.00412488
0.00410473
0.00408356
0.00405956
0.00402876
8.94369e-06
7.84036e-05
0.000164272
0.000236709
0.000294665
0.000340187
0.000375693
0.000403579
0.000425865
0.00044422
0.000459995
0.000474258
0.00048783
0.000501321
0.000515172
0.000529693
0.000545091
0.000561502
0.000579014
0.00059768
0.000617524
0.000638553
0.000660758
0.000684125
0.000708633
0.000734261
0.000760941
0.000788612
0.000817217
0.000846698
0.000876996
0.00090805
0.0009398
0.000972183
0.00100517
0.00103874
0.00107286
0.00110747
0.00114256
0.00117807
0.00121397
0.00125024
0.00128682
0.00132368
0.00136084
0.00139828
0.00143602
0.00147407
0.00151238
0.00155094
0.00158972
0.00162873
0.00166797
0.00170743
0.00174711
0.00178701
0.00182714
0.00186748
0.00190804
0.00194882
0.00198982
0.00203102
0.00207243
0.00211405
0.00215586
0.00219788
0.00224008
0.00228247
0.00232503
0.00236776
0.00241066
0.00245371
0.0024969
0.00254022
0.00258366
0.0026272
0.00267084
0.00271456
0.00275834
0.00280217
0.00284603
0.0028899
0.00293377
0.00297761
0.0030214
0.00306513
0.00310877
0.0031523
0.00319569
0.00323892
0.00328197
0.00332482
0.00336742
0.00340977
0.00345183
0.00349357
0.00353498
0.00357602
0.00361667
0.0036569
0.00369669
0.00373601
0.00377484
0.00381315
0.00385092
0.00388813
0.00392474
0.00396074
0.0039961
0.00403079
0.00406479
0.00409807
0.00413063
0.00416242
0.00419344
0.00422365
0.00425305
0.00428161
0.00430932
0.00433615
0.00436209
0.00438713
0.00441125
0.00443444
0.00445668
0.00447797
0.0044983
0.00451765
0.00453601
0.00455339
0.00456992
0.00458546
0.00459998
0.00461349
0.00462587
0.00463738
0.00464787
0.00465734
0.00466581
0.00467328
0.00467976
0.00468527
0.0046898
0.00469337
0.00469599
0.00469767
0.00469841
0.00469823
0.00469714
0.00469514
0.00469226
0.0046885
0.00468388
0.0046784
0.00467209
0.00466496
0.00465702
0.00464829
0.00463879
0.00462852
0.00461751
0.00460578
0.00459333
0.00458019
0.00456636
0.00455181
0.00453657
0.00452063
0.00450405
0.00448689
0.00446923
0.00445114
0.0044327
0.00441401
0.00439514
0.00437614
0.00435691
0.00433693
0.00431477
0.00428821
9.49883e-06
7.97733e-05
0.000170109
0.000247648
0.000310044
0.000359563
0.000398522
0.000429421
0.000454368
0.000475097
0.000493011
0.000509223
0.000524593
0.000539769
0.000555225
0.000571295
0.000588208
0.000606108
0.000625094
0.000645229
0.000666539
0.000688995
0.000712565
0.000737204
0.000762845
0.00078947
0.000817091
0.000845668
0.00087515
0.000905481
0.000936611
0.000968486
0.00100106
0.00103429
0.00106816
0.00110259
0.00113755
0.001173
0.00120888
0.00124517
0.00128184
0.00131886
0.00135624
0.00139395
0.00143196
0.00147025
0.00150878
0.00154749
0.00158645
0.00162562
0.00166498
0.00170452
0.00174425
0.00178416
0.00182426
0.00186455
0.00190504
0.00194571
0.00198658
0.00202764
0.00206889
0.00211033
0.00215197
0.0021938
0.00223582
0.00227804
0.00232044
0.00236303
0.0024058
0.00244876
0.00249188
0.00253518
0.00257864
0.00262226
0.00266602
0.00270991
0.00275394
0.00279808
0.00284231
0.00288664
0.00293104
0.00297549
0.00301998
0.00306449
0.00310899
0.00315348
0.00319793
0.0032423
0.00328659
0.00333077
0.0033748
0.00341867
0.00346235
0.00350581
0.00354903
0.00359197
0.0036346
0.00367691
0.00371886
0.00376042
0.00380156
0.00384226
0.0038825
0.00392223
0.00396145
0.00400011
0.00403819
0.00407567
0.00411251
0.0041487
0.0041842
0.004219
0.00425306
0.00428637
0.0043189
0.00435062
0.00438153
0.0044116
0.00444081
0.00446913
0.00449657
0.00452309
0.00454869
0.00457334
0.00459704
0.00461978
0.00464154
0.00466231
0.00468209
0.00470089
0.00471878
0.00473564
0.00475153
0.0047664
0.00478023
0.00479312
0.00480495
0.00481574
0.00482551
0.00483429
0.00484207
0.00484887
0.00485469
0.00485955
0.00486344
0.00486638
0.00486839
0.00486946
0.00486961
0.00486885
0.0048672
0.00486466
0.00486125
0.00485697
0.00485185
0.00484589
0.00483911
0.00483151
0.00482312
0.00481395
0.004804
0.00479331
0.00478188
0.00476972
0.00475685
0.00474328
0.004729
0.00471404
0.00469843
0.00468224
0.00466551
0.00464834
0.00463082
0.00461303
0.00459509
0.00457705
0.00455888
0.00454017
0.00451983
0.0044967
9.98644e-06
7.99527e-05
0.000173405
0.000255259
0.000321693
0.000375039
0.000417401
0.00045132
0.000478954
0.000502085
0.000522154
0.000540309
0.000557442
0.000574227
0.000591171
0.000608645
0.000626889
0.000646022
0.000666106
0.000687134
0.00070919
0.000732337
0.000756573
0.00078188
0.00080825
0.000835671
0.000864082
0.000893397
0.000923556
0.000954507
0.000986201
0.00101859
0.00105163
0.00108528
0.00111949
0.00115421
0.00118939
0.001225
0.00126102
0.00129741
0.00133414
0.0013712
0.00140856
0.00144618
0.00148405
0.00152216
0.00156052
0.00159918
0.00163809
0.00167713
0.00171627
0.00175552
0.0017949
0.00183441
0.00187407
0.00191389
0.00195387
0.00199401
0.00203433
0.00207483
0.00211551
0.00215638
0.00219744
0.0022387
0.00228016
0.00232184
0.00236372
0.00240582
0.00244814
0.00249067
0.00253342
0.00257639
0.00261956
0.00266294
0.00270653
0.00275031
0.00279427
0.00283842
0.00288272
0.00292718
0.00297177
0.00301649
0.00306131
0.00310621
0.00315118
0.00319619
0.00324122
0.00328625
0.00333125
0.00337619
0.00342105
0.0034658
0.00351042
0.00355486
0.00359911
0.00364312
0.00368688
0.00373035
0.00377349
0.00381629
0.0038587
0.0039007
0.00394225
0.00398333
0.00402391
0.00406396
0.00410344
0.00414233
0.00418061
0.00421823
0.00425518
0.00429144
0.00432696
0.00436173
0.00439573
0.00442893
0.00446131
0.00449285
0.00452353
0.00455332
0.00458222
0.0046102
0.00463725
0.00466336
0.0046885
0.00471268
0.00473587
0.00475806
0.00477926
0.00479947
0.0048187
0.00483693
0.00485421
0.00487048
0.00488574
0.00490009
0.00491329
0.00492543
0.00493657
0.00494671
0.00495585
0.00496401
0.0049712
0.00497741
0.00498267
0.00498697
0.00499033
0.00499277
0.00499428
0.00499489
0.0049946
0.00499342
0.00499136
0.00498844
0.00498467
0.00498005
0.0049746
0.00496833
0.00496125
0.00495336
0.0049447
0.00493525
0.00492505
0.0049141
0.00490242
0.00489002
0.00487691
0.00486311
0.00484865
0.00483358
0.00481797
0.00480189
0.00478543
0.0047687
0.00475181
0.00473485
0.00471781
0.0047004
0.00468177
0.00466151
1.04027e-05
7.92779e-05
0.000174671
0.000259986
0.000329945
0.000386799
0.000432389
0.000469232
0.000499498
0.000524987
0.000547166
0.000567218
0.000586059
0.00060434
0.000622533
0.000640937
0.000659894
0.000679649
0.000700346
0.000722103
0.000744985
0.000768923
0.000793883
0.000819839
0.000846757
0.000874576
0.000903214
0.000932652
0.000962853