/*--------------------------------*- C++ -*----------------------------------*\
| =========                 |                                                 |
| \\      /  F ield         | OpenFOAM: The Open Source CFD Toolbox           |
|  \\    /   O peration     | Version:  2406                                  |
|   \\  /    A nd           | Website:  www.openfoam.com                      |
|    \\/     M anipulation  |                                                 |
\*---------------------------------------------------------------------------*/
FoamFile
{
    version     2.0;
    format      ascii;
    arch        "LSB;label=32;scalar=64";
    class       volScalarField;
    location    "281";
    object      p;
}
// * * * * * * * * * * * * * * * * * * * * * * * * * * * * * * * * * * * * * //

dimensions      [0 2 -2 0 0 0 0];

internalField   nonuniform List<scalar> 
12225
(
-1.73732
-3.90196
-4.99443
-5.30808
-5.48484
-5.66358
-5.81166
-5.9233
-6.01492
-6.09789
-6.17525
-6.24808
-6.31805
-6.38717
-6.45792
-6.52975
-6.61729
-6.67052
-4.8832
-5.66344
-5.86794
-5.77977
-5.75464
-5.81886
-5.9019
-5.97618
-6.04565
-6.11487
-6.18346
-6.2505
-6.31652
-6.38273
-6.4508
-6.52202
-6.60118
-6.70424
-5.26195
-5.19005
-5.30903
-5.39585
-5.50412
-5.64654
-5.7813
-5.89171
-5.98568
-6.0713
-6.15103
-6.22575
-6.29699
-6.36652
-6.43637
-6.50775
-6.58545
-6.66841
-5.1284
-5.04076
-5.29985
-5.49184
-5.61429
-5.73551
-5.84907
-5.94342
-6.02455
-6.09973
-6.17126
-6.23958
-6.30568
-6.37082
-6.43635
-6.50299
-6.57192
-6.63787
-5.11697
-5.13352
-5.38073
-5.54579
-5.63876
-5.73722
-5.83947
-5.92991
-6.00997
-6.08504
-6.15691
-6.22572
-6.29213
-6.35711
-6.42156
-6.4857
-6.54911
-6.6081
-5.17749
-5.22457
-5.41142
-5.55157
-5.64182
-5.73799
-5.83857
-5.92901
-6.00932
-6.08417
-6.15545
-6.22344
-6.28873
-6.35209
-6.41413
-6.47472
-6.53306
-6.58634
-5.24056
-5.28417
-5.42852
-5.55905
-5.65324
-5.74707
-5.84314
-5.93083
-6.00944
-6.0827
-6.15243
-6.21893
-6.28263
-6.34408
-6.40361
-6.46088
-6.51499
-6.56363
-5.29666
-5.3346
-5.45237
-5.57339
-5.66704
-5.75625
-5.8468
-5.93129
-6.00809
-6.07983
-6.14809
-6.21317
-6.27534
-6.33494
-6.39208
-6.44637
-6.49693
-6.54205
-5.34888
-5.38308
-5.48084
-5.58983
-5.68003
-5.76471
-5.85024
-5.93154
-6.00642
-6.07653
-6.14318
-6.20668
-6.26717
-6.32481
-6.3796
-6.43113
-6.4787
-6.52104
-5.39825
-5.42901
-5.51054
-5.60726
-5.69292
-5.77346
-5.85429
-5.93214
-6.00476
-6.07297
-6.1378
-6.19953
-6.25819
-6.31381
-6.36633
-6.41537
-6.46041
-6.50054
-5.44463
-5.47181
-5.54034
-5.62578
-5.70621
-5.78261
-5.85888
-5.93309
-6.00314
-6.06924
-6.1321
-6.19191
-6.24864
-6.30224
-6.35259
-6.39939
-6.44227
-6.48061
-5.48425
-5.50831
-5.56732
-5.64349
-5.71867
-5.79115
-5.86341
-5.93421
-6.00174
-6.06576
-6.12669
-6.18465
-6.23956
-6.29132
-6.33979
-6.38474
-6.42592
-6.46287
-5.52065
-5.54204
-5.59323
-5.66116
-5.73103
-5.7996
-5.86803
-5.93549
-6.00041
-6.06228
-6.12124
-6.17732
-6.23041
-6.28038
-6.3271
-6.37037
-6.41006
-6.44583
-5.55847
-5.57725
-5.62116
-5.68094
-5.7449
-5.809
-5.87327
-5.93702
-5.99891
-6.05825
-6.11491
-6.16884
-6.21988
-6.2679
-6.31275
-6.35431
-6.39252
-6.42716
-5.59621
-5.61244
-5.64986
-5.70198
-5.75973
-5.81895
-5.8788
-5.93856
-5.99708
-6.05354
-6.10762
-6.15916
-6.20798
-6.25392
-6.29687
-6.33673
-6.3735
-6.40707
-5.63157
-5.64548
-5.67737
-5.72266
-5.77434
-5.82853
-5.8839
-5.93959
-5.99454
-6.04791
-6.09924
-6.14827
-6.19478
-6.23862
-6.27969
-6.31793
-6.35335
-6.38592
-5.66117
-5.67315
-5.70064
-5.74029
-5.78658
-5.83607
-5.88724
-5.93906
-5.99055
-6.04088
-6.08949
-6.13605
-6.18034
-6.2222
-6.26153
-6.2983
-6.33252
-6.36421
-5.68002
-5.69062
-5.71505
-5.7507
-5.79298
-5.8388
-5.88659
-5.93529
-5.98391
-6.03165
-6.07794
-6.1224
-6.16481
-6.20501
-6.2429
-6.27846
-6.31171
-6.34269
-5.68039
-5.69036
-5.71346
-5.74743
-5.78798
-5.83211
-5.87821
-5.92527
-5.97235
-6.01865
-6.06358
-6.10679
-6.14806
-6.18724
-6.22427
-6.25914
-6.29187
-6.32254
-5.65619
-5.66668
-5.69099
-5.72675
-5.76917
-5.81475
-5.8619
-5.90977
-5.95751
-6.00429
-6.04953
-6.09292
-6.13427
-6.17349
-6.21051
-6.24536
-6.27806
-6.30873
-5.62193
-5.63332
-5.66012
-5.69976
-5.74605
-5.79463
-5.84421
-5.89427
-5.94387
-5.99207
-6.03839
-6.08263
-6.12468
-6.16445
-6.20193
-6.23717
-6.27024
-6.30127
-5.57962
-5.59174
-5.62232
-5.66861
-5.72058
-5.77275
-5.82537
-5.87859
-5.93099
-5.98133
-6.02927
-6.07478
-6.11781
-6.15833
-6.19635
-6.232
-6.26536
-6.29659
-5.53265
-5.54408
-5.57919
-5.63555
-5.69521
-5.75142
-5.80735
-5.86393
-5.91917
-5.97177
-6.02161
-6.06875
-6.11313
-6.15471
-6.1936
-6.22996
-6.26395
-6.29581
-5.48354
-5.49267
-5.53413
-5.6019
-5.66836
-5.72955
-5.79111
-5.85232
-5.91034
-5.96468
-6.01589
-6.06413
-6.1093
-6.15142
-6.19068
-6.2273
-6.26144
-6.29325
-5.43222
-5.43374
-5.4968
-5.57873
-5.64255
-5.70346
-5.77125
-5.83918
-5.90183
-5.95956
-6.01362
-6.06417
-6.11103
-6.15432
-6.19439
-6.23157
-6.26618
-6.29871
-5.38569
-5.33777
-5.45379
-5.57554
-5.63836
-5.69127
-5.75619
-5.82319
-5.8852
-5.94297
-5.99777
-6.04937
-6.09731
-6.14169
-6.18281
-6.221
-6.25647
-6.28937
-5.40313
-5.20554
-5.3389
-5.51719
-5.6227
-5.70355
-5.78329
-5.85587
-5.9192
-5.97665
-6.03016
-6.07975
-6.12525
-6.16704
-6.20557
-6.24129
-6.27467
-6.30677
-5.54593
-5.29724
-5.27374
-5.32903
-5.4121
-5.52077
-5.63223
-5.73011
-5.81507
-5.89164
-5.96145
-6.02441
-6.08074
-6.1313
-6.17689
-6.21815
-6.2559
-6.29146
-5.2749
-5.90335
-6.022
-5.88209
-5.79449
-5.8019
-5.84418
-5.88917
-5.93486
-5.98315
-6.03224
-6.0797
-6.12418
-6.16562
-6.20407
-6.23941
-6.27199
-6.30318
-2.21592
-3.98503
-4.99836
-5.27992
-5.40645
-5.54924
-5.67923
-5.78
-5.86232
-5.9356
-6.0019
-6.0611
-6.11377
-6.16083
-6.20298
-6.24042
-6.27329
-6.30004
-7.08476
-7.08451
-7.08447
-7.08488
-7.08571
-7.08688
-7.08829
-7.08985
-7.09147
-7.09315
-7.09491
-7.09675
-7.0987
-7.10077
-7.10299
-7.10541
-7.10804
-7.11091
-7.11407
-7.11756
-7.12142
-7.12567
-7.13037
-7.13555
-7.14128
-7.14761
-7.15462
-7.16237
-7.17095
-7.18044
-7.19093
-7.20248
-7.21515
-7.22901
-7.24407
-7.26037
-7.27791
-7.29667
-7.31663
-7.33774
-7.35995
-7.38321
-7.40743
-7.43256
-7.45853
-7.48531
-7.51282
-7.54089
-7.56939
-7.59825
-7.62741
-7.6568
-7.68636
-7.71603
-7.74573
-7.7754
-7.80495
-7.83431
-7.8634
-7.89212
-7.92038
-7.94807
-7.9751
-8.00135
-8.02669
-8.05101
-8.07416
-8.096
-8.11639
-8.13517
-8.15218
-8.16724
-8.1802
-8.19086
-8.19903
-8.20454
-8.20718
-8.20675
-8.20306
-8.19589
-8.18504
-8.1703
-8.15146
-8.12831
-8.10065
-8.06828
-8.03097
-7.98854
-7.94079
-7.88752
-7.82856
-7.76374
-7.69287
-7.6158
-7.53238
-7.44247
-7.34591
-7.2426
-7.13251
-7.01573
-6.8923
-6.76187
-6.62397
-6.47858
-6.3259
-6.16598
-5.99884
-5.82451
-5.64303
-5.45446
-5.25886
-5.05633
-4.84696
-4.63087
-4.40821
-4.17912
-3.94377
-3.70235
-3.45506
-3.20211
-2.94373
-2.68017
-2.41167
-2.13851
-1.86096
-1.57932
-1.29388
-1.00496
-0.71288
-0.417962
-0.120541
0.179056
0.480509
0.783475
1.08757
1.39243
1.69773
2.00314
2.3083
2.61286
2.91649
3.21886
3.51964
3.81852
4.11517
4.40932
4.70066
4.98893
5.27385
5.55519
5.8327
6.10616
6.37537
6.64014
6.90028
7.15564
7.40606
7.65143
7.89162
8.12653
8.35607
8.58017
8.79877
9.01183
9.21933
9.42142
9.61793
9.80856
9.99327
10.1721
10.3452
10.5125
10.674
10.8299
10.9804
11.1258
11.2672
11.4056
11.5513
11.7008
-7.08522
-7.085
-7.08499
-7.08547
-7.08636
-7.08743
-7.08858
-7.08977
-7.09098
-7.09221
-7.09346
-7.09477
-7.09619
-7.09776
-7.09951
-7.10145
-7.1036
-7.106
-7.10867
-7.11164
-7.11489
-7.11851
-7.12254
-7.12704
-7.1321
-7.13778
-7.14416
-7.15133
-7.15937
-7.16838
-7.17843
-7.18959
-7.20194
-7.21551
-7.23035
-7.24646
-7.26385
-7.28248
-7.30231
-7.3233
-7.34538
-7.36849
-7.39254
-7.41747
-7.4432
-7.46967
-7.49678
-7.52443
-7.55253
-7.58102
-7.60981
-7.63884
-7.66806
-7.69739
-7.72677
-7.75613
-7.78539
-7.81448
-7.84332
-7.87181
-7.89986
-7.92739
-7.95427
-7.9804
-8.00566
-8.02993
-8.05307
-8.07494
-8.09539
-8.11427
-8.13142
-8.14668
-8.15986
-8.1708
-8.1793
-8.18517
-8.18823
-8.18827
-8.18509
-8.17849
-8.16826
-8.15419
-8.13607
-8.1137
-8.08687
-8.05538
-8.01901
-7.97758
-7.93087
-7.87872
-7.82093
-7.75733
-7.68775
-7.61204
-7.53005
-7.44163
-7.34665
-7.24497
-7.13648
-7.02102
-6.89837
-6.76852
-6.63164
-6.48774
-6.33668
-6.17844
-6.01301
-5.8404
-5.66066
-5.47382
-5.27997
-5.07917
-4.87153
-4.65717
-4.43622
-4.20882
-3.97515
-3.73538
-3.4897
-3.23834
-2.98151
-2.71946
-2.45244
-2.1807
-1.90453
-1.6242
-1.34003
-1.05232
-0.761386
-0.467552
-0.171153
0.127488
0.428056
0.730213
1.03358
1.33778
1.64249
1.94739
2.25212
2.55634
2.85971
3.1619
3.46257
3.76142
4.05814
4.35242
4.64397
4.93253
5.21781
5.49958
5.77759
6.05162
6.32145
6.5869
6.84779
7.10394
7.35522
7.60148
7.84261
8.0785
8.30906
8.53422
8.75396
8.96823
9.17695
9.37972
9.57646
9.76736
9.95242
10.1317
10.3052
10.4729
10.6351
10.7916
10.943
11.0894
11.2324
11.3727
11.5217
11.6671
-7.08416
-7.0842
-7.08449
-7.08516
-7.08607
-7.08701
-7.08788
-7.08868
-7.08942
-7.09015
-7.09089
-7.09168
-7.09258
-7.09359
-7.09476
-7.09609
-7.09761
-7.09936
-7.10138
-7.10371
-7.10641
-7.10956
-7.11321
-7.11745
-7.12234
-7.12798
-7.13445
-7.14181
-7.15014
-7.1595
-7.16994
-7.18151
-7.19424
-7.20816
-7.22327
-7.23956
-7.257
-7.27557
-7.29523
-7.31592
-7.33761
-7.36022
-7.38371
-7.408
-7.43304
-7.45876
-7.48509
-7.51195
-7.53926
-7.56697
-7.59502
-7.62333
-7.65184
-7.6805
-7.70923
-7.73797
-7.76665
-7.79518
-7.82349
-7.85149
-7.87908
-7.90618
-7.93268
-7.95847
-7.98342
-8.00742
-8.03033
-8.05202
-8.07233
-8.09113
-8.10824
-8.12351
-8.13676
-8.14781
-8.15649
-8.1626
-8.16595
-8.16634
-8.16358
-8.15746
-8.14777
-8.13431
-8.11687
-8.09525
-8.06923
-8.03861
-8.0032
-7.96278
-7.91716
-7.86616
-7.80959
-7.74728
-7.67905
-7.60474
-7.52421
-7.4373
-7.34388
-7.24385
-7.13709
-7.02345
-6.90273
-6.77485
-6.6399
-6.4979
-6.3488
-6.19255
-6.02915
-5.8586
-5.68094
-5.49621
-5.30447
-5.1058
-4.90029
-4.68806
-4.46923
-4.24395
-4.01238
-3.7747
-3.53109
-3.28177
-3.02696
-2.76689
-2.50181
-2.23197
-1.95766
-1.67914
-1.39672
-1.11071
-0.821407
-0.529147
-0.234258
0.0629398
0.362134
0.662987
0.965123
1.26818
1.57184
1.87576
2.1796
2.48301
2.78565
3.0872
3.38733
3.68572
3.98205
4.27604
4.56739
4.85581
5.14105
5.42285
5.70096
5.97516
6.24524
6.511
6.77225
7.02882
7.28057
7.52736
7.76905
8.00555
8.23673
8.46253
8.68284
8.89762
9.10685
9.31045
9.50839
9.70063
9.88707
10.0677
10.2426
10.4117
10.5752
10.7333
10.8863
11.0346
11.18
11.3222
11.4743
11.6091
-7.08099
-7.08148
-7.08233
-7.08336
-7.08439
-7.0853
-7.08607
-7.08671
-7.08725
-7.08775
-7.08823
-7.08876
-7.08937
-7.0901
-7.09099
-7.09207
-7.09338
-7.09495
-7.09683
-7.09908
-7.10177
-7.10496
-7.10874
-7.11317
-7.11833
-7.12429
-7.13111
-7.13886
-7.1476
-7.15736
-7.16819
-7.18011
-7.19313
-7.20725
-7.22247
-7.23878
-7.25614
-7.27453
-7.29393
-7.31428
-7.33554
-7.35766
-7.3806
-7.40429
-7.42869
-7.45374
-7.47938
-7.50554
-7.53218
-7.55922
-7.58662
-7.61431
-7.64223
-7.67032
-7.69852
-7.72675
-7.75496
-7.78305
-7.81095
-7.83858
-7.86585
-7.89265
-7.91889
-7.94445
-7.96922
-7.99307
-8.01587
-8.03749
-8.05778
-8.07659
-8.09376
-8.10913
-8.12252
-8.13376
-8.14267
-8.14905
-8.15272
-8.15349
-8.15114
-8.14548
-8.1363
-8.1234
-8.10658
-8.08561
-8.0603
-8.03043
-7.99582
-7.95625
-7.91153
-7.86148
-7.8059
-7.74461
-7.67746
-7.60426
-7.52486
-7.43913
-7.3469
-7.24807
-7.14252
-7.03013
-6.91077
-6.78436
-6.65092
-6.51042
-6.36284
-6.20813
-6.04629
-5.87733
-5.70127
-5.51814
-5.32802
-5.13097
-4.92709
-4.71649
-4.49928
-4.27562
-4.04566
-3.80957
-3.56754
-3.31978
-3.0665
-2.80794
-2.54434
-2.27595
-2.00305
-1.72591
-1.44483
-1.1601
-0.872053
-0.580994
-0.287258
0.0088434
0.306997
0.60685
0.908035
1.21022
1.51307
1.81625
2.1194
2.42218
2.72427
3.02533
3.32503
3.62305
3.91909
4.21285
4.50403
4.79235
5.07754
5.35935
5.63754
5.91187
6.18212
6.44811
6.70963
6.96653
7.21864
7.46581
7.70791
7.94485
8.17652
8.40284
8.62372
8.83908
9.04889
9.25318
9.45194
9.64507
9.83243
10.014
10.1898
10.36
10.5245
10.6836
10.8377
10.9872
11.1337
11.2761
11.4272
11.5491
-7.07574
-7.0768
-7.07849
-7.08016
-7.08153
-7.08262
-7.08346
-7.08412
-7.08464
-7.08508
-7.08551
-7.08598
-7.08653
-7.08722
-7.0881
-7.0892
-7.09058
-7.09227
-7.09434
-7.09684
-7.09984
-7.10341
-7.10762
-7.11253
-7.11821
-7.12471
-7.13209
-7.1404
-7.14966
-7.1599
-7.17116
-7.18344
-7.19675
-7.21109
-7.22645
-7.2428
-7.26012
-7.2784
-7.2976
-7.31768
-7.3386
-7.36034
-7.38283
-7.40604
-7.42993
-7.45444
-7.47953
-7.50514
-7.53123
-7.55774
-7.58462
-7.61181
-7.63926
-7.6669
-7.69467
-7.72251
-7.75035
-7.7781
-7.8057
-7.83306
-7.86007
-7.88666
-7.91272
-7.93813
-7.96278
-7.98654
-8.0093
-8.0309
-8.0512
-8.07005
-8.0873
-8.10278
-8.11631
-8.12773
-8.13684
-8.14347
-8.14742
-8.14849
-8.14648
-8.14119
-8.13243
-8.11996
-8.10361
-8.08314
-8.05836
-8.02907
-7.99505
-7.95611
-7.91205
-7.86268
-7.80782
-7.74728
-7.68089
-7.60848
-7.52991
-7.44501
-7.35365
-7.25571
-7.15105
-7.03959
-6.9212
-6.79583
-6.66344
-6.524
-6.37747
-6.22384
-6.06308
-5.8952
-5.72024
-5.53822
-5.3492
-5.15326
-4.95049
-4.74099
-4.52489
-4.30233
-4.07346
-3.83845
-3.59749
-3.35079
-3.09855
-2.84101
-2.57841
-2.311
-2.03905
-1.76283
-1.48265
-1.1988
-0.91158
-0.621327
-0.328358
-0.0329796
0.264486
0.563673
0.864227
1.16584
1.46817
1.77087
2.07359
2.37598
2.67773
2.97849
3.27794
3.57576
3.87165
4.16529
4.45641
4.74471
5.02994
5.31182
5.59011
5.86459
6.13504
6.40125
6.66304
6.92022
7.17264
7.42017
7.66267
7.90003
8.13214
8.35892
8.58027
8.79612
9.00641
9.21114
9.41031
9.60385
9.79166
9.97373
10.1501
10.3207
10.4858
10.6455
10.8001
10.95
11.0965
11.2377
11.386
11.4957
-7.069
-7.07071
-7.07341
-7.07589
-7.07777
-7.07918
-7.08026
-7.08109
-7.08174
-7.0823
-7.08284
-7.08342
-7.08411
-7.08497
-7.08604
-7.08738
-7.08903
-7.09107
-7.09353
-7.09648
-7.09998
-7.10409
-7.10888
-7.1144
-7.1207
-7.12782
-7.13581
-7.1447
-7.1545
-7.16524
-7.17694
-7.18959
-7.2032
-7.21775
-7.23324
-7.24965
-7.26695
-7.28514
-7.30417
-7.32403
-7.34469
-7.3661
-7.38824
-7.41106
-7.43454
-7.45863
-7.48329
-7.50847
-7.53413
-7.56022
-7.5867
-7.6135
-7.64057
-7.66787
-7.69531
-7.72286
-7.75042
-7.77793
-7.80531
-7.83248
-7.85934
-7.8858
-7.91175
-7.93709
-7.9617
-7.98544
-8.00821
-8.02984
-8.05021
-8.06915
-8.08651
-8.10213
-8.11583
-8.12743
-8.13676
-8.14362
-8.14782
-8.14917
-8.14746
-8.14249
-8.13406
-8.12195
-8.10597
-8.0859
-8.06154
-8.03268
-7.99911
-7.96063
-7.91706
-7.86819
-7.81384
-7.75383
-7.68799
-7.61614
-7.53814
-7.45384
-7.36308
-7.26576
-7.16174
-7.05093
-6.93323
-6.80857
-6.6769
-6.53818
-6.39237
-6.23946
-6.07943
-5.91229
-5.73807
-5.55679
-5.36852
-5.17333
-4.97131
-4.76256
-4.54721
-4.32539
-4.09726
-3.86299
-3.62276
-3.37678
-3.12525
-2.86841
-2.6065
-2.33976
-2.06846
-1.79289
-1.51333
-1.23008
-0.943447
-0.653756
-0.361322
-0.0664474
0.230527
0.529235
0.829347
1.13056
1.43253
1.73489
2.0373
2.33942
2.64092
2.94147
3.24075
3.53843
3.83421
4.12779
4.41887
4.70717
4.99241
5.27436
5.55274
5.82734
6.09793
6.36432
6.6263
6.88371
7.1364
7.38421
7.62701
7.86468
8.09712
8.32423
8.54592
8.76212
8.97275
9.17778
9.37721
9.57101
9.75909
9.94146
10.1181
10.2891
10.4545
10.6144
10.7692
10.919
11.065
11.2044
11.3498
11.4487
-7.06175
-7.06409
-7.06786
-7.07119
-7.07365
-7.0755
-7.07693
-7.07805
-7.07896
-7.07977
-7.08056
-7.08141
-7.08239
-7.08356
-7.08498
-7.08671
-7.0888
-7.09132
-7.0943
-7.09781
-7.1019
-7.10663
-7.11205
-7.1182
-7.12512
-7.13284
-7.1414
-7.15082
-7.16112
-7.1723
-7.18438
-7.19734
-7.2112
-7.22594
-7.24154
-7.25801
-7.27531
-7.29344
-7.31236
-7.33207
-7.35252
-7.3737
-7.39558
-7.41812
-7.4413
-7.46508
-7.48942
-7.51429
-7.53963
-7.56542
-7.5916
-7.61812
-7.64493
-7.67198
-7.69921
-7.72656
-7.75395
-7.78132
-7.80858
-7.83565
-7.86244
-7.88886
-7.91479
-7.94014
-7.96477
-7.98857
-8.01141
-8.03314
-8.05362
-8.0727
-8.09021
-8.10599
-8.11987
-8.13168
-8.14121
-8.1483
-8.15274
-8.15433
-8.15288
-8.14818
-8.14002
-8.1282
-8.11252
-8.09275
-8.06869
-8.04014
-8.0069
-7.96875
-7.92551
-7.87698
-7.82298
-7.76332
-7.69784
-7.62636
-7.54873
-7.46481
-7.37444
-7.27752
-7.17391
-7.06352
-6.94626
-6.82204
-6.69083
-6.55256
-6.40722
-6.25476
-6.0952
-5.92852
-5.75476
-5.57396
-5.38616
-5.19145
-4.98991
-4.78164
-4.56678
-4.34544
-4.1178
-3.88401
-3.64427
-3.39877
-3.14772
-2.89135
-2.6299
-2.36362
-2.09278
-1.81766
-1.53853
-1.2557
-0.969482
-0.680193
-0.388137
-0.0936313
0.202973
0.501325
0.801111
1.10202
1.40372
1.70582
2.00799
2.30989
2.6112
2.91158
3.21072
3.50828
3.80396
4.09747
4.3885
4.67678
4.96203
5.24399
5.52242
5.79708
6.06777
6.33427
6.59639
6.85396
7.10682
7.35481
7.59782
7.8357
8.06836
8.2957
8.51763
8.73407
8.94493
9.15019
9.34982
9.54381
9.73211
9.91469
10.0916
10.2627
10.4283
10.5883
10.7431
10.8925
11.0376
11.1749
11.3177
11.4071
-7.05499
-7.05787
-7.06261
-7.06677
-7.06982
-7.07214
-7.07397
-7.07546
-7.07671
-7.07786
-7.07899
-7.08019
-7.08155
-7.08312
-7.08498
-7.08718
-7.08978
-7.09283
-7.09637
-7.10046
-7.10515
-7.11049
-7.1165
-7.12324
-7.13073
-7.13899
-7.14806
-7.15795
-7.16866
-7.18021
-7.19261
-7.20584
-7.21991
-7.2348
-7.25052
-7.26704
-7.28436
-7.30246
-7.32132
-7.34092
-7.36125
-7.38227
-7.40398
-7.42633
-7.44931
-7.47288
-7.49701
-7.52167
-7.54681
-7.5724
-7.59839
-7.62475
-7.65141
-7.67833
-7.70544
-7.73269
-7.76002
-7.78733
-7.81457
-7.84163
-7.86844
-7.8949
-7.92089
-7.94631
-7.97104
-7.99496
-8.01792
-8.0398
-8.06043
-8.07968
-8.09737
-8.11334
-8.12741
-8.13942
-8.14916
-8.15645
-8.1611
-8.16291
-8.16167
-8.15718
-8.14924
-8.13764
-8.12216
-8.1026
-8.07876
-8.05041
-8.01737
-7.97943
-7.93639
-7.88806
-7.83425
-7.7748
-7.70951
-7.63823
-7.56081
-7.47708
-7.38692
-7.29021
-7.18682
-7.07665
-6.95961
-6.83564
-6.70466
-6.56664
-6.42154
-6.26933
-6.11001
-5.94359
-5.77008
-5.58954
-5.40201
-5.20756
-5.0063
-4.79831
-4.58372
-4.36268
-4.13532
-3.90183
-3.66239
-3.41719
-3.16644
-2.91038
-2.64923
-2.38325
-2.11271
-1.83789
-1.55905
-1.27652
-0.990591
-0.701581
-0.409795
-0.115565
0.180759
0.478846
0.778388
1.07908
1.38055
1.68245
1.98443
2.28616
2.5873
2.88754
3.18654
3.48399
3.77958
4.073
4.36397
4.6522
4.93742
5.21938
5.49782
5.77252
6.04325
6.30981
6.57201
6.82967
7.08263
7.33074
7.57387
7.8119
8.04471
8.2722
8.49429
8.71088
8.92192
9.12734
9.32713
9.52127
9.70971
9.89243
10.0694
10.2407
10.4063
10.5663
10.7208
10.8697
11.0138
11.1489
11.2893
11.3703
-7.04953
-7.05282
-7.05831
-7.06318
-7.0668
-7.06958
-7.07182
-7.07369
-7.07531
-7.07683
-7.07833
-7.07993
-7.0817
-7.08371
-7.08602
-7.0887
-7.0918
-7.09536
-7.09944
-7.10407
-7.1093
-7.11517
-7.12171
-7.12896
-7.13693
-7.14565
-7.15514
-7.16542
-7.17648
-7.18834
-7.20099
-7.21445
-7.2287
-7.24373
-7.25955
-7.27614
-7.29348
-7.31158
-7.33042
-7.34997
-7.37023
-7.39117
-7.41278
-7.43502
-7.45789
-7.48135
-7.50536
-7.52991
-7.55495
-7.58045
-7.60636
-7.63265
-7.65926
-7.68614
-7.71324
-7.74049
-7.76783
-7.79519
-7.82248
-7.84963
-7.87653
-7.90309
-7.92921
-7.95477
-7.97965
-8.00373
-8.02686
-8.04891
-8.06973
-8.08916
-8.10704
-8.1232
-8.13747
-8.14966
-8.15959
-8.16706
-8.17188
-8.17386
-8.17278
-8.16845
-8.16065
-8.14918
-8.13383
-8.11439
-8.09065
-8.06241
-8.02946
-7.9916
-7.94864
-7.90038
-7.84664
-7.78724
-7.72201
-7.65078
-7.5734
-7.48972
-7.39961
-7.30295
-7.19961
-7.0895
-6.97253
-6.84862
-6.71771
-6.57976
-6.43473
-6.2826
-6.12336
-5.95702
-5.7836
-5.60316
-5.41573
-5.2214
-5.02025
-4.81239
-4.59794
-4.37704
-4.14983
-3.9165
-3.67722
-3.43219
-3.18162
-2.92574
-2.66478
-2.399
-2.12865
-1.85403
-1.5754
-1.29307
-1.00734
-0.71853
-0.426947
-0.132933
0.163177
0.461058
0.760407
1.06091
1.36221
1.66393
1.96575
2.26732
2.56831
2.8684
3.16728
3.46461
3.76009
4.05342
4.34432
4.63249
4.91766
5.19958
5.478
5.75269
6.02342
6.29
6.55222
6.80992
7.06293
7.3111
7.5543
7.7924
8.0253
8.25289
8.47507
8.69177
8.90292
9.10845
9.30836
9.50259
9.69112
9.87392
10.051
10.2223
10.3878
10.5477
10.7018
10.85
10.9929
11.1259
11.264
11.3379
-7.04595
-7.04949
-7.05542
-7.06081
-7.0649
-7.0681
-7.07072
-7.07295
-7.07493
-7.07681
-7.07868
-7.08066
-7.08282
-7.08524
-7.08798
-7.0911
-7.09464
-7.09865
-7.10319
-7.10828
-7.11397
-7.12029
-7.12727
-7.13493
-7.14329
-7.15238
-7.16221
-7.17279
-7.18412
-7.19622
-7.20909
-7.22272
-7.23711
-7.25226
-7.26817
-7.28482
-7.30221
-7.32033
-7.33917
-7.35872
-7.37896
-7.39988
-7.42145
-7.44367
-7.4665
-7.48993
-7.51393
-7.53846
-7.56349
-7.58899
-7.61491
-7.64122
-7.66787
-7.6948
-7.72197
-7.74931
-7.77675
-7.80422
-7.83164
-7.85893
-7.88598
-7.91271
-7.939
-7.96474
-7.98981
-8.01407
-8.0374
-8.05964
-8.08065
-8.10027
-8.11833
-8.13466
-8.14909
-8.16143
-8.17151
-8.17911
-8.18405
-8.18613
-8.18515
-8.18089
-8.17316
-8.16174
-8.14642
-8.127
-8.10326
-8.07501
-8.04204
-8.00415
-7.96114
-7.91282
-7.85902
-7.79955
-7.73424
-7.66294
-7.58547
-7.50171
-7.41151
-7.31476
-7.21134
-7.10115
-6.98411
-6.86013
-6.72915
-6.59114
-6.44605
-6.29387
-6.13458
-5.96821
-5.79477
-5.6143
-5.42686
-5.23253
-5.03139
-4.82355
-4.60913
-4.38828
-4.16113
-3.92787
-3.68866
-3.44372
-3.19325
-2.93747
-2.67663
-2.41098
-2.14077
-1.86628
-1.5878
-1.30562
-1.02006
-0.731402
-0.439992
-0.146161
0.149768
0.447472
0.746648
1.04698
1.34811
1.64965
1.9513
2.2527
2.55354
2.85349
3.15222
3.44942
3.74479
4.03801
4.3288
4.61688
4.90198
5.18383
5.46219
5.73682
6.00752
6.27406
6.53626
6.79395
7.04696
7.29514
7.53836
7.77649
8.00942
8.23705
8.45929
8.67604
8.88725
9.09286
9.29282
9.48711
9.67569
9.85852
10.0356
10.2068
10.3723
10.5318
10.6855
10.8329
10.9745
11.1055
11.2416
11.3092
-7.04444
-7.04806
-7.05416
-7.05986
-7.06429
-7.06782
-7.07076
-7.0733
-7.0756
-7.07779
-7.07999
-7.08231
-7.08481
-7.08758
-7.09067
-7.09415
-7.09806
-7.10244
-7.10735
-7.11281
-7.11885
-7.12551
-7.13282
-7.14079
-7.14945
-7.1588
-7.16888
-7.17967
-7.1912
-7.20348
-7.21649
-7.23025
-7.24475
-7.26
-7.27598
-7.2927
-7.31014
-7.32831
-7.34719
-7.36677
-7.38704
-7.40799
-7.42959
-7.45185
-7.47472
-7.4982
-7.52225
-7.54685
-7.57195
-7.59753
-7.62354
-7.64995
-7.67672
-7.70378
-7.73108
-7.75857
-7.78617
-7.81381
-7.84141
-7.86888
-7.89613
-7.92305
-7.94954
-7.97548
-8.00074
-8.0252
-8.04871
-8.07112
-8.0923
-8.11207
-8.13027
-8.14673
-8.16127
-8.17371
-8.18386
-8.19152
-8.1965
-8.1986
-8.19762
-8.19334
-8.18557
-8.1741
-8.15871
-8.13919
-8.11535
-8.08698
-8.05387
-8.01583
-7.97266
-7.92418
-7.8702
-7.81054
-7.74504
-7.67354
-7.59588
-7.51192
-7.42152
-7.32458
-7.22097
-7.11059
-6.99336
-6.86921
-6.73807
-6.5999
-6.45466
-6.30233
-6.14292
-5.97642
-5.80287
-5.6223
-5.43478
-5.24038
-5.03919
-4.8313
-4.61686
-4.39599
-4.16885
-3.9356
-3.69643
-3.45153
-3.20112
-2.94542
-2.68467
-2.41911
-2.14901
-1.87464
-1.59629
-1.31426
-1.02884
-0.74035
-0.449119
-0.155471
0.140275
0.437793
0.736786
1.03694
1.33788
1.63923
1.94069
2.24191
2.54257
2.84234
3.14091
3.43795
3.73316
4.02623
4.31689
4.60484
4.88981
5.17155
5.44981
5.72435
5.99496
6.26143
6.52357
6.7812
7.03416
7.2823
7.52549
7.7636
7.99652
8.22414
8.44638
8.66315
8.87438
9.08002
9.28001
9.47432
9.6629
9.84572
10.0227
10.1939
10.3591
10.5183
10.6715
10.8179
10.9583
11.0873
11.2215
11.2839
-7.04499
-7.04855
-7.05458
-7.06038
-7.06501
-7.06875
-7.07191
-7.07469
-7.07723
-7.07967
-7.08213
-7.0847
-7.08747
-7.09051
-7.09387
-7.09762
-7.1018
-7.10646
-7.11162
-7.11734
-7.12362
-7.13051
-7.13803
-7.14621
-7.15505
-7.16457
-7.1748
-7.18574
-7.1974
-7.20978
-7.2229
-7.23675
-7.25134
-7.26666
-7.28272
-7.29951
-7.31702
-7.33525
-7.3542
-7.37385
-7.3942
-7.41523
-7.43692
-7.45927
-7.48224
-7.50582
-7.52997
-7.55468
-7.57991
-7.60564
-7.63181
-7.65839
-7.68533
-7.71257
-7.74006
-7.76773
-7.79553
-7.82336
-7.85116
-7.87883
-7.90627
-7.93338
-7.96006
-7.98617
-8.0116
-8.0362
-8.05985
-8.08239
-8.10367
-8.12353
-8.14179
-8.1583
-8.17286
-8.1853
-8.19543
-8.20305
-8.20796
-8.20998
-8.20888
-8.20448
-8.19656
-8.18491
-8.16933
-8.14962
-8.12555
-8.09694
-8.06359
-8.02528
-7.98185
-7.93308
-7.87882
-7.81888
-7.75309
-7.68129
-7.60334
-7.51909
-7.42842
-7.3312
-7.22732
-7.11668
-6.9992
-6.8748
-6.74343
-6.60503
-6.45959
-6.30706
-6.14747
-5.9808
-5.8071
-5.6264
-5.43876
-5.24425
-5.04297
-4.83503
-4.62054
-4.39964
-4.17249
-3.93925
-3.70011
-3.45526
-3.20491
-2.94929
-2.68863
-2.42319
-2.15322
-1.879
-1.6008
-1.31893
-1.03369
-0.745393
-0.454365
-0.16092
0.134615
0.431912
0.730697
1.03063
1.33133
1.63245
1.93367
2.23467
2.53511
2.83466
3.13301
3.42984
3.72485
4.01774
4.3082
4.59598
4.88078
5.16236
5.44047
5.71487
5.98534
6.25169
6.51371
6.77124
7.0241
7.27216
7.51527
7.75332
7.98618
8.21376
8.43597
8.65271
8.86393
9.06955
9.26954
9.46384
9.65239
9.83516
10.0121
10.1831
10.3481
10.5069
10.6594
10.805
10.944
11.0712
11.2036
11.2617
-7.04741
-7.0508
-7.05659
-7.06231
-7.06698
-7.07081
-7.07409
-7.077
-7.07968
-7.08228
-7.08491
-7.08765
-7.09059
-7.0938
-7.09733
-7.10125
-7.10559
-7.11039
-7.1157
-7.12155
-7.12797
-7.13498
-7.14261
-7.15089
-7.15984
-7.16946
-7.17977
-7.19079
-7.20252
-7.21497
-7.22815
-7.24206
-7.25671
-7.2721
-7.28822
-7.30507
-7.32266
-7.34098
-7.36002
-7.37977
-7.40022
-7.42136
-7.44316
-7.46562
-7.48872
-7.51243
-7.53673
-7.5616
-7.58701
-7.61292
-7.63929
-7.66606
-7.6932
-7.72064
-7.74832
-7.77618
-7.80416
-7.83217
-7.86014
-7.88797
-7.91557
-7.94282
-7.96961
-7.99583
-8.02134
-8.04601
-8.0697
-8.09226
-8.11354
-8.13337
-8.15158
-8.16801
-8.18247
-8.19479
-8.20476
-8.21221
-8.21693
-8.21873
-8.2174
-8.21274
-8.20454
-8.1926
-8.17671
-8.15668
-8.13228
-8.10333
-8.06961
-8.03095
-7.98715
-7.93802
-7.88339
-7.82308
-7.75692
-7.68476
-7.60646
-7.52187
-7.43086
-7.33331
-7.22911
-7.11817
-7.00039
-6.87572
-6.74409
-6.60545
-6.45977
-6.30705
-6.14726
-5.98043
-5.80657
-5.62574
-5.43799
-5.2434
-5.04205
-4.83406
-4.61955
-4.39865
-4.17152
-3.93833
-3.69925
-3.45448
-3.20423
-2.94873
-2.68822
-2.42293
-2.15314
-1.8791
-1.60111
-1.31946
-1.03446
-0.746416
-0.45564
-0.162452
0.132807
0.429829
0.728352
1.028
1.32839
1.62921
1.93014
2.23084
2.53099
2.83026
3.12834
3.4249
3.71965
4.01227
4.3025
4.59003
4.87461
5.15597
5.43387
5.70807
5.97836
6.24453
6.50638
6.76375
7.01648
7.2644
7.50739
7.74533
7.9781
8.20559
8.42773
8.64442
8.85559
9.06117
9.26112
9.45538
9.64388
9.82657
10.0034
10.1742
10.3389
10.4973
10.6491
10.7938
10.9315
11.057
11.1876
11.2423
-7.05146
-7.05462
-7.06004
-7.06553
-7.0701
-7.07389
-7.07716
-7.08008
-7.0828
-7.08544
-7.08811
-7.09091
-7.09391
-7.09717
-7.10076
-7.10472
-7.10911
-7.11396
-7.11931
-7.1252
-7.13166
-7.1387
-7.14637
-7.15467
-7.16363
-7.17327
-7.1836
-7.19464
-7.20639
-7.21886
-7.23207
-7.24601
-7.26071
-7.27614
-7.29232
-7.30925
-7.32691
-7.3453
-7.36442
-7.38427
-7.40482
-7.42607
-7.44799
-7.47058
-7.49382
-7.5177
-7.54217
-7.56723
-7.59282
-7.61891
-7.64545
-7.6724
-7.6997
-7.72729
-7.75511
-7.78309
-7.81118
-7.83929
-7.86734
-7.89523
-7.92287
-7.95015
-7.97694
-8.00313
-8.02858
-8.05318
-8.07676
-8.09918
-8.1203
-8.13994
-8.15794
-8.17414
-8.18834
-8.20038
-8.21005
-8.21718
-8.22156
-8.223
-8.2213
-8.21625
-8.20765
-8.19531
-8.179
-8.15854
-8.13372
-8.10433
-8.07019
-8.0311
-7.98687
-7.93732
-7.88226
-7.82154
-7.75498
-7.68243
-7.60376
-7.5188
-7.42744
-7.32956
-7.22504
-7.11379
-6.99574
-6.8708
-6.73893
-6.60007
-6.45419
-6.30128
-6.14133
-5.97437
-5.8004
-5.61948
-5.43167
-5.23704
-5.03568
-4.8277
-4.61322
-4.39239
-4.16534
-3.93225
-3.6933
-3.44869
-3.19862
-2.94332
-2.68302
-2.41798
-2.14845
-1.87468
-1.59698
-1.31564
-1.03097
-0.743253
-0.452805
-0.159968
0.134922
0.431599
0.729775
1.02904
1.32903
1.62947
1.93002
2.23035
2.53013
2.82904
3.12676
3.42297
3.71738
4.00968
4.29958
4.58681
4.87109
5.15217
5.42979
5.70374
5.97377
6.23971
6.50134
6.7585
7.01103
7.25878
7.50161
7.73939
7.97203
8.19941
8.42144
8.63804
8.84913
9.05466
9.25455
9.44874
9.63717
9.81975
9.9964
10.167
10.3314
10.4893
10.6405
10.7842
10.9207
11.0445
11.1734
11.2254
-7.05688
-7.05977
-7.06474
-7.06988
-7.07422
-7.07783
-7.08094
-7.08374
-7.08634
-7.08889
-7.09147
-7.09419
-7.09711
-7.10031
-7.10385
-7.10776
-7.11211
-7.11691
-7.12222
-7.12807
-7.13448
-7.14148
-7.14909
-7.15735
-7.16627
-7.17586
-7.18616
-7.19716
-7.20888
-7.22133
-7.23453
-7.24846
-7.26315
-7.2786
-7.2948
-7.31176
-7.32946
-7.34791
-7.36709
-7.387
-7.40764
-7.42899
-7.45103
-7.47376
-7.49714
-7.52115
-7.54575
-7.57092
-7.59662
-7.6228
-7.64942
-7.67643
-7.70376
-7.73137
-7.75918
-7.78714
-7.81519
-7.84324
-7.8712
-7.89898
-7.92648
-7.95359
-7.98019
-8.00615
-8.03136
-8.05568
-8.07896
-8.10106
-8.12183
-8.14111
-8.15873
-8.17451
-8.1883
-8.1999
-8.20913
-8.21579
-8.21971
-8.22067
-8.21849
-8.21295
-8.20387
-8.19103
-8.17423
-8.15328
-8.12797
-8.09811
-8.06349
-8.02393
-7.97924
-7.92925
-7.87376
-7.81262
-7.74567
-7.67274
-7.5937
-7.5084
-7.41672
-7.31853
-7.21373
-7.10223
-6.98394
-6.85879
-6.72673
-6.5877
-6.44169
-6.28867
-6.12865
-5.96162
-5.78763
-5.60671
-5.41892
-5.22434
-5.02307
-4.81519
-4.60086
-4.38019
-4.15333
-3.92046
-3.68175
-3.4374
-3.18762
-2.93263
-2.67267
-2.40798
-2.13882
-1.86545
-1.58816
-1.30725
-1.023
-0.735714
-0.445718
-0.153356
0.14106
0.437301
0.735011
1.03376
1.33326
1.63321
1.93328
2.23314
2.53245
2.8309
3.12816
3.42393
3.71791
4.0098
4.2993
4.58614
4.87004
5.15076
5.42804
5.70165
5.97138
6.23702
6.49837
6.75527
7.00756
7.25508
7.4977
7.73529
7.96775
8.19498
8.41688
8.63337
8.84437
9.04981
9.24963
9.44374
9.63208
9.81455
9.99103
10.1614
10.3254
10.4829
10.6334
10.7761
10.9115
11.0338
11.1609
11.2109
-7.06371
-7.06631
-7.07081
-7.0755
-7.07945
-7.0827
-7.08548
-7.08795
-7.09027
-7.09254
-7.09488
-7.09738
-7.10012
-7.10315
-7.10653
-7.1103
-7.1145
-7.11918
-7.12437
-7.13008
-7.13636
-7.14323
-7.15072
-7.15885
-7.16764
-7.17711
-7.18728
-7.19817
-7.20978
-7.22213
-7.23523
-7.24909
-7.2637
-7.27908
-7.29521
-7.31212
-7.32979
-7.34822
-7.3674
-7.38733
-7.40798
-7.42935
-7.45141
-7.47414
-7.49751
-7.52149
-7.54605
-7.57116
-7.59676
-7.62283
-7.64931
-7.67615
-7.70329
-7.73069
-7.75827
-7.786
-7.81378
-7.84154
-7.86919
-7.89663
-7.92375
-7.95045
-7.97661
-8.00212
-8.02685
-8.05067
-8.07344
-8.09501
-8.11524
-8.13396
-8.15101
-8.16624
-8.17945
-8.19047
-8.19913
-8.20522
-8.20856
-8.20895
-8.20621
-8.20011
-8.19048
-8.1771
-8.15978
-8.13831
-8.1125
-8.08215
-8.04706
-8.00705
-7.96193
-7.91153
-7.85566
-7.79416
-7.72687
-7.65362
-7.57428
-7.48871
-7.39678
-7.29837
-7.19338
-7.08171
-6.96329
-6.83803
-6.70589
-6.56682
-6.42078
-6.26778