/*--------------------------------*- C++ -*----------------------------------*\
| =========                 |                                                 |
| \\      /  F ield         | OpenFOAM: The Open Source CFD Toolbox           |
|  \\    /   O peration     | Version:  2406                                  |
|   \\  /    A nd           | Website:  www.openfoam.com                      |
|    \\/     M anipulation  |                                                 |
\*---------------------------------------------------------------------------*/
FoamFile
{
    version     2.0;
    format      ascii;
    arch        "LSB;label=32;scalar=64";
    class       surfaceScalarField;
    location    "281";
    object      phi;
}
// * * * * * * * * * * * * * * * * * * * * * * * * * * * * * * * * * * * * * //

dimensions      [0 3 -1 0 0 0 0];

oriented        oriented;

internalField   nonuniform List<scalar> 
24170
(
3.11644e-06
7.19616e-08
3.01269e-06
1.0376e-07
2.91728e-06
9.54097e-08
2.82625e-06
9.10259e-08
2.74024e-06
8.60092e-08
2.66274e-06
7.75057e-08
2.59485e-06
6.78875e-08
2.53594e-06
5.89091e-08
2.48489e-06
5.10452e-08
2.44063e-06
4.4266e-08
2.40218e-06
3.84457e-08
2.36874e-06
3.34413e-08
2.33964e-06
2.91053e-08
2.31432e-06
2.53149e-08
2.29249e-06
2.18301e-08
2.27366e-06
1.88264e-08
2.25763e-06
1.60331e-08
1.26663e-08
2.24496e-06
3.46686e-06
2.23489e-08
3.48677e-06
8.38531e-08
3.49349e-06
8.86962e-08
3.49229e-06
9.22289e-08
3.48432e-06
9.39762e-08
3.47072e-06
9.11099e-08
3.45278e-06
8.5825e-08
3.43174e-06
7.99511e-08
3.4087e-06
7.40829e-08
3.38457e-06
6.83974e-08
3.36005e-06
6.29632e-08
3.33565e-06
5.78374e-08
3.31176e-06
5.30042e-08
3.28862e-06
4.84511e-08
3.26644e-06
4.40088e-08
3.24544e-06
3.98296e-08
3.22638e-06
3.50862e-08
2.88411e-08
3.21021e-06
3.66722e-06
1.76452e-08
3.68039e-06
7.06837e-08
3.69009e-06
7.89936e-08
3.70005e-06
8.22709e-08
3.70916e-06
8.48647e-08
3.71624e-06
8.40286e-08
3.7212e-06
8.08635e-08
3.72425e-06
7.69102e-08
3.7256e-06
7.27285e-08
3.72552e-06
6.84718e-08
3.72427e-06
6.42175e-08
3.72207e-06
6.00388e-08
3.71912e-06
5.59505e-08
3.71563e-06
5.19409e-08
3.71174e-06
4.79056e-08
3.70779e-06
4.37789e-08
3.7038e-06
3.90717e-08
3.32234e-08
3.69942e-06
3.92502e-06
1.80143e-08
3.93555e-06
6.01505e-08
3.94312e-06
7.14302e-08
3.95015e-06
7.52395e-08
3.95683e-06
7.81856e-08
3.96262e-06
7.82398e-08
3.96758e-06
7.59028e-08
3.97191e-06
7.25843e-08
3.97569e-06
6.89437e-08
3.97899e-06
6.51688e-08
3.98187e-06
6.13413e-08
3.98438e-06
5.75302e-08
3.98658e-06
5.37534e-08
3.98852e-06
4.99916e-08
3.99027e-06
4.61556e-08
3.99192e-06
4.21371e-08
3.9933e-06
3.76904e-08
3.25123e-08
3.99401e-06
4.20803e-06
1.71107e-08
4.21607e-06
5.21069e-08
4.22223e-06
6.52706e-08
4.22774e-06
6.9736e-08
4.23318e-06
7.27427e-08
4.23821e-06
7.32113e-08
4.24273e-06
7.13755e-08
4.24686e-06
6.84611e-08
4.25065e-06
6.51543e-08
4.25415e-06
6.1666e-08
4.25741e-06
5.80837e-08
4.26046e-06
5.44749e-08
4.26335e-06
5.08627e-08
4.26612e-06
4.72289e-08
4.26877e-06
4.35028e-08
4.27131e-06
3.9595e-08
4.27363e-06
3.53698e-08
3.06921e-08
4.27545e-06
4.51074e-06
1.54582e-08
4.51711e-06
4.57317e-08
4.52281e-06
5.95795e-08
4.52795e-06
6.45927e-08
4.53309e-06
6.76041e-08
4.53795e-06
6.83513e-08
4.54238e-06
6.69462e-08
4.54643e-06
6.44086e-08
4.55018e-06
6.14033e-08
4.55369e-06
5.81615e-08
4.55699e-06
5.47829e-08
4.56012e-06
5.13379e-08
4.56313e-06
4.78577e-08
4.56603e-06
4.43311e-08
4.56882e-06
4.07106e-08
4.57148e-06
3.69336e-08
4.57392e-06
3.29318e-08
2.8672e-08
4.57594e-06
4.83439e-06
1.37921e-08
4.83991e-06
4.02071e-08
4.84553e-06
5.3963e-08
4.85064e-06
5.94742e-08
4.85571e-06
6.25417e-08
4.86054e-06
6.35204e-08
4.86498e-06
6.24994e-08
4.86908e-06
6.03159e-08
4.87288e-06
5.75959e-08
4.87646e-06
5.45878e-08
4.87984e-06
5.14041e-08
4.88305e-06
4.81197e-08
4.88614e-06
4.47744e-08
4.8891e-06
4.13676e-08
4.89194e-06
3.78741e-08
4.89461e-06
3.42587e-08
4.89704e-06
3.05004e-08
2.66232e-08
4.89909e-06
5.1811e-06
1.22688e-08
5.18607e-06
3.52389e-08
5.19158e-06
4.84571e-08
5.1967e-06
5.43496e-08
5.20176e-06
5.7484e-08
5.20664e-06
5.86417e-08
5.21118e-06
5.79544e-08
5.2154e-06
5.61012e-08
5.21934e-06
5.36577e-08
5.22304e-06
5.08826e-08
5.22655e-06
4.78988e-08
5.22988e-06
4.4786e-08
5.23306e-06
4.1592e-08
5.2361e-06
3.83288e-08
5.23898e-06
3.49909e-08
5.24168e-06
3.15675e-08
5.24411e-06
2.80673e-08
2.45378e-08
5.24619e-06
5.55276e-06
1.08501e-08
5.55723e-06
3.0761e-08
5.56253e-06
4.31625e-08
5.56763e-06
4.92428e-08
5.5727e-06
5.24119e-08
5.57766e-06
5.3689e-08
5.58233e-06
5.32808e-08
5.5867e-06
5.17316e-08
5.5908e-06
4.95552e-08
5.59467e-06
4.7014e-08
5.59833e-06
4.42383e-08
5.60181e-06
4.13119e-08
5.60511e-06
3.82897e-08
5.60824e-06
3.51961e-08
5.61119e-06
3.20419e-08
5.61392e-06
2.88357e-08
5.61639e-06
2.56023e-08
2.23989e-08
5.61852e-06
5.95111e-06
9.51526e-09
5.95514e-06
2.67277e-08
5.96018e-06
3.81257e-08
5.96524e-06
4.4182e-08
5.97031e-06
4.73376e-08
5.97532e-06
4.86789e-08
5.98011e-06
4.8491e-08
5.98463e-06
4.72114e-08
5.9889e-06
4.52868e-08
5.99294e-06
4.2976e-08
5.99676e-06
4.04137e-08
6.00039e-06
3.7687e-08
6.00382e-06
3.4856e-08
6.00706e-06
3.19557e-08
6.0101e-06
2.90096e-08
6.01289e-06
2.60396e-08
6.01542e-06
2.30784e-08
2.01849e-08
6.01763e-06
6.37806e-06
8.26503e-09
6.38171e-06
2.30828e-08
6.38648e-06
3.33563e-08
6.39146e-06
3.91926e-08
6.39652e-06
4.22787e-08
6.40157e-06
4.36363e-08
6.40645e-06
4.36096e-08
6.4111e-06
4.25599e-08
6.41552e-06
4.08675e-08
6.41971e-06
3.87794e-08
6.42369e-06
3.64324e-08
6.42747e-06
3.39152e-08
6.43103e-06
3.12913e-08
6.43438e-06
2.86036e-08
6.43751e-06
2.58844e-08
6.44038e-06
2.31637e-08
6.44299e-06
2.04766e-08
1.78793e-08
6.44529e-06
5.74183e-06
7.26752e-09
5.74464e-06
2.02695e-08
5.74847e-06
2.95307e-08
5.75262e-06
3.50443e-08
5.75687e-06
3.80242e-08
5.76114e-06
3.93643e-08
5.76532e-06
3.94306e-08
5.76934e-06
3.85428e-08
5.77318e-06
3.70306e-08
5.77683e-06
3.5124e-08
5.7803e-06
3.29587e-08
5.7836e-06
3.06237e-08
5.7867e-06
2.81843e-08
5.78962e-06
2.56876e-08
5.79233e-06
2.31703e-08
5.79483e-06
2.06663e-08
5.7971e-06
1.82099e-08
1.58551e-08
5.79912e-06
6.99922e-06
6.20024e-09
7.00221e-06
1.7279e-08
7.00637e-06
2.53748e-08
7.011e-06
3.0407e-08
7.01584e-06
3.31919e-08
7.02073e-06
3.44672e-08
7.02557e-06
3.45969e-08
7.03025e-06
3.38602e-08
7.03475e-06
3.2534e-08
7.03904e-06
3.08261e-08
7.04314e-06
2.88676e-08
7.04701e-06
2.67459e-08
7.05067e-06
2.45261e-08
7.0541e-06
2.22577e-08
7.05729e-06
1.99799e-08
7.06023e-06
1.77281e-08
7.06291e-06
1.55338e-08
1.3447e-08
7.06531e-06
8.53198e-06
5.07112e-09
8.53511e-06
1.41413e-08
8.53957e-06
2.09185e-08
8.54469e-06
2.52906e-08
8.55011e-06
2.77653e-08
8.55567e-06
2.89096e-08
8.56121e-06
2.90578e-08
8.56662e-06
2.84489e-08
8.57185e-06
2.73075e-08
8.57686e-06
2.58126e-08
8.58164e-06
2.40857e-08
8.58618e-06
2.22098e-08
8.59045e-06
2.02474e-08
8.59447e-06
1.82472e-08
8.5982e-06
1.62483e-08
8.60164e-06
1.42848e-08
8.60479e-06
1.23843e-08
1.05909e-08
8.60765e-06
1.04004e-05
3.89113e-09
1.04037e-05
1.08793e-08
1.04084e-05
1.61875e-08
1.0414e-05
1.97088e-08
1.042e-05
2.17336e-08
1.04263e-05
2.26601e-08
1.04325e-05
2.2766e-08
1.04387e-05
2.22479e-08
1.04448e-05
2.12801e-08
1.04506e-05
2.00074e-08
1.04561e-05
1.85348e-08
1.04614e-05
1.69369e-08
1.04664e-05
1.527e-08
1.0471e-05
1.35784e-08
1.04754e-05
1.18981e-08
1.04794e-05
1.0259e-08
1.04831e-05
8.68378e-09
7.20981e-09
1.04865e-05
1.2678e-05
2.66785e-09
1.26814e-05
7.49161e-09
1.26864e-05
1.11841e-08
1.26924e-05
1.36624e-08
1.26991e-05
1.50767e-08
1.27061e-05
1.5677e-08
1.27132e-05
1.56649e-08
1.27202e-05
1.51881e-08
1.27272e-05
1.4372e-08
1.27338e-05
1.33233e-08
1.27403e-05
1.21237e-08
1.27464e-05
1.08333e-08
1.27521e-05
9.49808e-09
1.27576e-05
8.15427e-09
1.27626e-05
6.83092e-09
1.27673e-05
5.55197e-09
1.27717e-05
4.33376e-09
3.2067e-09
1.27757e-05
1.54545e-05
1.39286e-09
1.5458e-05
3.9353e-09
1.54633e-05
5.85422e-09
1.54699e-05
7.09601e-09
1.54773e-05
7.72596e-09
1.54851e-05
7.87419e-09
1.54931e-05
7.65658e-09
1.55011e-05
7.16295e-09
1.5509e-05
6.46906e-09
1.55167e-05
5.64006e-09
1.55241e-05
4.72787e-09
1.55311e-05
3.7719e-09
1.55378e-05
2.80254e-09
1.55441e-05
1.84396e-09
1.55501e-05
9.15374e-10
1.55556e-05
3.23766e-11
1.55607e-05
-7.95555e-10
-1.54562e-09
1.55655e-05
1.8839e-05
2.68214e-11
1.88429e-05
8.56972e-11
1.88487e-05
2.16298e-11
1.8856e-05
-1.86283e-10
1.88642e-05
-5.23732e-10
1.88731e-05
-9.61e-10
1.88822e-05
-1.47404e-09
1.88914e-05
-2.04078e-09
1.89005e-05
-2.63902e-09
1.89094e-05
-3.24928e-09
1.8918e-05
-3.85615e-09
1.89262e-05
-4.44744e-09
1.8934e-05
-5.01314e-09
1.89414e-05
-5.54498e-09
1.89483e-05
-6.03636e-09
1.89549e-05
-6.48179e-09
1.89609e-05
-6.87932e-09
-7.21436e-09
1.89666e-05
2.29649e-05
-1.53184e-09
2.29693e-05
-4.35235e-09
2.29761e-05
-6.74876e-09
2.29846e-05
-8.68816e-09
2.29943e-05
-1.01885e-08
2.30046e-05
-1.13357e-08
2.30154e-05
-1.22192e-08
2.30262e-05
-1.28932e-08
2.3037e-05
-1.33946e-08
2.30475e-05
-1.37585e-08
2.30577e-05
-1.40156e-08
2.30674e-05
-1.4188e-08
2.30767e-05
-1.42909e-08
2.30855e-05
-1.43354e-08
2.30938e-05
-1.43301e-08
2.31016e-05
-1.4281e-08
2.31089e-05
-1.41943e-08
-1.4064e-08
2.31157e-05
1.68119e-05
-2.73737e-09
1.68153e-05
-7.76489e-09
1.68205e-05
-1.19702e-08
1.68271e-05
-1.52071e-08
1.68344e-05
-1.75179e-08
1.68422e-05
-1.91359e-08
1.68502e-05
-2.02545e-08
1.68583e-05
-2.09734e-08
1.68663e-05
-2.13701e-08
1.6874e-05
-2.15245e-08
1.68815e-05
-2.15023e-08
1.68887e-05
-2.135e-08
1.68955e-05
-2.11007e-08
1.69019e-05
-2.078e-08
1.6908e-05
-2.04068e-08
1.69137e-05
-1.99949e-08
1.69191e-05
-1.9555e-08
-1.90866e-08
1.69241e-05
1.46357e-05
-3.87377e-09
1.4639e-05
-1.10367e-08
1.4644e-05
-1.70154e-08
1.46502e-05
-2.14098e-08
1.46571e-05
-2.43584e-08
1.46643e-05
-2.63341e-08
1.46716e-05
-2.76112e-08
1.4679e-05
-2.83088e-08
1.46861e-05
-2.85538e-08
1.46931e-05
-2.84771e-08
1.46998e-05
-2.81744e-08
1.47061e-05
-2.77092e-08
1.47121e-05
-2.71294e-08
1.47178e-05
-2.64726e-08
1.47232e-05
-2.57664e-08
1.47282e-05
-2.50304e-08
1.4733e-05
-2.42793e-08
-2.35162e-08
1.47374e-05
1.27412e-05
-4.90189e-09
1.27444e-05
-1.42914e-08
1.27495e-05
-2.21365e-08
1.27556e-05
-2.74608e-08
1.27621e-05
-3.08267e-08
1.27688e-05
-3.3078e-08
1.27756e-05
-3.44588e-08
1.27824e-05
-3.50686e-08
1.2789e-05
-3.51087e-08
1.27953e-05
-3.47705e-08
1.28012e-05
-3.41729e-08
1.28069e-05
-3.3393e-08
1.28123e-05
-3.24915e-08
1.28173e-05
-3.15159e-08
1.28221e-05
-3.05003e-08
1.28265e-05
-2.94669e-08
1.28307e-05
-2.84312e-08
-2.73971e-08
1.28345e-05
1.10917e-05
-5.69186e-09
1.1095e-05
-1.75693e-08
1.11004e-05
-2.75384e-08
1.11064e-05
-3.34474e-08
1.11125e-05
-3.6981e-08
1.11189e-05
-3.94226e-08
1.11253e-05
-4.08306e-08
1.11315e-05
-4.12898e-08
1.11375e-05
-4.10968e-08
1.11432e-05
-4.04882e-08
1.11486e-05
-3.95932e-08
1.11537e-05
-3.85011e-08
1.11585e-05
-3.72868e-08
1.1163e-05
-3.60079e-08
1.11672e-05
-3.47031e-08
1.11711e-05
-3.33982e-08
1.11748e-05
-3.21116e-08
-3.08518e-08
1.11783e-05
9.65567e-06
-6.14846e-09
9.65906e-06
-2.09629e-08
9.66466e-06
-3.31315e-08
9.67045e-06
-3.92393e-08
9.67637e-06
-4.29018e-08
9.68243e-06
-4.54861e-08
9.68839e-06
-4.67849e-08
9.6941e-06
-4.69979e-08
9.69954e-06
-4.65401e-08
9.70471e-06
-4.56591e-08
9.70959e-06
-4.44752e-08
9.71418e-06
-4.30867e-08
9.71847e-06
-4.15803e-08
9.72248e-06
-4.00218e-08
9.72623e-06
-3.84529e-08
9.72973e-06
-3.69004e-08
9.733e-06
-3.53773e-08
-3.3878e-08
9.73603e-06
8.40505e-06
-5.84201e-09
8.40934e-06
-2.52548e-08
8.41475e-06
-3.85413e-08
8.41986e-06
-4.43519e-08
8.42544e-06
-4.84827e-08
8.43131e-06
-5.13601e-08
8.43704e-06
-5.25146e-08
8.44248e-06
-5.24372e-08
8.44763e-06
-5.16834e-08
8.45247e-06
-5.05025e-08
8.45701e-06
-4.90109e-08
8.46124e-06
-4.73179e-08
8.46518e-06
-4.552e-08
8.46884e-06
-4.36883e-08
8.47226e-06
-4.18672e-08
8.47544e-06
-4.00856e-08
8.47843e-06
-3.8368e-08
-3.67244e-08
8.48128e-06
7.31386e-06
-2.41489e-09
7.32071e-06
-3.2108e-08
7.3265e-06
-4.43324e-08
7.33132e-06
-4.91752e-08
7.33671e-06
-5.3872e-08
7.34239e-06
-5.70319e-08
7.34793e-06
-5.80584e-08
7.35325e-06
-5.77571e-08
7.35832e-06
-5.67541e-08
7.3631e-06
-5.52824e-08
7.36756e-06
-5.34755e-08
7.37171e-06
-5.14638e-08
7.37555e-06
-4.93604e-08
7.3791e-06
-4.7241e-08
7.38239e-06
-4.51554e-08
7.38544e-06
-4.31334e-08
7.38826e-06
-4.11856e-08
-3.9261e-08
7.39079e-06
6.36063e-06
7.02383e-09
6.37028e-06
-4.17649e-08
6.37818e-06
-5.22235e-08
6.38526e-06
-5.62592e-08
6.39239e-06
-6.10004e-08
6.39901e-06
-6.36532e-08
6.40501e-06
-6.40541e-08
6.41056e-06
-6.33125e-08
6.41577e-06
-6.1962e-08
6.42062e-06
-6.0138e-08
6.42511e-06
-5.79664e-08
6.42924e-06
-5.55888e-08
6.43301e-06
-5.31334e-08
6.43645e-06
-5.06773e-08
6.43957e-06
-4.82785e-08
6.44242e-06
-4.5978e-08
6.44504e-06
-4.38074e-08
-4.17934e-08
6.44757e-06
5.53889e-06
1.35963e-08
5.54754e-06
-5.04128e-08
5.5559e-06
-6.05873e-08
5.56614e-06
-6.64978e-08
5.57735e-06
-7.22041e-08
5.58784e-06
-7.41498e-08
5.59706e-06
-7.3275e-08
5.60503e-06
-7.12748e-08
5.6118e-06
-6.87361e-08
5.61746e-06
-6.57994e-08
5.62208e-06
-6.2588e-08
5.62575e-06
-5.92573e-08
5.62856e-06
-5.59424e-08
5.6306e-06
-5.27181e-08
5.63196e-06
-4.9636e-08
5.63275e-06
-4.67652e-08
5.63306e-06
-4.41162e-08
-4.17816e-08
5.63304e-06
4.87081e-06
-2.96045e-08
4.8865e-06
-6.61087e-08
4.89726e-06
-7.13398e-08
4.906e-06
-7.52397e-08
4.91305e-06
-7.92583e-08
4.91734e-06
-7.84326e-08
4.91817e-06
-7.41112e-08
4.91544e-06
-6.85451e-08
4.90946e-06
-6.27542e-08
4.90074e-06
-5.70791e-08
4.88984e-06
-5.16905e-08
4.87727e-06
-4.66881e-08
4.86348e-06
-4.21531e-08
4.84884e-06
-3.80779e-08
4.83366e-06
-3.44487e-08
4.81818e-06
-3.12888e-08
4.80268e-06
-2.86138e-08
-2.69205e-08
4.78782e-06
4.17307e-06
4.10696e-06
4.03562e-06
3.96038e-06
3.88113e-06
3.80269e-06
3.72858e-06
3.66004e-06
3.59728e-06
3.5402e-06
3.48851e-06
3.44182e-06
3.39967e-06
3.36159e-06
3.32714e-06
3.29586e-06
3.26724e-06
3.24032e-06
5.8897e-09
-5.89261e-09
1.77773e-08
-1.18918e-08
3.15481e-08
-1.3775e-08
4.484e-08
-1.32952e-08
5.62955e-08
-1.14594e-08
6.5252e-08
-8.95964e-09
7.14878e-08
-6.23986e-09
7.50391e-08
-3.55458e-09
7.60792e-08
-1.04438e-09
7.48938e-08
1.182e-09
7.18571e-08
3.03215e-09
6.73566e-08
4.49695e-09
6.16997e-08
5.65202e-09
5.50944e-08
6.60142e-09
4.76375e-08
7.45153e-09
3.93401e-08
8.29323e-09
3.01449e-08
9.18927e-09
1.99638e-08
1.01766e-08
8.69917e-09
1.12582e-08
-3.75868e-09
1.24532e-08
-1.76378e-08
1.38728e-08
-3.31394e-08
1.54973e-08
-5.03995e-08
1.72541e-08
-6.95723e-08
1.91688e-08
-9.08161e-08
2.12378e-08
-1.14261e-07
2.34407e-08
-1.40013e-07
2.57456e-08
-1.68129e-07
2.81116e-08
-1.98626e-07
3.04904e-08
-2.31458e-07
3.28268e-08
-2.66527e-07
3.50632e-08
-3.03688e-07
3.71559e-08
-3.42767e-07
3.90734e-08
-3.83564e-07
4.07925e-08
-4.25867e-07
4.22975e-08
-4.69448e-07
4.35764e-08
-5.14079e-07
4.46272e-08
-5.5954e-07
4.54565e-08
-6.05621e-07
4.6077e-08
-6.5213e-07
4.65057e-08
-6.98896e-07
4.6762e-08
-7.45766e-07
4.68674e-08
-7.92613e-07
4.68437e-08
-8.39328e-07
4.67122e-08
-8.85824e-07
4.64935e-08
-9.32037e-07
4.62103e-08
-9.77931e-07
4.58917e-08
-1.02351e-06
4.55734e-08
-1.06878e-06
4.52746e-08
-1.11378e-06
4.49912e-08
-1.1585e-06
4.47196e-08
-1.20296e-06
4.44577e-08
-1.24717e-06
4.42036e-08
-1.29113e-06
4.39559e-08
-1.33484e-06
4.37126e-08
-1.37832e-06
4.34716e-08
-1.42155e-06
4.32308e-08
-1.46455e-06
4.29875e-08
-1.50729e-06
4.27391e-08
-1.54978e-06
4.24826e-08
-1.592e-06
4.22152e-08
-1.63393e-06
4.19337e-08
-1.67557e-06
4.16353e-08
-1.71689e-06
4.13169e-08
-1.75787e-06
4.09758e-08
-1.79848e-06
4.06091e-08
-1.8387e-06
4.02145e-08
-1.8785e-06
3.97892e-08
-1.91783e-06
3.93312e-08
-1.95667e-06
3.88382e-08
-1.99498e-06
3.83085e-08
-2.03273e-06
3.77401e-08
-2.06986e-06
3.71318e-08
-2.10635e-06
3.64818e-08
-2.14214e-06
3.57893e-08
-2.17719e-06
3.50531e-08
-2.21147e-06
3.42726e-08
-2.24492e-06
3.34471e-08
-2.2775e-06
3.25765e-08
-2.30917e-06
3.16601e-08
-2.33987e-06
3.06981e-08
-2.36956e-06
2.96904e-08
-2.3982e-06
2.86374e-08
-2.42575e-06
2.7539e-08
-2.45215e-06
2.63959e-08
-2.47736e-06
2.52084e-08
-2.50134e-06
2.39775e-08
-2.52404e-06
2.27032e-08
-2.54543e-06
2.13863e-08
-2.56545e-06
2.0027e-08
-2.58408e-06
1.86247e-08
-2.60126e-06
1.71791e-08
-2.61695e-06
1.56887e-08
-2.6311e-06
1.41514e-08
-2.64367e-06
1.2563e-08
-2.65459e-06
1.09185e-08
-2.6638e-06
9.21105e-09
-2.67124e-06
7.43042e-09
-2.6768e-06
5.5601e-09
-2.68039e-06
3.58293e-09
-2.68192e-06
1.51822e-09
-2.68141e-06
-5.14451e-10
-2.67907e-06
-2.34769e-09
-2.67506e-06
-4.02123e-09
-2.6694e-06
-5.6637e-09
-2.66211e-06
-7.3e-09
-2.65318e-06
-8.94007e-09
-2.64261e-06
-1.05856e-08
-2.63038e-06
-1.22352e-08
-2.6165e-06
-1.3888e-08
-2.60096e-06
-1.55413e-08
-2.58377e-06
-1.71941e-08
-2.56493e-06
-1.88433e-08
-2.54445e-06
-2.04879e-08
-2.52233e-06
-2.21247e-08
-2.49858e-06
-2.37528e-08
-2.47321e-06
-2.53689e-08
-2.44624e-06
-2.6972e-08
-2.41768e-06
-2.85592e-08
-2.38755e-06
-3.01294e-08
-2.35587e-06
-3.16801e-08
-2.32266e-06
-3.32099e-08
-2.28795e-06
-3.47154e-08
-2.25176e-06
-3.61952e-08
-2.21412e-06
-3.76457e-08
-2.17505e-06
-3.9066e-08
-2.1346e-06
-4.04531e-08
-2.09279e-06
-4.18066e-08
-2.04966e-06
-4.31239e-08
-2.00525e-06
-4.44054e-08
-1.95959e-06
-4.56493e-08
-1.91272e-06
-4.68549e-08
-1.86469e-06
-4.80198e-08
-1.81553e-06
-4.91455e-08
-1.76529e-06
-5.02255e-08
-1.71402e-06
-5.12538e-08
-1.66176e-06
-5.22362e-08
-1.60857e-06
-5.3175e-08
-1.55449e-06
-5.40645e-08
-1.49957e-06
-5.49021e-08
-1.44387e-06
-5.56875e-08
-1.38744e-06
-5.64204e-08
-1.33033e-06
-5.71004e-08
-1.27259e-06
-5.7727e-08
-1.21429e-06
-5.83001e-08
-1.15547e-06
-5.88193e-08
-1.09618e-06
-5.9285e-08
-1.03648e-06
-5.96971e-08
-9.76431e-07
-6.00562e-08
-9.16073e-07
-6.03626e-08
-8.55463e-07
-6.06176e-08
-7.94651e-07
-6.08217e-08
-7.33686e-07
-6.09766e-08
-6.72616e-07
-6.10834e-08
-6.11487e-07
-6.11439e-08
-5.50344e-07
-6.11598e-08
-4.8923e-07
-6.11331e-08
-4.28185e-07
-6.10655e-08
-3.67247e-07
-6.09588e-08
-3.06456e-07
-6.08136e-08
-2.45847e-07
-6.06319e-08
-1.85459e-07
-6.04118e-08
-1.25323e-07
-6.01605e-08
-6.54623e-08
-5.98861e-08
-5.97476e-09
-5.95126e-08
5.3172e-08
-5.91717e-08
1.11977e-07
-5.88292e-08
1.70318e-07
-5.83635e-08
2.28189e-07
-5.78931e-08
2.85591e-07
-5.74245e-08
3.42514e-07
-5.69428e-08
3.98916e-07
-5.64222e-08
4.54718e-07
-5.58212e-08
5.09767e-07
-5.50686e-08
5.6378e-07
-5.40299e-08
6.16183e-07
-5.24197e-08
6.65777e-07
-4.96093e-08
7.09586e-07
-4.38227e-08
7.40637e-07
-3.10624e-08
1.11301e-08
7.29496e-07
1.14271e-08
-1.73228e-08
2.3323e-08
-2.37915e-08
3.19416e-08
-2.23966e-08
3.74599e-08
-1.88156e-08
4.04481e-08
-1.44498e-08
4.12877e-08
-9.80107e-09
4.02038e-08
-5.15808e-09
3.73544e-08
-7.07019e-10
3.28684e-08
3.43943e-09
2.68279e-08
7.22052e-09
1.92411e-08
1.06167e-08
1.00849e-08
1.36511e-08
-6.60186e-10
1.63946e-08
-1.30134e-08
1.89525e-08
-2.70057e-08
2.14414e-08
-4.26821e-08
2.39675e-08
-6.01121e-08
2.66169e-08
-7.93847e-08
2.9447e-08
-1.00617e-07
3.24877e-08
-1.23921e-07
3.57552e-08
-1.49313e-07
3.92633e-08
-1.76822e-07
4.3004e-08
-2.06519e-07
4.69491e-08
-2.38411e-07
5.1059e-08
-2.72452e-07
5.52767e-08
-3.08543e-07
5.95298e-08
-3.46536e-07
6.37361e-08
-3.86238e-07
6.78104e-08
-4.27425e-07
7.16754e-08
-4.69871e-07
7.52702e-08
-5.13355e-07
7.85443e-08
-5.57655e-07
8.14539e-08
-6.02555e-07
8.39704e-08
-6.47847e-07
8.60818e-08
-6.93342e-07
8.77899e-08
-7.38873e-07
8.91053e-08
-7.84298e-07
9.005e-08
-8.29502e-07
9.06579e-08
-8.74395e-07
9.09681e-08
-9.18913e-07
9.10213e-08
-9.63012e-07
9.08589e-08
-1.00667e-06
9.05206e-08
-1.04987e-06
9.0044e-08
-1.09262e-06
8.94634e-08
-1.13494e-06
8.88104e-08
-1.17685e-06
8.8115e-08
-1.21836e-06
8.74059e-08
-1.2595e-06
8.67062e-08
-1.30025e-06
8.60272e-08
-1.34063e-06
8.53701e-08
-1.38065e-06
8.47342e-08
-1.42031e-06
8.41172e-08
-1.45962e-06
8.35161e-08
-1.4986e-06
8.29269e-08
-1.53723e-06
8.23452e-08
-1.57553e-06
8.17663e-08
-1.61349e-06
8.11849e-08
-1.6511e-06
8.05956e-08
-1.68835e-06
7.9993e-08
-1.72524e-06
7.93715e-08
-1.76176e-06
7.87256e-08
-1.79788e-06
7.80496e-08
-1.83358e-06
7.73384e-08
-1.86885e-06
7.65867e-08
-1.90367e-06
7.57897e-08
-1.93801e-06
7.49427e-08
-1.97183e-06
7.40414e-08
-2.00513e-06
7.30817e-08
-2.03786e-06
7.20598e-08
-2.07e-06
7.09724e-08
-2.10151e-06
6.98164e-08
-2.13236e-06
6.85891e-08
-2.16252e-06
6.72879e-08
-2.19195e-06
6.59108e-08
-2.22062e-06
6.44561e-08
-2.24849e-06
6.29223e-08
-2.27553e-06
6.13084e-08
-2.30169e-06
5.96134e-08
-2.32696e-06
5.7837e-08
-2.35128e-06
5.59788e-08
-2.37462e-06
5.4039e-08
-2.39695e-06
5.20175e-08
-2.41823e-06
4.99151e-08
-2.43843e-06
4.77322e-08
-2.4575e-06
4.54698e-08
-2.47543e-06
4.31288e-08
-2.49216e-06
4.07106e-08
-2.50768e-06
3.82162e-08
-2.52194e-06
3.56468e-08
-2.53491e-06
3.30032e-08
-2.54657e-06
3.02864e-08
-2.55689e-06
2.7497e-08
-2.56584e-06
2.46358e-08
-2.57339e-06
2.17035e-08
-2.57953e-06
1.87006e-08
-2.58425e-06
1.56283e-08
-2.58753e-06
1.24885e-08
-2.58938e-06
9.28487e-09
-2.58985e-06
6.02578e-09
-2.58901e-06
2.73635e-09
-2.58696e-06
-5.36537e-10
-2.58372e-06
-3.75808e-09
-2.57912e-06
-6.95404e-09
-2.57299e-06
-1.01612e-08
-2.56528e-06
-1.33829e-08
-2.55596e-06
-1.66187e-08
-2.54504e-06
-1.98692e-08
-2.5325e-06
-2.31322e-08
-2.51834e-06
-2.64047e-08
-2.50254e-06
-2.96831e-08
-2.48513e-06
-3.29634e-08
-2.46608e-06
-3.62417e-08
-2.44541e-06
-3.95138e-08
-2.42313e-06
-4.27757e-08
-2.39923e-06
-4.60231e-08
-2.37373e-06
-4.92521e-08
-2.34665e-06
-5.24583e-08
-2.31798e-06
-5.56378e-08
-2.28775e-06
-5.87864e-08
-2.25598e-06
-6.19005e-08
-2.22269e-06
-6.49762e-08
-2.18789e-06
-6.80095e-08
-2.15161e-06
-7.09954e-08
-2.11388e-06
-7.39296e-08
-2.07472e-06
-7.68072e-08
-2.03416e-06
-7.96245e-08
-1.99224e-06
-8.23772e-08
-1.94898e-06
-8.50621e-08
-1.90443e-06
-8.76757e-08
-1.85861e-06
-9.02163e-08
-1.81157e-06
-9.26814e-08
-1.76335e-06
-9.50698e-08
-1.71398e-06
-9.73793e-08
-1.66351e-06
-9.96084e-08
-1.61198e-06
-1.01746e-07
-1.55944e-06
-1.03785e-07
-1.50594e-06
-1.05731e-07
-1.45151e-06
-1.07588e-07
-1.39622e-06
-1.09346e-07
-1.34011e-06
-1.11002e-07
-1.28324e-06
-1.12553e-07
-1.22565e-06
-1.14e-07
-1.16741e-06
-1.1534e-07
-1.10856e-06
-1.16574e-07
-1.04916e-06
-1.177e-07
-9.89255e-07
-1.1872e-07
-9.28909e-07
-1.19631e-07
-8.68171e-07
-1.20436e-07
-8.07096e-07
-1.21133e-07
-7.45736e-07
-1.21726e-07
-6.84142e-07
-1.22215e-07
-6.22367e-07
-1.22603e-07
-5.60458e-07
-1.22891e-07
-4.98465e-07
-1.23084e-07
-4.36434e-07
-1.23184e-07
-3.74408e-07
-1.23195e-07
-3.12431e-07
-1.2312e-07
-2.50543e-07
-1.22964e-07
-1.88783e-07
-1.22731e-07
-1.27186e-07
-1.22422e-07
-6.57883e-08
-1.22042e-07
-4.61767e-09
-1.21595e-07
5.6304e-08
-1.21094e-07
1.16944e-07
-1.20539e-07
1.77321e-07
-1.19901e-07
2.3733e-07
-1.19193e-07
2.96883e-07
-1.18395e-07
3.56031e-07
-1.17523e-07
4.14764e-07
-1.16637e-07
4.73067e-07
-1.15739e-07
5.30915e-07
-1.14802e-07
5.8826e-07
-1.13778e-07
6.45017e-07
-1.12589e-07
7.01033e-07
-1.11095e-07
7.56031e-07
-1.09038e-07
8.09514e-07
-1.05913e-07
8.60489e-07
-1.00593e-07
9.07414e-07
-9.07557e-08
9.46829e-07
-7.04851e-08
-2.18063e-08
9.7976e-07
9.21472e-09
-2.65401e-08
1.50431e-08
-2.96229e-08
1.71182e-08
-2.44738e-08
1.64545e-08
-1.81534e-08
1.37247e-08
-1.17214e-08
9.31828e-09
-5.39585e-09
3.43356e-09
7.25275e-10
-3.84759e-09
6.57295e-09
-1.25132e-08
1.21037e-08
-2.25977e-08
1.73038e-08
-3.41693e-08
2.2187e-08
-4.73159e-08
2.67965e-08
-6.21273e-08
3.12046e-08
-7.86808e-08
3.55049e-08
-9.7039e-08
3.97981e-08
-1.1725e-07
4.4177e-08
-1.39349e-07
4.87147e-08
-1.63362e-07
5.34583e-08
-1.89302e-07
5.84267e-08
-2.1716e-07
6.36125e-08
-2.46886e-07
6.89873e-08
-2.78388e-07
7.45054e-08
-3.11545e-07
8.01041e-08
-3.46194e-07
8.57067e-08
-3.82145e-07
9.12264e-08
-4.19189e-07
9.65724e-08
-4.57111e-07
1.01657e-07
-4.95703e-07
1.06402e-07
-5.34773e-07
1.10743e-07
-5.74139e-07
1.14634e-07
-6.13638e-07
1.18042e-07
-6.53136e-07
1.2095e-07
-6.92521e-07
1.23353e-07
-7.31703e-07
1.25262e-07
-7.70614e-07
1.267e-07
-8.09216e-07
1.27706e-07
-8.47495e-07
1.28327e-07
-8.85448e-07
1.28609e-07
-9.23081e-07
1.286e-07
-9.60408e-07
1.28347e-07
-9.97445e-07
1.27895e-07
-1.03421e-06
1.27287e-07
-1.07073e-06
1.26561e-07
-1.10702e-06
1.25752e-07
-1.1431e-06
1.24889e-07
-1.17898e-06
1.23997e-07
-1.21468e-06
1.23099e-07
-1.25018e-06
1.2221e-07
-1.28549e-06
1.21337e-07
-1.32061e-06
1.20484e-07
-1.35553e-06
1.19651e-07
-1.39024e-06
1.18835e-07
-1.42476e-06
1.18032e-07
-1.45907e-06
1.17236e-07
-1.49317e-06
1.16444e-07
-1.52705e-06
1.15646e-07
-1.56071e-06
1.14837e-07
-1.59412e-06
1.14009e-07
-1.62729e-06
1.13156e-07
-1.66019e-06
1.12268e-07
-1.6928e-06
1.1134e-07
-1.72512e-06
1.10363e-07
-1.75711e-06
1.0933e-07
-1.78876e-06
1.08236e-07
-1.82005e-06
1.07072e-07
-1.85094e-06
1.05834e-07
-1.88141e-06
1.04514e-07
-1.91144e-06
1.03109e-07
-1.94099e-06
1.01611e-07
-1.97004e-06
1.00018e-07
-1.99855e-06
9.83251e-08
-2.02649e-06
9.6528e-08
-2.05383e-06
9.46236e-08
-2.08053e-06
9.26092e-08
-2.10656e-06
9.04823e-08
-2.13188e-06
8.82411e-08
-2.15645e-06
8.58839e-08
-2.18025e-06
8.34096e-08
-2.20323e-06
8.08176e-08
-2.22537e-06
7.81075e-08
-2.24661e-06
7.52793e-08
-2.26692e-06
7.23334e-08
-2.28628e-06
6.92705e-08
-2.30464e-06
6.60915e-08
-2.32197e-06
6.2798e-08
-2.33824e-06
5.93915e-08
-2.3534e-06
5.58738e-08
-2.36743e-06
5.2247e-08
-2.3803e-06
4.85134e-08
-2.39197e-06
4.46752e-08
-2.40242e-06
4.07347e-08
-2.41162e-06
3.66947e-08
-2.41954e-06
3.25584e-08
-2.42617e-06
2.83296e-08
-2.43148e-06
2.40127e-08
-2.43547e-06
1.96137e-08
-2.43812e-06
1.51402e-08
-2.43944e-06
1.06019e-08
-2.43943e-06
6.01282e-09
-2.43809e-06
1.39374e-09
-2.4354e-06
-3.2339e-09
-2.43129e-06
-7.86855e-09
-2.42572e-06
-1.25344e-08
-2.41864e-06
-1.72452e-08
-2.41003e-06
-2.19946e-08
-2.39988e-06
-2.67759e-08
-2.38817e-06
-3.15838e-08
-2.37489e-06
-3.64125e-08
-2.36005e-06
-4.12566e-08
-2.34362e-06
-4.61099e-08
-2.32562e-06
-5.09667e-08
-2.30605e-06
-5.58206e-08
-2.2849e-06
-6.06658e-08
-2.26218e-06
-6.54959e-08
-2.2379e-06
-7.0305e-08
-2.21206e-06
-7.50867e-08
-2.18469e-06
-7.98352e-08
-2.15578e-06
-8.45441e-08
-2.12536e-06
-8.92076e-08
-2.09344e-06
-9.38201e-08
-2.06004e-06
-9.83757e-08
-2.02518e-06
-1.02868e-07
-1.98889e-06
-1.07291e-07
-1.95118e-06
-1.11637e-07
-1.91209e-06
-1.15901e-07
-1.87164e-06
-1.20075e-07
-1.82986e-06
-1.24155e-07
-1.78679e-06
-1.28134e-07
-1.74246e-06
-1.32008e-07
-1.6969e-06
-1.35772e-07
-1.65015e-06
-1.39423e-07
-1.60226e-06
-1.4296e-07
-1.55325e-06
-1.4638e-07
-1.50318e-06
-1.49678e-07
-1.45207e-06
-1.52843e-07
-1.39999e-06
-1.55864e-07
-1.34697e-06
-1.58747e-07
-1.29305e-06
-1.61493e-07
-1.2383e-06
-1.64093e-07
-1.18276e-06
-1.6654e-07
-1.12647e-06
-1.68833e-07
-1.0695e-06
-1.70969e-07
-1.01189e-06
-1.72947e-07
-9.53695e-07
-1.74767e-07
-8.94968e-07
-1.76426e-07
-8.35762e-07
-1.77924e-07
-7.7613e-07
-1.79263e-07
-7.16124e-07
-1.80441e-07
-6.55798e-07
-1.8146e-07
-5.95203e-07
-1.82322e-07
-5.3439e-07
-1.8303e-07
-4.73408e-07
-1.83585e-07
-4.12308e-07
-1.83994e-07
-3.51136e-07
-1.84259e-07
-2.89937e-07
-1.84386e-07
-2.28755e-07
-1.8438e-07
-1.67631e-07
-1.84247e-07
-1.06605e-07
-1.83994e-07
-4.57126e-08
-1.83627e-07
1.50147e-08
-1.83153e-07
7.55422e-08
-1.82573e-07
1.35839e-07
-1.81895e-07
1.95871e-07
-1.8113e-07
2.55613e-07
-1.80284e-07
3.15063e-07
-1.79355e-07
3.74195e-07
-1.78328e-07
4.32983e-07
-1.77186e-07
4.91419e-07
-1.75963e-07
5.4948e-07
-1.74701e-07
6.07139e-07
-1.73401e-07
6.64362e-07
-1.72028e-07
7.211e-07
-1.70519e-07
7.77268e-07
-1.6876e-07
8.32725e-07
-1.66555e-07
8.87233e-07
-1.63548e-07
9.40392e-07
-1.59075e-07
9.91577e-07
-1.5178e-07
1.03994e-06
-1.39124e-07
1.08497e-06
-1.1551e-07
-6.80015e-08
1.13116e-06
3.64602e-09
-3.01883e-08
2.56765e-09
-2.8547e-08
-1.1322e-09
-2.07756e-08
-6.60023e-09
-1.26866e-08
-1.34929e-08
-4.82981e-09
-2.1645e-08
2.75531e-09
-3.09926e-08
1.00718e-08
-4.15382e-08
1.71177e-08
-5.33291e-08
2.38936e-08
-6.64389e-08
3.04127e-08
-8.09569e-08
3.67039e-08
-9.69756e-08
4.28144e-08
-1.14579e-07
4.88073e-08
-1.33832e-07
5.47562e-08
-1.54769e-07
6.07348e-08
-1.77399e-07
6.68059e-08
-2.01699e-07
7.30132e-08
-2.27616e-07
7.93747e-08
-2.55072e-07
8.58814e-08
-2.83958e-07
9.24983e-08
-3.1414e-07
9.91682e-08
-3.45455e-07
1.05819e-07
-3.77721e-07
1.12369e-07
-4.10747e-07
1.18732e-07
-4.44341e-07
1.24819e-07
-4.78321e-07
1.30552e-07
-5.12525e-07
1.35859e-07
-5.46811e-07
1.40687e-07
-5.81064e-07
1.44995e-07
-6.15192e-07
1.4876e-07
-6.49123e-07
1.51973e-07
-6.82812e-07
1.54637e-07
-7.16232e-07
1.56773e-07
-7.49382e-07
1.58411e-07
-7.82276e-07
1.59592e-07
-8.14934e-07
1.60363e-07
-8.47383e-07
1.60775e-07
-8.79649e-07
1.60874e-07
-9.1176e-07
1.6071e-07
-9.43744e-07
1.60329e-07
-9.75623e-07
1.59772e-07
-1.00742e-06
1.59079e-07
-1.03914e-06
1.58284e-07
-1.07081e-06
1.57417e-07
-1.10242e-06
1.56504e-07
-1.13399e-06
1.55564e-07
-1.16551e-06
1.54614e-07
-1.19696e-06
1.53665e-07
-1.22835e-06
1.52726e-07
-1.25967e-06
1.51798e-07
-1.2909e-06
1.50882e-07
-1.32204e-06
1.49973e-07
-1.35308e-06
1.49068e-07
-1.384e-06
1.48161e-07
-1.4148e-06
1.47245e-07
-1.44547e-06
1.46312e-07
-1.47599e-06
1.45355e-07
-1.50635e-06
1.44364e-07
-1.53652e-06
1.43331e-07
-1.5665e-06
1.42246e-07
-1.59627e-06
1.41102e-07
-1.62579e-06
1.39889e-07
-1.65506e-06
1.38598e-07
-1.68405e-06
1.37222e-07
-1.71273e-06
1.35752e-07
-1.74108e-06
1.34181e-07
-1.76907e-06
1.32502e-07
-1.79667e-06
1.30708e-07
-1.82385e-06
1.28793e-07
-1.85059e-06
1.26751e-07
-1.87684e-06
1.24577e-07
-1.90258e-06
1.22266e-07
-1.92777e-06
1.19814e-07
-1.95238e-06
1.17218e-07
-1.97637e-06
1.14475e-07
-1.99972e-06
1.11581e-07
-2.02237e-06
1.08536e-07
-2.0443e-06
1.05338e-07
-2.06547e-06
1.01986e-07
-2.08584e-06
9.84788e-08
-2.10538e-06
9.48177e-08
-2.12405e-06
9.10028e-08
-2.14182e-06
8.70351e-08
-2.15864e-06
8.29161e-08
-2.17449e-06
7.86476e-08
-2.18934e-06
7.42319e-08
-2.20313e-06
6.96717e-08
-2.21586e-06
6.49701e-08
-2.22747e-06
6.01303e-08
-2.23796e-06
5.5156e-08
-2.24727e-06
5.00511e-08
-2.2554e-06
4.48202e-08
-2.26231e-06
3.94685e-08
-2.26798e-06
3.4002e-08
-2.2724e-06
2.84275e-08
-2.27554e-06
2.27534e-08
-2.27739e-06
1.6989e-08
-2.27794e-06
1.11453e-08
-2.27716e-06
5.23489e-09
-2.27504e-06
-7.28575e-10
-2.27154e-06
-6.73572e-09
-2.26663e-06
-1.27893e-08
-2.26027e-06
-1.89011e-08
-2.25244e-06
-2.50743e-08
-2.24314e-06
-3.13019e-08
-2.23234e-06
-3.75749e-08
-2.22005e-06
-4.38853e-08