/*--------------------------------*- C++ -*----------------------------------*\
| =========                 |                                                 |
| \\      /  F ield         | OpenFOAM: The Open Source CFD Toolbox           |
|  \\    /   O peration     | Version:  2406                                  |
|   \\  /    A nd           | Website:  www.openfoam.com                      |
|    \\/     M anipulation  |                                                 |
\*---------------------------------------------------------------------------*/
FoamFile
{
    version     2.0;
    format      ascii;
    arch        "LSB;label=32;scalar=64";
    class       volVectorField;
    location    "281";
    object      U;
}
// * * * * * * * * * * * * * * * * * * * * * * * * * * * * * * * * * * * * * //

dimensions      [0 1 -1 0 0 0 0];

internalField   nonuniform List<vector> 
12225
(
(9.84026 -0.956928 0)
(9.59659 -0.890303 0)
(9.31634 -0.596465 0)
(9.01457 -0.371729 0)
(8.72553 -0.227359 0)
(8.46697 -0.139076 0)
(8.23982 -0.0853793 0)
(8.04167 -0.0524022 0)
(7.86962 -0.0319977 0)
(7.72061 -0.0191612 0)
(7.59146 -0.0111313 0)
(7.47914 -0.00611567 0)
(7.38143 -0.00305258 0)
(7.29636 -0.00128969 0)
(7.22224 -0.000363017 0)
(7.16007 -0.000700044 0)
(7.10032 0.00246209 0)
(7.07199 -0.0180461 0)
(10.0713 0.254377 0)
(10.1823 0.418426 0)
(10.2289 0.383662 0)
(10.2294 0.310045 0)
(10.2114 0.245429 0)
(10.1794 0.19521 0)
(10.1334 0.157448 0)
(10.0758 0.129477 0)
(10.0105 0.108682 0)
(9.94088 0.0929357 0)
(9.86927 0.0807802 0)
(9.79745 0.0711819 0)
(9.7265 0.0634009 0)
(9.65756 0.056961 0)
(9.59103 0.0512202 0)
(9.52786 0.0466401 0)
(9.46855 0.0401647 0)
(9.41527 0.040334 0)
(10.0041 0.0591977 0)
(10.0285 0.0487308 0)
(10.0619 0.0103601 0)
(10.0897 0.000321598 0)
(10.1152 0.00844586 0)
(10.1377 0.0196577 0)
(10.1547 0.0292084 0)
(10.1657 0.0366584 0)
(10.1715 0.0421906 0)
(10.173 0.046028 0)
(10.1711 0.0484702 0)
(10.1663 0.049823 0)
(10.1591 0.0503202 0)
(10.1502 0.0501116 0)
(10.1401 0.0492359 0)
(10.1291 0.0476929 0)
(10.1183 0.0452201 0)
(10.1062 0.0404516 0)
(9.99764 0.010938 0)
(10.0088 0.0257989 0)
(10.0342 0.0385846 0)
(10.0554 0.0535946 0)
(10.0721 0.0650777 0)
(10.0875 0.0704001 0)
(10.1015 0.071537 0)
(10.1134 0.0707667 0)
(10.1236 0.0691746 0)
(10.1326 0.0671937 0)
(10.1404 0.0650142 0)
(10.1473 0.0627617 0)
(10.1532 0.0604574 0)
(10.1585 0.058081 0)
(10.1631 0.0554975 0)
(10.1674 0.0525685 0)
(10.1713 0.0488155 0)
(10.1742 0.0431353 0)
(9.99927 0.00740937 0)
(10.0087 0.033805 0)
(10.0279 0.0483743 0)
(10.0436 0.0549458 0)
(10.0558 0.0584097 0)
(10.0678 0.0595924 0)
(10.0793 0.0593603 0)
(10.0897 0.0586145 0)
(10.0991 0.0577172 0)
(10.1077 0.0567064 0)
(10.1157 0.0555702 0)
(10.1232 0.0543047 0)
(10.1302 0.0528872 0)
(10.1369 0.0512613 0)
(10.1434 0.0493097 0)
(10.1495 0.0468756 0)
(10.1553 0.0436419 0)
(10.1605 0.0392998 0)
(10.0003 0.00955545 0)
(10.0085 0.0330146 0)
(10.0235 0.0439939 0)
(10.0369 0.0483788 0)
(10.0477 0.0518646 0)
(10.0585 0.054273 0)
(10.069 0.0553101 0)
(10.0785 0.0554748 0)
(10.0871 0.0551623 0)
(10.0951 0.0545052 0)
(10.1026 0.0535563 0)
(10.1097 0.0523586 0)
(10.1165 0.050924 0)
(10.1231 0.0492231 0)
(10.1294 0.0471723 0)
(10.1354 0.044653 0)
(10.1411 0.0415003 0)
(10.1462 0.0375902 0)
(10.0004 0.00934711 0)
(10.0074 0.0285637 0)
(10.02 0.0388058 0)
(10.0322 0.043977 0)
(10.0425 0.0481109 0)
(10.0525 0.0509279 0)
(10.0622 0.0521814 0)
(10.0711 0.0524203 0)
(10.0793 0.0521108 0)
(10.0868 0.051429 0)
(10.094 0.0504447 0)
(10.1008 0.0492033 0)
(10.1073 0.047721 0)
(10.1136 0.0459719 0)
(10.1196 0.0438938 0)
(10.1253 0.0414005 0)
(10.1306 0.0384047 0)
(10.1354 0.0348666 0)
(10.0004 0.00828758 0)
(10.0063 0.0246728 0)
(10.0171 0.0348192 0)
(10.0283 0.0404796 0)
(10.0381 0.0445833 0)
(10.0475 0.04731 0)
(10.0566 0.0485984 0)
(10.0652 0.0489196 0)
(10.073 0.0486885 0)
(10.0804 0.0480727 0)
(10.0873 0.0471406 0)
(10.0939 0.0459349 0)
(10.1002 0.0444742 0)
(10.1062 0.0427415 0)
(10.1119 0.0406967 0)
(10.1173 0.0382865 0)
(10.1223 0.0354748 0)
(10.1267 0.0322782 0)
(10.0004 0.00729522 0)
(10.0053 0.0215627 0)
(10.0146 0.0312347 0)
(10.0248 0.0369129 0)
(10.034 0.0408251 0)
(10.0429 0.0434628 0)
(10.0516 0.0448342 0)
(10.0598 0.0452806 0)
(10.0675 0.0451515 0)
(10.0746 0.0446128 0)
(10.0814 0.043738 0)
(10.0878 0.0425723 0)
(10.0939 0.0411403 0)
(10.0997 0.0394379 0)
(10.1052 0.0374457 0)
(10.1103 0.0351394 0)
(10.115 0.0325162 0)
(10.1192 0.0296221 0)
(10.0004 0.0064231 0)
(10.0046 0.0188206 0)
(10.0125 0.0277383 0)
(10.0216 0.0332684 0)
(10.0303 0.037021 0)
(10.0387 0.0395795 0)
(10.0469 0.0410018 0)
(10.0548 0.0415374 0)
(10.0622 0.0414833 0)
(10.0692 0.0410051 0)
(10.0758 0.0401809 0)
(10.082 0.0390585 0)
(10.088 0.0376677 0)
(10.0936 0.0360163 0)
(10.0989 0.0341019 0)
(10.1038 0.0319227 0)
(10.1083 0.0294948 0)
(10.1123 0.0268774 0)
(10.0004 0.00561582 0)
(10.0039 0.0163271 0)
(10.0107 0.0243929 0)
(10.0189 0.0296724 0)
(10.0269 0.0332484 0)
(10.0348 0.0356867 0)
(10.0426 0.0370982 0)
(10.0501 0.0376776 0)
(10.0573 0.0376729 0)
(10.064 0.0372418 0)
(10.0704 0.0364648 0)
(10.0765 0.035391 0)
(10.0823 0.0340541 0)
(10.0877 0.0324719 0)
(10.0928 0.0306554 0)
(10.0975 0.0286179 0)
(10.1018 0.0263859 0)
(10.1057 0.0240225 0)
(10.0003 0.0049015 0)
(10.0034 0.0142138 0)
(10.0093 0.0214747 0)
(10.0167 0.0264337 0)
(10.0242 0.0298066 0)
(10.0316 0.032099 0)
(10.039 0.0334581 0)
(10.0461 0.0340453 0)
(10.053 0.0340665 0)
(10.0595 0.0336676 0)
(10.0657 0.0329292 0)
(10.0716 0.0319015 0)
(10.0772 0.0306214 0)
(10.0825 0.0291139 0)
(10.0874 0.0273987 0)
(10.0919 0.0254982 0)
(10.0961 0.0234429 0)
(10.0999 0.0212958 0)
(10.0003 0.00423684 0)
(10.003 0.012284 0)
(10.0082 0.0187182 0)
(10.0148 0.0232733 0)
(10.0217 0.0264042 0)
(10.0287 0.0285273 0)
(10.0357 0.0298039 0)
(10.0425 0.0303731 0)
(10.0491 0.0304041 0)
(10.0554 0.0300282 0)
(10.0614 0.0293242 0)
(10.0671 0.0283433 0)
(10.0725 0.0271245 0)
(10.0775 0.0256976 0)
(10.0823 0.0240885 0)
(10.0866 0.0223249 0)
(10.0907 0.0204383 0)
(10.0943 0.0184902 0)
(10.0003 0.00354481 0)
(10.0026 0.0102678 0)
(10.0071 0.0157573 0)
(10.0129 0.0197716 0)
(10.0193 0.0225675 0)
(10.0258 0.0244576 0)
(10.0323 0.0255993 0)
(10.0387 0.0261122 0)
(10.045 0.0261305 0)
(10.051 0.0257665 0)
(10.0567 0.0250949 0)
(10.0622 0.0241665 0)
(10.0674 0.023021 0)
(10.0723 0.0216914 0)
(10.0768 0.020207 0)
(10.081 0.0185982 0)
(10.0849 0.0168953 0)
(10.0884 0.0151561 0)
(10.0002 0.00282196 0)
(10.0022 0.00816525 0)
(10.0061 0.0126032 0)
(10.0112 0.0159367 0)
(10.0169 0.0182861 0)
(10.0229 0.0198634 0)
(10.029 0.0208051 0)
(10.035 0.0212112 0)
(10.0409 0.0211843 0)
(10.0466 0.020815 0)
(10.0521 0.0201703 0)
(10.0573 0.019298 0)
(10.0622 0.0182368 0)
(10.0669 0.0170199 0)
(10.0712 0.0156773 0)
(10.0752 0.0142391 0)
(10.0789 0.0127324 0)
(10.0824 0.0112088 0)
(10.0002 0.00206862 0)
(10.0019 0.00598133 0)
(10.0052 0.00926737 0)
(10.0097 0.0117775 0)
(10.0148 0.0135525 0)
(10.0203 0.01472 0)
(10.0258 0.0153827 0)
(10.0314 0.0156185 0)
(10.037 0.0155017 0)
(10.0424 0.0151008 0)
(10.0475 0.0144704 0)
(10.0525 0.0136528 0)
(10.0572 0.0126822 0)
(10.0616 0.0115889 0)
(10.0657 0.0104006 0)
(10.0696 0.00914402 0)
(10.0732 0.00784132 0)
(10.0765 0.00653696 0)
(10.0002 0.00128319 0)
(10.0016 0.00370448 0)
(10.0045 0.00573645 0)
(10.0084 0.00728133 0)
(10.013 0.00834345 0)
(10.018 0.00898875 0)
(10.0231 0.00928089 0)
(10.0283 0.00927184 0)
(10.0335 0.0090102 0)
(10.0386 0.0085418 0)
(10.0435 0.00790575 0)
(10.0482 0.0071339 0)
(10.0526 0.00625322 0)
(10.0568 0.00528775 0)
(10.0608 0.00425938 0)
(10.0645 0.00318899 0)
(10.0679 0.0020927 0)
(10.0712 0.00100665 0)
(10.0002 0.000450169 0)
(10.0014 0.00128385 0)
(10.004 0.00193861 0)
(10.0075 0.00236803 0)
(10.0117 0.00256797 0)
(10.0163 0.0025627 0)
(10.0211 0.00237815 0)
(10.026 0.00203797 0)
(10.0309 0.00156564 0)
(10.0357 0.000983917 0)
(10.0404 0.000312977 0)
(10.0448 -0.000429702 0)
(10.0491 -0.00122847 0)
(10.0531 -0.00206879 0)
(10.0569 -0.00293713 0)
(10.0605 -0.00382035 0)
(10.0639 -0.00470917 0)
(10.067 -0.00557633 0)
(10.0001 -0.00047354 0)
(10.0014 -0.0014039 0)
(10.0038 -0.00230354 0)
(10.0072 -0.00316272 0)
(10.0112 -0.00397932 0)
(10.0156 -0.00476363 0)
(10.0202 -0.00552975 0)
(10.025 -0.00628516 0)
(10.0297 -0.00703247 0)
(10.0343 -0.00777361 0)
(10.0389 -0.00851045 0)
(10.0432 -0.00924362 0)
(10.0473 -0.00997236 0)
(10.0513 -0.0106948 0)
(10.055 -0.0114084 0)
(10.0585 -0.0121096 0)
(10.0618 -0.0127969 0)
(10.0649 -0.0134531 0)
(10.0002 -0.0013482 0)
(10.0014 -0.00395842 0)
(10.004 -0.00634872 0)
(10.0075 -0.00843603 0)
(10.0117 -0.010208 0)
(10.0163 -0.0117189 0)
(10.021 -0.0130248 0)
(10.0259 -0.0141599 0)
(10.0307 -0.0151525 0)
(10.0354 -0.0160317 0)
(10.0399 -0.0168226 0)
(10.0443 -0.0175435 0)
(10.0484 -0.0182071 0)
(10.0524 -0.0188236 0)
(10.0561 -0.0194002 0)
(10.0596 -0.0199419 0)
(10.0629 -0.0204536 0)
(10.066 -0.0209262 0)
(10.0002 -0.00208971 0)
(10.0016 -0.006159 0)
(10.0044 -0.00984899 0)
(10.0083 -0.0129425 0)
(10.0129 -0.0154448 0)
(10.0177 -0.0175055 0)
(10.0227 -0.0192225 0)
(10.0278 -0.0206354 0)
(10.0328 -0.0217891 0)
(10.0376 -0.0227412 0)
(10.0423 -0.0235409 0)
(10.0467 -0.0242227 0)
(10.051 -0.0248118 0)
(10.055 -0.0253283 0)
(10.0588 -0.0257874 0)
(10.0623 -0.0262002 0)
(10.0656 -0.0265757 0)
(10.0688 -0.0269109 0)
(10.0002 -0.00277572 0)
(10.0017 -0.0082986 0)
(10.0049 -0.013316 0)
(10.0094 -0.0173246 0)
(10.0145 -0.0204007 0)
(10.0198 -0.022875 0)
(10.0251 -0.0249002 0)
(10.0305 -0.026516 0)
(10.0357 -0.027783 0)
(10.0408 -0.0287796 0)
(10.0456 -0.0295678 0)
(10.0502 -0.0301927 0)
(10.0546 -0.0306908 0)
(10.0586 -0.0310926 0)
(10.0625 -0.0314215 0)
(10.0661 -0.0316945 0)
(10.0695 -0.0319244 0)
(10.0726 -0.0321111 0)
(10.0001 -0.00338827 0)
(10.0017 -0.0104132 0)
(10.0055 -0.0167632 0)
(10.0109 -0.0215996 0)
(10.0166 -0.025221 0)
(10.0223 -0.0280791 0)
(10.028 -0.0303008 0)
(10.0337 -0.0319702 0)
(10.0393 -0.0332312 0)
(10.0445 -0.0342018 0)
(10.0496 -0.0349473 0)
(10.0543 -0.0355119 0)
(10.0588 -0.0359363 0)
(10.063 -0.0362558 0)
(10.0669 -0.0364967 0)
(10.0706 -0.0366779 0)
(10.074 -0.0368142 0)
(10.0772 -0.0369113 0)
(10.0001 -0.00388717 0)
(10.0017 -0.0128954 0)
(10.0061 -0.0202958 0)
(10.0124 -0.0253558 0)
(10.0188 -0.0294171 0)
(10.025 -0.0328814 0)
(10.0312 -0.0354818 0)
(10.0373 -0.0372487 0)
(10.0431 -0.0384476 0)
(10.0486 -0.0392795 0)
(10.0538 -0.0398424 0)
(10.0587 -0.0402015 0)
(10.0633 -0.0404156 0)
(10.0676 -0.0405325 0)
(10.0716 -0.0405848 0)
(10.0754 -0.0405944 0)
(10.0789 -0.0405744 0)
(10.0821 -0.0405221 0)
(9.99983 -0.00358674 0)
(10.0013 -0.0164912 0)
(10.007 -0.0254715 0)
(10.0141 -0.0296579 0)
(10.0207 -0.0329912 0)
(10.0273 -0.0364505 0)
(10.0342 -0.0393841 0)
(10.0409 -0.0415607 0)
(10.0473 -0.0431404 0)
(10.0532 -0.0442703 0)
(10.0588 -0.0450312 0)
(10.064 -0.0454977 0)
(10.0689 -0.0457466 0)
(10.0734 -0.0458428 0)
(10.0776 -0.0458337 0)
(10.0815 -0.0457526 0)
(10.0852 -0.0456254 0)
(10.0886 -0.0454625 0)
(9.99835 -7.7325e-05 0)
(9.99822 -0.0174491 0)
(10.0068 -0.0314597 0)
(10.0162 -0.0375701 0)
(10.0234 -0.0402773 0)
(10.0303 -0.0418315 0)
(10.0379 -0.0427872 0)
(10.0455 -0.0434803 0)
(10.0527 -0.0440781 0)
(10.0594 -0.0445886 0)
(10.0657 -0.0449789 0)
(10.0716 -0.0452606 0)
(10.0771 -0.045456 0)
(10.0821 -0.0455928 0)
(10.0868 -0.0456854 0)
(10.0911 -0.0457501 0)
(10.0951 -0.0457921 0)
(10.0988 -0.0457797 0)
(9.99422 0.00249353 0)
(9.9901 -0.0074285 0)
(10.0032 -0.0229258 0)
(10.0185 -0.0397292 0)
(10.0302 -0.0531073 0)
(10.0404 -0.0608728 0)
(10.0501 -0.0644018 0)
(10.0593 -0.0656437 0)
(10.0678 -0.0657258 0)
(10.0756 -0.0650956 0)
(10.083 -0.0640354 0)
(10.0897 -0.0627351 0)
(10.0959 -0.0613573 0)
(10.1016 -0.0599827 0)
(10.1067 -0.0586763 0)
(10.1114 -0.0574672 0)
(10.1157 -0.0563813 0)
(10.1196 -0.055371 0)
(9.99443 -0.0305958 0)
(9.99463 -0.0135126 0)
(10.0087 0.0213846 0)
(10.0272 0.0319181 0)
(10.047 0.0240546 0)
(10.0668 0.0115314 0)
(10.085 -0.000172948 0)
(10.1007 -0.0103773 0)
(10.114 -0.0190074 0)
(10.1251 -0.0260716 0)
(10.1344 -0.0316647 0)
(10.1418 -0.0360292 0)
(10.1476 -0.0393963 0)
(10.152 -0.0419834 0)
(10.155 -0.0439537 0)
(10.1569 -0.0454766 0)
(10.1579 -0.0466813 0)
(10.1579 -0.0477131 0)
(10.0367 -0.208939 0)
(10.107 -0.36601 0)
(10.1425 -0.352639 0)
(10.1567 -0.297972 0)
(10.1697 -0.247577 0)
(10.182 -0.206752 0)
(10.1884 -0.174318 0)
(10.1867 -0.148955 0)
(10.1774 -0.129239 0)
(10.1619 -0.113715 0)
(10.1414 -0.101318 0)
(10.1169 -0.0912886 0)
(10.0894 -0.0830951 0)
(10.0598 -0.076332 0)
(10.0288 -0.0707185 0)
(9.99693 -0.0660749 0)
(9.96473 -0.0622508 0)
(9.93285 -0.059548 0)
(9.92843 0.765812 0)
(9.84047 0.742588 0)
(9.705 0.524938 0)
(9.52633 0.349226 0)
(9.3318 0.228041 0)
(9.1406 0.147288 0)
(8.9588 0.0938347 0)
(8.78891 0.0582018 0)
(8.63232 0.0343038 0)
(8.48966 0.0182596 0)
(8.36031 0.00757226 0)
(8.24346 0.000575414 0)
(8.13792 -0.00398802 0)
(8.04264 -0.00685456 0)
(7.9565 -0.00854322 0)
(7.87853 -0.00949015 0)
(7.80737 -0.00997951 0)
(7.74265 -0.0105979 0)
(0.00231191 -0.00409803 -8.48224e-19)
(0.0104701 -0.0113608 7.42214e-19)
(0.0216989 -0.0160242 0)
(0.0340072 -0.0174652 0)
(0.0452366 -0.0163561 0)
(0.0544291 -0.0137482 -4.17262e-19)
(0.0612425 -0.0104878 0)
(0.0656253 -0.00709773 0)
(0.0677241 -0.00387012 0)
(0.0676336 -0.00100557 0)
(0.0656739 0.00133042 3.74806e-19)
(0.0622746 0.00309016 0)
(0.0577315 0.00436454 0)
(0.052265 0.00531337 0)
(0.0460106 0.00610252 0)
(0.0390132 0.00687223 4.11946e-19)
(0.0312474 0.00772678 0)
(0.0226458 0.00872895 0)
(0.0131116 0.00987476 0)
(0.00251882 0.0110511 0)
(-0.00925255 0.0120902 0)
(-0.0223732 0.0130349 0)
(-0.0370132 0.0140435 0)
(-0.0533147 0.015197 3.41401e-19)
(-0.0714225 0.0165286 -3.09826e-19)
(-0.0914697 0.0180515 2.81287e-19)
(-0.113567 0.0197633 2.5556e-19)
(-0.137795 0.0216419 0)
(-0.164199 0.0236393 0)
(-0.192769 0.0256792 -1.93273e-19)
(-0.223432 0.0276795 -1.76892e-19)
(-0.256084 0.0295887 0)
(-0.290583 0.0313646 0)
(-0.326763 0.0329711 -1.38297e-19)
(-0.364439 0.0343783 0)
(-0.403415 0.0355669 0)
(-0.443485 0.0365279 1.11713e-19)
(-0.484447 0.0372609 0)
(-0.526109 0.037774 9.86721e-20)
(-0.568292 0.0380811 1.86426e-19)
(-0.610832 0.0382001 0)
(-0.653582 0.0381511 0)
(-0.696415 0.037956 0)
(-0.739224 0.0376385 0)
(-0.78193 0.0372265 0)
(-0.824475 0.0367551 1.40917e-19)
(-0.8668 0.036265 1.35651e-19)
(-0.908846 0.0357931 1.30818e-19)
(-0.950683 0.0353516 0)
(-0.992322 0.0349289 -1.22283e-19)
(-1.03377 0.0345218 0)
(-1.07503 0.0341283 1.14994e-19)
(-1.11612 0.033747 1.11732e-19)
(-1.15704 0.0333766 0)
(-1.1978 0.0330158 0)
(-1.23839 0.0326628 0)
(-1.27883 0.0323159 1.0066e-19)
(-1.31911 0.0319731 0)
(-1.35923 0.0316323 0)
(-1.39918 0.0312911 0)
(-1.43896 0.0309473 0)
(-1.47855 0.0305986 0)
(-1.51793 0.0302428 0)
(-1.5571 0.0298777 0)
(-1.59603 0.0295014 0)
(-1.63471 0.0291118 -8.32745e-20)
(-1.6731 0.0287075 0)
(-1.71118 0.0282867 0)
(-1.74891 0.027848 7.89208e-20)
(-1.78628 0.0273902 7.75797e-20)
(-1.82325 0.0269122 0)
(-1.85977 0.0264131 -7.50378e-20)
(-1.89582 0.0258921 7.38298e-20)
(-1.93135 0.0253487 0)
(-1.96634 0.0247823 -7.1523e-20)
(-2.00072 0.0241928 0)
(-2.03448 0.02358 0)
(-2.06755 0.0229439 6.82914e-20)
(-2.0999 0.0222847 0)
(-2.1315 0.0216024 -6.62583e-20)
(-2.16228 0.0208976 0)
(-2.19221 0.0201705 6.42994e-20)
(-2.22124 0.0194216 6.33423e-20)
(-2.24934 0.0186514 6.23971e-20)
(-2.27645 0.0178606 1.22924e-19)
(-2.30254 0.0170496 -1.2107e-19)
(-2.32755 0.0162192 0)
(-2.35146 0.0153695 0)
(-2.3742 0.0145008 0)
(-2.39575 0.0136127 -1.1374e-19)
(-2.41606 0.0127044 -1.11912e-19)
(-2.43508 0.0117743 1.10078e-19)
(-2.45278 0.0108199 0)
(-2.46911 0.00983707 -1.06385e-19)
(-2.48401 0.00881988 -1.0452e-19)
(-2.49744 0.00776024 -1.02639e-19)
(-2.50934 0.00664798 0)
(-2.51962 0.00547282 0)
(-2.52822 0.00423273 0)
(-2.53506 0.00295278 -9.49252e-20)
(-2.54004 0.00170037 0)
(-2.54301 0.000562439 0)
(-2.54409 -0.00042001 8.88524e-20)
(-2.54366 -0.0013129 0)
(-2.54166 -0.00218606 0)
(-2.53813 -0.00304968 8.23383e-20)
(-2.53304 -0.00390892 0)
(-2.52639 -0.00476439 0)
(-2.51818 -0.00561569 -7.53426e-20)
(-2.50839 -0.00646251 -7.2891e-20)
(-2.49701 -0.00730384 0)
(-2.48405 -0.00813927 6.77924e-20)
(-2.46949 -0.00896771 0)
(-2.45334 -0.00978879 -6.24149e-20)
(-2.4356 -0.0106014 0)
(-2.41627 -0.0114053 -5.67358e-20)
(-2.39535 -0.0121994 -5.37757e-20)
(-2.37285 -0.0129834 0)
(-2.34878 -0.0137564 0)
(-2.32314 -0.0145183 0)
(-2.29596 -0.0152682 0)
(-2.26724 -0.0160057 0)
(-2.23701 -0.0167297 0)
(-2.20527 -0.0174399 0)
(-2.17205 -0.0181353 -2.67625e-20)
(-2.13736 -0.0188159 2.29122e-20)
(-2.10124 -0.0194809 0)
(-2.06372 -0.0201309 0)
(-2.0248 -0.0207652 0)
(-1.98454 -0.0213849 0)
(-1.94295 -0.0219897 3.5121e-21)
(-1.90008 -0.0225799 0)
(-1.85593 -0.0231532 1.54112e-20)
(-1.81057 -0.0237105 -2.53571e-20)
(-1.76401 -0.0242506 0)
(-1.71631 -0.0247747 0)
(-1.6675 -0.0252855 0)
(-1.61762 -0.0257801 6.87663e-20)
(-1.56672 -0.0262572 8.06234e-20)
(-1.51483 -0.0267184 0)
(-1.46201 -0.027163 1.05707e-19)
(-1.40831 -0.0275916 1.18987e-19)
(-1.35377 -0.0280043 -1.328e-19)
(-1.29843 -0.0284012 0)
(-1.24235 -0.0287827 0)
(-1.18557 -0.029149 -1.77782e-19)
(-1.12815 -0.0295006 0)
(-1.07013 -0.0298377 0)
(-1.01156 -0.0301611 0)
(-0.952497 -0.0304713 0)
(-0.892978 -0.030769 2.67197e-19)
(-0.833055 -0.0310551 2.87746e-19)
(-0.772774 -0.0313306 0)
(-0.712182 -0.0315966 3.32092e-19)
(-0.651322 -0.0318543 0)
(-0.590237 -0.0321051 0)
(-0.528967 -0.0323504 4.08189e-19)
(-0.467553 -0.0325916 0)
(-0.406031 -0.03283 4.66748e-19)
(-0.344438 -0.033066 0)
(-0.282809 -0.0333008 0)
(-0.221182 -0.0335371 5.69708e-19)
(-0.159586 -0.0337953 0)
(-0.0980553 -0.0340746 6.51222e-19)
(-0.0366633 -0.0342954 0)
(0.0245798 -0.0339639 0)
(0.0856793 -0.0330625 0)
(0.146587 -0.0321155 -6.80199e-19)
(0.207256 -0.0312195 0)
(0.267667 -0.0303707 6.50435e-19)
(0.327815 -0.0295568 0)
(0.387676 -0.0287626 0)
(0.447194 -0.0279671 0)
(0.506246 -0.0271386 0)
(0.564652 -0.0262198 0)
(0.621836 -0.0251013 0)
(0.677525 -0.0235255 0)
(0.727165 -0.0208564 -1.13813e-18)
(0.776218 -0.0157906 0)
(0.775674 0.000866403 0)
(0.00527108 -0.0223533 2.071e-18)
(0.0164842 -0.0359728 -1.27704e-18)
(0.0251748 -0.0370637 0)
(0.0312085 -0.0331953 4.04352e-19)
(0.0349856 -0.0271296 0)
(0.0367026 -0.0201422 1.55286e-19)
(0.0365908 -0.012998 -2.93325e-19)
(0.0348343 -0.00616113 -2.84068e-19)
(0.0315556 0.000103087 0)
(0.0268917 0.00562681 -2.75075e-19)
(0.0208555 0.0103214 -1.37026e-19)
(0.0134108 0.0142263 0)
(0.00454879 0.017501 0)
(-0.00574453 0.0203569 0)
(-0.0174905 0.0230154 0)
(-0.0307223 0.0256691 -1.25402e-19)
(-0.0454928 0.0284593 0)
(-0.0618805 0.0314743 2.32011e-19)
(-0.0799903 0.0347549 0)
(-0.0999232 0.0383145 0)
(-0.121732 0.0421471 -2.05777e-19)
(-0.145448 0.0462464 0)
(-0.171126 0.0506134 1.89451e-19)
(-0.198803 0.0552242 -9.08354e-20)
(-0.228467 0.0600192 8.68764e-20)
(-0.260058 0.0649074 -8.29778e-20)
(-0.293466 0.069778 -7.91572e-20)
(-0.328542 0.0745158 0)
(-0.365096 0.0790208 0)
(-0.402919 0.0832167 6.83187e-20)
(-0.441817 0.0870278 -6.48264e-20)
(-0.481595 0.0903838 0)
(-0.522054 0.0932441 0)
(-0.563002 0.095592 5.63592e-20)
(-0.604263 0.0974276 0)
(-0.645675 0.0987533 0)
(-0.687098 0.0995938 -4.94615e-20)
(-0.728416 0.099993 0)
(-0.76954 0.100001 4.55826e-20)
(-0.810399 0.0996694 -8.81255e-20)
(-0.850947 0.0990532 0)
(-0.891153 0.0982037 0)
(-0.931001 0.0971696 -1.59095e-19)
(-0.97049 0.0959951 -1.54298e-19)
(-1.00963 0.094721 -1.49856e-19)
(-1.04844 0.0933881 7.27379e-20)
(-1.08694 0.0920395 -7.10792e-20)
(-1.12514 0.0907149 -2.07605e-19)
(-1.16305 0.0894334 1.34957e-19)
(-1.20068 0.0881933 6.60363e-20)
(-1.23802 0.0869907 0)
(-1.27509 0.0858221 -6.31502e-20)
(-1.31189 0.0846835 6.15459e-20)
(-1.34844 0.0835708 0)
(-1.38473 0.0824795 0)
(-1.42077 0.0814049 0)
(-1.45656 0.0803419 -5.71508e-20)
(-1.49209 0.0792855 0)
(-1.52736 0.0782305 1.09964e-19)
(-1.56236 0.0771719 0)
(-1.59707 0.0761045 1.06235e-19)
(-1.63149 0.0750236 0)
(-1.6656 0.0739246 -1.02784e-19)
(-1.69937 0.072803 0)
(-1.7328 0.0716551 9.95705e-20)
(-1.76585 0.070477 -4.88863e-20)
(-1.79851 0.0692656 0)
(-1.83075 0.068018 -9.51171e-20)
(-1.86255 0.0667317 -4.69864e-20)
(-1.89386 0.0654046 -4.63013e-20)
(-1.92468 0.0640348 0)
(-1.95496 0.0626209 -4.4735e-20)
(-1.98467 0.0611619 -4.43371e-20)
(-2.01378 0.059657 0)
(-2.04227 0.0581058 4.30897e-20)
(-2.07009 0.0565082 -8.4742e-20)
(-2.09721 0.0548644 0)
(-2.1236 0.0531748 -4.12861e-20)
(-2.14921 0.0514403 0)
(-2.17403 0.0496616 1.20156e-19)
(-2.19801 0.04784 0)
(-2.22112 0.0459765 -1.16707e-19)
(-2.24331 0.0440729 -3.83857e-20)
(-2.26457 0.0421303 3.76567e-20)
(-2.28485 0.0401508 7.41852e-20)
(-2.30411 0.038136 -7.30558e-20)
(-2.32234 0.0360878 0)
(-2.33948 0.034008 0)
(-2.35551 0.0318984 0)
(-2.37039 0.0297602 2.05855e-19)
(-2.3841 0.0275944 6.74982e-20)
(-2.3966 0.0254022 -6.63038e-20)
(-2.40787 0.0231841 0)
(-2.41787 0.0209403 -6.378e-20)
(-2.42659 0.0186704 6.2638e-20)
(-2.434 0.0163736 6.13845e-20)
(-2.44009 0.0140478 0)
(-2.44485 0.0116881 0)
(-2.44832 0.00928728 0)
(-2.45051 0.00684913 5.61907e-20)
(-2.45152 0.00441235 0)
(-2.45146 0.00205562 -1.07008e-19)
(-2.4503 -0.000161966 -1.56225e-19)
(-2.44769 -0.00228286 1.0133e-19)
(-2.44361 -0.00436685 0)
(-2.43803 -0.00642496 4.78338e-20)
(-2.43093 -0.00846284 0)
(-2.42229 -0.0104807 8.93924e-20)
(-2.4121 -0.0124772 -4.32817e-20)
(-2.40036 -0.0144506 -4.17101e-20)
(-2.38705 -0.0163986 0)
(-2.37218 -0.0183194 -1.14704e-19)
(-2.35573 -0.0202107 7.32501e-20)
(-2.33772 -0.0220707 3.4711e-20)
(-2.31813 -0.023897 0)
(-2.29697 -0.0256882 3.11917e-20)
(-2.27424 -0.027442 8.86682e-20)
(-2.24996 -0.0291569 0)
(-2.22412 -0.030831 5.19299e-20)
(-2.19674 -0.0324631 4.81604e-20)
(-2.16783 -0.0340516 4.43279e-20)
(-2.13741 -0.0355952 0)
(-2.10549 -0.0370917 0)
(-2.07208 -0.0385397 0)
(-2.03721 -0.0399369 -1.4539e-20)
(-2.0009 -0.0412827 -1.17362e-20)
(-1.96316 -0.0425754 0)
(-1.92404 -0.0438147 -1.57162e-20)
(-1.88355 -0.0449996 -1.13719e-20)
(-1.84172 -0.0461306 0)
(-1.79859 -0.0472074 -1.63769e-21)
(-1.75418 -0.0482306 4.09555e-21)
(-1.70853 -0.0492002 -7.5435e-21)
(-1.66166 -0.0501172 -1.04033e-20)
(-1.61363 -0.0509755 0)
(-1.56446 -0.0517707 0)
(-1.5142 -0.0525096 0)
(-1.46288 -0.0531968 -3.16194e-20)
(-1.41056 -0.0538278 3.46192e-20)
(-1.35727 -0.0544003 8.13545e-20)
(-1.30305 -0.0549155 -4.68312e-20)
(-1.24797 -0.0553745 4.99307e-20)
(-1.19205 -0.0557781 5.72913e-20)
(-1.13536 -0.056127 0)
(-1.07794 -0.0564222 0)
(-1.01983 -0.056665 -7.12567e-20)
(-0.961087 -0.0568563 0)
(-0.901762 -0.0569977 0)
(-0.841902 -0.0570906 1.78117e-19)
(-0.781555 -0.0571368 0)
(-0.720771 -0.0571381 9.93612e-20)
(-0.659596 -0.0570967 -1.07476e-19)
(-0.598079 -0.0570147 0)
(-0.536264 -0.0568948 1.16977e-19)
(-0.474196 -0.0567391 0)
(-0.411917 -0.0565508 0)
(-0.349468 -0.0563321 -1.37483e-19)
(-0.286889 -0.0560859 2.84964e-19)
(-0.224217 -0.0558143 -1.49887e-19)
(-0.161486 -0.0555187 0)
(-0.0987316 -0.0551996 0)
(-0.0359898 -0.0548591 1.66554e-19)
(0.0267265 -0.0544977 0)
(0.089393 -0.0541151 1.72892e-19)
(0.152004 -0.0537036 0)
(0.214516 -0.0531096 0)
(0.276814 -0.0522983 0)
(0.338893 -0.0514368 1.82657e-19)
(0.40078 -0.0505888 0)
(0.462465 -0.0497594 -1.86159e-19)
(0.523929 -0.0489368 0)
(0.585136 -0.0481003 0)
(0.646026 -0.0472161 3.79456e-19)
(0.706477 -0.0462286 -3.8213e-19)
(0.7663 -0.0450314 0)
(0.825024 -0.0434241 0)
(0.88228 -0.0409122 0)
(0.935291 -0.0365599 1.18165e-18)
(0.987137 -0.0273832 0)
(1.01633 -0.00505205 -8.20667e-19)
(0.00487862 -0.0437744 -3.45563e-22)
(0.0118264 -0.0536771 1.31233e-18)
(0.014852 -0.0466316 0)
(0.0152645 -0.0365614 -5.69621e-19)
(0.0137332 -0.0260058 0)
(0.0105559 -0.0155917 0)
(0.00597406 -0.00561426 3.18616e-23)
(0.000117483 0.00373818 1.81774e-19)
(-0.0069689 0.0123552 1.73163e-19)
(-0.0153008 0.0202045 1.66362e-19)
(-0.0249293 0.0273132 0)
(-0.0359294 0.0337613 0)
(-0.0483844 0.0396856 -1.51684e-19)
(-0.0623723 0.0452663 -2.94734e-19)
(-0.0779579 0.0506976 2.86167e-19)
(-0.0951923 0.0561573 0)
(-0.114115 0.0617861 2.69187e-19)
(-0.134755 0.0676771 -1.30528e-19)
(-0.157135 0.0738753 0)
(-0.181265 0.0803863 2.44669e-19)
(-0.207124 0.0871962 1.18461e-19)
(-0.234648 0.0942583 -2.28712e-19)
(-0.263743 0.101488 -1.10456e-19)
(-0.294286 0.108775 0)
(-0.32612 0.115991 2.04719e-19)
(-0.359065 0.122997 1.96857e-19)
(-0.392931 0.129651 0)
(-0.427527 0.135825 1.81707e-19)
(-0.46267 0.141408 0)
(-0.498198 0.146318 1.6777e-19)
(-0.533955 0.150505 8.07109e-20)
(-0.569806 0.153941 0)
(-0.605641 0.156615 0)
(-0.641375 0.158541 0)
(-0.676931 0.159756 0)
(-0.71226 0.160321 0)
(-0.747344 0.160301 0)
(-0.782176 0.159772 1.24859e-19)
(-0.816759 0.158808 -1.81326e-19)
(-0.851102 0.157488 0)
(-0.885219 0.155882 0)
(-0.919127 0.154059 0)
(-0.952845 0.152079 8.27668e-23)
(-0.986393 0.149996 1.04609e-19)
(-1.01979 0.147855 2.03798e-19)
(-1.05305 0.145695 -1.98793e-19)
(-1.08618 0.14355 -9.6986e-20)
(-1.11919 0.141444 9.48774e-20)
(-1.15207 0.139388 -1.22925e-22)
(-1.18482 0.137385 9.06635e-20)
(-1.21744 0.135435 0)
(-1.24992 0.133533 8.69727e-20)
(-1.28228 0.131673 -1.43091e-22)
(-1.3145 0.12985 0)
(-1.34657 0.128055 0)
(-1.37851 0.126282 -8.0563e-20)
(-1.41028 0.124522 0)
(-1.4419 0.122767 0)
(-1.47335 0.12101 7.62617e-20)
(-1.50461 0.119243 1.50281e-19)
(-1.53567 0.117458 -7.40656e-20)
(-1.56651 0.115648 0)
(-1.59713 0.113807 7.17149e-20)
(-1.62749 0.111929 0)
(-1.65758 0.110008 6.91843e-20)
(-1.68737 0.10804 6.84423e-20)
(-1.71685 0.106018 -1.34504e-19)
(-1.74598 0.103941 -6.609e-20)
(-1.77474 0.101804 0)
(-1.80311 0.0996041 1.28598e-19)
(-1.83104 0.0973398 0)
(-1.85852 0.095009 1.87435e-19)
(-1.88551 0.0926104 1.23039e-19)
(-1.91198 0.0901432 1.21247e-19)
(-1.9379 0.0876071 -1.1948e-19)
(-1.96323 0.0850023 1.76734e-19)
(-1.98794 0.0823293 0)
(-2.012 0.079589 0)
(-2.03536 0.0767827 -1.12603e-19)
(-2.05801 0.073912 -1.66489e-19)
(-2.0799 0.0709788 0)
(-2.10099 0.0679851 5.38867e-20)
(-2.12125 0.0649335 0)
(-2.14065 0.0618263 -1.56439e-19)
(-2.15915 0.0586665 -1.70997e-22)
(-2.17672 0.0554569 1.58556e-22)
(-2.19332 0.0522006 9.92118e-20)
(-2.20892 0.0489006 0)
(-2.22349 0.0455599 -9.58308e-20)
(-2.23699 0.0421814 -1.04933e-22)
(-2.2494 0.0387679 0)
(-2.26068 0.0353223 0)
(-2.27081 0.031848 0)
(-2.27977 0.0283483 8.71944e-20)
(-2.28753 0.0248272 0)
(-2.29408 0.02129 0)
(-2.2994 0.0177442 0)
(-2.30349 0.0141999 0)
(-2.30634 0.0106719 0)
(-2.30796 0.00718093 7.61005e-20)
(-2.30833 0.00374747 0)
(-2.30742 0.000371966 7.2064e-20)
(-2.30516 -0.00297353 7.00226e-20)
(-2.30149 -0.00630261 -6.79557e-20)
(-2.29639 -0.00960699 0)
(-2.28983 -0.0128832 -6.37411e-20)
(-2.2818 -0.0161288 0)
(-2.27227 -0.0193408 -5.94145e-20)
(-2.26125 -0.0225159 5.72081e-20)
(-2.24872 -0.0256505 1.6536e-19)
(-2.23467 -0.0287412 0)
(-2.21909 -0.0317843 1.51752e-19)
(-2.202 -0.0347766 4.86353e-20)
(-2.18337 -0.0377146 0)
(-2.16322 -0.0405951 8.73225e-20)
(-2.14154 -0.043415 8.25329e-20)
(-2.11833 -0.0461713 -1.16188e-19)
(-2.09361 -0.0488611 0)
(-2.06739 -0.0514816 -3.35366e-20)
(-2.03966 -0.0540306 -3.10112e-20)
(-2.01045 -0.0565055 -8.61805e-20)
(-1.97976 -0.058904 0)
(-1.94761 -0.0612231 0)
(-1.91402 -0.0634602 0)
(-1.879 -0.0656127 -1.89062e-20)
(-1.84258 -0.0676785 0)
(-1.80477 -0.0696558 0)
(-1.76561 -0.071543 9.86477e-21)
(-1.72511 -0.073339 7.1132e-21)
(-1.68332 -0.0750434 0)
(-1.64025 -0.0766564 0)
(-1.59594 -0.0781785 -2.53436e-21)
(-1.55042 -0.07961 0)
(-1.50372 -0.0809505 1.39006e-20)
(-1.45588 -0.0821947 1.84667e-20)
(-1.40693 -0.0833382 0)
(-1.35692 -0.0843864 0)
(-1.30588 -0.0853431 -3.58085e-20)
(-1.25386 -0.0862052 -1.24607e-21)
(-1.2009 -0.0869705 -1.26286e-21)
(-1.14704 -0.0876398 0)
(-1.09233 -0.0882146 -1.19914e-19)
(-1.03681 -0.0886961 0)
(-0.980534 -0.0890857 0)
(-0.923548 -0.0893849 0)
(-0.865899 -0.0895954 8.44775e-20)
(-0.807635 -0.0897191 0)
(-0.748804 -0.0897583 -1.90244e-19)
(-0.689456 -0.0897152 -1.02501e-19)
(-0.629637 -0.0895927 0)
(-0.569397 -0.0893937 -1.14538e-19)
(-0.508781 -0.0891216 0)
(-0.447836 -0.0887797 0)
(-0.386607 -0.088372 -3.9493e-19)
(-0.325138 -0.0879022 2.74343e-19)
(-0.263469 -0.0873745 0)
(-0.201641 -0.0867927 2.98252e-19)
(-0.139692 -0.0861605 -1.56489e-19)
(-0.0776574 -0.0854813 0)
(-0.0155708 -0.0847599 0)
(0.0465401 -0.0840008 0)
(0.108643 -0.0832073 -5.24638e-19)
(0.170706 -0.0823742 0)
(0.232698 -0.0815028 -1.82241e-19)
(0.294611 -0.0806 0)
(0.356439 -0.0796601 0)
(0.418147 -0.0786769 0)
(0.479721 -0.0776694 0)
(0.541151 -0.0766617 0)
(0.602413 -0.0756536 0)
(0.663477 -0.0746299 -4.03153e-19)
(0.724306 -0.0735628 0)
(0.784834 -0.0724044 -2.07758e-19)
(0.844948 -0.0710727 6.28193e-19)
(0.904475 -0.0694167 0)
(0.96303 -0.0671517 0)
(1.02034 -0.0636775 -4.32024e-19)
(1.07457 -0.0578207 -4.39128e-19)
(1.1287 -0.0468702 4.44452e-19)
(1.17044 -0.0237632 4.57736e-19)
(0.00222728 -0.0562948 -3.13741e-18)
(0.00324468 -0.0574032 -1.64498e-18)
(0.000942564 -0.0444778 -6.40879e-19)
(-0.00315617 -0.0304669 -2.28212e-19)
(-0.00864999 -0.016864 0)
(-0.0153417 -0.00387956 3.21015e-19)
(-0.0231244 0.00843263 -1.45423e-19)
(-0.031969 0.0200379 0)
(-0.0419017 0.0309253 -1.2827e-19)
(-0.0529799 0.0411177 0)
(-0.0652804 0.0506753 2.37897e-19)
(-0.0788888 0.059697 0)
(-0.0938882 0.0683163 1.12247e-19)
(-0.110348 0.0766885 2.18296e-19)
(-0.128317 0.0849698 -2.12187e-19)
(-0.147816 0.0932959 0)
(-0.168841 0.101765 -2.00019e-19)
(-0.19136 0.11043 0)
(-0.215319 0.119294 0)
(-0.240636 0.128314 -1.81921e-19)
(-0.267205 0.137411 0)
(-0.294893 0.146477 7.60207e-23)
(-0.323546 0.155384 0)
(-0.352998 0.163996 0)
(-0.383075 0.172172 -4.61976e-23)
(-0.413609 0.17978 -1.47057e-19)
(-0.444446 0.186706 -1.41639e-19)
(-0.475448 0.192861 -1.36464e-19)
(-0.506502 0.198183 0)
(-0.537516 0.202635 -2.5344e-19)
(-0.568415 0.206204 0)
(-0.599147 0.208902 -1.17872e-19)
(-0.629683 0.210761 0)
(-0.660006 0.211832 0)
(-0.690125 0.212183 1.06249e-19)
(-0.72006 0.211897 0)
(-0.749831 0.211064 -9.96376e-20)
(-0.779462 0.209766 2.3078e-23)
(-0.808978 0.208084 1.87595e-19)
(-0.838406 0.206094 -1.82311e-19)
(-0.867768 0.203866 0)
(-0.897084 0.201462 0)
(-0.92637 0.198937 -8.41088e-20)
(-0.955639 0.196339 0)
(-0.984901 0.193705 -8.00713e-20)