/*--------------------------------*- C++ -*----------------------------------*\
| =========                 |                                                 |
| \\      /  F ield         | OpenFOAM: The Open Source CFD Toolbox           |
|  \\    /   O peration     | Version:  2406                                  |
|   \\  /    A nd           | Website:  www.openfoam.com                      |
|    \\/     M anipulation  |                                                 |
\*---------------------------------------------------------------------------*/
FoamFile
{
    version     2.0;
    format      ascii;
    arch        "LSB;label=32;scalar=64";
    class       volScalarField;
    location    "1.6";
    object      nu;
}
// * * * * * * * * * * * * * * * * * * * * * * * * * * * * * * * * * * * * * //

dimensions      [0 2 -1 0 0 0 0];

internalField   nonuniform List<scalar> 
1800
(
0.0231045
0.0218596
0.0290008
0.0677066
0.0214187
0.0130331
0.0106602
0.00948908
0.00912681
0.00840122
0.0200668
0.0357698
0.046001
0.0219811
0.0127899
0.010121
0.009035
0.0083373
0.00830381
0.00750539
0.0195219
0.0747474
0.017981
0.0112628
0.00923255
0.00837265
0.0079685
0.00769955
0.00783759
0.00746345
0.0209347
0.0182352
0.0107758
0.00867838
0.00788914
0.00755685
0.00745983
0.00748871
0.00775038
0.00781726
0.0377428
0.0113617
0.00847935
0.00758404
0.00725689
0.00721455
0.00736235
0.00766884
0.00819857
0.00875639
0.0151371
0.0087889
0.00743256
0.00703448
0.00701037
0.00723757
0.00769881
0.00843444
0.00956256
0.0111596
0.0099915
0.00754178
0.00688828
0.00681709
0.00708312
0.00766628
0.00864469
0.0101633
0.012434
0.0150874
0.0080122
0.00688621
0.00663846
0.0068649
0.00749243
0.00862125
0.0104466
0.0131848
0.0170534
0.0229685
0.00704063
0.00653574
0.00659781
0.00715189
0.00827915
0.0102707
0.0136339
0.0195839
0.0332818
0.0654455
0.00649869
0.00636772
0.00671244
0.00765855
0.00956933
0.0134622
0.0227349
0.0472187
0.064116
0.0300801
0.00854387
0.00938611
0.0110631
0.0134243
0.0158874
0.0180348
0.0200042
0.0221292
0.0244638
0.0264926
0.00846004
0.00915892
0.0107629
0.0132556
0.0161293
0.0187436
0.0210502
0.0233202
0.0255905
0.0278314
0.00858191
0.00899368
0.0103187
0.0126307
0.0157186
0.0190382
0.022222
0.0252558
0.0280759
0.0295998
0.00900591
0.00893554
0.00982009
0.0116288
0.0142424
0.0172718
0.0201467
0.0224141
0.0237797
0.0240151
0.0100348
0.00907674
0.0094194
0.0106136
0.0123956
0.014438
0.0163099
0.0176722
0.0183094
0.0184365
0.0128457
0.00961164
0.00927516
0.00990234
0.0109676
0.0121982
0.0133472
0.0142161
0.0146175
0.0147783
0.0226936
0.0112058
0.00967131
0.00971765
0.0102433
0.0109115
0.011539
0.0120124
0.0122338
0.0122608
0.0236005
0.0158808
0.0113181
0.0103254
0.0103442
0.0105833
0.0107875
0.010874
0.0108514
0.0106467
0.0186391
0.0636874
0.0189638
0.0132838
0.0118355
0.0112774
0.01089
0.0105044
0.0101852
0.00986072
0.0196645
0.0294312
0.0484523
0.0376537
0.0172178
0.0130944
0.0114244
0.0104187
0.0099085
0.009797
0.0277472
0.0177159
0.0143597
0.0150357
0.0147932
0.015105
0.0157336
0.0175067
0.0185017
0.0229928
0.0352129
0.0202786
0.0165305
0.016419
0.0146945
0.0143168
0.0146946
0.0163387
0.0173357
0.0214473
0.0273269
0.0308307
0.0230955
0.0165824
0.013693
0.013013
0.0132409
0.0147269
0.0158268
0.0195898
0.0199346
0.027712
0.0320834
0.0148797
0.0125792
0.0119665
0.0119826
0.0130789
0.0141181
0.0175115
0.0158496
0.0193645
0.0192697
0.0134147
0.0118165
0.0113984
0.0112995
0.0119438
0.012652
0.0155075
0.0135853
0.0150244
0.0148219
0.0123512
0.011125
0.0109754
0.0110394
0.0114284
0.0117338
0.0139303
0.0121398
0.0127327
0.0131175
0.011412
0.0104672
0.0104684
0.0108506
0.0113275
0.0113848
0.0129616
0.0111131
0.0112741
0.0120964
0.0107876
0.0101375
0.0100809
0.0105712
0.0113354
0.0114769
0.0126012
0.0101218
0.0109104
0.0120065
0.0105611
0.0101781
0.0100661
0.0103786
0.0112813
0.0118117
0.0127709
0.00948041
0.0101531
0.0109722
0.0100499
0.010238
0.0103376
0.0104718
0.0112822
0.0122243
0.0133821
0.00917731
0.00986502
0.0103372
0.0101292
0.0106031
0.0108539
0.0109446
0.0115756
0.0127913
0.0146605
0.00858742
0.00960898
0.00946181
0.0102729
0.0113807
0.0115438
0.0118124
0.0125978
0.0140108
0.0173638
0.00927372
0.00959949
0.0100663
0.0125563
0.0133741
0.0120391
0.0122283
0.0136906
0.0156515
0.0215648
0.0110521
0.0105969
0.0122632
0.0180194
0.0158742
0.0127633
0.0123441
0.0137655
0.016038
0.0232667
0.0129538
0.0127822
0.0153533
0.0369315
0.0168715
0.0128137
0.0124914
0.0137079
0.0154066
0.0201593
0.0159667
0.0153063
0.0161685
0.019619
0.0124051
0.010961
0.01109
0.0121356
0.0133982
0.0159268
0.0200914
0.0150305
0.0139811
0.0106207
0.00916268
0.00905577
0.00955611
0.01046
0.0113368
0.0126611
0.012559
0.0112003
0.0092673
0.00797823
0.00778351
0.00814494
0.00873933
0.00944347
0.00997934
0.0106078
0.00832266
0.00776049
0.00729565
0.00730956
0.00773858
0.0083813
0.00887774
0.00923066
0.00938775
0.00955423
0.00676541
0.00689305
0.00723138
0.00811481
0.00990896
0.012136
0.0125807
0.011427
0.0103396
0.00975268
0.019946
0.0354221
0.116377
0.0254368
0.0166092
0.0121249
0.00945023
0.00859895
0.00793575
0.00837795
0.0197947
0.0239181
0.0327023
0.0626462
0.024616
0.0242034
0.0134599
0.0119629
0.00948562
0.00858108
0.0209526
0.0220046
0.0242262
0.0245964
0.0280347
0.0224865
0.0196705
0.0146586
0.0135511
0.0105408
0.0202758
0.0200293
0.0224062
0.0197657
0.0241029
0.0187141
0.0223961
0.0159429
0.0173349
0.013252
0.0198796
0.0200319
0.0221491
0.0205394
0.0229194
0.0198928
0.021516
0.0179533
0.0181742
0.0156257
0.018269
0.0192663
0.0200151
0.02158
0.0219111
0.0234458
0.0233358
0.022097
0.021631
0.0187497
0.0149593
0.015568
0.0155978
0.0167127
0.0167709
0.018528
0.0186408
0.0210896
0.0209548
0.0223676
0.0111333
0.0113991
0.01124
0.0116584
0.0115037
0.0121037
0.0119322
0.0127649
0.012523
0.0135754
0.00830804
0.00830089
0.00825196
0.00828228
0.00826046
0.00832169
0.00831815
0.00840115
0.00840838
0.00849882
0.00650112
0.00647915
0.00649467
0.00648445
0.00652297
0.00652046
0.00658212
0.00658368
0.00666637
0.00667179
0.0103024
0.0106105
0.0104047
0.010201
0.010111
0.0103225
0.0111029
0.01006
0.00703191
0.00579099
0.0106302
0.0106395
0.0104257
0.0101964
0.0101118
0.0104181
0.0114039
0.00991333
0.00691691
0.00575372
0.0108843
0.0108571
0.0106307
0.0103736
0.0102901
0.0107213
0.011953
0.00968258
0.00680761
0.005728
0.0111517
0.0111325
0.0109344
0.010707
0.0106774
0.0113192
0.0128306
0.00935206
0.00669866
0.00571279
0.0114388
0.0115127
0.011345
0.0111117
0.0112063
0.0123929
0.014261
0.00895969
0.00659837
0.00571458
0.0118549
0.0118818
0.0117541
0.0116945
0.0121566
0.0143864
0.0144857
0.0085187
0.00650702
0.0057348
0.012362
0.012611
0.0126734
0.0126836
0.0139927
0.0202693
0.0131479
0.00806828
0.00642287
0.00577893
0.0133088
0.0135167
0.0134299
0.0147134
0.0213198
0.0237484
0.0111772
0.00763101
0.00635433
0.00585581
0.0141504
0.014593
0.0168051
0.0280964
0.248514
0.0175276
0.00955624
0.00724856
0.00631079
0.00597989
0.0166982
0.0220598
0.0418745
0.0739189
0.0240124
0.0119832
0.00842285
0.00693925
0.00630767
0.00617786
0.0119567
0.0115063
0.0111065
0.0107537
0.0104266
0.0101346
0.00987747
0.00961848
0.009299
0.00804552
0.0118047
0.0113953
0.0110265
0.0106883
0.0103728
0.0100975
0.00987102
0.00959099
0.00889955
0.0073229
0.0116521
0.0112816
0.0109386
0.0106098
0.0103027
0.0100459
0.00986262
0.00958248
0.00855873
0.00687676
0.0115274
0.0112107
0.0108981
0.0105703
0.0102618
0.0100183
0.00987893
0.009596
0.00826745
0.00657623
0.0114172
0.0111644
0.010893
0.0105738
0.0102628
0.0100246
0.00992035
0.00961844
0.00800574
0.00635458
0.0112921
0.0110972
0.0108692
0.0105636
0.0102708
0.0100751
0.0100523
0.0097236
0.00778927
0.00619175
0.0112565
0.0111167
0.0109065
0.0105793
0.0102674
0.0100931
0.010162
0.00980753
0.00759898
0.00606721
0.0112562
0.0111292
0.0109443
0.0106228
0.0103294
0.0102097
0.0103969
0.00993871
0.00743321
0.00597159
0.01148
0.0113161
0.0110273
0.0106097
0.0102896
0.0102279
0.0105716
0.0100193
0.00728639
0.00589703
0.0113924
0.0111125
0.0109079
0.0106026
0.0103438
0.0103625
0.0108755
0.0100785
0.00715154
0.00583732
0.140329
0.0452562
0.0347514
0.0419516
0.0441919
0.0405079
0.0329411
0.0274147
0.0200737
0.0140003
0.115191
0.044928
0.033254
0.0387814
0.0434783
0.0417184
0.0352856
0.0281665
0.0207089
0.013809
0.0972117
0.0445386
0.0318878
0.0364458
0.0426416
0.0422698
0.0384108
0.028663
0.0215615
0.0136287
0.0846538
0.0438639
0.0305928
0.0346697
0.0418203
0.0425251
0.0425872
0.0288448
0.0224966
0.0134283
0.075447
0.0428505
0.0293991
0.0333154
0.0410516
0.0427635
0.0477272
0.0287891
0.0232224
0.0131799
0.0686719
0.0417003
0.0284134
0.0323073
0.0403348
0.0429433
0.0520328
0.0288037
0.0228436
0.012986
0.0641776
0.0408954
0.0277242
0.0315636
0.0395892
0.0429377
0.0516749
0.0290558
0.0213302
0.0127426
0.0621572
0.0411145
0.0273582
0.0309157
0.0385476
0.0430299
0.0458548
0.029465
0.0187892
0.0128271
0.0628907
0.0426674
0.0272725
0.0301333
0.0368154
0.0426249
0.038352
0.0287758
0.0176826
0.012465
0.0663625
0.0445572
0.02686
0.0294758
0.0339841
0.0380434
0.0307915
0.0249152
0.0153007
0.0139219
0.0716963
0.0508721
0.0267647
0.0287801
0.0280561
0.0324971
0.0207224
0.0209063
0.0138745
0.0144264
0.0688081
0.0591209
0.025569
0.0281841
0.0203228
0.02969
0.0148304
0.0190537
0.0124696
0.0137257
0.0622333
0.0679215
0.0251492
0.0236502
0.0170177
0.025455
0.0132421
0.0183986
0.0122515
0.0132308
0.0575753
0.0741109
0.0265968
0.0183385
0.0177249
0.0198321
0.0147081
0.01723
0.0140959
0.0127303
0.0572001
0.0654189
0.0283803
0.0161825
0.0210758
0.0174896
0.0192809
0.0164561
0.0175395
0.0135462
0.0572342
0.0490573
0.0289186
0.0160921
0.0202607
0.017407
0.020461
0.0176941
0.0203902
0.0153554
0.0503157
0.0469678
0.0340032
0.0184696
0.0170002
0.0186311
0.016664
0.0208581
0.0185188
0.0170988
0.0364081
0.0733774
0.0357365
0.0242122
0.0138546
0.0164783
0.0124794
0.0152574
0.0133544
0.0149495
0.0223706
0.0199118
0.0137348
0.0121631
0.010896
0.0104877
0.0100497
0.0101221
0.00987041
0.00988722
0.0079305
0.00788162
0.0083384
0.00854046
0.00861997
0.00804615
0.00830656
0.00759775
0.00757045
0.00719429
0.0114197
0.0112594
0.0111645
0.0113872
0.0116704
0.012166
0.0126845
0.0134687
0.0146134
0.0160734
0.0120198
0.0118185
0.011836
0.012189
0.0126689
0.0133511
0.0141333
0.0150611
0.0163322
0.0181654
0.012574
0.0125487
0.0128183
0.0133753
0.0140412
0.0148443
0.0156591
0.0166297
0.0178215
0.0189872
0.0133648
0.0135534
0.013998
0.0145592
0.0151858
0.0157417
0.0164057
0.0169414
0.0179964
0.0183831
0.0146479
0.0148571
0.0152757
0.0156302
0.0160476
0.0162979
0.0167974
0.0171073
0.0180179
0.0183604
0.0159887
0.0159797
0.0161718
0.0163295
0.0164705
0.0165442
0.0167024
0.0168876
0.0172458
0.0176837
0.0165496
0.016195
0.0159194
0.0157684
0.0154344
0.0153046
0.0149522
0.0149701
0.0147618
0.0150292
0.0137195
0.0132251
0.0127133
0.0124163
0.0120161
0.0118828
0.0115222
0.0115223
0.0112201
0.0113498
0.00964389
0.00943152
0.00923359
0.00906205
0.00890907
0.00877813
0.00864735
0.00855245
0.00844187
0.00839028
0.0070831
0.00698317
0.00689536
0.00680947
0.00674113
0.00667111
0.00662301
0.00656956
0.00654282
0.00650673
0.00582074
0.00658336
0.00843608
0.0144261
0.0403075
0.0168412
0.0127453
0.0111823
0.00970326
0.00819758
0.00589964
0.00651332
0.00796895
0.0122218
0.0367502
0.0232727
0.0143985
0.0114274
0.00964828
0.00813783
0.00602409
0.00647879
0.00757842
0.0103098
0.017703
0.0214309
0.0157178
0.0120126
0.00986403
0.00829005
0.00620947
0.00649076
0.00727997
0.00908758
0.0128836
0.0169609
0.0159115
0.01284
0.0104082
0.00862224
0.00647894
0.00656471
0.00708419
0.00830294
0.0106484
0.0138159
0.0150325
0.0135348
0.0112536
0.0092136
0.00686602
0.00671943
0.00699932
0.00781241
0.00934839
0.0116729
0.0137048
0.0138356
0.0123242
0.00998594
0.00742309
0.00697906
0.00703087
0.00753929
0.00856129
0.0101959
0.0121432
0.0133098
0.0131963
0.0111647
0.0082346
0.00737705
0.00718921
0.00744165
0.00810358
0.00924453
0.0108531
0.0124435
0.0134571
0.0120682
0.00944348
0.00796072
0.00749954
0.00751284
0.007883
0.00862609
0.00977462
0.0111874
0.0128495
0.0120944
0.0113002
0.00878765
0.00800178
0.00778265
0.00790412
0.00833687
0.0091
0.0101801
0.0117503
0.0126538
0.0142954
0.00991065
0.00872831
0.00828824
0.00818824
0.00836036
0.00879263
0.00948165
0.0102904
0.0119195
0.0190975
0.0113829
0.00970342
0.00909712
0.00881813
0.00877323
0.00895568
0.00934885
0.00967705
0.0109282
0.0241247
0.0129193
0.0108528
0.0102733
0.00995145
0.00973125
0.00968533
0.00982915
0.00983254
0.0106186
0.0242919
0.013331
0.0116127
0.0115296
0.0116351
0.011479
0.0111755
0.010965
0.0106288
0.010965
0.0190621
0.0124642
0.0116792
0.012211
0.013191
0.0140178
0.0138868
0.0131162
0.0122056
0.0120156
0.0142887
0.0115665
0.0115363
0.0124576
0.0140181
0.01641
0.0187268
0.0179216
0.015429
0.0141328
0.0116369
0.0108674
0.0113928
0.0126808
0.0146203
0.0179336
0.0247415
0.0318951
0.0242097
0.018613
0.0101509
0.0103433
0.0112941
0.0129063
0.0151726
0.0187593
0.0276245
0.0633436
0.0701559
0.027722
0.00929891
0.00995922
0.0112616
0.0131487
0.0156063
0.01912
0.0250428
0.0354478
0.0486307
0.0328411
0.00881173
0.00965615
0.0112233
0.0133604
0.0157212
0.0181777
0.0208625
0.0240892
0.0276156
0.0279847
0.0112745
0.0116955
0.0135897
0.0197802
0.0493716
0.0384758
0.025847
0.0245703
0.0238443
0.0289794
0.0109841
0.0117186
0.0139033
0.0197123
0.0330012
0.0314658
0.0249472
0.0243087
0.0239903
0.0303798
0.0109192
0.0117942
0.0140552
0.0185663
0.0252797
0.0268677
0.0240245
0.023908
0.0237744
0.0302647
0.0112933
0.012009
0.0142845
0.0176551
0.0220197
0.0236321
0.0228578
0.0233243
0.0233316
0.0295014
0.0119805
0.0124427
0.0146033
0.0170049
0.0199389
0.0213344
0.0216277
0.0226276
0.0227782
0.0285452
0.0128407
0.0131915
0.0147759
0.0163262
0.0182165
0.0195503
0.0204315
0.0218772
0.0222065
0.0276396
0.0140904
0.0142567
0.0146503
0.0155426
0.0167572
0.0180647
0.0192722
0.0210671
0.0216253
0.0268456
0.0158222
0.0154244
0.0143223
0.0147844
0.0156174
0.0168548
0.0181792
0.0201933
0.0209922
0.0260923
0.0180608
0.0163978
0.0139596
0.0142743
0.0148926
0.0159763
0.0172234
0.0192927
0.0202703
0.0252609
0.0213131
0.017081
0.0138223
0.0142725
0.0146429
0.0154613
0.016449
0.0184115
0.0194476
0.0242494
0.0106385
0.0166153
0.0218198
0.038912
0.13209
0.066832
0.0275541
0.0185091
0.0151653
0.0132953
0.00894324
0.0111879
0.0141282
0.0181821
0.0207273
0.0187837
0.0159933
0.0141537
0.013371
0.0126568
0.00897785
0.0105831
0.0132838
0.0166411
0.0183052
0.018295
0.016817
0.0158625
0.0152804
0.0146728
0.00978223
0.0107125
0.0133724
0.0190604
0.02761
0.0266483
0.0216
0.0201306
0.0191588
0.0190894
0.0116202
0.0117763
0.0136907
0.020069
0.0658587
0.0367997
0.0248271
0.023339
0.0223864
0.0247625
0.00586002
0.0059623
0.0061069
0.00631064
0.0065486
0.00685218
0.00720775
0.00756826
0.00812926
0.00842831
0.00607947
0.00615968
0.00628666
0.0064631
0.00665853
0.00688887
0.00715749
0.00737256
0.00778487
0.00790609
0.00637656
0.00643179
0.00655297
0.00672302
0.00691747
0.00715883
0.00738017
0.00767562
0.00795415
0.00827952
0.00678366
0.0068102
0.00694246
0.00713489
0.007394
0.00773319
0.00800409
0.0086786
0.00878847
0.0100368
0.00731812
0.00730954
0.0074645
0.00771498
0.00811874
0.00860551
0.00922844
0.0102995
0.010491
0.0135552
0.0124822
0.0122132
0.0119548
0.0115471
0.0111635
0.010935
0.0109172
0.0104483
0.0081779
0.00638017
0.0127378
0.0124682
0.0120428
0.0115174
0.0110921
0.010841
0.0107823
0.0104131
0.00842931
0.00654424
0.0124005
0.0121877
0.0118995
0.0115158
0.0111635
0.0109067
0.0107732
0.0104121
0.00871645
0.00675055
0.0124982
0.012255
0.0119267
0.0115208
0.0111296
0.0108087
0.0105891
0.010277
0.00902457
0.00702676
0.0124893
0.0121623
0.0117884
0.0113861
0.0110088
0.0106916
0.0104579
0.0102227
0.00941824
0.00743004
0.012481
0.0120856
0.0116779
0.011278
0.0109039
0.0105767
0.0103192
0.0101451
0.00983805
0.00804763
0.012424
0.0119719
0.0115363
0.0111334
0.0107553
0.0104148
0.0101385
0.0100309
0.0102795
0.00919356
0.0123225
0.0118354
0.0113857
0.010983
0.0106023
0.010251
0.00995605
0.00987445
0.0105788
0.0117878
0.0122025
0.0117079
0.0112638
0.0108744
0.0105075
0.0101678
0.00987116
0.00973248
0.0103276
0.0127383
0.0120828
0.0116059
0.0111837
0.0108159
0.0104738
0.0101623
0.00988187
0.0096694
0.00978694
0.00948975
0.00849209
0.00993528
0.0111213
0.0119686
0.0130927
0.0162727
0.0149134
0.00890822
0.00667584
0.0057758
0.00904416
0.0102131
0.0109256
0.0113854
0.0119028
0.0130075
0.0140767
0.00937493
0.00678243
0.00575714
0.00965934
0.0103693
0.0106923
0.0108545
0.0110722
0.0116744
0.012501
0.00968601
0.00690109
0.00576199
0.0100239
0.0103495
0.0104892
0.0105595
0.0106423
0.01096
0.0116255
0.00992217
0.00702925
0.00578497
0.0101838
0.0103518
0.010405
0.010405
0.010421
0.0106277
0.0111444
0.0100158
0.0071558
0.0058248
0.0103603
0.0104754
0.0104776
0.0104186
0.0103617
0.0104671
0.0108744
0.0100929
0.00729228
0.00587955
0.0106639
0.0107355
0.010658
0.0105152
0.0103943
0.0104387
0.0107641
0.0101427
0.00743413
0.00594822
0.0110745
0.0110493
0.0108552
0.010625
0.0104517
0.0104515
0.0107186
0.0102089
0.00759156
0.00603197
0.0114007
0.0112218
0.0109442
0.01069
0.0105183
0.0105123
0.0107469
0.0103081
0.00776674
0.00613092
0.0112377
0.0113074
0.0111021
0.0108791
0.010714
0.0106806
0.0108466
0.0104185
0.00796411
0.00624616
0.0376984
0.0373202
0.142123
0.0361004
0.0259565
0.025324
0.0284294
0.0425369
0.0263913
0.0178292
0.0425257
0.0383533
0.10343
0.0471954
0.0287678
0.0258725
0.0272897
0.0298973
0.0261147
0.0154032
0.0489174
0.0402095
0.0714151
0.060857
0.0315179
0.0266893
0.0274355
0.0266071
0.0248352
0.0145849
0.0574213
0.041826
0.0582189
0.07719
0.0337283
0.0273049
0.0272319
0.0245899
0.0227388
0.0145686
0.0686585
0.0430376
0.0516754
0.0919719
0.0356997
0.028085
0.0271191
0.023715
0.0212153
0.0146565
0.0835467
0.0440347
0.0472237
0.091202
0.0378347
0.0293413
0.0273516
0.023662
0.020333
0.0147026
0.103935
0.0449756
0.0437335
0.0767263
0.0402043
0.0311543
0.0278982
0.0240854
0.0198168
0.0146569
0.131985
0.045747
0.040882
0.0627679
0.0424348
0.0334504
0.028704
0.0247809
0.0195521
0.0145252
0.160995
0.0460084
0.0384965
0.052991
0.0439545
0.0360264
0.0297711
0.0256265
0.0195083
0.0143526
0.164375
0.0456997
0.0364738
0.0464341
0.0444797
0.0385242
0.0311519
0.0265332
0.0196778
0.0141707
0.00725061
0.00742402
0.00823715
0.00887353
0.00951285
0.0096913
0.00983354
0.00938546
0.00936162
0.00785149
0.0149911
0.0107945
0.00971218
0.00994524
0.0104146
0.0108233
0.0113085
0.0115113
0.0116074
0.0114604
0.0253246
0.0234502
0.0131026
0.0121015
0.0121917
0.0128029
0.013657
0.0154754
0.0157015
0.0144893
0.0306001
0.0450909
0.0216431
0.0163427
0.0154769
0.0162893
0.0178495
0.0250036
0.0275565
0.015369
0.0340576
0.0378481
0.049352
0.02374
0.02015
0.0207293
0.023478
0.0449337
0.0352884
0.0172342
0.00734749
0.00701833
0.00670446
0.00642905
0.0062047
0.00603055
0.00590452
0.00582615
0.00579315
0.00580445
0.0104628
0.00960698
0.00878175
0.00806834
0.00743917
0.00691523
0.00652394
0.00626476
0.00611774
0.00606204
0.0122567
0.0113269
0.0104684
0.00974289
0.0089994
0.00820176
0.00746587
0.00691784
0.0065803
0.00641452
0.0124564
0.0115749
0.0109302
0.0104873
0.0100427
0.00943991
0.0086108
0.00778385
0.00720564
0.00689363
0.0124327
0.0115899
0.0109284
0.0104896
0.0101529
0.00984855
0.00940374
0.00870224
0.00799295
0.00752274
)
;

boundaryField
{
    left
    {
        type            calculated;
        value           nonuniform List<scalar> 
35
(
0.0431793
0.0461677
0.0493621
0.0533995
0.058147
0.0572126
0.0469629
0.0332197
0.0196683
0.00789553
0.0766375
0.0705681
0.0639148
0.0577014
0.0522351
0.0476403
0.0440793
0.0417346
0.0407386
0.0411437
0.035151
0.0398541
0.0457241
0.0528601
0.0608798
0.0689907
0.0760917
0.0807194
0.0820712
0.0806399
0.00721349
0.0136864
0.0218865
0.0272225
0.0313969
)
;
    }
    right
    {
        type            calculated;
        value           nonuniform List<scalar> 
35
(
0.0133018
0.0126805
0.0147808
0.0196024
0.0267029
0.0333135
0.0364494
0.0371877
0.0367921
0.0360198
0.0353189
0.0348205
0.0343885
0.0337581
0.0326661
0.0308988
0.0282687
0.0247596
0.0209007
0.0175604
0.0152286
0.0139115
0.0134402
0.0136563
0.0144533
0.0162162
0.0201329
0.0272847
0.0275208
0.0213893
0.016216
0.0128077
0.0106916
0.00959059
0.00976454
)
;
    }
    down
    {
        type            calculated;
        value           nonuniform List<scalar> 
40
(
0.00638308
0.00675331
0.00781903
0.00854486
0.00922787
0.00929728
0.0092999
0.00872069
0.0086149
0.00703373
0.00663536
0.00640201
0.00618208
0.00599594
0.0058579
0.00576357
0.00570363
0.00567354
0.00567232
0.0057029
0.00577139
0.00588366
0.0060393
0.00626098
0.00652904
0.00688866
0.00730884
0.00780178
0.00848258
0.00903724
0.0139363
0.0612562
0.086838
0.126623
0.040459
0.0342643
0.0553674
0.0424292
0.0198368
0.015004
)
;
    }
    up
    {
        type            calculated;
        value           nonuniform List<scalar> 
40
(
0.00636916
0.00678549
0.00786434
0.0101028
0.0188152
0.0239793
0.0262883
0.0205239
0.012351
0.0104308
0.00604382
0.00602959
0.00605136
0.00604508
0.00608717
0.00608557
0.00614947
0.00615026
0.00623589
0.00623998
0.00648493
0.0064053
0.00633385
0.00626632
0.00621075
0.00615776
0.00612108
0.00608287
0.00606603
0.00604118
0.00678672
0.00681876
0.0073969
0.00778605
0.00794022
0.00746107
0.00770614
0.00696384
0.00693692
0.00658176
)
;
    }
    cylinder
    {
        type            calculated;
        value           nonuniform List<scalar> 
80
(
0.00835106
0.00834628
0.00863885
0.00944201
0.0115892
0.0209446
0.0258691
0.0160644
0.0135175
0.0157252
0.0232849
0.0153795
0.0138191
0.0149259
0.0226433
0.0311112
0.0156187
0.00963129
0.00769661
0.00677
0.00550554
0.0054827
0.00547163
0.00547254
0.00549248
0.0055356
0.00561149
0.00573495
0.00593205
0.0062485
0.00742861
0.00676391
0.00637531
0.0061216
0.00593884
0.00580748
0.0057089
0.00563512
0.00557942
0.00553669
0.0059534
0.00608308
0.00624688
0.00646884
0.00679676
0.00731434
0.00832492
0.0109918
0.0133631
0.00891511
0.00554399
0.00550346
0.00548944
0.0054953
0.00551944
0.00555834
0.00561054
0.00567627
0.00575518
0.00584708
0.00561728
0.00573507
0.00591457
0.00617839
0.00656014
0.00711487
0.00794618
0.00926312
0.0115404
0.0161325
0.0296254
0.0889083
0.11634
0.0903775
0.0584503
0.0197504
0.0128253
0.0103191
0.00916717
0.00860415
)
;
    }
    defaultFaces
    {
        type            empty;
    }
}


// ************************************************************************* //
