/*--------------------------------*- C++ -*----------------------------------*\
| =========                 |                                                 |
| \\      /  F ield         | OpenFOAM: The Open Source CFD Toolbox           |
|  \\    /   O peration     | Version:  2406                                  |
|   \\  /    A nd           | Website:  www.openfoam.com                      |
|    \\/     M anipulation  |                                                 |
\*---------------------------------------------------------------------------*/
FoamFile
{
    version     2.0;
    format      ascii;
    arch        "LSB;label=32;scalar=64";
    class       volScalarField;
    location    "1.6";
    object      p;
}
// * * * * * * * * * * * * * * * * * * * * * * * * * * * * * * * * * * * * * //

dimensions      [0 2 -2 0 0 0 0];

internalField   nonuniform List<scalar> 
1800
(
-0.586775
-0.590183
-0.587942
-0.577389
-0.566118
-0.557019
-0.54437
-0.52893
-0.513889
-0.5127
-0.613588
-0.61942
-0.618842
-0.609801
-0.600128
-0.5912
-0.579937
-0.566612
-0.550619
-0.561626
-0.654148
-0.654026
-0.651913
-0.646046
-0.637391
-0.627096
-0.614699
-0.600564
-0.583596
-0.581737
-0.701867
-0.695297
-0.686474
-0.679487
-0.670772
-0.65928
-0.644915
-0.628374
-0.610543
-0.596228
-0.737474
-0.734365
-0.728603
-0.719564
-0.707786
-0.692732
-0.674461
-0.653992
-0.632671
-0.612438
-0.798001
-0.784121
-0.775702
-0.763771
-0.747199
-0.726009
-0.701235
-0.674264
-0.646334
-0.618842
-0.857957
-0.839737
-0.827768
-0.810538
-0.786284
-0.756404
-0.723276
-0.688763
-0.654269
-0.620645
-0.922344
-0.899947
-0.883081
-0.857167
-0.82177
-0.780909
-0.738276
-0.695998
-0.655036
-0.613735
-0.990033
-0.962436
-0.937488
-0.89878
-0.849176
-0.795693
-0.742343
-0.68978
-0.637532
-0.588118
-1.05225
-1.01941
-0.981616
-0.926651
-0.861738
-0.795725
-0.730878
-0.665905
-0.604258
-0.549482
-0.959335
-0.962076
-0.963132
-0.964267
-0.965691
-0.967455
-0.969652
-0.972211
-0.974887
-0.977615
-0.935908
-0.935654
-0.936124
-0.937375
-0.93945
-0.942319
-0.946048
-0.950726
-0.956436
-0.963231
-0.906248
-0.902441
-0.90192
-0.902914
-0.905287
-0.909051
-0.914198
-0.920814
-0.928917
-0.938365
-0.868657
-0.860889
-0.859079
-0.859182
-0.861023
-0.864826
-0.870562
-0.878201
-0.887743
-0.898911
-0.823444
-0.811737
-0.808179
-0.806376
-0.806317
-0.808591
-0.813268
-0.820238
-0.829317
-0.839898
-0.772966
-0.75892
-0.75309
-0.748244
-0.744724
-0.743458
-0.744662
-0.748267
-0.75406
-0.761292
-0.71363
-0.705482
-0.69847
-0.690576
-0.682883
-0.676511
-0.671973
-0.669432
-0.668951
-0.670392
-0.668148
-0.661176
-0.650675
-0.640477
-0.629233
-0.617481
-0.606052
-0.595471
-0.586401
-0.580558
-0.627432
-0.623138
-0.617494
-0.607645
-0.592604
-0.576268
-0.558633
-0.540434
-0.523179
-0.51041
-0.591736
-0.596686
-0.592654
-0.578524
-0.565422
-0.552608
-0.534298
-0.51367
-0.493249
-0.475434
-0.993479
-1.12885
-1.17655
-1.09146
-0.843381
-0.549738
-0.31013
-0.150305
-0.0547193
-0.00630191
-1.00672
-1.21304
-1.29996
-1.21685
-0.923401
-0.582617
-0.31171
-0.140077
-0.0439602
-0.0010902
-1.01038
-1.29914
-1.43726
-1.35885
-1.01449
-0.620558
-0.313753
-0.128731
-0.0320288
0.00499487
-0.996446
-1.37795
-1.57979
-1.51108
-1.11395
-0.663004
-0.316865
-0.117082
-0.0194458
0.0116441
-0.954272
-1.43724
-1.71269
-1.66573
-1.22013
-0.709808
-0.322398
-0.106766
-0.00743121
0.0180495
-0.880163
-1.46574
-1.82482
-1.81388
-1.33011
-0.761097
-0.33185
-0.0995962
0.00229055
0.0230191
-0.775758
-1.45434
-1.90781
-1.94574
-1.43872
-0.816128
-0.346323
-0.0968947
0.00810033
0.0254976
-0.648616
-1.4
-1.95144
-2.05014
-1.53754
-0.872549
-0.366655
-0.0997072
0.00902713
0.0251163
-0.514246
-1.30191
-1.95081
-2.11744
-1.61863
-0.927252
-0.393058
-0.109291
0.00459275
0.0221126
-0.400759
-1.17036
-1.909
-2.14627
-1.68228
-0.978957
-0.424534
-0.126193
-0.00540974
0.0168003
-0.292753
-1.05877
-1.87152
-2.1588
-1.70053
-1.00057
-0.448885
-0.149485
-0.0235755
0.00743402
-0.317077
-1.01144
-1.8009
-2.06898
-1.62125
-0.977216
-0.471154
-0.18915
-0.0547699
-0.00625128
-0.377319
-0.971896
-1.67852
-1.9093
-1.51446
-0.954679
-0.502682
-0.235448
-0.0898968
-0.0197389
-0.422441
-0.907714
-1.49284
-1.70243
-1.3992
-0.947066
-0.552581
-0.290923
-0.127442
-0.0331996
-0.433583
-0.812961
-1.29271
-1.49191
-1.29666
-0.960025
-0.62241
-0.357871
-0.167586
-0.0459544
-0.41451
-0.71036
-1.1018
-1.3014
-1.21947
-0.994583
-0.700411
-0.425603
-0.207196
-0.0570267
-0.371769
-0.605549
-0.924185
-1.13958
-1.17039
-1.04823
-0.778333
-0.483103
-0.235737
-0.0630492
-0.316314
-0.504584
-0.772535
-1.01354
-1.13994
-1.08103
-0.820718
-0.514688
-0.252069
-0.0660062
-0.24638
-0.43973
-0.69778
-0.925209
-1.09663
-1.08135
-0.829855
-0.524626
-0.259361
-0.0680541
-0.210494
-0.405727
-0.697476
-0.953497
-1.0875
-1.05642
-0.810956
-0.514263
-0.258652
-0.0687794
-0.457608
-0.500651
-0.534396
-0.55836
-0.570834
-0.577579
-0.573487
-0.551757
-0.497884
-0.483922
-0.343959
-0.395249
-0.436154
-0.471783
-0.494034
-0.506862
-0.504092
-0.493945
-0.474323
-0.476688
-0.247335
-0.301443
-0.345001
-0.384836
-0.415107
-0.437365
-0.444305
-0.452633
-0.448094
-0.450895
-0.162947
-0.218212
-0.26514
-0.306817
-0.34169
-0.372648
-0.391119
-0.411367
-0.417489
-0.429792
-0.0904572
-0.146098
-0.194802
-0.238837
-0.276006
-0.311452
-0.336904
-0.363371
-0.380339
-0.402837
-0.0294955
-0.0847017
-0.133507
-0.178179
-0.216225
-0.252404
-0.281445
-0.310986
-0.335425
-0.363974
0.0205061
-0.0335693
-0.0817314
-0.125361
-0.163213
-0.197917
-0.228171
-0.257455
-0.284644
-0.313402
0.0602615
0.00724377
-0.0403602
-0.0822403
-0.119023
-0.151171
-0.180118
-0.206359
-0.231622
-0.256283
0.0848981
0.0326402
-0.0148307
-0.0552805
-0.0907485
-0.11992
-0.145692
-0.166832
-0.185683
-0.201826
0.0964354
0.0435055
-0.0041677
-0.0455917
-0.0818366
-0.111582
-0.137105
-0.156354
-0.172003
-0.182532
0.747933
0.689866
0.623181
0.552809
0.477608
0.395063
0.305422
0.214233
0.131327
0.0779058
0.58178
0.520246
0.45175
0.377381
0.295439
0.204036
0.104405
0.00338754
-0.0877448
-0.147935
0.397871
0.335165
0.265931
0.189334
0.103452
0.0067031
-0.0990528
-0.206376
-0.302816
-0.367583
0.22006
0.155688
0.0843013
0.00478687
-0.084546
-0.18507
-0.294716
-0.406286
-0.506159
-0.570866
0.0583225
-0.00858316
-0.0830969
-0.166088
-0.259028
-0.362912
-0.47437
-0.588921
-0.687436
-0.751468
-0.0879634
-0.157212
-0.23393
-0.318847
-0.413341
-0.518432
-0.630086
-0.741785
-0.838559
-0.900136
-0.216972
-0.287383
-0.364919
-0.450376
-0.54511
-0.647752
-0.755746
-0.862366
-0.953771
-1.01039
-0.330185
-0.399543
-0.475901
-0.55886
-0.64512
-0.741668
-0.846012
-0.946337
-1.02869
-1.07913
-0.422182
-0.485738
-0.554608
-0.633105
-0.72095
-0.816439
-0.910206
-0.996159
-1.06405
-1.10748
-0.4964
-0.556668
-0.623836
-0.699414
-0.774809
-0.851609
-0.931814
-1.00422
-1.05789
-1.0957
1.71441
1.72573
1.73761
1.74903
1.75936
1.76818
1.77498
1.7793
1.78307
1.79937
1.67379
1.68308
1.69231
1.70062
1.70749
1.71247
1.71511
1.71543
1.71606
1.72962
1.61437
1.62084
1.6265
1.63069
1.63302
1.63296
1.63007
1.62488
1.62068
1.62992
1.5373
1.54039
1.54159
1.54058
1.53714
1.53066
1.5207
1.50829
1.49748
1.50101
1.44336
1.44226
1.43807
1.4309
1.42077
1.40696
1.38898
1.36826
1.34961
1.34654
1.33601
1.33043
1.32002
1.30547
1.28719
1.26443
1.23679
1.20621
1.17815
1.16757
1.21625
1.20562
1.18865
1.16649
1.13967
1.10729
1.06899
1.02736
0.988503
0.970291
1.09099
1.07463
1.04944
1.01771
0.980577
0.937166
0.88727
0.834092
0.784287
0.757243
0.964959
0.942049
0.907803
0.865723
0.817325
0.761629
0.698665
0.632569
0.571144
0.534811
0.850352
0.813053
0.763788
0.708051
0.646979
0.578699
0.50301
0.424607
0.352297
0.307118
1.61595
1.60194
1.59371
1.5752
1.5662
1.55693
1.55453
1.56394
1.59146
1.664
1.61406
1.59928
1.59185
1.57371
1.56401
1.55265
1.54914
1.55497
1.57744
1.64012
1.61257
1.59673
1.59009
1.57207
1.56153
1.54747
1.54257
1.54319
1.55833
1.6055
1.61146
1.5943
1.58844
1.57029
1.55874
1.54141
1.5349
1.52858
1.53455
1.55968
1.61073
1.59196
1.58694
1.56836
1.5556
1.53449
1.52609
1.5111
1.50658
1.50219
1.61037
1.58967
1.58563
1.56628
1.55209
1.52672
1.51599
1.49069
1.47494
1.43288
1.61037
1.58739
1.58455
1.56402
1.54816
1.51814
1.50453
1.46742
1.44018
1.35114
1.61072
1.58515
1.58374
1.56153
1.54377
1.50872
1.49183
1.44151
1.40206
1.25816
1.61138
1.58319
1.58344
1.5589
1.53893
1.49826
1.47799
1.41327
1.35995
1.15338
1.61225
1.58158
1.58395
1.55657
1.53383
1.48678
1.46306
1.38391
1.31661
1.04592
1.61394
1.57981
1.58338
1.55296
1.52784
1.47401
1.44538
1.35146
1.26218
0.943129
1.61775
1.5799
1.58707
1.55169
1.52488
1.46157
1.42745
1.32629
1.21552
0.944537
1.62288
1.5813
1.59062
1.55082
1.52262
1.45277
1.41035
1.30806
1.17726
0.946539
1.62905
1.58408
1.59342
1.55113
1.51925
1.45049
1.39385
1.29463
1.14542
0.940948
1.63656
1.58778
1.59408
1.55084
1.51279
1.45259
1.37716
1.28365
1.1193
0.92986
1.64587
1.5907
1.59153
1.54402
1.50329
1.45392
1.36026
1.27474
1.10144
0.918143
1.6583
1.59347
1.58552
1.52814
1.49137
1.45365
1.34349
1.26882
1.09325
0.91054
1.67737
1.59853
1.58192
1.51641
1.4792
1.45306
1.32651
1.26964
1.09352
0.908838
1.6919
1.6023
1.58084
1.51106
1.46872
1.45203
1.31259
1.27626
1.09504
0.912062
1.73734
1.60213
1.57729
1.50568
1.46879
1.45092
1.31066
1.28933
1.09754
0.926252
0.735617
0.598023
0.432966
0.272685
0.127098
-0.00447633
-0.122679
-0.228102
-0.319268
-0.396546
0.695721
0.582715
0.451713
0.320025
0.197298
0.0844471
-0.0197743
-0.116177
-0.203467
-0.280126
0.683865
0.580258
0.468872
0.357752
0.251808
0.152171
0.0580291
-0.0299873
-0.110882
-0.183456
0.685347
0.587527
0.488114
0.392262
0.300495
0.212468
0.127466
0.0466368
-0.029796
-0.0996514
0.69344
0.602889
0.512666
0.427437
0.345879
0.266313
0.18795
0.112018
0.0391655
-0.0284999
0.705246
0.622678
0.539981
0.461585
0.386328
0.312038
0.238181
0.165809
0.0961772
0.0307716
0.719917
0.644587
0.567964
0.493944
0.422279
0.351015
0.280117
0.210164
0.142698
0.0794031
0.735988
0.66651
0.594572
0.523468
0.453607
0.383961
0.315392
0.247485
0.181973
0.118916
0.747649
0.68094
0.611803
0.542257
0.472422
0.402562
0.334109
0.26676
0.202681
0.141962
0.764973
0.699198
0.631132
0.561015
0.489634
0.418828
0.349276
0.281726
0.216635
0.15454
-1.45094
-1.3988
-1.32278
-1.23735
-1.15391
-1.07795
-1.01122
-0.95496
-0.908881
-0.873493
-1.55366
-1.50639
-1.43656
-1.35375
-1.27177
-1.19725
-1.13207
-1.07562
-1.02871
-0.992797
-1.61068
-1.56871
-1.5069
-1.42962
-1.35166
-1.27878
-1.21362
-1.15683
-1.1084
-1.06979
-1.62679
-1.59055
-1.53862
-1.46988
-1.39618
-1.32511
-1.2603
-1.20315
-1.15341
-1.11191
-1.61077
-1.5804
-1.5395
-1.48133
-1.4141
-1.34617
-1.28224
-1.22459
-1.17347
-1.12921
-1.57345
-1.54865
-1.5182
-1.4713
-1.41254
-1.34959
-1.28759
-1.22977
-1.17756
-1.13156
-1.52516
-1.50531
-1.48333
-1.44724
-1.39841
-1.34252
-1.28452
-1.2281
-1.17598
-1.13035
-1.47336
-1.45759
-1.44181
-1.41492
-1.37601
-1.32809
-1.27523
-1.22115
-1.16939
-1.12355
-1.42254
-1.41008
-1.39865
-1.37903
-1.34906
-1.30964
-1.26354
-1.21381
-1.16448
-1.12231
-1.37495
-1.36523
-1.35678
-1.34238
-1.31939
-1.28723
-1.24709
-1.20085
-1.1509
-1.1052
-1.33137
-1.32389
-1.3176
-1.30695
-1.28941
-1.26367
-1.22998
-1.19003
-1.14531
-1.0961
-1.2896
-1.28427
-1.28022
-1.27266
-1.25937
-1.23879
-1.21041
-1.1753
-1.13438
-1.08465
-1.2432
-1.24156
-1.24001
-1.23534
-1.22537
-1.20862
-1.18444
-1.15339
-1.11562
-1.06697
-1.19036
-1.19397
-1.19431
-1.19194
-1.18459
-1.17046
-1.14963
-1.12275
-1.08953
-1.04647
-1.14061
-1.14612
-1.14776
-1.14668
-1.14118
-1.12946
-1.11138
-1.08844
-1.06134
-1.02731
-1.09652
-1.10376
-1.10562
-1.10498
-1.10116
-1.09245
-1.07768
-1.05806
-1.03601
-1.00995
-1.05843
-1.06646
-1.0685
-1.06841
-1.06624
-1.06128
-1.05192
-1.03725
-1.02113
-1.00477
-1.02626
-1.03405
-1.03593
-1.03593
-1.03442
-1.03154
-1.0271
-1.01903
-1.00704
-0.995656
-1.00078
-1.00739
-1.00896
-1.00917
-1.00853
-1.00724
-1.0057
-1.00332
-0.997803
-0.990145
-0.979807
-0.984746
-0.986133
-0.986885
-0.987444
-0.98795
-0.988521
-0.988759
-0.987598
-0.985267
-0.938568
-0.735098
-0.691113
-0.660294
-0.594043
-0.477929
-0.346376
-0.221547
-0.119347
-0.0331636
-0.919299
-0.730276
-0.698139
-0.667164
-0.594719
-0.472056
-0.339549
-0.215602
-0.114979
-0.0315022
-0.906262
-0.735979
-0.712176
-0.67854
-0.598095
-0.467987
-0.333076
-0.209399
-0.110161
-0.0295186
-0.902156
-0.75349
-0.734008
-0.69532
-0.604888
-0.466318
-0.327199
-0.20306
-0.105016
-0.0273685
-0.906002
-0.781479
-0.763777
-0.718458
-0.615837
-0.467019
-0.321965
-0.196555
-0.0995356
-0.0251085
-0.915452
-0.818568
-0.802115
-0.749199
-0.631725
-0.470305
-0.317449
-0.18984
-0.0936768
-0.0227386
-0.926369
-0.864253
-0.850007
-0.789146
-0.653723
-0.476663
-0.313751
-0.182854
-0.0873564
-0.0202166
-0.940335
-0.917896
-0.909318
-0.840056
-0.683617
-0.486854
-0.311016
-0.175515
-0.0804481
-0.017454
-0.956403
-0.97971
-0.982074
-0.904816
-0.723988
-0.501874
-0.309453
-0.167741
-0.072806
-0.0143216
-0.975142
-1.05023
-1.07053
-0.987526
-0.776709
-0.522685
-0.309213
-0.159416
-0.0642826
-0.0106617
-0.932621
-0.765412
-0.710559
-0.657062
-0.579501
-0.459606
-0.334325
-0.215239
-0.118837
-0.0327244
-0.922107
-0.759587
-0.702833
-0.651353
-0.579703
-0.465439
-0.341002
-0.219479
-0.12071
-0.0337459
-0.920059
-0.752265
-0.697835
-0.652921
-0.583638
-0.46561
-0.342104
-0.220839
-0.12102
-0.0337879
-0.920201
-0.744154
-0.69172
-0.652559
-0.585634
-0.47049
-0.345257
-0.222859
-0.121714
-0.0340535
-0.930841
-0.734564
-0.684224
-0.651579
-0.58668
-0.476531
-0.34833
-0.224218
-0.12183
-0.0341581
-0.838761
-0.951979
-1.02438
-1.06314
-1.07175
-1.06512
-1.04483
-1.02404
-0.999395
-0.979608
-0.836224
-0.949746
-1.02005
-1.05546
-1.06043
-1.0495
-1.02717
-1.00214
-0.977552
-0.954912
-0.838858
-0.952967
-1.02292
-1.05736
-1.06219
-1.05057
-1.03166
-1.00665
-0.988414
-0.969107
-0.844906
-0.960788
-1.03178
-1.06684
-1.07379
-1.06446
-1.05102
-1.02967
-1.01847
-1.00164
-0.855
-0.973316
-1.04652
-1.08381
-1.09493
-1.09103
-1.08433
-1.0708
-1.06456
-1.0502
1.20047
1.18872
1.17114
1.15121
1.12985
1.10614
1.07989
1.05336
1.03138
1.02429
1.30378
1.30017
1.2917
1.28056
1.26751
1.25199
1.23392
1.21518
1.20008
1.1983
1.40321
1.40384
1.40102
1.39618
1.38983
1.38151
1.37104
1.35964
1.35085
1.35413
1.49338
1.49749
1.49956
1.50033
1.49992
1.49787
1.49379
1.4883
1.4845
1.4924
1.57247
1.57962
1.58568
1.59088
1.59512
1.59793
1.59883
1.59794
1.59795
1.60955
1.63812
1.64775
1.6571
1.66597
1.67407
1.68092
1.68592
1.68861
1.69118
1.70535
1.68881
1.70035
1.71228
1.72402
1.7351
1.74506
1.75319
1.75848
1.7625
1.77738
1.72296
1.73576
1.74943
1.76314
1.77629
1.78851
1.79908
1.80668
1.81195
1.82441
1.73907
1.75227
1.76651
1.78082
1.79456
1.80737
1.81865
1.82721
1.83318
1.84483
1.7363
1.74898
1.76255
1.77597
1.78856
1.79993
1.8095
1.81636
1.82175
1.83812
-0.711022
-0.748044
-0.795033
-0.851849
-0.9187
-0.994628
-1.0798
-1.16811
-1.24701
-1.30229
-0.509529
-0.549391
-0.597898
-0.655455
-0.722904
-0.800536
-0.88567
-0.974594
-1.05451
-1.11089
-0.280619
-0.32396
-0.374665
-0.433322
-0.500777
-0.577543
-0.662014
-0.749039
-0.828276
-0.885095
-0.0393066
-0.0856488
-0.13827
-0.197607
-0.26449
-0.33957
-0.421466
-0.50479
-0.580785
-0.634103
0.196729
0.149052
0.0962249
0.0380875
-0.0261786
-0.0973617
-0.174467
-0.252508
-0.323504
-0.370405
0.414713
0.368611
0.318389
0.263979
0.20455
0.139243
0.0688113
-0.00212568
-0.0661106
-0.105662
0.609445
0.567858
0.523026
0.474767
0.422214
0.364507
0.302288
0.239831
0.18409
0.152178
0.784877
0.749309
0.711248
0.670259
0.625394
0.57585
0.522249
0.46859
0.421434
0.396822
0.949417
0.919238
0.886604
0.851746
0.813776
0.771863
0.726562
0.681492
0.642743
0.624591
1.0997
1.07423
1.04488
1.01466
0.983102
0.948992
0.912433
0.876298
0.84601
0.833338
1.69215
1.63308
1.61114
1.57614
1.55868
1.54459
1.52598
1.50457
1.44276
1.34247
1.67794
1.63057
1.6091
1.57817
1.56286
1.55069
1.53532
1.518
1.47522
1.4143
1.66563
1.62748
1.60794
1.58019
1.56589
1.5555
1.54352
1.53287
1.50781
1.4825
1.65505
1.62412
1.60692
1.58179
1.56823
1.55934
1.55051
1.5464
1.5363
1.54057
1.646
1.62071
1.60548
1.58243
1.5699
1.56213
1.55596
1.55747
1.55991
1.58856
1.63829
1.61733
1.60377
1.58196
1.57085
1.56383
1.55976
1.56583
1.57867
1.62653
1.63171
1.61398
1.60191
1.58074
1.57105
1.56446
1.5619
1.57132
1.59232
1.65453
1.62617
1.61072
1.59988
1.57931
1.5706
1.56407
1.56239
1.57384
1.60053
1.67246
1.62173
1.60761
1.59775
1.57792
1.56957
1.56267
1.56127
1.57342
1.60313
1.68011
1.6184
1.6047
1.59567
1.57658
1.56808
1.56028
1.55862
1.57009
1.60008
1.67731
1.8131
1.64425
1.60178
1.55722
1.53549
1.51802
1.49033
1.4518
1.35665
1.25296
1.77407
1.64773
1.60973
1.56365
1.53886
1.51986
1.49091
1.45234
1.35565
1.23837
1.75149
1.64557
1.61019
1.56643
1.54187
1.52325
1.49497
1.45791
1.36471
1.24011
1.72873
1.64007
1.61118
1.57019
1.54694
1.52914
1.50245
1.46851
1.37948
1.251
1.70887
1.63589
1.61209
1.57344
1.55262
1.53628
1.51282
1.48269
1.4007
1.27141
1.00485
0.898284
0.76466
0.59881
0.403213
0.183554
-0.0491124
-0.280339
-0.495945
-0.684963
0.99271
0.887748
0.756718
0.595329
0.405634
0.191084
-0.0394894
-0.271803
-0.490262
-0.681841
1.00556
0.89864
0.765111
0.603493
0.415103
0.201345
-0.0300692
-0.264988
-0.486865
-0.681747
1.03263
0.916507
0.776265
0.613175
0.424958
0.210712
-0.0224822
-0.260615
-0.486386
-0.685016
1.07893
0.944124
0.790356
0.622286
0.432453
0.21712
-0.01792
-0.259272
-0.489159
-0.691924
)
;

boundaryField
{
    left
    {
        type            zeroGradient;
    }
    right
    {
        type            fixedValue;
        value           uniform 0;
    }
    down
    {
        type            zeroGradient;
    }
    up
    {
        type            zeroGradient;
    }
    cylinder
    {
        type            zeroGradient;
    }
    defaultFaces
    {
        type            empty;
    }
}


// ************************************************************************* //
