/*--------------------------------*- C++ -*----------------------------------*\
| =========                 |                                                 |
| \\      /  F ield         | OpenFOAM: The Open Source CFD Toolbox           |
|  \\    /   O peration     | Version:  2406                                  |
|   \\  /    A nd           | Website:  www.openfoam.com                      |
|    \\/     M anipulation  |                                                 |
\*---------------------------------------------------------------------------*/
FoamFile
{
    version     2.0;
    format      ascii;
    arch        "LSB;label=32;scalar=64";
    class       surfaceScalarField;
    location    "1.6";
    object      phi;
}
// * * * * * * * * * * * * * * * * * * * * * * * * * * * * * * * * * * * * * //

dimensions      [0 3 -1 0 0 0 0];

oriented        oriented;

internalField   nonuniform List<scalar> 
3485
(
-0.00157275
0.000959392
0.00061336
-0.00360197
0.00116541
0.000863804
-0.00505589
0.000767241
0.000686684
-0.00540717
-1.01616e-05
0.000361445
-0.00364166
-0.00173096
-3.45575e-05
0.00167772
-0.0054568
0.000137413
0.01132
-0.0109523
0.00130996
0.0254861
-0.0178522
0.00368612
0.0440395
-0.0257144
0.00716097
-0.0307638
0.0109177
0.0638856
-0.000945344
0.00190474
-0.00179636
0.00201643
-0.00226208
0.00123296
-0.000950493
-0.00132175
0.00424273
-0.00692418
0.0145106
-0.0157247
0.0302814
-0.0267231
0.0514005
-0.0389713
0.077699
-0.052013
-0.0602865
0.107222
-0.00013545
0.00204019
-5.69075e-05
0.00193788
0.00177171
-0.000595662
0.00801303
-0.00756307
0.0202138
-0.019125
0.0385056
-0.0340165
0.0623303
-0.0505478
0.0905568
-0.0671978
0.121989
-0.0834453
-0.0945795
0.156282
0.000864594
0.00117559
0.00244766
0.000354823
0.00830478
-0.00645279
0.0208625
-0.0201208
0.0405875
-0.0388499
0.066396
-0.0598251
0.0963272
-0.0804789
0.128201
-0.0990717
0.159785
-0.115029
-0.126473
0.191679
0.000619549
0.000556042
0.00475336
-0.00377899
0.0162319
-0.0179314
0.0360655
-0.0399543
0.0628147
-0.0655991
0.0935228
-0.0905332
0.125031
-0.111987
0.154907
-0.128948
0.181474
-0.141595
-0.150285
0.205286
0.00118808
-0.000632037
0.00935205
-0.011943
0.0270625
-0.0356418
0.0531687
-0.0660606
0.0835107
-0.0959411
0.113644
-0.120666
0.14056
-0.138903
0.162979
-0.151367
0.180926
-0.159542
-0.16474
0.19538
0.00265114
-0.00328318
0.0155093
-0.0248011
0.038812
-0.0589444
0.0676637
-0.0949124
0.096032
-0.124309
0.120177
-0.144811
0.139077
-0.157803
0.153435
-0.165725
0.164543
-0.17065
-0.173895
0.173697
0.00476794
-0.00805113
0.0220249
-0.042058
0.0479227
-0.0848423
0.0744648
-0.121454
0.0965266
-0.146371
0.112961
-0.161245
0.124868
-0.169711
0.133839
-0.174695
0.14106
-0.177872
-0.180015
0.147181
0.00688913
-0.0149403
0.0269188
-0.0620877
0.0512912
-0.109215
0.072127
-0.14229
0.0871996
-0.161444
0.0975388
-0.171584
0.104863
-0.177035
0.110413
-0.180245
0.114918
-0.182377
-0.183838
0.118741
0.00871223
-0.0236525
0.0287664
-0.0821419
0.0486457
-0.129094
0.063228
-0.156873
0.0726912
-0.170907
0.0787318
-0.177625
0.0828574
-0.18116
0.0861276
-0.183516
0.0888617
-0.185111
0.0908351
-0.185811
-0.000409794
0.00844797
-0.00803817
-0.00200345
0.0232878
-0.0216942
-0.00443243
0.0331825
-0.0307535
-0.00723865
0.0390527
-0.0362465
-0.0101548
0.0425595
-0.0396433
-0.0130528
0.0447716
-0.0418736
-0.0158568
0.0462216
-0.0434176
-0.0185019
0.0471771
-0.0445321
-0.0209306
0.047788
-0.0453593
0.0481569
-0.023158
-0.0459295
0.000486491
0.00796148
0.000385623
0.0233887
-0.000642515
0.0342106
-0.00229506
0.0407052
-0.00424966
0.0445141
-0.00631684
0.0468388
-0.00839283
0.0482976
-0.0104095
0.0491937
-0.0123159
0.0496945
0.0499227
-0.0140818
0.00143246
0.00652902
0.00322947
0.0215917
0.00416594
0.0332742
0.00424599
0.0406252
0.00382459
0.0449355
0.00318476
0.0474786
0.00248148
0.0490009
0.0017899
0.0498853
0.00114365
0.0503408
0.0505474
0.000518982
0.00222032
0.0043087
0.00614074
0.0176713
0.00963149
0.0297834
0.0121661
0.0380906
0.0139723
0.0431292
0.0153881
0.0460628
0.0166526
0.0477364
0.0179078
0.0486302
0.0192494
0.0489991
0.0489994
0.0207974
0.00245671
0.00185198
0.008144
0.011984
0.0143529
0.0235745
0.0198451
0.0325984
0.0244663
0.0385081
0.0284725
0.0420566
0.0321675
0.0440414
0.0357945
0.0450031
0.0395481
0.0452455
0.0448844
0.0436631
0.00182525
2.67369e-05
0.00810127
0.00570796
0.0163649
0.0153109
0.0247385
0.0242248
0.0324844
0.0307622
0.0395552
0.0349858
0.0461735
0.0374231
0.0526159
0.0385607
0.0591603
0.0387012
0.0378384
0.0662062
0.00104934
-0.0010226
0.00597322
0.000784083
0.0144107
0.00687341
0.0243176
0.0143179
0.0344202
0.0206596
0.0442413
0.0251646
0.0537365
0.0279279
0.0630567
0.0292405
0.0724525
0.0293053
0.0278083
0.0824826
0.000834434
-0.00185703
0.00334332
-0.0017248
0.00937043
0.0008463
0.0181995
0.00548881
0.0283657
0.0104935
0.0390661
0.0144642
0.049996
0.016998
0.0611147
0.0181218
0.072565
0.0178551
0.015495
0.0848782
6.72585e-05
-0.00192429
0.000432726
-0.00209027
0.00265988
-0.00138086
0.00772091
0.000427782
0.0150923
0.00312212
0.024001
0.00555545
0.034057
0.00694206
0.0451275
0.00705124
0.0572479
0.00573477
0.00230686
0.070436
-0.00131093
-0.00253739
-0.00323157
-0.00244234
0.000645218
0.00633808
0.0145901
0.0253275
0.0382232
0.0514478
-0.0307722
0.430774
-0.42316
-0.0385092
0.376758
-0.369021
-0.0416856
0.191341
-0.188164
-0.0223878
-0.0262757
0.00697787
0.0166693
-0.217645
0.178588
0.057953
-0.30429
0.263006
0.0937241
-0.316058
0.280287
0.119022
-0.268263
0.242965
0.137603
-0.223282
0.204701
-0.122206
0.113598
-0.0256222
0.442314
-0.0403102
0.391446
-0.0448603
0.195891
-0.0226952
-0.0484409
0.0193779
-0.259718
0.062542
-0.347454
0.0987621
-0.352278
0.123803
-0.293304
0.14241
-0.241889
-0.131125
-0.0120795
0.454913
-0.0314569
0.410824
-0.0369073
0.201341
-0.0122574
-0.0730908
0.0316784
-0.303654
0.075652
-0.391427
0.110122
-0.386749
0.132562
-0.315744
0.149432
-0.258759
-0.13973
0.0114582
0.464252
-0.0104918
0.432774
-0.0174142
0.208264
0.00811604
-0.0986211
0.0531291
-0.348667
0.0981215
-0.43642
0.129985
-0.418612
0.14764
-0.333399
0.160316
-0.271435
-0.146864
0.0430002
0.464915
0.0197426
0.456031
0.0119228
0.216084
0.0346416
-0.12134
0.0793886
-0.393414
0.126345
-0.483376
0.157543
-0.44981
0.170441
-0.346297
0.176816
-0.27781
-0.151032
0.078732
0.452389
0.0578888
0.476874
0.0485684
0.225404
0.0665543
-0.139326
0.107994
-0.434854
0.155321
-0.530704
0.188274
-0.482763
0.199544
-0.357567
0.199688
-0.277955
-0.1512
0.115842
0.419029
0.101201
0.491516
0.0902812
0.236323
0.105001
-0.154046
0.141992
-0.471844
0.185016
-0.573728
0.218005
-0.515753
0.230797
-0.370358
0.227478
-0.274636
-0.147826
0.147795
0.356112
0.145014
0.494297
0.133846
0.247492
0.147799
-0.167998
0.182103
-0.506149
0.218433
-0.610058
0.246665
-0.543984
0.260421
-0.384115
0.256819
-0.271033
-0.142818
0.171123
0.255425
0.187273
0.478147
0.174948
0.259817
0.188124
-0.181174
0.221544
-0.539569
0.253893
-0.642406
0.275647
-0.565739
0.287279
-0.395747
0.284407
-0.268161
-0.138164
0.169875
0.136998
0.214324
0.433698
0.210501
0.26364
0.222233
-0.192906
0.253895
-0.571231
0.285855
-0.674366
0.303855
-0.583739
0.311602
-0.403494
0.308481
-0.26504
-0.134854
0.277623
0.0793641
-0.21999
0.37223
0.339092
0.466439
0.169431
0.565788
-0.292256
0.624274
-0.629717
0.634412
-0.684503
0.606117
-0.555445
0.5678
-0.365176
0.529626
-0.226866
-0.112293
0.431229
0.114516
-0.466381
0.512018
0.258303
0.63516
0.0462885
0.727057
-0.384152
0.74724
-0.6499
0.720215
-0.657478
0.668975
-0.504205
0.615412
-0.311613
0.566777
-0.178231
-0.0855016
0.607033
0.129698
-0.622216
0.680743
0.184594
0.787493
-0.0604616
0.840452
-0.437112
0.827034
-0.636481
0.770786
-0.601231
0.699521
-0.43294
0.637169
-0.249262
0.584533
-0.125595
-0.0569774
0.735834
0.102471
-0.708606
0.813577
0.106851
0.890472
-0.137356
0.916948
-0.463588
0.888819
-0.608353
0.815022
-0.527434
0.722479
-0.340397
0.644224
-0.171006
0.585253
-0.0666248
-0.0274578
0.81453
0.0544549
-0.766514
0.888708
0.0326725
0.945919
-0.194567
0.956607
-0.474275
0.906432
-0.558178
0.811819
-0.432821
0.710864
-0.239441
0.630244
-0.0903866
0.572141
-0.00852192
0.000789529
0.855716
0.00586648
-0.807128
0.920477
-0.0320888
0.969593
-0.243683
0.961712
-0.466395
0.879769
-0.476235
0.759484
-0.312536
0.651714
-0.131671
0.578849
-0.0175212
0.534217
0.0361102
0.0213399
0.865884
-0.0342311
-0.825786
0.925871
-0.0920762
0.956463
-0.274275
0.897349
-0.407281
0.769893
-0.348779
0.638487
-0.18113
0.5446
-0.0377845
0.49211
0.0349691
0.46874
0.0594801
0.0302641
0.842642
-0.0639892
-0.812884
0.884614
-0.134049
0.852497
-0.242157
0.709917
-0.264701
0.539609
-0.178471
0.422216
-0.0637377
0.370289
0.0141422
0.357931
0.0473277
0.364292
0.0531185
0.0254441
0.721284
-0.0671349
-0.718138
0.693952
-0.106717
0.554133
-0.102338
0.357355
-0.0679232
0.2161
-0.0372162
0.163795
-0.0114321
0.166977
0.0109601
0.19118
0.0231248
0.219249
0.0250494
0.0118874
0.31601
-0.383145
0.209293
0.106956
0.0390326
0.00181645
-0.00961563
0.00134445
0.0244692
0.0495186
0.518706
0.0819859
-0.509856
0.52662
0.110826
0.534606
0.139196
0.541079
0.167224
0.545524
0.190935
0.536712
0.214097
0.502562
0.225829
0.431551
0.227293
0.316484
0.222289
0.16038
0.519174
0.0718399
-0.509028
0.530976
0.0990231
0.543766
0.126407
0.557151
0.153838
0.568902
0.179184
0.581352
0.201647
0.579611
0.22757
0.572811
0.234093
0.536651
0.258449
0.23065
0.526474
0.062947
-0.517581
0.538369
0.0871275
0.552039
0.112737
0.568955
0.136923
0.584362
0.163777
0.603609
0.1824
0.619153
0.212026
0.632768
0.220478
0.640243
0.250974
0.248677
0.538785
0.0541193
-0.529957
0.551266
0.0746459
0.565528
0.0984752
0.583968
0.118483
0.603353
0.144392
0.625009
0.160744
0.649314
0.187721
0.669945
0.199847
0.695242
0.225676
0.235313
0.549242
0.0443796
-0.539502
0.562662
0.0612253
0.578986
0.0821512
0.598765
0.0987051
0.62214
0.121016
0.646686
0.136199
0.676234
0.158173
0.703768
0.172313
0.737112
0.192333
0.205911
0.552175
0.0338919
-0.541688
0.56632
0.0470802
0.584572
0.0638993
0.605979
0.0772986
0.632264
0.0947315
0.660407
0.108055
0.693852
0.124728
0.728144
0.138021
0.76751
0.152968
0.166293
0.543578
0.0231798
-0.532866
0.558105
0.0325532
0.57737
0.0446346
0.600217
0.0544514
0.628242
0.0667067
0.659405
0.0768917
0.695834
0.0882996
0.73504
0.0988146
0.779268
0.108739
0.119775
0.51604
0.0124892
-0.50535
0.530377
0.0182162
0.549938
0.0250735
0.573219
0.0311707
0.601983
0.0379425
0.634507
0.0443676
0.672531
0.0502761
0.714373
0.0569718
0.761651
0.0614613
0.0685425
0.4468
0.00305721
-0.437368
0.459649
0.0053675
0.477151
0.00757177
0.498328
0.00999358
0.524288
0.0119823
0.554147
0.0145091
0.588683
0.0157401
0.62723
0.0184241
0.670425
0.0182668
0.0208291
0.260461
-0.257403
0.265828
0.2734
0.283394
0.295376
0.309885
0.325625
0.344049
0.362316
0.0697302
0.131992
-0.12139
-0.0803325
0.0598693
0.134032
-0.124171
0.0507246
0.136208
-0.127063
0.0418819
0.139022
-0.13018
0.0330985
0.142024
-0.13324
0.0243977
0.144421
-0.135721
0.0160379
0.144516
-0.136156
0.00837387
0.139473
-0.131809
0.00233161
0.121139
-0.115096
0.0652158
-0.0628842
0.0670802
0.141873
-0.0769613
0.0573706
0.143741
0.0479791
0.145599
0.0389709
0.148031
0.0302321
0.150763
0.0217878
0.152866
0.0138893
0.152414
0.00684855
0.146513
0.00164039
0.126347
0.0668562
0.0604533
0.15102
-0.0696
0.0512289
0.152966
0.0421726
0.154656
0.0334687
0.156734
0.0251741
0.159057
0.0173913
0.160649
0.0103464
0.159459
0.00432618
0.152534
0.000377915
0.130295
0.0672341
0.0507825
0.159328
-0.0590905
0.0424638
0.161285
0.0342846
0.162835
0.0263999
0.164619
0.0189058
0.166551
0.0120283
0.167526
0.00608329
0.165404
0.00123113
0.157386
-0.000939461
0.132466
0.0662946
0.0373149
0.166817
-0.0448046
0.0299528
0.168647
0.0227299
0.170058
0.0158257
0.171523
0.00948944
0.172888
0.00402821
0.172987
-0.000294366
0.169727
-0.00306809
0.16016
-0.00287322
0.132271
0.0634214
0.0226155
0.173158
-0.0289567
0.0164303
0.174832
0.0104165
0.176072
0.00472657
0.177213
-0.000376995
0.177991
-0.00425
0.17686
-0.00685888
0.172336
-0.00763744
0.160938
-0.00482015
0.129453
0.0586013
0.00422271
0.178566
-0.00963035
-0.000738487
0.179793
-0.00535859
0.180692
-0.00959085
0.181445
-0.0128027
0.181203
-0.0144612
0.178519
-0.0150325
0.172907
-0.012967
0.158873
-0.00685327
0.12334
0.051748
-0.0158515
0.182434
0.0119834
-0.0193895
0.183331
-0.0225607
0.183863
-0.0247688
0.183653
-0.025487
0.181921
-0.0254446
0.178477
-0.0238203
0.171283
-0.0183892
0.153441
-0.0085951
0.113546
0.0431529
-0.0389214
0.185166
0.0361892
-0.0411977
0.185607
-0.042472
0.185137
-0.0422297
0.183411
-0.0408564
0.180548
-0.0385393
0.17616
-0.0333404
0.166084
-0.0235487
0.14365
-0.00973027
0.0997273
0.0334226
-0.0636669
0.063022
-0.0631705
-0.0615489
-0.059298
-0.0563752
-0.0511226
-0.0419114
-0.0273555
-0.00977013
0.100117
0.0320703
-0.111199
-0.0209889
0.0888248
0.0327975
-0.0215048
0.077326
0.0336042
-0.0221054
0.0656117
0.0344962
-0.0227819
0.0536766
0.0354366
-0.0235015
0.041535
0.0362696
-0.024128
0.0292817
0.0365153
-0.024262
0.017252
0.0350272
-0.0229975
0.00645351
0.029603
-0.0188045
0.0158817
-0.00942824
0.100576
0.0432609
-0.111767
0.0892217
0.0441518
0.0776675
0.0451583
0.0659106
0.0462531
0.0539475
0.0473998
0.0417905
0.0484266
0.0295246
0.0487812
0.01745
0.0471018
0.00653373
0.0405193
0.0224155
0.10054
0.0544138
-0.111693
0.0891927
0.0554995
0.077643
0.0567081
0.0658881
0.058008
0.0539279
0.05936
0.0417776
0.0605769
0.0295242
0.0610345
0.0174584
0.0591676
0.00652431
0.0514534
0.0289398
0.0992857
0.065484
-0.110356
0.0880642
0.066721
0.0766329
0.0681393
0.0649842
0.0696567
0.0531209
0.0712233
0.0410729
0.0726249
0.0289466
0.0731608
0.0170396
0.0710746
0.00629454
0.0621985
0.0352343
0.097172
0.0762986
-0.107987
0.0862118
0.0776812
0.0750845
0.0792667
0.0637544
0.0809868
0.0521863
0.0827915
0.0403812
0.08443
0.0284504
0.0850916
0.0167142
0.0828108
0.00612308
0.0727896
0.0413574
0.0931282
0.0870254
-0.103855
0.0823609
0.0884485
0.0714497
0.0901779
0.0604058
0.0920306
0.0492196
0.0939777
0.0378887
0.0957609
0.0265119
0.0964685
0.015401
0.0939216
0.00548264
0.0827079
0.04684
0.0891122
0.0971874
-0.0992742
0.0788891
0.0986715
0.0684949
0.100572
0.0578722
0.102653
0.0470196
0.10483
0.0360029
0.106778
0.0250063
0.107465
0.0143832
0.104545
0.0050518
0.0920393
0.0518918
0.0822125
0.106964
-0.0919887
0.0725013
0.108383
0.0627373
0.110336
0.0528722
0.112518
0.0428418
0.114861
0.0326557
0.116964
0.0224934
0.117627
0.0127248
0.114313
0.00428404
0.10048
0.0561759
0.0770482
0.115213
-0.0852974
0.0684927
0.116938
0.0593872
0.119442
0.0498742
0.122031
0.0401149
0.12462
0.030263
0.126815
0.0205727
0.127318
0.0114128
0.123473
0.00368281
0.10821
0.0598587
0.0676136
-0.0737905
0.0603809
0.0527594
0.0446113
0.0359908
0.0270857
0.0182472
0.00991179
0.00302547
0.201364
-0.00719458
0.00382026
0.207598
-0.0107176
0.00448363
0.211704
0.0534431
-0.057549
0.210558
0.126881
-0.125735
0.206554
0.160372
-0.156369
0.200734
0.173044
-0.167223
0.192133
0.165929
-0.157328
0.180376
0.171079
-0.159322
0.157651
0.185735
-0.163011
0.214206
-0.167753
0.201351
-0.010556
0.207212
-0.0165781
0.210407
0.0502481
0.208316
0.128972
0.203723
0.164965
0.197602
0.179165
0.189586
0.173944
0.178369
0.182297
0.157086
0.207018
0.259526
0.201228
-0.0137939
0.206663
-0.0220131
0.208834
0.0480767
0.205612
0.132194
0.200186
0.170391
0.193405
0.185946
0.185879
0.181471
0.174811
0.193365
0.155135
0.226694
0.302967
0.200976
-0.0167803
0.20594
-0.0269769
0.206979
0.047038
0.202411
0.136762
0.195934
0.176868
0.188275
0.193605
0.181161
0.188584
0.169806
0.204721
0.151935
0.244565
0.344546
0.200598
-0.0193881
0.205051
-0.0314306
0.204834
0.047255
0.198692
0.142904
0.191006
0.184554
0.182392
0.20222
0.175582
0.195394
0.163472
0.216831
0.147596
0.26044
0.384156
0.200093
-0.0214918
0.203991
-0.0353284
0.202375
0.0488717
0.194463
0.150815
0.18551
0.193507
0.175944
0.211785
0.169224
0.202114
0.156044
0.230012
0.142397
0.274087
0.422698
0.199451
-0.0229526
0.202705
-0.0385829
0.19955
0.0520271
0.189773
0.160592
0.179593
0.203687
0.169099
0.22228
0.162143
0.209069
0.147808
0.244347
0.136194
0.285701
0.459617
0.198624
-0.0235869
0.201079
-0.041038
0.196325
0.0567814
0.184725
0.172192
0.173407
0.215005
0.162005
0.233681
0.154483
0.216591
0.139158
0.259672
0.129694
0.295166
0.497323
0.197543
-0.0231399
0.198963
-0.042458
0.192714
0.0630303
0.179475
0.18543
0.16711
0.227371
0.154814
0.245977
0.146518
0.224888
0.130889
0.2753
0.122495
0.30356
0.534521
0.19625
-0.0214003
0.196216
-0.042424
0.188783
0.0704635
0.17414
0.200073
0.160945
0.240566
0.147715
0.259206
0.138769
0.233834
0.122093
0.291976
0.116359
0.309293
0.57709
0.303644
-0.0230342
0.30964
-0.0484197
0.31875
0.0613529
0.31738
0.201443
0.3168
0.241147
0.308588
0.267418
0.315389
0.227033
0.312796
0.29457
0.358772
0.263318
0.508795
0.427067
0.302092
-0.0231157
0.306391
-0.0527188
0.320126
0.0476174
0.32632
0.19525
0.333437
0.23403
0.33395
0.266904
0.348061
0.212921
0.352345
0.290285
0.376598
0.239065
0.441143
0.444249
0.300498
-0.0216033
0.30339
-0.0556107
0.320154
0.0308535
0.341507
0.173897
0.356555
0.218982
0.373617
0.249843
0.394306
0.192233
0.406677
0.277914
0.423997
0.221745
0.379273
0.485867
0.29956
-0.0191535
0.301098
-0.0571481
0.318513
0.0134382
0.358536
0.133873
0.380087
0.197431
0.412228
0.217701
0.440592
0.16387
0.456765
0.261741
0.482646
0.195865
0.325247
0.536672
0.300032
-0.0171753
0.299934
-0.0570503
0.317913
-0.00454028
0.36961
0.0821765
0.398983
0.168057
0.438886
0.177798
0.471881
0.130874
0.494728
0.238894
0.527017
0.163576
0.273401
0.578862
0.302383
-0.0175482
0.30177
-0.0564369
0.320495
-0.0232653
0.372209
0.0304621
0.410121
0.130145
0.45426
0.13366
0.488555
0.096579
0.519612
0.207837
0.551798
0.13139
0.22135
0.603849
0.306413
-0.021951
0.307094
-0.057118
0.324348
-0.040519
0.365059
-0.0102495
0.408127
0.0870772
0.454534
0.0872528
0.486436
0.0646772
0.526363
0.167911
0.558681
0.099072
0.16661
0.61342
0.309556
-0.0294966
0.309614
-0.0571761
0.321858
-0.0527631
0.342246
-0.0306375
0.385091
0.0442325
0.429134
0.0432095
0.453963
0.0398485
0.506041
0.115832
0.541818
0.0632949
0.107987
0.600442
0.307964
-0.0354501
0.29957
-0.0487824
0.293765
-0.0469581
0.287817
-0.0246891
0.320506
0.0115427
0.348933
0.0147831
0.368835
0.0199466
0.433581
0.0510864
0.47001
0.0268658
0.0477566
0.53024
0.26656
0.217778
0.17082
0.146131
0.157673
0.172456
0.192403
0.243489
0.270355
0.318112
0.440902
-0.0941676
0.448673
-0.0847321
0.456053
-0.0769804
0.463451
-0.0664879
0.47137
-0.0527236
0.478653
-0.0362395
0.486099
-0.017077
0.49347
0.00461289
0.501331
0.0283281
0.0544966
0.452586
-0.102505
0.460686
-0.0928316
0.467435
-0.0837294
0.473036
-0.072089
0.478469
-0.0581572
0.483413
-0.0411833
0.488678
-0.0223421
0.494528
-0.00123682
0.501264
0.0215921
0.0467327
0.489189
-0.105827
0.492858
-0.0965002
0.495677
-0.0865482
0.497221
-0.0736335
0.498533
-0.0594689
0.499957
-0.0426076
0.502286
-0.0246713
0.505457
-0.00440748
0.510466
0.0165833
0.0396174
0.533306
-0.102461
0.529688
-0.092882
0.525876
-0.0827363
0.52218
-0.0699379
0.519096
-0.0563843
0.517283
-0.0407949
0.517011
-0.0243992
0.518985
-0.00638161
0.522901
0.0126677
0.0325609
0.567853
-0.0914514
0.557487
-0.0825159
0.54798
-0.0732296
0.540014
-0.0619719
0.53369
-0.0500605
0.529612
-0.0367162
0.527725
-0.0225127
0.528839
-0.00749566
0.532393
0.00911334
0.0254522
0.587945
-0.075547
0.573127
-0.0676975
0.559998
-0.0601014
0.549091
-0.0510648
0.540532
-0.0415013
0.534645
-0.030829
0.531502
-0.0193695
0.531575
-0.00756881
0.534789
0.00589956
0.0185532
0.593699
-0.0558253
0.575939
-0.0499382
0.560203
-0.0443648
0.546949
-0.0378109
0.536477
-0.0310293
0.528933
-0.0232848
0.524656
-0.015093
0.52364
-0.00655254
0.526346
0.00319318
0.0120335
0.577515
-0.0328987
0.557479
-0.0299025
0.539714
-0.0265993
0.524766
-0.022863
0.512769
-0.0190328
0.503955
-0.0144704
0.498697
-0.00983557
0.496916
-0.00477164
0.49948
0.000629196
0.00616444
0.508726
-0.0113842
0.489224
-0.010401
0.472179
-0.00955428
0.457864
-0.00854746
0.446306
-0.00747534
0.437855
-0.0060191
0.432582
-0.00456265
0.430581
-0.00277053
0.432202
-0.000991724
0.00099803
0.306728
0.296327
0.286772
0.278225
0.270749
0.26473
0.260168
0.257397
0.256405
0.00651137
0.0515908
-0.0581022
0.0122689
0.116046
-0.121804
0.0144629
0.146823
-0.149017
0.0146781
0.158858
-0.159073
0.0145251
0.163242
-0.163089
0.0132237
0.165529
-0.164228
0.0109452
0.165065
-0.162786
0.00848455
0.161897
-0.159437
0.00632467
0.15578
-0.15362
0.14454
0.00490148
-0.143117
0.00805678
0.0435341
0.0173369
0.106766
0.0231348
0.141026
0.0260627
0.15593
0.027775
0.16153
0.0289741
0.16433
0.0291679
0.164871
0.0285892
0.162476
0.0276558
0.156713
0.145797
0.0263984
0.00877408
0.03476
0.0212176
0.0943224
0.030679
0.131564
0.036695
0.149914
0.0406057
0.157619
0.0438289
0.161107
0.0463261
0.162374
0.0477591
0.161043
0.0481131
0.156359
0.146838
0.0470723
0.0085261
0.0262339
0.0233326
0.0795159
0.036349
0.118548
0.0456487
0.140614
0.0521547
0.151113
0.0573286
0.155933
0.0617309
0.157972
0.0650744
0.1577
0.0669349
0.154499
0.147084
0.0666893
0.00751838
0.0187155
0.023352
0.0636823
0.0393783
0.102521
0.052058
0.127934
0.0614046
0.141767
0.0687135
0.148624
0.0748889
0.151796
0.080011
0.152578
0.0835997
0.15091
0.14587
0.0848137
0.00611648
0.012599
0.0214161
0.0483827
0.0392889
0.0846486
0.0549995
0.112224
0.067292
0.129474
0.0768943
0.139022
0.0847972
0.143893
0.0914408
0.145934
0.0965993
0.145752
0.143019
0.0994497
0.00466449
0.00793451
0.0181715
0.0348757
0.036333
0.0664871
0.0542072
0.0943494
0.0693049
0.114376
0.0814411
0.126885
0.091376
0.133958
0.0997727
0.137537
0.106772
0.138753
0.1378
0.111991
0.00333557
0.00459895
0.0143128
0.0238984
0.0311441
0.0496558
0.0497876
0.0757059
0.0669852
0.0971789
0.0814529
0.112418
0.0933307
0.122081
0.103237
0.12763
0.111564
0.130426
0.131224
0.118141
0.00222555
0.0023734
0.0105088
0.0156152
0.0247545
0.0354101
0.0425883
0.0578721
0.0608796
0.0788876
0.0774949
0.0958023
0.0917005
0.107875
0.103701
0.11563
0.114085
0.120041
0.121829
0.123481
0.00137092
0.00100248
0.00720347
0.00978262
0.01818
0.0244336
0.0335446
0.0425075
0.0511526
0.0612795
0.0687055
0.0782495
0.0846669
0.0919135
0.0984024
0.101895
0.109938
0.108506
0.112006
0.119761
0.000743166
0.000259314
0.00460994
0.00591585
0.012329
0.0167145
0.0241526
0.030684
0.0392487
0.0461834
0.0560015
0.0614967
0.0727962
0.0751188
0.0885328
0.0861582
0.102608
0.0944311
0.100336
0.114278
0.000294243
-3.49285e-05
0.00258852
0.00362157
0.00740292
0.0119001
0.015368
0.0227189
0.0266435
0.034908
0.0405806
0.0475595
0.0560287
0.0596707
0.0718266
0.0703604
0.0870298
0.0792278
0.0863949
0.10097
7.47234e-05
-0.000109652
0.000860727
0.00283557
0.00291984
0.00984099
0.0070307
0.018608
0.0138185
0.0281202
0.0233939
0.0379841
0.0352438
0.0478209
0.048502
0.0571021
0.0623381
0.0653917
0.0722587
0.0764744
-9.17565e-05
-1.78952e-05
-0.000792249
0.00353606
-0.00121728
0.010266
-0.00044199
0.0178327
0.00221296
0.0254653
0.00718233
0.0330147
0.014523
0.0404802
0.0238418
0.0477834
0.0346123
0.0546211
0.0601475
0.0467234
-0.000519072
0.000501177
-0.00251322
0.0055302
-0.004658
0.0124108
-0.00610287
0.0192776
-0.00632579
0.0256882
-0.00490341
0.0315923
-0.00149066
0.0370674
0.00400136
0.0422914
0.0113629
0.0472596
0.0512476
0.0202628
-0.0011753
0.00167648
-0.00404668
0.00840159
-0.00720692
0.015571
-0.00987366
0.0219443
-0.0116561
0.0274706
-0.0123294
0.0322656
-0.0116188
0.0363568
-0.00923572
0.0399083
-0.00519597
0.0432198
0.0459895
6.2159e-05
-0.00170469
0.00338116
-0.00521776
0.0119147
-0.00903908
0.0193924
-0.0123837
0.0252889
-0.0149071
0.029994
-0.0165231
0.0338816
-0.0172375
0.0370712
-0.0168992
0.03957
-0.0154004
0.041721
0.0435005
-0.0129114
-0.00190146
0.00528263
-0.0056455
0.0156587
-0.00977479
0.0235217
-0.0135345
0.0290486
-0.0165857
0.0330452
-0.0188075
0.0361035
-0.0202267
0.0384903
-0.0209838
0.0403271
-0.0211904
0.0419277
0.0431805
-0.0208703
-0.00164747
0.0069301
-0.00503942
0.0190506
-0.00894901
0.0274312
-0.0127057
0.0328053
-0.0160011
0.0363406
-0.0187088
0.0388112
-0.0208415
0.040623
-0.0225286
0.0420143
-0.0237867
0.0431858
0.0440663
-0.0246726
-0.00110807
-0.00375161
-0.00707389
-0.0105151
-0.0138178
-0.0168802
-0.0196748
-0.0221926
-0.0243661
-0.0262292
0.101337
0.430693
-0.417752
0.0714101
0.279781
-0.249854
0.0447808
0.177201
-0.150571
0.0361198
0.0829221
-0.0742611
0.0402779
0.00974615
-0.0139043
0.0521923
-0.0433446
0.0314302
0.0681886
-0.072504
0.0565076
0.0839876
-0.0771774
0.0613784
0.0990061
-0.0713031
0.0562846
-0.0437226
0.0340285
0.0897984
0.441865
0.0609864
0.308593
0.0396335
0.198553
0.0359063
0.0866494
0.0432082
0.00244425
0.0567841
-0.0569205
0.0732551
-0.0889749
0.0889885
-0.0929108
0.103544
-0.0858586
-0.0527114
0.0715443
0.446795
0.0473536
0.332784
0.0327084
0.213199
0.0339615
0.0853963
0.0447084
-0.0083027
0.0604978
-0.0727099
0.0777123
-0.106189
0.093471
-0.10867
0.10758
-0.0999673
-0.0610844
0.0501425
0.443376
0.0319996
0.350927
0.0247786
0.22042
0.0308169
0.079358
0.045178
-0.0226638
0.0634033
-0.0909352
0.0817349
-0.124521
0.0977083
-0.124643
0.111494
-0.113753
-0.0689441
0.0291401
0.434499
0.0166832
0.363384
0.0169304
0.220172
0.0270378
0.0692506
0.0448502
-0.0404762
0.0655599
-0.111645
0.0853456
-0.144307
0.101786
-0.141084
0.115444
-0.127411
-0.0763987
0.00971789
0.424843
0.0028376
0.370264
0.00945171
0.213558
0.0224016
0.0563007
0.0434084
-0.0614829
0.0667415
-0.134978
0.0883596
-0.165925
0.105602
-0.158326
0.119414
-0.141223
-0.0835889
-0.00678083
0.418712
-0.00794354
0.371427
0.0015976
0.204017
0.0161689
0.0417294
0.0402665
-0.0855805
0.0665756
-0.161287
0.0905158
-0.189865
0.108972
-0.176783
0.123288
-0.155539
-0.0906979
-0.0187985
0.41664
-0.0168072
0.369435
-0.00760645
0.194816
0.00771302
0.0264099
0.0350075
-0.112875
0.064844
-0.191124
0.0916727
-0.216694
0.111775
-0.196885
0.126962
-0.170726
-0.0979379
-0.0266571
0.418625
-0.0247398
0.367518
-0.0189352
0.189012
-0.00273246
0.0102071
0.0279574
-0.143565
0.0618474
-0.225014
0.0920063
-0.246853
0.114074
-0.218953
0.130429
-0.187082
-0.105519
-0.0307639
-0.0322672
-0.0314197
-0.0142347
0.0207888
0.0587812
0.0922159
0.116228
0.133847
0.00605828
0.0270443
-0.0331026
0.000758318
0.00529996
0.000175301
0.000583017
-0.00118229
0.00135759
-0.00252712
0.00134483
-0.00204814
-0.000478984
0.00019353
-0.00224167
0.00428542
-0.00409189
0.00893821
-0.00465278
-0.00293647
0.0615386
0.106061
-0.140555
0.030586
0.0362526
0.0157843
0.0153847
0.00625447
0.0108874
0.0047283
0.002871
0.0113927
-0.00714339
0.02221
-0.013059
0.0338289
-0.0157108
0.0436038
-0.0144278
-0.0088061
0.13023
0.217921
-0.242091
0.0724099
0.0940731
0.0416535
0.046141
0.026657
0.0258839
0.0244252
0.0051028
0.0325979
-0.0153161
0.0458175
-0.0262786
0.0598234
-0.0297167
0.0722268
-0.0268311
-0.016398
0.182022
0.331901
-0.296002
0.107027
0.169068
0.0617966
0.0913712
0.0409567
0.0467239
0.0369519
0.00910761
0.0447158
-0.02308
0.059214
-0.0407768
0.0745695
-0.0450722
0.0887785
-0.04104
-0.0250287
0.214334
-0.300185
0.133548
0.0743478
0.0468105
0.0420138
0.0503641
0.0660949
0.0824011
0.0976457
0.0118157
0.000214241
-0.0120299
0.0129166
-0.00110094
0.0150566
-0.00214001
0.0178685
-0.00281182
0.0212684
-0.00339997
0.0244144
-0.00314595
0.0280564
-0.00364201
0.030316
-0.00225959
0.0332041
-0.00288815
0.000101567
0.0311743
0.00016281
-0.0311228
0.0346056
-0.00453223
0.0410742
-0.00860865
0.0502048
-0.0119425
0.0619835
-0.0151786
0.0750803
-0.0162428
0.0908176
-0.0193793
0.105952
-0.0173944
0.123928
-0.0208637
-0.0165253
0.0465135
-0.000606601
-0.0457441
0.0521443
-0.010163
0.0624065
-0.0188709
0.0771773
-0.0267132
0.0963825
-0.0343837
0.119126
-0.0389861
0.146253
-0.0465065
0.174999
-0.0461404
0.208505
-0.0543701
-0.0501111
0.0581038
-0.00229342
-0.056417
0.0655309
-0.01759
0.078657
-0.0319971
0.097485
-0.0455412
0.12153
-0.0584288
0.150812
-0.0682681
0.183525
-0.0792198
0.220111
-0.0827257
0.258749
-0.0930082
-0.0873641
0.0665315
-0.0639235
0.0753399
0.0904152
0.111563
0.137948
0.16913
0.2019
0.237315
0.267788
0.07101
-0.0675008
0.0739492
-0.0774585
0.0637503
-0.068587
0.0758467
0.0561149
-0.0700166
0.077652
0.0480356
-0.0714669
0.0795461
0.0394822
-0.0728321
0.0813855
0.0305311
-0.0738702
0.0828213
0.0213987
-0.0738951
0.0830276
0.0124413
-0.0713552
0.0803125
0.00446338
-0.0624359
0.0704138
-0.0356891
0.0401525
0.0767218
-0.0595318
-0.0846907
0.0684638
-0.060329
0.0597511
-0.061304
0.0506247
-0.0623405
0.041191
-0.0633983
0.0315909
-0.0642702
0.0220194
-0.0643237
0.0127753
-0.0621111
0.00460292
-0.0542635
-0.0310862
0.0783641
-0.0505795
-0.0873164
0.0693095
-0.0512744
0.0601158
-0.0521102
0.0507911
-0.0530158
0.041335
-0.0539422
0.0317674
-0.0547025
0.0221947
-0.054751
0.0128964
-0.0528127
0.00465353
-0.0460207
-0.0264327
0.082082
-0.0413447
-0.0913168
0.0727478
-0.0419402
0.0632614
-0.0426239
0.0535866
-0.043341
0.0437009
-0.0440565
0.0336349
-0.0446366
0.0235334
-0.0446495
0.0137262
-0.0430055
0.00502708
-0.0373215
-0.0214056
0.0850533
-0.0317248
-0.0946732
0.0752908
-0.0321777
0.0653494
-0.0326825
0.0552161
-0.0332076
0.0448967
-0.0337371
0.0344474
-0.0341873
0.0240293
-0.0342313
0.0139892
-0.0329655
0.00514519
-0.0284775
-0.0162604
0.0880504
-0.021776
-0.0979991
0.0779331
-0.0220604
0.0676225
-0.022372
0.057108
-0.0226931
0.0463958
-0.0230249
0.0355438
-0.0233353
0.0247348
-0.0234223
0.0143793
-0.02261
0.00533434
-0.0194326
-0.0109261
0.0909527
-0.0114886
-0.10124
0.0804758
-0.0115835
0.0697827
-0.0116789
0.0588562
-0.0117666
0.0476944
-0.0118631
0.0363528
-0.0119938
0.0250504
-0.0121199
0.0143368
-0.0118963
0.00524996
-0.0103457
-0.00567612
0.0936957
-0.000872909
-0.104311
0.08288
-0.000767678
0.0718229
-0.000621849
0.0604956
-0.00043931
0.048876
-0.000243442
0.0369921
-0.000109794
0.0250555
-0.000183303
0.0137645
-0.000605386
0.00459894
-0.00118015
-0.00107718
0.0962806
0.00997683
-0.10713
0.0852156
0.0102973
0.073912
0.0106817
0.0623422
0.0111305
0.0504828
0.0116159
0.0383449
0.0120282
0.0260889
0.0120727
0.0143258
0.0111577
0.00464473
0.00850089
0.00356755
0.0984615
-0.109474
0.087254
0.0758303
0.0641789
0.0522933
0.0401934
0.0280041
0.0161643
0.00586069
0.0147722
-0.141077
-0.0168115
0.0112201
-0.150068
0.00710943
-0.155326
0.00286889
-0.158546