/*--------------------------------*- C++ -*----------------------------------*\
| =========                 |                                                 |
| \\      /  F ield         | OpenFOAM: The Open Source CFD Toolbox           |
|  \\    /   O peration     | Version:  2406                                  |
|   \\  /    A nd           | Website:  www.openfoam.com                      |
|    \\/     M anipulation  |                                                 |
\*---------------------------------------------------------------------------*/
FoamFile
{
    version     2.0;
    format      ascii;
    arch        "LSB;label=32;scalar=64";
    class       volVectorField;
    location    "1.6";
    object      U;
}
// * * * * * * * * * * * * * * * * * * * * * * * * * * * * * * * * * * * * * //

dimensions      [0 1 -1 0 0 0 0];

internalField   nonuniform List<vector> 
1800
(
(-0.00508761 -0.00200359 0)
(-0.012577 -0.0103069 6.82597e-21)
(-0.0184064 -0.0199171 -3.49787e-20)
(-0.0177141 -0.023289 9.11061e-20)
(-0.013837 -0.0278772 1.22869e-19)
(0.0144516 -0.0274124 3.27445e-20)
(0.0682288 -0.0243941 -2.94617e-20)
(0.146708 -0.0181067 -1.7445e-19)
(0.248206 -0.00268802 0)
(0.332471 0.0113572 2.92003e-20)
(-0.0185319 0.00894232 1.55238e-20)
(-0.0245515 0.00809799 3.22815e-20)
(-0.0210811 0.000260532 4.8213e-20)
(-0.00818375 -0.00804269 7.9263e-20)
(0.03105 -0.0228203 -3.07544e-21)
(0.115696 -0.0370802 -1.33431e-19)
(0.236205 -0.0494826 4.98195e-20)
(0.385433 -0.0565361 2.603e-19)
(0.566487 -0.0426582 8.32943e-21)
(0.680589 -0.0454798 -1.48493e-20)
(-0.0226875 0.0139267 1.42058e-20)
(-0.0220021 0.0136633 -5.65775e-20)
(-0.0113559 0.00762774 -5.2661e-20)
(0.0419558 -0.00334417 2.00937e-20)
(0.153987 -0.0208969 -1.87545e-20)
(0.319677 -0.0372472 3.67218e-20)
(0.522038 -0.0480265 -3.65696e-20)
(0.743328 -0.0520237 -2.69814e-19)
(0.987215 -0.0367764 1.15519e-19)
(1.14446 -0.0338924 1.51889e-19)
(-0.017954 0.013681 1.76707e-20)
(-0.0143959 0.0177838 7.98174e-20)
(0.0357402 0.00489097 -5.73327e-20)
(0.167506 -0.0121962 -3.04882e-22)
(0.3733 -0.0286415 1.11679e-19)
(0.629087 -0.0381977 -3.28353e-20)
(0.905458 -0.0377002 -1.13979e-19)
(1.17585 -0.0276311 -9.2748e-20)
(1.43141 -0.007843 -1.37059e-20)
(1.61826 0.010536 9.77815e-20)
(-0.00818012 0.00577892 6.84317e-21)
(0.0127695 0.000758214 5.55295e-20)
(0.142832 -0.0110358 2.73834e-20)
(0.378895 -0.0253128 -7.93872e-20)
(0.687541 -0.0300106 -3.80888e-20)
(1.01985 -0.0217923 6.05181e-20)
(1.3332 -0.0030582 5.44299e-20)
(1.60276 0.0218285 1.0987e-19)
(1.81952 0.0493952 -2.51227e-19)
(1.97637 0.0710664 -2.14031e-19)
(-0.00165598 0.00255028 4.04351e-22)
(0.0851541 -0.0148575 1.38519e-19)
(0.328405 -0.0239745 1.01144e-19)
(0.684105 -0.0219497 -1.28352e-19)
(1.07568 -0.00387983 1.26982e-19)
(1.4336 0.0251462 -1.02823e-20)
(1.72154 0.0573896 1.40881e-19)
(1.93286 0.0870837 2.35947e-19)
(2.0784 0.110953 -3.31509e-19)
(2.17149 0.127626 -2.60643e-19)
(0.0181106 -0.00121614 -4.13188e-20)
(0.216555 -0.0260761 -2.6578e-19)
(0.596368 -0.0185713 2.99089e-20)
(1.05152 0.0115898 3.49506e-19)
(1.46519 0.0531709 -2.06942e-20)
(1.7797 0.0940346 -2.62135e-19)
(1.99191 0.12725 -1.76271e-19)
(2.12508 0.151113 5.07652e-19)
(2.20693 0.166492 5.78948e-19)
(2.25866 0.174602 5.5167e-20)
(0.0654587 -0.00390422 4.46228e-20)
(0.410818 -0.0238826 2.82923e-20)
(0.921615 0.0164808 -1.52793e-19)
(1.41319 0.0753209 8.134e-20)
(1.77768 0.12833 -4.56798e-21)
(2.00858 0.167104 -8.35267e-19)
(2.14365 0.192137 -3.43213e-21)
(2.2232 0.207077 5.91331e-19)
(2.2738 0.214991 -3.67344e-19)
(2.30822 0.220399 -3.74697e-19)
(0.139834 -0.00260272 1.77225e-19)
(0.654805 0.00285363 1.61516e-19)
(1.24732 0.08335 -3.89499e-19)
(1.70337 0.158466 -9.40542e-20)
(1.98457 0.209023 4.78971e-21)
(2.1397 0.238577 3.13698e-19)
(2.22475 0.254739 -5.7706e-19)
(2.27467 0.263447 -2.98757e-19)
(2.30526 0.267964 6.58269e-19)
(2.32536 0.26761 1.41754e-19)
(0.239593 0.0092143 4.43829e-21)
(0.914394 0.062573 4.29582e-19)
(1.51864 0.174505 -3.65957e-19)
(1.90248 0.251249 -1.71978e-19)
(2.10719 0.292764 1.85604e-19)
(2.20893 0.312028 -1.92864e-19)
(2.26146 0.321398 3.71859e-19)
(2.29191 0.325515 2.40524e-20)
(2.31484 0.325846 -2.56942e-19)
(2.33132 0.324024 -8.07562e-20)
(-0.00495144 0.104875 1.06048e-20)
(-0.0161954 0.283923 -1.58515e-20)
(-0.0336314 0.401482 -2.14719e-20)
(-0.0510218 0.471219 3.06644e-20)
(-0.0671968 0.513228 -1.51976e-21)
(-0.082021 0.540001 -8.94475e-21)
(-0.0953588 0.557835 -6.39809e-21)
(-0.106956 0.569984 1.37952e-20)
(-0.116739 0.578207 -6.04151e-23)
(-0.125143 0.583175 -4.77789e-21)
(-0.010272 0.104576 -9.49502e-21)
(-0.0306519 0.294866 -1.71038e-23)
(-0.0496223 0.422898 -1.22985e-21)
(-0.0666998 0.497898 4.18017e-20)
(-0.0817064 0.541544 4.22606e-20)
(-0.0949992 0.568159 1.71821e-20)
(-0.106761 0.584815 -3.58092e-20)
(-0.116929 0.595001 0)
(-0.125632 0.600708 3.18056e-21)
(-0.133318 0.603212 -1.2374e-20)
(-0.0133122 0.0924297 7.3627e-23)
(-0.0418677 0.284591 6.00486e-20)
(-0.0611181 0.424729 6.08087e-20)
(-0.076323 0.509163 -3.95119e-20)
(-0.0883131 0.557713 2.75709e-20)
(-0.0978338 0.586349 1.18913e-20)
(-0.105457 0.603584 3.31304e-20)
(-0.111473 0.613586 1.9616e-20)
(-0.116058 0.618622 7.49815e-20)
(-0.119331 0.620324 9.89189e-20)
(-0.0122526 0.0691556 7.96741e-22)
(-0.0458461 0.249281 7.92215e-20)
(-0.0639938 0.400598 -1.84109e-20)
(-0.0757293 0.49861 -5.57918e-20)
(-0.0827172 0.556237 3.04016e-21)
(-0.0863127 0.589734 -3.50089e-20)
(-0.0875798 0.609387 1.06322e-20)
(-0.0870831 0.620668 0)
(-0.0851129 0.626493 -1.11454e-19)
(-0.0815519 0.628634 -7.51678e-20)
(-0.0068508 0.0385695 4.34853e-20)
(-0.0403586 0.188576 -1.71738e-20)
(-0.0567607 0.344366 -7.52487e-20)
(-0.0650025 0.457977 1.97693e-20)
(-0.066525 0.529782 -1.24513e-20)
(-0.0633313 0.573027 -4.83473e-20)
(-0.0571606 0.598722 3.63848e-20)
(-0.0488907 0.613571 2.46741e-20)
(-0.0386969 0.621256 -1.07679e-19)
(-0.0256489 0.62369 -1.26035e-19)
(0.000193585 0.00844936 2.33911e-20)
(-0.0259188 0.109894 -2.85404e-20)
(-0.0405082 0.25531 6.35972e-20)
(-0.0467982 0.379892 -9.1314e-21)
(-0.0441249 0.468374 -9.19694e-20)
(-0.0344163 0.526323 1.22567e-21)
(-0.020115 0.562643 -3.4809e-20)
(-0.0027263 0.584302 9.44104e-20)
(0.0174617 0.595655 -6.79535e-20)
(0.04232 0.59845 -1.36258e-19)
(0.00451217 -0.00468722 -2.44086e-20)
(-0.0055029 0.0364565 4.2605e-20)
(-0.0177185 0.146745 4.74662e-21)
(-0.0244795 0.265944 -1.86694e-19)
(-0.0210927 0.364259 3.36102e-20)
(-0.00803897 0.436547 1.31977e-19)
(0.012304 0.486304 -2.28991e-21)
(0.0379624 0.518501 8.76879e-20)
(0.0683062 0.536843 8.38537e-21)
(0.105576 0.540582 -1.94893e-20)
(0.0126038 -0.0149195 -5.95211e-22)
(0.0153585 -0.00683309 -2.42901e-20)
(0.00481011 0.0496774 -8.32195e-20)
(-0.00322174 0.140047 9.26876e-20)
(-0.00275351 0.229966 1.78271e-19)
(0.00838861 0.304793 -5.82448e-20)
(0.0294273 0.361735 1.48357e-20)
(0.058984 0.402308 -4.57154e-20)
(0.0967626 0.428204 -1.79514e-19)
(0.143899 0.431508 2.44982e-20)
(0.0176477 -0.0214025 -3.70461e-21)
(0.0181505 -0.0221865 -9.27254e-21)
(0.0141349 -0.0108384 2.09158e-20)
(0.0085759 0.0311707 3.32149e-21)
(0.00213437 0.0932222 1.16235e-21)
(0.00710315 0.154388 -1.97713e-19)
(0.0245683 0.204961 -7.44259e-20)
(0.0546303 0.243734 -1.25013e-19)
(0.0982405 0.269988 2.23617e-21)
(0.154948 0.268755 2.67412e-19)
(0.00767882 -0.0167656 -2.07271e-21)
(0.00589065 -0.0247228 8.43141e-22)
(-0.00224035 -0.0233104 9.56773e-20)
(-0.00927364 -0.0158197 1.3276e-19)
(-0.0143981 0.00116481 -7.68334e-20)
(-0.00673649 0.0306142 -3.16735e-19)
(0.0142804 0.0592947 -4.18792e-20)
(0.0531641 0.0837572 2.44362e-19)
(0.111059 0.101467 2.78318e-19)
(0.184086 0.101978 2.46002e-19)
(-0.160377 0.590717 -6.94782e-20)
(-0.17582 0.514843 -5.87176e-19)
(-0.212147 0.262925 -7.11211e-19)
(-0.185688 -0.022226 1.03648e-18)
(-0.0116048 -0.274569 -4.70642e-19)
(0.19149 -0.393848 2.0581e-20)
(0.384196 -0.414501 -1.82503e-20)
(0.536901 -0.35575 5.17319e-20)
(0.641337 -0.298018 -4.07574e-20)
(0.735139 -0.164742 -3.59591e-20)
(-0.166504 0.602416 -1.06548e-19)
(-0.206326 0.529025 -4.7776e-21)
(-0.250714 0.267651 7.57477e-22)
(-0.190151 -0.0513731 -5.45585e-19)
(0.0119112 -0.330856 -1.14042e-19)
(0.230363 -0.452554 2.39722e-19)
(0.423702 -0.465233 6.41362e-21)
(0.569791 -0.392019 6.29239e-21)
(0.669276 -0.32546 -7.07964e-20)
(0.76056 -0.178869 6.76239e-20)
(-0.138128 0.6164 -1.60825e-19)
(-0.196997 0.551074 6.46066e-19)
(-0.237065 0.272612 1.62252e-19)
(-0.140484 -0.0836002 -9.10517e-19)
(0.0896278 -0.389186 4.11575e-19)
(0.319962 -0.511417 3.34839e-21)
(0.504708 -0.51354 2.43521e-20)
(0.629329 -0.425255 -4.02125e-20)
(0.713544 -0.350964 8.47458e-21)
(0.793844 -0.19254 5.32685e-22)
(-0.0773812 0.628661 -3.98011e-20)
(-0.132808 0.57428 -7.94291e-21)
(-0.16679 0.278801 1.73925e-19)
(-0.0335094 -0.119595 5.85768e-19)
(0.219645 -0.448708 -1.00239e-19)
(0.460689 -0.569764 -4.09294e-20)
(0.636765 -0.556952 1.18603e-20)
(0.727967 -0.45207 0)
(0.785007 -0.371478 0)
(0.840646 -0.20442 -1.85228e-22)
(0.0142873 0.631023 1.62365e-19)
(-0.0328869 0.599745 -2.08837e-19)
(-0.0433157 0.285988 4.62806e-22)
(0.12446 -0.154184 -4.11273e-19)
(0.385626 -0.508283 -1.81523e-19)
(0.631075 -0.628909 -3.29575e-19)
(0.809338 -0.596057 1.5557e-20)
(0.869944 -0.470455 -7.33838e-21)
(0.893943 -0.383546 -5.79368e-20)
(0.908189 -0.212572 -2.31542e-21)
(0.129277 0.617802 1.78356e-19)
(0.102334 0.622813 -6.30476e-20)
(0.132981 0.291078 -7.70037e-19)
(0.321163 -0.182911 6.99514e-21)
(0.584985 -0.565196 5.83234e-19)
(0.813817 -0.689293 -1.29209e-19)
(0.994562 -0.634779 -6.36616e-20)
(1.04123 -0.482574 -4.82005e-20)
(1.04147 -0.385301 1.31065e-21)
(1.00282 -0.214977 -2.56096e-20)
(0.253533 0.585149 -9.27715e-20)
(0.275707 0.638631 -4.51814e-20)
(0.343035 0.298014 1.80378e-19)
(0.557395 -0.204893 -5.42142e-20)
(0.835004 -0.614183 -6.54391e-20)
(1.02486 -0.744854 2.79692e-19)
(1.17856 -0.673572 -4.0761e-20)
(1.21684 -0.493401 -5.45615e-21)
(1.2128 -0.378677 1.77191e-20)
(1.12489 -0.210853 3.35421e-21)
(0.363716 0.517204 -2.34512e-19)
(0.471258 0.640646 -1.03004e-18)
(0.568996 0.309495 2.34273e-19)
(0.825779 -0.221449 1.74662e-20)
(1.12836 -0.652373 -3.7152e-19)
(1.28164 -0.787293 -3.87216e-19)
(1.37455 -0.705682 1.52921e-19)
(1.38368 -0.504308 -4.7299e-20)
(1.38418 -0.367959 2.74201e-21)
(1.26485 -0.201496 -3.14716e-21)
(0.43751 0.413276 -7.1753e-19)
(0.68791 0.633124 -4.73624e-19)
(0.802071 0.316932 1.49142e-19)
(1.10181 -0.23223 3.32362e-19)
(1.42316 -0.68046 -3.53738e-19)
(1.559 -0.81511 -1.33624e-19)
(1.5913 -0.724605 -2.30397e-19)
(1.54668 -0.511449 2.0919e-20)
(1.53933 -0.3558 2.37176e-20)
(1.4064 -0.189279 1.39012e-20)
(0.462839 0.23313 -1.62305e-19)
(0.826178 0.581032 1.41447e-18)
(0.9954 0.342369 3.86106e-19)
(1.36601 -0.228124 1.06727e-19)
(1.69437 -0.700511 -2.75181e-19)
(1.81585 -0.832736 1.08278e-19)
(1.81076 -0.729982 -4.27274e-19)
(1.71084 -0.510413 -3.58246e-20)
(1.67573 -0.341854 -9.91881e-21)
(1.53519 -0.176008 -2.56354e-20)
(0.667355 0.0742714 2.16106e-19)
(1.08999 0.488897 2.32525e-19)
(1.31405 0.29974 -4.71549e-20)
(1.75839 -0.27828 1.25171e-19)
(2.05718 -0.735388 -7.96817e-21)
(2.12471 -0.849698 -7.18683e-20)
(2.07236 -0.72338 -3.89349e-20)
(1.91424 -0.494083 5.24678e-20)
(1.82856 -0.316544 -1.39887e-19)
(1.67308 -0.157784 1.7202e-20)
(1.29294 0.11118 2.01097e-20)
(1.4642 0.359511 -2.30067e-19)
(1.86526 0.129857 -5.1108e-19)
(2.36054 -0.434662 1.12899e-19)
(2.53845 -0.815116 -4.925e-19)
(2.45571 -0.852451 -1.21481e-19)
(2.30616 -0.668679 1.05738e-19)
(2.09703 -0.423953 -3.88807e-20)
(1.96171 -0.253311 1.71017e-19)
(1.78348 -0.123721 3.2279e-20)
(1.92405 0.164955 3.11484e-20)
(1.9972 0.274687 6.17219e-20)
(2.44495 -0.0160293 -6.62643e-20)
(2.79896 -0.509599 4.71199e-36)
(2.8477 -0.793246 -6.74318e-20)
(2.66754 -0.781358 2.03899e-34)
(2.42895 -0.588642 6.81923e-20)
(2.18022 -0.355215 1.85667e-33)
(2.02607 -0.192509 -5.20603e-21)
(1.83721 -0.0891416 6.97153e-21)
(2.30725 0.156892 7.87732e-20)
(2.47622 0.187467 2.10376e-19)
(2.85009 -0.125639 5.10464e-19)
(3.07405 -0.563203 0)
(3.06741 -0.783079 2.87972e-19)
(2.84986 -0.713784 -7.07333e-21)
(2.5429 -0.489514 -1.88933e-19)
(2.22438 -0.266479 4.27393e-33)
(2.03225 -0.121772 -1.08925e-19)
(1.83654 -0.0531681 -1.06121e-20)
(2.55484 0.10311 9.11991e-20)
(2.76558 0.0851729 -1.99729e-20)
(3.06185 -0.207744 0)
(3.22522 -0.582153 0)
(3.1638 -0.728693 0)
(2.86277 -0.604404 0)
(2.51529 -0.365035 1.45446e-20)
(2.18366 -0.162854 4.6103e-33)
(1.98452 -0.044237 -7.52851e-21)
(1.79708 -0.0153127 -1.66699e-33)
(2.71729 0.0356029 2.6172e-20)
(2.89277 -0.00237451 0)
(3.1519 -0.272617 0)
(3.28926 -0.594489 0)
(3.12124 -0.659125 0)
(2.72356 -0.477993 0)
(2.31987 -0.237317 -2.64673e-20)
(1.99675 -0.0665128 1.65715e-19)
(1.83394 0.0217292 -8.89999e-21)
(1.69629 0.0170824 4.77288e-21)
(2.77672 -0.0198294 0)
(2.91459 -0.0751146 1.79113e-19)
(3.17416 -0.327313 2.86675e-19)
(3.17262 -0.569682 0)
(2.79643 -0.538501 6.93012e-20)
(2.31869 -0.315653 -7.53372e-20)
(1.93721 -0.0995774 -1.31137e-19)
(1.67827 0.0207828 -7.76156e-20)
(1.58039 0.0685539 6.80242e-20)
(1.5165 0.0369059 -2.80063e-20)
(2.70636 -0.0648923 4.32626e-20)
(2.84151 -0.146245 -2.12211e-20)
(2.98119 -0.341167 2.36821e-20)
(2.65984 -0.45343 -5.98622e-35)
(2.04834 -0.345269 -3.14174e-21)
(1.54354 -0.141591 -2.64307e-34)
(1.2835 0.00604526 -2.63584e-20)
(1.18024 0.06795 -7.93851e-20)
(1.1911 0.0814072 -1.00331e-20)
(1.21507 0.0393993 2.11322e-20)
(2.34657 -0.0870684 0)
(2.39175 -0.193276 -8.61774e-20)
(2.17641 -0.257067 -6.54418e-20)
(1.48966 -0.187076 0)
(0.86285 -0.0881554 -4.57169e-20)
(0.577349 -0.0163029 -2.14454e-20)
(0.530961 0.0303425 -3.4414e-20)
(0.585761 0.0508289 -3.70271e-22)
(0.682675 0.0516127 -2.25097e-20)
(0.763874 0.023804 -1.92937e-20)
(1.18704 -0.0758755 1.3875e-20)
(0.879574 -0.0706308 0)
(0.484469 -0.0106126 0)
(0.212882 0.00345704 0)
(0.0419372 -0.00675588 0)
(-0.0309615 -0.00869432 0)
(-0.0274637 0.000447814 -2.51058e-20)
(0.038319 0.0106547 1.10437e-34)
(0.126523 0.0126442 -1.0749e-20)
(0.199074 0.00571564 -2.18801e-20)
(2.33836 0.311421 3.66647e-19)
(2.35476 0.267146 1.47375e-19)
(2.34911 0.225594 3.06407e-19)
(2.33536 0.188245 -3.21507e-19)
(2.28797 0.14893 8.24067e-20)
(2.22232 0.125509 4.62551e-20)
(2.05697 0.0685473 3.87903e-20)
(1.78621 0.0543056 2.50572e-20)
(1.41563 -0.0322477 5.27587e-20)
(0.76951 -0.0543264 -3.43933e-20)
(2.33378 0.272102 -1.76427e-19)
(2.36336 0.246021 3.83879e-20)
(2.38137 0.220072 1.19916e-19)
(2.3814 0.196705 1.09826e-19)
(2.37687 0.158694 -1.89784e-19)
(2.3261 0.145823 1.12403e-19)
(2.31196 0.108701 1.75914e-20)
(2.12603 0.0872056 -4.34715e-21)
(2.0816 0.0795434 3.3031e-21)
(1.63271 0.0136874 3.06089e-20)
(2.37235 0.241795 2.42486e-20)
(2.39133 0.219476 -1.14109e-19)
(2.42104 0.196646 -1.51621e-19)
(2.41508 0.18319 3.33645e-19)
(2.44367 0.162401 -1.83514e-20)
(2.38849 0.138966 3.41482e-20)
(2.42838 0.13639 -7.13923e-20)
(2.29841 0.0968637 -5.42973e-20)
(2.33754 0.127244 -2.09033e-20)
(2.11202 0.0718686 -1.1281e-20)
(2.4304 0.212848 4.26025e-20)
(2.44552 0.189731 -1.40095e-19)
(2.48225 0.175477 2.84544e-20)
(2.47528 0.153665 -1.06276e-19)
(2.51367 0.150926 1.54396e-19)
(2.47497 0.119649 -5.48104e-20)
(2.5133 0.132835 2.16056e-20)
(2.44137 0.0956378 -2.46074e-20)
(2.46805 0.121866 -3.10078e-20)
(2.36785 0.0939661 -9.41065e-21)
(2.47427 0.180114 8.08136e-20)
(2.49643 0.15619 -2.17684e-19)
(2.5347 0.150016 -1.8416e-20)
(2.5418 0.124009 -1.43708e-20)
(2.57711 0.127084 -5.49943e-21)
(2.56699 0.0974415 -1.24155e-21)
(2.59604 0.106369 2.75129e-20)
(2.56774 0.080971 -2.74275e-20)
(2.58712 0.0903877 -4.1986e-20)
(2.54218 0.0802402 -5.3717e-20)
(2.48409 0.142823 1.45309e-19)
(2.513 0.121679 2.47358e-20)
(2.55264 0.117916 -1.4967e-19)
(2.57392 0.0956909 8.87985e-20)
(2.60896 0.0955773 6.8376e-20)
(2.62195 0.073992 -5.08215e-20)
(2.65072 0.0732316 7.12419e-20)
(2.65284 0.0573078 2.97723e-20)
(2.67661 0.0537359 -8.62423e-20)
(2.66688 0.0485837 -1.05358e-19)
(2.44318 0.102902 1.75997e-20)
(2.47636 0.0856444 4.48985e-20)
(2.51699 0.0821638 -5.82903e-20)
(2.54855 0.0648232 -3.31996e-20)
(2.58634 0.0617297 6.7774e-20)
(2.61553 0.0456505 3.14014e-20)
(2.64889 0.0399161 6.33703e-20)
(2.67497 0.0272141 4.87786e-20)
(2.7021 0.0180735 7.9719e-21)
(2.72637 0.0108926 3.83941e-20)
(2.3149 0.0663339 2.14372e-20)
(2.35568 0.0529347 1.17626e-22)
(2.39057 0.0498667 -6.82191e-20)
(2.43654 0.0364846 -5.83398e-20)
(2.46816 0.0325664 3.21656e-20)
(2.51984 0.0193304 -2.84363e-20)
(2.54587 0.0118193 -2.51655e-20)
(2.60408 -0.000484586 7.82053e-20)
(2.62121 -0.012419 -6.64164e-20)
(2.68754 -0.0237554 -7.8181e-20)
(1.99612 0.0192879 5.53755e-20)
(2.04821 0.014328 -2.77647e-20)
(2.06462 0.00987835 -2.59321e-20)
(2.12677 0.00461732 2.84474e-20)
(2.13687 -0.000367379 -1.66106e-20)
(2.21113 -0.00637509 -3.92975e-21)
(2.2125 -0.0141149 -2.70855e-20)
(2.29892 -0.0216774 1.74473e-20)
(2.28989 -0.0337229 1.67124e-20)
(2.38573 -0.0441056 -1.88284e-20)
(1.16728 -0.0017688 0)
(1.19233 -0.00304919 2.55792e-21)
(1.1852 -0.00501051 -3.62862e-20)
(1.2186 -0.00681497 -5.49923e-20)
(1.20477 -0.0100815 3.07594e-20)
(1.24772 -0.0119089 1.23991e-19)
(1.22381 -0.0179055 -8.40215e-21)
(1.2749 -0.0177164 -6.89729e-20)
(1.23857 -0.0294802 -8.87405e-21)
(1.29314 -0.0264064 3.07334e-21)
(1.4022 0.826912 -4.59064e-20)
(1.38916 0.87029 -9.57505e-20)
(1.39036 0.916886 -6.68709e-19)
(1.39512 0.969119 2.10314e-19)
(1.39777 1.02407 1.05073e-18)
(1.39178 1.07642 1.47413e-19)
(1.36462 1.11113 -7.87229e-20)
(1.29243 1.10286 -3.33061e-19)
(1.10264 0.985363 -3.32916e-19)
(0.587721 0.54578 -4.56108e-20)
(1.55189 0.799141 -3.84284e-19)
(1.5433 0.841543 1.11248e-18)
(1.54103 0.886101 5.0066e-19)
(1.54439 0.936531 -7.47273e-19)
(1.54906 0.990554 2.5065e-19)
(1.54593 1.04195 2.41975e-19)
(1.5189 1.07426 8.00642e-19)
(1.44069 1.06392 -1.17391e-18)
(1.22865 0.945091 -5.10388e-20)
(0.647864 0.51515 2.09574e-19)
(1.6932 0.768863 1.07837e-19)
(1.69047 0.810095 8.74791e-19)
(1.68787 0.852104 1.69952e-20)
(1.68989 0.898509 -4.40216e-19)
(1.69488 0.948395 1.28908e-19)
(1.69246 0.995318 -6.89162e-20)
(1.66346 1.0219 -4.72266e-20)
(1.57715 1.00758 -4.06838e-19)
(1.33997 0.886068 2.15073e-20)
(0.695496 0.471609 -2.17389e-19)
(1.82126 0.727863 -4.43355e-19)
(1.82449 0.767303 4.07496e-19)
(1.82628 0.806908 -6.26321e-19)
(1.83077 0.848948 -2.34073e-19)
(1.83638 0.893102 1.37863e-18)
(1.83256 0.933357 -8.74187e-19)
(1.79871 0.952659 -9.94042e-19)
(1.70217 0.933359 4.29654e-19)
(1.43463 0.81005 -1.24364e-19)
(0.72691 0.418335 -6.42331e-20)
(1.93689 0.683159 5.54114e-19)
(1.943 0.719398 4.46423e-19)
(1.94587 0.754678 -2.11463e-19)
(1.95037 0.791614 8.30652e-19)
(1.95617 0.829918 1.66429e-19)
(1.95012 0.861995 -3.76793e-19)
(1.91016 0.870804 5.5532e-19)
(1.80179 0.845501 -6.6433e-19)
(1.49746 0.71978 -7.55073e-19)
(0.733922 0.355406 -3.60164e-21)
(2.03972 0.625071 7.35668e-19)
(2.04927 0.657045 9.23536e-19)
(2.05685 0.688527 -9.44043e-19)
(2.06373 0.720412 -9.69683e-19)
(2.06651 0.751236 2.36518e-19)
(2.0526 0.773228 -7.07334e-19)
(1.99981 0.773836 -4.63734e-19)
(1.87333 0.74314 4.00009e-19)
(1.52658 0.614013 6.97077e-20)
(0.714171 0.284784 -1.40483e-20)
(2.12957 0.567741 6.84092e-19)
(2.13992 0.595191 -9.17051e-19)
(2.14593 0.620683 -8.09833e-19)
(2.14962 0.645806 6.29183e-19)
(2.14865 0.669541 -5.63627e-19)
(2.12354 0.678074 1.68165e-18)
(2.06015 0.669952 -2.53088e-19)
(1.90859 0.633077 -1.36238e-18)
(1.51248 0.49894 5.96456e-19)
(0.663352 0.211773 3.2143e-20)
(2.20494 0.504238 -4.48942e-19)
(2.21193 0.525547 -6.41063e-19)
(2.21769 0.546542 -8.89832e-19)
(2.22357 0.566293 3.0314e-20)
(2.21292 0.574315 2.71749e-19)
(2.16738 0.574365 2.96627e-19)
(2.09099 0.561478 7.01971e-19)
(1.90042 0.515918 -3.64795e-19)
(1.44781 0.379036 1.99233e-20)
(0.582236 0.142062 6.38491e-20)
(2.26463 0.442446 2.22138e-19)
(2.27361 0.461246 -7.43789e-20)
(2.27699 0.47646 4.27463e-19)
(2.26064 0.486306 1.0358e-18)
(2.22527 0.481747 -3.28511e-19)
(2.18293 0.477537 -1.30932e-18)
(2.08208 0.455455 1.04066e-18)
(1.83905 0.398097 9.2554e-19)
(1.32683 0.261513 -4.72251e-19)
(0.475959 0.0819894 -9.21232e-21)
(2.31496 0.384083 -4.62258e-19)
(2.31376 0.393862 -4.97695e-21)
(2.29642 0.397109 6.19436e-19)
(2.26821 0.396342 6.01254e-19)
(2.23297 0.390194 4.11673e-19)
(2.16775 0.381604 -6.98182e-19)
(2.02305 0.350535 3.1665e-20)
(1.71467 0.281433 -3.56511e-19)
(1.14678 0.152221 -5.38041e-19)
(0.356309 0.0368632 -1.31427e-20)
(0.500428 0.31209 3.58049e-20)
(0.463061 0.32135 -1.79352e-19)
(0.421397 0.331764 -3.25359e-20)
(0.37601 0.343363 1.31225e-19)
(0.326679 0.35572 -2.79249e-20)
(0.272768 0.367032 -2.81515e-20)
(0.213551 0.371806 -4.70165e-20)
(0.147475 0.357167 -2.83116e-20)
(0.0763863 0.299548 1.04228e-19)
(0.0287349 0.156645 6.64078e-21)
(0.542584 0.410044 5.71275e-21)
(0.505536 0.424846 3.25092e-20)
(0.464826 0.4411 -4.5655e-21)
(0.420687 0.45885 1.08896e-20)
(0.37268 0.477662 5.57333e-20)
(0.319937 0.495556 3.09577e-20)
(0.261162 0.506178 7.87252e-20)
(0.193984 0.494014 -6.55006e-20)
(0.116764 0.427328 7.26331e-20)
(0.0500458 0.234972 -2.92636e-21)
(0.600623 0.502474 -1.0311e-19)
(0.564704 0.522602 -5.44302e-21)
(0.525831 0.54437 3.76587e-20)
(0.483817 0.567961 -3.69654e-20)
(0.437987 0.593036 -3.45317e-21)
(0.387222 0.617542 1.31185e-19)
(0.329563 0.634376 -2.23867e-20)
(0.261547 0.625509 -4.03134e-20)
(0.176853 0.55127 -2.14434e-22)
(0.0833566 0.310977 1.69933e-20)
(0.671198 0.589717 -3.65779e-20)
(0.637087 0.61536 -1.03323e-19)
(0.601114 0.642562 -6.36491e-20)
(0.562326 0.671685 -4.3097e-21)
(0.51965 0.702469 -1.23505e-19)
(0.471729 0.732732 -7.76245e-20)
(0.415948 0.754649 -2.13002e-19)
(0.34749 0.748016 7.2864e-20)
(0.254343 0.666276 -5.24427e-20)
(0.127289 0.380962 -9.32695e-20)
(0.753323 0.665128 6.65009e-20)
(0.721812 0.695474 -9.66445e-20)
(0.689959 0.727436 2.21189e-20)
(0.656048 0.761785 -4.96609e-20)
(0.61844 0.798336 -8.19996e-20)
(0.5752 0.834691 1.12024e-19)
(0.522669 0.86225 7.69227e-20)
(0.454151 0.858679 -1.27534e-19)
(0.350897 0.770959 -2.52735e-19)
(0.182055 0.444062 5.11267e-20)
(0.844057 0.734865 2.12243e-20)
(0.814552 0.769673 1.64477e-20)
(0.786207 0.805263 6.05077e-20)
(0.756594 0.843334 4.58166e-20)
(0.723952 0.884211 1.92679e-19)
(0.686126 0.925278 -1.78743e-19)
(0.638333 0.956797 -1.30519e-19)
(0.571329 0.954431 -4.19916e-20)
(0.458306 0.860017 1.05289e-19)
(0.243109 0.49584 1.53454e-19)
(0.944906 0.786783 -7.48203e-20)
(0.920126 0.825482 4.00289e-20)
(0.897895 0.864483 2.24275e-19)
(0.874441 0.905911 -1.33782e-19)
(0.847499 0.950435 -3.72938e-19)
(0.814824 0.995517 1.90061e-19)
(0.770986 1.03045 5.96453e-19)
(0.704372 1.02902 1.57765e-19)
(0.578936 0.929462 -3.82581e-20)
(0.310449 0.534954 2.20173e-19)
(1.04801 0.832775 -2.35053e-19)
(1.02532 0.873372 -7.80327e-20)
(1.00815 0.913709 2.42746e-19)
(0.991718 0.957109 -1.11112e-19)
(0.972738 1.00405 8.59579e-20)
(0.947722 1.05124 3.92127e-19)
(0.909627 1.08683 -4.31276e-19)
(0.843994 1.08381 -3.97901e-19)
(0.705684 0.977964 3.41556e-19)
(0.380493 0.559661 -7.56528e-22)
(1.1596 0.85251 -1.60542e-20)
(1.14623 0.895712 4.16633e-20)
(1.1368 0.93683 -2.11898e-19)
(1.12639 0.981309 -7.50836e-20)
(1.11293 1.03047 4.75349e-19)
(1.09325 1.08029 1.42649e-19)
(1.05885 1.11708 -1.24256e-19)
(0.991959 1.11304 0)
(0.838274 1.0025 -2.22227e-19)
(0.451934 0.569031 -1.13864e-19)
(1.25154 0.858631 0)
(1.24658 0.903186 0)
(1.25161 0.94668 6.20344e-19)
(1.25468 0.99262 1.43128e-19)
(1.25211 1.04217 -2.23497e-19)
(1.24069 1.09165 4.1376e-19)
(1.21106 1.12675 -3.01272e-19)
(1.14266 1.12021 -8.21935e-19)
(0.972172 1.00539 4.19414e-19)
(0.522046 0.56443 2.16739e-19)
(0.990952 -0.00609847 -1.20263e-20)
(1.01916 -0.00911873 -1.08246e-20)
(1.03673 0.0783716 7.44526e-21)
(1.03383 0.176725 2.52928e-21)
(1.01206 0.221336 1.09114e-20)
(0.973953 0.237748 2.12147e-20)
(0.93966 0.226092 -1.109e-20)
(0.874231 0.231014 -1.28429e-20)
(0.81108 0.243744 -7.31383e-20)
(0.665528 0.266572 4.64346e-20)
(0.990558 -0.00786738 -3.7086e-22)
(1.0201 -0.0144768 8.3097e-21)
(1.0362 0.0761468 1.25154e-22)
(1.03219 0.181533 5.84152e-21)
(1.01138 0.229675 8.24848e-21)
(0.97374 0.248187 -3.23255e-20)
(0.942651 0.239824 -1.33162e-20)
(0.883943 0.248898 4.19386e-22)
(0.827194 0.27606 1.8753e-19)
(0.703004 0.331803 4.11982e-21)
(0.989798 -0.00980017 7.01984e-22)
(1.02142 -0.0194843 1.60174e-20)
(1.03624 0.0748044 -8.70428e-21)
(1.03153 0.187009 -7.75827e-22)
(1.01142 0.238112 -9.54124e-21)
(0.973705 0.258399 1.88064e-21)
(0.944814 0.251935 1.71827e-20)
(0.894631 0.265377 -1.64294e-20)
(0.842894 0.305344 1.06332e-19)
(0.750374 0.39362 -2.43292e-19)
(0.988687 -0.011885 3.11132e-21)
(1.02298 -0.0242343 -1.03332e-21)
(1.03694 0.0743088 -1.02464e-20)
(1.03172 0.193204 -1.39369e-20)
(1.01192 0.246733 2.11767e-20)
(0.973859 0.268554 2.2572e-20)
(0.94681 0.262289 -2.26898e-20)
(0.906347 0.280776 8.41619e-20)
(0.858699 0.330905 -9.73365e-20)
(0.806601 0.451357 -2.64858e-19)
(0.987235 -0.0141145 3.99692e-22)
(1.02476 -0.02883 -1.84447e-20)
(1.0384 0.0746219 4.03195e-21)
(1.0326 0.200199 2.35509e-20)
(1.01275 0.255583 8.28783e-21)
(0.974505 0.278605 5.03259e-20)
(0.949365 0.270739 2.7049e-20)
(0.91916 0.295459 7.12217e-20)
(0.874698 0.3523 -1.36746e-21)
(0.87079 0.503463 1.99168e-19)
(0.985458 -0.0164802 -9.46831e-22)
(1.02673 -0.0333788 2.5569e-22)
(1.04059 0.075727 -1.61007e-21)
(1.03395 0.208068 6.70931e-21)
(1.01407 0.264598 -2.91019e-20)
(0.976247 0.288365 7.82019e-21)
(0.95307 0.277322 -4.11711e-21)
(0.932737 0.309754 -2.09734e-19)
(0.891487 0.368904 0)
(0.944035 0.552286 -2.53959e-20)
(0.983468 -0.0189534 3.41968e-22)
(1.02867 -0.0379854 9.76594e-21)
(1.04314 0.0775966 8.24371e-22)
(1.0356 0.216777 -3.37522e-20)
(1.01634 0.273561 -1.07906e-20)
(0.979742 0.297665 -6.26996e-20)
(0.958531 0.282385 4.69629e-21)
(0.946488 0.323735 5.20423e-21)
(0.911718 0.381403 -2.09127e-21)
(1.01862 0.591914 7.57008e-19)
(0.981559 -0.0214471 -6.15007e-21)
(1.02987 -0.0426607 1.25098e-20)
(1.04544 0.0800801 3.43248e-21)
(1.03763 0.226037 1.60991e-20)
(1.02022 0.282154 -4.53144e-20)
(0.985375 0.306296 1.41155e-20)
(0.966666 0.286307 -3.03598e-21)
(0.960537 0.337142 2.54834e-20)
(0.937081 0.388381 1.33362e-19)
(1.10514 0.636533 -3.321e-20)
(0.980204 -0.0238127 2.42783e-21)
(1.02924 -0.0470814 -7.33162e-21)
(1.0469 0.0831816 6.32869e-23)
(1.04051 0.235498 2.81208e-20)
(1.02649 0.290058 4.47918e-21)
(0.993265 0.313735 2.29206e-20)
(0.978679 0.289255 -4.81931e-20)
(0.975786 0.348769 6.45194e-20)
(0.972079 0.38725 2.67538e-19)
(1.17148 0.657493 -6.36745e-19)
(0.979896 -0.0259374 6.21594e-21)
(1.02607 -0.0509536 -1.7609e-20)
(1.0474 0.087807 4.13039e-22)
(1.04479 0.246134 -1.00412e-20)
(1.03591 0.297417 4.96461e-20)
(1.00435 0.319873 -3.08228e-20)
(0.995864 0.291777 -1.61806e-20)
(0.9966 0.359439 3.52192e-20)
(1.01544 0.400612 -1.39383e-19)
(1.28056 0.711578 3.53179e-19)
(0.981107 -0.0280231 -1.5834e-21)
(1.01796 -0.0566481 2.17097e-21)
(1.04699 0.0853215 -2.51873e-21)
(1.05378 0.252714 -2.9008e-20)
(1.05682 0.302487 -2.98637e-20)
(1.02925 0.328553 -4.29403e-20)
(1.03206 0.288848 1.53925e-20)
(1.04203 0.368197 -1.3845e-19)
(1.06358 0.344665 -4.78511e-19)
(1.28538 0.701648 -1.258e-19)
(0.984313 -0.0291032 -9.58808e-21)
(1.00282 -0.0635448 -1.94808e-21)
(1.04258 0.0697476 1.27372e-21)
(1.06394 0.250288 5.65228e-21)
(1.10903 0.299361 1.3797e-20)
(1.0829 0.336321 6.0482e-20)
(1.14993 0.275999 1.58293e-20)
(1.13907 0.36838 1.04815e-19)
(1.22319 0.308033 1.97728e-19)
(1.28473 0.598852 2.59184e-19)
(0.987597 -0.0283944 -1.87815e-21)
(0.987718 -0.06801 -2.1925e-21)
(1.03905 0.0499563 2.14584e-21)
(1.06562 0.236665 4.79126e-21)
(1.21002 0.286034 4.29455e-35)
(1.13357 0.328096 -7.9086e-21)
(1.36247 0.255849 -4.43708e-34)
(1.23655 0.356249 1.6446e-20)
(1.47642 0.28867 -4.23495e-20)
(1.36726 0.511402 -2.09688e-19)
(0.99032 -0.0256314 1.9456e-20)
(0.9777 -0.0706375 -2.09055e-35)
(1.03456 0.0280563 -2.31906e-21)
(1.05859 0.199319 2.61832e-23)
(1.32913 0.262196 -1.29885e-20)
(1.1729 0.296814 5.57147e-21)
(1.57522 0.224506 -5.30895e-34)
(1.33971 0.337775 -4.38037e-20)
(1.69009 0.26269 -1.01625e-19)
(1.5508 0.437209 2.32944e-19)
(0.992081 -0.0222411 0)
(0.978068 -0.0713024 -8.25712e-35)
(1.02677 0.00598196 0)
(1.06309 0.13807 0)
(1.39432 0.22983 0)
(1.24104 0.249228 0)
(1.67423 0.183631 -3.33259e-34)
(1.46357 0.313653 0)
(1.79836 0.223323 -1.6432e-20)
(1.73824 0.371645 1.39053e-19)
(0.992312 -0.0209373 2.561e-21)
(0.991978 -0.0708469 -7.45269e-21)
(1.02572 -0.0171616 -3.28388e-21)
(1.08075 0.068141 0)
(1.39277 0.188717 0)
(1.32752 0.194854 6.64207e-21)
(1.67394 0.141636 2.92722e-20)
(1.585 0.280133 -1.20183e-20)
(1.83335 0.1834 -2.51532e-20)
(1.8645 0.307692 9.67851e-20)
(0.99015 -0.0236917 -6.41519e-20)
(1.01928 -0.0710263 7.01352e-21)
(1.03343 -0.0422875 -4.59196e-21)
(1.09716 0.00504477 -2.40042e-20)
(1.33161 0.134775 -2.09518e-20)
(1.3835 0.137013 6.12747e-21)
(1.6048 0.0991593 -2.93608e-20)
(1.64752 0.235763 -1.60479e-20)
(1.81149 0.1456 -3.21621e-20)
(1.92687 0.242395 1.08633e-19)
(0.984917 -0.0291997 -4.8401e-21)
(1.04238 -0.070484 -1.0898e-20)
(1.02733 -0.0595125 -5.62797e-21)
(1.08578 -0.0311626 -4.76697e-21)
(1.19279 0.0808901 -5.54681e-35)
(1.37742 0.0803736 7.0952e-21)
(1.43193 0.0604066 -8.80006e-34)
(1.61249 0.185412 -1.08268e-20)
(1.70764 0.104718 1.67722e-20)
(1.91391 0.17368 2.27504e-20)
(0.966797 -0.0485943 1.33e-19)
(1.04496 -0.0705568 -3.2385e-21)
(0.961168 -0.0702767 -6.4386e-21)
(0.965197 -0.0436242 9.33401e-21)
(0.95116 0.0266837 9.06966e-21)
(1.19632 0.0274464 9.13406e-21)
(1.07784 0.0362319 1.38103e-20)
(1.40601 0.103141 -2.72733e-20)
(1.43085 0.0529628 -2.92499e-20)
(1.71249 0.0917291 7.61775e-20)
(0.871831 -0.0319691 6.34645e-21)
(0.857458 -0.0527965 -5.03895e-35)
(0.609132 -0.0490386 -6.81446e-21)
(0.506455 -0.0194795 0)
(0.470084 0.00367728 0)
(0.592001 0.00868345 7.3549e-21)
(0.522875 0.0155191 -6.69581e-36)
(0.783768 0.0290627 -9.91398e-21)
(0.798892 0.0153688 -2.56635e-20)
(1.01731 0.0328603 -3.79437e-20)
(1.48335 0.720369 1.47604e-19)
(1.58573 0.703699 -5.12321e-20)
(1.70395 0.678662 -3.18824e-21)
(1.81932 0.643156 5.3632e-20)
(1.9264 0.602755 -2.19183e-19)
(2.02438 0.554496 -4.12058e-19)
(2.1097 0.504627 -1.94242e-19)