/*--------------------------------*- C++ -*----------------------------------*\
| =========                 |                                                 |
| \\      /  F ield         | OpenFOAM: The Open Source CFD Toolbox           |
|  \\    /   O peration     | Version:  2406                                  |
|   \\  /    A nd           | Website:  www.openfoam.com                      |
|    \\/     M anipulation  |                                                 |
\*---------------------------------------------------------------------------*/
FoamFile
{
    version     2.0;
    format      ascii;
    arch        "LSB;label=32;scalar=64";
    class       volScalarField;
    location    "0.15";
    object      nu;
}
// * * * * * * * * * * * * * * * * * * * * * * * * * * * * * * * * * * * * * //

dimensions      [0 2 -1 0 0 0 0];

internalField   nonuniform List<scalar> 
1800
(
0.020569
0.0102076
0.00999841
0.0106859
0.0107697
0.0105308
0.0103808
0.0100156
0.00979092
0.00876838
0.0130314
0.00921438
0.00940568
0.0102843
0.0107888
0.0108832
0.0107712
0.00994921
0.00926554
0.00781752
0.0106422
0.00862449
0.00914273
0.0103238
0.0111806
0.0114887
0.011429
0.0103613
0.00914367
0.00813366
0.00929508
0.00824232
0.00896331
0.0103944
0.0115083
0.0118983
0.011724
0.0103339
0.00890508
0.00796097
0.00846247
0.00797767
0.00885206
0.0105074
0.011825
0.0122289
0.0119071
0.0102643
0.0087374
0.00799144
0.00789114
0.00778751
0.00878266
0.0106234
0.0121021
0.0125214
0.0120437
0.0101655
0.00860821
0.0078962
0.00747415
0.00764972
0.00875286
0.0107661
0.012391
0.0127942
0.0121023
0.0100461
0.00851894
0.00786898
0.0071616
0.00755124
0.00875617
0.0109556
0.0128082
0.0132209
0.0121499
0.0098656
0.00840768
0.00782329
0.00692431
0.00748669
0.00880534
0.0112718
0.0135576
0.0139624
0.012182
0.0096567
0.00830557
0.00782787
0.00674591
0.00745235
0.00890003
0.0117542
0.0148166
0.0150356
0.0121031
0.00943098
0.00822759
0.00787868
0.0140922
0.273812
0.0374569
0.0250053
0.0253312
0.0254975
0.0239436
0.0209835
0.0175676
0.0149532
0.0139072
0.07681
0.0272157
0.0228387
0.0245702
0.0250436
0.0232661
0.0199794
0.0164952
0.0140521
0.01369
0.0405649
0.0218981
0.0209925
0.0233845
0.0241317
0.022379
0.0189772
0.0155307
0.0132735
0.0135344
0.0293409
0.0190812
0.0196925
0.0224527
0.0233035
0.0215615
0.018081
0.0146827
0.012583
0.0135173
0.023625
0.0171906
0.0186549
0.0216947
0.0226651
0.0209864
0.0174335
0.0140316
0.0120517
0.0136938
0.0202042
0.0158552
0.0179197
0.0212672
0.0224325
0.0208431
0.0171283
0.0135635
0.0116007
0.0141854
0.0177692
0.0148104
0.0174226
0.0212883
0.0231394
0.0218429
0.0174849
0.0133125
0.0112548
0.0153851
0.0156171
0.0137772
0.0166016
0.0200943
0.0229954
0.0243596
0.0194679
0.0136324
0.0112196
0.0186436
0.0135747
0.0124866
0.0145851
0.0159284
0.0172816
0.0211027
0.0235459
0.0148625
0.0112302
0.0308898
0.0118343
0.0112005
0.0124294
0.0125367
0.0122786
0.0127372
0.0140086
0.0128447
0.0117708
0.0140969
0.0140507
0.018036
0.0232048
0.0297077
0.0384742
0.0463256
0.0543713
0.0569722
0.075264
0.0138034
0.0143198
0.0179313
0.0233673
0.0302287
0.0403932
0.0502307
0.0600326
0.0619051
0.0815558
0.0135091
0.0148514
0.0179307
0.0237207
0.0306831
0.0424565
0.0541909
0.0667933
0.0679158
0.0891999
0.013255
0.0157189
0.0180032
0.0239483
0.0307924
0.0430963
0.0551999
0.0680507
0.070225
0.0870576
0.0130758
0.0164312
0.0176842
0.0228192
0.0285794
0.0379443
0.0465106
0.0543193
0.0569595
0.0632838
0.0126773
0.0155264
0.0160287
0.0193518
0.0229989
0.0277125
0.0316307
0.0346243
0.0358563
0.0373597
0.0122211
0.0133819
0.0135644
0.0153936
0.0175191
0.019855
0.0218416
0.0233472
0.0240799
0.0248032
0.0112365
0.0117132
0.0115713
0.0124811
0.0135331
0.0146038
0.015557
0.0163309
0.0168958
0.0173385
0.0104209
0.0105857
0.0108594
0.0115563
0.0122899
0.0129721
0.0135618
0.0140304
0.014325
0.0146999
0.00877049
0.0096017
0.0100376
0.0107357
0.0114389
0.0120388
0.0125415
0.0129573
0.0132484
0.0136533
0.00979462
0.0104804
0.0104619
0.0109513
0.0115901
0.0121695
0.0126795
0.0131112
0.0133969
0.0138526
0.0130794
0.0112628
0.0113492
0.011976
0.0127986
0.0135185
0.0141362
0.0146608
0.0149885
0.0154751
0.00998099
0.01145
0.0118728
0.0129264
0.0143039
0.0155514
0.0166642
0.0176175
0.0183286
0.0189268
0.0126236
0.0123906
0.0129169
0.014502
0.0170852
0.0197633
0.0224174
0.0250624
0.0269971
0.0294221
0.0127671
0.0126349
0.0135182
0.015511
0.0192806
0.0241045
0.0303029
0.0387988
0.0516294
0.077949
0.0162099
0.0134744
0.014489
0.0167708
0.020895
0.0253856
0.029732
0.0327384
0.0359698
0.034518
0.013952
0.0122085
0.0130376
0.0141563
0.0152384
0.0159118
0.0164103
0.0166488
0.0168977
0.0166072
0.00962828
0.00964437
0.0101011
0.0105411
0.0109128
0.0111718
0.0113823
0.0115151
0.0116254
0.0116094
0.00773001
0.00814106
0.00849936
0.00882093
0.00907228
0.00924511
0.00937864
0.00946713
0.00952911
0.00956658
0.00710629
0.00757472
0.00788971
0.00819355
0.00835729
0.00844987
0.00851455
0.00855384
0.00857951
0.00862278
0.00826988
0.00814034
0.00807868
0.00808084
0.00807758
0.00812648
0.00808685
0.00807051
0.00794736
0.00797735
0.0101198
0.00989758
0.00965196
0.00937488
0.00915235
0.00902506
0.00892133
0.00907911
0.00912176
0.0092958
0.0163818
0.0206703
0.0213633
0.01737
0.0145045
0.0126877
0.0115284
0.0108864
0.0100158
0.0099406
0.0147338
0.0167
0.0190377
0.0196098
0.016954
0.0152206
0.0129636
0.0124812
0.0114248
0.0113431
0.0155826
0.0156969
0.0156628
0.0155221
0.014462
0.0140093
0.0128037
0.0131156
0.0121964
0.0125997
0.0166119
0.0162931
0.01574
0.0153732
0.0145708
0.0145066
0.013663
0.0143529
0.0135606
0.0141487
0.0132726
0.0131096
0.0129611
0.0129982
0.0129367
0.0134341
0.0131472
0.0144833
0.0136192
0.0151711
0.00917555
0.00915167
0.00916382
0.0092378
0.00933858
0.00957242
0.00965936
0.0100981
0.01013
0.0105016
0.00724486
0.00724501
0.00726064
0.00729297
0.0073438
0.00740719
0.00748538
0.00757575
0.00765563
0.00767947
0.0064429
0.00646007
0.0064845
0.00651529
0.00655398
0.00659557
0.0066488
0.00668949
0.00676639
0.00680942
0.00756319
0.00891385
0.0108454
0.0120975
0.0118787
0.0121144
0.0134706
0.013997
0.00979995
0.00714992
0.00776121
0.00809996
0.00881323
0.00993297
0.0106925
0.0109632
0.0113907
0.0112567
0.00908115
0.00696475
0.0079859
0.00811528
0.00863506
0.00966229
0.0105979
0.0108832
0.0109994
0.0104379
0.00856517
0.00677496
0.00819928
0.0082394
0.00868834
0.00974969
0.01089
0.0112458
0.0111674
0.0101529
0.00822214
0.00662598
0.00832708
0.00831997
0.00876376
0.00997038
0.0114707
0.0119955
0.0116622
0.0100133
0.00797419
0.00652514
0.00836537
0.00833768
0.0088366
0.0102947
0.0124125
0.0132961
0.0124078
0.0098871
0.00778837
0.00646843
0.00834819
0.00831724
0.00891365
0.0106976
0.0137519
0.0153025
0.0131464
0.0097036
0.00764705
0.00645207
0.00825791
0.00828218
0.00900978
0.0111277
0.0153005
0.0176954
0.0134592
0.00947887
0.0075446
0.00647105
0.00812053
0.00824311
0.00911912
0.0115028
0.0162066
0.0182756
0.0131407
0.00925342
0.00747853
0.0065239
0.00799026
0.00821142
0.00923757
0.0118197
0.0159767
0.0166131
0.0124327
0.00905192
0.00744823
0.00661414
0.0151217
0.0158374
0.0165672
0.0167821
0.0165228
0.0161566
0.0159112
0.0156842
0.0142158
0.00973118
0.0146556
0.0153482
0.0162875
0.016638
0.0163843
0.0160211
0.0158044
0.0154295
0.0133134
0.00906023
0.0141408
0.014819
0.0159925
0.0165165
0.0162859
0.0159384
0.0157581
0.015221
0.0125666
0.00857006
0.0135772
0.0142663
0.015689
0.0164313
0.0162593
0.0159523
0.0158122
0.0150685
0.0119477
0.00819743
0.0130433
0.0137476
0.0154282
0.0164715
0.0163987
0.0161414
0.0160217
0.0149772
0.011435
0.00790893
0.0127897
0.0134614
0.0153633
0.0166729
0.0167269
0.016571
0.0164626
0.0149761
0.0110206
0.00768564
0.0115867
0.0124636
0.0146396
0.0167086
0.0173403
0.0173776
0.0171554
0.0149597
0.0106611
0.0075124
0.012182
0.0126272
0.0153628
0.0186822
0.0196088
0.0193322
0.0185775
0.0152262
0.0104166
0.00738851
0.00985896
0.010417
0.0122977
0.0161662
0.021035
0.0215243
0.0194867
0.0148684
0.0100868
0.00728114
0.0128113
0.0169096
0.0200446
0.0222522
0.0215329
0.0232055
0.0284207
0.0171091
0.0100527
0.00722659
0.0150881
0.0258684
0.0238593
0.0774692
0.073136
0.0394055
0.0278137
0.02057
0.0145764
0.0136815
0.0148805
0.02518
0.0233752
0.0638693
0.091957
0.0434284
0.0292255
0.0205186
0.0147854
0.0135205
0.0146545
0.0246034
0.0227449
0.0527982
0.103227
0.0483729
0.0313484
0.0206002
0.0151773
0.0133664
0.0143866
0.0241018
0.0220188
0.0468581
0.126247
0.0533059
0.0343974
0.0211183
0.015894
0.0131942
0.0140943
0.0237344
0.0216066
0.0490612
0.233004
0.0539636
0.036217
0.0218058
0.016543
0.0132332
0.0138602
0.0245203
0.0229031
0.0651178
0.103968
0.0417171
0.0304568
0.0204348
0.0166427
0.0126145
0.0135756
0.0280436
0.025176
0.0607969
0.0361711
0.0274646
0.023405
0.0188376
0.0155949
0.0132036
0.0133931
0.0336198
0.0232824
0.0227549
0.0187543
0.0170243
0.0158003
0.013986
0.0131627
0.0114356
0.0132115
0.0244353
0.0186625
0.0166151
0.0150006
0.0141171
0.0134579
0.0125092
0.0122525
0.0111976
0.0132267
0.0185123
0.0162402
0.0148695
0.0135144
0.0127066
0.0121253
0.0113232
0.0107913
0.0114027
0.013213
0.0165682
0.0161871
0.0144487
0.0131866
0.0123582
0.0116298
0.0108691
0.0101882
0.0100359
0.0131935
0.0155201
0.0178372
0.0152799
0.0139933
0.0130479
0.0121157
0.0114341
0.0101671
0.0119127
0.0133639
0.0142403
0.0222991
0.0175639
0.0159015
0.0145616
0.0134894
0.0118898
0.011994
0.0112175
0.0137653
0.0134032
0.0266363
0.0218216
0.0196792
0.0176685
0.015749
0.0133574
0.0132244
0.012061
0.0143275
0.0129816
0.0249646
0.0249172
0.0234965
0.0209695
0.0179958
0.0143049
0.0148453
0.0120719
0.0150661
0.0128455
0.0220096
0.0245488
0.024473
0.0234947
0.0191667
0.0162332
0.0142488
0.0125202
0.0163302
0.0130334
0.0169335
0.0170765
0.0165507
0.0165538
0.0155246
0.0155692
0.0128455
0.0125123
0.017412
0.0127871
0.0121314
0.0119057
0.011549
0.011405
0.0111998
0.0110158
0.0104903
0.0101403
0.0148731
0.0111154
0.00980852
0.00973738
0.00948432
0.00932404
0.00916937
0.00886732
0.00871503
0.00823261
0.00870313
0.00802666
0.00902436
0.00866955
0.00847854
0.00829376
0.00811073
0.00778748
0.00758995
0.00713668
0.00864003
0.00954886
0.00986492
0.00992773
0.00975998
0.00945982
0.00921621
0.00898285
0.00871858
0.00847721
0.0122481
0.0123905
0.012634
0.0124213
0.0117576
0.0110778
0.0106519
0.0104902
0.0104438
0.0103027
0.0109166
0.0109903
0.0114177
0.0120575
0.0125147
0.0125362
0.0123459
0.0124116
0.0128287
0.0137636
0.0127032
0.0127777
0.0132948
0.0143446
0.0152057
0.0147771
0.0139527
0.0134508
0.0134212
0.0137597
0.0127888
0.0130469
0.0139389
0.0156853
0.0169586
0.0164718
0.0157343
0.0153295
0.0152628
0.0154552
0.0138787
0.014688
0.0163795
0.0180949
0.0172085
0.0162325
0.0160246
0.0162158
0.0165073
0.0166983
0.0127061
0.0132597
0.0140548
0.0135176
0.0126249
0.0124735
0.0127766
0.0131493
0.0133904
0.0134153
0.00989658
0.00989578
0.00983116
0.00950508
0.00923501
0.0091828
0.00924259
0.00928459
0.00926945
0.00922539
0.0080564
0.00792097
0.00779235
0.00764713
0.0075113
0.00741833
0.00736024
0.00731712
0.00728184
0.00725684
0.00695
0.00682129
0.00672224
0.00663769
0.00655726
0.00649418
0.00645537
0.0064357
0.00642925
0.00643207
0.00643936
0.00708854
0.0085113
0.0134964
0.223226
0.0187031
0.01162
0.0096781
0.00874128
0.00817813
0.00652212
0.00707815
0.00833179
0.0119714
0.030511
0.0178346
0.0119907
0.00986344
0.00883578
0.00825147
0.00664483
0.00710802
0.00822076
0.0109148
0.01645
0.0155562
0.0122463
0.0103112
0.0092401
0.00860807
0.00681311
0.00718455
0.00816679
0.0101879
0.0128655
0.0132781
0.0120984
0.0109109
0.0100356
0.00939497
0.00702744
0.00731984
0.00820673
0.00979403
0.0113334
0.0116852
0.0114149
0.0111058
0.0109099
0.0107296
0.00729082
0.00752451
0.00834616
0.00963862
0.0105906
0.0107912
0.0107914
0.0109429
0.0114472
0.0123628
0.00760403
0.00781119
0.00859972
0.00968787
0.0102995
0.010381
0.0104376
0.0107476
0.0115945
0.0132019
0.0079747
0.00819755
0.00897869
0.00990915
0.0102962
0.0103068
0.0103881
0.0107728
0.0117634
0.0133745
0.00841139
0.00870484
0.0095008
0.0102848
0.0104951
0.0104509
0.0105293
0.0108883
0.0117702
0.0123794
0.00894877
0.00939478
0.0102625
0.0108945
0.0108688
0.0106787
0.0106576
0.0108472
0.0114474
0.0120547
0.0095589
0.0102949
0.0114381
0.0121269
0.0119702
0.0117155
0.0118501
0.012515
0.0132217
0.0151359
0.0102101
0.011322
0.0127988
0.0136497
0.013553
0.0134917
0.0141565
0.0157989
0.0165923
0.015688
0.0109516
0.0125775
0.0144524
0.015419
0.0153553
0.0154455
0.0163182
0.0177717
0.0176215
0.0159149
0.0117536
0.0141379
0.0165045
0.0174894
0.0173497
0.017391
0.018031
0.0188125
0.0180937
0.0161532
0.0125541
0.0161434
0.0191562
0.0199304
0.0194729
0.0192274
0.0194544
0.0196996
0.0187762
0.0168473
0.013278
0.0188538
0.0228426
0.0229726
0.0218585
0.0211757
0.0209868
0.0207975
0.0196433
0.0175473
0.0138453
0.0226687
0.0283278
0.0267634
0.0244372
0.023188
0.022555
0.0218556
0.0202842
0.0179061
0.0142092
0.0285352
0.0371868
0.0307228
0.0265336
0.0247999
0.0237486
0.0224221
0.0202592
0.0176088
0.0143694
0.038279
0.0495226
0.0324092
0.0271385
0.0255937
0.0243182
0.0223687
0.0196219
0.0168439
0.0144402
0.06252
0.0524362
0.0298119
0.0262779
0.0256838
0.0243302
0.0218323
0.0186524
0.0159041
0.0135498
0.017626
0.0226813
0.0332357
0.0359073
0.0395334
0.0433821
0.0529202
0.0607987
0.0896616
0.0136172
0.019582
0.0240119
0.0324285
0.0342512
0.0383442
0.0422142
0.0517284
0.0622227
0.102476
0.013434
0.02023
0.0245563
0.0332697
0.0333258
0.0367159
0.0405448
0.0485963
0.0585547
0.0980124
0.0138498
0.0198868
0.0237925
0.0300395
0.0299766
0.0330457
0.036791
0.0438342
0.0529839
0.0864318
0.0140554
0.0183069
0.022517
0.0272393
0.028273
0.0311162
0.034866
0.0406781
0.0485049
0.0735644
0.0143929
0.0164492
0.0207193
0.0249296
0.0273719
0.0304907
0.0345236
0.0399004
0.0465227
0.0660668
0.0146409
0.0150834
0.0197847
0.0239568
0.0275576
0.0313455
0.0358025
0.0412109
0.0469117
0.0640243
0.0145852
0.0142828
0.0191319
0.0233299
0.0280925
0.0326577
0.0378745
0.0435082
0.0485644
0.0651623
0.014461
0.0140329
0.0186891
0.0230812
0.0286918
0.0343193
0.0402903
0.04643
0.0509061
0.0676087
0.0143196
0.0139686
0.0183093
0.0230986
0.0292419
0.0363305
0.043044
0.0499537
0.0535208
0.0709399
0.00903753
0.0106949
0.0109199
0.0110514
0.0107254
0.0104489
0.0102421
0.0100618
0.010011
0.00999191
0.010025
0.0116369
0.0120746
0.0121993
0.0119819
0.0117263
0.0115256
0.0113441
0.0112928
0.0111689
0.0134713
0.0148974
0.0168783
0.0162632
0.0155227
0.015001
0.0146523
0.0143424
0.0141976
0.013909
0.0207598
0.0205502
0.0461057
0.0337919
0.026319
0.0242115
0.0231845
0.0223865
0.021623
0.0207911
0.0148904
0.0171537
0.0297502
0.0498537
0.0406131
0.0394801
0.039832
0.0417213
0.0403104
0.0414367
0.00709195
0.00720411
0.00731784
0.00739182
0.00743889
0.00747986
0.0075704
0.00769689
0.00791143
0.00820422
0.00732289
0.00739763
0.00751088
0.00761498
0.00776377
0.00796246
0.00825292
0.00865247
0.00899495
0.00951511
0.00753087
0.00759147
0.00775341
0.00799714
0.00842731
0.00910492
0.010108
0.0116145
0.0125933
0.0166109
0.00771379
0.00777619
0.00801162
0.00846357
0.00934785
0.0110674
0.0144083
0.0213285
0.027011
0.0219654
0.00788641
0.00796883
0.00830181
0.00898772
0.0102919
0.0126081
0.0155177
0.0196493
0.0173821
0.014207
0.0129913
0.01394
0.0154562
0.0152063
0.01423
0.0137083
0.0135233
0.012703
0.0109191
0.00897784
0.0141016
0.0152759
0.0168731
0.016813
0.0157153
0.0148218
0.0142802
0.0133352
0.0117048
0.00974794
0.0143013
0.0151894
0.0163214
0.0164554
0.015964
0.0154115
0.014933
0.0140799
0.0127299
0.0108675
0.0145403
0.0155673
0.0165077
0.0165933
0.0162678
0.015849
0.0153974
0.014695
0.0138934
0.0125978
0.0150296
0.015975
0.0166666
0.0166719
0.0163906
0.0160322
0.0156331
0.015173
0.015291
0.0161483
0.0154937
0.0163707
0.0168739
0.0168123
0.0165024
0.0161049
0.0157014
0.0155296
0.0170627
0.0250638
0.0157066
0.0165418
0.016955
0.0168869
0.016571
0.0161565
0.0157827
0.0159922
0.0185527
0.0223929
0.0157666
0.0165831
0.0169879
0.0169588
0.0166698
0.0162813
0.0159863
0.0163197
0.0180243
0.0151846
0.0156966
0.0164818
0.0169358
0.016966
0.0167003
0.016339
0.0160834
0.0162436
0.0166176
0.0122498
0.0154624
0.0162144
0.0167803
0.016893
0.0166387
0.0162819
0.0160279
0.0159706
0.0153019
0.0107023
0.00835759
0.00898312
0.00989784
0.0113575
0.0146824
0.0263467
0.0128733
0.0086845
0.0071454
0.00639646
0.00886044
0.00963714
0.0104742
0.0114788
0.0128059
0.0144642
0.0123136
0.00889177
0.0072408
0.00638673
0.00990501
0.0109435
0.0114312
0.0115909
0.0118415
0.0122348
0.011519
0.00905904
0.00737288
0.00641649
0.0120759
0.013156
0.012458
0.0116109
0.011223
0.0112135
0.0109131
0.00921788
0.00754535
0.0064898
0.0163338
0.0153856
0.0129784
0.0115638
0.0109177
0.0107377
0.0105805
0.00938605
0.00776565
0.00661339
0.020126
0.0162145
0.0131122
0.0115892
0.0108645
0.0106025
0.0104781
0.00958405
0.00803589
0.00678958
0.0219052
0.0159168
0.0130346
0.0117036
0.0109837
0.0106697
0.010543
0.00983414
0.00837037
0.00703051
0.0162055
0.0131892
0.0123523
0.0116951
0.0111578
0.0108631
0.0107429
0.0101604
0.00878179
0.00734718
0.012001
0.0114933
0.0114921
0.0114545
0.0112345
0.011069
0.0110427
0.0106084
0.00931078
0.00776763
0.0100855
0.0109265
0.0116226
0.0118364
0.0116928
0.0116488
0.0117916
0.0114498
0.0100517
0.00832305
0.0195674
0.0279465
0.0220109
0.0308592
0.0303178
0.0287045
0.0301326
0.0233519
0.0199716
0.0139481
0.0185218
0.0277021
0.0218927
0.0318282
0.0305316
0.0282381
0.0290423
0.0238066
0.0213366
0.0135963
0.0177503
0.0288595
0.0225586
0.0364351
0.0323787
0.0290096
0.029655
0.0248526
0.0216273
0.0135385
0.0172167
0.0296487
0.0233141
0.0401429
0.0328886
0.0282582
0.027814
0.0240806
0.020928
0.0139223
0.0167737
0.0298278
0.023839
0.0427072
0.0330867
0.0279072
0.0264859
0.0231605
0.0191086
0.0140544
0.016398
0.0295596
0.0242742
0.0459411
0.0337983
0.0281538
0.0252792
0.0220951
0.0169094
0.0141948
0.0160651
0.0289104
0.0245895
0.052026
0.0364302
0.0295121
0.025018
0.0217319
0.0156541
0.0141106
0.01577
0.0281408
0.0246728
0.0623384
0.0407597
0.0315059
0.0251658
0.0211904
0.0149641
0.0139625
0.0155165
0.0273704
0.0245307
0.0769282
0.0472658
0.0337197
0.0256558
0.0208466
0.0146542
0.0138976
0.0152958
0.0266085
0.0242412
0.0856961
0.0573265
0.0362647
0.0266047
0.020702
0.0145355
0.0138087
0.00790499
0.00774916
0.00985363
0.00948542
0.00974182
0.0100948
0.0104013
0.0103119
0.0102373
0.00887315
0.0124443
0.0111964
0.0101644
0.0109419
0.0110188
0.0114051
0.011819
0.0119017
0.0120758
0.0106172
0.0161074
0.0167056
0.0128815
0.0137669
0.0138364
0.0144514
0.015359
0.0165947
0.0162018
0.0144313
0.01851
0.0308423
0.0197016
0.0213448
0.0211626
0.0225254
0.0269301
0.0459152
0.0251471
0.0168652
0.0202351
0.0330102
0.0239744
0.0315952
0.0308979
0.0308598
0.0384732
0.0329898
0.0206512
0.0135888
0.00832741
0.00788488
0.00752026
0.00724507
0.00704146
0.00691117
0.00685547
0.00685625
0.00690431
0.00698425
0.00982021
0.00914089
0.00860425
0.00817374
0.00781028
0.00754663
0.00737132
0.00727367
0.0072453
0.00726772
0.0131433
0.0119196
0.0108818
0.0100227
0.0091425
0.00847688
0.00801578
0.00772552
0.00757584
0.00752379
0.0206194
0.0182813
0.0167005
0.0147739
0.0122625
0.0101986
0.00895349
0.00827188
0.0079197
0.00775901
0.0133793
0.0209249
0.0756557
0.0256307
0.0177335
0.0131571
0.0104094
0.00903542
0.00833565
0.00799633
)
;

boundaryField
{
    left
    {
        type            calculated;
        value           nonuniform List<scalar> 
35
(
0.00987801
0.0104125
0.0111203
0.0118109
0.0122791
0.0124455
0.012282
0.011483
0.010264
0.00817048
0.00987856
0.00980795
0.00973746
0.00966684
0.0096022
0.00956006
0.00950916
0.00950078
0.00951256
0.00963144
0.0111703
0.0109575
0.0107735
0.0106122
0.0104658
0.0103352
0.010219
0.0101183
0.0100296
0.00995146
0.00766163
0.00992768
0.0107727
0.0111614
0.0113259
)
;
    }
    right
    {
        type            calculated;
        value           nonuniform List<scalar> 
35
(
0.00999307
0.0111712
0.0139314
0.0209245
0.0435057
0.120982
0.15284
0.149969
0.126888
0.0992908
0.0854696
0.0826173
0.0856514
0.0913156
0.0993237
0.110504
0.128402
0.154901
0.149646
0.0860508
0.0421886
0.0262303
0.0177964
0.0149463
0.0138453
0.0140413
0.0157522
0.0193996
0.0311312
0.0989168
0.0333136
0.0165332
0.0116035
0.0095669
0.00862312
)
;
    }
    down
    {
        type            calculated;
        value           nonuniform List<scalar> 
40
(
0.00692313
0.00696027
0.0103875
0.0089804
0.00931925
0.00967964
0.00996724
0.00982444
0.00968964
0.00836435
0.00787751
0.0074993
0.0071805
0.00694846
0.00677859
0.00667685
0.00664966
0.00667536
0.0067463
0.00684689
0.00697893
0.00711515
0.00724566
0.00733703
0.0073731
0.0073768
0.00741155
0.00747008
0.00764247
0.00794546
0.00888253
0.0107291
0.0107626
0.0108647
0.0104157
0.0100943
0.00986581
0.00967207
0.00961879
0.00964955
)
;
    }
    up
    {
        type            calculated;
        value           nonuniform List<scalar> 
40
(
0.00698862
0.00745876
0.00775391
0.00806057
0.00817591
0.0082247
0.00825679
0.00827335
0.00828637
0.00832578
0.00622161
0.00624508
0.00627426
0.00630769
0.00634671
0.00638737
0.00643483
0.00647984
0.00653505
0.00660712
0.00657689
0.00646705
0.00639131
0.00632403
0.00625842
0.00621144
0.00618914
0.00618427
0.00619042
0.0062034
0.00755564
0.00722337
0.00897491
0.00832046
0.00813639
0.00794028
0.00774626
0.00742331
0.00720407
0.00676589
)
;
    }
    cylinder
    {
        type            calculated;
        value           nonuniform List<scalar> 
80
(
0.0106162
0.0105288
0.0103532
0.0101638
0.0100515
0.0100449
0.0101884
0.0105724
0.0113864
0.0127532
0.0144322
0.020749
0.0256782
0.0131845
0.00997352
0.00852358
0.00769208
0.0071591
0.00679536
0.00654013
0.00655688
0.00642864
0.00629303
0.00618783
0.00612246
0.00609571
0.00610584
0.00615088
0.00623273
0.00635855
0.0084727
0.00796443
0.00759413
0.00731297
0.00709559
0.00692777
0.00679946
0.00670972
0.00663779
0.00660659
0.00832291
0.0090283
0.0100926
0.0118773
0.0162312
0.0299497
0.0191746
0.012767
0.0104158
0.00921471
0.00617182
0.00613049
0.00613015
0.00617397
0.00626681
0.00640962
0.00661234
0.00688479
0.00725191
0.00774111
0.0062485
0.00637013
0.00654142
0.00676804
0.00704519
0.00736599
0.00771624
0.00809018
0.00848654
0.00894078
0.0094179
0.00990135
0.0104386
0.0109667
0.0113945
0.0116533
0.0117225
0.0116163
0.0113795
0.0111079
)
;
    }
    defaultFaces
    {
        type            empty;
    }
}


// ************************************************************************* //
