/*--------------------------------*- C++ -*----------------------------------*\
| =========                 |                                                 |
| \\      /  F ield         | OpenFOAM: The Open Source CFD Toolbox           |
|  \\    /   O peration     | Version:  2406                                  |
|   \\  /    A nd           | Website:  www.openfoam.com                      |
|    \\/     M anipulation  |                                                 |
\*---------------------------------------------------------------------------*/
FoamFile
{
    version     2.0;
    format      ascii;
    arch        "LSB;label=32;scalar=64";
    class       volScalarField;
    location    "0.15";
    object      p;
}
// * * * * * * * * * * * * * * * * * * * * * * * * * * * * * * * * * * * * * //

dimensions      [0 2 -2 0 0 0 0];

internalField   nonuniform List<scalar> 
1800
(
-1.89167
-1.88125
-1.87672
-1.86965
-1.86448
-1.86312
-1.86577
-1.87181
-1.87982
-1.8887
-2.02604
-2.01281
-2.00518
-1.99619
-1.98831
-1.98301
-1.9805
-1.98019
-1.98121
-1.98279
-2.16238
-2.15131
-2.14294
-2.13408
-2.12688
-2.12297
-2.1227
-2.12532
-2.12856
-2.13026
-2.29372
-2.28423
-2.27692
-2.26902
-2.26322
-2.26169
-2.26497
-2.27204
-2.27966
-2.28478
-2.41412
-2.40621
-2.39996
-2.39311
-2.38903
-2.39046
-2.39806
-2.41054
-2.42379
-2.43335
-2.51678
-2.50951
-2.50345
-2.49667
-2.49331
-2.49643
-2.5067
-2.52241
-2.53878
-2.55001
-2.59439
-2.58713
-2.58027
-2.57248
-2.56856
-2.57184
-2.58286
-2.59942
-2.61622
-2.6264
-2.64166
-2.63378
-2.62513
-2.6151
-2.60902
-2.61035
-2.61938
-2.63334
-2.64666
-2.65214
-2.65525
-2.64636
-2.63516
-2.62198
-2.61257
-2.61035
-2.61511
-2.62353
-2.63024
-2.62842
-2.634
-2.62378
-2.60966
-2.59297
-2.57968
-2.57281
-2.57153
-2.57221
-2.5701
-2.55913
-0.696656
-0.698676
-0.695017
-0.687137
-0.676796
-0.664587
-0.651228
-0.636754
-0.620751
-0.601859
-0.785058
-0.785036
-0.777478
-0.770394
-0.760574
-0.748908
-0.736118
-0.722242
-0.706745
-0.687923
-0.884235
-0.882656
-0.875009
-0.867521
-0.857987
-0.846906
-0.834892
-0.821942
-0.807382
-0.789103
-0.992283
-0.989965
-0.983437
-0.97614
-0.967293
-0.957227
-0.946521
-0.935085
-0.922095
-0.905009
-1.10992
-1.10739
-1.10161
-1.09533
-1.08735
-1.07863
-1.06969
-1.06036
-1.04964
-1.03449
-1.23525
-1.23255
-1.2279
-1.2226
-1.21604
-1.20918
-1.20265
-1.19629
-1.18888
-1.17673
-1.36608
-1.36365
-1.36008
-1.35604
-1.35101
-1.34614
-1.34225
-1.33949
-1.33646
-1.32821
-1.4991
-1.49723
-1.4947
-1.49178
-1.48848
-1.48598
-1.48471
-1.48566
-1.48808
-1.4846
-1.63011
-1.62933
-1.62714
-1.62453
-1.62321
-1.62424
-1.62682
-1.63122
-1.63709
-1.63446
-1.75756
-1.75543
-1.75278
-1.74751
-1.74464
-1.74593
-1.7506
-1.75787
-1.76433
-1.76007
-0.472707
-0.282277
-0.17582
-0.0911018
-0.0446906
-0.0121912
0.00311475
0.011987
0.0134527
0.00212263
-0.536655
-0.307511
-0.180925
-0.088478
-0.0391091
-0.00663572
0.00768417
0.0151763
0.0154248
0.0028548
-0.614515
-0.337572
-0.187098
-0.0857418
-0.0332734
-0.000665954
0.0126165
0.0186256
0.0175082
0.00362391
-0.708203
-0.371641
-0.194246
-0.0827819
-0.0269129
0.00588151
0.0181285
0.0225477
0.0197883
0.00446134
-0.818401
-0.409195
-0.20176
-0.0789606
-0.0195975
0.0133512
0.0245203
0.0272281
0.022478
0.00557191
-0.946933
-0.452677
-0.209457
-0.0736852
-0.0109152
0.0218753
0.0317411
0.0326398
0.0257351
0.00713898
-1.0934
-0.511982
-0.221351
-0.0689655
-0.00188876
0.0305499
0.039109
0.0382255
0.0293204
0.00904286
-1.25031
-0.587046
-0.240255
-0.0675456
0.00513229
0.0375743
0.0452428
0.042966
0.0326333
0.0109545
-1.40952
-0.685697
-0.273238
-0.0736869
0.00768587
0.0414949
0.049266
0.0462743
0.0351531
0.0125409
-1.55097
-0.796754
-0.31879
-0.089024
0.00299562
0.0394696
0.0488224
0.0464496
0.0357949
0.0134137
-1.6436
-0.813807
-0.320536
-0.0886744
0.00418574
0.0384872
0.0475851
0.0450279
0.0349526
0.0134398
-1.5095
-0.820353
-0.348662
-0.112027
-0.014082
0.0231976
0.035731
0.0361979
0.0291944
0.0115254
-1.46061
-0.808702
-0.373396
-0.143904
-0.0405695
0.001813
0.0199669
0.0252209
0.0221737
0.00895667
-1.29103
-0.769772
-0.39976
-0.180111
-0.0710385
-0.0219365
0.00297467
0.0137989
0.0149072
0.00623264
-1.20448
-0.748823
-0.430255
-0.222617
-0.105486
-0.0474025
-0.0147924
0.00222021
0.00833452
0.00399426
-1.0933
-0.720434
-0.458258
-0.264624
-0.140629
-0.0734869
-0.0335427
-0.0107274
0.000216056
0.000766345
-1.00129
-0.708909
-0.491767
-0.308618
-0.177683
-0.100576
-0.0530143
-0.0242606
-0.00812308
-0.00203391
-0.924669
-0.707953
-0.522596
-0.345226
-0.208191
-0.121533
-0.0671667
-0.0334262
-0.0134286
-0.00372049
-0.864271
-0.707235
-0.539967
-0.365437
-0.225798
-0.133145
-0.0746306
-0.0381471
-0.0159676
-0.00441511
-0.879867
-0.733572
-0.558713
-0.379257
-0.238103
-0.141682
-0.0802046
-0.0416838
-0.0182984
-0.00541621
-2.50606
-2.58643
-2.62177
-2.61131
-2.55345
-2.45547
-2.31574
-2.18262
-2.02444
-1.95414
-2.31813
-2.40284
-2.44926
-2.46273
-2.43979
-2.377
-2.27046
-2.13506
-1.9723
-1.86161
-2.07871
-2.15248
-2.20216
-2.22871
-2.21688
-2.17424
-2.08583
-1.98154
-1.86004
-1.77706
-1.86169
-1.92846
-1.97249
-1.9928
-1.98079
-1.94693
-1.872
-1.79194
-1.69797
-1.62491
-1.68381
-1.74065
-1.77787
-1.79287
-1.77911
-1.74436
-1.67866
-1.61516
-1.54457
-1.48284
-1.53914
-1.58812
-1.61956
-1.63071
-1.61508
-1.58102
-1.52791
-1.47741
-1.41706
-1.35533
-1.42085
-1.46554
-1.49328
-1.50124
-1.48593
-1.45427
-1.40956
-1.36022
-1.30209
-1.23656
-1.33069
-1.37372
-1.39939
-1.40514
-1.39082
-1.3596
-1.31674
-1.26153
-1.20112
-1.12839
-1.27843
-1.3185
-1.34236
-1.34664
-1.33225
-1.30019
-1.25404
-1.19161
-1.1258
-1.04337
-1.26381
-1.30554
-1.32677
-1.33024
-1.31603
-1.2851
-1.2376
-1.17856
-1.1037
-1.0219
-1.09381
-1.12842
-1.1471
-1.15545
-1.16388
-1.17571
-1.18966
-1.19992
-1.20466
-1.20403
-1.28238
-1.31177
-1.32331
-1.32709
-1.33267
-1.34178
-1.35392
-1.36506
-1.3712
-1.36926
-1.44386
-1.46633
-1.47815
-1.48559
-1.49449
-1.50561
-1.51872
-1.53169
-1.54062
-1.5402
-1.5858
-1.60947
-1.62604
-1.63965
-1.65412
-1.66954
-1.68577
-1.70161
-1.71394
-1.71663
-1.72908
-1.75722
-1.77864
-1.79723
-1.81622
-1.83549
-1.85482
-1.87348
-1.88898
-1.89501
-1.87824
-1.91059
-1.93484
-1.95618
-1.97781
-1.99961
-2.02114
-2.04189
-2.06001
-2.06869
-2.03109
-2.06548
-2.0895
-2.11106
-2.13308
-2.15562
-2.1781
-2.20005
-2.21956
-2.2302
-2.18475
-2.21655
-2.23734
-2.25668
-2.27638
-2.29723
-2.3191
-2.34146
-2.36092
-2.37286
-2.32582
-2.35396
-2.37213
-2.38669
-2.40127
-2.41811
-2.43802
-2.45968
-2.47827
-2.4903
-2.45507
-2.4754
-2.48636
-2.49375
-2.50173
-2.51356
-2.53044
-2.55013
-2.56687
-2.57827
0.217914
0.204222
0.191509
0.180349
0.170886
0.162912
0.156254
0.151347
0.150301
0.157448
0.146501
0.131424
0.117268
0.104702
0.0939825
0.0848422
0.0771251
0.0714954
0.0700192
0.076303
0.0617067
0.0453225
0.0296627
0.0156046
0.0035664
-0.00678929
-0.0156234
-0.0220815
-0.0241872
-0.0189441
-0.0364326
-0.0542339
-0.0715573
-0.0872254
-0.100658
-0.112278
-0.122259
-0.129607
-0.132485
-0.128425
-0.147643
-0.16695
-0.186131
-0.203572
-0.218516
-0.231453
-0.242584
-0.250851
-0.254634
-0.251924
-0.276319
-0.297058
-0.317241
-0.335586
-0.351372
-0.365086
-0.376904
-0.385765
-0.39033
-0.388998
-0.411686
-0.433606
-0.456397
-0.477238
-0.495026
-0.51011
-0.522815
-0.532399
-0.537946
-0.538176
-0.594678
-0.614795
-0.631582
-0.646923
-0.66074
-0.672989
-0.683726
-0.692136
-0.697497
-0.698612
-0.729788
-0.750886
-0.775845
-0.798334
-0.816949
-0.832061
-0.844383
-0.854498
-0.861611
-0.864096
-1.02102
-1.02587
-1.02399
-1.0188
-1.01842
-1.02307
-1.02878
-1.03303
-1.03685
-1.03878
0.943667
0.38581
0.791792
0.606245
0.552035
0.543184
0.511888
0.486338
0.429595
0.293526
0.93885
0.380513
0.786686
0.601505
0.550996
0.540835
0.507418
0.475905
0.40714
0.241535
0.935352
0.374051
0.782015
0.595864
0.549585
0.538542
0.502069
0.462896
0.379894
0.178454
0.933357
0.366069
0.777532
0.589572
0.548806
0.536763
0.496427
0.448008
0.348819
0.105003
0.933044
0.356185
0.772778
0.583133
0.548917
0.535061
0.490639
0.431998
0.312535
0.0214958
0.934604
0.34418
0.767857
0.579142
0.548578
0.532172
0.484669
0.416302
0.274722
-0.0718577
0.938353
0.330113
0.76362
0.578476
0.54666
0.52891
0.478561
0.398607
0.224644
-0.179215
0.945038
0.313412
0.759498
0.57808
0.545251
0.527747
0.474549
0.381841
0.18299
-0.296827
0.956169
0.294699
0.754643
0.577998
0.544716
0.52654
0.468966
0.360489
0.125136
-0.4425
0.972367
0.277476
0.751734
0.580719
0.5457
0.526425
0.464351
0.337604
0.0698928
-0.594674
1.0013
0.266431
0.749511
0.591716
0.545008
0.521618
0.454986
0.313362
0.0434472
-0.78678
1.04635
0.269296
0.750224
0.608147
0.542191
0.510357
0.439421
0.275035
0.0384057
-0.762861
1.08532
0.282386
0.757349
0.619543
0.535039
0.492211
0.412325
0.240205
0.0349646
-0.704271
1.11137
0.299706
0.765999
0.624643
0.524623
0.469546
0.381862
0.202359
0.0307093
-0.628263
1.12424
0.315436
0.770983
0.623
0.512553
0.446562
0.349651
0.172064
0.0203744
-0.557484
1.12497
0.32671
0.769773
0.614922
0.501174
0.426356
0.32054
0.149097
0.00270971
-0.471324
1.1152
0.333617
0.761152
0.59998
0.491142
0.410614
0.296369
0.133988
-0.0208137
-0.392039
1.10697
0.341771
0.747816
0.579957
0.482829
0.398804
0.277448
0.125721
-0.0459253
-0.325797
1.09505
0.350901
0.734762
0.558979
0.476538
0.389829
0.264081
0.119002
-0.0639541
-0.28837
1.13586
0.387079
0.740101
0.547388
0.47631
0.388475
0.263867
0.122802
-0.0621083
-0.268271
-1.11207
-1.28001
-1.4362
-1.56956
-1.70133
-1.83511
-1.96723
-2.10566
-2.25155
-2.39036
-1.11434
-1.22981
-1.3435
-1.46485
-1.59284
-1.71723
-1.83356
-1.94927
-2.07452
-2.20321
-1.05086
-1.1378
-1.23475
-1.34982
-1.46927
-1.5811
-1.68145
-1.77547
-1.87502
-1.98173
-1.00631
-1.09584
-1.17572
-1.26927
-1.3661
-1.45664
-1.53953
-1.61875
-1.69926
-1.78172
-0.922848
-1.00916
-1.0817
-1.16415
-1.2468
-1.32286
-1.39642
-1.47056
-1.54422
-1.61647
-0.821562
-0.917186
-0.993806
-1.06918
-1.14041
-1.20576
-1.27208
-1.34229
-1.41271
-1.47927
-0.713286
-0.822639
-0.90731
-0.969068
-1.02537
-1.08609
-1.15336
-1.22523
-1.29709
-1.36353
-0.628684
-0.745794
-0.828419
-0.864158
-0.900315
-0.963623
-1.04329
-1.12517
-1.20329
-1.273
-0.593881
-0.709571
-0.780815
-0.804621
-0.834029
-0.896813
-0.980717
-1.06788
-1.14981
-1.22131
-0.54841
-0.644513
-0.714927
-0.763841
-0.811737
-0.876965
-0.959413
-1.04785
-1.13198
-1.20536
-0.60391
-0.590125
-0.563527
-0.528705
-0.493177
-0.461469
-0.435019
-0.415972
-0.403065
-0.395086
-0.642011
-0.627588
-0.600674
-0.564289
-0.531963
-0.502464
-0.476144
-0.45629
-0.442803
-0.434607
-0.653947
-0.639349
-0.613454
-0.577812
-0.543629
-0.513748
-0.489315
-0.471587
-0.459898
-0.453292
-0.642178
-0.627421
-0.602916
-0.569266
-0.535631
-0.506626
-0.483671
-0.467374
-0.457067
-0.451459
-0.612021
-0.597257
-0.574127
-0.54273
-0.511171
-0.484069
-0.462594
-0.446918
-0.436719
-0.431188
-0.571075
-0.55638
-0.534682
-0.505871
-0.477136
-0.452738
-0.433577
-0.419292
-0.409379
-0.403537
-0.52745
-0.513024
-0.493057
-0.467442
-0.442358
-0.421513
-0.405618
-0.394016
-0.385761
-0.380411
-0.488314
-0.474401
-0.456609
-0.434864
-0.414235
-0.397727
-0.385843
-0.377893
-0.372893
-0.369744
-0.457681
-0.444465
-0.428893
-0.410891
-0.394407
-0.381617
-0.372761
-0.367158
-0.364419
-0.364094
-0.437852
-0.425762
-0.412522
-0.398102
-0.385531
-0.37623
-0.370302
-0.367153
-0.366239
-0.368404
-0.42718
-0.416742
-0.405887
-0.394631
-0.385253
-0.378509
-0.374242
-0.372275
-0.370501
-0.363059
-0.42434
-0.415352
-0.406715
-0.398369
-0.391802
-0.387164
-0.383908
-0.382048
-0.380698
-0.373948
-0.426555
-0.41843
-0.410944
-0.403946
-0.398243
-0.393521
-0.389111
-0.38517
-0.381729
-0.374832
-0.433228
-0.425616
-0.418598
-0.411981
-0.406134
-0.400491
-0.394513
-0.38856
-0.382932
-0.374584
-0.445204
-0.437866
-0.430967
-0.424315
-0.417962
-0.411185
-0.403616
-0.395691
-0.387673
-0.377259
-0.463841
-0.45657
-0.449674
-0.442905
-0.435996
-0.428091
-0.419009
-0.409224
-0.398971
-0.386581
-0.49039
-0.483406
-0.476496
-0.469725
-0.462322
-0.453324
-0.442812
-0.431328
-0.419068
-0.404812
-0.526178
-0.519899
-0.512933
-0.506404
-0.498523
-0.488416
-0.476587
-0.46364
-0.449675
-0.433703
-0.573465
-0.566796
-0.56029
-0.554156
-0.545737
-0.534649
-0.521848
-0.507891
-0.492709
-0.475328
-0.633787
-0.626905
-0.620317
-0.613698
-0.604635
-0.592963
-0.579715
-0.565291
-0.549446
-0.53108
-0.33632
-0.245889
-0.209027
-0.14799
-0.103443
-0.0645006
-0.0368782
-0.0170142
-0.00688882
-0.00380357
-0.325238
-0.237895
-0.199502
-0.139484
-0.0963861
-0.0588906
-0.0329499
-0.0147099
-0.00574492
-0.00417271
-0.313396
-0.23568
-0.195682
-0.131937
-0.0895743
-0.0530566
-0.0286067
-0.0116194
-0.00354274
-0.00372365
-0.307924
-0.234973
-0.189115
-0.123893
-0.082724
-0.0470846
-0.0241355
-0.00825704
-0.000903461
-0.00270711
-0.309345
-0.234089
-0.182453
-0.115665
-0.0761099
-0.0412658
-0.019848
-0.00497996
0.00172652
-0.00158965
-0.31721
-0.233259
-0.176049
-0.10848
-0.0701192
-0.0359651
-0.0159461
-0.0020077
0.00402995
-0.000725806
-0.330322
-0.232648
-0.171651
-0.102959
-0.064783
-0.0311473
-0.0123144
0.000742797
0.00602691
-0.000112405
-0.35053
-0.236857
-0.16969
-0.0990231
-0.0598301
-0.026625
-0.00872815
0.0034226
0.00788577
0.000393382
-0.380354
-0.246913
-0.170156
-0.0961859
-0.0549626
-0.0221157
-0.00501207
0.0061573
0.00972764
0.00091057
-0.420916
-0.262114
-0.172177
-0.0936558
-0.0499681
-0.017355
-0.00109414
0.008988
0.011574
0.00148612
-0.337027
-0.256294
-0.220033
-0.153247
-0.105994
-0.0663989
-0.0377505
-0.0163161
-0.00595065
-0.00254786
-0.326253
-0.249834
-0.218467
-0.15324
-0.106222
-0.0666338
-0.0380336
-0.0165082
-0.00575367
-0.00237954
-0.327146
-0.246031
-0.215193
-0.152596
-0.106176
-0.0665797
-0.0378364
-0.0161929
-0.00536767
-0.00224488
-0.326152
-0.240589
-0.20922
-0.15351
-0.107866
-0.0677327
-0.038729
-0.0169414
-0.00578178
-0.00196645
-0.334638
-0.241416
-0.206872
-0.151759
-0.107579
-0.0677735
-0.0390113
-0.0177602
-0.00673523
-0.00286382
-0.38863
-0.424676
-0.446469
-0.450036
-0.438227
-0.417728
-0.395739
-0.376717
-0.362508
-0.352463
-0.387704
-0.424958
-0.446879
-0.450143
-0.437759
-0.416181
-0.391977
-0.371328
-0.356772
-0.340667
-0.388448
-0.426228
-0.447986
-0.450523
-0.436862
-0.414126
-0.389858
-0.371306
-0.357286
-0.346011
-0.38985
-0.428316
-0.449466
-0.450626
-0.434672
-0.409706
-0.384914
-0.368966
-0.357748
-0.357966
-0.391925
-0.431093
-0.451121
-0.450311
-0.431187
-0.403363
-0.378127
-0.364387
-0.357669
-0.370116
0.297697
0.297246
0.296817
0.297463
0.298124
0.297585
0.296265
0.295739
0.297817
0.306658
0.347169
0.345108
0.339586
0.335334
0.332823
0.330713
0.328776
0.327854
0.329504
0.337723
0.370696
0.367022
0.361138
0.356518
0.353622
0.351512
0.349906
0.349275
0.350981
0.359142
0.387756
0.383621
0.37738
0.372151
0.368496
0.36586
0.364021
0.363115
0.364317
0.372312
0.39464
0.389658
0.38322
0.377763
0.373775
0.370945
0.369106
0.368143
0.368947
0.376496
0.391859
0.385845
0.379069
0.37335
0.369093
0.366172
0.364513
0.363813
0.364117
0.368214
0.379016
0.371739
0.364282
0.357962
0.353073
0.349554
0.347208
0.345462
0.344963
0.349727
0.355753
0.346946
0.338429
0.331133
0.325239
0.320656
0.317081
0.314056
0.313098
0.320319
0.321802
0.311314
0.30147
0.292972
0.285928
0.280216
0.275558
0.271811
0.270926
0.278858
0.276198
0.264044
0.252764
0.242952
0.234707
0.227866
0.222214
0.217916
0.217074
0.224845
-0.335754
-0.345857
-0.360306
-0.379922
-0.404605
-0.432447
-0.46675
-0.500655
-0.527496
-0.540409
-0.261746
-0.273763
-0.28867
-0.306945
-0.32946
-0.356458
-0.387202
-0.418049
-0.443675
-0.454655
-0.174555
-0.188623
-0.203528
-0.219723
-0.239236
-0.26337
-0.29076
-0.318363
-0.341197
-0.349975
-0.0854962
-0.1001
-0.113131
-0.12605
-0.142023
-0.162642
-0.186776
-0.210961
-0.230336
-0.236017
-0.00132607
-0.0147564
-0.0248017
-0.0344028
-0.0470188
-0.0639796
-0.0842423
-0.104522
-0.120114
-0.122403
0.0723043
0.0617435
0.0549235
0.048375
0.039161
0.0261547
0.0101867
-0.00577075
-0.0173005
-0.0161793
0.135484
0.127839
0.123161
0.11909
0.113197
0.104176
0.0925414
0.0808943
0.0732922
0.0774494
0.188835
0.184513
0.180116
0.177341
0.174284
0.168843
0.161135
0.153454
0.149454
0.156194
0.234143
0.227619
0.22505
0.225018
0.224465
0.221703
0.21696
0.212384
0.211269
0.219832
0.283568
0.276458
0.272167
0.270623
0.269156
0.266304
0.262449
0.259571
0.260241
0.269412
1.04176
0.419732
0.851858
0.594262
0.551095
0.537292
0.502986
0.481434
0.42592
0.360946
1.02864
0.415615
0.846815
0.601187
0.552437
0.53941
0.506563
0.48658
0.435322
0.373921
1.01598
0.412318
0.840648
0.606913
0.554036
0.541515
0.510118
0.49316
0.450269
0.387749
1.00412
0.409212
0.833915
0.611054
0.555139
0.543144
0.512847
0.497066
0.459436
0.398082
0.993023
0.406066
0.826965
0.613406
0.555408
0.544299
0.514666
0.499542
0.465797
0.405036
0.982671
0.402955
0.820177
0.614431
0.555246
0.545345
0.516197
0.50138
0.468096
0.406098
0.973098
0.399918
0.81386
0.614497
0.554858
0.546161
0.517298
0.502556
0.468274
0.399867
0.964346
0.39691
0.808073
0.613839
0.554299
0.546614
0.517734
0.502246
0.465326
0.386495
0.956481
0.393755
0.802629
0.612409
0.55354
0.546341
0.517071
0.499513
0.458687
0.365171
0.949573
0.390161
0.79721
0.609915
0.55276
0.54514
0.515117
0.494173
0.446777
0.334514
1.14449
0.453744
0.833773
0.571667
0.546314
0.522931
0.484935
0.459596
0.396891
0.338773
1.11036
0.447403
0.837127
0.574769
0.546183
0.524705
0.48596
0.459958
0.394128
0.329077
1.09162
0.440287
0.841667
0.578571
0.546382
0.527029
0.487977
0.46262
0.395485
0.327696
1.07333
0.433237
0.847218
0.584805
0.548474
0.531575
0.49447
0.467046
0.39932
0.325724
1.05617
0.425647
0.851798
0.58877
0.550037
0.534738
0.498558
0.469793
0.40869
0.32845
0.265246
0.239064
0.200865
0.145603
0.0736902
-0.00892037
-0.0953441
-0.181315
-0.263507
-0.33185
0.251515
0.228506
0.196555
0.145736
0.0769881
-0.003628
-0.0896952
-0.176447
-0.260137
-0.330176
0.253233
0.227801
0.196279
0.148822
0.0812066
0.00173277
-0.0843272
-0.17226
-0.257687
-0.329523
0.260787
0.225661
0.189577
0.146212
0.0820064
0.00550778
-0.0800448
-0.169142
-0.256281
-0.329856
0.281928
0.233784
0.183786
0.138175
0.0782833
0.00631066
-0.077645
-0.167348
-0.255957
-0.331146
)
;

boundaryField
{
    left
    {
        type            zeroGradient;
    }
    right
    {
        type            fixedValue;
        value           uniform 0;
    }
    down
    {
        type            zeroGradient;
    }
    up
    {
        type            zeroGradient;
    }
    cylinder
    {
        type            zeroGradient;
    }
    defaultFaces
    {
        type            empty;
    }
}


// ************************************************************************* //
