/*--------------------------------*- C++ -*----------------------------------*\
| =========                 |                                                 |
| \\      /  F ield         | OpenFOAM: The Open Source CFD Toolbox           |
|  \\    /   O peration     | Version:  2406                                  |
|   \\  /    A nd           | Website:  www.openfoam.com                      |
|    \\/     M anipulation  |                                                 |
\*---------------------------------------------------------------------------*/
FoamFile
{
    version     2.0;
    format      ascii;
    arch        "LSB;label=32;scalar=64";
    class       surfaceScalarField;
    location    "0.15";
    object      phi;
}
// * * * * * * * * * * * * * * * * * * * * * * * * * * * * * * * * * * * * * //

dimensions      [0 3 -1 0 0 0 0];

oriented        oriented;

internalField   nonuniform List<scalar> 
3485
(
0.000950004
0.00148414
-0.00243414
0.00560812
-0.00726673
0.00260861
0.0126439
-0.0183698
0.011334
0.0213761
-0.025624
0.0168918
0.0313677
-0.029686
0.0196944
0.0425399
-0.0319334
0.0207612
0.0550085
-0.0338358
0.0213672
0.0687821
-0.0367581
0.0229845
0.0845951
-0.0433202
0.0275072
-0.0512045
0.0339794
0.10182
0.00107669
0.00040745
0.00619536
-0.0123854
0.0136369
-0.0258113
0.0223582
-0.0343453
0.0317598
-0.0390876
0.041691
-0.0418646
0.0522813
-0.0444261
0.0639808
-0.0484576
0.0772512
-0.0565906
-0.068328
0.0943748
0.00154027
-0.00113282
0.00702017
-0.0178653
0.0145211
-0.0333122
0.0229107
-0.042735
0.0316634
-0.0478403
0.0406846
-0.0508858
0.0501018
-0.0538433
0.0603402
-0.058696
0.0720158
-0.0682661
-0.0832528
0.0869406
0.0021991
-0.00333193
0.00788992
-0.0235561
0.0152362
-0.0406585
0.0231786
-0.0506774
0.0313145
-0.0559762
0.0396234
-0.0591948
0.0482414
-0.0624613
0.0575493
-0.0680039
0.0682018
-0.0789186
-0.0960418
0.0809908
0.00278072
-0.00611264
0.00868415
-0.0294596
0.0158829
-0.0478572
0.0234652
-0.0582597
0.031181
-0.0636919
0.0390932
-0.067107
0.0473476
-0.0707157
0.0562767
-0.076933
0.0664294
-0.0890713
-0.107805
0.0781922
0.00328688
-0.00939952
0.00936467
-0.0355373
0.0164067
-0.0548992
0.0236604
-0.0655134
0.0309949
-0.0710265
0.0385026
-0.0746148
0.0462981
-0.0785111
0.0546511
-0.085286
0.0639469
-0.0983672
-0.118208
0.0743504
0.00366
-0.0130595
0.00977172
-0.0416491
0.0165524
-0.0616799
0.0234243
-0.0723854
0.030367
-0.0779692
0.0375086
-0.0817563
0.0449587
-0.0859612
0.0529792
-0.0933064
0.0618737
-0.107262
-0.127921
0.0715869
0.00389141
-0.0169509
0.00987925
-0.0476369
0.0162451
-0.0680457
0.0225636
-0.0787039
0.0288879
-0.0842934
0.035378
-0.0882465
0.0421678
-0.092751
0.0495816
-0.10072
0.0579149
-0.115595
-0.136983
0.0669767
0.00389217
-0.0208431
0.00947357
-0.0532183
0.0151491
-0.0737212
0.0206158
-0.0841706
0.0259722
-0.0896498
0.0314363
-0.0937106
0.037251
-0.0985657
0.0438887
-0.107358
0.0515608
-0.123267
-0.14514
0.0597174
0.00371308
-0.0245562
0.00864858
-0.0581538
0.0133529
-0.0784255
0.0176476
-0.0884654
0.0216836
-0.0936858
0.0257383
-0.0977653
0.0301515
-0.102979
0.0354667
-0.112673
0.041702
-0.129502
0.0479663
-0.151404
-0.000386043
0.00434611
-0.00396007
-0.000458645
0.0047145
-0.0046419
-0.000132181
0.00449039
-0.00481685
0.000745602
0.00327124
-0.00414902
0.00185034
0.0021718
-0.00327654
0.00308575
0.00125393
-0.00248933
0.00446533
0.000266299
-0.00164588
0.0060661
-0.00106796
-0.000532812
0.00803542
-0.00307926
0.00110995
-0.00612397
0.0105885
0.00357084
-0.000112473
0.00445859
-0.000272372
0.0048744
0.000139347
0.00407867
0.000995592
0.00241499
0.00207556
0.00109183
0.00330518
2.43107e-05
0.00469267
-0.00112119
0.00631285
-0.00268815
0.00832514
-0.00509155
-0.00875833
0.0109595
-0.000239183
0.00469777
-0.000350386
0.00498561
0.000244737
0.00348355
0.00123543
0.0014243
0.00241036
-8.31037e-05
0.0037198
-0.00128512
0.00517464
-0.00257603
0.00685287
-0.00436638
0.00892734
-0.00716601
-0.011481
0.01165
-0.000200761
0.00489853
-0.000177382
0.00496223
0.000532209
0.00277396
0.00163174
0.000324769
0.00291376
-0.00136513
0.00432475
-0.00269611
0.00587099
-0.00412226
0.00762509
-0.00612049
0.0097699
-0.00931081
-0.0143039
0.0125928
-8.73989e-05
0.00498593
8.43143e-05
0.00479051
0.000941445
0.00191683
0.00217046
-0.000904246
0.00357409
-0.00276875
0.00509629
-0.00421832
0.00673348
-0.00575944
0.00853372
-0.00792072
0.01067
-0.0114471
-0.0170903
0.0134563
8.26232e-05
0.00490331
0.000456782
0.00441635
0.00154214
0.000831473
0.00295269
-0.0023148
0.00449639
-0.00431245
0.00613521
-0.00585714
0.00786875
-0.00749299
0.00971175
-0.00976372
0.0118288
-0.0135641
-0.0198953
0.0146338
0.00031958
0.00458373
0.00103783
0.00369811
0.00252454
-0.000655238
0.00428167
-0.00407194
0.00605961
-0.00609038
0.00781939
-0.00761693
0.00961968
-0.00929328
0.0114851
-0.0116291
0.0134986
-0.0155777
-0.0225873
0.0161906
0.000614431
0.00396929
0.00186188
0.00245066
0.00410661
-0.00289997
0.00666191
-0.00662723
0.00913599
-0.00856446
0.0113128
-0.00979377
0.013299
-0.0112794
0.0152859
-0.0136161
0.0172749
-0.0175666
-0.0250639
0.0197515
0.000841332
0.00312796
0.00280551
0.000486473
0.00627616
-0.00637062
0.0104006
-0.0107517
0.0146866
-0.0128504
0.0185479
-0.0136551
0.0216619
-0.0143935
0.0244046
-0.0163588
0.0274233
-0.0205853
-0.0289391
0.0312985
0.00069382
0.00378891
0.00875231
0.0148924
0.0217365
0.0288426
0.0358164
0.0424421
0.049364
0.0544044
0.0579969
-0.230923
0.183514
0.108552
-0.274917
0.224362
0.134865
-0.213934
0.187621
0.150755
-0.166642
0.150753
0.158419
-0.124635
0.116971
0.161961
-0.0925333
0.0889913
0.162612
-0.0660378
0.0653869
0.161635
-0.0438396
0.0448164
0.159866
-0.0260094
0.0277785
-0.00859308
0.0106413
0.0568586
-0.276822
0.105506
-0.323565
0.13259
-0.241018
0.149107
-0.183159
0.157637
-0.133165
0.161746
-0.0966426
0.16286
-0.067151
0.16222
-0.0431997
0.16068
-0.0244699
-0.00670951
0.0541427
-0.319314
0.100024
-0.369446
0.12832
-0.269314
0.145608
-0.200448
0.155386
-0.142943
0.160347
-0.101604
0.162234
-0.0690373
0.162198
-0.0431642
0.161121
-0.0233929
-0.00516329
0.0508382
-0.35756
0.0922797
-0.410887
0.122217
-0.299251
0.140577
-0.218808
0.151772
-0.154138
0.157864
-0.107697
0.16079
-0.0719627
0.161605
-0.0439797
0.161256
-0.0230432
-0.00410464
0.0467169
-0.39082
0.0838932
-0.448064
0.114782
-0.33014
0.13453
-0.238556
0.147262
-0.16687
0.154728
-0.115162
0.158904
-0.076139
0.160816
-0.0458913
0.161436
-0.0236629
-0.00366665
0.0441283
-0.420315
0.0778647
-0.4818
0.108743
-0.361018
0.129591
-0.259404
0.14355
-0.180829
0.15227
-0.123882
0.15769
-0.0815592
0.16085
-0.0490514
0.162633
-0.025446
-0.00401907
0.0436121
-0.447736
0.0771633
-0.515351
0.108076
-0.391931
0.129423
-0.280751
0.143959
-0.195364
0.153458
-0.133381
0.159828
-0.0879292
0.164158
-0.0533821
0.167098
-0.0283856
-0.00533104
0.0459354
-0.47392
0.0824492
-0.551865
0.114323
-0.423804
0.135538
-0.301967
0.150026
-0.209853
0.15991
-0.143265
0.166961
-0.0949796
0.172231
-0.0586525
0.176138
-0.0322922
-0.00779165
0.0594456
-0.502067
0.0974682
-0.589888
0.132161
-0.458497
0.154109
-0.323915
0.168591
-0.224335
0.178487
-0.153161
0.185726
-0.102219
0.191209
-0.0641352
0.195757
-0.0368404
-0.0115272
0.0602585
-0.507922
0.105433
-0.635062
0.141872
-0.494935
0.166428
-0.348471
0.183096
-0.241004
0.194923
-0.164987
0.203907
-0.111203
0.211147
-0.0713744
0.217381
-0.0430747
-0.0169212
0.472785
-0.629732
-0.350975
0.458664
-0.620941
0.44384
-0.480111
0.429541
-0.334172
0.416637
-0.2281
0.407275
-0.155625
0.40045
-0.104378
0.39673
-0.0676543
0.395096
-0.0414406
-0.0170629
0.503816
-0.615973
-0.517574
0.522246
-0.639371
0.511442
-0.469307
0.493221
-0.315951
0.476688
-0.211567
0.464159
-0.143096
0.45525
-0.0954688
0.45024
-0.0626447
0.447247
-0.0384475
-0.0159335
0.656613
-0.571509
-0.701077
0.610462
-0.593221
0.580107
-0.438952
0.552951
-0.288795
0.530404
-0.18902
0.51347
-0.126162
0.501553
-0.0835515
0.493681
-0.0547727
0.489145
-0.0339118
-0.0146664
0.727284
-0.496015
-0.802777
0.667893
-0.53383
0.622362
-0.393421
0.585376
-0.251809
0.557308
-0.160953
0.537187
-0.106041
0.52337
-0.0697347
0.51429
-0.0456932
0.509231
-0.0288528
-0.0132113
0.792169
-0.431899
-0.856285
0.713606
-0.455268
0.65068
-0.330494
0.604694
-0.205824
0.571768
-0.128027
0.548893
-0.0831652
0.533346
-0.0541884
0.522925
-0.0352715
0.517039
-0.0229672
-0.0115341
0.82291
-0.376699
-0.878109
0.736021
-0.368379
0.661292
-0.255766
0.608438
-0.15297
0.572042
-0.0916307
0.547506
-0.0586284
0.531257
-0.0379398
0.520534
-0.0245486
0.514716
-0.0171493
-0.00982973
0.82363
-0.314437
-0.885893
0.722643
-0.267391
0.640159
-0.173282
0.585215
-0.0980261
0.549014
-0.0554297
0.525173
-0.034787
0.509585
-0.0223518
0.499406
-0.0143699
0.493191
-0.0109337
-0.00723899
0.761823
-0.212842
-0.863418
0.644373
-0.149941
0.561827
-0.0907366
0.511437
-0.047636
0.480068
-0.0240605
0.459792
-0.0145112
0.446575
-0.0091344
0.437967
-0.00576212
0.432116
-0.00508312
-0.00419987
0.569017
-0.0755326
-0.706326
0.460143
-0.0410664
0.394551
-0.025145
0.358481
-0.0115658
0.338463
-0.0040426
0.326099
-0.00214761
0.318262
-0.00129708
0.313313
-0.00081311
0.309285
-0.00105528
-0.00134039
0.208069
-0.283602
0.167003
0.141858
0.130292
0.126249
0.124101
0.122804
0.121991
0.120936
0.527162
0.0526013
-0.531797
0.517721
0.0691579
0.502232
0.0824654
0.481193
0.0926267
0.455486
0.100057
0.429497
0.104181
0.403476
0.107012
0.383227
0.10719
0.362174
0.115428
0.113019
0.665255
0.0453442
-0.657998
0.668826
0.0655867
0.666473
0.0848179
0.658388
0.100712
0.644937
0.113509
0.627468
0.12165
0.603036
0.131444
0.574784
0.135442
0.543207
0.147004
0.138652
0.720176
0.03389
-0.708722
0.72938
0.0563827
0.737236
0.0769622
0.743367
0.0945799
0.74587
0.111006
0.744575
0.122946
0.736725
0.139293
0.729719
0.142448
0.716272
0.160451
0.153847
0.726823
0.0207954
-0.713729
0.740566
0.0426396
0.754041
0.0634878
0.767309
0.0813118
0.779248
0.0990661
0.788488
0.113706
0.79684
0.130941
0.801412
0.137876
0.806482
0.155381
0.157552
0.717771
0.0107912
-0.707767
0.730305
0.0301062
0.744843
0.0489493
0.760497
0.0656576
0.776558
0.0830052
0.792268
0.0979964
0.809089
0.11412
0.824737
0.122228
0.842301
0.137818
0.143567
0.70744
0.00392202
-0.70057
0.717654
0.0198915
0.730958
0.0356458
0.746484
0.0501312
0.764045
0.065444
0.783961
0.0780804
0.80578
0.0923009
0.828809
0.0991996
0.854069
0.112557
0.119527
0.69177
-0.000554912
-0.687293
0.700305
0.011356
0.712617
0.0233342
0.728178
0.0345701
0.747333
0.0462894
0.769877
0.0555358
0.795227
0.0669512
0.823578
0.0708487
0.853149
0.0829862
0.0867833
0.646607
-0.00303717
-0.644125
0.653673
0.00428994
0.66546
0.0115474
0.681568
0.0184625
0.702423
0.0254344
0.726958
0.0310005
0.756094
0.0378157
0.787428
0.0395142
0.82234
0.0480742
0.0457054
0.510104
-0.00245974
-0.510681
0.514482
-8.82428e-05
0.52368
0.00234928
0.537535
0.00460749
0.556217
0.00675251
0.57846
0.00875751
0.605572
0.0107038
0.633688
0.011398
0.66869
0.013072
0.00806981
0.217979
-0.220439
0.217891
0.22024
0.224848
0.2316
0.240358
0.251062
0.26246
0.275532
0.0632331
0.100039
-0.0727396
-0.0905322
0.0451645
0.0778848
-0.0598162
0.0337099
0.0635559
-0.0521013
0.0260091
0.0561447
-0.0484439
0.0199425
0.0534527
-0.047386
0.0145173
0.0529779
-0.0475528
0.00944464
0.0521962
-0.0471235
0.00501098
0.0493444
-0.0449107
0.00162148
0.04204
-0.0386505
0.0238221
-0.0222006
0.0876235
0.116921
-0.104506
0.0702346
0.0952738
0.0551093
0.0786812
0.0426595
0.0685945
0.0322436
0.0638685
0.023213
0.0620086
0.0150847
0.0603244
0.00801608
0.056413
0.00263629
0.0474198
0.0264584
0.0846408
0.128479
-0.0961989
0.0712094
0.108705
0.0579863
0.0919043
0.0459462
0.0806345
0.0351443
0.0746704
0.0253899
0.071763
0.0165204
0.069194
0.00872302
0.0642104
0.00277842
0.0533644
0.0292368
0.0721805
0.137811
-0.0815122
0.0617317
0.119154
0.0512465
0.102389
0.04124
0.090641
0.0317835
0.084127
0.0229315
0.0806149
0.0147801
0.0773454
0.00761567
0.0713748
0.00226995
0.0587102
0.0315068
0.0560216
0.145605
-0.063816
0.0479856
0.12719
0.0401793
0.110196
0.0325537
0.0982666
0.0250415
0.0916391
0.0178278
0.0878286
0.0111554
0.0840179
0.00536815
0.077162
0.0013302
0.0627481
0.032837
0.0376067
0.151474
-0.0434754
0.0321524
0.132644
0.0270547
0.115293
0.0218862
0.103435
0.0165638
0.0969615
0.0113772
0.0930152
0.00660912
0.0887859
0.00262001
0.0811511
0.000246202
0.0651219
0.0330832
0.019089
0.155176
-0.0227906
0.0162488
0.135485
0.0136906
0.117852
0.0108314
0.106294
0.00769031
0.100103
0.0046193
0.0960863
0.00184092
0.0915643
-0.00027291
0.0832649
-0.00084768
0.0656967
0.0322355
0.00144955
0.156298
-0.00257188
0.00119046
0.135744
0.000876869
0.118165
0.000111185
0.10706
-0.000939062
0.101153
-0.0019346
0.0970818
-0.00272654
0.0923563
-0.00287429
0.0834127
-0.00180606
0.0646284
0.0304294
-0.0145778
0.155153
0.015723
-0.0126146
0.13378
-0.0108421
0.116393
-0.00966773
0.105886
-0.00880723
0.100292
-0.00793412
0.0962087
-0.00684649
0.0912686
-0.00519042
0.0817566
-0.00261524
0.0620533
0.0278142
-0.0292462
0.032995
-0.0249681
-0.0212485
-0.0183418
-0.0158147
-0.0132919
-0.0104886
-0.0071575
-0.00325802
0.034844
0.0240362
-0.0403198
-0.0185604
0.0298964
0.0217326
-0.0167851
0.0253375
0.0200375
-0.0154786
0.0210238
0.0190023
-0.0146886
0.0168546
0.0184796
-0.0143104
0.0127854
0.018226
-0.0141568
0.00884806
0.0178818
-0.0139445
0.00515428
0.0169726
-0.0132788
0.00194725
0.0147886
-0.0115816
0.00908767
-0.00714041
0.0354532
0.0296562
-0.0410732
0.0303974
0.0267885
0.025755
0.0246799
0.0213668
0.0233905
0.0171274
0.022719
0.0129924
0.022361
0.00899171
0.0218825
0.00523193
0.0207324
0.00196532
0.0180552
0.011053
0.035787
0.0353803
-0.0415111
0.0306514
0.031924
0.0259494
0.029382
0.0215067
0.0278332
0.0172172
0.0270085
0.0130415
0.0265367
0.0090119
0.0259121
0.00523086
0.0245134
0.00195381
0.0213323
0.0130068
0.0356755
0.0411859
-0.0414812
0.0304927
0.0371069
0.0257698
0.0341049
0.0213145
0.0322885
0.0170221
0.0313009
0.012862
0.0306968
0.00886716
0.0299069
0.00513177
0.0282488
0.00190776
0.0245563
0.0149146
0.0349259
0.0469918
-0.0407318
0.0297905
0.0422423
0.0251208
0.0387746
0.0207171
0.0366922
0.0164846
0.0355335
0.0124087
0.0347727
0.00852388
0.0337917
0.00491062
0.0318621
0.0018125
0.0276544
0.0167271
0.0326529
0.0524287
-0.0380899
0.0278607
0.0470344
0.0234964
0.0431389
0.0193406
0.040848
0.0153363
0.0395378
0.0115042
0.0386048
0.00787475
0.0374211
0.00450927
0.0352276
0.00164609
0.0305176
0.0183732
0.0316925
0.0588822
-0.038146
0.0264341
0.0522929
0.0219243
0.0476487
0.0178144
0.0449579
0.013979
0.0433732
0.0104078
0.0421761
0.00707688
0.040752
0.00400484
0.0382996
0.00142812
0.0330943
0.0198013
0.0232582
0.0630008
-0.0273768
0.0197223
0.0558289
0.0167477
0.0506232
0.0139404
0.0477651
0.011171
0.0461427
0.0084442
0.0449029
0.0057567
0.0434395
0.00318994
0.0408664
0.00106292
0.0352213
0.0208642
0.0263962
0.0707232
-0.0341186
0.0208018
0.0614232
0.0165416
0.0548835
0.0134394
0.0508674
0.0108547
0.0487274
0.00825852
0.047499
0.00565668
0.0460413
0.00312749
0.0433956
0.00100935
0.0373394
0.0218735
-0.00386473
0.00184836
-0.00225767
0.000524527
0.00294796
0.00428929
0.00423547
0.00315334
0.00163821
0.000327098
0.18698
0.292896
-0.281885
0.179056
0.231599
-0.223676
0.175291
0.148866
-0.145101
0.173713
0.12772
-0.126142
0.171488
0.132443
-0.130218
0.166838
0.141843
-0.137193
0.155593
0.170488
-0.159244
0.137006
0.206317
-0.18773
0.0935462
0.277671
-0.234211
0.308632
-0.255406
0.185776
0.305109
0.176992
0.240384
0.173151
0.152707
0.171211
0.12966
0.169318
0.134336
0.164474
0.146686
0.153551
0.181412
0.134716
0.225152
0.0929283
0.319459
0.360487
0.18423
0.318869
0.17423
0.250383
0.170033
0.156904
0.167577
0.132117
0.165744
0.136169
0.160502
0.151928
0.149783
0.19213
0.130294
0.244641
0.091351
0.358402
0.410327
0.18248
0.334379
0.17079
0.262072
0.165837
0.161858
0.162935
0.135018
0.161049
0.138055
0.155128
0.157849
0.144386
0.202872
0.124367
0.26466
0.0891484
0.393621
0.457994
0.180712
0.351658
0.166763
0.276021
0.160717
0.167904
0.157916
0.13782
0.155686
0.140285
0.148547
0.164988
0.137278
0.214141
0.116914
0.285025
0.0858572
0.424677
0.50312
0.179128
0.370519
0.16276
0.292389
0.155998
0.174665
0.153361
0.140457
0.149833
0.143813
0.141286
0.173535
0.128875
0.226552
0.107657
0.306243
0.0786957
0.453638
0.543726
0.178427
0.390082
0.161251
0.309565
0.154179
0.181737
0.150428
0.144209
0.145434
0.148807
0.13632
0.182648
0.123368
0.239504
0.102513
0.327098
0.0819215
0.47423
0.587501
0.18027
0.407802
0.163021
0.326814
0.156072
0.188686
0.151297
0.148984
0.144632
0.155471
0.133423
0.193857
0.117316
0.255611
0.094133
0.350282
0.0590229
0.50934
0.619147
0.185681
0.42011
0.17196
0.340535
0.168116
0.19253
0.163568
0.153532
0.156124
0.162915
0.144119
0.205862
0.12833
0.271401
0.103198
0.375413
0.0881318
0.524407
0.67316
0.195452
0.422648
0.185746
0.350241
0.183062
0.195214
0.176866
0.159728
0.166924
0.172858
0.151805
0.22098
0.130376
0.29283
0.101342
0.404447
0.0516569
0.574092
0.726666
0.34271
0.381948
0.35373
0.339221
0.360758
0.188187
0.366271
0.154214
0.370984
0.168145
0.376454
0.21551
0.384104
0.28518
0.384614
0.403937
0.409698
0.549007
0.645799
0.490565
0.368973
0.314986
0.399902
0.308291
0.41265
0.175439
0.422388
0.144476
0.431882
0.158651
0.444546
0.202846
0.457759
0.271967
0.489512
0.372183
0.507618
0.530901
0.613038
0.540379
0.383007
0.233989
0.433721
0.257577
0.45617
0.15299
0.471138
0.129509
0.485984
0.143804
0.504787
0.184044
0.528137
0.248617
0.565484
0.334836
0.59792
0.498465
0.567962
0.642997
0.386308
0.149691
0.448945
0.19494
0.479014
0.122922
0.497925
0.110598
0.516855
0.124874
0.540972
0.159927
0.570994
0.218594
0.618544
0.287286
0.665459
0.45155
0.524156
0.709264
0.383654
0.0680469
0.453477
0.125117
0.489935
0.0864645
0.511435
0.0890977
0.533321
0.102989
0.56094
0.132307
0.596692
0.182842
0.647191
0.236787
0.71346
0.385282
0.463955
0.773661
0.378209
-0.00815173
0.449949
0.0533771
0.490055
0.0463581
0.512668
0.0664844
0.536499
0.0791578
0.566628
0.102178
0.607501
0.141969
0.658804
0.185484
0.741891
0.302195
0.384239
0.821607
0.367955
-0.0740961
0.433439
-0.0121078
0.472287
0.00751039
0.494413
0.0443583
0.519149
0.0544216
0.550721
0.0706064
0.594668
0.0980221
0.647609
0.132543
0.740765
0.20904
0.283758
0.841245
0.34353
-0.115616
0.388458
-0.0570352
0.416617
-0.020649
0.435599
0.0253765
0.459519
0.0305014
0.490544
0.0395817
0.534426
0.0541393
0.588543
0.0784264
0.681752
0.115831
0.172285
0.793225
0.291338
-0.104944
0.292938
-0.0586347
0.297285
-0.0249959
0.311677
0.0109849
0.331481
0.010697
0.35739
0.013673
0.393599
0.0179295
0.443451
0.0285744
0.519855
0.0394275
0.0648395
0.6273
0.197066
0.138431
0.113435
0.12442
0.135117
0.14879
0.16672
0.195294
0.234722
0.299561
0.512489
-0.112457
0.512492
-0.104509
0.510249
-0.0939562
0.510247
-0.0815098
0.5136
-0.0671693
0.519827
-0.0497023
0.525995
-0.0289586
0.530664
-0.00724049
0.532617
0.0137702
0.0338149
0.553488
-0.125566
0.562749
-0.11377
0.570524
-0.101731
0.578817
-0.0898029
0.589442
-0.0777939
0.603253
-0.0635141
0.619395
-0.0450999
0.635254
-0.0230998
0.647907
0.00111676
0.0237248
0.645788
-0.128356
0.649547
-0.117529
0.6521
-0.104285
0.65416
-0.0918627
0.656975
-0.0806086
0.662174
-0.0687132
0.670877
-0.0538032
0.682419
-0.0346415
0.695763
-0.0122272
0.0107662
0.703519
-0.122611
0.699587
-0.113597
0.695622
-0.100319
0.690895
-0.0871354
0.686394
-0.076108
0.684283
-0.0666023
0.686091
-0.0556108
0.692177
-0.0407274
0.701878
-0.0219287
-0.00108444
0.762374
-0.111324
0.75027
-0.101492
0.736577
-0.0866266
0.722653
-0.0732115
0.7107
-0.0641545
0.701976
-0.0578783
0.697273
-0.0509084
0.696915
-0.0403695
0.700709
-0.025722
-0.00814282
0.802328
-0.0920453
0.781584
-0.080748
0.760433
-0.0654761
0.740234
-0.0530123
0.723368
-0.0472883
0.710716
-0.0452263
0.702152
-0.0423449
0.697649
-0.0358657
0.69719
-0.0252637
-0.0115229
0.812482
-0.0632815
0.785886
-0.0541528
0.761687
-0.0412762
0.740034
-0.0313598
0.721825
-0.029079
0.707642
-0.0310438
0.697084
-0.0317869
0.690033
-0.0288144
0.686686
-0.0219165
-0.0121299
0.761692
-0.0317481
0.735149
-0.0276099
0.714502
-0.0206292
0.698146
-0.0150043
0.684029
-0.0149611
0.671596
-0.0186108
0.660773
-0.0209643
0.652027
-0.0200681
0.646196
-0.0160854
-0.0100594
0.605486
-0.00993362
0.587541
-0.00966568
0.575079
-0.00816653
0.566262
-0.00618705
0.557488
-0.00618765
0.547026
-0.00814883
0.535572
-0.00951072
0.524576
-0.00907148
0.515817
-0.00732646
-0.00492376
0.289627
0.279962
0.271795
0.265608
0.25942
0.251272
0.241761
0.232689
0.225363
0.00242647
0.0274234
-0.0298499
0.00500632
0.0681422
-0.0707221
0.00654997
0.093604
-0.0951476
0.00711757
0.105432
-0.105999
0.0074307
0.108798
-0.109111
0.00700126
0.110504
-0.110075
0.00583697
0.108267
-0.107102
0.00457235
0.101273
-0.100008
0.00358062
0.0897735
-0.0887817
0.0741406
0.00304224
-0.0736023
0.00312142
0.024302
0.00743728
0.0638263
0.0112824
0.0897588
0.0140597
0.102654
0.0155334
0.107324
0.0172911
0.108747
0.0187646
0.106793
0.0193474
0.10069
0.0188419
0.090279
0.0760437
0.0169388
0.00336989
0.0209321
0.00885324
0.058343
0.0145841
0.0840279
0.0196388
0.0975997
0.0236337
0.103329
0.0274386
0.104942
0.0308913
0.10334
0.0332672
0.0983143
0.03388
0.0896662
0.0779399
0.0319837
0.00330752
0.0176246
0.00958582
0.0520647
0.0169093
0.0767044
0.0241106
0.0903984
0.0307413
0.0966987
0.0370304
0.0986527
0.0428723
0.0974986
0.0476081
0.0935785
0.0503009
0.0869734
0.0783782
0.0498626
0.00293449
0.0146901
0.00948724
0.0455119
0.0178922
0.0682995
0.0268306
0.08146
0.0356913
0.087838
0.0443546
0.0899894
0.0525731
0.0892801
0.0597571
0.0863944
0.0650163
0.0817142
0.0760341
0.0673604
0.00244998
0.0122401
0.00889563
0.0390663
0.017857
0.0593381
0.0279662
0.0713508
0.0384759
0.0773282
0.0490446
0.0794207
0.0592827
0.079042
0.0686009
0.0770763
0.0761772
0.0741379
0.0708546
0.0813566
0.00195045
0.0102897
0.00798413
0.0330326
0.0169461
0.0503761
0.0274975
0.0607994
0.0388116
0.0660142
0.0504303
0.067802
0.0619077
0.0675646
0.0726552
0.0663288
0.0818594
0.0649337
0.0636857
0.0890283
0.00157489
0.00871479
0.00710284
0.0275047
0.0157013
0.0417777
0.026114
0.0503867
0.0374876
0.0546407
0.0492981
0.0559914
0.061098
0.0557647
0.0723815
0.0550453
0.0824515
0.0548637
0.0554098
0.0907273
0.00127848
0.00743631
0.00618664
0.0225965
0.0140657
0.0338986
0.0237849
0.0406675
0.0345115
0.043914
0.0457251
0.0447779
0.0570409
0.0444489
0.0681017
0.0439845
0.0785072
0.0444582
0.0460403
0.0878767
0.00112543
0.00631088
0.00541619
0.0183057
0.0123809
0.0269339
0.0211016
0.0319467
0.0308673
0.0341484
0.0412485
0.0343967
0.0519894
0.033708
0.0628231
0.0331509
0.0735886
0.0336927
0.0355454
0.0840834
0.000864954
0.00544593
0.00424859
0.0149221
0.00973997
0.0214426
0.0165672
0.0251195
0.0240817
0.0266338
0.0318185
0.0266599
0.0394575
0.026069
0.046758
0.0258504
0.0537006
0.02675
0.0293159
0.0599301
0.000750649
0.00469528
0.00348628
0.0121865
0.00781624
0.0171126
0.0131093
0.0198264
0.0188264
0.0209167
0.0245237
0.0209626
0.0298739
0.0207188
0.0348001
0.0209242
0.0396134
0.0219367
0.0239609
0.0449684
0.000612033
0.00408325
0.00279417
0.0100043
0.0061816
0.0137252
0.0102525
0.0157555
0.0145784
0.0165908
0.0188336
0.0167073
0.0228695
0.016683
0.0268058
0.0169878
0.0309397
0.0178028
0.019268
0.0356326
0.000436042
0.0036472
0.00212861
0.00831178
0.004764
0.0110898
0.0079204
0.0125991
0.0112833
0.0132279
0.0146573
0.0133334
0.0180159
0.0133244
0.0215045
0.0134993
0.0253418
0.0139655
0.0148127
0.0297972
0.000261003
0.0033862
0.00153651
0.00703627
0.00357094
0.00905535
0.00603199
0.0101381
0.00869616
0.0105637
0.0114484
0.0105811
0.0142985
0.0104743
0.017359
0.0104388
0.0207874
0.0105371
0.0108004
0.0247997
0.000104957
0.00328124
0.00102989
0.00611134
0.00256862
0.00751662
0.00446671
0.00823998
0.0065685
0.00846193
0.0087973
0.00835228
0.0111625
0.00810909
0.0137505
0.00785083
0.0166948
0.00759279
0.00730739
0.0201878
-2.01763e-05
0.00330142
0.000615726
0.00547544
0.00174221
0.00639014
0.00317807
0.00680412
0.00482734
0.00681265
0.00662747
0.00655215
0.00857567
0.00616089
0.0107416
0.00568493
0.0132507
0.00508371
0.0042696
0.0162884
-0.000142917
0.00344434
0.000278508
0.00505401
0.00106509
0.00560356
0.00213811
0.00573111
0.00345962
0.00549114
0.00495381
0.00505796
0.00660019
0.00451452
0.00845936
0.00382576
0.0106595
0.00288357
0.00153727
0.0133918
-0.000244731
0.00368907
2.17007e-05
0.00478758
0.000529923
0.00509534
0.00136354
0.00489749
0.00250204
0.00435264
0.00382419
0.00373581
0.00529761
0.00304111
0.00698202
0.00214134
0.00901137
0.000854221
-0.00104316
0.0115918
-0.000271002
-0.00012532
0.000153165
0.000901633
0.00197773
0.0032242
0.00461943
0.00622796
0.00819213
0.0107198
0.0661438
0.14462
-0.150834
0.0762256
0.0887606
-0.0988425
0.090247
0.00915006
-0.0231714
0.101847
-0.0271793
0.0155788
0.112354
-0.0387926
0.0282858
0.12169
-0.0378861
0.0285507
0.130198
-0.0323406
0.023832
0.137284
-0.0256877
0.0186019
0.143367
-0.0162709
0.0101883
-0.00788417
0.00332991
0.0664412
0.123148
0.0788891
0.0763128
0.0944577
-0.00641852
0.106196
-0.0389172
0.116538
-0.0491349
0.125227
-0.0465754
0.132969
-0.0400823
0.139252
-0.0319707
0.14451
-0.0215287
-0.0115297
0.0619327
0.0968476
0.0796138
0.0586317
0.0978321
-0.0246368
0.110459
-0.0515438
0.120738
-0.0594143
0.128867
-0.0547041
0.13579
-0.0470055
0.141205
-0.0373859
0.145594
-0.0259173
-0.014274
0.0603767
0.0662681
0.0835364
0.035472
0.103883
-0.0449836
0.116782
-0.0644428
0.126645
-0.0692771
0.13383
-0.0618895
0.139592
-0.0527668
0.143763
-0.0415576
0.147036
-0.0291897
-0.0160436
0.0583648
0.0327029
0.0883807
0.00545613
0.110503
-0.0671062
0.123837
-0.0777765
0.133191
-0.0786314
0.139462
-0.0681598
0.143998
-0.0573031
0.146887
-0.0444462
0.148926
-0.0312289
-0.0168299
0.0570588
-0.0041682
0.0943867
-0.0318717
0.117716
-0.0904354
0.131348
-0.091409
0.139996
-0.0872789
0.145349
-0.0735132
0.148628
-0.0605816
0.150293
-0.0461118
0.151133
-0.0320681
-0.0167252
0.0568334
-0.0447132
0.100419
-0.0754569
0.124008
-0.114025
0.138136
-0.105537
0.146139
-0.0952825
0.150703
-0.078077
0.152908
-0.0627868
0.15353
-0.0467329
0.153382
-0.0319203
-0.0158748
0.0578616
-0.0891829
0.105481
-0.123077
0.129137
-0.13768
0.143792
-0.120192
0.151232
-0.102722
0.155204
-0.0820487
0.156545
-0.0641287
0.156372
-0.0465597
0.155437
-0.0309851
-0.0144642
0.0582851
-0.135876
0.108443
-0.173235
0.132883
-0.16212
0.148041
-0.135351
0.155108
-0.109789
0.158676
-0.0856166
0.15942
-0.0648722
0.158692
-0.0458316
0.157225
-0.0295187
-0.012656
0.0583579
0.109485
0.134987
0.150388
0.15757
0.160945
0.16146
0.160444
0.158704
0.0339067
0.0225361
-0.0564427
0.0263162
0.00759045
0.0245645
0.00175173
0.0264893
-0.0019248
0.0289714
-0.00248212
0.0313262
-0.00235478
0.0330755
-0.00174933
0.0346324
-0.00155691
0.0347582
-0.000125741
0.000567599
0.0986063
0.0697202
-0.14579
0.0764797
0.029717
0.0705435
0.00768792
0.0728709
-0.00425215
0.0773531
-0.00696433
0.0820179
-0.00701962
0.0858051
-0.00553654
0.0888936
-0.00464541
0.0899818
-0.00121391
0.000705351
0.133598
0.111834
-0.175711
0.106796
0.0565188
0.100243
0.0142412
0.10276
-0.00676964
0.108598
-0.0128018
0.114831
-0.0132529
0.12004
-0.0107451
0.123988
-0.00859386
0.125967
-0.00319296
0.000109448
0.141296
0.137332
-0.166793
0.117219
0.0805951
0.110936
0.0205245
0.114829
-0.0106627
0.122106
-0.0200791
0.129397
-0.0205437
0.1356
-0.016948
0.140333
-0.0133272
0.143374
-0.00623394
-0.00134848
0.13289
-0.146392
0.114642
0.111995
0.116911
0.125118
0.133125
0.140009
0.145284
0.149238
0.00439793
5.01462e-05
-0.00444808
0.00514155
-0.000743622
0.00666543
-0.00152387
0.00940067
-0.00273525
0.0139086
-0.00450789
0.0206057
-0.00669713
0.0294822
-0.00887653
0.0397471
-0.0102648
0.0494233
-0.00967625
-0.00701942
0.0121295
-0.000130788
-0.0119486
0.0143897
-0.00300379
0.0189998
-0.00613398
0.0270105
-0.010746
0.0393693
-0.0168666
0.0564012
-0.023729
0.0771589
-0.0296343
0.10007
-0.0331759
0.124221
-0.0338272
-0.028589
0.0190357
-0.000677528
-0.018489
0.0226432
-0.0066113
0.0297371
-0.0132278
0.0413369
-0.0223458
0.0578341
-0.0333638
0.0787901
-0.044685
0.102618
-0.053462
0.127019
-0.0575766
0.151617
-0.0584253
-0.0526838
0.0253008
-0.00164259
-0.0243357
0.0300235
-0.011334
0.0388629
-0.0220672
0.0523327
-0.0358156
0.0697641
-0.0507952
0.0895337
-0.0644545
0.109617
-0.0735449
0.129202
-0.077162
0.147606
-0.0768292
-0.0718712
0.0310479
-0.0296483
0.0366528
0.0465693
0.0606162
0.0771815
0.0940836
0.109567
0.123132
0.13418
0.0438099
-0.0314664
0.0395698
-0.0519133
0.0374064
-0.0281353
0.0345388
0.0322114
-0.0257643
0.0309594
0.0274497
-0.0243487
0.0291104
0.0225484
-0.0238219
0.0287232
0.0172922
-0.023698
0.0289543
0.0118167
-0.0230759
0.0285514
0.0065341
-0.0209802
0.0262629
0.00216785
-0.016336
0.0207022
-0.00761513
0.00978298
0.0400562
-0.0250415
-0.0464811
0.0346309
-0.0227099
0.0297963
-0.0209298
0.0252026
-0.0197549
0.0205177
-0.019137
0.0156153
-0.0187957
0.0106335
-0.0180942
0.00590125
-0.0162479
0.00199118
-0.0124259
-0.00562395
0.0372359
-0.0191908
-0.0430866
0.0319588
-0.0174328
0.02717
-0.0161409
0.0226794
-0.0152644
0.0182812
-0.0147387
0.0138409
-0.0143554
0.0094088
-0.0136621
0.00522416
-0.0120633
0.00176467
-0.0089664
-0.00385928
0.0358134
-0.013374
-0.0416303
0.0306097
-0.012229
0.0258673
-0.0113986
0.0214229
-0.01082
0.0171259
-0.0104417
0.0128827
-0.0101122
0.00872796
-0.00950734
0.00484914
-0.00818448
0.00164427
-0.00576153
-0.002215
0.0345178
-0.00784807
-0.0400438
0.0295136
-0.00722478
0.0249004
-0.00678543
0.0205451
-0.00646464
0.0163325
-0.00622916
0.0122014
-0.00598111
0.00819415
-0.00550004
0.0044902
-0.00448054
0.00147904
-0.00275037
-0.00073596
0.0335033
-0.00254762
-0.0388037
0.0286688
-0.00239036
0.0241772
-0.00229381
0.0199052
-0.0021926
0.0157481
-0.00207212
0.011653
-0.00188595
0.00766504
-0.00151209
0.00399428
-0.000809785
0.0011674
7.6514e-05
0.000431444
0.0331008
0.00269077
-0.0383392
0.0283287
0.00238169
0.0238903
0.00214458
0.0196602
0.00203752
0.0155351
0.00205296
0.0114683
0.00218085
0.00752604
0.0024302
0.00397422
0.00274204
0.00129807
0.00275266
0.00172951
0.0331376
0.00792371
-0.0383706
0.028382
0.00713733
0.0239702
0.00655641
0.0197747
0.006233
0.0156976
0.00613004
0.0117031
0.00617532
0.00787042
0.0062629
0.00442983
0.00618264
0.0016642
0.00551829
0.00339371
0.0335627