/*--------------------------------*- C++ -*----------------------------------*\
| =========                 |                                                 |
| \\      /  F ield         | OpenFOAM: The Open Source CFD Toolbox           |
|  \\    /   O peration     | Version:  2406                                  |
|   \\  /    A nd           | Website:  www.openfoam.com                      |
|    \\/     M anipulation  |                                                 |
\*---------------------------------------------------------------------------*/
FoamFile
{
    version     2.0;
    format      ascii;
    arch        "LSB;label=32;scalar=64";
    class       volVectorField;
    location    "0.15";
    object      U;
}
// * * * * * * * * * * * * * * * * * * * * * * * * * * * * * * * * * * * * * //

dimensions      [0 1 -1 0 0 0 0];

internalField   nonuniform List<vector> 
1800
(
(-0.0174301 0.0190981 0)
(0.050603 -0.030475 8.20333e-20)
(0.167404 -0.0846144 9.34059e-20)
(0.255442 -0.107359 1.50959e-19)
(0.318835 -0.102394 1.51249e-19)
(0.36833 -0.0788967 4.7407e-20)
(0.414893 -0.0488992 5.48874e-20)
(0.466941 -0.0249108 8.02447e-20)
(0.560472 -0.0172905 0)
(0.647004 -0.0239521 1.46079e-19)
(-0.00908745 0.00821405 -3.6595e-20)
(0.105655 -0.0640514 -1.43948e-19)
(0.252514 -0.127557 1.12266e-19)
(0.359044 -0.154998 -1.67743e-21)
(0.431744 -0.154891 6.90958e-20)
(0.486471 -0.139732 -2.90755e-20)
(0.538633 -0.122926 4.88275e-20)
(0.602688 -0.117307 -4.42323e-21)
(0.713307 -0.130946 8.50434e-20)
(0.835776 -0.174197 -1.23879e-19)
(0.00318044 0.000198782 4.43609e-20)
(0.168623 -0.0888521 -2.45893e-19)
(0.343113 -0.155053 -2.29328e-19)
(0.461439 -0.181776 2.232e-20)
(0.53654 -0.181161 -6.5993e-20)
(0.590036 -0.167126 -1.05053e-19)
(0.641198 -0.15312 -1.61959e-19)
(0.70907 -0.152118 5.03966e-20)
(0.827314 -0.173415 1.70763e-20)
(0.993595 -0.228394 -7.75304e-20)
(0.0258186 -0.008948 2.65325e-20)
(0.239141 -0.10505 1.70123e-19)
(0.438262 -0.168685 -8.02666e-20)
(0.565283 -0.192255 1.53959e-21)
(0.641441 -0.190076 1.23039e-19)
(0.694151 -0.17641 3.1394e-20)
(0.745961 -0.164123 1.52986e-19)
(0.820492 -0.165722 3.93932e-20)
(0.954246 -0.192083 -9.35993e-20)
(1.15278 -0.257223 1.60831e-19)
(0.056009 -0.0182632 1.71744e-20)
(0.314793 -0.1118 1.44784e-19)
(0.534764 -0.167459 -3.83489e-20)
(0.667703 -0.185099 -1.63416e-20)
(0.74403 -0.179853 -1.47219e-21)
(0.796419 -0.165185 1.04905e-20)
(0.849816 -0.152327 -5.24089e-20)
(0.931064 -0.152748 -1.63037e-19)
(1.07909 -0.178092 8.79785e-21)
(1.30365 -0.237822 3.76039e-20)
(0.0936755 -0.0254403 2.21342e-22)
(0.394462 -0.108474 2.49734e-20)
(0.631102 -0.151928 1.46612e-19)
(0.767755 -0.162053 -4.38468e-20)
(0.843919 -0.153258 -8.3089e-20)
(0.896428 -0.137381 -1.83329e-20)
(0.951627 -0.123886 -7.0485e-20)
(1.03921 -0.122697 -1.00717e-19)
(1.20014 -0.145046 1.18028e-19)
(1.44473 -0.196879 -7.70911e-20)
(0.137827 -0.0286624 -4.28546e-20)
(0.476243 -0.0948362 -1.56017e-19)
(0.724951 -0.123437 3.40083e-20)
(0.86307 -0.125397 8.16445e-20)
(0.93856 -0.113016 -2.71981e-20)
(0.991282 -0.0956763 8.58313e-20)
(1.04823 -0.0805348 1.31229e-19)
(1.14147 -0.075534 -2.06114e-19)
(1.3131 -0.0902872 -2.07626e-19)
(1.57127 -0.126013 1.93894e-20)
(0.186373 -0.0261319 1.79242e-20)
(0.556961 -0.0701442 6.15987e-21)
(0.813198 -0.0824414 -7.16381e-20)
(0.950894 -0.076539 2.06248e-20)
(1.02525 -0.061461 4.13417e-21)
(1.07818 -0.0437209 1.05664e-19)
(1.13687 -0.0279474 -1.36266e-20)
(1.23606 -0.0196252 -1.94288e-19)
(1.41878 -0.0256065 9.0093e-20)
(1.68792 -0.0436467 -1.81408e-20)
(0.236576 -0.0169015 3.85484e-20)
(0.632997 -0.0351817 5.17289e-20)
(0.891895 -0.031299 -1.46068e-19)
(1.02664 -0.0187424 -3.88722e-20)
(1.09853 -0.00251125 -7.08904e-21)
(1.15111 0.0141604 -1.65626e-20)
(1.21167 0.0295457 9.23056e-20)
(1.31786 0.0411674 4.56658e-20)
(1.51179 0.0457334 -4.20821e-20)
(1.78724 0.0471065 3.61539e-20)
(0.284897 -0.000245949 6.07337e-20)
(0.699642 0.00985107 1.08831e-19)
(0.956516 0.0289157 -1.6468e-19)
(1.08591 0.0462026 -4.20015e-20)
(1.15377 0.0616678 4.98259e-21)
(1.20536 0.0758858 -4.7004e-20)
(1.26857 0.0897 -2.24468e-20)
(1.38412 0.103652 4.71141e-20)
(1.58983 0.117955 6.07107e-21)
(1.86641 0.135222 -3.45311e-20)
(-0.00485425 0.0529804 -2.18159e-20)
(-0.00455587 0.0577093 6.07649e-20)
(-0.00547396 0.0588424 5.349e-20)
(-0.000177687 0.0468338 -6.53112e-20)
(0.0056961 0.0343636 -1.07504e-20)
(0.0118648 0.023889 4.57701e-20)
(0.0184077 0.0127025 3.68669e-20)
(0.0254543 -0.00229757 -8.04833e-20)
(0.0336147 -0.0247687 3.97883e-22)
(0.0455027 -0.0585852 3.45173e-20)
(-0.00740958 0.0540454 2.93118e-20)
(-0.00782301 0.0594331 3.88425e-22)
(-0.0081148 0.0532378 9.07957e-20)
(-0.00133531 0.0357746 -1.08942e-19)
(0.0058051 0.0213557 -1.77095e-19)
(0.0128991 0.00967299 -5.24852e-20)
(0.0204762 -0.00287629 1.12454e-19)
(0.0290104 -0.020141 0)
(0.0394963 -0.0466709 -1.34275e-20)
(0.055378 -0.0867642 5.44175e-20)
(-0.0124049 0.0559002 3.17159e-23)
(-0.0141308 0.060591 -1.50702e-19)
(-0.0107487 0.0464245 -4.5841e-20)
(-0.000897318 0.0245368 1.00067e-19)
(0.00836273 0.00831113 -9.55759e-20)
(0.0171059 -0.00446 -3.2754e-20)
(0.026312 -0.0182015 -7.00416e-20)
(0.0369276 -0.037536 -3.73192e-20)
(0.0505288 -0.0680055 -1.45683e-19)
(0.0715869 -0.11422 -2.26876e-19)
(-0.0171612 0.0576629 4.14683e-20)
(-0.0186433 0.0596613 7.14554e-20)
(-0.0107392 0.037923 -8.03625e-21)
(0.0026404 0.0123356 3.09396e-20)
(0.0142054 -0.00521526 1.34422e-21)
(0.0248136 -0.0187048 7.72655e-20)
(0.0359262 -0.0332821 -2.43888e-20)
(0.0490381 -0.0543036 0)
(0.0664545 -0.0884096 1.6627e-19)
(0.0938289 -0.140492 7.38647e-20)
(-0.021724 0.0581676 -8.03769e-20)
(-0.021962 0.0572818 3.74665e-20)
(-0.00833205 0.0286069 1.66733e-19)
(0.00926589 -0.000180997 9.68952e-21)
(0.0234495 -0.0187298 2.48173e-20)
(0.0360922 -0.0326421 1.01989e-19)
(0.0492303 -0.0476607 -7.32499e-20)
(0.064969 -0.0697785 -1.34845e-20)
(0.0864778 -0.106855 1.43394e-19)
(0.120713 -0.164129 1.95632e-19)
(-0.025571 0.0567732 -8.84992e-20)
(-0.0237531 0.0530086 -1.04172e-20)
(-0.00283557 0.0182902 -1.46573e-19)
(0.0197503 -0.0126804 -6.29939e-20)
(0.0368158 -0.0316299 9.26528e-20)
(0.0515735 -0.04561 9.31941e-20)
(0.0667386 -0.0606473 7.08925e-20)
(0.0850607 -0.0830297 -1.56195e-19)
(0.110792 -0.121965 9.48291e-20)
(0.152787 -0.18357 2.42944e-19)
(-0.0279589 0.0530036 4.27335e-20)
(-0.0230838 0.0463887 1.67046e-20)
(0.00739003 0.00680608 4.77235e-20)
(0.0359493 -0.0246641 -2.11112e-20)
(0.0561822 -0.0426245 -1.32528e-19)
(0.0729931 -0.0557974 -9.26563e-20)
(0.089861 -0.0704075 1.17175e-19)
(0.110221 -0.0922557 -1.30861e-19)
(0.139906 -0.131943 -9.82688e-20)
(0.190712 -0.197751 -4.57325e-20)
(-0.0279441 0.0465282 1.45266e-21)
(-0.0182588 0.0359745 -6.14049e-21)
(0.0251058 -0.00714636 6.07359e-20)
(0.0611002 -0.0363946 2.34347e-20)
(0.0853361 -0.0501715 -8.92952e-20)
(0.104629 -0.0593435 -3.69795e-20)
(0.1233 -0.0717332 1.03114e-19)
(0.145217 -0.0924002 9.71515e-20)
(0.177904 -0.131039 1.83404e-19)
(0.238675 -0.198817 -4.73362e-20)
(-0.0251486 0.0373091 -6.61321e-22)
(-0.00745668 0.0201577 4.26026e-20)
(0.0539769 -0.0264659 8.05101e-21)
(0.10111 -0.0523169 -1.73967e-19)
(0.13252 -0.0585863 -3.18965e-20)
(0.156414 -0.0566746 4.95627e-20)
(0.178922 -0.0606371 1.07302e-19)
(0.204866 -0.0777818 1.17348e-19)
(0.24079 -0.11296 -2.38159e-22)
(0.316863 -0.17577 -3.33235e-20)
(-0.0213949 0.0267704 4.00712e-20)
(0.0104313 -0.00106777 -6.87024e-21)
(0.0967259 -0.0517069 8.33208e-20)
(0.159531 -0.0751377 1.69796e-19)
(0.202182 -0.0738453 -8.58834e-20)
(0.231809 -0.0563574 6.10716e-20)
(0.257037 -0.0366039 -1.59918e-19)
(0.290516 -0.0338063 -8.07531e-20)
(0.344878 -0.0577535 -1.29869e-19)
(0.445034 -0.106143 3.32579e-20)
(0.134468 -0.28724 -2.80992e-19)
(0.41738 -0.346408 -1.76985e-19)
(0.597575 -0.27864 -2.38064e-20)
(0.687135 -0.220808 -2.50673e-20)
(0.746737 -0.168532 3.56735e-20)
(0.777727 -0.12709 1.74253e-21)
(0.791295 -0.0924364 -3.18047e-20)
(0.801981 -0.0628331 9.99025e-21)
(0.796972 -0.03861 -5.55196e-21)
(0.797877 -0.0145589 -2.44731e-21)
(0.174049 -0.35162 -1.92176e-19)
(0.433193 -0.414662 1.04598e-20)
(0.609796 -0.316147 -4.42511e-20)
(0.69557 -0.244308 5.35102e-21)
(0.753625 -0.181692 2.79677e-20)
(0.783464 -0.134327 -4.98738e-20)
(0.796469 -0.0958485 1.92893e-20)
(0.806777 -0.0639078 1.23499e-22)
(0.802027 -0.0385558 -1.09696e-20)
(0.802737 -0.0141354 8.73004e-21)
(0.225168 -0.41182 6.22911e-19)
(0.449175 -0.478568 1.92456e-19)
(0.619252 -0.353363 1.88255e-20)
(0.699659 -0.268435 2.75386e-20)
(0.756711 -0.195436 -4.21948e-20)
(0.785688 -0.142269 6.48631e-22)
(0.798805 -0.0995551 7.82342e-21)
(0.809229 -0.0652684 -1.09462e-20)
(0.805585 -0.0386427 -9.22827e-22)
(0.806551 -0.0137956 -1.23978e-21)
(0.287664 -0.467515 4.27366e-19)
(0.465112 -0.535745 -4.65846e-21)
(0.626372 -0.392692 1.15214e-21)
(0.700393 -0.292907 -1.94641e-20)
(0.756189 -0.210613 1.19138e-20)
(0.784698 -0.150582 9.50902e-21)
(0.798507 -0.10388 -1.59451e-20)
(0.80973 -0.067042 0)
(0.80765 -0.0391028 0)
(0.809673 -0.0136873 3.9068e-23)
(0.353612 -0.514725 -2.05065e-19)
(0.484384 -0.583554 -2.28335e-19)
(0.632823 -0.431328 -4.47219e-21)
(0.700325 -0.317778 1.73319e-20)
(0.754557 -0.226187 7.43841e-21)
(0.782877 -0.159544 4.4464e-20)
(0.797722 -0.10886 5.40705e-22)
(0.81038 -0.0693878 -7.11939e-21)
(0.809937 -0.0401005 -1.90925e-20)
(0.813833 -0.0137583 -1.69437e-21)
(0.430436 -0.552945 -2.54551e-19)
(0.522399 -0.623345 -1.04206e-19)
(0.65335 -0.469091 -1.14266e-19)
(0.711534 -0.343053 2.85093e-21)
(0.761415 -0.243065 -3.20257e-20)
(0.787933 -0.169872 2.57061e-20)
(0.802733 -0.115126 9.46793e-21)
(0.816547 -0.0728272 -3.29031e-20)
(0.817442 -0.0419196 2.68938e-22)
(0.824066 -0.0141381 -1.23804e-20)
(0.511322 -0.588249 1.23029e-19)
(0.598407 -0.663204 2.20074e-20)
(0.709133 -0.50402 7.18985e-20)
(0.753617 -0.36524 -2.62869e-20)
(0.793966 -0.257433 -2.24728e-21)
(0.815081 -0.17884 -3.42237e-20)
(0.827138 -0.120881 -4.46358e-22)
(0.840458 -0.076583 8.52815e-21)
(0.842113 -0.0444326 8.28225e-21)
(0.851507 -0.0150522 6.17278e-21)
(0.600466 -0.609198 2.95562e-19)
(0.719004 -0.710917 1.1378e-18)
(0.816007 -0.545769 1.2014e-19)
(0.840563 -0.393696 1.1051e-20)
(0.864235 -0.276941 2.59831e-20)
(0.874979 -0.191763 3.44426e-20)
(0.880537 -0.129525 -3.31299e-20)
(0.890751 -0.0824669 2.57405e-20)
(0.891556 -0.0482372 -5.06652e-22)
(0.902685 -0.0165667 -2.59416e-21)
(0.775426 -0.626652 8.24278e-19)
(0.89762 -0.731245 4.54375e-19)
(0.989647 -0.568222 -3.41226e-19)
(0.998439 -0.405026 8.10004e-20)
(1.0055 -0.282956 -2.85613e-21)
(1.0032 -0.19512 2.23595e-22)
(0.998414 -0.132004 9.04636e-21)
(1.00171 -0.0847916 -7.11946e-22)
(0.996972 -0.0505873 -5.15547e-21)
(1.00802 -0.0188081 -4.03883e-21)
(0.866038 -0.650666 2.70399e-20)
(1.09711 -0.810679 -8.2016e-19)
(1.15 -0.627388 -2.85795e-19)
(1.14216 -0.44197 8.1866e-20)
(1.13718 -0.306958 -1.54285e-20)
(1.12796 -0.21082 4.16452e-21)
(1.11833 -0.14205 -9.27963e-21)
(1.11925 -0.0907458 1.19525e-21)
(1.11573 -0.0542461 -1.66672e-21)
(1.12521 -0.020654 -7.70732e-22)
(1.67896 -0.589606 9.39731e-20)
(1.52684 -0.699375 -9.22186e-20)
(1.50829 -0.571206 -5.04613e-20)
(1.44022 -0.410723 -5.55216e-20)
(1.39561 -0.285166 2.97634e-20)
(1.36143 -0.196241 5.0785e-21)
(1.33358 -0.133552 1.19398e-20)
(1.32099 -0.0872161 8.80719e-21)
(1.30624 -0.0538518 -1.79594e-20)
(1.30882 -0.0224196 2.05301e-21)
(1.63178 -0.921177 -3.14686e-19)
(1.75077 -0.862744 -1.35142e-20)
(1.73569 -0.629891 1.39925e-19)
(1.65693 -0.425405 -2.49845e-20)
(1.5984 -0.286484 1.18425e-19)
(1.55368 -0.194468 9.70222e-20)
(1.51718 -0.129559 7.24476e-20)
(1.49811 -0.0837445 -8.95344e-21)
(1.4831 -0.0509258 3.43877e-20)
(1.47718 -0.0205401 8.88943e-21)
(2.30751 -0.668335 -1.17568e-19)
(2.06975 -0.732557 -5.15487e-20)
(1.98523 -0.549453 4.69759e-20)
(1.86714 -0.367274 9.55961e-36)
(1.78409 -0.243747 -1.02901e-20)
(1.72331 -0.164004 -3.50338e-34)
(1.67483 -0.109318 2.21651e-21)
(1.64675 -0.0723299 -8.77475e-35)
(1.62216 -0.0449612 3.92139e-22)
(1.61549 -0.0193729 -2.29467e-21)
(2.49599 -0.70988 -2.37907e-19)
(2.28538 -0.729272 7.92333e-20)
(2.14952 -0.537211 -7.52267e-20)
(1.98795 -0.348222 0)
(1.87968 -0.225141 -8.57983e-20)
(1.80598 -0.149287 -6.50009e-20)
(1.74975 -0.0984969 -4.75301e-20)
(1.71606 -0.0643641 1.90972e-34)
(1.68937 -0.0399823 -1.80474e-20)
(1.68139 -0.0174176 1.56557e-21)
(2.75296 -0.555932 -2.31018e-19)
(2.45829 -0.607467 1.79996e-20)
(2.26419 -0.44955 0)
(2.06465 -0.284182 0)
(1.93348 -0.178868 0)
(1.84818 -0.116655 0)
(1.78533 -0.0761603 1.19374e-21)
(1.74644 -0.0496554 2.29615e-34)
(1.71617 -0.0317275 -4.25218e-23)
(1.70646 -0.0152963 1.42494e-34)
(2.86083 -0.505459 8.77138e-20)
(2.54764 -0.519284 0)
(2.31495 -0.370623 0)
(2.08722 -0.227175 0)
(1.93854 -0.13915 0)
(1.8453 -0.0899913 0)
(1.77913 -0.0586168 -2.90791e-21)
(1.73861 -0.0383002 3.48808e-20)
(1.70822 -0.0257602 -2.76049e-22)
(1.69876 -0.0137221 8.00143e-21)
(2.89353 -0.432786 0)
(2.51955 -0.400029 1.08703e-20)
(2.25156 -0.269798 -5.60244e-20)
(2.01278 -0.157543 0)
(1.86187 -0.0920999 -5.87906e-20)
(1.76999 -0.0583995 -4.17938e-20)
(1.70653 -0.0376979 -3.27828e-20)
(1.66742 -0.0241958 -1.97346e-20)
(1.63967 -0.0177804 2.31848e-20)
(1.62453 -0.0109291 -4.69827e-21)
(2.73714 -0.347253 -8.9607e-20)
(2.26969 -0.267676 1.87089e-20)
(1.98546 -0.164202 -1.68759e-20)
(1.76082 -0.0889423 -7.74666e-37)
(1.62746 -0.047537 1.04046e-20)
(1.54856 -0.0289845 -2.57161e-34)
(1.49488 -0.0181892 -4.0975e-21)
(1.46159 -0.0114053 -7.49716e-21)
(1.43879 -0.00926592 -6.63899e-22)
(1.42076 -0.00706506 1.15343e-21)
(2.09914 -0.167087 0)
(1.63688 -0.0972939 2.23326e-20)
(1.40342 -0.056928 3.14816e-20)
(1.23266 -0.0268141 0)
(1.14398 -0.0105729 2.60695e-20)
(1.0951 -0.00587667 1.75599e-20)
(1.06293 -0.00367988 6.94136e-21)
(1.04356 -0.00238095 7.19596e-21)
(1.03147 -0.00289259 -9.30259e-21)
(1.01459 -0.00308174 1.57625e-22)
(0.772324 -0.0335274 -2.66494e-20)
(0.591636 -0.0122609 0)
(0.509295 -0.00949853 0)
(0.443037 -0.00378752 0)
(0.421422 -0.000516967 0)
(0.412786 -0.0001162 0)
(0.407433 4.16324e-05 -4.65035e-21)
(0.404733 9.79238e-05 1.49528e-35)
(0.402591 1.00517e-06 -8.76e-22)
(0.396188 -0.000475236 -1.62552e-21)
(2.40678 0.169642 3.579e-19)
(2.3589 0.0584817 1.68631e-19)
(2.27498 -0.0639884 2.87276e-19)
(2.14831 -0.182615 -2.03927e-19)
(2.00757 -0.295534 -1.37777e-19)
(1.82678 -0.371774 -1.27631e-19)
(1.68433 -0.436373 4.50629e-19)
(1.46442 -0.432143 9.37174e-20)
(1.42823 -0.438829 -3.54735e-19)
(1.08879 -0.271158 -1.63856e-19)
(3.0079 0.138807 -3.62228e-19)
(3.01641 0.023349 1.05141e-19)
(2.98277 -0.0935916 1.05271e-19)
(2.90139 -0.212557 1.62759e-19)
(2.79174 -0.327567 -3.57257e-19)
(2.62954 -0.430335 2.97621e-19)
(2.47245 -0.523027 3.33075e-19)
(2.23517 -0.572189 7.4667e-20)
(2.06599 -0.64515 1.91866e-19)
(1.73849 -0.597428 1.97529e-19)
(3.25078 0.0985705 2.26765e-20)
(3.27431 0.00170648 -2.66303e-19)
(3.27094 -0.100613 -3.27374e-19)
(3.23861 -0.20902 7.72404e-19)
(3.18308 -0.312677 -1.83281e-19)
(3.07075 -0.42216 3.36511e-19)
(2.97001 -0.50331 -2.42261e-19)
(2.75604 -0.60116 -2.36228e-19)
(2.66301 -0.62364 -2.70224e-19)
(2.33941 -0.675212 -6.09794e-20)
(3.27395 0.0388054 1.07743e-19)
(3.31614 -0.0296774 -4.238e-19)
(3.33459 -0.106317 2.59779e-19)
(3.32373 -0.189282 -3.93637e-19)
(3.29581 -0.271341 2.35044e-19)
(3.22477 -0.356076 -2.97203e-19)
(3.15434 -0.429029 -1.23689e-19)
(3.00517 -0.509123 1.25643e-19)
(2.92274 -0.548881 3.89998e-19)
(2.71494 -0.587844 3.26839e-19)
(3.23878 -0.00400226 8.82486e-20)
(3.26976 -0.0537449 -3.853e-19)
(3.28768 -0.106482 8.1158e-20)
(3.28505 -0.164496 -2.73151e-19)
(3.26858 -0.218872 -1.02811e-19)
(3.21885 -0.282761 3.24086e-22)
(3.17053 -0.332018 4.0933e-19)
(3.0671 -0.399783 1.15349e-20)
(3.01784 -0.420108 -2.42822e-20)
(2.87158 -0.465798 -4.87928e-20)
(3.1979 -0.0280915 1.84904e-19)
(3.2154 -0.0634359 6.27976e-20)
(3.22382 -0.0990088 -1.86858e-19)
(3.21968 -0.138075 -9.28917e-24)
(3.20471 -0.173733 1.88045e-19)
(3.1681 -0.218162 2.54124e-19)
(3.1351 -0.248632 -1.12121e-19)
(3.06492 -0.297723 -3.04393e-19)
(3.03574 -0.314929 1.19445e-19)
(2.93202 -0.343648 7.15191e-20)
(3.13125 -0.040292 -1.82471e-20)
(3.13904 -0.0639866 1.05555e-19)
(3.14113 -0.0868091 -7.13574e-20)
(3.13646 -0.111989 6.06689e-20)
(3.12353 -0.134213 2.2781e-19)
(3.10066 -0.164615 -1.79376e-19)
(3.07634 -0.17986 -3.36644e-20)
(3.0366 -0.223555 1.05606e-19)
(3.01113 -0.232466 1.12773e-19)
(2.94836 -0.26385 8.16241e-20)
(2.9293 -0.0413638 -4.87577e-21)
(2.93006 -0.0550762 -2.0096e-21)
(2.92942 -0.0674382 -2.47779e-20)
(2.92912 -0.0822172 8.08494e-21)
(2.923 -0.0939198 -1.55103e-19)
(2.92078 -0.114647 2.79496e-20)
(2.9033 -0.117589 1.06998e-19)
(2.90878 -0.163365 -1.20093e-19)
(2.86301 -0.149734 1.67325e-19)
(2.88267 -0.201587 2.0868e-19)
(2.31506 -0.0338647 5.91485e-20)
(2.30662 -0.0361819 -5.79357e-21)
(2.30246 -0.0398421 9.31059e-21)
(2.30342 -0.0441682 -5.09296e-21)
(2.30515 -0.0488294 3.36818e-20)
(2.31509 -0.0554829 6.02325e-20)
(2.31324 -0.060435 -1.31497e-19)
(2.34149 -0.0789083 -5.64986e-20)
(2.29937 -0.0689274 2.75472e-20)
(2.37969 -0.133122 -2.12592e-20)
(0.993528 -0.00691579 0)
(0.980276 -0.00746987 2.85593e-21)
(0.970111 -0.00926775 -1.22994e-20)
(0.964073 -0.0105638 1.04939e-20)
(0.96031 -0.0119341 -1.4405e-20)
(0.961163 -0.0127246 -1.79455e-19)
(0.961607 -0.0142591 -1.95909e-21)
(0.965371 -0.0169812 2.64725e-19)
(0.963913 -0.029819 6.34388e-20)
(0.963786 -0.0450638 -8.76264e-21)
(1.02187 0.498178 -4.13735e-20)
(0.779356 0.378253 -9.16884e-20)
(0.63141 0.322375 -5.26226e-20)
(0.55573 0.310584 -1.30782e-19)
(0.524761 0.322443 1.01694e-19)
(0.510527 0.346696 -7.26867e-20)
(0.490465 0.364832 -8.06436e-20)
(0.453476 0.362962 5.66313e-20)
(0.377438 0.32505 -1.08807e-19)
(0.212221 0.190403 2.51227e-21)
(1.34203 0.50881 -1.81418e-19)
(1.09569 0.38269 3.53181e-19)
(0.893623 0.310951 1.54623e-19)
(0.762845 0.289401 6.94844e-20)
(0.692636 0.29914 2.35338e-20)
(0.652356 0.325599 -5.80658e-21)
(0.613791 0.350561 2.44555e-20)
(0.556165 0.355896 -1.46588e-19)
(0.453982 0.322202 -5.23053e-20)
(0.250334 0.18806 -7.01018e-20)
(1.5122 0.516206 8.57919e-20)
(1.28032 0.404562 2.93908e-19)
(1.07295 0.333242 2.26135e-21)
(0.926638 0.304794 -4.43064e-20)
(0.840239 0.30808 1.01952e-19)
(0.787041 0.330498 1.24638e-19)
(0.737984 0.354474 -4.27527e-20)
(0.666605 0.360432 -1.28748e-19)
(0.540517 0.325382 2.06323e-19)
(0.293771 0.187578 -1.25881e-19)
(1.6255 0.50997 -2.30764e-19)
(1.40665 0.418626 1.22377e-19)
(1.2028 0.353853 -2.47359e-19)
(1.05386 0.322897 -6.19176e-20)
(0.963403 0.321468 1.91205e-19)
(0.906342 0.338775 -1.31992e-19)
(0.852787 0.358387 -1.81512e-19)
(0.772382 0.360947 1.38898e-19)
(0.625396 0.321907 -1.10041e-19)
(0.335133 0.181726 -2.69239e-21)
(1.72319 0.496149 2.7013e-19)
(1.50879 0.420199 2.18908e-19)
(1.3044 0.3615 -5.42958e-20)
(1.15524 0.330082 2.26778e-19)
(1.06579 0.325756 -4.88822e-20)
(1.00912 0.33795 -1.31415e-19)
(0.953663 0.35163 2.11223e-20)
(0.866065 0.349058 -1.48084e-19)
(0.699201 0.305515 -1.49128e-19)
(0.367963 0.167489 -5.87644e-20)
(1.80733 0.473766 4.50589e-19)
(1.58839 0.406739 4.14052e-19)
(1.37968 0.352473 -3.07414e-19)
(1.23183 0.321985 -2.11403e-19)
(1.14634 0.315861 -2.77656e-21)
(1.09199 0.322576 -2.01408e-19)
(1.03562 0.329338 8.24971e-20)
(0.941688 0.321147 -1.20559e-19)
(0.755502 0.274213 1.01855e-19)
(0.388293 0.144765 5.24467e-20)
(1.87222 0.432867 4.3213e-19)
(1.64277 0.373591 -4.34481e-19)
(1.4289 0.324972 -3.10216e-19)
(1.28433 0.29686 6.23344e-20)
(1.20421 0.289438 -1.28022e-19)
(1.15223 0.290589 2.48243e-19)
(1.09497 0.290684 4.37596e-20)
(0.994832 0.277638 -2.46044e-19)
(0.789408 0.229571 8.06787e-20)
(0.393802 0.115847 5.52629e-20)
(1.91349 0.373341 -2.9956e-19)
(1.67004 0.324578 -2.9089e-19)
(1.45319 0.282987 -1.88992e-19)
(1.31367 0.257744 5.25674e-20)
(1.2388 0.24865 1.58109e-19)
(1.18826 0.244382 1.14413e-19)
(1.13026 0.238682 -7.72828e-20)
(1.02328 0.222534 1.46019e-19)
(0.799844 0.17648 4.524e-20)
(0.38478 0.0836478 5.80888e-20)
(1.92901 0.301254 9.19209e-20)
(1.67125 0.261217 -8.11187e-20)
(1.45439 0.22812 9.81137e-20)
(1.32072 0.207226 2.99019e-19)
(1.24988 0.196212 -1.27169e-20)
(1.1997 0.187714 -1.85572e-19)
(1.14036 0.177713 2.14444e-19)
(1.02615 0.159334 2.94661e-19)
(0.787446 0.118968 -1.62074e-19)
(0.362254 0.0517747 -7.79476e-20)
(1.91478 0.221539 -1.6274e-19)
(1.64511 0.191298 -1.29743e-21)
(1.43104 0.167058 1.21878e-19)
(1.30496 0.149785 3.51489e-20)
(1.23806 0.137253 4.3085e-20)
(1.18758 0.125718 -1.43701e-19)
(1.12469 0.112536 1.22215e-19)
(1.00287 0.0933922 -2.33198e-19)
(0.752845 0.0620214 -1.91423e-19)
(0.328018 0.0230559 2.33323e-20)
(0.183234 0.25912 -2.95965e-20)
(0.162575 0.234469 2.5701e-19)
(0.143576 0.216491 3.30314e-20)
(0.125349 0.205801 -1.63433e-19)
(0.107013 0.200884 -4.53006e-20)
(0.0880122 0.199075 -1.02049e-19)
(0.0680218 0.196365 4.9131e-20)
(0.0470543 0.187313 -3.9249e-20)
(0.0262366 0.163852 8.54015e-20)
(0.0111513 0.101107 2.21086e-20)
(0.214507 0.312407 -8.00788e-20)
(0.190398 0.28276 -2.70561e-20)
(0.169017 0.261421 -1.58501e-19)
(0.149407 0.249141 1.41674e-20)
(0.130249 0.243915 2.15717e-20)
(0.110643 0.242413 3.76889e-20)
(0.0899635 0.239708 1.63239e-19)
(0.0678463 0.229375 -5.99279e-20)
(0.0441552 0.201584 6.11314e-20)
(0.0216648 0.124318 -1.77877e-20)
(0.254375 0.363996 6.83131e-20)
(0.22574 0.329331 1.89117e-19)
(0.201383 0.304577 1.05228e-19)
(0.180104 0.290719 1.48187e-19)
(0.160017 0.285184 3.54969e-20)
(0.139794 0.283947 1.65225e-19)
(0.118426 0.281208 -4.10685e-20)
(0.095 0.269648 -3.60056e-20)
(0.0678671 0.237711 -1.33717e-22)
(0.0357953 0.146382 9.59763e-21)
(0.301875 0.412572 4.52999e-19)
(0.267631 0.372973 3.26736e-19)
(0.239755 0.344901 -3.5196e-19)
(0.216579 0.329607 -1.36808e-19)
(0.195546 0.323807 -2.17643e-20)
(0.174813 0.322735 -7.53253e-20)
(0.152876 0.319802 -1.81209e-19)
(0.128091 0.306972 4.81459e-20)
(0.0970424 0.27107 -3.32174e-20)
(0.0533345 0.166575 -7.36062e-20)
(0.356025 0.458418 -1.30562e-19)
(0.315411 0.413781 -2.97266e-19)
(0.283515 0.382114 2.27644e-19)
(0.258206 0.365229 -7.42051e-20)
(0.236194 0.358934 -9.75676e-20)
(0.214998 0.357657 5.42211e-20)
(0.192559 0.354162 2.35484e-20)
(0.166345 0.339912 -1.06954e-19)
(0.130946 0.300251 -1.30144e-19)
(0.0737768 0.184017 5.44689e-20)
(0.408976 0.495475 -1.45745e-20)
(0.363071 0.446723 -1.30108e-20)
(0.328017 0.41274 1.46322e-20)
(0.30139 0.395133 4.67394e-20)
(0.279101 0.388633 1.72811e-19)
(0.258023 0.386935 -1.02307e-19)
(0.235541 0.382534 -6.68226e-20)
(0.208151 0.366781 1.95078e-20)
(0.16827 0.323709 -3.15016e-20)
(0.096357 0.197706 9.7835e-20)
(0.483625 0.53353 -1.91751e-19)
(0.424392 0.479173 8.10161e-20)
(0.381624 0.440938 2.48177e-19)
(0.350981 0.421518 -6.47034e-20)
(0.326932 0.413625 -2.1651e-19)
(0.30504 0.410256 1.74774e-19)
(0.281967 0.404162 2.41554e-19)
(0.253005 0.386702 1.2822e-19)
(0.207999 0.340447 8.21067e-20)
(0.120147 0.206847 1.64463e-19)
(0.514084 0.559849 -3.19359e-19)
(0.45544 0.498732 -5.60676e-20)
(0.412969 0.458138 7.99155e-20)
(0.385782 0.437915 -1.16754e-19)
(0.365635 0.428723 4.25952e-21)
(0.346684 0.423475 1.73062e-19)
(0.325396 0.41581 -7.80172e-20)
(0.296403 0.397285 -1.29234e-19)
(0.246977 0.348891 2.87252e-20)
(0.143392 0.210262 -5.56611e-20)
(0.647249 0.598135 -3.53047e-20)
(0.555916 0.529146 6.62596e-20)
(0.489289 0.475566 -1.3268e-19)
(0.448033 0.446716 8.36151e-21)
(0.422349 0.43314 1.80171e-19)
(0.401919 0.425784 6.17187e-21)
(0.379602 0.418434 1.65662e-20)
(0.34774 0.40028 0)
(0.290286 0.350385 -7.13753e-20)
(0.167316 0.209002 -6.20705e-20)
(0.5463 0.615505 0)
(0.477285 0.543158 0)
(0.444935 0.486459 -4.47507e-20)
(0.427946 0.448665 -7.49617e-20)
(0.42258 0.427816 9.26717e-20)
(0.420345 0.419409 2.63515e-20)
(0.409146 0.411039 9.5905e-20)
(0.383543 0.393557 1.89022e-21)
(0.324546 0.344817 7.03083e-20)
(0.186319 0.20163 6.69869e-20)
(0.729862 0.400074 -1.96783e-20)
(1.03935 0.317805 -1.20118e-20)
(0.828767 0.205716 1.06178e-21)
(0.841624 0.177539 -2.69639e-21)
(0.842846 0.18394 4.94554e-21)
(0.816401 0.194749 1.50495e-20)
(0.77175 0.229682 -1.20238e-20)
(0.710668 0.273612 -3.88887e-20)
(0.57989 0.355323 -1.04507e-19)
(0.29476 0.392337 2.0702e-19)
(0.728871 0.417853 -7.40421e-21)
(1.03632 0.331971 2.22508e-20)
(0.82298 0.213225 -1.4483e-21)
(0.83854 0.182045 2.57291e-20)
(0.840261 0.188609 2.31861e-21)
(0.819253 0.202968 -1.9977e-20)
(0.779107 0.246046 -9.95518e-21)
(0.725816 0.300199 -8.00335e-22)
(0.603845 0.414306 3.22117e-19)
(0.339945 0.466477 -1.25286e-20)
(0.727311 0.436017 2.44651e-20)
(1.03211 0.346286 5.24549e-20)
(0.814408 0.220156 -4.1366e-20)
(0.832238 0.186384 -5.7509e-21)
(0.834561 0.192298 -9.18556e-21)
(0.817945 0.210945 3.73801e-21)
(0.782466 0.26162 1.67649e-20)
(0.739192 0.326064 -1.93943e-20)
(0.627659 0.468918 1.21826e-19)
(0.398197 0.537737 -5.22188e-19)
(0.726145 0.454769 2.05312e-20)
(1.02703 0.360881 -6.59675e-21)
(0.802711 0.226651 -1.66469e-20)
(0.822614 0.19056 -3.86535e-20)
(0.82689 0.195435 2.39971e-21)
(0.813157 0.218924 3.13796e-21)
(0.782415 0.276084 -1.87386e-20)
(0.750561 0.352751 8.99903e-20)
(0.653806 0.518423 -1.14538e-19)
(0.469221 0.604471 -4.67542e-19)
(0.726657 0.47411 1.21544e-20)
(1.0216 0.376383 -8.94847e-20)
(0.787927 0.232946 1.96754e-20)
(0.81195 0.194117 8.3829e-20)
(0.820052 0.197523 -4.35055e-22)
(0.806791 0.226798 1.38913e-20)
(0.778939 0.289014 2.60589e-20)
(0.758162 0.376949 4.91393e-20)
(0.678896 0.556745 -5.25326e-20)
(0.550489 0.66549 3.56469e-19)
(0.729838 0.493477 -5.55641e-21)
(1.01692 0.39315 1.59768e-21)
(0.774796 0.239722 -3.83264e-20)
(0.806739 0.196502 9.82948e-21)
(0.815508 0.199461 -9.52954e-21)
(0.801268 0.235302 -1.62733e-21)
(0.776022 0.302778 -1.14024e-20)
(0.763824 0.403795 -1.65435e-19)
(0.705272 0.599058 0)
(0.616468 0.719306 -3.71251e-20)
(0.733966 0.512213 7.34001e-21)
(1.02161 0.410773 6.71109e-20)
(0.780628 0.246052 -5.29485e-21)
(0.811566 0.197292 1.13561e-20)
(0.819752 0.201936 -3.98167e-21)
(0.809168 0.243157 -1.35789e-20)
(0.789271 0.313279 1.02987e-21)
(0.788821 0.420619 1.21468e-20)
(0.748392 0.607811 -1.01589e-20)
(0.774238 0.759179 1.10183e-18)
(0.7464 0.528349 -1.13417e-19)
(1.04354 0.42542 1.0739e-19)
(0.806893 0.250945 6.42473e-20)
(0.83479 0.200392 1.45658e-20)
(0.848608 0.208864 -9.04559e-21)
(0.837748 0.257419 1.46797e-21)
(0.818393 0.335535 -4.24107e-21)
(0.816821 0.457165 2.90865e-21)
(0.810621 0.670852 2.095e-19)
(0.709766 0.821515 -1.33313e-19)
(0.761594 0.536861 4.45189e-20)
(1.097 0.436872 -7.00509e-20)
(0.882 0.252616 -9.66429e-21)
(0.918836 0.201521 -3.86367e-20)
(0.941161 0.210641 1.23763e-21)
(0.936553 0.261102 7.60948e-21)
(0.924549 0.339018 -1.96748e-20)
(0.945388 0.45737 6.77879e-20)
(0.915474 0.644702 3.48315e-19)
(1.08468 0.807052 -8.49418e-19)
(0.790071 0.538016 1.11594e-19)
(1.18122 0.440056 -1.57344e-19)
(0.981269 0.247884 -5.1028e-21)
(1.01839 0.202449 6.61829e-20)
(1.04392 0.218678 7.42226e-21)
(1.03952 0.279461 -7.76179e-22)
(1.03008 0.370486 -3.00364e-21)
(1.04338 0.518517 9.80127e-20)
(1.05976 0.719528 4.19758e-20)
(0.898347 0.942979 5.98909e-19)
(0.818738 0.515033 -3.44826e-20)
(1.32266 0.440705 1.02079e-20)
(1.14102 0.241617 -7.22446e-21)
(1.17963 0.198642 4.41403e-20)
(1.22721 0.212964 -1.45651e-20)
(1.24302 0.269855 -2.79753e-20)
(1.24762 0.354287 5.98489e-22)
(1.31649 0.483657 -1.83929e-19)
(1.26564 0.694602 -3.92294e-19)
(1.38977 0.75678 -1.89055e-19)
(0.83984 0.442563 -7.14887e-20)
(1.46599 0.410816 -2.10955e-20)
(1.3131 0.229485 2.74465e-20)
(1.35381 0.188765 -7.35805e-20)
(1.41922 0.206947 2.637e-20)
(1.45555 0.26586 8.25826e-20)
(1.49449 0.352522 1.9297e-20)
(1.55681 0.50528 1.74994e-19)
(1.74805 0.660119 -5.09066e-20)
(1.52479 0.85453 5.10018e-19)
(0.837126 0.34445 -3.67263e-20)
(1.55726 0.360777 -2.25689e-20)
(1.45123 0.208594 -2.37656e-20)
(1.50704 0.171157 1.5685e-20)
(1.58694 0.187503 1.39149e-34)
(1.64533 0.2386 -8.6649e-21)
(1.70166 0.322161 -7.72643e-34)
(1.81353 0.431354 2.6664e-20)
(1.99511 0.65515 -1.10667e-19)
(1.86402 0.704348 -3.74663e-19)
(0.824783 0.240073 8.80923e-20)
(1.59051 0.284981 -2.11471e-34)
(1.52047 0.174823 2.28878e-20)
(1.59139 0.15107 4.56329e-21)
(1.68061 0.169324 -2.96985e-20)
(1.7546 0.217125 -5.36912e-20)
(1.83162 0.294271 -9.24176e-34)
(1.96161 0.395092 -1.06467e-19)
(2.2006 0.594466 -7.79759e-20)
(2.10948 0.695454 4.28785e-19)
(0.808453 0.13476 0)
(1.59038 0.201363 -3.40501e-34)
(1.55071 0.132851 0)
(1.63429 0.124749 0)
(1.7289 0.141733 0)
(1.81411 0.181582 0)
(1.90208 0.250617 -5.75838e-34)
(2.0613 0.325173 0)
(2.28388 0.528765 -3.39097e-20)
(2.34947 0.619555 2.57716e-19)
(0.795516 0.0349346 3.74534e-20)
(1.56959 0.110617 -2.40517e-20)
(1.54703 0.08333 2.03183e-20)
(1.63827 0.0975072 0)
(1.7351 0.114341 0)
(1.82785 0.147125 8.38116e-21)
(1.92388 0.203892 4.6334e-20)
(2.11289 0.263877 -1.47675e-20)
(2.29692 0.431248 -4.38175e-20)
(2.5385 0.535649 2.68898e-19)
(0.783459 -0.056575 7.53974e-20)
(1.5176 0.0209484 1.36229e-20)
(1.48631 0.0316032 1.87989e-20)
(1.57992 0.06846 -3.04102e-20)
(1.67504 0.0833843 -1.59564e-20)
(1.77208 0.108164 -1.49192e-20)
(1.87215 0.150148 -3.74983e-20)
(2.08347 0.198626 -3.5087e-20)
(2.2343 0.318434 -7.95144e-20)
(2.614 0.422133 -2.56542e-20)
(0.753501 -0.125533 -4.7245e-20)
(1.39261 -0.0512796 -4.14267e-20)
(1.30477 -0.0137385 1.63981e-20)
(1.39185 0.0410742 -1.23219e-20)
(1.47827 0.0517375 9.65227e-35)
(1.5726 0.0675049 9.55137e-21)
(1.67144 0.0933321 -1.24225e-33)
(1.88914 0.131546 -1.50407e-20)
(2.0169 0.197265 2.10058e-20)
(2.47211 0.28724 3.86912e-20)
(0.681955 -0.174365 9.71326e-20)
(1.13126 -0.0960561 -4.10028e-20)
(0.914791 -0.0403996 1.47099e-20)
(0.99487 0.0201305 2.83803e-20)
(1.06213 0.0227185 5.68121e-21)
(1.13868 0.0292173 1.88885e-20)
(1.22329 0.0387708 1.18359e-20)
(1.40439 0.0598487 -1.27227e-20)
(1.52815 0.0853871 -1.47029e-20)
(1.92313 0.131474 1.64587e-19)
(0.535967 -0.0722669 3.51531e-20)
(0.675572 -0.0406764 -1.62681e-34)
(0.31154 -0.0181369 1.13248e-20)
(0.399662 0.00591635 0)
(0.429263 0.00501857 0)
(0.468342 0.00619744 9.88035e-21)
(0.512982 0.0081674 -1.2607e-35)
(0.603625 0.0146192 -1.51633e-20)
(0.681467 0.0174108 -2.76422e-20)
(0.893152 0.0354114 -6.00178e-20)