/*--------------------------------*- C++ -*----------------------------------*\
| =========                 |                                                 |
| \\      /  F ield         | OpenFOAM: The Open Source CFD Toolbox           |
|  \\    /   O peration     | Version:  2406                                  |
|   \\  /    A nd           | Website:  www.openfoam.com                      |
|    \\/     M anipulation  |                                                 |
\*---------------------------------------------------------------------------*/
FoamFile
{
    version     2.0;
    format      ascii;
    arch        "LSB;label=32;scalar=64";
    class       volVectorField;
    location    "2.1";
    object      flux;
}
// * * * * * * * * * * * * * * * * * * * * * * * * * * * * * * * * * * * * * //

dimensions      [0 1 -1 1 0 0 0];

internalField   nonuniform List<vector> 
2500
(
(0.00122636 0.00122636 0)
(0.00367397 0.00123286 0)
(0.00611366 0.00124618 0)
(0.0085427 0.0012661 0)
(0.0109534 0.00129266 0)
(0.0133405 0.00132587 0)
(0.0156982 0.00136574 0)
(0.018021 0.0014123 0)
(0.0203027 0.00146555 0)
(0.0225372 0.0015255 0)
(0.0247181 0.00159214 0)
(0.0268386 0.00166547 0)
(0.0288918 0.00174546 0)
(0.0308704 0.00183208 0)
(0.0327669 0.00192529 0)
(0.0345736 0.00202499 0)
(0.0362825 0.00213112 0)
(0.0378854 0.00224353 0)
(0.0393741 0.00236207 0)
(0.0407402 0.00248657 0)
(0.0419751 0.00261678 0)
(0.0430705 0.00275246 0)
(0.044018 0.00289327 0)
(0.0448094 0.00303888 0)
(0.0454368 0.00318885 0)
(0.0458926 0.00334274 0)
(0.0461698 0.00350003 0)
(0.0462617 0.00366014 0)
(0.0461627 0.00382244 0)
(0.0458675 0.00398625 0)
(0.0453719 0.00415083 0)
(0.044673 0.0043154 0)
(0.0437685 0.00447912 0)
(0.0426577 0.00464111 0)
(0.041341 0.00480044 0)
(0.0398203 0.00495619 0)
(0.038099 0.00510738 0)
(0.0361818 0.00525303 0)
(0.0340751 0.00539217 0)
(0.0317869 0.00552383 0)
(0.0293266 0.00564705 0)
(0.0267051 0.00576093 0)
(0.023935 0.0058646 0)
(0.0210301 0.00595726 0)
(0.0180053 0.00603819 0)
(0.014877 0.00610673 0)
(0.0116624 0.00616237 0)
(0.00837946 0.00620464 0)
(0.00504702 0.00623301 0)
(0.00168541 0.00624595 0)
(0.00123286 0.00367397 0)
(0.00369379 0.00369379 0)
(0.0061469 0.00373367 0)
(0.00858918 0.0037934 0)
(0.0110132 0.00387305 0)
(0.0134136 0.00397267 0)
(0.0157847 0.00409231 0)
(0.0181208 0.00423199 0)
(0.0204159 0.00439175 0)
(0.0226638 0.00457161 0)
(0.0248581 0.00477156 0)
(0.026992 0.00499159 0)
(0.0290584 0.00523163 0)
(0.0310502 0.00549158 0)
(0.0329598 0.00577129 0)
(0.0347794 0.00607055 0)
(0.036501 0.00638907 0)
(0.0381164 0.00672649 0)
(0.0396172 0.00708236 0)
(0.0409949 0.00745611 0)
(0.042241 0.00784707 0)
(0.043347 0.00825445 0)
(0.0443044 0.00867731 0)
(0.0451049 0.00911457 0)
(0.0457406 0.00956502 0)
(0.0462038 0.0100273 0)
(0.0464872 0.0104997 0)
(0.0465842 0.0109807 0)
(0.0464888 0.0114684 0)
(0.0461959 0.0119606 0)
(0.0457011 0.0124552 0)
(0.0450013 0.0129498 0)
(0.0440942 0.0134419 0)
(0.042979 0.0139288 0)
(0.0416561 0.0144078 0)
(0.0401272 0.014876 0)
(0.0383958 0.0153306 0)
(0.0364666 0.0157686 0)
(0.0343459 0.016187 0)
(0.0320418 0.016583 0)
(0.0295637 0.0169536 0)
(0.0269227 0.0172961 0)
(0.0241314 0.017608 0)
(0.0212037 0.0178867 0)
(0.0181548 0.0181302 0)
(0.0150012 0.0183363 0)
(0.0117603 0.0185037 0)
(0.0084501 0.0186309 0)
(0.00508833 0.018717 0)
(0.00169836 0.0187586 0)
(0.00124618 0.00611366 0)
(0.00373367 0.0061469 0)
(0.00621326 0.00621326 0)
(0.00868209 0.00631281 0)
(0.0111327 0.0064456 0)
(0.0135597 0.00661169 0)
(0.0159575 0.00681116 0)
(0.0183204 0.00704407 0)
(0.0206423 0.00731048 0)
(0.0229171 0.00761042 0)
(0.0251381 0.00794391 0)
(0.0272987 0.0083109 0)
(0.0293918 0.00871131 0)
(0.0314101 0.00914497 0)
(0.0333459 0.00961165 0)
(0.0351914 0.010111 0)
(0.0369384 0.0106426 0)
(0.0385787 0.0112057 0)
(0.0401038 0.0117998 0)
(0.0415049 0.0124238 0)
(0.0427735 0.0130766 0)
(0.0439007 0.0137569 0)
(0.0448781 0.0144632 0)
(0.0456971 0.0151937 0)
(0.0463494 0.0159463 0)
(0.0468273 0.0167188 0)
(0.0471233 0.0175085 0)
(0.0472304 0.0183126 0)
(0.0471425 0.0191279 0)
(0.0468543 0.0199511 0)
(0.0463611 0.0207784 0)
(0.0456596 0.0216058 0)
(0.0447475 0.0224292 0)
(0.0436236 0.0232441 0)
(0.0422882 0.0240459 0)
(0.0407431 0.0248298 0)
(0.0389915 0.025591 0)
(0.0370382 0.0263245 0)
(0.0348895 0.0270254 0)
(0.0325534 0.0276887 0)
(0.0300397 0.0283096 0)
(0.0273595 0.0288836 0)
(0.0245256 0.0294062 0)
(0.0215522 0.0298734 0)
(0.0184549 0.0302814 0)
(0.0152506 0.0306269 0)
(0.011957 0.0309072 0)
(0.0085928 0.0311201 0)
(0.00517467 0.0312639 0)
(0.00172698 0.0313357 0)
(0.0012661 0.0085427 0)
(0.0037934 0.00858918 0)
(0.00631281 0.00868209 0)
(0.00882151 0.00882151 0)
(0.0113121 0.00900751 0)
(0.0137791 0.0092402 0)
(0.016217 0.00951967 0)
(0.0186201 0.00984601 0)
(0.0209823 0.0102193 0)
(0.0232973 0.0106397 0)
(0.0255586 0.0111071 0)
(0.0277594 0.0116215 0)
(0.0298925 0.0121829 0)
(0.0319506 0.012791 0)
(0.0339259 0.0134454 0)
(0.0358103 0.0141458 0)
(0.0375958 0.0148915 0)
(0.0392736 0.0156818 0)
(0.0408352 0.0165154 0)
(0.0422717 0.0173913 0)
(0.0435742 0.0183079 0)
(0.0447336 0.0192633 0)
(0.0457412 0.0202554 0)
(0.046588 0.0212818 0)
(0.0472657 0.0223395 0)
(0.0477659 0.0234254 0)
(0.048081 0.0245358 0)
(0.0482036 0.0256668 0)
(0.0481273 0.0268138 0)
(0.0478463 0.0279723 0)
(0.0473558 0.0291368 0)
(0.0466521 0.0303018 0)
(0.0457325 0.0314615 0)
(0.0445957 0.0326095 0)
(0.0432418 0.0337394 0)
(0.0416724 0.0348444 0)
(0.0398905 0.0359176 0)
(0.0379009 0.036952 0)
(0.0357101 0.0379406 0)
(0.033326 0.0388764 0)
(0.0307586 0.0397527 0)
(0.0280193 0.0405629 0)
(0.0251212 0.0413006 0)
(0.0220788 0.0419602 0)
(0.0189083 0.0425362 0)
(0.0156271 0.0430241 0)
(0.0122535 0.0434196 0)
(0.00880682 0.0437196 0)
(0.00530399 0.0439214 0)
(0.00177018 0.0440226 0)
(0.00129266 0.0109534 0)
(0.00387305 0.0110132 0)
(0.0064456 0.0111327 0)
(0.00900751 0.0113121 0)
(0.0115514 0.0115514 0)
(0.0140719 0.0118508 0)
(0.0165634 0.0122105 0)
(0.0190201 0.0126305 0)
(0.021436 0.013111 0)
(0.0238048 0.0136522 0)
(0.02612 0.014254 0)
(0.0283745 0.0149165 0)
(0.0305612 0.0156395 0)
(0.0326726 0.0164228 0)
(0.0347007 0.0172661 0)
(0.0366375 0.0181688 0)
(0.0384744 0.0191302 0)
(0.0402026 0.0201491 0)
(0.0418133 0.0212244 0)
(0.0432974 0.0223545 0)
(0.0446454 0.0235374 0)
(0.0458483 0.0247707 0)
(0.0468966 0.0260519 0)
(0.0477811 0.0273777 0)
(0.048493 0.0287445 0)
(0.0490236 0.0301482 0)
(0.0493646 0.0315841 0)
(0.0495084 0.0330471 0)
(0.049448 0.0345315 0)
(0.0491772 0.0360311 0)
(0.0486907 0.0375392 0)
(0.0479844 0.0390485 0)
(0.0470552 0.0405514 0)
(0.0459015 0.0420398 0)
(0.0445231 0.0435051 0)
(0.0429213 0.0449387 0)
(0.0410991 0.0463315 0)
(0.0390612 0.0476744 0)
(0.0368139 0.0489583 0)
(0.0343656 0.050174 0)
(0.0317262 0.0513126 0)
(0.0289074 0.0523656 0)
(0.025923 0.0533247 0)
(0.0227879 0.0541823 0)
(0.0195188 0.0549314 0)
(0.016134 0.0555658 0)
(0.0126525 0.0560802 0)
(0.00909452 0.0564701 0)
(0.00547769 0.0567321 0)
(0.00182825 0.0568636 0)
(0.00132587 0.0133405 0)
(0.00397267 0.0134136 0)
(0.00661169 0.0135597 0)
(0.0092402 0.0137791 0)
(0.0118508 0.0140719 0)
(0.0144382 0.0144382 0)
(0.0169967 0.0148782 0)
(0.0195206 0.0153922 0)
(0.0220039 0.0159803 0)
(0.0244402 0.0166427 0)
(0.0268229 0.0173795 0)
(0.0291449 0.0181908 0)
(0.0313989 0.0190764 0)
(0.0335772 0.0200361 0)
(0.0356718 0.0210696 0)
(0.0376744 0.0221761 0)
(0.039576 0.0233549 0)
(0.0413679 0.0246047 0)
(0.0430406 0.0259241 0)
(0.0445846 0.0273112 0)
(0.0459904 0.0287636 0)
(0.0472482 0.0302787 0)
(0.0483482 0.031853 0)
(0.0492807 0.0334829 0)
(0.0500362 0.0351639 0)
(0.0506055 0.036891 0)
(0.0509799 0.0386586 0)
(0.051151 0.0404603 0)
(0.0511113 0.0422892 0)
(0.050854 0.0441377 0)
(0.0503732 0.0459975 0)
(0.0496643 0.0478597 0)
(0.0487237 0.0497148 0)
(0.0475494 0.0515528 0)
(0.0461407 0.0533633 0)
(0.0444987 0.0551352 0)
(0.0426262 0.0568575 0)
(0.0405277 0.0585188 0)
(0.0382096 0.0601077 0)
(0.0356804 0.0616128 0)
(0.0329502 0.063023 0)
(0.0300314 0.0643275 0)
(0.0269379 0.0655161 0)
(0.0236855 0.0665792 0)
(0.0202919 0.0675079 0)
(0.0167758 0.0682946 0)
(0.0131578 0.0689325 0)
(0.00945867 0.0694159 0)
(0.00569751 0.0697407 0)
(0.00190174 0.0699038 0)
(0.00136574 0.0156982 0)
(0.00409231 0.0157847 0)
(0.00681116 0.0159575 0)
(0.00951967 0.016217 0)
(0.0122105 0.0165634 0)
(0.0148782 0.0169967 0)
(0.0175174 0.0175174 0)
(0.0201222 0.0181256 0)
(0.0226865 0.0188217 0)
(0.0252041 0.0196059 0)
(0.027668 0.0204784 0)
(0.0300714 0.0214393 0)
(0.0324066 0.0224885 0)
(0.0346658 0.0236259 0)
(0.0368407 0.024851 0)
(0.0389228 0.0261632 0)
(0.040903 0.0275616 0)
(0.0427719 0.0290449 0)
(0.0445198 0.0306114 0)
(0.0461369 0.0322589 0)
(0.0476129 0.0339848 0)
(0.0489377 0.0357859 0)
(0.0501008 0.0376585 0)
(0.051092 0.0395981 0)
(0.0519011 0.0415995 0)
(0.0525183 0.0436568 0)
(0.0529339 0.0457635 0)
(0.0531391 0.0479121 0)
(0.0531254 0.0500943 0)
(0.0528855 0.0523011 0)
(0.0524127 0.0545227 0)
(0.0517017 0.0567484 0)
(0.0507483 0.0589668 0)
(0.0495499 0.0611661 0)
(0.0481055 0.0633335 0)
(0.0464156 0.065456 0)
(0.0444827 0.0675201 0)
(0.0423114 0.0695121 0)
(0.0399079 0.0714182 0)
(0.0372809 0.0732246 0)
(0.0344409 0.0749178 0)
(0.0314005 0.0764848 0)
(0.0281746 0.077913 0)
(0.0247797 0.0791908 0)
(0.0212343 0.0803075 0)
(0.0175585 0.0812536 0)
(0.0137738 0.0820208 0)
(0.00990273 0.0826023 0)
(0.00596555 0.082993 0)
(0.00199135 0.0831891 0)
(0.0014123 0.018021 0)
(0.00423199 0.0181208 0)
(0.00704407 0.0183204 0)
(0.00984601 0.0186201 0)
(0.0126305 0.0190201 0)
(0.0153922 0.0195206 0)
(0.0181256 0.0201222 0)
(0.020825 0.020825 0)
(0.0234842 0.0216295 0)
(0.0260969 0.0225361 0)
(0.0286562 0.023545 0)
(0.031155 0.0246564 0)
(0.0335855 0.0258704 0)
(0.0359397 0.0271868 0)
(0.0382092 0.0286053 0)
(0.040385 0.0301253 0)
(0.0424577 0.0317458 0)
(0.0444176 0.0334655 0)
(0.0462545 0.0352824 0)
(0.0479581 0.0371942 0)
(0.0495175 0.0391982 0)
(0.0509219 0.0412905 0)
(0.0521603 0.0434671 0)
(0.0532216 0.0457229 0)
(0.054095 0.048052 0)
(0.0547696 0.0504477 0)
(0.0552352 0.0529024 0)
(0.0554818 0.0554075 0)
(0.0555003 0.0579534 0)
(0.0552823 0.0605298 0)
(0.0548205 0.0631251 0)
(0.0541084 0.0657269 0)
(0.0531414 0.068322 0)
(0.051916 0.0708964 0)
(0.0504306 0.0734351 0)
(0.0486853 0.0759227 0)
(0.0466823 0.0783435 0)
(0.0444258 0.080681 0)
(0.0419221 0.082919 0)
(0.03918 0.0850412 0)
(0.0362104 0.0870314 0)
(0.0330266 0.088874 0)
(0.0296439 0.0905542 0)
(0.0260801 0.0920581 0)
(0.0223546 0.0933728 0)
(0.0184891 0.0944869 0)
(0.0145065 0.0953905 0)
(0.0104309 0.0960756 0)
(0.00628436 0.0965359 0)
(0.00209793 0.096767 0)
(0.00146555 0.0203027 0)
(0.00439175 0.0204159 0)
(0.00731048 0.0206423 0)
(0.0102193 0.0209823 0)
(0.013111 0.021436 0)
(0.0159803 0.0220039 0)
(0.0188217 0.0226865 0)
(0.0216295 0.0234842 0)
(0.0243976 0.0243976 0)
(0.0271195 0.0254271 0)
(0.0297883 0.0265731 0)
(0.0323968 0.027836 0)
(0.034937 0.029216 0)
(0.0374007 0.030713 0)
(0.0397793 0.0323268 0)
(0.0420633 0.0340569 0)
(0.0442431 0.0359022 0)
(0.0463084 0.0378614 0)
(0.0482486 0.0399325 0)
(0.0500527 0.0421132 0)
(0.0517092 0.0444002 0)
(0.0532067 0.0467897 0)
(0.0545332 0.0492769 0)
(0.0556769 0.0518564 0)
(0.0566259 0.0545215 0)
(0.0573686 0.0572647 0)
(0.0578937 0.0600776 0)
(0.0581901 0.0629503 0)
(0.0582477 0.0658721 0)
(0.0580571 0.068831 0)
(0.0576098 0.071814 0)
(0.0568986 0.0748067 0)
(0.0559178 0.077794 0)
(0.054663 0.0807597 0)
(0.0531319 0.0836865 0)
(0.051324 0.0865565 0)
(0.049241 0.0893514 0)
(0.0468869 0.092052 0)
(0.044268 0.0946394 0)
(0.0413932 0.0970944 0)
(0.0382737 0.0993981 0)
(0.0349234 0.101532 0)
(0.0313587 0.103479 0)
(0.0275983 0.105223 0)
(0.0236631 0.106747 0)
(0.0195762 0.10804 0)
(0.0153626 0.109088 0)
(0.0110481 0.109884 0)
(0.00665698 0.110418 0)
(0.00222252 0.110686 0)
(0.0015255 0.0225372 0)
(0.00457161 0.0226638 0)
(0.00761042 0.0229171 0)
(0.0106397 0.0232973 0)
(0.0136522 0.0238048 0)
(0.0166427 0.0244402 0)
(0.0196059 0.0252041 0)
(0.0225361 0.0260969 0)
(0.0254271 0.0271195 0)
(0.0282724 0.0282724 0)
(0.0310652 0.0295563 0)
(0.0337978 0.0309717 0)
(0.0364625 0.0325189 0)
(0.0390506 0.0341981 0)
(0.0415531 0.0360091 0)
(0.0439603 0.0379516 0)
(0.0462622 0.0400246 0)
(0.0484479 0.0422269 0)
(0.0505064 0.0445564 0)
(0.0524257 0.0470107 0)
(0.054194 0.0495864 0)
(0.0557986 0.0522794 0)
(0.057227 0.0550846 0)
(0.0584662 0.057996 0)
(0.0595033 0.0610065 0)
(0.0603257 0.0641077 0)
(0.0609207 0.0672902 0)
(0.0612763 0.0705432 0)
(0.0613811 0.0738545 0)
(0.0612242 0.0772109 0)
(0.0607962 0.0805974 0)
(0.0600885 0.0839981 0)
(0.0590944 0.0873955 0)
(0.0578085 0.0907711 0)
(0.0562275 0.0941055 0)
(0.0543502 0.0973779 0)
(0.0521778 0.100567 0)
(0.0497138 0.103651 0)
(0.0469645 0.106609 0)
(0.0439387 0.109416 0)
(0.0406482 0.112053 0)
(0.0371076 0.114497 0)
(0.0333343 0.116728 0)
(0.0293481 0.118727 0)
(0.0251718 0.120476 0)
(0.0208302 0.121959 0)
(0.0163503 0.123163 0)
(0.0117603 0.124076 0)
(0.00708704 0.124689 0)
(0.00236631 0.124997 0)
(0.00159214 0.0247181 0)
(0.00477156 0.0248581 0)
(0.00794391 0.0251381 0)
(0.0111071 0.0255586 0)
(0.014254 0.02612 0)
(0.0173795 0.0268229 0)
(0.0204784 0.027668 0)
(0.023545 0.0286562 0)
(0.0265731 0.0297883 0)
(0.0295563 0.0310652 0)
(0.0324876 0.0324876 0)
(0.0353593 0.0340563 0)
(0.0381634 0.0357719 0)
(0.040891 0.0376348 0)
(0.0435328 0.0396451 0)
(0.0460788 0.0418025 0)
(0.0485184 0.0441062 0)
(0.0508402 0.0465552 0)
(0.0530324 0.0491475 0)
(0.0550826 0.0518805 0)
(0.0569779 0.0547509 0)
(0.0587049 0.0577544 0)
(0.0602498 0.0608856 0)
(0.0615987 0.0641381 0)
(0.0627376 0.0675042 0)
(0.0636524 0.0709749 0)
(0.0643291 0.0745398 0)
(0.0647545 0.0781872 0)
(0.0649155 0.0819035 0)
(0.0648 0.085674 0)
(0.064397 0.0894821 0)
(0.0636967 0.0933098 0)
(0.0626908 0.0971377 0)
(0.061373 0.100945 0)
(0.0597386 0.104709 0)
(0.0577857 0.108407 0)
(0.0555146 0.112014 0)
(0.0529283 0.115505 0)
(0.050033 0.118856 0)
(0.0468376 0.122039 0)
(0.0433544 0.125032 0)
(0.0395985 0.127807 0)
(0.0355886 0.130342 0)
(0.031346 0.132615 0)
(0.0268951 0.134605 0)
(0.0222631 0.136293 0)
(0.0174792 0.137663 0)
(0.0125746 0.138703 0)
(0.0075788 0.139402 0)
(0.00253075 0.139754 0)
(0.00166547 0.0268386 0)
(0.00499159 0.026992 0)
(0.0083109 0.0272987 0)
(0.0116215 0.0277594 0)
(0.0149165 0.0283745 0)
(0.0181908 0.0291449 0)
(0.0214393 0.0300714 0)
(0.0246564 0.031155 0)
(0.027836 0.0323968 0)
(0.0309717 0.0337978 0)
(0.0340563 0.0353593 0)
(0.0370822 0.0370822 0)
(0.040041 0.0389673 0)
(0.0429237 0.0410154 0)
(0.0457207 0.0432268 0)
(0.0484215 0.0456015 0)
(0.0510149 0.0481391 0)
(0.0534892 0.0508385 0)
(0.0558317 0.0536981 0)
(0.0580292 0.0567153 0)
(0.0600679 0.0598868 0)
(0.0619333 0.0632082 0)
(0.0636107 0.066674 0)
(0.0650847 0.0702774 0)
(0.0663401 0.0740103 0)
(0.0673613 0.0778631 0)
(0.068133 0.0818245 0)
(0.06864 0.0858817 0)
(0.0688679 0.09002 0)
(0.0688028 0.0942232 0)
(0.068432 0.098473 0)
(0.0677441 0.102749 0)
(0.0667293 0.107031 0)
(0.0653796 0.111293 0)
(0.0636893 0.115512 0)
(0.061655 0.119661 0)
(0.0592764 0.123713 0)
(0.0565557 0.127639 0)
(0.0534988 0.131409 0)
(0.0501146 0.134996 0)
(0.0464158 0.138369 0)
(0.0424185 0.141501 0)
(0.0381424 0.144364 0)
(0.0336106 0.146933 0)
(0.0288496 0.149182 0)
(0.0238889 0.151092 0)
(0.0187607 0.152643 0)
(0.0134992 0.15382 0)
(0.00813722 0.154612 0)
(0.00271749 0.15501 0)
(0.00174546 0.0288918 0)
(0.00523163 0.0290584 0)
(0.00871131 0.0293918 0)
(0.0121829 0.0298925 0)
(0.0156395 0.0305612 0)
(0.0190764 0.0313989 0)
(0.0224885 0.0324066 0)
(0.0258704 0.0335855 0)
(0.029216 0.034937 0)
(0.0325189 0.0364625 0)
(0.0357719 0.0381634 0)
(0.0389673 0.040041 0)
(0.0420966 0.0420966 0)
(0.0451505 0.0443312 0)
(0.0481189 0.0467455 0)
(0.0509911 0.0493399 0)
(0.0537554 0.0521143 0)
(0.0563992 0.0550679 0)
(0.0589092 0.0581994 0)
(0.0612714 0.0615063 0)
(0.0634708 0.0649855 0)
(0.0654921 0.0686327 0)
(0.067319 0.0724421 0)
(0.068935 0.076407 0)
(0.0703232 0.0805186 0)
(0.0714665 0.0847669 0)
(0.0723477 0.08914 0)
(0.07295 0.093624 0)
(0.073257 0.0982031 0)
(0.0732529 0.10286 0)
(0.0729232 0.107573 0)
(0.0722543 0.112322 0)
(0.0712347 0.117082 0)
(0.0698546 0.121828 0)
(0.0681067 0.12653 0)
(0.0659863 0.13116 0)
(0.0634918 0.135686 0)
(0.0606248 0.140077 0)
(0.0573904 0.144299 0)
(0.0537978 0.148319 0)
(0.0498598 0.152103 0)
(0.0455935 0.15562 0)
(0.0410198 0.158838 0)
(0.0361639 0.161727 0)
(0.0310545 0.164259 0)
(0.0257239 0.166409 0)
(0.0202076 0.168157 0)
(0.0145434 0.169484 0)
(0.00876808 0.170376 0)
(0.00292848 0.170825 0)
(0.00183208 0.0308704 0)
(0.00549158 0.0310502 0)
(0.00914497 0.0314101 0)
(0.012791 0.0319506 0)
(0.0164228 0.0326726 0)
(0.0200361 0.0335772 0)
(0.0236259 0.0346658 0)
(0.0271868 0.0359397 0)
(0.030713 0.0374007 0)
(0.0341981 0.0390506 0)
(0.0376348 0.040891 0)
(0.0410154 0.0429237 0)
(0.0443312 0.0451505 0)
(0.0475727 0.0475727 0)
(0.0507294 0.0501915 0)
(0.0537903 0.0530078 0)
(0.0567429 0.0560218 0)
(0.0595742 0.0592332 0)
(0.0622701 0.0626411 0)
(0.0648154 0.0662433 0)
(0.0671942 0.070037 0)
(0.0693899 0.0740179 0)
(0.0713849 0.0781805 0)
(0.0731612 0.0825177 0)
(0.0747001 0.0870208 0)
(0.0759828 0.0916792 0)
(0.0769901 0.0964803 0)
(0.0777031 0.101409 0)
(0.0781034 0.10645 0)
(0.0781729 0.111582 0)
(0.0778947 0.116784 0)
(0.0772533 0.122032 0)
(0.0762347 0.127299 0)
(0.0748272 0.132557 0)
(0.0730215 0.137775 0)
(0.0708113 0.142918 0)
(0.0681933 0.147954 0)
(0.0651683 0.152844 0)
(0.0617407 0.157552 0)
(0.0579193 0.16204 0)
(0.0537175 0.16627 0)
(0.0491531 0.170205 0)
(0.0442487 0.173809 0)
(0.0390312 0.177046 0)
(0.0335321 0.179886 0)
(0.0277871 0.1823 0)
(0.0218352 0.184263 0)
(0.0157185 0.185753 0)
(0.00947812 0.186756 0)
(0.00316598 0.18726 0)
(0.00192529 0.0327669 0)
(0.00577129 0.0329598 0)
(0.00961165 0.0333459 0)
(0.0134454 0.0339259 0)
(0.0172661 0.0347007 0)
(0.0210696 0.0356718 0)
(0.024851 0.0368407 0)
(0.0286053 0.0382092 0)
(0.0323268 0.0397793 0)
(0.0360091 0.0415531 0)
(0.0396451 0.0435328 0)
(0.0432268 0.0457207 0)
(0.0467455 0.0481189 0)
(0.0501915 0.0507294 0)
(0.053554 0.053554 0)
(0.0568214 0.056594 0)
(0.0599808 0.0598502 0)
(0.0630184 0.0633229 0)
(0.0659193 0.0670115 0)
(0.0686673 0.0709146 0)
(0.0712454 0.0750294 0)
(0.0736356 0.0793522 0)
(0.0758188 0.0838776 0)
(0.0777753 0.0885986 0)
(0.0794847 0.0935063 0)
(0.080926 0.09859 0)
(0.082078 0.103837 0)
(0.0829194 0.10923 0)
(0.0834292 0.114754 0)
(0.083587 0.120385 0)
(0.0833733 0.126103 0)
(0.0827698 0.131879 0)
(0.0817602 0.137685 0)
(0.0803301 0.143489 0)
(0.078468 0.149257 0)
(0.0761653 0.154952 0)
(0.0734174 0.160534 0)
(0.0702233 0.165964 0)
(0.0665867 0.171198 0)
(0.062516 0.176194 0)
(0.0580247 0.180908 0)
(0.0531316 0.185298 0)
(0.0478608 0.189323 0)
(0.0422415 0.192943 0)
(0.0363083 0.19612 0)
(0.0301003 0.198823 0)
(0.0236609 0.201022 0)
(0.0170371 0.202693 0)
(0.0102751 0.203818 0)
(0.00343261 0.204383 0)
(0.00202499 0.0345736 0)
(0.00607055 0.0347794 0)
(0.010111 0.0351914 0)
(0.0141458 0.0358103 0)
(0.0181688 0.0366375 0)
(0.0221761 0.0376744 0)
(0.0261632 0.0389228 0)
(0.0301253 0.040385 0)
(0.0340569 0.0420633 0)
(0.0379516 0.0439603 0)
(0.0418025 0.0460788 0)
(0.0456015 0.0484215 0)
(0.0493399 0.0509911 0)
(0.0530078 0.0537903 0)
(0.056594 0.0568214 0)
(0.0600865 0.0600865 0)
(0.0634719 0.063587 0)
(0.0667355 0.067324 0)
(0.0698617 0.0712974 0)
(0.0728332 0.0755064 0)
(0.0756319 0.079949 0)
(0.0782381 0.0846217 0)
(0.0806313 0.0895197 0)
(0.08279 0.0946361 0)
(0.0846916 0.0999622 0)
(0.0863129 0.105487 0)
(0.0876304 0.111197 0)
(0.0886202 0.117077 0)
(0.0892585 0.123106 0)
(0.0895219 0.129264 0)
(0.089388 0.135525 0)
(0.0888356 0.141861 0)
(0.0878451 0.148241 0)
(0.0863995 0.154628 0)
(0.0844842 0.160986 0)
(0.0820885 0.167273 0)
(0.0792052 0.173446 0)
(0.0758318 0.179458 0)
(0.0719706 0.185263 0)
(0.0676296 0.190812 0)
(0.0628222 0.196055 0)
(0.057568 0.200944 0)
(0.0518929 0.20543 0)
(0.0458285 0.20947 0)
(0.0394127 0.21302 0)
(0.0326888 0.216041 0)
(0.0257051 0.218501 0)
(0.0185141 0.220371 0)
(0.0111681 0.221631 0)
(0.00373139 0.222264 0)
(0.00213112 0.0362825 0)
(0.00638907 0.036501 0)
(0.0106426 0.0369384 0)
(0.0148915 0.0375958 0)
(0.0191302 0.0384744 0)
(0.0233549 0.039576 0)
(0.0275616 0.040903 0)
(0.0317458 0.0424577 0)
(0.0359022 0.0442431 0)
(0.0400246 0.0462622 0)
(0.0441062 0.0485184 0)
(0.0481391 0.0510149 0)
(0.0521143 0.0537554 0)
(0.0560218 0.0567429 0)
(0.0598502 0.0599808 0)
(0.063587 0.0634719 0)
(0.0672183 0.0672183 0)
(0.0707288 0.071222 0)
(0.0741017 0.0754838 0)
(0.0773189 0.0800035 0)
(0.0803607 0.08478 0)
(0.0832063 0.0898105 0)
(0.0858332 0.0950907 0)
(0.0882179 0.100614 0)
(0.0903357 0.106373 0)
(0.092161 0.112355 0)
(0.0936675 0.118548 0)
(0.0948284 0.124935 0)
(0.0956168 0.131496 0)
(0.0960061 0.138208 0)
(0.0959704 0.145044 0)
(0.095485 0.151974 0)
(0.0945268 0.158964 0)
(0.0930753 0.165975 0)
(0.0911128 0.172966 0)
(0.0886252 0.179892 0)
(0.0856029 0.186703 0)
(0.082041 0.193349 0)
(0.0779403 0.199775 0)
(0.0733076 0.205928 0)
(0.0681564 0.21175 0)
(0.0625071 0.217186 0)
(0.056387 0.222182 0)
(0.0498307 0.226685 0)
(0.0428796 0.230646 0)
(0.0355818 0.234021 0)
(0.0279912 0.236771 0)
(0.0201666 0.238862 0)
(0.0121676 0.240271 0)
(0.00406585 0.24098 0)
(0.00224353 0.0378854 0)
(0.00672649 0.0381164 0)
(0.0112057 0.0385787 0)
(0.0156818 0.0392736 0)
(0.0201491 0.0402026 0)
(0.0246047 0.0413679 0)
(0.0290449 0.0427719 0)
(0.0334655 0.0444176 0)
(0.0378614 0.0463084 0)
(0.0422269 0.0484479 0)
(0.0465552 0.0508402 0)
(0.0508385 0.0534892 0)
(0.0550679 0.0563992 0)
(0.0592332 0.0595742 0)
(0.0633229 0.0630184 0)
(0.067324 0.0667355 0)
(0.071222 0.0707288 0)
(0.075001 0.075001 0)
(0.0786432 0.0795539 0)
(0.0821295 0.0843886 0)
(0.0854389 0.0895046 0)
(0.0885488 0.0949002 0)
(0.091435 0.100572 0)
(0.0940719 0.106514 0)
(0.0964324 0.112719 0)
(0.0984882 0.119175 0)
(0.10021 0.125871 0)
(0.101568 0.132788 0)
(0.102531 0.139906 0)
(0.10307 0.147202 0)
(0.103155 0.154647 0)
(0.102756 0.162208 0)
(0.101846 0.169849 0)
(0.100402 0.177529 0)
(0.0984007 0.185201 0)
(0.0958252 0.192816 0)
(0.0926622 0.20032 0)
(0.0889042 0.207654 0)
(0.0845497 0.21476 0)
(0.0796042 0.221574 0)
(0.0740807 0.228033 0)
(0.0680001 0.234073 0)
(0.0613916 0.239632 0)
(0.0542926 0.244648 0)
(0.0467487 0.249067 0)
(0.0388132 0.252835 0)
(0.0305465 0.255907 0)
(0.0220148 0.258246 0)
(0.0132857 0.259822 0)
(0.0044401 0.260615 0)
(0.00236207 0.0393741 0)
(0.00708236 0.0396172 0)
(0.0117998 0.0401038 0)
(0.0165154 0.0408352 0)
(0.0212244 0.0418133 0)
(0.0259241 0.0430406 0)
(0.0306114 0.0445198 0)
(0.0352824 0.0462545 0)
(0.0399325 0.0482486 0)
(0.0445564 0.0505064 0)
(0.0491475 0.0530324 0)
(0.0536981 0.0558317 0)
(0.0581994 0.0589092 0)
(0.0626411 0.0622701 0)
(0.0670115 0.0659193 0)
(0.0712974 0.0698617 0)
(0.0754838 0.0741017 0)
(0.0795539 0.0786432 0)
(0.0834893 0.0834893 0)
(0.0872696 0.0886421 0)
(0.0908724 0.0941025 0)
(0.0942736 0.0998699 0)
(0.097447 0.105942 0)
(0.100365 0.112313 0)
(0.102997 0.118978 0)
(0.105313 0.125926 0)
(0.10728 0.133143 0)
(0.108864 0.140614 0)
(0.110031 0.148317 0)
(0.110747 0.156228 0)
(0.110977 0.164317 0)
(0.110688 0.17255 0)
(0.109848 0.180887 0)
(0.108427 0.189283 0)
(0.1064 0.197689 0)
(0.103743 0.20605 0)
(0.100441 0.214306 0)
(0.0964813 0.222392 0)
(0.09186 0.230241 0)
(0.0865807 0.237783 0)
(0.0806556 0.244944 0)
(0.0741059 0.251652 0)
(0.0669624 0.257836 0)
(0.0592656 0.263424 0)
(0.0510658 0.268353 0)
(0.0424223 0.27256 0)
(0.0334027 0.275994 0)
(0.0240818 0.27861 0)
(0.0145368 0.280374 0)
(0.00485893 0.281262 0)
(0.00248657 0.0407402 0)
(0.00745611 0.0409949 0)
(0.0124238 0.0415049 0)
(0.0173913 0.0422717 0)
(0.0223545 0.0432974 0)
(0.0273112 0.0445846 0)
(0.0322589 0.0461369 0)
(0.0371942 0.0479581 0)
(0.0421132 0.0500527 0)
(0.0470107 0.0524257 0)
(0.0518805 0.0550826 0)
(0.0567153 0.0580292 0)
(0.0615063 0.0612714 0)
(0.0662433 0.0648154 0)
(0.0709146 0.0686673 0)
(0.0755064 0.0728332 0)
(0.0800035 0.0773189 0)
(0.0843886 0.0821295 0)
(0.0886421 0.0872696 0)
(0.0927427 0.0927427 0)
(0.0966666 0.0985512 0)
(0.100388 0.104696 0)
(0.103879 0.111176 0)
(0.107108 0.117987 0)
(0.110045 0.125125 0)
(0.112653 0.13258 0)
(0.114898 0.14034 0)
(0.116742 0.148388 0)
(0.118146 0.156704 0)
(0.11907 0.165263 0)
(0.119476 0.174034 0)
(0.119325 0.18298 0)
(0.11858 0.192061 0)
(0.117204 0.201227 0)
(0.115167 0.210425 0)
(0.112441 0.219594 0)
(0.109004 0.228668 0)
(0.10484 0.237576 0)
(0.0999404 0.246242 0)
(0.0943071 0.254585 0)
(0.0879505 0.262524 0)
(0.0808919 0.269974 0)
(0.0731636 0.276854 0)
(0.0648093 0.283081 0)
(0.0558844 0.288581 0)
(0.0464548 0.293282 0)
(0.0365967 0.297123 0)
(0.0263948 0.300051 0)
(0.0159374 0.302027 0)
(0.00532792 0.303021 0)
(0.00261678 0.0419751 0)
(0.00784707 0.042241 0)
(0.0130766 0.0427735 0)
(0.0183079 0.0435742 0)
(0.0235374 0.0446454 0)
(0.0287636 0.0459904 0)
(0.0339848 0.0476129 0)
(0.0391982 0.0495175 0)
(0.0444002 0.0517092 0)
(0.0495864 0.054194 0)
(0.0547509 0.0569779 0)
(0.0598868 0.0600679 0)
(0.0649855 0.0634708 0)
(0.070037 0.0671942 0)
(0.0750294 0.0712454 0)
(0.079949 0.0756319 0)
(0.08478 0.0803607 0)
(0.0895046 0.0854389 0)
(0.0941025 0.0908724 0)
(0.0985512 0.0966666 0)
(0.102826 0.102826 0)
(0.106898 0.109352 0)
(0.110739 0.116246 0)
(0.114314 0.123507 0)
(0.11759 0.13113 0)
(0.120527 0.139108 0)
(0.123088 0.14743 0)
(0.125228 0.15608 0)
(0.126906 0.165037 0)
(0.128076 0.174278 0)
(0.128694 0.183769 0)
(0.128715 0.193475 0)
(0.128094 0.20335 0)
(0.126791 0.213343 0)
(0.124767 0.223396 0)
(0.121987 0.233442 0)
(0.118423 0.243409 0)
(0.114055 0.253218 0)
(0.108869 0.262782 0)
(0.102863 0.272012 0)
(0.0960449 0.280813 0)
(0.0884358 0.289091 0)
(0.0800694 0.296748 0)
(0.0709927 0.303693 0)
(0.0612663 0.309835 0)
(0.0509642 0.315093 0)
(0.0401719 0.319393 0)
(0.0289858 0.322675 0)
(0.0175071 0.32489 0)
(0.00585366 0.326006 0)
(0.00275246 0.0430705 0)
(0.00825445 0.043347 0)
(0.0137569 0.0439007 0)
(0.0192633 0.0447336 0)
(0.0247707 0.0458483 0)
(0.0302787 0.0472482 0)
(0.0357859 0.0489377 0)
(0.0412905 0.0509219 0)
(0.0467897 0.0532067 0)
(0.0522794 0.0557986 0)
(0.0577544 0.0587049 0)
(0.0632082 0.0619333 0)
(0.0686327 0.0654921 0)
(0.0740179 0.0693899 0)
(0.0793522 0.0736356 0)
(0.0846217 0.0782381 0)
(0.0898105 0.0832063 0)
(0.0949002 0.0885488 0)
(0.0998699 0.0942736 0)
(0.104696 0.100388 0)
(0.109352 0.106898 0)
(0.113809 0.113809 0)
(0.118034 0.121123 0)
(0.121992 0.12884 0)
(0.125646 0.13696 0)
(0.128953 0.145475 0)
(0.131869 0.154378 0)
(0.134349 0.163652 0)
(0.136344 0.173281 0)
(0.137802 0.183237 0)
(0.138674 0.193491 0)
(0.138906 0.204003 0)
(0.138448 0.214727 0)
(0.13725 0.225609 0)
(0.135266 0.236585 0)
(0.132455 0.247584 0)
(0.12878 0.258526 0)
(0.124212 0.269323 0)
(0.118734 0.279879 0)
(0.112338 0.290091 0)
(0.10503 0.299853 0)
(0.0968271 0.309055 0)
(0.0877657 0.317586 0)
(0.0778958 0.325338 0)
(0.0672841 0.332206 0)
(0.0560129 0.338094 0)
(0.044179 0.342917 0)
(0.0318921 0.3466 0)
(0.0192688 0.349089 0)
(0.00644389 0.350343 0)
(0.00289327 0.044018 0)
(0.00867731 0.0443044 0)
(0.0144632 0.0448781 0)
(0.0202554 0.0457412 0)
(0.0260519 0.0468966 0)
(0.031853 0.0483482 0)
(0.0376585 0.0501008 0)
(0.0434671 0.0521603 0)
(0.0492769 0.0545332 0)
(0.0550846 0.057227 0)
(0.0608856 0.0602498 0)
(0.066674 0.0636107 0)
(0.0724421 0.067319 0)
(0.0781805 0.0713849 0)
(0.0838776 0.0758188 0)
(0.0895197 0.0806313 0)
(0.0950907 0.0858332 0)
(0.100572 0.091435 0)
(0.105942 0.097447 0)
(0.111176 0.103879 0)
(0.116246 0.110739 0)
(0.121123 0.118034 0)
(0.12577 0.12577 0)
(0.130151 0.133951 0)
(0.134225 0.142575 0)
(0.137945 0.151642 0)
(0.141264 0.161142 0)
(0.144131 0.171064 0)
(0.146491 0.181391 0)
(0.148287 0.192099 0)
(0.14946 0.203157 0)
(0.149951 0.214525 0)
(0.1497 0.226156 0)
(0.148649 0.237992 0)
(0.146742 0.249966 0)
(0.143928 0.262002 0)
(0.140162 0.27401 0)
(0.135407 0.285893 0)
(0.129637 0.297545 0)
(0.122837 0.308849 0)
(0.115009 0.319683 0)
(0.106169 0.329923 0)
(0.0963523 0.339438 0)
(0.0856125 0.348102 0)
(0.0740226 0.355794 0)
(0.0616745 0.3624 0)
(0.048678 0.367817 0)
(0.0351582 0.371961 0)
(0.0212498 0.374762 0)
(0.00710778 0.376174 0)
(0.00303888 0.0448094 0)
(0.00911457 0.0451049 0)
(0.0151937 0.0456971 0)
(0.0212818 0.046588 0)
(0.0273777 0.0477811 0)
(0.0334829 0.0492807 0)
(0.0395981 0.051092 0)
(0.0457229 0.0532216 0)
(0.0518564 0.0556769 0)
(0.057996 0.0584662 0)
(0.0641381 0.0615987 0)
(0.0702774 0.0650847 0)
(0.076407 0.068935 0)
(0.0825177 0.0731612 0)
(0.0885986 0.0777753 0)
(0.0946361 0.08279 0)
(0.100614 0.0882179 0)
(0.106514 0.0940719 0)
(0.112313 0.100365 0)
(0.117987 0.107108 0)
(0.123507 0.114314 0)
(0.12884 0.121992 0)
(0.133951 0.130151 0)
(0.138798 0.138798 0)
(0.143337 0.147934 0)
(0.147519 0.157562 0)
(0.151292 0.167676 0)
(0.154599 0.178267 0)
(0.157379 0.18932 0)
(0.159568 0.200814 0)
(0.161099 0.212718 0)
(0.161905 0.224993 0)
(0.161915 0.237591 0)
(0.161061 0.250452 0)
(0.159276 0.263505 0)
(0.156498 0.276667 0)
(0.152671 0.289842 0)
(0.147747 0.302922 0)
(0.14169 0.315787 0)
(0.134477 0.328307 0)
(0.126103 0.340343 0)
(0.116581 0.351749 0)
(0.105946 0.362377 0)
(0.0942524 0.372078 0)
(0.0815817 0.380709 0)
(0.068036 0.388134 0)
(0.0537397 0.394234 0)
(0.0388365 0.398905 0)
(0.0234823 0.402066 0)
(0.00785625 0.403661 0)
(0.00318885 0.0454368 0)
(0.00956502 0.0457406 0)
(0.0159463 0.0463494 0)
(0.0223395 0.0472657 0)
(0.0287445 0.048493 0)
(0.0351639 0.0500362 0)
(0.0415995 0.0519011 0)
(0.048052 0.054095 0)
(0.0545215 0.0566259 0)
(0.0610065 0.0595033 0)
(0.0675042 0.0627376 0)
(0.0740103 0.0663401 0)
(0.0805186 0.0703232 0)
(0.0870208 0.0747001 0)
(0.0935063 0.0794847 0)
(0.0999622 0.0846916 0)
(0.106373 0.0903357 0)
(0.112719 0.0964324 0)
(0.118978 0.102997 0)
(0.125125 0.110045 0)
(0.13113 0.11759 0)
(0.13696 0.125646 0)
(0.142575 0.134225 0)
(0.147934 0.143337 0)
(0.152989 0.152989 0)
(0.157686 0.163185 0)
(0.16197 0.173926 0)
(0.165776 0.185204 0)
(0.169038 0.19701 0)
(0.171684 0.209322 0)
(0.173639 0.222115 0)
(0.174824 0.235349 0)
(0.175159 0.248977 0)
(0.174563 0.262938 0)
(0.172957 0.277156 0)
(0.170265 0.291543 0)
(0.166417 0.305995 0)
(0.161352 0.320394 0)