/*--------------------------------*- C++ -*----------------------------------*\
| =========                 |                                                 |
| \\      /  F ield         | OpenFOAM: The Open Source CFD Toolbox           |
|  \\    /   O peration     | Version:  2406                                  |
|   \\  /    A nd           | Website:  www.openfoam.com                      |
|    \\/     M anipulation  |                                                 |
\*---------------------------------------------------------------------------*/
FoamFile
{
    version     2.0;
    format      ascii;
    arch        "LSB;label=32;scalar=64";
    class       volScalarField;
    location    "2.1";
    object      gradTy;
}
// * * * * * * * * * * * * * * * * * * * * * * * * * * * * * * * * * * * * * //

dimensions      [0 -1 0 1 0 0 0];

internalField   nonuniform List<scalar> 
2500
(
0.0122636
0.0123286
0.0124618
0.012661
0.0129266
0.0132587
0.0136574
0.014123
0.0146555
0.015255
0.0159214
0.0166547
0.0174546
0.0183208
0.0192529
0.0202499
0.0213112
0.0224353
0.0236207
0.0248657
0.0261678
0.0275246
0.0289327
0.0303888
0.0318885
0.0334274
0.0350003
0.0366014
0.0382244
0.0398625
0.0415083
0.043154
0.0447912
0.0464111
0.0480044
0.0495619
0.0510738
0.0525303
0.0539217
0.0552383
0.0564705
0.0576093
0.058646
0.0595726
0.0603819
0.0610673
0.0616237
0.0620464
0.0623301
0.0624595
0.0367397
0.0369379
0.0373367
0.037934
0.0387305
0.0397267
0.0409231
0.0423199
0.0439175
0.0457161
0.0477156
0.0499159
0.0523163
0.0549158
0.0577129
0.0607055
0.0638907
0.0672649
0.0708236
0.0745611
0.0784707
0.0825445
0.0867731
0.0911457
0.0956502
0.100273
0.104997
0.109807
0.114684
0.119606
0.124552
0.129498
0.134419
0.139288
0.144078
0.14876
0.153306
0.157686
0.16187
0.16583
0.169536
0.172961
0.17608
0.178867
0.181302
0.183363
0.185037
0.186309
0.18717
0.187586
0.0611366
0.061469
0.0621326
0.0631281
0.064456
0.0661169
0.0681116
0.0704407
0.0731048
0.0761042
0.0794391
0.083109
0.0871131
0.0914497
0.0961165
0.10111
0.106426
0.112057
0.117998
0.124238
0.130766
0.137569
0.144632
0.151937
0.159463
0.167188
0.175085
0.183126
0.191279
0.199511
0.207784
0.216058
0.224292
0.232441
0.240459
0.248298
0.25591
0.263245
0.270254
0.276887
0.283096
0.288836
0.294062
0.298734
0.302814
0.306269
0.309072
0.311201
0.312639
0.313357
0.085427
0.0858918
0.0868209
0.0882151
0.0900751
0.092402
0.0951967
0.0984601
0.102193
0.106397
0.111071
0.116215
0.121829
0.12791
0.134454
0.141458
0.148915
0.156818
0.165154
0.173913
0.183079
0.192633
0.202554
0.212818
0.223395
0.234254
0.245358
0.256668
0.268138
0.279723
0.291368
0.303018
0.314615
0.326095
0.337394
0.348444
0.359176
0.36952
0.379406
0.388764
0.397527
0.405629
0.413006
0.419602
0.425362
0.430241
0.434196
0.437196
0.439214
0.440226
0.109534
0.110132
0.111327
0.113121
0.115514
0.118508
0.122105
0.126305
0.13111
0.136522
0.14254
0.149165
0.156395
0.164228
0.172661
0.181688
0.191302
0.201491
0.212244
0.223545
0.235374
0.247707
0.260519
0.273777
0.287445
0.301482
0.315841
0.330471
0.345315
0.360311
0.375392
0.390485
0.405514
0.420398
0.435051
0.449387
0.463315
0.476744
0.489583
0.50174
0.513126
0.523656
0.533247
0.541823
0.549314
0.555658
0.560802
0.564701
0.567321
0.568636
0.133405
0.134136
0.135597
0.137791
0.140719
0.144382
0.148782
0.153922
0.159803
0.166427
0.173795
0.181908
0.190764
0.200361
0.210696
0.221761
0.233549
0.246047
0.259241
0.273112
0.287636
0.302787
0.31853
0.334829
0.351639
0.36891
0.386586
0.404603
0.422892
0.441377
0.459975
0.478597
0.497148
0.515528
0.533633
0.551352
0.568575
0.585188
0.601077
0.616128
0.63023
0.643275
0.655161
0.665792
0.675079
0.682946
0.689325
0.694159
0.697407
0.699038
0.156982
0.157847
0.159575
0.16217
0.165634
0.169967
0.175174
0.181256
0.188217
0.196059
0.204784
0.214393
0.224885
0.236259
0.24851
0.261632
0.275616
0.290449
0.306114
0.322589
0.339848
0.357859
0.376585
0.395981
0.415995
0.436568
0.457635
0.479121
0.500943
0.523011
0.545227
0.567484
0.589668
0.611661
0.633335
0.65456
0.675201
0.695121
0.714182
0.732246
0.749178
0.764848
0.77913
0.791908
0.803075
0.812536
0.820208
0.826023
0.82993
0.831891
0.18021
0.181208
0.183204
0.186201
0.190201
0.195206
0.201222
0.20825
0.216295
0.225361
0.23545
0.246564
0.258704
0.271868
0.286053
0.301253
0.317458
0.334655
0.352824
0.371942
0.391982
0.412905
0.434671
0.457229
0.48052
0.504477
0.529024
0.554075
0.579534
0.605298
0.631251
0.657269
0.68322
0.708964
0.734351
0.759227
0.783435
0.80681
0.82919
0.850412
0.870314
0.88874
0.905542
0.920581
0.933728
0.944869
0.953905
0.960756
0.965359
0.96767
0.203027
0.204159
0.206423
0.209823
0.21436
0.220039
0.226865
0.234842
0.243976
0.254271
0.265731
0.27836
0.29216
0.30713
0.323268
0.340569
0.359022
0.378614
0.399325
0.421132
0.444002
0.467897
0.492769
0.518564
0.545215
0.572647
0.600776
0.629503
0.658721
0.68831
0.71814
0.748067
0.77794
0.807597
0.836865
0.865565
0.893514
0.92052
0.946394
0.970944
0.993981
1.01532
1.03479
1.05223
1.06747
1.0804
1.09088
1.09884
1.10418
1.10686
0.225372
0.226638
0.229171
0.232973
0.238048
0.244402
0.252041
0.260969
0.271195
0.282724
0.295563
0.309717
0.325189
0.341981
0.360091
0.379516
0.400246
0.422269
0.445564
0.470107
0.495864
0.522794
0.550846
0.57996
0.610065
0.641077
0.672902
0.705432
0.738545
0.772109
0.805974
0.839981
0.873955
0.907711
0.941055
0.973779
1.00567
1.03651
1.06609
1.09416
1.12053
1.14497
1.16728
1.18727
1.20476
1.21959
1.23163
1.24076
1.24689
1.24997
0.247181
0.248581
0.251381
0.255586
0.2612
0.268229
0.27668
0.286562
0.297883
0.310652
0.324876
0.340563
0.357719
0.376348
0.396451
0.418025
0.441062
0.465552
0.491475
0.518805
0.547509
0.577544
0.608856
0.641381
0.675042
0.709749
0.745398
0.781872
0.819035
0.85674
0.894821
0.933098
0.971377
1.00945
1.04709
1.08407
1.12014
1.15505
1.18856
1.22039
1.25032
1.27807
1.30342
1.32615
1.34605
1.36293
1.37663
1.38703
1.39402
1.39754
0.268386
0.26992
0.272987
0.277594
0.283745
0.291449
0.300714
0.31155
0.323968
0.337978
0.353593
0.370822
0.389673
0.410154
0.432268
0.456015
0.481391
0.508385
0.536981
0.567153
0.598868
0.632082
0.66674
0.702774
0.740103
0.778631
0.818245
0.858817
0.9002
0.942232
0.98473
1.02749
1.07031
1.11293
1.15512
1.19661
1.23713
1.27639
1.31409
1.34996
1.38369
1.41501
1.44364
1.46933
1.49182
1.51092
1.52643
1.5382
1.54612
1.5501
0.288918
0.290584
0.293918
0.298925
0.305612
0.313989
0.324066
0.335855
0.34937
0.364625
0.381634
0.40041
0.420966
0.443312
0.467455
0.493399
0.521143
0.550679
0.581994
0.615063
0.649855
0.686327
0.724421
0.76407
0.805186
0.847669
0.8914
0.93624
0.982031
1.0286
1.07573
1.12322
1.17082
1.21828
1.2653
1.3116
1.35686
1.40077
1.44299
1.48319
1.52103
1.5562
1.58838
1.61727
1.64259
1.66409
1.68157
1.69484
1.70376
1.70825
0.308704
0.310502
0.314101
0.319506
0.326726
0.335772
0.346658
0.359397
0.374007
0.390506
0.40891
0.429237
0.451505
0.475727
0.501915
0.530078
0.560218
0.592332
0.626411
0.662433
0.70037
0.740179
0.781805
0.825177
0.870208
0.916792
0.964803
1.01409
1.0645
1.11582
1.16784
1.22032
1.27299
1.32557
1.37775
1.42918
1.47954
1.52844
1.57552
1.6204
1.6627
1.70205
1.73809
1.77046
1.79886
1.823
1.84263
1.85753
1.86756
1.8726
0.327669
0.329598
0.333459
0.339259
0.347007
0.356718
0.368407
0.382092
0.397793
0.415531
0.435328
0.457207
0.481189
0.507294
0.53554
0.56594
0.598502
0.633229
0.670115
0.709146
0.750294
0.793522
0.838776
0.885986
0.935063
0.9859
1.03837
1.0923
1.14754
1.20385
1.26103
1.31879
1.37685
1.43489
1.49257
1.54952
1.60534
1.65964
1.71198
1.76194
1.80908
1.85298
1.89323
1.92943
1.9612
1.98823
2.01022
2.02693
2.03818
2.04383
0.345736
0.347794
0.351914
0.358103
0.366375
0.376744
0.389228
0.40385
0.420633
0.439603
0.460788
0.484215
0.509911
0.537903
0.568214
0.600865
0.63587
0.67324
0.712974
0.755064
0.79949
0.846217
0.895197
0.946361
0.999622
1.05487
1.11197
1.17077
1.23106
1.29264
1.35525
1.41861
1.48241
1.54628
1.60986
1.67273
1.73446
1.79458
1.85263
1.90812
1.96055
2.00944
2.0543
2.0947
2.1302
2.16041
2.18501
2.20371
2.21631
2.22264
0.362825
0.36501
0.369384
0.375958
0.384744
0.39576
0.40903
0.424577
0.442431
0.462622
0.485184
0.510149
0.537554
0.567429
0.599808
0.634719
0.672183
0.71222
0.754838
0.800035
0.8478
0.898105
0.950907
1.00614
1.06373
1.12355
1.18548
1.24935
1.31496
1.38208
1.45044
1.51974
1.58964
1.65975
1.72966
1.79892
1.86703
1.93349
1.99775
2.05928
2.1175
2.17186
2.22182
2.26685
2.30646
2.34021
2.36771
2.38862
2.40271
2.4098
0.378854
0.381164
0.385787
0.392736
0.402026
0.413679
0.427719
0.444176
0.463084
0.484479
0.508402
0.534892
0.563992
0.595742
0.630184
0.667355
0.707288
0.75001
0.795539
0.843886
0.895046
0.949002
1.00572
1.06514
1.12719
1.19175
1.25871
1.32788
1.39906
1.47202
1.54647
1.62208
1.69849
1.77529
1.85201
1.92816
2.0032
2.07654
2.1476
2.21574
2.28033
2.34073
2.39632
2.44648
2.49067
2.52835
2.55907
2.58246
2.59822
2.60615
0.393741
0.396172
0.401038
0.408352
0.418133
0.430406
0.445198
0.462545
0.482486
0.505064
0.530324
0.558317
0.589092
0.622701
0.659193
0.698617
0.741017
0.786432
0.834893
0.886421
0.941025
0.998699
1.05942
1.12313
1.18978
1.25926
1.33143
1.40614
1.48317
1.56228
1.64317
1.7255
1.80887
1.89283
1.97689
2.0605
2.14306
2.22392
2.30241
2.37783
2.44944
2.51652
2.57836
2.63424
2.68353
2.7256
2.75994
2.7861
2.80374
2.81262
0.407402
0.409949
0.415049
0.422717
0.432974
0.445846
0.461369
0.479581
0.500527
0.524257
0.550826
0.580292
0.612714
0.648154
0.686673
0.728332
0.773189
0.821295
0.872696
0.927427
0.985512
1.04696
1.11176
1.17987
1.25125
1.3258
1.4034
1.48388
1.56704
1.65263
1.74034
1.8298
1.92061
2.01227
2.10425
2.19594
2.28668
2.37576
2.46242
2.54585
2.62524
2.69974
2.76854
2.83081
2.88581
2.93282
2.97123
3.00051
3.02027
3.03021
0.419751
0.42241
0.427735
0.435742
0.446454
0.459904
0.476129
0.495175
0.517092
0.54194
0.569779
0.600679
0.634708
0.671942
0.712454
0.756319
0.803607
0.854389
0.908724
0.966666
1.02826
1.09352
1.16246
1.23507
1.3113
1.39108
1.4743
1.5608
1.65037
1.74278
1.83769
1.93475
2.0335
2.13343
2.23396
2.33442
2.43409
2.53218
2.62782
2.72012
2.80813
2.89091
2.96748
3.03693
3.09835
3.15093
3.19393
3.22675
3.2489
3.26006
0.430705
0.43347
0.439007
0.447336
0.458483
0.472482
0.489377
0.509219
0.532067
0.557986
0.587049
0.619333
0.654921
0.693899
0.736356
0.782381
0.832063
0.885488
0.942736
1.00388
1.06898
1.13809
1.21123
1.2884
1.3696
1.45475
1.54378
1.63652
1.73281
1.83237
1.93491
2.04003
2.14727
2.25609
2.36585
2.47584
2.58526
2.69323
2.79879
2.90091
2.99853
3.09055
3.17586
3.25338
3.32206
3.38094
3.42917
3.466
3.49089
3.50343
0.44018
0.443044
0.448781
0.457412
0.468966
0.483482
0.501008
0.521603
0.545332
0.57227
0.602498
0.636107
0.67319
0.713849
0.758188
0.806313
0.858332
0.91435
0.97447
1.03879
1.10739
1.18034
1.2577
1.33951
1.42575
1.51642
1.61142
1.71064
1.81391
1.92099
2.03157
2.14525
2.26156
2.37992
2.49966
2.62002
2.7401
2.85893
2.97545
3.08849
3.19683
3.29923
3.39438
3.48102
3.55794
3.624
3.67817
3.71961
3.74762
3.76174
0.448094
0.451049
0.456971
0.46588
0.477811
0.492807
0.51092
0.532216
0.556769
0.584662
0.615987
0.650847
0.68935
0.731612
0.777753
0.8279
0.882179
0.940719
1.00365
1.07108
1.14314
1.21992
1.30151
1.38798
1.47934
1.57562
1.67676
1.78267
1.8932
2.00814
2.12718
2.24993
2.37591
2.50452
2.63505
2.76667
2.89842
3.02922
3.15787
3.28307
3.40343
3.51749
3.62377
3.72078
3.80709
3.88134
3.94234
3.98905
4.02066
4.03661
0.454368
0.457406
0.463494
0.472657
0.48493
0.500362
0.519011
0.54095
0.566259
0.595033
0.627376
0.663401
0.703232
0.747001
0.794847
0.846916
0.903357
0.964324
1.02997
1.10045
1.1759
1.25646
1.34225
1.43337
1.52989
1.63185
1.73926
1.85204
1.9701
2.09322
2.22115
2.35349
2.48977
2.62938
2.77156
2.91543
3.05995
3.20394
3.34606
3.48483
3.61867
3.74591
3.86482
3.97364
4.0707
4.15438
4.22324
4.27605
4.31182
4.32987
0.458926
0.462038
0.468273
0.477659
0.490236
0.506055
0.525183
0.547696
0.573686
0.603257
0.636524
0.673613
0.714665
0.759828
0.80926
0.863129
0.92161
0.984882
1.05313
1.12653
1.20527
1.28953
1.37945
1.47519
1.57686
1.68456
1.79832
1.91813
2.04393
2.17556
2.31278
2.45524
2.60246
2.75384
2.90859
3.06578
3.22429
3.38283
3.53991
3.69386
3.84289
3.98506
4.11834
4.2407
4.35012
4.44468
4.52265
4.58254
4.62315
4.64366
0.461698
0.464872
0.471233
0.48081
0.493646
0.509799
0.529339
0.552352
0.578937
0.609207
0.643291
0.68133
0.723477
0.769901
0.82078
0.876304
0.936675
1.0021
1.0728
1.14898
1.23088
1.31869
1.41264
1.51292
1.6197
1.73311
1.85327
1.98022
2.11395
2.25436
2.40126
2.55435
2.71316
2.8771
3.04539
3.21705
3.39089
3.56548
3.7392
3.91018
4.07635
4.23547
4.38521
4.52313
4.64683
4.75403
4.84261
4.91076
4.95704
4.98044
0.462617
0.465842
0.472304
0.482036
0.495084
0.51151
0.531391
0.554818
0.581901
0.612763
0.647545
0.6864
0.7295
0.777031
0.829194
0.886202
0.948284
1.01568
1.08864
1.16742
1.25228
1.34349
1.44131
1.54599
1.65776
1.77683
1.90337
2.03751
2.1793
2.32872
2.48565
2.64984
2.82088
2.99821
3.18104
3.36839
3.55899
3.75131
3.94356
4.13364
4.3192
4.49767
4.66628
4.82218
4.96248
5.08442
5.18544
5.26332
5.31628
5.34308
0.461627
0.464888
0.471425
0.481273
0.49448
0.511113
0.531254
0.555003
0.582477
0.613811
0.649155
0.688679
0.73257
0.781034
0.834292
0.892585
0.956168
1.02531
1.10031
1.18146
1.26906
1.36344
1.46491
1.57379
1.69038
1.81497
1.94781
2.08911
2.23902
2.39761
2.56485
2.74057
2.92445
3.11596
3.31438
3.5187
3.72761
3.9395
4.15238
4.36394
4.57151
4.77209
4.96246
5.13922
5.29891
5.43817
5.55385
5.64324
5.70412
5.73496
0.458675
0.461959
0.468543
0.478463
0.491772
0.50854
0.528855
0.552823
0.580571
0.612242
0.648
0.688028
0.732529
0.781729
0.83587
0.895219
0.960061
1.0307
1.10747
1.1907
1.28076
1.37802
1.48287
1.59568
1.71684
1.84673
1.98569
2.13404
2.29204
2.45987
2.63762
2.82523
3.02248
3.22897
3.444
3.66662
3.8955
4.12894
4.36481
4.60054
4.83311
5.05907
5.27462
5.47571
5.65816
5.81787
5.95097
6.05408
6.12443
6.1601
0.453719
0.457011
0.463611
0.473558
0.486907
0.503732
0.524127
0.548205
0.576098
0.607962
0.64397
0.68432
0.729232
0.778947
0.833733
0.89388
0.959704
1.03155
1.10977
1.19476
1.28694
1.38674
1.4946
1.61099
1.73639
1.87126
2.01607
2.17125
2.33718
2.5142
2.70253
2.90228
3.11337
3.33553
3.56818
3.81044
4.06102
4.31817
4.57963
4.84258
5.10361
5.35876
5.60356
5.83317
6.04251
6.22654
6.38047
6.50004
6.58179
6.6233
0.44673
0.450013
0.456596
0.466521
0.479844
0.496643
0.517017
0.541084
0.568986
0.600885
0.636967
0.677441
0.722543
0.772533
0.827698
0.888356
0.95485
1.02756
1.10688
1.19325
1.28715
1.38906
1.49951
1.61905
1.74824
1.88767
2.03792
2.19957
2.37315
2.55916
2.75802
2.97
3.19525
3.43366
3.68485
3.94806
4.22212
4.50527
4.79517
5.08875
5.38223
5.67106
5.94998
6.21318
6.45449
6.66764
6.84665
6.98614
7.08174
7.13035
0.437685
0.440942
0.447475
0.457325
0.470552
0.487237
0.507483
0.531414
0.559178
0.590944
0.626908
0.667293
0.712347
0.762347
0.817602
0.878451
0.945268
1.01846
1.09848
1.1858
1.28094
1.38448
1.497
1.61915
1.75159
1.89503
2.05019
2.21779
2.39856
2.59318
2.8023
3.02643
3.26595
3.52103
3.79153
4.07694
4.37622
4.68776
5.00917
5.33721
5.66771
5.99547
6.31434
6.61733
6.89687
7.14515
7.35461
7.51842
7.63097
7.68828
0.426577
0.42979
0.436236
0.445957
0.459015
0.475494
0.495499
0.51916
0.54663
0.578085
0.61373
0.653796
0.698546
0.748272
0.803301
0.863995
0.930753
1.00402
1.08427
1.17204
1.26791
1.3725
1.48649
1.61061
1.74563
1.89239
2.05176
2.22463
2.41192
2.61457
2.83344
3.06937
3.32304
3.59495
3.88531
4.19394
4.52012
4.86244
5.21862
5.58533
5.95805
6.33091
6.69674
7.04712
7.3727
7.66368
7.91043
8.10417
8.23766
8.30574
0.41341
0.416561
0.422882
0.432418
0.445231
0.461407
0.481055
0.504306
0.531319
0.562275
0.597386
0.636893
0.681067
0.730215
0.78468
0.844842
0.911128
0.984007
1.064
1.15167
1.24767
1.35266
1.46742
1.59276
1.72957
1.87882
2.04152
2.21876
2.4117
2.6215
2.84935
3.09641
3.36376
3.65232
3.96275
4.29536
4.64987
5.02527
5.41956
5.82949
6.2503
6.67548
7.09669
7.50381
7.88524
8.22858
8.5214
8.75232
8.9119
8.99343
0.398203
0.401272
0.407431
0.416724
0.429213
0.444987
0.464156
0.486853
0.51324
0.543502
0.577857
0.61655
0.659863
0.708113
0.761653
0.820885
0.886252
0.958252
1.03743
1.12441
1.21987
1.32455
1.43928
1.56498
1.70265
1.85338
2.01836
2.19887
2.3963
2.6121
2.8478
3.10494
3.38507
3.68963
4.01988
4.37674
4.76062
5.17112
5.60681
6.06474
6.54015
7.02601
7.51275
7.9882
8.43793
8.84603
9.19632
9.47386
9.66625
9.76472
0.38099
0.383958
0.389915
0.398905
0.410991
0.426262
0.444827
0.466823
0.49241
0.521778
0.555146
0.592764
0.634918
0.681933
0.734174
0.792052
0.856029
0.926622
1.00441
1.09004
1.18423
1.2878
1.40162
1.52671
1.66417
1.81522
1.98122
2.16365
2.36414
2.58445
2.82647
3.09218
3.38367
3.70301
4.05217
4.43292
4.84655
5.29365
5.77366
6.28439
6.82146
7.37758
7.94202
8.50025
9.0342
9.52324
9.94597
10.2825
10.5165
10.6364
0.361818
0.364666
0.370382
0.379009
0.390612
0.405277
0.423114
0.444258
0.468869
0.497138
0.529283
0.565557
0.606248
0.651683
0.702233
0.758318
0.82041
0.889042
0.964813
1.0484
1.14055
1.24212
1.35407
1.47747
1.61352
1.76357
1.92913
2.11189
2.3137
2.53666
2.78302
3.05527
3.35607
3.68822
4.05457
4.45791
4.90075
5.38501
5.91154
6.4795
7.08552
7.72265
8.37931
9.03842
9.67725
10.2686
10.7837
11.1956
11.4827
11.63
0.340751
0.343459
0.348895
0.357101
0.368139
0.382096
0.399079
0.419221
0.44268
0.469645
0.50033
0.534988
0.573904
0.617407
0.665867
0.719706
0.779403
0.845497
0.9186
0.999404
1.08869
1.18734
1.29637
1.4169
1.55022
1.69779
1.86125
2.04248
2.24358
2.46692
2.71518
2.99133
3.29867
3.64079
4.02156
4.44501
4.91517
5.43576
6.00966
6.63824
7.32016
8.0499
8.81589
9.59861
10.3695
11.0921
11.7262
12.2353
12.5904
12.7726
0.317869
0.320418
0.325534
0.33326
0.343656
0.356804
0.372809
0.3918
0.413932
0.439387
0.468376
0.501146
0.537978
0.579193
0.62516
0.676296
0.733076
0.796042
0.865807
0.943071
1.02863
1.12338
1.22837
1.34477
1.47393
1.61739
1.77692
1.95453
2.15256
2.37366
2.62086
2.89763
3.20792
3.55617
3.94735
4.38691
4.8807
5.43472
6.05468
6.74521
7.50856
8.3425
9.23736
10.1723
11.1117
12.0055
12.7956
13.4305
13.8727
14.0991
0.293266
0.295637
0.300397
0.307586
0.317262
0.329502
0.344409
0.362104
0.382737
0.406482
0.433544
0.464158
0.498598
0.537175
0.580247
0.628222
0.681564
0.740807
0.806556
0.879505
0.960449
1.0503
1.15009
1.26103
1.38451
1.52212
1.6757
1.84741
2.03974
2.25556
2.49826
2.77174
3.08056
3.43
3.82614
4.27598
4.78742
5.36917
6.03056
6.78083
7.62785
8.57569
9.62028
10.7428
11.9012
13.0242
14.0217
14.82
15.3723
15.6536
0.267051
0.269227
0.273595
0.280193
0.289074
0.300314
0.314005
0.330266
0.349234
0.371076
0.395985
0.424185
0.455935
0.491531
0.531316
0.57568
0.625071
0.680001
0.741059
0.808919
0.884358
0.968271
1.06169
1.16581
1.28203
1.41196
1.55748
1.72082
1.90456
2.11178
2.34607
2.61173
2.91381
3.25836
3.65251
4.10475
4.6251
5.22531
5.9189
6.72104
7.64769
8.71347
9.92664
11.279
12.7272
14.17
15.4483
16.4568
17.1442
17.4909
0.23935
0.241314
0.245256
0.251212
0.25923
0.269379
0.281746
0.296439
0.313587
0.333343
0.355886
0.381424
0.410198
0.442487
0.478608
0.518929
0.56387
0.613916
0.669624
0.731636
0.800694
0.877657
0.963523
1.05946
1.16681
1.28719
1.42246
1.57484
1.74696
1.94197
2.1636
2.41638
2.70573
3.03824
3.42193
3.86657
4.38412
4.98924
5.69989
6.53795
7.52964
8.70508
10.0951
11.7203
13.5602
15.4813
17.1462
18.4159
19.2582
19.6761
0.210301
0.212037
0.215522
0.220788
0.227879
0.236855
0.247797
0.260801
0.275983
0.293481
0.31346
0.336106
0.361639
0.390312
0.422415
0.458285
0.498307
0.542926
0.592656
0.648093
0.709927
0.778958
0.856125
0.942524
1.03944
1.14841
1.27122
1.41003
1.56742
1.74648
1.95096
2.18543
2.45547
2.76797
3.13143
3.55652
4.05662
4.64871
5.35455
6.20232
7.22892
8.4832
10.0295
11.9483
14.3129
17.05
19.2404
20.8034
21.7979
22.2803
0.180053
0.181548
0.184549
0.189083
0.195188
0.202919
0.212343
0.223546
0.236631
0.251718
0.268951
0.288496
0.310545
0.335321
0.363083
0.394127
0.428796
0.467487
0.510658
0.558844
0.612663
0.672841
0.740226
0.815817
0.900792
0.996554
1.10477
1.22746
1.36702
1.5264
1.70918
1.91978
2.16364
2.4476
2.78021
3.17237
3.63803
4.19535
4.86823
5.6888
6.7015
7.97022
9.59252
11.7312
14.6943
19.1664
21.963
23.7606
24.8505
25.3678
0.14877
0.150012
0.152506
0.156271
0.16134
0.167758
0.175585
0.184891
0.195762
0.208302
0.222631
0.238889
0.257239
0.277871
0.301003
0.326888
0.355818
0.388132
0.424223
0.464548
0.509642
0.560129
0.616745
0.68036
0.752002
0.832903
0.924537
1.02868
1.1475
1.28363
1.44031
1.62158
1.83247
2.07932
2.3702
2.71547
3.12859
3.62724
4.235
4.98397
5.91887
7.10449
8.63997
10.6905
13.5674
17.9592
20.6854
22.4264
23.4766
23.9736
0.116624
0.117603
0.11957
0.122535
0.126525
0.131578
0.137738
0.145065
0.153626
0.163503
0.174792
0.187607
0.202076
0.218352
0.236609
0.257051
0.279912
0.305465
0.334027
0.365967
0.401719
0.44179
0.48678
0.537397
0.594488
0.659063
0.732342
0.815801
0.911241
1.02088
1.14745
1.29437
1.46595
1.66764
1.90644
2.19138
2.53427
2.95065
3.46124
4.09386
4.88621
5.88958
7.17302
8.82415
10.9264
13.4183
15.3936
16.7835
17.6568
18.0769
0.0837946
0.084501
0.085928
0.0880682
0.0909452
0.0945867
0.0990273
0.104309
0.110481
0.117603
0.125746
0.134992
0.145434
0.157185
0.170371
0.185141
0.201666
0.220148
0.240818
0.263948
0.289858
0.318921
0.351582
0.388365
0.429899
0.476939
0.530394
0.591373
0.661232
0.741643
0.834685
0.942966
1.06978
1.21933
1.39701
1.60983
1.86694
2.18037
2.56596
3.04453
3.64305
4.39512
5.33893
6.50714
7.89637
9.39467
10.6876
11.6579
12.2907
12.6009
0.0504702
0.0508833
0.0517467
0.0530399
0.0547769
0.0569751
0.0596555
0.0628436
0.0665698
0.0708704
0.075788
0.0813722
0.0876808
0.0947812
0.102751
0.111681
0.121676
0.132857
0.145368
0.159374
0.175071
0.192688
0.212498
0.234823
0.260052
0.288649
0.321178
0.358326
0.400935
0.450046
0.506961
0.57331
0.651164
0.743168
0.852732
0.984282
1.14359
1.33822
1.578
1.87557
2.24663
2.70924
3.28073
3.96944
4.75754
5.57664
6.30473
6.87001
7.24769
7.43527
0.0168541
0.0169836
0.0172698
0.0177018
0.0182825
0.0190174
0.0199135
0.0209793
0.0222252
0.0236631
0.0253075
0.0271749
0.0292848
0.0316598
0.0343261
0.0373139
0.0406585
0.044401
0.0485893
0.0532792
0.0585366
0.0644389
0.0710778
0.0785625
0.0870238
0.096619
0.107539
0.120016
0.134336
0.150853
0.170009
0.19236
0.218612
0.249668
0.286693
0.331199
0.385158
0.451141
0.532471
0.633363
0.758914
0.914716
1.10557
1.33256
1.58796
1.84987
2.08488
2.26995
2.395
2.45753
)
;

boundaryField
{
    walls
    {
        type            calculated;
        value           nonuniform List<scalar> 
200
(
0
0
0
0
0
0
0
0
0
0
0
0
0
0
0
0
0
0
0
0
0
0
0
0
0
0
0
0
0
0
0
0
0
0
0
0
0
0
0
0
0
0
0
0
0
0
0
0
0
0
0.0122636
0.0367397
0.0611366
0.085427
0.109534
0.133405
0.156982
0.18021
0.203027
0.225372
0.247181
0.268386
0.288918
0.308704
0.327669
0.345736
0.362825
0.378854
0.393741
0.407402
0.419751
0.430705
0.44018
0.448094
0.454368
0.458926
0.461698
0.462617
0.461627
0.458675
0.453719
0.44673
0.437685
0.426577
0.41341
0.398203
0.38099
0.361818
0.340751
0.317869
0.293266
0.267051
0.23935
0.210301
0.180053
0.14877
0.116624
0.0837946
0.0504702
0.0168541
0.0624595
0.187586
0.313357
0.440226
0.568636
0.699038
0.831891
0.96767
1.10686
1.24997
1.39754
1.5501
1.70825
1.8726
2.04383
2.22264
2.4098
2.60615
2.81262
3.03021
3.26006
3.50343
3.76174
4.03661
4.32987
4.64366
4.98044
5.34308
5.73496
6.1601
6.6233
7.13035
7.68828
8.30574
8.99343
9.76472
10.6364
11.63
12.7726
14.0991
15.6536
17.4909
19.6761
22.2803
25.3678
23.9736
18.0769
12.6009
7.43527
2.45753
0
0
0
0
0
0
0
0
0
0
0
0
0
0
0
0
0
0
0
0
0
0
0
0
0
0
0
0
0
0
0
0
0
0
0
0
0
0
0
0
0
0
0
0
0
0
0
0
0
0
)
;
    }
    frontAndBack
    {
        type            empty;
    }
}


// ************************************************************************* //
