/*--------------------------------*- C++ -*----------------------------------*\
| =========                 |                                                 |
| \\      /  F ield         | OpenFOAM: The Open Source CFD Toolbox           |
|  \\    /   O peration     | Version:  2406                                  |
|   \\  /    A nd           | Website:  www.openfoam.com                      |
|    \\/     M anipulation  |                                                 |
\*---------------------------------------------------------------------------*/
FoamFile
{
    version     2.0;
    format      ascii;
    arch        "LSB;label=32;scalar=64";
    class       volScalarField;
    location    "2.1";
    object      gradTx;
}
// * * * * * * * * * * * * * * * * * * * * * * * * * * * * * * * * * * * * * //

dimensions      [0 -1 0 1 0 0 0];

internalField   nonuniform List<scalar> 
2500
(
0.0122636
0.0367397
0.0611366
0.085427
0.109534
0.133405
0.156982
0.18021
0.203027
0.225372
0.247181
0.268386
0.288918
0.308704
0.327669
0.345736
0.362825
0.378854
0.393741
0.407402
0.419751
0.430705
0.44018
0.448094
0.454368
0.458926
0.461698
0.462617
0.461627
0.458675
0.453719
0.44673
0.437685
0.426577
0.41341
0.398203
0.38099
0.361818
0.340751
0.317869
0.293266
0.267051
0.23935
0.210301
0.180053
0.14877
0.116624
0.0837946
0.0504702
0.0168541
0.0123286
0.0369379
0.061469
0.0858918
0.110132
0.134136
0.157847
0.181208
0.204159
0.226638
0.248581
0.26992
0.290584
0.310502
0.329598
0.347794
0.36501
0.381164
0.396172
0.409949
0.42241
0.43347
0.443044
0.451049
0.457406
0.462038
0.464872
0.465842
0.464888
0.461959
0.457011
0.450013
0.440942
0.42979
0.416561
0.401272
0.383958
0.364666
0.343459
0.320418
0.295637
0.269227
0.241314
0.212037
0.181548
0.150012
0.117603
0.084501
0.0508833
0.0169836
0.0124618
0.0373367
0.0621326
0.0868209
0.111327
0.135597
0.159575
0.183204
0.206423
0.229171
0.251381
0.272987
0.293918
0.314101
0.333459
0.351914
0.369384
0.385787
0.401038
0.415049
0.427735
0.439007
0.448781
0.456971
0.463494
0.468273
0.471233
0.472304
0.471425
0.468543
0.463611
0.456596
0.447475
0.436236
0.422882
0.407431
0.389915
0.370382
0.348895
0.325534
0.300397
0.273595
0.245256
0.215522
0.184549
0.152506
0.11957
0.085928
0.0517467
0.0172698
0.012661
0.037934
0.0631281
0.0882151
0.113121
0.137791
0.16217
0.186201
0.209823
0.232973
0.255586
0.277594
0.298925
0.319506
0.339259
0.358103
0.375958
0.392736
0.408352
0.422717
0.435742
0.447336
0.457412
0.46588
0.472657
0.477659
0.48081
0.482036
0.481273
0.478463
0.473558
0.466521
0.457325
0.445957
0.432418
0.416724
0.398905
0.379009
0.357101
0.33326
0.307586
0.280193
0.251212
0.220788
0.189083
0.156271
0.122535
0.0880682
0.0530399
0.0177018
0.0129266
0.0387305
0.064456
0.0900751
0.115514
0.140719
0.165634
0.190201
0.21436
0.238048
0.2612
0.283745
0.305612
0.326726
0.347007
0.366375
0.384744
0.402026
0.418133
0.432974
0.446454
0.458483
0.468966
0.477811
0.48493
0.490236
0.493646
0.495084
0.49448
0.491772
0.486907
0.479844
0.470552
0.459015
0.445231
0.429213
0.410991
0.390612
0.368139
0.343656
0.317262
0.289074
0.25923
0.227879
0.195188
0.16134
0.126525
0.0909452
0.0547769
0.0182825
0.0132587
0.0397267
0.0661169
0.092402
0.118508
0.144382
0.169967
0.195206
0.220039
0.244402
0.268229
0.291449
0.313989
0.335772
0.356718
0.376744
0.39576
0.413679
0.430406
0.445846
0.459904
0.472482
0.483482
0.492807
0.500362
0.506055
0.509799
0.51151
0.511113
0.50854
0.503732
0.496643
0.487237
0.475494
0.461407
0.444987
0.426262
0.405277
0.382096
0.356804
0.329502
0.300314
0.269379
0.236855
0.202919
0.167758
0.131578
0.0945867
0.0569751
0.0190174
0.0136574
0.0409231
0.0681116
0.0951967
0.122105
0.148782
0.175174
0.201222
0.226865
0.252041
0.27668
0.300714
0.324066
0.346658
0.368407
0.389228
0.40903
0.427719
0.445198
0.461369
0.476129
0.489377
0.501008
0.51092
0.519011
0.525183
0.529339
0.531391
0.531254
0.528855
0.524127
0.517017
0.507483
0.495499
0.481055
0.464156
0.444827
0.423114
0.399079
0.372809
0.344409
0.314005
0.281746
0.247797
0.212343
0.175585
0.137738
0.0990273
0.0596555
0.0199135
0.014123
0.0423199
0.0704407
0.0984601
0.126305
0.153922
0.181256
0.20825
0.234842
0.260969
0.286562
0.31155
0.335855
0.359397
0.382092
0.40385
0.424577
0.444176
0.462545
0.479581
0.495175
0.509219
0.521603
0.532216
0.54095
0.547696
0.552352
0.554818
0.555003
0.552823
0.548205
0.541084
0.531414
0.51916
0.504306
0.486853
0.466823
0.444258
0.419221
0.3918
0.362104
0.330266
0.296439
0.260801
0.223546
0.184891
0.145065
0.104309
0.0628436
0.0209793
0.0146555
0.0439175
0.0731048
0.102193
0.13111
0.159803
0.188217
0.216295
0.243976
0.271195
0.297883
0.323968
0.34937
0.374007
0.397793
0.420633
0.442431
0.463084
0.482486
0.500527
0.517092
0.532067
0.545332
0.556769
0.566259
0.573686
0.578937
0.581901
0.582477
0.580571
0.576098
0.568986
0.559178
0.54663
0.531319
0.51324
0.49241
0.468869
0.44268
0.413932
0.382737
0.349234
0.313587
0.275983
0.236631
0.195762
0.153626
0.110481
0.0665698
0.0222252
0.015255
0.0457161
0.0761042
0.106397
0.136522
0.166427
0.196059
0.225361
0.254271
0.282724
0.310652
0.337978
0.364625
0.390506
0.415531
0.439603
0.462622
0.484479
0.505064
0.524257
0.54194
0.557986
0.57227
0.584662
0.595033
0.603257
0.609207
0.612763
0.613811
0.612242
0.607962
0.600885
0.590944
0.578085
0.562275
0.543502
0.521778
0.497138
0.469645
0.439387
0.406482
0.371076
0.333343
0.293481
0.251718
0.208302
0.163503
0.117603
0.0708704
0.0236631
0.0159214
0.0477156
0.0794391
0.111071
0.14254
0.173795
0.204784
0.23545
0.265731
0.295563
0.324876
0.353593
0.381634
0.40891
0.435328
0.460788
0.485184
0.508402
0.530324
0.550826
0.569779
0.587049
0.602498
0.615987
0.627376
0.636524
0.643291
0.647545
0.649155
0.648
0.64397
0.636967
0.626908
0.61373
0.597386
0.577857
0.555146
0.529283
0.50033
0.468376
0.433544
0.395985
0.355886
0.31346
0.268951
0.222631
0.174792
0.125746
0.075788
0.0253075
0.0166547
0.0499159
0.083109
0.116215
0.149165
0.181908
0.214393
0.246564
0.27836
0.309717
0.340563
0.370822
0.40041
0.429237
0.457207
0.484215
0.510149
0.534892
0.558317
0.580292
0.600679
0.619333
0.636107
0.650847
0.663401
0.673613
0.68133
0.6864
0.688679
0.688028
0.68432
0.677441
0.667293
0.653796
0.636893
0.61655
0.592764
0.565557
0.534988
0.501146
0.464158
0.424185
0.381424
0.336106
0.288496
0.238889
0.187607
0.134992
0.0813722
0.0271749
0.0174546
0.0523163
0.0871131
0.121829
0.156395
0.190764
0.224885
0.258704
0.29216
0.325189
0.357719
0.389673
0.420966
0.451505
0.481189
0.509911
0.537554
0.563992
0.589092
0.612714
0.634708
0.654921
0.67319
0.68935
0.703232
0.714665
0.723477
0.7295
0.73257
0.732529
0.729232
0.722543
0.712347
0.698546
0.681067
0.659863
0.634918
0.606248
0.573904
0.537978
0.498598
0.455935
0.410198
0.361639
0.310545
0.257239
0.202076
0.145434
0.0876808
0.0292848
0.0183208
0.0549158
0.0914497
0.12791
0.164228
0.200361
0.236259
0.271868
0.30713
0.341981
0.376348
0.410154
0.443312
0.475727
0.507294
0.537903
0.567429
0.595742
0.622701
0.648154
0.671942
0.693899
0.713849
0.731612
0.747001
0.759828
0.769901
0.777031
0.781034
0.781729
0.778947
0.772533
0.762347
0.748272
0.730215
0.708113
0.681933
0.651683
0.617407
0.579193
0.537175
0.491531
0.442487
0.390312
0.335321
0.277871
0.218352
0.157185
0.0947812
0.0316598
0.0192529
0.0577129
0.0961165
0.134454
0.172661
0.210696
0.24851
0.286053
0.323268
0.360091
0.396451
0.432268
0.467455
0.501915
0.53554
0.568214
0.599808
0.630184
0.659193
0.686673
0.712454
0.736356
0.758188
0.777753
0.794847
0.80926
0.82078
0.829194
0.834292
0.83587
0.833733
0.827698
0.817602
0.803301
0.78468
0.761653
0.734174
0.702233
0.665867
0.62516
0.580247
0.531316
0.478608
0.422415
0.363083
0.301003
0.236609
0.170371
0.102751
0.0343261
0.0202499
0.0607055
0.10111
0.141458
0.181688
0.221761
0.261632
0.301253
0.340569
0.379516
0.418025
0.456015
0.493399
0.530078
0.56594
0.600865
0.634719
0.667355
0.698617
0.728332
0.756319
0.782381
0.806313
0.8279
0.846916
0.863129
0.876304
0.886202
0.892585
0.895219
0.89388
0.888356
0.878451
0.863995
0.844842
0.820885
0.792052
0.758318
0.719706
0.676296
0.628222
0.57568
0.518929
0.458285
0.394127
0.326888
0.257051
0.185141
0.111681
0.0373139
0.0213112
0.0638907
0.106426
0.148915
0.191302
0.233549
0.275616
0.317458
0.359022
0.400246
0.441062
0.481391
0.521143
0.560218
0.598502
0.63587
0.672183
0.707288
0.741017
0.773189
0.803607
0.832063
0.858332
0.882179
0.903357
0.92161
0.936675
0.948284
0.956168
0.960061
0.959704
0.95485
0.945268
0.930753
0.911128
0.886252
0.856029
0.82041
0.779403
0.733076
0.681564
0.625071
0.56387
0.498307
0.428796
0.355818
0.279912
0.201666
0.121676
0.0406585
0.0224353
0.0672649
0.112057
0.156818
0.201491
0.246047
0.290449
0.334655
0.378614
0.422269
0.465552
0.508385
0.550679
0.592332
0.633229
0.67324
0.71222
0.75001
0.786432
0.821295
0.854389
0.885488
0.91435
0.940719
0.964324
0.984882
1.0021
1.01568
1.02531
1.0307
1.03155
1.02756
1.01846
1.00402
0.984007
0.958252
0.926622
0.889042
0.845497
0.796042
0.740807
0.680001
0.613916
0.542926
0.467487
0.388132
0.305465
0.220148
0.132857
0.044401
0.0236207
0.0708236
0.117998
0.165154
0.212244
0.259241
0.306114
0.352824
0.399325
0.445564
0.491475
0.536981
0.581994
0.626411
0.670115
0.712974
0.754838
0.795539
0.834893
0.872696
0.908724
0.942736
0.97447
1.00365
1.02997
1.05313
1.0728
1.08864
1.10031
1.10747
1.10977
1.10688
1.09848
1.08427
1.064
1.03743
1.00441
0.964813
0.9186
0.865807
0.806556
0.741059
0.669624
0.592656
0.510658
0.424223
0.334027
0.240818
0.145368
0.0485893
0.0248657
0.0745611
0.124238
0.173913
0.223545
0.273112
0.322589
0.371942
0.421132
0.470107
0.518805
0.567153
0.615063
0.662433
0.709146
0.755064
0.800035
0.843886
0.886421
0.927427
0.966666
1.00388
1.03879
1.07108
1.10045
1.12653
1.14898
1.16742
1.18146
1.1907
1.19476
1.19325
1.1858
1.17204
1.15167
1.12441
1.09004
1.0484
0.999404
0.943071
0.879505
0.808919
0.731636
0.648093
0.558844
0.464548
0.365967
0.263948
0.159374
0.0532792
0.0261678
0.0784707
0.130766
0.183079
0.235374
0.287636
0.339848
0.391982
0.444002
0.495864
0.547509
0.598868
0.649855
0.70037
0.750294
0.79949
0.8478
0.895046
0.941025
0.985512
1.02826
1.06898
1.10739
1.14314
1.1759
1.20527
1.23088
1.25228
1.26906
1.28076
1.28694
1.28715
1.28094
1.26791
1.24767
1.21987
1.18423
1.14055
1.08869
1.02863
0.960449
0.884358
0.800694
0.709927
0.612663
0.509642
0.401719
0.289858
0.175071
0.0585366
0.0275246
0.0825445
0.137569
0.192633
0.247707
0.302787
0.357859
0.412905
0.467897
0.522794
0.577544
0.632082
0.686327
0.740179
0.793522
0.846217
0.898105
0.949002
0.998699
1.04696
1.09352
1.13809
1.18034
1.21992
1.25646
1.28953
1.31869
1.34349
1.36344
1.37802
1.38674
1.38906
1.38448
1.3725
1.35266
1.32455
1.2878
1.24212
1.18734
1.12338
1.0503
0.968271
0.877657
0.778958
0.672841
0.560129
0.44179
0.318921
0.192688
0.0644389
0.0289327
0.0867731
0.144632
0.202554
0.260519
0.31853
0.376585
0.434671
0.492769
0.550846
0.608856
0.66674
0.724421
0.781805
0.838776
0.895197
0.950907
1.00572
1.05942
1.11176
1.16246
1.21123
1.2577
1.30151
1.34225
1.37945
1.41264
1.44131
1.46491
1.48287
1.4946
1.49951
1.497
1.48649
1.46742
1.43928
1.40162
1.35407
1.29637
1.22837
1.15009
1.06169
0.963523
0.856125
0.740226
0.616745
0.48678
0.351582
0.212498
0.0710778
0.0303888
0.0911457
0.151937
0.212818
0.273777
0.334829
0.395981
0.457229
0.518564
0.57996
0.641381
0.702774
0.76407
0.825177
0.885986
0.946361
1.00614
1.06514
1.12313
1.17987
1.23507
1.2884
1.33951
1.38798
1.43337
1.47519
1.51292
1.54599
1.57379
1.59568
1.61099
1.61905
1.61915
1.61061
1.59276
1.56498
1.52671
1.47747
1.4169
1.34477
1.26103
1.16581
1.05946
0.942524
0.815817
0.68036
0.537397
0.388365
0.234823
0.0785625
0.0318885
0.0956502
0.159463
0.223395
0.287445
0.351639
0.415995
0.48052
0.545215
0.610065
0.675042
0.740103
0.805186
0.870208
0.935063
0.999622
1.06373
1.12719
1.18978
1.25125
1.3113
1.3696
1.42575
1.47934
1.52989
1.57686
1.6197
1.65776
1.69038
1.71684
1.73639
1.74824
1.75159
1.74563
1.72957
1.70265
1.66417
1.61352
1.55022
1.47393
1.38451
1.28203
1.16681
1.03944
0.900792
0.752002
0.594488
0.429899
0.260052
0.0870238
0.0334274
0.100273
0.167188
0.234254
0.301482
0.36891
0.436568
0.504477
0.572647
0.641077
0.709749
0.778631
0.847669
0.916792
0.9859
1.05487
1.12355
1.19175
1.25926
1.3258
1.39108
1.45475
1.51642
1.57562
1.63185
1.68456
1.73311
1.77683
1.81497
1.84673
1.87126
1.88767
1.89503
1.89239
1.87882
1.85338
1.81522
1.76357
1.69779
1.61739
1.52212
1.41196
1.28719
1.14841
0.996554
0.832903
0.659063
0.476939
0.288649
0.096619
0.0350003
0.104997
0.175085
0.245358
0.315841
0.386586
0.457635
0.529024
0.600776
0.672902
0.745398
0.818245
0.8914
0.964803
1.03837
1.11197
1.18548
1.25871
1.33143
1.4034
1.4743
1.54378
1.61142
1.67676
1.73926
1.79832
1.85327
1.90337
1.94781
1.98569
2.01607
2.03792
2.05019
2.05176
2.04152
2.01836
1.98122
1.92913
1.86125
1.77692
1.6757
1.55748
1.42246
1.27122
1.10477
0.924537
0.732342
0.530394
0.321178
0.107539
0.0366014
0.109807
0.183126
0.256668
0.330471
0.404603
0.479121
0.554075
0.629503
0.705432
0.781872
0.858817
0.93624
1.01409
1.0923
1.17077
1.24935
1.32788
1.40614
1.48388
1.5608
1.63652
1.71064
1.78267
1.85204
1.91813
1.98022
2.03751
2.08911
2.13404
2.17125
2.19957
2.21779
2.22463
2.21876
2.19887
2.16365
2.11189
2.04248
1.95453
1.84741
1.72082
1.57484
1.41003
1.22746
1.02868
0.815801
0.591373
0.358326
0.120016
0.0382244
0.114684
0.191279
0.268138
0.345315
0.422892
0.500943
0.579534
0.658721
0.738545
0.819035
0.9002
0.982031
1.0645
1.14754
1.23106
1.31496
1.39906
1.48317
1.56704
1.65037
1.73281
1.81391
1.8932
1.9701
2.04393
2.11395
2.1793
2.23902
2.29204
2.33718
2.37315
2.39856
2.41192
2.4117
2.3963
2.36414
2.3137
2.24358
2.15256
2.03974
1.90456
1.74696
1.56742
1.36702
1.1475
0.911241
0.661232
0.400935
0.134336
0.0398625
0.119606
0.199511
0.279723
0.360311
0.441377
0.523011
0.605298
0.68831
0.772109
0.85674
0.942232
1.0286
1.11582
1.20385
1.29264
1.38208
1.47202
1.56228
1.65263
1.74278
1.83237
1.92099
2.00814
2.09322
2.17556
2.25436
2.32872
2.39761
2.45987
2.5142
2.55916
2.59318
2.61457
2.6215
2.6121
2.58445
2.53666
2.46692
2.37366
2.25556
2.11178
1.94197
1.74648
1.5264
1.28363
1.02088
0.741643
0.450046
0.150853
0.0415083
0.124552
0.207784
0.291368
0.375392
0.459975
0.545227
0.631251
0.71814
0.805974
0.894821
0.98473
1.07573
1.16784
1.26103
1.35525
1.45044
1.54647
1.64317
1.74034
1.83769
1.93491
2.03157
2.12718
2.22115
2.31278
2.40126
2.48565
2.56485
2.63762
2.70253
2.75802
2.8023
2.83344
2.84935
2.8478
2.82647
2.78302
2.71518
2.62086
2.49826
2.34607
2.1636
1.95096
1.70918
1.44031
1.14745
0.834685
0.506961
0.170009
0.043154
0.129498
0.216058
0.303018
0.390485
0.478597
0.567484
0.657269
0.748067
0.839981
0.933098
1.02749
1.12322
1.22032
1.31879
1.41861
1.51974
1.62208
1.7255
1.8298
1.93475
2.04003
2.14525
2.24993
2.35349
2.45524
2.55435
2.64984
2.74057
2.82523
2.90228
2.97
3.02643
3.06937
3.09641
3.10494
3.09218
3.05527
2.99133
2.89763
2.77174
2.61173
2.41638
2.18543
1.91978
1.62158
1.29437
0.942966
0.57331
0.19236
0.0447912
0.134419
0.224292
0.314615
0.405514
0.497148
0.589668
0.68322
0.77794
0.873955
0.971377
1.07031
1.17082
1.27299
1.37685
1.48241
1.58964
1.69849
1.80887
1.92061
2.0335
2.14727
2.26156
2.37591
2.48977
2.60246
2.71316
2.82088
2.92445
3.02248
3.11337
3.19525
3.26595
3.32304
3.36376
3.38507
3.38367
3.35607
3.29867
3.20792
3.08056
2.91381
2.70573
2.45547
2.16364
1.83247
1.46595
1.06978
0.651164
0.218612
0.0464111
0.139288
0.232441
0.326095
0.420398
0.515528
0.611661
0.708964
0.807597
0.907711
1.00945
1.11293
1.21828
1.32557
1.43489
1.54628
1.65975
1.77529
1.89283
2.01227
2.13343
2.25609
2.37992
2.50452
2.62938
2.75384
2.8771
2.99821
3.11596
3.22897
3.33553
3.43366
3.52103
3.59495
3.65232
3.68963
3.70301
3.68822
3.64079
3.55617
3.43
3.25836
3.03824
2.76797
2.4476
2.07932
1.66764
1.21933
0.743168
0.249668
0.0480044
0.144078
0.240459
0.337394
0.435051
0.533633
0.633335
0.734351
0.836865
0.941055
1.04709
1.15512
1.2653
1.37775
1.49257
1.60986
1.72966
1.85201
1.97689
2.10425
2.23396
2.36585
2.49966
2.63505
2.77156
2.90859
3.04539
3.18104
3.31438
3.444
3.56818
3.68485
3.79153
3.88531
3.96275
4.01988
4.05217
4.05457
4.02156
3.94735
3.82614
3.65251
3.42193
3.13143
2.78021
2.3702
1.90644
1.39701
0.852732
0.286693
0.0495619
0.14876
0.248298
0.348444
0.449387
0.551352
0.65456
0.759227
0.865565
0.973779
1.08407
1.19661
1.3116
1.42918
1.54952
1.67273
1.79892
1.92816
2.0605
2.19594
2.33442
2.47584
2.62002
2.76667
2.91543
3.06578
3.21705
3.36839
3.5187
3.66662
3.81044
3.94806
4.07694
4.19394
4.29536
4.37674
4.43292
4.45791
4.44501
4.38691
4.27598
4.10475
3.86657
3.55652
3.17237
2.71547
2.19138
1.60983
0.984282
0.331199
0.0510738
0.153306
0.25591
0.359176
0.463315
0.568575
0.675201
0.783435
0.893514
1.00567
1.12014
1.23713
1.35686
1.47954
1.60534
1.73446
1.86703
2.0032
2.14306
2.28668
2.43409
2.58526
2.7401
2.89842
3.05995
3.22429
3.39089
3.55899
3.72761
3.8955
4.06102
4.22212
4.37622
4.52012
4.64987
4.76062
4.84655
4.90075
4.91517
4.8807
4.78742
4.6251
4.38412
4.05662
3.63803
3.12859
2.53427
1.86694
1.14359
0.385158
0.0525303
0.157686
0.263245
0.36952
0.476744
0.585188
0.695121
0.80681
0.92052
1.03651
1.15505
1.27639
1.40077
1.52844
1.65964
1.79458
1.93349
2.07654
2.22392
2.37576
2.53218
2.69323
2.85893
3.02922
3.20394
3.38283
3.56548
3.75131
3.9395
4.12894
4.31817
4.50527
4.68776
4.86244
5.02527
5.17112
5.29365
5.38501
5.43576
5.43472
5.36917
5.22531
4.98924
4.64871
4.19535
3.62724
2.95065
2.18037
1.33822
0.451141
0.0539217
0.16187
0.270254
0.379406
0.489583
0.601077
0.714182
0.82919
0.946394
1.06609
1.18856
1.31409
1.44299
1.57552
1.71198
1.85263
1.99775
2.1476
2.30241
2.46242
2.62782
2.79879
2.97545
3.15787
3.34606
3.53991
3.7392
3.94356
4.15238
4.36481
4.57963
4.79517
5.00917
5.21862
5.41956
5.60681
5.77366
5.91154
6.00966
6.05468
6.03056
5.9189
5.69989
5.35455
4.86823
4.235
3.46124
2.56596
1.578
0.532471
0.0552383
0.16583
0.276887
0.388764
0.50174
0.616128
0.732246
0.850412
0.970944
1.09416
1.22039
1.34996
1.48319
1.6204
1.76194
1.90812
2.05928
2.21574
2.37783
2.54585
2.72012
2.90091
3.08849
3.28307
3.48483
3.69386
3.91018
4.13364
4.36394
4.60054
4.84258
5.08875
5.33721
5.58533
5.82949
6.06474
6.28439
6.4795
6.63824
6.74521
6.78083
6.72104
6.53795
6.20232
5.6888
4.98397
4.09386
3.04453
1.87557
0.633363
0.0564705
0.169536
0.283096
0.397527
0.513126
0.63023
0.749178
0.870314
0.993981
1.12053
1.25032
1.38369
1.52103
1.6627
1.80908
1.96055
2.1175
2.28033
2.44944
2.62524
2.80813
2.99853
3.19683
3.40343
3.61867
3.84289
4.07635
4.3192
4.57151
4.83311
5.10361
5.38223
5.66771
5.95805
6.2503
6.54015
6.82146
7.08552
7.32016
7.50856
7.62785
7.64769
7.52964
7.22892
6.7015
5.91887
4.88621
3.64305
2.24663
0.758914
0.0576093
0.172961
0.288836
0.405629
0.523656
0.643275
0.764848
0.88874
1.01532
1.14497
1.27807
1.41501
1.5562
1.70205
1.85298
2.00944
2.17186
2.34073
2.51652
2.69974
2.89091
3.09055
3.29923
3.51749
3.74591
3.98506
4.23547
4.49767
4.77209
5.05907
5.35876
5.67106
5.99547
6.33091
6.67548
7.02601
7.37758
7.72265
8.0499
8.3425
8.57569
8.71347
8.70508
8.4832
7.97022
7.10449
5.88958
4.39512
2.70924
0.914716
0.058646
0.17608
0.294062
0.413006
0.533247
0.655161
0.77913
0.905542
1.03479
1.16728
1.30342
1.44364
1.58838
1.73809
1.89323
2.0543
2.22182
2.39632
2.57836
2.76854
2.96748
3.17586
3.39438
3.62377
3.86482
4.11834
4.38521
4.66628
4.96246
5.27462
5.60356
5.94998
6.31434
6.69674
7.09669
7.51275
7.94202
8.37931
8.81589
9.23736
9.62028
9.92664
10.0951
10.0295
9.59252
8.63997
7.17302
5.33893
3.28073
1.10557
0.0595726
0.178867
0.298734
0.419602
0.541823
0.665792
0.791908
0.920581
1.05223
1.18727
1.32615
1.46933
1.61727
1.77046
1.92943
2.0947
2.26685
2.44648
2.63424
2.83081
3.03693
3.25338
3.48102
3.72078
3.97364
4.2407
4.52313
4.82218
5.13922
5.47571
5.83317
6.21318
6.61733
7.04712
7.50381
7.9882
8.50025
9.03842
9.59861
10.1723
10.7428
11.279
11.7203
11.9483
11.7312
10.6905
8.82415
6.50714
3.96944
1.33256
0.0603819
0.181302
0.302814
0.425362
0.549314
0.675079
0.803075
0.933728
1.06747
1.20476
1.34605
1.49182
1.64259
1.79886
1.9612
2.1302
2.30646
2.49067
2.68353
2.88581
3.09835
3.32206
3.55794
3.80709
4.0707
4.35012
4.64683
4.96248
5.29891
5.65816
6.04251
6.45449
6.89687
7.3727
7.88524
8.43793
9.0342
9.67725
10.3695
11.1117
11.9012
12.7272
13.5602
14.3129
14.6943
13.5674
10.9264
7.89637
4.75754
1.58796
0.0610673
0.183363
0.306269
0.430241
0.555658
0.682946
0.812536
0.944869
1.0804
1.21959
1.36293
1.51092
1.66409
1.823
1.98823
2.16041
2.34021
2.52835
2.7256
2.93282
3.15093
3.38094
3.624
3.88134
4.15438
4.44468
4.75403
5.08442
5.43817
5.81787
6.22654
6.66764
7.14515
7.66368
8.22858
8.84603
9.52324
10.2686
11.0921
12.0055
13.0242
14.17
15.4813
17.05
19.1664
17.9592
13.4183
9.39467
5.57664
1.84987
0.0616237
0.185037
0.309072
0.434196
0.560802
0.689325
0.820208
0.953905
1.09088
1.23163
1.37663
1.52643
1.68157
1.84263
2.01022
2.18501
2.36771
2.55907
2.75994
2.97123
3.19393
3.42917
3.67817
3.94234
4.22324
4.52265
4.84261
5.18544
5.55385
5.95097
6.38047
6.84665
7.35461
7.91043
8.5214
9.19632
9.94597
10.7837
11.7262
12.7956
14.0217
15.4483
17.1462
19.2404
21.963
20.6854
15.3936
10.6876
6.30473
2.08488
0.0620464
0.186309
0.311201
0.437196
0.564701
0.694159
0.826023
0.960756
1.09884
1.24076
1.38703
1.5382
1.69484
1.85753
2.02693
2.20371
2.38862
2.58246
2.7861
3.00051
3.22675
3.466
3.71961
3.98905
4.27605
4.58254
4.91076
5.26332
5.64324
6.05408
6.50004
6.98614
7.51842
8.10417
8.75232
9.47386
10.2825
11.1956
12.2353
13.4305
14.82
16.4568
18.4159
20.8034
23.7606
22.4264
16.7835
11.6579
6.87001
2.26995
0.0623301
0.18717
0.312639
0.439214
0.567321
0.697407
0.82993
0.965359
1.10418
1.24689
1.39402
1.54612
1.70376
1.86756
2.03818
2.21631
2.40271
2.59822
2.80374
3.02027
3.2489
3.49089
3.74762
4.02066
4.31182
4.62315
4.95704
5.31628
5.70412
6.12443
6.58179
7.08174
7.63097
8.23766
8.9119
9.66625
10.5165
11.4827
12.5904
13.8727
15.3723
17.1442
19.2582
21.7979
24.8505
23.4766
17.6568
12.2907
7.24769
2.395
0.0624595
0.187586
0.313357
0.440226
0.568636
0.699038
0.831891
0.96767
1.10686
1.24997
1.39754
1.5501
1.70825
1.8726
2.04383
2.22264
2.4098
2.60615
2.81262
3.03021
3.26006
3.50343
3.76174
4.03661
4.32987
4.64366
4.98044
5.34308
5.73496
6.1601
6.6233
7.13035
7.68828
8.30574
8.99343
9.76472
10.6364
11.63
12.7726
14.0991
15.6536
17.4909
19.6761
22.2803
25.3678
23.9736
18.0769
12.6009
7.43527
2.45753
)
;

boundaryField
{
    walls
    {
        type            calculated;
        value           nonuniform List<scalar> 
200
(
0.0624595
0.187586
0.313357
0.440226
0.568636
0.699038
0.831891
0.96767
1.10686
1.24997
1.39754
1.5501
1.70825
1.8726
2.04383
2.22264
2.4098
2.60615
2.81262
3.03021
3.26006
3.50343
3.76174
4.03661
4.32987
4.64366
4.98044
5.34308
5.73496
6.1601
6.6233
7.13035
7.68828
8.30574
8.99343
9.76472
10.6364
11.63
12.7726
14.0991
15.6536
17.4909
19.6761
22.2803
25.3678
23.9736
18.0769
12.6009
7.43527
2.45753
0
0
0
0
0
0
0
0
0
0
0
0
0
0
0
0
0
0
0
0
0
0
0
0
0
0
0
0
0
0
0
0
0
0
0
0
0
0
0
0
0
0
0
0
0
0
0
0
0
0
0
0
0
0
0
0
0
0
0
0
0
0
0
0
0
0
0
0
0
0
0
0
0
0
0
0
0
0
0
0
0
0
0
0
0
0
0
0
0
0
0
0
0
0
0
0
0
0
0
0
0.0122636
0.0367397
0.0611366
0.085427
0.109534
0.133405
0.156982
0.18021
0.203027
0.225372
0.247181
0.268386
0.288918
0.308704
0.327669
0.345736
0.362825
0.378854
0.393741
0.407402
0.419751
0.430705
0.44018
0.448094
0.454368
0.458926
0.461698
0.462617
0.461627
0.458675
0.453719
0.44673
0.437685
0.426577
0.41341
0.398203
0.38099
0.361818
0.340751
0.317869
0.293266
0.267051
0.23935
0.210301
0.180053
0.14877
0.116624
0.0837946
0.0504702
0.0168541
)
;
    }
    frontAndBack
    {
        type            empty;
    }
}


// ************************************************************************* //
