/*--------------------------------*- C++ -*----------------------------------*\
| =========                 |                                                 |
| \\      /  F ield         | OpenFOAM: The Open Source CFD Toolbox           |
|  \\    /   O peration     | Version:  2406                                  |
|   \\  /    A nd           | Website:  www.openfoam.com                      |
|    \\/     M anipulation  |                                                 |
\*---------------------------------------------------------------------------*/
FoamFile
{
    version     2.0;
    format      ascii;
    arch        "LSB;label=32;scalar=64";
    class       volScalarField;
    location    "2.1";
    object      T;
}
// * * * * * * * * * * * * * * * * * * * * * * * * * * * * * * * * * * * * * //

dimensions      [0 0 0 1 0 0 0];

internalField   nonuniform List<scalar> 
2500
(
0.331438
0.331928
0.332907
0.334374
0.336324
0.338755
0.341661
0.345034
0.348869
0.353156
0.357884
0.363043
0.368619
0.3746
0.380968
0.387706
0.394797
0.402219
0.409951
0.417969
0.426247
0.434759
0.443475
0.452366
0.461399
0.470541
0.479756
0.489009
0.498261
0.507474
0.516608
0.525623
0.534477
0.54313
0.55154
0.559666
0.567468
0.574906
0.581941
0.588536
0.594656
0.600267
0.605338
0.609841
0.61375
0.617043
0.619701
0.621708
0.623052
0.623727
0.331928
0.332421
0.333406
0.33488
0.336842
0.339286
0.342207
0.345599
0.349455
0.353766
0.358521
0.363709
0.369318
0.375332
0.381738
0.388516
0.395649
0.403117
0.410896
0.418964
0.427294
0.43586
0.444633
0.453582
0.462675
0.471878
0.481156
0.490473
0.49979
0.509068
0.518268
0.527349
0.536269
0.544986
0.55346
0.561649
0.569511
0.577007
0.584098
0.590746
0.596915
0.602571
0.607684
0.612224
0.616165
0.619486
0.622166
0.62419
0.625546
0.626225
0.332907
0.333406
0.334401
0.335891
0.337874
0.340344
0.343298
0.346727
0.350626
0.354984
0.359793
0.365039
0.370712
0.376796
0.383276
0.390134
0.397353
0.40491
0.412784
0.420951
0.429386
0.438061
0.446946
0.456012
0.465225
0.474552
0.483956
0.493401
0.502848
0.512258
0.52159
0.530803
0.539854
0.548702
0.557303
0.565617
0.573601
0.581213
0.588416
0.595169
0.601437
0.607185
0.612381
0.616995
0.621002
0.624377
0.627102
0.62916
0.630539
0.63123
0.334374
0.33488
0.335891
0.337405
0.33942
0.34193
0.344931
0.348417
0.352379
0.35681
0.361698
0.367033
0.372802
0.37899
0.385582
0.392561
0.399906
0.407599
0.415616
0.423933
0.432525
0.441363
0.450418
0.459659
0.469053
0.478565
0.48816
0.497798
0.507441
0.517049
0.52658
0.535991
0.54524
0.554284
0.563079
0.571581
0.579748
0.587537
0.594908
0.601821
0.608238
0.614124
0.619446
0.624173
0.628278
0.631736
0.634528
0.636638
0.638051
0.638759
0.336324
0.336842
0.337874
0.33942
0.341477
0.34404
0.347105
0.350666
0.354713
0.35924
0.364235
0.369688
0.375585
0.381913
0.388654
0.395793
0.403309
0.411183
0.41939
0.427908
0.436709
0.445766
0.455049
0.464525
0.474161
0.483922
0.49377
0.503668
0.513574
0.523447
0.533245
0.542923
0.552438
0.561745
0.570799
0.579555
0.587968
0.595994
0.603592
0.61072
0.617338
0.62341
0.628901
0.633779
0.638016
0.641587
0.64447
0.646648
0.648108
0.648839
0.338755
0.339286
0.340344
0.34193
0.34404
0.346671
0.349816
0.353469
0.357624
0.362271
0.3674
0.373
0.379058
0.385559
0.392489
0.399828
0.407559
0.415659
0.424106
0.432875
0.44194
0.451271
0.460839
0.47061
0.480551
0.490625
0.500793
0.511017
0.521254
0.531461
0.541595
0.551611
0.561461
0.5711
0.580481
0.589556
0.59828
0.606607
0.614491
0.621891
0.628763
0.635071
0.640776
0.645846
0.65025
0.653963
0.656961
0.659226
0.660744
0.661505
0.341661
0.342207
0.343298
0.344931
0.347105
0.349816
0.353057
0.356823
0.361106
0.365897
0.371187
0.376964
0.383216
0.389927
0.397082
0.404663
0.412651
0.421024
0.42976
0.438832
0.448215
0.457878
0.46779
0.477918
0.488227
0.498678
0.509234
0.519852
0.530489
0.541102
0.551644
0.562067
0.572324
0.582366
0.592144
0.601609
0.610711
0.619402
0.627635
0.635365
0.642547
0.649141
0.655108
0.660411
0.66502
0.668905
0.672043
0.674414
0.676004
0.676801
0.345034
0.345599
0.346727
0.348417
0.350666
0.353469
0.356823
0.360719
0.365153
0.370113
0.375591
0.381576
0.388053
0.39501
0.402429
0.410294
0.418583
0.427277
0.43635
0.445778
0.455533
0.465585
0.475902
0.48645
0.497191
0.508087
0.519099
0.530182
0.541291
0.552382
0.563404
0.57431
0.585048
0.595566
0.605814
0.615739
0.625288
0.634412
0.643059
0.65118
0.658731
0.665665
0.671941
0.677522
0.682373
0.686464
0.689769
0.692267
0.693941
0.69478
0.348869
0.349455
0.350626
0.352379
0.354713
0.357624
0.361106
0.365153
0.369757
0.374912
0.380605
0.386827
0.393564
0.400802
0.408524
0.416713
0.42535
0.434411
0.443873
0.45371
0.463894
0.474394
0.485177
0.496207
0.507447
0.518857
0.530395
0.542015
0.553671
0.565314
0.576894
0.588358
0.599653
0.610725
0.621518
0.631978
0.642048
0.651674
0.660803
0.669381
0.67736
0.684691
0.691329
0.697234
0.702369
0.7067
0.710199
0.712845
0.714618
0.715507
0.353156
0.353766
0.354984
0.35681
0.35924
0.362271
0.365897
0.370113
0.374912
0.380284
0.386221
0.39271
0.39974
0.407295
0.41536
0.423916
0.432944
0.442421
0.452323
0.462624
0.473294
0.484301
0.495613
0.507192
0.518999
0.530993
0.54313
0.555362
0.56764
0.579914
0.59213
0.604233
0.616165
0.62787
0.639289
0.650361
0.661029
0.671232
0.680914
0.690018
0.69849
0.706278
0.713333
0.719611
0.725072
0.72968
0.733404
0.73622
0.738108
0.739055
0.357884
0.358521
0.359793
0.361698
0.364235
0.3674
0.371187
0.375591
0.380605
0.386221
0.392428
0.399216
0.406571
0.414481
0.422928
0.431894
0.441359
0.451301
0.461695
0.472514
0.483728
0.495306
0.50721
0.519405
0.53185
0.5445
0.557311
0.570232
0.583213
0.596198
0.609133
0.621957
0.634611
0.647033
0.659161
0.670929
0.682275
0.693135
0.703446
0.713148
0.722181
0.73049
0.738021
0.744725
0.750559
0.755483
0.759464
0.762475
0.764494
0.765506
0.363043
0.363709
0.365039
0.367033
0.369688
0.373
0.376964
0.381576
0.386827
0.39271
0.399216
0.406333
0.414048
0.422349
0.431218
0.440637
0.450587
0.461043
0.471982
0.483376
0.495194
0.507403
0.519967
0.532847
0.546001
0.559383
0.572946
0.586637
0.600402
0.614184
0.627923
0.641556
0.65502
0.668248
0.681172
0.693724
0.705834
0.717434
0.728457
0.738834
0.748502
0.7574
0.76547
0.772657
0.778914
0.784197
0.78847
0.791701
0.793869
0.794956
0.368619
0.369318
0.370712
0.372802
0.375585
0.379058
0.383216
0.388053
0.393564
0.39974
0.406571
0.414048
0.422158
0.430887
0.440219
0.450135
0.460615
0.471637
0.483175
0.4952
0.507683
0.520589
0.53388
0.547516
0.561454
0.575646
0.590041
0.604585
0.619221
0.633888
0.648522
0.663057
0.677424
0.691551
0.705365
0.718793
0.73176
0.74419
0.75601
0.767146
0.777529
0.78709
0.795766
0.803498
0.810232
0.81592
0.820522
0.824003
0.826339
0.82751
0.3746
0.375332
0.376796
0.37899
0.381913
0.385559
0.389927
0.39501
0.400802
0.407295
0.414481
0.422349
0.430887
0.440081
0.449916
0.460373
0.471432
0.48307
0.495262
0.507978
0.521188
0.534856
0.548944
0.56341
0.578209
0.59329
0.608602
0.624086
0.639683
0.655328
0.670952
0.686485
0.701853
0.716979
0.731784
0.746188
0.760109
0.773465
0.786176
0.798161
0.809344
0.819648
0.829005
0.837348
0.844618
0.850761
0.855732
0.859495
0.86202
0.863286
0.380968
0.381738
0.383276
0.385582
0.388654
0.392489
0.397082
0.402429
0.408524
0.41536
0.422928
0.431218
0.440219
0.449916
0.460295
0.471338
0.483024
0.49533
0.508231
0.521698
0.535698
0.550196
0.565152
0.580523
0.596262
0.612317
0.628633
0.645149
0.661801
0.67852
0.695235
0.71187
0.728343
0.744574
0.760475
0.775961
0.790941
0.805328
0.819031
0.831962
0.844037
0.855172
0.86529
0.874317
0.882186
0.88884
0.894227
0.898304
0.901041
0.902414
0.387706
0.388516
0.390134
0.392561
0.395793
0.399828
0.404663
0.410294
0.416713
0.423916
0.431894
0.440637
0.450135
0.460373
0.471338
0.483011
0.495372
0.5084
0.522067
0.536344
0.5512
0.566597
0.582495
0.59885
0.615611
0.632726
0.650136
0.667778
0.685584
0.703482
0.721393
0.739237
0.756927
0.774375
0.791487
0.808169
0.824323
0.839851
0.854655
0.868639
0.881707
0.893768
0.904734
0.914525
0.923066
0.93029
0.936141
0.940572
0.943547
0.945039
0.394797
0.395649
0.397353
0.399906
0.403309
0.407559
0.412651
0.418583
0.42535
0.432944
0.441359
0.450587
0.460615
0.471432
0.483024
0.495372
0.508459
0.52226
0.53675
0.5519
0.567678
0.584045
0.60096
0.618378
0.636247
0.654512
0.673112
0.691979
0.711043
0.730226
0.749445
0.768614
0.787639
0.806425
0.82487
0.84287
0.86032
0.877111
0.893136
0.908287
0.922459
0.93555
0.947462
0.958105
0.967394
0.975256
0.981627
0.986453
0.989694
0.99132
0.402219
0.403117
0.40491
0.407599
0.411183
0.415659
0.421024
0.427277
0.434411
0.442421
0.451301
0.461043
0.471637
0.48307
0.49533
0.5084
0.52226
0.536888
0.55226
0.568346
0.585112
0.602521
0.620531
0.639095
0.65816
0.677668
0.697555
0.717752
0.738183
0.758765
0.779411
0.800027
0.820513
0.840765
0.860674
0.880125
0.899004
0.91719
0.934565
0.95101
0.966407
0.980642
0.993607
1.0052
1.01532
1.0239
1.03085
1.03612
1.03966
1.04143
0.409951
0.410896
0.412784
0.415616
0.41939
0.424106
0.42976
0.43635
0.443873
0.452323
0.461695
0.471982
0.483175
0.495262
0.508231
0.522067
0.53675
0.55226
0.568572
0.585656
0.603479
0.622005
0.641189
0.660984
0.681335
0.702182
0.72346
0.745094
0.767005
0.789107
0.811304
0.833497
0.855579
0.877436
0.89895
0.919996
0.940448
0.960173
0.97904
0.996917
1.01367
1.02918
1.04331
1.05596
1.06702
1.07639
1.08399
1.08975
1.09362
1.09557
0.417969
0.418964
0.420951
0.423933
0.427908
0.432875
0.438832
0.445778
0.45371
0.462624
0.472514
0.483376
0.4952
0.507978
0.521698
0.536344
0.5519
0.568346
0.585656
0.603802
0.622753
0.642469
0.662908
0.684021
0.705751
0.728038
0.750813
0.773998
0.797509
0.821256
0.845138
0.869047
0.892868
0.916478
0.939749
0.962545
0.984726
1.00615
1.02666
1.04612
1.06438
1.0813
1.09674
1.11057
1.12267
1.13292
1.14125
1.14756
1.1518
1.15394
0.426247
0.427294
0.429386
0.432525
0.436709
0.44194
0.448215
0.455533
0.463894
0.473294
0.483728
0.495194
0.507683
0.521188
0.535698
0.5512
0.567678
0.585112
0.603479
0.622753
0.6429
0.663883
0.685659
0.708179
0.731385
0.755214
0.779596
0.804449
0.829687
0.855212
0.880918
0.906689
0.932404
0.957927
0.98312
1.00783
1.03191
1.0552
1.07754
1.09875
1.11868
1.13717
1.15406
1.1692
1.18245
1.1937
1.20284
1.20977
1.21443
1.21677
0.434759
0.43586
0.438061
0.441363
0.445766
0.451271
0.457878
0.465585
0.474394
0.484301
0.495306
0.507403
0.520589
0.534856
0.550196
0.566597
0.584045
0.602521
0.622005
0.642469
0.663883
0.68621
0.709407
0.733423
0.758204
0.783682
0.809785
0.83643
0.863524
0.890967
0.918645
0.946436
0.974208
1.00182
1.02911
1.05592
1.08209
1.10743
1.13177
1.15493
1.17671
1.19694
1.21544
1.23205
1.2466
1.25896
1.269
1.27663
1.28176
1.28434
0.443475
0.444633
0.446946
0.450418
0.455049
0.460839
0.46779
0.475902
0.485177
0.495613
0.50721
0.519967
0.53388
0.548944
0.565152
0.582495
0.60096
0.620531
0.641189
0.662908
0.685659
0.709407
0.734108
0.759715
0.786169
0.813405
0.841347
0.86991
0.898999
0.928507
0.958314
0.988291
1.01829
1.04817
1.07775
1.10687
1.13533
1.16293
1.18949
1.21479
1.23862
1.26079
1.28109
1.29933
1.31534
1.32894
1.34001
1.34841
1.35407
1.35691
0.452366
0.453582
0.456012
0.459659
0.464525
0.47061
0.477918
0.48645
0.496207
0.507192
0.519405
0.532847
0.547516
0.56341
0.580523
0.59885
0.618378
0.639095
0.660984
0.684021
0.708179
0.733423
0.759715
0.787004
0.815234
0.844338
0.874241
0.904855
0.936081
0.967807
0.999908
1.03225
1.06467
1.09701
1.12909
1.16072
1.19169
1.22179
1.25079
1.27847
1.30458
1.32891
1.35122
1.37129
1.38892
1.40392
1.41613
1.42542
1.43167
1.43481
0.461399
0.462675
0.465225
0.469053
0.474161
0.480551
0.488227
0.497191
0.507447
0.518999
0.53185
0.546001
0.561454
0.578209
0.596262
0.615611
0.636247
0.65816
0.681335
0.705751
0.731385
0.758204
0.786169
0.815234
0.845343
0.876429
0.908417
0.941217
0.974727
1.00883
1.0434
1.07829
1.11333
1.14835
1.18316
1.21753
1.25126
1.2841
1.3158
1.34611
1.37476
1.40149
1.42604
1.44816
1.46762
1.48419
1.4977
1.50797
1.5149
1.51838
0.470541
0.471878
0.474552
0.478565
0.483922
0.490625
0.498678
0.508087
0.518857
0.530993
0.5445
0.559383
0.575646
0.59329
0.612317
0.632726
0.654512
0.677668
0.702182
0.728038
0.755214
0.783682
0.813405
0.844338
0.876429
0.909612
0.943812
0.978937
1.01488
1.05154
1.08875
1.12639
1.16426
1.20219
1.23996
1.27734
1.31409
1.34995
1.38463
1.41786
1.44933
1.47875
1.50581
1.53023
1.55174
1.57009
1.58506
1.59646
1.60414
1.608
0.479756
0.481156
0.483956
0.48816
0.49377
0.500793
0.509234
0.519099
0.530395
0.54313
0.557311
0.572946
0.590041
0.608602
0.628633
0.650136
0.673112
0.697555
0.72346
0.750813
0.779596
0.809785
0.841347
0.874241
0.908417
0.943812
0.98035
1.01794
1.05648
1.09585
1.13591
1.1765
1.21743
1.25851
1.2995
1.34017
1.38023
1.41941
1.4574
1.49386
1.52848
1.56089
1.59078
1.61779
1.64162
1.66198
1.67861
1.69128
1.69982
1.70412
0.489009
0.490473
0.493401
0.497798
0.503668
0.511017
0.519852
0.530182
0.542015
0.555362
0.570232
0.586637
0.604585
0.624086
0.645149
0.667778
0.691979
0.717752
0.745094
0.773998
0.804449
0.83643
0.86991
0.904855
0.941217
0.978937
1.01794
1.05815
1.09944
1.14171
1.1848
1.22856
1.27279
1.31727
1.36177
1.40602
1.44973
1.49257
1.5342
1.57427
1.61238
1.64816
1.68122
1.71116
1.73762
1.76026
1.77877
1.79289
1.80242
1.80722
0.498261
0.49979
0.502848
0.507441
0.513574
0.521254
0.530489
0.541291
0.553671
0.56764
0.583213
0.600402
0.619221
0.639683
0.661801
0.685584
0.711043
0.738183
0.767005
0.797509
0.829687
0.863524
0.898999
0.936081
0.974727
1.01488
1.05648
1.09944
1.14366
1.189
1.23534
1.28249
1.33026
1.37843
1.42674
1.4749
1.52259
1.56947
1.61514
1.65921
1.70124
1.7408
1.77743
1.81068
1.84012
1.86536
1.88602
1.90181
1.91247
1.91785
0.507474
0.509068
0.512258
0.517049
0.523447
0.531461
0.541102
0.552382
0.565314
0.579914
0.596198
0.614184
0.633888
0.655328
0.67852
0.703482
0.730226
0.758765
0.789107
0.821256
0.855212
0.890967
0.928507
0.967807
1.00883
1.05154
1.09585
1.14171
1.189
1.23761
1.2874
1.33818
1.38977
1.44191
1.49435
1.54677
1.59883
1.65015
1.7003
1.74883
1.79524
1.83905
1.87972
1.91673
1.94957
1.97778
2.00092
2.01862
2.03059
2.03662
0.516608
0.518268
0.52159
0.52658
0.533245
0.541595
0.551644
0.563404
0.576894
0.59213
0.609133
0.627923
0.648522
0.670952
0.695235
0.721393
0.749445
0.779411
0.811304
0.845138
0.880918
0.918645
0.958314
0.999908
1.0434
1.08875
1.13591
1.1848
1.23534
1.2874
1.34084
1.3955
1.45116
1.50759
1.5645
1.62157
1.67841
1.73462
1.78973
1.84323
1.89457
1.94316
1.98841
2.02971
2.06645
2.09807
2.12406
2.14397
2.15745
2.16425
0.525623
0.527349
0.530803
0.535991
0.542923
0.551611
0.562067
0.57431
0.588358
0.604233
0.621957
0.641556
0.663057
0.686485
0.71187
0.739237
0.768614
0.800027
0.833497
0.869047
0.906689
0.946436
0.988291
1.03225
1.07829
1.12639
1.1765
1.22856
1.28249
1.33818
1.3955
1.45427
1.5143
1.57533
1.63707
1.69919
1.76127
1.82288
1.88348
1.94253
1.99939
2.0534
2.10386
2.15005
2.19128
2.22684
2.25614
2.27862
2.29386
2.30155
0.534477
0.536269
0.539854
0.54524
0.552438
0.561461
0.572324
0.585048
0.599653
0.616165
0.634611
0.65502
0.677424
0.701853
0.728343
0.756927
0.787639
0.820513
0.855579
0.892868
0.932404
0.974208
1.01829
1.06467
1.11333
1.16426
1.21743
1.27279
1.33026
1.38977
1.45116
1.5143
1.57897
1.64494
1.7119
1.77949
1.8473
1.91484
1.98154
2.04678
2.10986
2.17
2.22641
2.27823
2.32463
2.36478
2.39793
2.42342
2.44072
2.44946
0.54313
0.544986
0.548702
0.554284
0.561745
0.5711
0.582366
0.595566
0.610725
0.62787
0.647033
0.668248
0.691551
0.716979
0.744574
0.774375
0.806425
0.840765
0.877436
0.916478
0.957927
1.00182
1.04817
1.09701
1.14835
1.20219
1.25851
1.31727
1.37843
1.44191
1.50759
1.57533
1.64494
1.71617
1.78874
1.86227
1.93632
2.01039
2.08385
2.15602
2.2261
2.29322
2.35643
2.41475
2.46715
2.51265
2.55032
2.57936
2.5991
2.60908
0.55154
0.55346
0.557303
0.563079
0.570799
0.580481
0.592144
0.605814
0.621518
0.639289
0.659161
0.681172
0.705365
0.731784
0.760475
0.791487
0.82487
0.860674
0.89895
0.939749
0.98312
1.02911
1.07775
1.12909
1.18316
1.23996
1.2995
1.36177
1.42674
1.49435
1.5645
1.63707
1.7119
1.78874
1.86731
1.94725
2.0281
2.10933
2.19029
2.2702
2.34818
2.42324
2.49428
2.56012
2.61954
2.67133
2.71435
2.74758
2.77023
2.78169
0.559666
0.561649
0.565617
0.571581
0.579555
0.589556
0.601609
0.615739
0.631978
0.650361
0.670929
0.693724
0.718793
0.746188
0.775961
0.808169
0.84287
0.880125
0.919996
0.962545
1.00783
1.05592
1.10687
1.16072
1.21753
1.27734
1.34017
1.40602
1.4749
1.54677
1.62157
1.69919
1.77949
1.86227
1.94725
2.03408
2.12232
2.2114
2.30063
2.3892
2.47611
2.56024
2.6403
2.7149
2.78256
2.84179
2.89118
2.92945
2.95557
2.96882
0.567468
0.569511
0.573601
0.579748
0.587968
0.59828
0.610711
0.625288
0.642048
0.661029
0.682275
0.705834
0.73176
0.760109
0.790941
0.824323
0.86032
0.899004
0.940448
0.984726
1.03191
1.08209
1.13533
1.19169
1.25126
1.31409
1.38023
1.44973
1.52259
1.59883
1.67841
1.76127
1.8473
1.93632
2.0281
2.12232
2.21853
2.31618
2.41456
2.51279
2.60979
2.70428
2.79479
2.87965
2.95705
3.02517
3.0822
3.12654
3.15688
3.17228
0.574906
0.577007
0.581213
0.587537
0.595994
0.606607
0.619402
0.634412
0.651674
0.671232
0.693135
0.717434
0.74419
0.773465
0.805328
0.839851
0.877111
0.91719
0.960173
1.00615
1.0552
1.10743
1.16293
1.22179
1.2841
1.34995
1.41941
1.49257
1.56947
1.65015
1.73462
1.82288
1.91484
2.01039
2.10933
2.2114
2.31618
2.42314
2.53158
2.64057
2.74897
2.85534
2.95798
3.05491
3.14393
3.22272
3.28902
3.34075
3.37623
3.39428
0.581941
0.584098
0.588416
0.594908
0.603592
0.614491
0.627635
0.643059
0.660803
0.680914
0.703446
0.728457
0.75601
0.786176
0.819031
0.854655
0.893136
0.934565
0.97904
1.02666
1.07754
1.13177
1.18949
1.25079
1.3158
1.38463
1.4574
1.5342
1.61514
1.7003
1.78973
1.88348
1.98154
2.08385
2.19029
2.30063
2.41456
2.53158
2.65102
2.77197
2.89321
3.01319
3.12996
3.24118
3.34414
3.43591
3.51354
3.57436
3.61618
3.63748
0.588536
0.590746
0.595169
0.601821
0.61072
0.621891
0.635365
0.65118
0.669381
0.690018
0.713148
0.738834
0.767146
0.798161
0.831962
0.868639
0.908287
0.95101
0.996917
1.04612
1.09875
1.15493
1.21479
1.27847
1.34611
1.41786
1.49386
1.57427
1.65921
1.74883
1.84323
1.94253
2.04678
2.15602
2.2702
2.3892
2.51279
2.64057
2.77197
2.9061
3.04177
3.17734
3.31062
3.43885
3.55871
3.66641
3.75807
3.83016
3.87985
3.90518
0.594656
0.596915
0.601437
0.608238
0.617338
0.628763
0.642547
0.658731
0.67736
0.69849
0.722181
0.748502
0.777529
0.809344
0.844037
0.881707
0.922459
0.966407
1.01367
1.06438
1.11868
1.17671
1.23862
1.30458
1.37476
1.44933
1.52848
1.61238
1.70124
1.79524
1.89457
1.99939
2.10986
2.2261
2.34818
2.47611
2.60979
2.74897
2.89321
3.04177
3.19355
3.34689
3.49946
3.64807
3.78861
3.91613
4.02537
4.11158
4.17109
4.20145
0.600267
0.602571
0.607185
0.614124
0.62341
0.635071
0.649141
0.665665
0.684691
0.706278
0.73049
0.7574
0.78709
0.819648
0.855172
0.893768
0.93555
0.980642
1.02918
1.0813
1.13717
1.19694
1.26079
1.32891
1.40149
1.47875
1.56089
1.64816
1.7408
1.83905
1.94316
2.0534
2.17
2.29322
2.42324
2.56024
2.70428
2.85534
3.01319
3.17734
3.34689
3.52036
3.69543
3.86857
4.03475
4.18737
4.31893
4.42296
4.49474
4.53133
0.605338
0.607684
0.612381
0.619446
0.628901
0.640776
0.655108
0.671941
0.691329
0.713333
0.738021
0.76547
0.795766
0.829005
0.86529
0.904734
0.947462
0.993607
1.04331
1.09674
1.15406
1.21544
1.28109
1.35122
1.42604
1.50581
1.59078
1.68122
1.77743
1.87972
1.98841
2.10386
2.22641
2.35643
2.49428
2.6403
2.79479
2.95798
3.12996
3.31062
3.49946
3.69543
3.89652
4.09923
4.2977
4.48293
4.6433
4.76985
4.85686
4.90108
0.609841
0.612224
0.616995
0.624173
0.633779
0.645846
0.660411
0.677522
0.697234
0.719611
0.744725
0.772657
0.803498
0.837348
0.874317
0.914525
0.958105
1.0052
1.05596
1.11057
1.1692
1.23205
1.29933
1.37129
1.44816
1.53023
1.61779
1.71116
1.81068
1.91673
2.02971
2.15005
2.27823
2.41475
2.56012
2.7149
2.87965
3.05491
3.24118
3.43885
3.64807
3.86857
4.09923
4.33738
4.57716
4.80663
5.00478
5.15959
5.26507
5.31837
0.61375
0.616165
0.621002
0.628278
0.638016
0.65025
0.66502
0.682373
0.702369
0.725072
0.750559
0.778914
0.810232
0.844618
0.882186
0.923066
0.967394
1.01532
1.06702
1.12267
1.18245
1.2466
1.31534
1.38892
1.46762
1.55174
1.64162
1.73762
1.84012
1.94957
2.06645
2.19128
2.32463
2.46715
2.61954
2.78256
2.95705
3.14393
3.34414
3.55871
3.78861
4.03475
4.2977
4.57716
4.87022
5.16493
5.41292
5.60199
5.72877
5.79229
0.617043
0.619486
0.624377
0.631736
0.641587
0.653963
0.668905
0.686464
0.7067
0.72968
0.755483
0.784197
0.81592
0.850761
0.88884
0.93029
0.975256
1.0239
1.07639
1.13292
1.1937
1.25896
1.32894
1.40392
1.48419
1.57009
1.66198
1.76026
1.86536
1.97778
2.09807
2.22684
2.36478
2.51265
2.67133
2.84179
3.02517
3.22272
3.43591
3.66641
3.91613
4.18737
4.48293
4.80663
5.16493
5.57328
5.8833
6.11002
6.25909
6.33308
0.619701
0.622166
0.627102
0.634528
0.64447
0.656961
0.672043
0.689769
0.710199
0.733404
0.759464
0.78847
0.820522
0.855732
0.894227
0.936141
0.981627
1.03085
1.08399
1.14125
1.20284
1.269
1.34001
1.41613
1.4977
1.58506
1.67861
1.77877
1.88602
2.00092
2.12406
2.25614
2.39793
2.55032
2.71435
2.89118
3.0822
3.28902
3.51354
3.75807
4.02537
4.31893
4.6433
5.00478
5.41292
5.8833
6.24033
6.49905
6.66784
6.75124
0.621708
0.62419
0.62916
0.636638
0.646648
0.659226
0.674414
0.692267
0.712845
0.73622
0.762475
0.791701
0.824003
0.859495
0.898304
0.940572
0.986453
1.03612
1.08975
1.14756
1.20977
1.27663
1.34841
1.42542
1.50797
1.59646
1.69128
1.79289
1.90181
2.01862
2.14397
2.27862
2.42342
2.57936
2.74758
2.92945
3.12654
3.34075
3.57436
3.83016
4.11158
4.42296
4.76985
5.15959
5.60199
6.11002
6.49905
6.78136
6.96536
7.05616
0.623052
0.625546
0.630539
0.638051
0.648108
0.660744
0.676004
0.693941
0.714618
0.738108
0.764494
0.793869
0.826339
0.86202
0.901041
0.943547
0.989694
1.03966
1.09362
1.1518
1.21443
1.28176
1.35407
1.43167
1.5149
1.60414
1.69982
1.80242
1.91247
2.03059
2.15745
2.29386
2.44072
2.5991
2.77023
2.95557
3.15688
3.37623
3.61618
3.87985
4.17109
4.49474
4.85686
5.26507
5.72877
6.25909
6.66784
6.96536
7.15947
7.25527
0.623727
0.626225
0.63123
0.638759
0.648839
0.661505
0.676801
0.69478
0.715507
0.739055
0.765506
0.794956
0.82751
0.863286
0.902414
0.945039
0.99132
1.04143
1.09557
1.15394
1.21677
1.28434
1.35691
1.43481
1.51838
1.608
1.70412
1.80722
1.91785
2.03662
2.16425
2.30155
2.44946
2.60908
2.78169
2.96882
3.17228
3.39428
3.63748
3.90518
4.20145
4.53133
4.90108
5.31837
5.79229
6.33308
6.75124
7.05616
7.25527
7.35357
)
;

boundaryField
{
    walls
    {
        type            zeroGradient;
    }
    frontAndBack
    {
        type            empty;
    }
}


// ************************************************************************* //
