/*--------------------------------*- C++ -*----------------------------------*\
| =========                 |                                                 |
| \\      /  F ield         | OpenFOAM: The Open Source CFD Toolbox           |
|  \\    /   O peration     | Version:  2406                                  |
|   \\  /    A nd           | Website:  www.openfoam.com                      |
|    \\/     M anipulation  |                                                 |
\*---------------------------------------------------------------------------*/
FoamFile
{
    version     2.0;
    format      ascii;
    arch        "LSB;label=32;scalar=64";
    class       volVectorField;
    location    "0.05";
    object      flux;
}
// * * * * * * * * * * * * * * * * * * * * * * * * * * * * * * * * * * * * * //

dimensions      [0 1 -1 1 0 0 0];

internalField   nonuniform List<vector> 
2500
(
(1.17842e-05 1.17842e-05 0)
(3.77622e-05 1.5406e-05 0)
(7.13542e-05 2.33705e-05 0)
(0.000118369 3.72363e-05 0)
(0.000185348 5.94465e-05 0)
(0.00027976 9.34596e-05 0)
(0.000409655 0.000143837 0)
(0.000582965 0.000216252 0)
(0.000806354 0.000317348 0)
(0.00108365 0.000454407 0)
(0.00141404 0.000634761 0)
(0.00179031 0.000864968 0)
(0.00219754 0.0011498 0)
(0.00261274 0.00149114 0)
(0.00300583 0.00188701 0)
(0.00334199 0.00233085 0)
(0.00358533 0.00281132 0)
(0.00370336 0.00331266 0)
(0.00367123 0.00381564 0)
(0.0034752 0.00429904 0)
(0.00311434 0.00474126 0)
(0.00260054 0.00512205 0)
(0.00195682 0.00542387 0)
(0.00121475 0.00563293 0)
(0.000411583 0.0057398 0)
(-0.000412273 0.00573971 0)
(-0.00121544 0.00563268 0)
(-0.00195752 0.00542346 0)
(-0.00260125 0.0051215 0)
(-0.00311505 0.00474059 0)
(-0.0034759 0.00429826 0)
(-0.00367191 0.00381479 0)
(-0.00370399 0.00331175 0)
(-0.00358588 0.00281039 0)
(-0.00334241 0.00232991 0)
(-0.0030061 0.00188608 0)
(-0.00261282 0.00149024 0)
(-0.00219741 0.00114894 0)
(-0.00178999 0.00086417 0)
(-0.00141355 0.000634034 0)
(-0.00108302 0.000453761 0)
(-0.000805642 0.000316789 0)
(-0.000582226 0.00021578 0)
(-0.000408938 0.00014345 0)
(-0.000279108 9.31508e-05 0)
(-0.000184791 5.9207e-05 0)
(-0.000117928 3.7055e-05 0)
(-7.10482e-05 2.32347e-05 0)
(-3.75554e-05 1.52997e-05 0)
(-1.16948e-05 1.16968e-05 0)
(1.5406e-05 3.77622e-05 0)
(4.93485e-05 4.93485e-05 0)
(9.31845e-05 7.48249e-05 0)
(0.000154445 0.000119161 0)
(0.000241571 0.000190135 0)
(0.000364151 0.000298742 0)
(0.000532447 0.000459456 0)
(0.000756476 0.000690231 0)
(0.00104451 0.00101205 0)
(0.00140106 0.0014478 0)
(0.00182461 0.00202045 0)
(0.00230535 0.00275039 0)
(0.00282371 0.00365226 0)
(0.00334995 0.00473149 0)
(0.00384554 0.0059813 0)
(0.0042663 0.00738054 0)
(0.00456714 0.00889309 0)
(0.00470768 0.0104692 0)
(0.00465761 0.0120483 0)
(0.00440081 0.0135642 0)
(0.00393735 0.0149494 0)
(0.00328315 0.0161411 0)
(0.0024677 0.017085 0)
(0.00153068 0.0177385 0)
(0.00051837 0.0180726 0)
(-0.000519394 0.0180726 0)
(-0.00153169 0.0177386 0)
(-0.0024687 0.0170852 0)
(-0.00328412 0.0161414 0)
(-0.00393829 0.0149497 0)
(-0.0044017 0.0135645 0)
(-0.00465842 0.0120486 0)
(-0.00470839 0.0104694 0)
(-0.00456773 0.00889323 0)
(-0.00426672 0.00738056 0)
(-0.00384577 0.00598118 0)
(-0.00334996 0.00473122 0)
(-0.00282348 0.00365184 0)
(-0.00230489 0.00274985 0)
(-0.00182396 0.00201981 0)
(-0.00140027 0.00144711 0)
(-0.00104362 0.00101134 0)
(-0.000755564 0.000689556 0)
(-0.000531567 0.00045884 0)
(-0.000363351 0.000298206 0)
(-0.000240886 0.000189686 0)
(-0.000153901 0.000118795 0)
(-9.28035e-05 7.45298e-05 0)
(-4.90933e-05 4.90996e-05 0)
(-1.52977e-05 3.7561e-05 0)
(2.33705e-05 7.13542e-05 0)
(7.48249e-05 9.31845e-05 0)
(0.000141167 0.000141167 0)
(0.000233679 0.000224577 0)
(0.000364929 0.000357916 0)
(0.000549081 0.00056161 0)
(0.000801144 0.00086245 0)
(0.00113555 0.00129351 0)
(0.00156392 0.00189323 0)
(0.00209206 0.00270326 0)
(0.00271664 0.00376498 0)
(0.00342212 0.0051146 0)
(0.00417863 0.0067774 0)
(0.00494179 0.00876151 0)
(0.00565488 0.0110526 0)
(0.00625377 0.0136102 0)
(0.00667395 0.0163672 0)
(0.00685861 0.0192321 0)
(0.00676625 0.0220953 0)
(0.00637625 0.0248371 0)
(0.00569125 0.0273371 0)
(0.0047361 0.0294839 0)
(0.0035542 0.0311816 0)
(0.00220236 0.0323558 0)
(0.000745736 0.0329558 0)
(-0.000746245 0.0329561 0)
(-0.00220289 0.0323567 0)
(-0.00355477 0.031183 0)
(-0.00473672 0.0294857 0)
(-0.00569192 0.0273393 0)
(-0.00637698 0.0248395 0)
(-0.00676701 0.0220979 0)
(-0.00685938 0.0192347 0)
(-0.0066747 0.0163696 0)
(-0.00625446 0.0136124 0)
(-0.00565544 0.0110544 0)
(-0.00494216 0.00876295 0)
(-0.00417878 0.0067784 0)
(-0.00342202 0.00511517 0)
(-0.00271629 0.00376514 0)
(-0.00209149 0.00270311 0)
(-0.00156319 0.00189285 0)
(-0.00113473 0.00129298 0)
(-0.000800288 0.000861858 0)
(-0.000548262 0.000561022 0)
(-0.000364201 0.000357374 0)
(-0.000233085 0.000224101 0)
(-0.000140744 0.000140755 0)
(-7.45243e-05 9.28135e-05 0)
(-2.32334e-05 7.1056e-05 0)
(3.72363e-05 0.000118369 0)
(0.000119161 0.000154445 0)
(0.000224577 0.000233679 0)
(0.000371194 0.000371194 0)
(0.000578604 0.000590572 0)
(0.000868685 0.000924892 0)
(0.00126435 0.0014173 0)
(0.00178726 0.0021207 0)
(0.00245426 0.00309606 0)
(0.00327281 0.00440878 0)
(0.00423595 0.00612291 0)
(0.00531777 0.00829336 0)
(0.00647061 0.0109566 0)
(0.00762513 0.0141215 0)
(0.00869424 0.0177609 0)
(0.00958091 0.021807 0)
(0.0101891 0.0261508 0)
(0.0104358 0.0306471 0)
(0.0102625 0.035124 0)
(0.00964264 0.0393961 0)
(0.00858419 0.0432796 0)
(0.00712766 0.0466051 0)
(0.00533964 0.0492293 0)
(0.00330484 0.0510411 0)
(0.00111864 0.0519659 0)
(-0.00111852 0.0519663 0)
(-0.00330478 0.0510421 0)
(-0.00533968 0.0492309 0)
(-0.00712783 0.0466073 0)
(-0.00858452 0.0432822 0)
(-0.00964314 0.0393991 0)
(-0.0102632 0.0351271 0)
(-0.0104366 0.0306503 0)
(-0.01019 0.0261539 0)
(-0.00958191 0.0218098 0)
(-0.00869522 0.0177634 0)
(-0.00762599 0.0141235 0)
(-0.00647126 0.0109581 0)
(-0.00531815 0.00829425 0)
(-0.00423601 0.00612327 0)
(-0.00327256 0.00440869 0)
(-0.00245375 0.00309562 0)
(-0.00178655 0.00212004 0)
(-0.00126353 0.00141653 0)
(-0.000867835 0.000924107 0)
(-0.000577807 0.000589832 0)
(-0.00037052 0.000370532 0)
(-0.000224091 0.000233098 0)
(-0.000118792 0.000153913 0)
(-3.70552e-05 0.000117937 0)
(5.94465e-05 0.000185348 0)
(0.000190135 0.000241571 0)
(0.000357916 0.000364929 0)
(0.000590572 0.000578604 0)
(0.000918627 0.000918627 0)
(0.00137581 0.00143526 0)
(0.00199695 0.00219361 0)
(0.00281431 0.00327283 0)
(0.003852 0.00476315 0)
(0.00511891 0.00676008 0)
(0.00660122 0.00935543 0)
(0.00825584 0.0126255 0)
(0.0100068 0.0166178 0)
(0.011746 0.0213373 0)
(0.0133403 0.026736 0)
(0.0146437 0.0327067 0)
(0.0155141 0.0390839 0)
(0.0158318 0.045652 0)
(0.0155153 0.0521609 0)
(0.0145319 0.0583448 0)
(0.0129002 0.0639436 0)
(0.0106858 0.0687215 0)
(0.0079902 0.072481 0)
(0.00493902 0.0750712 0)
(0.00167089 0.0763915 0)
(-0.00167005 0.0763919 0)
(-0.00493827 0.0750723 0)
(-0.00798961 0.0724828 0)
(-0.0106854 0.0687239 0)
(-0.0129001 0.0639466 0)
(-0.0145321 0.0583482 0)
(-0.0155158 0.0521646 0)
(-0.0158326 0.0456559 0)
(-0.0155152 0.0390877 0)
(-0.014645 0.0327104 0)
(-0.0133418 0.0267394 0)
(-0.0117474 0.0213402 0)
(-0.010008 0.0166201 0)
(-0.00825684 0.0126271 0)
(-0.00660185 0.00935637 0)
(-0.00511914 0.00676042 0)
(-0.00385184 0.00476299 0)
(-0.00281382 0.00327231 0)
(-0.00199622 0.00219287 0)
(-0.00137496 0.00143443 0)
(-0.000917776 0.000917788 0)
(-0.000589819 0.000577819 0)
(-0.000357363 0.000364216 0)
(-0.000189685 0.0002409 0)
(-5.92091e-05 0.0001848 0)
(9.34596e-05 0.00027976 0)
(0.000298742 0.000364151 0)
(0.00056161 0.000549081 0)
(0.000924892 0.000868685 0)
(0.00143526 0.00137581 0)
(0.00214367 0.00214367 0)
(0.00310192 0.00326633 0)
(0.0043568 0.00485697 0)
(0.00594151 0.00704293 0)
(0.00786508 0.00995672 0)
(0.0101014 0.0137227 0)
(0.0125801 0.0184401 0)
(0.0151824 0.0241645 0)
(0.0177433 0.0308896 0)
(0.0200636 0.0385341 0)
(0.0219288 0.0469354 0)
(0.0231344 0.055853 0)
(0.0235128 0.0649824 0)
(0.0229553 0.0739774 0)
(0.0214253 0.0824777 0)
(0.0189609 0.0901364 0)
(0.015665 0.0966447 0)
(0.0116893 0.101748 0)
(0.00721539 0.105255 0)
(0.00243935 0.10704 0)
(-0.00243773 0.10704 0)
(-0.00721389 0.105256 0)
(-0.011688 0.10175 0)
(-0.0156641 0.0966471 0)
(-0.0189603 0.0901394 0)
(-0.0214251 0.0824812 0)
(-0.0229555 0.0739814 0)
(-0.0235135 0.0649867 0)
(-0.0231355 0.0558574 0)
(-0.0219303 0.0469398 0)
(-0.0200654 0.0385384 0)
(-0.0177453 0.0308934 0)
(-0.0151843 0.0241678 0)
(-0.0125819 0.0184427 0)
(-0.0101027 0.0137245 0)
(-0.00786595 0.00995777 0)
(-0.00594186 0.00704331 0)
(-0.00435667 0.00485682 0)
(-0.00310141 0.00326581 0)
(-0.00214292 0.00214293 0)
(-0.00143441 0.00137497 0)
(-0.000924092 0.000867848 0)
(-0.00056101 0.000548279 0)
(-0.000298208 0.000363366 0)
(-9.31554e-05 0.000279117 0)
(0.000143837 0.000409655 0)
(0.000459456 0.000532447 0)
(0.00086245 0.000801144 0)
(0.0014173 0.00126435 0)
(0.00219361 0.00199695 0)
(0.00326633 0.00310192 0)
(0.00471024 0.00471024 0)
(0.00659091 0.00697763 0)
(0.00895175 0.0100765 0)
(0.0117987 0.0141827 0)
(0.0150846 0.019456 0)
(0.0186976 0.0260172 0)
(0.0224562 0.033923 0)
(0.0261157 0.0431436 0)
(0.0293862 0.0535478 0)
(0.0319626 0.0648973 0)
(0.0335611 0.0768561 0)
(0.0339562 0.0890116 0)
(0.0330106 0.100907 0)
(0.0306908 0.112076 0)
(0.0270672 0.122081 0)
(0.0222973 0.13054 0)
(0.0166005 0.137146 0)
(0.0102307 0.141671 0)
(0.00345601 0.14397 0)
(-0.00345367 0.14397 0)
(-0.0102286 0.141672 0)
(-0.0165985 0.137147 0)
(-0.0222958 0.130542 0)
(-0.0270661 0.122083 0)
(-0.0306901 0.112079 0)
(-0.0330103 0.10091 0)
(-0.0339565 0.0890158 0)
(-0.033562 0.0768606 0)
(-0.0319641 0.0649021 0)
(-0.0293882 0.0535526 0)
(-0.026118 0.0431483 0)
(-0.0224588 0.0339272 0)
(-0.0187001 0.0260208 0)
(-0.0150868 0.0194588 0)
(-0.0118003 0.0141847 0)
(-0.00895279 0.0100777 0)
(-0.00659132 0.00697805 0)
(-0.00471011 0.00471012 0)
(-0.0032658 0.00310142 0)
(-0.00219286 0.00199623 0)
(-0.00141651 0.00126354 0)
(-0.000861845 0.000800309 0)
(-0.000458847 0.000531584 0)
(-0.000143458 0.000408946 0)
(0.000216252 0.000582965 0)
(0.000690231 0.000756476 0)
(0.00129351 0.00113555 0)
(0.0021207 0.00178726 0)
(0.00327283 0.00281431 0)
(0.00485697 0.0043568 0)
(0.00697763 0.00659091 0)
(0.00972309 0.00972309 0)
(0.0131466 0.0139778 0)
(0.0172446 0.0195779 0)
(0.0219359 0.0267182 0)
(0.0270471 0.0355346 0)
(0.0323088 0.0460726 0)
(0.0373681 0.0582613 0)
(0.0418172 0.0718972 0)
(0.0452371 0.0866442 0)
(0.0472488 0.10205 0)
(0.0475634 0.117578 0)
(0.0460193 0.132651 0)
(0.0425995 0.146697 0)
(0.0374255 0.159193 0)
(0.0307302 0.169695 0)
(0.0228205 0.177855 0)
(0.0140394 0.183425 0)
(0.00473823 0.186247 0)
(-0.00473535 0.186248 0)
(-0.0140367 0.183426 0)
(-0.0228181 0.177856 0)
(-0.0307281 0.169697 0)
(-0.0374238 0.159195 0)
(-0.0425983 0.1467 0)
(-0.0460185 0.132654 0)
(-0.0475632 0.117582 0)
(-0.0472492 0.102054 0)
(-0.0452382 0.0866488 0)
(-0.0418192 0.0719021 0)
(-0.0373707 0.0582663 0)
(-0.0323118 0.0460775 0)
(-0.0270502 0.035539 0)
(-0.0219389 0.0267219 0)
(-0.0172471 0.0195808 0)
(-0.0131485 0.0139798 0)
(-0.00972422 0.00972423 0)
(-0.00697804 0.00659133 0)
(-0.0048568 0.00435668 0)
(-0.00327229 0.00281383 0)
(-0.00212002 0.00178657 0)
(-0.00129297 0.00113475 0)
(-0.00068957 0.000755583 0)
(-0.000215793 0.000582231 0)
(0.000317348 0.000806354 0)
(0.00101205 0.00104451 0)
(0.00189323 0.00156392 0)
(0.00309606 0.00245426 0)
(0.00476315 0.003852 0)
(0.00704293 0.00594151 0)
(0.0100765 0.00895175 0)
(0.0139778 0.0131466 0)
(0.0188066 0.0188066 0)
(0.0245391 0.0262014 0)
(0.0310413 0.0355549 0)
(0.038052 0.0470053 0)
(0.0451829 0.0605679 0)
(0.0519402 0.0761064 0)
(0.0577691 0.0933202 0)
(0.0621154 0.111752 0)
(0.064495 0.130815 0)
(0.0645573 0.14984 0)
(0.0621297 0.168132 0)
(0.0572331 0.185026 0)
(0.0500652 0.199931 0)
(0.0409594 0.212368 0)
(0.0303302 0.221973 0)
(0.0186227 0.2285 0)
(0.00627857 0.231799 0)
(-0.0062754 0.231799 0)
(-0.0186197 0.228501 0)
(-0.0303275 0.221974 0)
(-0.040957 0.212368 0)
(-0.0500631 0.199932 0)
(-0.0572313 0.185027 0)
(-0.0621284 0.168134 0)
(-0.0645564 0.149842 0)
(-0.0644948 0.130817 0)
(-0.0621161 0.111755 0)
(-0.0577706 0.0933245 0)
(-0.0519426 0.0761112 0)
(-0.0451861 0.0605729 0)
(-0.0380557 0.0470102 0)
(-0.031045 0.0355593 0)
(-0.0245425 0.0262051 0)
(-0.0188093 0.0188094 0)
(-0.0139798 0.0131485 0)
(-0.0100777 0.0089528 0)
(-0.00704329 0.00594187 0)
(-0.00476296 0.00385185 0)
(-0.00309559 0.00245377 0)
(-0.00189283 0.00156322 0)
(-0.00101137 0.00104364 0)
(-0.00031681 0.000805643 0)
(0.000454407 0.00108365 0)
(0.0014478 0.00140106 0)
(0.00270326 0.00209206 0)
(0.00440878 0.00327281 0)
(0.00676008 0.00511891 0)
(0.00995672 0.00786508 0)
(0.0141827 0.0117987 0)
(0.0195779 0.0172446 0)
(0.0262014 0.0245391 0)
(0.0339929 0.0339929 0)
(0.0427398 0.0458458 0)
(0.05206 0.0602182 0)
(0.0614099 0.0770694 0)
(0.0701204 0.0961691 0)
(0.0774625 0.117092 0)
(0.0827314 0.139239 0)
(0.085337 0.161878 0)
(0.084881 0.184212 0)
(0.0812049 0.205444 0)
(0.0743984 0.224841 0)
(0.0647676 0.241786 0)
(0.0527726 0.2558 0)
(0.0389533 0.266546 0)
(0.0238646 0.273807 0)
(0.00803652 0.277463 0)
(-0.00803332 0.277463 0)
(-0.0238615 0.273807 0)
(-0.0389504 0.266546 0)
(-0.05277 0.2558 0)
(-0.0647653 0.241786 0)
(-0.0743964 0.224841 0)
(-0.0812031 0.205444 0)
(-0.0848795 0.184213 0)
(-0.0853361 0.16188 0)
(-0.0827312 0.139241 0)
(-0.0774633 0.117095 0)
(-0.0701223 0.096173 0)
(-0.0614128 0.0770739 0)
(-0.0520638 0.060223 0)
(-0.042744 0.0458504 0)
(-0.0339971 0.0339971 0)
(-0.0262051 0.0245425 0)
(-0.0195808 0.0172471 0)
(-0.0141846 0.0118003 0)
(-0.00995775 0.00786596 0)
(-0.00676039 0.00511916 0)
(-0.00440865 0.00327259 0)
(-0.0027031 0.00209153 0)
(-0.00144715 0.00140028 0)
(-0.000453793 0.00108302 0)
(0.000634761 0.00141404 0)
(0.00202045 0.00182461 0)
(0.00376498 0.00271664 0)
(0.00612291 0.00423595 0)
(0.00935543 0.00660122 0)
(0.0137227 0.0101014 0)
(0.019456 0.0150846 0)
(0.0267182 0.0219359 0)
(0.0355549 0.0310413 0)
(0.0458458 0.0427398 0)
(0.0572666 0.0572666 0)
(0.0692756 0.0746977 0)
(0.0811337 0.0949051 0)
(0.0919631 0.117534 0)
(0.100839 0.142009 0)
(0.106902 0.167573 0)
(0.109469 0.193354 0)
(0.108123 0.218439 0)
(0.102758 0.241965 0)
(0.0935753 0.263178 0)
(0.0810246 0.281485 0)
(0.0657191 0.296461 0)
(0.0483367 0.307839 0)
(0.0295403 0.315473 0)
(0.00993505 0.319301 0)
(-0.00993203 0.319301 0)
(-0.0295374 0.315473 0)
(-0.0483339 0.307838 0)
(-0.0657166 0.29646 0)
(-0.0810223 0.281484 0)
(-0.0935731 0.263178 0)
(-0.102756 0.241964 0)
(-0.108121 0.218439 0)
(-0.109467 0.193354 0)
(-0.106901 0.167574 0)
(-0.100839 0.142011 0)
(-0.0919642 0.117536 0)
(-0.0811361 0.0949086 0)
(-0.0692791 0.0747018 0)
(-0.0572709 0.0572709 0)
(-0.0458504 0.042744 0)
(-0.0355593 0.031045 0)
(-0.0267219 0.0219389 0)
(-0.0194588 0.0150868 0)
(-0.0137245 0.0101028 0)
(-0.00935633 0.00660187 0)
(-0.00612322 0.00423604 0)
(-0.00376514 0.00271633 0)
(-0.00201988 0.00182397 0)
(-0.000634078 0.00141353 0)
(0.000864968 0.00179031 0)
(0.00275039 0.00230535 0)
(0.0051146 0.00342212 0)
(0.00829336 0.00531777 0)
(0.0126255 0.00825584 0)
(0.0184401 0.0125801 0)
(0.0260172 0.0186976 0)
(0.0355346 0.0270471 0)
(0.0470053 0.038052 0)
(0.0602182 0.05206 0)
(0.0746977 0.0692756 0)
(0.0896985 0.0896985 0)
(0.104246 0.113081 0)
(0.117224 0.138913 0)
(0.127502 0.166453 0)
(0.134076 0.194783 0)
(0.136203 0.2229 0)
(0.133492 0.249816 0)
(0.125944 0.274647 0)
(0.113919 0.296679 0)
(0.0980502 0.315403 0)
(0.079126 0.330508 0)
(0.0579658 0.341848 0)
(0.0353274 0.349389 0)
(0.0118644 0.353148 0)
(-0.0118616 0.353147 0)
(-0.0353248 0.349388 0)
(-0.0579632 0.341848 0)
(-0.0791236 0.330507 0)
(-0.0980479 0.315402 0)
(-0.113917 0.296679 0)
(-0.125942 0.274646 0)
(-0.13349 0.249816 0)
(-0.136201 0.2229 0)
(-0.134075 0.194783 0)
(-0.127501 0.166454 0)
(-0.117224 0.138915 0)
(-0.104248 0.113083 0)
(-0.0897015 0.0897015 0)
(-0.0747018 0.0692791 0)
(-0.0602229 0.0520638 0)
(-0.0470102 0.0380557 0)
(-0.035539 0.0270502 0)
(-0.0260208 0.0187001 0)
(-0.0184427 0.0125819 0)
(-0.0126271 0.00825686 0)
(-0.00829419 0.00531818 0)
(-0.00511517 0.00342206 0)
(-0.00274995 0.0023049 0)
(-0.000864229 0.00178996 0)
(0.0011498 0.00219754 0)
(0.00365226 0.00282371 0)
(0.0067774 0.00417863 0)
(0.0109566 0.00647061 0)
(0.0166178 0.0100068 0)
(0.0241645 0.0151824 0)
(0.033923 0.0224562 0)
(0.0460726 0.0323088 0)
(0.0605679 0.0451829 0)
(0.0770694 0.0614099 0)
(0.0949051 0.0811337 0)
(0.113081 0.104246 0)
(0.130349 0.130349 0)
(0.145336 0.158758 0)
(0.156708 0.188555 0)
(0.163349 0.218673 0)
(0.164502 0.248011 0)
(0.15987 0.27555 0)
(0.149621 0.300447 0)
(0.134331 0.322093 0)
(0.114853 0.340127 0)
(0.0921641 0.354409 0)
(0.0672173 0.364961 0)
(0.0408397 0.371889 0)
(0.0136938 0.375315 0)
(-0.0136914 0.375315 0)
(-0.0408373 0.371888 0)
(-0.0672149 0.36496 0)
(-0.0921617 0.354409 0)
(-0.114851 0.340126 0)
(-0.134329 0.322092 0)
(-0.149619 0.300446 0)
(-0.159867 0.27555 0)
(-0.1645 0.248011 0)
(-0.163347 0.218672 0)
(-0.156707 0.188555 0)
(-0.145335 0.158758 0)
(-0.130349 0.130349 0)
(-0.113083 0.104248 0)
(-0.0949086 0.0811361 0)
(-0.0770739 0.0614129 0)
(-0.0605729 0.0451861 0)
(-0.0460775 0.0323119 0)
(-0.0339272 0.0224588 0)
(-0.0241677 0.0151843 0)
(-0.01662 0.0100081 0)
(-0.010958 0.0064713 0)
(-0.00677842 0.00417883 0)
(-0.00365198 0.00282348 0)
(-0.00114902 0.00219737 0)
(0.00149114 0.00261274 0)
(0.00473149 0.00334995 0)
(0.00876151 0.00494179 0)
(0.0141215 0.00762513 0)
(0.0213373 0.011746 0)
(0.0308896 0.0177433 0)
(0.0431436 0.0261157 0)
(0.0582613 0.0373681 0)
(0.0761064 0.0519402 0)
(0.0961691 0.0701204 0)
(0.117534 0.0919631 0)
(0.138913 0.117224 0)
(0.158758 0.145336 0)
(0.175431 0.175431 0)
(0.187417 0.206423 0)
(0.193532 0.237121 0)
(0.19308 0.266372 0)
(0.185928 0.293181 0)
(0.172487 0.31681 0)
(0.153599 0.336818 0)
(0.130367 0.353047 0)
(0.10396 0.365573 0)
(0.0754454 0.374614 0)
(0.0456815 0.380439 0)
(0.0152901 0.383285 0)
(-0.015288 0.383285 0)
(-0.0456794 0.380439 0)
(-0.0754432 0.374613 0)
(-0.103957 0.365572 0)
(-0.130364 0.353046 0)
(-0.153596 0.336817 0)
(-0.172484 0.31681 0)
(-0.185926 0.29318 0)
(-0.193078 0.266371 0)
(-0.19353 0.23712 0)
(-0.187415 0.206421 0)
(-0.17543 0.17543 0)
(-0.158758 0.145335 0)
(-0.138915 0.117224 0)
(-0.117536 0.0919642 0)
(-0.096173 0.0701223 0)
(-0.0761112 0.0519426 0)
(-0.0582663 0.0373707 0)
(-0.0431483 0.0261181 0)
(-0.0308934 0.0177453 0)
(-0.0213401 0.0117475 0)
(-0.0141234 0.00762603 0)
(-0.008763 0.00494221 0)
(-0.00473141 0.00334994 0)
(-0.00149033 0.00261277 0)
(0.00188701 0.00300583 0)
(0.0059813 0.00384554 0)
(0.0110526 0.00565488 0)
(0.0177609 0.00869424 0)
(0.026736 0.0133403 0)
(0.0385341 0.0200636 0)
(0.0535478 0.0293862 0)
(0.0718972 0.0418172 0)
(0.0933202 0.0577691 0)
(0.117092 0.0774625 0)
(0.142009 0.100839 0)
(0.166453 0.127502 0)
(0.188555 0.156708 0)
(0.206423 0.187417 0)
(0.218399 0.218399 0)
(0.223298 0.248382 0)
(0.220562 0.276211 0)
(0.210308 0.300976 0)
(0.193258 0.3221 0)
(0.170568 0.339356 0)
(0.143608 0.352829 0)
(0.11373 0.362828 0)
(0.0820838 0.369781 0)
(0.049511 0.374122 0)
(0.016539 0.376198 0)
(-0.0165375 0.376197 0)
(-0.0495093 0.374122 0)
(-0.0820817 0.36978 0)
(-0.113728 0.362827 0)
(-0.143606 0.352828 0)
(-0.170566 0.339355 0)
(-0.193256 0.322099 0)
(-0.210306 0.300975 0)
(-0.22056 0.27621 0)
(-0.223296 0.248381 0)
(-0.218397 0.218397 0)
(-0.206421 0.187415 0)
(-0.188555 0.156707 0)
(-0.166454 0.127501 0)
(-0.142011 0.100839 0)
(-0.117095 0.0774633 0)
(-0.0933245 0.0577706 0)
(-0.0719021 0.0418192 0)
(-0.0535526 0.0293882 0)
(-0.0385383 0.0200654 0)
(-0.0267393 0.0133418 0)
(-0.0177633 0.00869526 0)
(-0.0110545 0.00565549 0)
(-0.00598142 0.00384574 0)
(-0.00188619 0.00300603 0)
(0.00233085 0.00334199 0)
(0.00738054 0.0042663 0)
(0.0136102 0.00625377 0)
(0.021807 0.00958091 0)
(0.0327067 0.0146437 0)
(0.0469354 0.0219288 0)
(0.0648973 0.0319626 0)
(0.0866442 0.0452371 0)
(0.111752 0.0621154 0)
(0.139239 0.0827314 0)
(0.167573 0.106902 0)
(0.194783 0.134076 0)
(0.218673 0.163349 0)
(0.237121 0.193532 0)
(0.248382 0.223298 0)
(0.251344 0.251344 0)
(0.245674 0.276569 0)
(0.231817 0.298199 0)
(0.210867 0.315857 0)
(0.184327 0.329557 0)
(0.153839 0.339632 0)
(0.120912 0.346623 0)
(0.0867398 0.351152 0)
(0.0520978 0.353797 0)
(0.0173648 0.355001 0)
(-0.0173641 0.355 0)
(-0.0520966 0.353796 0)
(-0.086738 0.35115 0)
(-0.12091 0.346621 0)
(-0.153836 0.33963 0)
(-0.184325 0.329555 0)
(-0.210864 0.315856 0)
(-0.231815 0.298198 0)
(-0.245672 0.276568 0)
(-0.251343 0.251343 0)
(-0.248381 0.223296 0)
(-0.23712 0.19353 0)
(-0.218672 0.163347 0)
(-0.194783 0.134075 0)
(-0.167574 0.106901 0)
(-0.139241 0.0827312 0)
(-0.111755 0.0621161 0)
(-0.0866488 0.0452383 0)
(-0.064902 0.0319641 0)
(-0.0469398 0.0219303 0)
(-0.0327103 0.014645 0)
(-0.0218097 0.00958195 0)
(-0.0136125 0.00625451 0)
(-0.00738086 0.00426668 0)
(-0.00233005 0.00334233 0)
(0.00281132 0.00358533 0)
(0.00889309 0.00456714 0)
(0.0163672 0.00667395 0)
(0.0261508 0.0101891 0)
(0.0390839 0.0155141 0)
(0.055853 0.0231344 0)
(0.0768561 0.0335611 0)
(0.10205 0.0472488 0)
(0.130815 0.064495 0)
(0.161878 0.085337 0)
(0.193354 0.109469 0)
(0.2229 0.136203 0)
(0.248011 0.164502 0)
(0.266372 0.19308 0)
(0.276211 0.220562 0)
(0.276569 0.245674 0)
(0.267417 0.267417 0)
(0.249596 0.285188 0)
(0.224616 0.298828 0)
(0.194343 0.308588 0)
(0.160675 0.315029 0)
(0.12525 0.318889 0)
(0.0892575 0.320944 0)
(0.0533599 0.321884 0)
(0.0177422 0.322219 0)
(-0.0177426 0.322218 0)
(-0.0533597 0.321882 0)
(-0.0892561 0.320941 0)
(-0.125248 0.318885 0)
(-0.160672 0.315026 0)
(-0.19434 0.308586 0)
(-0.224613 0.298826 0)
(-0.249594 0.285186 0)
(-0.267415 0.267415 0)
(-0.276568 0.245672 0)
(-0.27621 0.22056 0)
(-0.266371 0.193078 0)
(-0.248011 0.1645 0)
(-0.2229 0.136201 0)
(-0.193354 0.109467 0)
(-0.16188 0.0853361 0)
(-0.130817 0.0644948 0)
(-0.102054 0.0472492 0)
(-0.0768606 0.033562 0)
(-0.0558574 0.0231355 0)
(-0.0390876 0.0155152 0)
(-0.0261538 0.0101901 0)
(-0.0163698 0.00667475 0)
(-0.0088936 0.00456768 0)
(-0.00281055 0.00358579 0)
(0.00331266 0.00370336 0)
(0.0104692 0.00470768 0)
(0.0192321 0.00685861 0)
(0.0306471 0.0104358 0)
(0.045652 0.0158318 0)
(0.0649824 0.0235128 0)
(0.0890116 0.0339562 0)
(0.117578 0.0475634 0)
(0.14984 0.0645573 0)
(0.184212 0.084881 0)
(0.218439 0.108123 0)
(0.249816 0.133492 0)
(0.27555 0.15987 0)
(0.293181 0.185928 0)
(0.300976 0.210308 0)
(0.298199 0.231817 0)
(0.285188 0.249596 0)
(0.263229 0.263229 0)
(0.234267 0.272764 0)
(0.200528 0.278655 0)
(0.164139 0.281643 0)
(0.126827 0.282608 0)
(0.0897353 0.282425 0)
(0.0533731 0.281847 0)
(0.0176993 0.281415 0)
(-0.0177011 0.281415 0)
(-0.0533741 0.281844 0)
(-0.0897347 0.282422 0)
(-0.126825 0.282604 0)
(-0.164135 0.281639 0)
(-0.200524 0.278651 0)
(-0.234264 0.272761 0)
(-0.263226 0.263226 0)
(-0.285186 0.249594 0)
(-0.298198 0.231815 0)
(-0.300975 0.210306 0)
(-0.29318 0.185926 0)
(-0.27555 0.159867 0)
(-0.249816 0.13349 0)
(-0.218439 0.108121 0)
(-0.184213 0.0848795 0)
(-0.149842 0.0645564 0)
(-0.117582 0.0475632 0)
(-0.0890157 0.0339566 0)
(-0.0649866 0.0235135 0)
(-0.0456558 0.0158326 0)
(-0.0306502 0.0104367 0)
(-0.0192349 0.00685942 0)
(-0.0104698 0.00470833 0)
(-0.00331193 0.00370389 0)
(0.00381564 0.00367123 0)
(0.0120483 0.00465761 0)
(0.0220953 0.00676625 0)
(0.035124 0.0102625 0)
(0.0521609 0.0155153 0)
(0.0739774 0.0229553 0)
(0.100907 0.0330106 0)
(0.132651 0.0460193 0)
(0.168132 0.0621297 0)
(0.205444 0.0812049 0)
(0.241965 0.102758 0)
(0.274647 0.125944 0)
(0.300447 0.149621 0)
(0.31681 0.172487 0)
(0.3221 0.193258 0)
(0.315857 0.210867 0)
(0.298828 0.224616 0)
(0.272764 0.234267 0)
(0.240042 0.240042 0)
(0.203222 0.242542 0)
(0.164628 0.24262 0)
(0.126032 0.241226 0)
(0.0884963 0.239271 0)
(0.0523501 0.237514 0)
(0.0173102 0.236496 0)
(-0.0173135 0.236495 0)
(-0.0523524 0.237512 0)
(-0.0884967 0.239267 0)
(-0.126031 0.241222 0)
(-0.164624 0.242616 0)
(-0.203218 0.242538 0)
(-0.240038 0.240038 0)
(-0.272761 0.234264 0)
(-0.298826 0.224613 0)
(-0.315856 0.210864 0)
(-0.322099 0.193256 0)
(-0.31681 0.172484 0)
(-0.300446 0.149619 0)
(-0.274646 0.125942 0)
(-0.241964 0.102756 0)
(-0.205444 0.0812031 0)
(-0.168134 0.0621284 0)
(-0.132654 0.0460185 0)
(-0.10091 0.0330103 0)
(-0.0739813 0.0229555 0)
(-0.0521645 0.0155158 0)
(-0.035127 0.0102633 0)
(-0.0220981 0.00676705 0)
(-0.0120491 0.00465836 0)
(-0.00381499 0.00367181 0)
(0.00429904 0.0034752 0)
(0.0135642 0.00440081 0)
(0.0248371 0.00637625 0)
(0.0393961 0.00964264 0)
(0.0583448 0.0145319 0)
(0.0824777 0.0214253 0)
(0.112076 0.0306908 0)
(0.146697 0.0425995 0)
(0.185026 0.0572331 0)
(0.224841 0.0743984 0)
(0.263178 0.0935753 0)
(0.296679 0.113919 0)
(0.322093 0.134331 0)
(0.336818 0.153599 0)
(0.339356 0.170568 0)
(0.329557 0.184327 0)
(0.308588 0.194343 0)
(0.278655 0.200528 0)
(0.242542 0.203222 0)
(0.203106 0.203106 0)
(0.162823 0.201065 0)
(0.123478 0.198044 0)
(0.0860226 0.194922 0)
(0.0505984 0.19242 0)
(0.0166806 0.191041 0)
(-0.0166852 0.19104 0)
(-0.0506019 0.192419 0)
(-0.0860241 0.19492 0)
(-0.123477 0.19804 0)
(-0.16282 0.201061 0)
(-0.203102 0.203102 0)
(-0.242538 0.203218 0)
(-0.278651 0.200524 0)
(-0.308586 0.19434 0)
(-0.329555 0.184325 0)
(-0.339355 0.170566 0)
(-0.336817 0.153596 0)
(-0.322092 0.134329 0)
(-0.296679 0.113917 0)
(-0.263178 0.0935731 0)
(-0.224841 0.0743964 0)
(-0.185027 0.0572313 0)
(-0.1467 0.0425983 0)
(-0.112079 0.0306901 0)
(-0.0824811 0.0214251 0)
(-0.058348 0.0145321 0)
(-0.0393989 0.00964318 0)
(-0.0248398 0.00637701 0)
(-0.0135651 0.00440162 0)
(-0.00429848 0.0034758 0)
(0.00474126 0.00311434 0)
(0.0149494 0.00393735 0)
(0.0273371 0.00569125 0)
(0.0432796 0.00858419 0)
(0.0639436 0.0129002 0)
(0.0901364 0.0189609 0)
(0.122081 0.0270672 0)
(0.159193 0.0374255 0)
(0.199931 0.0500652 0)
(0.241786 0.0647676 0)
(0.281485 0.0810246 0)
(0.315403 0.0980502 0)
(0.340127 0.114853 0)
(0.353047 0.130367 0)
(0.352829 0.143608 0)
(0.339632 0.153839 0)
(0.315029 0.160675 0)
(0.281643 0.164139 0)
(0.24262 0.164628 0)
(0.201065 0.162823 0)
(0.159565 0.159565 0)
(0.11989 0.155725 0)
(0.0828729 0.152092 0)
(0.0484685 0.149304 0)
(0.01593 0.147799 0)
(-0.0159354 0.147799 0)
(-0.0484728 0.149304 0)
(-0.0828752 0.152091 0)
(-0.11989 0.155723 0)
(-0.159563 0.159563 0)
(-0.201061 0.16282 0)
(-0.242616 0.164624 0)
(-0.281639 0.164135 0)
(-0.315026 0.160672 0)
(-0.33963 0.153836 0)
(-0.352828 0.143606 0)
(-0.353046 0.130364 0)
(-0.340126 0.114851 0)
(-0.315402 0.0980479 0)
(-0.281484 0.0810223 0)
(-0.241786 0.0647653 0)
(-0.199932 0.0500632 0)
(-0.159195 0.0374238 0)
(-0.122083 0.0270661 0)
(-0.0901393 0.0189603 0)
(-0.0639464 0.0129002 0)
(-0.0432821 0.00858455 0)
(-0.0273397 0.00569195 0)
(-0.0149503 0.00393821 0)
(-0.00474081 0.00311496 0)
(0.00512205 0.00260054 0)
(0.0161411 0.00328315 0)
(0.0294839 0.0047361 0)
(0.0466051 0.00712766 0)
(0.0687215 0.0106858 0)
(0.0966447 0.015665 0)
(0.13054 0.0222973 0)
(0.169695 0.0307302 0)
(0.212368 0.0409594 0)
(0.2558 0.0527726 0)
(0.296461 0.0657191 0)
(0.330508 0.079126 0)
(0.354409 0.0921641 0)
(0.365573 0.10396 0)
(0.362828 0.11373 0)
(0.346623 0.120912 0)
(0.318889 0.12525 0)
(0.282608 0.126827 0)
(0.241226 0.126032 0)
(0.198044 0.123478 0)
(0.155725 0.11989 0)
(0.116005 0.116005 0)
(0.0796022 0.112478 0)
(0.0463051 0.109831 0)
(0.0151752 0.108419 0)
(-0.0151806 0.108419 0)
(-0.0463095 0.109832 0)
(-0.0796048 0.112479 0)
(-0.116005 0.116005 0)
(-0.155723 0.11989 0)
(-0.19804 0.123477 0)
(-0.241222 0.126031 0)
(-0.282604 0.126825 0)
(-0.318885 0.125248 0)
(-0.346621 0.12091 0)
(-0.362827 0.113728 0)
(-0.365572 0.103957 0)
(-0.354409 0.0921617 0)
(-0.330507 0.0791236 0)
(-0.29646 0.0657166 0)
(-0.2558 0.05277 0)
(-0.212368 0.040957 0)
(-0.169697 0.0307281 0)
(-0.130542 0.0222958 0)
(-0.096647 0.0156641 0)
(-0.0687238 0.0106855 0)
(-0.0466072 0.00712786 0)
(-0.0294861 0.00473674 0)
(-0.0161421 0.00328405 0)
(-0.00512173 0.00260117 0)
(0.00542387 0.00195682 0)
(0.017085 0.0024677 0)
(0.0311816 0.0035542 0)
(0.0492293 0.00533964 0)
(0.072481 0.0079902 0)
(0.101748 0.0116893 0)
(0.137146 0.0166005 0)
(0.177855 0.0228205 0)
(0.221973 0.0303302 0)
(0.266546 0.0389533 0)
(0.307839 0.0483367 0)
(0.341848 0.0579658 0)
(0.364961 0.0672173 0)
(0.374614 0.0754454 0)
(0.369781 0.0820838 0)
(0.351152 0.0867398 0)
(0.320944 0.0892575 0)
(0.282425 0.0897353 0)
(0.239271 0.0884963 0)
(0.194922 0.0860226 0)
(0.152092 0.0828729 0)
(0.112478 0.0796022 0)
(0.0766996 0.0766996 0)
(0.0444089 0.0745487 0)
(0.0145176 0.0734087 0)
(-0.0145222 0.0734093 0)
(-0.0444128 0.0745504 0)
(-0.076702 0.076702 0)
(-0.112479 0.0796048 0)
(-0.152091 0.0828752 0)
(-0.19492 0.0860241 0)
(-0.239267 0.0884967 0)
(-0.282422 0.0897347 0)
(-0.320941 0.0892561 0)
(-0.35115 0.086738 0)
(-0.36978 0.0820817 0)
(-0.374613 0.0754432 0)
(-0.36496 0.0672149 0)
(-0.341848 0.0579632 0)
(-0.307838 0.048334 0)
(-0.266546 0.0389504 0)
(-0.221974 0.0303275 0)
(-0.177856 0.0228181 0)
(-0.137147 0.0165985 0)
(-0.10175 0.011688 0)
(-0.0724826 0.00798962 0)
(-0.0492308 0.0053397 0)
(-0.0311835 0.00355478 0)
(-0.0170859 0.00246863 0)
(-0.00542369 0.00195745 0)
(0.00563293 0.00121475 0)
(0.0177385 0.00153068 0)
(0.0323558 0.00220236 0)
(0.0510411 0.00330484 0)
(0.0750712 0.00493902 0)
(0.105255 0.00721539 0)
(0.141671 0.0102307 0)
(0.183425 0.0140394 0)
(0.2285 0.0186227 0)
(0.273807 0.0238646 0)
(0.315473 0.0295403 0)
(0.349389 0.0353274 0)
(0.371889 0.0408397 0)
(0.380439 0.0456815 0)
(0.374122 0.049511 0)
(0.353797 0.0520978 0)
(0.321884 0.0533599 0)
(0.281847 0.0533731 0)
(0.237514 0.0523501 0)
(0.19242 0.0505984 0)
(0.149304 0.0484685 0)
(0.109831 0.0463051 0)
(0.0745487 0.0444089 0)
(0.0430142 0.0430142 0)
(0.0140358 0.0422782 0)
(-0.014039 0.0422791 0)
(-0.0430169 0.0430169 0)
(-0.0745504 0.0444128 0)
(-0.109832 0.0463095 0)
(-0.149304 0.0484728 0)
(-0.192419 0.0506019 0)
(-0.237512 0.0523524 0)
(-0.281844 0.0533741 0)
(-0.321882 0.0533597 0)
(-0.353796 0.0520966 0)
(-0.374122 0.0495093 0)
(-0.380439 0.0456794 0)
(-0.371888 0.0408373 0)
(-0.349388 0.0353248 0)
(-0.315473 0.0295374 0)
(-0.273807 0.0238615 0)
(-0.228501 0.0186197 0)
(-0.183426 0.0140367 0)