/*--------------------------------*- C++ -*----------------------------------*\
| =========                 |                                                 |
| \\      /  F ield         | OpenFOAM: The Open Source CFD Toolbox           |
|  \\    /   O peration     | Version:  2406                                  |
|   \\  /    A nd           | Website:  www.openfoam.com                      |
|    \\/     M anipulation  |                                                 |
\*---------------------------------------------------------------------------*/
FoamFile
{
    version     2.0;
    format      ascii;
    arch        "LSB;label=32;scalar=64";
    class       volScalarField;
    location    "0.05";
    object      gradTy;
}
// * * * * * * * * * * * * * * * * * * * * * * * * * * * * * * * * * * * * * //

dimensions      [0 -1 0 1 0 0 0];

internalField   nonuniform List<scalar> 
2500
(
0.000117842
0.00015406
0.000233705
0.000372363
0.000594465
0.000934596
0.00143837
0.00216252
0.00317348
0.00454407
0.00634761
0.00864968
0.011498
0.0149114
0.0188701
0.0233085
0.0281132
0.0331266
0.0381564
0.0429904
0.0474126
0.0512205
0.0542387
0.0563293
0.057398
0.0573971
0.0563268
0.0542346
0.051215
0.0474059
0.0429826
0.0381479
0.0331175
0.0281039
0.0232991
0.0188608
0.0149024
0.0114894
0.0086417
0.00634034
0.00453761
0.00316789
0.0021578
0.0014345
0.000931508
0.00059207
0.00037055
0.000232347
0.000152997
0.000116968
0.000377622
0.000493485
0.000748249
0.00119161
0.00190135
0.00298742
0.00459456
0.00690231
0.0101205
0.014478
0.0202045
0.0275039
0.0365226
0.0473149
0.059813
0.0738054
0.0889309
0.104692
0.120483
0.135642
0.149494
0.161411
0.17085
0.177385
0.180726
0.180726
0.177386
0.170852
0.161414
0.149497
0.135645
0.120486
0.104694
0.0889323
0.0738056
0.0598118
0.0473122
0.0365184
0.0274985
0.0201981
0.0144711
0.0101134
0.00689556
0.0045884
0.00298206
0.00189686
0.00118795
0.000745298
0.000490996
0.00037561
0.000713542
0.000931845
0.00141167
0.00224577
0.00357916
0.0056161
0.0086245
0.0129351
0.0189323
0.0270326
0.0376498
0.051146
0.067774
0.0876151
0.110526
0.136102
0.163672
0.192321
0.220953
0.248371
0.273371
0.294839
0.311816
0.323558
0.329558
0.329561
0.323567
0.31183
0.294857
0.273393
0.248395
0.220979
0.192347
0.163696
0.136124
0.110544
0.0876295
0.067784
0.0511517
0.0376514
0.0270311
0.0189285
0.0129298
0.00861858
0.00561022
0.00357374
0.00224101
0.00140755
0.000928135
0.00071056
0.00118369
0.00154445
0.00233679
0.00371194
0.00590572
0.00924892
0.014173
0.021207
0.0309606
0.0440878
0.0612291
0.0829336
0.109566
0.141215
0.177609
0.21807
0.261508
0.306471
0.35124
0.393961
0.432796
0.466051
0.492293
0.510411
0.519659
0.519663
0.510421
0.492309
0.466073
0.432822
0.393991
0.351271
0.306503
0.261539
0.218098
0.177634
0.141235
0.109581
0.0829425
0.0612327
0.0440869
0.0309562
0.0212004
0.0141653
0.00924107
0.00589832
0.00370532
0.00233098
0.00153913
0.00117937
0.00185348
0.00241571
0.00364929
0.00578604
0.00918627
0.0143526
0.0219361
0.0327283
0.0476315
0.0676008
0.0935543
0.126255
0.166178
0.213373
0.26736
0.327067
0.390839
0.45652
0.521609
0.583448
0.639436
0.687215
0.72481
0.750712
0.763915
0.763919
0.750723
0.724828
0.687239
0.639466
0.583482
0.521646
0.456559
0.390877
0.327104
0.267394
0.213402
0.166201
0.126271
0.0935637
0.0676042
0.0476299
0.0327231
0.0219287
0.0143443
0.00917788
0.00577819
0.00364216
0.002409
0.001848
0.0027976
0.00364151
0.00549081
0.00868685
0.0137581
0.0214367
0.0326633
0.0485697
0.0704293
0.0995672
0.137227
0.184401
0.241645
0.308896
0.385341
0.469354
0.55853
0.649824
0.739774
0.824777
0.901364
0.966447
1.01748
1.05255
1.0704
1.0704
1.05256
1.0175
0.966471
0.901394
0.824812
0.739814
0.649867
0.558574
0.469398
0.385384
0.308934
0.241678
0.184427
0.137245
0.0995777
0.0704331
0.0485682
0.0326581
0.0214293
0.0137497
0.00867848
0.00548279
0.00363366
0.00279117
0.00409655
0.00532447
0.00801144
0.0126435
0.0199695
0.0310192
0.0471024
0.0697763
0.100765
0.141827
0.19456
0.260172
0.33923
0.431436
0.535478
0.648973
0.768561
0.890116
1.00907
1.12076
1.22081
1.3054
1.37146
1.41671
1.4397
1.4397
1.41672
1.37147
1.30542
1.22083
1.12079
1.0091
0.890158
0.768606
0.649021
0.535526
0.431483
0.339272
0.260208
0.194588
0.141847
0.100777
0.0697805
0.0471012
0.0310142
0.0199623
0.0126354
0.00800309
0.00531584
0.00408946
0.00582965
0.00756476
0.0113555
0.0178726
0.0281431
0.043568
0.0659091
0.0972309
0.139778
0.195779
0.267182
0.355346
0.460726
0.582613
0.718972
0.866442
1.0205
1.17578
1.32651
1.46697
1.59193
1.69695
1.77855
1.83425
1.86247
1.86248
1.83426
1.77856
1.69697
1.59195
1.467
1.32654
1.17582
1.02054
0.866488
0.719021
0.582663
0.460775
0.35539
0.267219
0.195808
0.139798
0.0972423
0.0659133
0.0435668
0.0281383
0.0178657
0.0113475
0.00755583
0.00582231
0.00806354
0.0104451
0.0156392
0.0245426
0.03852
0.0594151
0.0895175
0.131466
0.188066
0.262014
0.355549
0.470053
0.605679
0.761064
0.933202
1.11752
1.30815
1.4984
1.68132
1.85026
1.99931
2.12368
2.21973
2.285
2.31799
2.31799
2.28501
2.21974
2.12368
1.99932
1.85027
1.68134
1.49842
1.30817
1.11755
0.933245
0.761112
0.605729
0.470102
0.355593
0.262051
0.188094
0.131485
0.089528
0.0594187
0.0385185
0.0245377
0.0156322
0.0104364
0.00805643
0.0108365
0.0140106
0.0209206
0.0327281
0.0511891
0.0786508
0.117987
0.172446
0.245391
0.339929
0.458458
0.602182
0.770694
0.961691
1.17092
1.39239
1.61878
1.84212
2.05444
2.24841
2.41786
2.558
2.66546
2.73807
2.77463
2.77463
2.73807
2.66546
2.558
2.41786
2.24841
2.05444
1.84213
1.6188
1.39241
1.17095
0.96173
0.770739
0.60223
0.458504
0.339971
0.245425
0.172471
0.118003
0.0786596
0.0511916
0.0327259
0.0209153
0.0140028
0.0108302
0.0141404
0.0182461
0.0271664
0.0423595
0.0660122
0.101014
0.150846
0.219359
0.310413
0.427398
0.572666
0.746977
0.949051
1.17534
1.42009
1.67573
1.93354
2.18439
2.41965
2.63178
2.81485
2.96461
3.07839
3.15473
3.19301
3.19301
3.15473
3.07838
2.9646
2.81484
2.63178
2.41964
2.18439
1.93354
1.67574
1.42011
1.17536
0.949086
0.747018
0.572709
0.42744
0.31045
0.219389
0.150868
0.101028
0.0660187
0.0423604
0.0271633
0.0182397
0.0141353
0.0179031
0.0230535
0.0342212
0.0531777
0.0825584
0.125801
0.186976
0.270471
0.38052
0.5206
0.692756
0.896985
1.13081
1.38913
1.66453
1.94783
2.229
2.49816
2.74647
2.96679
3.15403
3.30508
3.41848
3.49389
3.53148
3.53147
3.49388
3.41848
3.30507
3.15402
2.96679
2.74646
2.49816
2.229
1.94783
1.66454
1.38915
1.13083
0.897015
0.692791
0.520638
0.380557
0.270502
0.187001
0.125819
0.0825686
0.0531818
0.0342206
0.023049
0.0178996
0.0219754
0.0282371
0.0417863
0.0647061
0.100068
0.151824
0.224562
0.323088
0.451829
0.614099
0.811337
1.04246
1.30349
1.58758
1.88555
2.18673
2.48011
2.7555
3.00447
3.22093
3.40127
3.54409
3.64961
3.71889
3.75315
3.75315
3.71888
3.6496
3.54409
3.40126
3.22092
3.00446
2.7555
2.48011
2.18672
1.88555
1.58758
1.30349
1.04248
0.811361
0.614129
0.451861
0.323119
0.224588
0.151843
0.100081
0.064713
0.0417883
0.0282348
0.0219737
0.0261274
0.0334995
0.0494179
0.0762513
0.11746
0.177433
0.261157
0.373681
0.519402
0.701204
0.919631
1.17224
1.45336
1.75431
2.06423
2.37121
2.66372
2.93181
3.1681
3.36818
3.53047
3.65573
3.74614
3.80439
3.83285
3.83285
3.80439
3.74613
3.65572
3.53046
3.36817
3.1681
2.9318
2.66371
2.3712
2.06421
1.7543
1.45335
1.17224
0.919642
0.701223
0.519426
0.373707
0.261181
0.177453
0.117475
0.0762603
0.0494221
0.0334994
0.0261277
0.0300583
0.0384554
0.0565488
0.0869424
0.133403
0.200636
0.293862
0.418172
0.577691
0.774625
1.00839
1.27502
1.56708
1.87417
2.18399
2.48382
2.76211
3.00976
3.221
3.39356
3.52829
3.62828
3.69781
3.74122
3.76198
3.76197
3.74122
3.6978
3.62827
3.52828
3.39355
3.22099
3.00975
2.7621
2.48381
2.18397
1.87415
1.56707
1.27501
1.00839
0.774633
0.577706
0.418192
0.293882
0.200654
0.133418
0.0869526
0.0565549
0.0384574
0.0300603
0.0334199
0.042663
0.0625377
0.0958091
0.146437
0.219288
0.319626
0.452371
0.621154
0.827314
1.06902
1.34076
1.63349
1.93532
2.23298
2.51344
2.76569
2.98199
3.15857
3.29557
3.39632
3.46623
3.51152
3.53797
3.55001
3.55
3.53796
3.5115
3.46621
3.3963
3.29555
3.15856
2.98198
2.76568
2.51343
2.23296
1.9353
1.63347
1.34075
1.06901
0.827312
0.621161
0.452383
0.319641
0.219303
0.14645
0.0958195
0.0625451
0.0426668
0.0334233
0.0358533
0.0456714
0.0667395
0.101891
0.155141
0.231344
0.335611
0.472488
0.64495
0.85337
1.09469
1.36203
1.64502
1.9308
2.20562
2.45674
2.67417
2.85188
2.98828
3.08588
3.15029
3.18889
3.20944
3.21884
3.22219
3.22218
3.21882
3.20941
3.18885
3.15026
3.08586
2.98826
2.85186
2.67415
2.45672
2.2056
1.93078
1.645
1.36201
1.09467
0.853361
0.644948
0.472492
0.33562
0.231355
0.155152
0.101901
0.0667475
0.0456768
0.0358579
0.0370336
0.0470768
0.0685861
0.104358
0.158318
0.235128
0.339562
0.475634
0.645573
0.84881
1.08123
1.33492
1.5987
1.85928
2.10308
2.31817
2.49596
2.63229
2.72764
2.78655
2.81643
2.82608
2.82425
2.81847
2.81415
2.81415
2.81844
2.82422
2.82604
2.81639
2.78651
2.72761
2.63226
2.49594
2.31815
2.10306
1.85926
1.59867
1.3349
1.08121
0.848795
0.645564
0.475632
0.339566
0.235135
0.158326
0.104367
0.0685942
0.0470833
0.0370389
0.0367123
0.0465761
0.0676625
0.102625
0.155153
0.229553
0.330106
0.460193
0.621297
0.812049
1.02758
1.25944
1.49621
1.72487
1.93258
2.10867
2.24616
2.34267
2.40042
2.42542
2.4262
2.41226
2.39271
2.37514
2.36496
2.36495
2.37512
2.39267
2.41222
2.42616
2.42538
2.40038
2.34264
2.24613
2.10864
1.93256
1.72484
1.49619
1.25942
1.02756
0.812031
0.621284
0.460185
0.330103
0.229555
0.155158
0.102633
0.0676705
0.0465836
0.0367181
0.034752
0.0440081
0.0637625
0.0964264
0.145319
0.214253
0.306908
0.425995
0.572331
0.743984
0.935753
1.13919
1.34331
1.53599
1.70568
1.84327
1.94343
2.00528
2.03222
2.03106
2.01065
1.98044
1.94922
1.9242
1.91041
1.9104
1.92419
1.9492
1.9804
2.01061
2.03102
2.03218
2.00524
1.9434
1.84325
1.70566
1.53596
1.34329
1.13917
0.935731
0.743964
0.572313
0.425983
0.306901
0.214251
0.145321
0.0964318
0.0637701
0.0440162
0.034758
0.0311434
0.0393735
0.0569125
0.0858419
0.129002
0.189609
0.270672
0.374255
0.500652
0.647676
0.810246
0.980502
1.14853
1.30367
1.43608
1.53839
1.60675
1.64139
1.64628
1.62823
1.59565
1.55725
1.52092
1.49304
1.47799
1.47799
1.49304
1.52091
1.55723
1.59563
1.6282
1.64624
1.64135
1.60672
1.53836
1.43606
1.30364
1.14851
0.980479
0.810223
0.647653
0.500632
0.374238
0.270661
0.189603
0.129002
0.0858455
0.0569195
0.0393821
0.0311496
0.0260054
0.0328315
0.047361
0.0712766
0.106858
0.15665
0.222973
0.307302
0.409594
0.527726
0.657191
0.79126
0.921641
1.0396
1.1373
1.20912
1.2525
1.26827
1.26032
1.23478
1.1989
1.16005
1.12478
1.09831
1.08419
1.08419
1.09832
1.12479
1.16005
1.1989
1.23477
1.26031
1.26825
1.25248
1.2091
1.13728
1.03957
0.921617
0.791236
0.657166
0.5277
0.40957
0.307281
0.222958
0.156641
0.106855
0.0712786
0.0473674
0.0328405
0.0260117
0.0195682
0.024677
0.035542
0.0533964
0.079902
0.116893
0.166005
0.228205
0.303302
0.389533
0.483367
0.579658
0.672173
0.754454
0.820838
0.867398
0.892575
0.897353
0.884963
0.860226
0.828729
0.796022
0.766996
0.745487
0.734087
0.734093
0.745504
0.76702
0.796048
0.828752
0.860241
0.884967
0.897347
0.892561
0.86738
0.820817
0.754432
0.672149
0.579632
0.48334
0.389504
0.303275
0.228181
0.165985
0.11688
0.0798962
0.053397
0.0355478
0.0246863
0.0195745
0.0121475
0.0153068
0.0220236
0.0330484
0.0493902
0.0721539
0.102307
0.140394
0.186227
0.238646
0.295403
0.353274
0.408397
0.456815
0.49511
0.520978
0.533599
0.533731
0.523501
0.505984
0.484685
0.463051
0.444089
0.430142
0.422782
0.422791
0.430169
0.444128
0.463095
0.484728
0.506019
0.523524
0.533741
0.533597
0.520966
0.495093
0.456794
0.408373
0.353248
0.295374
0.238615
0.186197
0.140367
0.102286
0.0721389
0.0493827
0.0330479
0.022029
0.0153163
0.0121539
0.00411583
0.0051837
0.00745736
0.0111864
0.0167089
0.0243935
0.0345601
0.0473823
0.0627857
0.0803652
0.0993505
0.118644
0.136938
0.152901
0.16539
0.173648
0.177422
0.176993
0.173102
0.166806
0.1593
0.151752
0.145176
0.140358
0.137825
0.137836
0.14039
0.145222
0.151806
0.159354
0.166852
0.173135
0.177011
0.177426
0.173641
0.165375
0.15288
0.136914
0.118616
0.0993203
0.0803332
0.062754
0.0473535
0.0345367
0.0243773
0.0167005
0.0111853
0.00746244
0.00519343
0.00412242
-0.00412273
-0.00519394
-0.00746245
-0.0111852
-0.0167005
-0.0243773
-0.0345367
-0.0473535
-0.062754
-0.0803332
-0.0993203
-0.118616
-0.136914
-0.15288
-0.165375
-0.173641
-0.177426
-0.177011
-0.173135
-0.166852
-0.159354
-0.151806
-0.145222
-0.14039
-0.137836
-0.137825
-0.140358
-0.145176
-0.151752
-0.1593
-0.166806
-0.173102
-0.176993
-0.177422
-0.173648
-0.16539
-0.152901
-0.136938
-0.118644
-0.0993505
-0.0803652
-0.0627858
-0.0473823
-0.0345601
-0.0243935
-0.016709
-0.0111864
-0.00745744
-0.00518406
-0.00411593
-0.0121544
-0.0153169
-0.0220289
-0.0330478
-0.0493827
-0.0721389
-0.102286
-0.140367
-0.186197
-0.238615
-0.295374
-0.353248
-0.408373
-0.456794
-0.495093
-0.520966
-0.533597
-0.533741
-0.523524
-0.506019
-0.484728
-0.463095
-0.444128
-0.430169
-0.422791
-0.422782
-0.430142
-0.444089
-0.463051
-0.484685
-0.505984
-0.523501
-0.533731
-0.533599
-0.520978
-0.49511
-0.456815
-0.408397
-0.353274
-0.295403
-0.238646
-0.186227
-0.140394
-0.102308
-0.0721539
-0.0493903
-0.0330485
-0.0220238
-0.015307
-0.0121473
-0.0195752
-0.024687
-0.0355477
-0.0533968
-0.0798961
-0.11688
-0.165985
-0.228181
-0.303275
-0.389504
-0.483339
-0.579632
-0.672149
-0.754432
-0.820817
-0.86738
-0.892561
-0.897347
-0.884967
-0.860241
-0.828752
-0.796048
-0.76702
-0.745504
-0.734093
-0.734087
-0.745487
-0.766996
-0.796022
-0.828729
-0.860226
-0.884963
-0.897353
-0.892575
-0.867398
-0.820838
-0.754454
-0.672173
-0.579658
-0.483367
-0.389533
-0.303302
-0.228205
-0.166005
-0.116893
-0.0799021
-0.0533966
-0.0355422
-0.024677
-0.0195679
-0.0260125
-0.0328412
-0.0473672
-0.0712783
-0.106854
-0.156641
-0.222958
-0.307281
-0.40957
-0.5277
-0.657166
-0.791236
-0.921617
-1.03957
-1.13728
-1.2091
-1.25248
-1.26825
-1.26031
-1.23477
-1.1989
-1.16005
-1.12479
-1.09832
-1.08419
-1.08419
-1.09831
-1.12478
-1.16005
-1.1989
-1.23478
-1.26032
-1.26827
-1.2525
-1.20912
-1.1373
-1.0396
-0.921641
-0.79126
-0.657191
-0.527726
-0.409594
-0.307302
-0.222973
-0.15665
-0.106858
-0.0712769
-0.0473613
-0.0328314
-0.0260049
-0.0311505
-0.0393829
-0.0569192
-0.0858452
-0.129001
-0.189603
-0.270661
-0.374238
-0.500631
-0.647653
-0.810223
-0.980479
-1.14851
-1.30364
-1.43606
-1.53836
-1.60672
-1.64135
-1.64624
-1.6282
-1.59563
-1.55723
-1.52091
-1.49304
-1.47799
-1.47799
-1.49304
-1.52092
-1.55725
-1.59565
-1.62823
-1.64628
-1.64139
-1.60675
-1.53839
-1.43608
-1.30367
-1.14853
-0.980502
-0.810247
-0.647676
-0.500652
-0.374255
-0.270672
-0.189609
-0.129003
-0.0858422
-0.0569128
-0.0393733
-0.0311427
-0.034759
-0.044017
-0.0637698
-0.0964314
-0.145321
-0.214251
-0.306901
-0.425983
-0.572313
-0.743964
-0.935731
-1.13917
-1.34329
-1.53596
-1.70566
-1.84325
-1.9434
-2.00524
-2.03218
-2.03102
-2.01061
-1.9804
-1.9492
-1.92419
-1.9104
-1.91041
-1.9242
-1.94922
-1.98044
-2.01065
-2.03106
-2.03222
-2.00528
-1.94343
-1.84327
-1.70568
-1.53599
-1.34331
-1.13919
-0.935753
-0.743985
-0.572331
-0.425996
-0.306908
-0.214254
-0.145319
-0.0964268
-0.0637629
-0.0440078
-0.0347512
-0.0367191
-0.0465842
-0.0676701
-0.102632
-0.155158
-0.229555
-0.330103
-0.460185
-0.621284
-0.812031
-1.02756
-1.25942
-1.49619
-1.72484
-1.93256
-2.10864
-2.24613
-2.34264
-2.40038
-2.42538
-2.42616
-2.41222
-2.39267
-2.37512
-2.36495
-2.36496
-2.37514
-2.39271
-2.41226
-2.4262
-2.42542
-2.40042
-2.34267
-2.24616
-2.10867
-1.93258
-1.72487
-1.49621
-1.25944
-1.02758
-0.812049
-0.621297
-0.460193
-0.330106
-0.229553
-0.155153
-0.102626
-0.0676629
-0.0465757
-0.0367115
-0.0370399
-0.0470839
-0.0685938
-0.104366
-0.158326
-0.235135
-0.339565
-0.475632
-0.645564
-0.848795
-1.08121
-1.3349
-1.59867
-1.85926
-2.10306
-2.31815
-2.49594
-2.63226
-2.72761
-2.78651
-2.81639
-2.82604
-2.82422
-2.81844
-2.81415
-2.81415
-2.81847
-2.82425
-2.82608
-2.81643
-2.78655
-2.72764
-2.63229
-2.49596
-2.31817
-2.10308
-1.85928
-1.5987
-1.33492
-1.08123
-0.84881
-0.645573
-0.475634
-0.339563
-0.235129
-0.158318
-0.104359
-0.0685865
-0.0470763
-0.0370327
-0.0358588
-0.0456773
-0.066747
-0.1019
-0.155152
-0.231355
-0.33562
-0.472492
-0.644948
-0.853361
-1.09467
-1.36201
-1.645
-1.93078
-2.2056
-2.45672
-2.67415
-2.85186
-2.98826
-3.08586
-3.15026
-3.18885
-3.20941
-3.21882
-3.22218
-3.22219
-3.21884
-3.20944
-3.18889
-3.15029
-3.08588
-2.98828
-2.85188
-2.67417
-2.45674
-2.20562
-1.9308
-1.64502
-1.36203
-1.09469
-0.85337
-0.64495
-0.472488
-0.335611
-0.231344
-0.155141
-0.101891
-0.06674
-0.0456709
-0.0358525
-0.0334241
-0.0426672
-0.0625446
-0.0958191
-0.14645
-0.219303
-0.319641
-0.452382
-0.621161
-0.827312
-1.06901
-1.34075
-1.63347
-1.9353
-2.23296
-2.51343
-2.76568
-2.98198
-3.15856
-3.29555
-3.3963
-3.46621
-3.5115
-3.53796
-3.55
-3.55001
-3.53797
-3.51152
-3.46623
-3.39632
-3.29557
-3.15857
-2.98199
-2.76569
-2.51344
-2.23298
-1.93532
-1.63349
-1.34076
-1.06902
-0.827314
-0.621155
-0.452371
-0.319626
-0.219288
-0.146437
-0.0958095
-0.0625382
-0.0426624
-0.033419
-0.030061
-0.0384577
-0.0565544
-0.0869522
-0.133418
-0.200654
-0.293882
-0.418192
-0.577706
-0.774633
-1.00839
-1.27501
-1.56707
-1.87415
-2.18397
-2.48381
-2.7621
-3.00975
-3.22099
-3.39355
-3.52828
-3.62827
-3.6978
-3.74122
-3.76197
-3.76198
-3.74122
-3.69781
-3.62828
-3.52829
-3.39356
-3.221
-3.00976
-2.76211
-2.48382
-2.18399
-1.87417
-1.56708
-1.27502
-1.00839
-0.774625
-0.577691
-0.418172
-0.293862
-0.200636
-0.133404
-0.0869428
-0.0565493
-0.0384549
-0.0300576
-0.0261282
-0.0334996
-0.0494216
-0.0762599
-0.117474
-0.177453
-0.26118
-0.373707
-0.519426
-0.701223
-0.919642
-1.17224
-1.45335
-1.7543
-2.06421
-2.3712
-2.66371
-2.9318
-3.1681
-3.36817
-3.53046
-3.65572
-3.74613
-3.80439
-3.83285
-3.83285
-3.80439
-3.74614
-3.65573
-3.53047
-3.36818
-3.1681
-2.93181
-2.66372
-2.37121
-2.06423
-1.75431
-1.45336
-1.17224
-0.919631
-0.701204
-0.519402
-0.373681
-0.261157
-0.177434
-0.117461
-0.0762517
-0.0494183
-0.033499
-0.0261267
-0.0219741
-0.0282348
-0.0417878
-0.0647126
-0.10008
-0.151843
-0.224588
-0.323118
-0.451861
-0.614128
-0.811361
-1.04248
-1.30349
-1.58758
-1.88555
-2.18672
-2.48011
-2.7555
-3.00446
-3.22092
-3.40126
-3.54409
-3.6496
-3.71888
-3.75315
-3.75315
-3.71889
-3.64961
-3.54409
-3.40127
-3.22093
-3.00447
-2.7555
-2.48011
-2.18673
-1.88555
-1.58758
-1.30349
-1.04246
-0.811337
-0.614099
-0.451829
-0.323088
-0.224562
-0.151824
-0.100068
-0.0647065
-0.0417867
-0.0282366
-0.0219748
-0.0178999
-0.0230489
-0.0342202
-0.0531815
-0.0825684
-0.125819
-0.187001
-0.270502
-0.380557
-0.520638
-0.692791
-0.897015
-1.13083
-1.38915
-1.66454
-1.94783
-2.229
-2.49816
-2.74646
-2.96679
-3.15402
-3.30507
-3.41848
-3.49388
-3.53147
-3.53148
-3.49389
-3.41848
-3.30508
-3.15403
-2.96679
-2.74647
-2.49816
-2.229
-1.94783
-1.66453
-1.38913
-1.13081
-0.896985
-0.692756
-0.5206
-0.38052
-0.270471
-0.186976
-0.125801
-0.0825587
-0.053178
-0.0342216
-0.0230531
-0.0179026
-0.0141355
-0.0182396
-0.0271629
-0.0423601
-0.0660185
-0.101027
-0.150868
-0.219389
-0.31045
-0.42744
-0.572709
-0.747018
-0.949086
-1.17536
-1.42011
-1.67574
-1.93354
-2.18439
-2.41964
-2.63178
-2.81484
-2.9646
-3.07838
-3.15473
-3.19301
-3.19301
-3.15473
-3.07839
-2.96461
-2.81485
-2.63178
-2.41965
-2.18439
-1.93354
-1.67573
-1.42009
-1.17534
-0.949051
-0.746977
-0.572666
-0.427398
-0.310413
-0.219359
-0.150846
-0.101014
-0.0660124
-0.0423598
-0.0271667
-0.0182457
-0.0141401
-0.0108302
-0.0140027
-0.0209149
-0.0327256
-0.0511914
-0.0786595
-0.118003
-0.172471
-0.245425
-0.339971
-0.458504
-0.602229
-0.770739
-0.96173
-1.17095
-1.39241
-1.6188
-1.84213
-2.05444
-2.24841
-2.41786
-2.558
-2.66546
-2.73807
-2.77463
-2.77463
-2.73807
-2.66546
-2.558
-2.41786
-2.24841
-2.05444
-1.84212
-1.61878
-1.39239
-1.17092
-0.961691
-0.770694
-0.602182
-0.458458
-0.339929
-0.245391
-0.172446
-0.117987
-0.0786509
-0.0511893
-0.0327283
-0.0209209
-0.0140104
-0.0108362
-0.00805642
-0.0104362
-0.0156319
-0.0245375
-0.0385184
-0.0594186
-0.0895279
-0.131485
-0.188093
-0.262051
-0.355593
-0.470102
-0.605729
-0.761112
-0.933245
-1.11755
-1.30817
-1.49842
-1.68134
-1.85027
-1.99932
-2.12368
-2.21974
-2.28501
-2.31799
-2.31799
-2.285
-2.21973
-2.12368
-1.99931
-1.85025
-1.68132
-1.4984
-1.30814
-1.11752
-0.933202
-0.761064
-0.605679
-0.470053
-0.355549
-0.262014
-0.188066
-0.131466
-0.0895176
-0.0594152
-0.0385202
-0.0245428
-0.0156395
-0.0104449
-0.00806332
-0.00582226
-0.00755564
-0.0113473
-0.0178655
-0.0281382
-0.0435667
-0.0659132
-0.0972422
-0.139798
-0.195808
-0.267219
-0.35539
-0.460775
-0.582663
-0.719021
-0.866488
-1.02054
-1.17582
-1.32654
-1.467
-1.59195
-1.69697
-1.77856
-1.83426
-1.86248
-1.86247
-1.83425
-1.77855
-1.69695
-1.59193
-1.46697
-1.32651
-1.17578
-1.0205
-0.866442
-0.718972
-0.582613
-0.460726
-0.355346
-0.267182
-0.195779
-0.139778
-0.0972309
-0.0659091
-0.043568
-0.0281432
-0.0178728
-0.0113557
-0.00756461
-0.00582949
-0.00408938
-0.00531567
-0.00800288
-0.0126353
-0.0199622
-0.0310141
-0.0471011
-0.0697804
-0.100777
-0.141846
-0.194588
-0.260208
-0.339272
-0.431483
-0.535526
-0.64902
-0.768606
-0.890157
-1.0091
-1.12079
-1.22083
-1.30542
-1.37147
-1.41672
-1.4397
-1.4397
-1.41671
-1.37146
-1.3054
-1.22081
-1.12076
-1.00907
-0.890116
-0.76856
-0.648972
-0.535477
-0.431436
-0.339229
-0.260172
-0.19456
-0.141827
-0.100765
-0.0697762
-0.0471024
-0.0310192
-0.0199695
-0.0126436
-0.00801159
-0.00532435
-0.00409644
-0.00279108
-0.00363351
-0.00548262
-0.00867835
-0.0137496
-0.0214292
-0.032658
-0.048568
-0.0704329
-0.0995775
-0.137245
-0.184427
-0.241677
-0.308934
-0.385383
-0.469398
-0.558574
-0.649866
-0.739813
-0.824811
-0.901393
-0.96647
-1.0175
-1.05256
-1.0704
-1.0704
-1.05255
-1.01748
-0.966446
-0.901363
-0.824776
-0.739774
-0.649823
-0.558529
-0.469353
-0.38534
-0.308895
-0.241644
-0.184401
-0.137227
-0.099567
-0.0704291
-0.0485696
-0.0326633
-0.0214367
-0.0137581
-0.00868692
-0.00549092
-0.00364142
-0.00279752
-0.00184791
-0.00240886
-0.00364201
-0.00577807
-0.00917776
-0.0143441
-0.0219286
-0.0327229
-0.0476296
-0.0676039
-0.0935633
-0.126271
-0.1662
-0.213401
-0.267393
-0.327103
-0.390876
-0.456558
-0.521645
-0.58348
-0.639464
-0.687238
-0.724826
-0.750721
-0.763917
-0.763913
-0.75071
-0.724808
-0.687213
-0.639434
-0.583446
-0.521608
-0.456519
-0.390838
-0.327066
-0.267359
-0.213372
-0.166177
-0.126255
-0.0935539
-0.0676005
-0.0476313
-0.0327281
-0.021936
-0.0143526
-0.00918625
-0.00578607
-0.00364936
-0.00241564
-0.00185342
-0.00117928
-0.00153901
-0.00233085
-0.0037052
-0.00589819
-0.00924092
-0.0141651
-0.0212002
-0.0309559
-0.0440865
-0.0612322
-0.0829419
-0.10958
-0.141234
-0.177633
-0.218097
-0.261538
-0.306502
-0.35127
-0.393989
-0.432821
-0.466072
-0.492308
-0.51042
-0.519662
-0.519658
-0.51041
-0.492292
-0.46605
-0.432795
-0.39396
-0.351239
-0.30647
-0.261507
-0.218069
-0.177608
-0.141214
-0.109566
-0.0829331
-0.0612288
-0.0440875
-0.0309603
-0.0212068
-0.0141728
-0.00924884
-0.00590568
-0.00371194
-0.00233683
-0.00154439
-0.00118365
-0.000710482
-0.000928035
-0.00140744
-0.00224091
-0.00357363
-0.0056101
-0.00861845
-0.0129297
-0.0189283
-0.027031
-0.0376514
-0.0511517
-0.0677842
-0.08763
-0.110545
-0.136125
-0.163698
-0.192349
-0.220981
-0.248398
-0.273397
-0.294861
-0.311835
-0.323572
-0.329567
-0.329564
-0.323564
-0.311822
-0.294845
-0.273377
-0.248376
-0.220958
-0.192326
-0.163676
-0.136105
-0.110529
-0.0876174
-0.0677759
-0.0511476
-0.0376509
-0.0270335
-0.018933
-0.0129356
-0.00862484
-0.00561634
-0.00357933
-0.00224591
-0.00141178
-0.000931873
-0.000713579
-0.000375554
-0.000490933
-0.000745243
-0.00118792
-0.00189685
-0.00298208
-0.00458847
-0.0068957
-0.0101137
-0.0144715
-0.0201988
-0.0274995
-0.0365198
-0.0473141
-0.0598142
-0.0738086
-0.088936
-0.104698
-0.120491
-0.135651
-0.149503
-0.161421
-0.170859
-0.177394
-0.180734
-0.180734
-0.177393
-0.170857
-0.161418
-0.149501
-0.135648
-0.120489
-0.104697
-0.0889355
-0.0738093
-0.0598163
-0.0473176
-0.0365247
-0.0275057
-0.0202058
-0.014479
-0.0101212
-0.00690283
-0.00459493
-0.00298768
-0.00190154
-0.00119174
-0.000748356
-0.00049354
-0.000377665
-0.000116948
-0.000152977
-0.000232334
-0.000370552
-0.000592091
-0.000931554
-0.00143458
-0.00215793
-0.0031681
-0.00453793
-0.00634078
-0.00864229
-0.0114902
-0.0149033
-0.0188619
-0.0233005
-0.0281055
-0.0331193
-0.0381499
-0.0429848
-0.0474081
-0.0512173
-0.0542369
-0.0563291
-0.0573994
-0.0574001
-0.0563312
-0.0542404
-0.051222
-0.0474139
-0.0429915
-0.0381574
-0.0331273
-0.0281138
-0.0233089
-0.0188704
-0.0149116
-0.0114981
-0.00864973
-0.00634762
-0.00454406
-0.00317346
-0.00216249
-0.00143835
-0.000934576
-0.000594452
-0.000372358
-0.00023371
-0.000154065
-0.000117835
)
;

boundaryField
{
    walls
    {
        type            calculated;
        value           nonuniform List<scalar> 
200
(
0
0
0
0
0
0
0
0
0
0
0
0
0
0
0
0
0
0
0
0
0
0
0
0
0
0
0
0
0
0
0
0
0
0
0
0
0
0
0
0
0
0
0
0
0
0
0
0
0
0
0.000117842
0.000377622
0.000713542
0.00118369
0.00185348
0.0027976
0.00409655
0.00582965
0.00806354
0.0108365
0.0141404
0.0179031
0.0219754
0.0261274
0.0300583
0.0334199
0.0358533
0.0370336
0.0367123
0.034752
0.0311434
0.0260054
0.0195682
0.0121475
0.00411583
-0.00412273
-0.0121544
-0.0195752
-0.0260125
-0.0311505
-0.034759
-0.0367191
-0.0370399
-0.0358588
-0.0334241
-0.030061
-0.0261282
-0.0219741
-0.0178999
-0.0141355
-0.0108302
-0.00805642
-0.00582226
-0.00408938
-0.00279108
-0.00184791
-0.00117928
-0.000710482
-0.000375554
-0.000116948
0.000116968
0.00037561
0.00071056
0.00117937
0.001848
0.00279117
0.00408946
0.00582231
0.00805643
0.0108302
0.0141353
0.0178996
0.0219737
0.0261277
0.0300603
0.0334233
0.0358579
0.0370389
0.0367181
0.034758
0.0311496
0.0260117
0.0195745
0.0121539
0.00412242
-0.00411593
-0.0121473
-0.0195679
-0.0260049
-0.0311427
-0.0347512
-0.0367115
-0.0370327
-0.0358525
-0.033419
-0.0300576
-0.0261267
-0.0219748
-0.0179026
-0.0141401
-0.0108362
-0.00806332
-0.00582949
-0.00409644
-0.00279752
-0.00185342
-0.00118365
-0.000713579
-0.000377665
-0.000117835
0
0
0
0
0
0
0
0
0
0
0
0
0
0
0
0
0
0
0
0
0
0
0
0
0
0
0
0
0
0
0
0
0
0
0
0
0
0
0
0
0
0
0
0
0
0
0
0
0
0
)
;
    }
    frontAndBack
    {
        type            empty;
    }
}


// ************************************************************************* //
