/*--------------------------------*- C++ -*----------------------------------*\
| =========                 |                                                 |
| \\      /  F ield         | OpenFOAM: The Open Source CFD Toolbox           |
|  \\    /   O peration     | Version:  2406                                  |
|   \\  /    A nd           | Website:  www.openfoam.com                      |
|    \\/     M anipulation  |                                                 |
\*---------------------------------------------------------------------------*/
FoamFile
{
    version     2.0;
    format      ascii;
    arch        "LSB;label=32;scalar=64";
    class       volScalarField;
    location    "0.05";
    object      T;
}
// * * * * * * * * * * * * * * * * * * * * * * * * * * * * * * * * * * * * * //

dimensions      [0 0 0 1 0 0 0];

internalField   nonuniform List<scalar> 
2500
(
1.53152e-05
2.00289e-05
3.04201e-05
4.85706e-05
7.77676e-05
0.00012271
0.000189672
0.000286572
0.000422858
0.000609113
0.000856318
0.00117473
0.00157244
0.00205375
0.00261754
0.00325608
0.00395433
0.00469021
0.00543568
0.0061587
0.00682576
0.00740444
0.00786597
0.00818717
0.00835187
0.0083518
0.00818696
0.00786562
0.00740395
0.00682512
0.00615793
0.00543476
0.00468917
0.00395317
0.00325481
0.0026162
0.00205237
0.00157108
0.00117341
0.000855082
0.000607992
0.000421873
0.000285735
0.000188983
0.00012216
7.73397e-05
4.82434e-05
3.01684e-05
1.98241e-05
1.51462e-05
2.00289e-05
2.61913e-05
3.97683e-05
6.34651e-05
0.000101546
0.000160094
0.000247207
0.000373072
0.000549797
0.000790876
0.00111022
0.00152072
0.00203236
0.0026502
0.00337234
0.00418842
0.00507886
0.00601528
0.00696194
0.00787832
0.00872226
0.00945326
0.0100355
0.0104403
0.0106478
0.0106477
0.01044
0.010035
0.00945255
0.00872136
0.00787724
0.00696068
0.00601387
0.00507732
0.00418678
0.00337063
0.00264847
0.00203065
0.00151908
0.0011087
0.000789496
0.000548588
0.000372047
0.000246363
0.00015942
0.000101022
6.30654e-05
3.94622e-05
2.5944e-05
1.98249e-05
3.04201e-05
3.97683e-05
6.035e-05
9.6235e-05
0.000153822
0.000242207
0.000373454
0.000562664
0.000827676
0.00118823
0.0016645
0.00227489
0.00303335
0.00394634
0.00501006
0.00620829
0.00751157
0.00887787
0.010255
0.0115844
0.0128055
0.0138609
0.0147
0.0152826
0.0155809
0.0155808
0.0152824
0.0146997
0.0138605
0.012805
0.0115837
0.0102542
0.00887692
0.00751046
0.00620704
0.00500868
0.00394486
0.00303181
0.00227335
0.00166301
0.00118683
0.00082641
0.000561557
0.000372519
0.000241442
0.000153214
9.57616e-05
5.99803e-05
3.94639e-05
3.01706e-05
4.85706e-05
6.34651e-05
9.6235e-05
0.000153296
0.000244713
0.000384738
0.000592187
0.000890478
0.00130709
0.00187218
0.00261621
0.00356656
0.00474332
0.0061548
0.00779337
0.0096325
0.0116257
0.0137081
0.0158001
0.0178131
0.0196571
0.0212468
0.0225082
0.0233827
0.0238301
0.0238301
0.0233827
0.0225082
0.0212468
0.0196571
0.017813
0.0157998
0.0137077
0.0116252
0.00963174
0.00779241
0.00615365
0.00474201
0.00356514
0.00261475
0.00187074
0.00130573
0.00088924
0.000591106
0.000383829
0.000243972
0.000152706
9.57641e-05
6.30694e-05
4.82473e-05
7.77676e-05
0.000101546
0.000153822
0.000244713
0.00039005
0.000612163
0.000940373
0.00141094
0.0020661
0.00295174
0.00411366
0.00559223
0.007416
0.00959494
0.0121144
0.0149311
0.0179719
0.0211367
0.0243046
0.0273428
0.0301173
0.0325029
0.0343917
0.035699
0.0363673
0.0363674
0.0356993
0.0343921
0.0325034
0.0301179
0.0273434
0.0243051
0.021137
0.017972
0.014931
0.012114
0.00959427
0.00741505
0.00559105
0.00411232
0.00295031
0.00206466
0.00140957
0.000939131
0.000611085
0.000389147
0.000243974
0.000153219
0.000101029
7.73455e-05
0.00012271
0.000160094
0.000242207
0.000384738
0.000612163
0.000958843
0.00146963
0.00219961
0.00321235
0.00457621
0.00635838
0.00861677
0.0113904
0.0146897
0.0184878
0.0227152
0.0272593
0.0319689
0.0366644
0.0411511
0.0452346
0.0487354
0.0515006
0.0534111
0.0543867
0.0543869
0.0534116
0.0515013
0.0487364
0.0452357
0.0411523
0.0366657
0.0319701
0.0272603
0.0227159
0.0184882
0.0146897
0.01139
0.008616
0.0063573
0.00457491
0.00321092
0.00219816
0.00146825
0.000957599
0.000611087
0.000383834
0.00024145
0.00015943
0.000122167
0.000189672
0.000247207
0.000373454
0.000592187
0.000940373
0.00146963
0.00224691
0.00335373
0.00488327
0.00693443
0.00960274
0.0129683
0.0170818
0.0219508
0.027528
0.0337052
0.0403131
0.0471297
0.0538956
0.0603339
0.0661719
0.0711608
0.0750908
0.077801
0.0791831
0.0791834
0.0778017
0.075092
0.0711623
0.0661737
0.0603358
0.0538976
0.0471317
0.040315
0.0337069
0.0275294
0.0219516
0.0170822
0.0129681
0.00960212
0.00693342
0.00488198
0.0033523
0.00224545
0.00146826
0.000939136
0.000591114
0.000372531
0.000246376
0.000188992
0.000286572
0.000373072
0.000562664
0.000890478
0.00141094
0.00219961
0.00335373
0.00499066
0.00724297
0.0102493
0.0141408
0.0190237
0.0249596
0.0319472
0.0399069
0.0486741
0.0580017
0.0675736
0.0770271
0.0859813
0.0940669
0.100951
0.106359
0.11008
0.111975
0.111975
0.110081
0.10636
0.100953
0.0940691
0.0859838
0.0770298
0.0675764
0.0580045
0.0486767
0.0399092
0.0319491
0.0249609
0.0190243
0.0141408
0.0102488
0.00724199
0.00498938
0.0033523
0.00219817
0.00140958
0.000889251
0.000561574
0.000372063
0.000285746
0.000422858
0.000549797
0.000827676
0.00130709
0.0020661
0.00321235
0.00488327
0.00724297
0.0104744
0.0147656
0.02029
0.0271821
0.0355108
0.0452553
0.0562869
0.0683629
0.0811331
0.0941609
0.106956
0.119013
0.129849
0.139039
0.146233
0.151171
0.153682
0.153682
0.151172
0.146235
0.139041
0.129852
0.119016
0.106959
0.0941643
0.0811366
0.0683664
0.0562902
0.0452582
0.0355132
0.0271837
0.0202909
0.0147657
0.0104739
0.00724199
0.00488199
0.00321093
0.00206467
0.00130574
0.000826432
0.000548609
0.000421885
0.000609113
0.000790876
0.00118823
0.00187218
0.00295174
0.00457621
0.00693443
0.0102493
0.0147656
0.0207299
0.0283628
0.0378258
0.0491868
0.0623897
0.077235
0.0933747
0.110328
0.12751
0.14428
0.159992
0.174039
0.185899
0.195148
0.20148
0.204694
0.204694
0.201481
0.19515
0.185901
0.174042
0.159995
0.144283
0.127513
0.110332
0.0933789
0.077239
0.0623935
0.0491901
0.0378284
0.0283646
0.0207308
0.0147657
0.0102488
0.00693342
0.00457491
0.00295032
0.00187076
0.00118686
0.00078952
0.000608003
0.000856318
0.00111022
0.0016645
0.00261621
0.00411366
0.00635838
0.00960274
0.0141408
0.02029
0.0283628
0.0386283
0.0512694
0.0663386
0.0837229
0.103124
0.124058
0.145884
0.167846
0.189134
0.208949
0.226564
0.241359
0.252851
0.260694
0.264667
0.264668
0.260695
0.252853
0.241361
0.226566
0.208952
0.189137
0.16785
0.145889
0.124063
0.103128
0.0837274
0.0663427
0.0512729
0.0386311
0.0283646
0.0202909
0.0141408
0.00960212
0.00635731
0.00411233
0.00261478
0.00166304
0.00110872
0.000855091
0.00117473
0.00152072
0.00227489
0.00356656
0.00559223
0.00861677
0.0129683
0.0190237
0.0271821
0.0378258
0.0512694
0.0677049
0.0871488
0.109403
0.134038
0.160404
0.187669
0.214885
0.241066
0.265263
0.286633
0.304483
0.318284
0.327669
0.332415
0.332415
0.32767
0.318285
0.304485
0.286636
0.265266
0.241069
0.214889
0.187673
0.160409
0.134043
0.109408
0.0871535
0.0677091
0.0512729
0.0378284
0.0271837
0.0190243
0.0129681
0.00861602
0.00559107
0.00356518
0.00227339
0.00151911
0.00117342
0.00157244
0.00203236
0.00303335
0.00474332
0.007416
0.0113904
0.0170818
0.0249596
0.0355108
0.0491868
0.0663386
0.0871488
0.111571
0.139288
0.169705
0.201972
0.235045
0.267772
0.298992
0.327621
0.352725
0.373562
0.389591
0.400449
0.405926
0.405927
0.40045
0.389592
0.373564
0.352727
0.327624
0.298995
0.267776
0.235048
0.201976
0.16971
0.139293
0.111576
0.0871535
0.0663427
0.0491901
0.0355132
0.0249609
0.0170822
0.0113901
0.00741508
0.00474205
0.00303187
0.00203068
0.00157108
0.00205375
0.0026502
0.00394634
0.0061548
0.00959494
0.0146897
0.0219508
0.0319472
0.0452553
0.0623897
0.0837229
0.109403
0.139288
0.172907
0.209461
0.247873
0.286874
0.325105
0.361245
0.3941
0.422684
0.446247
0.464268
0.476425
0.482541
0.482541
0.476425
0.464269
0.446248
0.422686
0.394102
0.361248
0.325109
0.286877
0.247878
0.209465
0.172911
0.139293
0.109408
0.0837274
0.0623935
0.0452582
0.0319491
0.0219517
0.0146897
0.0095943
0.0061537
0.00394493
0.0026485
0.00205236
0.00261754
0.00337234
0.00501006
0.00779337
0.0121144
0.0184878
0.027528
0.0399069
0.0562869
0.077235
0.103124
0.134038
0.169705
0.209461
0.252274
0.29682
0.341593
0.385045
0.425717
0.462348
0.493944
0.519791
0.539436
0.552625
0.55924
0.559241
0.552625
0.539437
0.519793
0.493946
0.46235
0.425719
0.385048
0.341597
0.296824
0.252278
0.209465
0.16971
0.134043
0.103128
0.077239
0.0562902
0.0399092
0.0275294
0.0184882
0.0121141
0.00779246
0.00500875
0.00337066
0.00261618
0.00325608
0.00418842
0.00620829
0.0096325
0.0149311
0.0227152
0.0337052
0.0486741
0.0683629
0.0933747
0.124058
0.160404
0.201972
0.247873
0.29682
0.347226
0.397358
0.445496
0.490085
0.529842
0.563816
0.591378
0.612181
0.626074
0.63302
0.63302
0.626074
0.612181
0.591379
0.563817
0.529845
0.490087
0.445499
0.397361
0.34723
0.296824
0.247878
0.201976
0.160409
0.124063
0.0933789
0.0683664
0.0486767
0.0337069
0.0227159
0.014931
0.0096318
0.00620712
0.00418679
0.00325478
0.00395433
0.00507886
0.00751157
0.0116257
0.0179719
0.0272593
0.0403131
0.0580017
0.0811331
0.110328
0.145884
0.187669
0.235045
0.286874
0.341593
0.397358
0.452221
0.504324
0.552059
0.594171
0.629797
0.658441
0.679897
0.694144
0.701241
0.701241
0.694144
0.679897
0.658441
0.629798
0.594173
0.552062
0.504327
0.452224
0.397361
0.341597
0.286877
0.235048
0.187673
0.145889
0.110332
0.0811366
0.0580045
0.040315
0.0272603
0.0179721
0.0116252
0.00751055
0.00507733
0.00395311
0.00469021
0.00601528
0.00887787
0.0137081
0.0211367
0.0319689
0.0471297
0.0675736
0.0941609
0.12751
0.167846
0.214885
0.267772
0.325105
0.385045
0.445496
0.504324
0.559571
0.609616
0.653278
0.689827
0.718933
0.740558
0.754827
0.761907
0.761907
0.754827
0.740558
0.718933
0.689827
0.653279
0.609618
0.559573
0.504327
0.445499
0.385048
0.325109
0.267776
0.214889
0.16785
0.127513
0.0941644
0.0675764
0.0471317
0.0319701
0.0211371
0.0137078
0.00887702
0.00601387
0.00468909
0.00543568
0.00696194
0.010255
0.0158001
0.0243046
0.0366644
0.0538956
0.0770271
0.106956
0.14428
0.189134
0.241066
0.298992
0.361245
0.425717
0.490085
0.552059
0.609616
0.661165
0.705633
0.742454
0.771484
0.792867
0.806882
0.813807
0.813806
0.806881
0.792865
0.771483
0.742453
0.705633
0.661166
0.609618
0.552062
0.490087
0.425719
0.361248
0.298995
0.241069
0.189137
0.144283
0.106959
0.0770298
0.0538976
0.0366657
0.0243051
0.0157999
0.0102543
0.00696067
0.00543467
0.0061587
0.00787832
0.0115844
0.0178131
0.0273428
0.0411511
0.0603339
0.0859813
0.119013
0.159992
0.208949
0.265263
0.327621
0.3941
0.462348
0.529842
0.594171
0.653278
0.705633
0.750295
0.786875
0.815424
0.836266
0.849833
0.856506
0.856505
0.849832
0.836264
0.815422
0.786874
0.750294
0.705633
0.653279
0.594173
0.529845
0.46235
0.394102
0.327624
0.265266
0.208952
0.159995
0.119016
0.0859838
0.0603359
0.0411523
0.0273434
0.0178131
0.0115838
0.00787721
0.00615782
0.00682576
0.00872226
0.0128055
0.0196571
0.0301173
0.0452346
0.0661719
0.0940669
0.129849
0.174039
0.226564
0.286633
0.352725
0.422684
0.493944
0.563816
0.629797
0.689827
0.742454
0.786875
0.82288
0.850701
0.870836
0.883851
0.890223
0.890223
0.883849
0.870833
0.850699
0.822878
0.786874
0.742453
0.689827
0.629798
0.563817
0.493946
0.422686
0.352727
0.286636
0.226566
0.174042
0.129852
0.0940691
0.0661737
0.0452358
0.030118
0.0196572
0.0128051
0.00872132
0.00682499
0.00740444
0.00945326
0.0138609
0.0212468
0.0325029
0.0487354
0.0711608
0.100951
0.139039
0.185899
0.241359
0.304483
0.373562
0.446247
0.519791
0.591378
0.658441
0.718933
0.771484
0.815424
0.850701
0.877714
0.897103
0.909555
0.915625
0.915625
0.909553
0.897101
0.877711
0.850699
0.815422
0.771483
0.718933
0.658441
0.591379
0.519793
0.446248
0.373564
0.304485
0.241361
0.185901
0.139041
0.100953
0.0711623
0.0487365
0.0325035
0.0212469
0.0138606
0.00945249
0.0074038
0.00786597
0.0100355
0.0147
0.0225082
0.0343917
0.0515006
0.0750908
0.106359
0.146233
0.195148
0.252851
0.318284
0.389591
0.464268
0.539436
0.612181
0.679897
0.740558
0.792867
0.836266
0.870836
0.897103
0.915827
0.927783
0.933591
0.93359
0.927782
0.915825
0.897101
0.870833
0.836264
0.792865
0.740558
0.679897
0.612181
0.539437
0.464269
0.389592
0.318285
0.252853
0.19515
0.146235
0.10636
0.075092
0.0515014
0.0343921
0.0225083
0.0146998
0.0100349
0.00786546
0.00818717
0.0104403
0.0152826
0.0233827
0.035699
0.0534111
0.077801
0.11008
0.151171
0.20148
0.260694
0.327669
0.400449
0.476425
0.552625
0.626074
0.694144
0.754827
0.806882
0.849833
0.883851
0.909555
0.927783
0.939374
0.944989
0.944988
0.939373
0.927782
0.909553
0.883849
0.849832
0.806881
0.754827
0.694144
0.626074
0.552625
0.476425
0.40045
0.32767
0.260695
0.201481
0.151172
0.110081
0.0778017
0.0534117
0.0356993
0.0233828
0.0152825
0.0104399
0.00818678
0.00835187
0.0106478
0.0155809
0.0238301
0.0363673
0.0543867
0.0791831
0.111975
0.153682
0.204694
0.264667
0.332415
0.405926
0.482541
0.55924
0.63302
0.701241
0.761907
0.813807
0.856506
0.890223
0.915625
0.933591
0.944989
0.950502
0.950502
0.944988
0.93359
0.915625
0.890223
0.856505
0.813806
0.761907
0.701241
0.63302
0.559241
0.482541
0.405927
0.332415
0.264668
0.204694
0.153682
0.111975
0.0791834
0.0543869
0.0363674
0.0238302
0.015581
0.0106476
0.00835161
0.0083518
0.0106477
0.0155808
0.0238301
0.0363674
0.0543869
0.0791834
0.111975
0.153682
0.204694
0.264668
0.332415
0.405927
0.482541
0.559241
0.63302
0.701241
0.761907
0.813806
0.856505
0.890223
0.915625
0.93359
0.944988
0.950502
0.950502
0.944989
0.933591
0.915625
0.890223
0.856506
0.813807
0.761907
0.701241
0.63302
0.55924
0.482541
0.405926
0.332415
0.264667
0.204694
0.153682
0.111975
0.0791832
0.0543868
0.0363674
0.0238302
0.015581
0.0106477
0.00835168
0.00818696
0.01044
0.0152824
0.0233827
0.0356993
0.0534116
0.0778017
0.110081
0.151172
0.201481
0.260695
0.32767
0.40045
0.476425
0.552625
0.626074
0.694144
0.754827
0.806881
0.849832
0.883849
0.909553
0.927782
0.939373
0.944988
0.944989
0.939374
0.927783
0.909555
0.883851
0.849833
0.806882
0.754827
0.694144
0.626074
0.552625
0.476425
0.400449
0.327669
0.260694
0.20148
0.151171
0.11008
0.077801
0.0534112
0.0356991
0.0233828
0.0152827
0.0104402
0.00818698
0.00786562
0.010035
0.0146997
0.0225082
0.0343921
0.0515013
0.075092
0.10636
0.146235
0.19515
0.252853
0.318285
0.389592
0.464269
0.539437
0.612181
0.679897
0.740558
0.792865
0.836264
0.870833
0.897101
0.915825
0.927782
0.93359
0.933591
0.927783
0.915827
0.897103
0.870836
0.836266
0.792867
0.740558
0.679897
0.612181
0.539436
0.464268
0.389591
0.318284
0.252851
0.195148
0.146233
0.106359
0.0750909
0.0515006
0.0343917
0.0225083
0.0147001
0.0100354
0.00786578
0.00740395
0.00945255
0.0138605
0.0212468
0.0325034
0.0487364
0.0711623
0.100953
0.139041
0.185901
0.241361
0.304485
0.373564
0.446248
0.519793
0.591379
0.658441
0.718933
0.771483
0.815422
0.850699
0.877711
0.897101
0.909553
0.915625
0.915625
0.909555
0.897103
0.877714
0.850701
0.815424
0.771484
0.718933
0.658441
0.591378
0.519791
0.446247
0.373562
0.304483
0.241359
0.185899
0.139039
0.100952
0.0711608
0.0487355
0.032503
0.0212469
0.013861
0.00945314
0.00740426
0.00682512
0.00872136
0.012805
0.0196571
0.0301179
0.0452357
0.0661737
0.0940691
0.129852
0.174042
0.226566
0.286636
0.352727
0.422686
0.493946
0.563817
0.629798
0.689827
0.742453
0.786874
0.822878
0.850699
0.870833
0.883849
0.890223
0.890223
0.883851
0.870836
0.850701
0.82288
0.786875
0.742454
0.689827
0.629797
0.563816
0.493944
0.422684
0.352725
0.286633
0.226564
0.174039
0.129849
0.0940669
0.0661719
0.0452346
0.0301174
0.0196572
0.0128056
0.00872215
0.00682559
0.00615793
0.00787724
0.0115837
0.017813
0.0273434
0.0411523
0.0603358
0.0859838
0.119016
0.159995
0.208952
0.265266
0.327624
0.394102
0.46235
0.529845
0.594173
0.653279
0.705633
0.750294
0.786874
0.815422
0.836264
0.849832
0.856505
0.856506
0.849833
0.836266
0.815424
0.786875
0.750295
0.705633
0.653278
0.594171
0.529842
0.462348
0.3941
0.327621
0.265263
0.208949
0.159992
0.119013
0.0859813
0.0603339
0.0411511
0.0273429
0.0178132
0.0115845
0.00787821
0.00615855
0.00543476
0.00696068
0.0102542
0.0157998
0.0243051
0.0366657
0.0538976
0.0770298
0.106959
0.144283
0.189137
0.241069
0.298995
0.361248
0.425719
0.490087
0.552062
0.609618
0.661166
0.705633
0.742453
0.771483
0.792865
0.806881
0.813806
0.813807
0.806882
0.792867
0.771484
0.742454
0.705633
0.661165
0.609616
0.552059
0.490085
0.425717
0.361245
0.298992
0.241066
0.189134
0.14428
0.106956
0.0770271
0.0538956
0.0366645
0.0243047
0.0158002
0.0102551
0.00696184
0.00543554
0.00468917
0.00601387
0.00887692
0.0137077
0.021137
0.0319701
0.0471317
0.0675764
0.0941643
0.127513
0.16785
0.214889
0.267776
0.325109
0.385048
0.445499
0.504327
0.559573
0.609618
0.653279
0.689827
0.718933
0.740558
0.754827
0.761907
0.761907
0.754827
0.740558
0.718933
0.689827
0.653278
0.609616
0.559571
0.504324
0.445496
0.385045
0.325105
0.267772
0.214885
0.167846
0.12751
0.0941609
0.0675736
0.0471297
0.031969
0.0211368
0.0137082
0.00887797
0.00601519
0.00469009
0.00395317
0.00507732
0.00751046
0.0116252
0.017972
0.0272603
0.040315
0.0580045
0.0811366
0.110332
0.145889
0.187673
0.235048
0.286877
0.341597
0.397361
0.452224
0.504327
0.552062
0.594173
0.629798
0.658441
0.679897
0.694144
0.701241
0.701241
0.694144
0.679897
0.658441
0.629797
0.594171
0.552059
0.504324
0.452221
0.397358
0.341593
0.286874
0.235045
0.187669
0.145884
0.110328
0.0811331
0.0580017
0.0403131
0.0272593
0.0179719
0.0116258
0.00751165
0.00507878
0.00395423
0.00325481
0.00418678
0.00620704
0.00963174
0.014931
0.0227159
0.0337069
0.0486767
0.0683664
0.0933789
0.124063
0.160409
0.201976
0.247878
0.296824
0.34723
0.397361
0.445499
0.490087
0.529845
0.563817
0.591379
0.612181
0.626074
0.63302
0.63302
0.626074
0.612181
0.591378
0.563816
0.529842
0.490085
0.445496
0.397358
0.347226
0.29682
0.247873
0.201972
0.160404
0.124058
0.0933747
0.0683629
0.0486741
0.0337052
0.0227152
0.0149311
0.00963256
0.00620837
0.00418835
0.00325599
0.0026162
0.00337063
0.00500868
0.00779241
0.012114
0.0184882
0.0275294
0.0399092
0.0562902
0.077239
0.103128
0.134043
0.16971
0.209465
0.252278
0.296824
0.341597
0.385048
0.425719
0.46235
0.493946
0.519793
0.539437
0.552625
0.559241
0.55924
0.552625
0.539436
0.519791
0.493944
0.462348
0.425717
0.385045
0.341593
0.29682
0.252274
0.209461
0.169705
0.134038
0.103124
0.077235
0.0562869
0.0399069
0.0275281
0.0184878
0.0121144
0.00779343
0.00501012
0.00337229
0.00261747
0.00205237
0.00264847
0.00394486
0.00615365
0.00959427
0.0146897
0.0219516
0.0319491
0.0452582
0.0623935
0.0837274
0.109408
0.139293
0.172911
0.209465
0.247878
0.286877
0.325109
0.361248
0.394102
0.422686
0.446248
0.464269
0.476425
0.482541
0.482541
0.476425
0.464268
0.446247
0.422684
0.3941
0.361245
0.325105
0.286874
0.247873
0.209461
0.172907
0.139288
0.109403
0.0837229
0.0623897
0.0452553
0.0319472
0.0219508
0.0146897
0.00959497
0.00615485
0.0039464
0.00265016
0.00205369
0.00157108
0.00203065
0.00303181
0.00474201
0.00741505
0.01139
0.0170822
0.0249609
0.0355132
0.0491901
0.0663427
0.0871535
0.111576
0.139293
0.16971
0.201976
0.235048
0.267776
0.298995
0.327624
0.352727
0.373564
0.389592
0.40045
0.405927
0.405926
0.400449
0.389591
0.373562
0.352725
0.327621
0.298992
0.267772
0.235045
0.201972
0.169705
0.139288
0.111571
0.0871488
0.0663386
0.0491868
0.0355108
0.0249596
0.0170818
0.0113905
0.00741603
0.00474336
0.00303339
0.00203233
0.0015724
0.00117341
0.00151908
0.00227335
0.00356514
0.00559105
0.008616
0.0129681
0.0190243
0.0271837
0.0378284
0.0512729
0.0677091
0.0871535
0.109408
0.134043
0.160409
0.187673
0.214889
0.241069
0.265266
0.286636
0.304485
0.318285
0.32767
0.332415
0.332415
0.327669
0.318284
0.304483
0.286633
0.265263
0.241066
0.214885
0.187669
0.160404
0.134038
0.109403
0.0871488
0.0677049
0.0512694
0.0378258
0.0271821
0.0190237
0.0129683
0.00861679
0.00559225
0.00356659
0.00227493
0.00152069
0.0011747
0.000855082
0.0011087
0.00166301
0.00261475
0.00411232
0.0063573
0.00960212
0.0141408
0.0202909
0.0283646
0.0386311
0.0512729
0.0663427
0.0837274
0.103128
0.124063
0.145889
0.16785
0.189137
0.208952
0.226566
0.241361
0.252853
0.260695
0.264668
0.264667
0.260694
0.252851
0.241359
0.226564
0.208949
0.189134
0.167846
0.145884
0.124058
0.103124
0.0837229
0.0663386
0.0512694
0.0386283
0.0283628
0.02029
0.0141408
0.00960275
0.00635839
0.00411368
0.00261624
0.00166453
0.0011102
0.000856297
0.000607992
0.000789496
0.00118683
0.00187074
0.00295031
0.00457491
0.00693342
0.0102488
0.0147657
0.0207308
0.0283646
0.0378284
0.0491901
0.0623935
0.077239
0.0933789
0.110332
0.127513
0.144283
0.159995
0.174042
0.185901
0.19515
0.201481
0.204694
0.204694
0.20148
0.195148
0.185899
0.174039
0.159992
0.14428
0.12751
0.110328
0.0933747
0.077235
0.0623897
0.0491868
0.0378258
0.0283628
0.0207299
0.0147656
0.0102493
0.00693444
0.00457622
0.00295176
0.0018722
0.00118826
0.000790861
0.000609098
0.000421873
0.000548588
0.00082641
0.00130573
0.00206466
0.00321092
0.00488198
0.00724199
0.0104739
0.0147657
0.0202909
0.0271837
0.0355132
0.0452582
0.0562902
0.0683664
0.0811366
0.0941644
0.106959
0.119016
0.129852
0.139041
0.146235
0.151172
0.153682
0.153682
0.151171
0.146233
0.139039
0.129849
0.119013
0.106956
0.0941609
0.0811331
0.0683629
0.0562869
0.0452553
0.0355108
0.0271821
0.02029
0.0147656
0.0104744
0.00724297
0.00488327
0.00321236
0.00206611
0.00130711
0.000827695
0.000549786
0.000422847
0.000285735
0.000372047
0.000561557
0.00088924
0.00140957
0.00219816
0.0033523
0.00498938
0.00724199
0.0102488
0.0141408
0.0190243
0.0249609
0.0319491
0.0399092
0.0486767
0.0580045
0.0675764
0.0770298
0.0859838
0.0940691
0.100953
0.10636
0.110081
0.111975
0.111975
0.11008
0.106359
0.100952
0.0940669
0.0859813
0.0770271
0.0675736
0.0580017
0.0486741
0.0399069
0.0319472
0.0249596
0.0190237
0.0141408
0.0102493
0.00724297
0.00499066
0.00335373
0.00219961
0.00141095
0.00089049
0.000562679
0.000373065
0.000286565
0.000188983
0.000246363
0.000372519
0.000591106
0.000939131
0.00146825
0.00224545
0.0033523
0.00488199
0.00693342
0.00960212
0.0129681
0.0170822
0.0219517
0.0275294
0.0337069
0.040315
0.0471317
0.0538976
0.0603359
0.0661737
0.0711623
0.075092
0.0778017
0.0791834
0.0791832
0.077801
0.0750909
0.0711608
0.0661719
0.0603339
0.0538956
0.0471297
0.0403131
0.0337052
0.0275281
0.0219508
0.0170818
0.0129683
0.00960275
0.00693444
0.00488327
0.00335373
0.00224691
0.00146964
0.000940378
0.000592195
0.000373465
0.000247202
0.000189668
0.00012216
0.00015942
0.000241442
0.000383829
0.000611085
0.000957599
0.00146826
0.00219817
0.00321093
0.00457491
0.00635731
0.00861602
0.0113901
0.0146897
0.0184882
0.0227159
0.0272603
0.0319701
0.0366657
0.0411523
0.0452358
0.0487365
0.0515014
0.0534117
0.0543869
0.0543868
0.0534112
0.0515006
0.0487355
0.0452346
0.0411511
0.0366645
0.031969
0.0272593
0.0227152
0.0184878
0.0146897
0.0113905
0.00861679
0.00635839
0.00457622
0.00321236
0.00219961
0.00146964
0.000958847
0.000612168
0.000384744
0.000242215
0.000160091
0.000122708
7.73397e-05
0.000101022
0.000153214
0.000243972
0.000389147
0.000611087
0.000939136
0.00140958
0.00206467
0.00295032
0.00411233
0.00559107
0.00741508
0.0095943
0.0121141
0.014931
0.0179721
0.0211371
0.0243051
0.0273434
0.030118
0.0325035
0.0343921
0.0356993
0.0363674
0.0363674
0.0356991
0.0343917
0.032503
0.0301174
0.0273429
0.0243047
0.0211368
0.0179719
0.0149311
0.0121144
0.00959497
0.00741603
0.00559225
0.00411368
0.00295176
0.00206611
0.00141095
0.000940378
0.000612168
0.000390055
0.000244718
0.000153828
0.000101545
7.77668e-05
4.82434e-05
6.30654e-05
9.57616e-05
0.000152706
0.000243974
0.000383834
0.000591114
0.000889251
0.00130574
0.00187076
0.00261478
0.00356518
0.00474205
0.0061537
0.00779246
0.0096318
0.0116252
0.0137078
0.0157999
0.0178131
0.0196572
0.0212469
0.0225083
0.0233828
0.0238302
0.0238302
0.0233828
0.0225083
0.0212469
0.0196572
0.0178132
0.0158002
0.0137082
0.0116258
0.00963256
0.00779343
0.00615485
0.00474336
0.00356659
0.00261624
0.0018722
0.00130711
0.00089049
0.000592195
0.000384744
0.000244718
0.000153302
9.62406e-05
6.34652e-05
4.85709e-05
3.01684e-05
3.94622e-05
5.99803e-05
9.57641e-05
0.000153219
0.00024145
0.000372531
0.000561574
0.000826432
0.00118686
0.00166304
0.00227339
0.00303187
0.00394493
0.00500875
0.00620712
0.00751055
0.00887702
0.0102543
0.0115838
0.0128051
0.0138606
0.0146998
0.0152825
0.015581
0.015581
0.0152827
0.0147001
0.013861
0.0128056
0.0115845
0.0102551
0.00887797
0.00751165
0.00620837
0.00501012
0.0039464
0.00303339
0.00227493
0.00166453
0.00118826
0.000827695
0.000562679
0.000373465
0.000242215
0.000153828
9.62406e-05
6.03551e-05
3.97693e-05
3.04209e-05
1.98241e-05
2.5944e-05
3.94639e-05
6.30694e-05
0.000101029
0.00015943
0.000246376
0.000372063
0.000548609
0.00078952
0.00110872
0.00151911
0.00203068
0.0026485
0.00337066
0.00418679
0.00507733
0.00601387
0.00696067
0.00787721
0.00872132
0.00945249
0.0100349
0.0104399
0.0106476
0.0106477
0.0104402
0.0100354
0.00945314
0.00872215
0.00787821
0.00696184
0.00601519
0.00507878
0.00418835
0.00337229
0.00265016
0.00203233
0.00152069
0.0011102
0.000790861
0.000549786
0.000373065
0.000247202
0.000160091
0.000101545
6.34652e-05
3.97693e-05
2.61903e-05
2.00277e-05
1.51462e-05
1.98249e-05
3.01706e-05
4.82473e-05
7.73455e-05
0.000122167
0.000188992
0.000285746
0.000421885
0.000608003
0.000855091
0.00117342
0.00157108
0.00205236
0.00261618
0.00325478
0.00395311
0.00468909
0.00543467
0.00615782
0.00682499
0.0074038
0.00786546
0.00818678
0.00835161
0.00835168
0.00818698
0.00786578
0.00740426
0.00682559
0.00615855
0.00543554
0.00469009
0.00395423
0.00325599
0.00261747
0.00205369
0.0015724
0.0011747
0.000856297
0.000609098
0.000422847
0.000286565
0.000189668
0.000122708
7.77668e-05
4.85709e-05
3.04209e-05
2.00277e-05
1.53143e-05
)
;

boundaryField
{
    walls
    {
        type            zeroGradient;
    }
    frontAndBack
    {
        type            empty;
    }
}


// ************************************************************************* //
