/*--------------------------------*- C++ -*----------------------------------*\
| =========                 |                                                 |
| \\      /  F ield         | OpenFOAM: The Open Source CFD Toolbox           |
|  \\    /   O peration     | Version:  2406                                  |
|   \\  /    A nd           | Website:  www.openfoam.com                      |
|    \\/     M anipulation  |                                                 |
\*---------------------------------------------------------------------------*/
FoamFile
{
    version     2.0;
    format      ascii;
    arch        "LSB;label=32;scalar=64";
    class       volVectorField;
    location    "2.05";
    object      flux;
}
// * * * * * * * * * * * * * * * * * * * * * * * * * * * * * * * * * * * * * //

dimensions      [0 1 -1 1 0 0 0];

internalField   nonuniform List<vector> 
2500
(
(0.00117504 0.00117504 0)
(0.00352029 0.00118145 0)
(0.00585818 0.00119459 0)
(0.00818626 0.00121424 0)
(0.0104973 0.00124044 0)
(0.0127863 0.0012732 0)
(0.0150481 0.00131255 0)
(0.0172772 0.00135849 0)
(0.0194681 0.00141105 0)
(0.0216148 0.00147022 0)
(0.0237112 0.00153602 0)
(0.025751 0.00160842 0)
(0.0277275 0.00168743 0)
(0.0296337 0.00177299 0)
(0.0314625 0.00186508 0)
(0.0332063 0.00196362 0)
(0.0348575 0.00206852 0)
(0.0364081 0.00217965 0)
(0.0378502 0.00229689 0)
(0.0391753 0.00242003 0)
(0.0403754 0.00254886 0)
(0.0414421 0.00268313 0)
(0.0423672 0.00282251 0)
(0.0431426 0.00296667 0)
(0.0437606 0.00311519 0)
(0.0442136 0.00326762 0)
(0.0444946 0.00342344 0)
(0.044597 0.0035821 0)
(0.0445151 0.00374296 0)
(0.0442436 0.00390535 0)
(0.0437784 0.00406854 0)
(0.0431162 0.00423174 0)
(0.0422548 0.00439413 0)
(0.0411933 0.00455482 0)
(0.0399319 0.00471292 0)
(0.0384723 0.00486747 0)
(0.0368176 0.00501752 0)
(0.0349724 0.0051621 0)
(0.0329428 0.00530022 0)
(0.0307364 0.00543094 0)
(0.0283622 0.00555329 0)
(0.025831 0.00566638 0)
(0.0231548 0.00576934 0)
(0.0203471 0.00586137 0)
(0.0174224 0.00594174 0)
(0.0143967 0.00600983 0)
(0.0112867 0.00606509 0)
(0.00810992 0.00610709 0)
(0.00488483 0.00613527 0)
(0.00163128 0.00614813 0)
(0.00118145 0.00352029 0)
(0.00353985 0.00353985 0)
(0.00589097 0.00357917 0)
(0.0082321 0.00363809 0)
(0.0105563 0.00371667 0)
(0.0128585 0.00381496 0)
(0.0151334 0.003933 0)
(0.0173757 0.00407084 0)
(0.0195798 0.00422852 0)
(0.0217397 0.00440606 0)
(0.0238494 0.00460347 0)
(0.0259024 0.00482074 0)
(0.0278921 0.00505782 0)
(0.0298114 0.00531461 0)
(0.0316531 0.00559097 0)
(0.0334098 0.00588672 0)
(0.0350735 0.00620157 0)
(0.0366365 0.00653518 0)
(0.0380905 0.00688711 0)
(0.0394273 0.00725681 0)
(0.0406385 0.00764363 0)
(0.0417157 0.00804678 0)
(0.0426507 0.00846535 0)
(0.0434353 0.00889827 0)
(0.0440615 0.00934435 0)
(0.0445218 0.0098022 0)
(0.0448091 0.0102703 0)
(0.0449166 0.0107469 0)
(0.0448383 0.0112303 0)
(0.0445692 0.0117182 0)
(0.0441048 0.0122086 0)
(0.0434418 0.0126991 0)
(0.0425779 0.0131872 0)
(0.0415121 0.0136703 0)
(0.0402445 0.0141456 0)
(0.0387769 0.0146102 0)
(0.0371123 0.0150614 0)
(0.0352552 0.0154962 0)
(0.0332117 0.0159116 0)
(0.0309894 0.0163047 0)
(0.0285977 0.0166727 0)
(0.0260471 0.0170129 0)
(0.0233498 0.0173226 0)
(0.0205195 0.0175994 0)
(0.0175709 0.0178412 0)
(0.01452 0.018046 0)
(0.0113839 0.0182123 0)
(0.0081801 0.0183387 0)
(0.00492587 0.0184242 0)
(0.00164414 0.0184655 0)
(0.00119459 0.00585818 0)
(0.00357917 0.00589097 0)
(0.00595643 0.00595643 0)
(0.00832376 0.00605463 0)
(0.0106742 0.00618563 0)
(0.0130027 0.0063495 0)
(0.015304 0.00654632 0)
(0.0175728 0.00677618 0)
(0.0198033 0.00703912 0)
(0.0219897 0.00733521 0)
(0.0241259 0.00766447 0)
(0.0262054 0.00802687 0)
(0.0282214 0.00842235 0)
(0.0301669 0.00885076 0)
(0.0320346 0.00931188 0)
(0.0338169 0.00980539 0)
(0.035506 0.0103309 0)
(0.0370937 0.0108877 0)
(0.0385718 0.0114752 0)
(0.0399318 0.0120924 0)
(0.0411654 0.0127384 0)
(0.0422638 0.0134117 0)
(0.0432187 0.0141108 0)
(0.0440216 0.0148341 0)
(0.0446645 0.0155794 0)
(0.0451395 0.0163446 0)
(0.0454393 0.0171271 0)
(0.045557 0.0179239 0)
(0.0454864 0.0187321 0)
(0.045222 0.0195482 0)
(0.0447593 0.0203685 0)
(0.0440948 0.0211891 0)
(0.0432259 0.0220059 0)
(0.0421516 0.0228143 0)
(0.0408718 0.0236099 0)
(0.0393882 0.0243879 0)
(0.0377036 0.0251434 0)
(0.0358226 0.0258716 0)
(0.0337513 0.0265674 0)
(0.0314975 0.027226 0)
(0.0290704 0.0278426 0)
(0.0264809 0.0284127 0)
(0.0237414 0.0289317 0)
(0.0208657 0.0293957 0)
(0.017869 0.029801 0)
(0.0147677 0.0301443 0)
(0.0115793 0.0304227 0)
(0.00832185 0.0306342 0)
(0.00501165 0.0307771 0)
(0.00167257 0.0308484 0)
(0.00121424 0.00818626 0)
(0.00363809 0.0082321 0)
(0.00605463 0.00832376 0)
(0.0084613 0.0084613 0)
(0.0108512 0.00864482 0)
(0.0132192 0.00887441 0)
(0.0155601 0.00915019 0)
(0.0178685 0.00947227 0)
(0.0201388 0.00984076 0)
(0.0223651 0.0102557 0)
(0.0245411 0.0107173 0)
(0.0266603 0.0112253 0)
(0.028716 0.0117798 0)
(0.0307009 0.0123805 0)
(0.0326077 0.0130272 0)
(0.0344287 0.0137195 0)
(0.0361558 0.0144567 0)
(0.0377808 0.0152381 0)
(0.0392953 0.0160626 0)
(0.0406905 0.0169291 0)
(0.0419577 0.0178361 0)
(0.0430882 0.0187817 0)
(0.0440731 0.0197639 0)
(0.0449039 0.0207801 0)
(0.0455721 0.0218277 0)
(0.0460695 0.0229034 0)
(0.0463884 0.0240037 0)
(0.0465216 0.0251246 0)
(0.0464626 0.0262617 0)
(0.0462056 0.0274102 0)
(0.0457458 0.028565 0)
(0.0450792 0.0297206 0)
(0.0442031 0.030871 0)
(0.0431161 0.03201 0)
(0.0418181 0.0331313 0)
(0.0403104 0.034228 0)
(0.0385959 0.0352933 0)
(0.0366791 0.0363202 0)
(0.0345661 0.0373018 0)
(0.0322647 0.0382311 0)
(0.0297843 0.0391013 0)
(0.0271362 0.0399059 0)
(0.0243329 0.0406387 0)
(0.0213888 0.0412939 0)
(0.0183194 0.0418662 0)
(0.0151417 0.0423508 0)
(0.0118739 0.0427438 0)
(0.00853448 0.0430418 0)
(0.00514012 0.0432423 0)
(0.00171549 0.0433429 0)
(0.00124044 0.0104973 0)
(0.00371667 0.0105563 0)
(0.00618563 0.0106742 0)
(0.00864482 0.0108512 0)
(0.0110873 0.0110873 0)
(0.013508 0.0113827 0)
(0.0159019 0.0117377 0)
(0.0182633 0.0121522 0)
(0.0205868 0.0126266 0)
(0.0228662 0.0131609 0)
(0.0250955 0.0137551 0)
(0.0272679 0.0144094 0)
(0.0293766 0.0151237 0)
(0.0314143 0.0158976 0)
(0.0333736 0.016731 0)
(0.0352464 0.0176233 0)
(0.0370246 0.0185738 0)
(0.0386996 0.0195814 0)
(0.0402628 0.020645 0)
(0.0417053 0.0217631 0)
(0.0430179 0.0229337 0)
(0.0441916 0.0241545 0)
(0.0452171 0.025423 0)
(0.0460855 0.0267359 0)
(0.0467878 0.0280897 0)
(0.0473155 0.0294804 0)
(0.0476605 0.0309034 0)
(0.047815 0.0323534 0)
(0.047772 0.0338251 0)
(0.0475253 0.035312 0)
(0.0470697 0.0368077 0)
(0.0464007 0.0383049 0)
(0.0455154 0.0397959 0)
(0.0444119 0.0412728 0)
(0.0430898 0.0427271 0)
(0.0415501 0.04415 0)
(0.0397958 0.0455327 0)
(0.0378311 0.0468661 0)
(0.0356622 0.0481409 0)
(0.033297 0.0493483 0)
(0.0307453 0.0504792 0)
(0.0280183 0.0515251 0)
(0.0251294 0.0524778 0)
(0.0220932 0.0533298 0)
(0.0189259 0.0540741 0)
(0.0156454 0.0547045 0)
(0.0122703 0.0552156 0)
(0.00882033 0.055603 0)
(0.00531271 0.0558633 0)
(0.00177319 0.055994 0)
(0.0012732 0.0127863 0)
(0.00381496 0.0128585 0)
(0.0063495 0.0130027 0)
(0.00887441 0.0132192 0)
(0.0113827 0.013508 0)
(0.0138695 0.0138695 0)
(0.0163296 0.0143038 0)
(0.0187575 0.0148112 0)
(0.0211475 0.0153918 0)
(0.0234936 0.0160459 0)
(0.0257897 0.0167735 0)
(0.0280288 0.0175748 0)
(0.0302042 0.0184498 0)
(0.0323083 0.0193981 0)
(0.0343334 0.0204195 0)
(0.0362714 0.0215134 0)
(0.0381139 0.0226789 0)
(0.0398521 0.0239151 0)
(0.0414769 0.0252203 0)
(0.0429791 0.0265927 0)
(0.0443491 0.0280303 0)
(0.0455775 0.0295301 0)
(0.0466545 0.031089 0)
(0.0475707 0.0327033 0)
(0.0483166 0.0343685 0)
(0.0488831 0.0360798 0)
(0.0492614 0.0378316 0)
(0.0494433 0.0396177 0)
(0.0494212 0.041431 0)
(0.0491882 0.0432642 0)
(0.0487386 0.0451089 0)
(0.0480674 0.0469563 0)
(0.047171 0.0487971 0)
(0.0460473 0.0506212 0)
(0.0446954 0.0524182 0)
(0.0431161 0.0541772 0)
(0.041312 0.0558873 0)
(0.0392873 0.057537 0)
(0.0370483 0.0591149 0)
(0.0346029 0.0606098 0)
(0.0319612 0.0620106 0)
(0.0291349 0.0633066 0)
(0.0261377 0.0644875 0)
(0.022985 0.0655437 0)
(0.019694 0.0664666 0)
(0.0162832 0.0672483 0)
(0.0127724 0.0678822 0)
(0.0091822 0.0683626 0)
(0.00553116 0.0686854 0)
(0.00184622 0.0688475 0)
(0.00131255 0.0150481 0)
(0.003933 0.0151334 0)
(0.00654632 0.015304 0)
(0.00915019 0.0155601 0)
(0.0117377 0.0159019 0)
(0.0143038 0.0163296 0)
(0.0168435 0.0168435 0)
(0.0193513 0.017444 0)
(0.0218214 0.0181313 0)
(0.024248 0.0189057 0)
(0.0266244 0.0197675 0)
(0.0289441 0.0207167 0)
(0.0311998 0.0217534 0)
(0.0333841 0.0228774 0)
(0.0354889 0.0240884 0)
(0.0375058 0.0253858 0)
(0.0394262 0.0267687 0)
(0.0412409 0.0282358 0)
(0.0429405 0.0297857 0)
(0.0445153 0.031416 0)
(0.0459552 0.0331244 0)
(0.0472503 0.0349077 0)
(0.0483903 0.0367622 0)
(0.049365 0.0386834 0)
(0.0501644 0.0406664 0)
(0.0507786 0.0427052 0)
(0.0511983 0.0447934 0)
(0.0514144 0.0469236 0)
(0.0514185 0.0490876 0)
(0.0512032 0.0512764 0)
(0.0507618 0.0534803 0)
(0.0500889 0.0556887 0)
(0.0491803 0.0578903 0)
(0.048033 0.0600732 0)
(0.0466458 0.0622249 0)
(0.0450193 0.0643323 0)
(0.0431555 0.066382 0)
(0.0410587 0.0683603 0)
(0.0387351 0.0702536 0)
(0.0361928 0.0720481 0)
(0.033442 0.0737303 0)
(0.0304952 0.0752872 0)
(0.0273665 0.0767064 0)
(0.0240723 0.0779762 0)
(0.0206306 0.079086 0)
(0.017061 0.0800263 0)
(0.0133846 0.0807888 0)
(0.00962353 0.0813668 0)
(0.00579756 0.0817551 0)
(0.00193528 0.0819501 0)
(0.00135849 0.0172772 0)
(0.00407084 0.0173757 0)
(0.00677618 0.0175728 0)
(0.00947227 0.0178685 0)
(0.0121522 0.0182633 0)
(0.0148112 0.0187575 0)
(0.017444 0.0193513 0)
(0.0200452 0.0200452 0)
(0.0226092 0.0208397 0)
(0.0251298 0.0217351 0)
(0.0276006 0.0227317 0)
(0.0300147 0.0238297 0)
(0.0323649 0.0250294 0)
(0.0346433 0.0263306 0)
(0.0368418 0.0277329 0)
(0.0389517 0.029236 0)
(0.040964 0.0308387 0)
(0.0428691 0.03254 0)
(0.0446571 0.0343378 0)
(0.0463179 0.0362301 0)
(0.0478408 0.038214 0)
(0.0492152 0.040286 0)
(0.0504302 0.0424419 0)
(0.0514749 0.0446767 0)
(0.0523384 0.0469847 0)
(0.0530101 0.0493592 0)
(0.0534798 0.0517927 0)
(0.0537375 0.0542768 0)
(0.053774 0.0568019 0)
(0.0535809 0.0593577 0)
(0.0531508 0.0619327 0)
(0.0524774 0.0645148 0)
(0.0515556 0.0670906 0)
(0.0503819 0.0696463 0)
(0.0489544 0.072167 0)
(0.0472732 0.0746374 0)
(0.04534 0.0770416 0)
(0.0431589 0.0793636 0)
(0.040736 0.081587 0)
(0.0380796 0.0836954 0)
(0.0352003 0.085673 0)
(0.032111 0.0875042 0)
(0.0288267 0.0891741 0)
(0.0253647 0.0906688 0)
(0.0217441 0.0919756 0)
(0.0179859 0.0930831 0)
(0.0141129 0.0939814 0)
(0.0101485 0.0946624 0)
(0.00611447 0.09512 0)
(0.00204123 0.0953498 0)
(0.00141105 0.0194681 0)
(0.00422852 0.0195798 0)
(0.00703912 0.0198033 0)
(0.00984076 0.0201388 0)
(0.0126266 0.0205868 0)
(0.0153918 0.0211475 0)
(0.0181313 0.0218214 0)
(0.0208397 0.0226092 0)
(0.0235113 0.0235113 0)
(0.0261399 0.0245282 0)
(0.0287191 0.0256604 0)
(0.0312418 0.0269084 0)
(0.0337007 0.0282723 0)
(0.0360876 0.0297522 0)
(0.0383943 0.0313479 0)
(0.0406116 0.0330589 0)
(0.0427302 0.0348843 0)
(0.04474 0.0368228 0)
(0.0466307 0.0388727 0)
(0.0483915 0.0410314 0)
(0.0500111 0.0432959 0)
(0.0514781 0.0456625 0)
(0.052781 0.0481265 0)
(0.0539078 0.0506824 0)
(0.0548469 0.0533238 0)
(0.0555867 0.0560433 0)
(0.0561159 0.0588325 0)
(0.0564235 0.0616816 0)
(0.0564994 0.06458 0)
(0.056334 0.0675158 0)
(0.055919 0.0704761 0)
(0.0552468 0.0734467 0)
(0.0543117 0.0764124 0)
(0.0531093 0.079357 0)
(0.0516369 0.0822636 0)
(0.0498939 0.0851143 0)
(0.0478817 0.0878907 0)
(0.0456041 0.0905739 0)
(0.0430669 0.0931448 0)
(0.0402789 0.0955845 0)
(0.0372508 0.097874 0)
(0.0339962 0.0999953 0)
(0.0305311 0.101931 0)
(0.0268738 0.103664 0)
(0.0230448 0.10518 0)
(0.0190667 0.106465 0)
(0.014964 0.107507 0)
(0.0107622 0.108298 0)
(0.00648495 0.108829 0)
(0.0021651 0.109096 0)
(0.00147022 0.0216148 0)
(0.00440606 0.0217397 0)
(0.00733521 0.0219897 0)
(0.0102557 0.0223651 0)
(0.0131609 0.0228662 0)
(0.0160459 0.0234936 0)
(0.0189057 0.024248 0)
(0.0217351 0.0251298 0)
(0.0245282 0.0261399 0)
(0.027279 0.027279 0)
(0.0299808 0.0285476 0)
(0.0326266 0.0299465 0)
(0.0352087 0.0314759 0)
(0.0377189 0.0331362 0)
(0.0401485 0.0349272 0)
(0.0424882 0.0368487 0)
(0.044728 0.0388997 0)
(0.0468575 0.0410791 0)
(0.0488657 0.0433851 0)
(0.0507411 0.0458151 0)
(0.0524719 0.048366 0)
(0.0540458 0.0510337 0)
(0.0554501 0.0538132 0)
(0.0566722 0.0566986 0)
(0.0576994 0.0596829 0)
(0.0585188 0.0627579 0)
(0.059118 0.0659142 0)
(0.059485 0.0691412 0)
(0.0596082 0.0724267 0)
(0.059477 0.0757575 0)
(0.0590817 0.079119 0)
(0.0584137 0.0824951 0)
(0.0574659 0.0858686 0)
(0.0562331 0.0892212 0)
(0.0547117 0.0925332 0)
(0.0529002 0.0957842 0)
(0.0507996 0.098953 0)
(0.0484131 0.102018 0)
(0.0457466 0.104957 0)
(0.0428088 0.107748 0)
(0.0396111 0.110369 0)
(0.0361676 0.112799 0)
(0.0324952 0.115017 0)
(0.0286136 0.117004 0)
(0.024545 0.118744 0)
(0.0203137 0.120219 0)
(0.0159462 0.121416 0)
(0.0114705 0.122324 0)
(0.00691263 0.122934 0)
(0.0023081 0.12324 0)
(0.00153602 0.0237112 0)
(0.00460347 0.0238494 0)
(0.00766447 0.0241259 0)
(0.0107173 0.0245411 0)
(0.0137551 0.0250955 0)
(0.0167735 0.0257897 0)
(0.0197675 0.0266244 0)
(0.0227317 0.0276006 0)
(0.0256604 0.0287191 0)
(0.0285476 0.0299808 0)
(0.0313866 0.0313866 0)
(0.0341701 0.0329373 0)
(0.0368904 0.0346336 0)
(0.0395389 0.0364758 0)
(0.0421068 0.0384642 0)
(0.0445841 0.0405986 0)
(0.0469607 0.0428785 0)
(0.0492254 0.0453025 0)
(0.0513667 0.0478691 0)
(0.0533724 0.0505757 0)
(0.0552296 0.053419 0)
(0.0569253 0.0563948 0)
(0.0584459 0.059498 0)
(0.0597775 0.0627222 0)
(0.0609062 0.0660597 0)
(0.061818 0.0695018 0)
(0.0624991 0.0730382 0)
(0.062936 0.0766571 0)
(0.0631158 0.0803452 0)
(0.0630263 0.0840879 0)
(0.0626565 0.0878686 0)
(0.0619965 0.0916696 0)
(0.0610378 0.0954714 0)
(0.0597738 0.0992532 0)
(0.0581999 0.102993 0)
(0.0563138 0.106667 0)
(0.0541156 0.110252 0)
(0.051608 0.113723 0)
(0.0487968 0.117053 0)
(0.0456908 0.120219 0)
(0.0423016 0.123194 0)
(0.0386443 0.125954 0)
(0.0347369 0.128475 0)
(0.0306004 0.130735 0)
(0.0262588 0.132714 0)
(0.0217388 0.134394 0)
(0.0170691 0.135757 0)
(0.0122804 0.136791 0)
(0.00740176 0.137487 0)
(0.00247165 0.137836 0)
(0.00160842 0.025751 0)
(0.00482074 0.0259024 0)
(0.00802687 0.0262054 0)
(0.0112253 0.0266603 0)
(0.0144094 0.0272679 0)
(0.0175748 0.0280288 0)
(0.0207167 0.0289441 0)
(0.0238297 0.0300147 0)
(0.0269084 0.0312418 0)
(0.0299465 0.0326266 0)
(0.0329373 0.0341701 0)
(0.0358735 0.0358735 0)
(0.0387472 0.0377378 0)
(0.0415496 0.0397635 0)
(0.0442714 0.0419514 0)
(0.0469024 0.0443013 0)
(0.0494318 0.046813 0)
(0.0518481 0.0494856 0)
(0.0541388 0.0523173 0)
(0.056291 0.055306 0)
(0.0582911 0.0584483 0)
(0.0601248 0.0617399 0)
(0.0617774 0.0651754 0)
(0.0632339 0.0687482 0)
(0.064479 0.0724503 0)
(0.0654972 0.0762721 0)
(0.0662732 0.0802027 0)
(0.066792 0.0842292 0)
(0.067039 0.0883371 0)
(0.0670004 0.0925102 0)
(0.0666634 0.0967305 0)
(0.0660164 0.100978 0)
(0.0650496 0.105231 0)
(0.0637547 0.109466 0)
(0.0621258 0.113659 0)
(0.0601594 0.117783 0)
(0.0578548 0.121811 0)
(0.0552141 0.125713 0)
(0.0522427 0.129463 0)
(0.0489493 0.13303 0)
(0.0453461 0.136385 0)
(0.041449 0.1395 0)
(0.037277 0.142348 0)
(0.0328531 0.144903 0)
(0.0282031 0.147141 0)
(0.0233561 0.149041 0)
(0.0183439 0.150584 0)
(0.0132002 0.151756 0)
(0.00795734 0.152543 0)
(0.00265745 0.152939 0)
(0.00168743 0.0277275 0)
(0.00505782 0.0278921 0)
(0.00842235 0.0282214 0)
(0.0117798 0.028716 0)
(0.0151237 0.0293766 0)
(0.0184498 0.0302042 0)
(0.0217534 0.0311998 0)
(0.0250294 0.0323649 0)
(0.0282723 0.0337007 0)
(0.0314759 0.0352087 0)
(0.0346336 0.0368904 0)
(0.0377378 0.0387472 0)
(0.0407804 0.0407804 0)
(0.0437526 0.0429911 0)
(0.0466445 0.0453802 0)
(0.0494458 0.0479482 0)
(0.0521449 0.0506949 0)
(0.0547297 0.0536197 0)
(0.0571871 0.0567214 0)
(0.0595033 0.0599978 0)
(0.0616635 0.0634457 0)
(0.0636525 0.067061 0)
(0.0654543 0.0708381 0)
(0.0670524 0.0747701 0)
(0.0684302 0.0788488 0)
(0.0695704 0.0830641 0)
(0.0704561 0.0874042 0)
(0.0710704 0.0918553 0)
(0.0713969 0.0964019 0)
(0.0714197 0.101026 0)
(0.0711243 0.105708 0)
(0.0704971 0.110426 0)
(0.0695262 0.115156 0)
(0.0682019 0.119872 0)
(0.0665165 0.124547 0)
(0.0644652 0.12915 0)
(0.062046 0.13365 0)
(0.0592603 0.138016 0)
(0.056113 0.142216 0)
(0.0526126 0.146214 0)
(0.0487719 0.149979 0)
(0.0446074 0.153478 0)
(0.0401398 0.15668 0)
(0.0353935 0.159554 0)
(0.030397 0.162074 0)
(0.0251821 0.164214 0)
(0.0197838 0.165953 0)
(0.0142394 0.167274 0)
(0.00858515 0.168162 0)
(0.00286742 0.168609 0)
(0.00177299 0.0296337 0)
(0.00531461 0.0298114 0)
(0.00885076 0.0301669 0)
(0.0123805 0.0307009 0)
(0.0158976 0.0314143 0)
(0.0193981 0.0323083 0)
(0.0228774 0.0333841 0)
(0.0263306 0.0346433 0)
(0.0297522 0.0360876 0)
(0.0331362 0.0377189 0)
(0.0364758 0.0395389 0)
(0.0397635 0.0415496 0)
(0.0429911 0.0437526 0)
(0.0461494 0.0461494 0)
(0.0492284 0.0487415 0)
(0.052217 0.0515296 0)
(0.0551034 0.0545143 0)
(0.0578747 0.0576952 0)
(0.0605169 0.0610715 0)
(0.0630153 0.0646413 0)
(0.0653543 0.0684017 0)
(0.0675171 0.0723488 0)
(0.0694866 0.076477 0)
(0.0712447 0.0807795 0)
(0.072773 0.0852475 0)
(0.0740526 0.0898708 0)
(0.0750644 0.0946369 0)
(0.0757897 0.0995311 0)
(0.0762098 0.104537 0)
(0.0763068 0.109635 0)
(0.0760636 0.114803 0)
(0.0754646 0.120018 0)
(0.0744957 0.125254 0)
(0.0731449 0.130481 0)
(0.0714029 0.135669 0)
(0.0692629 0.140784 0)
(0.0667217 0.145792 0)
(0.0637794 0.150656 0)
(0.0604404 0.15534 0)
(0.056713 0.159806 0)
(0.0526102 0.164015 0)
(0.0481495 0.167931 0)
(0.0433529 0.171517 0)
(0.0382471 0.174739 0)
(0.032863 0.177566 0)
(0.0272357 0.179969 0)
(0.0214039 0.181923 0)
(0.015409 0.183407 0)
(0.00929193 0.184405 0)
(0.00310383 0.184907 0)
(0.00186508 0.0314625 0)
(0.00559097 0.0316531 0)
(0.00931188 0.0320346 0)
(0.0130272 0.0326077 0)
(0.016731 0.0333736 0)
(0.0204195 0.0343334 0)
(0.0240884 0.0354889 0)
(0.0277329 0.0368418 0)
(0.0313479 0.0383943 0)
(0.0349272 0.0401485 0)
(0.0384642 0.0421068 0)
(0.0419514 0.0442714 0)
(0.0453802 0.0466445 0)
(0.0487415 0.0492284 0)
(0.0520247 0.0520247 0)
(0.0552186 0.055035 0)
(0.0583105 0.0582603 0)
(0.061287 0.0617008 0)
(0.0641332 0.0653561 0)
(0.0668335 0.069225 0)
(0.069371 0.0733048 0)
(0.0717277 0.0775919 0)
(0.073885 0.0820811 0)
(0.075823 0.0867654 0)
(0.0775215 0.0916363 0)
(0.0789597 0.096683 0)
(0.0801164 0.101893 0)
(0.0809703 0.10725 0)
(0.0815004 0.112736 0)
(0.0816862 0.118332 0)
(0.0815081 0.124014 0)
(0.0809479 0.129756 0)
(0.0799888 0.135528 0)
(0.0786166 0.1413 0)
(0.0768193 0.147036 0)
(0.0745883 0.152701 0)
(0.0719185 0.158255 0)
(0.0688087 0.163657 0)
(0.0652623 0.168865 0)
(0.0612873 0.173837 0)
(0.0568969 0.17853 0)
(0.0521094 0.1829 0)
(0.0469484 0.186906 0)
(0.0414429 0.19051 0)
(0.0356267 0.193674 0)
(0.0295387 0.196365 0)
(0.0232216 0.198555 0)
(0.0167219 0.200219 0)
(0.0100855 0.201338 0)
(0.00336931 0.201902 0)
(0.00196362 0.0332063 0)
(0.00588672 0.0334098 0)
(0.00980539 0.0338169 0)
(0.0137195 0.0344287 0)
(0.0176233 0.0352464 0)
(0.0215134 0.0362714 0)
(0.0253858 0.0375058 0)
(0.029236 0.0389517 0)
(0.0330589 0.0406116 0)
(0.0368487 0.0424882 0)
(0.0405986 0.0445841 0)
(0.0443013 0.0469024 0)
(0.0479482 0.0494458 0)
(0.0515296 0.052217 0)
(0.055035 0.0552186 0)
(0.0584526 0.0584526 0)
(0.0617692 0.0619207 0)
(0.0649705 0.0656239 0)
(0.0680411 0.0695625 0)
(0.070964 0.0737357 0)
(0.0737212 0.0781416 0)
(0.0762934 0.0827769 0)
(0.0786601 0.0876369 0)
(0.0808 0.0927149 0)
(0.0826905 0.0980024 0)
(0.0843088 0.103489 0)
(0.0856311 0.10916 0)
(0.0866336 0.115001 0)
(0.0872925 0.120992 0)
(0.0875845 0.127113 0)
(0.087487 0.133337 0)
(0.0869786 0.139637 0)
(0.0860397 0.14598 0)
(0.084653 0.152334 0)
(0.0828039 0.158658 0)
(0.0804812 0.164914 0)
(0.0776776 0.171057 0)
(0.0743901 0.177041 0)
(0.0706209 0.182819 0)
(0.0663774 0.188342 0)
(0.0616728 0.193562 0)
(0.0565263 0.19843 0)
(0.0509631 0.202898 0)
(0.0450146 0.206921 0)
(0.0387181 0.210456 0)
(0.0321164 0.213465 0)
(0.0252574 0.215916 0)
(0.0181929 0.217779 0)
(0.0109748 0.219033 0)
(0.00366688 0.219664 0)
(0.00206852 0.0348575 0)
(0.00620157 0.0350735 0)
(0.0103309 0.035506 0)
(0.0144567 0.0361558 0)
(0.0185738 0.0370246 0)
(0.0226789 0.0381139 0)
(0.0267687 0.0394262 0)
(0.0308387 0.040964 0)
(0.0348843 0.0427302 0)
(0.0388997 0.044728 0)
(0.0428785 0.0469607 0)
(0.046813 0.0494318 0)
(0.0506949 0.0521449 0)
(0.0545143 0.0551034 0)
(0.0582603 0.0583105 0)
(0.0619207 0.0617692 0)
(0.0654818 0.0654818 0)
(0.0689288 0.0694504 0)
(0.072245 0.0736759 0)
(0.0754126 0.0781583 0)
(0.0784122 0.0828966 0)
(0.0812231 0.0878882 0)
(0.083823 0.0931288 0)
(0.0861885 0.0986123 0)
(0.0882951 0.104331 0)
(0.0901173 0.110273 0)
(0.0916287 0.116425 0)
(0.0928026 0.122772 0)
(0.0936121 0.129293 0)
(0.0940306 0.135966 0)
(0.094032 0.142764 0)
(0.0935915 0.149656 0)
(0.092686 0.156609 0)
(0.0912946 0.163585 0)
(0.0893995 0.170541 0)
(0.0869864 0.177434 0)
(0.0840453 0.184214 0)
(0.080571 0.19083 0)
(0.0765641 0.197228 0)
(0.0720309 0.203355 0)
(0.0669846 0.209153 0)
(0.0614449 0.214567 0)
(0.055439 0.219544 0)
(0.0490008 0.224029 0)
(0.0421714 0.227975 0)
(0.0349982 0.231337 0)
(0.0275348 0.234077 0)
(0.0198392 0.236161 0)
(0.0119705 0.237565 0)
(0.00400008 0.238271 0)
(0.00217965 0.0364081 0)
(0.00653518 0.0366365 0)
(0.0108877 0.0370937 0)
(0.0152381 0.0377808 0)
(0.0195814 0.0386996 0)
(0.0239151 0.0398521 0)
(0.0282358 0.0412409 0)
(0.03254 0.0428691 0)
(0.0368228 0.04474 0)
(0.0410791 0.0468575 0)
(0.0453025 0.0492254 0)
(0.0494856 0.0518481 0)
(0.0536197 0.0547297 0)
(0.0576952 0.0578747 0)
(0.0617008 0.061287 0)
(0.0656239 0.0649705 0)
(0.0694504 0.0689288 0)
(0.0731645 0.0731645 0)
(0.076749 0.0776799 0)
(0.0801847 0.0824759 0)
(0.0834511 0.0875523 0)
(0.0865256 0.0929076 0)
(0.0893843 0.0985383 0)
(0.0920017 0.104439 0)
(0.0943508 0.110602 0)
(0.0964034 0.117017 0)
(0.0981303 0.12367 0)
(0.0995015 0.130546 0)
(0.100487 0.137623 0)
(0.101055 0.144878 0)
(0.101177 0.152283 0)
(0.100824 0.159806 0)
(0.0999684 0.167409 0)
(0.0985854 0.175051 0)
(0.0966531 0.182688 0)
(0.0941535 0.190269 0)
(0.0910735 0.19774 0)
(0.0874049 0.205044 0)
(0.083146 0.21212 0)
(0.078302 0.218907 0)
(0.0728854 0.225341 0)
(0.0669168 0.231359 0)
(0.0604247 0.236897 0)
(0.0534462 0.241896 0)
(0.0460264 0.246298 0)
(0.038218 0.250053 0)
(0.030081 0.253115 0)
(0.0216808 0.255446 0)
(0.0130848 0.257017 0)
(0.00437302 0.257808 0)
(0.00229689 0.0378502 0)
(0.00688711 0.0380905 0)
(0.0114752 0.0385718 0)
(0.0160626 0.0392953 0)
(0.020645 0.0402628 0)
(0.0252203 0.0414769 0)
(0.0297857 0.0429405 0)
(0.0343378 0.0446571 0)
(0.0388727 0.0466307 0)
(0.0433851 0.0488657 0)
(0.0478691 0.0513667 0)
(0.0523173 0.0541388 0)
(0.0567214 0.0571871 0)
(0.0610715 0.0605169 0)
(0.0653561 0.0641332 0)
(0.0695625 0.0680411 0)
(0.0736759 0.072245 0)
(0.0776799 0.076749 0)
(0.0815563 0.0815563 0)
(0.0852851 0.0866693 0)
(0.088844 0.0920889 0)
(0.092209 0.0978146 0)
(0.0953544 0.103844 0)
(0.0982522 0.110173 0)
(0.100873 0.116795 0)
(0.103186 0.123699 0)
(0.105158 0.130874 0)
(0.106755 0.138302 0)
(0.107945 0.145962 0)
(0.108691 0.153831 0)
(0.108959 0.161879 0)
(0.108717 0.170072 0)
(0.107932 0.17837 0)
(0.106574 0.186728 0)
(0.104617 0.195097 0)
(0.102038 0.203423 0)
(0.0988201 0.211645 0)
(0.0949516 0.219699 0)
(0.0904279 0.227519 0)
(0.0852522 0.235032 0)
(0.0794362 0.242168 0)
(0.0730006 0.248853 0)
(0.0659759 0.255016 0)
(0.0584022 0.260586 0)
(0.0503289 0.265498 0)
(0.0418151 0.269692 0)
(0.0329277 0.273115 0)
(0.0237411 0.275723 0)
(0.0143318 0.277481 0)
(0.00479049 0.278366 0)
(0.00242003 0.0391753 0)
(0.00725681 0.0394273 0)
(0.0120924 0.0399318 0)
(0.0169291 0.0406905 0)
(0.0217631 0.0417053 0)
(0.0265927 0.0429791 0)
(0.031416 0.0445153 0)
(0.0362301 0.0463179 0)
(0.0410314 0.0483915 0)
(0.0458151 0.0507411 0)
(0.0505757 0.0533724 0)
(0.055306 0.056291 0)
(0.0599978 0.0595033 0)
(0.0646413 0.0630153 0)
(0.069225 0.0668335 0)
(0.0737357 0.070964 0)
(0.0781583 0.0754126 0)
(0.0824759 0.0801847 0)
(0.0866693 0.0852851 0)
(0.0907173 0.0907173 0)
(0.0945964 0.0964839 0)
(0.0982809 0.102586 0)
(0.101743 0.109022 0)
(0.104952 0.11579 0)
(0.107877 0.122884 0)
(0.110482 0.130295 0)
(0.112733 0.13801 0)
(0.11459 0.146014 0)
(0.116016 0.154287 0)
(0.116972 0.162803 0)
(0.117418 0.171531 0)
(0.117314 0.180436 0)
(0.116625 0.189477 0)
(0.115313 0.198604 0)
(0.113348 0.207764 0)
(0.110701 0.216897 0)
(0.10735 0.225937 0)
(0.103279 0.234812 0)
(0.0984791 0.243447 0)
(0.0929515 0.251762 0)
(0.0867062 0.259675 0)
(0.0797641 0.267101 0)
(0.072157 0.273959 0)
(0.0639283 0.280167 0)
(0.0551325 0.28565 0)
(0.0458352 0.290338 0)
(0.0361121 0.294167 0)
(0.0260472 0.297087 0)
(0.0157282 0.299057 0)
(0.00525809 0.300049 0)
(0.00254886 0.0403754 0)
(0.00764363 0.0406385 0)
(0.0127384 0.0411654 0)
(0.0178361 0.0419577 0)
(0.0229337 0.0430179 0)
(0.0280303 0.0443491 0)
(0.0331244 0.0459552 0)
(0.038214 0.0478408 0)
(0.0432959 0.0500111 0)
(0.048366 0.0524719 0)
(0.053419 0.0552296 0)
(0.0584483 0.0582911 0)
(0.0634457 0.0616635 0)
(0.0684017 0.0653543 0)
(0.0733048 0.069371 0)
(0.0781416 0.0737212 0)
(0.0828966 0.0784122 0)
(0.0875523 0.0834511 0)
(0.0920889 0.088844 0)
(0.0964839 0.0945964 0)
(0.100713 0.100713 0)
(0.104748 0.107195 0)
(0.108559 0.114046 0)
(0.112114 0.121262 0)
(0.115377 0.12884 0)
(0.118312 0.136773 0)
(0.120877 0.145049 0)
(0.123032 0.153654 0)
(0.124733 0.162567 0)
(0.125935 0.171763 0)
(0.126593 0.181212 0)
(0.126662 0.190875 0)
(0.126099 0.200709 0)
(0.124861 0.210662 0)
(0.12291 0.220677 0)
(0.120211 0.230686 0)
(0.116735 0.240618 0)
(0.112462 0.250393 0)
(0.107378 0.259926 0)
(0.101479 0.269127 0)
(0.0947751 0.277901 0)
(0.087285 0.286154 0)
(0.0790423 0.29379 0)
(0.0700936 0.300715 0)
(0.0604991 0.30684 0)
(0.050332 0.312084 0)
(0.0396774 0.316373 0)
(0.0286311 0.319646 0)
(0.0172936 0.321856 0)
(0.0057824 0.322969 0)
(0.00268313 0.0414421 0)
(0.00804678 0.0417157 0)
(0.0134117 0.0422638 0)
(0.0187817 0.0430882 0)
(0.0241545 0.0441916 0)
(0.0295301 0.0455775 0)
(0.0349077 0.0472503 0)
(0.040286 0.0492152 0)
(0.0456625 0.0514781 0)
(0.0510337 0.0540458 0)
(0.0563948 0.0569253 0)
(0.0617399 0.0601248 0)
(0.067061 0.0636525 0)
(0.0723488 0.0675171 0)
(0.0775919 0.0717277 0)
(0.0827769 0.0762934 0)
(0.0878882 0.0812231 0)
(0.0929076 0.0865256 0)
(0.0978146 0.092209 0)
(0.102586 0.0982809 0)
(0.107195 0.104748 0)
(0.111614 0.111614 0)
(0.115809 0.118883 0)
(0.119747 0.126555 0)
(0.123388 0.134629 0)
(0.126691 0.143098 0)
(0.129614 0.151954 0)
(0.132108 0.161184 0)
(0.134126 0.170766 0)
(0.135617 0.180678 0)
(0.136529 0.190888 0)
(0.136811 0.201357 0)
(0.136412 0.212039 0)
(0.135281 0.222881 0)
(0.133372 0.233818 0)
(0.130643 0.24478 0)
(0.127057 0.255686 0)
(0.122587 0.266449 0)
(0.117213 0.276973 0)
(0.110927 0.287155 0)
(0.103734 0.29689 0)
(0.0956528 0.306067 0)
(0.0867176 0.314576 0)
(0.0769784 0.322308 0)
(0.0665012 0.329159 0)
(0.0553678 0.335033 0)
(0.0436745 0.339843 0)
(0.0315302 0.343518 0)
(0.019051 0.346001 0)
(0.00637117 0.347252 0)
(0.00282251 0.0423672 0)
(0.00846535 0.0426507 0)
(0.0141108 0.0432187 0)
(0.0197639 0.0440731 0)
(0.025423 0.0452171 0)
(0.031089 0.0466545 0)
(0.0367622 0.0483903 0)
(0.0424419 0.0504302 0)
(0.0481265 0.052781 0)
(0.0538132 0.0554501 0)
(0.059498 0.0584459 0)
(0.0651754 0.0617774 0)
(0.0708381 0.0654543 0)
(0.076477 0.0694866 0)
(0.0820811 0.073885 0)
(0.0876369 0.0786601 0)
(0.0931288 0.083823 0)
(0.0985383 0.0893843 0)
(0.103844 0.0953544 0)
(0.109022 0.101743 0)
(0.114046 0.108559 0)
(0.118883 0.115809 0)
(0.1235 0.1235 0)
(0.12786 0.131634 0)
(0.13192 0.140213 0)
(0.135638 0.149232 0)
(0.138963 0.158686 0)
(0.141844 0.168562 0)
(0.144228 0.178843 0)
(0.146057 0.189506 0)
(0.147272 0.200519 0)
(0.147814 0.211844 0)
(0.147622 0.223432 0)
(0.146639 0.235227 0)
(0.144809 0.247162 0)
(0.142079 0.259159 0)
(0.138405 0.271131 0)
(0.133749 0.28298 0)
(0.128084 0.2946 0)
(0.121397 0.305874 0)
(0.113687 0.316681 0)
(0.104971 0.326894 0)
(0.095283 0.336387 0)
(0.0846765 0.345032 0)
(0.0732238 0.352706 0)
(0.0610164 0.359297 0)
(0.0481632 0.364703 0)
(0.0347889 0.368837 0)
(0.0210275 0.371632 0)
(0.00703359 0.373042 0)
(0.00296667 0.0431426 0)
(0.00889827 0.0434353 0)
(0.0148341 0.0440216 0)
(0.0207801 0.0449039 0)
(0.0267359 0.0460855 0)
(0.0327033 0.0475707 0)
(0.0386834 0.049365 0)
(0.0446767 0.0514749 0)
(0.0506824 0.0539078 0)
(0.0566986 0.0566722 0)
(0.0627222 0.0597775 0)
(0.0687482 0.0632339 0)
(0.0747701 0.0670524 0)
(0.0807795 0.0712447 0)
(0.0867654 0.075823 0)
(0.0927149 0.0808 0)
(0.0986123 0.0861885 0)
(0.104439 0.0920017 0)
(0.110173 0.0982522 0)
(0.11579 0.104952 0)
(0.121262 0.112114 0)
(0.126555 0.119747 0)
(0.131634 0.12786 0)
(0.136459 0.136459 0)
(0.140986 0.145549 0)
(0.145165 0.15513 0)
(0.148944 0.165197 0)
(0.152266 0.175741 0)
(0.15507 0.186748 0)
(0.157293 0.198196 0)
(0.158867 0.210055 0)
(0.159724 0.222287 0)
(0.159795 0.234842 0)
(0.159011 0.247662 0)
(0.157304 0.260675 0)
(0.154612 0.273798 0)
(0.150878 0.286937 0)
(0.146055 0.299982 0)
(0.140106 0.312814 0)
(0.133008 0.325304 0)
(0.124755 0.337312 0)
(0.115359 0.348693 0)
(0.104855 0.359298 0)
(0.0932975 0.368978 0)
(0.0807668 0.377592 0)
(0.0673646 0.385003 0)
(0.0532146 0.391091 0)
(0.0384598 0.395753 0)
(0.0232557 0.398908 0)
(0.00778057 0.400499 0)
(0.00311519 0.0437606 0)
(0.00934435 0.0440615 0)
(0.0155794 0.0446645 0)
(0.0218277 0.0455721 0)
(0.0280897 0.0467878 0)
(0.0343685 0.0483166 0)
(0.0406664 0.0501644 0)
(0.0469847 0.0523384 0)
(0.0533238 0.0548469 0)
(0.0596829 0.0576994 0)
(0.0660597 0.0609062 0)
(0.0724503 0.064479 0)
(0.0788488 0.0684302 0)
(0.0852475 0.072773 0)
(0.0916363 0.0775215 0)
(0.0980024 0.0826905 0)
(0.104331 0.0882951 0)
(0.110602 0.0943508 0)
(0.116795 0.100873 0)
(0.122884 0.107877 0)
(0.12884 0.115377 0)
(0.134629 0.123388 0)
(0.140213 0.13192 0)
(0.145549 0.140986 0)
(0.150591 0.150591 0)
(0.155285 0.16074 0)
(0.159574 0.171433 0)
(0.163396 0.182665 0)
(0.166683 0.194424 0)
(0.169364 0.206691 0)
(0.171362 0.219438 0)
(0.1726 0.232628 0)
(0.172997 0.246213 0)
(0.172472 0.260132 0)
(0.170946 0.27431 0)
(0.168341 0.288659 0)