/*--------------------------------*- C++ -*----------------------------------*\
| =========                 |                                                 |
| \\      /  F ield         | OpenFOAM: The Open Source CFD Toolbox           |
|  \\    /   O peration     | Version:  2406                                  |
|   \\  /    A nd           | Website:  www.openfoam.com                      |
|    \\/     M anipulation  |                                                 |
\*---------------------------------------------------------------------------*/
FoamFile
{
    version     2.0;
    format      ascii;
    arch        "LSB;label=32;scalar=64";
    class       volScalarField;
    location    "2.05";
    object      gradTy;
}
// * * * * * * * * * * * * * * * * * * * * * * * * * * * * * * * * * * * * * //

dimensions      [0 -1 0 1 0 0 0];

internalField   nonuniform List<scalar> 
2500
(
0.0117504
0.0118145
0.0119459
0.0121424
0.0124044
0.012732
0.0131255
0.0135849
0.0141105
0.0147022
0.0153602
0.0160842
0.0168743
0.0177299
0.0186508
0.0196362
0.0206852
0.0217965
0.0229689
0.0242003
0.0254886
0.0268313
0.0282251
0.0296667
0.0311519
0.0326762
0.0342344
0.035821
0.0374296
0.0390535
0.0406854
0.0423174
0.0439413
0.0455482
0.0471292
0.0486747
0.0501752
0.051621
0.0530022
0.0543094
0.0555329
0.0566638
0.0576934
0.0586137
0.0594174
0.0600983
0.0606509
0.0610709
0.0613527
0.0614813
0.0352029
0.0353985
0.0357917
0.0363809
0.0371667
0.0381496
0.03933
0.0407084
0.0422852
0.0440606
0.0460347
0.0482074
0.0505782
0.0531461
0.0559097
0.0588672
0.0620157
0.0653518
0.0688711
0.0725681
0.0764363
0.0804678
0.0846535
0.0889827
0.0934435
0.098022
0.102703
0.107469
0.112303
0.117182
0.122086
0.126991
0.131872
0.136703
0.141456
0.146102
0.150614
0.154962
0.159116
0.163047
0.166727
0.170129
0.173226
0.175994
0.178412
0.18046
0.182123
0.183387
0.184242
0.184655
0.0585818
0.0589097
0.0595643
0.0605463
0.0618563
0.063495
0.0654632
0.0677618
0.0703912
0.0733521
0.0766447
0.0802687
0.0842235
0.0885076
0.0931188
0.0980539
0.103309
0.108877
0.114752
0.120924
0.127384
0.134117
0.141108
0.148341
0.155794
0.163446
0.171271
0.179239
0.187321
0.195482
0.203685
0.211891
0.220059
0.228143
0.236099
0.243879
0.251434
0.258716
0.265674
0.27226
0.278426
0.284127
0.289317
0.293957
0.29801
0.301443
0.304227
0.306342
0.307771
0.308484
0.0818626
0.082321
0.0832376
0.084613
0.0864482
0.0887441
0.0915019
0.0947227
0.0984076
0.102557
0.107173
0.112253
0.117798
0.123805
0.130272
0.137195
0.144567
0.152381
0.160626
0.169291
0.178361
0.187817
0.197639
0.207801
0.218277
0.229034
0.240037
0.251246
0.262617
0.274102
0.28565
0.297206
0.30871
0.3201
0.331313
0.34228
0.352933
0.363202
0.373018
0.382311
0.391013
0.399059
0.406387
0.412939
0.418662
0.423508
0.427438
0.430418
0.432423
0.433429
0.104973
0.105563
0.106742
0.108512
0.110873
0.113827
0.117377
0.121522
0.126266
0.131609
0.137551
0.144094
0.151237
0.158976
0.16731
0.176233
0.185738
0.195814
0.20645
0.217631
0.229337
0.241545
0.25423
0.267359
0.280897
0.294804
0.309034
0.323534
0.338251
0.35312
0.368077
0.383049
0.397959
0.412728
0.427271
0.4415
0.455327
0.468661
0.481409
0.493483
0.504792
0.515251
0.524778
0.533298
0.540741
0.547045
0.552156
0.55603
0.558633
0.55994
0.127863
0.128585
0.130027
0.132192
0.13508
0.138695
0.143038
0.148112
0.153918
0.160459
0.167735
0.175748
0.184498
0.193981
0.204195
0.215134
0.226789
0.239151
0.252203
0.265927
0.280303
0.295301
0.31089
0.327033
0.343685
0.360798
0.378316
0.396177
0.41431
0.432642
0.451089
0.469563
0.487971
0.506212
0.524182
0.541772
0.558873
0.57537
0.591149
0.606098
0.620106
0.633066
0.644875
0.655437
0.664666
0.672483
0.678822
0.683626
0.686854
0.688475
0.150481
0.151334
0.15304
0.155601
0.159019
0.163296
0.168435
0.17444
0.181313
0.189057
0.197675
0.207167
0.217534
0.228774
0.240884
0.253858
0.267687
0.282358
0.297857
0.31416
0.331244
0.349077
0.367622
0.386834
0.406664
0.427052
0.447934
0.469236
0.490876
0.512764
0.534803
0.556887
0.578903
0.600732
0.622249
0.643323
0.66382
0.683603
0.702536
0.720481
0.737303
0.752872
0.767064
0.779762
0.79086
0.800263
0.807888
0.813668
0.817551
0.819501
0.172772
0.173757
0.175728
0.178685
0.182633
0.187575
0.193513
0.200452
0.208397
0.217351
0.227317
0.238297
0.250294
0.263306
0.277329
0.29236
0.308387
0.3254
0.343378
0.362301
0.38214
0.40286
0.424419
0.446767
0.469847
0.493592
0.517927
0.542768
0.568019
0.593577
0.619327
0.645148
0.670906
0.696463
0.72167
0.746374
0.770416
0.793636
0.81587
0.836954
0.85673
0.875042
0.891741
0.906688
0.919756
0.930831
0.939814
0.946624
0.9512
0.953498
0.194681
0.195798
0.198033
0.201388
0.205868
0.211475
0.218214
0.226092
0.235113
0.245282
0.256604
0.269084
0.282723
0.297522
0.313479
0.330589
0.348843
0.368228
0.388727
0.410314
0.432959
0.456625
0.481265
0.506824
0.533238
0.560433
0.588325
0.616816
0.6458
0.675158
0.704761
0.734467
0.764124
0.79357
0.822636
0.851143
0.878907
0.905739
0.931448
0.955845
0.97874
0.999953
1.01931
1.03664
1.0518
1.06465
1.07507
1.08298
1.08829
1.09096
0.216148
0.217397
0.219897
0.223651
0.228662
0.234936
0.24248
0.251298
0.261399
0.27279
0.285476
0.299465
0.314759
0.331362
0.349272
0.368487
0.388997
0.410791
0.433851
0.458151
0.48366
0.510337
0.538132
0.566986
0.596829
0.627579
0.659142
0.691412
0.724267
0.757575
0.79119
0.824951
0.858686
0.892212
0.925332
0.957842
0.98953
1.02018
1.04957
1.07748
1.10369
1.12799
1.15017
1.17004
1.18744
1.20219
1.21416
1.22324
1.22934
1.2324
0.237112
0.238494
0.241259
0.245411
0.250955
0.257897
0.266244
0.276006
0.287191
0.299808
0.313866
0.329373
0.346336
0.364758
0.384642
0.405986
0.428785
0.453025
0.478691
0.505757
0.53419
0.563948
0.59498
0.627222
0.660597
0.695018
0.730382
0.766571
0.803452
0.840879
0.878686
0.916696
0.954714
0.992532
1.02993
1.06667
1.10252
1.13723
1.17053
1.20219
1.23194
1.25954
1.28475
1.30735
1.32714
1.34394
1.35757
1.36791
1.37487
1.37836
0.25751
0.259024
0.262054
0.266603
0.272679
0.280288
0.289441
0.300147
0.312418
0.326266
0.341701
0.358735
0.377378
0.397635
0.419514
0.443013
0.46813
0.494856
0.523173
0.55306
0.584483
0.617399
0.651754
0.687482
0.724503
0.762721
0.802027
0.842292
0.883371
0.925102
0.967305
1.00978
1.05231
1.09466
1.13659
1.17783
1.21811
1.25713
1.29463
1.3303
1.36385
1.395
1.42348
1.44903
1.47141
1.49041
1.50584
1.51756
1.52543
1.52939
0.277275
0.278921
0.282214
0.28716
0.293766
0.302042
0.311998
0.323649
0.337007
0.352087
0.368904
0.387472
0.407804
0.429911
0.453802
0.479482
0.506949
0.536197
0.567214
0.599978
0.634457
0.67061
0.708381
0.747701
0.788488
0.830641
0.874042
0.918553
0.964019
1.01026
1.05708
1.10426
1.15156
1.19872
1.24547
1.2915
1.3365
1.38016
1.42216
1.46214
1.49979
1.53478
1.5668
1.59554
1.62074
1.64214
1.65953
1.67274
1.68162
1.68609
0.296337
0.298114
0.301669
0.307009
0.314143
0.323083
0.333841
0.346433
0.360876
0.377189
0.395389
0.415496
0.437526
0.461494
0.487415
0.515296
0.545143
0.576952
0.610715
0.646413
0.684017
0.723488
0.76477
0.807795
0.852475
0.898708
0.946369
0.995311
1.04537
1.09635
1.14803
1.20018
1.25254
1.30481
1.35669
1.40784
1.45792
1.50656
1.5534
1.59806
1.64015
1.67931
1.71517
1.74739
1.77566
1.79969
1.81923
1.83407
1.84405
1.84907
0.314625
0.316531
0.320346
0.326077
0.333736
0.343334
0.354889
0.368418
0.383943
0.401485
0.421068
0.442714
0.466445
0.492284
0.520247
0.55035
0.582603
0.617008
0.653561
0.69225
0.733048
0.775919
0.820811
0.867654
0.916363
0.96683
1.01893
1.0725
1.12736
1.18332
1.24014
1.29756
1.35528
1.413
1.47036
1.52701
1.58255
1.63657
1.68865
1.73837
1.7853
1.829
1.86906
1.9051
1.93674
1.96365
1.98555
2.00219
2.01338
2.01902
0.332063
0.334098
0.338169
0.344287
0.352464
0.362714
0.375058
0.389517
0.406116
0.424882
0.445841
0.469024
0.494458
0.52217
0.552186
0.584526
0.619207
0.656239
0.695625
0.737357
0.781416
0.827769
0.876369
0.927149
0.980024
1.03489
1.0916
1.15001
1.20992
1.27113
1.33337
1.39637
1.4598
1.52334
1.58658
1.64914
1.71057
1.77041
1.82819
1.88342
1.93562
1.9843
2.02898
2.06921
2.10456
2.13465
2.15916
2.17779
2.19033
2.19664
0.348575
0.350735
0.35506
0.361558
0.370246
0.381139
0.394262
0.40964
0.427302
0.44728
0.469607
0.494318
0.521449
0.551034
0.583105
0.617692
0.654818
0.694504
0.736759
0.781583
0.828966
0.878882
0.931288
0.986123
1.04331
1.10273
1.16425
1.22772
1.29293
1.35966
1.42764
1.49656
1.56609
1.63585
1.70541
1.77434
1.84214
1.9083
1.97228
2.03355
2.09153
2.14567
2.19544
2.24029
2.27975
2.31337
2.34077
2.36161
2.37565
2.38271
0.364081
0.366365
0.370937
0.377808
0.386996
0.398521
0.412409
0.428691
0.4474
0.468575
0.492254
0.518481
0.547297
0.578747
0.61287
0.649705
0.689288
0.731645
0.776799
0.824759
0.875523
0.929076
0.985383
1.04439
1.10602
1.17017
1.2367
1.30546
1.37623
1.44878
1.52283
1.59806
1.67409
1.75051
1.82688
1.90269
1.9774
2.05044
2.1212
2.18907
2.25341
2.31359
2.36897
2.41896
2.46298
2.50053
2.53115
2.55446
2.57017
2.57808
0.378502
0.380905
0.385718
0.392953
0.402628
0.414769
0.429405
0.446571
0.466307
0.488657
0.513667
0.541388
0.571871
0.605169
0.641332
0.680411
0.72245
0.76749
0.815563
0.866693
0.920889
0.978146
1.03844
1.10173
1.16795
1.23699
1.30874
1.38302
1.45962
1.53831
1.61879
1.70072
1.7837
1.86728
1.95097
2.03423
2.11645
2.19699
2.27519
2.35032
2.42168
2.48853
2.55016
2.60586
2.65498
2.69692
2.73115
2.75723
2.77481
2.78366
0.391753
0.394273
0.399318
0.406905
0.417053
0.429791
0.445153
0.463179
0.483915
0.507411
0.533724
0.56291
0.595033
0.630153
0.668335
0.70964
0.754126
0.801847
0.852851
0.907173
0.964839
1.02586
1.09022
1.1579
1.22884
1.30295
1.3801
1.46014
1.54287
1.62803
1.71531
1.80436
1.89477
1.98604
2.07764
2.16897
2.25937
2.34812
2.43447
2.51762
2.59675
2.67101
2.73959
2.80167
2.8565
2.90338
2.94167
2.97087
2.99057
3.00049
0.403754
0.406385
0.411654
0.419577
0.430179
0.443491
0.459552
0.478408
0.500111
0.524719
0.552296
0.582911
0.616635
0.653543
0.69371
0.737212
0.784122
0.834511
0.88844
0.945964
1.00713
1.07195
1.14046
1.21262
1.2884
1.36773
1.45049
1.53654
1.62567
1.71763
1.81212
1.90875
2.00709
2.10662
2.20677
2.30686
2.40618
2.50393
2.59926
2.69127
2.77901
2.86154
2.9379
3.00715
3.0684
3.12084
3.16373
3.19646
3.21856
3.22969
0.414421
0.417157
0.422638
0.430882
0.441916
0.455775
0.472503
0.492152
0.514781
0.540458
0.569253
0.601248
0.636525
0.675171
0.717277
0.762934
0.812231
0.865256
0.92209
0.982809
1.04748
1.11614
1.18883
1.26555
1.34629
1.43098
1.51954
1.61184
1.70766
1.80678
1.90888
2.01357
2.12039
2.22881
2.33818
2.4478
2.55686
2.66449
2.76973
2.87155
2.9689
3.06067
3.14576
3.22308
3.29159
3.35033
3.39843
3.43518
3.46001
3.47252
0.423672
0.426507
0.432187
0.440731
0.452171
0.466545
0.483903
0.504302
0.52781
0.554501
0.584459
0.617774
0.654543
0.694866
0.73885
0.786601
0.83823
0.893843
0.953544
1.01743
1.08559
1.15809
1.235
1.31634
1.40213
1.49232
1.58686
1.68562
1.78843
1.89506
2.00519
2.11844
2.23432
2.35227
2.47162
2.59159
2.71131
2.8298
2.946
3.05874
3.16681
3.26894
3.36387
3.45032
3.52706
3.59297
3.64703
3.68837
3.71632
3.73042
0.431426
0.434353
0.440216
0.449039
0.460855
0.475707
0.49365
0.514749
0.539078
0.566722
0.597775
0.632339
0.670524
0.712447
0.75823
0.808
0.861885
0.920017
0.982522
1.04952
1.12114
1.19747
1.2786
1.36459
1.45549
1.5513
1.65197
1.75741
1.86748
1.98196
2.10055
2.22287
2.34842
2.47662
2.60675
2.73798
2.86937
2.99982
3.12814
3.25304
3.37312
3.48693
3.59298
3.68978
3.77592
3.85003
3.91091
3.95753
3.98908
4.00499
0.437606
0.440615
0.446645
0.455721
0.467878
0.483166
0.501644
0.523384
0.548469
0.576994
0.609062
0.64479
0.684302
0.72773
0.775215
0.826905
0.882951
0.943508
1.00873
1.07877
1.15377
1.23388
1.3192
1.40986
1.50591
1.6074
1.71433
1.82665
1.94424
2.06691
2.19438
2.32628
2.46213
2.60132
2.7431
2.88659
3.03074
3.17438
3.31617
3.45464
3.5882
3.71519
3.83386
3.94248
4.03936
4.1229
4.19164
4.24436
4.28007
4.29809
0.442136
0.445218
0.451395
0.460695
0.473155
0.488831
0.507786
0.530101
0.555867
0.585188
0.61818
0.654972
0.695704
0.740526
0.789597
0.843088
0.901173
0.964034
1.03186
1.10482
1.18312
1.26691
1.35638
1.45165
1.55285
1.66007
1.77336
1.8927
2.01803
2.14921
2.28598
2.42799
2.57479
2.72574
2.88009
3.0369
3.19504
3.35323
3.50998
3.66363
3.81238
3.95429
4.08735
4.2095
4.31874
4.41316
4.49101
4.5508
4.59136
4.61184
0.444946
0.448091
0.454393
0.463884
0.476605
0.492614
0.511983
0.534798
0.561159
0.59118
0.624991
0.662732
0.704561
0.750644
0.801164
0.856311
0.916287
0.981303
1.05158
1.12733
1.20877
1.29614
1.38963
1.48944
1.59574
1.70869
1.82837
1.95486
2.08812
2.22808
2.37453
2.52717
2.68555
2.84908
3.01697
3.18825
3.36171
3.53596
3.70935
3.88003
4.04591
4.20479
4.35429
4.49201
4.61554
4.72258
4.81105
4.87911
4.92533
4.9487
0.44597
0.449166
0.45557
0.465216
0.47815
0.494433
0.514144
0.537375
0.564235
0.59485
0.62936
0.66792
0.710704
0.757897
0.809703
0.866336
0.928026
0.995015
1.06755
1.1459
1.23032
1.32108
1.41844
1.52266
1.63396
1.75256
1.87864
2.01231
2.15364
2.30261
2.45909
2.62284
2.79345
2.97037
3.15281
3.33977
3.53
3.72198
3.91391
4.10369
4.28897
4.46719
4.63557
4.79126
4.93139
5.05319
5.15409
5.23188
5.28478
5.31155
0.445151
0.448383
0.454864
0.464626
0.47772
0.494212
0.514185
0.53774
0.564994
0.596082
0.631158
0.67039
0.713969
0.762098
0.815004
0.872925
0.936121
1.00487
1.07945
1.16016
1.24733
1.34126
1.44228
1.5507
1.66683
1.79096
1.92333
2.06418
2.21363
2.37177
2.53857
2.71386
2.89731
3.08842
3.28645
3.49038
3.69894
3.91048
4.12305
4.33431
4.5416
4.74193
4.93208
5.10864
5.26815
5.40726
5.52283
5.61213
5.67296
5.70376
0.442436
0.445692
0.45222
0.462056
0.475253
0.491882
0.512032
0.535809
0.56334
0.59477
0.630263
0.670004
0.714197
0.763068
0.816862
0.875845
0.940306
1.01055
1.08691
1.16972
1.25935
1.35617
1.46057
1.57293
1.69364
1.82307
1.96158
2.10947
2.26702
2.43441
2.61172
2.7989
2.99575
3.20183
3.41647
3.63872
3.86724
4.10035
4.33591
4.57134
4.80364
5.02935
5.24468
5.44557
5.62786
5.78742
5.92041
6.02343
6.09372
6.12936
0.437784
0.441048
0.447593
0.457458
0.470697
0.487386
0.507618
0.531508
0.55919
0.590817
0.626565
0.666634
0.711243
0.760636
0.815081
0.87487
0.94032
1.01177
1.08959
1.17418
1.26593
1.36529
1.47272
1.58867
1.71362
1.84805
1.99241
2.14714
2.31264
2.48922
2.67713
2.87646
3.08714
3.3089
3.54117
3.78307
4.0333
4.29012
4.55127
4.81393
5.0747
5.3296
5.57419
5.8036
6.01278
6.19667
6.35049
6.46997
6.55167
6.59315
0.431162
0.434418
0.440948
0.450792
0.464007
0.480674
0.500889
0.524774
0.552468
0.584137
0.619965
0.660164
0.704971
0.754646
0.809479
0.869786
0.935915
1.00824
1.08717
1.17314
1.26662
1.36811
1.47814
1.59724
1.726
1.865
2.01481
2.17603
2.34918
2.53477
2.7332
2.94478
3.16963
3.40765
3.65847
3.92133
4.19505
4.47788
4.76747
5.06078
5.354
5.64258
5.92129
6.18431
6.42545
6.63847
6.81737
6.95678
7.05232
7.1009
0.422548
0.425779
0.432259
0.442031
0.455154
0.47171
0.491803
0.515556
0.543117
0.574659
0.610378
0.650496
0.695262
0.744957
0.799888
0.860397
0.92686
0.999684
1.07932
1.16625
1.26099
1.36412
1.47622
1.59795
1.72997
1.87299
2.02772
2.1949
2.37525
2.56947
2.77818
3.00191
3.24105
3.49575
3.76589
4.05095
4.34991
4.66113
4.98225
5.31002
5.64026
5.96779
6.28646
6.58927
6.86865
7.1168
7.32615
7.48988
7.60237
7.65966
0.411933
0.415121
0.421516
0.431161
0.444119
0.460473
0.48033
0.503819
0.531093
0.562331
0.597738
0.637547
0.682019
0.731449
0.786166
0.84653
0.912946
0.985854
1.06574
1.15313
1.24861
1.35281
1.46639
1.59011
1.72472
1.87107
2.03003
2.20249
2.38938
2.59163
2.81011
3.04565
3.29895
3.5705
3.86052
4.16881
4.49467
4.83669
5.19258
5.55903
5.9315
6.30415
6.66978
7.01998
7.3454
7.63626
7.8829
8.07657
8.21
8.27806
0.399319
0.402445
0.408718
0.418181
0.430898
0.446954
0.466458
0.489544
0.516369
0.547117
0.581999
0.621258
0.665165
0.714029
0.768193
0.828039
0.893995
0.966531
1.04617
1.13348
1.2291
1.33372
1.44809
1.57304
1.70946
1.8583
2.02061
2.19747
2.39001
2.59943
2.82691
3.0736
3.34059
3.6288
3.9389
4.27118
4.62538
5.00049
5.39451
5.80419
6.22476
6.64973
7.07075
7.4777
7.85899
8.2022
8.49492
8.72576
8.88529
8.9668
0.384723
0.387769
0.393882
0.403104
0.415501
0.431161
0.450193
0.472732
0.498939
0.529002
0.563138
0.601594
0.644652
0.692629
0.745883
0.804812
0.869864
0.941535
1.02038
1.10701
1.20211
1.30643
1.42079
1.54612
1.68341
1.83376
1.99836
2.1785
2.37556
2.59099
2.82633
3.08312
3.36291
3.66714
3.99707
4.35362
4.7372
5.14743
5.58285
6.04054
6.51573
7.00139
7.48794
7.96323
8.41282
8.8208
9.171
9.44846
9.64081
9.73925
0.368176
0.371123
0.377036
0.385959
0.397958
0.41312
0.431555
0.4534
0.478817
0.507996
0.541156
0.578548
0.62046
0.667217
0.719185
0.776776
0.840453
0.910735
0.988201
1.0735
1.16735
1.27057
1.38405
1.50878
1.64588
1.79658
1.96222
2.1443
2.34443
2.56439
2.80607
3.07145
3.36261
3.68163
4.03049
4.41094
4.8243
5.27113
5.75089
6.2614
6.79825
7.35418
7.91844
8.47652
9.01034
9.49926
9.9219
10.2584
10.4923
10.6122
0.349724
0.352552
0.358226
0.366791
0.378311
0.392873
0.410587
0.431589
0.456041
0.484131
0.51608
0.552141
0.592603
0.637794
0.688087
0.743901
0.80571
0.874049
0.949516
1.03279
1.12462
1.22587
1.33749
1.46055
1.59627
1.74598
1.9112
2.09362
2.29511
2.51773
2.76377
3.03571
3.3362
3.66804
4.03411
4.43718
4.87976
5.36377
5.89006
6.45781
7.06362
7.70057
8.35707
9.01603
9.65473
10.246
10.761
11.1728
11.4599
11.6072
0.329428
0.332117
0.337513
0.345661
0.356622
0.370483
0.387351
0.40736
0.430669
0.457466
0.487968
0.522427
0.56113
0.604404
0.652623
0.706209
0.765641
0.83146
0.904279
0.984791
1.07378
1.17213
1.28084
1.40106
1.53407
1.68132
1.84447
2.02538
2.22617
2.44921
2.69716
2.97302
3.28006
3.6219
4.00241
4.4256
4.89552
5.41587
5.98956
6.61793
7.29966
8.02923
8.79507
9.57765
10.3484
11.0709
11.705
12.214
12.569
12.7512
0.307364
0.309894
0.314975
0.322647
0.33297
0.346029
0.361928
0.380796
0.402789
0.428088
0.456908
0.489493
0.526126
0.56713
0.612873
0.663774
0.720309
0.78302
0.852522
0.929515
1.01479
1.10927
1.21397
1.33008
1.45894
1.60211
1.76135
1.93867
2.13641
2.35722
2.60414
2.88064
3.19067
3.53866
3.92959
4.36891
4.86247
5.41627
6.03603
6.72637
7.48955
8.32333
9.21804
10.1528
11.0922
11.9859
12.7759
13.4107
13.8529
14.0793
0.283622
0.285977
0.290704
0.297843
0.307453
0.319612
0.33442
0.352003
0.372508
0.396111
0.423016
0.453461
0.487719
0.526102
0.568969
0.616728
0.669846
0.728854
0.794362
0.867062
0.947751
1.03734
1.13687
1.24755
1.37075
1.50809
1.66141
1.83286
2.02491
2.24048
2.48292
2.75615
3.06472
3.41392
3.80984
4.25946
4.77068
5.35224
6.01345
6.76354
7.6104
8.55809
9.60255
10.725
11.8832
13.0062
14.0036
14.8018
15.3541
15.6354
0.25831
0.260471
0.264809
0.271362
0.280183
0.291349
0.304952
0.32111
0.339962
0.361676
0.386443
0.41449
0.446074
0.481495
0.521094
0.565263
0.614449
0.669168
0.730006
0.797641
0.87285
0.956528
1.04971
1.15359
1.26956
1.39925
1.54453
1.70762
1.89113
2.0981
2.33217
2.59759
2.89946
3.24379
3.63773
4.08978
4.60994
5.20996
5.90339
6.70537
7.63188
8.69752
9.91058
11.2628
12.711
14.1536
15.4319
16.4403
17.1277
17.4744
0.231548
0.233498
0.237414
0.243329
0.251294
0.261377
0.273665
0.288267
0.305311
0.324952
0.347369
0.37277
0.401398
0.433529
0.469484
0.509631
0.55439
0.604247
0.659759
0.72157
0.790423
0.867176
0.95283
1.04855
1.15569
1.27584
1.4109
1.56306
1.73497
1.92977
2.1512
2.40377
2.69292
3.02524
3.40875
3.85321
4.37059
4.97555
5.68605
6.52397
7.51553
8.69085
10.0808
11.7059
13.5457
15.4667
17.1316
18.4012
19.2435
19.6614
0.203471
0.205195
0.208657
0.213888
0.220932
0.22985
0.240723
0.253647
0.268738
0.286136
0.306004
0.328531
0.353935
0.382471
0.414429
0.450146
0.490008
0.534462
0.584022
0.639283
0.700936
0.769784
0.846765
0.932975
1.02971
1.13848
1.2611
1.39973
1.55692
1.7358
1.9401
2.17439
2.44426
2.75659
3.11989
3.54482
4.04477
4.63672
5.34243
6.19008
7.21657
8.47074
10.017
11.9356
14.3002
17.0373
19.2276
20.7906
21.785
22.2674
0.174224
0.175709
0.17869
0.183194
0.189259
0.19694
0.206306
0.217441
0.230448
0.24545
0.262588
0.282031
0.30397
0.32863
0.356267
0.387181
0.421714
0.460264
0.503289
0.551325
0.604991
0.665012
0.732238
0.807668
0.892482
0.988082
1.09614
1.21866
1.35806
1.51729
1.69991
1.91036
2.15408
2.43788
2.77036
3.16238
3.62793
4.18513
4.85789
5.67836
6.69096
7.95959
9.58181
11.7204
14.6835
19.1555
21.9521
23.7497
24.8395
25.3568
0.143967
0.1452
0.147677
0.151417
0.156454
0.162832
0.17061
0.179859
0.190667
0.203137
0.217388
0.233561
0.251821
0.272357
0.295387
0.321164
0.349982
0.38218
0.418151
0.458352
0.50332
0.553678
0.610164
0.673646
0.745155
0.825922
0.917422
1.02143
1.14012
1.27612
1.43267
1.61382
1.82459
2.07132
2.36209
2.70725
3.12026
3.61881
4.22648
4.97536
5.91019
7.09573
8.63114
10.6816
13.5585
17.9503
20.6764
22.4173
23.4676
23.9645
0.112867
0.113839
0.115793
0.118739
0.122703
0.127724
0.133846
0.141129
0.14964
0.159462
0.170691
0.183439
0.197838
0.214039
0.232216
0.252574
0.275348
0.30081
0.329277
0.361121
0.396774
0.436745
0.481632
0.532146
0.589132
0.653603
0.726778
0.810133
0.90547
1.015
1.14147
1.2883
1.45978
1.66138
1.90009
2.18495
2.52775
2.94406
3.45458
4.08713
4.87942
5.88273
7.16613
8.8172
10.9195
13.4113
15.3865
16.7765
17.6497
18.0698
0.0810992
0.081801
0.0832185
0.0853448
0.0882033
0.091822
0.0962353
0.101485
0.107622
0.114705
0.122804
0.132002
0.142394
0.15409
0.167219
0.181929
0.198392
0.216808
0.237411
0.260472
0.286311
0.315302
0.347889
0.384598
0.426058
0.473022
0.526403
0.587307
0.657092
0.73743
0.830402
0.938613
1.06536
1.21484
1.39246
1.60521
1.86227
2.17564
2.56118
3.03971
3.63818
4.39021
5.33398
6.50216
7.89136
9.38964
10.6826
11.6528
12.2857
12.5958
0.0488483
0.0492587
0.0501165
0.0514012
0.0531271
0.0553116
0.0579756
0.0611447
0.0648495
0.0691263
0.0740176
0.0795734
0.0858515
0.0929193
0.100855
0.109748
0.119705
0.130848
0.143318
0.157282
0.172936
0.19051
0.210275
0.232557
0.25774
0.286293
0.318777
0.355879
0.398444
0.447512
0.504383
0.57069
0.648503
0.740467
0.849993
0.981506
1.14078
1.33537
1.57512
1.87267
2.2437
2.70629
3.27776
3.96644
4.75453
5.57361
6.30169
6.86696
7.24464
7.43222
0.0163128
0.0164414
0.0167257
0.0171549
0.0177319
0.0184622
0.0193528
0.0204123
0.021651
0.023081
0.0247165
0.0265745
0.0286742
0.0310383
0.0336931
0.0366688
0.0400008
0.0437302
0.0479049
0.0525809
0.057824
0.0637117
0.0703359
0.0778057
0.086252
0.0958321
0.106737
0.119199
0.133504
0.150007
0.169148
0.191485
0.217723
0.248766
0.285778
0.330272
0.38422
0.450191
0.531511
0.632393
0.757934
0.913729
1.10458
1.33156
1.58696
1.84886
2.08386
2.26893
2.39398
2.4565
)
;

boundaryField
{
    walls
    {
        type            calculated;
        value           nonuniform List<scalar> 
200
(
0
0
0
0
0
0
0
0
0
0
0
0
0
0
0
0
0
0
0
0
0
0
0
0
0
0
0
0
0
0
0
0
0
0
0
0
0
0
0
0
0
0
0
0
0
0
0
0
0
0
0.0117504
0.0352029
0.0585818
0.0818626
0.104973
0.127863
0.150481
0.172772
0.194681
0.216148
0.237112
0.25751
0.277275
0.296337
0.314625
0.332063
0.348575
0.364081
0.378502
0.391753
0.403754
0.414421
0.423672
0.431426
0.437606
0.442136
0.444946
0.44597
0.445151
0.442436
0.437784
0.431162
0.422548
0.411933
0.399319
0.384723
0.368176
0.349724
0.329428
0.307364
0.283622
0.25831
0.231548
0.203471
0.174224
0.143967
0.112867
0.0810992
0.0488483
0.0163128
0.0614813
0.184655
0.308484
0.433429
0.55994
0.688475
0.819501
0.953498
1.09096
1.2324
1.37836
1.52939
1.68609
1.84907
2.01902
2.19664
2.38271
2.57808
2.78366
3.00049
3.22969
3.47252
3.73042
4.00499
4.29809
4.61184
4.9487
5.31155
5.70376
6.12936
6.59315
7.1009
7.65966
8.27806
8.9668
9.73925
10.6122
11.6072
12.7512
14.0793
15.6354
17.4744
19.6614
22.2674
25.3568
23.9645
18.0698
12.5958
7.43222
2.4565
0
0
0
0
0
0
0
0
0
0
0
0
0
0
0
0
0
0
0
0
0
0
0
0
0
0
0
0
0
0
0
0
0
0
0
0
0
0
0
0
0
0
0
0
0
0
0
0
0
0
)
;
    }
    frontAndBack
    {
        type            empty;
    }
}


// ************************************************************************* //
