/*--------------------------------*- C++ -*----------------------------------*\
| =========                 |                                                 |
| \\      /  F ield         | OpenFOAM: The Open Source CFD Toolbox           |
|  \\    /   O peration     | Version:  2406                                  |
|   \\  /    A nd           | Website:  www.openfoam.com                      |
|    \\/     M anipulation  |                                                 |
\*---------------------------------------------------------------------------*/
FoamFile
{
    version     2.0;
    format      ascii;
    arch        "LSB;label=32;scalar=64";
    class       volScalarField;
    location    "2.05";
    object      T;
}
// * * * * * * * * * * * * * * * * * * * * * * * * * * * * * * * * * * * * * //

dimensions      [0 0 0 1 0 0 0];

internalField   nonuniform List<scalar> 
2500
(
0.319428
0.319898
0.320836
0.322242
0.324111
0.326441
0.329226
0.33246
0.336136
0.340247
0.344782
0.349732
0.355083
0.360823
0.366936
0.373408
0.380219
0.387351
0.394782
0.402491
0.410452
0.418641
0.427029
0.435588
0.444286
0.453092
0.461971
0.47089
0.47981
0.488696
0.497508
0.506207
0.514754
0.523109
0.531232
0.539082
0.54662
0.553809
0.560609
0.566986
0.572904
0.578331
0.583236
0.587593
0.591375
0.594562
0.597134
0.599076
0.600378
0.60103
0.319898
0.320371
0.321314
0.322727
0.324607
0.32695
0.329751
0.333003
0.336701
0.340835
0.345397
0.350375
0.355758
0.361532
0.367682
0.374193
0.381046
0.388222
0.395701
0.403459
0.411472
0.419714
0.428158
0.436774
0.445532
0.454399
0.463341
0.472323
0.481307
0.490258
0.499135
0.5079
0.516512
0.524931
0.533117
0.541029
0.548627
0.555874
0.562729
0.569158
0.575125
0.580597
0.585544
0.589937
0.593752
0.596966
0.59956
0.601519
0.602832
0.60349
0.320836
0.321314
0.322268
0.323697
0.325598
0.327967
0.330799
0.334088
0.337828
0.342009
0.346624
0.35166
0.357106
0.362948
0.369173
0.375762
0.382699
0.389965
0.397537
0.405393
0.41351
0.421859
0.430415
0.439147
0.448024
0.457013
0.46608
0.475188
0.484302
0.493383
0.502391
0.511287
0.520029
0.528577
0.53689
0.544926
0.552645
0.560007
0.566974
0.573508
0.579573
0.585136
0.590165
0.594633
0.598512
0.60178
0.604419
0.606412
0.607748
0.608417
0.322242
0.322727
0.323697
0.325149
0.327081
0.32949
0.332369
0.335714
0.339516
0.343769
0.348463
0.353586
0.359127
0.365072
0.371407
0.378115
0.385179
0.392577
0.400291
0.408296
0.416567
0.425079
0.433802
0.442708
0.451764
0.460937
0.470192
0.479492
0.4888
0.498077
0.507283
0.516375
0.525314
0.534057
0.542561
0.550784
0.558685
0.566222
0.573356
0.580049
0.586262
0.591962
0.597117
0.601696
0.605672
0.609023
0.611729
0.613773
0.615143
0.615829
0.324111
0.324607
0.325598
0.327081
0.329056
0.331516
0.334459
0.337877
0.341764
0.346112
0.350911
0.35615
0.361818
0.367901
0.374384
0.38125
0.388482
0.39606
0.403962
0.412165
0.420644
0.429372
0.438321
0.447459
0.456755
0.466174
0.475681
0.485238
0.494807
0.504347
0.513817
0.523175
0.532377
0.541381
0.550142
0.558617
0.566762
0.574535
0.581895
0.5888
0.595214
0.601098
0.606421
0.61115
0.615258
0.61872
0.621516
0.623629
0.625044
0.625754
0.326441
0.32695
0.327967
0.32949
0.331516
0.334043
0.337064
0.340575
0.344567
0.349034
0.353965
0.359349
0.365176
0.371431
0.378099
0.385164
0.392608
0.40041
0.408549
0.417001
0.42574
0.43474
0.443971
0.453402
0.463
0.472729
0.482553
0.492433
0.50233
0.512202
0.522006
0.531697
0.541233
0.550566
0.559651
0.568444
0.576898
0.584969
0.592613
0.599788
0.606454
0.612572
0.618108
0.623028
0.627302
0.630905
0.633815
0.636014
0.637488
0.638227
0.329226
0.329751
0.330799
0.332369
0.334459
0.337064
0.34018
0.343802
0.347921
0.35253
0.35762
0.36318
0.369198
0.37566
0.382551
0.389855
0.397554
0.405626
0.41405
0.422802
0.431856
0.441184
0.450756
0.46054
0.470502
0.480606
0.490814
0.501085
0.511379
0.521653
0.531861
0.541958
0.551896
0.56163
0.571109
0.580288
0.589117
0.59755
0.605541
0.613044
0.620018
0.626421
0.632216
0.637368
0.641845
0.64562
0.648669
0.650974
0.652519
0.653293
0.33246
0.333003
0.334088
0.335714
0.337877
0.340575
0.343802
0.347552
0.35182
0.356596
0.361872
0.367636
0.373877
0.380582
0.387735
0.395319
0.403315
0.411704
0.420463
0.429567
0.43899
0.448704
0.458676
0.468876
0.479266
0.489811
0.50047
0.511203
0.521965
0.532713
0.543398
0.553973
0.564389
0.574595
0.584541
0.594177
0.603451
0.612313
0.620714
0.628607
0.635946
0.642687
0.64879
0.654218
0.658936
0.662916
0.666131
0.668561
0.67019
0.671007
0.336136
0.336701
0.337828
0.339516
0.341764
0.344567
0.347921
0.35182
0.356257
0.361224
0.366713
0.372712
0.379209
0.386192
0.393644
0.40155
0.409889
0.418642
0.427785
0.437294
0.447142
0.457299
0.467733
0.478411
0.489296
0.50035
0.511531
0.522796
0.5341
0.545396
0.556634
0.567763
0.578733
0.589488
0.599976
0.610143
0.619934
0.629296
0.638175
0.646522
0.654287
0.661423
0.667886
0.673635
0.678635
0.682853
0.686262
0.688839
0.690567
0.691433
0.340247
0.340835
0.342009
0.343769
0.346112
0.349034
0.35253
0.356596
0.361224
0.366407
0.372136
0.378399
0.385186
0.392483
0.400274
0.408542
0.417269
0.426434
0.436012
0.44598
0.456309
0.466969
0.477927
0.489149
0.500596
0.512228
0.524003
0.535876
0.547797
0.559719
0.571588
0.583352
0.594954
0.606338
0.617447
0.628223
0.638607
0.648542
0.657972
0.666841
0.675096
0.682685
0.689563
0.695684
0.701008
0.705502
0.709134
0.71188
0.713722
0.714645
0.344782
0.345397
0.346624
0.348463
0.350911
0.353965
0.35762
0.361872
0.366713
0.372136
0.378132
0.38469
0.3918
0.399447
0.407615
0.416289
0.425449
0.435074
0.445139
0.45562
0.466488
0.477712
0.489258
0.50109
0.513169
0.525453
0.537896
0.550453
0.563071
0.575699
0.588281
0.600761
0.61308
0.625177
0.63699
0.648457
0.659515
0.670103
0.680158
0.689622
0.698435
0.706542
0.713892
0.720437
0.726132
0.73094
0.734828
0.737768
0.73974
0.740729
0.349732
0.350375
0.35166
0.353586
0.35615
0.359349
0.36318
0.367636
0.372712
0.378399
0.38469
0.391574
0.39904
0.407073
0.41566
0.424782
0.434421
0.444555
0.45516
0.46621
0.477676
0.489526
0.501726
0.514237
0.52702
0.540029
0.553219
0.566538
0.579935
0.593354
0.606736
0.620019
0.633142
0.646039
0.658644
0.670889
0.682708
0.694031
0.704793
0.714928
0.724373
0.733067
0.740953
0.747978
0.754094
0.759259
0.763436
0.766597
0.768717
0.76978
0.355083
0.355758
0.357106
0.359127
0.361818
0.365176
0.369198
0.373877
0.379209
0.385186
0.3918
0.39904
0.406895
0.415352
0.424396
0.43401
0.444174
0.454868
0.466066
0.477743
0.489867
0.502408
0.515328
0.52859
0.542149
0.555962
0.569978
0.584144
0.598406
0.612703
0.626974
0.641153
0.655172
0.668963
0.682453
0.69557
0.708239
0.720388
0.731943
0.742833
0.752988
0.762342
0.770831
0.778398
0.784989
0.790557
0.795062
0.79847
0.800757
0.801904
0.360823
0.361532
0.362948
0.365072
0.367901
0.371431
0.37566
0.380582
0.386192
0.392483
0.399447
0.407073
0.415352
0.42427
0.433812
0.443961
0.454699
0.466002
0.477848
0.490209
0.503055
0.516351
0.530061
0.544146
0.558559
0.573255
0.58818
0.603281
0.618496
0.633764
0.649019
0.66419
0.679205
0.693988
0.708463
0.722549
0.736168
0.749238
0.76168
0.773414
0.784365
0.794458
0.803625
0.811799
0.818924
0.824945
0.829818
0.833506
0.835981
0.837223
0.366936
0.367682
0.369173
0.371407
0.374384
0.378099
0.382551
0.387735
0.393644
0.400274
0.407615
0.41566
0.424396
0.433812
0.443893
0.454622
0.46598
0.477946
0.490495
0.503599
0.517228
0.531348
0.545919
0.560901
0.576248
0.59191
0.607832
0.623957
0.64022
0.656557
0.672895
0.68916
0.705274
0.721156
0.736721
0.751883
0.766556
0.780651
0.794079
0.806756
0.818594
0.829514
0.839438
0.848294
0.856015
0.862544
0.867831
0.871833
0.87452
0.875867
0.373408
0.374193
0.375762
0.378115
0.38125
0.385164
0.389855
0.395319
0.40155
0.408542
0.416289
0.424782
0.43401
0.443961
0.454622
0.465975
0.478003
0.490683
0.503991
0.517899
0.532376
0.547388
0.562894
0.578852
0.595214
0.611928
0.628937
0.64618
0.663591
0.681097
0.698625
0.716092
0.733416
0.750508
0.767277
0.78363
0.79947
0.814701
0.829226
0.842949
0.855777
0.867618
0.878387
0.888003
0.896393
0.903491
0.90924
0.913594
0.916517
0.917984
0.380219
0.381046
0.382699
0.385179
0.388482
0.392608
0.397554
0.403315
0.409889
0.417269
0.425449
0.434421
0.444174
0.454699
0.46598
0.478003
0.490748
0.504195
0.51832
0.533093
0.548485
0.564458
0.580974
0.597987
0.615449
0.633306
0.651496
0.669957
0.688617
0.707402
0.72623
0.745015
0.763666
0.782089
0.800184
0.817849
0.834979
0.851467
0.867207
0.882093
0.896019
0.908886
0.920597
0.931062
0.940198
0.947931
0.954197
0.958944
0.962133
0.963733
0.387351
0.388222
0.389965
0.392577
0.39606
0.40041
0.405626
0.411704
0.418642
0.426434
0.435074
0.444555
0.454868
0.466002
0.477946
0.490683
0.504195
0.518463
0.533461
0.549162
0.565535
0.582543
0.600145
0.618297
0.636946
0.656037
0.675507
0.695289
0.715308
0.735484
0.75573
0.775955
0.79606
0.815942
0.835494
0.854603
0.873155
0.891033
0.908117
0.924291
0.939438
0.953445
0.966205
0.977615
0.987583
0.996026
1.00287
1.00806
1.01154
1.01329
0.394782
0.395701
0.397537
0.400291
0.403962
0.408549
0.41405
0.420463
0.427785
0.436012
0.445139
0.45516
0.466066
0.477848
0.490495
0.503991
0.51832
0.533461
0.549392
0.566084
0.583506
0.601621
0.620389
0.639763
0.65969
0.680112
0.700964
0.722175
0.743667
0.765353
0.787143
0.808937
0.83063
0.85211
0.873259
0.893956
0.914074
0.933484
0.952055
0.969656
0.986156
1.00143
1.01536
1.02782
1.03872
1.04795
1.05544
1.06112
1.06494
1.06686
0.402491
0.403459
0.405393
0.408296
0.412165
0.417001
0.422802
0.429567
0.437294
0.44598
0.45562
0.46621
0.477743
0.490209
0.503599
0.517899
0.533093
0.549162
0.566084
0.58383
0.602371
0.621669
0.641683
0.662366
0.683664
0.705517
0.727857
0.75061
0.773693
0.797016
0.820482
0.843983
0.867407
0.890633
0.913533
0.935972
0.957813
0.978912
0.999125
1.0183
1.03631
1.05299
1.06821
1.08185
1.09378
1.1039
1.11212
1.11835
1.12254
1.12464
0.410452
0.411472
0.41351
0.416567
0.420644
0.42574
0.431856
0.43899
0.447142
0.456309
0.466488
0.477676
0.489867
0.503055
0.517228
0.532376
0.548485
0.565535
0.583506
0.602371
0.622099
0.642656
0.663998
0.686079
0.708844
0.73223
0.756169
0.780581
0.805381
0.830474
0.855755
0.881111
0.90642
0.931551
0.956365
0.980715
1.00445
1.02741
1.04943
1.07036
1.09003
1.10827
1.12494
1.13989
1.15298
1.16409
1.17311
1.17996
1.18456
1.18688
0.418641
0.419714
0.421859
0.425079
0.429372
0.43474
0.441184
0.448704
0.457299
0.466969
0.477712
0.489526
0.502408
0.516351
0.531348
0.547388
0.564458
0.582543
0.601621
0.621669
0.642656
0.664547
0.687301
0.710871
0.7352
0.760226
0.785876
0.812071
0.83872
0.865722
0.892966
0.920333
0.947691
0.974898
1.0018
1.02825
1.05406
1.07907
1.1031
1.12595
1.14747
1.16745
1.18573
1.20214
1.21652
1.22874
1.23867
1.24621
1.25128
1.25383
0.427029
0.428158
0.430415
0.433802
0.438321
0.443971
0.450756
0.458676
0.467733
0.477927
0.489258
0.501726
0.515328
0.530061
0.545919
0.562894
0.580974
0.600145
0.620389
0.641683
0.663998
0.687301
0.711551
0.736701
0.762695
0.789469
0.81695
0.845054
0.873688
0.902746
0.932111
0.961654
0.991236
1.0207
1.04989
1.07863
1.10672
1.13399
1.16022
1.18522
1.20878
1.2307
1.25077
1.26881
1.28464
1.2981
1.30905
1.31737
1.32296
1.32578
0.435588
0.436774
0.439147
0.442708
0.447459
0.453402
0.46054
0.468876
0.478411
0.489149
0.50109
0.514237
0.52859
0.544146
0.560901
0.578852
0.597987
0.618297
0.639763
0.662366
0.686079
0.710871
0.736701
0.763524
0.791285
0.819919
0.849351
0.879496
0.910257
0.941524
0.973174
1.00507
1.03706
1.06899
1.10067
1.13191
1.16251
1.19226
1.22093
1.2483
1.27414
1.29821
1.32028
1.34015
1.3576
1.37245
1.38455
1.39374
1.39993
1.40304
0.444286
0.445532
0.448024
0.451764
0.456755
0.463
0.470502
0.479266
0.489296
0.500596
0.513169
0.52702
0.542149
0.558559
0.576248
0.595214
0.615449
0.636946
0.65969
0.683664
0.708844
0.7352
0.762695
0.791285
0.820915
0.851521
0.883029
0.915351
0.948387
0.982024
1.01613
1.05057
1.08517
1.11977
1.15416
1.18815
1.2215
1.25398
1.28535
1.31534
1.34371
1.37017
1.39449
1.4164
1.43568
1.4521
1.46548
1.47567
1.48253
1.48598
0.453092
0.454399
0.457013
0.460937
0.466174
0.472729
0.480606
0.489811
0.50035
0.512228
0.525453
0.540029
0.555962
0.573255
0.59191
0.611928
0.633306
0.656037
0.680112
0.705517
0.73223
0.760226
0.789469
0.819919
0.851521
0.884215
0.917924
0.952562
0.988027
1.0242
1.06095
1.09812
1.13555
1.17304
1.21039
1.24737
1.28374
1.31924
1.35358
1.38649
1.41767
1.44681
1.47364
1.49785
1.51918
1.53737
1.55221
1.56351
1.57113
1.57497
0.461971
0.463341
0.46608
0.470192
0.475681
0.482553
0.490814
0.50047
0.511531
0.524003
0.537896
0.553219
0.569978
0.58818
0.607832
0.628937
0.651496
0.675507
0.700964
0.727857
0.756169
0.785876
0.81695
0.849351
0.883029
0.917924
0.953963
0.991059
1.02911
1.06799
1.10757
1.14769
1.18816
1.2288
1.26937
1.30962
1.3493
1.38811
1.42575
1.46189
1.4962
1.52835
1.55798
1.58478
1.60843
1.62863
1.64512
1.6577
1.66618
1.67045
0.47089
0.472323
0.475188
0.479492
0.485238
0.492433
0.501085
0.511203
0.522796
0.535876
0.550453
0.566538
0.584144
0.603281
0.623957
0.64618
0.669957
0.695289
0.722175
0.75061
0.780581
0.812071
0.845054
0.879496
0.915351
0.952562
0.991059
1.03076
1.07155
1.11332
1.15593
1.19921
1.24297
1.28701
1.33107
1.3749
1.41821
1.46068
1.50196
1.54169
1.5795
1.61501
1.64781
1.67753
1.7038
1.72627
1.74465
1.75868
1.76815
1.77291
0.47981
0.481307
0.484302
0.4888
0.494807
0.50233
0.511379
0.521965
0.5341
0.547797
0.563071
0.579935
0.598406
0.618496
0.64022
0.663591
0.688617
0.715308
0.743667
0.773693
0.805381
0.83872
0.873688
0.910257
0.948387
0.988027
1.02911
1.07155
1.11525
1.1601
1.20594
1.2526
1.2999
1.34761
1.39548
1.44321
1.4905
1.53699
1.5823
1.62604
1.66776
1.70703
1.74341
1.77643
1.80568
1.83075
1.85129
1.86697
1.87757
1.88291
0.488696
0.490258
0.493383
0.498077
0.504347
0.512202
0.521653
0.532713
0.545396
0.559719
0.575699
0.593354
0.612703
0.633764
0.656557
0.681097
0.707402
0.735484
0.765353
0.797016
0.830474
0.865722
0.902746
0.941524
0.982024
1.0242
1.06799
1.11332
1.1601
1.20819
1.25747
1.30776
1.35886
1.41054
1.46253
1.51452
1.56617
1.61709
1.66688
1.71506
1.76117
1.80468
1.84509
1.88187
1.91452
1.94256
1.96557
1.98316
1.99506
2.00106
0.497508
0.499135
0.502391
0.507283
0.513817
0.522006
0.531861
0.543398
0.556634
0.571588
0.588281
0.606736
0.626974
0.649019
0.672895
0.698625
0.72623
0.75573
0.787143
0.820482
0.855755
0.892966
0.932111
0.973174
1.01613
1.06095
1.10757
1.15593
1.20594
1.25747
1.3104
1.36456
1.41973
1.47569
1.53214
1.58876
1.64519
1.701
1.75574
1.80889
1.85991
1.90821
1.95319
1.99426
2.0308
2.06225
2.0881
2.10791
2.12132
2.12809
0.506207
0.5079
0.511287
0.516375
0.523175
0.531697
0.541958
0.553973
0.567763
0.583352
0.600761
0.620019
0.641153
0.66419
0.68916
0.716092
0.745015
0.775955
0.808937
0.843983
0.881111
0.920333
0.961654
1.00507
1.05057
1.09812
1.14769
1.19921
1.2526
1.30776
1.36456
1.42282
1.48235
1.5429
1.60418
1.66584
1.7275
1.7887
1.84893
1.90762
1.96415
2.01787
2.06806
2.11402
2.15503
2.19043
2.21959
2.24196
2.25713
2.26479
0.514754
0.516512
0.520029
0.525314
0.532377
0.541233
0.551896
0.564389
0.578733
0.594954
0.61308
0.633142
0.655172
0.679205
0.705274
0.733416
0.763666
0.79606
0.83063
0.867407
0.90642
0.947691
0.991236
1.03706
1.08517
1.13555
1.18816
1.24297
1.2999
1.35886
1.41973
1.48235
1.54652
1.61199
1.67848
1.74561
1.81299
1.88012
1.94644
2.01132
2.07407
2.13391
2.19004
2.24163
2.28782
2.32779
2.3608
2.38618
2.40341
2.41212
0.523109
0.524931
0.528577
0.534057
0.541381
0.550566
0.56163
0.574595
0.589488
0.606338
0.625177
0.646039
0.668963
0.693988
0.721156
0.750508
0.782089
0.815942
0.85211
0.890633
0.931551
0.974898
1.0207
1.06899
1.11977
1.17304
1.2288
1.28701
1.34761
1.41054
1.47569
1.5429
1.61199
1.68273
1.75481
1.82788
1.9015
1.97515
2.04822
2.12002
2.18977
2.25658
2.31952
2.37759
2.42978
2.4751
2.51263
2.54156
2.56123
2.57118
0.531232
0.533117
0.53689
0.542561
0.550142
0.559651
0.571109
0.584541
0.599976
0.617447
0.63699
0.658644
0.682453
0.708463
0.736721
0.767277
0.800184
0.835494
0.873259
0.913533
0.956365
1.0018
1.04989
1.10067
1.15416
1.21039
1.26937
1.33107
1.39548
1.46253
1.53214
1.60418
1.67848
1.75481
1.8329
1.91237
1.99278
2.07359
2.15414
2.23368
2.31133
2.38608
2.45684
2.52243
2.58163
2.63324
2.67611
2.70924
2.73181
2.74324
0.539082
0.541029
0.544926
0.550784
0.558617
0.568444
0.580288
0.594177
0.610143
0.628223
0.648457
0.670889
0.69557
0.722549
0.751883
0.78363
0.817849
0.854603
0.893956
0.935972
0.980715
1.02825
1.07863
1.13191
1.18815
1.24737
1.30962
1.3749
1.44321
1.51452
1.58876
1.66584
1.74561
1.82788
1.91237
1.99873
2.08651
2.17516
2.264
2.35219
2.43876
2.52257
2.60235
2.6767
2.74414
2.80319
2.85243
2.89059
2.91664
2.92985
0.54662
0.548627
0.552645
0.558685
0.566762
0.576898
0.589117
0.603451
0.619934
0.638607
0.659515
0.682708
0.708239
0.736168
0.766556
0.79947
0.834979
0.873155
0.914074
0.957813
1.00445
1.05406
1.10672
1.16251
1.2215
1.28374
1.3493
1.41821
1.4905
1.56617
1.64519
1.7275
1.81299
1.9015
1.99278
2.08651
2.18227
2.27948
2.37746
2.47531
2.57196
2.66613
2.75635
2.84096
2.91814
2.98607
3.04295
3.08718
3.11745
3.13281
0.553809
0.555874
0.560007
0.566222
0.574535
0.584969
0.59755
0.612313
0.629296
0.648542
0.670103
0.694031
0.720388
0.749238
0.780651
0.814701
0.851467
0.891033
0.933484
0.978912
1.02741
1.07907
1.13399
1.19226
1.25398
1.31924
1.38811
1.46068
1.53699
1.61709
1.701
1.7887
1.88012
1.97515
2.07359
2.17516
2.27948
2.38601
2.49403
2.60264
2.71069
2.81673
2.91908
3.01576
3.10455
3.18316
3.24931
3.30092
3.33633
3.35434
0.560609
0.562729
0.566974
0.573356
0.581895
0.592613
0.605541
0.620714
0.638175
0.657972
0.680158
0.704793
0.731943
0.76168
0.794079
0.829226
0.867207
0.908117
0.952055
0.999125
1.04943
1.1031
1.16022
1.22093
1.28535
1.35358
1.42575
1.50196
1.5823
1.66688
1.75574
1.84893
1.94644
2.04822
2.15414
2.264
2.37746
2.49403
2.61306
2.73362
2.8545
2.97416
3.09064
3.2016
3.30433
3.39591
3.47339
3.5341
3.57584
3.5971
0.566986
0.569158
0.573508
0.580049
0.5888
0.599788
0.613044
0.628607
0.646522
0.666841
0.689622
0.714928
0.742833
0.773414
0.806756
0.842949
0.882093
0.924291
0.969656
1.0183
1.07036
1.12595
1.18522
1.2483
1.31534
1.38649
1.46189
1.54169
1.62604
1.71506
1.80889
1.90762
2.01132
2.12002
2.23368
2.35219
2.47531
2.60264
2.73362
2.86736
3.00267
3.1379
3.27089
3.39886
3.51849
3.626
3.7175
3.78948
3.83909
3.86439
0.572904
0.575125
0.579573
0.586262
0.595214
0.606454
0.620018
0.635946
0.654287
0.675096
0.698435
0.724373
0.752988
0.784365
0.818594
0.855777
0.896019
0.939438
0.986156
1.03631
1.09003
1.14747
1.20878
1.27414
1.34371
1.41767
1.4962
1.5795
1.66776
1.76117
1.85991
1.96415
2.07407
2.18977
2.31133
2.43876
2.57196
2.71069
2.8545
3.00267
3.15408
3.30709
3.45936
3.60771
3.74802
3.87535
3.98443
4.07052
4.12996
4.16027
0.578331
0.580597
0.585136
0.591962
0.601098
0.612572
0.626421
0.642687
0.661423
0.682685
0.706542
0.733067
0.762342
0.794458
0.829514
0.867618
0.908886
0.953445
1.00143
1.05299
1.10827
1.16745
1.2307
1.29821
1.37017
1.44681
1.52835
1.61501
1.70703
1.80468
1.90821
2.01787
2.13391
2.25658
2.38608
2.52257
2.66613
2.81673
2.97416
3.1379
3.30709
3.48023
3.65499
3.82786
3.99382
4.14625
4.27765
4.38155
4.45326
4.48981
0.583236
0.585544
0.590165
0.597117
0.606421
0.618108
0.632216
0.64879
0.667886
0.689563
0.713892
0.740953
0.770831
0.803625
0.839438
0.878387
0.920597
0.966205
1.01536
1.06821
1.12494
1.18573
1.25077
1.32028
1.39449
1.47364
1.55798
1.64781
1.74341
1.84509
1.95319
2.06806
2.19004
2.31952
2.45684
2.60235
2.75635
2.91908
3.09064
3.27089
3.45936
3.65499
3.85578
4.05822
4.25646
4.44149
4.60171
4.72814
4.81507
4.85925
0.587593
0.589937
0.594633
0.601696
0.61115
0.623028
0.637368
0.654218
0.673635
0.695684
0.720437
0.747978
0.778398
0.811799
0.848294
0.888003
0.931062
0.977615
1.02782
1.08185
1.13989
1.20214
1.26881
1.34015
1.4164
1.49785
1.58478
1.67753
1.77643
1.88187
1.99426
2.11402
2.24163
2.37759
2.52243
2.6767
2.84096
3.01576
3.2016
3.39886
3.60771
3.82786
4.05822
4.2961
4.53565
4.76491
4.96291
5.1176
5.223
5.27626
0.591375
0.593752
0.598512
0.605672
0.615258
0.627302
0.641845
0.658936
0.678635
0.701008
0.726132
0.754094
0.784989
0.818924
0.856015
0.896393
0.940198
0.987583
1.03872
1.09378
1.15298
1.21652
1.28464
1.3576
1.43568
1.51918
1.60843
1.7038
1.80568
1.91452
2.0308
2.15503
2.28782
2.42978
2.58163
2.74414
2.91814
3.10455
3.30433
3.51849
3.74802
3.99382
4.25646
4.53565
4.82847
5.12298
5.37081
5.55976
5.68647
5.74994
0.594562
0.596966
0.60178
0.609023
0.61872
0.630905
0.64562
0.662916
0.682853
0.705502
0.73094
0.759259
0.790557
0.824945
0.862544
0.903491
0.947931
0.996026
1.04795
1.1039
1.16409
1.22874
1.2981
1.37245
1.4521
1.53737
1.62863
1.72627
1.83075
1.94256
2.06225
2.19043
2.32779
2.4751
2.63324
2.80319
2.98607
3.18316
3.39591
3.626
3.87535
4.14625
4.44149
4.76491
5.12298
5.53114
5.84099
6.06759
6.21658
6.29053
0.597134
0.59956
0.604419
0.611729
0.621516
0.633815
0.648669
0.666131
0.686262
0.709134
0.734828
0.763436
0.795062
0.829818
0.867831
0.90924
0.954197
1.00287
1.05544
1.11212
1.17311
1.23867
1.30905
1.38455
1.46548
1.55221
1.64512
1.74465
1.85129
1.96557
2.0881
2.21959
2.3608
2.51263
2.67611
2.85243
3.04295
3.24931
3.47339
3.7175
3.98443
4.27765
4.60171
4.96291
5.37081
5.84099
6.19787
6.45646
6.62517
6.70852
0.599076
0.601519
0.606412
0.613773
0.623629
0.636014
0.650974
0.668561
0.688839
0.71188
0.737768
0.766597
0.79847
0.833506
0.871833
0.913594
0.958944
1.00806
1.06112
1.11835
1.17996
1.24621
1.31737
1.39374
1.47567
1.56351
1.6577
1.75868
1.86697
1.98316
2.10791
2.24196
2.38618
2.54156
2.70924
2.89059
3.08718
3.30092
3.5341
3.78948
4.07052
4.38155
4.72814
5.1176
5.55976
6.06759
6.45646
6.73865
6.92257
7.01333
0.600378
0.602832
0.607748
0.615143
0.625044
0.637488
0.652519
0.67019
0.690567
0.713722
0.73974
0.768717
0.800757
0.835981
0.87452
0.916517
0.962133
1.01154
1.06494
1.12254
1.18456
1.25128
1.32296
1.39993
1.48253
1.57113
1.66618
1.76815
1.87757
1.99506
2.12132
2.25713
2.40341
2.56123
2.73181
2.91664
3.11745
3.33633
3.57584
3.83909
4.12996
4.45326
4.81507
5.223
5.68647
6.21658
6.62517
6.92257
7.1166
7.21235
0.60103
0.60349
0.608417
0.615829
0.625754
0.638227
0.653293
0.671007
0.691433
0.714645
0.740729
0.76978
0.801904
0.837223
0.875867
0.917984
0.963733
1.01329
1.06686
1.12464
1.18688
1.25383
1.32578
1.40304
1.48598
1.57497
1.67045
1.77291
1.88291
2.00106
2.12809
2.26479
2.41212
2.57118
2.74324
2.92985
3.13281
3.35434
3.5971
3.86439
4.16027
4.48981
4.85925
5.27626
5.74994
6.29053
6.70852
7.01333
7.21235
7.31062
)
;

boundaryField
{
    walls
    {
        type            zeroGradient;
    }
    frontAndBack
    {
        type            empty;
    }
}


// ************************************************************************* //
