/*--------------------------------*- C++ -*----------------------------------*\
| =========                 |                                                 |
| \\      /  F ield         | OpenFOAM: The Open Source CFD Toolbox           |
|  \\    /   O peration     | Version:  2406                                  |
|   \\  /    A nd           | Website:  www.openfoam.com                      |
|    \\/     M anipulation  |                                                 |
\*---------------------------------------------------------------------------*/
FoamFile
{
    version     2.0;
    format      ascii;
    arch        "LSB;label=32;scalar=64";
    class       volVectorField;
    location    "1.6";
    object      flux;
}
// * * * * * * * * * * * * * * * * * * * * * * * * * * * * * * * * * * * * * //

dimensions      [0 1 -1 1 0 0 0];

internalField   nonuniform List<vector> 
2500
(
(0.000680579 0.000680579 0)
(0.00203945 0.000685733 0)
(0.00339562 0.000696219 0)
(0.00474876 0.000711935 0)
(0.00609569 0.000732917 0)
(0.00743444 0.0007592 0)
(0.00876288 0.000790821 0)
(0.0100787 0.000827823 0)
(0.0113793 0.000870247 0)
(0.012662 0.000918138 0)
(0.0139236 0.000971538 0)
(0.0151609 0.00103049 0)
(0.0163701 0.00109501 0)
(0.0175473 0.00116514 0)
(0.0186882 0.00124087 0)
(0.0197883 0.00132221 0)
(0.0208425 0.00140912 0)
(0.0218458 0.00150155 0)
(0.0227925 0.00159942 0)
(0.0236771 0.00170263 0)
(0.0244935 0.00181102 0)
(0.0252357 0.00192442 0)
(0.0258974 0.0020426 0)
(0.0264725 0.00216529 0)
(0.0269546 0.00229216 0)
(0.0273377 0.00242284 0)
(0.0276158 0.00255692 0)
(0.0277832 0.0026939 0)
(0.0278346 0.00283325 0)
(0.027765 0.00297439 0)
(0.0275703 0.00311666 0)
(0.0272467 0.00325937 0)
(0.0267914 0.00340177 0)
(0.0262023 0.00354306 0)
(0.0254782 0.00368243 0)
(0.0246192 0.00381901 0)
(0.0236261 0.00395191 0)
(0.022501 0.00408023 0)
(0.0212473 0.00420306 0)
(0.0198695 0.00431951 0)
(0.0183733 0.0044287 0)
(0.0167655 0.00452976 0)
(0.0150543 0.0046219 0)
(0.0132489 0.00470436 0)
(0.0113593 0.00477644 0)
(0.00939689 0.00483755 0)
(0.00737345 0.00488719 0)
(0.0053016 0.00492492 0)
(0.0031946 0.00495024 0)
(0.00106701 0.00496183 0)
(0.000685733 0.00203945 0)
(0.00205509 0.00205509 0)
(0.00342182 0.00208651 0)
(0.00478546 0.00213365 0)
(0.00614295 0.0021966 0)
(0.00749234 0.00227546 0)
(0.00883151 0.00237035 0)
(0.0101581 0.00248139 0)
(0.0114697 0.0026087 0)
(0.0127633 0.00275244 0)
(0.014036 0.00291271 0)
(0.0152844 0.00308964 0)
(0.0165047 0.00328333 0)
(0.0176932 0.00349384 0)
(0.0188453 0.0037212 0)
(0.0199565 0.00396539 0)
(0.0210219 0.00422633 0)
(0.0220361 0.00450387 0)
(0.0229936 0.00479778 0)
(0.0238887 0.00510773 0)
(0.0247153 0.00543329 0)
(0.0254673 0.00577391 0)
(0.0261383 0.00612892 0)
(0.0267221 0.0064975 0)
(0.0272122 0.0068787 0)
(0.0276025 0.00727139 0)
(0.0278869 0.0076743 0)
(0.0280595 0.00808599 0)
(0.028115 0.00850485 0)
(0.0280484 0.00892911 0)
(0.0278553 0.00935682 0)
(0.0275318 0.00978589 0)
(0.0270751 0.0102141 0)
(0.026483 0.010639 0)
(0.0257542 0.0110581 0)
(0.0248886 0.0114689 0)
(0.0238873 0.0118687 0)
(0.0227522 0.0122547 0)
(0.0214866 0.0126243 0)
(0.0200951 0.0129747 0)
(0.0185835 0.0133032 0)
(0.0169587 0.0136073 0)
(0.0152289 0.0138846 0)
(0.0134034 0.0141328 0)
(0.0114925 0.0143497 0)
(0.00950764 0.0145336 0)
(0.00746082 0.014683 0)
(0.00536465 0.0147966 0)
(0.0032315 0.0148735 0)
(0.0010786 0.0149107 0)
(0.000696219 0.00339562 0)
(0.00208651 0.00342182 0)
(0.00347418 0.00347418 0)
(0.00485885 0.00355281 0)
(0.0062375 0.00365783 0)
(0.00760819 0.0037894 0)
(0.00896881 0.00394772 0)
(0.0103171 0.004133 0)
(0.0116504 0.00434546 0)
(0.012966 0.00458533 0)
(0.0142608 0.00485283 0)
(0.0155315 0.00514817 0)
(0.0167743 0.0054715 0)
(0.0179852 0.00582295 0)
(0.0191598 0.00620258 0)
(0.0202934 0.00661036 0)
(0.021381 0.00704617 0)
(0.0224172 0.00750978 0)
(0.0233964 0.00800079 0)
(0.0243126 0.00851868 0)
(0.0251597 0.00906274 0)
(0.0259313 0.00963207 0)
(0.026621 0.0102255 0)
(0.0272223 0.0108418 0)
(0.0277285 0.0114793 0)
(0.0281333 0.0121361 0)
(0.0284304 0.0128101 0)
(0.0286137 0.013499 0)
(0.0286777 0.0142 0)
(0.028617 0.0149101 0)
(0.0284271 0.0156262 0)
(0.028104 0.0163446 0)
(0.0276445 0.0170618 0)
(0.0270464 0.0177736 0)
(0.0263082 0.0184758 0)
(0.0254297 0.0191642 0)
(0.0244119 0.0198342 0)
(0.0232566 0.0204813 0)
(0.0219673 0.0211009 0)
(0.0205484 0.0216885 0)
(0.0190059 0.0222395 0)
(0.0173469 0.0227496 0)
(0.0155797 0.0232147 0)
(0.013714 0.023631 0)
(0.0117602 0.023995 0)
(0.00973018 0.0243035 0)
(0.00763645 0.0245539 0)
(0.0054921 0.0247442 0)
(0.00330863 0.0248728 0)
(0.00110417 0.0249371 0)
(0.000711935 0.00474876 0)
(0.00213365 0.00478546 0)
(0.00355281 0.00485885 0)
(0.0049691 0.0049691 0)
(0.00637955 0.00511638 0)
(0.00778224 0.00530092 0)
(0.00917511 0.00552299 0)
(0.0105559 0.00578289 0)
(0.011922 0.00608095 0)
(0.0132707 0.00641749 0)
(0.0145988 0.00679285 0)
(0.015903 0.00720732 0)
(0.0171795 0.00766115 0)
(0.0184242 0.00815453 0)
(0.0196327 0.00868755 0)
(0.0208001 0.00926021 0)
(0.0219213 0.00987235 0)
(0.0229907 0.0105237 0)
(0.0240025 0.0112136 0)
(0.0249506 0.0119415 0)
(0.0258287 0.0127064 0)
(0.0266301 0.0135069 0)
(0.027348 0.0143417 0)
(0.0279758 0.0152087 0)
(0.0285065 0.0161057 0)
(0.0289333 0.0170303 0)
(0.0292498 0.0179793 0)
(0.0294494 0.0189495 0)
(0.0295262 0.0199371 0)
(0.0294747 0.0209378 0)
(0.0292898 0.0219472 0)
(0.0289674 0.0229602 0)
(0.028504 0.0239717 0)
(0.027897 0.0249759 0)
(0.0271448 0.0259669 0)
(0.0262471 0.0269386 0)
(0.0252044 0.0278846 0)
(0.0240189 0.0287985 0)
(0.0226937 0.0296738 0)
(0.0212337 0.0305039 0)
(0.0196446 0.0312826 0)
(0.017934 0.0320037 0)
(0.0161103 0.0326612 0)
(0.0141837 0.0332498 0)
(0.012165 0.0337645 0)
(0.0100666 0.0342007 0)
(0.00790157 0.0345547 0)
(0.00568355 0.0348233 0)
(0.00342434 0.035004 0)
(0.00114283 0.0350947 0)
(0.000732917 0.00609569 0)
(0.0021966 0.00614295 0)
(0.00365783 0.0062375 0)
(0.00511638 0.00637955 0)
(0.00656932 0.00656932 0)
(0.0080148 0.00680712 0)
(0.00945078 0.00709332 0)
(0.010875 0.00742831 0)
(0.012285 0.00781254 0)
(0.0136779 0.00824644 0)
(0.0150507 0.00873046 0)
(0.0163998 0.00926502 0)
(0.0177215 0.00985045 0)
(0.0190116 0.010487 0)
(0.0202655 0.0111749 0)
(0.0214782 0.0119142 0)
(0.0226444 0.0127046 0)
(0.0237585 0.0135458 0)
(0.0248142 0.0144371 0)
(0.0258053 0.0153778 0)
(0.0267251 0.0163666 0)
(0.0275666 0.0174018 0)
(0.0283228 0.0184816 0)
(0.0289864 0.0196035 0)
(0.0295501 0.0207647 0)
(0.0300069 0.021962 0)
(0.0303496 0.0231914 0)
(0.0305715 0.0244486 0)
(0.030666 0.0257289 0)
(0.0306271 0.0270267 0)
(0.0304495 0.0283363 0)
(0.0301285 0.0296511 0)
(0.0296601 0.0309643 0)
(0.0290416 0.0322686 0)
(0.0282709 0.0335563 0)
(0.0273475 0.0348193 0)
(0.0262718 0.0360494 0)
(0.0250458 0.0372381 0)
(0.0236727 0.0383769 0)
(0.0221573 0.0394573 0)
(0.0205057 0.0404711 0)
(0.0187256 0.04141 0)
(0.0168259 0.0422665 0)
(0.0148172 0.0430334 0)
(0.0127111 0.0437039 0)
(0.0105204 0.0442723 0)
(0.00825901 0.0447335 0)
(0.00594138 0.0450833 0)
(0.00358006 0.0453184 0)
(0.00119489 0.0454365 0)
(0.0007592 0.00743444 0)
(0.00227546 0.00749234 0)
(0.0037894 0.00760819 0)
(0.00530092 0.00778224 0)
(0.00680712 0.0080148 0)
(0.00830624 0.00830624 0)
(0.0097963 0.00865704 0)
(0.0112751 0.0090677 0)
(0.0127401 0.0095388 0)
(0.0141886 0.0100709 0)
(0.0156174 0.0106646 0)
(0.017023 0.0113204 0)
(0.0184015 0.0120388 0)
(0.0197487 0.0128202 0)
(0.0210598 0.0136649 0)
(0.0223297 0.0145728 0)
(0.0235529 0.0155439 0)
(0.0247233 0.0165778 0)
(0.0258346 0.0176737 0)
(0.02688 0.0188307 0)
(0.0278526 0.0200472 0)
(0.0287451 0.0213215 0)
(0.0295497 0.0226512 0)
(0.0302589 0.0240333 0)
(0.030865 0.0254646 0)
(0.03136 0.0269408 0)
(0.0317364 0.0284575 0)
(0.0319869 0.0300092 0)
(0.0321043 0.0315901 0)
(0.032082 0.0331934 0)
(0.0319142 0.034812 0)
(0.0315955 0.0364379 0)
(0.0311215 0.0380626 0)
(0.030489 0.039677 0)
(0.0296955 0.0412715 0)
(0.0287401 0.0428363 0)
(0.0276232 0.0443609 0)
(0.0263464 0.0458348 0)
(0.024913 0.0472474 0)
(0.0233279 0.0485882 0)
(0.0215973 0.0498467 0)
(0.0197294 0.0510127 0)
(0.0177337 0.0520766 0)
(0.015621 0.0530293 0)
(0.013404 0.0538627 0)
(0.0110962 0.0545692 0)
(0.00871256 0.0551425 0)
(0.00626846 0.0555772 0)
(0.00377756 0.0558694 0)
(0.00126093 0.0560162 0)
(0.000790821 0.00876288 0)
(0.00237035 0.00883151 0)
(0.00394772 0.00896881 0)
(0.00552299 0.00917511 0)
(0.00709332 0.00945078 0)
(0.00865704 0.0097963 0)
(0.0102122 0.0102122 0)
(0.0117568 0.0106993 0)
(0.0132882 0.011258 0)
(0.0148037 0.0118894 0)
(0.0163002 0.0125939 0)
(0.017774 0.0133724 0)
(0.0192213 0.0142254 0)
(0.0206376 0.0151535 0)
(0.022018 0.0161571 0)
(0.0233572 0.0172363 0)
(0.0246494 0.018391 0)
(0.0258883 0.0196208 0)
(0.0270671 0.0209251 0)
(0.0281789 0.0223025 0)
(0.0292159 0.0237517 0)
(0.0301705 0.0252703 0)
(0.0310346 0.0268557 0)
(0.0317998 0.0285046 0)
(0.0324577 0.0302129 0)
(0.0329999 0.031976 0)
(0.033418 0.0337882 0)
(0.0337041 0.0356435 0)
(0.0338502 0.0375346 0)
(0.033849 0.0394538 0)
(0.033694 0.0413923 0)
(0.033379 0.0433407 0)
(0.0328992 0.0452888 0)
(0.0322505 0.0472256 0)
(0.0314302 0.0491397 0)
(0.0304368 0.0510191 0)
(0.0292703 0.0528512 0)
(0.0279323 0.0546233 0)
(0.0264261 0.0563226 0)
(0.0247565 0.0579362 0)
(0.0229301 0.0594514 0)
(0.0209555 0.0608558 0)
(0.0188426 0.0621378 0)
(0.0166033 0.0632861 0)
(0.0142509 0.0642909 0)
(0.0118002 0.0651428 0)
(0.00926705 0.0658343 0)
(0.00666834 0.0663587 0)
(0.004019 0.0667111 0)
(0.00134165 0.0668882 0)
(0.000827823 0.0100787 0)
(0.00248139 0.0101581 0)
(0.004133 0.0103171 0)
(0.00578289 0.0105559 0)
(0.00742831 0.010875 0)
(0.0090677 0.0112751 0)
(0.0106993 0.0117568 0)
(0.0123209 0.0123209 0)
(0.0139302 0.0129683 0)
(0.0155244 0.0136999 0)
(0.0171004 0.0145166 0)
(0.0186545 0.0154193 0)
(0.0201827 0.0164088 0)
(0.0216804 0.0174858 0)
(0.0231426 0.0186508 0)
(0.0245636 0.0199042 0)
(0.0259374 0.0212458 0)
(0.0272573 0.0226754 0)
(0.0285163 0.0241923 0)
(0.0297066 0.0257952 0)
(0.0308204 0.0274824 0)
(0.0318491 0.0292515 0)
(0.032784 0.0310995 0)
(0.0336161 0.0330227 0)
(0.0343363 0.0350164 0)
(0.0349353 0.0370754 0)
(0.035404 0.0391932 0)
(0.0357333 0.0413626 0)
(0.0359146 0.0435755 0)
(0.0359397 0.0458227 0)
(0.0358011 0.0480942 0)
(0.0354919 0.0503787 0)
(0.0350064 0.0526644 0)
(0.0343399 0.0549385 0)
(0.033489 0.0571873 0)
(0.0324516 0.0593968 0)
(0.0312274 0.061552 0)
(0.0298178 0.063638 0)
(0.0282259 0.0656394 0)
(0.0264566 0.0675409 0)
(0.024517 0.0693274 0)
(0.0224158 0.0709841 0)
(0.020164 0.0724969 0)
(0.0177741 0.0738527 0)
(0.0152607 0.0750393 0)
(0.0126396 0.0760457 0)
(0.00992841 0.0768627 0)
(0.00714534 0.0774825 0)
(0.00430703 0.0778991 0)
(0.00143795 0.0781083 0)
(0.000870247 0.0113793 0)
(0.0026087 0.0114697 0)
(0.00434546 0.0116504 0)
(0.00608095 0.011922 0)
(0.00781254 0.012285 0)
(0.0095388 0.0127401 0)
(0.011258 0.0132882 0)
(0.0129683 0.0139302 0)
(0.0146672 0.0146672 0)
(0.016352 0.0155003 0)
(0.0180196 0.0164306 0)
(0.0196663 0.0174592 0)
(0.0212878 0.0185872 0)
(0.0228796 0.0198155 0)
(0.0244364 0.0211447 0)
(0.0259522 0.0225754 0)
(0.0274207 0.0241077 0)
(0.0288348 0.0257414 0)
(0.0301869 0.0274757 0)
(0.031469 0.0293096 0)
(0.0326723 0.0312411 0)
(0.0337877 0.0332677 0)
(0.0348058 0.0353861 0)
(0.0357167 0.0375921 0)
(0.0365103 0.0398808 0)
(0.0371766 0.042246 0)
(0.0377053 0.0446807 0)
(0.0380864 0.0471767 0)
(0.0383103 0.0497247 0)
(0.0383677 0.0523141 0)
(0.0382499 0.0549335 0)
(0.0379493 0.0575701 0)
(0.037459 0.0602101 0)
(0.0367734 0.0628387 0)
(0.0358885 0.0654402 0)
(0.0348015 0.0679979 0)
(0.0335116 0.0704948 0)
(0.0320197 0.0729131 0)
(0.030329 0.0752348 0)
(0.0284444 0.0774422 0)
(0.0263733 0.0795172 0)
(0.024125 0.0814426 0)
(0.0217113 0.0832017 0)
(0.0191457 0.0847788 0)
(0.0164439 0.0861597 0)
(0.0136236 0.0873314 0)
(0.0107038 0.0882828 0)
(0.00770467 0.0890047 0)
(0.00464481 0.0894899 0)
(0.00155089 0.0897337 0)
(0.000918138 0.012662 0)
(0.00275244 0.0127633 0)
(0.00458533 0.012966 0)
(0.00641749 0.0132707 0)
(0.00824644 0.0136779 0)
(0.0100709 0.0141886 0)
(0.0118894 0.0148037 0)
(0.0136999 0.0155244 0)
(0.0155003 0.016352 0)
(0.0172878 0.0172878 0)
(0.0190594 0.0183332 0)
(0.0208112 0.0194896 0)
(0.022539 0.0207582 0)
(0.0242379 0.0221402 0)
(0.0259025 0.0236367 0)
(0.0275266 0.0252482 0)
(0.0291034 0.0269751 0)
(0.0306254 0.0288175 0)
(0.0320845 0.0307747 0)
(0.033472 0.0328455 0)
(0.0347785 0.0350282 0)
(0.0359941 0.03732 0)
(0.0371085 0.0397174 0)
(0.0381109 0.0422161 0)
(0.0389902 0.0448103 0)
(0.0397352 0.0474936 0)
(0.0403346 0.0502581 0)
(0.0407772 0.0530945 0)
(0.041052 0.0559926 0)
(0.0411486 0.0589405 0)
(0.0410571 0.0619251 0)
(0.0407686 0.064932 0)
(0.040275 0.0679454 0)
(0.0395699 0.0709485 0)
(0.0386481 0.0739231 0)
(0.0375062 0.0768502 0)
(0.0361426 0.0797101 0)
(0.0345579 0.0824822 0)
(0.032755 0.0851457 0)
(0.0307389 0.0876797 0)
(0.0285174 0.0900635 0)
(0.0261003 0.0922768 0)
(0.0235003 0.0943002 0)
(0.0207322 0.0961153 0)
(0.0178133 0.0977052 0)
(0.0147627 0.0990548 0)
(0.0116016 0.100151 0)
(0.00835247 0.100983 0)
(0.00503607 0.101542 0)
(0.00168172 0.101823 0)
(0.000971538 0.0139236 0)
(0.00291271 0.014036 0)
(0.00485283 0.0142608 0)
(0.00679285 0.0145988 0)
(0.00873046 0.0150507 0)
(0.0106646 0.0156174 0)
(0.0125939 0.0163002 0)
(0.0145166 0.0171004 0)
(0.0164306 0.0180196 0)
(0.0183332 0.0190594 0)
(0.0202214 0.0202214 0)
(0.0220912 0.0215073 0)
(0.0239385 0.0229187 0)
(0.0257581 0.0244571 0)
(0.0275443 0.0261239 0)
(0.0292907 0.0279198 0)
(0.03099 0.0298458 0)
(0.0326343 0.0319018 0)
(0.0342149 0.0340875 0)
(0.0357224 0.0364018 0)
(0.0371467 0.0388431 0)
(0.0384769 0.0414085 0)
(0.0397019 0.0440945 0)
(0.0408096 0.0468963 0)
(0.0417879 0.0498079 0)
(0.0426243 0.0528223 0)
(0.0433062 0.0559307 0)
(0.043821 0.0591233 0)
(0.0441563 0.0623883 0)
(0.0443002 0.0657128 0)
(0.0442414 0.069082 0)
(0.0439696 0.0724799 0)
(0.0434755 0.0758885 0)
(0.0427511 0.0792887 0)
(0.0417902 0.08266 0)
(0.0405884 0.0859807 0)
(0.0391435 0.0892281 0)
(0.0374553 0.0923787 0)
(0.0355265 0.0954085 0)
(0.0333623 0.0982935 0)
(0.0309704 0.101009 0)
(0.0283617 0.103533 0)
(0.0255497 0.105842 0)
(0.0225506 0.107914 0)
(0.0193834 0.10973 0)
(0.0160694 0.111272 0)
(0.0126319 0.112525 0)
(0.00909599 0.113477 0)
(0.00548522 0.114117 0)
(0.00183191 0.114438 0)
(0.00103049 0.0151609 0)
(0.00308964 0.0152844 0)
(0.00514817 0.0155315 0)
(0.00720732 0.015903 0)
(0.00926502 0.0163998 0)
(0.0113204 0.017023 0)
(0.0133724 0.017774 0)
(0.0154193 0.0186545 0)
(0.0174592 0.0196663 0)
(0.0194896 0.0208112 0)
(0.0215073 0.0220912 0)
(0.0235085 0.0235085 0)
(0.0254888 0.0250649 0)
(0.0274431 0.0267624 0)
(0.0293652 0.0286026 0)
(0.0312485 0.0305868 0)
(0.0330853 0.0327161 0)
(0.0348671 0.0349909 0)
(0.0365846 0.0374111 0)
(0.0382276 0.0399759 0)
(0.0397851 0.0426837 0)
(0.0412455 0.0455318 0)
(0.0425963 0.0485165 0)
(0.0438244 0.0516329 0)
(0.0449163 0.0548747 0)
(0.045858 0.0582343 0)
(0.0466356 0.0617025 0)
(0.0472348 0.0652682 0)
(0.0476416 0.068919 0)
(0.0478423 0.0726402 0)
(0.0478242 0.0764158 0)
(0.047575 0.0802276 0)
(0.0470839 0.0840558 0)
(0.0463415 0.0878788 0)
(0.0453401 0.0916735 0)
(0.0440743 0.0954152 0)
(0.0425406 0.0990781 0)
(0.0407384 0.102635 0)
(0.0386698 0.10606 0)
(0.0363399 0.109323 0)
(0.033757 0.112399 0)
(0.0309325 0.115258 0)
(0.027881 0.117876 0)
(0.0246205 0.120228 0)
(0.0211716 0.12229 0)
(0.0175581 0.124042 0)
(0.0138062 0.125466 0)
(0.00994365 0.126548 0)
(0.00599736 0.127276 0)
(0.00200319 0.127641 0)
(0.00109501 0.0163701 0)
(0.00328333 0.0165047 0)
(0.0054715 0.0167743 0)
(0.00766115 0.0171795 0)
(0.00985045 0.0177215 0)
(0.0120388 0.0184015 0)
(0.0142254 0.0192213 0)
(0.0164088 0.0201827 0)
(0.0185872 0.0212878 0)
(0.0207582 0.022539 0)
(0.0229187 0.0239385 0)
(0.0250649 0.0254888 0)
(0.0271924 0.0271924 0)
(0.0292957 0.0290515 0)
(0.0313687 0.0310683 0)
(0.0334042 0.0332445 0)
(0.0353941 0.0355816 0)
(0.0373293 0.0380805 0)
(0.0392 0.0407414 0)
(0.040995 0.0435639 0)
(0.0427025 0.0465465 0)
(0.0443097 0.0496867 0)
(0.0458029 0.0529809 0)
(0.0471678 0.0564242 0)
(0.0483894 0.06001 0)
(0.0494521 0.0637302 0)
(0.0503401 0.067575 0)
(0.0510374 0.0715327 0)
(0.0515283 0.0755896 0)
(0.051797 0.0797299 0)
(0.0518288 0.0839358 0)
(0.0516096 0.0881873 0)
(0.0511267 0.0924623 0)
(0.0503688 0.0967367 0)
(0.0493266 0.100985 0)
(0.047993 0.105178 0)
(0.0463637 0.109288 0)
(0.044437 0.113284 0)
(0.0422145 0.117135 0)
(0.0397011 0.120809 0)
(0.0369053 0.124275 0)
(0.0338394 0.1275 0)
(0.0305192 0.130455 0)
(0.0269643 0.133112 0)
(0.0231977 0.135443 0)
(0.0192458 0.137425 0)
(0.0151378 0.139037 0)
(0.0109052 0.140261 0)
(0.00657846 0.141085 0)
(0.00219756 0.141499 0)
(0.00116514 0.0175473 0)
(0.00349384 0.0176932 0)
(0.00582295 0.0179852 0)
(0.00815453 0.0184242 0)
(0.010487 0.0190116 0)
(0.0128202 0.0197487 0)
(0.0151535 0.0206376 0)
(0.0174858 0.0216804 0)
(0.0198155 0.0228796 0)
(0.0221402 0.0242379 0)
(0.0244571 0.0257581 0)
(0.0267624 0.0274431 0)
(0.0290515 0.0292957 0)
(0.031319 0.031319 0)
(0.0335582 0.0335153 0)
(0.0357618 0.0358872 0)
(0.0379213 0.0384366 0)
(0.0400269 0.0411649 0)
(0.0420679 0.0440727 0)
(0.0440326 0.0471602 0)
(0.0459079 0.0504261 0)
(0.04768 0.0538683 0)
(0.0493337 0.0574834 0)
(0.0508534 0.0612664 0)
(0.0522223 0.0652108 0)
(0.0534231 0.069308 0)
(0.0544382 0.0735478 0)
(0.0552494 0.0779177 0)
(0.0558387 0.0824029 0)
(0.0561885 0.0869866 0)
(0.0562815 0.091649 0)
(0.0561014 0.0963684 0)
(0.0556333 0.10112 0)
(0.0548638 0.105878 0)
(0.0537816 0.110613 0)
(0.052378 0.115293 0)
(0.0506468 0.119886 0)
(0.0485855 0.124357 0)
(0.0461947 0.128671 0)
(0.0434792 0.132792 0)
(0.0404477 0.136682 0)
(0.0371132 0.140307 0)
(0.0334928 0.143632 0)
(0.0296081 0.146623 0)
(0.0254846 0.149249 0)
(0.0211518 0.151484 0)
(0.0166425 0.153302 0)
(0.0119921 0.154684 0)
(0.00723541 0.155614 0)
(0.00241732 0.156082 0)
(0.00124087 0.0186882 0)
(0.0037212 0.0188453 0)
(0.00620258 0.0191598 0)
(0.00868755 0.0196327 0)
(0.0111749 0.0202655 0)
(0.0136649 0.0210598 0)
(0.0161571 0.022018 0)
(0.0186508 0.0231426 0)
(0.0211447 0.0244364 0)
(0.0236367 0.0259025 0)
(0.0261239 0.0275443 0)
(0.0286026 0.0293652 0)
(0.0310683 0.0313687 0)
(0.0335153 0.0335582 0)
(0.035937 0.035937 0)
(0.0383255 0.038508 0)
(0.0406717 0.0412739 0)
(0.0429655 0.0442367 0)
(0.0451953 0.0473977 0)
(0.0473484 0.0507575 0)
(0.0494107 0.0543154 0)
(0.0513671 0.0580698 0)
(0.053201 0.0620175 0)
(0.0548951 0.0661536 0)
(0.0564309 0.0704718 0)
(0.0577891 0.0749633 0)
(0.0589498 0.0796175 0)
(0.0598926 0.0844212 0)
(0.0605972 0.0893588 0)
(0.0610431 0.094412 0)
(0.0612107 0.0995598 0)
(0.061081 0.104778 0)
(0.0606364 0.11004 0)
(0.0598611 0.115317 0)
(0.0587413 0.120575 0)
(0.0572662 0.125781 0)
(0.0554279 0.130896 0)
(0.0532222 0.135883 0)
(0.050649 0.140702 0)
(0.0477123 0.14531 0)
(0.044421 0.149666 0)
(0.0407889 0.153729 0)
(0.0368347 0.15746 0)
(0.0325818 0.160819 0)
(0.0280588 0.163771 0)
(0.0232986 0.166285 0)
(0.018338 0.168332 0)
(0.0132173 0.169888 0)
(0.0079762 0.170936 0)
(0.00266516 0.171462 0)
(0.00132221 0.0197883 0)
(0.00396539 0.0199565 0)
(0.00661036 0.0202934 0)
(0.00926021 0.0208001 0)
(0.0119142 0.0214782 0)
(0.0145728 0.0223297 0)
(0.0172363 0.0233572 0)
(0.0199042 0.0245636 0)
(0.0225754 0.0259522 0)
(0.0252482 0.0275266 0)
(0.0279198 0.0292907 0)
(0.0305868 0.0312485 0)
(0.0332445 0.0334042 0)
(0.0358872 0.0357618 0)
(0.038508 0.0383255 0)
(0.0410988 0.0410988 0)
(0.0436499 0.0440851 0)
(0.0461507 0.0472873 0)
(0.0485887 0.0507075 0)
(0.0509503 0.0543468 0)
(0.0532203 0.0582054 0)
(0.055382 0.062282 0)
(0.0574176 0.0665741 0)
(0.0593077 0.0710772 0)
(0.0610319 0.075785 0)
(0.0625688 0.0806889 0)
(0.0638961 0.0857779 0)
(0.0649907 0.0910385 0)
(0.0658296 0.0964541 0)
(0.0663895 0.102005 0)
(0.0666476 0.107669 0)
(0.0665819 0.11342 0)
(0.0661718 0.119229 0)
(0.0653986 0.125063 0)
(0.0642456 0.130886 0)
(0.0626993 0.13666 0)
(0.0607497 0.142344 0)
(0.0583907 0.147893 0)
(0.0556208 0.153261 0)
(0.0524434 0.158403 0)
(0.0488673 0.163271 0)
(0.0449069 0.167817 0)
(0.0405825 0.171995 0)
(0.0359199 0.175761 0)
(0.0309507 0.179075 0)
(0.025712 0.181898 0)
(0.0202453 0.184198 0)
(0.0145961 0.185948 0)
(0.00881008 0.187127 0)
(0.00294419 0.18772 0)
(0.00140912 0.0208425 0)
(0.00422633 0.0210219 0)
(0.00704617 0.021381 0)
(0.00987235 0.0219213 0)
(0.0127046 0.0226444 0)
(0.0155439 0.0235529 0)
(0.018391 0.0246494 0)
(0.0212458 0.0259374 0)
(0.0241077 0.0274207 0)
(0.0269751 0.0291034 0)
(0.0298458 0.03099 0)
(0.0327161 0.0330853 0)
(0.0355816 0.0353941 0)
(0.0384366 0.0379213 0)
(0.0412739 0.0406717 0)
(0.0440851 0.0436499 0)
(0.0468603 0.0468603 0)
(0.0495878 0.0503064 0)
(0.0522547 0.0539912 0)
(0.0548462 0.0579169 0)
(0.0573459 0.0620845 0)
(0.0597358 0.0664934 0)
(0.0619963 0.0711418 0)
(0.0641061 0.0760259 0)
(0.0660426 0.0811395 0)
(0.067782 0.0864745 0)
(0.0692993 0.0920197 0)
(0.0705687 0.0977612 0)
(0.0715639 0.103682 0)
(0.0722583 0.109761 0)
(0.0726257 0.115975 0)
(0.0726407 0.122295 0)
(0.072279 0.12869 0)
(0.0715183 0.135124 0)
(0.0703388 0.141558 0)
(0.0687237 0.147948 0)
(0.0666602 0.154249 0)
(0.0641399 0.160412 0)
(0.0611596 0.166383 0)
(0.0577216 0.172112 0)
(0.0538344 0.177542 0)
(0.0495131 0.182621 0)
(0.0447794 0.187295 0)
(0.0396618 0.191514 0)
(0.0341955 0.195228 0)
(0.028422 0.198396 0)
(0.0223882 0.20098 0)
(0.016146 0.202946 0)
(0.00974774 0.204271 0)
(0.00325799 0.204937 0)
(0.00150155 0.0218458 0)
(0.00450387 0.0220361 0)
(0.00750978 0.0224172 0)
(0.0105237 0.0229907 0)
(0.0135458 0.0237585 0)
(0.0165778 0.0247233 0)
(0.0196208 0.0258883 0)
(0.0226754 0.0272573 0)
(0.0257414 0.0288348 0)
(0.0288175 0.0306254 0)
(0.0319018 0.0326343 0)
(0.0349909 0.0348671 0)
(0.0380805 0.0373293 0)
(0.0411649 0.0400269 0)
(0.0442367 0.0429655 0)
(0.0472873 0.0461507 0)
(0.0503064 0.0495878 0)
(0.0532816 0.0532816 0)
(0.0561993 0.0572362 0)
(0.0590435 0.0614547 0)
(0.0617968 0.0659391 0)
(0.0644394 0.07069 0)
(0.06695 0.0757064 0)
(0.0693054 0.0809852 0)
(0.0714806 0.0865211 0)
(0.073449 0.0923062 0)
(0.0751828 0.0983296 0)
(0.0766529 0.104577 0)
(0.0778295 0.111032 0)
(0.0786824 0.117671 0)
(0.0791815 0.12447 0)
(0.079297 0.131399 0)
(0.0790009 0.138423 0)
(0.0782664 0.145504 0)
(0.0770699 0.152599 0)
(0.0753908 0.159659 0)
(0.0732128 0.166633 0)
(0.0705248 0.173466 0)
(0.067321 0.1801 0)
(0.0636023 0.186474 0)
(0.0593768 0.192527 0)
(0.0546599 0.198196 0)
(0.0494749 0.203421 0)
(0.0438531 0.208143 0)
(0.0378336 0.212305 0)
(0.031463 0.215859 0)
(0.0247946 0.218759 0)
(0.0178874 0.220968 0)
(0.0108016 0.222457 0)
(0.00361077 0.223206 0)
(0.00159942 0.0227925 0)
(0.00479778 0.0229936 0)
(0.00800079 0.0233964 0)
(0.0112136 0.0240025 0)
(0.0144371 0.0248142 0)
(0.0176737 0.0258346 0)
(0.0209251 0.0270671 0)
(0.0241923 0.0285163 0)
(0.0274757 0.0301869 0)
(0.0307747 0.0320845 0)
(0.0340875 0.0342149 0)
(0.0374111 0.0365846 0)
(0.0407414 0.0392 0)
(0.0440727 0.0420679 0)
(0.0473977 0.0451953 0)
(0.0507075 0.0485887 0)
(0.0539912 0.0522547 0)
(0.0572362 0.0561993 0)
(0.0604278 0.0604278 0)
(0.0635491 0.0649446 0)
(0.0665813 0.069753 0)
(0.0695031 0.074855 0)
(0.0722915 0.0802505 0)
(0.0749208 0.0859376 0)
(0.0773636 0.091912 0)
(0.0795905 0.0981664 0)
(0.0815704 0.104691 0)
(0.0832707 0.11147 0)
(0.0846577 0.118488 0)
(0.0856969 0.125722 0)
(0.0863537 0.133144 0)
(0.0865938 0.140724 0)
(0.0863842 0.148424 0)
(0.0856935 0.156203 0)
(0.084493 0.164012 0)
(0.0827578 0.1718 0)
(0.0804674 0.17951 0)
(0.0776069 0.187078 0)
(0.0741677 0.19444 0)
(0.0701486 0.201528 0)
(0.0655567 0.20827 0)
(0.0604075 0.214596 0)
(0.0547259 0.220435 0)
(0.0485462 0.225719 0)
(0.0419118 0.230383 0)
(0.0348752 0.234369 0)
(0.0274968 0.237625 0)
(0.0198439 0.240107 0)
(0.0119862 0.241781 0)
(0.00400737 0.242624 0)
(0.00170263 0.0236771 0)
(0.00510773 0.0238887 0)
(0.00851868 0.0243126 0)
(0.0119415 0.0249506 0)
(0.0153778 0.0258053 0)
(0.0188307 0.02688 0)
(0.0223025 0.0281789 0)
(0.0257952 0.0297066 0)
(0.0293096 0.031469 0)
(0.0328455 0.033472 0)
(0.0364018 0.0357224 0)
(0.0399759 0.0382276 0)
(0.0435639 0.040995 0)
(0.0471602 0.0440326 0)
(0.0507575 0.0473484 0)
(0.0543468 0.0509503 0)
(0.0579169 0.0548462 0)
(0.0614547 0.0590435 0)
(0.0649446 0.0635491 0)
(0.0683688 0.0683688 0)
(0.0717071 0.0735075 0)
(0.0749369 0.0789686 0)
(0.0780327 0.0847536 0)
(0.0809669 0.090862 0)
(0.0837094 0.0972906 0)
(0.0862275 0.104033 0)
(0.0884867 0.111081 0)
(0.0904505 0.118419 0)
(0.0920808 0.126031 0)
(0.0933384 0.133894 0)
(0.0941837 0.14198 0)
(0.094577 0.150256 0)
(0.0944796 0.158682 0)
(0.0938546 0.167213 0)
(0.0926676 0.175798 0)
(0.0908881 0.184379 0)
(0.0884906 0.192892 0)
(0.0854556 0.201268 0)
(0.0817707 0.209434 0)
(0.077432 0.21731 0)
(0.0724448 0.224819 0)
(0.0668247 0.231876 0)
(0.0605979 0.238402 0)
(0.0538016 0.244316 0)
(0.0464843 0.249545 0)
(0.0387049 0.254018 0)
(0.0305322 0.257676 0)
(0.0220432 0.260466 0)
(0.0133183 0.26235 0)
(0.00445348 0.263298 0)
(0.00181102 0.0244935 0)
(0.00543329 0.0247153 0)
(0.00906274 0.0251597 0)
(0.0127064 0.0258287 0)
(0.0163666 0.0267251 0)
(0.0200472 0.0278526 0)
(0.0237517 0.0292159 0)
(0.0274824 0.0308204 0)
(0.0312411 0.0326723 0)
(0.0350282 0.0347785 0)
(0.0388431 0.0371467 0)
(0.0426837 0.0397851 0)
(0.0465465 0.0427025 0)
(0.0504261 0.0459079 0)
(0.0543154 0.0494107 0)
(0.0582054 0.0532203 0)
(0.0620845 0.0573459 0)
(0.0659391 0.0617968 0)
(0.069753 0.0665813 0)
(0.0735075 0.0717071 0)
(0.0771811 0.0771811 0)
(0.0807492 0.0830082 0)
(0.0841849 0.0891919 0)
(0.0874578 0.0957334 0)
(0.090535 0.102631 0)
(0.0933806 0.109881 0)
(0.0959563 0.117474 0)
(0.0982212 0.125397 0)
(0.100132 0.133635 0)
(0.101646 0.142163 0)
(0.102715 0.150955 0)
(0.103296 0.159974 0)
(0.103342 0.16918 0)
(0.10281 0.178524 0)
(0.101659 0.18795 0)
(0.0998517 0.197394 0)
(0.0973567 0.206787 0)
(0.0941485 0.216052 0)
(0.09021 0.225104 0)
(0.0855336 0.233857 0)
(0.0801221 0.242218 0)
(0.0739905 0.250094 0)
(0.0671661 0.257389 0)
(0.0596894 0.264014 0)
(0.0516141 0.269879 0)
(0.0430065 0.274904 0)
(0.0339449 0.279017 0)
(0.0245176 0.282158 0)
(0.0148178 0.284279 0)
(0.00495576 0.285347 0)
(0.00192442 0.0252357 0)
(0.00577391 0.0254673 0)
(0.00963207 0.0259313 0)
(0.0135069 0.0266301 0)
(0.0174018 0.0275666 0)
(0.0213215 0.0287451 0)
(0.0252703 0.0301705 0)
(0.0292515 0.0318491 0)
(0.0332677 0.0337877 0)
(0.03732 0.0359941 0)
(0.0414085 0.0384769 0)
(0.0455318 0.0412455 0)
(0.0496867 0.0443097 0)
(0.0538683 0.04768 0)
(0.0580698 0.0513671 0)
(0.062282 0.055382 0)
(0.0664934 0.0597358 0)
(0.07069 0.0644394 0)
(0.074855 0.0695031 0)
(0.0789686 0.0749369 0)
(0.0830082 0.0807492 0)
(0.0869477 0.0869477 0)
(0.0907579 0.0935378 0)
(0.0944062 0.100523 0)
(0.0978567 0.107904 0)
(0.10107 0.115677 0)
(0.104003 0.123837 0)
(0.106612 0.132373 0)
(0.108847 0.141267 0)
(0.110658 0.150499 0)
(0.111994 0.160039 0)
(0.112802 0.169852 0)
(0.113029 0.179895 0)
(0.112624 0.190115 0)
(0.111538 0.200453 0)
(0.109726 0.21084 0)
(0.107148 0.221197 0)
(0.103773 0.23144 0)
(0.099576 0.241474 0)
(0.0945457 0.251201 0)
(0.0886812 0.260514 0)
(0.0819959 0.269307 0)
(0.074518 0.277469 0)
(0.066291 0.284895 0)
(0.0573745 0.291481 0)
(0.0478431 0.297132 0)
(0.0377861 0.301764 0)
(0.0273049 0.305304 0)
(0.0165079 0.307696 0)
(0.00552204 0.308902 0)
(0.0020426 0.0258974 0)
(0.00612892 0.0261383 0)
(0.0102255 0.026621 0)
(0.0143417 0.027348 0)
(0.0184816 0.0283228 0)
(0.0226512 0.0295497 0)
(0.0268557 0.0310346 0)
(0.0310995 0.032784 0)
(0.0353861 0.0348058 0)
(0.0397174 0.0371085 0)
(0.0440945 0.0397019 0)
(0.0485165 0.0425963 0)
(0.0529809 0.0458029 0)
(0.0574834 0.0493337 0)
(0.0620175 0.053201 0)
(0.0665741 0.0574176 0)
(0.0711418 0.0619963 0)
(0.0757064 0.06695 0)
(0.0802505 0.0722915 0)
(0.0847536 0.0780327 0)
(0.0891919 0.0841849 0)
(0.0935378 0.0907579 0)
(0.09776 0.09776 0)
(0.101824 0.105197 0)
(0.105689 0.113073 0)
(0.109314 0.121386 0)
(0.112652 0.130134 0)
(0.115651 0.139306 0)
(0.118259 0.148889 0)
(0.120418 0.158862 0)
(0.122069 0.169196 0)
(0.123151 0.179855 0)
(0.123605 0.190795 0)
(0.123368 0.20196 0)
(0.122383 0.213287 0)
(0.120596 0.224701 0)
(0.117957 0.236116 0)
(0.114426 0.247437 0)
(0.109971 0.25856 0)
(0.104573 0.269371 0)
(0.0982281 0.279751 0)
(0.0909457 0.289575 0)
(0.0827545 0.298716 0)
(0.0737012 0.30705 0)
(0.0638513 0.314456 0)
(0.0532891 0.320821 0)
(0.0421164 0.326045 0)
(0.03045 0.330043 0)
(0.0184161 0.332746 0)
(0.0061616 0.33411 0)
(0.00216529 0.0264725 0)
(0.0064975 0.0267221 0)
(0.0108418 0.0272223 0)
(0.0152087 0.0279758 0)
(0.0196035 0.0289864 0)
(0.0240333 0.0302589 0)
(0.0285046 0.0317998 0)
(0.0330227 0.0336161 0)
(0.0375921 0.0357167 0)
(0.0422161 0.0381109 0)
(0.0468963 0.0408096 0)
(0.0516329 0.0438244 0)
(0.0564242 0.0471678 0)
(0.0612664 0.0508534 0)
(0.0661536 0.0548951 0)
(0.0710772 0.0593077 0)
(0.0760259 0.0641061 0)
(0.0809852 0.0693054 0)
(0.0859376 0.0749208 0)
(0.090862 0.0809669 0)
(0.0957334 0.0874578 0)
(0.100523 0.0944062 0)
(0.105197 0.101824 0)
(0.109719 0.109719 0)
(0.114046 0.118099 0)
(0.118131 0.126966 0)
(0.121924 0.136319 0)
(0.125367 0.146153 0)
(0.128402 0.156455 0)
(0.130965 0.167205 0)
(0.132987 0.178378 0)
(0.134401 0.189937 0)
(0.135134 0.201837 0)
(0.135117 0.214021 0)
(0.134279 0.22642 0)
(0.132555 0.238954 0)
(0.129885 0.251529 0)
(0.126217 0.264042 0)
(0.12151 0.276373 0)
(0.115737 0.288395 0)
(0.108885 0.299971 0)
(0.100961 0.310958 0)
(0.0919933 0.321208 0)
(0.0820308 0.330575 0)
(0.0711455 0.338917 0)
(0.0594323 0.3461 0)
(0.0470074 0.352004 0)
(0.034006 0.356528 0)
(0.020575 0.35959 0)
(0.00688544 0.361135 0)
(0.00229216 0.0269546 0)
(0.0068787 0.0272122 0)
(0.0114793 0.0277285 0)
(0.0161057 0.0285065 0)
(0.0207647 0.0295501 0)
(0.0254646 0.030865 0)
(0.0302129 0.0324577 0)
(0.0350164 0.0343363 0)
(0.0398808 0.0365103 0)
(0.0448103 0.0389902 0)
(0.0498079 0.0417879 0)
(0.0548747 0.0449163 0)
(0.06001 0.0483894 0)
(0.0652108 0.0522223 0)
(0.0704718 0.0564309 0)
(0.075785 0.0610319 0)
(0.0811395 0.0660426 0)
(0.0865211 0.0714806 0)
(0.091912 0.0773636 0)
(0.0972906 0.0837094 0)
(0.102631 0.090535 0)
(0.107904 0.0978567 0)
(0.113073 0.105689 0)
(0.118099 0.114046 0)
(0.122936 0.122936 0)