/*--------------------------------*- C++ -*----------------------------------*\
| =========                 |                                                 |
| \\      /  F ield         | OpenFOAM: The Open Source CFD Toolbox           |
|  \\    /   O peration     | Version:  2406                                  |
|   \\  /    A nd           | Website:  www.openfoam.com                      |
|    \\/     M anipulation  |                                                 |
\*---------------------------------------------------------------------------*/
FoamFile
{
    version     2.0;
    format      ascii;
    arch        "LSB;label=32;scalar=64";
    class       volScalarField;
    location    "1.6";
    object      gradTx;
}
// * * * * * * * * * * * * * * * * * * * * * * * * * * * * * * * * * * * * * //

dimensions      [0 -1 0 1 0 0 0];

internalField   nonuniform List<scalar> 
2500
(
0.00680579
0.0203945
0.0339562
0.0474876
0.0609569
0.0743444
0.0876288
0.100787
0.113793
0.12662
0.139236
0.151609
0.163701
0.175473
0.186882
0.197883
0.208425
0.218458
0.227925
0.236771
0.244935
0.252357
0.258974
0.264725
0.269546
0.273377
0.276158
0.277832
0.278346
0.27765
0.275703
0.272467
0.267914
0.262023
0.254782
0.246192
0.236261
0.22501
0.212473
0.198695
0.183733
0.167655
0.150543
0.132489
0.113593
0.0939689
0.0737345
0.053016
0.031946
0.0106701
0.00685733
0.0205509
0.0342182
0.0478546
0.0614295
0.0749234
0.0883151
0.101581
0.114697
0.127633
0.14036
0.152844
0.165047
0.176932
0.188453
0.199565
0.210219
0.220361
0.229936
0.238887
0.247153
0.254673
0.261383
0.267221
0.272122
0.276025
0.278869
0.280595
0.28115
0.280484
0.278553
0.275318
0.270751
0.26483
0.257542
0.248886
0.238873
0.227522
0.214866
0.200951
0.185835
0.169587
0.152289
0.134034
0.114925
0.0950764
0.0746082
0.0536465
0.032315
0.010786
0.00696219
0.0208651
0.0347418
0.0485885
0.062375
0.0760819
0.0896881
0.103171
0.116504
0.12966
0.142608
0.155315
0.167743
0.179852
0.191598
0.202934
0.21381
0.224172
0.233964
0.243126
0.251597
0.259313
0.26621
0.272223
0.277285
0.281333
0.284304
0.286137
0.286777
0.28617
0.284271
0.28104
0.276445
0.270464
0.263082
0.254297
0.244119
0.232566
0.219673
0.205484
0.190059
0.173469
0.155797
0.13714
0.117602
0.0973018
0.0763645
0.054921
0.0330863
0.0110417
0.00711935
0.0213365
0.0355281
0.049691
0.0637955
0.0778224
0.0917511
0.105559
0.11922
0.132707
0.145988
0.15903
0.171795
0.184242
0.196327
0.208001
0.219213
0.229907
0.240025
0.249506
0.258287
0.266301
0.27348
0.279758
0.285065
0.289333
0.292498
0.294494
0.295262
0.294747
0.292898
0.289674
0.28504
0.27897
0.271448
0.262471
0.252044
0.240189
0.226937
0.212337
0.196446
0.17934
0.161103
0.141837
0.12165
0.100666
0.0790157
0.0568355
0.0342434
0.0114283
0.00732917
0.021966
0.0365783
0.0511638
0.0656932
0.080148
0.0945078
0.10875
0.12285
0.136779
0.150507
0.163998
0.177215
0.190116
0.202655
0.214782
0.226444
0.237585
0.248142
0.258053
0.267251
0.275666
0.283228
0.289864
0.295501
0.300069
0.303496
0.305715
0.30666
0.306271
0.304495
0.301285
0.296601
0.290416
0.282709
0.273475
0.262718
0.250458
0.236727
0.221573
0.205057
0.187256
0.168259
0.148172
0.127111
0.105204
0.0825901
0.0594138
0.0358006
0.0119489
0.007592
0.0227546
0.037894
0.0530092
0.0680712
0.0830624
0.097963
0.112751
0.127401
0.141886
0.156174
0.17023
0.184015
0.197487
0.210598
0.223297
0.235529
0.247233
0.258346
0.2688
0.278526
0.287451
0.295497
0.302589
0.30865
0.3136
0.317364
0.319869
0.321043
0.32082
0.319142
0.315955
0.311215
0.30489
0.296955
0.287401
0.276232
0.263464
0.24913
0.233279
0.215973
0.197294
0.177337
0.15621
0.13404
0.110962
0.0871256
0.0626846
0.0377756
0.0126093
0.00790821
0.0237035
0.0394772
0.0552299
0.0709332
0.0865704
0.102122
0.117568
0.132882
0.148037
0.163002
0.17774
0.192213
0.206376
0.22018
0.233572
0.246494
0.258883
0.270671
0.281789
0.292159
0.301705
0.310346
0.317998
0.324577
0.329999
0.33418
0.337041
0.338502
0.33849
0.33694
0.33379
0.328992
0.322505
0.314302
0.304368
0.292703
0.279323
0.264261
0.247565
0.229301
0.209555
0.188426
0.166033
0.142509
0.118002
0.0926705
0.0666834
0.04019
0.0134165
0.00827823
0.0248139
0.04133
0.0578289
0.0742831
0.090677
0.106993
0.123209
0.139302
0.155244
0.171004
0.186545
0.201827
0.216804
0.231426
0.245636
0.259374
0.272573
0.285163
0.297066
0.308204
0.318491
0.32784
0.336161
0.343363
0.349353
0.35404
0.357333
0.359146
0.359397
0.358011
0.354919
0.350064
0.343399
0.33489
0.324516
0.312274
0.298178
0.282259
0.264566
0.24517
0.224158
0.20164
0.177741
0.152607
0.126396
0.0992841
0.0714534
0.0430703
0.0143795
0.00870247
0.026087
0.0434546
0.0608095
0.0781254
0.095388
0.11258
0.129683
0.146672
0.16352
0.180196
0.196663
0.212878
0.228796
0.244364
0.259522
0.274207
0.288348
0.301869
0.31469
0.326723
0.337877
0.348058
0.357167
0.365103
0.371766
0.377053
0.380864
0.383103
0.383677
0.382499
0.379493
0.37459
0.367734
0.358885
0.348015
0.335116
0.320197
0.30329
0.284444
0.263733
0.24125
0.217113
0.191457
0.164439
0.136236
0.107038
0.0770467
0.0464481
0.0155089
0.00918138
0.0275244
0.0458533
0.0641749
0.0824644
0.100709
0.118894
0.136999
0.155003
0.172878
0.190594
0.208112
0.22539
0.242379
0.259025
0.275266
0.291034
0.306254
0.320845
0.33472
0.347785
0.359941
0.371085
0.381109
0.389902
0.397352
0.403346
0.407772
0.41052
0.411486
0.410571
0.407686
0.40275
0.395699
0.386481
0.375062
0.361426
0.345579
0.32755
0.307389
0.285174
0.261003
0.235003
0.207322
0.178133
0.147627
0.116016
0.0835247
0.0503607
0.0168172
0.00971538
0.0291271
0.0485283
0.0679285
0.0873046
0.106646
0.125939
0.145166
0.164306
0.183332
0.202214
0.220912
0.239385
0.257581
0.275443
0.292907
0.3099
0.326343
0.342149
0.357224
0.371467
0.384769
0.397019
0.408096
0.417879
0.426243
0.433062
0.43821
0.441563
0.443002
0.442414
0.439696
0.434755
0.427511
0.417902
0.405884
0.391435
0.374553
0.355265
0.333623
0.309704
0.283617
0.255497
0.225506
0.193834
0.160694
0.126319
0.0909599
0.0548522
0.0183191
0.0103049
0.0308964
0.0514817
0.0720732
0.0926502
0.113204
0.133724
0.154193
0.174592
0.194896
0.215073
0.235085
0.254888
0.274431
0.293652
0.312485
0.330853
0.348671
0.365846
0.382276
0.397851
0.412455
0.425963
0.438244
0.449163
0.45858
0.466356
0.472348
0.476416
0.478423
0.478242
0.47575
0.470839
0.463415
0.453401
0.440743
0.425406
0.407384
0.386698
0.363399
0.33757
0.309325
0.27881
0.246205
0.211716
0.175581
0.138062
0.0994365
0.0599736
0.0200319
0.0109501
0.0328333
0.054715
0.0766115
0.0985045
0.120388
0.142254
0.164088
0.185872
0.207582
0.229187
0.250649
0.271924
0.292957
0.313687
0.334042
0.353941
0.373293
0.392
0.40995
0.427025
0.443097
0.458029
0.471678
0.483894
0.494521
0.503401
0.510374
0.515283
0.51797
0.518288
0.516096
0.511267
0.503688
0.493266
0.47993
0.463637
0.44437
0.422145
0.397011
0.369053
0.338394
0.305192
0.269643
0.231977
0.192458
0.151378
0.109052
0.0657846
0.0219756
0.0116514
0.0349384
0.0582295
0.0815453
0.10487
0.128202
0.151535
0.174858
0.198155
0.221402
0.244571
0.267624
0.290515
0.31319
0.335582
0.357618
0.379213
0.400269
0.420679
0.440326
0.459079
0.4768
0.493337
0.508534
0.522223
0.534231
0.544382
0.552494
0.558387
0.561885
0.562815
0.561014
0.556333
0.548638
0.537816
0.52378
0.506468
0.485855
0.461947
0.434792
0.404477
0.371132
0.334928
0.296081
0.254846
0.211518
0.166425
0.119921
0.0723541
0.0241732
0.0124087
0.037212
0.0620258
0.0868755
0.111749
0.136649
0.161571
0.186508
0.211447
0.236367
0.261239
0.286026
0.310683
0.335153
0.35937
0.383255
0.406717
0.429655
0.451953
0.473484
0.494107
0.513671
0.53201
0.548951
0.564309
0.577891
0.589498
0.598926
0.605972
0.610431
0.612107
0.61081
0.606364
0.598611
0.587413
0.572662
0.554279
0.532222
0.50649
0.477123
0.44421
0.407889
0.368347
0.325818
0.280588
0.232986
0.18338
0.132173
0.079762
0.0266516
0.0132221
0.0396539
0.0661036
0.0926021
0.119142
0.145728
0.172363
0.199042
0.225754
0.252482
0.279198
0.305868
0.332445
0.358872
0.38508
0.410988
0.436499
0.461507
0.485887
0.509503
0.532203
0.55382
0.574176
0.593077
0.610319
0.625688
0.638961
0.649907
0.658296
0.663895
0.666476
0.665819
0.661718
0.653986
0.642456
0.626993
0.607497
0.583907
0.556208
0.524434
0.488673
0.449069
0.405825
0.359199
0.309507
0.25712
0.202453
0.145961
0.0881008
0.0294419
0.0140912
0.0422633
0.0704617
0.0987235
0.127046
0.155439
0.18391
0.212458
0.241077
0.269751
0.298458
0.327161
0.355816
0.384366
0.412739
0.440851
0.468603
0.495878
0.522547
0.548462
0.573459
0.597358
0.619963
0.641061
0.660426
0.67782
0.692993
0.705687
0.715639
0.722583
0.726257
0.726407
0.72279
0.715183
0.703388
0.687237
0.666602
0.641399
0.611596
0.577216
0.538344
0.495131
0.447794
0.396618
0.341955
0.28422
0.223882
0.16146
0.0974774
0.0325799
0.0150155
0.0450387
0.0750978
0.105237
0.135458
0.165778
0.196208
0.226754
0.257414
0.288175
0.319018
0.349909
0.380805
0.411649
0.442367
0.472873
0.503064
0.532816
0.561993
0.590435
0.617968
0.644394
0.6695
0.693054
0.714806
0.73449
0.751828
0.766529
0.778295
0.786824
0.791815
0.79297
0.790009
0.782664
0.770699
0.753908
0.732128
0.705248
0.67321
0.636023
0.593768
0.546599
0.494749
0.438531
0.378336
0.31463
0.247946
0.178874
0.108016
0.0361077
0.0159942
0.0479778
0.0800079
0.112136
0.144371
0.176737
0.209251
0.241923
0.274757
0.307747
0.340875
0.374111
0.407414
0.440727
0.473977
0.507075
0.539912
0.572362
0.604278
0.635491
0.665813
0.695031
0.722915
0.749208
0.773636
0.795905
0.815704
0.832707
0.846577
0.856969
0.863537
0.865938
0.863842
0.856935
0.84493
0.827578
0.804674
0.776069
0.741677
0.701486
0.655567
0.604075
0.547259
0.485462
0.419118
0.348752
0.274968
0.198439
0.119862
0.0400737
0.0170263
0.0510773
0.0851868
0.119415
0.153778
0.188307
0.223025
0.257952
0.293096
0.328455
0.364018
0.399759
0.435639
0.471602
0.507575
0.543468
0.579169
0.614547
0.649446
0.683688
0.717071
0.749369
0.780327
0.809669
0.837094
0.862275
0.884867
0.904505
0.920808
0.933384
0.941837
0.94577
0.944796
0.938546
0.926676
0.908881
0.884906
0.854556
0.817707
0.77432
0.724448
0.668247
0.605979
0.538016
0.464843
0.387049
0.305322
0.220432
0.133183
0.0445348
0.0181102
0.0543329
0.0906274
0.127064
0.163666
0.200472
0.237517
0.274824
0.312411
0.350282
0.388431
0.426837
0.465465
0.504261
0.543154
0.582054
0.620845
0.659391
0.69753
0.735075
0.771811
0.807492
0.841849
0.874578
0.90535
0.933806
0.959563
0.982212
1.00132
1.01646
1.02715
1.03296
1.03342
1.0281
1.01659
0.998517
0.973567
0.941485
0.9021
0.855336
0.801221
0.739905
0.671661
0.596894
0.516141
0.430065
0.339449
0.245176
0.148178
0.0495576
0.0192442
0.0577391
0.0963207
0.135069
0.174018
0.213215
0.252703
0.292515
0.332677
0.3732
0.414085
0.455318
0.496867
0.538683
0.580698
0.62282
0.664934
0.7069
0.74855
0.789686
0.830082
0.869477
0.907579
0.944062
0.978567
1.0107
1.04003
1.06612
1.08847
1.10658
1.11994
1.12802
1.13029
1.12624
1.11538
1.09726
1.07148
1.03773
0.99576
0.945457
0.886812
0.819959
0.74518
0.66291
0.573745
0.478431
0.377861
0.273049
0.165079
0.0552204
0.020426
0.0612892
0.102255
0.143417
0.184816
0.226512
0.268557
0.310995
0.353861
0.397174
0.440945
0.485165
0.529809
0.574834
0.620175
0.665741
0.711418
0.757064
0.802505
0.847536
0.891919
0.935378
0.9776
1.01824
1.05689
1.09314
1.12652
1.15651
1.18259
1.20418
1.22069
1.23151
1.23605
1.23368
1.22383
1.20596
1.17957
1.14426
1.09971
1.04573
0.982281
0.909457
0.827545
0.737012
0.638513
0.532891
0.421164
0.3045
0.184161
0.061616
0.0216529
0.064975
0.108418
0.152087
0.196035
0.240333
0.285046
0.330227
0.375921
0.422161
0.468963
0.516329
0.564242
0.612664
0.661536
0.710772
0.760259
0.809852
0.859376
0.90862
0.957334
1.00523
1.05197
1.09719
1.14046
1.18131
1.21924
1.25367
1.28402
1.30965
1.32987
1.34401
1.35134
1.35117
1.34279
1.32555
1.29885
1.26217
1.2151
1.15737
1.08885
1.00961
0.919933
0.820308
0.711455
0.594323
0.470074
0.34006
0.20575
0.0688544
0.0229216
0.068787
0.114793
0.161057
0.207647
0.254646
0.302129
0.350164
0.398808
0.448103
0.498079
0.548747
0.6001
0.652108
0.704718
0.75785
0.811395
0.865211
0.91912
0.972906
1.02631
1.07904
1.13073
1.18099
1.22936
1.27535
1.31839
1.35787
1.39311
1.42341
1.44801
1.4661
1.47688
1.47951
1.47316
1.45706
1.43045
1.39269
1.34324
1.28172
1.20791
1.12182
1.02372
0.9141
0.793761
0.663766
0.525444
0.38036
0.230235
0.0770674
0.0242284
0.0727139
0.121361
0.170303
0.21962
0.269408
0.31976
0.370754
0.42246
0.474936
0.528223
0.582343
0.637302
0.69308
0.749633
0.806889
0.864745
0.923062
0.981664
1.04033
1.09881
1.15677
1.21386
1.26966
1.32368
1.37538
1.42415
1.46933
1.51016
1.54587
1.57558
1.5984
1.61338
1.61955
1.61594
1.6016
1.57562
1.53719
1.48561
1.42035
1.34108
1.24773
1.1405
1.01992
0.886841
0.742457
0.588291
0.42616
0.258087
0.0864132
0.0255692
0.076743
0.128101
0.179793
0.231914
0.284575
0.337882
0.391932
0.446807
0.502581
0.559307
0.617025
0.67575
0.735478
0.796175
0.857779
0.920197
0.983296
1.04691
1.11081
1.17474
1.23837
1.30134
1.36319
1.42343
1.48147
1.53665
1.58826
1.63547
1.6774
1.71309
1.74152
1.7616
1.7722
1.77218
1.76039
1.73573
1.69719
1.64387
1.57505
1.49024
1.38924
1.27218
1.13959
0.992379
0.831881
0.659842
0.478376
0.289869
0.0970836
0.026939
0.0808599
0.13499
0.189495
0.244486
0.300092
0.356435
0.413626
0.471767
0.530945
0.591233
0.652682
0.715327
0.779177
0.844212
0.910385
0.977612
1.04577
1.1147
1.18419
1.25397
1.32373
1.39306
1.46153
1.52859
1.59364
1.65598
1.71481
1.76926
1.81835
1.861
1.89606
1.92229
1.93838
1.94298
1.93474
1.9123
1.87441
1.81991
1.74785
1.65753
1.54857
1.42099
1.27527
1.11239
0.933824
0.741579
0.53812
0.326274
0.109312
0.0283325
0.0850485
0.142
0.199371
0.257289
0.315901
0.375346
0.435755
0.497247
0.559926
0.623883
0.68919
0.755896
0.824029
0.893588
0.964541
1.03682
1.11032
1.18488
1.26031
1.33635
1.41267
1.48889
1.56455
1.63908
1.71186
1.78214
1.84908
1.91172
1.969
2.01972
2.06259
2.0962
2.11903
2.12953
2.12605
2.10698
2.07074
2.01587
1.94111
1.84547
1.72834
1.58957
1.42955
1.2493
1.05046
0.83531
0.606753
0.368144
0.123386
0.0297439
0.0892911
0.149101
0.209378
0.270267
0.331934
0.394538
0.458227
0.523141
0.589405
0.657128
0.726402
0.797299
0.869866
0.94412
1.02005
1.09761
1.17671
1.25722
1.33894
1.42163
1.50499
1.58862
1.67205
1.75473
1.836
1.91507
1.99107
2.06295
2.12957
2.18961
2.24164
2.28405
2.31512
2.33301
2.33581
2.32154
2.28826
2.23413
2.15749
2.05696
1.93162
1.78107
1.60555
1.40606
1.18442
0.943257
0.685953
0.416527
0.139659
0.0311666
0.0935682
0.156262
0.219472
0.283363
0.34812
0.413923
0.480942
0.549335
0.619251
0.69082
0.764158
0.839358
0.91649
0.995598
1.07669
1.15975
1.2447
1.33144
1.4198
1.50955
1.60039
1.69196
1.78378
1.8753
1.96585
2.05462
2.14068
2.22294
2.30017
2.37093
2.43363
2.48649
2.52754
2.55465
2.56555
2.5579
2.52929
2.47739
2.40004
2.2954
2.16206
1.99925
1.80701
1.58627
1.33898
1.06816
0.777804
0.472724
0.158575
0.0325937
0.0978589
0.163446
0.229602
0.296511
0.364379
0.433407
0.503787
0.575701
0.64932
0.724799
0.802276
0.881873
0.963684
1.04778
1.1342
1.22295
1.31399
1.40724
1.50256
1.59974
1.69852
1.79855
1.89937
2.00044
2.10109
2.20049
2.29769
2.39156
2.48078
2.56381
2.6389
2.70408
2.75714
2.79562
2.81687
2.81807
2.79631
2.74864
2.67227
2.5647
2.42393
2.24865
2.03852
1.79434
1.51817
1.21346
0.884918
0.538371
0.180691
0.0340177
0.102141
0.170618
0.239717
0.309643
0.380626
0.452888
0.526644
0.602101
0.679454
0.758885
0.840558
0.924623
1.0112
1.1004
1.19229
1.2869
1.38423
1.48424
1.58682
1.6918
1.79895
1.90795
2.01837
2.1297
2.24127
2.35227
2.46175
2.56852
2.67121
2.7682
2.8576
2.93724
3.00464
3.05703
3.09132
3.10416
3.092
3.05119
2.97813
2.86945
2.72232
2.5347
2.30568
2.03574
1.72703
1.38345
1.01059
0.61554
0.206714
0.0354306
0.10639
0.177736
0.249759
0.322686
0.39677
0.472256
0.549385
0.628387
0.709485
0.792887
0.878788
0.967367
1.05878
1.15317
1.25063
1.35124
1.45504
1.56203
1.67213
1.78524
1.90115
2.0196
2.14021
2.26248
2.38581
2.5094
2.63229
2.75332
2.87107
2.98384
3.08965
3.18613
3.27057
3.33983
3.39037
3.41825
3.4192
3.38868
3.32208
3.21494
3.06329
2.86402
2.61537
2.3173
1.97192
1.5836
1.15904
0.706879
0.237548
0.0368243
0.110581
0.184758
0.259669
0.335563
0.412715
0.491397
0.571873
0.654402
0.739231
0.8266
0.916735
1.00985
1.10613
1.20575
1.30886
1.41558
1.52599
1.64012
1.75798
1.8795
2.00453
2.13287
2.2642
2.39808
2.53396
2.6711
2.80858
2.94526
3.07971
3.21022
3.3347
3.45067
3.55515
3.6447
3.71529
3.76235
3.78077
3.76497
3.7091
3.60727
3.45398
3.24462
2.97613
2.64761
2.2609
1.82091
1.33565
0.815801
0.274358
0.0381901
0.114689
0.191642
0.269386
0.348193
0.428363
0.510191
0.593968
0.679979
0.768502
0.859807
0.954152
1.05178
1.15293
1.25781
1.3666
1.47948
1.59659
1.718
1.84379
1.97394
2.1084
2.24701
2.38954
2.53564
2.68482
2.83644
2.98964
3.14335
3.29619
3.44645
3.59203
3.73034
3.85824
3.97197
4.06705
4.13824
4.17953
4.18413
4.14467
4.05345
3.9029
3.6863
3.39862
3.03755
2.60435
2.10443
1.54745
0.946735
0.318658
0.0395191
0.118687
0.198342
0.278846
0.360494
0.443609
0.528512
0.61552
0.704948
0.797101
0.892281
0.990781
1.09288
1.19886
1.30896
1.42344
1.54249
1.66633
1.7951
1.92892
2.06787
2.21197
2.36116
2.51529
2.67413
2.83729
3.00424
3.17424
3.34632
3.51921
3.69128
3.86047
4.02416
4.17913
4.32138
4.44605
4.54724
4.618
4.6502
4.63466
4.56139
4.42009
4.20102
3.89625
3.50111
3.01572
2.44596
1.80358
1.10546
0.372421
0.0408023
0.122547
0.204813
0.287985
0.372381
0.458348
0.546233
0.63638
0.729131
0.824822
0.923787
1.02635
1.13284
1.24357
1.35883
1.47893
1.60412
1.73466
1.87078
2.01268
2.16052
2.3144
2.47437
2.64042
2.81241
2.99011
3.17312
3.36089
3.55258
3.74711
3.94299
4.1383
4.33052
4.51644
4.69196
4.85194
4.98995
5.09811
5.16689
5.18507
5.13984
5.01729
4.80346
4.48599
4.05643
3.51272
2.86105
2.11608
1.29952
0.438218
0.0420306
0.126243
0.211009
0.296738
0.383769
0.472474
0.563226
0.656394
0.752348
0.851457
0.954085
1.0606
1.17135
1.28671
1.40702
1.53261
1.66383
1.801
1.9444
2.09434
2.25104
2.41474
2.5856
2.76373
2.94915
3.1418
3.34147
3.54779
3.76017
3.97776
4.19933
4.42318
4.64705
4.8679
5.08171
5.28327
5.46582
5.62074
5.73715
5.80164
5.79811
5.70806
5.51159
5.18963
4.72742
4.11893
3.37043
2.50081
1.53878
0.519373
0.0431951
0.129747
0.216885
0.305039
0.394573
0.485882
0.579362
0.675409
0.774422
0.876797
0.982935
1.09323
1.20809
1.32792
1.4531
1.58403
1.72112
1.86474
2.01528
2.1731
2.33857
2.51201
2.69371
2.88395
3.08291
3.29073
3.50743
3.73288
3.9668
4.20863
4.4575
4.7121
4.97056
5.23021
5.48741
5.73716
5.97271
6.18506
6.36232
6.48902
6.54548
6.50757
6.34731
6.03534
5.54624
4.86645
4.00192
2.97857
1.83587
0.620101
0.044287
0.133032
0.222395
0.312826
0.404711
0.498467
0.594514
0.693274
0.795172
0.900635
1.01009
1.12399
1.24275
1.36682
1.49666
1.63271
1.77542
1.92527
2.0827
2.24819
2.42218
2.60514
2.79751
2.99971
3.21213
3.43513
3.66897
3.91385
4.16981
4.4367
4.71412
5.00127
5.29686
5.59887
5.90431
6.20883
6.50622
6.78772
7.04109
7.24945
7.38982
7.43179
7.33682
7.06005
6.55732
5.80002
4.79322
3.57634
2.20648
0.745501
0.0452976
0.136073
0.227496
0.320037
0.4141
0.510127
0.608558
0.709841
0.814426
0.922768
1.03533
1.15258
1.275
1.40307
1.53729
1.67817
1.82621
1.98196
2.14596
2.31876
2.50094
2.69307
2.89575
3.10958
3.33515
3.57306
3.82388
4.08812
4.36623
4.65856
4.96524
5.28616
5.62079
5.96803
6.32593
6.69128
7.0591
7.42179
7.76797
8.08073
8.33521
8.49535
8.51029
8.31259
7.82456
6.98442
5.79564
4.32773
2.66868
0.901166
0.046219
0.138846
0.232147
0.326612
0.422665
0.520766
0.621378
0.724969
0.832017
0.943002
1.05842
1.17876
1.30455
1.43632
1.5746
1.71995
1.87295
2.03421
2.20435
2.38402
2.57389
2.77469
2.98716
3.21208
3.45025
3.70254
3.96981
4.25295
4.55286
4.87042
5.20642
5.56154
5.93622
6.33053
6.74393
7.17494
7.62061
8.07569
8.53137
8.97318
9.3776
9.70653
9.89855
9.85736
9.44552
8.5188
7.07822
5.27092
3.2398
1.0919
0.0470436
0.141328
0.23631
0.332498
0.430334
0.530293
0.632861
0.738527
0.847788
0.961153
1.07914
1.20228
1.33112
1.46623
1.60819
1.75761
1.91514
2.08143
2.25719
2.44316
2.64014
2.84895
3.0705
3.30575
3.55572
3.82153
4.10436
4.4055
4.72631
5.06824
5.43282
5.82161
6.23616
6.67795
7.1482
7.64767
8.17626
8.73236
9.31181
9.90596
10.4982
11.0571
11.5222
11.7747
11.583
10.5684
8.72859
6.43859
3.92817
1.31878
0.0477644
0.143497
0.23995
0.337645
0.437039
0.538627
0.642909
0.750393
0.861597
0.977052
1.0973
1.2229
1.35443
1.49249
1.63771
1.79075
1.95228
2.12305
2.30383
2.49545
2.69879
2.91481
3.14456
3.38917
3.64987
3.92803
4.22516
4.54291
4.88314
5.24787
5.63939
6.0602
6.51306
7.00098
7.52718
8.09505
8.70798
9.36908
10.0807
10.8436
11.6549
12.5038
13.3607
14.1382
14.5451
13.4445
10.8302
7.82735
4.71599
1.57409
0.0483755
0.145336
0.243035
0.342007
0.442723
0.545692
0.651428
0.760457
0.873314
0.990548
1.11272
1.24042
1.37425
1.51484
1.66285
1.81898
1.98396
2.15859
2.34369
2.54018
2.74904
2.97132
3.20821
3.461
3.73111
4.02015
4.32991
4.66242
5.01998
5.40521
5.82109
6.27108
6.75913
7.28982
7.86845
8.50118
9.19513
9.95867
10.8016
11.7359
12.7765
13.9453
15.2807
16.8743
19.0164
17.8355
13.3216
9.32525
5.53486
1.83591
0.0488719
0.14683
0.245539
0.345547
0.447335
0.551425
0.658343
0.768627
0.882828
1.00151
1.12525
1.25466
1.39037
1.53302
1.68332
1.84198
2.0098
2.18759
2.37625
2.57676
2.79017
3.01764
3.26045
3.52004
3.798
4.09615
4.41653
4.76149
5.13373
5.5364
5.97314
6.44825
6.96681
7.53484
8.15961
8.84988
9.61635
10.4723
11.4345
12.5247
13.7728
15.2226
16.9446
19.0639
21.8123
20.5611
15.2964
10.6179
6.26275
2.07086
0.0492492
0.147966
0.247442
0.348233
0.450833
0.555772
0.663587
0.774825
0.890047
1.00983
1.13477
1.26548
1.40261
1.54684
1.69888
1.85948
2.02946
2.20968
2.40107
2.60466
2.82158
3.05304
3.30043
3.56528
3.84932
4.15454
4.4832
4.83789
5.22166
5.63806
6.0913
6.58637
7.12927
7.72728
8.38928
9.12622
9.95176
10.8831
11.9425
13.1586
14.5702
16.2303
18.2136
20.6263
23.6094
22.3017
16.686
11.5879
6.82788
2.25588
0.0495024
0.148735
0.248728
0.35004
0.453184
0.558694
0.667111
0.778991
0.894899
1.01542
1.14117
1.27276
1.41085
1.55614
1.70936
1.87127
2.04271
2.22457
2.41781
2.6235
2.84279
3.07696
3.32746
3.5959
3.8841
4.19416
4.52849
4.88986
5.28157
5.70745
6.17211
6.68104
7.24092
7.8599
8.54802
9.31781
10.185
11.1695
12.2969
13.6002
15.122
16.9172
19.0555
21.6203
24.6989
23.3517
17.5591
12.2206
7.20547
2.3809
0.0496183
0.149107
0.249371
0.350947
0.454365
0.560162
0.668882
0.781083
0.897337
1.01823
1.14438
1.27641
1.41499
1.56082
1.71462
1.8772
2.04937
2.23206
2.42624
2.63298
2.85347
3.08902
3.3411
3.61135
3.90166
4.21418
4.55138
4.91617
5.31191
5.74264
6.21314
6.72918
7.29778
7.92754
8.62914
9.41587
10.3045
11.3165
12.4788
13.8263
15.403
17.2636
19.4731
22.1025
25.2161
23.8484
17.979
12.5306
7.393
2.4434
)
;

boundaryField
{
    walls
    {
        type            calculated;
        value           nonuniform List<scalar> 
200
(
0.0496183
0.149107
0.249371
0.350947
0.454365
0.560162
0.668882
0.781083
0.897337
1.01823
1.14438
1.27641
1.41499
1.56082
1.71462
1.8772
2.04937
2.23206
2.42624
2.63298
2.85347
3.08902
3.3411
3.61135
3.90166
4.21418
4.55138
4.91617
5.31191
5.74264
6.21314
6.72918
7.29778
7.92754
8.62914
9.41587
10.3045
11.3165
12.4788
13.8263
15.403
17.2636
19.4731
22.1025
25.2161
23.8484
17.979
12.5306
7.393
2.4434
0
0
0
0
0
0
0
0
0
0
0
0
0
0
0
0
0
0
0
0
0
0
0
0
0
0
0
0
0
0
0
0
0
0
0
0
0
0
0
0
0
0
0
0
0
0
0
0
0
0
0
0
0
0
0
0
0
0
0
0
0
0
0
0
0
0
0
0
0
0
0
0
0
0
0
0
0
0
0
0
0
0
0
0
0
0
0
0
0
0
0
0
0
0
0
0
0
0
0
0
0.00680579
0.0203945
0.0339562
0.0474876
0.0609569
0.0743444
0.0876288
0.100787
0.113793
0.12662
0.139236
0.151609
0.163701
0.175473
0.186882
0.197883
0.208425
0.218458
0.227925
0.236771
0.244935
0.252357
0.258974
0.264725
0.269546
0.273377
0.276158
0.277832
0.278346
0.27765
0.275703
0.272467
0.267914
0.262023
0.254782
0.246192
0.236261
0.22501
0.212473
0.198695
0.183733
0.167655
0.150543
0.132489
0.113593
0.0939689
0.0737345
0.053016
0.031946
0.0106701
)
;
    }
    frontAndBack
    {
        type            empty;
    }
}


// ************************************************************************* //
