/*--------------------------------*- C++ -*----------------------------------*\
| =========                 |                                                 |
| \\      /  F ield         | OpenFOAM: The Open Source CFD Toolbox           |
|  \\    /   O peration     | Version:  2406                                  |
|   \\  /    A nd           | Website:  www.openfoam.com                      |
|    \\/     M anipulation  |                                                 |
\*---------------------------------------------------------------------------*/
FoamFile
{
    version     2.0;
    format      ascii;
    arch        "LSB;label=32;scalar=64";
    class       volScalarField;
    location    "1.6";
    object      gradTy;
}
// * * * * * * * * * * * * * * * * * * * * * * * * * * * * * * * * * * * * * //

dimensions      [0 -1 0 1 0 0 0];

internalField   nonuniform List<scalar> 
2500
(
0.00680579
0.00685733
0.00696219
0.00711935
0.00732917
0.007592
0.00790821
0.00827823
0.00870247
0.00918138
0.00971538
0.0103049
0.0109501
0.0116514
0.0124087
0.0132221
0.0140912
0.0150155
0.0159942
0.0170263
0.0181102
0.0192442
0.020426
0.0216529
0.0229216
0.0242284
0.0255692
0.026939
0.0283325
0.0297439
0.0311666
0.0325937
0.0340177
0.0354306
0.0368243
0.0381901
0.0395191
0.0408023
0.0420306
0.0431951
0.044287
0.0452976
0.046219
0.0470436
0.0477644
0.0483755
0.0488719
0.0492492
0.0495024
0.0496183
0.0203945
0.0205509
0.0208651
0.0213365
0.021966
0.0227546
0.0237035
0.0248139
0.026087
0.0275244
0.0291271
0.0308964
0.0328333
0.0349384
0.037212
0.0396539
0.0422633
0.0450387
0.0479778
0.0510773
0.0543329
0.0577391
0.0612892
0.064975
0.068787
0.0727139
0.076743
0.0808599
0.0850485
0.0892911
0.0935682
0.0978589
0.102141
0.10639
0.110581
0.114689
0.118687
0.122547
0.126243
0.129747
0.133032
0.136073
0.138846
0.141328
0.143497
0.145336
0.14683
0.147966
0.148735
0.149107
0.0339562
0.0342182
0.0347418
0.0355281
0.0365783
0.037894
0.0394772
0.04133
0.0434546
0.0458533
0.0485283
0.0514817
0.054715
0.0582295
0.0620258
0.0661036
0.0704617
0.0750978
0.0800079
0.0851868
0.0906274
0.0963207
0.102255
0.108418
0.114793
0.121361
0.128101
0.13499
0.142
0.149101
0.156262
0.163446
0.170618
0.177736
0.184758
0.191642
0.198342
0.204813
0.211009
0.216885
0.222395
0.227496
0.232147
0.23631
0.23995
0.243035
0.245539
0.247442
0.248728
0.249371
0.0474876
0.0478546
0.0485885
0.049691
0.0511638
0.0530092
0.0552299
0.0578289
0.0608095
0.0641749
0.0679285
0.0720732
0.0766115
0.0815453
0.0868755
0.0926021
0.0987235
0.105237
0.112136
0.119415
0.127064
0.135069
0.143417
0.152087
0.161057
0.170303
0.179793
0.189495
0.199371
0.209378
0.219472
0.229602
0.239717
0.249759
0.259669
0.269386
0.278846
0.287985
0.296738
0.305039
0.312826
0.320037
0.326612
0.332498
0.337645
0.342007
0.345547
0.348233
0.35004
0.350947
0.0609569
0.0614295
0.062375
0.0637955
0.0656932
0.0680712
0.0709332
0.0742831
0.0781254
0.0824644
0.0873046
0.0926502
0.0985045
0.10487
0.111749
0.119142
0.127046
0.135458
0.144371
0.153778
0.163666
0.174018
0.184816
0.196035
0.207647
0.21962
0.231914
0.244486
0.257289
0.270267
0.283363
0.296511
0.309643
0.322686
0.335563
0.348193
0.360494
0.372381
0.383769
0.394573
0.404711
0.4141
0.422665
0.430334
0.437039
0.442723
0.447335
0.450833
0.453184
0.454365
0.0743444
0.0749234
0.0760819
0.0778224
0.080148
0.0830624
0.0865704
0.090677
0.095388
0.100709
0.106646
0.113204
0.120388
0.128202
0.136649
0.145728
0.155439
0.165778
0.176737
0.188307
0.200472
0.213215
0.226512
0.240333
0.254646
0.269408
0.284575
0.300092
0.315901
0.331934
0.34812
0.364379
0.380626
0.39677
0.412715
0.428363
0.443609
0.458348
0.472474
0.485882
0.498467
0.510127
0.520766
0.530293
0.538627
0.545692
0.551425
0.555772
0.558694
0.560162
0.0876288
0.0883151
0.0896881
0.0917511
0.0945078
0.097963
0.102122
0.106993
0.11258
0.118894
0.125939
0.133724
0.142254
0.151535
0.161571
0.172363
0.18391
0.196208
0.209251
0.223025
0.237517
0.252703
0.268557
0.285046
0.302129
0.31976
0.337882
0.356435
0.375346
0.394538
0.413923
0.433407
0.452888
0.472256
0.491397
0.510191
0.528512
0.546233
0.563226
0.579362
0.594514
0.608558
0.621378
0.632861
0.642909
0.651428
0.658343
0.663587
0.667111
0.668882
0.100787
0.101581
0.103171
0.105559
0.10875
0.112751
0.117568
0.123209
0.129683
0.136999
0.145166
0.154193
0.164088
0.174858
0.186508
0.199042
0.212458
0.226754
0.241923
0.257952
0.274824
0.292515
0.310995
0.330227
0.350164
0.370754
0.391932
0.413626
0.435755
0.458227
0.480942
0.503787
0.526644
0.549385
0.571873
0.593968
0.61552
0.63638
0.656394
0.675409
0.693274
0.709841
0.724969
0.738527
0.750393
0.760457
0.768627
0.774825
0.778991
0.781083
0.113793
0.114697
0.116504
0.11922
0.12285
0.127401
0.132882
0.139302
0.146672
0.155003
0.164306
0.174592
0.185872
0.198155
0.211447
0.225754
0.241077
0.257414
0.274757
0.293096
0.312411
0.332677
0.353861
0.375921
0.398808
0.42246
0.446807
0.471767
0.497247
0.523141
0.549335
0.575701
0.602101
0.628387
0.654402
0.679979
0.704948
0.729131
0.752348
0.774422
0.795172
0.814426
0.832017
0.847788
0.861597
0.873314
0.882828
0.890047
0.894899
0.897337
0.12662
0.127633
0.12966
0.132707
0.136779
0.141886
0.148037
0.155244
0.16352
0.172878
0.183332
0.194896
0.207582
0.221402
0.236367
0.252482
0.269751
0.288175
0.307747
0.328455
0.350282
0.3732
0.397174
0.422161
0.448103
0.474936
0.502581
0.530945
0.559926
0.589405
0.619251
0.64932
0.679454
0.709485
0.739231
0.768502
0.797101
0.824822
0.851457
0.876797
0.900635
0.922768
0.943002
0.961153
0.977052
0.990548
1.00151
1.00983
1.01542
1.01823
0.139236
0.14036
0.142608
0.145988
0.150507
0.156174
0.163002
0.171004
0.180196
0.190594
0.202214
0.215073
0.229187
0.244571
0.261239
0.279198
0.298458
0.319018
0.340875
0.364018
0.388431
0.414085
0.440945
0.468963
0.498079
0.528223
0.559307
0.591233
0.623883
0.657128
0.69082
0.724799
0.758885
0.792887
0.8266
0.859807
0.892281
0.923787
0.954085
0.982935
1.01009
1.03533
1.05842
1.07914
1.0973
1.11272
1.12525
1.13477
1.14117
1.14438
0.151609
0.152844
0.155315
0.15903
0.163998
0.17023
0.17774
0.186545
0.196663
0.208112
0.220912
0.235085
0.250649
0.267624
0.286026
0.305868
0.327161
0.349909
0.374111
0.399759
0.426837
0.455318
0.485165
0.516329
0.548747
0.582343
0.617025
0.652682
0.68919
0.726402
0.764158
0.802276
0.840558
0.878788
0.916735
0.954152
0.990781
1.02635
1.0606
1.09323
1.12399
1.15258
1.17876
1.20228
1.2229
1.24042
1.25466
1.26548
1.27276
1.27641
0.163701
0.165047
0.167743
0.171795
0.177215
0.184015
0.192213
0.201827
0.212878
0.22539
0.239385
0.254888
0.271924
0.290515
0.310683
0.332445
0.355816
0.380805
0.407414
0.435639
0.465465
0.496867
0.529809
0.564242
0.6001
0.637302
0.67575
0.715327
0.755896
0.797299
0.839358
0.881873
0.924623
0.967367
1.00985
1.05178
1.09288
1.13284
1.17135
1.20809
1.24275
1.275
1.30455
1.33112
1.35443
1.37425
1.39037
1.40261
1.41085
1.41499
0.175473
0.176932
0.179852
0.184242
0.190116
0.197487
0.206376
0.216804
0.228796
0.242379
0.257581
0.274431
0.292957
0.31319
0.335153
0.358872
0.384366
0.411649
0.440727
0.471602
0.504261
0.538683
0.574834
0.612664
0.652108
0.69308
0.735478
0.779177
0.824029
0.869866
0.91649
0.963684
1.0112
1.05878
1.10613
1.15293
1.19886
1.24357
1.28671
1.32792
1.36682
1.40307
1.43632
1.46623
1.49249
1.51484
1.53302
1.54684
1.55614
1.56082
0.186882
0.188453
0.191598
0.196327
0.202655
0.210598
0.22018
0.231426
0.244364
0.259025
0.275443
0.293652
0.313687
0.335582
0.35937
0.38508
0.412739
0.442367
0.473977
0.507575
0.543154
0.580698
0.620175
0.661536
0.704718
0.749633
0.796175
0.844212
0.893588
0.94412
0.995598
1.04778
1.1004
1.15317
1.20575
1.25781
1.30896
1.35883
1.40702
1.4531
1.49666
1.53729
1.5746
1.60819
1.63771
1.66285
1.68332
1.69888
1.70936
1.71462
0.197883
0.199565
0.202934
0.208001
0.214782
0.223297
0.233572
0.245636
0.259522
0.275266
0.292907
0.312485
0.334042
0.357618
0.383255
0.410988
0.440851
0.472873
0.507075
0.543468
0.582054
0.62282
0.665741
0.710772
0.75785
0.806889
0.857779
0.910385
0.964541
1.02005
1.07669
1.1342
1.19229
1.25063
1.30886
1.3666
1.42344
1.47893
1.53261
1.58403
1.63271
1.67817
1.71995
1.75761
1.79075
1.81898
1.84198
1.85948
1.87127
1.8772
0.208425
0.210219
0.21381
0.219213
0.226444
0.235529
0.246494
0.259374
0.274207
0.291034
0.3099
0.330853
0.353941
0.379213
0.406717
0.436499
0.468603
0.503064
0.539912
0.579169
0.620845
0.664934
0.711418
0.760259
0.811395
0.864745
0.920197
0.977612
1.03682
1.09761
1.15975
1.22295
1.2869
1.35124
1.41558
1.47948
1.54249
1.60412
1.66383
1.72112
1.77542
1.82621
1.87295
1.91514
1.95228
1.98396
2.0098
2.02946
2.04271
2.04937
0.218458
0.220361
0.224172
0.229907
0.237585
0.247233
0.258883
0.272573
0.288348
0.306254
0.326343
0.348671
0.373293
0.400269
0.429655
0.461507
0.495878
0.532816
0.572362
0.614547
0.659391
0.7069
0.757064
0.809852
0.865211
0.923062
0.983296
1.04577
1.11032
1.17671
1.2447
1.31399
1.38423
1.45504
1.52599
1.59659
1.66633
1.73466
1.801
1.86474
1.92527
1.98196
2.03421
2.08143
2.12305
2.15859
2.18759
2.20968
2.22457
2.23206
0.227925
0.229936
0.233964
0.240025
0.248142
0.258346
0.270671
0.285163
0.301869
0.320845
0.342149
0.365846
0.392
0.420679
0.451953
0.485887
0.522547
0.561993
0.604278
0.649446
0.69753
0.74855
0.802505
0.859376
0.91912
0.981664
1.04691
1.1147
1.18488
1.25722
1.33144
1.40724
1.48424
1.56203
1.64012
1.718
1.7951
1.87078
1.9444
2.01528
2.0827
2.14596
2.20435
2.25719
2.30383
2.34369
2.37625
2.40107
2.41781
2.42624
0.236771
0.238887
0.243126
0.249506
0.258053
0.2688
0.281789
0.297066
0.31469
0.33472
0.357224
0.382276
0.40995
0.440326
0.473484
0.509503
0.548462
0.590435
0.635491
0.683688
0.735075
0.789686
0.847536
0.90862
0.972906
1.04033
1.11081
1.18419
1.26031
1.33894
1.4198
1.50256
1.58682
1.67213
1.75798
1.84379
1.92892
2.01268
2.09434
2.1731
2.24819
2.31876
2.38402
2.44316
2.49545
2.54018
2.57676
2.60466
2.6235
2.63298
0.244935
0.247153
0.251597
0.258287
0.267251
0.278526
0.292159
0.308204
0.326723
0.347785
0.371467
0.397851
0.427025
0.459079
0.494107
0.532203
0.573459
0.617968
0.665813
0.717071
0.771811
0.830082
0.891919
0.957334
1.02631
1.09881
1.17474
1.25397
1.33635
1.42163
1.50955
1.59974
1.6918
1.78524
1.8795
1.97394
2.06787
2.16052
2.25104
2.33857
2.42218
2.50094
2.57389
2.64014
2.69879
2.74904
2.79017
2.82158
2.84279
2.85347
0.252357
0.254673
0.259313
0.266301
0.275666
0.287451
0.301705
0.318491
0.337877
0.359941
0.384769
0.412455
0.443097
0.4768
0.513671
0.55382
0.597358
0.644394
0.695031
0.749369
0.807492
0.869477
0.935378
1.00523
1.07904
1.15677
1.23837
1.32373
1.41267
1.50499
1.60039
1.69852
1.79895
1.90115
2.00453
2.1084
2.21197
2.3144
2.41474
2.51201
2.60514
2.69307
2.77469
2.84895
2.91481
2.97132
3.01764
3.05304
3.07696
3.08902
0.258974
0.261383
0.26621
0.27348
0.283228
0.295497
0.310346
0.32784
0.348058
0.371085
0.397019
0.425963
0.458029
0.493337
0.53201
0.574176
0.619963
0.6695
0.722915
0.780327
0.841849
0.907579
0.9776
1.05197
1.13073
1.21386
1.30134
1.39306
1.48889
1.58862
1.69196
1.79855
1.90795
2.0196
2.13287
2.24701
2.36116
2.47437
2.5856
2.69371
2.79751
2.89575
2.98716
3.0705
3.14456
3.20821
3.26045
3.30043
3.32746
3.3411
0.264725
0.267221
0.272223
0.279758
0.289864
0.302589
0.317998
0.336161
0.357167
0.381109
0.408096
0.438244
0.471678
0.508534
0.548951
0.593077
0.641061
0.693054
0.749208
0.809669
0.874578
0.944062
1.01824
1.09719
1.18099
1.26966
1.36319
1.46153
1.56455
1.67205
1.78378
1.89937
2.01837
2.14021
2.2642
2.38954
2.51529
2.64042
2.76373
2.88395
2.99971
3.10958
3.21208
3.30575
3.38917
3.461
3.52004
3.56528
3.5959
3.61135
0.269546
0.272122
0.277285
0.285065
0.295501
0.30865
0.324577
0.343363
0.365103
0.389902
0.417879
0.449163
0.483894
0.522223
0.564309
0.610319
0.660426
0.714806
0.773636
0.837094
0.90535
0.978567
1.05689
1.14046
1.22936
1.32368
1.42343
1.52859
1.63908
1.75473
1.8753
2.00044
2.1297
2.26248
2.39808
2.53564
2.67413
2.81241
2.94915
3.08291
3.21213
3.33515
3.45025
3.55572
3.64987
3.73111
3.798
3.84932
3.8841
3.90166
0.273377
0.276025
0.281333
0.289333
0.300069
0.3136
0.329999
0.349353
0.371766
0.397352
0.426243
0.45858
0.494521
0.534231
0.577891
0.625688
0.67782
0.73449
0.795905
0.862275
0.933806
1.0107
1.09314
1.18131
1.27535
1.37538
1.48147
1.59364
1.71186
1.836
1.96585
2.10109
2.24127
2.38581
2.53396
2.68482
2.83729
2.99011
3.1418
3.29073
3.43513
3.57306
3.70254
3.82153
3.92803
4.02015
4.09615
4.15454
4.19416
4.21418
0.276158
0.278869
0.284304
0.292498
0.303496
0.317364
0.33418
0.35404
0.377053
0.403346
0.433062
0.466356
0.503401
0.544382
0.589498
0.638961
0.692993
0.751828
0.815704
0.884867
0.959563
1.04003
1.12652
1.21924
1.31839
1.42415
1.53665
1.65598
1.78214
1.91507
2.05462
2.20049
2.35227
2.5094
2.6711
2.83644
3.00424
3.17312
3.34147
3.50743
3.66897
3.82388
3.96981
4.10436
4.22516
4.32991
4.41653
4.4832
4.52849
4.55138
0.277832
0.280595
0.286137
0.294494
0.305715
0.319869
0.337041
0.357333
0.380864
0.407772
0.43821
0.472348
0.510374
0.552494
0.598926
0.649907
0.705687
0.766529
0.832707
0.904505
0.982212
1.06612
1.15651
1.25367
1.35787
1.46933
1.58826
1.71481
1.84908
1.99107
2.14068
2.29769
2.46175
2.63229
2.80858
2.98964
3.17424
3.36089
3.54779
3.73288
3.91385
4.08812
4.25295
4.4055
4.54291
4.66242
4.76149
4.83789
4.88986
4.91617
0.278346
0.28115
0.286777
0.295262
0.30666
0.321043
0.338502
0.359146
0.383103
0.41052
0.441563
0.476416
0.515283
0.558387
0.605972
0.658296
0.715639
0.778295
0.846577
0.920808
1.00132
1.08847
1.18259
1.28402
1.39311
1.51016
1.63547
1.76926
1.91172
2.06295
2.22294
2.39156
2.56852
2.75332
2.94526
3.14335
3.34632
3.55258
3.76017
3.9668
4.16981
4.36623
4.55286
4.72631
4.88314
5.01998
5.13373
5.22166
5.28157
5.31191
0.27765
0.280484
0.28617
0.294747
0.306271
0.32082
0.33849
0.359397
0.383677
0.411486
0.443002
0.478423
0.51797
0.561885
0.610431
0.663895
0.722583
0.786824
0.856969
0.933384
1.01646
1.10658
1.20418
1.30965
1.42341
1.54587
1.6774
1.81835
1.969
2.12957
2.30017
2.48078
2.67121
2.87107
3.07971
3.29619
3.51921
3.74711
3.97776
4.20863
4.4367
4.65856
4.87042
5.06824
5.24787
5.40521
5.5364
5.63806
5.70745
5.74264
0.275703
0.278553
0.284271
0.292898
0.304495
0.319142
0.33694
0.358011
0.382499
0.410571
0.442414
0.478242
0.518288
0.562815
0.612107
0.666476
0.726257
0.791815
0.863537
0.941837
1.02715
1.11994
1.22069
1.32987
1.44801
1.57558
1.71309
1.861
2.01972
2.18961
2.37093
2.56381
2.7682
2.98384
3.21022
3.44645
3.69128
3.94299
4.19933
4.4575
4.71412
4.96524
5.20642
5.43282
5.63939
5.82109
5.97314
6.0913
6.17211
6.21314
0.272467
0.275318
0.28104
0.289674
0.301285
0.315955
0.33379
0.354919
0.379493
0.407686
0.439696
0.47575
0.516096
0.561014
0.61081
0.665819
0.726407
0.79297
0.865938
0.94577
1.03296
1.12802
1.23151
1.34401
1.4661
1.5984
1.74152
1.89606
2.06259
2.24164
2.43363
2.6389
2.8576
3.08965
3.3347
3.59203
3.86047
4.1383
4.42318
4.7121
5.00127
5.28616
5.56154
5.82161
6.0602
6.27108
6.44825
6.58637
6.68104
6.72918
0.267914
0.270751
0.276445
0.28504
0.296601
0.311215
0.328992
0.350064
0.37459
0.40275
0.434755
0.470839
0.511267
0.556333
0.606364
0.661718
0.72279
0.790009
0.863842
0.944796
1.03342
1.13029
1.23605
1.35134
1.47688
1.61338
1.7616
1.92229
2.0962
2.28405
2.48649
2.70408
2.93724
3.18613
3.45067
3.73034
4.02416
4.33052
4.64705
4.97056
5.29686
5.62079
5.93622
6.23616
6.51306
6.75913
6.96681
7.12927
7.24092
7.29778
0.262023
0.26483
0.270464
0.27897
0.290416
0.30489
0.322505
0.343399
0.367734
0.395699
0.427511
0.463415
0.503688
0.548638
0.598611
0.653986
0.715183
0.782664
0.856935
0.938546
1.0281
1.12624
1.23368
1.35117
1.47951
1.61955
1.7722
1.93838
2.11903
2.31512
2.52754
2.75714
3.00464
3.27057
3.55515
3.85824
4.17913
4.51644
4.8679
5.23021
5.59887
5.96803
6.33053
6.67795
7.00098
7.28982
7.53484
7.72728
7.8599
7.92754
0.254782
0.257542
0.263082
0.271448
0.282709
0.296955
0.314302
0.33489
0.358885
0.386481
0.417902
0.453401
0.493266
0.537816
0.587413
0.642456
0.703388
0.770699
0.84493
0.926676
1.01659
1.11538
1.22383
1.34279
1.47316
1.61594
1.77218
1.94298
2.12953
2.33301
2.55465
2.79562
3.05703
3.33983
3.6447
3.97197
4.32138
4.69196
5.08171
5.48741
5.90431
6.32593
6.74393
7.1482
7.52718
7.86845
8.15961
8.38928
8.54802
8.62914
0.246192
0.248886
0.254297
0.262471
0.273475
0.287401
0.304368
0.324516
0.348015
0.375062
0.405884
0.440743
0.47993
0.52378
0.572662
0.626993
0.687237
0.753908
0.827578
0.908881
0.998517
1.09726
1.20596
1.32555
1.45706
1.6016
1.76039
1.93474
2.12605
2.33581
2.56555
2.81687
3.09132
3.39037
3.71529
4.06705
4.44605
4.85194
5.28327
5.73716
6.20883
6.69128
7.17494
7.64767
8.09505
8.50118
8.84988
9.12622
9.31781
9.41587
0.236261
0.238873
0.244119
0.252044
0.262718
0.276232
0.292703
0.312274
0.335116
0.361426
0.391435
0.425406
0.463637
0.506468
0.554279
0.607497
0.666602
0.732128
0.804674
0.884906
0.973567
1.07148
1.17957
1.29885
1.43045
1.57562
1.73573
1.9123
2.10698
2.32154
2.5579
2.81807
3.10416
3.41825
3.76235
4.13824
4.54724
4.98995
5.46582
5.97271
6.50622
7.0591
7.62061
8.17626
8.70798
9.19513
9.61635
9.95176
10.185
10.3045
0.22501
0.227522
0.232566
0.240189
0.250458
0.263464
0.279323
0.298178
0.320197
0.345579
0.374553
0.407384
0.44437
0.485855
0.532222
0.583907
0.641399
0.705248
0.776069
0.854556
0.941485
1.03773
1.14426
1.26217
1.39269
1.53719
1.69719
1.87441
2.07074
2.28826
2.52929
2.79631
3.092
3.4192
3.78077
4.17953
4.618
5.09811
5.62074
6.18506
6.78772
7.42179
8.07569
8.73236
9.36908
9.95867
10.4723
10.8831
11.1695
11.3165
0.212473
0.214866
0.219673
0.226937
0.236727
0.24913
0.264261
0.282259
0.30329
0.32755
0.355265
0.386698
0.422145
0.461947
0.50649
0.556208
0.611596
0.67321
0.741677
0.817707
0.9021
0.99576
1.09971
1.2151
1.34324
1.48561
1.64387
1.81991
2.01587
2.23413
2.47739
2.74864
3.05119
3.38868
3.76497
4.18413
4.6502
5.16689
5.73715
6.36232
7.04109
7.76797
8.53137
9.31181
10.0807
10.8016
11.4345
11.9425
12.2969
12.4788
0.198695
0.200951
0.205484
0.212337
0.221573
0.233279
0.247565
0.264566
0.284444
0.307389
0.333623
0.363399
0.397011
0.434792
0.477123
0.524434
0.577216
0.636023
0.701486
0.77432
0.855336
0.945457
1.04573
1.15737
1.28172
1.42035
1.57505
1.74785
1.94111
2.15749
2.40004
2.67227
2.97813
3.32208
3.7091
4.14467
4.63466
5.18507
5.80164
6.48902
7.24945
8.08073
8.97318
9.90596
10.8436
11.7359
12.5247
13.1586
13.6002
13.8263
0.183733
0.185835
0.190059
0.196446
0.205057
0.215973
0.229301
0.24517
0.263733
0.285174
0.309704
0.33757
0.369053
0.404477
0.44421
0.488673
0.538344
0.593768
0.655567
0.724448
0.801221
0.886812
0.982281
1.08885
1.20791
1.34108
1.49024
1.65753
1.84547
2.05696
2.2954
2.5647
2.86945
3.21494
3.60727
4.05345
4.56139
5.13984
5.79811
6.54548
7.38982
8.33521
9.3776
10.4982
11.6549
12.7765
13.7728
14.5702
15.122
15.403
0.167655
0.169587
0.173469
0.17934
0.187256
0.197294
0.209555
0.224158
0.24125
0.261003
0.283617
0.309325
0.338394
0.371132
0.407889
0.449069
0.495131
0.546599
0.604075
0.668247
0.739905
0.819959
0.909457
1.00961
1.12182
1.24773
1.38924
1.54857
1.72834
1.93162
2.16206
2.42393
2.72232
3.06329
3.45398
3.9029
4.42009
5.01729
5.70806
6.50757
7.43179
8.49535
9.70653
11.0571
12.5038
13.9453
15.2226
16.2303
16.9172
17.2636
0.150543
0.152289
0.155797
0.161103
0.168259
0.177337
0.188426
0.20164
0.217113
0.235003
0.255497
0.27881
0.305192
0.334928
0.368347
0.405825
0.447794
0.494749
0.547259
0.605979
0.671661
0.74518
0.827545
0.919933
1.02372
1.1405
1.27218
1.42099
1.58957
1.78107
1.99925
2.24865
2.5347
2.86402
3.24462
3.6863
4.20102
4.80346
5.51159
6.34731
7.33682
8.51029
9.89855
11.5222
13.3607
15.2807
16.9446
18.2136
19.0555
19.4731
0.132489
0.134034
0.13714
0.141837
0.148172
0.15621
0.166033
0.177741
0.191457
0.207322
0.225506
0.246205
0.269643
0.296081
0.325818
0.359199
0.396618
0.438531
0.485462
0.538016
0.596894
0.66291
0.737012
0.820308
0.9141
1.01992
1.13959
1.27527
1.42955
1.60555
1.80701
2.03852
2.30568
2.61537
2.97613
3.39862
3.89625
4.48599
5.18963
6.03534
7.06005
8.31259
9.85736
11.7747
14.1382
16.8743
19.0639
20.6263
21.6203
22.1025
0.113593
0.114925
0.117602
0.12165
0.127111
0.13404
0.142509
0.152607
0.164439
0.178133
0.193834
0.211716
0.231977
0.254846
0.280588
0.309507
0.341955
0.378336
0.419118
0.464843
0.516141
0.573745
0.638513
0.711455
0.793761
0.886841
0.992379
1.11239
1.2493
1.40606
1.58627
1.79434
2.03574
2.3173
2.64761
3.03755
3.50111
4.05643
4.72742
5.54624
6.55732
7.82456
9.44552
11.583
14.5451
19.0164
21.8123
23.6094
24.6989
25.2161
0.0939689
0.0950764
0.0973018
0.100666
0.105204
0.110962
0.118002
0.126396
0.136236
0.147627
0.160694
0.175581
0.192458
0.211518
0.232986
0.25712
0.28422
0.31463
0.348752
0.387049
0.430065
0.478431
0.532891
0.594323
0.663766
0.742457
0.831881
0.933824
1.05046
1.18442
1.33898
1.51817
1.72703
1.97192
2.2609
2.60435
3.01572
3.51272
4.11893
4.86645
5.80002
6.98442
8.5188
10.5684
13.4445
17.8355
20.5611
22.3017
23.3517
23.8484
0.0737345
0.0746082
0.0763645
0.0790157
0.0825901
0.0871256
0.0926705
0.0992841
0.107038
0.116016
0.126319
0.138062
0.151378
0.166425
0.18338
0.202453
0.223882
0.247946
0.274968
0.305322
0.339449
0.377861
0.421164
0.470074
0.525444
0.588291
0.659842
0.741579
0.83531
0.943257
1.06816
1.21346
1.38345
1.5836
1.82091
2.10443
2.44596
2.86105
3.37043
4.00192
4.79322
5.79564
7.07822
8.72859
10.8302
13.3216
15.2964
16.686
17.5591
17.979
0.053016
0.0536465
0.054921
0.0568355
0.0594138
0.0626846
0.0666834
0.0714534
0.0770467
0.0835247
0.0909599
0.0994365
0.109052
0.119921
0.132173
0.145961
0.16146
0.178874
0.198439
0.220432
0.245176
0.273049
0.3045
0.34006
0.38036
0.42616
0.478376
0.53812
0.606753
0.685953
0.777804
0.884918
1.01059
1.15904
1.33565
1.54745
1.80358
2.11608
2.50081
2.97857
3.57634
4.32773
5.27092
6.43859
7.82735
9.32525
10.6179
11.5879
12.2206
12.5306
0.031946
0.032315
0.0330863
0.0342434
0.0358006
0.0377756
0.04019
0.0430703
0.0464481
0.0503607
0.0548522
0.0599736
0.0657846
0.0723541
0.079762
0.0881008
0.0974774
0.108016
0.119862
0.133183
0.148178
0.165079
0.184161
0.20575
0.230235
0.258087
0.289869
0.326274
0.368144
0.416527
0.472724
0.538371
0.61554
0.706879
0.815801
0.946735
1.10546
1.29952
1.53878
1.83587
2.20648
2.66868
3.2398
3.92817
4.71599
5.53486
6.26275
6.82788
7.20547
7.393
0.0106701
0.010786
0.0110417
0.0114283
0.0119489
0.0126093
0.0134165
0.0143795
0.0155089
0.0168172
0.0183191
0.0200319
0.0219756
0.0241732
0.0266516
0.0294419
0.0325799
0.0361077
0.0400737
0.0445348
0.0495576
0.0552204
0.061616
0.0688544
0.0770674
0.0864132
0.0970836
0.109312
0.123386
0.139659
0.158575
0.180691
0.206714
0.237548
0.274358
0.318658
0.372421
0.438218
0.519373
0.620101
0.745501
0.901166
1.0919
1.31878
1.57409
1.83591
2.07086
2.25588
2.3809
2.4434
)
;

boundaryField
{
    walls
    {
        type            calculated;
        value           nonuniform List<scalar> 
200
(
0
0
0
0
0
0
0
0
0
0
0
0
0
0
0
0
0
0
0
0
0
0
0
0
0
0
0
0
0
0
0
0
0
0
0
0
0
0
0
0
0
0
0
0
0
0
0
0
0
0
0.00680579
0.0203945
0.0339562
0.0474876
0.0609569
0.0743444
0.0876288
0.100787
0.113793
0.12662
0.139236
0.151609
0.163701
0.175473
0.186882
0.197883
0.208425
0.218458
0.227925
0.236771
0.244935
0.252357
0.258974
0.264725
0.269546
0.273377
0.276158
0.277832
0.278346
0.27765
0.275703
0.272467
0.267914
0.262023
0.254782
0.246192
0.236261
0.22501
0.212473
0.198695
0.183733
0.167655
0.150543
0.132489
0.113593
0.0939689
0.0737345
0.053016
0.031946
0.0106701
0.0496183
0.149107
0.249371
0.350947
0.454365
0.560162
0.668882
0.781083
0.897337
1.01823
1.14438
1.27641
1.41499
1.56082
1.71462
1.8772
2.04937
2.23206
2.42624
2.63298
2.85347
3.08902
3.3411
3.61135
3.90166
4.21418
4.55138
4.91617
5.31191
5.74264
6.21314
6.72918
7.29778
7.92754
8.62914
9.41587
10.3045
11.3165
12.4788
13.8263
15.403
17.2636
19.4731
22.1025
25.2161
23.8484
17.979
12.5306
7.393
2.4434
0
0
0
0
0
0
0
0
0
0
0
0
0
0
0
0
0
0
0
0
0
0
0
0
0
0
0
0
0
0
0
0
0
0
0
0
0
0
0
0
0
0
0
0
0
0
0
0
0
0
)
;
    }
    frontAndBack
    {
        type            empty;
    }
}


// ************************************************************************* //
