/*--------------------------------*- C++ -*----------------------------------*\
| =========                 |                                                 |
| \\      /  F ield         | OpenFOAM: The Open Source CFD Toolbox           |
|  \\    /   O peration     | Version:  2406                                  |
|   \\  /    A nd           | Website:  www.openfoam.com                      |
|    \\/     M anipulation  |                                                 |
\*---------------------------------------------------------------------------*/
FoamFile
{
    version     2.0;
    format      ascii;
    arch        "LSB;label=32;scalar=64";
    class       volScalarField;
    location    "1.6";
    object      T;
}
// * * * * * * * * * * * * * * * * * * * * * * * * * * * * * * * * * * * * * //

dimensions      [0 0 0 1 0 0 0];

internalField   nonuniform List<scalar> 
2500
(
0.235681
0.235953
0.236496
0.237311
0.238396
0.239749
0.24137
0.243254
0.245401
0.247806
0.250466
0.253376
0.25653
0.259924
0.263549
0.267399
0.271464
0.275736
0.280203
0.284853
0.289674
0.29465
0.299768
0.305009
0.310357
0.315791
0.321292
0.326838
0.332405
0.337971
0.343511
0.348999
0.35441
0.359716
0.364891
0.369907
0.374739
0.379358
0.383739
0.387857
0.391687
0.395206
0.398393
0.401228
0.403692
0.405771
0.407451
0.408721
0.409572
0.409999
0.235953
0.236227
0.236775
0.237596
0.238689
0.240053
0.241686
0.243586
0.245749
0.248173
0.250854
0.253788
0.256968
0.26039
0.264045
0.267928
0.272028
0.276337
0.280843
0.285534
0.290398
0.29542
0.300585
0.305875
0.311274
0.31676
0.322315
0.327915
0.333539
0.339161
0.344758
0.350303
0.355771
0.361133
0.366364
0.371435
0.376319
0.38099
0.38542
0.389584
0.393458
0.397018
0.400242
0.403109
0.405603
0.407706
0.409406
0.410691
0.411552
0.411983
0.236496
0.236775
0.237331
0.238164
0.239274
0.240659
0.242318
0.244247
0.246445
0.248907
0.251631
0.254611
0.257844
0.261321
0.265038
0.268985
0.273155
0.277538
0.282122
0.286896
0.291847
0.29696
0.302219
0.307608
0.313108
0.3187
0.324362
0.330072
0.335807
0.341543
0.347254
0.352914
0.358496
0.363972
0.369314
0.374495
0.379486
0.38426
0.388789
0.393047
0.397008
0.400649
0.403947
0.406881
0.409432
0.411585
0.413324
0.414639
0.415521
0.415963
0.237311
0.237596
0.238164
0.239017
0.240152
0.241569
0.243265
0.245239
0.247487
0.250008
0.252796
0.255847
0.259157
0.262719
0.266527
0.270572
0.274847
0.27934
0.284043
0.288941
0.294023
0.299273
0.304675
0.310212
0.315865
0.321615
0.327439
0.333315
0.339219
0.345125
0.351008
0.356841
0.362595
0.368243
0.373754
0.379101
0.384253
0.389182
0.393861
0.39826
0.402354
0.406118
0.409528
0.412562
0.415201
0.417428
0.419228
0.420588
0.421501
0.421958
0.238396
0.238689
0.239274
0.240152
0.241321
0.24278
0.244527
0.24656
0.248877
0.251474
0.254348
0.257494
0.260908
0.264583
0.268513
0.272689
0.277104
0.281747
0.286607
0.291673
0.296929
0.302363
0.307956
0.313692
0.319551
0.325512
0.331553
0.337652
0.343782
0.349918
0.356033
0.362098
0.368084
0.373962
0.379701
0.38527
0.39064
0.395779
0.400658
0.405248
0.409521
0.41345
0.417011
0.420181
0.422938
0.425265
0.427146
0.428569
0.429523
0.430001
0.239749
0.240053
0.240659
0.241569
0.24278
0.244292
0.246102
0.24821
0.250612
0.253306
0.256288
0.259553
0.263097
0.266914
0.270996
0.275338
0.279928
0.284759
0.289818
0.295093
0.30057
0.306234
0.312068
0.318054
0.324171
0.3304
0.336715
0.343094
0.34951
0.355936
0.362343
0.368702
0.374981
0.38115
0.387177
0.393028
0.398673
0.404078
0.409211
0.414043
0.418542
0.422682
0.426434
0.429775
0.432683
0.435137
0.437121
0.438622
0.439628
0.440133
0.24137
0.241686
0.242318
0.243265
0.244527
0.246102
0.24799
0.250187
0.252692
0.255503
0.258614
0.262023
0.265724
0.269711
0.273979
0.278518
0.283321
0.288378
0.293677
0.299205
0.304948
0.310891
0.317017
0.323305
0.329736
0.336288
0.342936
0.349655
0.356418
0.363195
0.369958
0.376673
0.383309
0.389833
0.396209
0.402405
0.408384
0.414113
0.419557
0.424683
0.42946
0.433855
0.437842
0.441392
0.444483
0.447093
0.449203
0.4508
0.451871
0.452407
0.243254
0.243586
0.244247
0.245239
0.24656
0.24821
0.250187
0.25249
0.255116
0.258062
0.261325
0.264902
0.268787
0.272975
0.277459
0.282232
0.287285
0.292607
0.298188
0.304014
0.31007
0.316342
0.32281
0.329455
0.336256
0.34319
0.350231
0.357352
0.364524
0.371717
0.3789
0.386038
0.393097
0.40004
0.406833
0.413436
0.419813
0.425927
0.43174
0.437217
0.442323
0.447024
0.451289
0.45509
0.458399
0.461194
0.463455
0.465165
0.466313
0.466888
0.245401
0.245749
0.246445
0.247487
0.248877
0.250612
0.252692
0.255116
0.25788
0.260982
0.264421
0.26819
0.272287
0.276705
0.281439
0.28648
0.29182
0.297448
0.303354
0.309523
0.315941
0.322592
0.329456
0.336514
0.343743
0.351118
0.358614
0.3662
0.373848
0.381525
0.389195
0.396825
0.404375
0.411808
0.419084
0.426164
0.433005
0.439568
0.445813
0.4517
0.457191
0.462249
0.466841
0.470934
0.474499
0.477511
0.479948
0.481793
0.48303
0.483651
0.247806
0.248173
0.248907
0.250008
0.251474
0.253306
0.255503
0.258062
0.260982
0.264262
0.267898
0.271886
0.276222
0.280901
0.285917
0.291262
0.296928
0.302904
0.309178
0.315737
0.322567
0.329649
0.336964
0.344492
0.352209
0.360088
0.368103
0.376222
0.384414
0.392643
0.400873
0.409066
0.417181
0.425176
0.433009
0.440635
0.448011
0.455092
0.461834
0.468194
0.47413
0.479601
0.48457
0.489001
0.492863
0.496127
0.498768
0.500767
0.502109
0.502782
0.250466
0.250854
0.251631
0.252796
0.254348
0.256288
0.258614
0.261325
0.264421
0.267898
0.271754
0.275986
0.28059
0.285562
0.290894
0.296579
0.30261
0.308975
0.315664
0.322661
0.329953
0.33752
0.345343
0.353401
0.361667
0.370116
0.378717
0.387438
0.396245
0.405101
0.413965
0.422797
0.431553
0.440188
0.448654
0.456904
0.464889
0.472561
0.479871
0.486772
0.493216
0.49916
0.504561
0.50938
0.513581
0.517133
0.520009
0.522186
0.523647
0.52438
0.253376
0.253788
0.254611
0.255847
0.257494
0.259553
0.262023
0.264902
0.26819
0.271886
0.275986
0.280489
0.28539
0.290684
0.296367
0.30243
0.308866
0.315664
0.322813
0.330298
0.338104
0.346212
0.354602
0.363251
0.372132
0.381217
0.390475
0.399872
0.409369
0.418928
0.428506
0.438058
0.447536
0.456891
0.466073
0.475027
0.483702
0.492044
0.499998
0.507512
0.514534
0.521014
0.526907
0.532167
0.536755
0.540635
0.543778
0.546158
0.547756
0.548557
0.25653
0.256968
0.257844
0.259157
0.260908
0.263097
0.265724
0.268787
0.272287
0.276222
0.28059
0.28539
0.290616
0.296267
0.302335
0.308814
0.315696
0.322972
0.330628
0.338652
0.347026
0.355733
0.36475
0.374054
0.383617
0.39341
0.403398
0.413546
0.423813
0.434157
0.444532
0.454888
0.465176
0.475339
0.485323
0.49507
0.50452
0.513615
0.522295
0.530501
0.538176
0.545263
0.551711
0.557471
0.562497
0.56675
0.570195
0.572805
0.574557
0.575436
0.259924
0.26039
0.261321
0.262719
0.264583
0.266914
0.269711
0.272975
0.276705
0.280901
0.285562
0.290684
0.296267
0.302305
0.308794
0.315728
0.323099
0.330897
0.33911
0.347724
0.356723
0.366087
0.375795
0.38582
0.396136
0.406709
0.417505
0.428485
0.439605
0.45082
0.46208
0.473333
0.484521
0.495586
0.506466
0.517099
0.527418
0.537357
0.546852
0.555835
0.564244
0.572014
0.579089
0.585412
0.590932
0.595605
0.599393
0.602262
0.60419
0.605156
0.263549
0.264045
0.265038
0.266527
0.268513
0.270996
0.273979
0.277459
0.281439
0.285917
0.290894
0.296367
0.302335
0.308794
0.315741
0.323169
0.331071
0.339438
0.348257
0.357516
0.367196
0.37728
0.387743
0.39856
0.409701
0.421133
0.432817
0.444713
0.456774
0.468952
0.481191
0.493436
0.505624
0.51769
0.529568
0.541187
0.552475
0.563358
0.573763
0.583618
0.592848
0.601386
0.609164
0.61612
0.622197
0.627343
0.631516
0.634679
0.636803
0.637869
0.267399
0.267928
0.268985
0.270572
0.272689
0.275338
0.278518
0.282232
0.28648
0.291262
0.296579
0.30243
0.308814
0.315728
0.323169
0.331131
0.339608
0.348591
0.358069
0.368027
0.378449
0.389315
0.400602
0.412282
0.424325
0.436695
0.449352
0.462253
0.475348
0.488585
0.501904
0.515244
0.528537
0.541713
0.554696
0.567411
0.579776
0.591711
0.603132
0.613959
0.62411
0.633506
0.642073
0.649739
0.656441
0.662119
0.666725
0.670217
0.672564
0.673741
0.271464
0.272028
0.273155
0.274847
0.277104
0.279928
0.283321
0.287285
0.29182
0.296928
0.30261
0.308866
0.315696
0.323099
0.331071
0.339608
0.348705
0.358352
0.36854
0.379254
0.390479
0.402193
0.414373
0.426991
0.440015
0.453408
0.467128
0.481128
0.495356
0.509754
0.524259
0.538804
0.553315
0.567715
0.581923
0.595851
0.609412
0.622515
0.635068
0.646979
0.658157
0.668513
0.677962
0.686424
0.693827
0.700103
0.705195
0.709058
0.711654
0.712957
0.275736
0.276337
0.277538
0.27934
0.281747
0.284759
0.288378
0.292607
0.297448
0.302904
0.308975
0.315664
0.322972
0.330897
0.339438
0.348591
0.358352
0.368714
0.379665
0.391194
0.403283
0.415912
0.429058
0.442692
0.45678
0.471284
0.48616
0.501358
0.516821
0.532489
0.548294
0.564162
0.580013
0.595762
0.61132
0.62659
0.641476
0.655875
0.669686
0.682804
0.695127
0.706555
0.716991
0.726344
0.734532
0.741478
0.747117
0.751396
0.754272
0.755716
0.280203
0.280843
0.282122
0.284043
0.286607
0.289818
0.293677
0.298188
0.303354
0.309178
0.315664
0.322813
0.330628
0.33911
0.348257
0.358069
0.36854
0.379665
0.391435
0.403836
0.416854
0.430469
0.444656
0.459385
0.474624
0.490331
0.50646
0.522959
0.539768
0.556822
0.574047
0.591364
0.608685
0.625917
0.642962
0.659714
0.676065
0.691901
0.707108
0.721568
0.735167
0.747791
0.75933
0.769681
0.778749
0.786446
0.792699
0.797445
0.800636
0.802239
0.284853
0.285534
0.286896
0.288941
0.291673
0.295093
0.299205
0.304014
0.309523
0.315737
0.322661
0.330298
0.338652
0.347724
0.357516
0.368027
0.379254
0.391194
0.403836
0.417171
0.431184
0.445854
0.461159
0.477067
0.493545
0.510551
0.528036
0.545946
0.564216
0.582778
0.601552
0.620452
0.639383
0.658243
0.676924
0.69531
0.71328
0.730707
0.747462
0.763415
0.778435
0.792393
0.805165
0.816632
0.826685
0.835226
0.842167
0.847439
0.850985
0.852766
0.289674
0.290398
0.291847
0.294023
0.296929
0.30057
0.304948
0.31007
0.315941
0.322567
0.329953
0.338104
0.347026
0.356723
0.367196
0.378449
0.390479
0.403283
0.416854
0.431184
0.446257
0.462056
0.478557
0.49573
0.51354
0.531944
0.550892
0.570327
0.590181
0.61038
0.630839
0.651466
0.672157
0.692802
0.713281
0.733466
0.753222
0.772409
0.790881
0.808493
0.825095
0.840541
0.854691
0.867408
0.878567
0.888054
0.895769
0.901632
0.905576
0.907559
0.29465
0.29542
0.29696
0.299273
0.302363
0.306234
0.310891
0.316342
0.322592
0.329649
0.33752
0.346212
0.355733
0.366087
0.37728
0.389315
0.402193
0.415912
0.430469
0.445854
0.462056
0.479057
0.496835
0.515361
0.534598
0.554503
0.575026
0.596105
0.61767
0.639643
0.661934
0.684441
0.707055
0.729653
0.752104
0.774268
0.795995
0.817127
0.837504
0.856958
0.875322
0.89243
0.90812
0.922237
0.934637
0.945187
0.953774
0.960302
0.964696
0.966905
0.299768
0.300585
0.302219
0.304675
0.307956
0.312068
0.317017
0.32281
0.329456
0.336964
0.345343
0.354602
0.36475
0.375795
0.387743
0.400602
0.414373
0.429058
0.444656
0.461159
0.478557
0.496835
0.515972
0.535939
0.556701
0.578215
0.600427
0.623276
0.646688
0.670579
0.694855
0.719407
0.744115
0.768849
0.793462
0.817802
0.841701
0.864985
0.887471
0.908973
0.9293
0.948264
0.965679
0.981366
0.995159
1.00691
1.01647
1.02375
1.02865
1.03112
0.305009
0.305875
0.307608
0.310212
0.313692
0.318054
0.323305
0.329455
0.336514
0.344492
0.353401
0.363251
0.374054
0.38582
0.39856
0.412282
0.426991
0.442692
0.459385
0.477067
0.49573
0.515361
0.535939
0.55744
0.579827
0.603058
0.627079
0.651827
0.677226
0.703188
0.729612
0.756383
0.783372
0.810437
0.837419
0.864148
0.890441
0.916102
0.940928
0.964706
0.987222
1.00826
1.02761
1.04506
1.06042
1.07352
1.08419
1.09232
1.09779
1.10055
0.310357
0.311274
0.313108
0.315865
0.319551
0.324171
0.329736
0.336256
0.343743
0.352209
0.361667
0.372132
0.383617
0.396136
0.409701
0.424325
0.440015
0.45678
0.474624
0.493545
0.51354
0.534598
0.556701
0.579827
0.603941
0.629001
0.654955
0.681737
0.70927
0.737461
0.766206
0.795382
0.82485
0.854457
0.88403
0.913383
0.942313
0.970601
0.99802
1.02433
1.04929
1.07265
1.09416
1.1136
1.13073
1.14535
1.15728
1.16636
1.17249
1.17557
0.315791
0.31676
0.3187
0.321615
0.325512
0.3304
0.336288
0.34319
0.351118
0.360088
0.370116
0.381217
0.39341
0.406709
0.421133
0.436695
0.453408
0.471284
0.490331
0.510551
0.531944
0.554503
0.578215
0.603058
0.629001
0.656005
0.684016
0.712971
0.742789
0.773378
0.804624
0.836401
0.86856
0.900936
0.933342
0.965574
0.997406
1.0286
1.05889
1.08802
1.11571
1.14167
1.16562
1.18729
1.20641
1.22276
1.23611
1.24629
1.25316
1.25662
0.321292
0.322315
0.324362
0.327439
0.331553
0.336715
0.342936
0.350231
0.358614
0.368103
0.378717
0.390475
0.403398
0.417505
0.432817
0.449352
0.467128
0.48616
0.50646
0.528036
0.550892
0.575026
0.600427
0.627079
0.654955
0.684016
0.714214
0.745483
0.777744
0.810901
0.84484
0.879425
0.914501
0.949889
0.985389
1.02078
1.0558
1.09021
1.12369
1.15596
1.18669
1.21557
1.24226
1.26646
1.28785
1.30615
1.32112
1.33255
1.34026
1.34414
0.326838
0.327915
0.330072
0.333315
0.337652
0.343094
0.349655
0.357352
0.3662
0.376222
0.387438
0.399872
0.413546
0.428485
0.444713
0.462253
0.481128
0.501358
0.522959
0.545946
0.570327
0.596105
0.623276
0.651827
0.681737
0.712971
0.745483
0.77921
0.814075
0.84998
0.886809
0.924421
0.962651
1.00131
1.04019
1.07903
1.11758
1.15552
1.19255
1.22832
1.26247
1.29462
1.32441
1.35146
1.37542
1.39596
1.41277
1.42562
1.4343
1.43867
0.332405
0.333539
0.335807
0.339219
0.343782
0.34951
0.356418
0.364524
0.373848
0.384414
0.396245
0.409369
0.423813
0.439605
0.456774
0.475348
0.495356
0.516821
0.539768
0.564216
0.590181
0.61767
0.646688
0.677226
0.70927
0.742789
0.777744
0.814075
0.851707
0.890544
0.930467
0.971333
1.01297
1.05518
1.09773
1.14036
1.18277
1.22464
1.2656
1.30528
1.34325
1.37909
1.41238
1.44268
1.46956
1.49265
1.51158
1.52606
1.53585
1.54079
0.337971
0.339161
0.341543
0.345125
0.349918
0.355936
0.363195
0.371717
0.381525
0.392643
0.405101
0.418928
0.434157
0.45082
0.468952
0.488585
0.509754
0.532489
0.556822
0.582778
0.61038
0.639643
0.670579
0.703188
0.737461
0.773378
0.810901
0.84998
0.890544
0.932499
0.975727
1.02008
1.06539
1.11144
1.158
1.20477
1.25143
1.29763
1.34296
1.38699
1.42926
1.46927
1.50652
1.54051
1.57075
1.59676
1.61812
1.63449
1.64556
1.65115
0.343511
0.344758
0.347254
0.351008
0.356033
0.362343
0.369958
0.3789
0.389195
0.400873
0.413965
0.428506
0.444532
0.46208
0.481191
0.501904
0.524259
0.548294
0.574047
0.601552
0.630839
0.661934
0.694855
0.729612
0.766206
0.804624
0.84484
0.886809
0.930467
0.975727
1.02247
1.07056
1.11982
1.17002
1.22092
1.27221
1.32354
1.37453
1.42471
1.47362
1.52072
1.56544
1.6072
1.64541
1.67948
1.70886
1.73304
1.75158
1.76415
1.77049
0.348999
0.350303
0.352914
0.356841
0.362098
0.368702
0.376673
0.386038
0.396825
0.409066
0.422797
0.438058
0.454888
0.473333
0.493436
0.515244
0.538804
0.564162
0.591364
0.620452
0.651466
0.684441
0.719407
0.756383
0.795382
0.836401
0.879425
0.924421
0.971333
1.02008
1.07056
1.12264
1.17612
1.2308
1.28641
1.34262
1.39908
1.45535
1.51093
1.56529
1.61782
1.66788
1.71478
1.75783
1.79632
1.8296
1.85705
1.87814
1.89245
1.89967
0.35441
0.355771
0.358496
0.362595
0.368084
0.374981
0.383309
0.393097
0.404375
0.417181
0.431553
0.447536
0.465176
0.484521
0.505624
0.528537
0.553315
0.580013
0.608685
0.639383
0.672157
0.707055
0.744115
0.783372
0.82485
0.86856
0.914501
0.962651
1.01297
1.06539
1.11982
1.17612
1.23412
1.29361
1.35431
1.41589
1.47796
1.54006
1.60164
1.6621
1.72077
1.77688
1.82966
1.87827
1.92189
1.9597
1.99097
2.01504
2.03139
2.03966
0.359716
0.361133
0.363972
0.368243
0.373962
0.38115
0.389833
0.40004
0.411808
0.425176
0.440188
0.456891
0.475339
0.495586
0.51769
0.541713
0.567715
0.595762
0.625917
0.658243
0.692802
0.729653
0.768849
0.810437
0.854457
0.900936
0.949889
1.00131
1.05518
1.11144
1.17002
1.2308
1.29361
1.35824
1.42443
1.49184
1.56005
1.62857
1.69681
1.76411
1.8297
1.89271
1.95223
2.00727
2.05684
2.09996
2.13572
2.16331
2.18208
2.19158
0.364891
0.366364
0.369314
0.373754
0.379701
0.387177
0.396209
0.406833
0.419084
0.433009
0.448654
0.466073
0.485323
0.506466
0.529568
0.554696
0.581923
0.61132
0.642962
0.676924
0.713281
0.752104
0.793462
0.837419
0.88403
0.933342
0.985389
1.04019
1.09773
1.158
1.22092
1.28641
1.35431
1.42443
1.49651
1.57022
1.64513
1.72071
1.79636
1.87131
1.94472
2.0156
2.08288
2.14539
2.20193
2.25129
2.29236
2.32413
2.34579
2.35676
0.369907
0.371435
0.374495
0.379101
0.38527
0.393028
0.402405
0.413436
0.426164
0.440635
0.456904
0.475027
0.49507
0.517099
0.541187
0.567411
0.595851
0.62659
0.659714
0.69531
0.733466
0.774268
0.817802
0.864148
0.913383
0.965574
1.02078
1.07903
1.14036
1.20477
1.27221
1.34262
1.41589
1.49184
1.57022
1.65072
1.7329
1.81625
1.90008
1.98361
2.06587
2.14575
2.22199
2.2932
2.35793
2.4147
2.46211
2.49888
2.524
2.53675
0.374739
0.376319
0.379486
0.384253
0.39064
0.398673
0.408384
0.419813
0.433005
0.448011
0.464889
0.483702
0.50452
0.527418
0.552475
0.579776
0.609412
0.641476
0.676065
0.71328
0.753222
0.795995
0.841701
0.890441
0.942313
0.997406
1.0558
1.11758
1.18277
1.25143
1.32354
1.39908
1.47796
1.56005
1.64513
1.7329
1.82297
1.91479
2.00769
2.1008
2.19307
2.28326
2.36988
2.4513
2.52573
2.59134
2.64636
2.68918
2.7185
2.7334
0.379358
0.38099
0.38426
0.389182
0.395779
0.404078
0.414113
0.425927
0.439568
0.455092
0.472561
0.492044
0.513615
0.537357
0.563358
0.591711
0.622515
0.655875
0.691901
0.730707
0.772409
0.817127
0.864985
0.916102
0.970601
1.0286
1.09021
1.15552
1.22464
1.29763
1.37453
1.45535
1.54006
1.62857
1.72071
1.81625
1.91479
2.01584
2.11872
2.22252
2.32612
2.42811
2.52681
2.62025
2.70625
2.78251
2.84676
2.89695
2.9314
2.94893
0.383739
0.38542
0.388789
0.393861
0.400658
0.409211
0.419557
0.43174
0.445813
0.461834
0.479871
0.499998
0.522295
0.546852
0.573763
0.603132
0.635068
0.669686
0.707108
0.747462
0.790881
0.837504
0.887471
0.940928
0.99802
1.05889
1.12369
1.19255
1.2656
1.34296
1.42471
1.51093
1.60164
1.69681
1.79636
1.90008
2.00769
2.11872
2.23252
2.3482
2.46458
2.58013
2.69291
2.80059
2.90049
2.98969
3.06525
3.1245
3.16528
3.18606
0.387857
0.389584
0.393047
0.39826
0.405248
0.414043
0.424683
0.437217
0.4517
0.468194
0.486772
0.507512
0.530501
0.555835
0.583618
0.613959
0.646979
0.682804
0.721568
0.763415
0.808493
0.856958
0.908973
0.964706
1.02433
1.08802
1.15596
1.22832
1.30528
1.38699
1.47362
1.56529
1.6621
1.76411
1.87131
1.98361
2.1008
2.22252
2.3482
2.47701
2.60776
2.73883
2.86807
2.99272
3.10948
3.21457
3.30414
3.37465
3.42328
3.44808
0.391687
0.393458
0.397008
0.402354
0.409521
0.418542
0.42946
0.442323
0.457191
0.47413
0.493216
0.514534
0.538176
0.564244
0.592848
0.62411
0.658157
0.695127
0.735167
0.778435
0.825095
0.875322
0.9293
0.987222
1.04929
1.11571
1.18669
1.26247
1.34325
1.42926
1.52072
1.61782
1.72077
1.8297
1.94472
2.06587
2.19307
2.32612
2.46458
2.60776
2.75456
2.90336
3.05183
3.19683
3.33424
3.45912
3.56624
3.65085
3.70929
3.73911
0.395206
0.397018
0.400649
0.406118
0.41345
0.422682
0.433855
0.447024
0.462249
0.479601
0.49916
0.521014
0.545263
0.572014
0.601386
0.633506
0.668513
0.706555
0.747791
0.792393
0.840541
0.89243
0.948264
1.00826
1.07265
1.14167
1.21557
1.29462
1.37909
1.46927
1.56544
1.66788
1.77688
1.89271
2.0156
2.14575
2.28326
2.42811
2.58013
2.73883
2.90336
3.07224
3.24317
3.41265
3.57567
3.72563
3.85505
3.95746
4.02816
4.06421
0.398393
0.400242
0.403947
0.409528
0.417011
0.426434
0.437842
0.451289
0.466841
0.48457
0.504561
0.526907
0.551711
0.579089
0.609164
0.642073
0.677962
0.716991
0.75933
0.805165
0.854691
0.90812
0.965679
1.02761
1.09416
1.16562
1.24226
1.32441
1.41238
1.50652
1.6072
1.71478
1.82966
1.95223
2.08288
2.22199
2.36988
2.52681
2.69291
2.86807
3.05183
3.24317
3.44009
3.63911
3.83439
4.01693
4.17514
4.30006
4.38598
4.42965
0.401228
0.403109
0.406881
0.412562
0.420181
0.429775
0.441392
0.45509
0.470934
0.489001
0.50938
0.532167
0.557471
0.585412
0.61612
0.649739
0.686424
0.726344
0.769681
0.816632
0.867408
0.922237
0.981366
1.04506
1.1136
1.18729
1.26646
1.35146
1.44268
1.54051
1.64541
1.75783
1.87827
2.00727
2.14539
2.2932
2.4513
2.62025
2.80059
2.99272
3.19683
3.41265
3.63911
3.87354
4.1101
4.33686
4.53284
4.686
4.79038
4.84313
0.403692
0.405603
0.409432
0.415201
0.422938
0.432683
0.444483
0.458399
0.474499
0.492863
0.513581
0.536755
0.562497
0.590932
0.622197
0.656441
0.693827
0.734532
0.778749
0.826685
0.878567
0.934637
0.995159
1.06042
1.13073
1.20641
1.28785
1.37542
1.46956
1.57075
1.67948
1.79632
1.92189
2.05684
2.20193
2.35793
2.52573
2.70625
2.90049
3.10948
3.33424
3.57567
3.83439
4.1101
4.39992
4.6919
4.9377
5.12511
5.25079
5.31375
0.405771
0.407706
0.411585
0.417428
0.425265
0.435137
0.447093
0.461194
0.477511
0.496127
0.517133
0.540635
0.56675
0.595605
0.627343
0.662119
0.700103
0.741478
0.786446
0.835226
0.888054
0.945187
1.00691
1.07352
1.14535
1.22276
1.30615
1.39596
1.49265
1.59676
1.70886
1.8296
1.9597
2.09996
2.25129
2.4147
2.59134
2.78251
2.98969
3.21457
3.45912
3.72563
4.01693
4.33686
4.6919
5.09751
5.40533
5.63038
5.77834
5.85177
0.407451
0.409406
0.413324
0.419228
0.427146
0.437121
0.449203
0.463455
0.479948
0.498768
0.520009
0.543778
0.570195
0.599393
0.631516
0.666725
0.705195
0.747117
0.792699
0.842167
0.895769
0.953774
1.01647
1.08419
1.15728
1.23611
1.32112
1.41277
1.51158
1.61812
1.73304
1.85705
1.99097
2.13572
2.29236
2.46211
2.64636
2.84676
3.06525
3.30414
3.56624
3.85505
4.17514
4.53284
4.9377
5.40533
5.76014
6.01718
6.18486
6.26769
0.408721
0.410691
0.414639
0.420588
0.428569
0.438622
0.4508
0.465165
0.481793
0.500767
0.522186
0.546158
0.572805
0.602262
0.634679
0.670217
0.709058
0.751396
0.797445
0.847439
0.901632
0.960302
1.02375
1.09232
1.16636
1.24629
1.33255
1.42562
1.52606
1.63449
1.75158
1.87814
2.01504
2.16331
2.32413
2.49888
2.68918
2.89695
3.1245
3.37465
3.65085
3.95746
4.30006
4.686
5.12511
5.63038
6.01718
6.29782
6.4807
6.57093
0.409572
0.411552
0.415521
0.421501
0.429523
0.439628
0.451871
0.466313
0.48303
0.502109
0.523647
0.547756
0.574557
0.60419
0.636803
0.672564
0.711654
0.754272
0.800636
0.850985
0.905576
0.964696
1.02865
1.09779
1.17249
1.25316
1.34026
1.4343
1.53585
1.64556
1.76415
1.89245
2.03139
2.18208
2.34579
2.524
2.7185
2.9314
3.16528
3.42328
3.70929
4.02816
4.38598
4.79038
5.25079
5.77834
6.18486
6.4807
6.67368
6.76892
0.409999
0.411983
0.415963
0.421958
0.430001
0.440133
0.452407
0.466888
0.483651
0.502782
0.52438
0.548557
0.575436
0.605156
0.637869
0.673741
0.712957
0.755716
0.802239
0.852766
0.907559
0.966905
1.03112
1.10055
1.17557
1.25662
1.34414
1.43867
1.54079
1.65115
1.77049
1.89967
2.03966
2.19158
2.35676
2.53675
2.7334
2.94893
3.18606
3.44808
3.73911
4.06421
4.42965
4.84313
5.31375
5.85177
6.26769
6.57093
6.76892
6.86665
)
;

boundaryField
{
    walls
    {
        type            zeroGradient;
    }
    frontAndBack
    {
        type            empty;
    }
}


// ************************************************************************* //
