/*--------------------------------*- C++ -*----------------------------------*\
| =========                 |                                                 |
| \\      /  F ield         | OpenFOAM: The Open Source CFD Toolbox           |
|  \\    /   O peration     | Version:  2406                                  |
|   \\  /    A nd           | Website:  www.openfoam.com                      |
|    \\/     M anipulation  |                                                 |
\*---------------------------------------------------------------------------*/
FoamFile
{
    version     2.0;
    format      ascii;
    arch        "LSB;label=32;scalar=64";
    class       volScalarField;
    location    "258";
    object      nut;
}
// * * * * * * * * * * * * * * * * * * * * * * * * * * * * * * * * * * * * * //

dimensions      [0 2 -1 0 0 0 0];

internalField   nonuniform List<scalar> 
12225
(
1.42141e-05
2.01965e-05
2.38588e-05
2.57608e-05
2.66779e-05
2.6819e-05
2.67093e-05
2.64348e-05
2.60118e-05
2.55576e-05
2.51174e-05
2.46856e-05
2.43101e-05
2.39311e-05
2.36486e-05
2.33127e-05
2.31446e-05
2.28233e-05
0.000183626
9.61201e-05
7.24634e-05
6.07809e-05
5.4086e-05
4.99295e-05
4.72891e-05
4.56502e-05
4.45553e-05
4.39767e-05
4.35793e-05
4.35448e-05
4.35113e-05
4.37951e-05
4.39596e-05
4.44607e-05
4.47569e-05
4.53695e-05
0.000647844
0.000377216
0.000273093
0.000214473
0.000179936
0.00015399
0.000136998
0.000122868
0.000113363
0.000104655
9.88964e-05
9.31109e-05
8.95095e-05
8.5476e-05
8.32371e-05
8.03898e-05
7.8914e-05
7.70889e-05
0.000842803
0.000691525
0.000567059
0.000471207
0.000409416
0.000358169
0.000324019
0.000292161
0.00027125
0.000249812
0.000236071
0.000220676
0.000211236
0.000199658
0.000192997
0.000184198
0.000178807
0.000172071
0.000861572
0.000814487
0.000767757
0.000696646
0.000641603
0.000585993
0.000546408
0.000505384
0.000477436
0.000446936
0.000426887
0.000403526
0.000388896
0.000370474
0.000359675
0.000344894
0.000336599
0.000323682
0.000854365
0.000844372
0.000833004
0.000805691
0.000778628
0.000742814
0.000714709
0.000681369
0.000656979
0.000628418
0.000608502
0.000584479
0.000568629
0.00054835
0.000535961
0.00051871
0.000508997
0.00049334
0.000852028
0.000850754
0.000846688
0.000838972
0.000830582
0.00081549
0.000802166
0.000783476
0.000768799
0.000749848
0.000735774
0.00071787
0.000705326
0.000688891
0.000678226
0.000663292
0.000654428
0.000640241
0.00085154
0.000850637
0.000849464
0.000847181
0.000844319
0.00083947
0.000834552
0.000826999
0.000820491
0.000811108
0.000803618
0.000793532
0.000785973
0.000775809
0.000768685
0.000758795
0.000752305
0.00074237
0.000851495
0.000850407
0.000849599
0.000848389
0.000847349
0.000845516
0.000843797
0.000841058
0.000838405
0.000834892
0.000831139
0.000827116
0.000823138
0.000818434
0.000814389
0.00080939
0.000805329
0.000799912
0.000851491
0.000850375
0.000849515
0.000848481
0.000847688
0.000846621
0.000845732
0.000844496
0.000843362
0.000841859
0.000840428
0.000838578
0.000836936
0.000834801
0.000832973
0.000830652
0.000828694
0.000826061
0.000851476
0.00085039
0.000849471
0.000848486
0.000847662
0.000846753
0.000845988
0.000845111
0.000844358
0.000843454
0.000842678
0.000841704
0.000840882
0.000839824
0.000838957
0.000837808
0.000836927
0.000835668
0.000851464
0.000850402
0.000849451
0.000848489
0.000847633
0.000846758
0.000845984
0.00084518
0.000844471
0.000843714
0.000843051
0.000842321
0.000841686
0.000840966
0.000840349
0.000839628
0.000839023
0.000838299
0.000851456
0.000850408
0.000849438
0.000848489
0.000847614
0.000846753
0.000845961
0.000845179
0.00084446
0.000843744
0.000843087
0.000842428
0.000841823
0.00084121
0.000840647
0.000840074
0.000839544
0.000839004
0.000851451
0.00085041
0.000849429
0.000848487
0.0008476
0.000846746
0.000845941
0.000845167
0.000844435
0.000843731
0.000843064
0.000842422
0.000841813
0.000841226
0.000840668
0.000840129
0.000839615
0.00083912
0.000851449
0.00085041
0.000849424
0.000848483
0.00084759
0.000846737
0.000845926
0.000845152
0.000844415
0.000843711
0.000843039
0.000842397
0.000841784
0.000841198
0.000840637
0.000840102
0.000839588
0.000839097
0.000851448
0.000850409
0.00084942
0.000848479
0.000847583
0.000846729
0.000845915
0.000845139
0.000844399
0.000843692
0.000843018
0.000842373
0.000841757
0.000841169
0.000840605
0.000840067
0.000839551
0.000839058
0.000851447
0.000850408
0.000849418
0.000848476
0.000847578
0.000846722
0.000845906
0.000845128
0.000844386
0.000843677
0.000843
0.000842354
0.000841735
0.000841144
0.000840579
0.000840038
0.00083952
0.000839025
0.000851447
0.000850408
0.000849417
0.000848474
0.000847574
0.000846718
0.0008459
0.000845121
0.000844377
0.000843666
0.000842988
0.000842339
0.000841719
0.000841126
0.000840559
0.000840016
0.000839497
0.000839
0.000851447
0.000850408
0.000849417
0.000848473
0.000847573
0.000846716
0.000845898
0.000845118
0.000844373
0.000843661
0.000842981
0.000842332
0.000841711
0.000841116
0.000840548
0.000840004
0.000839484
0.000838986
0.000851447
0.000850408
0.000849418
0.000848474
0.000847575
0.000846718
0.0008459
0.00084512
0.000844375
0.000843663
0.000842983
0.000842334
0.000841712
0.000841118
0.000840549
0.000840005
0.000839484
0.000838986
0.000851447
0.000850409
0.000849419
0.000848477
0.000847578
0.000846723
0.000845905
0.000845126
0.00084438
0.00084367
0.000842989
0.00084234
0.000841717
0.000841123
0.000840551
0.000840006
0.000839482
0.000838981
0.000851446
0.000850413
0.000849419
0.000848484
0.000847582
0.000846732
0.00084591
0.000845134
0.000844381
0.000843669
0.000842973
0.000842316
0.000841669
0.000841058
0.000840451
0.000839881
0.000839309
0.000838775
0.000851443
0.000850419
0.000849417
0.0008485
0.000847579
0.000846734
0.000845865
0.000845055
0.000844207
0.000843403
0.000842548
0.000841732
0.000840853
0.00084002
0.000839107
0.000838264
0.000837312
0.000836471
0.00085145
0.000850435
0.000849403
0.000848476
0.000847389
0.000846293
0.000844903
0.000843543
0.000841807
0.000840071
0.000838001
0.000835928
0.000833596
0.000831257
0.000828759
0.000826223
0.000823576
0.000821136
0.000851577
0.000850433
0.000848713
0.000847009
0.000843949
0.000839768
0.000835003
0.000829681
0.00082286
0.000816395
0.000808746
0.000801776
0.000793813
0.000786807
0.00077886
0.000772135
0.000764375
0.000758139
0.000852214
0.000847825
0.000837852
0.000829093
0.000813143
0.000795635
0.000774826
0.000755922
0.000735177
0.000717211
0.000698076
0.000681992
0.0006649
0.000650902
0.000635794
0.000623791
0.00061042
0.000600238
0.000842399
0.000819872
0.000769448
0.000717794
0.000664654
0.000620973
0.000579059
0.000545867
0.000513972
0.000489122
0.000464611
0.000445741
0.000426492
0.000411895
0.000396421
0.000384937
0.000372214
0.000363057
0.000778413
0.000610845
0.000489787
0.000410182
0.000353218
0.000313137
0.000280284
0.000256663
0.00023594
0.000220792
0.000206605
0.000196239
0.000185957
0.000178527
0.000170759
0.000165247
0.00015919
0.000154984
0.000316389
0.000180131
0.000135154
0.000112022
9.72459e-05
8.75986e-05
8.06831e-05
7.61525e-05
7.24801e-05
7.00973e-05
6.79492e-05
6.6637e-05
6.53083e-05
6.45903e-05
6.37434e-05
6.33773e-05
6.28301e-05
6.26763e-05
1.98428e-05
2.50682e-05
2.89146e-05
3.15902e-05
3.33984e-05
3.45513e-05
3.52712e-05
3.56479e-05
3.58388e-05
3.58245e-05
3.57788e-05
3.56419e-05
3.54688e-05
3.52697e-05
3.50604e-05
3.48467e-05
3.46351e-05
3.44281e-05
3.62791e-10
1.27583e-08
3.19209e-08
5.892e-08
8.63976e-08
1.0836e-07
1.36097e-07
1.895e-07
2.75777e-07
4.06126e-07
5.60878e-07
7.17788e-07
8.68298e-07
9.98693e-07
1.10613e-06
1.18317e-06
1.22274e-06
1.23187e-06
1.22309e-06
1.17315e-06
1.09201e-06
9.30523e-07
7.06576e-07
4.43867e-07
2.06362e-07
6.2244e-08
1.42925e-08
1.01117e-08
1.17402e-08
1.46433e-08
1.88004e-08
2.39215e-08
2.76073e-08
2.89733e-08
3.86641e-08
6.39414e-08
1.33198e-07
2.14464e-07
2.59762e-07
2.6974e-07
2.62608e-07
2.4357e-07
2.41618e-07
2.83854e-07
4.1821e-07
4.83374e-07
5.934e-07
7.47445e-07
1.51359e-06
5.4884e-06
1.07835e-05
1.52515e-05
1.88996e-05
2.19319e-05
2.44782e-05
2.66676e-05
2.85666e-05
3.02512e-05
3.17551e-05
3.31262e-05
3.43827e-05
3.55667e-05
3.66869e-05
3.77249e-05
3.86941e-05
3.96068e-05
4.04712e-05
4.1295e-05
4.20839e-05
4.28427e-05
4.35757e-05
4.42861e-05
4.49763e-05
4.56487e-05
4.63044e-05
4.69454e-05
4.7572e-05
4.81856e-05
4.87863e-05
4.93749e-05
4.99514e-05
5.0516e-05
5.10688e-05
5.16098e-05
5.21387e-05
5.26554e-05
5.31597e-05
5.36511e-05
5.41295e-05
5.45944e-05
5.50455e-05
5.54827e-05
5.59059e-05
5.63154e-05
5.67117e-05
5.70964e-05
5.74714e-05
5.78405e-05
5.82008e-05
5.85463e-05
5.88817e-05
5.92043e-05
5.95155e-05
5.98141e-05
6.01004e-05
6.03739e-05
6.06345e-05
6.08818e-05
6.11156e-05
6.13357e-05
6.15419e-05
6.17338e-05
6.19113e-05
6.20741e-05
6.2222e-05
6.23547e-05
6.2472e-05
6.25737e-05
6.26595e-05
6.27293e-05
6.27827e-05
6.28198e-05
6.28401e-05
6.28437e-05
6.28302e-05
6.27997e-05
6.27518e-05
6.26866e-05
6.26034e-05
6.25005e-05
6.23985e-05
6.22298e-05
6.21076e-05
6.18927e-05
6.17086e-05
6.14951e-05
6.12631e-05
6.10138e-05
6.07451e-05
6.04584e-05
6.01531e-05
5.9828e-05
5.94835e-05
5.91227e-05
5.8744e-05
5.8347e-05
5.79331e-05
5.75021e-05
5.70544e-05
5.65906e-05
5.61109e-05
5.56171e-05
5.51074e-05
5.45843e-05
5.4046e-05
5.34934e-05
5.29275e-05
5.23497e-05
5.17608e-05
5.11617e-05
5.0553e-05
4.99357e-05
4.93106e-05
4.86785e-05
4.80401e-05
4.73964e-05
4.67486e-05
4.60975e-05
4.54452e-05
4.48018e-05
4.43118e-05
4.4075e-05
4.38538e-05
4.3622e-05
4.33675e-05
4.3077e-05
4.27219e-05
4.22402e-05
4.1635e-05
3.84546e-05
1.84581e-09
5.97585e-09
3.34297e-08
8.72122e-08
2.12239e-07
6.50725e-07
1.40044e-06
2.56795e-06
4.07622e-06
5.79616e-06
7.73407e-06
9.63506e-06
1.1373e-05
1.27435e-05
1.37307e-05
1.4005e-05
1.39004e-05
1.30019e-05
1.12741e-05
8.82272e-06
6.57689e-06
4.6286e-06
3.15501e-06
2.06413e-06
1.25682e-06
7.21195e-07
3.87117e-07
2.13726e-07
1.31054e-07
8.97312e-08
6.69677e-08
6.23434e-08
1.19507e-07
2.30438e-07
1.13811e-06
2.37684e-06
5.07934e-06
7.52103e-06
8.15867e-06
7.63724e-06
6.63391e-06
5.71234e-06
4.78418e-06
4.62566e-06
4.28364e-06
5.55255e-06
7.91949e-06
1.18731e-05
1.71778e-05
2.4694e-05
3.25683e-05
4.20704e-05
5.13188e-05
6.24296e-05
7.38139e-05
8.68444e-05
0.000100184
0.000114557
0.0001289
0.000143565
0.000157291
0.000170624
0.000182945
0.000194609
0.000205379
0.000215473
0.000224761
0.00023369
0.000242152
0.000250146
0.000257698
0.000265015
0.000272047
0.000278906
0.000285583
0.000292139
0.000298579
0.000304938
0.000311225
0.000317459
0.00032365
0.000329808
0.00033594
0.000342052
0.000348148
0.00035423
0.000360299
0.000366354
0.000372392
0.000378406
0.000384386
0.000390318
0.000396179
0.000401942
0.000407562
0.000412982
0.000418122
0.000422882
0.000427429
0.000432033
0.000436552
0.000441066
0.000445529
0.000449963
0.000454353
0.000458703
0.000463007
0.000467265
0.000471472
0.000475627
0.000479726
0.000483768
0.000487748
0.000491664
0.000495513
0.000499291
0.000502997
0.000506626
0.000510175
0.00051364
0.000517019
0.000520307
0.000523501
0.000526598
0.000529594
0.000532485
0.000535267
0.000537938
0.000540495
0.000542936
0.000545267
0.000547456
0.000549557
0.000551475
0.000553276
0.000554922
0.000556433
0.000557792
0.000559001
0.000560045
0.000560942
0.000561705
0.000562264
0.000562682
0.00056296
0.000563058
0.000562993
0.000562765
0.000562374
0.000561817
0.000561101
0.000560229
0.000559229
0.000558058
0.000556759
0.000555307
0.000553708
0.000551967
0.000550097
0.000548101
0.000545987
0.00054376
0.000541427
0.000538995
0.000536468
0.000533854
0.000531159
0.000528376
0.000525498
0.000522473
0.000519003
0.00051469
0.000509982
0.000505042
0.000499879
0.00049442
0.000488385
0.000481575
0.000473545
0.000446191
2.38173e-09
4.49977e-09
4.07143e-08
2.08993e-07
5.65389e-07
1.45196e-06
2.93541e-06
5.29559e-06
8.04907e-06
1.15563e-05
1.55608e-05
1.97319e-05
2.39089e-05
2.7741e-05
3.07031e-05
3.26322e-05
3.33925e-05
3.34251e-05
3.17946e-05
2.90728e-05
2.54053e-05
2.07933e-05
1.57228e-05
1.12708e-05
7.45615e-06
4.8013e-06
2.70691e-06
1.56796e-06
9.25801e-07
5.92931e-07
4.45299e-07
3.64501e-07
5.9789e-07
9.53675e-07
3.95677e-06
8.67428e-06
1.65332e-05
2.1387e-05
2.23589e-05
1.91608e-05
1.58014e-05
9.3648e-06
1.06469e-05
1.44294e-05
1.93583e-05
2.6821e-05
3.81273e-05
5.32636e-05
7.06695e-05
9.43922e-05
0.00012032
0.000151133
0.000185438
0.000224343
0.000263867
0.000305144
0.000344405
0.000382443
0.000417159
0.000449126
0.000478434
0.000505345
0.000529883
0.00055256
0.000573289
0.000592931
0.000611328
0.000628527
0.000644941
0.000660571
0.000675613
0.000690179
0.000704324
0.000718147
0.000731684
0.000744999
0.000758121
0.000771088
0.000783925
0.000796653
0.000809288
0.000821844
0.000834331
0.000846754
0.000859118
0.000871422
0.000883666
0.000895843
0.000907946
0.000919962
0.000931875
0.000943666
0.000955309
0.000966776
0.000978036
0.000989063
0.000999841
0.00101043
0.00102093
0.0010314
0.00104177
0.00105206
0.00106226
0.00107236
0.00108236
0.00109226
0.00110204
0.0011117
0.00112124
0.00113064
0.00113991
0.00114904
0.00115802
0.00116684
0.00117549
0.00118398
0.00119229
0.00120042
0.00120836
0.0012161
0.00122363
0.00123095
0.00123805
0.00124492
0.00125156
0.00125795
0.00126409
0.00126997
0.00127559
0.00128094
0.00128601
0.00129079
0.00129528
0.00129943
0.00130328
0.00130679
0.00130999
0.00131285
0.00131537
0.00131749
0.00131926
0.00132069
0.00132171
0.00132254
0.00132292
0.00132288
0.00132248
0.0013217
0.00132055
0.00131903
0.00131715
0.00131491
0.00131235
0.00130942
0.00130618
0.0013026
0.00129871
0.00129451
0.00129002
0.00128525
0.00128021
0.00127492
0.00126939
0.00126364
0.00125769
0.00125154
0.00124521
0.0012387
0.001232
0.00122505
0.00121752
0.00120899
0.00119979
0.0011901
0.00117989
0.00116901
0.00115694
0.00114325
0.00112652
0.00107838
2.60571e-09
9.4643e-09
1.13133e-07
4.90663e-07
1.33582e-06
3.49067e-06
6.85862e-06
1.18781e-05
1.80361e-05
2.67284e-05
3.5938e-05
4.50347e-05
5.22771e-05
5.72579e-05
6.09366e-05
6.26094e-05
6.26461e-05
6.15555e-05
5.86434e-05
5.48498e-05
5.01207e-05
4.41197e-05
3.6885e-05
2.93418e-05
2.18656e-05
1.54467e-05
1.05642e-05
6.64112e-06
4.29328e-06
2.68324e-06
1.83533e-06
1.60393e-06
2.19021e-06
4.07314e-06
1.22651e-05
2.3524e-05
3.08955e-05
3.11788e-05
2.0167e-05
1.82156e-05
2.10204e-05
2.76395e-05
3.71128e-05
4.85842e-05
6.42721e-05
9.04897e-05
0.000120762
0.000155799
0.000199142
0.00024905
0.000302202
0.000360409
0.000419568
0.000479764
0.000537804
0.000594
0.00064648
0.000695713
0.000741095
0.000783166
0.000821726
0.000857577
0.000890869
0.000922111
0.000951152
0.000978604
0.00100459
0.0010293
0.001053
0.00107581
0.00109788
0.00111932
0.00114025
0.00116073
0.00118084
0.00120063
0.00122016
0.00123945
0.00125855
0.00127748
0.00129625
0.00131489
0.00133341
0.0013518
0.00137008
0.00138824
0.00140629
0.0014242
0.00144199
0.00145963
0.00147711
0.00149441
0.00151153
0.00152845
0.00154516
0.00156165
0.00157796
0.00159411
0.00161016
0.00162609
0.00164189
0.00165755
0.00167306
0.00168841
0.0017036
0.00171862
0.00173345
0.0017481
0.00176254
0.00177678
0.0017908
0.0018046
0.00181816
0.00183149
0.00184456
0.00185737
0.00186991
0.00188217
0.00189414
0.00190582
0.00191719
0.00192823
0.00193895
0.00194933
0.00195936
0.00196903
0.00197833
0.00198725
0.00199578
0.00200391
0.00201163
0.00201893
0.00202579
0.00203218
0.00203811
0.00204356
0.00204855
0.00205305
0.00205705
0.0020605
0.0020634
0.00206574
0.00206767
0.00206915
0.00206997
0.00207024
0.00206995
0.00206912
0.00206774
0.00206581
0.00206336
0.00206037
0.00205687
0.00205284
0.00204833
0.00204332
0.00203783
0.00203188
0.00202549
0.00201866
0.00201143
0.0020038
0.00199581
0.00198749
0.00197884
0.00196988
0.00196062
0.00195109
0.00194129
0.00193117
0.00192047
0.00190887
0.00189648
0.00188343
0.00186965
0.00185497
0.00183882
0.00182028
0.00179813
0.00174139
3.34105e-09
3.10694e-08
2.69244e-07
1.10582e-06
3.68495e-06
9.05803e-06
1.76301e-05
3.02663e-05
4.61604e-05
6.004e-05
7.00338e-05
7.78683e-05
8.29687e-05
8.61743e-05
8.78335e-05
8.81421e-05
8.72202e-05
8.50335e-05
8.15182e-05
7.70811e-05
7.16529e-05
6.50433e-05
5.72352e-05
4.85653e-05
3.92066e-05
3.00717e-05
2.1989e-05
1.57949e-05
1.03509e-05
7.83442e-06
5.58505e-06
5.62168e-06
8.46964e-06
1.9151e-05
3.72685e-05
3.71424e-05
3.1087e-05
3.26606e-05
3.65058e-05
4.36519e-05
5.41447e-05
6.70581e-05
8.91349e-05
0.00012123
0.00016281
0.000209744
0.00026487
0.000324979
0.00039264
0.000462518
0.000534353
0.000607248
0.000678772
0.000748616
0.000815366
0.000878952
0.000938818
0.000994883
0.00104729
0.00109636
0.00114258
0.00118565
0.00122614
0.00126432
0.00130038
0.00133464
0.00136732
0.00139862
0.00142875
0.00145785
0.00148608
0.00151357
0.0015404
0.00156668
0.00159249
0.00161788
0.00164291
0.00166763
0.00169207
0.00171627
0.00174024
0.00176401
0.00178759
0.00181099
0.00183421
0.00185725
0.00188012
0.0019028
0.0019253
0.00194761
0.00196971
0.00199161
0.00201329
0.00203476
0.00205601
0.00207707
0.00209793
0.00211862
0.00213915
0.0021595
0.00217967
0.00219964
0.00221941
0.00223897
0.0022583
0.00227739
0.00229625
0.00231485
0.00233319
0.00235126
0.00236904
0.00238654
0.00240373
0.00242061
0.00243717
0.0024534
0.00246929
0.00248483
0.0025
0.00251481
0.00252924
0.00254327
0.0025569
0.00257011
0.0025829
0.00259524
0.00260714
0.00261859
0.00262956
0.00264004
0.00265004
0.00265952
0.00266848
0.00267688
0.00268473
0.00269198
0.0026987
0.00270484
0.00271038
0.0027153
0.00271951
0.00272305
0.00272618
0.00272862
0.00273034
0.00273139
0.00273177
0.00273148
0.00273053
0.00272891
0.00272664
0.00272371
0.00272014
0.00271592
0.00271108
0.00270562
0.00269955
0.0026929
0.00268567
0.00267789
0.00266958
0.00266075
0.00265143
0.00264163
0.00263139
0.00262073
0.00260967
0.00259824
0.00258646
0.00257429
0.00256157
0.00254808
0.00253381
0.00251878
0.00250296
0.00248615
0.00246786
0.00244714
0.00242233
0.00236573
2.15096e-09
7.44308e-08
6.76465e-07
3.11978e-06
1.07016e-05
2.49263e-05
4.52654e-05
6.44829e-05
7.818e-05
8.78404e-05
9.42843e-05
9.83573e-05
0.0001012
0.000102915
0.000103597
0.000103287
0.000101993
9.95519e-05
9.61207e-05
9.17591e-05
8.63388e-05
7.96532e-05
7.17924e-05
6.28885e-05
5.30174e-05
4.27448e-05
3.27418e-05
2.48578e-05
1.90976e-05
1.23684e-05
1.09942e-05
1.8532e-05
3.89162e-05
5.69332e-05
5.56338e-05
5.28669e-05
5.31872e-05
5.82856e-05
6.67401e-05
8.24208e-05
0.000107559
0.000144527
0.000192137
0.000246029
0.000309894
0.0003776
0.000452137
0.000529162
0.000609687
0.000690121
0.000770563
0.000849849
0.00092694
0.00100146
0.00107291
0.00114077
0.00120513
0.00126651
0.00132446
0.00137914
0.00143086
0.0014797
0.00152598
0.0015699
0.00161171
0.00165163
0.00168987
0.00172662
0.00176208
0.00179639
0.0018297
0.00186214
0.00189382
0.00192483
0.00195525
0.00198516
0.00201462
0.00204368
0.00207238
0.00210075
0.00212882
0.00215662
0.00218416
0.00221145
0.0022385
0.00226532
0.00229191
0.00231827
0.00234439
0.00237028
0.00239593
0.00242133
0.0024465
0.00247143
0.00249612
0.00252059
0.00254484
0.00256887
0.00259268
0.00261626
0.00263961
0.00266271
0.00268556
0.00270813
0.00273044
0.00275246
0.00277418
0.0027956
0.00281671
0.0028375
0.00285796
0.00287808
0.00289784
0.00291724
0.00293627
0.00295493
0.0029732
0.00299107
0.00300854
0.00302559
0.00304222
0.00305841
0.00307416
0.00308945
0.00310427
0.00311862
0.00313248
0.00314584
0.0031587
0.00317103
0.00318284
0.0031941
0.00320483
0.0032149
0.00322438
0.00323328
0.00324159
0.00324928
0.00325635
0.00326276
0.00326838
0.00327337
0.00327783
0.00328152
0.00328448
0.00328671
0.00328821
0.003289
0.00328905
0.00328837
0.00328696
0.00328483
0.00328197
0.0032784
0.00327411
0.00326912
0.00326343
0.00325707
0.00325004
0.00324236
0.00323405
0.00322513
0.00321562
0.00320554
0.00319493
0.0031838
0.00317216
0.00316005
0.00314747
0.00313441
0.00312081
0.00310652
0.00309149
0.00307573
0.00305916
0.00304164
0.00302276
0.00300187
0.00297684
0.00292457
1.08756e-08
2.19579e-07
1.90274e-06
9.86482e-06
2.89003e-05
5.25173e-05
7.14311e-05
8.4499e-05
9.44364e-05
0.000100734
0.000105599
0.00010912
0.000111307
0.000112519
0.000112842
0.000112233
0.000110712
0.000108162
0.000104746
0.00010037
9.49141e-05
8.84185e-05
8.07432e-05
7.17873e-05
6.18178e-05
5.139e-05
4.06948e-05
3.0738e-05
2.51095e-05
2.50515e-05
3.77981e-05
5.95966e-05
7.2052e-05
7.1484e-05
7.13009e-05
7.12328e-05
7.74055e-05
9.30993e-05
0.00012043
0.000158742
0.000207705
0.000266216
0.000333644
0.000405774
0.000484567
0.000565559
0.000650117
0.00073547
0.000821567
0.000906733
0.000990754
0.00107288
0.00115264
0.0012294
0.00130308
0.00137434
0.00144232
0.0015072
0.00156898
0.00162776
0.00168371
0.00173696
0.0017877
0.00183611
0.0018824
0.00192675
0.00196936
0.00201039
0.00205002
0.00208839
0.00212566
0.00216194
0.00219735
0.00223198
0.00226593
0.00229926
0.00233205
0.00236436
0.00239622
0.00242767
0.00245876
0.0024895
0.00251992
0.00255002
0.00257984
0.00260936
0.00263861
0.00266757
0.00269627
0.00272468
0.00275283
0.00278069
0.00280829
0.0028356
0.00286265
0.00288941
0.00291591
0.00294213
0.0029681
0.00299379
0.00301919
0.00304431
0.00306913
0.00309365
0.00311785
0.00314172
0.00316527
0.00318848
0.00321134
0.00323384
0.00325598
0.00327776
0.00329917
0.00332022
0.00334087
0.00336113
0.00338097
0.0034004
0.0034194
0.00343796
0.00345608
0.00347375
0.00349096
0.0035077
0.00352396
0.00353974
0.00355501
0.00356978
0.00358403
0.00359776
0.00361095
0.00362363
0.0036357
0.00364713
0.00365801
0.00366829
0.00367798
0.00368705
0.0036955
0.0037033
0.00371036
0.0037169
0.0037228
0.00372796
0.00373239
0.0037361
0.00373908
0.00374132
0.00374282
0.00374357
0.00374357
0.00374282
0.0037413
0.00373903
0.00373601
0.00373223
0.00372771
0.00372245
0.00371646
0.00370976
0.00370236
0.00369428
0.00368553
0.00367613
0.00366612
0.00365551
0.0036443
0.00363254
0.00362024
0.00360742
0.00359403
0.00358001
0.0035653
0.00354988
0.00353371
0.00351668
0.00349849
0.00347866
0.0034555
0.00340877
9.38653e-08
6.64061e-07
5.56222e-06
2.53078e-05
5.34248e-05
7.71122e-05
9.38535e-05
0.000104367
0.000109484
0.000113065
0.000115342
0.000116853
0.000117773
0.000117974
0.000117485
0.000116369
0.000114511
0.000111679
0.000107922
0.0001028
9.63943e-05
8.8878e-05
8.04743e-05
7.11689e-05
6.05794e-05
4.85555e-05
3.80938e-05
3.01764e-05
3.45288e-05
5.18925e-05
7.62599e-05
8.60836e-05
8.56651e-05
8.64073e-05
8.66108e-05
0.000100069
0.000126567
0.000164887
0.000212736
0.000271798
0.000339291
0.000413733
0.000493559
0.000576475
0.000662824
0.000750369
0.000839212
0.000927933
0.00101609
0.00110293
0.00118812
0.00127112
0.00135143
0.00142968
0.00150539
0.00157832
0.00164838
0.0017156
0.00177998
0.0018416
0.00190054
0.00195692
0.00201087
0.00206253
0.00211207
0.00215965
0.00220543
0.00224957
0.00229222
0.00233354
0.00237365
0.00241268
0.00245075
0.00248794
0.00252435
0.00256006
0.00259514
0.00262966
0.00266365
0.00269718
0.00273027
0.00276295
0.00279525
0.00282719
0.00285878
0.00289004
0.00292098
0.0029516
0.0029819
0.00301191
0.0030416
0.003071
0.00310008
0.00312886
0.00315733
0.00318548
0.00321334
0.00324091
0.00326819
0.00329516
0.00332184
0.0033482
0.00337425
0.00339997
0.00342536
0.0034504
0.0034751
0.00349945
0.00352343
0.00354704
0.00357028
0.00359314
0.00361561
0.00363768
0.00365935
0.00368061
0.00370146
0.00372189
0.00374189
0.00376145
0.00378058
0.00379926
0.00381749
0.00383525
0.00385255
0.00386938
0.00388572
0.00390157
0.00391693
0.00393178
0.00394616
0.00396002
0.00397326
0.00398597
0.00399813
0.00400974
0.00402077
0.00403123
0.00404109
0.00405033
0.00405888
0.00406689
0.00407422
0.00408086
0.0040868
0.00409204
0.00409657
0.00410037
0.00410345
0.00410579
0.00410738
0.00410822
0.00410829
0.0041076
0.00410614
0.00410391
0.00410091
0.00409714
0.0040926
0.00408731
0.00408128
0.0040745
0.00406701
0.00405881
0.00404993
0.00404039
0.00403032
0.0040197
0.0040085
0.00399672
0.00398434
0.00397135
0.0039577
0.0039434
0.0039284
0.00391266
0.00389597
0.00387803
0.00385754
0.00381769
3.02721e-07
1.68568e-06
1.42937e-05
4.44862e-05
7.33531e-05
9.30212e-05
0.000104732
0.000110086
0.000112819
0.000114446
0.000115829
0.000117035
0.000117857
0.000118132
0.000117644
0.000116052
0.000113479
0.00011018
0.00010614
0.000100867
9.40131e-05
8.5987e-05
7.68257e-05
6.72869e-05
5.8739e-05
5.26317e-05
5.12409e-05
5.82532e-05
7.06207e-05
8.83609e-05
9.48991e-05
9.79836e-05
9.83429e-05
0.000104696
0.000127798
0.000163856
0.000208752
0.000266435
0.000331482
0.000405335
0.000484183
0.000567301
0.000653391
0.000741357
0.00083091
0.000920868
0.00101088
0.00110022
0.0011885
0.00127532
0.00135996
0.00144262
0.00152367
0.0016023
0.0016785
0.00175218
0.00182327
0.00189174
0.0019576
0.00202088
0.00208163
0.00213993
0.00219588
0.0022496
0.00230121
0.00235085
0.00239865
0.00244477
0.00248935
0.00253253
0.00257443
0.00261517
0.00265488
0.00269363
0.00273151
0.00276863
0.00280505
0.00284084
0.00287604
0.00291072
0.00294491
0.00297864
0.00301195
0.00304485
0.00307738
0.00310957
0.0031414
0.00317287
0.00320399
0.00323478
0.00326523
0.00329534
0.00332513
0.00335458
0.00338372
0.00341255
0.00344106
0.00346926
0.00349715
0.00352473
0.00355198
0.00357891
0.00360551
0.00363177
0.00365769
0.00368326
0.00370848
0.00373333
0.00375782
0.00378194
0.00380568
0.00382904
0.00385202
0.0038746
0.00389679
0.00391858
0.00393997
0.00396094
0.00398151
0.00400166
0.00402138
0.00404069
0.00405956
0.00407801
0.00409601
0.00411358
0.00413069
0.00414735
0.00416355
0.00417931
0.00419465
0.00420944
0.00422374
0.00423755
0.00425087
0.00426369
0.00427599
0.00428776
0.00429901
0.00430968
0.00431979
0.00432937
0.0043383
0.00434661
0.00435428
0.00436131
0.00436768
0.00437338
0.00437839
0.00438271
0.00438631
0.00438919
0.00439134
0.00439274
0.00439338
0.00439325
0.00439236
0.00439069
0.00438824
0.00438501
0.004381
0.00437622
0.00437068
0.00436439
0.00435735
0.00434959
0.00434113
0.00433199
0.0043222
0.00431178
0.00430074
0.00428906
0.00427675
0.0042638
0.00425023
0.00423602
0.00422103
0.00420512
0.00418735
0.00415441
5.64558e-07
3.73078e-06
2.77995e-05
6.55375e-05
9.36758e-05
0.00010905
0.000113741
0.000114251
0.000114251
0.000114639
0.000115533
0.000116458
0.000116859
0.000116297
0.000114604
0.00011191
0.000108416
0.000103468
9.76658e-05
9.10856e-05
8.40435e-05
7.72353e-05
6.98403e-05
6.34163e-05
5.93193e-05
6.11837e-05
6.91529e-05
8.55977e-05
9.75115e-05
0.000105255
0.000107536
0.000110646
0.00012624
0.000157105
0.000199377
0.000252681
0.000314459
0.000385608
0.000461602
0.00054306
0.000627436
0.000714313
0.000802869
0.000892367
0.000982359
0.00107223
0.0011616
0.00125005
0.0013372
0.00142242
0.00150634
0.00158853
0.00166875
0.00174681
0.00182263
0.00189613
0.00196725
0.00203594
0.0021022
0.00216602
0.00222743
0.00228649
0.00234328
0.0023979
0.00245045
0.00250105
0.00254978
0.00259681
0.00264226
0.00268627
0.00272896
0.00277045
0.00281087
0.00285037
0.002889
0.0029268
0.00296382
0.00300015
0.00303583
0.00307093
0.00310548
0.00313952
0.0031731
0.00320622
0.00323891
0.00327118
0.00330307
0.0033346
0.00336578
0.00339661
0.00342712
0.0034573
0.00348715
0.00351669
0.00354593
0.00357485
0.00360345
0.00363174
0.00365971
0.00368736
0.00371469
0.0037417
0.00376837
0.00379471
0.00382072
0.00384637
0.00387168
0.00389664
0.00392124
0.00394548
0.00396936
0.00399287
0.00401601
0.00403878
0.00406116
0.00408317
0.0041048
0.00412605
0.00414691
0.00416738
0.00418746
0.00420716
0.00422646
0.00424537
0.00426388
0.004282
0.00429971
0.00431702
0.00433392
0.00435045
0.00436655
0.00438222
0.00439747
0.0044123
0.0044267
0.00444066
0.00445418
0.00446725
0.00447985
0.00449198
0.00450364
0.00451484
0.00452543
0.00453547
0.00454496
0.00455389
0.00456223
0.00456996
0.00457708
0.00458356
0.00458938
0.00459453
0.00459899
0.00460275
0.00460577
0.00460806
0.0046096
0.00461037
0.00461036
0.00460957
0.00460799
0.00460562
0.00460245
0.00459849
0.00459375
0.00458824
0.00458196
0.00457495
0.00456722
0.00455879
0.0045497
0.00453994
0.00452955
0.00451853
0.00450692
0.00449472
0.00448188
0.00446837
0.00445341
0.00442647
7.74574e-07
7.51154e-06
4.1765e-05
8.06902e-05
0.00010578
0.000115551
0.000116392
0.000114046
0.000112189
0.000111616
0.000111715
0.00011186
0.000111615
0.00011033
0.000108337
0.000105935
0.000101919
9.67527e-05
9.14437e-05
8.55902e-05
7.98074e-05
7.44568e-05
7.07414e-05
6.99328e-05
7.38408e-05
8.67316e-05
9.83629e-05
0.000106319
0.000112542
0.000117107
0.000125677
0.000149525
0.000187027
0.00023457
0.000292801
0.000358878
0.00043125
0.000509237
0.000590424
0.000674784
0.000760979
0.000848569
0.000936986
0.00102575
0.00111449
0.00120281
0.0012904
0.00137672
0.00146151
0.00154543
0.00162767
0.00170817
0.0017868
0.00186343
0.00193796
0.00201033
0.00208047
0.00214835
0.00221394
0.00227721
0.00233815
0.00239684
0.00245335
0.00250776
0.00256017
0.00261072
0.00265963
0.00270689
0.00275254
0.00279668
0.00283945
0.00288096
0.0029213
0.00296056
0.00299881
0.00303618
0.00307276
0.00310864
0.00314388
0.00317854
0.00321265
0.00324626
0.00327941
0.00331212
0.00334443
0.00337635
0.00340789
0.00343907
0.00346991
0.00350041
0.00353059
0.00356044
0.00358999
0.00361922
0.00364815
0.00367677
0.00370509
0.0037331
0.00376081
0.0037882
0.00381529
0.00384206
0.00386852
0.00389466
0.00392047
0.00394596
0.00397112
0.00399595
0.00402045
0.0040446
0.00406841
0.00409188
0.00411501
0.00413779
0.00416022
0.0041823
0.00420403
0.00422541
0.00424644
0.00426712
0.00428745
0.00430743
0.00432706
0.00434635
0.00436528
0.00438387
0.00440211
0.00442001
0.00443755
0.00445476
0.00447162
0.00448814
0.0045043
0.00452011
0.00453556
0.00455065
0.00456538
0.00457974
0.00459371
0.0046073
0.00462056
0.00463338
0.00464566
0.00465751
0.00466888
0.00467978
0.00469017
0.00470004
0.00470937
0.00471813
0.00472631
0.00473388
0.00474082
0.00474711
0.00475272
0.00475762
0.00476181
0.00476526
0.00476794
0.00476985
0.00477097
0.00477129
0.0047708
0.00476949
0.00476736
0.00476441
0.00476065
0.0047561
0.00475078
0.0047447
0.00473789
0.00473038
0.0047222
0.00471339
0.00470399
0.00469404
0.00468352
0.00467249
0.0046604
0.0046392
8.97045e-07
1.33852e-05
5.80885e-05
9.87647e-05
0.000118494
0.000120542
0.000115635
0.000110574
0.000107382
0.000105763
0.00010488
0.000103981
0.000102568
0.000100657
9.79231e-05
9.47102e-05
9.04712e-05
8.60888e-05
8.19986e-05
7.82718e-05
7.56261e-05
7.52168e-05