/*--------------------------------*- C++ -*----------------------------------*\
| =========                 |                                                 |
| \\      /  F ield         | OpenFOAM: The Open Source CFD Toolbox           |
|  \\    /   O peration     | Version:  2406                                  |
|   \\  /    A nd           | Website:  www.openfoam.com                      |
|    \\/     M anipulation  |                                                 |
\*---------------------------------------------------------------------------*/
FoamFile
{
    version     2.0;
    format      ascii;
    arch        "LSB;label=32;scalar=64";
    class       volScalarField;
    location    "258";
    object      p;
}
// * * * * * * * * * * * * * * * * * * * * * * * * * * * * * * * * * * * * * //

dimensions      [0 2 -2 0 0 0 0];

internalField   nonuniform List<scalar> 
12225
(
-1.93881
-4.068
-5.17371
-5.49956
-5.68299
-5.86678
-6.01975
-6.13603
-6.23262
-6.32093
-6.40388
-6.48262
-6.5591
-6.63601
-6.71619
-6.80327
-6.90435
-7.01355
-5.12086
-5.93124
-6.1289
-6.02562
-5.98928
-6.04662
-6.1263
-6.19995
-6.27096
-6.34315
-6.41564
-6.48733
-6.55882
-6.63172
-6.70784
-6.79038
-6.87825
-6.98564
-5.48747
-5.41471
-5.53412
-5.61929
-5.72459
-5.86517
-5.99893
-6.11005
-6.2061
-6.29488
-6.37838
-6.45749
-6.53371
-6.60914
-6.68547
-6.76455
-6.84431
-6.92132
-5.34393
-5.24639
-5.5064
-5.69445
-5.81385
-5.93584
-6.05185
-6.14976
-6.23541
-6.31559
-6.39229
-6.4659
-6.53747
-6.60836
-6.67948
-6.75117
-6.81975
-6.87868
-5.33014
-5.33978
-5.58897
-5.75323
-5.84691
-5.94815
-6.05303
-6.14595
-6.22904
-6.3075
-6.38298
-6.45553
-6.52587
-6.59483
-6.6628
-6.72918
-6.79039
-6.84102
-5.39077
-5.43357
-5.62198
-5.76254
-5.85336
-5.95091
-6.05274
-6.14458
-6.2271
-6.30472
-6.3791
-6.45033
-6.51893
-6.58543
-6.64986
-6.71122
-6.7666
-6.81188
-5.45368
-5.49446
-5.63941
-5.77019
-5.86442
-5.95909
-6.05635
-6.1456
-6.22641
-6.30234
-6.37491
-6.44427
-6.51072
-6.57453
-6.63547
-6.69248
-6.74333
-6.78506
-5.50952
-5.54564
-5.66347
-5.78463
-5.87828
-5.96822
-6.05996
-6.14597
-6.22472
-6.29874
-6.36937
-6.43677
-6.50102
-6.5622
-6.61996
-6.67334
-6.72073
-6.76015
-5.56165
-5.59476
-5.6924
-5.8015
-5.89178
-5.97705
-6.06358
-6.14615
-6.22261
-6.29455
-6.36308
-6.42836
-6.49032
-6.54891
-6.60374
-6.65404
-6.69871
-6.7365
-5.61116
-5.6413
-5.72264
-5.81944
-5.90522
-5.9862
-6.0678
-6.14667
-6.22051
-6.29013
-6.35638
-6.41938
-6.47896
-6.535
-6.58714
-6.63478
-6.67725
-6.71376
-5.65784
-5.68467
-5.753
-5.83847
-5.919
-5.9957
-6.07255
-6.14752
-6.21849
-6.2856
-6.34942
-6.41002
-6.4672
-6.52077
-6.57044
-6.61577
-6.65638
-6.69179
-5.69787
-5.7217
-5.78052
-5.85666
-5.93188
-6.00456
-6.0772
-6.14854
-6.21669
-6.28137
-6.34288
-6.40124
-6.45622
-6.50762
-6.5552
-6.59865
-6.63777
-6.67225
-5.73473
-5.75598
-5.80698
-5.87481
-5.94465
-6.01329
-6.08192
-6.14967
-6.21493
-6.27713
-6.33631
-6.39243
-6.44526
-6.49461
-6.54026
-6.58202
-6.6198
-6.65341
-5.77318
-5.79185
-5.83557
-5.89517
-5.95899
-6.02301
-6.08725
-6.151
-6.21291
-6.27222
-6.32873
-6.38232
-6.43277
-6.4799
-6.52353
-6.56355
-6.59996
-6.63264
-5.81175
-5.82788
-5.86507
-5.91691
-5.97437
-6.0333
-6.09286
-6.15232
-6.21048
-6.26652
-6.32005
-6.37087
-6.41877
-6.46356
-6.50512
-6.54338
-6.57838
-6.61009
-5.84818
-5.86197
-5.89358
-5.93846
-5.98966
-6.04331
-6.09809
-6.15311
-6.20731
-6.25983
-6.3102
-6.35811
-6.40336
-6.44577
-6.48526
-6.52178
-6.55539
-6.58609
-5.87922
-5.89104
-5.91816
-5.95724
-6.00281
-6.05147
-6.10168
-6.15243
-6.20273
-6.25174
-6.29894
-6.34397
-6.38663
-6.42675
-6.46426
-6.49913
-6.53143
-6.56116
-5.90007
-5.91045
-5.93438
-5.96927
-6.01056
-6.0552
-6.10162
-6.14876
-6.19569
-6.2416
-6.28597
-6.32843
-6.36878
-6.40687
-6.44263
-6.47605
-6.50718
-6.53605
-5.90332
-5.91301
-5.93547
-5.96845
-6.00771
-6.05025
-6.09449
-6.13943
-6.18419
-6.22803
-6.27043
-6.31105
-6.34973
-6.38634
-6.42084
-6.45323
-6.48356
-6.51189
-5.88255
-5.89273
-5.91632
-5.95096
-5.99186
-6.03551
-6.0803
-6.12544
-6.17019
-6.21382
-6.25583
-6.29598
-6.33415
-6.37026
-6.4043
-6.43629
-6.4663
-6.49441
-5.85144
-5.86252
-5.88859
-5.92712
-5.97182
-6.01825
-6.06506
-6.11184
-6.15781
-6.20219
-6.24462
-6.28499
-6.32327
-6.35942
-6.39345
-6.42543
-6.45546
-6.48364
-5.81221
-5.82401
-5.85394
-5.89926
-5.94977
-5.99968
-6.04915
-6.09848
-6.14652
-6.19229
-6.23561
-6.27659
-6.31526
-6.35163
-6.38579
-6.41784
-6.44791
-6.47612
-5.76818
-5.77926
-5.81381
-5.86955
-5.92804
-5.982
-6.03445
-6.08655
-6.1367
-6.18392
-6.22834
-6.27017
-6.30947
-6.34628
-6.38074
-6.41303
-6.44331
-6.47177
-5.72183
-5.73043
-5.77157
-5.83938
-5.90516
-5.96407
-6.02164
-6.0776
-6.12976
-6.17803
-6.22321
-6.2656
-6.30521
-6.34216
-6.37667
-6.40896
-6.43921
-6.46757
-5.67308
-5.6734
-5.73662
-5.81988
-5.88433
-5.94351
-6.00673
-6.0681
-6.12341
-6.17367
-6.22041
-6.26397
-6.30433
-6.34172
-6.37645
-6.40885
-6.43919
-6.46784
-5.62926
-5.57801
-5.69436
-5.81819
-5.88325
-5.93649
-5.99825
-6.05928
-6.11403
-6.16409
-6.21108
-6.25504
-6.29578
-6.33351
-6.36856
-6.40126
-6.43183
-6.4605
-5.65119
-5.44767
-5.58163
-5.76026
-5.86456
-5.94224
-6.01599
-6.08076
-6.13585
-6.18524
-6.23099
-6.27331
-6.3122
-6.34805
-6.38126
-6.41223
-6.44137
-6.46951
-5.80182
-5.54988
-5.53151
-5.59481
-5.68275
-5.78954
-5.89308
-5.98007
-6.05334
-6.1183
-6.17691
-6.22949
-6.27656
-6.31891
-6.35724
-6.39215
-6.42437
-6.45504
-5.53451
-6.18129
-6.30204
-6.16113
-6.07319
-6.07513
-6.10692
-6.13981
-6.17348
-6.21022
-6.24826
-6.28544
-6.32082
-6.35419
-6.38546
-6.41448
-6.44155
-6.46814
-2.43089
-4.20017
-5.22701
-5.52675
-5.66799
-5.81284
-5.93518
-6.02445
-6.0946
-6.15591
-6.21101
-6.25998
-6.30357
-6.34272
-6.37803
-6.40955
-6.43718
-6.45925
-7.55658
-7.55672
-7.55683
-7.55696
-7.557
-7.55609
-7.55316
-7.54828
-7.54292
-7.53848
-7.53635
-7.53738
-7.54112
-7.54645
-7.55213
-7.55711
-7.56059
-7.56233
-7.56265
-7.56201
-7.5608
-7.55944
-7.55834
-7.55771
-7.55751
-7.55745
-7.55724
-7.55683
-7.55631
-7.55581
-7.55539
-7.55501
-7.55438
-7.55312
-7.55103
-7.54862
-7.54664
-7.54584
-7.54645
-7.54786
-7.54933
-7.55056
-7.55157
-7.55234
-7.55506
-7.56077
-7.56538
-7.5644
-7.55724
-7.54844
-7.54601
-7.55736
-7.58624
-7.63351
-7.69724
-7.77353
-7.85757
-7.94453
-8.03022
-8.11144
-8.18603
-8.25273
-8.31088
-8.36035
-8.40152
-8.43493
-8.46123
-8.48102
-8.49488
-8.50331
-8.50673
-8.5055
-8.4999
-8.49017
-8.47648
-8.45895
-8.43768
-8.41273
-8.38413
-8.35189
-8.31601
-8.27645
-8.23317
-8.18614
-8.13528
-8.08053
-8.02183
-7.95909
-7.89224
-7.82118
-7.74585
-7.66615
-7.58199
-7.49332
-7.40011
-7.30241
-7.20018
-7.09312
-6.9809
-6.8635
-6.74098
-6.61332
-6.48047
-6.34239
-6.19903
-6.05035
-5.89631
-5.73688
-5.57205
-5.4018
-5.22613
-5.04504
-4.85855
-4.66668
-4.46946
-4.26694
-4.05916
-3.84621
-3.62815
-3.40507
-3.17708
-2.94429
-2.70682
-2.46481
-2.21841
-1.96779
-1.71313
-1.45462
-1.19246
-0.926865
-0.658067
-0.386303
-0.11183
0.16509
0.444177
0.725153
1.00772
1.2916
1.57646
1.862
2.14791
2.43388
2.71959
3.00473
3.28897
3.572
3.85352
4.13322
4.41081
4.68601
4.95855
5.22818
5.49464
5.75771
6.01716
6.27279
6.52442
6.77187
7.01499
7.25363
7.48767
7.71699
7.9415
8.16112
8.37577
8.58539
8.78994
8.98938
9.18367
9.37281
9.55695
9.73616
9.91018
10.0789
10.2426
10.4015
10.5565
10.7081
10.8628
11.0106
-7.55815
-7.55842
-7.55905
-7.55991
-7.56038
-7.55975
-7.55734
-7.55339
-7.54946
-7.54729
-7.54767
-7.55057
-7.55539
-7.56116
-7.56688
-7.57174
-7.5752
-7.57688
-7.57654
-7.57435
-7.57091
-7.56701
-7.56344
-7.56071
-7.5589
-7.55765
-7.55656
-7.55571
-7.5554
-7.55553
-7.55576
-7.55586
-7.55557
-7.55458
-7.55277
-7.55062
-7.54914
-7.54901
-7.54981
-7.55066
-7.55118
-7.55211
-7.55248
-7.54957
-7.54501
-7.54486
-7.55476
-7.56583
-7.56729
-7.56328
-7.5665
-7.58568
-7.62507
-7.68399
-7.75832
-7.84223
-7.92992
-8.01648
-8.09837
-8.17336
-8.24032
-8.29888
-8.34911
-8.39141
-8.42632
-8.45443
-8.47631
-8.49249
-8.50343
-8.50953
-8.51111
-8.50843
-8.50172
-8.49113
-8.47679
-8.45878
-8.43718
-8.41202
-8.3833
-8.35102
-8.31517
-8.27571
-8.23258
-8.18575
-8.13514
-8.08069
-8.02232
-7.95996
-7.89353
-7.82295
-7.74813
-7.66897
-7.58538
-7.49727
-7.40453
-7.30702
-7.2046
-7.0973
-6.98525
-6.86834
-6.74642
-6.61941
-6.48723
-6.34984
-6.20719
-6.05923
-5.90592
-5.74725
-5.58318
-5.41371
-5.23882
-5.05853
-4.87284
-4.68179
-4.48539
-4.28369
-4.07675
-3.86463
-3.64741
-3.42517
-3.19802
-2.96606
-2.72941
-2.48822
-2.24264
-1.99282
-1.73894
-1.48119
-1.21978
-0.954907
-0.686811
-0.415726
-0.141907
0.134385
0.412879
0.693296
0.975348
1.25874
1.54316
1.82831
2.11388
2.39953
2.68498
2.9699
3.25398
3.5369
3.81836
4.09804
4.37567
4.65095
4.92363
5.19343
5.46011
5.72345
5.98321
6.23919
6.49121
6.73909
6.98267
7.2218
7.45637
7.68625
7.91136
8.1316
8.3469
8.5572
8.76251
8.9628
9.15799
9.34808
9.53292
9.71232
9.88634
10.0552
10.2192
10.3786
10.5344
10.6868
10.8435
10.9899
-7.55983
-7.55986
-7.56002
-7.56031
-7.56068
-7.56085
-7.56098
-7.56174
-7.56384
-7.56763
-7.57295
-7.57931
-7.58608
-7.59258
-7.59823
-7.60251
-7.60511
-7.60585
-7.60465
-7.60159
-7.59689
-7.59089
-7.58405
-7.57692
-7.57008
-7.56413
-7.55952
-7.55657
-7.55519
-7.55477
-7.55471
-7.55464
-7.55437
-7.55364
-7.55264
-7.55222
-7.55323
-7.55523
-7.55681
-7.55635
-7.55155
-7.54455
-7.54196
-7.54637
-7.54927
-7.5533
-7.56807
-7.59213
-7.61963
-7.64887
-7.68331
-7.72591
-7.77759
-7.83716
-7.90229
-7.97027
-8.03851
-8.10485
-8.16764
-8.22574
-8.27845
-8.32537
-8.36637
-8.40147
-8.43087
-8.45482
-8.47358
-8.48745
-8.49669
-8.50157
-8.50228
-8.49901
-8.49192
-8.48112
-8.4667
-8.44873
-8.42724
-8.40226
-8.3738
-8.34183
-8.30633
-8.26726
-8.22457
-8.1782
-8.1281
-8.07418
-8.01638
-7.95461
-7.8888
-7.81886
-7.74471
-7.66627
-7.58345
-7.49617
-7.40434
-7.30782
-7.20647
-7.10024
-6.98916
-6.87319
-6.75225
-6.62624
-6.49509
-6.35876
-6.21719
-6.07034
-5.91816
-5.76063
-5.59772
-5.42943
-5.25575
-5.07667
-4.89221
-4.7024
-4.50725
-4.30682
-4.10114
-3.8903
-3.67435
-3.45339
-3.22751
-2.99682
-2.76144
-2.52151
-2.27717
-2.02858
-1.77591
-1.51936
-1.25911
-0.995386
-0.728403
-0.458402
-0.185628
0.0896554
0.367183
0.646677
0.92785
1.21041
1.49406
1.7785
2.06339
2.34844
2.63334
2.91778
3.20143
3.48399
3.76514
4.04459
4.32204
4.5972
4.86982
5.13962
5.40635
5.66979
5.9297
6.18588
6.43814
6.6863
6.9302
7.16968
7.40462
7.63491
7.86043
8.08111
8.29686
8.50761
8.71326
8.91378
9.10917
9.29944
9.48456
9.66454
9.83945
10.0094
10.1745
10.3352
10.4926
10.6459
10.8049
10.9454
-7.561
-7.56067
-7.56019
-7.56019
-7.56173
-7.56569
-7.57191
-7.57967
-7.58821
-7.59699
-7.60563
-7.61377
-7.62104
-7.62713
-7.63179
-7.63483
-7.63614
-7.63565
-7.63328
-7.62903
-7.62302
-7.61541
-7.60641
-7.59634
-7.58566
-7.57506
-7.56534
-7.55728
-7.5513
-7.54735
-7.54499
-7.54371
-7.54317
-7.54351
-7.54542
-7.54939
-7.55425
-7.55635
-7.55444
-7.55178
-7.55058
-7.54891
-7.55196
-7.56519
-7.58573
-7.61034
-7.64023
-7.67565
-7.71499
-7.75641
-7.79964
-7.84544
-7.89422
-7.94593
-7.99989
-8.05506
-8.11017
-8.16396
-8.21529
-8.26323
-8.30714
-8.34658
-8.38134
-8.41132
-8.43655
-8.45716
-8.47329
-8.48509
-8.49274
-8.4964
-8.49621
-8.4923
-8.48477
-8.4737
-8.45915
-8.44117
-8.41977
-8.39497
-8.36674
-8.33508
-8.29994
-8.26128
-8.21905
-8.17318
-8.12361
-8.07027
-8.01307
-7.95194
-7.88678
-7.81753
-7.74408
-7.66636
-7.58426
-7.49772
-7.40663
-7.3109
-7.21043
-7.10516
-6.99506
-6.88008
-6.76013
-6.63514
-6.50505
-6.36978
-6.2293
-6.08356
-5.93251
-5.77613
-5.6144
-5.44729
-5.2748
-5.09694
-4.91371
-4.72513
-4.53124
-4.33206
-4.12765
-3.91807
-3.7034
-3.4837
-3.25909
-3.02967
-2.79554
-2.55686
-2.31375
-2.06638
-1.81491
-1.55954
-1.30046
-1.03786
-0.771989
-0.503062
-0.231328
0.0429534
0.319518
0.59809
0.878386
1.16012
1.44299
1.72669
2.01092
2.29536
2.57971
2.86364
3.14685
3.42903
3.70985
3.98903
4.26628
4.5413
4.81382
5.08359
5.35035
5.61386
5.8739
6.13025
6.38272
6.63113
6.87532
7.11513
7.35042
7.58107
7.80697
8.02803
8.24417
8.45532
8.66141
8.8624
9.05826
9.249
9.43462
9.61522
9.79089
9.96162
10.1276
10.289
10.4473
10.6005
10.7593
10.8909
-7.56358
-7.56285
-7.5623
-7.56423
-7.57063
-7.5807
-7.59252
-7.60467
-7.61636
-7.62708
-7.63651
-7.64454
-7.65113
-7.65623
-7.65976
-7.66165
-7.66181
-7.66019
-7.65671
-7.65133
-7.64409
-7.63504
-7.62429
-7.61197
-7.59835
-7.58386
-7.56916
-7.55519
-7.54299
-7.53338
-7.52674
-7.52332
-7.52337
-7.52692
-7.53269
-7.53825
-7.54329
-7.54787
-7.55038
-7.55363
-7.56185
-7.57519
-7.59441
-7.62091
-7.65369
-7.69006
-7.72824
-7.76758
-7.80775
-7.84881
-7.89106
-7.93489
-7.98035
-8.02717
-8.07481
-8.12254
-8.16954
-8.215
-8.25818
-8.2985
-8.33548
-8.36881
-8.39827
-8.42377
-8.44526
-8.46279
-8.4764
-8.48618
-8.49222
-8.49461
-8.49345
-8.48881
-8.48075
-8.46932
-8.45455
-8.43647
-8.41508
-8.39036
-8.3623
-8.33086
-8.29601
-8.25769
-8.21583
-8.17039
-8.12127
-8.06842
-8.01174
-7.95116
-7.88659
-7.81794
-7.74512
-7.66805
-7.58663
-7.50078
-7.4104
-7.31542
-7.21574
-7.1113
-7.00205
-6.88791
-6.76883
-6.64472
-6.51551
-6.38116
-6.24161
-6.09681
-5.94672
-5.79131
-5.63056
-5.46445
-5.29298
-5.11614
-4.93394
-4.7464
-4.55355
-4.35542
-4.15206
-3.94354
-3.72992
-3.51129
-3.28773
-3.05935
-2.82627
-2.58861
-2.34652
-2.10016
-1.84969
-1.59529
-1.33716
-1.0755
-0.81054
-0.542497
-0.271619
0.00183838
0.277608
0.555423
0.834997
1.11604
1.39827
1.68137
1.96505
2.24898
2.53287
2.81639
3.09923
3.38108
3.66163
3.94059
4.21765
4.49254
4.76499
5.03472
5.30149
5.56506
5.82519
6.08169
6.33433
6.58295
6.82738
7.06745
7.30304
7.53402
7.76028
7.98172
8.19825
8.40981
8.61633
8.81777
9.0141
9.2053
9.39136
9.57238
9.74842
9.9195
10.0858
10.2474
10.4055
10.5576
10.7147
10.8367
-7.56898
-7.56774
-7.56855
-7.57562
-7.58778
-7.60176
-7.61582
-7.62907
-7.64095
-7.6513
-7.66018
-7.66758
-7.67351
-7.6779
-7.68068
-7.68177
-7.68112
-7.67867
-7.67433
-7.66807
-7.65985
-7.64967
-7.63753
-7.62348
-7.60763
-7.59028
-7.57195
-7.55349
-7.53619
-7.52164
-7.51149
-7.50686
-7.50793
-7.51278
-7.51853
-7.52422
-7.53123
-7.54081
-7.55366
-7.57105
-7.59403
-7.62222
-7.65435
-7.68929
-7.72647
-7.7653
-7.80514
-7.84556
-7.88631
-7.92737
-7.96883
-8.01076
-8.05307
-8.09555
-8.13787
-8.17955
-8.22013
-8.25909
-8.29596
-8.33034
-8.36189
-8.39036
-8.41555
-8.43735
-8.45569
-8.47055
-8.48194
-8.48989
-8.49445
-8.49566
-8.49356
-8.4882
-8.4796
-8.46779
-8.45277
-8.43455
-8.41311
-8.38843
-8.36049
-8.32922
-8.2946
-8.25655
-8.21501
-8.16991
-8.12119
-8.06875
-8.01252
-7.9524
-7.88832
-7.82019
-7.74791
-7.67139
-7.59055
-7.50529
-7.41554
-7.32119
-7.22217
-7.11842
-7.00986
-6.89643
-6.77805
-6.65466
-6.52618
-6.39257
-6.25376
-6.10972
-5.9604
-5.80577
-5.64581
-5.4805
-5.30983
-5.1338
-4.95241
-4.76569
-4.57366
-4.37636
-4.17383
-3.96614
-3.75334
-3.53553
-3.31279
-3.08522
-2.85294
-2.61608
-2.37478
-2.12919
-1.87948
-1.62583
-1.36843
-1.10749
-0.843223
-0.575854
-0.305629
-0.0328035
0.242361
0.519597
0.798623
1.07915
1.36088
1.64352
1.92676
2.21031
2.49385
2.77704
3.05958
3.34117
3.6215
3.90026
4.17717
4.45195
4.72431
4.994
5.26075
5.52433
5.78451
6.04107
6.29382
6.54257
6.78716
7.02742
7.26322
7.49443
7.72093
7.94263
8.15944
8.37128
8.57809
8.77983
8.97645
9.16793
9.35427
9.5355
9.71168
9.88282
10.0491
10.2104
10.3678
10.5183
10.6735
10.786
-7.57579
-7.57535
-7.58009
-7.59217
-7.60691
-7.62146
-7.63507
-7.64744
-7.65851
-7.66826
-7.67664
-7.68357
-7.689
-7.69284
-7.69506
-7.69557
-7.69434
-7.6913
-7.68638
-7.67952
-7.67066
-7.65976
-7.6468
-7.63176
-7.61472
-7.59588
-7.57573
-7.55523
-7.5359
-7.51976
-7.50884
-7.5045
-7.50483
-7.50679
-7.51103
-7.51934
-7.53341
-7.55356
-7.5789
-7.60832
-7.6408
-7.67572
-7.71252
-7.75062
-7.78968
-7.82945
-7.86973
-7.91026
-7.9508
-7.9912
-8.03136
-8.07125
-8.1108
-8.14985
-8.18817
-8.22549
-8.26146
-8.29577
-8.3281
-8.35813
-8.38564
-8.41041
-8.43228
-8.45114
-8.46693
-8.4796
-8.48914
-8.49553
-8.49881
-8.49897
-8.49603
-8.49001
-8.48091
-8.46874
-8.45348
-8.43511
-8.41362
-8.38896
-8.36109
-8.32996
-8.29552
-8.25769
-8.21642
-8.17162
-8.12321
-8.07112
-8.01526
-7.95554
-7.89187
-7.82416
-7.75232
-7.67626
-7.59589
-7.51112
-7.42187
-7.32804
-7.22956
-7.12635
-7.01834
-6.90546
-6.78764
-6.66481
-6.53691
-6.40387
-6.26565
-6.12219
-5.97346
-5.81943
-5.66008
-5.49537
-5.32531
-5.14989
-4.96912
-4.78302
-4.59161
-4.39493
-4.19302
-3.98595
-3.77377
-3.55657
-3.33443
-3.10747
-2.87579
-2.63952
-2.3988
-2.15378
-1.90463
-1.65153
-1.39466
-1.13424
-0.870481
-0.603604
-0.333857
-0.0614939
0.213232
0.490048
0.768673
1.04882
1.3302
1.6125
1.89543
2.17869
2.46196
2.7449
3.02721
3.30859
3.58874
3.86735
4.14413
4.41879
4.69106
4.96067
5.22738
5.49093
5.75111
6.00769
6.26048
6.5093
6.75396
6.99432
7.23022
7.46154
7.68817
7.91001
8.12696
8.33894
8.54591
8.74779
8.94455
9.13616
9.3226
9.50388
9.68004
9.85107
10.0171
10.1779
10.3344
10.483
10.6362
10.7399
-7.58137
-7.58317
-7.59285
-7.60703
-7.62123
-7.63458
-7.64706
-7.65861
-7.66908
-7.67835
-7.68628
-7.69278
-7.69777
-7.7012
-7.70301
-7.70315
-7.70159
-7.69824
-7.69304
-7.68593
-7.67684
-7.66576
-7.65263
-7.63745
-7.62032
-7.60151
-7.58158
-7.56158
-7.54335
-7.52955
-7.52127
-7.51633
-7.51375
-7.51499
-7.52238
-7.53751
-7.55966
-7.58693
-7.61785
-7.6514
-7.68689
-7.7239
-7.76216
-7.80135
-7.84114
-7.88124
-7.92141
-7.96145
-8.00121
-8.04055
-8.07939
-8.11764
-8.15517
-8.19182
-8.22741
-8.26173
-8.29455
-8.32563
-8.35475
-8.38168
-8.40624
-8.42828
-8.44766
-8.46429
-8.47811
-8.48907
-8.49714
-8.50229
-8.50452
-8.50383
-8.50021
-8.49365
-8.48415
-8.47167
-8.45621
-8.43772
-8.41618
-8.39153
-8.36373
-8.33272
-8.29843
-8.26079
-8.21973
-8.17517
-8.12703
-8.07523
-8.01966
-7.96026
-7.89691
-7.82955
-7.75806
-7.68236
-7.60236
-7.51797
-7.42911
-7.33568
-7.23761
-7.13482
-7.02722
-6.91476
-6.79736
-6.67495
-6.54746
-6.41485
-6.27705
-6.13402
-5.98573
-5.83213
-5.67321
-5.50895
-5.33932
-5.16434
-4.98402
-4.79835
-4.60739
-4.41114
-4.20968
-4.00304
-3.79129
-3.57452
-3.35282
-3.12628
-2.89501
-2.65915
-2.41883
-2.17421
-1.92545
-1.67272
-1.41623
-1.15617
-0.892756
-0.626218
-0.356802
-0.0847541
0.18967
0.466197
0.744547
1.02443
1.30556
1.58763
1.87034
2.1534
2.43647
2.71923
3.00138
3.2826
3.5626
3.84107
4.11773
4.39228
4.66446
4.934
5.20064
5.46414
5.72428
5.98084
6.23362
6.48243
6.7271
6.96746
7.20339
7.43475
7.66142
7.88329
8.10029
8.31233
8.51934
8.72127
8.91806
9.10968
9.2961
9.47731
9.65333
9.82411
9.9897
10.1498
10.3052
10.4518
10.6032
10.6987
-7.5844
-7.58917
-7.60144
-7.61487
-7.62761
-7.63984
-7.65154
-7.66253
-7.67255
-7.68142
-7.689
-7.69519
-7.69992
-7.70316
-7.70483
-7.7049
-7.7033
-7.69995
-7.69481
-7.68782
-7.67894
-7.66815
-7.65548
-7.641
-7.62493
-7.60762
-7.58983
-7.57309
-7.55917
-7.54848
-7.53988
-7.53346
-7.53163
-7.53682
-7.54972
-7.56926
-7.59399
-7.62269
-7.65448
-7.68868
-7.72478
-7.76234
-7.80097
-7.84031
-7.88006
-7.91995
-7.95976
-7.99932
-8.03846
-8.07706
-8.11498
-8.15209
-8.18823
-8.22327
-8.25704
-8.28937
-8.32008
-8.34899
-8.37592
-8.40072
-8.42324
-8.44336
-8.46099
-8.47603
-8.48844
-8.49816
-8.50515
-8.5094
-8.51087
-8.50956
-8.50543
-8.49848
-8.48869
-8.476
-8.4604
-8.44184
-8.42028
-8.39566
-8.36793
-8.33702
-8.30286
-8.26538
-8.2245
-8.18014
-8.13221
-8.08062
-8.02529
-7.96613
-7.90304
-7.83593
-7.76471
-7.68928
-7.60956
-7.52545
-7.43687
-7.34373
-7.24595
-7.14344
-7.03614
-6.92396
-6.80684
-6.68472
-6.55752
-6.42519
-6.28768
-6.14494
-5.99693
-5.84362
-5.68499
-5.52101
-5.35167
-5.17698
-4.99694
-4.81156
-4.62088
-4.42492
-4.22374
-4.01738
-3.80591
-3.58942
-3.36798
-3.14171
-2.91071
-2.6751
-2.43504
-2.19066
-1.94214
-1.68965
-1.43338
-1.17354
-0.910338
-0.644011
-0.374798
-0.102942
0.171295
0.447643
0.725822
1.00554
1.28651
1.56843
1.851
2.13392
2.41685
2.69947
2.98148
3.26258
3.54245
3.82081
4.09736
4.37182
4.6439
4.91334
5.1799
5.44332
5.70338
5.95986
6.21257
6.46131
6.70592
6.94623
7.18211
7.41342
7.64005
7.86189
8.07885
8.29086
8.49784
8.69972
8.89646
9.08801
9.27432
9.45537
9.63114
9.80156
9.9666
10.1259
10.28
10.4247
10.5744
10.6627
-7.58268
-7.58976
-7.60162
-7.61352
-7.62522
-7.63675
-7.64799
-7.65867
-7.66852
-7.67732
-7.6849
-7.69115
-7.69598
-7.69933
-7.70113
-7.70135
-7.69993
-7.69681
-7.69196
-7.68536
-7.67703
-7.667
-7.65534
-7.64218
-7.62784
-7.61297
-7.59862
-7.58559
-7.57394
-7.56345
-7.55498
-7.5508
-7.55295
-7.56171
-7.57648
-7.5966
-7.62125
-7.64972
-7.68132
-7.71544
-7.7515
-7.78901
-7.82754
-7.86674
-7.90631
-7.94601
-7.9856
-8.02491
-8.06376
-8.10197
-8.13938
-8.17581
-8.21114
-8.24523
-8.27791
-8.30904
-8.33846
-8.36603
-8.39161
-8.41507
-8.43631
-8.45522
-8.47172
-8.48575
-8.49725
-8.50618
-8.5125
-8.51616
-8.51716
-8.51545
-8.51103
-8.50384
-8.49387
-8.48108
-8.46542
-8.44685
-8.42532
-8.40076
-8.37311
-8.34231
-8.30827
-8.27093
-8.2302
-8.18599
-8.13823
-8.08681
-8.03166
-7.97267
-7.90976
-7.84283
-7.77178
-7.69654
-7.61699
-7.53307
-7.44466
-7.3517
-7.2541
-7.15177
-7.04464
-6.93263
-6.81568
-6.69372
-6.56669
-6.43452
-6.29717
-6.15459
-6.00674
-5.85359
-5.69511
-5.53129
-5.36211
-5.18758
-5.00769
-4.82247
-4.63194
-4.43613
-4.2351
-4.02889
-3.81757
-3.60121
-3.37992
-3.15378
-2.92291
-2.68744
-2.4475
-2.20325
-1.95485
-1.70247
-1.44631
-1.18658
-0.923487
-0.657265
-0.38815
-0.11639
0.157753
0.434009
0.712095
0.991724
1.2726
1.55442
1.8369
2.11973
2.40256
2.68508
2.967
3.248
3.52778
3.80604
4.08248
4.35682
4.62879
4.89813
5.16456
5.42787
5.68781
5.94418
6.19677
6.44539
6.68988
6.93007
7.16583
7.39703
7.62354
7.84527
8.06212
8.27402
8.48088
8.68264
8.87925
9.07064
9.25677
9.43757
9.61301
9.78297
9.94737
10.1057
10.2586
10.4013
10.5495
10.6315
-7.57198
-7.57982
-7.59052
-7.60178
-7.61325
-7.62471
-7.63603
-7.64693
-7.65711
-7.6663
-7.67431
-7.68099
-7.68625
-7.69001
-7.69223
-7.69285
-7.69183
-7.68916
-7.68483
-7.67883
-7.67119
-7.66196
-7.65131
-7.63956
-7.62726
-7.61494
-7.60275
-7.59068
-7.57921
-7.56959
-7.56355
-7.56243
-7.56666
-7.57629
-7.59133
-7.61143
-7.63599
-7.66436
-7.69586
-7.72987
-7.76582
-7.80324
-7.84173
-7.88092
-7.92052
-7.96026
-7.99991
-8.03927
-8.07813
-8.11627
-8.15353
-8.18976
-8.22479
-8.25847
-8.29067
-8.32123
-8.35003
-8.37693
-8.40184
-8.42463
-8.44522
-8.46351
-8.47943
-8.49294
-8.50397
-8.5125
-8.51848
-8.52188
-8.52267
-8.52082
-8.51629
-8.50905
-8.49906
-8.48628
-8.47066
-8.45216
-8.4307
-8.40623
-8.37868
-8.34799
-8.31406
-8.27684
-8.23622
-8.19213
-8.14448
-8.09318
-8.03814
-7.97926
-7.91645
-7.84961
-7.77867
-7.70351
-7.62406
-7.54022
-7.4519
-7.35902
-7.26149
-7.15923
-7.05218
-6.94024
-6.82335
-6.70145
-6.57448
-6.44236
-6.30507
-6.16254
-6.01474
-5.86164
-5.70321
-5.53944
-5.37031
-5.19582
-5.01598
-4.83081
-4.64033
-4.44457
-4.24358
-4.03741
-3.82613
-3.60982
-3.38856
-3.16246
-2.93163
-2.69619
-2.45629
-2.21207
-1.96369
-1.71135
-1.45522
-1.19552
-0.932455
-0.666263
-0.397178
-0.12545
0.148661
0.424883
0.702935
0.982529
1.26336
1.54515
1.82758
2.11035
2.39311
2.67556
2.95739
3.23831
3.51799
3.79614
4.07248
4.3467
4.61854
4.88774
5.15404
5.41719
5.67698
5.93319
6.18561
6.43407
6.67839
6.91841
7.154
7.38502
7.61136
7.83291
8.04959
8.2613
8.46799
8.66956
8.86597
9.05713
9.243
9.42348
9.59851
9.76794
9.93162
10.089
10.2406
10.3814
10.528
10.6046
-7.54851
-7.55599
-7.56679
-7.57894
-7.59114
-7.60321
-7.61523
-7.62701
-7.63818
-7.64839
-7.65741
-7.66503
-7.67113
-7.67567
-7.67856
-7.67976
-7.67922
-7.67697
-7.67299
-7.66732
-7.66006
-7.65145
-7.64176
-7.63116
-7.61974
-7.6076
-7.59508
-7.58289
-7.57222
-7.56428
-7.5599
-7.55989
-7.56497
-7.57545
-7.59128
-7.61204
-7.6371
-7.66581
-7.69756
-7.73174
-7.76787
-7.80548
-7.84419
-7.88365
-7.92354
-7.96361
-8.00361
-8.04329
-8.08243
-8.12083
-8.15832
-8.19472
-8.22989
-8.26365
-8.29586
-8.32639
-8.35509
-8.38188
-8.40663
-8.42926
-8.4497
-8.46785
-8.48367
-8.4971
-8.50808
-8.51658
-8.52257
-8.52601
-8.52686
-8.52509
-8.52066
-8.51353
-8.50365
-8.49099
-8.4755
-8.4571
-8.43576
-8.41139
-8.38395
-8.35334
-8.31951
-8.28236
-8.24182
-8.1978
-8.15021
-8.09896
-8.04396
-7.98512
-7.92234
-7.85553
-7.7846
-7.70946
-7.63002
-7.54618
-7.45786
-7.36497
-7.26744
-7.16517
-7.05809
-6.94613
-6.82922
-6.70729
-6.58028
-6.44813
-6.3108
-6.16824
-6.0204
-5.86727
-5.7088
-5.54499
-5.37583
-5.2013
-5.02143
-4.83622
-4.6457
-4.44991
-4.24889
-4.04269
-3.83138
-3.61504
-3.39376
-3.16763
-2.93677
-2.70131
-2.46138
-2.21713
-1.96873
-1.71637
-1.46022
-1.20049
-0.937411
-0.671201
-0.402101
-0.130361
0.143758
0.419983
0.698033
0.977617
1.25844
1.5402
1.82261
2.10532
2.38801
2.6704
2.95215
3.23297
3.51256
3.79059
4.0668
4.34088
4.61258
4.88161
5.14774
5.41071
5.67031
5.92632
6.17854
6.42678
6.67089
6.91069
7.14606
7.37685
7.60297
7.8243
8.04075
8.25224
8.45869
8.66002
8.85617
9.04705
9.2326
9.41271
9.58727
9.7561
9.91901
10.0754
10.2257
10.3647
10.5098
10.5818
-7.51015
-7.51763
-7.5303
-7.54466
-7.55839
-7.57168
-7.5851
-7.59851
-7.61141
-7.62332
-7.63389
-7.6429
-7.65021
-7.65572
-7.65933
-7.66103
-7.66081
-7.65874
-7.65489
-7.64932
-7.64213
-7.6334
-7.62319
-7.61161
-7.59893
-7.58564
-7.5725
-7.56044
-7.5503
-7.54296
-7.53947
-7.54082
-7.54761
-7.55987
-7.57727
-7.59929
-7.62535
-7.65484
-7.68721
-7.72194
-7.75856
-7.79667
-7.83588
-7.87586
-7.91632
-7.95698
-7.99758
-8.03784
-8.07754
-8.1165
-8.15451
-8.19141
-8.22703
-8.26121
-8.29382
-8.32472
-8.35378
-8.3809
-8.40597
-8.42891
-8.44964
-8.4681
-8.48423
-8.49798
-8.50927
-8.51808
-8.52436
-8.52808
-8.5292
-8.52767
-8.52347
-8.51655
-8.50688
-8.49439
-8.47906
-8.46081
-8.43959
-8.41534
-8.38799
-8.35746
-8.32369
-8.28659
-8.24608
-8.20208
-8.1545
-8.10325
-8.04823
-7.98936
-7.92655
-7.8597
-7.78872
-7.71352
-7.63401
-7.5501
-7.4617
-7.36873
-7.27111
-7.16875
-7.06158
-6.94952
-6.83251
-6.71048
-6.58337
-6.45112
-6.31369
-6.17102
-6.02309
-5.86985
-5.71129
-5.54739
-5.37813
-5.20351
-5.02355
-4.83826
-4.64766
-4.45179
-4.25069
-4.04442
-3.83304
-3.61663
-3.39528
-3.16908
-2.93816
-2.70264
-2.46265
-2.21835
-1.9699
-1.71748
-1.46129
-1.20152
-0.938402
-0.672157
-0.40303
-0.131268
0.142866
0.419101
0.697152
0.976725
1.25753
1.53928
1.82164
2.10428
2.3869
2.6692
2.95086
3.23157
3.51102
3.78892
4.06497
4.33889
4.6104
4.87924
5.14515
5.40791
5.66728
5.92305
6.17502
6.42301
6.66685
6.9064
7.1415
7.37203
7.59788
7.81894
8.03512
8.24634
8.45251
8.65356
8.84941
9.03997
9.22515
9.40484
9.57889
9.74709
9.90919
10.0645
10.2135
10.3509
10.4944
10.5628
-7.45735
-7.46629
-7.4823
-7.49978
-7.51539
-7.53019
-7.54541
-7.56095
-7.57608
-7.59015
-7.60275
-7.61354
-7.62232
-7.62896
-7.63339
-7.63559
-7.63555
-7.63331
-7.62888
-7.6223
-7.61368
-7.60313
-7.59088
-7.5773
-7.56295
-7.5485
-7.53465
-7.52227
-7.5124
-7.50622
-7.50476
-7.50863
-7.51795
-7.53244
-7.55171
-7.57525
-7.60253
-7.63304
-7.6663
-7.70184
-7.73923
-7.77808
-7.81801
-7.85873
-7.89992
-7.94131
-7.98263
-8.02363
-8.06411
-8.10384
-8.14264
-8.18031
-8.21668
-8.25161
-8.28496
-8.31661
-8.34641
-8.37427
-8.40007
-8.42371
-8.44512
-8.46422
-8.48096
-8.49527
-8.5071
-8.51641
-8.52316
-8.5273
-8.52881
-8.52765
-8.52378
-8.51715
-8.50774
-8.49549
-8.48034
-8.46226
-8.44118
-8.41704
-8.38977
-8.3593
-8.32556
-8.28848
-8.24796
-8.20393
-8.15631
-8.105
-8.04991
-7.99096
-7.92805
-7.86109
-7.79
-7.71469
-7.63505
-7.55101
-7.46247
-7.36936
-7.27159
-7.16909
-7.06176
-6.94955
-6.83239
-6.71021
-6.58295
-6.45055
-6.31297
-6.17016
-6.02208
-5.86871
-5.71001
-5.54598
-5.3766
-5.20186
-5.02178
-4.83638
-4.64568
-4.44971
-4.24851
-4.04215
-3.83069
-3.6142
-3.39276
-3.1665
-2.93552
-2.69993
-2.45988
-2.21554
-1.96704
-1.71459
-1.45836
-1.19856
-0.93541
-0.669148
-0.40001
-0.128246
0.145884
0.422104
0.700128
0.979669
1.26044
1.54213
1.8244
2.10694
2.38945
2.67163
2.95316
3.23372
3.51301
3.79073
4.06658
4.34029
4.61157
4.88017
5.14584
5.40833
5.66743
5.92292
6.1746
6.4223
6.66584
6.90508
7.13988
7.37011
7.59566
7.81642
8.0323
8.24321
8.44908
8.64982
8.84533
9.03554
9.22033
9.39956
9.57307
9.7406
9.90188
10.0562
10.2039
10.3397
10.4816
10.5471
-7.39469
-7.40619
-7.42654
-7.44754
-7.46494
-7.48114
-7.49825
-7.51615
-7.53383
-7.55043
-7.56532
-7.57805
-7.58834
-7.596
-7.60091
-7.60301
-7.6023
-7.59883
-7.59267
-7.58397
-7.57293
-7.5599
-7.54529
-7.52964
-7.51355
-7.49782
-7.48345
-7.47158
-7.46336
-7.45972
-7.46119
-7.46792
-7.47978
-7.49645
-7.51751
-7.54251
-7.57102
-7.60257
-7.63675
-7.67313
-7.7113
-7.75092
-7.79166
-7.83318
-7.8752
-7.91741
-7.95958
-8.00148
-8.0429
-8.08361
-8.12341
-8.16211
-8.19955
-8.23555
-8.26996
-8.30263
-8.33344
-8.36226
-8.389
-8.41355
-8.43582
-8.45574
-8.47324
-8.48827
-8.50077
-8.51072
-8.51805
-8.52273
-8.52473
-8.524
-8.52052
-8.51424
-8.50512
-8.49312
-8.47819
-8.46027
-8.43932
-8.41527
-8.38806
-8.35763
-8.32389
-8.28678
-8.24622
-8.20213
-8.15441
-8.103
-8.04779
-7.98871
-7.92566
-7.85855
-7.78731
-7.71182
-7.63201
-7.54779
-7.45908
-7.36578
-7.26783
-7.16513
-7.05762
-6.94523
-6.82788
-6.70552
-6.57809
-6.44552
-6.30777
-6.1648
-6.01656
-5.86304
-5.7042
-5.54004
-5.37053
-5.19567
-5.01547
-4.82997
-4.63918
-4.44312
-4.24184
-4.0354
-3.82387
-3.60733
-3.38584
-3.15953
-2.92851
-2.6929
-2.45283
-2.20847
-1.95996
-1.7075
-1.45128
-1.19149
-0.928369
-0.662136
-0.393035
-0.121315
0.152758
0.428909
0.706855
0.986317
1.267
1.54855
1.83067
2.11306
2.39541
2.67742
2.95875
3.2391
3.51817
3.79565
4.07125
4.34469
4.6157
4.88401
5.14937
5.41156
5.67033
5.92549
6.17685
6.42421
6.66742
6.90632
7.14078
7.37068
7.59589
7.81632
8.03188
8.24247
8.44801
8.64841
8.84358
9.03341
9.21779
9.39655
9.5695
9.73636
9.89682
10.0501
10.1966
10.3309
10.4711
10.5345
-7.32968
-7.34381
-7.36883
-7.39336
-7.4122
-7.42933
-7.44796
-7.46806
-7.48831
-7.50744
-7.52451
-7.53897
-7.55041
-7.55856
-7.56327
-7.56449
-7.56226
-7.55673
-7.54813
-7.53676
-7.523
-7.50731
-7.49026
-7.47256
-7.45516
-7.43915
-7.42565
-7.41566
-7.40996
-7.40907
-7.41316
-7.42222
-7.43604
-7.45431
-7.47669
-7.5028
-7.53226
-7.56465
-7.59956
-7.6366
-7.67544
-7.71575
-7.75723
-7.79955
-7.84241
-7.88553
-7.92867
-7.97159
-8.01407
-8.05589
-8.09684
-8.13673
-8.17537
-8.21256
-8.24815
-8.28198
-8.31391
-8.34382
-8.37161
-8.39717
-8.42042
-8.44127
-8.45966
-8.47552
-8.48881
-8.49948
-8.50747
-8.51276
-8.5153
-8.51507
-8.51201
-8.5061
-8.4973
-8.48556
-8.47084
-8.45309
-8.43227
-8.4083
-8.38114
-8.35071
-8.31696
-8.2798
-8.23917
-8.19498
-8.14715
-8.0956
-8.04025
-7.98102
-7.91781
-7.85053
-7.77909
-7.70342
-7.62341
-7.539