/*--------------------------------*- C++ -*----------------------------------*\
| =========                 |                                                 |
| \\      /  F ield         | OpenFOAM: The Open Source CFD Toolbox           |
|  \\    /   O peration     | Version:  2406                                  |
|   \\  /    A nd           | Website:  www.openfoam.com                      |
|    \\/     M anipulation  |                                                 |
\*---------------------------------------------------------------------------*/
FoamFile
{
    version     2.0;
    format      ascii;
    arch        "LSB;label=32;scalar=64";
    class       volScalarField;
    location    "0.95";
    object      nu;
}
// * * * * * * * * * * * * * * * * * * * * * * * * * * * * * * * * * * * * * //

dimensions      [0 2 -1 0 0 0 0];

internalField   nonuniform List<scalar> 
1800
(
0.0282082
0.0158681
0.0125956
0.0109036
0.00980476
0.00912402
0.00870021
0.00839746
0.00828623
0.00843098
0.0467871
0.0358382
0.0148162
0.0108703
0.00949878
0.00885052
0.00851731
0.00831645
0.00842997
0.00825789
0.0557395
0.0213943
0.011995
0.00968021
0.0088523
0.00849161
0.008354
0.00829804
0.00859443
0.00832251
0.0593207
0.012873
0.00952539
0.00861
0.00827257
0.00818759
0.00824144
0.0083277
0.00872553
0.00840484
0.0169554
0.00980743
0.00835592
0.00797431
0.00793462
0.00807215
0.00830222
0.0085295
0.00897597
0.00848705
0.0111517
0.00840588
0.00771827
0.00764345
0.00783379
0.00816959
0.00855199
0.00887094
0.00917862
0.00870948
0.00886818
0.00764059
0.00736732
0.00753346
0.00793461
0.00844863
0.00893491
0.0092562
0.00940168
0.00913663
0.00771534
0.00718121
0.00719464
0.00757701
0.00817769
0.00884581
0.00940522
0.00973048
0.00987666
0.0100069
0.00704125
0.00689788
0.00714126
0.00773283
0.00854743
0.0094091
0.0101262
0.010586
0.0109071
0.0113435
0.00661139
0.00672128
0.00717141
0.00800133
0.00912261
0.010338
0.0113933
0.0120597
0.0124155
0.0129635
0.00720657
0.00925998
0.0123897
0.0142757
0.0145234
0.0144424
0.0143199
0.0141576
0.0139673
0.0138255
0.00706699
0.00900826
0.0125364
0.0154845
0.015713
0.0153294
0.0150718
0.0147841
0.0144666
0.0142077
0.00699845
0.00879107
0.0124956
0.0180257
0.0207651
0.0191043
0.0171827
0.0161678
0.0156245
0.0151356
0.00698965
0.00860091
0.0122499
0.0219489
0.050859
0.0560154
0.0304753
0.0213487
0.0182649
0.0169229
0.00707897
0.00846634
0.0113532
0.0172213
0.0275247
0.0409663
0.0485358
0.038638
0.0263334
0.0210039
0.0073178
0.00841438
0.0103861
0.0132378
0.0161352
0.0185178
0.020249
0.0207504
0.0197427
0.0203754
0.00777187
0.00850118
0.00974449
0.0112737
0.0125078
0.0133316
0.0139421
0.0143761
0.0144302
0.0156812
0.0085943
0.00880987
0.00946277
0.0102877
0.0108704
0.0112018
0.0114362
0.0116444
0.0116953
0.0125778
0.0102336
0.0095368
0.00961452
0.0099394
0.0100787
0.0100655
0.0100312
0.0100409
0.00994652
0.0104759
0.0142588
0.0111991
0.0104554
0.0102055
0.00984215
0.0094717
0.00919215
0.00899918
0.00873049
0.00934143
0.014838
0.0130076
0.0137737
0.0151626
0.0169251
0.0200216
0.0238021
0.0285289
0.0312222
0.0402902
0.0153812
0.0135177
0.0137957
0.0148684
0.0163101
0.0191504
0.0228187
0.0275725
0.0304313
0.0392698
0.0165281
0.0148948
0.0139306
0.0144869
0.0155886
0.0180615
0.0214215
0.0258832
0.0287302
0.0366564
0.019136
0.0169822
0.013389
0.0133661
0.0142499
0.0162824
0.0192093
0.0231212
0.0258705
0.0323132
0.0230789
0.0163557
0.0121314
0.0119104
0.0125414
0.0140138
0.0163148
0.0194616
0.0220097
0.0268833
0.0202239
0.0136315
0.0112896
0.0110179
0.0113266
0.0122163
0.0137737
0.0160258
0.0180833
0.0216118
0.0155
0.0121337
0.0111012
0.0107826
0.0108373
0.0112625
0.0121916
0.0136684
0.0150949
0.0175385
0.0125845
0.0115224
0.011173
0.0108676
0.0108698
0.0110117
0.0114917
0.0124145
0.0133131
0.0149564
0.0113347
0.0113453
0.0109273
0.0107812
0.0110348
0.0112075
0.0114449
0.0120077
0.0125379
0.013646
0.0101415
0.0101749
0.0102513
0.0103742
0.0109514
0.0115288
0.0118704
0.012278
0.0125664
0.0133265
0.00980463
0.00988575
0.00993262
0.00994851
0.0105714
0.0116471
0.0125835
0.0132697
0.0135568
0.0141406
0.00897604
0.00931481
0.0100987
0.0102234
0.0105433
0.0116426
0.0132511
0.0148322
0.0156973
0.0164455
0.0090777
0.0108092
0.0126143
0.0122219
0.012056
0.0128568
0.0146544
0.0172376
0.019522
0.0219291
0.0106589
0.0166343
0.0148906
0.0126757
0.0127251
0.0140105
0.0165948
0.0211139
0.0262347
0.0379157
0.0139596
0.037074
0.0154258
0.0130841
0.0131885
0.0145269
0.0173185
0.0224494
0.0280732
0.0435041
0.0179703
0.0295889
0.0142596
0.0124744
0.0127771
0.0139429
0.0158876
0.0185308
0.0209538
0.0240461
0.0163623
0.0132419
0.0109092
0.010312
0.0106285
0.0114006
0.0123961
0.013389
0.0141955
0.0149632
0.0100997
0.00890436
0.00835978
0.0084456
0.00893753
0.00955355
0.0101221
0.0105912
0.0109125
0.0112111
0.00750215
0.0073252
0.00746329
0.00787609
0.00838742
0.0088136
0.00910962
0.00931541
0.00942079
0.00953428
0.00689032
0.00730895
0.00805702
0.00898513
0.00952835
0.00953848
0.00932349
0.00912793
0.00896654
0.00891407
0.0155021
0.0137003
0.0120332
0.0104113
0.00950929
0.00893071
0.00859366
0.00861537
0.00813684
0.00859679
0.0158576
0.0184507
0.0154665
0.0149388
0.0115465
0.0110186
0.00920962
0.00919445
0.00831982
0.00848706
0.0161544
0.0198121
0.0167332
0.0210222
0.0137427
0.0145572
0.0111972
0.0107702
0.00984169
0.00895305
0.0179969
0.0182282
0.0203397
0.0192453
0.0190437
0.0157678
0.0158894
0.0124459
0.0131416
0.0106256
0.018042
0.0173438
0.0216011
0.0184566
0.0294415
0.0171986
0.0248115
0.0148389
0.0173348
0.0133046
0.0154548
0.0158987
0.0171579
0.0177789
0.0201796
0.0201429
0.0243416
0.0198551
0.0222288
0.0174747
0.0128874
0.0133381
0.0133735
0.0142103
0.0140989
0.0157052
0.0154445
0.0181833
0.0174879
0.0210588
0.0100716
0.0102004
0.00998961
0.0102148
0.00997559
0.0103434
0.0100915
0.0106314
0.0103637
0.0110493
0.00787317
0.00781047
0.00776599
0.0077368
0.00772236
0.00772183
0.00772261
0.00776011
0.00774672
0.00782693
0.00640968
0.00640224
0.00642864
0.0064323
0.00648479
0.00649224
0.00657397
0.00658022
0.00668841
0.00669209
0.0102276
0.0111253
0.0112103
0.0111927
0.0112494
0.011546
0.0120461
0.0100728
0.00717211
0.00588333
0.0108986
0.0111916
0.0112189
0.0112037
0.0113098
0.0117624
0.0124148
0.00992611
0.00706405
0.00584704
0.0116284
0.01173
0.0116718
0.0116662
0.0118107
0.0123752
0.0128988
0.00968123
0.00695841
0.00582184
0.0125877
0.0127685
0.0126562
0.0126202
0.0127888
0.0134999
0.0134922
0.00936536
0.00685561
0.00580942
0.0136447
0.0141633
0.0141175
0.0141243
0.0145426
0.0156151
0.013721
0.0089842
0.0067594
0.00581359
0.0148482
0.0158464
0.0162285
0.0169149
0.0183383
0.0188828
0.0130635
0.00857254
0.00667308
0.0058388
0.0159778
0.0176263
0.0191904
0.0220268
0.0246219
0.0191821
0.011704
0.00815022
0.00660317
0.0058923
0.0165284
0.0180749
0.0201258
0.0227906
0.021072
0.0149278
0.0102469
0.00776978
0.00656364
0.00598302
0.0161472
0.0165109
0.0172991
0.0173947
0.0151011
0.0118193
0.00915399
0.00747506
0.00656546
0.00612114
0.0146242
0.0143154
0.0142848
0.0136126
0.0119989
0.0100975
0.00844182
0.00727884
0.00661572
0.00632176
0.0120661
0.011756
0.0114895
0.0112499
0.0110217
0.0108148
0.0106188
0.0102951
0.00947314
0.00774657
0.0119326
0.011639
0.011383
0.011144
0.0109172
0.0107203
0.0105497
0.0101931
0.00905406
0.00724462
0.0118719
0.0115977
0.0113546
0.0111157
0.0108799
0.0106728
0.0105035
0.0100882
0.00867322
0.006883
0.0117269
0.0115069
0.0113128
0.0111022
0.0108948
0.0107296
0.0106169
0.0101407
0.00840115
0.00663169
0.0116339
0.0114172
0.0112257
0.011008
0.0107936
0.0106361
0.0105619
0.0100648
0.00814094
0.00643623
0.0117035
0.0115355
0.01137
0.0111435
0.0109166
0.0107604
0.0106978
0.0100655
0.00791297
0.00628235
0.0116134
0.0115444
0.0114499
0.0112432
0.0110237
0.0109015
0.0109049
0.0101202
0.00772681
0.00616257
0.0115463
0.0114506
0.0114109
0.0112513
0.0110841
0.0110431
0.0111617
0.0101931
0.00757139
0.0060697
0.0120667
0.0119312
0.0117114
0.0113742
0.0111215
0.0110891
0.0112764
0.0101405
0.00742426
0.0059936
0.011863
0.0118946
0.0119341
0.0117313
0.011487
0.0114708
0.0116823
0.0101098
0.00728868
0.0059314
0.0435942
0.0275487
0.0347551
0.0449743
0.0447144
0.0491902
0.035772
0.0277709
0.0183606
0.0133411
0.044298
0.0265292
0.0340766
0.0449878
0.0442577
0.0537676
0.0404987
0.0283632
0.0185831
0.0131935
0.0449436
0.0256081
0.0333088
0.0439074
0.0430527
0.0588516
0.0472045
0.0288819
0.0189278
0.013098
0.0455132
0.02471
0.0323401
0.0418459
0.0424444
0.0663688
0.0552465
0.0293047
0.019293
0.0128641
0.0458749
0.0237994
0.0312152
0.0398853
0.0442726
0.0771268
0.0606648
0.0296359
0.0195751
0.012756
0.0458052
0.0229489
0.0301432
0.0400918
0.0494784
0.0854131
0.0581184
0.0296793
0.019177
0.0127385
0.0455489
0.0223293
0.0292159
0.0436828
0.0550276
0.0805241
0.0477641
0.0284859
0.01844
0.0122847
0.0469352
0.0220276
0.0282432
0.0486478
0.053132
0.0593013
0.034475
0.0257889
0.016432
0.0123925
0.0521769
0.0218645
0.0269762
0.047858
0.0400479
0.0341926
0.0242495
0.0223065
0.0154981
0.0120265
0.0577583
0.0216704
0.0253393
0.0350112
0.0254942
0.0212001
0.017964
0.0174458
0.0137658
0.0130899
0.0758766
0.021795
0.0229352
0.0243807
0.0183541
0.0169087
0.0140741
0.0153323
0.0118228
0.0131117
0.15456
0.0210731
0.0198732
0.0195367
0.0158781
0.0162316
0.0123933
0.0157054
0.0106584
0.0133329
0.106553
0.0194498
0.0179169
0.0181425
0.0165106
0.0168103
0.0127217
0.0159122
0.0111579
0.0129554
0.0629159
0.0182728
0.016707
0.0174602
0.0202194
0.0171439
0.0156943
0.0152727
0.0138241
0.0121006
0.0518546
0.0181752
0.0159164
0.0169729
0.0261788
0.0179145
0.0261543
0.0156149
0.0171222
0.0123198
0.0556274
0.0187092
0.015768
0.0168758
0.0230499
0.020493
0.0280473
0.0178227
0.0175786
0.0136356
0.0729009
0.0201095
0.0167524
0.0169808
0.0169016
0.0218848
0.0164403
0.0207081
0.0165427
0.0156819
0.0567619
0.0259511
0.0171792
0.0144572
0.0126284
0.0136029
0.0119014
0.0141259
0.0122016
0.013152
0.0275544
0.0169933
0.0117723
0.0106935
0.0100764
0.00982934
0.00978472
0.00959781
0.00949237
0.00942599
0.00797329
0.00788235
0.00859579
0.00851526
0.00841043
0.00814429
0.00813255
0.00752709
0.00764066
0.00715826
0.0115093
0.0118448
0.0120163
0.0125231
0.0130352
0.0137321
0.0142835
0.0149837
0.0155506
0.0159107
0.0119942
0.0118224
0.0118561
0.0121391
0.0123389
0.0127754
0.0129354
0.0136893
0.0139468
0.0154584
0.0122336
0.0120322
0.0121673
0.0124377
0.0127643
0.0132103
0.0134521
0.0142933
0.0145819
0.0161836
0.0124217
0.0124183
0.0127696
0.01309
0.0137373
0.0140301
0.0147388
0.0149784
0.0160239
0.0163892
0.0132167
0.0134133
0.0139446
0.0143322
0.0149722
0.0149363
0.0155406
0.0152632
0.01625
0.0160432
0.0145409
0.0145653
0.0147051
0.014746
0.0147433
0.0145654
0.0145718
0.0144197
0.0146265
0.0147555
0.014692
0.0140962
0.0136389
0.0134376
0.0131834
0.0131094
0.0128827
0.012828
0.0126849
0.0128549
0.0120951
0.0116569
0.0112907
0.011096
0.0108902
0.0108019
0.010539
0.0104644
0.0102286
0.0102735
0.00921438
0.00902725
0.0088468
0.00868975
0.00855022
0.00841163
0.00828558
0.00815901
0.00805473
0.00795421
0.00701205
0.00690325
0.00680229
0.00671037
0.00663167
0.00656074
0.00650929
0.00646253
0.0064372
0.00641013
0.00610102
0.00700192
0.00894411
0.0140009
0.0341503
0.0273646
0.0166319
0.0126319
0.01021
0.0084825
0.00616881
0.00692926
0.00855801
0.0129128
0.0335206
0.0403332
0.0185043
0.0126777
0.0100666
0.00843065
0.00628134
0.00688696
0.00818125
0.0113286
0.0204261
0.0288503
0.0188688
0.0129733
0.0101782
0.00857101
0.00645622
0.00688725
0.00784271
0.0100113
0.0149458
0.0212437
0.0187305
0.0136236
0.0105771
0.00887451
0.00671943
0.00695469
0.0075853
0.00902313
0.0119741
0.0165217
0.0179837
0.0146805
0.0113979
0.00939006
0.00710681
0.00712684
0.007462
0.00835756
0.0101297
0.0130874
0.0159056
0.0154388
0.0127137
0.010223
0.00766159
0.00744366
0.00751792
0.00802041
0.0090661
0.0108382
0.0131714
0.0146201
0.0138493
0.0114996
0.00843374
0.00794063
0.00778504
0.0080013
0.00859912
0.00963244
0.0110832
0.0125759
0.0134057
0.0122467
0.0094537
0.0086421
0.00829663
0.00829925
0.00860706
0.00920894
0.0100531
0.0109872
0.0120028
0.0116913
0.0105917
0.00952332
0.00908918
0.00894215
0.00903127
0.00934025
0.00980953
0.0103176
0.010922
0.0112486
0.0113085
0.0103899
0.0101446
0.00998655
0.00987972
0.00989786
0.0100406
0.0102411
0.0103561
0.011086
0.0111529
0.0109307
0.0112842
0.0114976
0.011287
0.0109635
0.0107632
0.0106672
0.0104855
0.0109558
0.0105449
0.0111359
0.0122982
0.0135351
0.0136105
0.0128349
0.0122472
0.0118569
0.011381
0.0115096
0.0100492
0.011316
0.0134656
0.0170683
0.0198118
0.0180186
0.0159179
0.014422
0.0131033
0.0125876
0.00953845
0.011235
0.0140364
0.0202404
0.039799
0.0538899
0.0257922
0.0184889
0.0155306
0.0140089
0.00895654
0.0110253
0.0143961
0.0206894
0.0325143
0.0439269
0.0289242
0.0203757
0.0171115
0.0152644
0.00844489
0.0107397
0.0140811
0.0176252
0.02014
0.0216649
0.0207231
0.0182068
0.0164071
0.0151235
0.00803391
0.0103748
0.0133944
0.015316
0.0161282
0.0167012
0.0167081
0.0159949
0.0151874
0.0145024
0.00769248
0.00996238
0.0127913
0.0142249
0.0146579
0.014943
0.0150142
0.0147753
0.0143929
0.0140413
0.00741575
0.009581
0.0124561
0.0138997
0.0141887
0.0142967
0.0143193
0.0142034
0.0139892
0.0138059
0.0119083
0.0137078
0.0187065
0.0345991
0.0418864
0.0307625
0.0287528
0.0300715
0.0311577
0.0393577
0.011917
0.0135264
0.0183174
0.0261549
0.0321164
0.0290873
0.0284444
0.0303747
0.0324122
0.0440434
0.0120005
0.0136975
0.0179588
0.0233807
0.0278046
0.0277621
0.0279616
0.0301699
0.0325471
0.0446664
0.0122969
0.0142252
0.0176324
0.0221148
0.0252079
0.0263305
0.0272042
0.0296529
0.0320677
0.043395
0.012661
0.0147136
0.017002
0.020862
0.0232806
0.025026
0.0264389
0.0290838
0.0313479
0.0416029
0.0131014
0.0147261
0.0162054
0.0195344
0.0217742
0.0240206
0.0259215
0.0287666
0.0308133
0.0401572
0.0134771
0.0142693
0.0154586
0.0183056
0.0205461
0.02323
0.0256375
0.0287705
0.0306766
0.0394406
0.0137883
0.0136866
0.0148503
0.0172533
0.019482
0.0224903
0.0254081
0.0289432
0.0308727
0.0394183
0.0141039
0.0132302
0.0143743
0.0163787
0.0185258
0.0217107
0.0250717
0.0290728
0.0311897
0.0398221
0.0144486
0.0129805
0.0140004
0.0156724
0.0176661
0.020879
0.0245457
0.0289823
0.0313875
0.0402743
0.00980883
0.0122328
0.0144344
0.0162303
0.0152943
0.0137071
0.0125605
0.0117006
0.0112414
0.0109342
0.00981459
0.0112286
0.0129252
0.0137477
0.0136874
0.0131329
0.0126461
0.0121864
0.0119417
0.0116787
0.0110229
0.0125103
0.0153501
0.0171696
0.0171745
0.0162801
0.0155689
0.0150106
0.0146607
0.0142076
0.0120733
0.0141324
0.019538
0.0310016
0.0285134
0.0234596
0.0214914
0.0207992
0.0201598
0.0197755
0.0123548
0.0142488
0.0197959
0.0559075
0.0444658
0.0292367
0.0266317
0.0269596
0.0268932
0.0293935
0.00615246
0.00627389
0.00645342
0.00669411
0.00699129
0.00735381
0.00774147
0.00814965
0.008644
0.00882932
0.00640413
0.00651367
0.00669233
0.00693262
0.00721274
0.00753556
0.00783786
0.00820171
0.00858905
0.00893588
0.00671276
0.00680207
0.00697484
0.00721016
0.007481
0.00778876
0.00808459
0.00856023
0.00889953
0.00957396
0.00710614
0.00716574
0.00733498
0.00757876
0.00788292
0.00822567
0.00867167
0.00935117
0.00976917
0.0108136
0.00760371
0.00762204
0.00779252
0.00807173
0.00846755
0.00896552
0.00977252
0.0106333
0.010992
0.0123793
0.0135647
0.0136241
0.0137435
0.0134196
0.0129257
0.012462
0.0120313
0.0111623
0.00914775
0.00709239
0.014297
0.0139339
0.013434
0.0127994
0.0122799
0.0119183
0.0116447
0.0111085
0.00952676
0.00739028
0.0134486
0.0131214
0.0128551
0.0125163
0.0122127
0.0119732
0.0117565
0.0113276
0.0100285
0.00779024
0.0134139
0.0131079
0.0128311
0.0124907
0.0121596
0.0118727
0.0116185
0.0113041
0.010516
0.00834715
0.0132595
0.0128906
0.0125599
0.0122142
0.0118919
0.0116234
0.0114193
0.0113019
0.0111595
0.00928058
0.0130658
0.0126705
0.0123183
0.0119755
0.0116532
0.0113804
0.0111937
0.0112362
0.0118509
0.0110906
0.012827
0.0124237
0.0120672
0.0117347
0.0114168
0.0111381
0.0109399
0.011012
0.0121587
0.0152136
0.0125961
0.0122121
0.0118763
0.0115747
0.0112883
0.0110308
0.0108212
0.0107784
0.0115224
0.0137892
0.0123911
0.0120358
0.0117292
0.0114603
0.0112093
0.0109847
0.0107796
0.0106065
0.0106805
0.0100762
0.0122157
0.0118832
0.0115966
0.0113444
0.0111084
0.0108963
0.0106939
0.0104335
0.0100102
0.00855876
0.00877812
0.0105631
0.0127179
0.0151102
0.0180719
0.0198978
0.0140842
0.0093022
0.0070951
0.00606692
0.00934669
0.0110201
0.0126363
0.0139991
0.0150296
0.0154575
0.0134916
0.00958771
0.00720614
0.00606071
0.0100806
0.0114043
0.0124571
0.013195
0.0136104
0.0136565
0.0126462
0.00976685
0.00733263
0.00607993
0.0107472
0.011659
0.012321
0.0127052
0.0127739
0.0125844
0.0119266
0.00985007
0.00747063
0.00612344
0.0112682
0.0119021
0.0122854
0.0123652
0.012171
0.0118644
0.0114066
0.00991818
0.00763098
0.00619233
0.0117399
0.0121669
0.0122625
0.0120587
0.011719
0.0114289
0.0111479
0.0100457
0.00782212
0.00628517
0.0122218
0.0124114
0.012154
0.0117348
0.0113933
0.0112176
0.0111105
0.0102592
0.0080464
0.00640009
0.012611
0.0123953
0.011842
0.0114297
0.011244
0.0112376
0.0112898
0.0105794
0.00830556
0.00653667
0.0124313
0.0119232
0.0114964
0.0113517
0.0113875
0.011522
0.0116504
0.0109398
0.00858075
0.00669151
0.0115148
0.0117574
0.0118432
0.0119294
0.0120108
0.0120737
0.012034
0.0111851
0.00886275
0.00687227
0.0327057
0.0637548
0.0358202
0.0288402
0.0268448
0.0276972
0.0312869
0.0374499
0.0274409
0.0199315
0.0343554
0.05115
0.0395119
0.0294079
0.0273551
0.0275524
0.0295202
0.028709
0.0255345
0.0162742
0.035673
0.0449433
0.0408127
0.0298781
0.0280371
0.0279786
0.0289903
0.026475
0.0249575
0.0152776
0.0367571
0.0410213
0.041053
0.0308914
0.0291844
0.0287686
0.0285827
0.0255869
0.0234803
0.0151774
0.0377603
0.0381675
0.0405982
0.0326489
0.0309284
0.0299335
0.0283322
0.0254021
0.0220037
0.0150975
0.038784
0.0358221
0.0396256
0.0349963
0.0332323
0.0315307
0.0282827
0.0255525
0.0207033
0.0148687
0.0398448
0.0337255
0.0384487
0.0376265
0.0359804
0.0336831
0.0285085
0.025825
0.0196437
0.0145177
0.0409032
0.0318281
0.0373087
0.040198
0.0389624
0.0365449
0.029176
0.0261682
0.0189021
0.0141352
0.0419032
0.0301601
0.0363107
0.0424107
0.04178
0.0401991
0.0304661
0.0266073
0.0184704
0.0137997
0.0428033
0.0287407
0.0354719
0.0440546
0.0438617
0.0445412
0.0325725
0.0271572
0.018304
0.013544
0.00725101
0.00749348
0.00876716
0.00911373
0.00969486
0.00980772
0.0100317
0.0097808
0.00974824
0.00825201
0.0148517
0.0105641
0.0100448
0.0104363
0.0107568
0.0111339
0.0116293
0.0118426
0.0122217
0.0117796
0.0261489
0.0183751
0.0127041
0.012899
0.012932
0.0136221
0.0145375
0.0164069
0.0169884
0.0161459
0.0296455
0.0554726
0.0181142
0.0176995
0.0171704
0.0184056
0.0203016
0.0293284
0.0336531
0.0157765
0.0309168
0.09401
0.0271035
0.0239947
0.0225745
0.02393
0.0271968
0.04474
0.0427054
0.0175666
0.00781195
0.00746738
0.00712851
0.00682702
0.00657327
0.00636854
0.00621578
0.00611769
0.00607499
0.00608632
0.0106935
0.00981227
0.00901433
0.00833377
0.00773681
0.00723272
0.00684265
0.00657485
0.00642273
0.00637073
0.0133273
0.0120471
0.0109357
0.0100339
0.00919434
0.00840615
0.00772157
0.00720538
0.00688295
0.00673027
0.0135595
0.0126349
0.0118905
0.0112478
0.0104986
0.00965275
0.00877867
0.008009
0.00747765
0.00719372
0.0139432
0.0130988
0.0122832
0.0116695
0.0110833
0.0104574
0.00973418
0.00892553
0.00822949
0.00778898
)
;

boundaryField
{
    left
    {
        type            calculated;
        value           nonuniform List<scalar> 
35
(
0.0204662
0.0187089
0.0176979
0.0173114
0.017676
0.0186622
0.0200025
0.021037
0.0192249
0.00793285
0.0308123
0.0301077
0.0293547
0.0285663
0.027761
0.0269697
0.0261886
0.0252599
0.023916
0.0221972
0.029047
0.0302159
0.0309765
0.031521
0.0319584
0.0322754
0.0324038
0.0322962
0.0319597
0.0314448
0.00721482
0.0136102
0.0220733
0.0254582
0.027379
)
;
    }
    right
    {
        type            calculated;
        value           nonuniform List<scalar> 
35
(
0.010936
0.0116877
0.0142577
0.0200765
0.0311218
0.0451719
0.0539559
0.0565392
0.0556807
0.0536671
0.0521576
0.0520134
0.0533628
0.0558894
0.0589145
0.0611516
0.0605228
0.0550073
0.0449088
0.0337147
0.0247949
0.0190046
0.0157214
0.0141401
0.013735
0.014595
0.017096
0.0234032
0.0462768
0.049928
0.024507
0.0150777
0.0112508
0.00954801
0.00891677
)
;
    }
    down
    {
        type            calculated;
        value           nonuniform List<scalar> 
40
(
0.00638753
0.00681494
0.00838224
0.00868123
0.00936078
0.0093571
0.00948341
0.00914637
0.00894272
0.00743422
0.00708954
0.00684262
0.00659623
0.00638247
0.00621368
0.00608742
0.00600016
0.00595054
0.00593954
0.00596917
0.00604576
0.00617183
0.00635165
0.00659137
0.00689429
0.00727836
0.00771893
0.0082036
0.00879594
0.00896407
0.0103359
0.0144917
0.0186628
0.0253015
0.0204957
0.0158545
0.0134571
0.0120278
0.0113137
0.010907
)
;
    }
    up
    {
        type            calculated;
        value           nonuniform List<scalar> 
40
(
0.00686266
0.00791289
0.00988862
0.0123434
0.0124537
0.0110635
0.00995345
0.00932027
0.00894693
0.00879587
0.00600513
0.00601708
0.00604919
0.00607297
0.00612897
0.0061554
0.00624484
0.0062601
0.00639938
0.00638891
0.00644314
0.00635317
0.0062697
0.00619648
0.00613363
0.00608342
0.00604527
0.00601781
0.00600308
0.00599645
0.0067909
0.00687276
0.00784057
0.00790201
0.00787073
0.00763628
0.00754047
0.00697383
0.00705663
0.00657584
)
;
    }
    cylinder
    {
        type            calculated;
        value           nonuniform List<scalar> 
80
(
0.00667798
0.00657459
0.00654009
0.00656672
0.00669554
0.00699483
0.00756258
0.00864268
0.0110404
0.0184715
0.0628815
0.0446427
0.0297949
0.033608
0.0379801
0.0174928
0.0105867
0.00835372
0.00727882
0.00665981
0.00557979
0.00555706
0.00554587
0.00554839
0.00556943
0.00561554
0.00569542
0.00581953
0.00600183
0.00626644
0.00712857
0.0066881
0.00638111
0.00617028
0.00600962
0.00588534
0.00578991
0.00571718
0.00565899
0.00561315
0.00654271
0.00678256
0.00710567
0.00756783
0.00836097
0.00999477
0.0146032
0.0141465
0.00940123
0.00787265
0.00579146
0.00576246
0.00576049
0.00578349
0.00583113
0.00590043
0.00598913
0.00609635
0.00621958
0.00636482
0.00585213
0.00595358
0.00611107
0.00634638
0.00668829
0.0071759
0.007864
0.00883852
0.0102022
0.0118071
0.0125502
0.011684
0.0104457
0.00964407
0.00899144
0.00832001
0.00778031
0.00738642
0.00708227
0.00684726
)
;
    }
    defaultFaces
    {
        type            empty;
    }
}


// ************************************************************************* //
