/*--------------------------------*- C++ -*----------------------------------*\
| =========                 |                                                 |
| \\      /  F ield         | OpenFOAM: The Open Source CFD Toolbox           |
|  \\    /   O peration     | Version:  2406                                  |
|   \\  /    A nd           | Website:  www.openfoam.com                      |
|    \\/     M anipulation  |                                                 |
\*---------------------------------------------------------------------------*/
FoamFile
{
    version     2.0;
    format      ascii;
    arch        "LSB;label=32;scalar=64";
    class       volScalarField;
    location    "0.95";
    object      p;
}
// * * * * * * * * * * * * * * * * * * * * * * * * * * * * * * * * * * * * * //

dimensions      [0 2 -2 0 0 0 0];

internalField   nonuniform List<scalar> 
1800
(
-1.33719
-1.32471
-1.31538
-1.3046
-1.2927
-1.28306
-1.27911
-1.2837
-1.29925
-1.32713
-1.32342
-1.31569
-1.30975
-1.3007
-1.28732
-1.2745
-1.26569
-1.26266
-1.26594
-1.27912
-1.34264
-1.34137
-1.33425
-1.32491
-1.31321
-1.30171
-1.29273
-1.2873
-1.28487
-1.29265
-1.38452
-1.38205
-1.37639
-1.36671
-1.35552
-1.34421
-1.334
-1.32552
-1.3183
-1.31927
-1.44393
-1.4294
-1.42292
-1.41402
-1.4029
-1.39079
-1.37877
-1.36742
-1.35689
-1.35189
-1.4958
-1.48099
-1.47293
-1.46267
-1.44957
-1.43471
-1.41926
-1.40386
-1.38891
-1.37616
-1.54797
-1.53143
-1.52147
-1.50812
-1.49074
-1.47097
-1.45029
-1.42934
-1.40811
-1.38654
-1.5977
-1.57841
-1.56455
-1.5452
-1.52048
-1.49315
-1.46505
-1.43665
-1.4074
-1.37662
-1.6399
-1.6173
-1.59678
-1.56817
-1.53327
-1.49614
-1.45884
-1.42156
-1.38343
-1.34355
-1.66842
-1.64183
-1.61173
-1.57103
-1.52401
-1.47574
-1.42829
-1.38164
-1.33471
-1.28627
-1.20623
-1.20918
-1.20631
-1.20114
-1.19485
-1.18856
-1.18273
-1.17731
-1.17232
-1.16817
-1.28311
-1.28378
-1.28066
-1.2765
-1.27225
-1.26913
-1.26739
-1.2668
-1.2673
-1.26919
-1.35585
-1.3534
-1.35007
-1.34674
-1.34382
-1.34424
-1.34848
-1.35463
-1.36206
-1.37122
-1.41613
-1.41134
-1.40835
-1.40779
-1.40923
-1.4128
-1.41983
-1.43119
-1.44594
-1.46274
-1.45986
-1.45178
-1.44937
-1.45173
-1.45857
-1.46825
-1.48065
-1.49768
-1.51864
-1.54239
-1.47876
-1.46703
-1.46439
-1.468
-1.47774
-1.49298
-1.51245
-1.53537
-1.56155
-1.59129
-1.47202
-1.45721
-1.45381
-1.4569
-1.46634
-1.48219
-1.50396
-1.53107
-1.56242
-1.59684
-1.44511
-1.42815
-1.42325
-1.4241
-1.43091
-1.44438
-1.46449
-1.49106
-1.52306
-1.55822
-1.40748
-1.38956
-1.38243
-1.37919
-1.38054
-1.38794
-1.40214
-1.4237
-1.45235
-1.48521
-1.36908
-1.35192
-1.34283
-1.33489
-1.32904
-1.3277
-1.33297
-1.34681
-1.37021
-1.40191
-1.14363
-0.959738
-0.716127
-0.453458
-0.27918
-0.157263
-0.0821674
-0.0391014
-0.013944
-0.00172966
-1.26296
-1.08051
-0.782585
-0.47763
-0.278531
-0.147047
-0.0705271
-0.0297747
-0.00773825
0.000215864
-1.39661
-1.22263
-0.86503
-0.508526
-0.278906
-0.135971
-0.0576198
-0.0194009
-0.000763192
0.00255031
-1.53588
-1.3813
-0.962664
-0.546051
-0.280199
-0.123904
-0.0433122
-0.00789361
0.00702256
0.00538151
-1.66606
-1.54647
-1.07351
-0.590624
-0.283387
-0.111724
-0.0281794
0.00441899
0.0154322
0.00870397
-1.76915
-1.70734
-1.19437
-0.643438
-0.290744
-0.101528
-0.0137855
0.0165618
0.0238951
0.0123079
-1.83063
-1.85494
-1.32067
-0.706143
-0.3054
-0.096212
-0.00243828
0.0269953
0.0314488
0.0157408
-1.84276
-1.98247
-1.44639
-0.778122
-0.329329
-0.0983371
0.00337898
0.0338961
0.0368672
0.0183639
-1.80386
-2.0803
-1.56521
-0.856756
-0.361686
-0.108264
0.00218228
0.0357247
0.0389155
0.0195259
-1.72001
-2.12166
-1.67557
-0.940397
-0.400798
-0.124628
-0.00556808
0.0322437
0.0370998
0.0189086
-1.64451
-2.19854
-1.75487
-0.990017
-0.423479
-0.139003
-0.0183353
0.0226219
0.0303704
0.0159969
-1.59279
-2.16972
-1.71387
-0.97115
-0.429988
-0.159895
-0.0431274
0.00174318
0.0156802
0.00940179
-1.54048
-2.02969
-1.60346
-0.938951
-0.451803
-0.197511
-0.0765236
-0.0218157
0.00127365
0.00385322
-1.45159
-1.80747
-1.46775
-0.907749
-0.484092
-0.247558
-0.119207
-0.0496493
-0.0136279
-0.000470502
-1.32256
-1.58416
-1.34147
-0.890115
-0.52688
-0.30052
-0.161175
-0.0771631
-0.0286203
-0.00528604
-1.19138
-1.386
-1.23018
-0.882498
-0.578226
-0.359948
-0.206253
-0.106189
-0.0450727
-0.0116869
-1.0504
-1.22187
-1.15121
-0.89916
-0.639977
-0.418963
-0.247177
-0.131299
-0.0572236
-0.0153418
-0.907664
-1.10041
-1.10636
-0.926173
-0.691693
-0.46205
-0.274544
-0.146534
-0.0640584
-0.0167189
-0.805458
-1.04003
-1.07787
-0.936198
-0.718241
-0.484529
-0.289577
-0.155458
-0.0684505
-0.017828
-0.745568
-1.03823
-1.08912
-0.942361
-0.717709
-0.484829
-0.29295
-0.158652
-0.070415
-0.0186786
-1.18907
-1.25915
-1.3085
-1.33677
-1.34362
-1.33352
-1.31207
-1.30181
-1.31339
-1.38434
-1.04692
-1.12514
-1.18594
-1.23239
-1.25969
-1.28042
-1.29465
-1.32092
-1.35491
-1.40412
-0.9156
-0.997075
-1.0626
-1.12346
-1.16644
-1.20967
-1.24826
-1.29009
-1.34156
-1.3997
-0.795519
-0.876877
-0.945724
-1.01355
-1.06855
-1.12228
-1.17033
-1.21873
-1.27266
-1.33688
-0.687684
-0.766286
-0.837497
-0.90424
-0.963705
-1.02026
-1.07026
-1.12224
-1.17138
-1.23081
-0.592588
-0.66812
-0.737669
-0.801825
-0.860123
-0.914852
-0.963445
-1.01306
-1.05917
-1.11161
-0.512087
-0.584806
-0.651346
-0.7124
-0.766491
-0.81774
-0.860877
-0.904055
-0.943611
-0.986322
-0.448758
-0.518601
-0.583011
-0.639167
-0.690017
-0.735393
-0.772561
-0.807348
-0.835849
-0.866102
-0.409877
-0.477364
-0.541061
-0.593168
-0.642026
-0.679266
-0.70989
-0.733741
-0.750642
-0.767819
-0.394073
-0.463143
-0.526376
-0.58058
-0.629025
-0.665455
-0.697005
-0.71404
-0.72818
-0.72847
0.238996
0.171259
0.0978878
0.0244209
-0.0501752
-0.127602
-0.206951
-0.283902
-0.351902
-0.395046
0.052709
-0.0165659
-0.0899561
-0.165573
-0.244743
-0.328438
-0.414768
-0.498557
-0.572417
-0.621152
-0.153894
-0.222436
-0.294303
-0.369762
-0.450195
-0.536185
-0.625461
-0.712785
-0.789891
-0.842172
-0.351527
-0.420529
-0.492847
-0.569274
-0.650953
-0.738209
-0.82876
-0.917578
-0.997223
-1.04884
-0.531659
-0.602417
-0.676252
-0.754016
-0.836767
-0.924532
-1.01511
-1.10456
-1.18253
-1.23413
-0.695149
-0.767131
-0.841722
-0.919949
-1.00285
-1.08975
-1.1781
-1.26504
-1.34086
-1.3913
-0.844241
-0.91599
-0.989955
-1.06707
-1.1473
-1.2298
-1.31386
-1.39713
-1.46828
-1.51572
-0.980763
-1.05014
-1.12063
-1.1927
-1.26659
-1.34282
-1.42128
-1.49832
-1.56163
-1.60448
-1.10269
-1.16672
-1.23042
-1.2947
-1.36068
-1.4293
-1.49966
-1.56674
-1.61974
-1.65705
-1.20512
-1.26179
-1.3174
-1.37318
-1.43047
-1.48971
-1.54916
-1.60337
-1.64489
-1.67645
1.29341
1.29432
1.29514
1.29532
1.2947
1.29321
1.29092
1.28835
1.2881
1.30011
1.2435
1.24171
1.23944
1.23626
1.23204
1.22669
1.22036
1.21397
1.21057
1.21985
1.17632
1.17117
1.16521
1.15807
1.14966
1.13986
1.12882
1.11778
1.11022
1.11584
1.09356
1.08448
1.07378
1.06143
1.0475
1.03183
1.01468
0.997722
0.98478
0.985585
0.994092
0.980729
0.965205
0.947539
0.927814
0.905799
0.881774
0.857867
0.838601
0.834436
0.880265
0.862131
0.84079
0.816717
0.790241
0.76113
0.729719
0.698411
0.672076
0.662266
0.754287
0.731125
0.70377
0.672979
0.639193
0.602152
0.562371
0.522654
0.488077
0.472377
0.620021
0.591792
0.55738
0.518481
0.476112
0.430094
0.38114
0.332531
0.289519
0.26723
0.481191
0.447802
0.406129
0.358767
0.307236
0.251429
0.192332
0.13391
0.0820999
0.0528321
0.350738
0.304228
0.249087
0.190022
0.128253
0.0628464
-0.00554969
-0.0728668
-0.132797
-0.169072
1.36835
1.31713
1.32596
1.29621
1.27804
1.25692
1.24859
1.24089
1.25481
1.29242
1.36671
1.31492
1.32414
1.29309
1.27409
1.25086
1.24197
1.22973
1.23708
1.26385
1.36579
1.31303
1.32249
1.28956
1.26943
1.24407
1.23446
1.21604
1.21476
1.2251
1.3655
1.31151
1.32098
1.28558
1.26413
1.2367
1.226
1.1998
1.18836
1.17629
1.36576
1.31042
1.31961
1.2812
1.25843
1.22885
1.21652
1.18114
1.15835
1.11636
1.36646
1.30987
1.31833
1.27659
1.25258
1.22044
1.20602
1.16021
1.12527
1.04441
1.36743
1.30998
1.31702
1.27187
1.24656
1.21086
1.19447
1.13739
1.09006
0.960704
1.36866
1.31078
1.31564
1.26678
1.2396
1.19941
1.18181
1.11295
1.0522
0.864515
1.37041
1.3123
1.31427
1.26062
1.23079
1.18643
1.16835
1.08704
1.01052
0.752865
1.37187
1.31484
1.31333
1.25328
1.22022
1.17323
1.1546
1.06078
0.968854
0.635962
1.37124
1.31845
1.31321
1.24725
1.20986
1.15971
1.13953
1.03253
0.921366
0.534444
1.38056
1.32195
1.31755
1.24477
1.20204
1.14705
1.12408
1.00852
0.88218
0.55065
1.39448
1.32487
1.32555
1.24693
1.19772
1.13643
1.10753
0.985297
0.844646
0.560679
1.40343
1.33062
1.3347
1.25185
1.19473
1.12717
1.0887
0.965171
0.808605
0.560444
1.41124
1.33559
1.33972
1.25449
1.19067
1.11886
1.06689
0.946974
0.774935
0.553578
1.42089
1.33814
1.33746
1.24949
1.18551
1.11072
1.04389
0.933483
0.745386
0.542377
1.43184
1.33615
1.32666
1.23617
1.17919
1.10292
1.02396
0.928731
0.722878
0.530596
1.44487
1.33541
1.31181
1.22177
1.17168
1.09687
1.00744
0.93358
0.706973
0.525385
1.46107
1.33947
1.30161
1.2092
1.16521
1.09255
0.994847
0.938518
0.6973
0.530449
1.50456
1.34264
1.29765
1.20729
1.16509
1.09068
0.998898
0.943101
0.695456
0.552315
0.238484
0.0769679
-0.110355
-0.289621
-0.452283
-0.601532
-0.740178
-0.870471
-0.991717
-1.09927
0.2105
0.0730404
-0.0778549
-0.224538
-0.360861
-0.490275
-0.614161
-0.735119
-0.849575
-0.955304
0.216213
0.0883525
-0.0418239
-0.166314
-0.283889
-0.399029
-0.511582
-0.622742
-0.72756
-0.827737
0.234951
0.116548
-0.00121682
-0.110854
-0.213803
-0.315327
-0.416796
-0.518833
-0.615944
-0.710858
0.261822
0.15232
0.0440991
-0.054545
-0.146028
-0.235987
-0.327701
-0.421684
-0.51438
-0.604663
0.28965
0.191173
0.0928889
0.00268715
-0.0812502
-0.164128
-0.24921
-0.336967
-0.425322
-0.511505
0.317264
0.232235
0.143754
0.059114
-0.0214723
-0.101203
-0.182436
-0.265558
-0.350115
-0.432948
0.346442
0.273023
0.192425
0.110996
0.0308109
-0.0477714
-0.125806
-0.20541
-0.288154
-0.37005
0.366879
0.298489
0.222532
0.142773
0.0616816
-0.0172764
-0.0939317
-0.1719
-0.252943
-0.333128
0.389974
0.32097
0.245807
0.165993
0.0850206
0.00487119
-0.0755694
-0.157253
-0.239189
-0.318714
-0.83787
-0.808485
-0.765504
-0.716501
-0.667121
-0.621478
-0.580991
-0.545278
-0.515705
-0.493487
-0.931708
-0.902973
-0.862224
-0.813659
-0.764805
-0.71977
-0.680243
-0.64573
-0.616984
-0.595851
-0.995206
-0.967667
-0.930401
-0.884506
-0.837684
-0.793655
-0.754687
-0.72149
-0.693663
-0.672713
-1.03062
-1.00474
-0.972202
-0.931004
-0.886975
-0.84467
-0.807094
-0.77528
-0.748575
-0.727698
-1.04326
-1.01954
-0.992724
-0.957441
-0.917682
-0.878089
-0.841989
-0.811235
-0.78563
-0.765094
-1.04024
-1.01939
-0.998149
-0.969054
-0.934379
-0.898243
-0.863826
-0.833611
-0.808529
-0.788399
-1.02862
-1.0112
-0.994734
-0.971246
-0.94147
-0.908669
-0.875807
-0.845448
-0.819523
-0.798815
-1.01349
-0.999817
-0.987283
-0.968425
-0.94283
-0.912744
-0.881007
-0.850137
-0.822577
-0.800297
-0.996476
-0.986866
-0.977469
-0.962245
-0.9401
-0.9123
-0.881401
-0.849833
-0.820368
-0.797326
-0.976497
-0.970963
-0.963697
-0.950794
-0.931183
-0.905458
-0.875543
-0.843449
-0.811137
-0.78443
-0.953504
-0.951636
-0.945482
-0.933621
-0.915732
-0.892446
-0.865196
-0.835903
-0.805573
-0.773244
-0.932107
-0.932719
-0.927236
-0.915715
-0.898759
-0.877701
-0.85361
-0.827776
-0.80065
-0.769787
-0.918573
-0.920506
-0.915798
-0.905071
-0.888834
-0.869564
-0.848786
-0.826628
-0.802738
-0.775015
-0.916123
-0.918815
-0.915576
-0.907061
-0.892666
-0.874456
-0.856146
-0.837362
-0.816469
-0.791607
-0.920591
-0.92423
-0.921789
-0.915597
-0.904495
-0.888195
-0.872196
-0.856328
-0.837875
-0.812578
-0.935522
-0.940269
-0.938278
-0.933467
-0.925733
-0.912685
-0.896409
-0.88043
-0.864051
-0.846025
-0.966067
-0.971701
-0.970662
-0.966504
-0.958919
-0.946749
-0.931372
-0.915589
-0.899988
-0.884333
-1.01016
-1.01608
-1.01505
-1.01037
-1.00236
-0.991239
-0.977738
-0.963158
-0.948394
-0.934092
-1.06598
-1.07157
-1.06994
-1.06456
-1.05641
-1.04633
-1.03487
-1.02251
-1.00986
-0.997792
-1.13227
-1.13689
-1.13458
-1.129
-1.12138
-1.11283
-1.10381
-1.09444
-1.08502
-1.07624
-0.712722
-0.59875
-0.532707
-0.444747
-0.348734
-0.252376
-0.170091
-0.104924
-0.0558353
-0.0156217
-0.719927
-0.59803
-0.53061
-0.435329
-0.33687
-0.242504
-0.162504
-0.0999021
-0.0529669
-0.0147157
-0.734177
-0.601444
-0.531906
-0.428176
-0.326381
-0.232692
-0.154563
-0.0943352
-0.0495189
-0.0134433
-0.755066
-0.610257
-0.536892
-0.422192
-0.317199
-0.223086
-0.14643
-0.0884417
-0.0457557
-0.0120127
-0.780968
-0.625122
-0.545169
-0.417583
-0.308856
-0.213601
-0.138121
-0.0822944
-0.0417934
-0.0105517
-0.810113
-0.647242
-0.556983
-0.414736
-0.301309
-0.204241
-0.129665
-0.0759485
-0.037706
-0.00911741
-0.846139
-0.679631
-0.57302
-0.414344
-0.294659
-0.194983
-0.121031
-0.0694035
-0.0335125
-0.00772296
-0.895223
-0.723743
-0.595176
-0.417204
-0.289014
-0.185754
-0.112112
-0.0625791
-0.0291553
-0.0063424
-0.959988
-0.783154
-0.625023
-0.424103
-0.284479
-0.176458
-0.102767
-0.0553483
-0.0245253
-0.00492512
-1.0424
-0.860879
-0.664614
-0.435873
-0.281161
-0.166998
-0.0928412
-0.047571
-0.0194973
-0.00341115
-0.693757
-0.604275
-0.536315
-0.449436
-0.349329
-0.254095
-0.173026
-0.106629
-0.0558846
-0.0156749
-0.68636
-0.597683
-0.533632
-0.449531
-0.35078
-0.2557
-0.174348
-0.107643
-0.0564509
-0.0158126
-0.683639
-0.593082
-0.531055
-0.449402
-0.351189
-0.256042
-0.174474
-0.107674
-0.0565399
-0.0156913
-0.684184
-0.589354
-0.527301
-0.446834
-0.352553
-0.257065
-0.174887
-0.108015
-0.0570457
-0.0157939
-0.693563
-0.589958
-0.526392
-0.442795
-0.353329
-0.257377
-0.174503
-0.107855
-0.0573323
-0.0160021
-0.474136
-0.572701
-0.647533
-0.700783
-0.736203
-0.757757
-0.766796
-0.766896
-0.758735
-0.740448
-0.47181
-0.570931
-0.644636
-0.695946
-0.729129
-0.749176
-0.757585
-0.757398
-0.750988
-0.732165
-0.473217
-0.572768
-0.646425
-0.697463
-0.73048
-0.750781
-0.758709
-0.758146
-0.750533
-0.731663
-0.476595
-0.577475
-0.651804
-0.703426
-0.737213
-0.758057
-0.765776
-0.764139
-0.755292
-0.738198
-0.482598
-0.585135
-0.660698
-0.713613
-0.74895
-0.770748
-0.779209
-0.777197
-0.767997
-0.755864
0.99936
0.993023
0.983437
0.973274
0.963251
0.952966
0.942491
0.933022
0.927159
0.931403
1.07544
1.074
1.06979
1.06457
1.05894
1.0527
1.04596
1.03981
1.0369
1.04403
1.14508
1.14592
1.14483
1.14297
1.14077
1.13809
1.13495
1.13204
1.13169
1.14106
1.20744
1.21019
1.21174
1.21275
1.21343
1.21361
1.21316
1.21237
1.21346
1.22463
1.25975
1.26385
1.26736
1.27049
1.2733
1.2756
1.27713
1.27777
1.27959
1.29178
1.30105
1.30618
1.31116
1.31592
1.32037
1.32435
1.32749
1.32927
1.33128
1.34282
1.32967
1.33526
1.34108
1.34679
1.35225
1.35738
1.36188
1.36503
1.36745
1.37592
1.3441
1.34948
1.35522
1.36082
1.3661
1.37102
1.37538
1.37867
1.38166
1.39193
1.34329
1.3478
1.35259
1.3571
1.36112
1.36457
1.36733
1.36914
1.37165
1.38545
1.32658
1.32959
1.33272
1.33542
1.33746
1.3388
1.33941
1.33942
1.34103
1.35472
-0.365505
-0.389914
-0.420852
-0.457262
-0.498262
-0.543833
-0.593603
-0.642484
-0.685872
-0.714653
-0.215523
-0.242726
-0.275197
-0.31237
-0.353933
-0.399355
-0.447164
-0.494493
-0.537818
-0.564829
-0.0514476
-0.0812606
-0.115052
-0.152539
-0.193575
-0.237734
-0.283639
-0.328736
-0.369108
-0.394048
0.11673
0.085309
0.0509964
0.0140572
-0.02544
-0.0672947
-0.110418
-0.15227
-0.189139
-0.209461
0.280246
0.248814
0.21544
0.18042
0.143638
0.105041
0.0654991
0.0275451
-0.00496031
-0.020555
0.432697
0.40317
0.372514
0.34088
0.307887
0.273336
0.238044
0.20463
0.177176
0.165411
0.571391
0.54552
0.519103
0.491928
0.463386
0.43331
0.402617
0.374024
0.351533
0.343364
0.698009
0.676608
0.65495
0.632401
0.608327
0.582754
0.556743
0.532981
0.515108
0.510174
0.818131
0.80013
0.781557
0.76228
0.741909
0.720537
0.699159
0.680098
0.666442
0.664485
0.929004
0.913271
0.895621
0.878374
0.861473
0.844575
0.828126
0.813722
0.803956
0.804973
1.44198
1.35022
1.34127
1.29852
1.28309
1.26615
1.24516
1.22181
1.17991
1.10351
1.42836
1.34664
1.34196
1.30146
1.2858
1.26981
1.25147
1.2309
1.2018
1.15305
1.41638
1.34307
1.34162
1.30336
1.28747
1.27228
1.2566
1.24046
1.22478
1.20029
1.40607
1.3393
1.34057
1.30464
1.2885
1.27386
1.26065
1.2489
1.24409
1.24044
1.39724
1.33554
1.33899
1.30528
1.28887
1.27444
1.26329
1.25516
1.25907
1.27273
1.38973
1.33194
1.33698
1.30521
1.28856
1.27396
1.26439
1.25901
1.26986
1.29717
1.38342
1.32853
1.33471
1.30446
1.2876
1.27244
1.26396
1.2604
1.27633
1.31356
1.37822
1.32533
1.33237
1.30311
1.28606
1.26993
1.26205
1.25928
1.27826
1.32161
1.37402
1.32236
1.33009
1.30125
1.28397
1.26648
1.25878
1.25566
1.27543
1.32099
1.37076
1.31962
1.32794
1.29893
1.28131
1.26213
1.25424
1.24953
1.26763
1.31137
1.56281
1.36094
1.32743
1.27746
1.26634
1.24708
1.21867
1.18293
1.11712
1.02648
1.52436
1.36454
1.33424
1.28132
1.26878
1.24894
1.21986
1.18379
1.11584
1.01754
1.49998
1.36445
1.33709
1.28449
1.27095
1.25161
1.22294
1.18833
1.12214
1.02104
1.47665
1.36209
1.33911
1.2895
1.27479
1.25615
1.22931
1.19792
1.13284
1.03184
1.45759
1.35607
1.34005
1.29415
1.27894
1.26107
1.23672
1.20671
1.14888
1.04828
0.846584
0.769168
0.673246
0.557016
0.422447
0.272175
0.111604
-0.0513169
-0.208263
-0.351178
0.839083
0.762577
0.668198
0.554596
0.423511
0.276402
0.117455
-0.0456381
-0.204095
-0.34861
0.850129
0.771724
0.675315
0.561082
0.430104
0.283021
0.123535
-0.0409114
-0.20131
-0.347933
0.873233
0.786967
0.685313
0.569319
0.43738
0.289296
0.128554
-0.0377125
-0.200407
-0.34941
0.911639
0.810244
0.698032
0.577594
0.443434
0.293811
0.131601
-0.0365839
-0.20174
-0.353326
)
;

boundaryField
{
    left
    {
        type            zeroGradient;
    }
    right
    {
        type            fixedValue;
        value           uniform 0;
    }
    down
    {
        type            zeroGradient;
    }
    up
    {
        type            zeroGradient;
    }
    cylinder
    {
        type            zeroGradient;
    }
    defaultFaces
    {
        type            empty;
    }
}


// ************************************************************************* //
