/*--------------------------------*- C++ -*----------------------------------*\
| =========                 |                                                 |
| \\      /  F ield         | OpenFOAM: The Open Source CFD Toolbox           |
|  \\    /   O peration     | Version:  2406                                  |
|   \\  /    A nd           | Website:  www.openfoam.com                      |
|    \\/     M anipulation  |                                                 |
\*---------------------------------------------------------------------------*/
FoamFile
{
    version     2.0;
    format      ascii;
    arch        "LSB;label=32;scalar=64";
    class       surfaceScalarField;
    location    "0.95";
    object      phi;
}
// * * * * * * * * * * * * * * * * * * * * * * * * * * * * * * * * * * * * * //

dimensions      [0 3 -1 0 0 0 0];

oriented        oriented;

internalField   nonuniform List<scalar> 
3485
(
0.000348866
0.000202518
-0.000551384
0.00321657
0.00137656
-0.00424427
0.00895751
0.00272857
-0.00846951
0.0176214
0.00242103
-0.011085
0.0293311
-0.000194765
-0.0115149
0.0441931
-0.00488767
-0.00997429
0.0621977
-0.0110379
-0.00696673
0.0833978
-0.0182017
-0.00299836
0.108005
-0.026542
0.00193527
-0.0311983
0.00633177
0.132871
-0.000217428
0.000419946
0.000565186
0.000593948
0.00418301
-0.000889254
0.0118013
-0.00519729
0.0235354
-0.0119289
0.0389428
-0.0202951
0.0574391
-0.0295341
0.0783642
-0.0391268
0.100859
-0.0490368
-0.0551704
0.124831
-6.70804e-05
0.000487026
0.000865046
-0.000338179
0.00550267
-0.00552688
0.0149525
-0.0146471
0.0289464
-0.0259228
0.04663
-0.0379786
0.0669751
-0.0498793
0.089012
-0.0611637
0.111867
-0.0718919
-0.0788081
0.135505
0.000173778
0.000313248
0.00303267
-0.00319707
0.0109361
-0.0134303
0.0238481
-0.0275591
0.0408416
-0.0429163
0.0606156
-0.0577526
0.0819433
-0.071207
0.103938
-0.0831579
0.126049
-0.094003
-0.101383
0.148623
0.00083547
-0.000522221
0.00663522
-0.00899682
0.0181346
-0.0249297
0.0343659
-0.0437904
0.0535981
-0.0621485
0.0741793
-0.0783338
0.095019
-0.0920468
0.115659
-0.103798
0.136026
-0.11437
-0.122958
0.157601
0.0020081
-0.00253032
0.0107086
-0.0176973
0.0253537
-0.0395748
0.0437173
-0.062154
0.0634496
-0.0818808
0.0830193
-0.0979035
0.101863
-0.110891
0.120107
-0.122042
0.138201
-0.132464
-0.14248
0.157723
0.00354133
-0.00607166
0.0148551
-0.029011
0.0316276
-0.0563473
0.0505293
-0.0810557
0.0692148
-0.100566
0.086762
-0.115451
0.103219
-0.127347
0.119051
-0.137874
0.134778
-0.148192
-0.158667
0.150965
0.0049608
-0.0110325
0.018316
-0.0423662
0.0359205
-0.0739519
0.0540158
-0.099151
0.0708387
-0.117389
0.0861038
-0.130716
0.100141
-0.141385
0.113354
-0.151087
0.125933
-0.16077
-0.170456
0.137722
0.00619122
-0.0172237
0.0207149
-0.0568898
0.0379765
-0.0912135
0.0544835
-0.115658
0.0691213
-0.132027
0.0819425
-0.143537
0.0932727
-0.152715
0.103333
-0.161147
0.112132
-0.169569
-0.177837
0.119513
0.00712484
-0.0243485
0.0218647
-0.0716298
0.0378606
-0.107209
0.0521616
-0.129959
0.0641538
-0.144019
0.0741008
-0.153484
0.082354
-0.160968
0.0891271
-0.16792
0.0945064
-0.174949
0.0985493
-0.181879
-0.00194269
0.0214578
-0.0195151
-0.00586141
0.0406248
-0.0367061
-0.0104982
0.0482002
-0.0435633
-0.0153788
0.0511874
-0.0463068
-0.0203333
0.0521022
-0.0471478
-0.0252248
0.0517359
-0.0468444
-0.029953
0.0504648
-0.0457367
-0.0344534
0.0484851
-0.0439847
-0.0386807
0.0459169
-0.0416896
0.0429304
-0.042623
-0.0389881
-0.00108672
0.0225445
-0.00391849
0.0434566
-0.00753304
0.0518147
-0.0114408
0.0550952
-0.0155659
0.0562273
-0.0198199
0.0559899
-0.0240519
0.0546968
-0.0281881
0.0526213
-0.0321959
0.0499247
0.0467931
-0.0360586
2.12165e-07
0.0225443
-0.00135455
0.0448113
-0.00355436
0.0540145
-0.00593072
0.0574716
-0.00834392
0.0586405
-0.0109914
0.0586374
-0.013977
0.0576823
-0.0171756
0.0558199
-0.0204082
0.0531573
0.0499493
-0.0235643
0.00121066
0.0213336
0.00181168
0.0442103
0.00167178
0.0541544
0.00134779
0.0577955
0.00106563
0.0589227
0.000627317
0.0590757
-0.000272339
0.058582
-0.00172104
0.0572686
-0.00356376
0.055
0.0519271
-0.00554159
0.00296113
0.0183725
0.00650721
0.0406642
0.00929813
0.0513635
0.0113067
0.0557869
0.012765
0.0574644
0.0139576
0.0578832
0.01504
0.0574996
0.0159521
0.0563565
0.0166266
0.0543255
0.0513475
0.0172062
0.00423827
0.0141342
0.0104289
0.0344736
0.0161142
0.0456782
0.0208729
0.0510283
0.0249349
0.0534024
0.0286051
0.054213
0.0321092
0.0539954
0.0355761
0.0528896
0.0390773
0.0508243
0.0476998
0.0427251
0.00463649
0.00949774
0.0126249
0.0264851
0.0208669
0.0374363
0.0285086
0.0433866
0.035619
0.046292
0.0424364
0.0473956
0.0491308
0.047301
0.0557761
0.0462443
0.0624255
0.0441749
0.0407712
0.0693541
0.00420453
0.00529321
0.0128203
0.0178694
0.0227959
0.0274606
0.0329114
0.0332711
0.0429512
0.0362522
0.0530163
0.0373305
0.0632081
0.0371092
0.0735205
0.0359319
0.0838459
0.0338495
0.0299496
0.0946675
0.00311555
0.00217767
0.0110011
0.0099838
0.0213071
0.0171547
0.0327445
0.0218337
0.0449117
0.024085
0.0578067
0.0244355
0.0714896
0.0234263
0.0859066
0.021515
0.100812
0.0189436
0.0141823
0.11658
0.00162628
0.00736582
0.016051
0.0267997
0.0393697
0.0538309
0.0702905
0.0888071
0.109686
0.1302
-0.0470272
0.221604
-0.2172
-0.0102567
-0.0670815
0.0303109
0.033411
-0.201634
0.157966
0.074435
-0.259576
0.218552
0.106787
-0.255115
0.222763
0.129017
-0.220309
0.198078
0.142992
-0.176499
0.162524
0.15095
-0.132183
0.124225
0.155388
-0.0964497
0.0920122
-0.0477567
0.0468427
-0.0503327
0.235878
-0.0222237
-0.0951905
0.0236738
-0.247531
0.0679538
-0.303856
0.103495
-0.290656
0.127897
-0.24471
0.143251
-0.191852
0.151994
-0.140926
0.157053
-0.101509
-0.0489673
-0.047479
0.259793
-0.0290201
-0.113649
0.0177343
-0.294286
0.0639223
-0.350044
0.101396
-0.328129
0.127179
-0.270494
0.143561
-0.208234
0.152979
-0.150344
0.158717
-0.107246
-0.0506163
-0.0352142
0.289465
-0.0251293
-0.123734
0.0204194
-0.339834
0.0664468
-0.396071
0.103435
-0.365118
0.128768
-0.295827
0.145094
-0.22456
0.154646
-0.159896
0.160871
-0.113471
-0.0527677
-0.012669
0.31934
-0.00766113
-0.128742
0.0351215
-0.382617
0.0794134
-0.440363
0.113296
-0.399001
0.135543
-0.318074
0.149833
-0.23885
0.158316
-0.168379
0.164413
-0.119568
-0.0553236
0.017301
0.344765
0.0194462
-0.130887
0.0598187
-0.422989
0.102894
-0.483439
0.133235
-0.429342
0.15052
-0.335359
0.160466
-0.248796
0.166072
-0.173985
0.170849
-0.124345
-0.0579165
0.0511729
0.362946
0.0504172
-0.130132
0.0861175
-0.45869
0.130213
-0.527534
0.160467
-0.459595
0.174174
-0.349066
0.178991
-0.253614
0.180241
-0.175235
0.182233
-0.126337
-0.0599347
0.0856139
0.371999
0.079742
-0.12426
0.107701
-0.486649
0.152916
-0.572749
0.187482
-0.494161
0.202299
-0.363882
0.204314
-0.255629
0.201637
-0.172559
0.200165
-0.124865
-0.0609365
0.118954
0.369625
0.107173
-0.112479
0.126644
-0.50612
0.169284
-0.615389
0.208446
-0.533323
0.228443
-0.38388
0.231827
-0.259013
0.22786
-0.168591
0.223991
-0.120996
-0.0612472
0.150292
0.349532
0.136167
-0.0983529
0.147244
-0.517197
0.183908
-0.652054
0.223548
-0.572962
0.248495
-0.408827
0.25615
-0.266668
0.254069
-0.16651
0.250281
-0.117208
-0.062039
0.33671
0.251449
-0.238626
0.437061
-0.198703
0.498392
-0.578527
0.518353
-0.672016
0.51544
-0.570049
0.504367
-0.397754
0.485774
-0.248075
0.463806
-0.144542
0.44355
-0.0969527
-0.0523199
0.523342
0.149965
-0.421858
0.63389
-0.309252
0.671795
-0.616432
0.650072
-0.650293
0.603818
-0.523795
0.562683
-0.356619
0.531847
-0.217239
0.508507
-0.121202
0.489622
-0.0780674
-0.0428701
0.726434
0.0573288
-0.633798
0.788027
-0.370845
0.779398
-0.607803
0.732196
-0.60309
0.670757
-0.462357
0.613452
-0.299314
0.570225
-0.174011
0.541473
-0.0924498
0.521054
-0.0576487
-0.0330283
0.86133
-0.0222183
-0.781783
0.875835
-0.38535
0.831757
-0.563725
0.762693
-0.534026
0.690646
-0.39031
0.628803
-0.237471
0.583226
-0.128435
0.553482
-0.0627056
0.532455
-0.0366212
-0.0231826
0.929955
-0.0838912
-0.868282
0.926771
-0.382165
0.874643
-0.511598
0.79617
-0.455553
0.710886
-0.305025
0.637326
-0.163911
0.585142
-0.0762511
0.553075
-0.0306387
0.531901
-0.0154471
-0.0135591
0.967275
-0.134266
-0.9169
0.951463
-0.366354
0.875035
-0.435169
0.77473
-0.355248
0.682578
-0.212874
0.612234
-0.0935663
0.565581
-0.0295981
0.538215
-0.00327224
0.521103
0.00166434
-0.0051326
0.973348
-0.171237
-0.936377
0.9361
-0.329106
0.835354
-0.334423
0.716314
-0.236208
0.618192
-0.114752
0.553993
-0.0293675
0.517714
0.00668086
0.499183
0.0152588
0.488599
0.012248
0.000995147
0.912673
-0.179447
-0.904463
0.828531
-0.244964
0.692328
-0.19822
0.564288
-0.108169
0.480269
-0.030733
0.438926
0.011976
0.422058
0.0235488
0.416451
0.0208657
0.41422
0.0144795
0.00358835
0.688287
-0.123041
-0.744693
0.542113
-0.0987896
0.395619
-0.0517253
0.302387
-0.0149372
0.265473
0.00618172
0.261682
0.0157668
0.26869
0.0165404
0.276755
0.0128011
0.282705
0.00852974
0.00262344
0.203393
-0.326434
0.104603
0.052878
0.0379408
0.0441225
0.0598892
0.0764297
0.0892308
0.0977606
0.538081
0.0928935
-0.532426
0.540401
0.117193
0.53816
0.139962
0.526213
0.162912
0.502698
0.181238
0.461781
0.198519
0.406775
0.203629
0.340039
0.20224
0.276274
0.188596
0.170519
0.570407
0.0814485
-0.558962
0.579102
0.108499
0.588098
0.130966
0.592516
0.158495
0.594124
0.17963
0.587362
0.20528
0.568067
0.222925
0.53556
0.234747
0.476733
0.247422
0.225394
0.594528
0.069264
-0.582343
0.606272
0.0967541
0.619911
0.117327
0.633016
0.14539
0.646835
0.165812
0.66049
0.191625
0.668817
0.214598
0.671876
0.231688
0.661668
0.257631
0.253264
0.613267
0.0576764
-0.60168
0.627396
0.082625
0.643769
0.100955
0.662154
0.127005
0.68249
0.145475
0.704475
0.16964
0.728388
0.190685
0.750415
0.209661
0.773581
0.234465
0.245061
0.623625
0.0458843
-0.611833
0.639947
0.0663022
0.658783
0.0821196
0.681392
0.104396
0.706102
0.120765
0.733821
0.141921
0.765495
0.159011
0.797498
0.177658
0.835714
0.19625
0.212492
0.624135
0.033093
-0.611343
0.64204
0.048397
0.662988
0.0611717
0.688813
0.0785705
0.717848
0.0917302
0.750437
0.109332
0.787377
0.122071
0.826282
0.138753
0.871402
0.151129
0.166995
0.612336
0.0198032
-0.599046
0.630939
0.0297941
0.653112
0.038999
0.68053
0.051152
0.712434
0.059826
0.748242
0.0735237
0.789722
0.0805916
0.833603
0.0948712
0.884031
0.100701
0.114649
0.577227
0.00760529
-0.565029
0.594513
0.012508
0.615602
0.0179102
0.642514
0.0242405
0.673585
0.0287545
0.710331
0.0367785
0.751756
0.0391661
0.797723
0.0489043
0.849292
0.0491323
0.0594779
0.487091
-0.000748526
-0.478737
0.499036
0.000562572
0.514503
0.00244308
0.534597
0.00414653
0.55764
0.00571201
0.586739
0.00767934
0.617734
0.00817128
0.656053
0.0105853
0.696223
0.0089623
0.0110082
0.267163
-0.267912
0.267726
0.270169
0.274316
0.280028
0.287707
0.295878
0.306464
0.315426
0.0646239
0.13644
-0.124024
-0.0770396
0.0541247
0.135577
-0.125077
0.0450329
0.135239
-0.126147
0.0367054
0.135483
-0.127155
0.0287651
0.135782
-0.127841
0.021129
0.135469
-0.127833
0.0139022
0.133348
-0.126122
0.00729428
0.127135
-0.120527
0.00210371
0.109387
-0.104196
0.0591024
-0.0569987
0.0621112
0.147343
-0.0730139
0.0517017
0.145986
0.042128
0.144812
0.0334285
0.144182
0.0254458
0.143764
0.0181082
0.142807
0.0114518
0.140005
0.00560677
0.13298
0.00136081
0.113633
0.0604632
0.0545794
0.156872
-0.0641083
0.045138
0.155428
0.0362183
0.153732
0.0280564
0.152344
0.0206775
0.151143
0.0140741
0.14941
0.00826151
0.145817
0.00339956
0.137842
0.000287451
0.116745
0.0607506
0.0424472
0.164754
-0.0503292
0.0346949
0.16318
0.0272755
0.161151
0.0203898
0.15923
0.0141555
0.157378
0.00868556
0.15488
0.00403527
0.150468
0.000418662
0.141459
-0.000959907
0.118124
0.0597907
0.0274677
0.171177
-0.0338912
0.0214206
0.169227
0.0157101
0.166862
0.0104213
0.164519
0.00572903
0.16207
0.00179202
0.158817
-0.00136145
0.153621
-0.00316945
0.143267
-0.00255762
0.117512
0.0572331
0.00993608
0.176281
-0.0150401
0.00543808
0.173725
0.00143528
0.170865
-0.0020063
0.16796
-0.00474634
0.16481
-0.00678243
0.160853
-0.00805303
0.154892
-0.00760942
0.142823
-0.00432448
0.114227
0.0529086
-0.0100479
0.180107
0.00622214
-0.0130135
0.176691
-0.0151917
0.173043
-0.0165998
0.169368
-0.0172914
0.165501
-0.0172859
0.160848
-0.0160925
0.153698
-0.0125039
0.139235
-0.0059886
0.107712
0.04692
-0.031158
0.182548
0.0287175
-0.0325211
0.178054
-0.0328846
0.173406
-0.032372
0.168856
-0.0310218
0.164151
-0.0285582
0.158384
-0.0241805
0.149321
-0.0169099
0.131964
-0.00717993
0.0979817
0.0397401
-0.0529838
0.183239
0.0522925
-0.0525031
0.177573
-0.0509109
0.171814
-0.0482588
0.166203
-0.044408
0.1603
-0.0388898
0.152866
-0.0309348
0.141366
-0.0200502
0.121079
-0.0077226
0.0856541
0.0320175
-0.0743866
0.075746
-0.0717622
-0.0678685
-0.0626332
-0.0558168
-0.04697
-0.0355633
-0.0216933
-0.00766898
0.0846281
0.0386013
-0.0948294
-0.0284
0.0744175
0.0393672
-0.0291565
0.0642047
0.0400986
-0.0298858
0.0540008
0.0407636
-0.0305596
0.0438103
0.0413122
-0.0311218
0.0336452
0.0415837
-0.0314186
0.0235708
0.0411258
-0.0310514
0.0138169
0.0389141
-0.0291601
0.0051325
0.0328194
-0.0241349
0.0177941
-0.0126616
0.0858011
0.0489272
-0.096127
0.0754525
0.0497158
0.0650919
0.0504592
0.0547331
0.0511223
0.044388
0.0516573
0.0340758
0.0518959
0.0238629
0.0513387
0.0139713
0.0488057
0.00516236
0.0416283
0.0229565
0.0868767
0.0592538
-0.0972034
0.0765298
0.0600628
0.0661609
0.0608281
0.0557689
0.0615144
0.0453484
0.0620778
0.0349074
0.0623369
0.024518
0.0617281
0.0144125
0.0589111
0.00535419
0.0506867
0.0283107
0.0845966
0.0696259
-0.0949687
0.0742465
0.0704129
0.0639331
0.0711415
0.0536761
0.0717714
0.0434777
0.0722761
0.0333401
0.0724744
0.023314
0.0717541
0.0136022
0.068623
0.00495817
0.0593307
0.0332688
0.0855302
0.0799344
-0.0958387
0.0752074
0.0807358
0.0648595
0.0814893
0.0544948
0.0821361
0.0441302
0.0826408
0.0338034
0.0828012
0.0236095
0.081948
0.0137727
0.0784597
0.00502536
0.0680781
0.0382942
0.082014
0.089945
-0.0920246
0.0720236
0.0907261
0.0620469
0.0914661
0.0520953
0.0920877
0.0421621
0.0925739
0.0322542
0.0927091
0.0224512
0.091751
0.0129858
0.0879252
0.00462604
0.0764378
0.0429202
0.0782654
0.0997121
-0.0880324
0.0686399
0.100352
0.0590612
0.101045
0.0494886
0.10166
0.0399213
0.102141
0.0304013
0.102229
0.021042
0.10111
0.0120768
0.0968904
0.00424838
0.0842662
0.0471686
0.0737675
0.109438
-0.0834935
0.0642407
0.109878
0.05492
0.110366
0.0457809
0.110799
0.0367638
0.111158
0.0278528
0.11114
0.0191336
0.109829
0.0108333
0.105191
0.00369733
0.0914022
0.050866
0.0707611
0.117624
-0.0789468
0.062357
0.118282
0.0535487
0.119174
0.0445481
0.1198
0.0355527
0.120154
0.0267046
0.119988
0.0181529
0.118381
0.0101265
0.113217
0.00336525
0.0981634
0.0542312
0.0605066
-0.0669072
0.0537117
0.0467387
0.0393836
0.0316959
0.0238512
0.0161106
0.00880046
0.00276746
0.203227
-0.0151889
0.00995138
0.203686
0.0989997
-0.0994589
0.199239
0.177496
-0.173048
0.194261
0.181353
-0.176375
0.190078
0.160472
-0.156288
0.185876
0.153692
-0.149489
0.179571
0.150503
-0.144199
0.16945
0.171647
-0.161525
0.144839
0.201202
-0.176591
0.271113
-0.221104
0.20301
-0.020209
0.20265
0.09936
0.197423
0.182722
0.191939
0.186837
0.18748
0.16493
0.183513
0.157659
0.178152
0.155863
0.168596
0.181203
0.144982
0.224816
0.319969
0.202707
-0.0249262
0.201374
0.100693
0.195108
0.188988
0.188766
0.193179
0.183802
0.169895
0.179879
0.161582
0.175276
0.160465
0.165941
0.190538
0.143707
0.247051
0.366472
0.202329
-0.0292651
0.199883
0.103138
0.192238
0.196633
0.184711
0.200706
0.179209
0.175396
0.175269
0.165523
0.171103
0.16463
0.161663
0.199978
0.140571
0.268143
0.412074
0.201904
-0.0331797
0.19821
0.106832
0.18875
0.206094
0.179929
0.209526
0.174075
0.18125
0.169986
0.169613
0.165807
0.168809
0.155677
0.210109
0.13707
0.28675
0.453306
0.201468
-0.0366578
0.196357
0.111943
0.184707
0.217745
0.17491
0.219323
0.168875
0.187286
0.164228
0.174259
0.159547
0.17349
0.148602
0.221053
0.131917
0.303435
0.493198
0.201
-0.0396683
0.194297
0.118646
0.180486
0.231556
0.17028
0.229529
0.163894
0.193671
0.158124
0.180029
0.152688
0.178927
0.140435
0.233306
0.125729
0.31814
0.530895
0.200357
-0.0420356
0.192098
0.126905
0.176631
0.247024
0.166342
0.239818
0.159244
0.20077
0.151999
0.187274
0.145799
0.185127
0.131984
0.247121
0.120316
0.329808
0.567718
0.199297
-0.0433425
0.19
0.136201
0.173653
0.263371
0.163174
0.250297
0.155372
0.208572
0.146912
0.195733
0.139971
0.192068
0.12519
0.261902
0.113899
0.341099
0.60267
0.197787
-0.0431398
0.188246
0.145743
0.172019
0.279598
0.161558
0.260758
0.154046
0.216083
0.144918
0.204862
0.136204
0.200781
0.118112
0.279995
0.108925
0.350286
0.644687
0.308052
-0.0491814
0.314982
0.138812
0.314666
0.279914
0.313457
0.261967
0.317678
0.211862
0.316164
0.206376
0.323413
0.193532
0.321495
0.281913
0.371572
0.300208
0.563861
0.452398
0.30462
-0.0517916
0.322761
0.120671
0.340051
0.262625
0.352704
0.249314
0.364423
0.200143
0.372666
0.198133
0.379742
0.186456
0.385879
0.275777
0.416552
0.269535
0.501822
0.478591
0.300537
-0.0503184
0.330145
0.0910635
0.367172
0.225598
0.39498
0.221506
0.410412
0.184712
0.432171
0.176374
0.436036
0.182591
0.455733
0.25608
0.480776
0.244492
0.454022
0.528576
0.297288
-0.0455959
0.334638
0.0537136
0.387289
0.172946
0.427543
0.181253
0.445419
0.166835
0.47741
0.144383
0.484038
0.175964
0.508294
0.231824
0.542165
0.21062
0.408002
0.588185
0.295582
-0.0391678
0.334901
0.0143949
0.397348
0.110498
0.445109
0.133492
0.467695
0.144248
0.502408
0.109671
0.516498
0.161873
0.54049
0.207833
0.58363
0.167481
0.349951
0.641681
0.296298
-0.0334553
0.333354
-0.022661
0.398134
0.0457173
0.448053
0.0835734
0.477688
0.114613
0.510175
0.0771838
0.532347
0.139701
0.559778
0.180402
0.605737
0.121521
0.283976
0.671712
0.299747
-0.0311919
0.331061
-0.0539751
0.38882
-0.012042
0.434642
0.0377514
0.470844
0.0784112
0.499217
0.048811
0.528634
0.110283
0.56702
0.142017
0.607273
0.0812683
0.216261
0.674988
0.306592
-0.0357736
0.3264
-0.073783
0.362759
-0.048401
0.395133
0.00537721
0.43347
0.0400738
0.455
0.0272814
0.490735
0.0745482
0.543644
0.0891075
0.574049
0.0508635
0.146406
0.643904
0.306616
-0.0403792
0.299108
-0.0662752
0.297088
-0.0463812
0.307923
-0.00545767
0.335973
0.0120244
0.351088
0.0121655
0.394042
0.0315947
0.446944
0.0362058
0.472518
0.0252896
0.0658326
0.553091
0.261631
0.195356
0.148975
0.143517
0.155541
0.167707
0.199301
0.235507
0.260797
0.326629
0.468217
-0.0928591
0.475822
-0.0806186
0.481998
-0.0702846
0.487571
-0.0559018
0.49416
-0.0404805
0.500904
-0.0217839
0.508651
-0.00152468
0.516795
0.020573
0.525147
0.0439407
0.0684677
0.485583
-0.0998513
0.492163
-0.0871984
0.498349
-0.0764698
0.504394
-0.061947
0.511887
-0.0479738
0.519295
-0.0291921
0.529024
-0.0112533
0.538074
0.0115231
0.548957
0.0330576
0.0584622
0.529432
-0.100707
0.533439
-0.0912052
0.537697
-0.0807285
0.541973
-0.0662227
0.54651
-0.0525104
0.551314
-0.0339961
0.557562
-0.0175014
0.563884
0.0052004
0.573025
0.023917
0.0491442
0.58526
-0.0977826
0.583479
-0.0894241
0.581664
-0.078913
0.580806
-0.0653654
0.579944
-0.051648
0.580651
-0.0347035
0.582328
-0.0191782
0.586518
0.00101098
0.592763
0.0176721
0.0402271
0.632214
-0.0883156
0.622706
-0.0799155
0.613637
-0.0698439
0.606318
-0.0580468
0.600098
-0.0454281
0.596825
-0.0314304
0.595189
-0.0175419
0.597791
-0.00159135
0.60255
0.0129133
0.0309443
0.655768
-0.0723714
0.639429
-0.0635763
0.624752
-0.0551674
0.612767
-0.0460623
0.60346
-0.0361207
0.59782
-0.0257901
0.595042
-0.0147637
0.596747
-0.00329648
0.601544
0.00811589
0.0211452
0.652696
-0.0500791
0.632851
-0.0437318
0.615703
-0.0380193
0.60193
-0.0322887
0.591727
-0.0259179
0.58538
-0.019443
0.582552
-0.0119359
0.584076
-0.00482098
0.589076
0.00311585
0.0111753
0.620366
-0.026541
0.600501
-0.0238667
0.583658
-0.0211763
0.570132
-0.0187631
0.559977
-0.0157629
0.553382
-0.0128473
0.550531
-0.00908537
0.551576
-0.00586638
0.556341
-0.00164827
0.00248631
0.534621
-0.00807179
0.518368
-0.00761367
0.504579
-0.00738657
0.493034
-0.00721791
0.483897
-0.00662681
0.477191
-0.00614087
0.473443
-0.00533708
0.472149
-0.00457262
0.473934
-0.00343313
-0.00231699
0.318558
0.310944
0.303557
0.29634
0.289713
0.283572
0.278235
0.273662
0.270229
0.00362269
0.0399918
-0.0436145
0.00652757
0.0879824
-0.0908873
0.00726487
0.111933
-0.112671
0.00686578
0.122396
-0.121997
0.00647779
0.126598
-0.12621
0.0058524
0.128968
-0.128343
0.00471625
0.129845
-0.128709
0.00349433
0.128173
-0.126951
0.00265728
0.123159
-0.122322
0.112891
0.00258476
-0.112818
0.00486941
0.0351224
0.0102698
0.082582
0.0135086
0.108695
0.0151359
0.120768
0.0161949
0.125539
0.0171052
0.128058
0.0176814
0.129269
0.017926
0.127928
0.0181299
0.122955
0.112736
0.0182851
0.00574955
0.0293729
0.0136645
0.0746671
0.0195898
0.102769
0.023374
0.116984
0.025877
0.123036
0.028029
0.125906
0.0300676
0.12723
0.0316628
0.126333
0.0327432
0.121874
0.112456
0.0330226
0.00606467
0.0233082
0.016261
0.0644708
0.0250921
0.0939381
0.0312931
0.110783
0.0355502
0.118779
0.039033
0.122423
0.0422789
0.123985
0.0450277
0.123584
0.0468416
0.12006
0.112063
0.0472344
0.00574602
0.0175622
0.0174329
0.0527839
0.0292212
0.0821499
0.0383712
0.101633
0.0448832
0.112267
0.0499251
0.117381
0.0543431
0.119567
0.058172
0.119755
0.0608091
0.117423
0.111382
0.0614902
0.00493857
0.0126236
0.0168082
0.0409142
0.0308414
0.0681166
0.043243
0.0892315
0.0527633
0.102747
0.0599927
0.110152
0.0659174
0.113642
0.0709984
0.114674
0.0748812
0.11354
0.109599
0.0766642
0.00390831
0.00871532
0.014561
0.0302615
0.029124
0.0535536
0.0439592
0.0743964
0.0567372
0.0899689
0.0669391
0.0999499
0.0750914
0.10549
0.0818299
0.107936
0.0872714
0.108099
0.105992
0.0908787
0.00288844
0.00582687
0.0113969
0.0217531
0.0244663
0.0404843
0.0396849
0.0591778
0.0545885
0.0750653
0.0677439
0.0867945
0.0788046
0.0944289
0.0880277
0.0987128
0.0956789
0.100448
0.100031
0.10164
0.00192572
0.00390115
0.00790838
0.0157705
0.0180304
0.0303622
0.0313294
0.0458788
0.0460625
0.0603321
0.060615
0.072242
0.0740064
0.0810376
0.0858819
0.0868373
0.0963193
0.0900104
0.0906436
0.105707
0.000946781
0.00295436
0.00434374
0.0123735
0.0109304
0.0237756
0.0208004
0.0360088
0.0331479
0.0479846
0.0467418
0.0586481
0.0604767
0.0673027
0.0735964
0.0737176
0.0857189
0.0778878
0.0795246
0.096838
-1.44214e-05
0.00296879
0.00107256
0.0112865
0.00438891
0.0204592
0.0105977
0.0298
0.019614
0.0389683
0.030771
0.0474911
0.043242
0.0548317
0.0563015
0.0606581
0.069276
0.0649133
0.0678055
0.0809951
-0.000781395
0.00375018
-0.00134507
0.0118502
-0.000407372
0.0195215
0.00284446
0.0265481
0.00872616
0.0330866
0.0169783
0.0392389
0.0270684
0.0447416
0.0384127
0.0493139
0.0503951
0.0529309
0.0557818
0.0624187
-0.001146
0.00489618
-0.00250296
0.0132071
-0.00287847
0.019897
-0.00155255
0.0252222
0.00187896
0.0296551
0.00742524
0.0336927
0.0146213
0.0375455
0.0230796
0.0408556
0.0324574
0.0435531
0.0456608
0.0425785
-0.00110569
0.00600188
-0.00265329
0.0147547
-0.00365342
0.0208972
-0.00364193
0.0252107
-0.00230577
0.0283189
0.000434329
0.0309526
0.00445492
0.0335249
0.00965229
0.0356582
0.0159255
0.0372799
0.0382965
0.0232897
-0.00157187
0.00757375
-0.00389565
0.0170785
-0.00584963
0.0228512
-0.00704772
0.0264088
-0.00746629
0.0287375
-0.00713961
0.0306259
-0.00582891
0.0322142
-0.00339312
0.0332224
9.92318e-05
0.0337875
0.0340324
0.00436331
-0.00217689
0.00975064
-0.00533991
0.0202415
-0.00814596
0.0256572
-0.01025
0.0285128
-0.01173
0.0302175
-0.0126155
0.0315114
-0.0128552
0.032454
-0.0123841
0.0327513
-0.0111005
0.0325039
0.0318617
-0.00892977
-0.00235458
0.0121052
-0.00596383
0.0238508
-0.00951496
0.0292083
-0.012732
0.0317298
-0.0155542
0.0330398
-0.0178323
0.0337895
-0.0194668
0.0340885
-0.020495
0.0337795
-0.0209051
0.0329141
0.0316232
-0.0206666
-0.00246393
0.0145692
-0.00651255
0.0278994
-0.0108681
0.0335639
-0.0151772
0.0360389
-0.0192335
0.0370961
-0.022814
0.03737
-0.0257865
0.0370609
-0.0281848
0.0361778
-0.0300397
0.0347689
0.0329407
-0.0313572
-0.00254056
0.0171097
-0.00693949
0.0322983
-0.0118731
0.0384975
-0.016897
0.0410628
-0.021759
0.0419581
-0.0262623
0.0418733
-0.0302927
0.0410914
-0.0338304
0.0397155
-0.0368807
0.0378193
0.0355147
-0.0394547
-0.00240538
-0.00681311
-0.011879
-0.017123
-0.0223127
-0.0272838
-0.031929
-0.0361983
-0.0400686
-0.0435421
0.0722965
0.265397
-0.256698
0.0611145
0.185313
-0.174131
0.0607526
0.0895675
-0.0892056
0.0691529
0.0098434
-0.0182437
0.0805409
-0.0377973
0.0264093
0.0933692
-0.0576926
0.0448643
0.105849
-0.0595979
0.0471184
0.116953
-0.0523902
0.0412856
0.126774
-0.0414725
0.0316513
-0.0234783
0.0169967
0.0594708
0.268345
0.0537997
0.190984
0.059899
0.0834682
0.0725183
-0.00277589
0.0857511
-0.0510302
0.0988331
-0.0707745
0.110894
-0.0716586
0.121268
-0.0627646
0.130145
-0.0503491
-0.0289783
0.0440591
0.266864
0.0454209
0.189623
0.0586733
0.0702157
0.0751368
-0.0192394
0.0904863
-0.0663797
0.103964
-0.0842522
0.11563
-0.0833244
0.125215
-0.0723498
0.133089
-0.0582228
-0.0335664
0.027947
0.262207
0.0378957
0.179674
0.0580514
0.0500601
0.0779498
-0.0391379
0.0951018
-0.0835316
0.109054
-0.0982042
0.120361
-0.0946319
0.129135
-0.0811238
0.135996
-0.0650833
-0.0373082
0.01321
0.25336
0.0321435
0.16074
0.0581825
0.024021
0.0810868
-0.0620422
0.0997852
-0.10223
0.114211
-0.11263
0.125192
-0.105613
0.133179
-0.0891106
0.139051
-0.0709551
-0.0402504
0.000489992
0.24394
0.0277079
0.133523
0.0584146
-0.00668567
0.0840657
-0.0876933
0.104229
-0.122393
0.11918
-0.127582
0.129938
-0.116371
0.137262
-0.0964341
0.142253
-0.0759466
-0.0424592
-0.0121757
0.235449
0.0235746
0.0977722
0.0577998
-0.0409108
0.08611
-0.116004
0.107845
-0.144128
0.123505
-0.143241
0.134252
-0.127119
0.141139
-0.103321
0.145459
-0.0802666
-0.0440493
-0.0230593
0.227151
0.0185839
0.0561291
0.0554086
-0.0777356
0.0864659
-0.147061
0.110095
-0.167757
0.126783
-0.159929
0.137822
-0.138158
0.144555
-0.110053
0.148478
-0.0841895
-0.0451829
-0.0324697
0.220166
0.0115869
0.0120725
0.0505719
-0.116721
0.0846354
-0.181124
0.110658
-0.193779
0.12879
-0.178062
0.140473
-0.149841
0.147347
-0.116927
0.151167
-0.0880097
-0.0460486
-0.0405753
0.00180805
0.0430536
0.0804808
0.109464
0.129481
0.142164
0.149462
0.153464
0.0199442
0.0176913
-0.0376355
0.010291
0.00965314
0.00585912
0.00443191
0.00518856
0.000670553
0.00818966
-0.0030011
0.0125399
-0.00435025
0.0169098
-0.00436992
0.0208395
-0.00392972
0.0234554
-0.00261589
-0.00128323
0.0810443
0.0587003
-0.122053
0.0526833
0.0380141
0.0389901
0.0181252
0.0366017
0.00305896
0.0421272
-0.00852661
0.0503369
-0.01256
0.0585942
-0.0126272
0.0658248
-0.0111603
0.0708057
-0.00759685
-0.00378109
0.127342
0.119043
-0.187685
0.0870857
0.0782703
0.0666901
0.0385208
0.0622332
0.00751587
0.0678313
-0.0141247
0.07748
-0.0222087
0.0877664
-0.0229137
0.0967994
-0.0201932
0.10361
-0.0144078
-0.00748572
0.151021
0.190346
-0.222325
0.104145
0.125147
0.07949
0.0631756
0.0738253
0.0131806
0.0796471
-0.0199466
0.0904983
-0.0330598
0.102202
-0.0346176
0.112444
-0.0304353
0.120734
-0.0226979
-0.0121217
0.158095
-0.224447
0.10911
0.0830804
0.0780174
0.0844801
0.0962846
0.108785
0.119636
0.128589
0.00891221
0.00011397
-0.00902618
0.00980447
-0.000892257
0.011524
-0.00171957
0.0138964
-0.00237233
0.0166785
-0.00278217
0.0196537
-0.00297517
0.0230265
-0.00337275
0.0265745
-0.00354806
0.0315803
-0.00500574
-0.00605521
0.0233566
0.000124552
-0.0233672
0.0258036
-0.00333924
0.0304255
-0.00634145
0.0369783
-0.00892521
0.0452364
-0.0110402
0.0553156
-0.0130544
0.0678749
-0.015932
0.0825911
-0.0182643
0.101531
-0.0239455
-0.0265777
0.0349663
-0.000221524
-0.0346203
0.038812
-0.00718489
0.0458843
-0.0134138
0.0560445
-0.0190855
0.0692746
-0.0242703
0.0861665
-0.0299463
0.10712
-0.0368852
0.131654
-0.0427986
0.160865
-0.0531566
-0.0533973
0.0440831
-0.00109936
-0.0432053
0.0491286
-0.0122304
0.058179
-0.0224642
0.071222
-0.0321284
0.0884942
-0.0415426
0.110591
-0.0520431
0.136875
-0.0631688
0.167005
-0.0729288
0.197681
-0.0838323
-0.0780412
0.0510666
-0.0495812
0.0571214
0.0676798
0.0827857
0.102733
0.127354
0.155064
0.183775
0.20565
0.0579497
-0.050536
0.0572161
-0.0646298
0.0512313
-0.0501798
0.0568983
0.0446725
-0.0500327
0.0565914
0.0380504
-0.0498409
0.056463
0.0311914
-0.0495043
0.0563632
0.024066
-0.0488473
0.0559727
0.0168057
-0.0474589
0.0547193
0.00970432
-0.0444373
0.0515387
0.0034619
-0.0376397
0.0438821
-0.0209877
0.0244496
0.0640536
-0.0434372
-0.0711525
0.0568646
-0.0429907
0.0493649
-0.042533
0.0415716
-0.0420476
0.0335837
-0.0415164
0.0255473
-0.0408108
0.0176447
-0.0395563
0.0101391
-0.0369317
0.0036455
-0.0311462
-0.0173422
0.0646277
-0.0355005
-0.0725643
0.0566085
-0.0349715
0.0485592
-0.0344837
0.0405244
-0.0340128
0.0325501
-0.0335421
0.0246882
-0.032949
0.0170281
-0.0318962
0.00977208
-0.0296757
0.00350283
-0.0248769
-0.0138394
0.066439
-0.027299
-0.0746405
0.058251
-0.0267835
0.0500547
-0.0262873
0.0418573
-0.0258154
0.0336754
-0.0253602
0.0255599
-0.0248335
0.0176338
-0.0239701
0.0101485
-0.0221904
0.00369211
-0.0184205
-0.0101472
0.0686606
-0.0188281
-0.0771315
0.0601468
-0.0182698
0.0515945
-0.017735
0.043015
-0.0172359
0.0344412
-0.0167864
0.0259554
-0.0163476
0.0177356
-0.0157503
0.0101082
-0.0145631
0.00367642
-0.0119887
-0.00647083
0.0710214
-0.0100197
-0.0798298
0.0621633
-0.00941164
0.0532481
-0.0088198
0.0442801
-0.00826798
0.0352842
-0.00779042
0.0263485
-0.00741191
0.017707
-0.00710884
0.00983585
-0.00669186
0.00348376
-0.00563665
-0.00298707
0.0738114
-0.00085169
-0.0829794
0.0645894
-0.000189678
0.055303
0.000466611
0.0459416
0.00109344
0.0365111
0.00164001
0.0270742
0.00202504
0.0178555
0.00210985
0.00944133
0.00172232
0.00296017
0.00084451
-2.68955e-05
0.0769096
0.00862724
-0.0863885
0.0673842
0.00933573
0.0578106
0.0100402
0.048192
0.010712
0.0385339
0.0112981
0.0288781
0.0116808
0.0193883
0.0115996
0.0105365
0.0105742
0.00339873
0.00798226
0.00337183
0.0799399
0.0183937
-0.0897063
0.0701466
0.0191291
0.0603362
0.0198506
0.0505194
0.0205288
0.0407102
0.0211073
0.0309457
0.0214453
0.0213426
0.0212027
0.0122266
0.0196902
0.00441414
0.0157947
0.00778597
0.0826158
-0.0926221
0.0725883
0.062553
0.0525222
0.0425078
0.0325345
0.0226858
0.0132159
0.00487565
0.0131651
-0.112156
-0.0138275
0.011085
-0.120241
0.00841318
-0.124279
0.00558904
-0.125885
0.00296721
-0.125721