/*--------------------------------*- C++ -*----------------------------------*\
| =========                 |                                                 |
| \\      /  F ield         | OpenFOAM: The Open Source CFD Toolbox           |
|  \\    /   O peration     | Version:  2406                                  |
|   \\  /    A nd           | Website:  www.openfoam.com                      |
|    \\/     M anipulation  |                                                 |
\*---------------------------------------------------------------------------*/
FoamFile
{
    version     2.0;
    format      ascii;
    arch        "LSB;label=32;scalar=64";
    class       volVectorField;
    location    "0.95";
    object      U;
}
// * * * * * * * * * * * * * * * * * * * * * * * * * * * * * * * * * * * * * //

dimensions      [0 1 -1 0 0 0 0];

internalField   nonuniform List<vector> 
1800
(
(-0.00149487 0.00156564 0)
(-0.0158328 0.0221157 -1.005e-20)
(-0.0241882 0.0644266 -9.89818e-20)
(-0.00978422 0.106347 7.96401e-20)
(0.0329392 0.138828 1.01412e-19)
(0.103092 0.162957 4.83643e-21)
(0.195752 0.182208 -1.20564e-20)
(0.305889 0.199873 1.1442e-19)
(0.435 0.212984 0)
(0.533849 0.264434 -3.35066e-20)
(-0.00320735 0.00172214 -1.96292e-20)
(-0.00847388 0.00502232 -8.90924e-20)
(-0.00283968 0.0113587 6.99985e-20)
(0.0381894 0.0213391 1.25135e-19)
(0.11469 0.0266709 -3.17283e-20)
(0.221138 0.0297099 -1.50459e-19)
(0.34854 0.0323441 2.08005e-20)
(0.489486 0.0352262 -3.21995e-22)
(0.643333 0.0374628 4.27306e-20)
(0.750089 0.0628459 7.21061e-20)
(-0.00565628 0.00326389 9.33097e-21)
(-0.00351783 0.0015034 -6.12424e-20)
(0.0340223 -0.00873668 -5.34536e-20)
(0.125345 -0.0214462 2.95857e-20)
(0.254657 -0.0323944 -1.86799e-20)
(0.40717 -0.0379169 2.98683e-20)
(0.569763 -0.0375366 -3.88085e-20)
(0.733528 -0.0322257 -6.85287e-20)
(0.899155 -0.0191244 -2.26747e-20)
(1.00925 -0.00697487 -1.44218e-19)
(-0.00409979 0.00307615 6.62107e-21)
(0.0122018 -0.00503063 6.28468e-20)
(0.111037 -0.0236172 -5.8086e-20)
(0.267498 -0.0442047 -4.82742e-22)
(0.454293 -0.057821 1.28171e-19)
(0.649813 -0.0618174 -2.35312e-20)
(0.839133 -0.0574232 -4.90631e-20)
(1.01561 -0.0469851 -4.22516e-20)
(1.18361 -0.0284606 -2.23452e-20)
(1.29386 -0.0172252 3.93017e-20)
(-0.000746315 0.00218932 -1.89922e-20)
(0.0665236 -0.0184866 6.33703e-20)
(0.236037 -0.0382853 2.67492e-20)
(0.458368 -0.0541167 -7.41608e-20)
(0.693352 -0.0594208 -3.26046e-20)
(0.915216 -0.0539299 4.81952e-20)
(1.11264 -0.0408773 2.80164e-20)
(1.28613 -0.023347 3.85488e-20)
(1.44399 -0.00125885 -1.19981e-19)
(1.55803 0.0107594 -8.35349e-20)
(0.0144955 -0.00193486 4.52099e-22)
(0.158018 -0.031239 1.44811e-19)
(0.405695 -0.0460395 9.75036e-20)
(0.686016 -0.0492116 -1.04755e-19)
(0.949319 -0.0405187 7.95661e-20)
(1.17478 -0.0234724 -1.0883e-20)
(1.36249 -0.00256527 8.36168e-20)
(1.52329 0.0191317 1.37715e-19)
(1.66994 0.0405195 -1.75342e-19)
(1.80186 0.052413 -1.61266e-19)
(0.0500613 -0.00617999 -3.43915e-20)
(0.286501 -0.0378777 -2.30806e-19)
(0.609982 -0.037687 2.55097e-20)
(0.92777 -0.0219333 2.55661e-19)
(1.19392 0.00245202 -1.88636e-20)
(1.40414 0.0300988 -1.62725e-19)
(1.57339 0.0571078 -9.74622e-20)
(1.72075 0.081425 3.17691e-19)
(1.86189 0.102218 3.70339e-19)
(2.00378 0.116453 3.92144e-20)
(0.104078 -0.00884464 3.47975e-20)
(0.445685 -0.0315038 3.51759e-20)
(0.831362 -0.00764226 -1.09849e-19)
(1.16151 0.0289475 5.81963e-20)
(1.41173 0.0671113 -3.14117e-21)
(1.59904 0.102711 -5.53574e-19)
(1.74936 0.133703 -6.77592e-22)
(1.88451 0.159304 4.13222e-19)
(2.01827 0.179377 -2.78233e-19)
(2.15351 0.192626 -3.10858e-19)
(0.175148 -0.00546641 1.32533e-19)
(0.624761 -0.00492939 1.2648e-19)
(1.05092 0.0474449 -2.99402e-19)
(1.37297 0.103118 -7.69318e-20)
(1.59757 0.151593 -2.2438e-21)
(1.75912 0.191918 2.13085e-19)
(1.88852 0.224202 -4.00263e-19)
(2.0066 0.248865 -2.23297e-19)
(2.1235 0.266043 5.49186e-19)
(2.23756 0.275563 1.37903e-19)
(0.259556 0.00789589 3.0237e-20)
(0.809352 0.0458357 3.27678e-19)
(1.25422 0.12738 -2.97366e-19)
(1.55435 0.197286 -1.25652e-19)
(1.74744 0.25044 1.24862e-19)
(1.88018 0.29028 -1.60117e-19)
(1.98536 0.319551 2.73973e-19)
(2.08207 0.340128 3.86435e-20)
(2.17865 0.35274 -2.23423e-19)
(2.27354 0.358584 -8.35587e-20)
(-0.0155133 0.256803 -2.55935e-20)
(-0.0397971 0.483718 9.36287e-20)
(-0.0694089 0.573019 6.25197e-20)
(-0.0959492 0.60773 -8.06453e-20)
(-0.120712 0.617301 1.52632e-21)
(-0.143425 0.611733 2.8905e-20)
(-0.163469 0.595525 1.53689e-20)
(-0.180764 0.570947 -2.81231e-20)
(-0.195454 0.539466 1.05576e-22)
(-0.208501 0.502659 -1.51182e-20)
(-0.0347486 0.274851 2.7445e-20)
(-0.07442 0.52344 1.45832e-22)
(-0.106236 0.619801 3.34512e-20)
(-0.130563 0.656155 -9.81826e-20)
(-0.151888 0.665765 -6.1703e-20)
(-0.171151 0.658875 -4.66329e-20)
(-0.187818 0.640602 9.89563e-21)
(-0.201731 0.61331 0)
(-0.213156 0.578428 -1.40405e-20)
(-0.223229 0.53767 4.80327e-20)
(-0.0538721 0.278948 4.64675e-23)
(-0.109833 0.544465 -1.01949e-19)
(-0.143518 0.650342 -5.34259e-20)
(-0.164135 0.690885 6.52061e-20)
(-0.178919 0.704957 1.64117e-21)
(-0.190913 0.70061 -4.96928e-20)
(-0.199799 0.681213 2.97145e-20)
(-0.207465 0.652051 1.86365e-20)
(-0.213508 0.615782 7.3692e-20)
(-0.218457 0.573506 3.15202e-20)
(-0.0702659 0.268947 2.66116e-20)
(-0.142111 0.544969 6.38583e-20)
(-0.175142 0.660343 4.34276e-21)
(-0.189108 0.700728 8.48452e-20)
(-0.193947 0.712252 -1.90262e-20)
(-0.196159 0.713549 9.45155e-21)
(-0.197489 0.70648 -1.23623e-20)
(-0.19826 0.685825 0)
(-0.196744 0.652151 -1.71944e-19)
(-0.193833 0.610027 -2.86698e-19)
(-0.0773114 0.240475 -1.47539e-20)
(-0.158896 0.515581 8.62737e-21)
(-0.186762 0.642909 3.93159e-20)
(-0.193213 0.692551 -3.47543e-20)
(-0.192147 0.70977 8.43556e-21)
(-0.18818 0.713076 -5.33028e-21)
(-0.182938 0.708305 -2.65337e-20)
(-0.175803 0.696092 1.21908e-19)
(-0.165586 0.673533 -2.37328e-19)
(-0.151878 0.637866 -2.65584e-19)
(-0.0733752 0.193297 -1.51077e-20)
(-0.160591 0.451659 -2.0385e-20)
(-0.1863 0.592159 -2.54698e-21)
(-0.188296 0.658726 3.68436e-20)
(-0.181309 0.690057 1.09976e-19)
(-0.170192 0.703808 -2.50676e-19)
(-0.155971 0.705696 -5.98205e-20)
(-0.13858 0.696962 2.1067e-19)
(-0.116943 0.677707 -4.01837e-19)
(-0.0902195 0.646534 -2.40973e-19)
(-0.0597463 0.137095 -1.99111e-20)
(-0.146465 0.360976 5.0932e-20)
(-0.172216 0.508399 -5.90109e-21)
(-0.171272 0.591247 1.17276e-19)
(-0.157562 0.63719 5.53403e-20)
(-0.137001 0.662542 -1.95641e-19)
(-0.112032 0.674287 -2.82993e-19)
(-0.0833946 0.674615 -1.42026e-19)
(-0.0495593 0.663383 5.6923e-19)
(-0.00822642 0.638005 4.2009e-19)
(-0.0401076 0.083172 -6.79991e-22)
(-0.117563 0.257595 -3.09638e-20)
(-0.143058 0.399491 -3.21039e-20)
(-0.140646 0.492645 -3.26565e-20)
(-0.121498 0.551528 -8.07609e-20)
(-0.0918428 0.588941 1.07971e-19)
(-0.0553282 0.611938 -1.59322e-19)
(-0.0141042 0.623384 -3.1781e-20)
(0.0326773 0.623241 3.16942e-19)
(0.0918634 0.60606 1.68979e-20)
(-0.0197983 0.039738 -1.62144e-20)
(-0.0787504 0.156255 -1.17095e-20)
(-0.100874 0.276309 1.4543e-20)
(-0.0969768 0.367287 5.68242e-20)
(-0.0733069 0.431597 1.48805e-20)
(-0.0348522 0.477003 1.0815e-19)
(0.0142137 0.509485 -3.44729e-21)
(0.070138 0.532565 8.79123e-20)
(0.131235 0.547099 -4.56827e-21)
(0.214316 0.541604 -5.56849e-19)
(-0.0053296 0.0122099 -2.7938e-20)
(-0.0413303 0.0733517 -3.81686e-20)
(-0.057238 0.157305 9.25926e-20)
(-0.0507968 0.229694 4.33989e-20)
(-0.0218103 0.285158 5.06697e-21)
(0.0274462 0.327009 3.98326e-20)
(0.0929765 0.359856 1.17593e-19)
(0.169891 0.387523 -2.21565e-19)
(0.254922 0.412824 -3.20166e-19)
(0.36988 0.421176 -4.35181e-19)
(-0.268494 0.302116 -5.18813e-19)
(-0.159929 -0.0695819 -8.19201e-19)
(0.0762214 -0.248461 -3.57448e-19)
(0.26312 -0.331199 1.83939e-19)
(0.450506 -0.331535 1.1242e-20)
(0.582729 -0.290783 7.36751e-21)
(0.671579 -0.236068 -8.55882e-20)
(0.729719 -0.17897 3.25273e-20)
(0.764408 -0.13189 -2.08956e-20)
(0.788783 -0.0668444 -1.27524e-20)
(-0.270761 0.313593 -5.54135e-19)
(-0.203707 -0.115184 1.75438e-20)
(0.043714 -0.310758 -1.22499e-19)
(0.247535 -0.390801 -1.28388e-19)
(0.447414 -0.379486 5.50924e-20)
(0.586972 -0.32435 -1.0266e-19)
(0.679409 -0.257919 5.24019e-20)
(0.738619 -0.192315 1.33086e-21)
(0.773791 -0.140413 -3.89141e-20)
(0.798724 -0.0704892 2.53988e-20)
(-0.248325 0.338269 6.63265e-19)
(-0.21795 -0.147527 1.05202e-18)
(0.039727 -0.374351 1.37887e-19)
(0.254782 -0.452646 -1.81727e-19)
(0.458348 -0.42982 -4.12374e-20)
(0.598704 -0.359379 2.24965e-21)
(0.690684 -0.280618 2.44506e-20)
(0.749147 -0.20602 -3.39777e-20)
(0.783816 -0.14931 1.37924e-21)
(0.809331 -0.0742855 -3.92515e-22)
(-0.19727 0.373185 8.15106e-19)
(-0.17936 -0.165555 -1.99567e-20)
(0.0896553 -0.435798 1.06589e-19)
(0.307359 -0.513649 1.36103e-19)
(0.500521 -0.479411 1.27319e-20)
(0.629397 -0.393689 1.96707e-20)
(0.71248 -0.302919 -4.01137e-20)
(0.765705 -0.219444 0)
(0.797439 -0.158316 0)
(0.822664 -0.0782179 -5.19393e-23)
(-0.116989 0.410849 7.42964e-20)
(-0.0784229 -0.173416 -8.68826e-19)
(0.210983 -0.493072 -1.50365e-20)
(0.42489 -0.571248 -1.16201e-19)
(0.593939 -0.52469 -2.47126e-20)
(0.695721 -0.424297 5.39775e-20)
(0.756627 -0.322809 3.44494e-21)
(0.796112 -0.231406 -1.67473e-20)
(0.82009 -0.166816 -5.0821e-20)
(0.842392 -0.0821614 -1.9553e-21)
(-0.015998 0.444919 -5.39131e-20)
(0.085584 -0.177856 -3.83427e-19)
(0.394207 -0.546197 -1.11323e-18)
(0.604259 -0.624488 1.30664e-20)
(0.74769 -0.562851 9.54398e-20)
(0.81329 -0.447639 2.92178e-20)
(0.838432 -0.337237 9.82645e-21)
(0.852277 -0.239865 -7.09309e-20)
(0.860874 -0.173595 8.4765e-22)
(0.874747 -0.0857442 -2.39854e-20)
(0.100543 0.467685 -9.13792e-20)
(0.297516 -0.180407 -1.73558e-20)
(0.600297 -0.5944 4.66069e-19)
(0.808615 -0.676581 -1.21585e-19)
(0.941375 -0.596045 -2.7985e-20)
(0.980377 -0.462586 7.27172e-22)
(0.967197 -0.343319 -7.03431e-21)
(0.946293 -0.242142 1.36204e-20)
(0.931628 -0.176652 1.8414e-20)
(0.928898 -0.0881911 9.80695e-21)
(0.23131 0.482522 -7.35795e-20)
(0.522866 -0.177317 1.40709e-18)
(0.802636 -0.630302 7.22026e-19)
(1.00031 -0.728306 4.97934e-20)
(1.13434 -0.630793 -1.04691e-19)
(1.16974 -0.47397 -4.69958e-20)
(1.13306 -0.341959 -1.49298e-20)
(1.07991 -0.237044 2.68822e-20)
(1.03999 -0.174028 -6.22779e-23)
(1.01389 -0.0884421 -3.61887e-21)
(0.391143 0.474396 -2.75092e-19)
(0.743948 -0.164095 3.69989e-19)
(1.0123 -0.645026 -1.03684e-18)
(1.18246 -0.772358 5.83179e-19)
(1.30394 -0.667892 -1.70751e-19)
(1.34777 -0.487363 -3.51281e-20)
(1.30877 -0.337929 -3.75491e-20)
(1.23744 -0.226831 1.97114e-21)
(1.17939 -0.1658 -3.96066e-22)
(1.13043 -0.0859139 -8.25584e-22)
(0.529003 0.469827 4.96654e-20)
(0.962231 -0.114041 -6.48256e-19)
(1.25172 -0.643623 -7.28953e-19)
(1.38608 -0.804954 4.23603e-19)
(1.46316 -0.702397 -1.96015e-19)
(1.50035 -0.503351 3.79109e-20)
(1.46827 -0.3349 -1.281e-19)
(1.39393 -0.214957 -3.39076e-21)
(1.32935 -0.154128 -5.65645e-21)
(1.26548 -0.0810831 -8.56746e-21)
(0.826985 0.386728 2.5171e-19)
(1.32432 -0.160772 -6.04944e-20)
(1.63483 -0.673847 -6.17384e-20)
(1.71931 -0.835225 -1.6494e-19)
(1.70152 -0.73291 1.0622e-19)
(1.68275 -0.519806 -5.57703e-21)
(1.6411 -0.330015 2.22833e-20)
(1.56791 -0.197688 2.70418e-20)
(1.50498 -0.135268 -6.09484e-20)
(1.43358 -0.0722688 7.73578e-21)
(1.36385 0.24163 3.11063e-19)
(2.01597 -0.334088 -4.47153e-19)
(2.27586 -0.763005 -4.00854e-19)
(2.23301 -0.835857 2.31088e-20)
(2.05962 -0.689451 7.49835e-20)
(1.90697 -0.476215 1.54852e-19)
(1.79999 -0.293728 1.46433e-19)
(1.71192 -0.167146 -2.00871e-20)
(1.65404 -0.109823 7.6745e-20)
(1.58774 -0.0597535 1.80297e-20)
(2.10161 0.124184 6.72577e-20)
(2.62923 -0.423689 2.98624e-21)
(2.68628 -0.754095 7.70641e-20)
(2.527 -0.775687 3.30884e-35)
(2.30882 -0.613216 -5.2393e-20)
(2.10334 -0.410054 -6.88426e-34)
(1.94196 -0.245753 1.66474e-20)
(1.82588 -0.134279 2.05591e-34)
(1.75782 -0.085121 -6.18787e-22)
(1.69118 -0.0475496 -5.99782e-22)
(2.66315 0.020641 1.19112e-19)
(2.97894 -0.476265 5.88447e-19)
(2.90266 -0.744301 3.46487e-19)
(2.65319 -0.72837 0)
(2.38676 -0.546538 -9.93321e-20)
(2.16185 -0.343409 -1.36249e-19)
(1.98873 -0.192775 -1.21092e-19)
(1.86721 -0.097977 1.15075e-33)
(1.79573 -0.05846 -4.06113e-20)
(1.72901 -0.0341678 -7.01046e-22)
(2.96708 -0.0714912 1.06893e-19)
(3.14956 -0.480098 -4.37761e-22)
(3.05038 -0.666758 0)
(2.78522 -0.607473 0)
(2.48043 -0.425457 0)
(2.20807 -0.24617 0)
(2.00218 -0.1259 5.3887e-21)
(1.86737 -0.0575041 1.33747e-33)
(1.79306 -0.0320438 -1.73001e-21)
(1.7279 -0.0231067 -2.05963e-34)
(3.12133 -0.138532 1.17412e-19)
(3.25602 -0.465725 0)
(3.09282 -0.596833 0)
(2.73855 -0.520487 0)
(2.38979 -0.335486 0)
(2.1186 -0.165807 0)
(1.9292 -0.0667143 -1.17913e-20)
(1.81079 -0.020458 7.15271e-20)
(1.75072 -0.00766661 -2.27759e-21)
(1.69643 -0.0116226 9.452e-21)
(3.17574 -0.192035 0)
(3.24031 -0.44403 2.48493e-19)
(2.99425 -0.493349 1.07864e-19)
(2.56986 -0.374366 0)
(2.17993 -0.203479 -9.88538e-20)
(1.91112 -0.0723238 -8.89342e-20)
(1.75387 -0.00933149 -7.28436e-20)
(1.66806 0.0116299 -3.51216e-20)
(1.63426 0.0116939 3.02476e-20)
(1.59615 -0.00126816 -9.36259e-21)
(3.04084 -0.224053 3.92312e-20)
(2.95609 -0.371983 -9.24636e-21)
(2.55644 -0.350668 -8.10972e-21)
(2.05836 -0.224349 -1.65855e-35)
(1.6921 -0.0876588 2.15999e-20)
(1.49455 -0.00233725 -5.19881e-34)
(1.41048 0.0263253 -1.46794e-20)
(1.37709 0.0273195 -2.93747e-20)
(1.37671 0.0196454 -2.90199e-21)
(1.36089 0.00390317 5.35914e-21)
(2.41972 -0.220765 0)
(2.07789 -0.235113 -5.42171e-20)
(1.53665 -0.135486 -1.5034e-20)
(1.10728 -0.0413309 0)
(0.909186 0.010641 2.26769e-20)
(0.859272 0.0321352 1.98541e-20)
(0.873231 0.0330183 7.27496e-22)
(0.898888 0.0251349 1.0561e-20)
(0.92967 0.0165531 -1.44054e-20)
(0.936838 0.00495122 -3.96226e-21)
(0.827214 -0.0783154 1.74766e-20)
(0.474185 -0.0217588 0)
(0.230698 -0.000663996 0)
(0.13044 0.00328321 0)
(0.127668 0.00664323 0)
(0.170242 0.00969799 0)
(0.226743 0.00954086 -1.51621e-20)
(0.275233 0.0070908 4.85949e-35)
(0.312526 0.00452169 -3.38031e-21)
(0.330356 0.00140033 -5.95026e-21)
(2.43359 0.36481 4.16301e-19)
(2.43395 0.288661 1.84707e-19)
(2.39716 0.220739 3.13392e-19)
(2.32368 0.157187 -3.14593e-19)
(2.18146 0.106798 4.95523e-20)
(1.99144 0.061829 1.04269e-20)
(1.71494 0.0277084 5.19023e-20)
(1.41216 0.015586 -5.21251e-22)
(1.10787 -0.00313964 2.00124e-20)
(0.790756 0.202245 9.93889e-20)
(2.5633 0.317189 -2.29601e-19)
(2.59431 0.263722 4.55516e-20)
(2.58596 0.201838 1.71404e-19)
(2.56748 0.1593 1.40037e-19)
(2.51025 0.107861 -2.22267e-19)
(2.40689 0.0989017 9.05652e-20)
(2.29955 0.0514809 -5.61246e-20)
(2.03411 0.091659 -2.28545e-20)
(1.91023 0.0216261 -6.37349e-20)
(1.39921 0.107443 -9.74136e-20)
(2.68254 0.271169 3.5445e-20)
(2.68981 0.23998 -1.63406e-19)
(2.73851 0.174929 -2.1994e-19)
(2.68799 0.158244 4.56972e-19)
(2.73926 0.0880409 -1.10951e-20)
(2.60463 0.108134 -7.21046e-21)
(2.68123 0.0424029 -8.15544e-20)
(2.42732 0.0959187 -6.49754e-20)
(2.50117 0.0461715 6.66186e-20)
(2.09929 0.0737022 -2.39743e-21)
(2.78157 0.225503 6.20816e-20)
(2.76091 0.209155 -2.08981e-19)
(2.85723 0.143807 3.90617e-20)
(2.77931 0.144627 -1.5699e-19)
(2.89347 0.0689945 2.38663e-19)
(2.74934 0.0920374 -7.21278e-20)
(2.88281 0.0248617 5.7917e-20)
(2.68769 0.0596905 -8.9751e-20)
(2.80724 0.0262557 -2.29691e-19)
(2.5755 0.0411722 -1.23395e-19)
(2.82356 0.184476 1.11564e-19)
(2.81784 0.168373 -3.27821e-19)
(2.90791 0.114396 -2.34239e-20)
(2.86838 0.112092 -3.12638e-20)
(2.96262 0.0525176 -1.06373e-20)
(2.88294 0.0584077 -2.16859e-21)
(2.97954 0.00276689 4.74451e-20)
(2.87771 0.0130921 -6.09219e-20)
(2.96193 -0.0216462 -1.11946e-19)
(2.85634 -0.0101279 -1.67097e-19)
(2.81478 0.140111 2.0512e-19)
(2.83468 0.120295 4.02987e-20)
(2.90824 0.0800385 -2.27015e-19)
(2.91053 0.069901 1.3228e-19)
(2.98196 0.028151 1.20338e-19)
(2.96595 0.0215137 -7.13325e-20)
(3.02844 -0.0211148 1.20336e-19)
(2.99876 -0.025358 3.75067e-20)
(3.05156 -0.0635124 -1.69008e-19)
(3.01796 -0.0617311 -2.25349e-19)
(2.75395 0.0888425 1.74782e-20)
(2.79063 0.0692001 7.32911e-20)
(2.85422 0.0377027 -8.7863e-20)
(2.88057 0.026136 -4.03782e-20)
(2.94319 -0.00785443 1.26047e-19)
(2.9624 -0.0149928 3.22367e-20)
(3.01717 -0.0534425 1.00029e-19)
(3.03048 -0.0580858 9.67247e-20)
(3.07368 -0.0983245 3.2394e-20)
(3.08547 -0.102123 8.75638e-20)
(2.5885 0.0406361 2.37888e-20)
(2.64084 0.0206149 -2.35393e-22)
(2.67829 0.000497515 -9.21587e-20)
(2.73143 -0.0114373 -7.92524e-20)
(2.76611 -0.039725 2.95286e-20)
(2.82324 -0.0429109 -3.93374e-20)
(2.85307 -0.0827478 -2.39709e-20)
(2.90886 -0.0786859 1.04976e-19)
(2.9323 -0.123253 -8.02408e-20)
(2.98717 -0.120924 -9.00408e-20)
(2.18137 -0.00708059 7.50688e-20)
(2.23248 -0.0207447 -3.44611e-20)
(2.23071 -0.0302819 -3.1584e-20)
(2.29478 -0.0425868 3.77163e-20)
(2.27616 -0.0526536 -1.96778e-20)
(2.3591 -0.0603954 3.92569e-21)
(2.32402 -0.0763954 -5.93127e-20)
(2.41858 -0.0773613 1.7675e-20)
(2.38104 -0.106305 3.02521e-20)
(2.47641 -0.103788 -3.43872e-20)
(1.2117 -0.0154797 0)
(1.20722 -0.0187538 3.35082e-21)
(1.18826 -0.0201877 -4.79441e-20)
(1.18751 -0.0228446 -7.27259e-20)
(1.15883 -0.0246373 4.00084e-20)
(1.16992 -0.0303327 1.52157e-19)
(1.12307 -0.0333536 -1.12258e-20)
(1.15535 -0.0419499 -6.18097e-20)
(1.0766 -0.0474876 -3.3694e-21)
(1.13705 -0.0603149 3.50748e-21)
(1.41915 0.872907 -5.04033e-20)
(1.38092 0.899203 -1.04882e-19)
(1.36104 0.92856 -7.13193e-19)
(1.34487 0.961053 2.02231e-19)
(1.32639 0.99296 1.00486e-18)
(1.3003 1.02001 1.15637e-19)
(1.25779 1.03177 -8.46895e-20)
(1.17857 1.0092 -2.55385e-19)
(0.997114 0.891633 -2.9649e-19)
(0.533384 0.49426 -3.63424e-20)
(1.58653 0.854752 -4.39459e-19)
(1.54618 0.87709 1.2186e-18)
(1.51439 0.901765 5.27557e-19)
(1.48926 0.930874 -7.25089e-19)
(1.46637 0.960892 2.34977e-19)
(1.43807 0.986248 2.07359e-19)
(1.39282 0.995543 6.58635e-19)
(1.30726 0.971271 -9.74174e-19)
(1.10607 0.852666 -5.49777e-20)
(0.586638 0.46584 1.53826e-19)
(1.7371 0.831589 1.19068e-19)
(1.70078 0.851867 9.33212e-19)
(1.66431 0.872529 1.71089e-20)
(1.63272 0.895902 -4.20539e-19)
(1.60435 0.919989 1.35565e-19)
(1.57137 0.939586 -2.50759e-20)
(1.52088 0.943751 -4.98338e-20)
(1.42655 0.916533 -3.53773e-19)
(1.203 0.796536 7.4559e-20)
(0.629248 0.426033 -2.06897e-19)
(1.86379 0.798865 -4.82558e-19)
(1.83206 0.815792 4.21944e-19)
(1.79602 0.831809 -6.33314e-19)
(1.76186 0.848904 -2.2234e-19)
(1.72959 0.86625 1.21154e-18)
(1.69197 0.87913 -7.34765e-19)
(1.63548 0.877496 -8.14759e-19)
(1.53137 0.8462 3.66493e-19)
(1.28148 0.725217 -1.26331e-19)
(0.656003 0.377501 -5.11773e-20)
(1.97074 0.753656 5.94836e-19)
(1.9401 0.766533 4.60759e-19)
(1.90481 0.777933 -2.01602e-19)
(1.87006 0.789676 7.60618e-19)
(1.83558 0.800934 1.21837e-19)
(1.79363 0.806267 -3.26937e-19)
(1.73077 0.798036 4.20461e-19)
(1.61433 0.763208 -5.34216e-19)
(1.33364 0.640976 -6.14306e-19)
(0.662562 0.320432 -1.70074e-20)
(2.06137 0.70051 7.82008e-19)
(2.02803 0.709533 9.23922e-19)
(1.9914 0.716943 -8.86618e-19)
(1.95497 0.723459 -8.50094e-19)
(1.91657 0.727197 1.83306e-19)
(1.86914 0.724124 -5.81954e-19)
(1.80035 0.710345 -3.14695e-19)
(1.66747 0.670661 2.56352e-19)
(1.35244 0.54466 7.8813e-20)
(0.644396 0.256709 1.20272e-21)
(2.13694 0.643456 7.15086e-19)
(2.09714 0.648993 -9.01946e-19)
(2.05493 0.652126 -7.5195e-19)
(2.01264 0.652281 5.10421e-19)
(1.96842 0.64805 -4.533e-19)
(1.91614 0.638524 1.28976e-18)
(1.83882 0.619093 -1.69596e-19)
(1.68238 0.569794 -1.05229e-18)
(1.32864 0.438499 4.66814e-19)
(0.599331 0.190552 3.8455e-20)
(2.19965 0.580563 -4.6765e-19)
(2.14925 0.582838 -6.20879e-19)
(2.09727 0.581656 -7.68608e-19)
(2.04665 0.57626 3.88363e-20)
(1.99512 0.566541 2.57793e-19)
(1.93381 0.550842 2.47885e-19)
(1.8386 0.521687 4.6784e-19)
(1.64961 0.459442 -2.1304e-19)
(1.25657 0.326637 2.6994e-20)
(0.530316 0.127775 6.49318e-20)
(2.24652 0.512887 2.19358e-19)
(2.18333 0.512026 -8.70157e-20)
(2.11906 0.50706 3.74132e-19)
(2.0573 0.496944 9.94302e-19)
(1.99388 0.481239 -3.19929e-19)
(1.91551 0.456796 -1.10488e-18)
(1.79258 0.415665 7.92232e-19)
(1.56434 0.342811 7.39454e-19)
(1.13884 0.217484 -3.92697e-19)
(0.444809 0.0743189 -2.96345e-20)
(2.27337 0.43841 -4.42186e-19)
(2.19509 0.435185 -4.56476e-21)
(2.11612 0.426781 5.44096e-19)
(2.0392 0.411696 5.00335e-19)
(1.95761 0.388884 3.4118e-19)
(1.85438 0.355143 -5.41913e-19)
(1.69689 0.304717 6.91883e-20)
(1.42932 0.228551 -3.18457e-19)
(0.985297 0.121202 -4.39162e-19)
(0.351767 0.0340639 -1.17766e-21)
(0.430517 0.402077 8.11673e-21)
(0.395127 0.413088 9.31246e-21)
(0.356997 0.423787 -1.25584e-21)
(0.3165 0.433827 -2.30431e-20)
(0.27342 0.442529 -3.50683e-20)
(0.227279 0.447925 -7.04498e-20)
(0.177551 0.444707 2.15486e-20)
(0.123484 0.421099 -3.43971e-20)
(0.065897 0.353632 9.36846e-20)
(0.0249242 0.189409 1.54894e-20)
(0.481742 0.493832 -3.15413e-20)
(0.446626 0.507792 3.6129e-21)
(0.408889 0.521344 -8.20584e-20)
(0.368681 0.534249 1.22144e-20)
(0.325693 0.545971 3.01581e-20)
(0.279273 0.554533 3.47549e-20)
(0.228444 0.554037 1.57667e-19)
(0.171684 0.530778 -5.56479e-20)
(0.106755 0.454922 6.45559e-20)
(0.0466655 0.2505 -1.36512e-20)
(0.549307 0.580305 -1.28115e-20)
(0.515441 0.597664 9.55357e-20)
(0.479148 0.614758 7.53224e-20)
(0.440319 0.631322 9.01364e-20)
(0.398402 0.646792 2.94649e-20)
(0.352398 0.659144 1.6958e-19)
(0.300713 0.662012 -6.03735e-20)
(0.240741 0.639854 -7.68687e-20)
(0.166235 0.556333 1.08283e-22)
(0.0791097 0.31159 1.01831e-20)
(0.618688 0.662244 2.44601e-19)
(0.585091 0.682288 1.64119e-19)
(0.549873 0.701698 -2.66492e-19)
(0.512521 0.720677 -1.24446e-19)
(0.472421 0.738994 1.10302e-20)
(0.428428 0.754549 -7.94992e-20)
(0.378293 0.760197 -2.63966e-19)
(0.317826 0.738637 8.32865e-20)
(0.235564 0.647949 -5.94777e-20)
(0.118466 0.366533 -9.78469e-20)
(0.717747 0.731508 -7.01449e-20)
(0.686086 0.754658 -2.37522e-19)
(0.652706 0.776991 2.0542e-19)
(0.616756 0.798735 -8.33679e-20)
(0.577459 0.819751 -1.60244e-19)
(0.533549 0.838096 2.28691e-19)
(0.482343 0.84639 1.03754e-19)
(0.418262 0.825959 -1.26006e-19)
(0.324037 0.729795 -2.56595e-19)
(0.168007 0.415392 4.61824e-20)
(0.811748 0.795693 -1.03243e-20)
(0.781869 0.821056 -1.38835e-20)
(0.751317 0.845136 -2.14054e-20)
(0.718683 0.86887 7.03954e-20)
(0.682907 0.89233 2.13271e-19)
(0.642275 0.913277 -2.08005e-19)
(0.593091 0.923601 -1.37018e-19)
(0.527536 0.903433 -4.12474e-20)
(0.42176 0.80133 9.63998e-20)
(0.222995 0.456927 1.46894e-19)
(0.915652 0.843723 -2.10373e-19)
(0.88853 0.871989 1.05565e-19)
(0.861545 0.898261 3.32772e-19)
(0.832322 0.923816 -2.14994e-19)
(0.799592 0.949057 -4.39923e-19)
(0.761642 0.97187 1.91645e-19)
(0.714269 0.983612 5.9241e-19)
(0.647387 0.963486 1.54984e-19)
(0.529147 0.856741 -2.21358e-20)
(0.282973 0.488132 2.11813e-19)
(1.03091 0.881756 -3.90013e-19)
(1.00205 0.910075 -1.34774e-19)
(0.975896 0.936295 3.34343e-19)
(0.949419 0.962519 -1.1558e-19)
(0.920404 0.98897 9.64748e-20)
(0.886119 1.01294 3.97742e-19)
(0.841167 1.02502 -4.07429e-19)
(0.773037 1.0041 -3.64595e-19)
(0.641706 0.89321 2.90194e-19)
(0.345363 0.507187 -1.16362e-20)
(1.15673 0.900123 -1.52017e-20)
(1.13604 0.929908 4.54988e-20)
(1.11428 0.955336 -2.46735e-19)
(1.08937 0.980756 -8.37865e-20)
(1.06085 1.00734 4.89423e-19)
(1.02681 1.03212 1.35791e-19)
(0.981132 1.04481 -1.07831e-19)
(0.908718 1.02384 0)
(0.761193 0.910605 -1.95104e-19)
(0.41012 0.51464 -1.04723e-19)
(1.24322 0.901964 0)
(1.23017 0.93347 0)
(1.22321 0.961477 6.72553e-19)
(1.21113 0.988049 1.45547e-19)
(1.19171 1.01447 -2.11836e-19)
(1.16344 1.03833 3.83093e-19)
(1.12022 1.04955 -2.45085e-19)
(1.04488 1.02724 -6.84594e-19)
(0.880904 0.911154 3.55092e-19)
(0.473735 0.51081 1.88805e-19)
(0.963639 -0.0160322 -1.09202e-20)
(1.04957 0.139159 -7.90609e-21)
(0.983815 0.244713 7.03353e-21)
(0.962064 0.249782 5.64393e-21)
(0.92838 0.221374 1.94224e-20)
(0.898913 0.212027 3.2293e-20)
(0.875083 0.206286 -1.55258e-20)
(0.817647 0.232824 -2.44619e-20)
(0.776454 0.263653 -9.3389e-20)
(0.590549 0.342778 8.38078e-20)
(0.963154 -0.0202774 -7.84822e-22)
(1.05009 0.141807 7.43109e-21)
(0.982963 0.253669 1.03926e-22)
(0.961908 0.259175 1.19794e-20)
(0.927885 0.229452 1.50438e-20)
(0.899026 0.219731 -4.49413e-20)
(0.881829 0.216487 -1.53392e-20)
(0.832013 0.248247 1.32185e-22)
(0.799578 0.298678 2.34489e-19)
(0.635074 0.412946 -1.30495e-21)
(0.962536 -0.0243587 2.27451e-21)
(1.0512 0.145056 1.2857e-20)
(0.982281 0.262914 -8.02362e-21)
(0.961215 0.268528 -1.47389e-21)
(0.925588 0.237219 -1.78775e-20)
(0.897577 0.22648 3.17072e-21)
(0.886008 0.224659 2.02983e-20)
(0.845265 0.262256 -1.91612e-20)
(0.82158 0.331248 1.17068e-19)
(0.689877 0.477986 -3.00391e-19)
(0.961734 -0.0283101 1.63793e-21)
(1.05304 0.148889 -1.84089e-21)
(0.981815 0.272613 -9.53642e-21)
(0.9593 0.278061 -3.19773e-20)
(0.921541 0.244665 3.92625e-20)
(0.895733 0.232237 2.55243e-20)
(0.888497 0.230891 -2.53956e-20)
(0.857298 0.275033 9.36688e-20)
(0.843498 0.360583 -1.04387e-19)
(0.749527 0.541805 -3.02578e-19)
(0.960712 -0.0321918 1.1336e-21)
(1.05597 0.15327 -7.65189e-21)
(0.98149 0.283079 3.67653e-21)
(0.955654 0.287953 5.10868e-20)
(0.917351 0.251588 1.44769e-20)
(0.89486 0.236879 5.4449e-20)
(0.89029 0.23561 3.0747e-20)
(0.868121 0.287025 7.1892e-20)
(0.863546 0.385923 -8.45582e-21)
(0.826563 0.595039 2.40107e-19)
(0.959504 -0.0361196 1.12252e-21)
(1.06034 0.158198 2.63548e-22)
(0.98084 0.294638 -9.38986e-22)
(0.951571 0.298112 1.42588e-20)
(0.916162 0.257593 -4.59366e-20)
(0.895787 0.240596 7.82342e-21)
(0.89241 0.239408 -6.38541e-21)
(0.877495 0.298478 -2.10916e-19)
(0.886657 0.40621 0)
(0.904414 0.647349 -2.77051e-20)
(0.958215 -0.0402643 -1.22893e-21)
(1.06594 0.163732 -3.81061e-21)
(0.979626 0.307301 1.299e-21)
(0.950949 0.307619 -6.9659e-20)
(0.920049 0.262266 -1.67985e-20)
(0.898767 0.243856 -7.19188e-20)
(0.896217 0.242664 4.51272e-21)
(0.887264 0.309821 6.70754e-21)
(0.910212 0.421913 -3.15407e-21)
(0.985331 0.685725 8.48203e-19)
(0.95663 -0.044635 -1.82618e-20)
(1.07166 0.169617 -8.63705e-21)
(0.979581 0.320622 9.74366e-21)
(0.956639 0.315162 3.43173e-20)
(0.929106 0.265662 -7.72472e-20)
(0.904673 0.247165 1.72236e-20)
(0.904836 0.245444 -3.51889e-21)
(0.900184 0.321166 2.07425e-20)
(0.938732 0.433306 1.38713e-19)
(1.09244 0.730036 -7.94754e-20)
(0.953408 -0.0486004 5.1098e-21)
(1.07632 0.175229 3.38139e-21)
(0.984271 0.33346 -4.7545e-21)
(0.968963 0.320402 7.97172e-20)
(0.944288 0.268199 7.55466e-21)
(0.91804 0.251042 2.65089e-20)
(0.925298 0.247529 -4.62764e-20)
(0.921149 0.331087 6.21601e-20)
(0.982088 0.43141 2.60063e-19)
(1.16763 0.746027 -6.47913e-19)
(0.94689 -0.0521358 2.98759e-21)
(1.0804 0.18136 2.71622e-20)
(0.996101 0.344762 1.08083e-21)
(0.989919 0.323323 -2.75892e-20)
(0.973091 0.269319 8.62625e-20)
(0.952836 0.254761 -3.53332e-20)
(0.96777 0.25084 -1.39126e-20)
(0.95749 0.345442 4.55139e-20)
(1.03839 0.453615 -9.91719e-20)
(1.29941 0.80009 3.89612e-19)
(0.934527 -0.0584221 -2.46725e-21)
(1.08516 0.181981 -1.02338e-20)
(1.02454 0.354004 -2.70745e-21)
(1.03922 0.328894 -5.15428e-20)
(1.04988 0.270193 -5.05095e-20)
(1.04809 0.257364 -4.37962e-20)
(1.0682 0.247358 1.14559e-20)
(1.05424 0.350403 -1.35623e-19)
(1.11318 0.39205 -4.46097e-19)
(1.32552 0.774267 -7.30186e-20)
(0.917399 -0.0635689 -2.64494e-20)
(1.08021 0.165774 -8.46774e-21)
(1.08331 0.34563 1.30005e-22)
(1.14446 0.324519 8.46588e-22)
(1.20617 0.258653 3.20941e-20)
(1.20142 0.256769 6.51496e-20)
(1.29346 0.234561 1.44709e-20)
(1.19851 0.352408 1.13675e-19)
(1.39467 0.352864 1.70725e-19)
(1.36893 0.66642 3.51117e-19)
(0.901865 -0.0643185 -3.11728e-21)
(1.06729 0.136042 -4.73454e-21)
(1.14761 0.312186 5.49856e-21)
(1.25766 0.299693 9.01882e-21)
(1.37252 0.241681 5.62652e-35)
(1.33979 0.237203 -6.36553e-21)
(1.55121 0.229672 -4.63576e-34)
(1.31212 0.334494 1.85599e-20)
(1.74046 0.321034 -4.97539e-20)
(1.4785 0.5961 -2.70957e-19)
(0.891671 -0.0611084 2.46241e-20)
(1.05353 0.0930188 -4.11794e-35)
(1.19307 0.254377 -5.55932e-21)
(1.34432 0.256129 9.97949e-21)
(1.4997 0.220102 -9.30941e-21)
(1.44454 0.201396 -1.83024e-20)
(1.74559 0.225541 -5.66559e-34)
(1.43758 0.302797 -6.36834e-20)
(1.95677 0.286461 -1.2079e-19)
(1.68089 0.541978 2.92862e-19)
(0.891687 -0.0531679 0)
(1.04062 0.0423889 -9.47404e-35)
(1.20841 0.179625 0)
(1.39559 0.199077 0)
(1.56277 0.195422 0)
(1.5307 0.157927 0)
(1.82118 0.211058 -3.92575e-34)
(1.58287 0.272122 0)
(2.01523 0.236994 -1.82759e-20)
(1.90066 0.475775 1.69336e-19)
(0.900195 -0.0445683 3.8437e-21)
(1.03632 -0.00553472 -7.40896e-22)
(1.2023 0.0968289 -6.25798e-21)
(1.40709 0.134395 0)
(1.57193 0.164258 0)
(1.58903 0.114794 6.57222e-21)
(1.80896 0.189574 3.72736e-20)
(1.71024 0.243434 -1.38605e-20)
(2.001 0.177409 -2.7601e-20)
(2.06048 0.39498 1.12878e-19)
(0.911677 -0.0391877 -4.65674e-20)
(1.04653 -0.0523441 -2.46596e-21)
(1.17621 0.0151513 -7.05641e-21)
(1.37173 0.071048 -2.41149e-20)
(1.52255 0.121578 -1.20251e-20)
(1.59325 0.0769063 -4.83546e-21)
(1.72706 0.158984 -3.16892e-20)
(1.78391 0.207177 -1.38957e-20)
(1.95155 0.123809 -6.15283e-20)
(2.11746 0.312024 1.28923e-19)
(0.920925 -0.0390714 -6.69961e-21)
(1.07964 -0.0839928 -1.53063e-20)
(1.11075 -0.0465131 -7.81696e-21)
(1.26619 0.0217329 -6.51343e-21)
(1.36929 0.0725331 4.66759e-35)
(1.5007 0.0454869 7.63327e-21)
(1.5188 0.11654 -7.91497e-34)
(1.76047 0.150874 -1.39653e-20)
(1.80063 0.0786165 1.89807e-20)
(2.04707 0.230709 2.322e-20)
(0.926025 -0.0537666 1.3367e-19)
(1.07048 -0.098246 -6.53393e-21)
(0.93751 -0.0757107 -9.20423e-21)
(1.00686 -0.00936957 1.26153e-20)
(1.052 0.0255299 5.74555e-21)
(1.17266 0.0218362 1.332e-20)
(1.14738 0.0652081 7.44668e-21)
(1.49851 0.0719775 -2.21404e-20)
(1.4163 0.046543 -1.88152e-20)
(1.75816 0.130166 8.71365e-20)
(0.866948 -0.0389124 7.59795e-21)
(0.826754 -0.0645572 -6.86692e-35)
(0.490849 -0.0387472 -9.56337e-21)
(0.480289 -0.00334355 0)
(0.484028 0.00563611 0)
(0.541344 0.00894354 7.7295e-21)
(0.566528 0.0172408 -9.25623e-36)
(0.780559 0.0200208 -1.41162e-20)
(0.743418 0.0183316 -2.76216e-20)
(1.02025 0.0420215 -3.63156e-20)
(1.57456 0.801533 1.5838e-19)
(1.68588 0.795748 -7.41637e-20)
(1.80858 0.778081 -3.19847e-21)
(1.92074 0.751156 6.56458e-20)
(2.02524 0.712186 -2.68115e-19)
(2.12116 0.666897 -4.78235e-19)
(2.20834 0.616946 -2.29197e-19)