/*--------------------------------*- C++ -*----------------------------------*\
| =========                 |                                                 |
| \\      /  F ield         | OpenFOAM: The Open Source CFD Toolbox           |
|  \\    /   O peration     | Version:  2406                                  |
|   \\  /    A nd           | Website:  www.openfoam.com                      |
|    \\/     M anipulation  |                                                 |
\*---------------------------------------------------------------------------*/
FoamFile
{
    version     2.0;
    format      ascii;
    arch        "LSB;label=32;scalar=64";
    class       volScalarField;
    location    "1.2";
    object      nu;
}
// * * * * * * * * * * * * * * * * * * * * * * * * * * * * * * * * * * * * * //

dimensions      [0 2 -1 0 0 0 0];

internalField   nonuniform List<scalar> 
1800
(
0.0490019
0.0546414
0.0263144
0.0147868
0.0115122
0.0100569
0.00925222
0.00875302
0.00860566
0.00859515
0.0299973
0.0589289
0.0329071
0.0144883
0.0107898
0.00950204
0.00886076
0.00847639
0.00855407
0.00804476
0.0263314
0.0394692
0.0149814
0.010579
0.00917867
0.00858485
0.00830419
0.00812524
0.008358
0.0079375
0.035981
0.0152401
0.0101839
0.00870777
0.00816284
0.00796153
0.00793714
0.00797207
0.008309
0.00812631
0.0215537
0.0105024
0.00845298
0.00782296
0.00763924
0.00767383
0.00784297
0.00807977
0.00854449
0.00850925
0.0122648
0.00858653
0.0076175
0.00736493
0.007413
0.00764557
0.0080087
0.00846331
0.00905756
0.00930701
0.0092193
0.00761974
0.00715021
0.00715102
0.00741264
0.00786767
0.00847947
0.00921048
0.0100642
0.0106768
0.00782779
0.00704868
0.00689598
0.00712961
0.00764441
0.00841176
0.00940572
0.0105764
0.0118863
0.0129898
0.00704281
0.0067036
0.00680573
0.00730323
0.0081803
0.00945614
0.0110921
0.0129681
0.014965
0.0166562
0.00655602
0.00650885
0.00685804
0.00769633
0.00913692
0.0112699
0.013982
0.0171385
0.0209631
0.0255273
0.00732723
0.00895783
0.0116066
0.0140394
0.0149952
0.0153263
0.0155834
0.0157299
0.0156308
0.0154026
0.00721543
0.00871274
0.01148
0.014898
0.0165792
0.0167075
0.0165997
0.0166916
0.016729
0.0164712
0.00719477
0.00850108
0.0110938
0.0153765
0.0199666
0.0225239
0.0224451
0.0211183
0.0199445
0.0189531
0.00726931
0.00832685
0.0104867
0.014643
0.0224339
0.0372207
0.0602094
0.0662576
0.0499681
0.0317021
0.00750349
0.00823615
0.00976362
0.0123676
0.0159352
0.0200333
0.0244761
0.028766
0.0318164
0.0402533
0.00801854
0.00829886
0.00922778
0.0107633
0.0125012
0.0140442
0.0153142
0.0162801
0.0168978
0.0187922
0.00907293
0.00861709
0.00900451
0.00989193
0.0108396
0.0116136
0.0121991
0.0126002
0.0127762
0.013522
0.011432
0.00939607
0.0091744
0.00960597
0.0100809
0.0104311
0.0106764
0.0108434
0.0108767
0.0112943
0.0200518
0.0113093
0.00994306
0.00993032
0.00999012
0.00996042
0.00989528
0.00982526
0.00967648
0.00986256
0.069306
0.0183433
0.0126109
0.0113346
0.0105935
0.00998017
0.00952043
0.00916296
0.00884853
0.00928058
0.0161622
0.0137718
0.0136449
0.0143262
0.0151924
0.0171513
0.0196153
0.0231216
0.0252492
0.0323308
0.0176386
0.0147636
0.0142646
0.0143701
0.0147884
0.0164102
0.0186228
0.0219818
0.0241496
0.0308362
0.0211253
0.0180168
0.0150865
0.0139802
0.0139733
0.0152491
0.0172254
0.0203323
0.0224925
0.0284474
0.0367336
0.0263339
0.0145406
0.0127692
0.0126262
0.0135258
0.0152145
0.0179657
0.0201404
0.0252007
0.0440883
0.0235295
0.0130764
0.011751
0.0115527
0.0120147
0.0131952
0.0153497
0.0173491
0.0215066
0.0215995
0.0161662
0.0122818
0.0113128
0.0110956
0.0112165
0.011847
0.0133048
0.0148346
0.0180716
0.0150794
0.0135153
0.0119838
0.0110708
0.0109727
0.0110246
0.011257
0.0121271
0.0131116
0.0154698
0.0124066
0.012148
0.0115698
0.010649
0.0107483
0.01107
0.011222
0.0117047
0.0122368
0.0138706
0.0109887
0.0116445
0.0109999
0.0101772
0.0103346
0.0109795
0.0114351
0.0118327
0.0120796
0.0131801
0.00996115
0.0103233
0.0100868
0.00989137
0.0100263
0.0107304
0.011615
0.0122993
0.0125187
0.0132785
0.00960212
0.00976558
0.00993962
0.0100602
0.0100778
0.0105572
0.0116553
0.012928
0.0136269
0.0143978
0.00898529
0.00907917
0.00993821
0.0109243
0.0110277
0.0111435
0.0120956
0.0138711
0.0155501
0.0170905
0.00890906
0.00982043
0.0122851
0.01301
0.0125656
0.0127168
0.0136431
0.0157971
0.0185898
0.0230003
0.00996928
0.0123343
0.0182428
0.0138443
0.0124014
0.0128508
0.0144809
0.017818
0.0221165
0.0342831
0.0121676
0.0163924
0.0315008
0.0146159
0.0129429
0.013292
0.0147588
0.0179768
0.021845
0.0313332
0.0155774
0.0182378
0.02173
0.0129747
0.0117837
0.0122625
0.0135102
0.0155114
0.0175269
0.0205632
0.0170678
0.014642
0.011427
0.00992983
0.00978828
0.0103118
0.0111826
0.0122195
0.0131025
0.0141487
0.0110931
0.00947642
0.00832299
0.0080548
0.0083657
0.00896144
0.00960266
0.0101899
0.0105971
0.0110147
0.00777479
0.00736568
0.00729804
0.00760951
0.00813533
0.00864451
0.00901414
0.00927496
0.00939918
0.00953205
0.00682416
0.00710024
0.00776431
0.00894167
0.0101012
0.0103869
0.010004
0.00959601
0.00926015
0.00910429
0.0293739
0.0206937
0.0163282
0.0130959
0.0111163
0.00976889
0.00886288
0.0086287
0.00813196
0.00844848
0.0181449
0.0198581
0.0169855
0.017503
0.0136889
0.0131682
0.0104865
0.00986994
0.00878588
0.00841824
0.0160158
0.017519
0.0162508
0.0173834
0.0158399
0.0152983
0.0136543
0.0116718
0.0111829
0.0094488
0.0168734
0.0171123
0.0181617
0.0170635
0.0192178
0.0160551
0.0186332
0.0139612
0.0148199
0.0115568
0.0179388
0.0176965
0.0197935
0.0187102
0.0215055
0.0189061
0.022226
0.0176023
0.0193882
0.0147983
0.0159509
0.0166285
0.0169412
0.018343
0.0185536
0.0207708
0.0210048
0.0227789
0.0229568
0.020486
0.0133183
0.014008
0.0136856
0.0147683
0.014425
0.0160077
0.0156907
0.0184128
0.0175522
0.0228647
0.0105261
0.0108077
0.0104777
0.0109226
0.0105487
0.0111083
0.0107772
0.0113728
0.0111283
0.0117627
0.00810568
0.00805142
0.00799673
0.00798498
0.00793926
0.00797576
0.00793195
0.00800667
0.00796543
0.00806254
0.00643023
0.00640881
0.00643386
0.00642711
0.00647761
0.00648119
0.00655455
0.00656504
0.00666218
0.00667054
0.0101112
0.0106667
0.010581
0.0104861
0.010505
0.0108091
0.0115299
0.0099961
0.00706973
0.00582437
0.0105915
0.0107527
0.010649
0.0105203
0.0105444
0.0109424
0.0117844
0.0098082
0.00695846
0.00578722
0.0110778
0.0111388
0.0110116
0.0108695
0.0108969
0.011403
0.0122717
0.00954288
0.00684744
0.00576015
0.0116557
0.0117347
0.0115814
0.0114327
0.0115314
0.012293
0.0130999
0.00923059
0.00674104
0.00574643
0.0122829
0.0124972
0.0124161
0.012326
0.0126249
0.0140071
0.0138724
0.00885505
0.0066427
0.00575053
0.0130663
0.0135089
0.0135141
0.0135424
0.0146009
0.017653
0.0135188
0.008446
0.00655693
0.0057759
0.0141508
0.0146779
0.0150115
0.0164246
0.0207481
0.0226268
0.01211
0.00803146
0.00648428
0.00582662
0.0159592
0.0180615
0.0216158
0.0300529
0.0400642
0.0186071
0.0104966
0.00763904
0.00642923
0.00591035
0.0226937
0.0353799
0.069721
0.0572503
0.0229267
0.0132781
0.00922555
0.00730199
0.00640196
0.00604108
0.0558833
0.0533233
0.0300013
0.0202418
0.0144648
0.0106692
0.00832922
0.0070337
0.00641985
0.00624341
0.0119379
0.0115611
0.0112315
0.0109387
0.0106686
0.0104318
0.0102187
0.00992807
0.0093176
0.00779108
0.0117696
0.0114265
0.0111231
0.0108427
0.0105838
0.0103653
0.0101852
0.00986975
0.00891576
0.00722532
0.0116697
0.0113492
0.0110564
0.0107735
0.0105084
0.0102886
0.0101262
0.00978472
0.00855197
0.0068395
0.0115557
0.011296
0.0110448
0.010775
0.0105169
0.0103133
0.0101861
0.00979944
0.00826374
0.00656877
0.0113833
0.0111695
0.0109625
0.0107197
0.010486
0.0103209
0.0102609
0.00984347
0.00802104
0.00636906
0.0113122
0.0111201
0.0109263
0.0106809
0.0104584
0.0103343
0.0103523
0.00989146
0.00781209
0.00621856
0.0113748
0.0112638
0.011089
0.0108047
0.0105347
0.0103937
0.0104395
0.0098757
0.00761597
0.00609705
0.0113172
0.0112379
0.0111405
0.0109097
0.0106897
0.0106158
0.0107542
0.00997402
0.00745305
0.00600255
0.0115686
0.0114355
0.0112121
0.010871
0.0106281
0.0106348
0.0109536
0.0100356
0.00731377
0.00592904
0.0114206
0.0112536
0.0111644
0.010949
0.0107564
0.0108334
0.0112959
0.0100562
0.00718536
0.00587055
0.0796501
0.0307292
0.0335582
0.0455816
0.0428869
0.0438794
0.0354584
0.0283656
0.0194153
0.0136127
0.0842419
0.0297756
0.0320395
0.04521
0.0433804
0.0461691
0.0395179
0.0291259
0.0197862
0.0134177
0.0875035
0.028864
0.0307302
0.0445073
0.0432548
0.0481834
0.0453529
0.0297133
0.0203104
0.0132904
0.0886795
0.0279312
0.0295203
0.0434967
0.0429911
0.0507119
0.0532967
0.030095
0.0208396
0.0130772
0.086637
0.0269455
0.0284327
0.0422801
0.0434312
0.0541623
0.0614624
0.0302842
0.0211939
0.0128264
0.0817027
0.0260087
0.0275701
0.0412042
0.0451131
0.0574584
0.0630452
0.0304511
0.0206005
0.0127493
0.0764298
0.0253416
0.0269199
0.0406461
0.0471514
0.0586625
0.0546252
0.0300107
0.0194774
0.0124722
0.0722249
0.0251259
0.0262696
0.0403045
0.0472721
0.0563366
0.0418394
0.0284834
0.0172968
0.0124792
0.0698663
0.025472
0.0254325
0.0388202
0.0432219
0.0463356
0.0302489
0.0254126
0.0162609
0.0120643
0.0745817
0.0263486
0.0246118
0.0352976
0.0333382
0.0296686
0.0218306
0.0200825
0.0143543
0.0135609
0.10017
0.0280093
0.0236294
0.0291014
0.0228766
0.0213466
0.0156869
0.0169947
0.0127338
0.0133299
0.0805882
0.0279743
0.021437
0.0229919
0.0172955
0.0191208
0.012862
0.0169901
0.0112722
0.0127472
0.0592437
0.0267947
0.0195595
0.0190992
0.0164511
0.018789
0.0126305
0.0175014
0.0113777
0.0128908
0.0474382
0.025745
0.0183512
0.0167462
0.019134
0.0175536
0.0152245
0.016227
0.0136675
0.0128482
0.044761
0.0259113
0.0175897
0.0157629
0.0240045
0.0172919
0.0238121
0.0158044
0.0179061
0.0133221
0.0498735
0.0261029
0.0175488
0.0158365
0.0212534
0.0188851
0.0248681
0.0179535
0.0196851
0.0142451
0.0589412
0.0268614
0.0192989
0.0170599
0.016566
0.0209678
0.0164768
0.0217139
0.0175998
0.0159629
0.0450808
0.0358537
0.021614
0.0164764
0.0129872
0.0146783
0.0119909
0.0146437
0.0127839
0.0140427
0.0249661
0.0188478
0.0126396
0.0112139
0.0103431
0.0100203
0.00988235
0.00981281
0.00963406
0.0096203
0.00794693
0.00787122
0.00847469
0.00853004
0.00844891
0.00809673
0.00822131
0.00752479
0.00759542
0.00718328
0.0111622
0.0112795
0.0113654
0.0117666
0.0122335
0.0128447
0.0136851
0.0148305
0.0172859
0.0238454
0.0118739
0.0118688
0.0119885
0.0124208
0.0128183
0.0134233
0.0139269
0.0148796
0.0155766
0.0173406
0.0126894
0.0126569
0.0128455
0.01328
0.0135915
0.0141513
0.014355
0.0152074
0.0152246
0.0163455
0.0132541
0.0131891
0.0134151
0.013674
0.0140601
0.0144083
0.0147943
0.0153054
0.0157651
0.0163051
0.0138444
0.0138031
0.0141339
0.0143629
0.0148948
0.0150525
0.0156598
0.0157662
0.0166141
0.016672
0.0147695
0.0147495
0.0150302
0.0151385
0.0153812
0.0152349
0.0153928
0.015254
0.015465
0.0156431
0.015463
0.0149897
0.0146164
0.0143091
0.0140251
0.0137868
0.0135416
0.0134773
0.0132821
0.013549
0.0127835
0.0122952
0.0118391
0.0115799
0.0112966
0.0111845
0.0109469
0.0109134
0.0106787
0.0107833
0.00940993
0.00921471
0.00903636
0.00887852
0.00873935
0.00860704
0.00848293
0.00837318
0.00827006
0.00818362
0.00705399
0.0069493
0.00685218
0.00675962
0.00668233
0.00660938
0.00655557
0.00650163
0.00647173
0.00643398
0.00598786
0.00682556
0.00867241
0.0139482
0.0485083
0.0250222
0.0152044
0.0119773
0.00999047
0.00838127
0.0060643
0.0067648
0.00828062
0.0123045
0.0291007
0.0319216
0.0174084
0.0123976
0.00997545
0.00834076
0.00618339
0.00673891
0.0079357
0.0107384
0.0176347
0.0230862
0.0178716
0.0130175
0.0102423
0.00850987
0.00635743
0.00675561
0.00766036
0.00962501
0.0135569
0.01773
0.0170731
0.0136538
0.0107659
0.00885946
0.00660506
0.00682568
0.00746143
0.00885209
0.0114539
0.0148031
0.0160355
0.0142558
0.0115459
0.00940959
0.00695672
0.00697119
0.00734716
0.00829605
0.0100758
0.0127379
0.0149211
0.0147683
0.0126937
0.0102037
0.00745658
0.00723158
0.00735195
0.0079286
0.0090849
0.0109922
0.0133303
0.0145919
0.0138915
0.0114725
0.00815696
0.00765427
0.00752552
0.00779032
0.00847073
0.00966535
0.011417
0.0132557
0.0141782
0.0125849
0.00911641
0.00828191
0.00791595
0.00792425
0.00826365
0.00894994
0.00999378
0.0112766
0.01269
0.0122454
0.0103745
0.00913778
0.00857343
0.0083757
0.0084674
0.00883526
0.00945947
0.0102551
0.0112788
0.0119373
0.011767
0.0101639
0.00953902
0.0092138
0.0090968
0.0092002
0.00951152
0.00998208
0.0103802
0.0112956
0.0125174
0.0110303
0.0107188
0.0105412
0.0102919
0.0101071
0.0101004
0.0102521
0.0102434
0.0108131
0.011975
0.0112697
0.0116104
0.012182
0.0122583
0.011771
0.0113215
0.0111021
0.0107641
0.0109619
0.0110371
0.0111774
0.0121321
0.0138194
0.0155991
0.0153914
0.0139077
0.0130434
0.0121526
0.0117975
0.0101658
0.0109546
0.0124273
0.0150427
0.0202664
0.0291687
0.0238032
0.0192007
0.0151725
0.0133076
0.00932575
0.0105857
0.012455
0.0154899
0.0213532
0.0410565
0.232954
0.0293554
0.0177824
0.0150817
0.00864606
0.0102356
0.0124543
0.0156029
0.0201297
0.0281282
0.0340143
0.0275932
0.019253
0.0161241
0.0081612
0.00992482
0.0123301
0.0147967
0.0166288
0.0182417
0.0195967
0.0194097
0.0173636
0.015699
0.00779902
0.00959166
0.0120573
0.0140397
0.015005
0.0157335
0.0164558
0.016655
0.0160579
0.0152546
0.00752444
0.00926068
0.0117928
0.0137488
0.0145182
0.0149725
0.0154078
0.0156399
0.0154797
0.0151147
0.0113031
0.0127146
0.0162931
0.0279779
0.0497905
0.0307869
0.0267932
0.0272118
0.0276213
0.034361
0.0113124
0.0126553
0.0163835
0.0239281
0.0327769
0.0283891
0.0263153
0.027294
0.0283536
0.0373934
0.011519
0.0126938
0.0163274
0.0212404
0.0268694
0.0265784
0.0257806
0.0270741
0.028378
0.0377284
0.0118769
0.0130209
0.0163035
0.0199953
0.0238208
0.0248442
0.0250206
0.0266346
0.0280013
0.0368379
0.012241
0.0136399
0.0160316
0.0190301
0.0217302
0.0233276
0.024214
0.0261329
0.027464
0.0356007
0.0127845
0.0142529
0.0154712
0.0179665
0.0200914
0.0220574
0.0235035
0.0257261
0.0270099
0.0345523
0.0134271
0.014475
0.0148302
0.0168859
0.0187065
0.0209268
0.0228526
0.025415
0.0267333
0.0339092
0.0139396
0.0142568
0.0142622
0.015904
0.0175102
0.019853
0.0221602
0.0250879
0.026562
0.0336117
0.0144993
0.0138959
0.0138247
0.0150883
0.016503
0.0188343
0.0213752
0.0246311
0.0263471
0.0334395
0.0152151
0.0136521
0.013566
0.0145308
0.0157181
0.0179201
0.0205139
0.0239835
0.0259465
0.0331099
0.0101957
0.0133489
0.0167798
0.0216064
0.0211237
0.0173127
0.0146662
0.0129674
0.0121099
0.0115274
0.00951282
0.0112032
0.0133046
0.0148688
0.0149504
0.014117
0.0133672
0.0127035
0.0123378
0.0119634
0.0100169
0.0116811
0.0144573
0.0170286
0.0176192
0.0168168
0.0159284
0.0152648
0.0148518
0.0143508
0.0108857
0.0124538
0.0164173
0.0253764
0.0296342
0.0239362
0.0212393
0.0203731
0.0197039
0.0194649
0.0118403
0.0129879
0.0167441
0.032825
0.0640116
0.0295717
0.0252534
0.0250412
0.0247707
0.027276
0.00601687
0.00612168
0.00627862
0.00649344
0.00675626
0.0070952
0.00747625
0.00789819
0.00847865
0.0087522
0.00625827
0.00634581
0.00649328
0.00669716
0.00693791
0.00723619
0.00753798
0.00785538
0.00829259
0.00849531
0.00656837
0.00663363
0.00677451
0.00697315
0.0072102
0.00749397
0.00776372
0.00815847
0.00850976
0.0089561
0.0069765
0.00701467
0.00715983
0.00737649
0.00766443
0.00799175
0.00836067
0.00903245
0.00934263
0.0105313
0.00749989
0.00750563
0.00766713
0.00793738
0.008335
0.00880491
0.00952995
0.0105698
0.0109141
0.0130234
0.013323
0.0131834
0.0130415
0.0126154
0.0121421
0.0117731
0.0115104
0.0107881
0.00868549
0.00674457
0.0136966
0.0133673
0.0128767
0.0122742
0.0117883
0.0114715
0.0112809
0.0107858
0.00901213
0.00697364
0.0130519
0.012774
0.0124833
0.0121132
0.0117815
0.0115301
0.0113395
0.0109104
0.009403
0.00726617
0.0130886
0.0128013
0.0124811
0.0120935
0.0117212
0.0114063
0.0111513
0.0108136
0.00979259
0.00766415
0.013
0.0126315
0.0122576
0.0118662
0.0115028
0.0111986
0.0109655
0.0107757
0.0103068
0.00828734
0.012867
0.0124481
0.0120487
0.0116631
0.0113054
0.0109992
0.0107716
0.0107061
0.0108639
0.00935108
0.0126797
0.0122296
0.0118163
0.0114355
0.011078
0.0107617
0.0105233
0.0105362
0.0113331
0.0116791
0.0124746
0.0120225
0.0116177
0.0112551
0.0109127
0.0106035
0.010353
0.0103008
0.0111602
0.0147802
0.0122793
0.011848
0.0114693
0.0111375
0.0108299
0.0105536
0.0103089
0.0101519
0.0104726
0.0109018
0.0121038
0.0116999
0.0113472
0.011038
0.0107537
0.010502
0.0102718
0.0100328
0.00983326
0.00877713
0.00866046
0.0102407
0.0118745
0.0135616
0.0161707
0.0199943
0.0141089
0.0090699
0.00691265
0.00594497
0.00919479
0.0105866
0.0117679
0.012763
0.0137062
0.0147091
0.0136205
0.00942445
0.00701843
0.0059299
0.00986956
0.0108758
0.0115611
0.0120513
0.0124692
0.012878
0.0125385
0.00965942
0.00714404
0.00594155
0.0104155
0.0110136
0.0113816
0.0115985
0.011726
0.0118835
0.0118286
0.00983419
0.00728321
0.00597529
0.0107506
0.0110998
0.0112783
0.0113349
0.0113316
0.0113891
0.0114191
0.00997634
0.00743168
0.00602932
0.0110398
0.0112686
0.0113082
0.0112304
0.0111307
0.0111374
0.0112218
0.0101335
0.00759652
0.00610092
0.0114173
0.0115476
0.0114263
0.0112221
0.0110644
0.0110571
0.0111805
0.0103136
0.00777766
0.00618902
0.0118786
0.0118153
0.0115084
0.0112353
0.0110812
0.0110911
0.0112382
0.0105003
0.00797514
0.00629341
0.0121141
0.0118323
0.0115019
0.0112971
0.0112017
0.0112305
0.0113573
0.0106647
0.00819052
0.00641704
0.0117001
0.0118702
0.0117815
0.0116619
0.0115613
0.0115187
0.0115117
0.0107836
0.00842712
0.00656525
0.0346986
0.0475616
0.0482849
0.0297545
0.0261301
0.0265879
0.0299951
0.0398567
0.0278209
0.019714
0.0379626
0.0434105
0.0644409
0.0322643
0.0271601
0.0266352
0.0285716
0.0294611
0.0258926
0.0162232
0.0415264
0.0409275
0.0774192
0.034008
0.0280346
0.0270861
0.0283758
0.0267237
0.0249657
0.0151413
0.045255
0.0387926
0.0767989
0.0354047
0.0289662
0.0277309
0.0281126
0.0252728
0.023345
0.0150815
0.0491937
0.0371758
0.0657235
0.0371105
0.0303403
0.0287762
0.0280068
0.0248206
0.0219775
0.0150957
0.0533937
0.0359749
0.0548195
0.0393186
0.0322796
0.0303354
0.0281845
0.0249961
0.02095
0.0149809
0.0579759
0.0349403
0.047016
0.0416891
0.0346608
0.0324156
0.0286374
0.0254641
0.0201515
0.0147334
0.0630476
0.0339048
0.0417234
0.0436906
0.0372289
0.0349899
0.0294297
0.0260698
0.0195933
0.0144136
0.0685562
0.0328289
0.0380764
0.0449817
0.0396602
0.0379554
0.0307039
0.0267686
0.0192915
0.0140987
0.0742403
0.0317531
0.0354819
0.0455555
0.0416251
0.041051
0.0326376
0.0275486
0.019235
0.0138337
0.00724264
0.00744925
0.00852078
0.00904203
0.00964123
0.00976772
0.00995254
0.00963473
0.00960573
0.00808518
0.0149683
0.0105846
0.00988246
0.0102466
0.0106402
0.0110217
0.0115131
0.0117355
0.0119993
0.0117695
0.0250354
0.020496
0.012718
0.012541
0.0126433
0.0133031
0.0141935
0.0160767
0.0165157
0.0154659
0.0294178
0.0836351
0.0187735
0.0168661
0.016409
0.0174909
0.0192264
0.0274741
0.0316614
0.0157829
0.0320115
0.0560372
0.0303418
0.0231357
0.0213648
0.022481
0.0254833
0.0452365
0.0422181
0.0178693
0.0076083
0.00726844
0.00693862
0.00664879
0.00641068
0.00622296
0.00608502
0.00599638
0.00595557
0.005962
0.0106616
0.00976321
0.00893558
0.00823027
0.00761504
0.00710321
0.00671559
0.00645219
0.00629896
0.00623944
0.0129237
0.0118128
0.0107974
0.00995512
0.00913747
0.00833017
0.0076224
0.00709604
0.00676586
0.0066023
0.0130685
0.0121761
0.0114807
0.0109429
0.0103461
0.00958781
0.00871172
0.00792196
0.00737598
0.00707915
0.0133238
0.0123981
0.0116319
0.011097
0.0106566
0.0102023
0.00959493
0.0088277
0.00813584
0.00769188
)
;

boundaryField
{
    left
    {
        type            calculated;
        value           nonuniform List<scalar> 
35
(
0.0239665
0.0229625
0.022287
0.0224939
0.023774
0.0257644
0.0275126
0.0269626
0.0201469
0.00791258
0.0363356
0.0347511
0.0332021
0.0316952
0.030229
0.0288042
0.0274461
0.026191
0.0250982
0.0243531
0.0342788
0.0373756
0.0399461
0.0416626
0.0424857
0.0425185
0.0419257
0.0408619
0.0394801
0.0379327
0.00720722
0.0137288
0.0223456
0.0273743
0.0311057
)
;
    }
    right
    {
        type            calculated;
        value           nonuniform List<scalar> 
35
(
0.0115303
0.0119763
0.0144188
0.019839
0.029074
0.0394026
0.0453076
0.0470799
0.0466815
0.0455604
0.0447258
0.0446743
0.0453977
0.0465189
0.0473905
0.0471587
0.0449069
0.0400476
0.0331197
0.0260024
0.0203837
0.0166949
0.0146197
0.0137461
0.0138198
0.0150906
0.0182018
0.025854
0.0442362
0.0347253
0.0210766
0.014306
0.011075
0.00955358
0.00910902
)
;
    }
    down
    {
        type            calculated;
        value           nonuniform List<scalar> 
40
(
0.00637935
0.00678106
0.00811152
0.00865631
0.00932655
0.00933844
0.00940616
0.00898474
0.00881827
0.00725297
0.00688074
0.00663969
0.00640499
0.00620539
0.00605394
0.0059454
0.00587295
0.00583286
0.00582437
0.00585009
0.00591695
0.00602915
0.00619151
0.00641233
0.00668559
0.00704502
0.00746854
0.00798346
0.00869272
0.00911353
0.0114145
0.0184583
0.0288943
0.171245
0.184593
0.0307918
0.018342
0.0142932
0.0126814
0.0117839
)
;
    }
    up
    {
        type            calculated;
        value           nonuniform List<scalar> 
40
(
0.00662207
0.00741234
0.00931192
0.0139036
0.0210472
0.0163787
0.0121222
0.0103654
0.00949229
0.00911767
0.00599397
0.00599048
0.00601973
0.00602708
0.00608479
0.0060947
0.00618375
0.0061897
0.00631669
0.0063097
0.00646806
0.00638169
0.00630026
0.0062261
0.00616232
0.0061082
0.0060673
0.00603221
0.00601134
0.00599191
0.0067829
0.00683188
0.00761818
0.00785635
0.00785632
0.00756617
0.00761551
0.00693592
0.00699771
0.00658828
)
;
    }
    cylinder
    {
        type            calculated;
        value           nonuniform List<scalar> 
80
(
0.00687137
0.0068007
0.00682968
0.00697159
0.00731596
0.00806603
0.00977384
0.0147482
0.022159
0.02988
0.0381998
0.022922
0.0176279
0.0207524
0.0373633
0.0216944
0.0115548
0.00875268
0.00746026
0.00672551
0.00553363
0.00551013
0.00549759
0.00549964
0.00552179
0.00556944
0.0056499
0.00577608
0.00597001
0.00626702
0.00718668
0.00667985
0.00634788
0.00611996
0.00595533
0.00583354
0.00573679
0.00566315
0.00560761
0.00556526
0.00625315
0.0064356
0.00666932
0.00699313
0.00750768
0.0084221
0.0106098
0.0156677
0.0105088
0.00812929
0.00568783
0.0056508
0.00564191
0.00565616
0.0056918
0.0057442
0.00581164
0.00589323
0.00599118
0.0061096
0.00575707
0.00586683
0.00602995
0.00626372
0.0065926
0.00705337
0.00769844
0.00859629
0.00985259
0.0116335
0.0138553
0.0148204
0.0131155
0.0112724
0.00996448
0.00889433
0.00811828
0.00761659
0.00727313
0.00703068
)
;
    }
    defaultFaces
    {
        type            empty;
    }
}


// ************************************************************************* //
