/*--------------------------------*- C++ -*----------------------------------*\
| =========                 |                                                 |
| \\      /  F ield         | OpenFOAM: The Open Source CFD Toolbox           |
|  \\    /   O peration     | Version:  2406                                  |
|   \\  /    A nd           | Website:  www.openfoam.com                      |
|    \\/     M anipulation  |                                                 |
\*---------------------------------------------------------------------------*/
FoamFile
{
    version     2.0;
    format      ascii;
    arch        "LSB;label=32;scalar=64";
    class       volScalarField;
    location    "1.2";
    object      p;
}
// * * * * * * * * * * * * * * * * * * * * * * * * * * * * * * * * * * * * * //

dimensions      [0 2 -2 0 0 0 0];

internalField   nonuniform List<scalar> 
1800
(
-0.939466
-0.937272
-0.927083
-0.917813
-0.905346
-0.889396
-0.873823
-0.861786
-0.855736
-0.859476
-0.933381
-0.93506
-0.926791
-0.919115
-0.90974
-0.896423
-0.882367
-0.869774
-0.859408
-0.86225
-0.9659
-0.963659
-0.957124
-0.94944
-0.940157
-0.929081
-0.917712
-0.90741
-0.89757
-0.902025
-1.00009
-0.995796
-0.98839
-0.9807
-0.971669
-0.961143
-0.949984
-0.939272
-0.928837
-0.926799
-1.03884
-1.03044
-1.02285
-1.0138
-1.00298
-0.990608
-0.97743
-0.96436
-0.951948
-0.944282
-1.08489
-1.07001
-1.06054
-1.04879
-1.03402
-1.01685
-0.998412
-0.979703
-0.961595
-0.945599
-1.13436
-1.11605
-1.10367
-1.08701
-1.06533
-1.04031
-1.0138
-0.987073
-0.960916
-0.936105
-1.19025
-1.16863
-1.15143
-1.12672
-1.0948
-1.05917
-1.02249
-0.986121
-0.950829
-0.917118
-1.24846
-1.22291
-1.19819
-1.1621
-1.11736
-1.0695
-1.02163
-0.975099
-0.930581
-0.888326
-1.29999
-1.26988
-1.23439
-1.18433
-1.12574
-1.06546
-1.00669
-0.950526
-0.897466
-0.846757
-1.14402
-1.14705
-1.14577
-1.14342
-1.14066
-1.13833
-1.13686
-1.13614
-1.13644
-1.13866
-1.17931
-1.1797
-1.17812
-1.17681
-1.17589
-1.1762
-1.17856
-1.18277
-1.18859
-1.19687
-1.20549
-1.2027
-1.20089
-1.2008
-1.20203
-1.20451
-1.20942
-1.21797
-1.22988
-1.24471
-1.21644
-1.21024
-1.20839
-1.20987
-1.21444
-1.22188
-1.23225
-1.24554
-1.26098
-1.27927
-1.20861
-1.19831
-1.19605
-1.19859
-1.20598
-1.21846
-1.23543
-1.25535
-1.27663
-1.29982
-1.18033
-1.16608
-1.16251
-1.1639
-1.17025
-1.18204
-1.19896
-1.22035
-1.24512
-1.27254
-1.13546
-1.11852
-1.11307
-1.11154
-1.11429
-1.12231
-1.1356
-1.15386
-1.17638
-1.2023
-1.08278
-1.06406
-1.0568
-1.05121
-1.04839
-1.05005
-1.05666
-1.06827
-1.08456
-1.10494
-1.03006
-1.01213
-1.00337
-0.993413
-0.984157
-0.977713
-0.975078
-0.977097
-0.984262
-0.997456
-0.974008
-0.970157
-0.96009
-0.947602
-0.933756
-0.920097
-0.9086
-0.901554
-0.900508
-0.908003
-1.15591
-1.12972
-0.960522
-0.685834
-0.450053
-0.260867
-0.137607
-0.065567
-0.0239111
-0.00313972
-1.24407
-1.26327
-1.06848
-0.746285
-0.469614
-0.257318
-0.12594
-0.0542374
-0.0157676
-0.000288557
-1.3324
-1.41635
-1.19811
-0.818939
-0.493801
-0.253993
-0.113003
-0.0415986
-0.00665038
0.00311903
-1.41094
-1.57921
-1.34478
-0.902206
-0.522407
-0.251192
-0.0990298
-0.0277734
0.00337371
0.00713676
-1.46934
-1.73806
-1.50201
-0.99416
-0.555839
-0.250265
-0.0853004
-0.0136028
0.013843
0.0116163
-1.48764
-1.87604
-1.66103
-1.09452
-0.595422
-0.253351
-0.0740389
-0.000725188
0.0237644
0.0160969
-1.45104
-1.9828
-1.81188
-1.20145
-0.642578
-0.262587
-0.0677133
0.00880619
0.0317341
0.0198204
-1.36197
-2.04955
-1.94507
-1.31082
-0.696977
-0.278994
-0.0680304
0.013179
0.0362653
0.0219549
-1.22816
-2.07074
-2.04909
-1.41515
-0.756499
-0.302356
-0.0753174
0.0115212
0.0362644
0.0219425
-1.07042
-2.04496
-2.1184
-1.5097
-0.818208
-0.331811
-0.0890371
0.00407719
0.0315809
0.0197432
-0.924672
-2.03868
-2.17195
-1.55805
-0.848997
-0.352072
-0.105661
-0.0099565
0.0206509
0.0145836
-0.881003
-2.00638
-2.11705
-1.50109
-0.834417
-0.372298
-0.136734
-0.0368733
0.00145864
0.00591415
-0.894958
-1.89364
-1.98138
-1.41141
-0.819096
-0.40633
-0.182003
-0.0715247
-0.0192423
-0.00139673
-0.891714
-1.68852
-1.78942
-1.31597
-0.811736
-0.448671
-0.233583
-0.110871
-0.0415629
-0.0082671
-0.854814
-1.46664
-1.58859
-1.23128
-0.821945
-0.504972
-0.289757
-0.150009
-0.0632002
-0.0154909
-0.795388
-1.26136
-1.40475
-1.16522
-0.848389
-0.570189
-0.350636
-0.19167
-0.0862723
-0.0232841
-0.713521
-1.07681
-1.25023
-1.12799
-0.896052
-0.640384
-0.405209
-0.224924
-0.102183
-0.027299
-0.619523
-0.928724
-1.13247
-1.11481
-0.941503
-0.690862
-0.441237
-0.245957
-0.111602
-0.0290332
-0.534592
-0.851398
-1.06357
-1.09094
-0.957501
-0.714603
-0.458839
-0.257353
-0.117283
-0.0304418
-0.484656
-0.831024
-1.06814
-1.09632
-0.950847
-0.706003
-0.457282
-0.25953
-0.119408
-0.0314069
-0.750823
-0.807599
-0.851358
-0.886424
-0.912168
-0.925969
-0.918252
-0.89073
-0.856446
-0.874348
-0.625201
-0.693711
-0.749934
-0.798719
-0.837806
-0.866939
-0.88291
-0.888794
-0.894361
-0.900649
-0.514197
-0.5857
-0.647676
-0.702446
-0.751475
-0.792002
-0.828722
-0.856353
-0.876144
-0.891999
-0.414728
-0.4852
-0.549751
-0.607281
-0.661728
-0.709957
-0.754549
-0.793488
-0.821926
-0.852259
-0.324855
-0.393666
-0.458134
-0.517024
-0.572161
-0.623971
-0.669302
-0.714108
-0.749876
-0.791877
-0.245373
-0.312491
-0.374924
-0.432974
-0.48645
-0.537409
-0.582603
-0.628577
-0.668825
-0.714947
-0.178198
-0.243735
-0.303011
-0.358805
-0.409457
-0.457186
-0.501479
-0.544613
-0.585338
-0.627966
-0.124354
-0.188125
-0.244526
-0.298473
-0.345245
-0.389934
-0.430197
-0.467818
-0.504157
-0.540387
-0.0911956
-0.15235
-0.207541
-0.259131
-0.30304
-0.344456
-0.379108
-0.409646
-0.437842
-0.463666
-0.0772174
-0.137809
-0.19543
-0.246017
-0.292457
-0.331696
-0.365964
-0.393522
-0.416393
-0.433294
0.559784
0.494423
0.421218
0.345807
0.267188
0.183329
0.0950743
0.00776332
-0.0701843
-0.119798
0.382965
0.315368
0.241466
0.163096
0.0788377
-0.0126476
-0.109495
-0.205217
-0.290214
-0.345782
0.184015
0.116507
0.0434313
-0.0354976
-0.121843
-0.216598
-0.317444
-0.417676
-0.506825
-0.566284
-0.00754204
-0.0757386
-0.149841
-0.230521
-0.319038
-0.416128
-0.519281
-0.621979
-0.713838
-0.773336
-0.181217
-0.251506
-0.327844
-0.410872
-0.501665
-0.600362
-0.704414
-0.808691
-0.899173
-0.95816
-0.335853
-0.408611
-0.487106
-0.571726
-0.663765
-0.762599
-0.865498
-0.96715
-1.05538
-1.11214
-0.474319
-0.547991
-0.626105
-0.709699
-0.800187
-0.896925
-0.995963
-1.09317
-1.17605
-1.22817
-0.595846
-0.666033
-0.740865
-0.822368
-0.909985
-1.00049
-1.09262
-1.18276
-1.25638
-1.30274
-0.69582
-0.764201
-0.836864
-0.912219
-0.991259
-1.07289
-1.1556
-1.23448
-1.29594
-1.33653
-0.783209
-0.84453
-0.908353
-0.973763
-1.04169
-1.11298
-1.18459
-1.24954
-1.29802
-1.33311
1.5516
1.55752
1.56346
1.56868
1.57281
1.57564
1.57701
1.5771
1.57837
1.59224
1.50733
1.51087
1.51388
1.51574
1.51618
1.51496
1.51198
1.50791
1.50577
1.51666
1.44472
1.4451
1.44442
1.4422
1.4382
1.43212
1.42389
1.41457
1.40775
1.41463
1.36549
1.36213
1.35675
1.3492
1.33945
1.32716
1.3123
1.29634
1.28341
1.28486
1.27023
1.26258
1.2519
1.2383
1.22194
1.20239
1.17969
1.15578
1.13545
1.13076
1.16055
1.14842
1.13184
1.11136
1.08737
1.05944
1.0277
0.994684
0.965831
0.954664
1.03795
1.02072
0.997873
0.970292
0.938485
0.901908
0.860757
0.818031
0.779694
0.761952
0.910451
0.887473
0.856436
0.819479
0.777821
0.731053
0.679559
0.626726
0.578646
0.552962
0.781207
0.75239
0.71294
0.666098
0.6136
0.555095
0.491364
0.42668
0.36798
0.33378
0.66299
0.619422
0.564813
0.504593
0.440051
0.369874
0.294545
0.218783
0.150291
0.108068
1.54289
1.51289
1.50903
1.48834
1.47447
1.45651
1.44969
1.44943
1.46861
1.52626
1.54137
1.51032
1.50738
1.48611
1.47136
1.45129
1.4436
1.4396
1.45293
1.50094
1.54048
1.50797
1.50594
1.48369
1.46775
1.44518
1.43651
1.42715
1.43245
1.46518
1.54016
1.50587
1.50474
1.48108
1.46367
1.43827
1.42843
1.41202
1.40765
1.41862
1.54032
1.50408
1.5038
1.47827
1.45919
1.43059
1.41922
1.39416
1.37906
1.36101
1.54076
1.50267
1.50311
1.47523
1.4544
1.42214
1.40879
1.37361
1.34714
1.29125
1.54141
1.50172
1.50265
1.47198
1.44923
1.41281
1.3972
1.3506
1.31261
1.20848
1.54226
1.5013
1.50238
1.46846
1.44344
1.4022
1.38447
1.32548
1.2752
1.11453
1.54321
1.50162
1.50236
1.46461
1.43659
1.38983
1.37054
1.29864
1.23398
1.00729
1.54408
1.50284
1.50298
1.46059
1.42846
1.37604
1.35565
1.27124
1.19203
0.895964
1.54589
1.50381
1.50384
1.45686
1.42064
1.3617
1.33851
1.24166
1.1419
0.795255
1.55337
1.50674
1.50969
1.45581
1.41498
1.34866
1.32116
1.21807
1.09879
0.808501
1.56092
1.50982
1.51676
1.4571
1.41192
1.33978
1.30441
1.19717
1.05775
0.815057
1.56839
1.51334
1.52331
1.4605
1.40959
1.33498
1.28692
1.17943
1.02074
0.809519
1.57701
1.51604
1.5264
1.46179
1.40532
1.33222
1.26771
1.16438
0.99024
0.797227
1.587
1.51802
1.52423
1.45529
1.39928
1.32878
1.24746
1.1533
0.968332
0.783735
1.59818
1.51852
1.51522
1.44021
1.39175
1.32396
1.22814
1.15015
0.955104
0.771661
1.61288
1.52118
1.50417
1.42506
1.38319
1.31943
1.21059
1.15649
0.948452
0.764453
1.6285
1.52681
1.49779
1.41506
1.37571
1.3163
1.19607
1.164
0.94477
0.765332
1.6734
1.52828
1.49432
1.41142
1.37606
1.31408
1.19852
1.17316
0.94404
0.782399
0.553574
0.40358
0.223693
0.0500721
-0.105874
-0.245449
-0.372446
-0.486928
-0.586991
-0.676187
0.518614
0.39289
0.248686
0.106375
-0.0237488
-0.14321
-0.254814
-0.360303
-0.457477
-0.545924
0.51428
0.397325
0.274564
0.15507
0.0437535
-0.0618077
-0.162554
-0.260281
-0.351063
-0.436505
0.521946
0.413597
0.304858
0.201794
0.105128
0.0113945
-0.0799185
-0.17037
-0.256406
-0.338527
0.537196
0.438317
0.339742
0.247928
0.161755
0.0773765
-0.00643408
-0.0902924
-0.172186
-0.250668
0.555572
0.465791
0.375663
0.291744
0.212707
0.134885
0.0567741
-0.0217855
-0.0991408
-0.174156
0.573326
0.49369
0.411777
0.333664
0.258782
0.184887
0.110378
0.0354634
-0.0379151
-0.109997
0.591465
0.521119
0.4469
0.373273
0.300403
0.228403
0.156177
0.0848843
0.01286
-0.0574379
0.605028
0.539305
0.469576
0.398192
0.325571
0.252989
0.180389
0.110807
0.041033
-0.0252468
0.625548
0.560697
0.492093
0.420137
0.346393
0.272855
0.199947
0.128296
0.0570628
-0.0109757
-1.03112
-0.993772
-0.939474
-0.877573
-0.816038
-0.75945
-0.709438
-0.666219
-0.630605
-0.603536
-1.13316
-1.09807
-1.04717
-0.986178
-0.925997
-0.870464
-0.821226
-0.778432
-0.742684
-0.715655
-1.19898
-1.1668
-1.12094
-1.06353
-1.00515
-0.950446
-0.901485
-0.859125
-0.82318
-0.795049
-1.23176
-1.20293
-1.16342
-1.11189
-1.05648
-1.00312
-0.954824
-0.912662
-0.876414
-0.8469
-1.23791
-1.21245
-1.18027
-1.13623
-1.08583
-1.03515
-0.987955
-0.946079
-0.909705
-0.87923
-1.22567
-1.20352
-1.17834
-1.1423
-1.09854
-1.05225
-1.00726
-0.966241
-0.930416
-0.900315
-1.20349
-1.18472
-1.16532
-1.13672
-1.10012
-1.05937
-1.01782
-0.978337
-0.943181
-0.913977
-1.17819
-1.16278
-1.1479
-1.12546
-1.09527
-1.05976
-1.02174
-0.983867
-0.948945
-0.919494
-1.1541
-1.1421
-1.13088
-1.11344
-1.08863
-1.05759
-1.02268
-0.986293
-0.951519
-0.922942
-1.13195
-1.12368
-1.11551
-1.10198
-1.08135
-1.05367
-1.02046
-0.983612
-0.945119
-0.911295
-1.10924
-1.10504
-1.0994
-1.08874
-1.0715
-1.04735
-1.01722
-0.983057
-0.946156
-0.905436
-1.08358
-1.08322
-1.07944
-1.07043
-1.05527
-1.03393
-1.00707
-0.97617
-0.942014
-0.90135
-1.05729
-1.05976
-1.05708
-1.04909
-1.03487
-1.015
-0.990944
-0.963664
-0.932981
-0.895832
-1.03719
-1.04124
-1.03956
-1.03313
-1.02069
-1.00186
-0.979045
-0.955909
-0.930058
-0.898227
-1.02405
-1.02958
-1.02889
-1.02474
-1.01673
-1.00267
-0.979912
-0.957555
-0.938041
-0.910612
-1.01761
-1.02414
-1.02316
-1.01883
-1.01223
-1.00268
-0.984365
-0.969314
-0.955763
-0.935472
-1.02416
-1.03097
-1.03029
-1.02686
-1.02179
-1.01387
-0.999644
-0.982727
-0.968746
-0.954248
-1.04338
-1.05002
-1.04979
-1.04707
-1.04243
-1.03541
-1.02507
-1.01186
-0.998556
-0.98614
-1.07182
-1.07786
-1.07749
-1.07473
-1.07017
-1.06407
-1.05642
-1.04727
-1.03772
-1.02916
-1.10663
-1.11153
-1.11073
-1.10795
-1.10392
-1.09935
-1.09455
-1.08948
-1.0846
-1.08101
-0.808611
-0.672176
-0.619674
-0.542154
-0.444744
-0.331552
-0.228353
-0.142277
-0.0759274
-0.021166
-0.805279
-0.674102
-0.622676
-0.538104
-0.434476
-0.322016
-0.22016
-0.136406
-0.0723618
-0.0199513
-0.809888
-0.682895
-0.630202
-0.536073
-0.42667
-0.312923
-0.211746
-0.130056
-0.0682613
-0.0183985
-0.824148
-0.699548
-0.643045
-0.536549
-0.421315
-0.304449
-0.203248
-0.123396
-0.0638366
-0.0166967
-0.845832
-0.724255
-0.661377
-0.539941
-0.417759
-0.296469
-0.194645
-0.116451
-0.059157
-0.0149466
-0.872431
-0.75774
-0.685637
-0.54695
-0.416025
-0.288984
-0.185927
-0.109222
-0.0542538
-0.0131875
-0.905699
-0.801225
-0.716978
-0.558629
-0.416414
-0.282027
-0.177042
-0.101666
-0.0491093
-0.0114207
-0.950152
-0.857476
-0.756953
-0.57642
-0.419357
-0.275649
-0.167892
-0.0936728
-0.043638
-0.00960897
-1.00679
-0.928773
-0.8087
-0.60209
-0.425438
-0.269935
-0.158359
-0.0850981
-0.0377096
-0.00768529
-1.07569
-1.01862
-0.875397
-0.637659
-0.435417
-0.264994
-0.148318
-0.0757852
-0.0311807
-0.00556364
-0.799868
-0.682958
-0.624943
-0.542399
-0.437308
-0.326223
-0.228606
-0.143613
-0.0763403
-0.0212828
-0.792085
-0.676349
-0.620502
-0.543022
-0.438662
-0.328986
-0.230675
-0.145171
-0.0772939
-0.0216473
-0.788932
-0.670835
-0.617057
-0.54241
-0.440632
-0.330446
-0.231276
-0.145357
-0.0774297
-0.0215624
-0.787492
-0.665884
-0.613388
-0.540475
-0.443483
-0.332865
-0.232342
-0.145834
-0.0779034
-0.0216874
-0.795542
-0.663717
-0.611542
-0.537824
-0.446164
-0.335102
-0.232669
-0.145672
-0.0779613
-0.0218147
-0.57742
-0.684191
-0.760678
-0.810183
-0.838081
-0.853782
-0.858776
-0.859443
-0.8537
-0.841229
-0.575251
-0.682601
-0.757493
-0.804368
-0.829021
-0.841878
-0.845416
-0.844756
-0.841735
-0.828205
-0.577374
-0.685212
-0.759855
-0.80603
-0.830241
-0.843443
-0.848451
-0.848275
-0.847245
-0.832958
-0.581969
-0.691382
-0.766775
-0.813459
-0.838952
-0.853846
-0.861479
-0.86222
-0.861828
-0.847287
-0.589681
-0.701232
-0.778249
-0.826643
-0.854968
-0.872889
-0.883973
-0.886817
-0.885898
-0.873667
1.14916
1.1409
1.12854
1.11504
1.10117
1.08635
1.0706
1.05553
1.04451
1.04526
1.23858
1.23639
1.23079
1.22369
1.21569
1.20643
1.196
1.18583
1.17913
1.18354
1.32245
1.32339
1.32193
1.31931
1.31593
1.31156
1.30618
1.30069
1.29783
1.30544
1.39788
1.40139
1.40349
1.40482
1.40554
1.40536
1.40408
1.4021
1.40197
1.41245
1.46278
1.46843
1.47336
1.47778
1.48163
1.48464
1.48643
1.487
1.48865
1.50121
1.51577
1.52314
1.53037
1.53728
1.54367
1.54924
1.55351
1.55595
1.55848
1.5717
1.55523
1.56378
1.57265
1.58136
1.58961
1.59715
1.60344
1.60759
1.6108
1.62229
1.57962
1.58868
1.5983
1.60784
1.61694
1.62541
1.63289
1.63848
1.64231
1.65135
1.58756
1.5963
1.60558
1.61464
1.62308
1.63069
1.63716
1.64188
1.64603
1.66011
1.5784
1.5861
1.59413
1.6017
1.6084
1.61404
1.61836
1.62111
1.6242
1.6395
-0.459096
-0.487915
-0.524473
-0.568068
-0.618097
-0.67473
-0.737306
-0.799697
-0.855163
-0.893193
-0.286058
-0.317609
-0.355652
-0.400094
-0.451002
-0.507889
-0.568777
-0.630196
-0.685821
-0.722936
-0.0933255
-0.127802
-0.167472
-0.212489
-0.263089
-0.319048
-0.378583
-0.43802
-0.49109
-0.527749
0.107361
0.0706579
0.0298091
-0.0152923
-0.0649214
-0.119045
-0.17614
-0.232358
-0.282493
-0.314216
0.303477
0.266117
0.225556
0.181841
0.134604
0.083685
0.030344
-0.0217517
-0.0676222
-0.0939135
0.485554
0.449732
0.411567
0.371136
0.327932
0.281631
0.233276
0.186403
0.145954
0.124986
0.649493
0.617463
0.583818
0.548429
0.510629
0.470049
0.427645
0.386816
0.352446
0.336358
0.797474
0.770421
0.742314
0.712684
0.680796
0.646378
0.610396
0.576056
0.548037
0.536141
0.936345
0.913545
0.889642
0.86464
0.837951
0.809328
0.779625
0.751638
0.729551
0.72187
1.0637
1.04434
1.02264
1.001
0.979128
0.956407
0.933185
0.911534
0.89505
0.891592
1.61579
1.54329
1.52681
1.48873
1.47211
1.45538
1.43499
1.41075
1.35857
1.27193
1.60154
1.54044
1.52803
1.49155
1.47587
1.46017
1.44276
1.42178
1.38523
1.3321
1.58932
1.53726
1.52727
1.49326
1.47849
1.46372
1.44928
1.4338
1.41259
1.38898
1.57897
1.53405
1.52532
1.49441
1.48033
1.46634
1.45464
1.44468
1.43614
1.43737
1.57025
1.53093
1.52282
1.49502
1.48143
1.46796
1.45853
1.45323
1.45518
1.477
1.56297
1.5278
1.52018
1.49507
1.48183
1.46854
1.46083
1.45925
1.46975
1.50793
1.55696
1.52466
1.51761
1.49456
1.48155
1.46809
1.46154
1.46262
1.47966
1.5301
1.55206
1.52155
1.51518
1.49356
1.48064
1.46663
1.4607
1.4633
1.48465
1.54327
1.54815
1.51853
1.51294
1.49214
1.47913
1.4642
1.45837
1.4613
1.48453
1.54718
1.54513
1.51564
1.51089
1.49037
1.47707
1.46083
1.45466
1.45667
1.47919
1.54159
1.73802
1.55356
1.51477
1.46762
1.45189
1.43303
1.4043
1.36407
1.28563
1.18599
1.69901
1.55702
1.52212
1.4726
1.45464
1.4349
1.40532
1.36498
1.28445
1.17509
1.67482
1.55681
1.52449
1.47585
1.45723
1.43791
1.40895
1.37017
1.29198
1.17862
1.65197
1.55338
1.52464
1.48044
1.46175
1.44304
1.41583
1.38028
1.30442
1.19023
1.63256
1.54735
1.52451
1.48453
1.46674
1.44891
1.42455
1.39195
1.32248
1.20939
0.975401
0.884746
0.771531
0.632757
0.470825
0.28995
0.0979222
-0.0946067
-0.276858
-0.439998
0.96629
0.876828
0.76577
0.630594
0.473185
0.296075
0.105586
-0.0877418
-0.272213
-0.437464
0.978515
0.887033
0.773877
0.638383
0.481586
0.304708
0.113371
-0.082029
-0.269217
-0.437155
1.00364
0.903953
0.785147
0.648094
0.490751
0.312937
0.119936
-0.0780494
-0.26837
-0.439373
1.04501
0.92937
0.799279
0.657703
0.498338
0.31905
0.124257
-0.0763519
-0.27001
-0.444393
)
;

boundaryField
{
    left
    {
        type            zeroGradient;
    }
    right
    {
        type            fixedValue;
        value           uniform 0;
    }
    down
    {
        type            zeroGradient;
    }
    up
    {
        type            zeroGradient;
    }
    cylinder
    {
        type            zeroGradient;
    }
    defaultFaces
    {
        type            empty;
    }
}


// ************************************************************************* //
