/*--------------------------------*- C++ -*----------------------------------*\
| =========                 |                                                 |
| \\      /  F ield         | OpenFOAM: The Open Source CFD Toolbox           |
|  \\    /   O peration     | Version:  2406                                  |
|   \\  /    A nd           | Website:  www.openfoam.com                      |
|    \\/     M anipulation  |                                                 |
\*---------------------------------------------------------------------------*/
FoamFile
{
    version     2.0;
    format      ascii;
    arch        "LSB;label=32;scalar=64";
    class       surfaceScalarField;
    location    "1.2";
    object      phi;
}
// * * * * * * * * * * * * * * * * * * * * * * * * * * * * * * * * * * * * * //

dimensions      [0 3 -1 0 0 0 0];

oriented        oriented;

internalField   nonuniform List<scalar> 
3485
(
-0.000483151
0.000161528
0.000321623
-0.000785224
0.000412139
-0.000110066
0.000560221
0.00062109
-0.00196653
0.00461232
0.000389313
-0.00444141
0.0119716
-0.00143907
-0.00592016
0.0228026
-0.00514524
-0.00568586
0.0371239
-0.010523
-0.00379828
0.0549599
-0.0172766
-0.000559443
0.0761075
-0.0250964
0.00394876
-0.0298573
0.00861573
0.0973491
-0.000840109
0.00100164
-0.00141184
0.000983874
-0.000847136
5.63817e-05
0.00268283
-0.00314065
0.0105313
-0.00928752
0.0228763
-0.0174903
0.0393109
-0.0269576
0.0591498
-0.0371155
0.0817035
-0.0476501
-0.0541712
0.106017
-7.7863e-05
0.0010795
0.000220938
0.000685073
0.00295312
-0.0026758
0.0103266
-0.0105141
0.0227798
-0.0217408
0.0399492
-0.0346596
0.0609786
-0.047987
0.0847837
-0.0609206
0.110505
-0.0733711
-0.081384
0.137717
0.00051738
0.00056212
0.00275057
-0.00154812
0.0097216
-0.00964683
0.0223955
-0.023188
0.0402483
-0.0395936
0.0621083
-0.0565196
0.0865661
-0.0724448
0.112319
-0.0866734
0.138315
-0.0993671
-0.107975
0.164906
0.000788373
-0.000226253
0.00600856
-0.0067683
0.0177456
-0.0213839
0.0356038
-0.0410461
0.057952
-0.0619418
0.0828074
-0.0813751
0.108453
-0.0980904
0.133721
-0.111941
0.157767
-0.123413
-0.131986
0.181778
0.00170302
-0.00192927
0.0103226
-0.0153878
0.0264468
-0.0375082
0.0482909
-0.0628902
0.0730472
-0.086698
0.0982426
-0.106571
0.122324
-0.122172
0.144598
-0.134215
0.164879
-0.143694
-0.151235
0.184127
0.00313847
-0.00506774
0.0150834
-0.0273328
0.0348279
-0.0572527
0.0587737
-0.086836
0.083286
-0.11121
0.106119
-0.129404
0.12642
-0.142473
0.144184
-0.151979
0.15976
-0.15927
-0.165208
0.173733
0.00467809
-0.00974583
0.0196578
-0.0423125
0.0414962
-0.0790911
0.0649318
-0.110272
0.086437
-0.132715
0.104734
-0.147701
0.119933
-0.157671
0.132642
-0.164688
0.143459
-0.170087
-0.174633
0.152885
0.00628263
-0.0160285
0.0234328
-0.0594627
0.0450187
-0.100677
0.0652699
-0.130523
0.0818503
-0.149296
0.0948112
-0.160662
0.105055
-0.167915
0.113443
-0.173075
0.120534
-0.177179
-0.180679
0.126579
0.00775634
-0.0237848
0.0254227
-0.0771291
0.0442896
-0.119544
0.0596862
-0.145919
0.0710159
-0.160625
0.0793407
-0.168987
0.0857804
-0.174355
0.0910207
-0.178316
0.0953832
-0.181541
0.0989792
-0.184274
-0.00131625
0.0185164
-0.0172002
-0.00458095
0.0386193
-0.0353546
-0.00877962
0.0479406
-0.043742
-0.0133315
0.0521523
-0.0476004
-0.0180095
0.0540325
-0.0493544
-0.0226735
0.0545908
-0.0499269
-0.0272034
0.0542664
-0.0497365
-0.0315376
0.0533266
-0.0489924
-0.0356756
0.0519286
-0.0477906
0.0502334
-0.039675
-0.046234
-0.000222227
0.0187387
-0.00201853
0.0404156
-0.00489668
0.0508188
-0.00826569
0.0555214
-0.0118875
0.0576543
-0.0156828
0.0583861
-0.0195709
0.0581546
-0.02343
0.0571857
-0.0271735
0.0556721
0.0538735
-0.0308136
0.00106228
0.0176764
0.00119173
0.0402862
0.000102665
0.0519078
-0.00162499
0.057249
-0.00357326
0.0596025
-0.00563427
0.0604471
-0.00783807
0.0603584
-0.0102067
0.0595543
-0.0127222
0.0581876
0.0564297
-0.0152784
0.00243506
0.0152413
0.00505617
0.0376651
0.00657608
0.0503879
0.00726055
0.0565645
0.00757462
0.0592885
0.0077471
0.0602746
0.00780797
0.0602975
0.00766525
0.059697
0.0072466
0.0586063
0.0571138
0.00656245
0.00383092
0.0114104
0.00949123
0.0320047
0.0144597
0.0454195
0.0183969
0.0526273
0.0215742
0.0561112
0.0242561
0.0575927
0.0266244
0.0579293
0.028827
0.0574944
0.031005
0.0564282
0.0547891
0.0333298
0.00441269
0.00699771
0.0124197
0.0239977
0.0206367
0.0372025
0.027987
0.045277
0.0344614
0.0496367
0.0403238
0.0517303
0.0458217
0.0524314
0.0511404
0.0521757
0.0564534
0.0511152
0.0492078
0.0620347
0.00388483
0.00311288
0.0127126
0.01517
0.0230672
0.0268479
0.0332852
0.035059
0.0429272
0.0399948
0.0520695
0.0425879
0.0609186
0.0435823
0.0696629
0.0434315
0.0784804
0.0422977
0.039858
0.0878301
0.00249136
0.000621522
0.0104149
0.00724645
0.0211084
0.0161544
0.0327881
0.0233792
0.0446497
0.0281332
0.0564852
0.0307524
0.0683455
0.031722
0.0803192
0.0314578
0.0924555
0.0301614
0.0267867
0.105527
0.0010958
-0.000474275
0.00635439
0.00198785
0.0152655
0.00724331
0.0262414
0.0124034
0.038368
0.0160066
0.0513227
0.0177977
0.0650541
0.0179905
0.0795714
0.0169405
0.0948933
0.0148395
0.0100347
0.111645
-0.000152652
0.00172514
0.00700191
0.0149639
0.0250503
0.0371622
0.0513544
0.0677354
0.0865237
0.105174
-0.0537427
0.34699
-0.332922
-0.0380652
0.115852
-0.13153
-0.00609279
-0.0887066
0.0567341
0.0352655
-0.229074
0.187716
0.075542
-0.280964
0.240687
0.106919
-0.270486
0.239109
0.12869
-0.230461
0.20869
0.142107
-0.178139
0.164723
0.150609
-0.135708
0.127206
-0.0700542
0.0670807
-0.053204
0.36938
-0.0476244
0.110273
-0.0153382
-0.120993
0.0294162
-0.273828
0.0727653
-0.324313
0.106277
-0.303998
0.129528
-0.253711
0.143781
-0.192393
0.152975
-0.144902
-0.0733979
-0.0439871
0.398089
-0.0481375
0.114423
-0.0160387
-0.153092
0.0304376
-0.320305
0.0747586
-0.368634
0.108444
-0.337684
0.131811
-0.277078
0.146162
-0.206743
0.155748
-0.154488
-0.0771437
-0.0232032
0.427855
-0.0351053
0.126325
-0.00420311
-0.183994
0.0420638
-0.366572
0.0852306
-0.411801
0.116481
-0.368934
0.137625
-0.298222
0.150552
-0.21967
0.159716
-0.163653
-0.0811272
0.00593299
0.455251
-0.00930893
0.141567
0.0180113
-0.211314
0.0642126
-0.412773
0.10597
-0.453558
0.13331
-0.396274
0.149678
-0.31459
0.158947
-0.228939
0.166184
-0.17089
-0.0848529
0.0432439
0.474042
0.0240464
0.160765
0.0457636
-0.233031
0.0906125
-0.457622
0.133371
-0.496316
0.158874
-0.421778
0.169908
-0.325624
0.173632
-0.232663
0.176976
-0.174234
-0.0874469
0.0841509
0.477721
0.0614823
0.183433
0.0737966
-0.245346
0.114637
-0.498462
0.159878
-0.541557
0.188143
-0.450043
0.197021
-0.334503
0.195646
-0.231287
0.193811
-0.172399
-0.087996
0.122776
0.460472
0.10034
0.20587
0.103551
-0.248557
0.137629
-0.53254
0.182102
-0.58603
0.214738
-0.482679
0.226096
-0.345861
0.223016
-0.228207
0.216856
-0.16624
-0.0863514
0.156192
0.415925
0.13791
0.224152
0.137084
-0.247731
0.164601
-0.560057
0.20341
-0.624838
0.236685
-0.515954
0.252095
-0.361271
0.251206
-0.227318
0.243655
-0.158689
-0.0836394
0.176227
0.344872
0.171853
0.228526
0.171352
-0.24723
0.194638
-0.583342
0.227234
-0.657434
0.256283
-0.545003
0.273179
-0.378167
0.275821
-0.22996
0.27005
-0.152918
-0.0817825
0.307977
0.249273
-0.212379
0.41727
0.119233
0.513772
-0.343731
0.566584
-0.636154
0.568383
-0.659234
0.546006
-0.522626
0.520962
-0.353122
0.496861
-0.20586
0.471632
-0.127688
-0.0674823
0.474102
0.207188
-0.432017
0.602283
-0.00894733
0.689967
-0.431416
0.709181
-0.655368
0.678702
-0.628754
0.625616
-0.469541
0.575722
-0.303228
0.540037
-0.170175
0.512859
-0.10051
-0.0531986
0.676071
0.159813
-0.628695
0.770855
-0.103732
0.806578
-0.467138
0.781891
-0.630682
0.729806
-0.576669
0.669293
-0.409028
0.612464
-0.246399
0.570239
-0.12795
0.53963
-0.0699017
-0.0380372
0.822621
0.0931303
-0.755938
0.881672
-0.162783
0.885086
-0.470552
0.837904
-0.5835
0.762965
-0.501731
0.685612
-0.331675
0.621698
-0.182485
0.577749
-0.0840003
0.546761
-0.0389137
-0.0231
0.9018
0.0236288
-0.832299
0.941638
-0.20262
0.930133
-0.459047
0.870404
-0.52377
0.782876
-0.414202
0.693841
-0.24264
0.621602
-0.110246
0.573942
-0.0363398
0.542943
-0.00791499
-0.00875699
0.939201
-0.0390092
-0.876563
0.973338
-0.236757
0.946148
-0.431858
0.858292
-0.435914
0.747898
-0.303808
0.653851
-0.148594
0.588253
-0.044647
0.549005
0.00290793
0.52522
0.0158701
0.00275295
0.94872
-0.0934283
-0.894301
0.967002
-0.255039
0.906062
-0.370918
0.78937
-0.319222
0.667066
-0.181504
0.576429
-0.0579569
0.52296
0.00882237
0.496567
0.0293
0.483799
0.028639
0.00942228
0.906344
-0.128007
-0.871766
0.876415
-0.22511
0.756105
-0.250608
0.606543
-0.16966
0.49105
-0.0660117
0.429396
0.00369785
0.405405
0.032813
0.400064
0.0346405
0.401279
0.0274244
0.00992532
0.717254
-0.106328
-0.738933
0.604021
-0.111876
0.432686
-0.0792732
0.297401
-0.0343744
0.235434
-0.00404448
0.225405
0.0137269
0.237135
0.0210829
0.252556
0.019219
0.265658
0.0143229
0.00541277
0.245769
-0.352098
0.133893
0.0546198
0.0202455
0.016201
0.0299279
0.0510108
0.0702298
0.0845527
0.523459
0.0943693
-0.518849
0.527732
0.122307
0.530936
0.14968
0.528322
0.176347
0.516321
0.196129
0.486243
0.211856
0.4356
0.215548
0.361139
0.212179
0.271236
0.19592
0.156206
0.540964
0.0840845
-0.530679
0.551232
0.112039
0.563287
0.137625
0.573694
0.16594
0.58073
0.189093
0.581666
0.21092
0.568089
0.229125
0.547801
0.232467
0.495282
0.248439
0.219472
0.560832
0.0721999
-0.548948
0.573934
0.0989371
0.589279
0.12228
0.606812
0.148407
0.622782
0.173122
0.640783
0.19292
0.650686
0.219221
0.657848
0.225305
0.652725
0.253562
0.243501
0.581031
0.0604425
-0.569274
0.595741
0.0842276
0.612742
0.105279
0.63347
0.127679
0.655323
0.151269
0.67959
0.168653
0.703797
0.195014
0.724718
0.204384
0.745997
0.232284
0.233559
0.593345
0.048676
-0.581579
0.609281
0.0682912
0.628167
0.0863928
0.650987
0.104859
0.677161
0.125095
0.705272
0.140541
0.737565
0.162722
0.767882
0.174066
0.802878
0.197288
0.204139
0.593871
0.0363678
-0.581562
0.610528
0.0516337
0.63136
0.0655609
0.656001
0.0802179
0.685287
0.0958092
0.717138
0.10869
0.754255
0.125605
0.791881
0.13644
0.835211
0.153958
0.162786
0.581472
0.023518
-0.568623
0.598362
0.0347445
0.620586
0.0433362
0.64635
0.0544543
0.677871
0.0642885
0.712456
0.0741048
0.752996
0.0850661
0.795696
0.0937395
0.844828
0.104827
0.113313
0.549787
0.0112192
-0.537488
0.566769
0.0177631
0.588672
0.0214328
0.614389
0.0287368
0.646182
0.0324953
0.680787
0.0395003
0.722417
0.0434363
0.766451
0.0497052
0.817976
0.0533013
0.0595237
0.473508
0.00163746
-0.463926
0.487718
0.00355255
0.504712
0.00443901
0.526535
0.006914
0.551531
0.0074991
0.580813
0.0102182
0.61407
0.0101797
0.651147
0.0126282
0.692849
0.0115991
0.0134402
0.271628
-0.26999
0.27518
0.279619
0.286533
0.294032
0.30425
0.31443
0.327058
0.338657
0.0685902
0.135902
-0.124025
-0.0804672
0.0580996
0.136747
-0.126256
0.0487285
0.137902
-0.128531
0.0399089
0.139645
-0.130825
0.0313364
0.141392
-0.13282
0.0230086
0.142375
-0.134047
0.0151113
0.141169
-0.133272
0.00791304
0.135269
-0.128071
0.00226143
0.116759
-0.111107
0.062818
-0.0605566
0.0669742
0.146807
-0.0778792
0.0564943
0.147227
0.046662
0.147734
0.0375055
0.148801
0.0288643
0.150034
0.0207125
0.150527
0.0131895
0.148692
0.00651987
0.141939
0.00161151
0.121667
0.0644295
0.0600755
0.156641
-0.0699094
0.0502949
0.157007
0.0409455
0.157084
0.0322176
0.157529
0.0241026
0.158149
0.0166265
0.158003
0.00990111
0.155418
0.00417362
0.147666
0.000425672
0.125415
0.0648552
0.0484519
0.165193
-0.0570042
0.0399185
0.165541
0.031633
0.165369
0.0238461
0.165316
0.0167069
0.165288
0.0103646
0.164345
0.00494337
0.160839
0.000627914
0.151982
-0.00108013
0.127123
0.0637751
0.0331017
0.172387
-0.0402954
0.026057
0.172585
0.0192487
0.172177
0.0128751
0.17169
0.00714495
0.171018
0.00236976
0.16912
-0.0013535
0.164562
-0.00355247
0.154181
-0.00293528
0.126506
0.0608398
0.0154269
0.178153
-0.021193
0.0099309
0.178081
0.00468704
0.177421
-0.000126797
0.176503
-0.00405131
0.174943
-0.0068067
0.171876
-0.00854343
0.166299
-0.00833761
0.153975
-0.00486459
0.123033
0.0559752
-0.00374289
0.182663
-0.000767239
-0.00782383
0.182162
-0.0114516
0.181049
-0.0142424
0.179294
-0.0159223
0.176622
-0.0166838
0.172637
-0.0162595
0.165875
-0.0131825
0.150898
-0.00661593
0.116466
0.0493593
-0.0252951
0.185418
0.0225405
-0.0273321
0.184199
-0.0285444
0.182261
-0.0288724
0.179622
-0.0285043
0.176254
-0.0273223
0.171455
-0.0242681
0.16282
-0.0178769
0.144507
-0.0080217
0.106611
0.0413376
-0.0479689
0.185913
0.0474739
-0.0475788
0.183809
-0.0465189
0.181201
-0.0449296
0.178033
-0.0425956
0.17392
-0.0388112
0.167671
-0.0323973
0.156406
-0.0220947
0.134204
-0.00882643
0.0933428
0.0325112
-0.0708978
0.0725359
-0.0686298
-0.065744
-0.0620661
-0.0571328
-0.0500876
-0.0396006
-0.0249401
-0.00872635
0.0925136
0.0362746
-0.103174
-0.0256143
0.0817332
0.0371955
-0.0264151
0.0708437
0.03815
-0.0272605
0.0598503
0.0391136
-0.0281203
0.0487592
0.040017
-0.0289259
0.0375895
0.0406688
-0.0294991
0.0264244
0.0405691
-0.029404
0.0155384
0.0386048
-0.0277189
0.0057928
0.0325585
-0.0228129
0.0175243
-0.0117315
0.0933427
0.0470998
-0.104168
0.0824321
0.0481061
0.0714119
0.0491702
0.060295
0.0502305
0.049094
0.051218
0.0378337
0.0519291
0.0265947
0.0518081
0.0156329
0.0495667
0.0058041
0.0423873
0.0233284
0.0944323
0.0578544
-0.105187
0.0835387
0.0589997
0.0725187
0.0601902
0.0613664
0.0613828
0.0500812
0.0625032
0.0386811
0.0633292
0.0272532
0.0632361
0.016065
0.0607549
0.00598243
0.0524699
0.0293108
0.0926506
0.0686052
-0.103401
0.0818393
0.0698111
0.0709326
0.0710969
0.0599305
0.0723849
0.0488276
0.0736061
0.0376347
0.0745221
0.0264358
0.074435
0.0154958
0.0716949
0.00568623
0.0622794
0.0349971
0.0909615
0.0793091
-0.101665
0.0802102
0.0805623
0.0693951
0.081912
0.0585155
0.0832645
0.0475662
0.0845554
0.0365639
0.0855243
0.0256052
0.0853937
0.0149508
0.0823493
0.00543301
0.0717972
0.0404301
0.0883914
0.0898434
-0.0989258
0.0777944
0.0911593
0.0671054
0.092601
0.0563685
0.0940015
0.0456176
0.0953063
0.0348903
0.0962516
0.0242857
0.0959984
0.014053
0.092582
0.004996
0.0808542
0.0454261
0.0849562
0.099719
-0.0948318
0.0750728
0.101043
0.0650554
0.102618
0.0548397
0.104217
0.0444396
0.105706
0.0339462
0.106745
0.0235425
0.106402
0.0135367
0.102588
0.00477839
0.0896125
0.0502045
0.0778503
0.109459
-0.0875904
0.0683244
0.110568
0.0589201
0.112023
0.0495573
0.11358
0.0401251
0.115139
0.030591
0.116279
0.0210881
0.115905
0.0119357
0.11174
0.00403563
0.0975126
0.0542401
0.0741587
0.117776
-0.0824756
0.0655442
0.119183
0.0564488
0.121118
0.0470998
0.122929
0.0376894
0.124549
0.0283481
0.12562
0.0192551
0.124998
0.0106887
0.120307
0.00347595
0.104725
0.057716
0.0643402
-0.0705891
0.057267
0.0498545
0.0419584
0.0336876
0.0252609
0.016987
0.00922249
0.00284056
0.202891
-0.0216579
0.0167564
0.207028
0.0386781
-0.042815
0.205555
0.134192
-0.132719
0.201162
0.175351
-0.170958
0.196342
0.170088
-0.165268
0.19123
0.164357
-0.159244
0.18416
0.155639
-0.14857
0.174006
0.169694
-0.159541
0.151114
0.192165
-0.169272
0.244201
-0.196261
0.20274
-0.0264084
0.206216
0.0352028
0.203862
0.136545
0.198838
0.180375
0.193666
0.17526
0.188574
0.169449
0.182368
0.161846
0.172879
0.179183
0.151173
0.21387
0.291206
0.202503
-0.0309212
0.205218
0.0324871
0.201795
0.139969
0.195834
0.186336
0.190036
0.181058
0.18471
0.174775
0.179244
0.167311
0.17002
0.188407
0.14978
0.23411
0.3358
0.20218
-0.0351111
0.204056
0.030611
0.199336
0.144689
0.192111
0.193561
0.185534
0.187634
0.179879
0.180431
0.174959
0.172231
0.165602
0.197764
0.14682
0.252893
0.379218
0.201791
-0.0389119
0.202765
0.0296366
0.196459
0.150995
0.187717
0.202303
0.180381
0.19497
0.174365
0.186447
0.169688
0.176908
0.15962
0.207832
0.142789
0.269724
0.420342
0.201352
-0.0422745
0.201358
0.0296313
0.193148
0.159205
0.182864
0.212586
0.174911
0.202923
0.1684
0.192958
0.163538
0.181771
0.152429
0.218941
0.1379
0.284252
0.459317
0.200827
-0.0451118
0.19977
0.0306886
0.189462
0.169512
0.177885
0.224164
0.169417
0.21139
0.162145
0.20023
0.156729
0.187186
0.144367
0.231303
0.131742
0.296877
0.496227
0.200097
-0.047219
0.197908
0.0328778
0.185598
0.181822
0.173075
0.236687
0.164067
0.220398
0.155777
0.20852
0.149628
0.193335
0.135842
0.24509
0.125608
0.30711
0.534245
0.199003
-0.0482326
0.195763
0.0361183
0.18187
0.195715
0.168658
0.2499
0.159068
0.229987
0.149692
0.217896
0.142791
0.200236
0.12829
0.259591
0.118961
0.31644
0.57073
0.197464
-0.0477072
0.193279
0.0403035
0.178593
0.210401
0.164948
0.263545
0.155114
0.239821
0.144903
0.228106
0.137214
0.207926
0.120619
0.276185
0.113719
0.32334
0.61386
0.305391
-0.051088
0.313512
0.0321821
0.315951
0.207963
0.311943
0.267552
0.312714
0.239051
0.308736
0.232084
0.317643
0.199019
0.315256
0.278573
0.363207
0.275389
0.533365
0.443702
0.302026
-0.0511036
0.313165
0.0210427
0.328066
0.193062
0.337183
0.258435
0.347823
0.228411
0.354854
0.225053
0.366604
0.187269
0.368458
0.276719
0.396632
0.247215
0.459548
0.470448
0.298672
-0.0477659
0.313671
0.00604381
0.342681
0.164052
0.370517
0.2306
0.387126
0.211801
0.409885
0.202294
0.420689
0.176465
0.432931
0.264477
0.459886
0.22026
0.402318
0.517116
0.295415
-0.041171
0.313156
-0.0116965
0.354657
0.122551
0.399863
0.185394
0.419856
0.191808
0.454888
0.167262
0.46854
0.162813
0.48609
0.246927
0.520849
0.185502
0.356815
0.566352
0.2942
-0.0333612
0.311658
-0.0291539
0.361431
0.0727774
0.416724
0.130101
0.442758
0.165774
0.481373
0.128648
0.501209
0.142976
0.522197
0.225939
0.558988
0.148711
0.306648
0.609156
0.295861
-0.0272117
0.311539
-0.0448317
0.362998
0.0213178
0.419777
0.0733225
0.454493
0.131058
0.492079
0.0910613
0.517324
0.117732
0.544283
0.19898
0.578968
0.114025
0.248086
0.63753
0.300628
-0.0258293
0.314183
-0.0583872
0.358934
-0.0234328
0.408168
0.0240883
0.450128
0.0890974
0.48499
0.0561998
0.51291
0.0898115
0.550441
0.161449
0.584259
0.0802072
0.185256
0.647089
0.307024
-0.0308434
0.315619
-0.0669817
0.343856
-0.0516698
0.375164
-0.0072195
0.419103
0.0451581
0.447643
0.0276596
0.475549
0.0619061
0.529913
0.107085
0.561927
0.0481935
0.122653
0.62453
0.307549
-0.0363822
0.299288
-0.0587209
0.295723
-0.048105
0.301645
-0.0131407
0.33396
0.012843
0.350322
0.0112972
0.383928
0.0283004
0.446896
0.0441166
0.472896
0.022193
0.0564306
0.539118
0.265628
0.206907
0.158802
0.145661
0.158504
0.169802
0.198102
0.242219
0.264412
0.320842
0.461308
-0.0980738
0.470591
-0.0871613
0.477791
-0.0771097
0.483862
-0.0630757
0.49001
-0.0464433
0.496036
-0.0272187
0.501736
-0.00646728
0.5079
0.0163768
0.513998
0.0413761
0.0676842
0.478972
-0.106598
0.48516
-0.0933488
0.489555
-0.0815056
0.492822
-0.0663426
0.497121
-0.0507422
0.501491
-0.0315889
0.507456
-0.0124323
0.513758
0.0100757
0.522084
0.0330495
0.0590893
0.516497
-0.105979
0.517106
-0.093958
0.518023
-0.082422
0.518742
-0.0670623
0.520726
-0.0527261
0.523088
-0.033951
0.527469
-0.0168129
0.532224
0.00532037
0.540091
0.0251826
0.0502329
0.560134
-0.0997616
0.555696
-0.0895193
0.552004
-0.0787305
0.549584
-0.064642
0.548281
-0.0514235
0.548397
-0.0340665
0.55039
-0.0188061
0.554035
0.00167516
0.560483
0.0187347
0.0414424
0.59833
-0.0889357
0.588945
-0.0801341
0.58052
-0.0703057
0.574103
-0.0582248
0.568965
-0.0462862
0.566282
-0.0313829
0.565502
-0.0180263
0.56788
-0.000702622
0.572851
0.0137633
0.0327149
0.622795
-0.0742001
0.608334
-0.0656735
0.595274
-0.0572452
0.584637
-0.0475878
0.576009
-0.0376589
0.570597
-0.0259701
0.567698
-0.0151278
0.568779
-0.00178337
0.572997
0.00954543
0.0241493
0.626444
-0.0535559
0.607774
-0.0470028
0.591116
-0.0405878
0.57746
-0.0339318
0.56661
-0.026809
0.55962
-0.0189797
0.555782
-0.0112895
0.556123
-0.00212451
0.560167
0.00550114
0.0156937
0.600463
-0.0294883
0.57969
-0.0262299
0.561709
-0.0226071
0.547062
-0.0192843
0.53574
-0.0154877
0.528346
-0.0115856
0.524408
-0.00735128
0.525069
-0.00278509
0.529012
0.00155733
0.0072177
0.518804
-0.00917399
0.500895
-0.00832055
0.485822
-0.00753455
0.473475
-0.00693699
0.464118
-0.00613106
0.45779
-0.00525754
0.454509
-0.00406986
0.454422
-0.00269893
0.457181
-0.00120166
0.000472962
0.311668
0.303348
0.295813
0.288876
0.282745
0.277488
0.273418
0.270719
0.269517
0.0047202
0.0441113
-0.0488315
0.00899618
0.0976703
-0.101946
0.0107125
0.124348
-0.126064
0.0109344
0.135778
-0.136
0.0109833
0.140162
-0.140211
0.0105135
0.14268
-0.14221
0.0091872
0.143393
-0.142067
0.00742494
0.141359
-0.139597
0.00575677
0.135998
-0.134329
0.12547
0.00464789
-0.124361
0.00591932
0.0381919
0.0129084
0.0906812
0.0175539
0.119702
0.0202131
0.133119
0.0218514
0.138524
0.0231992
0.141332
0.0240123
0.14258
0.0240887
0.141283
0.0236429
0.136443
0.126351
0.0227616
0.00659356
0.0315984
0.015976
0.0812988
0.0234603
0.112218
0.0285821
0.127997
0.0321027
0.135003
0.0350294
0.138406
0.0376097
0.14
0.0394492
0.139443
0.0403042
0.135588
0.126797
0.0398579
0.0066406
0.0249578
0.0178697
0.0700697
0.0279549
0.102132
0.0354969
0.120455
0.0410321
0.129468
0.0455858
0.133852
0.049648
0.135938
0.0530219
0.136069
0.0552179
0.133392
0.12639
0.0556246
0.00613488
0.0188229
0.0184373
0.0577672
0.0308269
0.0897429
0.0407679
0.110514
0.0483093
0.121927
0.0544272
0.127734
0.0597923
0.130573
0.0644486
0.131413
0.0679029
0.129938
0.12493
0.0693629
0.00523839
0.0135845
0.0176607
0.0453449
0.0319201
0.0754836
0.0443418
0.0980927
0.0540521
0.112216
0.061761
0.120025
0.0683314
0.124002
0.0741106
0.125634
0.07881
0.125239
0.122142
0.0815988
0.00415146
0.00943305
0.0155988
0.0338975
0.0307881
0.0602943
0.0456375
0.0832433
0.0580401
0.0998137
0.0678884
0.110177
0.0759478
0.115943
0.0828875
0.118694
0.0888184
0.119308
0.117729
0.0932314
0.00307044
0.00636261
0.0125935
0.0243745
0.0270617
0.045826
0.0432409
0.0670642
0.0583142
0.0847404
0.0710199
0.0974712
0.0813878
0.105575
0.0899856
0.110097
0.0972265
0.112067
0.111991
0.102964
0.00217385
0.00418876
0.00936423
0.0171841
0.0214871
0.0337031
0.0368996
0.0516517
0.053197
0.0684431
0.0684933
0.0821749
0.0819156
0.0921526
0.093411
0.0986012
0.103366
0.102111
0.103043
0.112314
0.0014369
0.00275186
0.00627926
0.0123417
0.0150865
0.0248959
0.0275942
0.0391439
0.0424761
0.0535612
0.0580477
0.0666033
0.0729657
0.0772345
0.0864514
0.0851155
0.0982276
0.0903352
0.0927378
0.108533
0.000708564
0.0020433
0.00328503
0.00976528
0.00854847
0.0196325
0.0170513
0.0306411
0.0285242
0.0420883
0.041993
0.0531346
0.0562976
0.0629299
0.0704883
0.0709248
0.0838487
0.0769748
0.0811603
0.0954262
-9.95548e-05
0.00214285
0.000352319
0.0093134
0.002394
0.0175908
0.00688205
0.0261531
0.0142115
0.0347588
0.0241041
0.043242
0.035811
0.051223
0.0485166
0.0582193
0.0614866
0.0640048
0.0684686
0.0741782
-0.000839938
0.00298279
-0.00199534
0.0104688
-0.00231987
0.0179153
-0.000959775
0.024793
0.0026809
0.0311181
0.00881972
0.0371031
0.0171174
0.0429254
0.0269407
0.0483959
0.0377668
0.0531787
0.0568457
0.0493898
-0.00120953
0.00419232
-0.00318408
0.0124434
-0.00475795
0.0194892
-0.00527822
0.0253132
-0.00429856
0.0301385
-0.00144064
0.0342452
0.00347663
0.0380081
0.00988827
0.0419843
0.0175564
0.0455106
0.0479227
0.0264795
-0.00160943
0.00580175
-0.00430743
0.0151413
-0.00679591
0.0219777
-0.00849959
0.0270169
-0.00924131
0.0308802
-0.00893739
0.0339413
-0.00734848
0.0364192
-0.00456896
0.0392047
-0.000342185
0.0412838
0.0425369
0.00504353
-0.00226629
0.00806804
-0.005935
0.0188101
-0.00948562
0.0255283
-0.0122935
0.0298248
-0.0141864
0.0327731
-0.0152349
0.0349898
-0.0156118
0.0367961
-0.0148863
0.0384793
-0.0128697
0.0392672
0.0393499
-0.00968268
-0.00248137
0.0105494
-0.00656745
0.0228961
-0.0106577
0.0296185
-0.0141631
0.0333302
-0.0169305
0.0355406
-0.0189755
0.0370347
-0.0204009
0.0382215
-0.0210958
0.0391741
-0.0211891
0.0393605
0.0388165
-0.0206557
-0.00241209
0.0129615
-0.00661501
0.027099
-0.0111086
0.0341122
-0.0154025
0.0376241
-0.019356
0.0394941
-0.0228695
0.0405482
-0.0257995
0.0411515
-0.0279768
0.0413513
-0.029595
0.0409788
0.0400258
-0.0308044
-0.00228239
0.0152439
-0.0065309
0.0313476
-0.0113585
0.0389398
-0.0162748
0.0425404
-0.0210657
0.044285
-0.0255492
0.0450317
-0.029553
0.0451553
-0.0329908
0.0447891
-0.0359498
0.0439378
0.0426401
-0.038564
-0.00195629
-0.00596334
-0.0107655
-0.0158256
-0.020895
-0.0257902
-0.0303713
-0.0345747
-0.0384275
-0.0420214
0.0803786
0.331869
-0.316821
0.0606427
0.223973
-0.204237
0.0512296
0.125706
-0.116292
0.055539
0.033118
-0.0374275
0.065792
-0.0269829
0.0167299
0.079354
-0.0589916
0.0454296
0.0934652
-0.0680936
0.0539823
0.106329
-0.062988
0.0501241
0.117932
-0.0523022
0.0406996
-0.0304849
0.0229491
0.065848
0.340199
0.0513078
0.238513
0.0484754
0.128538
0.0575989
0.0239945
0.0704637
-0.0398477
0.0847632
-0.0732912
0.0987568
-0.0820872
0.111075
-0.0753057
0.121834
-0.0630621
-0.037097
0.0486018
0.340987
0.0400401
0.247075
0.0447831
0.123795
0.0586505
0.0101272
0.0743778
-0.055575
0.089693
-0.0886064
0.103658
-0.0960526
0.115404
-0.0870513
0.125274
-0.0729318
-0.0428559
0.0300417
0.337425
0.0284133
0.248703
0.0411482
0.11106
0.0594168
-0.0081414
0.0778611
-0.0740193
0.0943571
-0.105102
0.108425
-0.11012
0.119636
-0.0982627
0.128641
-0.081937
-0.0478353
0.0121335
0.330335
0.0181213
0.242716
0.0381289
0.0910523
0.0602349
-0.0302474
0.0811088
-0.0948932
0.098842
-0.122836
0.113132
-0.12441
0.123899
-0.10903
0.132115
-0.0901528
-0.0520988
-0.00427626
0.324928
0.00961659
0.228823
0.0351998
0.0654691
0.0606166
-0.0556642
0.0838276
-0.118104
0.10291
-0.141918
0.1176
-0.139099
0.128102
-0.119533
0.135687
-0.0977376
-0.0557323
-0.0188219
0.323095
0.00209791
0.207903
0.0313246
0.0362425
0.0597383
-0.0840779
0.0854396
-0.143806
0.106141
-0.16262
0.121516
-0.154474
0.132022
-0.130038
0.139221
-0.104937
-0.0588664
-0.0310614
0.323352
-0.00531551
0.182157
0.0254419
0.00548509
0.056793
-0.115429
0.0853968
-0.172409
0.10816
-0.185383
0.124608
-0.170922
0.135436
-0.140866
0.142548
-0.11205
-0.061673
-0.041159
0.325947
-0.0141831
0.155181
0.0168627
-0.0255608
0.0513332
-0.1499
0.0834415
-0.204518
0.108796
-0.210737
0.126748
-0.188874
0.13822
-0.152338
0.145552
-0.119382
-0.0643461
-0.0489969
-0.0253451
0.00582824
0.0436443
0.079814
0.108186
0.128001
0.140386
0.14821
0.0139482
0.0201912
-0.0341394
0.00587517
0.00807306
0.00168082
0.00419435
-1.46811e-05
0.0016955
0.00146552
-0.0014802
0.00535642
-0.00389091
0.0102108
-0.00485438
0.0149707
-0.00475988
0.0184705
-0.00349981
-0.00193738
0.0723962
0.0727664
-0.124971
0.0438259
0.0366433
0.0282193
0.019801
0.0231851
0.00672971
0.0274942
-0.00578928
0.0362728
-0.0126695
0.0460232
-0.0146048
0.0550348
-0.0137715
0.0617593
-0.0102242
-0.00561558
0.126906
0.151039
-0.205179
0.0807753
0.0827744
0.0555148
0.0450614
0.0474082
0.0148363
0.0513875
-0.00976858
0.0614235
-0.0227054
0.0732783
-0.0264597
0.0843045
-0.0247977
0.0931582
-0.0190779
-0.0106753
0.161645
0.239448
-0.250053
0.103574
0.140845
0.0705333
0.0781022
0.059824
0.0255456
0.0632688
-0.0132133
0.0741428
-0.0335795
0.0874202
-0.0397371
0.0997267
-0.0371042
0.110159
-0.02951
-0.0166843
0.178168
-0.255542
0.114777
0.0765862
0.0647043
0.0682209
0.080071
0.0943163
0.107336
0.118526
0.0101486
8.62886e-05
-0.0102349
0.0112025
-0.00105389
0.0131896
-0.00198704
0.0159214
-0.00273183
0.0191642
-0.00324282
0.0223895
-0.00322526
0.0257535
-0.00336397
0.028237
-0.00248352
0.0313222
-0.00308519
-0.00281726
0.026622
-0.000109739
-0.026426
0.0296524
-0.00408431
0.0352285
-0.00756308
0.0430637
-0.010567
0.0527334
-0.0129125
0.0636154
-0.0141073
0.0764414
-0.01619
0.0897525
-0.0157946
0.106854
-0.0201867
-0.0209347
0.0397282
-0.000885505
-0.0389524
0.044565
-0.00892111
0.0532053
-0.0162034
0.0654178
-0.0227796
0.0807313
-0.028226
0.0989409
-0.0323169
0.120681
-0.0379302
0.144749
-0.0398622
0.175014
-0.0504525
-0.0510996
0.0498083
-0.00239265
-0.0483012
0.0561398
-0.0152526
0.0671441
-0.0272077
0.0825822
-0.0382177
0.102018
-0.0476619
0.125607
-0.0559053
0.152629
-0.0649526
0.184028
-0.0712609
0.218607
-0.0850316
-0.0825458
0.0573296
-0.0550744
0.0648386
0.0774888
0.0948958
0.116597
0.14229
0.170569
0.202272
0.229555
0.0635656
-0.0573027
0.0636806
-0.0699435
0.0567754
-0.0576063
0.0643966
0.0498508
-0.0581274
0.0650519
0.0426462
-0.0585949
0.0657995
0.0350585
-0.0589016
0.0664893
0.0271118
-0.0588439
0.0667906
0.0189827
-0.0579168
0.0660459
0.0110044
-0.0549888
0.0629671
0.00394381
-0.0472842
0.0543448
-0.0267091
0.0306529
0.069279
-0.049921
-0.0766607
0.0616861
-0.0500135
0.0537036
-0.0501449
0.0453604
-0.0502516
0.0367627
-0.0503039
0.0280641
-0.0501453
0.0194593
-0.0493119
0.0112272
-0.0467568
0.00403982
-0.0400969
-0.0226693
0.070189
-0.0415925
-0.0785175
0.0617536
-0.041578
0.053228
-0.0416193
0.0446485
-0.0416722
0.0360525
-0.0417079
0.0274894
-0.0415821
0.0190594
-0.040882
0.0109919
-0.0386893
0.00394734
-0.0330523
-0.018722
0.0729153
-0.0329967
-0.081511
0.0642703
-0.0329331
0.0555427
-0.0328917
0.0467247
-0.0328541
0.037822
-0.0328052
0.0288845
-0.0326446
0.0200499
-0.0320474
0.0116042
-0.0302436
0.00423094
-0.025679
-0.014491
0.0756558
-0.0240798
-0.0845727
0.0666347
-0.023912
0.0574988
-0.0237558
0.0482503
-0.0236056
0.0389155
-0.0234704
0.0295743
-0.0233034
0.0204065
-0.0228796
0.0117507
-0.0215878
0.00429763
-0.0182259
-0.0101934
0.0784454
-0.0148043
-0.0877209
0.0690496
-0.0145161
0.05952
-0.0142262
0.049858
-0.0139436
0.0400875
-0.0137
0.0302959
-0.0135118
0.0207102
-0.0132938
0.0117867
-0.0126643
0.00430394
-0.0107432
-0.00588947
0.0814782
-0.00515086
-0.0911317
0.0716907
-0.00472861
0.0617477
-0.00428317
0.0516386
-0.00383452
0.04137
-0.00343142
0.0310127
-0.00315452
0.020819
-0.0031001
0.0114141
-0.00325942
0.00390076
-0.00322984
-0.00198871
0.084663
0.00484537
-0.0946592
0.0745288
0.00540557
0.0642393
0.00600635
0.0537794
0.00662534
0.0431424
0.00720557
0.0323666
0.00762127
0.0216463
0.00762023
0.0115926
0.0067943
0.00360956
0.00475318
0.00162084
0.0877716
0.0151172
-0.0980434
0.0773727
0.0158044
0.0668443
0.0165348
0.0561852
0.0172845
0.0454011
0.0179896
0.0345283
0.0184941
0.0237108
0.0184377
0.0133906
0.0171146
0.00466834
0.0134754
0.00628918
0.0904639
-0.100961
0.0798532
0.0691275
0.0582917
0.0473555
0.0363504
0.0253841
0.0147798
0.00544232
0.0125177
-0.122844
-0.0140342
0.00970107
-0.131513
0.00641548
-0.136311
0.00309895
-0.138751
0.00021785
-0.139329
-0.002057
-0.137936
-0.00406946
-0.133988
-0.00485072