/*--------------------------------*- C++ -*----------------------------------*\
| =========                 |                                                 |
| \\      /  F ield         | OpenFOAM: The Open Source CFD Toolbox           |
|  \\    /   O peration     | Version:  2406                                  |
|   \\  /    A nd           | Website:  www.openfoam.com                      |
|    \\/     M anipulation  |                                                 |
\*---------------------------------------------------------------------------*/
FoamFile
{
    version     2.0;
    format      ascii;
    arch        "LSB;label=32;scalar=64";
    class       volVectorField;
    location    "1.2";
    object      U;
}
// * * * * * * * * * * * * * * * * * * * * * * * * * * * * * * * * * * * * * //

dimensions      [0 1 -1 0 0 0 0];

internalField   nonuniform List<vector> 
1800
(
(5.57498e-05 -0.00302173 0)
(-0.00430174 -0.00192131 -9.25019e-21)
(-0.0102608 0.00408142 -9.13207e-20)
(-0.0100925 0.0224109 7.68757e-20)
(0.010687 0.0465737 1.47522e-19)
(0.057171 0.0667972 3.15746e-20)
(0.129463 0.0826887 -4.25779e-20)
(0.224908 0.0955437 -1.04659e-19)
(0.340539 0.1076 0)
(0.431169 0.144419 -1.57066e-20)
(-0.00828136 0.000514821 3.37676e-21)
(-0.011063 -6.25376e-05 -4.25115e-20)
(-0.00933166 -0.0034052 7.16396e-20)
(0.00886905 -0.00917504 8.73025e-20)
(0.0664293 -0.0133024 -2.16397e-20)
(0.157088 -0.0178352 -1.87884e-19)
(0.274378 -0.0208439 4.86418e-20)
(0.412332 -0.0214533 2.05129e-19)
(0.567612 -0.0152033 -8.87431e-21)
(0.67174 -0.00161729 -1.63578e-20)
(-0.0134275 0.00817467 1.0785e-20)
(-0.0118102 0.00737323 -5.63006e-20)
(0.00604117 0.000107265 -4.85032e-20)
(0.0756831 -0.0145136 2.36018e-20)
(0.195723 -0.0300043 -1.68525e-20)
(0.349104 -0.0410455 3.74165e-20)
(0.521394 -0.0450976 -3.81974e-20)
(0.701401 -0.0422376 -1.74183e-19)
(0.890611 -0.0254975 4.01482e-20)
(1.0116 -0.0185452 -7.81458e-21)
(-0.00956967 0.00676086 1.1549e-20)
(0.000263486 0.00619677 6.35114e-20)
(0.0686119 -0.00635049 -5.39089e-20)
(0.210538 -0.0233456 -4.50739e-22)
(0.402557 -0.0373774 1.05924e-19)
(0.618202 -0.0429452 -2.67288e-20)
(0.836729 -0.0389014 -7.34463e-20)
(1.04471 -0.0271159 -5.68449e-20)
(1.24498 -0.00442487 -1.64628e-20)
(1.37691 0.0098318 4.19809e-20)
(-0.00189047 0.00185991 -8.03472e-21)
(0.0420835 -0.00810157 4.7294e-20)
(0.188363 -0.0213368 4.23617e-20)
(0.412201 -0.0329591 -7.72276e-20)
(0.672461 -0.0353845 -3.28609e-20)
(0.933933 -0.0261979 4.67523e-20)
(1.17433 -0.00748531 3.58165e-20)
(1.38472 0.0172396 6.24526e-20)
(1.56847 0.0471605 -1.27975e-19)
(1.69931 0.0667172 -9.2291e-20)
(0.0088693 -0.000654269 4.48945e-22)
(0.127711 -0.0237152 1.65756e-19)
(0.36753 -0.0328923 8.931e-20)
(0.672521 -0.0303969 -1.19274e-19)
(0.984005 -0.014003 1.09077e-19)
(1.26363 0.0131606 -7.99356e-21)
(1.49673 0.0457428 1.00979e-19)
(1.68501 0.0792055 1.57994e-19)
(1.83698 0.11079 -2.03139e-19)
(1.95647 0.132382 -1.48999e-19)
(0.0395094 -0.00471394 -3.5414e-20)
(0.258419 -0.0337097 -2.61257e-19)
(0.599378 -0.0284196 2.52127e-20)
(0.971218 -0.00312067 3.23752e-19)
(1.30339 0.0345473 -1.6987e-20)
(1.56847 0.0764841 -2.14789e-19)
(1.76878 0.11657 -1.41196e-19)
(1.91897 0.151488 3.86887e-19)
(2.0352 0.179771 4.32619e-19)
(2.12784 0.199127 3.49686e-20)
(0.0888956 -0.00758327 4.09277e-20)
(0.431177 -0.0303007 3.74328e-20)
(0.869195 0.00198246 -1.38493e-19)
(1.27659 0.053412 7.50442e-20)
(1.5925 0.106665 -4.4509e-21)
(1.81589 0.153741 -7.24245e-19)
(1.96968 0.191719 3.91269e-22)
(2.07868 0.220613 5.12159e-19)
(2.16128 0.241404 -3.18394e-19)
(2.22919 0.254075 -3.22643e-19)
(0.158392 -0.00491873 1.6049e-19)
(0.638783 -0.00356936 1.52314e-19)
(1.14809 0.0640204 -3.71645e-19)
(1.54904 0.135545 -8.84004e-20)
(1.81775 0.192815 3.16662e-21)
(1.9868 0.23474 2.80564e-19)
(2.09525 0.264108 -5.1665e-19)
(2.17102 0.284205 -2.67529e-19)
(2.23007 0.297323 6.04848e-19)
(2.28045 0.304607 1.3701e-19)
(0.247566 0.00789721 1.07197e-20)
(0.862116 0.0527789 3.94233e-19)
(1.39938 0.153335 -3.41602e-19)
(1.75764 0.232193 -1.55868e-19)
(1.96689 0.282987 1.67415e-19)
(2.08759 0.314753 -1.80514e-19)
(2.16415 0.334766 3.4245e-19)
(2.22003 0.347527 2.59416e-20)
(2.26558 0.354978 -2.47248e-19)
(2.30416 0.358717 -8.13703e-20)
(-0.0121818 0.224664 -1.08693e-20)
(-0.0328628 0.46386 5.05416e-20)
(-0.0605602 0.573528 2.89013e-20)
(-0.0860134 0.622939 -3.84191e-20)
(-0.109884 0.64436 1.97429e-21)
(-0.132127 0.649969 1.11652e-20)
(-0.151962 0.645416 2.95933e-21)
(-0.169131 0.633652 -1.0958e-21)
(-0.18412 0.6162 -2.90646e-23)
(-0.198689 0.594259 -2.32308e-20)
(-0.0271445 0.233976 1.17831e-20)
(-0.0622402 0.494241 6.77262e-23)
(-0.0920481 0.614444 1.31178e-20)
(-0.115575 0.667152 -4.03415e-20)
(-0.135925 0.689534 -4.40212e-21)
(-0.154597 0.694579 -1.98459e-20)
(-0.171402 0.687904 -2.85336e-20)
(-0.185932 0.673614 0)
(-0.198404 0.654029 -6.96063e-21)
(-0.210703 0.630081 2.12635e-20)
(-0.0403626 0.227231 5.27028e-23)
(-0.090189 0.501895 -2.43289e-20)
(-0.121423 0.636184 -1.11727e-20)
(-0.142479 0.696011 1.67878e-20)
(-0.157751 0.722523 2.66109e-20)
(-0.169679 0.731915 -2.33814e-20)
(-0.17961 0.729038 3.77076e-20)
(-0.18745 0.715048 2.74312e-20)
(-0.193089 0.692686 1.166e-19)
(-0.199011 0.666083 1.12382e-19)
(-0.0484648 0.204344 1.21427e-20)
(-0.111389 0.483482 6.58033e-20)
(-0.141857 0.633599 -1.19558e-21)
(-0.157255 0.702757 5.21343e-20)
(-0.164428 0.731545 -1.79169e-20)
(-0.167124 0.74043 -2.1586e-20)
(-0.167361 0.738717 -1.79962e-21)
(-0.166412 0.730654 0)
(-0.164959 0.717473 -1.67608e-19)
(-0.163598 0.698292 -2.37452e-19)
(-0.0469952 0.164041 2.19373e-20)
(-0.117126 0.430943 -7.70432e-21)
(-0.144142 0.596916 -3.23915e-20)
(-0.152094 0.682448 -2.37364e-20)
(-0.150827 0.723109 -3.00559e-21)
(-0.145356 0.740732 -5.3087e-20)
(-0.137663 0.74514 7.41216e-21)
(-0.128208 0.740406 1.12514e-19)
(-0.116877 0.728617 -2.32139e-19)
(-0.103803 0.710325 -2.59542e-19)
(-0.0362547 0.111296 1.17746e-20)
(-0.107037 0.343816 -2.55096e-20)
(-0.132351 0.519179 4.82744e-20)
(-0.135651 0.623902 3.2561e-20)
(-0.127165 0.681622 2.46761e-20)
(-0.112715 0.712556 -2.09872e-19)
(-0.0953119 0.727682 -7.81881e-20)
(-0.0760031 0.732154 2.45301e-19)
(-0.0539201 0.728153 -3.55655e-19)
(-0.0286139 0.715483 -2.81031e-19)
(-0.0202711 0.0588671 -3.29543e-20)
(-0.0830604 0.236167 6.31218e-20)
(-0.108312 0.4055 -6.36406e-21)
(-0.110854 0.524101 -1.59451e-20)
(-0.0982312 0.599247 7.00917e-20)
(-0.0763003 0.645486 -5.57605e-20)
(-0.0489848 0.672908 -2.17025e-19)
(-0.0182042 0.687122 -3.70164e-20)
(0.0166296 0.690674 4.21561e-19)
(0.0578753 0.681609 2.86147e-19)
(-0.00512326 0.0192772 -9.27009e-22)
(-0.0514337 0.129871 -3.68944e-20)
(-0.0750278 0.273415 -6.93371e-20)
(-0.0792393 0.39142 3.69784e-20)
(-0.0660625 0.47672 6.70764e-20)
(-0.0398281 0.535876 3.87119e-20)
(-0.004727 0.575694 -1.07605e-19)
(0.0363128 0.601004 -5.81228e-20)
(0.0831156 0.614329 8.92079e-20)
(0.141522 0.608771 3.12106e-20)
(0.00704639 7.21994e-06 -1.53593e-20)
(-0.0210202 0.044824 -1.44174e-20)
(-0.0397386 0.146349 2.66859e-20)
(-0.0455306 0.244572 3.98766e-20)
(-0.034005 0.324615 1.10858e-20)
(-0.00637602 0.386074 -6.62353e-20)
(0.0340579 0.431742 -5.7676e-20)
(0.0838261 0.465044 -3.22237e-20)
(0.142006 0.488782 -1.50879e-21)
(0.220772 0.484665 -1.83938e-19)
(0.00339051 -0.00471637 -1.68256e-20)
(-0.00227623 0.000395893 -1.92726e-20)
(-0.0127929 0.0461976 1.22919e-19)
(-0.0199161 0.108855 1.15975e-19)
(-0.00989477 0.167405 -6.71563e-20)
(0.0201529 0.215512 -2.58753e-19)
(0.0686644 0.253482 5.02847e-20)
(0.132516 0.28357 4.90103e-20)
(0.212064 0.308689 1.64528e-20)
(0.317541 0.305384 -9.49443e-20)
(-0.271821 0.468867 -3.91365e-19)
(-0.246874 0.169081 -9.01752e-19)
(-0.104958 -0.0997031 -5.91701e-19)
(0.0625446 -0.288242 4.86644e-19)
(0.2832 -0.36157 -1.06942e-19)
(0.455732 -0.353839 1.18244e-20)
(0.586044 -0.305365 -9.11914e-20)
(0.675422 -0.238857 4.22604e-20)
(0.731272 -0.183484 -2.82169e-20)
(0.774471 -0.0963337 -1.90965e-20)
(-0.276478 0.491965 -4.47407e-19)
(-0.29283 0.15367 9.83683e-21)
(-0.143454 -0.144976 -1.05138e-19)
(0.0485297 -0.34837 -2.87244e-19)
(0.284602 -0.420288 2.50407e-20)
(0.464667 -0.399886 -5.49303e-20)
(0.59841 -0.337931 5.52678e-20)
(0.68866 -0.259659 2.44075e-21)
(0.744532 -0.197558 -5.16864e-20)
(0.788256 -0.102804 3.72962e-20)
(-0.247921 0.526057 2.928e-19)
(-0.29855 0.151852 1.14588e-18)
(-0.136247 -0.189852 1.89653e-19)
(0.0785841 -0.410437 -4.53329e-19)
(0.320541 -0.480243 6.98203e-20)
(0.496171 -0.446218 3.04715e-21)
(0.623417 -0.3706 2.97014e-20)
(0.708555 -0.280349 -4.19374e-20)
(0.761255 -0.211775 2.82151e-21)
(0.804178 -0.109407 -2.49467e-22)
(-0.178876 0.565714 5.10574e-19)
(-0.241707 0.163033 -1.9435e-20)
(-0.06439 -0.232778 1.70241e-19)
(0.171071 -0.471884 3.14147e-19)
(0.410314 -0.538085 -1.562e-20)
(0.567689 -0.489454 1.03565e-20)
(0.673678 -0.400665 -3.78067e-20)
(0.74297 -0.299239 0)
(0.786495 -0.225226 0)
(0.825184 -0.115911 -8.78002e-23)
(-0.0783005 0.594837 1.68199e-19)
(-0.13082 0.179797 -7.73008e-19)
(0.0763711 -0.272796 -1.31139e-20)
(0.32513 -0.531713 -2.45219e-19)
(0.55937 -0.591741 -7.67956e-20)
(0.693423 -0.526402 -2.79942e-20)
(0.76458 -0.424679 6.54016e-21)
(0.803518 -0.313786 -1.77189e-20)
(0.828552 -0.236319 -6.0246e-20)
(0.856163 -0.121788 -2.32292e-21)
(0.0317378 0.625936 9.50376e-20)
(0.0317584 0.199441 -3.30627e-19)
(0.264166 -0.306358 -1.34509e-18)
(0.51099 -0.589774 1.53693e-20)
(0.743533 -0.642845 2.67161e-19)
(0.867065 -0.55668 -5.00391e-21)
(0.9044 -0.439735 -5.45459e-21)
(0.902186 -0.320815 -7.37357e-20)
(0.898574 -0.242602 1.03103e-21)
(0.904442 -0.126046 -2.80309e-20)
(0.157969 0.633725 -1.35916e-19)
(0.240057 0.221626 -4.41876e-20)
(0.470959 -0.329063 4.99346e-19)
(0.704897 -0.643993 -1.39498e-19)
(0.926972 -0.695772 -4.73187e-20)
(1.05607 -0.585721 7.2775e-20)
(1.08026 -0.447265 -1.54351e-20)
(1.04137 -0.318676 9.82616e-21)
(1.00548 -0.241395 1.91436e-20)
(0.978613 -0.127256 9.48471e-21)
(0.280631 0.617785 -2.35393e-19)
(0.463832 0.250625 4.94611e-19)
(0.696283 -0.33515 7.54043e-19)
(0.921597 -0.686435 5.53308e-20)
(1.10792 -0.747763 -2.24687e-19)
(1.23142 -0.618481 -1.43605e-19)
(1.26177 -0.453435 2.50113e-20)
(1.20566 -0.310003 6.27987e-21)
(1.14651 -0.231917 3.84341e-22)
(1.08354 -0.124232 -3.9666e-21)
(0.407601 0.577114 -7.86178e-19)
(0.687498 0.267357 9.24241e-20)
(0.945147 -0.326051 -8.03761e-19)
(1.18115 -0.711646 7.08946e-19)
(1.3156 -0.789284 -2.9368e-19)
(1.39673 -0.651195 -6.88203e-20)
(1.42618 -0.462246 -8.54045e-20)
(1.36946 -0.300158 5.90029e-21)
(1.3034 -0.216849 7.53353e-21)
(1.21337 -0.117161 3.76524e-21)
(0.49135 0.486436 -9.94563e-20)
(0.871831 0.302067 2.0625e-19)
(1.20742 -0.300773 -4.24969e-19)
(1.46728 -0.723853 4.48649e-19)
(1.55996 -0.814394 -2.96585e-19)
(1.57324 -0.675189 6.61861e-20)
(1.57345 -0.471495 -2.07815e-19)
(1.51477 -0.29234 -1.00964e-20)
(1.45249 -0.200363 -8.59848e-21)
(1.35103 -0.107718 -1.48892e-20)
(0.726925 0.352145 4.10597e-19)
(1.19602 0.246166 9.17727e-20)
(1.6055 -0.343206 -4.02455e-20)
(1.86892 -0.748125 -8.88591e-20)
(1.91272 -0.826809 1.14037e-19)
(1.83246 -0.684184 -2.23584e-20)
(1.75845 -0.472789 1.38096e-20)
(1.67441 -0.280697 3.58604e-20)
(1.61309 -0.178375 -8.6724e-20)
(1.51064 -0.0942586 1.0946e-20)
(1.19285 0.271506 2.68621e-19)
(1.79732 0.0546067 -3.84103e-19)
(2.26079 -0.501011 -5.04553e-19)
(2.39999 -0.821171 6.63483e-20)
(2.32656 -0.810883 -7.91534e-20)
(2.14657 -0.621722 1.43622e-19)
(1.9698 -0.411946 1.86432e-19)
(1.82474 -0.236563 -2.7837e-20)
(1.74593 -0.143303 1.0445e-19)
(1.64826 -0.0757194 2.19134e-20)
(1.87566 0.232518 7.8433e-20)
(2.43796 -0.0771851 5.15284e-20)
(2.74156 -0.558476 3.40666e-20)
(2.69167 -0.798189 3.33869e-35)
(2.50878 -0.7539 -7.10174e-20)
(2.30258 -0.552181 -6.08776e-34)
(2.10641 -0.34599 3.17333e-20)
(1.93475 -0.187722 5.80198e-34)
(1.83605 -0.107077 -1.69113e-21)
(1.73459 -0.0568006 1.09505e-21)
(2.42996 0.165741 1.56154e-19)
(2.86672 -0.16739 5.64937e-19)
(3.03252 -0.587225 5.18805e-19)
(2.91383 -0.766335 0)
(2.65559 -0.683435 -3.76952e-21)
(2.37761 -0.470576 -1.30503e-19)
(2.14407 -0.272576 -1.58206e-19)
(1.96212 -0.134252 2.01342e-33)
(1.85928 -0.0680062 -6.05043e-20)
(1.75894 -0.0375008 -3.09647e-21)
(2.76312 0.0719041 1.56346e-19)
(3.08309 -0.227795 -1.70447e-20)
(3.19356 -0.578456 0)
(3.0406 -0.689489 0)
(2.74309 -0.568992 0)
(2.42661 -0.35588 0)
(2.15572 -0.180441 8.56904e-21)
(1.95257 -0.0736624 2.29138e-33)
(1.84414 -0.0280853 -3.24196e-21)
(1.74824 -0.0198579 -5.67361e-34)
(2.93159 -0.0121116 6.02071e-20)
(3.1903 -0.273112 0)
(3.27922 -0.556826 0)
(3.04965 -0.607384 0)
(2.65286 -0.461398 0)
(2.29227 -0.253148 0)
(2.0324 -0.0986653 -1.75979e-20)
(1.85729 -0.0194782 9.90532e-20)
(1.77394 0.00718452 -4.06185e-21)
(1.69897 -0.00278428 8.21094e-21)
(2.99373 -0.0820402 0)
(3.21313 -0.309871 2.89541e-19)
(3.19945 -0.519134 2.37074e-19)
(2.85084 -0.486988 0)
(2.39697 -0.306679 -8.1138e-20)
(2.02574 -0.124756 -1.05139e-19)
(1.79409 -0.0156095 -9.82457e-20)
(1.6636 0.0262834 -4.72746e-20)
(1.6201 0.0324371 3.9332e-20)
(1.57719 0.00985114 -1.37986e-20)
(2.91543 -0.144566 6.45718e-20)
(3.02012 -0.314256 -2.38665e-20)
(2.78098 -0.409544 8.66105e-21)
(2.26003 -0.322634 -2.98592e-35)
(1.78018 -0.15456 1.97329e-20)
(1.48889 -0.0222209 -5.88988e-34)
(1.36232 0.037882 -2.07023e-20)
(1.31693 0.0479058 -4.60086e-20)
(1.32714 0.0400479 -4.8498e-21)
(1.3235 0.0141168 9.32503e-21)
(2.41664 -0.168277 0)
(2.26776 -0.251509 -8.51804e-20)
(1.73455 -0.204837 -5.60954e-20)
(1.15164 -0.0903851 0)
(0.834957 -0.00974918 8.14485e-21)
(0.742272 0.0307311 1.31971e-20)
(0.760169 0.0440469 -7.29602e-21)
(0.805559 0.0388814 1.18285e-20)
(0.861902 0.0284609 -1.90896e-20)
(0.890657 0.0105708 -7.66361e-21)
(0.975928 -0.0888408 2.48502e-20)
(0.606635 -0.0359267 0)
(0.273257 -0.00373859 0)
(0.095775 0.000147228 0)
(0.0438555 0.00116448 0)
(0.0690523 0.0069532 0)
(0.134228 0.0113654 -2.07431e-20)
(0.201931 0.0103855 7.23185e-35)
(0.260256 0.00733964 -5.50829e-21)
(0.29488 0.00266141 -1.00527e-20)
(2.36729 0.363616 3.90021e-19)
(2.36831 0.315746 1.62573e-19)
(2.34608 0.275999 2.80003e-19)
(2.30417 0.233362 -3.07659e-19)
(2.2072 0.188047 9.5111e-20)
(2.0644 0.134189 3.37077e-20)
(1.8259 0.0742603 5.68947e-20)
(1.52379 0.0472607 2.08117e-20)
(1.15622 -0.0344813 -3.99905e-20)
(0.714519 0.0661052 1.37486e-20)
(2.43104 0.333805 -1.98148e-19)
(2.46009 0.299044 3.64603e-20)
(2.46693 0.261276 1.66425e-19)
(2.46329 0.235658 1.35945e-19)
(2.43888 0.187047 -2.09779e-19)
(2.36139 0.166937 9.48839e-20)
(2.28755 0.0994842 -2.99418e-20)
(2.06143 0.0902907 -9.09621e-21)
(1.95276 0.0522373 -5.62085e-21)
(1.49822 0.017599 -2.36434e-21)
(2.52504 0.288403 3.19467e-20)
(2.54359 0.266175 -1.40385e-19)
(2.58948 0.223298 -1.90472e-19)
(2.57025 0.208912 4.14101e-19)
(2.61546 0.163623 -4.11531e-21)
(2.53582 0.145832 -3.11437e-21)
(2.57394 0.110696 -8.29531e-20)
(2.40615 0.06975 -6.13583e-20)
(2.40779 0.0821387 6.09296e-21)
(2.14106 0.00745825 -7.48572e-21)
(2.62606 0.24333 5.15833e-20)
(2.6276 0.227404 -1.70995e-19)
(2.70003 0.186112 2.61058e-20)
(2.67021 0.169468 -1.30414e-19)
(2.74287 0.13719 2.1756e-19)
(2.67976 0.107651 -6.30064e-20)
(2.74017 0.0974934 4.97685e-20)
(2.64288 0.0423643 -6.0005e-20)
(2.66519 0.0650212 -1.08947e-19)
(2.53003 -0.00795438 -4.82303e-20)
(2.68016 0.200318 9.85572e-20)
(2.68842 0.18382 -2.80596e-19)
(2.75933 0.151223 -2.46421e-20)
(2.74984 0.12984 -1.54589e-20)
(2.81446 0.106273 -5.86505e-21)
(2.78998 0.0736428 -1.9266e-21)
(2.84005 0.0658953 3.35726e-20)
(2.79878 0.0184 -4.84942e-20)
(2.82673 0.0308765 -8.00661e-20)
(2.76323 -0.0284343 -1.07492e-19)
(2.67657 0.156798 1.7856e-19)
(2.69781 0.139799 3.31587e-20)
(2.76245 0.114047 -1.98173e-19)
(2.77651 0.0919678 1.20184e-19)
(2.83338 0.0719873 9.89809e-20)
(2.84091 0.0415644 -7.5434e-20)
(2.8857 0.0302017 1.10987e-19)
(2.88408 -0.00724267 4.74449e-20)
(2.91484 -0.00603395 -1.4191e-19)
(2.90173 -0.0503138 -1.78089e-19)
(2.61406 0.108071 1.68912e-20)
(2.64788 0.0943569 6.08829e-20)
(2.7068 0.0703304 -7.68198e-20)
(2.73812 0.0523505 -4.12098e-20)
(2.79338 0.0324956 1.00988e-19)
(2.82148 0.0070294 4.29223e-20)
(2.86964 -0.00718183 9.39177e-20)
(2.895 -0.0381064 7.51756e-20)
(2.92981 -0.0455847 1.48285e-20)
(2.95687 -0.0790689 6.21287e-20)
(2.46328 0.0610574 2.17448e-20)
(2.51467 0.0538436 -1.11802e-22)
(2.55772 0.0270872 -8.43107e-20)
(2.60968 0.0173662 -7.46539e-20)
(2.65077 -0.00564548 3.59577e-20)
(2.70329 -0.0234683 -3.96925e-20)
(2.73835 -0.0405507 -3.43436e-20)
(2.79446 -0.0641887 1.13162e-19)
(2.81809 -0.0791811 -9.67767e-20)
(2.88307 -0.104321 -1.11807e-19)
(2.11127 0.0100869 6.58474e-20)
(2.18046 0.00345784 -3.02575e-20)
(2.18075 -0.014171 -3.00248e-20)
(2.25563 -0.0170609 3.56913e-20)
(2.24979 -0.0380784 -2.11624e-20)
(2.32525 -0.0396555 -4.00863e-21)
(2.31658 -0.0625809 -4.25045e-20)
(2.3906 -0.0667472 2.56416e-20)
(2.37784 -0.0909724 2.46135e-20)
(2.45505 -0.0991997 -2.74704e-20)
(1.22386 -0.00841655 0)
(1.23789 -0.0131433 3.37217e-21)
(1.22121 -0.0164896 -4.39221e-20)
(1.24008 -0.0208263 -6.85613e-20)
(1.20775 -0.0224984 3.96463e-20)
(1.23769 -0.0266049 1.64765e-19)
(1.18647 -0.0293886 -1.23772e-20)
(1.23064 -0.0346205 -9.97057e-20)
(1.15545 -0.0404832 -1.34311e-20)
(1.21539 -0.0464172 4.98918e-21)
(1.4294 0.857529 -4.82327e-20)
(1.40495 0.89556 -9.97102e-20)
(1.39772 0.936689 -7.2999e-19)
(1.39359 0.981855 2.27263e-19)
(1.38591 1.02704 1.08114e-18)
(1.36874 1.0671 1.44275e-19)
(1.33185 1.08924 -8.07793e-20)
(1.25348 1.07193 -3.09133e-19)
(1.0635 0.950721 -3.20459e-19)
(0.566409 0.52521 -4.21785e-20)
(1.59586 0.832386 -4.25491e-19)
(1.57153 0.867779 1.2104e-18)
(1.55567 0.905027 5.32281e-19)
(1.54598 0.947359 -7.7564e-19)
(1.53698 0.991162 2.53867e-19)
(1.51975 1.03 2.36269e-19)
(1.48082 1.05012 7.61814e-19)
(1.39533 1.03156 -1.10829e-18)
(1.18319 0.910104 -5.26864e-20)
(0.624325 0.49581 1.87028e-19)
(1.7477 0.806086 1.1601e-19)
(1.72811 0.839671 9.32067e-19)
(1.70914 0.873237 1.76927e-20)
(1.69517 0.910178 -4.47067e-19)
(1.68357 0.948726 1.3416e-19)
(1.66452 0.982577 -5.34394e-20)
(1.62205 0.997805 -4.88364e-20)
(1.52782 0.976347 -3.88645e-19)
(1.29084 0.853191 4.42151e-20)
(0.671121 0.454684 -2.13907e-19)
(1.87986 0.77289 -4.7252e-19)
(1.86517 0.803666 4.26289e-19)
(1.84718 0.833519 -6.47887e-19)
(1.83179 0.865243 -2.35689e-19)
(1.81798 0.897706 1.34128e-18)
(1.79566 0.924588 -8.30543e-19)
(1.74796 0.932738 -9.28912e-19)
(1.64392 0.905991 4.06306e-19)
(1.37796 0.780144 -1.26603e-19)
(0.699929 0.403496 -5.90385e-20)
(1.99317 0.731918 5.85722e-19)
(1.9827 0.759147 4.63942e-19)
(1.96718 0.784637 -2.13163e-19)
(1.95129 0.810381 8.21381e-19)
(1.93457 0.835599 1.50678e-19)
(1.90752 0.853501 -3.60901e-19)
(1.85252 0.852855 5.02126e-19)
(1.73591 0.820878 -6.131e-19)
(1.4349 0.691698 -7.00111e-19)
(0.705187 0.342005 -9.8098e-21)
(2.09052 0.681464 7.75945e-19)
(2.08136 0.70384 9.53935e-19)
(2.06633 0.72409 -9.49321e-19)
(2.04968 0.744192 -9.46544e-19)
(2.03005 0.762416 2.18883e-19)
(1.99514 0.769651 -6.60492e-19)
(1.93049 0.760477 -4.03177e-19)
(1.79535 0.722355 3.39461e-19)
(1.45477 0.588169 7.42902e-20)
(0.683092 0.27299 -7.1913e-21)
(2.17243 0.621292 7.1919e-19)
(2.16316 0.638739 -9.36807e-19)
(2.149 0.655344 -8.00473e-19)
(2.13068 0.669594 5.91781e-19)
(2.10114 0.676511 -5.24764e-19)
(2.05395 0.672571 1.53712e-18)
(1.97971 0.657343 -2.20249e-19)
(1.81757 0.611646 -1.23555e-18)
(1.43242 0.473993 5.3948e-19)
(0.632675 0.202019 3.42984e-20)
(2.24173 0.559189 -4.59707e-19)
(2.23039 0.571636 -6.3137e-19)
(2.21014 0.580134 -8.40103e-19)
(2.17874 0.582882 3.24775e-20)
(2.13845 0.579055 2.69532e-19)
(2.08636 0.5703 2.73455e-19)
(1.99546 0.549593 6.05656e-19)
(1.79666 0.493722 -3.05526e-19)
(1.36315 0.356268 2.15425e-20)
(0.55587 0.135142 6.21216e-20)
(2.28631 0.493424 2.28463e-19)
(2.26273 0.497756 -7.57347e-20)
(2.23238 0.496807 3.81498e-19)
(2.1971 0.493482 1.03652e-18)
(2.15394 0.48649 -3.84657e-19)
(2.08854 0.471677 -1.32944e-18)
(1.96958 0.441354 9.37559e-19)
(1.72508 0.375236 8.48572e-19)
(1.24322 0.24196 -4.35238e-19)
(0.458467 0.0779521 -1.42131e-20)
(2.30325 0.422519 -4.36543e-19)
(2.27389 0.421901 -4.57358e-21)
(2.2394 0.418205 5.80831e-19)
(2.1965 0.41055 5.84377e-19)
(2.13896 0.398028 4.08895e-19)
(2.05131 0.375539 -6.43398e-19)
(1.89414 0.335029 3.91662e-20)
(1.59445 0.26 -3.3178e-19)
(1.07227 0.137479 -4.93829e-19)
(0.351194 0.0349566 -9.68854e-21)
(0.466822 0.368526 2.13204e-20)
(0.430244 0.380738 -8.03145e-20)
(0.390258 0.393585 -1.55061e-20)
(0.34726 0.406748 4.54778e-20)
(0.300971 0.419357 -3.10955e-20)
(0.250841 0.429101 -5.14336e-20)
(0.196285 0.43012 -5.54713e-21)
(0.136258 0.409663 -3.12919e-20)
(0.0719052 0.343521 9.70349e-20)
(0.0270642 0.181785 1.15383e-20)
(0.514698 0.464017 -1.31256e-20)
(0.47839 0.480654 1.70401e-20)
(0.439115 0.497928 -4.60832e-20)
(0.396927 0.515535 1.14124e-20)
(0.351353 0.53267 3.98008e-20)
(0.301633 0.54695 3.26582e-20)
(0.246675 0.551858 1.27454e-19)
(0.184645 0.532504 -5.78453e-20)
(0.113371 0.457533 6.67455e-20)
(0.0490307 0.250936 -9.44629e-21)
(0.580917 0.552909 -5.52249e-20)
(0.546236 0.573911 4.80619e-20)
(0.508943 0.595737 5.79681e-20)
(0.468739 0.61815 3.64813e-20)
(0.424872 0.640347 1.64072e-20)
(0.376196 0.659845 1.54068e-19)
(0.320914 0.669529 -4.81432e-20)
(0.256078 0.652414 -6.71432e-20)
(0.17525 0.569945 1.64003e-23)
(0.0828348 0.319264 1.2534e-20)
(0.651952 0.637757 1.11659e-19)
(0.618549 0.663021 4.22428e-20)
(0.583597 0.68892 -1.77363e-19)
(0.546162 0.715537 -7.53152e-20)
(0.505172 0.742262 -3.88382e-20)
(0.459198 0.766511 -7.83663e-20)
(0.405704 0.780409 -2.49311e-19)
(0.340164 0.764922 8.17065e-20)
(0.250669 0.674981 -5.87173e-20)
(0.125383 0.382633 -9.75294e-20)
(0.739031 0.711169 -7.21734e-21)
(0.707335 0.74042 -1.73643e-19)
(0.675043 0.77014 1.31854e-19)
(0.640676 0.800735 -7.06325e-20)
(0.602857 0.831728 -1.34962e-19)
(0.559843 0.860425 1.98787e-19)
(0.508357 0.878239 9.9985e-20)
(0.442092 0.864356 -1.27069e-19)
(0.342554 0.768031 -2.66107e-19)
(0.177329 0.437936 4.58977e-20)
(0.838724 0.777967 4.5586e-21)
(0.809082 0.810599 -2.84499e-22)
(0.779515 0.842848 1.03327e-20)
(0.748034 0.87586 6.20263e-20)
(0.71324 0.909563 2.06627e-19)
(0.673269 0.941158 -2.0547e-19)
(0.623993 0.961287 -1.40177e-19)
(0.556904 0.947745 -4.74672e-20)
(0.446076 0.845341 1.11919e-19)
(0.235707 0.482723 1.51919e-19)
(0.943856 0.827415 -1.46368e-19)
(0.919741 0.863545 7.61674e-20)
(0.896818 0.898776 2.88862e-19)
(0.87152 0.934477 -1.89465e-19)
(0.84173 0.970771 -4.25993e-19)
(0.805382 1.00495 1.90423e-19)
(0.757848 1.0272 6.18337e-19)
(0.688572 1.01422 1.55921e-19)
(0.563335 0.907343 -3.75635e-20)
(0.300679 0.518046 2.15512e-19)
(1.04736 0.869754 -3.19193e-19)
(1.02312 0.906859 -1.12612e-19)
(1.00397 0.942899 3.07177e-19)
(0.985211 0.980332 -1.12033e-19)
(0.963252 1.01889 9.73803e-20)
(0.934379 1.05497 4.0649e-19)
(0.892214 1.07783 -4.36147e-19)
(0.823305 1.0638 -3.91131e-19)
(0.6848 0.951385 3.27883e-19)
(0.367797 0.540829 -3.34382e-21)
(1.16968 0.887596 -1.46121e-20)
(1.15325 0.92672 4.2513e-20)
(1.13857 0.96243 -2.39477e-19)
(1.12209 0.999823 -8.71045e-20)
(1.10233 1.03986 5.042e-19)
(1.07624 1.0783 1.47615e-19)
(1.03618 1.10259 -1.23173e-19)
(0.965327 1.08834 0)
(0.811588 0.97233 -2.1421e-19)
(0.436273 0.548923 -1.10922e-19)
(1.2603 0.89171 0)
(1.25313 0.932633 0)
(1.25416 0.971054 6.77884e-19)
(1.25083 1.0095 1.55329e-19)
(1.24018 1.04902 -2.3475e-19)
(1.22 1.08621 4.17595e-19)
(1.18269 1.10841 -2.9114e-19)
(1.10924 1.09196 -7.84019e-19)
(0.938698 0.972333 3.98997e-19)
(0.503154 0.543531 2.07393e-19)
(0.976887 -0.0252071 -1.03494e-20)
(1.04196 0.0579632 -9.87831e-21)
(1.01619 0.186637 6.84158e-21)
(0.994625 0.241841 4.14208e-21)
(0.961806 0.234296 1.53596e-20)
(0.925712 0.226196 2.7403e-20)
(0.898932 0.212896 -1.36503e-20)
(0.838181 0.230184 -1.86251e-20)
(0.792396 0.252434 -8.23188e-20)
(0.630274 0.306973 6.18308e-20)
(0.976485 -0.0289772 -5.1382e-22)
(1.04235 0.0555971 8.34555e-21)
(1.01533 0.191786 1.21692e-22)
(0.994029 0.250637 8.42727e-21)
(0.96195 0.243389 1.16881e-20)
(0.925896 0.235337 -3.97391e-20)
(0.904152 0.22426 -1.44285e-20)
(0.85131 0.245667 2.49062e-22)
(0.81308 0.285028 2.08194e-19)
(0.672559 0.374466 1.47263e-21)
(0.975864 -0.0326632 1.38012e-21)
(1.04326 0.0538147 1.5351e-20)
(1.01499 0.197493 -6.40848e-21)
(0.993791 0.259561 -1.04823e-21)
(0.961298 0.252254 -1.42237e-20)
(0.925069 0.243805 2.86717e-21)
(0.907476 0.23367 1.88856e-20)
(0.864074 0.259612 -1.74527e-20)
(0.83258 0.315004 1.1058e-19)
(0.724809 0.437528 -2.66199e-19)
(0.974942 -0.0362886 1.22408e-21)
(1.04479 0.0525484 -1.51088e-21)
(1.0153 0.203819 -7.37283e-21)
(0.993542 0.268808 -2.04237e-20)
(0.959634 0.260986 3.05569e-20)
(0.92391 0.251626 2.47589e-20)
(0.909799 0.241066 -2.41577e-20)
(0.876416 0.27232 8.76684e-20)
(0.851849 0.341429 -9.96811e-20)
(0.78378 0.497821 -2.78794e-19)
(0.973637 -0.0399046 7.27864e-22)
(1.04717 0.0517137 -1.33884e-20)
(1.01635 0.210889 2.11668e-21)
(0.992929 0.278591 3.40137e-20)
(0.957554 0.269521 1.15328e-20)
(0.923523 0.25864 5.46573e-20)
(0.912043 0.246598 2.91516e-20)
(0.888377 0.284224 7.07831e-20)
(0.869893 0.364139 -4.43149e-21)
(0.853162 0.551078 2.164e-19)
(0.971883 -0.0436294 7.01072e-22)
(1.05067 0.0512456 2.6245e-22)
(1.0179 0.218888 8.5261e-22)
(0.992045 0.288966 9.67936e-21)
(0.956763 0.27754 -3.88521e-20)
(0.924945 0.264769 7.8696e-21)
(0.91508 0.250743 -5.27594e-21)
(0.899565 0.295837 -2.09453e-19)
(0.889165 0.381856 0)
(0.931945 0.601659 -2.6397e-20)
(0.969629 -0.0475087 -7.90153e-22)
(1.05508 0.0510275 1.97835e-21)
(1.01944 0.227955 8.47734e-22)
(0.991947 0.299556 -4.77502e-20)
(0.959128 0.284608 -1.4163e-20)
(0.92869 0.270149 -6.87816e-20)
(0.919952 0.253978 4.62172e-21)
(0.910622 0.307322 5.95589e-21)
(0.911646 0.395389 -2.54376e-21)
(1.00883 0.640319 7.99e-19)
(0.966794 -0.0513684 -1.09626e-20)
(1.05936 0.0508495 -6.5672e-22)
(1.02093 0.237922 -1.22511e-21)
(0.994282 0.309578 2.31409e-20)
(0.965669 0.29049 -6.18467e-20)
(0.934996 0.274895 1.62202e-20)
(0.928388 0.256478 -3.28947e-21)
(0.923417 0.318627 2.29672e-20)
(0.937814 0.404054 1.33771e-19)
(1.10463 0.685689 -5.52028e-20)
(0.96332 -0.0551217 2.8631e-21)
(1.06207 0.0508714 1.70116e-22)
(1.02354 0.24819 5.413e-22)
(1.00048 0.318306 4.49424e-20)
(0.977036 0.29502 6.29434e-21)
(0.944991 0.279041 2.67321e-20)
(0.943814 0.258184 -4.86027e-20)
(0.940451 0.328921 6.26171e-20)
(0.976039 0.401892 2.60047e-19)
(1.17729 0.703083 -6.38464e-19)
(0.959581 -0.0587017 6.32481e-21)
(1.0617 0.0518007 9.57561e-21)
(1.02866 0.259188 7.05199e-22)
(1.01194 0.325632 -1.28615e-20)
(0.995355 0.297567 6.99923e-20)
(0.964245 0.282421 -3.67011e-20)
(0.972897 0.260275 -1.59015e-20)
(0.968804 0.340452 3.99328e-20)
(1.02711 0.419533 -1.17642e-19)
(1.30196 0.759449 3.66527e-19)
(0.955675 -0.0616819 -1.95674e-21)
(1.05383 0.0468619 -5.25156e-21)
(1.04078 0.265201 -7.10701e-21)
(1.03716 0.333167 -3.45542e-20)
(1.03861 0.30137 -4.10439e-20)
(1.02106 0.28832 -4.65314e-20)
(1.04511 0.255237 1.4831e-20)
(1.04149 0.347004 -1.33415e-19)
(1.08167 0.36004 -4.57308e-19)
(1.30035 0.742024 -9.24247e-20)
(0.950664 -0.064035 -1.68615e-20)
(1.03413 0.033602 -7.92423e-21)
(1.06129 0.25513 2.23866e-21)
(1.09283 0.333487 -6.38095e-22)
(1.1525 0.294421 2.30339e-20)
(1.13715 0.289707 6.22789e-20)
(1.23817 0.240286 1.54191e-20)
(1.17061 0.349014 1.07276e-19)
(1.30106 0.322832 1.93776e-19)
(1.34556 0.622249 3.00504e-19)
(0.944667 -0.0631886 -2.31142e-21)
(1.01459 0.0186604 -3.02916e-21)
(1.08691 0.228686 3.71809e-21)
(1.16147 0.312613 7.39438e-21)
(1.30549 0.276976 4.03891e-35)
(1.2442 0.271733 -7.58557e-21)
(1.49685 0.227146 -4.37578e-34)
(1.27118 0.339686 1.74085e-20)
(1.62008 0.293391 -4.47707e-20)
(1.46855 0.53392 -2.35381e-19)
(0.940764 -0.0566962 2.30559e-20)
(0.994463 -0.00293398 -2.71346e-35)
(1.10534 0.183475 -3.72775e-21)
(1.22108 0.265965 6.20369e-21)
(1.4391 0.253216 -8.72796e-21)
(1.32913 0.232934 -4.28858e-21)
(1.70808 0.213405 -5.38419e-34)
(1.38141 0.319577 -5.57094e-20)
(1.85175 0.253772 -1.15412e-19)
(1.64918 0.473376 2.57189e-19)
(0.942239 -0.0463034 0)
(0.983472 -0.0261365 -5.88082e-35)
(1.10722 0.124192 0)
(1.26388 0.200035 0)
(1.50582 0.224784 0)
(1.41852 0.184922 0)
(1.78846 0.191119 -3.61667e-34)
(1.52642 0.293909 0)
(1.93271 0.206986 -1.70531e-20)
(1.82193 0.416871 1.50421e-19)
(0.947117 -0.0367057 3.20874e-21)
(0.988654 -0.0462864 -3.28101e-21)
(1.10148 0.0583933 -4.42608e-21)
(1.2795 0.125151 0)
(1.51164 0.188523 0)
(1.49427 0.135696 7.04746e-21)
(1.77593 0.163253 3.4377e-20)
(1.66035 0.266212 -1.29602e-20)
(1.92819 0.162305 -2.60708e-20)
(1.95566 0.346313 9.99947e-20)
(0.951888 -0.0317595 -5.14886e-20)
(1.01439 -0.0670427 2.84047e-21)
(1.09268 -0.00666297 -5.52319e-21)
(1.26069 0.0544475 -2.6298e-20)
(1.45798 0.138172 -1.39904e-20)
(1.52064 0.0902886 -5.3975e-22)
(1.69332 0.129955 -3.20709e-20)
(1.72972 0.229718 -9.89855e-21)
(1.88577 0.122075 -4.40035e-20)
(2.02822 0.269313 1.25136e-19)
(0.953648 -0.0322433 -5.62421e-21)
(1.05289 -0.0796162 -1.24856e-20)
(1.06234 -0.053447 -6.60614e-21)
(1.19184 0.00413224 -5.62125e-21)
(1.31081 0.0824406 1.80052e-35)
(1.46572 0.0496869 8.02135e-21)
(1.48613 0.0936473 -8.04845e-34)
(1.70189 0.17754 -1.2182e-20)
(1.76775 0.0790078 1.82266e-20)
(1.99415 0.192923 2.27241e-20)
(0.947204 -0.0484897 1.34643e-19)
(1.05925 -0.0847335 -6.40963e-21)
(0.947315 -0.0755464 -7.89246e-21)
(0.989186 -0.0225659 1.18765e-20)
(1.02683 0.0279171 6.21758e-21)
(1.1891 0.0190617 1.30189e-20)
(1.10674 0.0566621 1.0518e-20)
(1.47856 0.0897423 -2.62141e-20)
(1.43754 0.040479 -2.43413e-20)
(1.73227 0.108458 7.5656e-20)
(0.872875 -0.0344084 6.81113e-21)
(0.849256 -0.0612855 -5.81118e-35)
(0.544887 -0.0443598 -8.25631e-21)
(0.490699 -0.00947437 0)
(0.487694 0.00551893 0)
(0.560843 0.00862977 8.25743e-21)
(0.545672 0.0173201 -8.07309e-36)
(0.798536 0.0234402 -1.18384e-20)
(0.770385 0.0158452 -2.76198e-20)
(1.01183 0.0391415 -3.65864e-20)
(1.54816 0.758732 1.52778e-19)
(1.66284 0.74691 -6.32916e-20)
(1.78808 0.727717 -3.30825e-21)
(1.90494 0.701108 5.99313e-20)
(2.00868 0.666442 -2.48721e-19)
(2.10185 0.624077 -4.54722e-19)
(2.18338 0.575633 -2.10541e-19)