/*--------------------------------*- C++ -*----------------------------------*\
| =========                 |                                                 |
| \\      /  F ield         | OpenFOAM: The Open Source CFD Toolbox           |
|  \\    /   O peration     | Version:  2406                                  |
|   \\  /    A nd           | Website:  www.openfoam.com                      |
|    \\/     M anipulation  |                                                 |
\*---------------------------------------------------------------------------*/
FoamFile
{
    version     2.0;
    format      ascii;
    arch        "LSB;label=32;scalar=64";
    class       volVectorField;
    location    "0.65";
    object      flux;
}
// * * * * * * * * * * * * * * * * * * * * * * * * * * * * * * * * * * * * * //

dimensions      [0 1 -1 1 0 0 0];

internalField   nonuniform List<vector> 
2500
(
(0.000764169 0.000764169 0)
(0.00227898 0.000765625 0)
(0.00375797 0.000768748 0)
(0.00517957 0.000773336 0)
(0.00652011 0.000779344 0)
(0.00775866 0.0007867 0)
(0.0088759 0.000795311 0)
(0.00985441 0.00080507 0)
(0.010679 0.000815854 0)
(0.0113367 0.000827533 0)
(0.0118176 0.000839965 0)
(0.0121141 0.000853005 0)
(0.0122219 0.000866505 0)
(0.0121395 0.000880318 0)
(0.0118684 0.000894298 0)
(0.0114132 0.000908306 0)
(0.0107812 0.00092221 0)
(0.00998273 0.000935889 0)
(0.00903066 0.000949234 0)
(0.00794026 0.000962149 0)
(0.00672898 0.000974554 0)
(0.00541619 0.000986384 0)
(0.00402282 0.000997592 0)
(0.00257107 0.00100814 0)
(0.001084 0.00101803 0)
(-0.000414784 0.00102724 0)
(-0.00190155 0.00103579 0)
(-0.00335282 0.0010437 0)
(-0.0047457 0.00105102 0)
(-0.0060583 0.00105777 0)
(-0.00727006 0.00106401 0)
(-0.00836205 0.00106979 0)
(-0.00931731 0.00107516 0)
(-0.0101211 0.00108016 0)
(-0.010761 0.00108484 0)
(-0.0112274 0.00108924 0)
(-0.0115133 0.00109339 0)
(-0.0116146 0.00109731 0)
(-0.0115302 0.00110102 0)
(-0.0112618 0.00110451 0)
(-0.0108141 0.00110779 0)
(-0.0101945 0.00111085 0)
(-0.00941299 0.00111366 0)
(-0.00848233 0.00111621 0)
(-0.0074174 0.00111848 0)
(-0.00623521 0.00112045 0)
(-0.00495459 0.00112209 0)
(-0.00359591 0.0011234 0)
(-0.00218067 0.00112428 0)
(-0.000730826 0.00112418 0)
(0.000765625 0.00227898 0)
(0.00228356 0.00228356 0)
(0.00376569 0.00229288 0)
(0.00519016 0.00230661 0)
(0.00653347 0.00232461 0)
(0.00777463 0.00234665 0)
(0.00889427 0.00237244 0)
(0.00987496 0.00240167 0)
(0.0107014 0.00243398 0)
(0.0113608 0.00246896 0)
(0.0118431 0.0025062 0)
(0.0121407 0.00254528 0)
(0.0122492 0.00258573 0)
(0.0121673 0.00262714 0)
(0.0118964 0.00266905 0)
(0.0114411 0.00271107 0)
(0.0108088 0.00275279 0)
(0.0100098 0.00279386 0)
(0.00905692 0.00283395 0)
(0.00796558 0.00287278 0)
(0.00675321 0.00291012 0)
(0.00543923 0.00294577 0)
(0.00404458 0.00297959 0)
(0.0025915 0.00301149 0)
(0.00110309 0.00304142 0)
(-0.000397023 0.00306939 0)
(-0.00188509 0.00309542 0)
(-0.00333759 0.0031196 0)
(-0.00473163 0.00314203 0)
(-0.00604531 0.00316282 0)
(-0.00725804 0.00318213 0)
(-0.00835091 0.00320009 0)
(-0.00930694 0.00321686 0)
(-0.0101114 0.00323257 0)
(-0.0107519 0.00324736 0)
(-0.0112188 0.00326132 0)
(-0.0115052 0.00327454 0)
(-0.011607 0.00328708 0)
(-0.011523 0.00329898 0)
(-0.0112551 0.00331024 0)
(-0.0108078 0.00332083 0)
(-0.0101886 0.00333072 0)
(-0.00940762 0.00333983 0)
(-0.00847751 0.00334811 0)
(-0.00741317 0.00335546 0)
(-0.0062316 0.00336182 0)
(-0.00495164 0.00336714 0)
(-0.00359373 0.0033714 0)
(-0.00217989 0.00337455 0)
(-0.000730921 0.00337545 0)
(0.000768748 0.00375797 0)
(0.00229288 0.00376569 0)
(0.00378103 0.00378103 0)
(0.0052113 0.00380373 0)
(0.00656014 0.00383348 0)
(0.00780649 0.00386992 0)
(0.00893093 0.00391259 0)
(0.00991595 0.00396095 0)
(0.0107462 0.00401441 0)
(0.011409 0.00407232 0)
(0.0118939 0.00413399 0)
(0.0121937 0.00419872 0)
(0.0123038 0.00426579 0)
(0.0122228 0.00433446 0)
(0.0119523 0.00440405 0)
(0.0114969 0.00447387 0)
(0.010864 0.00454328 0)
(0.0100639 0.0046117 0)
(0.00910958 0.0046786 0)
(0.00801642 0.00474353 0)
(0.00680196 0.0048061 0)
(0.00548566 0.00486602 0)
(0.00408854 0.00492305 0)
(0.0026329 0.00497706 0)
(0.0011419 0.00502797 0)
(-0.000360784 0.00507579 0)
(-0.00185134 0.00512059 0)
(-0.00330621 0.00516249 0)
(-0.00470248 0.00520166 0)
(-0.0060182 0.00523831 0)
(-0.00723279 0.00527265 0)
(-0.00832732 0.00530493 0)
(-0.00928483 0.00533536 0)
(-0.0100906 0.00536417 0)
(-0.0107322 0.00539154 0)
(-0.0112002 0.00541763 0)
(-0.0114875 0.00544254 0)
(-0.0115902 0.00546634 0)
(-0.0115071 0.00548905 0)
(-0.01124 0.00551064 0)
(-0.0107936 0.00553103 0)
(-0.0101755 0.00555011 0)
(-0.0093956 0.00556774 0)
(-0.0084667 0.00558375 0)
(-0.00740369 0.00559797 0)
(-0.00622353 0.00561024 0)
(-0.00494501 0.00562042 0)
(-0.0035885 0.00562843 0)
(-0.00217662 0.00563421 0)
(-0.000729924 0.00563696 0)
(0.000773336 0.00517957 0)
(0.00230661 0.00519016 0)
(0.00380373 0.0052113 0)
(0.00524261 0.00524261 0)
(0.00659967 0.00528369 0)
(0.00785374 0.00533403 0)
(0.0089853 0.00539298 0)
(0.00997677 0.00545983 0)
(0.0108128 0.00553376 0)
(0.0114804 0.0056139 0)
(0.0119695 0.00569929 0)
(0.0122725 0.00578899 0)
(0.012385 0.00588201 0)
(0.0123056 0.00597737 0)
(0.0120358 0.00607412 0)
(0.0115803 0.00617134 0)
(0.0109466 0.00626818 0)
(0.0101451 0.00636384 0)
(0.00918875 0.00645763 0)
(0.00809308 0.00654894 0)
(0.0068757 0.00663726 0)
(0.00555617 0.00672219 0)
(0.00415562 0.00680345 0)
(0.00269642 0.00688086 0)
(0.00120183 0.00695435 0)
(-0.000304403 0.00702392 0)
(-0.00179839 0.00708968 0)
(-0.00325652 0.00715181 0)
(-0.00465581 0.00721055 0)
(-0.00597432 0.00726617 0)
(-0.00719142 0.00731895 0)
(-0.0082882 0.00736921 0)
(-0.0092477 0.00741722 0)
(-0.0100552 0.00746325 0)
(-0.0106985 0.0075075 0)
(-0.0111678 0.00755014 0)
(-0.0114565 0.00759125 0)
(-0.0115605 0.00763085 0)
(-0.0114787 0.0076689 0)
(-0.0112131 0.00770525 0)
(-0.0107683 0.00773972 0)
(-0.0101519 0.00777208 0)
(-0.00937399 0.00780202 0)
(-0.00844728 0.00782923 0)
(-0.00738668 0.0078534 0)
(-0.00620915 0.00787421 0)
(-0.00493345 0.00789135 0)
(-0.00357994 0.00790459 0)
(-0.00217136 0.00791367 0)
(-0.000728171 0.00791823 0)
(0.000779344 0.00652011 0)
(0.00232461 0.00653347 0)
(0.00383348 0.00656014 0)
(0.00528369 0.00659967 0)
(0.00665155 0.00665155 0)
(0.00791578 0.00671515 0)
(0.00905674 0.00678968 0)
(0.0100567 0.00687423 0)
(0.0109003 0.0069678 0)
(0.0115745 0.00706928 0)
(0.012069 0.00717753 0)
(0.0123764 0.00729135 0)
(0.0124922 0.00740953 0)
(0.0124149 0.00753086 0)
(0.0121463 0.00765418 0)
(0.0116909 0.00777836 0)
(0.0110565 0.00790235 0)
(0.0102533 0.0080252 0)
(0.00929468 0.00814606 0)
(0.00819605 0.00826421 0)
(0.00697522 0.00837904 0)
(0.00565185 0.0084901 0)
(0.00424721 0.00859705 0)
(0.00278379 0.00869972 0)
(0.00128495 0.00879801 0)
(-0.000225449 0.008892 0)
(-0.00172344 0.00898181 0)
(-0.00318534 0.0090677 0)
(-0.00458813 0.00914994 0)
(-0.0059098 0.00922888 0)
(-0.00712975 0.00930486 0)
(-0.00822905 0.00937822 0)
(-0.00919079 0.00944928 0)
(-0.0100003 0.00951829 0)
(-0.0106454 0.00958544 0)
(-0.0111164 0.00965083 0)
(-0.0114068 0.00971446 0)
(-0.0115125 0.00977623 0)
(-0.0114327 0.00983594 0)
(-0.0111692 0.00989328 0)
(-0.0107268 0.00994787 0)
(-0.0101132 0.00999924 0)
(-0.00933844 0.0100469 0)
(-0.00841532 0.0100902 0)
(-0.00735872 0.0101287 0)
(-0.00618558 0.0101618 0)
(-0.00491463 0.010189 0)
(-0.00356619 0.0102099 0)
(-0.00216298 0.0102241 0)
(-0.000725361 0.0102312 0)
(0.0007867 0.00775866 0)
(0.00234665 0.00777463 0)
(0.00386992 0.00780649 0)
(0.00533403 0.00785374 0)
(0.00671515 0.00791578 0)
(0.00799186 0.00799186 0)
(0.00914438 0.00808107 0)
(0.0101549 0.00818234 0)
(0.0110078 0.00829449 0)
(0.0116902 0.00841625 0)
(0.0121915 0.00854627 0)
(0.0125045 0.00868316 0)
(0.0126245 0.00882552 0)
(0.0125502 0.00897195 0)
(0.0122833 0.00912111 0)
(0.0118285 0.00927171 0)
(0.0111934 0.00942256 0)
(0.0103888 0.00957258 0)
(0.00942776 0.00972081 0)
(0.00832606 0.00986645 0)
(0.0071016 0.0100089 0)
(0.00577419 0.0101475 0)
(0.00436524 0.0102821 0)
(0.00289738 0.0104125 0)
(0.00139411 0.0105386 0)
(-0.000120603 0.0106605 0)
(-0.00162269 0.0107784 0)
(-0.00308839 0.0108927 0)
(-0.00449463 0.0110036 0)
(-0.0058194 0.0111116 0)
(-0.00704208 0.011217 0)
(-0.00814378 0.0113203 0)
(-0.00910763 0.0114215 0)
(-0.00991904 0.0115211 0)
(-0.0105659 0.0116191 0)
(-0.0110388 0.0117154 0)
(-0.0113311 0.0118099 0)
(-0.011439 0.0119022 0)
(-0.0113617 0.011992 0)
(-0.0111012 0.0120785 0)
(-0.0106623 0.0121612 0)
(-0.0100529 0.0122392 0)
(-0.00928303 0.0123116 0)
(-0.00836546 0.0123775 0)
(-0.00731509 0.0124361 0)
(-0.00614884 0.0124865 0)
(-0.00488535 0.0125279 0)
(-0.00354487 0.0125596 0)
(-0.00215002 0.0125811 0)
(-0.000721017 0.012592 0)
(0.000795311 0.0088759 0)
(0.00237244 0.00889427 0)
(0.00391259 0.00893093 0)
(0.00539298 0.0089853 0)
(0.00678968 0.00905674 0)
(0.00808107 0.00914438 0)
(0.00924721 0.00924721 0)
(0.0102701 0.00936404 0)
(0.0111342 0.00949354 0)
(0.0118263 0.0096343 0)
(0.0123359 0.00978482 0)
(0.0126556 0.00994356 0)
(0.012781 0.010109 0)
(0.0127105 0.0102795 0)
(0.0124461 0.0104537 0)
(0.0119924 0.0106302 0)
(0.0113573 0.0108076 0)
(0.0105516 0.0109848 0)
(0.00958856 0.0111609 0)
(0.00848409 0.0113349 0)
(0.00725629 0.0115062 0)
(0.00592513 0.0116744 0)
(0.00451218 0.0118392 0)
(0.00304024 0.0120003 0)
(0.00153295 0.012158 0)
(1.43997e-05 0.0123122 0)
(-0.00149124 0.0124634 0)
(-0.00296015 0.0126119 0)
(-0.0043692 0.012758 0)
(-0.00569638 0.0129023 0)
(-0.00692111 0.013045 0)
(-0.00802454 0.0131865 0)
(-0.00898992 0.0133271 0)
(-0.00980275 0.0134668 0)
(-0.0104511 0.0136055 0)
(-0.0109257 0.013743 0)
(-0.01122 0.0138788 0)
(-0.0113304 0.0140124 0)
(-0.0112564 0.0141427 0)
(-0.0109999 0.0142689 0)
(-0.0105662 0.0143897 0)
(-0.00996277 0.0145039 0)
(-0.00920007 0.0146101 0)
(-0.00829076 0.0147069 0)
(-0.00724972 0.0147929 0)
(-0.00609379 0.014867 0)
(-0.00484151 0.0149278 0)
(-0.00351298 0.0149743 0)
(-0.00213066 0.0150058 0)
(-0.000714526 0.0150217 0)
(0.00080507 0.00985441 0)
(0.00240167 0.00987496 0)
(0.00396095 0.00991595 0)
(0.00545983 0.00997677 0)
(0.00687423 0.0100567 0)
(0.00818234 0.0101549 0)
(0.00936404 0.0102701 0)
(0.0104012 0.0104012 0)
(0.0112781 0.0105467 0)
(0.0119815 0.010705 0)
(0.0125008 0.0108746 0)
(0.0128286 0.0110539 0)
(0.0129604 0.0112411 0)
(0.0128949 0.0114346 0)
(0.0126339 0.011633 0)
(0.0121823 0.0118347 0)
(0.0115481 0.0120385 0)
(0.0107421 0.0122431 0)
(0.00977784 0.0124476 0)
(0.00867143 0.0126512 0)
(0.00744114 0.0128533 0)
(0.00610713 0.0130534 0)
(0.00469115 0.0132514 0)
(0.00321618 0.0134472 0)
(0.00170601 0.013641 0)
(0.000184844 0.013833 0)
(-0.00132305 0.0140237 0)
(-0.00279379 0.0142134 0)
(-0.00420425 0.0144027 0)
(-0.00553243 0.014592 0)
(-0.00675781 0.0147816 0)
(-0.00786166 0.0149718 0)
(-0.00882737 0.0151627 0)
(-0.00964063 0.0153542 0)
(-0.0102897 0.0155459 0)
(-0.0107655 0.0157371 0)
(-0.0110618 0.0159272 0)
(-0.0111752 0.0161148 0)
(-0.0111052 0.0162988 0)
(-0.0108542 0.0164773 0)
(-0.0104273 0.0166486 0)
(-0.0098325 0.0168108 0)
(-0.00908002 0.0169619 0)
(-0.00818258 0.0170997 0)
(-0.00715501 0.0172223 0)
(-0.00601403 0.0173278 0)
(-0.00477799 0.0174144 0)
(-0.00346678 0.0174808 0)
(-0.00210261 0.0175257 0)
(-0.000705126 0.0175483 0)
(0.000815854 0.010679 0)
(0.00243398 0.0107014 0)
(0.00401441 0.0107462 0)
(0.00553376 0.0108128 0)
(0.0069678 0.0109003 0)
(0.00829449 0.0110078 0)
(0.00949354 0.0111342 0)
(0.0105467 0.0112781 0)
(0.011438 0.011438 0)
(0.0121542 0.0116124 0)
(0.0126847 0.0117995 0)
(0.0130221 0.0119978 0)
(0.0131617 0.0122055 0)
(0.0131025 0.0124209 0)
(0.0128462 0.0126426 0)
(0.0123979 0.0128691 0)
(0.0117657 0.013099 0)
(0.0109607 0.0133314 0)
(0.00999664 0.0135653 0)
(0.00888972 0.0137999 0)
(0.00765845 0.0140349 0)
(0.00632322 0.0142699 0)
(0.00490597 0.0145048 0)
(0.00342985 0.0147399 0)
(0.00191879 0.0149754 0)
(0.000397128 0.0152117 0)
(-0.0011108 0.0154494 0)
(-0.00258109 0.015689 0)
(-0.00399063 0.0159309 0)
(-0.00531749 0.0161757 0)
(-0.00654128 0.0164237 0)
(-0.00764344 0.016675 0)
(-0.00860758 0.0169294 0)
(-0.00941963 0.0171866 0)
(-0.0100681 0.0174458 0)
(-0.0105443 0.017706 0)
(-0.0108423 0.0179657 0)
(-0.0109589 0.0182232 0)
(-0.0108939 0.0184763 0)
(-0.0106501 0.0187226 0)
(-0.0102326 0.0189594 0)
(-0.0096495 0.0191839 0)
(-0.00891119 0.0193932 0)
(-0.00803034 0.0195844 0)
(-0.00702167 0.0197545 0)
(-0.00590169 0.0199008 0)
(-0.00468853 0.0200211 0)
(-0.00340172 0.0201133 0)
(-0.00206311 0.0201756 0)
(-0.000691888 0.0202071 0)
(0.000827533 0.0113367 0)
(0.00246896 0.0113608 0)
(0.00407232 0.011409 0)
(0.0056139 0.0114804 0)
(0.00706928 0.0115745 0)
(0.00841625 0.0116902 0)
(0.0096343 0.0118263 0)
(0.010705 0.0119815 0)
(0.0116124 0.0121542 0)
(0.012343 0.012343 0)
(0.0128862 0.0125461 0)
(0.0132345 0.0127618 0)
(0.0133836 0.0129886 0)
(0.0133321 0.0132248 0)
(0.0130821 0.013469 0)
(0.0126388 0.0137198 0)
(0.0120104 0.013976 0)
(0.0112083 0.0142366 0)
(0.0102463 0.0145011 0)
(0.00914102 0.0147687 0)
(0.00791107 0.0150392 0)
(0.00657708 0.0153126 0)
(0.00516121 0.0155891 0)
(0.00368677 0.0158689 0)
(0.00217784 0.0161527 0)
(0.000658855 0.016441 0)
(-0.000845818 0.0167345 0)
(-0.00231227 0.0170339 0)
(-0.00371748 0.0173397 0)
(-0.00503965 0.0176525 0)
(-0.00625857 0.0179723 0)
(-0.00735598 0.0182992 0)
(-0.00831575 0.0186328 0)
(-0.00912422 0.0189722 0)
(-0.00977027 0.0193163 0)
(-0.0102456 0.0196633 0)
(-0.0105446 0.0200111 0)
(-0.0106646 0.0203569 0)
(-0.0106058 0.0206977 0)
(-0.0103711 0.0210301 0)
(-0.00996598 0.0213502 0)
(-0.00939866 0.0216541 0)
(-0.00867958 0.0219377 0)
(-0.00782135 0.0221969 0)
(-0.00683852 0.0224276 0)
(-0.00574735 0.0226263 0)
(-0.00456558 0.0227896 0)
(-0.00331229 0.0229146 0)
(-0.00200881 0.0229993 0)
(-0.000673693 0.023042 0)
(0.000839965 0.0118176 0)
(0.0025062 0.0118431 0)
(0.00413399 0.0118939 0)
(0.00569929 0.0119695 0)
(0.00717753 0.012069 0)
(0.00854627 0.0121915 0)
(0.00978482 0.0123359 0)
(0.0108746 0.0125008 0)
(0.0117995 0.0126847 0)
(0.0125461 0.0128862 0)
(0.0131036 0.0131036 0)
(0.0134646 0.0133353 0)
(0.0136247 0.0135799 0)
(0.0135828 0.0138358 0)
(0.0133411 0.0141017 0)
(0.0129049 0.0143765 0)
(0.0122826 0.0146592 0)
(0.0114858 0.014949 0)
(0.0105287 0.0152455 0)
(0.00942787 0.0155484 0)
(0.00820241 0.0158578 0)
(0.0068731 0.0161739 0)
(0.0054623 0.0164972 0)
(0.0039935 0.0168283 0)
(0.00249088 0.017168 0)
(0.000978949 0.0175173 0)
(-0.000517918 0.017877 0)
(-0.00197589 0.0182478 0)
(-0.00337208 0.0186305 0)
(-0.00468493 0.0190256 0)
(-0.00589452 0.0194331 0)
(-0.00698295 0.0198527 0)
(-0.00793455 0.0202836 0)
(-0.00873611 0.0207247 0)
(-0.00937706 0.0211739 0)
(-0.00984959 0.0216287 0)
(-0.0101487 0.022086 0)
(-0.0102722 0.022542 0)
(-0.0102207 0.0229925 0)
(-0.00999755 0.0234326 0)
(-0.00960855 0.0238571 0)
(-0.00906203 0.0242606 0)
(-0.00836848 0.0246374 0)
(-0.00754045 0.024982 0)
(-0.00659224 0.025289 0)
(-0.00553974 0.0255535 0)
(-0.00440016 0.0257709 0)
(-0.00319195 0.0259375 0)
(-0.00193574 0.0260503 0)
(-0.000649205 0.0261071 0)
(0.000853005 0.0121141 0)
(0.00254528 0.0121407 0)
(0.00419872 0.0121937 0)
(0.00578899 0.0122725 0)
(0.00729135 0.0123764 0)
(0.00868316 0.0125045 0)
(0.00994356 0.0126556 0)
(0.0110539 0.0128286 0)
(0.0119978 0.0130221 0)
(0.0127618 0.0132345 0)
(0.0133353 0.0134646 0)
(0.0137108 0.0137108 0)
(0.013884 0.0139719 0)
(0.0138539 0.0142465 0)
(0.0136228 0.0145335 0)
(0.0131962 0.0148322 0)
(0.012583 0.0151418 0)
(0.0117946 0.015462 0)
(0.0108458 0.0157926 0)
(0.00975335 0.0161337 0)
(0.00853655 0.0164859 0)
(0.00721645 0.0168496 0)
(0.0058156 0.0172259 0)
(0.00435764 0.0176158 0)
(0.00286685 0.0180204 0)
(0.00136776 0.018441 0)
(-0.000115307 0.0188787 0)
(-0.00155868 0.0193345 0)
(-0.0029397 0.0198092 0)
(-0.00423713 0.0203032 0)
(-0.0054315 0.0208165 0)
(-0.0065054 0.0213485 0)
(-0.00744375 0.021898 0)
(-0.008234 0.022463 0)
(-0.00886627 0.0230409 0)
(-0.00933344 0.023628 0)
(-0.00963122 0.02422 0)
(-0.00975808 0.0248118 0)
(-0.00971523 0.0253976 0)
(-0.00950645 0.0259708 0)
(-0.00913801 0.0265244 0)
(-0.00861839 0.0270511 0)
(-0.00795817 0.0275435 0)
(-0.00716973 0.0279942 0)
(-0.00626705 0.0283959 0)
(-0.0052655 0.0287421 0)
(-0.00418159 0.0290268 0)
(-0.00303291 0.029245 0)
(-0.00183916 0.0293927 0)
(-0.000616835 0.0294672 0)
(0.000866505 0.0122219 0)
(0.00258573 0.0122492 0)
(0.00426579 0.0123038 0)
(0.00588201 0.012385 0)
(0.00740953 0.0124922 0)
(0.00882552 0.0126245 0)
(0.010109 0.012781 0)
(0.0112411 0.0129604 0)
(0.0122055 0.0131617 0)
(0.0129886 0.0133836 0)
(0.0135799 0.0136247 0)
(0.0139719 0.013884 0)
(0.0141604 0.0141604 0)
(0.0141445 0.0144528 0)
(0.0139269 0.0147607 0)
(0.0135132 0.0150834 0)
(0.0129124 0.0154208 0)
(0.0121366 0.0157728 0)
(0.0112004 0.01614 0)
(0.0101211 0.0165228 0)
(0.00891829 0.0169222 0)
(0.00761316 0.0173395 0)
(0.00622847 0.0177759 0)
(0.00478799 0.0182332 0)
(0.00331607 0.0187129 0)
(0.0018372 0.0192167 0)
(0.000375568 0.019746 0)
(-0.00104539 0.0203021 0)
(-0.00240337 0.020886 0)
(-0.0036776 0.0214981 0)
(-0.0048492 0.0221381 0)
(-0.00590144 0.0228052 0)
(-0.00682003 0.0234975 0)
(-0.00759324 0.0242124 0)
(-0.00821212 0.0249461 0)
(-0.00867045 0.0256938 0)
(-0.00896486 0.0264497 0)
(-0.00909465 0.0272069 0)
(-0.00906181 0.0279578 0)
(-0.00887074 0.0286936 0)
(-0.00852817 0.0294053 0)
(-0.00804287 0.0300832 0)
(-0.00742544 0.0307174 0)
(-0.00668809 0.0312982 0)
(-0.00584435 0.0318163 0)
(-0.00490888 0.032263 0)
(-0.00389727 0.0326305 0)
(-0.00282598 0.0329122 0)
(-0.00171348 0.0331031 0)
(-0.00057471 0.0331993 0)
(0.000880318 0.0121395 0)
(0.00262714 0.0121673 0)
(0.00433446 0.0122228 0)
(0.00597737 0.0123056 0)
(0.00753086 0.0124149 0)
(0.00897195 0.0125502 0)
(0.0102795 0.0127105 0)
(0.0114346 0.0128949 0)
(0.0124209 0.0131025 0)
(0.0132248 0.0133321 0)
(0.0138358 0.0135828 0)
(0.0142465 0.0138539 0)
(0.0144528 0.0141445 0)
(0.0144542 0.0144542 0)
(0.0142534 0.0147827 0)
(0.0138563 0.0151299 0)
(0.0132724 0.0154962 0)
(0.0125138 0.0158821 0)
(0.0115957 0.0162888 0)
(0.0105356 0.0167173 0)
(0.00935324 0.0171694 0)
(0.00807019 0.0176468 0)
(0.00670936 0.0181517 0)
(0.00529461 0.0186863 0)
(0.00385031 0.0192526 0)
(0.00240083 0.019853 0)
(0.000970152 0.0204894 0)
(-0.000418646 0.0211634 0)
(-0.00174376 0.021876 0)
(-0.00298505 0.0226278 0)
(-0.0041244 0.0234183 0)
(-0.005146 0.0242463 0)
(-0.00603655 0.0251093 0)
(-0.00678545 0.0260036 0)
(-0.00738488 0.0269244 0)
(-0.00782983 0.0278653 0)
(-0.00811805 0.0288187 0)
(-0.00824997 0.0297757 0)
(-0.00822851 0.0307263 0)
(-0.00805892 0.0316592 0)
(-0.00774848 0.0325626 0)
(-0.00730633 0.033424 0)
(-0.00674312 0.0342307 0)
(-0.00607078 0.03497 0)
(-0.00530226 0.03563 0)
(-0.00445133 0.0361992 0)
(-0.00353235 0.0366678 0)
(-0.00256033 0.0370271 0)
(-0.00155211 0.0372705 0)
(-0.000520618 0.0373933 0)
(0.000894298 0.0118684 0)
(0.00266905 0.0118964 0)
(0.00440405 0.0119523 0)
(0.00607412 0.0120358 0)
(0.00765418 0.0121463 0)
(0.00912111 0.0122833 0)
(0.0104537 0.0124461 0)
(0.011633 0.0126339 0)
(0.0126426 0.0128462 0)
(0.013469 0.0130821 0)
(0.0141017 0.0133411 0)
(0.0145335 0.0136228 0)
(0.0147607 0.0139269 0)
(0.0147827 0.0142534 0)
(0.0146025 0.0146025 0)
(0.0142267 0.014975 0)
(0.0136647 0.0153718 0)
(0.0129292 0.0157942 0)
(0.0120356 0.0162438 0)
(0.0110018 0.0167229 0)
(0.00984782 0.0172337 0)
(0.00859549 0.017779 0)
(0.00726787 0.0183616 0)
(0.00588889 0.0189844 0)
(0.00448287 0.0196506 0)
(0.00307399 0.0203628 0)
(0.00168591 0.0211236 0)
(0.000341217 0.0219351 0)
(-0.000938947 0.0227986 0)
(-0.00213529 0.0237146 0)
(-0.00323069 0.0246826 0)
(-0.0042105 0.0257008 0)
(-0.00506272 0.026766 0)
(-0.00577815 0.0278736 0)
(-0.00635046 0.0290172 0)
(-0.00677613 0.0301886 0)
(-0.0070544 0.0313783 0)
(-0.00718707 0.0325747 0)
(-0.00717831 0.0337649 0)
(-0.00703439 0.0349348 0)
(-0.00676338 0.036069 0)
(-0.00637481 0.0371517 0)
(-0.00587942 0.0381666 0)
(-0.00528881 0.0390976 0)
(-0.00461517 0.0399291 0)
(-0.0038711 0.0406468 0)
(-0.00306942 0.0412378 0)
(-0.00222323 0.0416912 0)
(-0.00134729 0.0419984 0)
(-0.000451956 0.0421534 0)
(0.000908306 0.0114132 0)
(0.00271107 0.0114411 0)
(0.00447387 0.0114969 0)
(0.00617134 0.0115803 0)
(0.00777836 0.0116909 0)
(0.00927171 0.0118285 0)
(0.0106302 0.0119924 0)
(0.0118347 0.0121823 0)
(0.0128691 0.0123979 0)
(0.0137198 0.0126388 0)
(0.0143765 0.0129049 0)
(0.0148322 0.0131962 0)
(0.0150834 0.0135132 0)
(0.0151299 0.0138563 0)
(0.014975 0.0142267 0)
(0.0146256 0.0146256 0)
(0.0140915 0.0150548 0)
(0.0133859 0.0155165 0)
(0.0125244 0.0160134 0)
(0.0115255 0.0165484 0)
(0.0104093 0.0171249 0)
(0.00919804 0.0177466 0)
(0.00791481 0.0184173 0)
(0.00658363 0.0191409 0)
(0.00522867 0.0199214 0)
(0.00387389 0.0207624 0)
(0.00254245 0.0216671 0)
(0.0012563 0.0226381 0)
(3.57269e-05 0.0236771 0)
(-0.00110105 0.0247849 0)
(-0.0021382 0.0259607 0)
(-0.00306254 0.0272022 0)
(-0.00386372 0.0285055 0)
(-0.00453431 0.0298647 0)
(-0.00506985 0.0312717 0)
(-0.00546872 0.0327165 0)
(-0.00573203 0.0341867 0)
(-0.00586334 0.0356679 0)
(-0.00586839 0.0371439 0)
(-0.00575478 0.0385968 0)
(-0.00553153 0.0400073 0)
(-0.00520875 0.0413552 0)
(-0.00479728 0.0426199 0)
(-0.00430829 0.0437811 0)
(-0.00375305 0.0448191 0)
(-0.00314267 0.0457155 0)
(-0.00248799 0.0464541 0)
(-0.00179971 0.0470209 0)
(-0.00108991 0.0474051 0)
(-0.000365662 0.0475989 0)
(0.00092221 0.0107812 0)
(0.00275279 0.0108088 0)
(0.00454328 0.010864 0)
(0.00626818 0.0109466 0)
(0.00790235 0.0110565 0)
(0.00942256 0.0111934 0)
(0.0108076 0.0113573 0)
(0.0120385 0.0115481 0)
(0.013099 0.0117657 0)
(0.013976 0.0120104 0)
(0.0146592 0.0122826 0)
(0.0151418 0.012583 0)
(0.0154208 0.0129124 0)
(0.0154962 0.0132724 0)
(0.0153718 0.0136647 0)
(0.0150548 0.0140915 0)
(0.0145556 0.0145556 0)
(0.0138878 0.0150602 0)
(0.0130674 0.015609 0)
(0.0121133 0.0162061 0)
(0.011046 0.0168561 0)
(0.00988786 0.0175637 0)
(0.00866222 0.0183341 0)
(0.00739304 0.0191723 0)
(0.00610433 0.0200833 0)
(0.00481966 0.0210718 0)
(0.00356161 0.0221418 0)
(0.00235127 0.0232968 0)
(0.00120786 0.024539 0)
(0.000148229 0.0258692 0)
(-0.000813377 0.0272867 0)
(-0.00166562 0.0287887 0)
(-0.00240021 0.0303704 0)
(-0.00301194 0.0320246 0)
(-0.00349868 0.0337412 0)
(-0.00386122 0.0355078 0)
(-0.00410299 0.0373091 0)
(-0.0042298 0.0391273 0)
(-0.0042494 0.0409421 0)
(-0.00417103 0.0427312 0)
(-0.004005 0.0444704 0)
(-0.00376216 0.0461344 0)
(-0.00345348 0.0476975 0)
(-0.00308965 0.049134 0)
(-0.00268078 0.0504191 0)
(-0.00223613 0.0515297 0)
(-0.00176405 0.0524453 0)
(-0.00127219 0.0531483 0)
(-0.000769253 0.053625 0)
(-0.000258136 0.0538655 0)
(0.000935889 0.00998273 0)
(0.00279386 0.0100098 0)
(0.0046117 0.0100639 0)
(0.00636384 0.0101451 0)
(0.0080252 0.0102533 0)
(0.00957258 0.0103888 0)
(0.0109848 0.0105516 0)
(0.0122431 0.0107421 0)
(0.0133314 0.0109607 0)
(0.0142366 0.0112083 0)
(0.014949 0.0114858 0)
(0.015462 0.0117946 0)
(0.0157728 0.0121366 0)
(0.0158821 0.0125138 0)
(0.0157942 0.0129292 0)
(0.0155165 0.0133859 0)
(0.0150602 0.0138878 0)
(0.0144393 0.0144393 0)
(0.0136703 0.0150453 0)
(0.0127725 0.0157114 0)
(0.0117669 0.0164433 0)
(0.010676 0.0172474 0)
(0.00952337 0.0181301 0)
(0.00833282 0.019098 0)
(0.00712815 0.0201572 0)
(0.00593245 0.0213137 0)
(0.00476753 0.0225729 0)
(0.00365346 0.0239388 0)
(0.00260809 0.0254145 0)
(0.00164663 0.0270012 0)
(0.000781319 0.0286981 0)
(2.12339e-05 0.0305022 0)
(-0.000627873 0.0324075 0)
(-0.00116357 0.0344053 0)
(-0.00158663 0.0364836 0)
(-0.0019008 0.0386272 0)
(-0.0021125 0.0408173 0)
(-0.00223031 0.0430321 0)
(-0.00226453 0.0452465 0)
(-0.00222656 0.0474329 0)
(-0.00212831 0.0495614 0)
(-0.00198161 0.0516006 0)
(-0.0017977 0.0535184 0)
(-0.0015867 0.0552828 0)
(-0.00135728 0.0568626 0)
(-0.00111643 0.0582291 0)
(-0.000869406 0.0593563 0)
(-0.00062002 0.0602222 0)
(-0.000372716 0.0608095 0)
(-0.000125146 0.061106 0)
(0.000949234 0.00903066 0)
(0.00283395 0.00905692 0)
(0.0046786 0.00910958 0)
(0.00645763 0.00918875 0)
(0.00814606 0.00929468 0)
(0.00972081 0.00942776 0)
(0.0111609 0.00958856 0)
(0.0124476 0.00977784 0)
(0.0135653 0.00999664 0)
(0.0145011 0.0102463 0)
(0.0152455 0.0105287 0)
(0.0157926 0.0108458 0)
(0.01614 0.0112004 0)
(0.0162888 0.0115957 0)
(0.0162438 0.0120356 0)
(0.0160134 0.0125244 0)
(0.015609 0.0130674 0)
(0.0150453 0.0136703 0)
(0.0143395 0.0143395 0)
(0.0135113 0.015082 0)
(0.0125821 0.0159053 0)
(0.0115747 0.0168174 0)
(0.0105127 0.0178262 0)
(0.00942007 0.0189399 0)
(0.00832012 0.0201666 0)
(0.00723536 0.0215136 0)
(0.00618669 0.0229876 0)
(0.00519292 0.024594 0)
(0.00427025 0.0263366 0)
(0.00343186 0.0282173 0)
(0.00268759 0.0302354 0)
(0.00204373 0.0323874 0)
(0.00150292 0.0346667 0)
(0.00106419 0.0370628 0)
(0.00072319 0.0395614 0)
(0.000472446 0.0421442 0)
(0.000301883 0.0447885 0)
(0.000199376 0.0474678 0)
(0.000151426 0.0501514 0)
(0.000143896 0.0528056 0)
(0.000162769 0.0553935 0)
(0.000194888 0.0578763 0)
(0.000228639 0.0602144 0)
(0.000254513 0.0623678 0)
(0.000265539 0.064298 0)
(0.00025752 0.065969 0)
(0.000229047 0.0673484 0)
(0.000181079 0.0684086 0)
(0.000114529 0.0691281 0)
(3.82959e-05 0.0694913 0)
(0.000962149 0.00794026 0)
(0.00287278 0.00796558 0)
(0.00474353 0.00801642 0)
(0.00654894 0.00809308 0)
(0.00826421 0.00819605 0)
(0.00986645 0.00832606 0)
(0.0113349 0.00848409 0)
(0.0126512 0.00867143 0)
(0.0137999 0.00888972 0)
(0.0147687 0.00914102 0)
(0.0155484 0.00942787 0)
(0.0161337 0.00975335 0)
(0.0165228 0.0101211 0)
(0.0167173 0.0105356 0)
(0.0167229 0.0110018 0)
(0.0165484 0.0115255 0)
(0.0162061 0.0121133 0)
(0.0157114 0.0127725 0)
(0.015082 0.0135113 0)
(0.0143383 0.0143383 0)
(0.0135022 0.015263 0)
(0.0125969 0.0162952 0)
(0.011646 0.0174448 0)
(0.0106733 0.0187221 0)
(0.00970184 0.0201368 0)
(0.00875344 0.0216984 0)
(0.00784788 0.0234151 0)
(0.00700244 0.0252938 0)
(0.00623136 0.0273396 0)
(0.0055454 0.0295552 0)
(0.0049515 0.0319403 0)
(0.00445258 0.0344912 0)
(0.0040475 0.0372003 0)
(0.00373116 0.0400555 0)
(0.00349477 0.0430401 0)
(0.00332629 0.0461322 0)
(0.00321108 0.0493048 0)
(0.00313259 0.0525258 0)
(0.00307326 0.0557582 0)
(0.00301546 0.0589609 0)
(0.00294245 0.0620889 0)
(0.00283929 0.0650946 0)
(0.00269375 0.0679291 0)
(0.00249696 0.0705431 0)
(0.00224396 0.0728888 0)
(0.00193394 0.0749215 0)
(0.00157023 0.0766008 0)
(0.0011597 0.0778924 0)
(0.000709954 0.0787693 0)
(0.000238065 0.0792121 0)
(0.000974554 0.00672898 0)
(0.00291012 0.00675321 0)
(0.0048061 0.00680196 0)
(0.00663726 0.0068757 0)
(0.00837904 0.00697522 0)
(0.0100089 0.0071016 0)
(0.0115062 0.00725629 0)
(0.0128533 0.00744114 0)
(0.0140349 0.00765845 0)
(0.0150392 0.00791107 0)
(0.0158578 0.00820241 0)
(0.0164859 0.00853655 0)
(0.0169222 0.00891829 0)
(0.0171694 0.00935324 0)
(0.0172337 0.00984782 0)
(0.0171249 0.0104093 0)
(0.0168561 0.011046 0)
(0.0164433 0.0117669 0)
(0.0159053 0.0125821 0)
(0.015263 0.0135022 0)
(0.0145389 0.0145389 0)
(0.0137565 0.0157041 0)
(0.0129397 0.0170101 0)
(0.0121121 0.0184694 0)
(0.0112964 0.0200941 0)
(0.0105136 0.0218958 0)
(0.00978208 0.0238849 0)
(0.00911746 0.0260703 0)
(0.00853164 0.0284584 0)
(0.00803252 0.0310533 0)
(0.00762358 0.0338553 0)
(0.00730373 0.0368607 0)
(0.00706725 0.0400612 0)
(0.00690402 0.043443 0)
(0.00679986 0.0469868 0)
(0.00673712 0.0506668 0)
(0.00669547 0.0544512 0)
(0.00665285 0.0583016 0)
(0.00658659 0.0621737 0)
(0.00647457 0.0660176 0)
(0.00629649 0.0697788 0)
(0.00603506 0.0733991 0)
(0.00567706 0.0768185 0)
(0.00521424 0.0799765 0)
(0.00464396 0.082814 0)
(0.0039695 0.0852755 0)
(0.00319997 0.087311 0)
(0.00234954 0.0888776 0)
(0.00143419 0.0899417 0)
(0.000481105 0.0904793 0)
(0.000986384 0.00541619 0)
(0.00294577 0.00543923 0)
(0.00486602 0.00548566 0)
(0.00672219 0.00555617 0)
(0.0084901 0.00565185 0)
(0.0101475 0.00577419 0)
(0.0116744 0.00592513 0)
(0.0130534 0.00610713 0)
(0.0142699 0.00632322 0)
(0.0153126 0.00657708 0)
(0.0161739 0.0068731 0)
(0.0168496 0.00721645 0)
(0.0173395 0.00761316 0)
(0.0176468 0.00807019 0)
(0.017779 0.00859549 0)
(0.0177466 0.00919804 0)
(0.0175637 0.00988786 0)
(0.0172474 0.010676 0)
(0.0168174 0.0115747 0)
(0.0162952 0.0125969 0)
(0.0157041 0.0137565 0)
(0.015068 0.015068 0)
(0.0144113 0.0165466 0)
(0.0137573 0.0182072 0)
(0.0131283 0.0200648 0)
(0.0125443 0.0221336 0)
(0.0120223 0.0244266 0)
(0.0115759 0.0269549 0)
(0.0112144 0.0297272 0)
(0.0109423 0.0327491 0)
(0.0107589 0.0360219 0)
(0.0106585 0.0395424 0)
(0.0106298 0.0433016 0)
(0.0106568 0.0472844 0)
(0.0107186 0.0514686 0)
(0.0107907 0.0558245 0)
(0.0108459 0.0603146 0)
(0.0108551 0.0648936 0)
(0.0107893 0.0695087 0)
(0.0106205 0.0741 0)
(0.0103239 0.0786015 0)
(0.00987906 0.0829427 0)
(0.00927114 0.0870501 0)
(0.00849244 0.0908496 0)
(0.00754298 0.0942683 0)
(0.00643089 0.0972377 0)
(0.00517232 0.0996956 0)
(0.00379045 0.101589 0)
(0.00231163 0.102876 0)
(0.000775633 0.103526 0)
(0.000997592 0.00402282 0)
(0.00297959 0.00404458 0)
(0.00492305 0.00408854 0)
(0.00680345 0.00415562 0)
(0.00859705 0.00424721 0)
(0.0102821 0.00436524 0)
(0.0118392 0.00451218 0)
(0.0132514 0.00469115 0)
(0.0145048 0.00490597 0)
(0.0155891 0.00516121 0)
(0.0164972 0.0054623 0)
(0.0172259 0.0058156 0)
(0.0177759 0.00622847 0)
(0.0181517 0.00670936 0)
(0.0183616 0.00726787 0)
(0.0184173 0.00791481 0)
(0.0183341 0.00866222 0)
(0.0181301 0.00952337 0)
(0.0178262 0.0105127 0)
(0.0174448 0.011646 0)
(0.0170101 0.0129397 0)
(0.0165466 0.0144113 0)
(0.0160788 0.0160788 0)
(0.0156304 0.0179606 0)
(0.0152228 0.0200747 0)
(0.0148753 0.0224384 0)
(0.0146033 0.0250679 0)
(0.0144181 0.0279773 0)
(0.0143258 0.0311779 0)
(0.0143272 0.0346774 0)
(0.0144169 0.0384788 0)
(0.0145835 0.0425797 0)
(0.0148093 0.046971 0)
(0.015071 0.0516363 0)
(0.0153399 0.0565506 0)
(0.0155831 0.06168 0)
(0.0157646 0.0669811 0)
(0.015847 0.0724007 0)
(0.0157929 0.0778763 0)
(0.0155673 0.0833364 0)
(0.0151392 0.0887017 0)
(0.0144837 0.0938867 0)
(0.013584 0.0988022 0)
(0.0124324 0.103357 0)
(0.0110321 0.107462 0)
(0.00939678 0.111033 0)
(0.00755122 0.113992 0)
(0.00552963 0.116273 0)
(0.00337123 0.117824 0)
(0.00113141 0.118609 0)
(0.00100814 0.00257107 0)
(0.00301149 0.0025915 0)
(0.00497706 0.0026329 0)
(0.00688086 0.00269642 0)
(0.00869972 0.00278379 0)