/*--------------------------------*- C++ -*----------------------------------*\
| =========                 |                                                 |
| \\      /  F ield         | OpenFOAM: The Open Source CFD Toolbox           |
|  \\    /   O peration     | Version:  2406                                  |
|   \\  /    A nd           | Website:  www.openfoam.com                      |
|    \\/     M anipulation  |                                                 |
\*---------------------------------------------------------------------------*/
FoamFile
{
    version     2.0;
    format      ascii;
    arch        "LSB;label=32;scalar=64";
    class       volScalarField;
    location    "0.65";
    object      gradTy;
}
// * * * * * * * * * * * * * * * * * * * * * * * * * * * * * * * * * * * * * //

dimensions      [0 -1 0 1 0 0 0];

internalField   nonuniform List<scalar> 
2500
(
0.00764169
0.00765625
0.00768748
0.00773336
0.00779344
0.007867
0.00795311
0.0080507
0.00815854
0.00827533
0.00839965
0.00853005
0.00866505
0.00880318
0.00894298
0.00908306
0.0092221
0.00935889
0.00949234
0.00962149
0.00974554
0.00986384
0.00997592
0.0100814
0.0101803
0.0102724
0.0103579
0.010437
0.0105102
0.0105777
0.0106401
0.0106979
0.0107516
0.0108016
0.0108484
0.0108924
0.0109339
0.0109731
0.0110102
0.0110451
0.0110779
0.0111085
0.0111366
0.0111621
0.0111848
0.0112045
0.0112209
0.011234
0.0112428
0.0112418
0.0227898
0.0228356
0.0229288
0.0230661
0.0232461
0.0234665
0.0237244
0.0240167
0.0243398
0.0246896
0.025062
0.0254528
0.0258573
0.0262714
0.0266905
0.0271107
0.0275279
0.0279386
0.0283395
0.0287278
0.0291012
0.0294577
0.0297959
0.0301149
0.0304142
0.0306939
0.0309542
0.031196
0.0314203
0.0316282
0.0318213
0.0320009
0.0321686
0.0323257
0.0324736
0.0326132
0.0327454
0.0328708
0.0329898
0.0331024
0.0332083
0.0333072
0.0333983
0.0334811
0.0335546
0.0336182
0.0336714
0.033714
0.0337455
0.0337545
0.0375797
0.0376569
0.0378103
0.0380373
0.0383348
0.0386992
0.0391259
0.0396095
0.0401441
0.0407232
0.0413399
0.0419872
0.0426579
0.0433446
0.0440405
0.0447387
0.0454328
0.046117
0.046786
0.0474353
0.048061
0.0486602
0.0492305
0.0497706
0.0502797
0.0507579
0.0512059
0.0516249
0.0520166
0.0523831
0.0527265
0.0530493
0.0533536
0.0536417
0.0539154
0.0541763
0.0544254
0.0546634
0.0548905
0.0551064
0.0553103
0.0555011
0.0556774
0.0558375
0.0559797
0.0561024
0.0562042
0.0562843
0.0563421
0.0563696
0.0517957
0.0519016
0.052113
0.0524261
0.0528369
0.0533403
0.0539298
0.0545983
0.0553376
0.056139
0.0569929
0.0578899
0.0588201
0.0597737
0.0607412
0.0617134
0.0626818
0.0636384
0.0645763
0.0654894
0.0663726
0.0672219
0.0680345
0.0688086
0.0695435
0.0702392
0.0708968
0.0715181
0.0721055
0.0726617
0.0731895
0.0736921
0.0741722
0.0746325
0.075075
0.0755014
0.0759125
0.0763085
0.076689
0.0770525
0.0773972
0.0777208
0.0780202
0.0782923
0.078534
0.0787421
0.0789135
0.0790459
0.0791367
0.0791823
0.0652011
0.0653347
0.0656014
0.0659967
0.0665155
0.0671515
0.0678968
0.0687423
0.069678
0.0706928
0.0717753
0.0729135
0.0740953
0.0753086
0.0765418
0.0777836
0.0790235
0.080252
0.0814606
0.0826421
0.0837904
0.084901
0.0859705
0.0869972
0.0879801
0.08892
0.0898181
0.090677
0.0914994
0.0922888
0.0930486
0.0937822
0.0944928
0.0951829
0.0958544
0.0965083
0.0971446
0.0977623
0.0983594
0.0989328
0.0994787
0.0999924
0.100469
0.100902
0.101287
0.101618
0.10189
0.102099
0.102241
0.102312
0.0775866
0.0777463
0.0780649
0.0785374
0.0791578
0.0799186
0.0808107
0.0818234
0.0829449
0.0841625
0.0854627
0.0868316
0.0882552
0.0897195
0.0912111
0.0927171
0.0942256
0.0957258
0.0972081
0.0986645
0.100089
0.101475
0.102821
0.104125
0.105386
0.106605
0.107784
0.108927
0.110036
0.111116
0.11217
0.113203
0.114215
0.115211
0.116191
0.117154
0.118099
0.119022
0.11992
0.120785
0.121612
0.122392
0.123116
0.123775
0.124361
0.124865
0.125279
0.125596
0.125811
0.12592
0.088759
0.0889427
0.0893093
0.089853
0.0905674
0.0914438
0.0924721
0.0936404
0.0949354
0.096343
0.0978482
0.0994356
0.10109
0.102795
0.104537
0.106302
0.108076
0.109848
0.111609
0.113349
0.115062
0.116744
0.118392
0.120003
0.12158
0.123122
0.124634
0.126119
0.12758
0.129023
0.13045
0.131865
0.133271
0.134668
0.136055
0.13743
0.138788
0.140124
0.141427
0.142689
0.143897
0.145039
0.146101
0.147069
0.147929
0.14867
0.149278
0.149743
0.150058
0.150217
0.0985441
0.0987496
0.0991595
0.0997677
0.100567
0.101549
0.102701
0.104012
0.105467
0.10705
0.108746
0.110539
0.112411
0.114346
0.11633
0.118347
0.120385
0.122431
0.124476
0.126512
0.128533
0.130534
0.132514
0.134472
0.13641
0.13833
0.140237
0.142134
0.144027
0.14592
0.147816
0.149718
0.151627
0.153542
0.155459
0.157371
0.159272
0.161148
0.162988
0.164773
0.166486
0.168108
0.169619
0.170997
0.172223
0.173278
0.174144
0.174808
0.175257
0.175483
0.10679
0.107014
0.107462
0.108128
0.109003
0.110078
0.111342
0.112781
0.11438
0.116124
0.117995
0.119978
0.122055
0.124209
0.126426
0.128691
0.13099
0.133314
0.135653
0.137999
0.140349
0.142699
0.145048
0.147399
0.149754
0.152117
0.154494
0.15689
0.159309
0.161757
0.164237
0.16675
0.169294
0.171866
0.174458
0.17706
0.179657
0.182232
0.184763
0.187226
0.189594
0.191839
0.193932
0.195844
0.197545
0.199008
0.200211
0.201133
0.201756
0.202071
0.113367
0.113608
0.11409
0.114804
0.115745
0.116902
0.118263
0.119815
0.121542
0.12343
0.125461
0.127618
0.129886
0.132248
0.13469
0.137198
0.13976
0.142366
0.145011
0.147687
0.150392
0.153126
0.155891
0.158689
0.161527
0.16441
0.167345
0.170339
0.173397
0.176525
0.179723
0.182992
0.186328
0.189722
0.193163
0.196633
0.200111
0.203569
0.206977
0.210301
0.213502
0.216541
0.219377
0.221969
0.224276
0.226263
0.227896
0.229146
0.229993
0.23042
0.118176
0.118431
0.118939
0.119695
0.12069
0.121915
0.123359
0.125008
0.126847
0.128862
0.131036
0.133353
0.135799
0.138358
0.141017
0.143765
0.146592
0.14949
0.152455
0.155484
0.158578
0.161739
0.164972
0.168283
0.17168
0.175173
0.17877
0.182478
0.186305
0.190256
0.194331
0.198527
0.202836
0.207247
0.211739
0.216287
0.22086
0.22542
0.229925
0.234326
0.238571
0.242606
0.246374
0.24982
0.25289
0.255535
0.257709
0.259375
0.260503
0.261071
0.121141
0.121407
0.121937
0.122725
0.123764
0.125045
0.126556
0.128286
0.130221
0.132345
0.134646
0.137108
0.139719
0.142465
0.145335
0.148322
0.151418
0.15462
0.157926
0.161337
0.164859
0.168496
0.172259
0.176158
0.180204
0.18441
0.188787
0.193345
0.198092
0.203032
0.208165
0.213485
0.21898
0.22463
0.230409
0.23628
0.2422
0.248118
0.253976
0.259708
0.265244
0.270511
0.275435
0.279942
0.283959
0.287421
0.290268
0.29245
0.293927
0.294672
0.122219
0.122492
0.123038
0.12385
0.124922
0.126245
0.12781
0.129604
0.131617
0.133836
0.136247
0.13884
0.141604
0.144528
0.147607
0.150834
0.154208
0.157728
0.1614
0.165228
0.169222
0.173395
0.177759
0.182332
0.187129
0.192167
0.19746
0.203021
0.20886
0.214981
0.221381
0.228052
0.234975
0.242124
0.249461
0.256938
0.264497
0.272069
0.279578
0.286936
0.294053
0.300832
0.307174
0.312982
0.318163
0.32263
0.326305
0.329122
0.331031
0.331993
0.121395
0.121673
0.122228
0.123056
0.124149
0.125502
0.127105
0.128949
0.131025
0.133321
0.135828
0.138539
0.141445
0.144542
0.147827
0.151299
0.154962
0.158821
0.162888
0.167173
0.171694
0.176468
0.181517
0.186863
0.192526
0.19853
0.204894
0.211634
0.21876
0.226278
0.234183
0.242463
0.251093
0.260036
0.269244
0.278653
0.288187
0.297757
0.307263
0.316592
0.325626
0.33424
0.342307
0.3497
0.3563
0.361992
0.366678
0.370271
0.372705
0.373933
0.118684
0.118964
0.119523
0.120358
0.121463
0.122833
0.124461
0.126339
0.128462
0.130821
0.133411
0.136228
0.139269
0.142534
0.146025
0.14975
0.153718
0.157942
0.162438
0.167229
0.172337
0.17779
0.183616
0.189844
0.196506
0.203628
0.211236
0.219351
0.227986
0.237146
0.246826
0.257008
0.26766
0.278736
0.290172
0.301886
0.313783
0.325747
0.337649
0.349348
0.36069
0.371517
0.381666
0.390976
0.399291
0.406468
0.412378
0.416912
0.419984
0.421534
0.114132
0.114411
0.114969
0.115803
0.116909
0.118285
0.119924
0.121823
0.123979
0.126388
0.129049
0.131962
0.135132
0.138563
0.142267
0.146256
0.150548
0.155165
0.160134
0.165484
0.171249
0.177466
0.184173
0.191409
0.199214
0.207624
0.216671
0.226381
0.236771
0.247849
0.259607
0.272022
0.285055
0.298647
0.312717
0.327165
0.341867
0.356679
0.371439
0.385968
0.400073
0.413552
0.426199
0.437811
0.448191
0.457155
0.464541
0.470209
0.474051
0.475989
0.107812
0.108088
0.10864
0.109466
0.110565
0.111934
0.113573
0.115481
0.117657
0.120104
0.122826
0.12583
0.129124
0.132724
0.136647
0.140915
0.145556
0.150602
0.15609
0.162061
0.168561
0.175637
0.183341
0.191723
0.200833
0.210718
0.221418
0.232968
0.24539
0.258692
0.272867
0.287887
0.303704
0.320246
0.337412
0.355078
0.373091
0.391273
0.409421
0.427312
0.444704
0.461344
0.476975
0.49134
0.504191
0.515297
0.524453
0.531483
0.53625
0.538655
0.0998273
0.100098
0.100639
0.101451
0.102533
0.103888
0.105516
0.107421
0.109607
0.112083
0.114858
0.117946
0.121366
0.125138
0.129292
0.133859
0.138878
0.144393
0.150453
0.157114
0.164433
0.172474
0.181301
0.19098
0.201572
0.213137
0.225729
0.239388
0.254145
0.270012
0.286981
0.305022
0.324075
0.344053
0.364836
0.386272
0.408173
0.430321
0.452465
0.474329
0.495614
0.516006
0.535184
0.552828
0.568626
0.582291
0.593563
0.602222
0.608095
0.61106
0.0903066
0.0905692
0.0910958
0.0918875
0.0929468
0.0942776
0.0958856
0.0977784
0.0999664
0.102463
0.105287
0.108458
0.112004
0.115957
0.120356
0.125244
0.130674
0.136703
0.143395
0.15082
0.159053
0.168174
0.178262
0.189399
0.201666
0.215136
0.229876
0.24594
0.263366
0.282173
0.302354
0.323874
0.346667
0.370628
0.395614
0.421442
0.447885
0.474678
0.501514
0.528056
0.553935
0.578763
0.602144
0.623678
0.64298
0.65969
0.673484
0.684086
0.691281
0.694913
0.0794026
0.0796558
0.0801642
0.0809308
0.0819605
0.0832606
0.0848409
0.0867143
0.0888972
0.0914102
0.0942787
0.0975335
0.101211
0.105356
0.110018
0.115255
0.121133
0.127725
0.135113
0.143383
0.15263
0.162952
0.174448
0.187221
0.201368
0.216984
0.234151
0.252938
0.273396
0.295552
0.319403
0.344912
0.372003
0.400555
0.430401
0.461322
0.493048
0.525258
0.557582
0.589609
0.620889
0.650946
0.679291
0.705431
0.728888
0.749215
0.766008
0.778924
0.787693
0.792121
0.0672898
0.0675321
0.0680196
0.068757
0.0697522
0.071016
0.0725629
0.0744114
0.0765845
0.0791107
0.0820241
0.0853655
0.0891829
0.0935324
0.0984782
0.104093
0.11046
0.117669
0.125821
0.135022
0.145389
0.157041
0.170101
0.184694
0.200941
0.218958
0.238849
0.260703
0.284584
0.310533
0.338553
0.368607
0.400612
0.43443
0.469868
0.506668
0.544512
0.583016
0.621737
0.660176
0.697788
0.733991
0.768185
0.799765
0.82814
0.852755
0.87311
0.888776
0.899417
0.904793
0.0541619
0.0543923
0.0548566
0.0555617
0.0565185
0.0577419
0.0592513
0.0610713
0.0632322
0.0657708
0.068731
0.0721645
0.0761316
0.0807019
0.0859549
0.0919804
0.0988786
0.10676
0.115747
0.125969
0.137565
0.15068
0.165466
0.182072
0.200648
0.221336
0.244266
0.269549
0.297272
0.327491
0.360219
0.395424
0.433016
0.472844
0.514686
0.558245
0.603146
0.648936
0.695087
0.741
0.786015
0.829427
0.870501
0.908496
0.942683
0.972377
0.996956
1.01589
1.02876
1.03526
0.0402282
0.0404458
0.0408854
0.0415562
0.0424721
0.0436524
0.0451218
0.0469115
0.0490597
0.0516121
0.054623
0.058156
0.0622847
0.0670936
0.0726787
0.0791481
0.0866222
0.0952337
0.105127
0.11646
0.129397
0.144113
0.160788
0.179606
0.200747
0.224384
0.250679
0.279773
0.311779
0.346774
0.384788
0.425797
0.46971
0.516363
0.565506
0.6168
0.669811
0.724007
0.778763
0.833364
0.887017
0.938867
0.988022
1.03357
1.07462
1.11033
1.13992
1.16273
1.17824
1.18609
0.0257107
0.025915
0.026329
0.0269642
0.0278379
0.0289738
0.0304024
0.0321618
0.0342985
0.0368677
0.039935
0.0435764
0.0478799
0.0529461
0.0588889
0.0658363
0.0739304
0.0833282
0.0942007
0.106733
0.121121
0.137573
0.156304
0.177531
0.201475
0.228345
0.258341
0.291639
0.328387
0.368691
0.412603
0.460115
0.511139
0.565502
0.62293
0.68304
0.745336
0.809198
0.873892
0.938569
1.00228
1.064
1.12263
1.17707
1.22623
1.26904
1.30457
1.332
1.35066
1.3601
0.01084
0.0110309
0.011419
0.0120183
0.0128495
0.0139411
0.0153295
0.0170601
0.0191879
0.0217784
0.0249088
0.0286685
0.0331607
0.0385031
0.0448287
0.0522867
0.0610433
0.0712815
0.0832012
0.0970184
0.112964
0.131283
0.152228
0.176061
0.203042
0.233428
0.267461
0.305365
0.347326
0.393489
0.44394
0.498692
0.55767
0.620699
0.687485
0.757602
0.830487
0.90543
0.98157
1.05791
1.13331
1.20654
1.27629
1.3412
1.39992
1.45116
1.49374
1.52664
1.54905
1.56039
-0.00414784
-0.00397023
-0.00360784
-0.00304403
-0.00225449
-0.00120603
0.000143997
0.00184844
0.00397128
0.00658855
0.00978949
0.0136776
0.018372
0.0240083
0.0307399
0.0387389
0.0481966
0.0593245
0.0723536
0.0875344
0.105136
0.125443
0.148753
0.175375
0.20562
0.239795
0.278197
0.321102
0.36875
0.421334
0.478983
0.541745
0.60957
0.682286
0.759588
0.841013
0.925931
1.01353
1.10282
1.19263
1.2816
1.36827
1.45104
1.52826
1.59828
1.6595
1.71046
1.74989
1.77677
1.79039
-0.0190155
-0.0188509
-0.0185134
-0.0179839
-0.0172344
-0.0162269
-0.0149124
-0.0132305
-0.011108
-0.00845818
-0.00517918
-0.00115307
0.00375568
0.00970152
0.0168591
0.0254245
0.0356161
0.0476753
0.0618669
0.0784788
0.0978208
0.120223
0.146033
0.175612
0.209328
0.247549
0.290635
0.338926
0.392725
0.452289
0.517804
0.589367
0.666965
0.750447
0.839506
0.933651
1.03219
1.1342
1.23856
1.34389
1.4486
1.55094
1.64897
1.74069
1.82407
1.89714
1.95807
2.00529
2.03751
2.05385
-0.0335282
-0.0333759
-0.0330621
-0.0325652
-0.0318534
-0.0308839
-0.0296015
-0.0279379
-0.0258109
-0.0231227
-0.0197589
-0.0155868
-0.0104539
-0.00418646
0.00341217
0.012563
0.0235127
0.0365346
0.0519292
0.0700244
0.0911746
0.115759
0.144181
0.176859
0.214228
0.256724
0.30478
0.358814
0.419207
0.486293
0.560333
0.641492
0.729812
0.825183
0.927312
1.03569
1.14958
1.26796
1.38953
1.51272
1.63566
1.75625
1.87218
1.98099
2.08019
2.16734
2.24018
2.29672
2.33535
2.35495
-0.047457
-0.0473163
-0.0470248
-0.0465581
-0.0458813
-0.0449463
-0.043692
-0.0420425
-0.0399063
-0.0371748
-0.0337208
-0.029397
-0.0240337
-0.0174376
-0.00938947
0.000357269
0.0120786
0.0260809
0.0427025
0.0623136
0.0853164
0.112144
0.143258
0.179145
0.22031
0.267269
0.320541
0.380633
0.448021
0.523134
0.60633
0.697863
0.797857
0.906265
1.02283
1.14706
1.27817
1.41505
1.55624
1.69994
1.84397
1.98583
2.12275
2.25173
2.36971
2.47367
2.56076
2.62849
2.67483
2.69836
-0.060583
-0.0604531
-0.060182
-0.0597432
-0.059098
-0.058194
-0.0569638
-0.0553243
-0.0531749
-0.0503965
-0.0468493
-0.0423713
-0.036776
-0.0298505
-0.0213529
-0.0110105
0.00148229
0.0164663
0.0343186
0.055454
0.0803252
0.109423
0.143272
0.182432
0.227488
0.279045
0.337721
0.404124
0.478846
0.562433
0.655361
0.758005
0.870597
0.993188
1.1256
1.26736
1.41769
1.5754
1.73888
1.90609
2.0745
2.24115
2.40271
2.55554
2.69587
2.81992
2.92414
3.00536
3.06103
3.08932
-0.0727006
-0.0725804
-0.0723279
-0.0719142
-0.0712975
-0.0704208
-0.0692111
-0.0675781
-0.0654128
-0.0625857
-0.0589452
-0.054315
-0.048492
-0.041244
-0.0323069
-0.021382
-0.00813377
0.00781319
0.0268759
0.049515
0.0762358
0.107589
0.144169
0.186612
0.235593
0.291815
0.356004
0.428893
0.511203
0.603622
0.706774
0.821185
0.947238
1.08512
1.23477
1.3958
1.56746
1.74852
1.93724
2.13132
2.32788
2.52342
2.71395
2.89506
3.06206
3.21025
3.33514
3.43271
3.49971
3.53379
-0.0836205
-0.0835091
-0.0832732
-0.082882
-0.0822905
-0.0814378
-0.0802454
-0.0786166
-0.0764344
-0.0735598
-0.0698295
-0.065054
-0.0590144
-0.05146
-0.042105
-0.0306254
-0.0166562
0.000212339
0.0204373
0.0445258
0.0730373
0.106585
0.145835
0.191507
0.24437
0.305238
0.374957
0.454398
0.544436
0.645925
0.759671
0.886389
1.02666
1.18085
1.34908
1.53112
1.72628
1.93337
2.15055
2.37529
2.6043
2.83352
3.05818
3.27288
3.47184
3.64915
3.79912
3.91662
3.99745
4.03863
-0.0931731
-0.0930694
-0.0928483
-0.092477
-0.0919079
-0.0910763
-0.0898992
-0.0882737
-0.0860758
-0.0831575
-0.0793455
-0.0744375
-0.0682003
-0.0603655
-0.0506272
-0.0386372
-0.0240021
-0.00627873
0.0150292
0.040475
0.0706725
0.106298
0.148093
0.196864
0.25348
0.318872
0.394021
0.479952
0.577712
0.688353
0.812895
0.952288
1.10736
1.27873
1.46678
1.67148
1.89234
2.12825
2.37735
2.63694
2.90333
3.17182
3.43672
3.69148
3.9289
4.14153
4.3221
4.46404
4.5619
4.61183
-0.101211
-0.101114
-0.100906
-0.100552
-0.100003
-0.0991904
-0.0980275
-0.0964063
-0.0941963
-0.0912422
-0.0873611
-0.08234
-0.0759324
-0.0678545
-0.0577815
-0.0453431
-0.0301194
-0.0116357
0.0106419
0.0373116
0.0690402
0.106568
0.15071
0.202363
0.262501
0.332177
0.412519
0.504719
0.61002
0.729696
0.865021
1.01723
1.18745
1.37665
1.58553
1.8144
2.06307
2.33063
2.61534
2.91438
3.22371
3.53798
3.85045
4.15313
4.43706
4.69279
4.91098
5.08308
5.20205
5.26283
-0.10761
-0.107519
-0.107322
-0.106985
-0.106454
-0.105659
-0.104511
-0.102897
-0.100681
-0.0977027
-0.0937706
-0.0886627
-0.0821212
-0.0738488
-0.0635046
-0.0506985
-0.0349868
-0.0158663
0.0072319
0.0349477
0.0679986
0.107186
0.153399
0.207622
0.270938
0.344525
0.429665
0.527729
0.640176
0.768528
0.914352
1.07921
1.26462
1.47196
1.70238
1.95665
2.23502
2.53699
2.86108
3.20453
3.56307
3.93067
4.29946
4.6597
5.00022
5.30891
5.57366
5.78332
5.92863
6.00298
-0.112274
-0.112188
-0.112002
-0.111678
-0.111164
-0.110388
-0.109257
-0.107655
-0.105443
-0.102456
-0.0984959
-0.0933344
-0.0867045
-0.0782983
-0.0677613
-0.0546872
-0.0386122
-0.019008
0.00472446
0.0332629
0.0673712
0.107907
0.155831
0.212212
0.278237
0.355215
0.444581
0.547897
0.666848
0.803233
0.958942
1.13592
1.33614
1.56149
1.81368
2.09413
2.40373
2.7426
3.10978
3.50284
3.91749
4.34717
4.78274
5.21245
5.62224
5.99652
6.31942
6.57621
6.75467
6.84613
-0.115133
-0.115052
-0.114875
-0.114565
-0.114068
-0.113311
-0.1122
-0.110618
-0.108423
-0.105446
-0.101487
-0.0963122
-0.0896486
-0.0811805
-0.070544
-0.0573203
-0.0410299
-0.021125
0.00301883
0.0321108
0.0669547
0.108459
0.157646
0.215666
0.283804
0.363494
0.456323
0.564047
0.688586
0.832029
0.996621
1.18474
1.39887
1.64151
1.9151
2.22186
2.56357
2.94129
3.35495
3.80286
4.28107
4.78277
5.29764
5.81156
6.30682
6.7631
7.15929
7.47573
7.69623
7.80938
-0.116146
-0.11607
-0.115902
-0.115605
-0.115125
-0.11439
-0.113304
-0.111752
-0.109589
-0.106646
-0.102722
-0.0975808
-0.0909465
-0.0824997
-0.0718707
-0.0586334
-0.042298
-0.0223031
0.00199376
0.0313259
0.0665285
0.108551
0.15847
0.217504
0.287027
0.368586
0.463917
0.574958
0.703867
0.853029
1.02506
1.22281
1.44932
1.70782
2.00159
2.33388
2.70764
3.12526
3.58806
4.09566
4.64514
5.22998
5.83903
6.45556
7.05721
7.6171
8.10664
8.49925
8.77337
8.91416
-0.115302
-0.11523
-0.115071
-0.114787
-0.114327
-0.113617
-0.112564
-0.111052
-0.108939
-0.106058
-0.102207
-0.0971523
-0.0906181
-0.0822851
-0.0717831
-0.0586839
-0.042494
-0.0226453
0.00151426
0.0307326
0.0658659
0.107893
0.157929
0.217249
0.2873
0.369727
0.466394
0.57941
0.711155
0.864303
1.04184
1.24711
1.48376
1.7558
2.0675
2.42333
2.82775
3.2849
3.79815
4.36927
4.99736
5.67733
6.39798
7.14016
7.87566
8.56824
9.17813
9.66877
10.0116
10.1876
-0.112618
-0.112551
-0.1124
-0.112131
-0.111692
-0.111012
-0.109999
-0.108542
-0.106501
-0.103711
-0.0999755
-0.0950645
-0.0887074
-0.0805892
-0.0703439
-0.0575478
-0.0417103
-0.0222656
0.00143896
0.0301546
0.0647457
0.106205
0.155673
0.214458
0.284061
0.3662
0.462844
0.576244
0.708975
0.863974
1.04459
1.25461
1.49834
1.78059
2.10671
2.48257
2.91443
3.4087
3.97151
4.60791
5.32055
6.10759
6.95972
7.85642
8.76254
9.62809
10.3953
11.0128
11.4434
11.664
-0.108141
-0.108078
-0.107936
-0.107683
-0.107268
-0.106623
-0.105662
-0.104273
-0.102326
-0.0996598
-0.0960855
-0.0913801
-0.0852817
-0.0774848
-0.0676338
-0.0553153
-0.04005
-0.0212831
0.00162769
0.0294245
0.0629649
0.103239
0.151392
0.208743
0.276818
0.357381
0.452466
0.564431
0.696
0.850326
1.03106
1.24242
1.48929
1.7773
2.1129
2.50345
2.95723
3.48336
4.09155
4.79142
5.59123
6.49539
7.50021
8.58718
9.71446
10.8112
11.7874
12.5695
13.111
13.3869
-0.101945
-0.101886
-0.101755
-0.101519
-0.101132
-0.100529
-0.0996277
-0.098325
-0.096495
-0.0939866
-0.0906203
-0.0861839
-0.0804287
-0.0730633
-0.0637481
-0.0520875
-0.0376216
-0.0198161
0.00194888
0.0283929
0.0603506
0.0987906
0.144837
0.199796
0.265187
0.342777
0.434627
0.543143
0.67114
0.821918
0.999351
1.208
1.45323
1.74139
2.07997
2.47778
2.94521
3.49435
4.1391
4.89497
5.77827
6.80395
7.9806
9.30025
10.72
12.1386
13.3974
14.391
15.0685
15.4102
-0.0941299
-0.0940762
-0.093956
-0.0937399
-0.0933844
-0.0928303
-0.0920007
-0.0908002
-0.0891119
-0.0867958
-0.0836848
-0.0795817
-0.0742544
-0.0674312
-0.0587942
-0.0479728
-0.0345348
-0.017977
0.00228639
0.0269375
0.0567706
0.0927114
0.13584
0.187416
0.248917
0.32207
0.408908
0.511823
0.633642
0.777717
0.948035
1.14936
1.38739
1.66902
2.00254
2.39805
2.86782
3.42684
4.09339
4.88968
5.84222
6.98146
8.33852
9.93426
11.7483
13.6477
15.2949
16.5512
17.3845
17.7979
-0.0848233
-0.0847751
-0.084667
-0.0844728
-0.0841532
-0.0836546
-0.0829076
-0.0818258
-0.0803034
-0.0782135
-0.0754045
-0.0716973
-0.0668809
-0.0607078
-0.0528881
-0.0430829
-0.0308965
-0.015867
0.00254513
0.0249696
0.0521424
0.0849244
0.124324
0.171526
0.227921
0.295151
0.37516
0.470251
0.583173
0.717215
0.876336
1.06532
1.29
1.5575
1.87661
2.25826
2.71611
3.26744
3.93429
4.74512
5.73711
6.95937
8.47654
10.3692
12.7111
15.4289
17.6037
19.1548
20.1413
20.6197
-0.074174
-0.0741317
-0.0740369
-0.0738668
-0.0735872
-0.0731509
-0.0724972
-0.0715501
-0.0702167
-0.0683852
-0.0659224
-0.0626705
-0.0584435
-0.0530226
-0.0461517
-0.0375305
-0.0268078
-0.0135728
0.00265539
0.0224396
0.0464396
0.0754298
0.110321
0.152186
0.202292
0.262145
0.333532
0.418591
0.519891
0.64053
0.784273
0.955722
1.16054
1.40577
1.70021
2.05498
2.48428
3.00651
3.64582
4.43459
5.41749
6.65865
8.25584
10.3721
13.3155
17.7711
20.5542
22.3416
23.4247
23.9386
-0.0623521
-0.062316
-0.0622353
-0.0620915
-0.0618558
-0.0614884
-0.0609379
-0.0601403
-0.0590169
-0.0574735
-0.0553974
-0.052655
-0.0490888
-0.0445133
-0.038711
-0.0314267
-0.0223613
-0.0111643
0.0025752
0.0193394
0.039695
0.0643089
0.0939678
0.129602
0.172316
0.223424
0.284497
0.357426
0.444494
0.548474
0.672764
0.821551
1.00004
1.21476
1.47396
1.7882
2.17114
2.64066
3.22057
3.94314
4.85331
6.01605
7.53069
9.5626
12.4233
16.8012
19.5162
21.2488
22.2934
22.7874
-0.0495459
-0.0495164
-0.0494501
-0.0493345
-0.0491463
-0.0488535
-0.0484151
-0.0477799
-0.0468853
-0.0456558
-0.0440016
-0.0418159
-0.0389727
-0.0353235
-0.0306942
-0.0248799
-0.0176405
-0.00869406
0.00229047
0.0157023
0.0319997
0.0517232
0.0755122
0.104125
0.138464
0.179608
0.228852
0.28776
0.358229
0.44258
0.543669
0.665042
0.811135
0.987549
1.20143
1.46196
1.78111
2.17459
2.66326
3.27512
4.04801
5.03339
6.30043
7.9369
10.0264
12.5074
14.4739
15.8572
16.726
17.1438
-0.0359591
-0.0359373
-0.035885
-0.0357994
-0.0356619
-0.0354487
-0.0351298
-0.0346678
-0.0340172
-0.0331229
-0.0319195
-0.0303291
-0.0282598
-0.0256033
-0.0222323
-0.0179971
-0.0127219
-0.0062002
0.00181079
0.011597
0.0234954
0.0379045
0.0552963
0.0762317
0.10138
0.131544
0.167689
0.210986
0.26286
0.32506
0.399752
0.489631
0.598089
0.729429
0.889161
1.0844
1.32441
1.62134
1.99115
2.45477
3.03927
3.77838
4.71038
5.86803
7.24804
8.73853
10.0252
10.9906
11.6202
11.9287
-0.0218067
-0.0217989
-0.0217662
-0.0217136
-0.0216298
-0.0215002
-0.0213066
-0.0210261
-0.0206311
-0.0200881
-0.0193574
-0.0183916
-0.0171348
-0.0155211
-0.0134729
-0.0108991
-0.00769253
-0.00372716
0.00114529
0.00709954
0.0143419
0.0231163
0.0337123
0.0464746
0.061815
0.0802281
0.10231
0.128786
0.16054
0.198661
0.244499
0.299741
0.366515
0.44753
0.546259
0.667195
0.816183
1.00085
1.2311
1.51964
1.88225
2.33703
2.90139
3.58371
4.36625
5.18063
5.9049
6.46728
6.84301
7.02959
-0.00730826
-0.00730921
-0.00729924
-0.00728171
-0.00725361
-0.00721017
-0.00714526
-0.00705126
-0.00691888
-0.00673693
-0.00649205
-0.00616835
-0.0057471
-0.00520618
-0.00451956
-0.00365662
-0.00258136
-0.00125146
0.000382959
0.00238065
0.00481105
0.00775633
0.0113141
0.0156005
0.0207546
0.0269436
0.0343691
0.0432764
0.0539654
0.0668056
0.0822557
0.10089
0.123435
0.150813
0.184212
0.225167
0.275671
0.33832
0.416461
0.514329
0.637048
0.790231
0.9787
1.20356
1.45709
1.71741
1.95114
2.13524
2.25964
2.32182
)
;

boundaryField
{
    walls
    {
        type            calculated;
        value           nonuniform List<scalar> 
200
(
0
0
0
0
0
0
0
0
0
0
0
0
0
0
0
0
0
0
0
0
0
0
0
0
0
0
0
0
0
0
0
0
0
0
0
0
0
0
0
0
0
0
0
0
0
0
0
0
0
0
0.00764169
0.0227898
0.0375797
0.0517957
0.0652011
0.0775866
0.088759
0.0985441
0.10679
0.113367
0.118176
0.121141
0.122219
0.121395
0.118684
0.114132
0.107812
0.0998273
0.0903066
0.0794026
0.0672898
0.0541619
0.0402282
0.0257107
0.01084
-0.00414784
-0.0190155
-0.0335282
-0.047457
-0.060583
-0.0727006
-0.0836205
-0.0931731
-0.101211
-0.10761
-0.112274
-0.115133
-0.116146
-0.115302
-0.112618
-0.108141
-0.101945
-0.0941299
-0.0848233
-0.074174
-0.0623521
-0.0495459
-0.0359591
-0.0218067
-0.00730826
0.0112418
0.0337545
0.0563696
0.0791823
0.102312
0.12592
0.150217
0.175483
0.202071
0.23042
0.261071
0.294672
0.331993
0.373933
0.421534
0.475989
0.538655
0.61106
0.694913
0.792121
0.904793
1.03526
1.18609
1.3601
1.56039
1.79039
2.05385
2.35495
2.69836
3.08932
3.53379
4.03863
4.61183
5.26283
6.00298
6.84613
7.80938
8.91416
10.1876
11.664
13.3869
15.4102
17.7979
20.6197
23.9386
22.7874
17.1438
11.9287
7.02959
2.32182
0
0
0
0
0
0
0
0
0
0
0
0
0
0
0
0
0
0
0
0
0
0
0
0
0
0
0
0
0
0
0
0
0
0
0
0
0
0
0
0
0
0
0
0
0
0
0
0
0
0
)
;
    }
    frontAndBack
    {
        type            empty;
    }
}


// ************************************************************************* //
