/*--------------------------------*- C++ -*----------------------------------*\
| =========                 |                                                 |
| \\      /  F ield         | OpenFOAM: The Open Source CFD Toolbox           |
|  \\    /   O peration     | Version:  2406                                  |
|   \\  /    A nd           | Website:  www.openfoam.com                      |
|    \\/     M anipulation  |                                                 |
\*---------------------------------------------------------------------------*/
FoamFile
{
    version     2.0;
    format      ascii;
    arch        "LSB;label=32;scalar=64";
    class       volScalarField;
    location    "0.65";
    object      T;
}
// * * * * * * * * * * * * * * * * * * * * * * * * * * * * * * * * * * * * * //

dimensions      [0 0 0 1 0 0 0];

internalField   nonuniform List<scalar> 
2500
(
0.15258
0.152886
0.153492
0.154389
0.155563
0.156997
0.158667
0.160547
0.162609
0.164819
0.167143
0.169546
0.171989
0.174435
0.176845
0.179182
0.18141
0.183494
0.185403
0.187107
0.188579
0.189798
0.190746
0.191407
0.191774
0.191841
0.191608
0.19108
0.190267
0.189182
0.187844
0.186274
0.184499
0.182547
0.180451
0.178243
0.17596
0.173637
0.171314
0.169025
0.166809
0.1647
0.162731
0.160935
0.159338
0.157968
0.156844
0.155986
0.155406
0.155113
0.152886
0.153192
0.153799
0.154698
0.155875
0.157312
0.158985
0.160869
0.162935
0.16515
0.167479
0.169887
0.172336
0.174787
0.177202
0.179545
0.181779
0.183869
0.185783
0.187492
0.188969
0.190193
0.191145
0.191811
0.192181
0.192252
0.192023
0.191498
0.190687
0.189605
0.188269
0.186702
0.184929
0.182979
0.180884
0.178678
0.176397
0.174076
0.171754
0.169467
0.167252
0.165144
0.163177
0.161381
0.159786
0.158416
0.157293
0.156435
0.155856
0.155563
0.153492
0.153799
0.154409
0.155311
0.156493
0.157936
0.159616
0.161508
0.163582
0.165806
0.168146
0.170564
0.173023
0.175485
0.177912
0.180266
0.182511
0.184612
0.186537
0.188256
0.189743
0.190977
0.191938
0.192612
0.192991
0.193069
0.192846
0.192328
0.191524
0.190447
0.189117
0.187554
0.185786
0.18384
0.181749
0.179547
0.177269
0.174952
0.172633
0.170349
0.168137
0.166032
0.164067
0.162274
0.16068
0.159312
0.158191
0.157334
0.156756
0.156464
0.154389
0.154698
0.155311
0.15622
0.157409
0.15886
0.16055
0.162454
0.164541
0.166779
0.169133
0.171567
0.174042
0.176521
0.178964
0.181335
0.183596
0.185713
0.187654
0.189389
0.190891
0.192139
0.193114
0.193802
0.194193
0.194282
0.194071
0.193563
0.192768
0.191701
0.190378
0.188824
0.187063
0.185125
0.183041
0.180846
0.178574
0.176263
0.17395
0.171671
0.169465
0.167364
0.165404
0.163615
0.162025
0.16066
0.159541
0.158686
0.158109
0.157818
0.155563
0.155875
0.156493
0.157409
0.158607
0.160069
0.161773
0.163692
0.165796
0.168052
0.170426
0.17288
0.175376
0.177876
0.180342
0.182735
0.185018
0.187158
0.18912
0.190875
0.192398
0.193665
0.194659
0.195364
0.195772
0.195878
0.195682
0.195189
0.194408
0.193354
0.192044
0.190502
0.188753
0.186826
0.184752
0.182567
0.180306
0.178005
0.175701
0.173432
0.171233
0.169141
0.167188
0.165405
0.163822
0.162462
0.161348
0.160496
0.159921
0.159631
0.156997
0.157312
0.157936
0.15886
0.160069
0.161546
0.163266
0.165203
0.167328
0.169606
0.172004
0.174483
0.177006
0.179533
0.182026
0.184446
0.186757
0.188924
0.190913
0.192695
0.194243
0.195535
0.196553
0.197281
0.197712
0.197839
0.197663
0.19719
0.196428
0.195392
0.1941
0.192575
0.190843
0.188932
0.186875
0.184706
0.18246
0.180173
0.177884
0.175629
0.173444
0.171364
0.169423
0.167651
0.166076
0.164725
0.163617
0.16277
0.162199
0.16191
0.158667
0.158985
0.159616
0.16055
0.161773
0.163266
0.165005
0.166965
0.169114
0.171418
0.173844
0.176353
0.178906
0.181465
0.18399
0.186444
0.188787
0.190987
0.193008
0.194822
0.196402
0.197725
0.198772
0.199529
0.199988
0.200143
0.199994
0.199546
0.19881
0.197798
0.196531
0.19503
0.193321
0.191434
0.1894
0.187254
0.18503
0.182766
0.180498
0.178263
0.176098
0.174037
0.172113
0.170357
0.168796
0.167457
0.166359
0.16552
0.164954
0.164668
0.160547
0.160869
0.161508
0.162454
0.163692
0.165203
0.166965
0.168949
0.171125
0.17346
0.175918
0.178461
0.181049
0.183645
0.186207
0.188698
0.19108
0.193317
0.195377
0.197229
0.198846
0.200205
0.201288
0.202082
0.202575
0.202764
0.202649
0.202235
0.201531
0.200553
0.199318
0.19785
0.196174
0.194319
0.192317
0.190203
0.188011
0.185778
0.183541
0.181336
0.1792
0.177165
0.175267
0.173533
0.171994
0.170671
0.169588
0.16876
0.168201
0.167919
0.162609
0.162935
0.163582
0.164541
0.165796
0.167328
0.169114
0.171125
0.173332
0.1757
0.178194
0.180774
0.183403
0.186039
0.188644
0.191178
0.193603
0.195884
0.197987
0.199882
0.201543
0.202946
0.204072
0.204908
0.205444
0.205676
0.205603
0.205231
0.204571
0.203635
0.202444
0.201019
0.199386
0.197576
0.195618
0.193548
0.191401
0.189211
0.187017
0.184854
0.182757
0.180761
0.178897
0.177196
0.175685
0.174388
0.173325
0.172512
0.171964
0.171687
0.164819
0.16515
0.165806
0.166779
0.168052
0.169606
0.171418
0.17346
0.1757
0.178105
0.180638
0.18326
0.185931
0.188613
0.191264
0.193846
0.19632
0.19865
0.200803
0.202749
0.20446
0.205913
0.20709
0.207978
0.208565
0.208849
0.208829
0.20851
0.207904
0.207023
0.205888
0.20452
0.202945
0.201194
0.199296
0.197285
0.195198
0.193068
0.190932
0.188825
0.186783
0.184839
0.183024
0.181367
0.179895
0.178632
0.177596
0.176805
0.176271
0.176002
0.167143
0.167479
0.168146
0.169133
0.170426
0.172004
0.173844
0.175918
0.178194
0.180638
0.183212
0.185879
0.188598
0.191329
0.194031
0.196665
0.199193
0.201578
0.203788
0.20579
0.207559
0.209071
0.210308
0.211256
0.211905
0.212252
0.212297
0.212045
0.211507
0.210696
0.209633
0.208338
0.206839
0.205165
0.203345
0.201414
0.199405
0.197354
0.195296
0.193266
0.191297
0.189423
0.187672
0.186075
0.184656
0.183438
0.18244
0.181678
0.181164
0.180904
0.169546
0.169887
0.170564
0.171567
0.17288
0.174483
0.176353
0.178461
0.180774
0.18326
0.185879
0.188594
0.191363
0.194147
0.196905
0.199596
0.202183
0.20463
0.206901
0.208968
0.210803
0.212383
0.213689
0.214709
0.215432
0.215856
0.215979
0.215809
0.215356
0.214634
0.213661
0.212461
0.211059
0.209483
0.207765
0.205937
0.204032
0.202084
0.200129
0.198198
0.196326
0.194543
0.192879
0.19136
0.190011
0.188853
0.187905
0.18718
0.186692
0.186445
0.171989
0.172336
0.173023
0.174042
0.175376
0.177006
0.178906
0.181049
0.183403
0.185931
0.188598
0.191363
0.194187
0.197028
0.199845
0.202598
0.20525
0.207763
0.210105
0.212243
0.214153
0.215811
0.217198
0.218302
0.219114
0.219629
0.219848
0.219779
0.21943
0.218817
0.217959
0.216878
0.215599
0.21415
0.212561
0.210865
0.209093
0.207279
0.205455
0.203654
0.201907
0.200243
0.19869
0.197273
0.196015
0.194935
0.194051
0.193376
0.192921
0.192691
0.174435
0.174787
0.175485
0.176521
0.177876
0.179533
0.181465
0.183645
0.186039
0.188613
0.191329
0.194147
0.197028
0.199928
0.202809
0.20563
0.208352
0.210939
0.213357
0.215577
0.217572
0.219318
0.2208
0.222002
0.222917
0.223542
0.223878
0.22393
0.22371
0.223233
0.222516
0.221583
0.220458
0.219168
0.217744
0.216214
0.214612
0.212967
0.211312
0.209676
0.208088
0.206576
0.205166
0.203879
0.202737
0.201758
0.200957
0.200345
0.199933
0.199725
0.176845
0.177202
0.177912
0.178964
0.180342
0.182026
0.18399
0.186207
0.188644
0.191264
0.194031
0.196905
0.199845
0.202809
0.205758
0.20865
0.211448
0.214116
0.21662
0.21893
0.221021
0.222869
0.224459
0.225777
0.226815
0.22757
0.228044
0.228244
0.228181
0.227869
0.227327
0.226576
0.225642
0.224551
0.223331
0.222011
0.220621
0.219189
0.217746
0.216318
0.214932
0.213613
0.212382
0.211261
0.210267
0.209415
0.208718
0.208187
0.207829
0.207648
0.179182
0.179545
0.180266
0.181335
0.182735
0.184446
0.186444
0.188698
0.191178
0.193846
0.196665
0.199596
0.202598
0.20563
0.20865
0.21162
0.214501
0.217256
0.219855
0.222266
0.224465
0.22643
0.228144
0.229596
0.230778
0.231687
0.232327
0.232704
0.23283
0.232719
0.232389
0.231863
0.231164
0.230318
0.229351
0.22829
0.227163
0.225997
0.224818
0.22365
0.222516
0.221437
0.220432
0.219518
0.218709
0.218017
0.217452
0.217022
0.216732
0.216586
0.18141
0.181779
0.182511
0.183596
0.185018
0.186757
0.188787
0.19108
0.193603
0.19632
0.199193
0.202183
0.20525
0.208352
0.211448
0.214501
0.21747
0.220323
0.223025
0.22555
0.227871
0.229968
0.231826
0.233433
0.234783
0.235875
0.236711
0.237299
0.237652
0.237783
0.237711
0.237457
0.237045
0.236497
0.23584
0.235098
0.234295
0.233456
0.232603
0.231757
0.230935
0.230155
0.22943
0.228773
0.228194
0.227701
0.2273
0.226995
0.226791
0.226688
0.183494
0.183869
0.184612
0.185713
0.187158
0.188924
0.190987
0.193317
0.195884
0.19865
0.201578
0.20463
0.207763
0.210939
0.214116
0.217256
0.220323
0.223281
0.226098
0.228749
0.231207
0.233455
0.235478
0.237265
0.238811
0.240116
0.241184
0.242023
0.242645
0.243066
0.243304
0.243379
0.243313
0.243128
0.242847
0.242493
0.242087
0.241648
0.241195
0.240742
0.240304
0.239891
0.239511
0.239172
0.238877
0.238629
0.23843
0.238281
0.238182
0.238132
0.185403
0.185783
0.186537
0.187654
0.18912
0.190913
0.193008
0.195377
0.197987
0.200803
0.203788
0.206901
0.210105
0.213357
0.21662
0.219855
0.223025
0.226098
0.229044
0.231834
0.234448
0.236867
0.239078
0.241072
0.242846
0.2444
0.24574
0.246875
0.247817
0.248583
0.24919
0.249658
0.250008
0.250259
0.250433
0.250548
0.250622
0.250669
0.250702
0.25073
0.25076
0.250795
0.250837
0.250886
0.250939
0.250993
0.251042
0.251084
0.251115
0.25113
0.187107
0.187492
0.188256
0.189389
0.190875
0.192695
0.194822
0.197229
0.199882
0.202749
0.20579
0.208968
0.212243
0.215577
0.21893
0.222266
0.22555
0.228749
0.231834
0.234781
0.23757
0.240182
0.242608
0.244841
0.246878
0.248722
0.250379
0.251861
0.25318
0.254353
0.255398
0.256334
0.257179
0.257953
0.258672
0.259351
0.260002
0.260635
0.261255
0.261864
0.262461
0.263041
0.263597
0.264119
0.264596
0.265017
0.265369
0.265645
0.265833
0.265929
0.188579
0.188969
0.189743
0.190891
0.192398
0.194243
0.196402
0.198846
0.201543
0.20446
0.207559
0.210803
0.214153
0.217572
0.221021
0.224465
0.227871
0.231207
0.234448
0.23757
0.240553
0.243385
0.246056
0.248561
0.250901
0.25308
0.255106
0.256992
0.258753
0.260405
0.261966
0.263455
0.264888
0.266281
0.267649
0.269001
0.270344
0.27168
0.273005
0.274314
0.275595
0.276833
0.278009
0.279104
0.280095
0.280961
0.281683
0.282241
0.282622
0.282815
0.189798
0.190193
0.190977
0.192139
0.193665
0.195535
0.197725
0.200205
0.202946
0.205913
0.209071
0.212383
0.215811
0.219318
0.222869
0.22643
0.229968
0.233455
0.236867
0.240182
0.243385
0.246464
0.249412
0.252229
0.254915
0.25748
0.259933
0.262289
0.264563
0.266775
0.26894
0.271078
0.273204
0.27533
0.277466
0.279617
0.281783
0.283956
0.286125
0.288271
0.290373
0.292401
0.294325
0.29611
0.297722
0.299127
0.300294
0.301196
0.30181
0.30212
0.190746
0.191145
0.191938
0.193114
0.194659
0.196553
0.198772
0.201288
0.204072
0.20709
0.210308
0.213689
0.217198
0.2208
0.224459
0.228144
0.231826
0.235478
0.239078
0.242608
0.246056
0.249412
0.252675
0.255844
0.258927
0.261933
0.264877
0.267774
0.270644
0.273505
0.276375
0.279271
0.282208
0.285195
0.288237
0.291331
0.29447
0.297637
0.300809
0.303954
0.307036
0.31001
0.312829
0.315443
0.317802
0.319856
0.321561
0.322877
0.323773
0.324225
0.191407
0.191811
0.192612
0.193802
0.195364
0.197281
0.199529
0.202082
0.204908
0.207978
0.211256
0.214709
0.218302
0.222002
0.225777
0.229596
0.233433
0.237265
0.241072
0.244841
0.248561
0.252229
0.255844
0.259413
0.262945
0.266455
0.26996
0.27348
0.277035
0.280645
0.284332
0.28811
0.291992
0.295985
0.300087
0.304289
0.308575
0.312916
0.317275
0.321606
0.325854
0.329956
0.333845
0.337452
0.340706
0.34354
0.345891
0.347705
0.34894
0.349564
0.191774
0.192181
0.192991
0.194193
0.195772
0.197712
0.199988
0.202575
0.205444
0.208565
0.211905
0.215432
0.219114
0.222917
0.226815
0.230778
0.234783
0.238811
0.242846
0.246878
0.250901
0.254915
0.258927
0.262945
0.266986
0.271067
0.27521
0.27944
0.28378
0.288252
0.292879
0.297676
0.302654
0.307815
0.313154
0.318653
0.324283
0.330005
0.335764
0.341497
0.347127
0.35257
0.357734
0.362526
0.366851
0.370618
0.373744
0.376157
0.377799
0.378629
0.191841
0.192252
0.193069
0.194282
0.195878
0.197839
0.200143
0.202764
0.205676
0.208849
0.212252
0.215856
0.219629
0.223542
0.22757
0.231687
0.235875
0.240116
0.2444
0.248722
0.25308
0.25748
0.261933
0.266455
0.271067
0.275792
0.280659
0.285694
0.290928
0.296385
0.302089
0.308058
0.314299
0.320813
0.327586
0.334594
0.341795
0.349133
0.356538
0.363922
0.371186
0.378218
0.384897
0.3911
0.396703
0.401586
0.40564
0.40877
0.410902
0.41198
0.191608
0.192023
0.192846
0.194071
0.195682
0.197663
0.199994
0.202649
0.205603
0.208829
0.212297
0.215979
0.219848
0.223878
0.228044
0.232327
0.236711
0.241184
0.24574
0.250379
0.255106
0.259933
0.264877
0.26996
0.27521
0.280659
0.286338
0.292284
0.29853
0.305106
0.312038
0.319346
0.327037
0.335107
0.343537
0.352293
0.361321
0.370546
0.379877
0.389202
0.398391
0.407301
0.415776
0.423657
0.430782
0.436998
0.442162
0.446152
0.44887
0.450245
0.19108
0.191498
0.192328
0.193563
0.195189
0.19719
0.199546
0.202235
0.205231
0.20851
0.212045
0.215809
0.219779
0.22393
0.228244
0.232704
0.237299
0.242023
0.246875
0.251861
0.256992
0.262289
0.267774
0.27348
0.27944
0.285694
0.292284
0.299251
0.306637
0.314477
0.322802
0.331632
0.340977
0.35083
0.361166
0.37194
0.383082
0.394501
0.40608
0.417678
0.42913
0.440255
0.450856
0.460728
0.469666
0.477472
0.483963
0.488982
0.492402
0.494133
0.190267
0.190687
0.191524
0.192768
0.194408
0.196428
0.19881
0.201531
0.204571
0.207904
0.211507
0.215356
0.21943
0.22371
0.228181
0.23283
0.237652
0.242645
0.247817
0.25318
0.258753
0.264563
0.270644
0.277035
0.28378
0.290928
0.29853
0.306637
0.315298
0.324557
0.334452
0.345006
0.356229
0.368114
0.38063
0.393721
0.407304
0.421264
0.435458
0.449711
0.463818
0.477551
0.490663
0.502896
0.51399
0.523692
0.53177
0.538021
0.542284
0.544443
0.189182
0.189605
0.190447
0.191701
0.193354
0.195392
0.197798
0.200553
0.203635
0.207023
0.210696
0.214634
0.218817
0.223233
0.227869
0.232719
0.237783
0.243066
0.248583
0.254353
0.260405
0.266775
0.273505
0.280645
0.288252
0.296385
0.305106
0.314477
0.324557
0.335402
0.347055
0.359547
0.372892
0.387081
0.40208
0.417822
0.434209
0.451103
0.46833
0.485675
0.502889
0.519688
0.535766
0.550797
0.564454
0.576418
0.586393
0.594121
0.599396
0.602068
0.187844
0.188269
0.189117
0.190378
0.192044
0.1941
0.196531
0.199318
0.202444
0.205888
0.209633
0.213661
0.217959
0.222516
0.227327
0.232389
0.237711
0.243304
0.24919
0.255398
0.261966
0.26894
0.276375
0.284332
0.292879
0.302089
0.312038
0.322802
0.334452
0.347055
0.360666
0.375326
0.391053
0.407842
0.425654
0.444416
0.464011
0.48428
0.505014
0.525954
0.546797
0.567197
0.586771
0.605118
0.621825
0.636489
0.648735
0.658236
0.664725
0.668016
0.186274
0.186702
0.187554
0.188824
0.190502
0.192575
0.19503
0.19785
0.201019
0.20452
0.208338
0.212461
0.216878
0.221583
0.226576
0.231863
0.237457
0.243379
0.249658
0.256334
0.263455
0.271078
0.279271
0.28811
0.297676
0.308058
0.319346
0.331632
0.345006
0.359547
0.375326
0.392394
0.410781
0.430486
0.45147
0.473654
0.496907
0.521044
0.54582
0.570928
0.596004
0.620625
0.644324
0.666599
0.686937
0.704828
0.719799
0.73143
0.739384
0.74342
0.184499
0.184929
0.185786
0.187063
0.188753
0.190843
0.193321
0.196174
0.199386
0.202945
0.206839
0.211059
0.215599
0.220458
0.225642
0.231164
0.237045
0.243313
0.250008
0.257179
0.264888
0.273204
0.282208
0.291992
0.302654
0.314299
0.327037
0.340977
0.356229
0.372892
0.391053
0.410781
0.432119
0.455076
0.479617
0.50566
0.533063
0.561615
0.591036
0.620966
0.650969
0.680537
0.709098
0.736033
0.760698
0.782455
0.8007
0.8149
0.824624
0.829561
0.182547
0.182979
0.18384
0.185125
0.186826
0.188932
0.191434
0.194319
0.197576
0.201194
0.205165
0.209483
0.21415
0.219168
0.224551
0.230318
0.236497
0.243128
0.250259
0.257953
0.266281
0.27533
0.285195
0.295985
0.307815
0.320813
0.335107
0.35083
0.368114
0.387081
0.407842
0.430486
0.455076
0.481635
0.510142
0.540514
0.572601
0.606174
0.640914
0.676406
0.712137
0.747498
0.781793
0.814259
0.844093
0.87049
0.892683
0.909992
0.92186
0.927893
0.180451
0.180884
0.181749
0.183041
0.184752
0.186875
0.1894
0.192317
0.195618
0.199296
0.203345
0.207765
0.212561
0.217744
0.223331
0.229351
0.23584
0.242847
0.250433
0.258672
0.267649
0.277466
0.288237
0.300087
0.313154
0.327586
0.343537
0.361166
0.38063
0.40208
0.425654
0.45147
0.479617
0.510142
0.543038
0.578237
0.615586
0.654841
0.695649
0.737541
0.779918
0.822057
0.863116
0.902158
0.938181
0.970167
0.997139
1.01822
1.03271
1.04007
0.178243
0.178678
0.179547
0.180846
0.182567
0.184706
0.187254
0.190203
0.193548
0.197285
0.201414
0.205937
0.210865
0.216214
0.222011
0.22829
0.235098
0.242493
0.250548
0.259351
0.269001
0.279617
0.291331
0.304289
0.318653
0.334594
0.352293
0.37194
0.393721
0.417822
0.444416
0.473654
0.50566
0.540514
0.578237
0.618779
0.662002
0.707654
0.755357
0.804587
0.85466
0.904725
0.953771
1.00065
1.0441
1.08285
1.11563
1.14132
1.15901
1.16801
0.17596
0.176397
0.177269
0.178574
0.180306
0.18246
0.18503
0.188011
0.191401
0.195198
0.199405
0.204032
0.209093
0.214612
0.220621
0.227163
0.234295
0.242087
0.250622
0.260002
0.270344
0.281783
0.29447
0.308575
0.324283
0.341795
0.361321
0.383082
0.407304
0.434209
0.464011
0.496907
0.533063
0.572601
0.615586
0.662002
0.711735
0.764544
0.82004
0.877654
0.936618
0.995944
1.05443
1.11066
1.16307
1.21003
1.24992
1.28127
1.30289
1.31392
0.173637
0.174076
0.174952
0.176263
0.178005
0.180173
0.182766
0.185778
0.189211
0.193068
0.197354
0.202084
0.207279
0.212967
0.219189
0.225997
0.233456
0.241648
0.250669
0.260635
0.27168
0.283956
0.297637
0.312916
0.330005
0.349133
0.370546
0.394501
0.421264
0.451103
0.48428
0.521044
0.561615
0.606174
0.654841
0.707654
0.764544
0.825305
0.889555
0.956701
1.0259
1.09604
1.16568
1.23311
1.29637
1.35337
1.402
1.44035
1.46685
1.48039
0.171314
0.171754
0.172633
0.17395
0.175701
0.177884
0.180498
0.183541
0.187017
0.190932
0.195296
0.200129
0.205455
0.211312
0.217746
0.224818
0.232603
0.241195
0.250702
0.261255
0.273005
0.286125
0.300809
0.317275
0.335764
0.356538
0.379877
0.40608
0.435458
0.46833
0.505014
0.54582
0.591036
0.640914
0.695649
0.755357
0.82004
0.889555
0.963563
1.04148
1.12242
1.20514
1.28799
1.36888
1.44536
1.51471
1.57418
1.62124
1.65383
1.67049
0.169025
0.169467
0.170349
0.171671
0.173432
0.175629
0.178263
0.181336
0.184854
0.188825
0.193266
0.198198
0.203654
0.209676
0.216318
0.22365
0.231757
0.240742
0.25073
0.261864
0.274314
0.288271
0.303954
0.321606
0.341497
0.363922
0.389202
0.417678
0.449711
0.485675
0.525954
0.570928
0.620966
0.676406
0.737541
0.804587
0.877654
0.956701
1.04148
1.13147
1.2258
1.32313
1.4216
1.51872
1.6114
1.6961
1.76913
1.8271
1.86732
1.88789
0.166809
0.167252
0.168137
0.169465
0.171233
0.173444
0.176098
0.1792
0.182757
0.186783
0.191297
0.196326
0.201907
0.208088
0.214932
0.222516
0.230935
0.240304
0.25076
0.262461
0.275595
0.290373
0.307036
0.325854
0.347127
0.371186
0.398391
0.42913
0.463818
0.502889
0.546797
0.596004
0.650969
0.712137
0.779918
0.85466
0.936618
1.0259
1.12242
1.2258
1.33525
1.44945
1.56638
1.68314
1.79586
1.89984
1.98999
2.06176
2.11156
2.13705
0.1647
0.165144
0.166032
0.167364
0.169141
0.171364
0.174037
0.177165
0.180761
0.184839
0.189423
0.194543
0.200243
0.206576
0.213613
0.221437
0.230155
0.239891
0.250795
0.263041
0.276833
0.292401
0.31001
0.329956
0.35257
0.378218
0.407301
0.440255
0.477551
0.519688
0.567197
0.620625
0.680537
0.747498
0.822057
0.904725
0.995944
1.09604
1.20514
1.32313
1.44945
1.58294
1.7216
1.8622
1.99998
2.12855
2.24062
2.32988
2.39176
2.42337
0.162731
0.163177
0.164067
0.165404
0.167188
0.169423
0.172113
0.175267
0.178897
0.183024
0.187672
0.192879
0.19869
0.205166
0.212382
0.220432
0.22943
0.239511
0.250837
0.263597
0.278009
0.294325
0.312829
0.333845
0.357734
0.384897
0.415776
0.450856
0.490663
0.535766
0.586771
0.644324
0.709098
0.781793
0.863116
0.953771
1.05443
1.16568
1.28799
1.4216
1.56638
1.7216
1.8856
2.05515
2.22466
2.38538
2.52589
2.6374
2.7143
2.75345
0.160935
0.161381
0.162274
0.163615
0.165405
0.167651
0.170357
0.173533
0.177196
0.181367
0.186075
0.19136
0.197273
0.203879
0.211261
0.219518
0.228773
0.239172
0.250886
0.264119
0.279104
0.29611
0.315443
0.337452
0.362526
0.3911
0.423657
0.460728
0.502896
0.550797
0.605118
0.666599
0.736033
0.814259
0.902158
1.00065
1.11066
1.23311
1.36888
1.51872
1.68314
1.8622
2.05515
2.25957
2.46991
2.67446
2.85242
2.99193
3.08714
3.13528
0.159338
0.159786
0.16068
0.162025
0.163822
0.166076
0.168796
0.171994
0.175685
0.179895
0.184656
0.190011
0.196015
0.202737
0.210267
0.218709
0.228194
0.238877
0.250939
0.264596
0.280095
0.297722
0.317802
0.340706
0.366851
0.396703
0.430782
0.469666
0.51399
0.564454
0.621825
0.686937
0.760698
0.844093
0.938181
1.0441
1.16307
1.29637
1.44536
1.6114
1.79586
1.99998
2.22466
2.46991
2.73311
3.00253
3.23004
3.40359
3.51996
3.57824
0.157968
0.158416
0.159312
0.16066
0.162462
0.164725
0.167457
0.170671
0.174388
0.178632
0.183438
0.188853
0.194935
0.201758
0.209415
0.218017
0.227701
0.238629
0.250993
0.265017
0.280961
0.299127
0.319856
0.34354
0.370618
0.401586
0.436998
0.477472
0.523692
0.576418
0.636489
0.704828
0.782455
0.87049
0.970167
1.08285
1.21003
1.35337
1.51471
1.6961
1.89984
2.12855
2.38538
2.67446
3.00253
3.3853
3.67458
3.8856
4.02413
4.09282
0.156844
0.157293
0.158191
0.159541
0.161348
0.163617
0.166359
0.169588
0.173325
0.177596
0.18244
0.187905
0.194051
0.200957
0.208718
0.217452
0.2273
0.23843
0.251042
0.265369
0.281683
0.300294
0.321561
0.345891
0.373744
0.40564
0.442162
0.483963
0.53177
0.586393
0.648735
0.719799
0.8007
0.892683
0.997139
1.11563
1.24992
1.402
1.57418
1.76913
1.98999
2.24062
2.52589
2.85242
3.23004
3.67458
4.01068
4.25354
4.41169
4.48974
0.155986
0.156435
0.157334
0.158686
0.160496
0.16277
0.16552
0.16876
0.172512
0.176805
0.181678
0.18718
0.193376
0.200345
0.208187
0.217022
0.226995
0.238281
0.251084
0.265645
0.282241
0.301196
0.322877
0.347705
0.376157
0.40877
0.446152
0.488982
0.538021
0.594121
0.658236
0.73143
0.8149
0.909992
1.01822
1.14132
1.28127
1.44035
1.62124
1.8271
2.06176
2.32988
2.6374
2.99193
3.40359
3.8856
4.25354
4.51988
4.69317
4.77858
0.155406
0.155856
0.156756
0.158109
0.159921
0.162199
0.164954
0.168201
0.171964
0.176271
0.181164
0.186692
0.192921
0.199933
0.207829
0.216732
0.226791
0.238182
0.251115
0.265833
0.282622
0.30181
0.323773
0.34894
0.377799
0.410902
0.44887
0.492402
0.542284
0.599396
0.664725
0.739384
0.824624
0.92186
1.03271
1.15901
1.30289
1.46685
1.65383
1.86732
2.11156
2.39176
2.7143
3.08714
3.51996
4.02413
4.41169
4.69317
4.8765
4.96689
0.155113
0.155563
0.156464
0.157818
0.159631
0.16191
0.164668
0.167919
0.171687
0.176002
0.180904
0.186445
0.192691
0.199725
0.207648
0.216586
0.226688
0.238132
0.25113
0.265929
0.282815
0.30212
0.324225
0.349564
0.378629
0.41198
0.450245
0.494133
0.544443
0.602068
0.668016
0.74342
0.829561
0.927893
1.04007
1.16801
1.31392
1.48039
1.67049
1.88789
2.13705
2.42337
2.75345
3.13528
3.57824
4.09282
4.48974
4.77858
4.96689
5.05976
)
;

boundaryField
{
    walls
    {
        type            zeroGradient;
    }
    frontAndBack
    {
        type            empty;
    }
}


// ************************************************************************* //
