/*--------------------------------*- C++ -*----------------------------------*\
| =========                 |                                                 |
| \\      /  F ield         | OpenFOAM: The Open Source CFD Toolbox           |
|  \\    /   O peration     | Version:  2406                                  |
|   \\  /    A nd           | Website:  www.openfoam.com                      |
|    \\/     M anipulation  |                                                 |
\*---------------------------------------------------------------------------*/
FoamFile
{
    version     2.0;
    format      ascii;
    arch        "LSB;label=32;scalar=64";
    class       volVectorField;
    location    "1.45";
    object      flux;
}
// * * * * * * * * * * * * * * * * * * * * * * * * * * * * * * * * * * * * * //

dimensions      [0 1 -1 1 0 0 0];

internalField   nonuniform List<vector> 
2500
(
(0.000523396 0.000523396 0)
(0.00156849 0.000527862 0)
(0.00261169 0.000536935 0)
(0.0036529 0.000550543 0)
(0.00468978 0.000568727 0)
(0.00572096 0.000591529 0)
(0.00674495 0.000618997 0)
(0.00776009 0.000651184 0)
(0.00876457 0.000688148 0)
(0.00975636 0.000729949 0)
(0.0107332 0.000776649 0)
(0.0116928 0.000828306 0)
(0.0126323 0.000884975 0)
(0.0135488 0.000946703 0)
(0.0144391 0.00101353 0)
(0.0152996 0.00108546 0)
(0.0161268 0.00116252 0)
(0.0169165 0.00124469 0)
(0.0176646 0.00133191 0)
(0.0183665 0.00142412 0)
(0.0190175 0.00152121 0)
(0.0196128 0.00162304 0)
(0.0201474 0.00172943 0)
(0.0206162 0.00184014 0)
(0.0210141 0.00195491 0)
(0.021336 0.00207341 0)
(0.0215769 0.00219526 0)
(0.021732 0.00232003 0)
(0.0217968 0.00244724 0)
(0.0217669 0.00257634 0)
(0.0216386 0.00270673 0)
(0.0214085 0.00283777 0)
(0.0210739 0.00296877 0)
(0.0206327 0.00309897 0)
(0.0200836 0.00322761 0)
(0.0194262 0.00335386 0)
(0.0186608 0.00347689 0)
(0.0177887 0.00359583 0)
(0.0168124 0.00370984 0)
(0.0157352 0.00381804 0)
(0.0145614 0.0039196 0)
(0.0132966 0.00401369 0)
(0.0119471 0.00409954 0)
(0.0105202 0.00417643 0)
(0.00902432 0.00424368 0)
(0.00746839 0.00430074 0)
(0.00586219 0.00434709 0)
(0.00421604 0.00438234 0)
(0.00254085 0.004406 0)
(0.000848699 0.00441685 0)
(0.000527862 0.00156849 0)
(0.00158202 0.00158202 0)
(0.00263437 0.00160922 0)
(0.00368469 0.00165004 0)
(0.00473076 0.00170462 0)
(0.00577123 0.00177305 0)
(0.00680461 0.00185549 0)
(0.00782924 0.0019521 0)
(0.00884333 0.00206306 0)
(0.00984486 0.00218854 0)
(0.0108316 0.00232874 0)
(0.0118011 0.00248382 0)
(0.0127507 0.00265396 0)
(0.0136773 0.00283931 0)
(0.0145778 0.00303996 0)
(0.0154486 0.00325599 0)
(0.016286 0.00348742 0)
(0.0170859 0.00373419 0)
(0.017844 0.00399618 0)
(0.0185558 0.00427317 0)
(0.0192164 0.00456486 0)
(0.019821 0.00487081 0)
(0.0203645 0.00519048 0)
(0.0208416 0.00552318 0)
(0.0212473 0.00586811 0)
(0.0215763 0.00622427 0)
(0.0218235 0.00659055 0)
(0.021984 0.00696564 0)
(0.0220531 0.00734808 0)
(0.0220264 0.00773626 0)
(0.0219001 0.00812837 0)
(0.0216706 0.00852248 0)
(0.0213351 0.00891648 0)
(0.0208916 0.00930815 0)
(0.0203385 0.00969513 0)
(0.0196755 0.010075 0)
(0.0189027 0.0104452 0)
(0.0180217 0.0108031 0)
(0.0170346 0.0111462 0)
(0.0159449 0.0114718 0)
(0.0147571 0.0117775 0)
(0.0134766 0.0120607 0)
(0.0121098 0.0123192 0)
(0.0106644 0.0125506 0)
(0.00914863 0.0127531 0)
(0.0075718 0.0129249 0)
(0.00594379 0.0130644 0)
(0.00427494 0.0131706 0)
(0.00257535 0.0132424 0)
(0.000859543 0.0132772 0)
(0.000536935 0.00261169 0)
(0.00160922 0.00263437 0)
(0.00267972 0.00267972 0)
(0.0037483 0.00274785 0)
(0.00481278 0.00283893 0)
(0.00587184 0.00295316 0)
(0.00692401 0.00309078 0)
(0.00796766 0.00325206 0)
(0.009001 0.00343731 0)
(0.010022 0.00364682 0)
(0.0110285 0.00388093 0)
(0.012018 0.00413992 0)
(0.0129878 0.00442409 0)
(0.0139348 0.00473368 0)
(0.0148557 0.00506889 0)
(0.0157471 0.00542984 0)
(0.016605 0.00581656 0)
(0.0174253 0.00622897 0)
(0.0182036 0.00666689 0)
(0.0189351 0.00712996 0)
(0.0196151 0.00761768 0)
(0.0202384 0.00812933 0)
(0.0207997 0.00866402 0)
(0.0212938 0.00922061 0)
(0.0217152 0.00979775 0)
(0.0220584 0.0103938 0)
(0.0223183 0.0110069 0)
(0.0224896 0.0116349 0)
(0.0225674 0.0122753 0)
(0.0225472 0.0129254 0)
(0.0224248 0.0135823 0)
(0.0221966 0.0142426 0)
(0.0218596 0.0149029 0)
(0.0214114 0.0155593 0)
(0.0208505 0.0162081 0)
(0.0201762 0.016845 0)
(0.0193889 0.0174658 0)
(0.0184897 0.0180662 0)
(0.0174811 0.0186418 0)
(0.0163665 0.0191882 0)
(0.0151503 0.0197011 0)
(0.0138383 0.0201765 0)
(0.012437 0.0206103 0)
(0.0109542 0.0209988 0)
(0.00939855 0.0213387 0)
(0.00777968 0.021627 0)
(0.00610791 0.0218611 0)
(0.00439406 0.0220391 0)
(0.00264745 0.0221593 0)
(0.000883458 0.0222194 0)
(0.000550543 0.0036529 0)
(0.00165004 0.00368469 0)
(0.00274785 0.0037483 0)
(0.0038439 0.0038439 0)
(0.00493607 0.00397172 0)
(0.00602308 0.00413204 0)
(0.00710351 0.00432521 0)
(0.00817577 0.00455162 0)
(0.00923809 0.00481169 0)
(0.0102885 0.00510586 0)
(0.0113247 0.0054346 0)
(0.0123443 0.00579834 0)
(0.0133444 0.00619751 0)
(0.0143221 0.00663245 0)
(0.015274 0.00710347 0)
(0.0161963 0.00761075 0)
(0.0170852 0.00815436 0)
(0.0179363 0.00873422 0)
(0.018745 0.00935007 0)
(0.0195065 0.0100014 0)
(0.0202158 0.0106876 0)
(0.0208673 0.0114077 0)
(0.0214557 0.0121604 0)
(0.0219754 0.0129441 0)
(0.0224205 0.013757 0)
(0.0227855 0.0145967 0)
(0.0230646 0.0154607 0)
(0.0232524 0.0163459 0)
(0.0233436 0.0172489 0)
(0.0233334 0.0181658 0)
(0.0232172 0.0190926 0)
(0.0229912 0.0200244 0)
(0.0226519 0.0209565 0)
(0.0221968 0.0218835 0)
(0.0216242 0.0227999 0)
(0.0209332 0.0236997 0)
(0.0201239 0.024577 0)
(0.0191976 0.0254257 0)
(0.0181566 0.0262395 0)
(0.0170043 0.0270123 0)
(0.0157454 0.0277378 0)
(0.0143857 0.0284104 0)
(0.0129322 0.0290242 0)
(0.0113928 0.0295741 0)
(0.00977683 0.0300552 0)
(0.00809421 0.0304632 0)
(0.00635587 0.0307944 0)
(0.00457316 0.0310458 0)
(0.00275571 0.0312149 0)
(0.000919632 0.0312999 0)
(0.000568727 0.00468978 0)
(0.00170462 0.00473076 0)
(0.00283893 0.00481278 0)
(0.00397172 0.00493607 0)
(0.00510093 0.00510093 0)
(0.00622533 0.00530772 0)
(0.00734358 0.00555691 0)
(0.00845413 0.005849 0)
(0.00955525 0.00618457 0)
(0.0106449 0.00656421 0)
(0.011721 0.00698853 0)
(0.0127809 0.00745812 0)
(0.0138219 0.00797354 0)
(0.0148407 0.0085353 0)
(0.015834 0.00914379 0)
(0.016798 0.00979929 0)
(0.0177285 0.0105019 0)
(0.018621 0.0112516 0)
(0.0194708 0.0120481 0)
(0.0202727 0.0128908 0)
(0.0210214 0.0137788 0)
(0.0217111 0.0147109 0)
(0.0223361 0.0156856 0)
(0.0228904 0.0167009 0)
(0.0233678 0.0177543 0)
(0.0237621 0.0188429 0)
(0.0240675 0.0199634 0)
(0.0242778 0.0211118 0)
(0.0243874 0.0222838 0)
(0.0243909 0.0234744 0)
(0.0242834 0.0246781 0)
(0.0240606 0.0258889 0)
(0.0237187 0.0271005 0)
(0.0232547 0.028306 0)
(0.0226667 0.029498 0)
(0.0219534 0.030669 0)
(0.0211149 0.0318111 0)
(0.0201522 0.0329163 0)
(0.0190677 0.0339764 0)
(0.0178648 0.0349833 0)
(0.0165485 0.0359291 0)
(0.0151246 0.0368059 0)
(0.0136007 0.0376064 0)
(0.0119851 0.0383236 0)
(0.0102876 0.0389512 0)
(0.0085189 0.0394835 0)
(0.00669053 0.0399155 0)
(0.00481463 0.0402434 0)
(0.00290157 0.0404638 0)
(0.000968401 0.0405745 0)
(0.000591529 0.00572096 0)
(0.00177305 0.00577123 0)
(0.00295316 0.00587184 0)
(0.00413204 0.00602308 0)
(0.00530772 0.00622533 0)
(0.00647906 0.00647906 0)
(0.0076448 0.00678485 0)
(0.00880344 0.00714334 0)
(0.0099533 0.00755527 0)
(0.0110924 0.00802138 0)
(0.0122186 0.00854246 0)
(0.0133293 0.00911928 0)
(0.0144216 0.00975255 0)
(0.0154924 0.0104429 0)
(0.016538 0.011191 0)
(0.0175544 0.0119971 0)
(0.0185375 0.0128615 0)
(0.0194824 0.013784 0)
(0.0203841 0.0147645 0)
(0.0212372 0.0158023 0)
(0.0220359 0.0168964 0)
(0.0227742 0.0180453 0)
(0.0234457 0.0192472 0)
(0.024044 0.0204996 0)
(0.0245626 0.0217997 0)
(0.0249946 0.0231439 0)
(0.0253335 0.0245281 0)
(0.0255728 0.0259475 0)
(0.0257062 0.0273967 0)
(0.0257277 0.0288696 0)
(0.0256318 0.0303594 0)
(0.0254136 0.0318589 0)
(0.0250689 0.03336 0)
(0.0245943 0.0348542 0)
(0.0239872 0.0363324 0)
(0.0232463 0.0377853 0)
(0.0223712 0.0392029 0)
(0.0213629 0.0405753 0)
(0.0202236 0.0418922 0)
(0.018957 0.0431436 0)
(0.017568 0.0443194 0)
(0.016063 0.0454098 0)
(0.0144499 0.0464056 0)
(0.0127376 0.0472981 0)
(0.0109367 0.0480791 0)
(0.00905855 0.0487417 0)
(0.00711575 0.0492796 0)
(0.00512138 0.0496876 0)
(0.00308682 0.0499619 0)
(0.00103034 0.0500997 0)
(0.000618997 0.00674495 0)
(0.00185549 0.00680461 0)
(0.00309078 0.00692401 0)
(0.00432521 0.00710351 0)
(0.00555691 0.00734358 0)
(0.00678485 0.0076448 0)
(0.00800786 0.00800786 0)
(0.00922455 0.00843359 0)
(0.0104333 0.00892287 0)
(0.0116321 0.00947664 0)
(0.0128189 0.0100959 0)
(0.013991 0.0107815 0)
(0.0151455 0.0115346 0)
(0.0162792 0.0123558 0)
(0.0173882 0.0132459 0)
(0.0184685 0.0142054 0)
(0.0195154 0.0152348 0)
(0.0205241 0.0163339 0)
(0.0214891 0.0175025 0)
(0.0224045 0.01874 0)
(0.0232643 0.0200452 0)
(0.0240619 0.0214165 0)
(0.0247905 0.0228519 0)
(0.0254429 0.0243484 0)
(0.0260121 0.0259026 0)
(0.0264905 0.0275105 0)
(0.026871 0.0291672 0)
(0.0271463 0.030867 0)
(0.0273094 0.0326035 0)
(0.0273537 0.0343694 0)
(0.0272728 0.0361567 0)
(0.0270612 0.0379566 0)
(0.026714 0.0397595 0)
(0.0262272 0.0415551 0)
(0.0255977 0.0433326 0)
(0.0248239 0.0450805 0)
(0.0239049 0.046787 0)
(0.0228415 0.0484398 0)
(0.021636 0.0500267 0)
(0.020292 0.0515353 0)
(0.0188147 0.0529534 0)
(0.0172109 0.054269 0)
(0.0154889 0.055471 0)
(0.0136587 0.0565485 0)
(0.0117313 0.0574919 0)
(0.00971931 0.0582922 0)
(0.00763645 0.0589421 0)
(0.005497 0.0594352 0)
(0.00331366 0.0597666 0)
(0.00110619 0.0599331 0)
(0.000651184 0.00776009 0)
(0.0019521 0.00782924 0)
(0.00325206 0.00796766 0)
(0.00455162 0.00817577 0)
(0.005849 0.00845413 0)
(0.00714334 0.00880344 0)
(0.00843359 0.00922455 0)
(0.00971844 0.00971844 0)
(0.0109964 0.0102862 0)
(0.0122654 0.010929 0)
(0.0135235 0.0116479 0)
(0.014768 0.0124443 0)
(0.0159958 0.0133192 0)
(0.0172037 0.0142737 0)
(0.0183876 0.0153088 0)
(0.0195433 0.016425 0)
(0.0206659 0.017623 0)
(0.0217502 0.0189029 0)
(0.0227903 0.0202644 0)
(0.0237799 0.0217069 0)
(0.0247125 0.0232292 0)
(0.0255808 0.0248296 0)
(0.0263775 0.0265056 0)
(0.0270948 0.0282542 0)
(0.0277247 0.0300715 0)
(0.0282592 0.0319527 0)
(0.02869 0.0338922 0)
(0.0290091 0.0358835 0)
(0.0292086 0.0379192 0)
(0.0292809 0.0399909 0)
(0.029219 0.0420891 0)
(0.0290164 0.0442035 0)
(0.0286675 0.0463229 0)
(0.0281674 0.0484352 0)
(0.0275126 0.0505275 0)
(0.0267007 0.0525864 0)
(0.0257305 0.0545977 0)
(0.0246026 0.056547 0)
(0.0233191 0.0584197 0)
(0.0218836 0.0602009 0)
(0.0203017 0.0618761 0)
(0.0185806 0.0634311 0)
(0.0167293 0.0648523 0)
(0.0147585 0.0661269 0)
(0.0126804 0.0672432 0)
(0.0105088 0.0681905 0)
(0.00825865 0.0689599 0)
(0.0059459 0.0695437 0)
(0.00358477 0.0699363 0)
(0.00119683 0.0701334 0)
(0.000688148 0.00876457 0)
(0.00206306 0.00884333 0)
(0.00343731 0.009001 0)
(0.00481169 0.00923809 0)
(0.00618457 0.00955525 0)
(0.00755527 0.0099533 0)
(0.00892287 0.0104333 0)
(0.0102862 0.0109964 0)
(0.0116438 0.0116438 0)
(0.0129939 0.012377 0)
(0.0143342 0.0131975 0)
(0.0156623 0.0141066 0)
(0.016975 0.0151057 0)
(0.0182687 0.0161963 0)
(0.0195395 0.0173794 0)
(0.0207827 0.018656 0)
(0.0219933 0.0200268 0)
(0.0231655 0.0214921 0)
(0.0242931 0.0230519 0)
(0.0253694 0.0247054 0)
(0.026387 0.0264516 0)
(0.0273383 0.0282885 0)
(0.0282151 0.0302136 0)
(0.0290087 0.0322234 0)
(0.0297105 0.0343137 0)
(0.0303112 0.0364791 0)
(0.0308019 0.0387134 0)
(0.0311734 0.0410092 0)
(0.0314168 0.043358 0)
(0.0315235 0.0457501 0)
(0.0314854 0.0481748 0)
(0.031295 0.0506201 0)
(0.0309457 0.0530732 0)
(0.0304318 0.05552 0)
(0.029749 0.0579455 0)
(0.0288941 0.060334 0)
(0.0278655 0.062669 0)
(0.0266635 0.0649337 0)
(0.0252898 0.0671108 0)
(0.0237484 0.0691829 0)
(0.0220449 0.0711329 0)
(0.0201871 0.0729439 0)
(0.0181848 0.0746 0)
(0.0160495 0.076086 0)
(0.0137949 0.0773879 0)
(0.011436 0.0784931 0)
(0.00898963 0.079391 0)
(0.00647337 0.0800725 0)
(0.00390337 0.0805307 0)
(0.00130336 0.0807609 0)
(0.000729949 0.00975636 0)
(0.00218854 0.00984486 0)
(0.00364682 0.010022 0)
(0.00510586 0.0102885 0)
(0.00656421 0.0106449 0)
(0.00802138 0.0110924 0)
(0.00947664 0.0116321 0)
(0.010929 0.0122654 0)
(0.012377 0.0129939 0)
(0.0138191 0.0138191 0)
(0.0152531 0.0147428 0)
(0.0166762 0.0157668 0)
(0.0180856 0.0168928 0)
(0.0194773 0.0181223 0)
(0.0208473 0.019457 0)
(0.0221907 0.0208979 0)
(0.0235021 0.022446 0)
(0.0247752 0.024102 0)
(0.0260035 0.0258658 0)
(0.0271796 0.0277369 0)
(0.0282955 0.0297144 0)
(0.0293428 0.0317961 0)
(0.0303124 0.0339795 0)
(0.0311949 0.0362609 0)
(0.0319805 0.0386355 0)
(0.0326589 0.0410976 0)
(0.03322 0.0436401 0)
(0.0336536 0.0462549 0)
(0.0339494 0.0489324 0)
(0.0340977 0.0516617 0)
(0.0340891 0.0544308 0)
(0.0339149 0.0572259 0)
(0.0335673 0.0600324 0)
(0.0330397 0.0628341 0)
(0.0323266 0.065614 0)
(0.0314242 0.0683537 0)
(0.0303302 0.0710344 0)
(0.0290444 0.0736364 0)
(0.0275682 0.0761397 0)
(0.0259057 0.078524 0)
(0.0240628 0.0807694 0)
(0.0220478 0.0828561 0)
(0.0198714 0.0847654 0)
(0.0175463 0.0864795 0)
(0.0150875 0.0879819 0)
(0.0125119 0.089258 0)
(0.00983798 0.0902949 0)
(0.00708565 0.0910821 0)
(0.00427324 0.0916116 0)
(0.00142705 0.0918776 0)
(0.000776649 0.0107332 0)
(0.00232874 0.0108316 0)
(0.00388093 0.0110285 0)
(0.0054346 0.0113247 0)
(0.00698853 0.011721 0)
(0.00854246 0.0122186 0)
(0.0100959 0.0128189 0)
(0.0116479 0.0135235 0)
(0.0131975 0.0143342 0)
(0.0147428 0.0152531 0)
(0.016282 0.016282 0)
(0.0178122 0.0174231 0)
(0.0193305 0.0186785 0)
(0.0208329 0.0200501 0)
(0.022315 0.0215399 0)
(0.0237718 0.0231492 0)
(0.0251974 0.0248796 0)
(0.0265852 0.0267317 0)
(0.0279281 0.0287058 0)
(0.029218 0.0308018 0)
(0.0304462 0.0330186 0)
(0.0316035 0.0353543 0)
(0.0326798 0.0378062 0)
(0.0336647 0.0403703 0)
(0.0345471 0.0430417 0)
(0.0353158 0.0458141 0)
(0.0359592 0.0486798 0)
(0.0364657 0.0516299 0)
(0.0368237 0.0546537 0)
(0.0370219 0.0577392 0)
(0.0370496 0.0608727 0)
(0.0368966 0.0640389 0)
(0.0365539 0.0672211 0)
(0.0360134 0.0704012 0)
(0.0352686 0.0735595 0)
(0.0343145 0.0766752 0)
(0.0331482 0.0797267 0)
(0.0317687 0.0826913 0)
(0.0301774 0.0855458 0)
(0.0283781 0.0882671 0)
(0.026377 0.0908317 0)
(0.0241832 0.0932169 0)
(0.0218082 0.0954007 0)
(0.019266 0.0973624 0)
(0.0165733 0.0990828 0)
(0.013749 0.100545 0)
(0.0108138 0.101733 0)
(0.00779008 0.102636 0)
(0.00469885 0.103243 0)
(0.00156938 0.103548 0)
(0.000828306 0.0116928 0)
(0.00248382 0.0118011 0)
(0.00413992 0.012018 0)
(0.00579834 0.0123443 0)
(0.00745812 0.0127809 0)
(0.00911928 0.0133293 0)
(0.0107815 0.013991 0)
(0.0124443 0.014768 0)
(0.0141066 0.0156623 0)
(0.0157668 0.0166762 0)
(0.0174231 0.0178122 0)
(0.0190728 0.0190728 0)
(0.0207126 0.0204603 0)
(0.0223387 0.0219772 0)
(0.0239465 0.0236257 0)
(0.0255304 0.025408 0)
(0.0270845 0.0273255 0)
(0.0286015 0.0293795 0)
(0.0300737 0.0315708 0)
(0.0314924 0.0338992 0)
(0.032848 0.0363639 0)
(0.0341304 0.0389633 0)
(0.0353284 0.0416945 0)
(0.0364305 0.0445537 0)
(0.0374242 0.0475354 0)
(0.0382971 0.0506331 0)
(0.0390359 0.0538385 0)
(0.0396275 0.0571418 0)
(0.0400587 0.0605314 0)
(0.0403166 0.063994 0)
(0.0403888 0.0675143 0)
(0.0402633 0.0710755 0)
(0.0399296 0.0746586 0)
(0.039378 0.0782433 0)
(0.0386007 0.0818073 0)
(0.0375915 0.0853272 0)
(0.0363463 0.088778 0)
(0.0348635 0.092134 0)
(0.033144 0.0953686 0)
(0.0311915 0.098455 0)
(0.0290126 0.101366 0)
(0.0266169 0.104076 0)
(0.024017 0.106559 0)
(0.0212284 0.108791 0)
(0.0182698 0.11075 0)
(0.0151621 0.112415 0)
(0.0119288 0.113769 0)
(0.00859523 0.114798 0)
(0.00518541 0.11549 0)
(0.00173211 0.115838 0)
(0.000884975 0.0126323 0)
(0.00265396 0.0127507 0)
(0.00442409 0.0129878 0)
(0.00619751 0.0133444 0)
(0.00797354 0.0138219 0)
(0.00975255 0.0144216 0)
(0.0115346 0.0151455 0)
(0.0133192 0.0159958 0)
(0.0151057 0.016975 0)
(0.0168928 0.0180856 0)
(0.0186785 0.0193305 0)
(0.0204603 0.0207126 0)
(0.0222349 0.0222349 0)
(0.0239983 0.0239002 0)
(0.0257458 0.0257114 0)
(0.0274715 0.0276708 0)
(0.0291689 0.0297807 0)
(0.0308305 0.0320427 0)
(0.0324477 0.0344579 0)
(0.0340111 0.0370267 0)
(0.0355104 0.0397485 0)
(0.0369341 0.0426219 0)
(0.0382702 0.0456442 0)
(0.0395056 0.0488113 0)
(0.0406266 0.052118 0)
(0.041619 0.0555572 0)
(0.042468 0.0591202 0)
(0.0431586 0.0627962 0)
(0.0436758 0.0665729 0)
(0.0440048 0.0704356 0)
(0.044131 0.0743676 0)
(0.0440409 0.0783501 0)
(0.0437217 0.0823622 0)
(0.0431621 0.0863809 0)
(0.0423525 0.0903814 0)
(0.0412852 0.094337 0)
(0.039955 0.0982195 0)
(0.0383593 0.102 0)
(0.0364984 0.105647 0)
(0.0343758 0.109131 0)
(0.0319983 0.11242 0)
(0.0293761 0.115485 0)
(0.0265231 0.118295 0)
(0.0234565 0.120824 0)
(0.020197 0.123044 0)
(0.0167682 0.124932 0)
(0.0131967 0.126469 0)
(0.00951102 0.127636 0)
(0.00573893 0.128422 0)
(0.00191726 0.128817 0)
(0.000946703 0.0135488 0)
(0.00283931 0.0136773 0)
(0.00473368 0.0139348 0)
(0.00663245 0.0143221 0)
(0.0085353 0.0148407 0)
(0.0104429 0.0154924 0)
(0.0123558 0.0162792 0)
(0.0142737 0.0172037 0)
(0.0161963 0.0182687 0)
(0.0181223 0.0194773 0)
(0.0200501 0.0208329 0)
(0.0219772 0.0223387 0)
(0.0239002 0.0239983 0)
(0.0258152 0.0258152 0)
(0.0277171 0.0277926 0)
(0.0295998 0.0299337 0)
(0.0314564 0.0322411 0)
(0.0332787 0.0347171 0)
(0.0350577 0.0373634 0)
(0.036783 0.0401806 0)
(0.0384432 0.0431689 0)
(0.040026 0.046327 0)
(0.0415179 0.0496525 0)
(0.0429043 0.0531416 0)
(0.0441701 0.0567887 0)
(0.0452992 0.0605867 0)
(0.0462749 0.0645263 0)
(0.0470803 0.0685963 0)
(0.0476981 0.0727833 0)
(0.0481113 0.0770713 0)
(0.0483033 0.0814422 0)
(0.0482579 0.0858752 0)
(0.0479604 0.0903472 0)
(0.0473972 0.0948327 0)
(0.0465567 0.0993038 0)
(0.0454296 0.103731 0)
(0.0440089 0.108081 0)
(0.042291 0.112322 0)
(0.0402753 0.11642 0)
(0.0379649 0.120338 0)
(0.0353668 0.124041 0)
(0.032492 0.127495 0)
(0.0293556 0.130665 0)
(0.0259766 0.13352 0)
(0.0223782 0.136028 0)
(0.018587 0.138163 0)
(0.0146331 0.139901 0)
(0.0105489 0.141223 0)
(0.00636641 0.142112 0)
(0.00212718 0.14256 0)
(0.00101353 0.0144391 0)
(0.00303996 0.0145778 0)
(0.00506889 0.0148557 0)
(0.00710347 0.015274 0)
(0.00914379 0.015834 0)
(0.011191 0.016538 0)
(0.0132459 0.0173882 0)
(0.0153088 0.0183876 0)
(0.0173794 0.0195395 0)
(0.019457 0.0208473 0)
(0.0215399 0.022315 0)
(0.0236257 0.0239465 0)
(0.0257114 0.0257458 0)
(0.0277926 0.0277171 0)
(0.0298643 0.0298643 0)
(0.03192 0.0321912 0)
(0.0339524 0.0347012 0)
(0.0359527 0.0373972 0)
(0.0379112 0.0402815 0)
(0.0398167 0.0433556 0)
(0.0416568 0.0466199 0)
(0.0434177 0.0500737 0)
(0.0450847 0.0537151 0)
(0.0466417 0.0575404 0)
(0.0480717 0.0615443 0)
(0.0493566 0.0657193 0)
(0.0504776 0.070056 0)
(0.0514156 0.0745427 0)
(0.0521508 0.0791648 0)
(0.0526637 0.0839054 0)
(0.0529349 0.0887448 0)
(0.0529459 0.0936602 0)
(0.0526792 0.0986263 0)
(0.0521187 0.103615 0)
(0.0512503 0.108595 0)
(0.0500626 0.113532 0)
(0.0485469 0.118392 0)
(0.0466978 0.123136 0)
(0.0445137 0.127725 0)
(0.0419973 0.132118 0)
(0.0391557 0.136277 0)
(0.0360003 0.140159 0)
(0.0325478 0.143726 0)
(0.0288192 0.146941 0)
(0.0248403 0.149769 0)
(0.0206414 0.152177 0)
(0.0162563 0.154139 0)
(0.0117222 0.155631 0)
(0.00707594 0.156636 0)
(0.00236457 0.157142 0)
(0.00108546 0.0152996 0)
(0.00325599 0.0154486 0)
(0.00542984 0.0157471 0)
(0.00761075 0.0161963 0)
(0.00979929 0.016798 0)
(0.0119971 0.0175544 0)
(0.0142054 0.0184685 0)
(0.016425 0.0195433 0)
(0.018656 0.0207827 0)
(0.0208979 0.0221907 0)
(0.0231492 0.0237718 0)
(0.025408 0.0255304 0)
(0.0276708 0.0274715 0)
(0.0299337 0.0295998 0)
(0.0321912 0.03192 0)
(0.0344367 0.0344367 0)
(0.0366624 0.0371541 0)
(0.038859 0.0400759 0)
(0.041016 0.0432051 0)
(0.0431213 0.0465442 0)
(0.0451614 0.0500941 0)
(0.0471213 0.0538549 0)
(0.0489845 0.0578251 0)
(0.0507335 0.0620014 0)
(0.052349 0.0663789 0)
(0.053811 0.0709502 0)
(0.0550983 0.0757056 0)
(0.056189 0.0806328 0)
(0.0570609 0.0857168 0)
(0.0576913 0.0909394 0)
(0.0580581 0.0962793 0)
(0.0581395 0.101712 0)
(0.0579149 0.10721 0)
(0.0573654 0.112741 0)
(0.0564741 0.118271 0)
(0.0552268 0.123764 0)
(0.0536124 0.129178 0)
(0.0516238 0.134471 0)
(0.0492581 0.139599 0)
(0.046517 0.144516 0)
(0.0434075 0.149175 0)
(0.0399418 0.153531 0)
(0.0361378 0.157538 0)
(0.0320189 0.161153 0)
(0.0276141 0.164335 0)
(0.0229573 0.167047 0)
(0.0180873 0.169259 0)
(0.0130463 0.170941 0)
(0.00787686 0.172075 0)
(0.00263258 0.172646 0)
(0.00116252 0.0161268 0)
(0.00348742 0.016286 0)
(0.00581656 0.016605 0)
(0.00815436 0.0170852 0)
(0.0105019 0.0177285 0)
(0.0128615 0.0185375 0)
(0.0152348 0.0195154 0)
(0.017623 0.0206659 0)
(0.0200268 0.0219933 0)
(0.022446 0.0235021 0)
(0.0248796 0.0251974 0)
(0.0273255 0.0270845 0)
(0.0297807 0.0291689 0)
(0.0322411 0.0314564 0)
(0.0347012 0.0339524 0)
(0.0371541 0.0366624 0)
(0.0395915 0.0395915 0)
(0.0420038 0.0427445 0)
(0.0443795 0.0461254 0)
(0.0467056 0.0497372 0)
(0.0489675 0.0535822 0)
(0.0511487 0.057661 0)
(0.0532313 0.061973 0)
(0.0551956 0.0665155 0)
(0.0570204 0.0712839 0)
(0.0586832 0.0762712 0)
(0.0601603 0.0814677 0)
(0.0614268 0.0868609 0)
(0.0624573 0.092435 0)
(0.0632262 0.0981709 0)
(0.0637075 0.104046 0)
(0.0638762 0.110033 0)
(0.063708 0.116103 0)
(0.0631805 0.122221 0)
(0.0622734 0.128349 0)
(0.0609692 0.134445 0)
(0.0592543 0.140465 0)
(0.057119 0.14636 0)
(0.0545585 0.15208 0)
(0.0515736 0.157573 0)
(0.0481708 0.162786 0)
(0.0443629 0.167666 0)
(0.0401693 0.172161 0)
(0.0356159 0.176221 0)
(0.0307351 0.179798 0)
(0.0255652 0.182851 0)
(0.0201503 0.185341 0)
(0.0145388 0.187237 0)
(0.00878 0.188515 0)
(0.00293485 0.189158 0)
(0.00124469 0.0169165 0)
(0.00373419 0.0170859 0)
(0.00622897 0.0174253 0)
(0.00873422 0.0179363 0)
(0.0112516 0.018621 0)
(0.013784 0.0194824 0)
(0.0163339 0.0205241 0)
(0.0189029 0.0217502 0)
(0.0214921 0.0231655 0)
(0.024102 0.0247752 0)
(0.0267317 0.0265852 0)
(0.0293795 0.0286015 0)
(0.0320427 0.0308305 0)
(0.0347171 0.0332787 0)
(0.0373972 0.0359527 0)
(0.0400759 0.038859 0)
(0.0427445 0.0420038 0)
(0.0453929 0.0453929 0)
(0.0480087 0.0490313 0)
(0.0505781 0.0529234 0)
(0.0530852 0.0570724 0)
(0.0555121 0.0614801 0)
(0.057839 0.0661466 0)
(0.0600444 0.0710703 0)
(0.0621047 0.0762473 0)
(0.0639948 0.0816709 0)
(0.065688 0.0873317 0)
(0.0671563 0.0932172 0)
(0.0683709 0.0993112 0)
(0.0693022 0.105594 0)
(0.0699206 0.112041 0)
(0.0701968 0.118624 0)
(0.0701025 0.12531 0)
(0.069611 0.132062 0)
(0.0686981 0.138838 0)
(0.0673425 0.145592 0)
(0.065527 0.152274 0)
(0.063239 0.158829 0)
(0.0604714 0.165201 0)
(0.0572234 0.171331 0)
(0.0535008 0.177158 0)
(0.0493169 0.182621 0)
(0.0446925 0.187659 0)
(0.0396562 0.192216 0)
(0.0342441 0.196236 0)
(0.0284998 0.199669 0)
(0.0224734 0.202472 0)
(0.0162205 0.204608 0)
(0.0097979 0.206049 0)
(0.0032756 0.206773 0)
(0.00133191 0.0176646 0)
(0.00399618 0.017844 0)
(0.00666689 0.0182036 0)
(0.00935007 0.018745 0)
(0.0120481 0.0194708 0)
(0.0147645 0.0203841 0)
(0.0175025 0.0214891 0)
(0.0202644 0.0227903 0)
(0.0230519 0.0242931 0)
(0.0258658 0.0260035 0)
(0.0287058 0.0279281 0)
(0.0315708 0.0300737 0)
(0.0344579 0.0324477 0)
(0.0373634 0.0350577 0)
(0.0402815 0.0379112 0)
(0.0432051 0.041016 0)
(0.0461254 0.0443795 0)
(0.0490313 0.0480087 0)
(0.0519101 0.0519101 0)
(0.0547467 0.0560892 0)
(0.0575241 0.0605506 0)
(0.0602229 0.0652973 0)
(0.0628216 0.0703308 0)
(0.0652962 0.0756506 0)
(0.0676209 0.0812535 0)
(0.0697677 0.0871339 0)
(0.0717066 0.0932828 0)
(0.0734063 0.0996879 0)
(0.0748338 0.106333 0)
(0.0759556 0.113197 0)
(0.0767374 0.120255 0)
(0.0771454 0.127477 0)
(0.0771463 0.134827 0)
(0.0767087 0.142266 0)
(0.0758035 0.149746 0)
(0.0744048 0.157218 0)
(0.0724912 0.164624 0)
(0.0700465 0.171905 0)
(0.0670604 0.178997 0)
(0.0635301 0.185831 0)
(0.0594604 0.19234 0)
(0.0548645 0.198452 0)
(0.0497648 0.204098 0)
(0.0441926 0.209211 0)
(0.0381885 0.213728 0)
(0.0318016 0.21759 0)
(0.0250892 0.220746 0)
(0.018115 0.223152 0)
(0.0109451 0.224776 0)
(0.00365973 0.225593 0)
(0.00142412 0.0183665 0)
(0.00427317 0.0185558 0)
(0.00712996 0.0189351 0)
(0.0100014 0.0195065 0)
(0.0128908 0.0202727 0)
(0.0158023 0.0212372 0)
(0.01874 0.0224045 0)
(0.0217069 0.0237799 0)
(0.0247054 0.0253694 0)
(0.0277369 0.0271796 0)
(0.0308018 0.029218 0)
(0.0338992 0.0314924 0)
(0.0370267 0.0340111 0)
(0.0401806 0.036783 0)
(0.0433556 0.0398167 0)
(0.0465442 0.0431213 0)
(0.0497372 0.0467056 0)
(0.0529234 0.0505781 0)
(0.0560892 0.0547467 0)
(0.0592186 0.0592186 0)
(0.0622933 0.0639998 0)
(0.0652923 0.069095 0)
(0.0681923 0.0745072 0)
(0.070967 0.0802371 0)
(0.073588 0.0862832 0)
(0.0760241 0.0926406 0)
(0.078242 0.0993016 0)
(0.0802063 0.106254 0)
(0.0818799 0.113482 0)
(0.0832244 0.120964 0)
(0.0842006 0.128675 0)
(0.0847691 0.136582 0)
(0.0848913 0.144648 0)
(0.0845298 0.152829 0)
(0.08365 0.161075 0)
(0.0822205 0.16933 0)
(0.0802147 0.177531 0)
(0.0776117 0.185611 0)
(0.0743975 0.193498 0)
(0.0705662 0.201114 0)
(0.0661212 0.208381 0)
(0.0610753 0.215219 0)
(0.0554522 0.221546 0)
(0.0492863 0.227285 0)
(0.0426228 0.232361 0)
(0.0355174 0.236707 0)
(0.0280354 0.240262 0)
(0.0202503 0.242974 0)
(0.0122388 0.244806 0)
(0.00409296 0.245728 0)
(0.00152121 0.0190175 0)
(0.00456486 0.0192164 0)
(0.00761768 0.0196151 0)
(0.0106876 0.0202158 0)
(0.0137788 0.0210214 0)
(0.0168964 0.0220359 0)
(0.0200452 0.0232643 0)
(0.0232292 0.0247125 0)
(0.0264516 0.026387 0)
(0.0297144 0.0282955 0)
(0.0330186 0.0304462 0)
(0.0363639 0.032848 0)
(0.0397485 0.0355104 0)
(0.0431689 0.0384432 0)
(0.0466199 0.0416568 0)
(0.0500941 0.0451614 0)
(0.0535822 0.0489675 0)
(0.0570724 0.0530852 0)
(0.0605506 0.0575241 0)
(0.0639998 0.0622933 0)
(0.0674006 0.0674006 0)
(0.0707303 0.0728525 0)
(0.0739637 0.0786538 0)
(0.0770722 0.0848072 0)
(0.0800244 0.0913127 0)
(0.0827861 0.0981671 0)
(0.0853201 0.105364 0)
(0.0875867 0.112892 0)
(0.0895441 0.120735 0)
(0.0911486 0.128874 0)
(0.0923552 0.13728 0)
(0.0931185 0.145922 0)
(0.0933933 0.154758 0)
(0.0931357 0.163743 0)
(0.0923042 0.172821 0)
(0.0908609 0.181931 0)
(0.0887727 0.191005 0)
(0.0860132 0.199966 0)
(0.0825635 0.208732 0)
(0.0784138 0.217218 0)
(0.0735649 0.225332 0)
(0.068029 0.232982 0)
(0.0618309 0.240074 0)
(0.055008 0.246518 0)
(0.0476106 0.252227 0)
(0.0397019 0.257121 0)
(0.0313564 0.261129 0)
(0.0226589 0.26419 0)
(0.0136987 0.266257 0)
(0.00458201 0.267299 0)
(0.00162304 0.0196128 0)
(0.00487081 0.019821 0)
(0.00812933 0.0202384 0)
(0.0114077 0.0208673 0)
(0.0147109 0.0217111 0)
(0.0180453 0.0227742 0)
(0.0214165 0.0240619 0)
(0.0248296 0.0255808 0)
(0.0282885 0.0273383 0)
(0.0317961 0.0293428 0)
(0.0353543 0.0316035 0)
(0.0389633 0.0341304 0)
(0.0426219 0.0369341 0)
(0.046327 0.040026 0)
(0.0500737 0.0434177 0)
(0.0538549 0.0471213 0)
(0.057661 0.0511487 0)
(0.0614801 0.0555121 0)
(0.0652973 0.0602229 0)
(0.069095 0.0652923 0)
(0.0728525 0.0707303 0)
(0.0765456 0.0765456 0)
(0.080147 0.0827452 0)
(0.0836259 0.089334 0)
(0.0869479 0.096314 0)
(0.0900752 0.103684 0)
(0.0929666 0.11144 0)
(0.095578 0.119571 0)
(0.0978621 0.128063 0)
(0.0997693 0.136897 0)
(0.101248 0.146044 0)
(0.102247 0.155471 0)
(0.102712 0.165137 0)
(0.102593 0.17499 0)
(0.101839 0.184973 0)
(0.100404 0.195018 0)
(0.0982491 0.205049 0)
(0.0953393 0.214982 0)
(0.0916498 0.224724 0)
(0.0871659 0.234178 0)
(0.0818849 0.243239 0)
(0.0758174 0.251802 0)
(0.0689888 0.259756 0)
(0.0614395 0.266998 0)
(0.0532257 0.273425 0)
(0.0444187 0.278942 0)
(0.0351039 0.283466 0)
(0.025379 0.286924 0)
(0.0153482 0.289262 0)
(0.00513476 0.290441 0)
(0.00172943 0.0201474 0)
(0.00519048 0.0203645 0)
(0.00866402 0.0207997 0)
(0.0121604 0.0214557 0)
(0.0156856 0.0223361 0)
(0.0192472 0.0234457 0)
(0.0228519 0.0247905 0)
(0.0265056 0.0263775 0)
(0.0302136 0.0282151 0)
(0.0339795 0.0303124 0)
(0.0378062 0.0326798 0)
(0.0416945 0.0353284 0)
(0.0456442 0.0382702 0)
(0.0496525 0.0415179 0)
(0.0537151 0.0450847 0)
(0.0578251 0.0489845 0)
(0.061973 0.0532313 0)
(0.0661466 0.057839 0)
(0.0703308 0.0628216 0)
(0.0745072 0.0681923 0)
(0.0786538 0.0739637 0)
(0.0827452 0.080147 0)
(0.086752 0.086752 0)
(0.090641 0.0937861 0)
(0.0943747 0.101254 0)
(0.0979117 0.109157 0)
(0.101207 0.117494 0)
(0.10421 0.126255 0)
(0.10687 0.135429 0)
(0.109129 0.144996 0)
(0.11093 0.154931 0)
(0.112211 0.165198 0)
(0.112912 0.175753 0)
(0.112972 0.186546 0)
(0.112332 0.197512 0)
(0.110937 0.208578 0)
(0.108737 0.219662 0)
(0.105689 0.230668 0)
(0.10176 0.241494 0)
(0.0969288 0.252028 0)
(0.0911882 0.262151 0)
(0.0845461 0.27174 0)
(0.0770277 0.280671 0)
(0.0686764 0.288818 0)
(0.0595546 0.296061 0)
(0.0497427 0.30229 0)
(0.0393387 0.307405 0)
(0.0284556 0.311319 0)
(0.0172151 0.313968 0)
(0.00576052 0.315303 0)
(0.00184014 0.0206162 0)
(0.00552318 0.0208416 0)
(0.00922061 0.0212938 0)
(0.0129441 0.0219754 0)
(0.0167009 0.0228904 0)
(0.0204996 0.024044 0)
(0.0243484 0.0254429 0)
(0.0282542 0.0270948 0)
(0.0322234 0.0290087 0)
(0.0362609 0.0311949 0)
(0.0403703 0.0336647 0)
(0.0445537 0.0364305 0)
(0.0488113 0.0395056 0)
(0.0531416 0.0429043 0)
(0.0575404 0.0466417 0)
(0.0620014 0.0507335 0)
(0.0665155 0.0551956 0)
(0.0710703 0.0600444 0)
(0.0756506 0.0652962 0)
(0.0802371 0.070967 0)
(0.0848072 0.0770722 0)
(0.089334 0.0836259 0)
(0.0937861 0.090641 0)
(0.098128 0.098128 0)
(0.102319 0.106095 0)
(0.106315 0.114547 0)
(0.110064 0.123483 0)
(0.113514 0.132901 0)
(0.116604 0.142788 0)
(0.119271 0.153129 0)
(0.121449 0.163897 0)
(0.12307 0.175058 0)
(0.12406 0.186569 0)
(0.124351 0.198375 0)
(0.123871 0.210409 0)
(0.122554 0.222591 0)
(0.120339 0.234831 0)
(0.117172 0.247024 0)
(0.11301 0.259054 0)
(0.107823 0.270795 0)
(0.101597 0.282112 0)
(0.094337 0.292861 0)
(0.0860659 0.302897 0)
(0.0768302 0.312075 0)
(0.0666986 0.320252 0)
(0.055762 0.327297 0)
(0.0441328 0.333091 0)
(0.0319419 0.337531 0)
(0.0193321 0.340537 0)
(0.00647036 0.342054 0)
(0.00195491 0.0210141 0)
(0.00586811 0.0212473 0)
(0.00979775 0.0217152 0)
(0.013757 0.0224205 0)
(0.0177543 0.0233678 0)
(0.0217997 0.0245626 0)
(0.0259026 0.0260121 0)
(0.0300715 0.0277247 0)
(0.0343137 0.0297105 0)
(0.0386355 0.0319805 0)
(0.0430417 0.0345471 0)
(0.0475354 0.0374242 0)
(0.052118 0.0406266 0)
(0.0567887 0.0441701 0)
(0.0615443 0.0480717 0)
(0.0663789 0.052349 0)
(0.0712839 0.0570204 0)