/*--------------------------------*- C++ -*----------------------------------*\
| =========                 |                                                 |
| \\      /  F ield         | OpenFOAM: The Open Source CFD Toolbox           |
|  \\    /   O peration     | Version:  2406                                  |
|   \\  /    A nd           | Website:  www.openfoam.com                      |
|    \\/     M anipulation  |                                                 |
\*---------------------------------------------------------------------------*/
FoamFile
{
    version     2.0;
    format      ascii;
    arch        "LSB;label=32;scalar=64";
    class       volScalarField;
    location    "1.45";
    object      gradTy;
}
// * * * * * * * * * * * * * * * * * * * * * * * * * * * * * * * * * * * * * //

dimensions      [0 -1 0 1 0 0 0];

internalField   nonuniform List<scalar> 
2500
(
0.00523396
0.00527862
0.00536935
0.00550543
0.00568727
0.00591529
0.00618997
0.00651184
0.00688148
0.00729949
0.00776649
0.00828306
0.00884975
0.00946703
0.0101353
0.0108546
0.0116252
0.0124469
0.0133191
0.0142412
0.0152121
0.0162304
0.0172943
0.0184014
0.0195491
0.0207341
0.0219526
0.0232003
0.0244724
0.0257634
0.0270673
0.0283777
0.0296877
0.0309897
0.0322761
0.0335386
0.0347689
0.0359583
0.0370984
0.0381804
0.039196
0.0401369
0.0409954
0.0417643
0.0424368
0.0430074
0.0434709
0.0438234
0.04406
0.0441685
0.0156849
0.0158202
0.0160922
0.0165004
0.0170462
0.0177305
0.0185549
0.019521
0.0206306
0.0218854
0.0232874
0.0248382
0.0265396
0.0283931
0.0303996
0.0325599
0.0348742
0.0373419
0.0399618
0.0427317
0.0456486
0.0487081
0.0519048
0.0552318
0.0586811
0.0622427
0.0659055
0.0696564
0.0734808
0.0773626
0.0812837
0.0852248
0.0891648
0.0930815
0.0969513
0.10075
0.104452
0.108031
0.111462
0.114718
0.117775
0.120607
0.123192
0.125506
0.127531
0.129249
0.130644
0.131706
0.132424
0.132772
0.0261169
0.0263437
0.0267972
0.0274785
0.0283893
0.0295316
0.0309078
0.0325206
0.0343731
0.0364682
0.0388093
0.0413992
0.0442409
0.0473368
0.0506889
0.0542984
0.0581656
0.0622897
0.0666689
0.0712996
0.0761768
0.0812933
0.0866402
0.0922061
0.0979775
0.103938
0.110069
0.116349
0.122753
0.129254
0.135823
0.142426
0.149029
0.155593
0.162081
0.16845
0.174658
0.180662
0.186418
0.191882
0.197011
0.201765
0.206103
0.209988
0.213387
0.21627
0.218611
0.220391
0.221593
0.222194
0.036529
0.0368469
0.037483
0.038439
0.0397172
0.0413204
0.0432521
0.0455162
0.0481169
0.0510586
0.054346
0.0579834
0.0619751
0.0663245
0.0710347
0.0761075
0.0815436
0.0873422
0.0935007
0.100014
0.106876
0.114077
0.121604
0.129441
0.13757
0.145967
0.154607
0.163459
0.172489
0.181658
0.190926
0.200244
0.209565
0.218835
0.227999
0.236997
0.24577
0.254257
0.262395
0.270123
0.277378
0.284104
0.290242
0.295741
0.300552
0.304632
0.307944
0.310458
0.312149
0.312999
0.0468978
0.0473076
0.0481278
0.0493607
0.0510093
0.0530772
0.0555691
0.05849
0.0618457
0.0656421
0.0698853
0.0745812
0.0797354
0.085353
0.0914379
0.0979929
0.105019
0.112516
0.120481
0.128908
0.137788
0.147109
0.156856
0.167009
0.177543
0.188429
0.199634
0.211118
0.222838
0.234744
0.246781
0.258889
0.271005
0.28306
0.29498
0.30669
0.318111
0.329163
0.339764
0.349833
0.359291
0.368059
0.376064
0.383236
0.389512
0.394835
0.399155
0.402434
0.404638
0.405745
0.0572096
0.0577123
0.0587184
0.0602308
0.0622533
0.0647906
0.0678485
0.0714334
0.0755527
0.0802138
0.0854246
0.0911928
0.0975255
0.104429
0.11191
0.119971
0.128615
0.13784
0.147645
0.158023
0.168964
0.180453
0.192472
0.204996
0.217997
0.231439
0.245281
0.259475
0.273967
0.288696
0.303594
0.318589
0.3336
0.348542
0.363324
0.377853
0.392029
0.405753
0.418922
0.431436
0.443194
0.454098
0.464056
0.472981
0.480791
0.487417
0.492796
0.496876
0.499619
0.500997
0.0674495
0.0680461
0.0692401
0.0710351
0.0734358
0.076448
0.0800786
0.0843359
0.0892287
0.0947664
0.100959
0.107815
0.115346
0.123558
0.132459
0.142054
0.152348
0.163339
0.175025
0.1874
0.200452
0.214165
0.228519
0.243484
0.259026
0.275105
0.291672
0.30867
0.326035
0.343694
0.361567
0.379566
0.397595
0.415551
0.433326
0.450805
0.46787
0.484398
0.500267
0.515353
0.529534
0.54269
0.55471
0.565485
0.574919
0.582922
0.589421
0.594352
0.597666
0.599331
0.0776009
0.0782924
0.0796766
0.0817577
0.0845413
0.0880344
0.0922455
0.0971844
0.102862
0.10929
0.116479
0.124443
0.133192
0.142737
0.153088
0.16425
0.17623
0.189029
0.202644
0.217069
0.232292
0.248296
0.265056
0.282542
0.300715
0.319527
0.338922
0.358835
0.379192
0.399909
0.420891
0.442035
0.463229
0.484352
0.505275
0.525864
0.545977
0.56547
0.584197
0.602009
0.618761
0.634311
0.648523
0.661269
0.672432
0.681905
0.689599
0.695437
0.699363
0.701334
0.0876457
0.0884333
0.09001
0.0923809
0.0955525
0.099533
0.104333
0.109964
0.116438
0.12377
0.131975
0.141066
0.151057
0.161963
0.173794
0.18656
0.200268
0.214921
0.230519
0.247054
0.264516
0.282885
0.302136
0.322234
0.343137
0.364791
0.387134
0.410092
0.43358
0.457501
0.481748
0.506201
0.530732
0.5552
0.579455
0.60334
0.62669
0.649337
0.671108
0.691829
0.711329
0.729439
0.746
0.76086
0.773879
0.784931
0.79391
0.800725
0.805307
0.807609
0.0975636
0.0984486
0.10022
0.102885
0.106449
0.110924
0.116321
0.122654
0.129939
0.138191
0.147428
0.157668
0.168928
0.181223
0.19457
0.208979
0.22446
0.24102
0.258658
0.277369
0.297144
0.317961
0.339795
0.362609
0.386355
0.410976
0.436401
0.462549
0.489324
0.516617
0.544308
0.572259
0.600324
0.628341
0.65614
0.683537
0.710344
0.736364
0.761397
0.78524
0.807694
0.828561
0.847654
0.864795
0.879819
0.89258
0.902949
0.910821
0.916116
0.918776
0.107332
0.108316
0.110285
0.113247
0.11721
0.122186
0.128189
0.135235
0.143342
0.152531
0.16282
0.174231
0.186785
0.200501
0.215399
0.231492
0.248796
0.267317
0.287058
0.308018
0.330186
0.353543
0.378062
0.403703
0.430417
0.458141
0.486798
0.516299
0.546537
0.577392
0.608727
0.640389
0.672211
0.704012
0.735595
0.766752
0.797267
0.826913
0.855458
0.882671
0.908317
0.932169
0.954007
0.973624
0.990828
1.00545
1.01733
1.02636
1.03243
1.03548
0.116928
0.118011
0.12018
0.123443
0.127809
0.133293
0.13991
0.14768
0.156623
0.166762
0.178122
0.190728
0.204603
0.219772
0.236257
0.25408
0.273255
0.293795
0.315708
0.338992
0.363639
0.389633
0.416945
0.445537
0.475354
0.506331
0.538385
0.571418
0.605314
0.63994
0.675143
0.710755
0.746586
0.782433
0.818073
0.853272
0.88778
0.92134
0.953686
0.98455
1.01366
1.04076
1.06559
1.08791
1.1075
1.12415
1.13769
1.14798
1.1549
1.15838
0.126323
0.127507
0.129878
0.133444
0.138219
0.144216
0.151455
0.159958
0.16975
0.180856
0.193305
0.207126
0.222349
0.239002
0.257114
0.276708
0.297807
0.320427
0.344579
0.370267
0.397485
0.426219
0.456442
0.488113
0.52118
0.555572
0.591202
0.627962
0.665729
0.704356
0.743676
0.783501
0.823622
0.863809
0.903814
0.94337
0.982195
1.02
1.05647
1.09131
1.1242
1.15485
1.18295
1.20824
1.23044
1.24932
1.26469
1.27636
1.28422
1.28817
0.135488
0.136773
0.139348
0.143221
0.148407
0.154924
0.162792
0.172037
0.182687
0.194773
0.208329
0.223387
0.239983
0.258152
0.277926
0.299337
0.322411
0.347171
0.373634
0.401806
0.431689
0.46327
0.496525
0.531416
0.567887
0.605867
0.645263
0.685963
0.727833
0.770713
0.814422
0.858752
0.903472
0.948327
0.993038
1.03731
1.08081
1.12322
1.1642
1.20338
1.24041
1.27495
1.30665
1.3352
1.36028
1.38163
1.39901
1.41223
1.42112
1.4256
0.144391
0.145778
0.148557
0.15274
0.15834
0.16538
0.173882
0.183876
0.195395
0.208473
0.22315
0.239465
0.257458
0.277171
0.298643
0.321912
0.347012
0.373972
0.402815
0.433556
0.466199
0.500737
0.537151
0.575404
0.615443
0.657193
0.70056
0.745427
0.791648
0.839054
0.887448
0.936602
0.986263
1.03615
1.08595
1.13532
1.18392
1.23136
1.27725
1.32118
1.36277
1.40159
1.43726
1.46941
1.49769
1.52177
1.54139
1.55631
1.56636
1.57142
0.152996
0.154486
0.157471
0.161963
0.16798
0.175544
0.184685
0.195433
0.207827
0.221907
0.237718
0.255304
0.274715
0.295998
0.3192
0.344367
0.371541
0.400759
0.432051
0.465442
0.500941
0.538549
0.578251
0.620014
0.663789
0.709502
0.757056
0.806328
0.857168
0.909394
0.962793
1.01712
1.0721
1.12741
1.18271
1.23764
1.29178
1.34471
1.39599
1.44516
1.49175
1.53531
1.57538
1.61153
1.64335
1.67047
1.69259
1.70941
1.72075
1.72646
0.161268
0.16286
0.16605
0.170852
0.177285
0.185375
0.195154
0.206659
0.219933
0.235021
0.251974
0.270845
0.291689
0.314564
0.339524
0.366624
0.395915
0.427445
0.461254
0.497372
0.535822
0.57661
0.61973
0.665155
0.712839
0.762712
0.814677
0.868609
0.92435
0.981709
1.04046
1.10033
1.16103
1.22221
1.28349
1.34445
1.40465
1.4636
1.5208
1.57573
1.62786
1.67666
1.72161
1.76221
1.79798
1.82851
1.85341
1.87237
1.88515
1.89158
0.169165
0.170859
0.174253
0.179363
0.18621
0.194824
0.205241
0.217502
0.231655
0.247752
0.265852
0.286015
0.308305
0.332787
0.359527
0.38859
0.420038
0.453929
0.490313
0.529234
0.570724
0.614801
0.661466
0.710703
0.762473
0.816709
0.873317
0.932172
0.993112
1.05594
1.12041
1.18624
1.2531
1.32062
1.38838
1.45592
1.52274
1.58829
1.65201
1.71331
1.77158
1.82621
1.87659
1.92216
1.96236
1.99669
2.02472
2.04608
2.06049
2.06773
0.176646
0.17844
0.182036
0.18745
0.194708
0.203841
0.214891
0.227903
0.242931
0.260035
0.279281
0.300737
0.324477
0.350577
0.379112
0.41016
0.443795
0.480087
0.519101
0.560892
0.605506
0.652973
0.703308
0.756506
0.812535
0.871339
0.932828
0.996879
1.06333
1.13197
1.20255
1.27477
1.34827
1.42266
1.49746
1.57218
1.64624
1.71905
1.78997
1.85831
1.9234
1.98452
2.04098
2.09211
2.13728
2.1759
2.20746
2.23152
2.24776
2.25593
0.183665
0.185558
0.189351
0.195065
0.202727
0.212372
0.224045
0.237799
0.253694
0.271796
0.29218
0.314924
0.340111
0.36783
0.398167
0.431213
0.467056
0.505781
0.547467
0.592186
0.639998
0.69095
0.745072
0.802371
0.862832
0.926406
0.993016
1.06254
1.13482
1.20964
1.28675
1.36582
1.44648
1.52829
1.61075
1.6933
1.77531
1.85611
1.93498
2.01114
2.08381
2.15219
2.21546
2.27285
2.32361
2.36707
2.40262
2.42974
2.44806
2.45728
0.190175
0.192164
0.196151
0.202158
0.210214
0.220359
0.232643
0.247125
0.26387
0.282955
0.304462
0.32848
0.355104
0.384432
0.416568
0.451614
0.489675
0.530852
0.575241
0.622933
0.674006
0.728525
0.786538
0.848072
0.913127
0.981671
1.05364
1.12892
1.20735
1.28874
1.3728
1.45922
1.54758
1.63743
1.72821
1.81931
1.91005
1.99966
2.08732
2.17218
2.25332
2.32982
2.40074
2.46518
2.52227
2.57121
2.61129
2.6419
2.66257
2.67299
0.196128
0.19821
0.202384
0.208673
0.217111
0.227742
0.240619
0.255808
0.273383
0.293428
0.316035
0.341304
0.369341
0.40026
0.434177
0.471213
0.511487
0.555121
0.602229
0.652923
0.707303
0.765456
0.827452
0.89334
0.96314
1.03684
1.1144
1.19571
1.28063
1.36897
1.46044
1.55471
1.65137
1.7499
1.84973
1.95018
2.05049
2.14982
2.24724
2.34178
2.43239
2.51802
2.59756
2.66998
2.73425
2.78942
2.83466
2.86924
2.89262
2.90441
0.201474
0.203645
0.207997
0.214557
0.223361
0.234457
0.247905
0.263775
0.282151
0.303124
0.326798
0.353284
0.382702
0.415179
0.450847
0.489845
0.532313
0.57839
0.628216
0.681923
0.739637
0.80147
0.86752
0.937861
1.01254
1.09157
1.17494
1.26255
1.35429
1.44996
1.54931
1.65198
1.75753
1.86546
1.97512
2.08578
2.19662
2.30668
2.41494
2.52028
2.62151
2.7174
2.80671
2.88818
2.96061
3.0229
3.07405
3.11319
3.13968
3.15303
0.206162
0.208416
0.212938
0.219754
0.228904
0.24044
0.254429
0.270948
0.290087
0.311949
0.336647
0.364305
0.395056
0.429043
0.466417
0.507335
0.551956
0.600444
0.652962
0.70967
0.770722
0.836259
0.90641
0.98128
1.06095
1.14547
1.23483
1.32901
1.42788
1.53129
1.63897
1.75058
1.86569
1.98375
2.10409
2.22591
2.34831
2.47024
2.59054
2.70795
2.82112
2.92861
3.02897
3.12075
3.20252
3.27297
3.33091
3.37531
3.40537
3.42054
0.210141
0.212473
0.217152
0.224205
0.233678
0.245626
0.260121
0.277247
0.297105
0.319805
0.345471
0.374242
0.406266
0.441701
0.480717
0.52349
0.570204
0.621047
0.676209
0.73588
0.800244
0.869479
0.943747
1.02319
1.10793
1.19806
1.2936
1.39457
1.50088
1.61239
1.72887
1.85
1.97534
2.10431
2.23622
2.37023
2.50533
2.64039
2.7741
2.90503
3.03163
3.15225
3.2652
3.36875
3.46125
3.54109
3.60687
3.65734
3.69156
3.70883
0.21336
0.215763
0.220584
0.227855
0.237621
0.249946
0.264905
0.282592
0.303112
0.326589
0.353158
0.382971
0.41619
0.452992
0.493566
0.53811
0.586832
0.639948
0.697677
0.760241
0.827861
0.900752
0.979117
1.06315
1.153
1.24882
1.35068
1.45863
1.57265
1.69263
1.81838
1.94959
2.08583
2.22654
2.37099
2.51828
2.66735
2.81692
2.96557
3.11166
3.25342
3.38895
3.51625
3.63332
3.73816
3.82888
3.90376
3.9613
4.00035
4.02008
0.215769
0.218235
0.223183
0.230646
0.240675
0.253335
0.26871
0.2869
0.308019
0.3322
0.359592
0.390359
0.42468
0.462749
0.504776
0.550983
0.601603
0.65688
0.717066
0.78242
0.853201
0.929666
1.01207
1.10064
1.19561
1.29715
1.40543
1.52053
1.64249
1.77126
1.90669
2.04853
2.19637
2.34966
2.50766
2.66943
2.83382
2.99947
3.16476
3.32787
3.48678
3.63928
3.78304
3.91567
4.0348
4.13816
4.22364
4.28947
4.33419
4.3568
0.21732
0.21984
0.224896
0.232524
0.242778
0.255728
0.271463
0.290091
0.311734
0.336536
0.364657
0.396275
0.431586
0.470803
0.514156
0.56189
0.614268
0.671563
0.734063
0.802063
0.875867
0.95578
1.0421
1.13514
1.23515
1.34241
1.45712
1.57947
1.70955
1.84738
1.9929
2.1459
2.30602
2.47274
2.64534
2.82284
3.00404
3.18746
3.37132
3.55358
3.73191
3.90378
4.06645
4.21709
4.35284
4.47096
4.5689
4.64446
4.69586
4.72188
0.217968
0.220531
0.225674
0.233436
0.243874
0.257062
0.273094
0.292086
0.314168
0.339494
0.368237
0.400587
0.436758
0.476981
0.521508
0.570609
0.624573
0.683709
0.748338
0.818799
0.895441
0.978621
1.0687
1.16604
1.27098
1.38386
1.50498
1.63459
1.77289
1.92
2.07593
2.24056
2.41361
2.59462
2.78288
2.97745
3.17705
3.3801
3.58468
3.78848
3.98888
4.18293
4.36741
4.53896
4.69413
4.8296
4.94224
5.02932
5.08866
5.11873
0.217669
0.220264
0.225472
0.233334
0.243909
0.257277
0.273537
0.292809
0.315235
0.340977
0.370219
0.403166
0.440048
0.481113
0.526637
0.576913
0.632262
0.693022
0.759556
0.832244
0.911486
0.997693
1.09129
1.19271
1.30238
1.42071
1.5481
1.68492
1.83146
1.98795
2.15453
2.3312
2.51777
2.71388
2.9189
3.13189
3.35158
3.5763
3.80398
4.03205
4.25755
4.47705
4.68679
4.88274
5.06074
5.21671
5.3468
5.44763
5.51646
5.55137
0.216386
0.219001
0.224248
0.232172
0.242834
0.256318
0.272728
0.29219
0.314854
0.340891
0.370496
0.403888
0.44131
0.483033
0.529349
0.580581
0.637075
0.699206
0.767374
0.842006
0.923552
1.01248
1.1093
1.21449
1.32859
1.45211
1.58555
1.72939
1.88406
2.04994
2.22731
2.4163
2.6169
2.82885
3.05166
3.28446
3.52601
3.77459
4.028
4.28342
4.53751
4.78631
5.0254
5.24995
5.45493
5.63528
5.78624
5.90358
5.98384
6.0246
0.214085
0.216706
0.221966
0.229912
0.240606
0.254136
0.270612
0.290164
0.31295
0.339149
0.368966
0.402633
0.440409
0.482579
0.529459
0.581395
0.638762
0.701968
0.771454
0.847691
0.931185
1.02247
1.12211
1.2307
1.34884
1.47716
1.61629
1.76684
1.92941
2.10453
2.29265
2.49411
2.70909
2.93753
3.17908
3.43305
3.69827
3.97304
4.25505
4.54129
4.82797
5.11059
5.38392
5.64218
5.87921
6.08876
6.26487
6.40218
6.49633
6.54419
0.210739
0.213351
0.218596
0.226519
0.237187
0.250689
0.26714
0.286675
0.309457
0.335673
0.365539
0.399296
0.437217
0.479604
0.526792
0.579149
0.63708
0.701025
0.771463
0.848913
0.933933
1.02712
1.12912
1.2406
1.36229
1.49491
1.63924
1.79604
1.96609
2.15011
2.34877
2.56266
2.79219
3.03756
3.29868
3.57507
3.86576
4.16914
4.48287
4.80375
5.12763
5.44935
5.76278
6.06096
6.33633
6.58111
6.78775
6.94944
7.06057
7.11716
0.206327
0.208916
0.214114
0.221968
0.232547
0.245943
0.262272
0.281674
0.304318
0.330397
0.360134
0.39378
0.431621
0.473972
0.521187
0.573654
0.631805
0.69611
0.767087
0.845298
0.931357
1.02593
1.12972
1.24351
1.36811
1.50439
1.65327
1.81568
1.99259
2.18495
2.39371
2.61971
2.8637
3.12621
3.40749
3.70739
4.02524
4.35966
4.7084
5.06817
5.43448
5.8015
6.16206
6.50777
6.82931
7.11691
7.36092
7.55261
7.68472
7.75211
0.200836
0.203385
0.208505
0.216242
0.226667
0.239872
0.255977
0.275126
0.29749
0.323266
0.352686
0.386007
0.423525
0.465567
0.512503
0.564741
0.622734
0.686981
0.758035
0.8365
0.923042
1.01839
1.12332
1.23871
1.36548
1.50463
1.65722
1.82439
2.00732
2.20722
2.42532
2.66283
2.92084
3.20034
3.50203
3.82622
4.17271
4.5405
4.92763
5.33087
5.74551
6.16505
6.58119
6.98381
7.36136
7.70142
7.99162
8.22055
8.37881
8.45967
0.194262
0.196755
0.201762
0.209332
0.219534
0.232463
0.248239
0.267007
0.288941
0.314242
0.343145
0.375915
0.412852
0.454296
0.500626
0.552268
0.609692
0.673425
0.744048
0.822205
0.908609
1.00404
1.10937
1.22554
1.35359
1.49465
1.64995
1.82081
2.00866
2.21498
2.44134
2.68933
2.96052
3.2564
3.57827
3.92708
4.30327
4.70649
5.13531
5.58684
6.05634
6.5368
7.01868
7.48983
7.93583
8.3408
8.68858
8.96421
9.15534
9.25317
0.186608
0.189027
0.193889
0.201239
0.211149
0.223712
0.239049
0.257305
0.278655
0.303302
0.331482
0.363463
0.39955
0.440089
0.485469
0.536124
0.592543
0.65527
0.724912
0.802147
0.887727
0.982491
1.08737
1.20339
1.33169
1.47355
1.63034
1.80359
1.99495
2.20624
2.43937
2.69638
2.97936
3.29044
3.63163
4.00471
4.41103
4.85119
5.32467
5.82932
6.36076
6.91175
7.47155
8.02569
8.55611
9.04216
9.46249
9.79723
10.03
10.1493
0.177887
0.180217
0.184897
0.191976
0.201522
0.213629
0.228415
0.246026
0.266635
0.290444
0.317687
0.348635
0.383593
0.42291
0.466978
0.516238
0.57119
0.63239
0.700465
0.776117
0.860132
0.953393
1.05689
1.17172
1.29912
1.44048
1.59734
1.77142
1.96462
2.17905
2.41702
2.68104
2.9738
3.29815
3.65696
4.05307
4.489
4.96671
5.48707
6.04928
6.64998
7.28226
7.93455
8.58979
9.22527
9.81382
10.3266
10.7368
11.0228
11.1695
0.168124
0.170346
0.174811
0.181566
0.190677
0.202236
0.21636
0.233191
0.252898
0.275682
0.301774
0.33144
0.364984
0.402753
0.445137
0.492581
0.545585
0.604714
0.670604
0.743975
0.825635
0.916498
1.0176
1.1301
1.25531
1.39474
1.55005
1.72314
1.91617
2.13152
2.37192
2.64035
2.94016
3.27497
3.64868
4.06535
4.52903
5.04348
5.6116
6.23479
6.91172
7.63692
8.39881
9.17791
9.94566
10.6656
11.2976
11.8051
12.1591
12.3408
0.157352
0.159449
0.163665
0.170043
0.178648
0.18957
0.20292
0.218836
0.237484
0.259057
0.283781
0.311915
0.343758
0.379649
0.419973
0.46517
0.515736
0.572234
0.635301
0.705662
0.784138
0.871659
0.969288
1.07823
1.19986
1.33576
1.48771
1.65778
1.84831
2.06199
2.30188
2.5715
2.8748
3.21626
3.60088
4.03414
4.52192
5.07023
5.68482
6.37035
7.12908
7.95879
8.84984
9.78137
10.7179
11.6093
12.3974
13.0308
13.472
13.6979
0.145614
0.147571
0.151503
0.157454
0.165485
0.17568
0.188147
0.203017
0.220449
0.240628
0.26377
0.290126
0.319983
0.353668
0.391557
0.434075
0.481708
0.535008
0.594604
0.661212
0.735649
0.818849
0.911882
1.01597
1.13254
1.2632
1.40983
1.5746
1.76003
1.96905
2.20503
2.47193
2.77433
3.11753
3.50765
3.95171
4.45761
5.03413
5.69059
6.43626
7.27903
8.22299
9.26409
10.3835
11.5392
12.66
13.6557
14.4526
15.004
15.2849
0.132966
0.134766
0.138383
0.143857
0.151246
0.16063
0.172109
0.185806
0.201871
0.220478
0.241832
0.266169
0.293761
0.32492
0.360003
0.399418
0.443629
0.493169
0.548645
0.610753
0.68029
0.758174
0.845461
0.94337
1.05331
1.17694
1.31615
1.4732
1.65069
1.85172
2.07993
2.33962
2.63588
2.97477
3.36346
3.81045
4.32579
4.92124
5.61036
6.40833
7.33113
8.39338
9.60339
10.9529
12.3988
13.8394
15.1162
16.1234
16.81
17.1562
0.119471
0.121098
0.12437
0.129322
0.136007
0.144499
0.154889
0.167293
0.181848
0.198714
0.218082
0.24017
0.265231
0.293556
0.325478
0.361378
0.401693
0.446925
0.497648
0.554522
0.618309
0.689888
0.770277
0.860659
0.962415
1.07716
1.20679
1.35356
1.5201
1.70958
1.92578
2.17323
2.45738
2.78484
3.16365
3.6036
4.11667
4.71755
5.42421
6.25854
7.24678
8.41908
9.80629
11.429
13.2667
15.186
16.8494
18.118
18.9596
19.3771
0.105202
0.106644
0.109542
0.113928
0.119851
0.127376
0.136587
0.147585
0.160495
0.175463
0.19266
0.212284
0.234565
0.259766
0.288192
0.320189
0.356159
0.396562
0.441926
0.492863
0.55008
0.614395
0.686764
0.768302
0.860317
0.96435
1.08223
1.21612
1.36861
1.54284
1.74256
1.97236
2.23785
2.54591
2.90511
3.32609
3.82226
4.41064
5.11298
5.95749
6.98108
8.2326
9.77645
11.693
14.0558
16.7913
18.9804
20.5424
21.5362
22.0183
0.0902432
0.0914863
0.0939855
0.0977683
0.102876
0.109367
0.117313
0.126804
0.137949
0.150875
0.165733
0.182698
0.20197
0.223782
0.248403
0.276141
0.307351
0.342441
0.381885
0.426228
0.476106
0.532257
0.595546
0.666986
0.747774
0.839326
0.943331
1.06181
1.1972
1.35245
1.53117
1.73778
1.97775
2.25793
2.58689
2.97554
3.43787
3.99201
4.6619
5.47969
6.48981
7.75618
9.37636
11.5132
14.4746
18.9454
21.7409
23.5377
24.627
25.1441
0.0746839
0.075718
0.0777968
0.0809421
0.085189
0.0905855
0.0971931
0.105088
0.11436
0.125119
0.13749
0.151621
0.167682
0.18587
0.206414
0.229573
0.255652
0.284998
0.318016
0.355174
0.397019
0.444187
0.497427
0.55762
0.625811
0.703242
0.791401
0.892083
1.00746
1.14018
1.29352
1.4715
1.67918
1.92292
2.2108
2.55318
2.96354
3.45957
4.06487
4.81154
5.74432
6.928
8.46173
10.5107
13.3863
17.777
20.5022
22.2425
23.2924
23.7891
0.0586219
0.0594379
0.0610791
0.0635587
0.0669053
0.0711575
0.0763645
0.0825865
0.0898963
0.0983798
0.108138
0.119288
0.131967
0.146331
0.162563
0.180873
0.201503
0.224734
0.250892
0.280354
0.313564
0.351039
0.393387
0.441328
0.495718
0.557579
0.62814
0.708889
0.801638
0.908611
1.03256
1.17691
1.34598
1.54524
1.78168
2.06436
2.40509
2.81943
3.3281
3.95892
4.74961
5.75147
7.03354
8.68346
10.7847
13.2757
15.2503
16.6397
17.5126
17.9325
0.0421604
0.0427494
0.0439406
0.0457316
0.0481463
0.0512138
0.05497
0.059459
0.0647337
0.0708565
0.0779008
0.0859523
0.0951102
0.105489
0.117222
0.130463
0.145388
0.162205
0.18115
0.202503
0.226589
0.25379
0.284556
0.319419
0.359016
0.404109
0.455615
0.51465
0.582578
0.66108
0.752242
0.85868
0.983694
1.13149
1.30749
1.51869
1.77425
2.08621
2.47042
2.94771
3.54503
4.29602
5.23884
6.40619
7.79467
9.29234
10.5848
11.5547
12.1873
12.4973
0.0254085
0.0257535
0.0264745
0.0275571
0.0290157
0.0308682
0.0331366
0.0358477
0.0390337
0.0427324
0.0469885
0.0518541
0.0573893
0.0636641
0.0707594
0.0787686
0.0878
0.097979
0.109451
0.122388
0.136987
0.153482
0.172151
0.193321
0.217384
0.244809
0.276164
0.312141
0.353588
0.40155
0.457332
0.522571
0.599342
0.690294
0.798842
0.929416
1.08779
1.28153
1.52048
1.81728
2.18763
2.64958
3.22048
3.90866
4.69632
5.51504
6.24282
6.80787
7.1854
7.3729
0.00848699
0.00859543
0.00883458
0.00919632
0.00968401
0.0103034
0.0110619
0.0119683
0.0130336
0.0142705
0.0156938
0.0173211
0.0191726
0.0212718
0.0236457
0.0263258
0.0293485
0.032756
0.0365973
0.0409296
0.0458201
0.0513476
0.0576052
0.0647036
0.0727751
0.0819785
0.0925061
0.104592
0.118524
0.134656
0.153434
0.175414
0.201303
0.232008
0.268693
0.312873
0.366521
0.432208
0.51326
0.613892
0.739203
0.894787
1.08545
1.31226
1.56751
1.82929
2.0642
2.24919
2.37419
2.43669
)
;

boundaryField
{
    walls
    {
        type            calculated;
        value           nonuniform List<scalar> 
200
(
0
0
0
0
0
0
0
0
0
0
0
0
0
0
0
0
0
0
0
0
0
0
0
0
0
0
0
0
0
0
0
0
0
0
0
0
0
0
0
0
0
0
0
0
0
0
0
0
0
0
0.00523396
0.0156849
0.0261169
0.036529
0.0468978
0.0572096
0.0674495
0.0776009
0.0876457
0.0975636
0.107332
0.116928
0.126323
0.135488
0.144391
0.152996
0.161268
0.169165
0.176646
0.183665
0.190175
0.196128
0.201474
0.206162
0.210141
0.21336
0.215769
0.21732
0.217968
0.217669
0.216386
0.214085
0.210739
0.206327
0.200836
0.194262
0.186608
0.177887
0.168124
0.157352
0.145614
0.132966
0.119471
0.105202
0.0902432
0.0746839
0.0586219
0.0421604
0.0254085
0.00848699
0.0441685
0.132772
0.222194
0.312999
0.405745
0.500997
0.599331
0.701334
0.807609
0.918776
1.03548
1.15838
1.28817
1.4256
1.57142
1.72646
1.89158
2.06773
2.25593
2.45728
2.67299
2.90441
3.15303
3.42054
3.70883
4.02008
4.3568
4.72188
5.11873
5.55137
6.0246
6.54419
7.11716
7.75211
8.45967
9.25317
10.1493
11.1695
12.3408
13.6979
15.2849
17.1562
19.3771
22.0183
25.1441
23.7891
17.9325
12.4973
7.3729
2.43669
0
0
0
0
0
0
0
0
0
0
0
0
0
0
0
0
0
0
0
0
0
0
0
0
0
0
0
0
0
0
0
0
0
0
0
0
0
0
0
0
0
0
0
0
0
0
0
0
0
0
)
;
    }
    frontAndBack
    {
        type            empty;
    }
}


// ************************************************************************* //
