/*--------------------------------*- C++ -*----------------------------------*\
| =========                 |                                                 |
| \\      /  F ield         | OpenFOAM: The Open Source CFD Toolbox           |
|  \\    /   O peration     | Version:  2406                                  |
|   \\  /    A nd           | Website:  www.openfoam.com                      |
|    \\/     M anipulation  |                                                 |
\*---------------------------------------------------------------------------*/
FoamFile
{
    version     2.0;
    format      ascii;
    arch        "LSB;label=32;scalar=64";
    class       volScalarField;
    location    "1.45";
    object      T;
}
// * * * * * * * * * * * * * * * * * * * * * * * * * * * * * * * * * * * * * //

dimensions      [0 0 0 1 0 0 0];

internalField   nonuniform List<scalar> 
2500
(
0.217653
0.217862
0.21828
0.218907
0.219742
0.220783
0.22203
0.223481
0.225134
0.226987
0.229037
0.23128
0.233714
0.236333
0.239133
0.242109
0.245253
0.248559
0.25202
0.255625
0.259366
0.263232
0.267211
0.271291
0.275458
0.279697
0.283992
0.288327
0.292685
0.297046
0.301392
0.305702
0.309955
0.314131
0.318208
0.322165
0.325979
0.329629
0.333094
0.336354
0.339388
0.342179
0.344707
0.346957
0.348915
0.350567
0.351902
0.352912
0.353589
0.353928
0.217862
0.218074
0.218495
0.219127
0.219969
0.22102
0.222278
0.223741
0.225409
0.227279
0.229347
0.231611
0.234068
0.236712
0.239539
0.242543
0.245718
0.249057
0.252552
0.256195
0.259975
0.263881
0.267903
0.272027
0.27624
0.280526
0.28487
0.289255
0.293664
0.298077
0.302474
0.306837
0.311143
0.315371
0.319499
0.323506
0.327369
0.331067
0.334578
0.337881
0.340956
0.343784
0.346347
0.348628
0.350613
0.352287
0.353641
0.354665
0.355351
0.355695
0.21828
0.218495
0.218924
0.219567
0.220423
0.221492
0.222772
0.224262
0.225959
0.227862
0.229968
0.232274
0.234775
0.237469
0.240349
0.243411
0.246648
0.250053
0.253618
0.257334
0.261192
0.26518
0.269288
0.2735
0.277805
0.282186
0.286628
0.291114
0.295624
0.300141
0.304643
0.309111
0.313522
0.317854
0.322086
0.326195
0.330157
0.33395
0.337553
0.340943
0.344099
0.347003
0.349635
0.351978
0.354016
0.355737
0.357128
0.35818
0.358886
0.359239
0.218907
0.219127
0.219567
0.220226
0.221105
0.222201
0.223514
0.225042
0.226784
0.228737
0.2309
0.233267
0.235837
0.238605
0.241566
0.244715
0.248045
0.251549
0.255219
0.259047
0.263022
0.267133
0.271369
0.275715
0.280159
0.284684
0.289273
0.293909
0.298574
0.303247
0.307907
0.312534
0.317104
0.321595
0.325983
0.330244
0.334356
0.338294
0.342035
0.345556
0.348837
0.351855
0.354591
0.357027
0.359148
0.360938
0.362386
0.363481
0.364215
0.364583
0.219742
0.219969
0.220423
0.221105
0.222012
0.223145
0.224502
0.226082
0.227884
0.229905
0.232142
0.234593
0.237254
0.240122
0.243191
0.246455
0.24991
0.253547
0.257358
0.261335
0.265467
0.269744
0.274152
0.278678
0.283308
0.288025
0.292813
0.297652
0.302524
0.307407
0.31228
0.31712
0.321904
0.326608
0.331206
0.335675
0.339988
0.34412
0.348048
0.351748
0.355194
0.358367
0.361244
0.363807
0.366038
0.367922
0.369446
0.370598
0.371372
0.371759
0.220783
0.22102
0.221492
0.222201
0.223145
0.224324
0.225737
0.227382
0.229258
0.231363
0.233695
0.236251
0.239027
0.242019
0.245224
0.248634
0.252245
0.256049
0.260038
0.264203
0.268533
0.273017
0.277643
0.282396
0.287261
0.292221
0.297258
0.302354
0.307488
0.312637
0.317779
0.322889
0.327944
0.332917
0.337782
0.342512
0.34708
0.35146
0.355625
0.35955
0.363208
0.366577
0.369633
0.372357
0.374728
0.376732
0.378352
0.379578
0.3804
0.380813
0.22203
0.222278
0.222772
0.223514
0.224502
0.225737
0.227216
0.22894
0.230906
0.233113
0.235559
0.238241
0.241155
0.244299
0.247667
0.251254
0.255054
0.25906
0.263264
0.267656
0.272226
0.276962
0.281851
0.286878
0.292028
0.297283
0.302624
0.308031
0.313482
0.318955
0.324424
0.329864
0.335248
0.34055
0.345739
0.350789
0.355669
0.360351
0.364805
0.369005
0.372922
0.376531
0.379807
0.382726
0.38527
0.387419
0.389158
0.390474
0.391357
0.391799
0.223481
0.223741
0.224262
0.225042
0.226082
0.227382
0.22894
0.230755
0.232827
0.235154
0.237733
0.240563
0.243641
0.246962
0.250522
0.254317
0.258339
0.262583
0.267039
0.271699
0.276551
0.281584
0.286784
0.292135
0.297622
0.303225
0.308925
0.314701
0.320529
0.326384
0.332241
0.338072
0.343848
0.349539
0.355115
0.360544
0.365795
0.370836
0.375636
0.380164
0.38439
0.388285
0.391822
0.394976
0.397725
0.400048
0.401929
0.403352
0.404307
0.404786
0.225134
0.225409
0.225959
0.226784
0.227884
0.229258
0.230906
0.232827
0.23502
0.237485
0.240218
0.243218
0.246483
0.250008
0.25379
0.257824
0.262104
0.266621
0.27137
0.276339
0.281517
0.286893
0.292453
0.29818
0.304056
0.310064
0.316181
0.322384
0.32865
0.334951
0.34126
0.347545
0.353778
0.359924
0.36595
0.371823
0.377508
0.382969
0.388173
0.393085
0.397673
0.401903
0.405747
0.409177
0.412167
0.414695
0.416742
0.418291
0.419331
0.419852
0.226987
0.227279
0.227862
0.228737
0.229905
0.231363
0.233113
0.235154
0.237485
0.240105
0.243012
0.246206
0.249683
0.25344
0.257474
0.261779
0.26635
0.27118
0.27626
0.281581
0.287132
0.292899
0.298869
0.305024
0.311347
0.317817
0.324411
0.331105
0.337872
0.344684
0.351511
0.35832
0.365077
0.371747
0.378293
0.384678
0.390863
0.39681
0.40248
0.407837
0.412843
0.417462
0.421662
0.425411
0.42868
0.431446
0.433685
0.435381
0.436519
0.43709
0.229037
0.229347
0.229968
0.2309
0.232142
0.233695
0.235559
0.237733
0.240218
0.243012
0.246115
0.249525
0.25324
0.257257
0.261573
0.266183
0.271082
0.276262
0.281716
0.287433
0.293403
0.299612
0.306045
0.312684
0.31951
0.326503
0.333637
0.340886
0.348223
0.355616
0.363032
0.370436
0.37779
0.385057
0.392196
0.399165
0.405922
0.412424
0.418629
0.424495
0.42998
0.435046
0.439654
0.443769
0.44736
0.450398
0.45286
0.454724
0.455976
0.456603
0.23128
0.231611
0.232274
0.233267
0.234593
0.236251
0.238241
0.240563
0.243218
0.246206
0.249525
0.253175
0.257154
0.26146
0.26609
0.271039
0.276302
0.281872
0.287742
0.293902
0.300339
0.307041
0.313992
0.321173
0.328564
0.336142
0.343883
0.351757
0.359734
0.36778
0.37586
0.383936
0.391966
0.399907
0.407717
0.415348
0.422753
0.429886
0.436699
0.443144
0.449175
0.454749
0.459822
0.464356
0.468313
0.471664
0.474378
0.476435
0.477816
0.478509
0.233714
0.234068
0.234775
0.235837
0.237254
0.239027
0.241155
0.243641
0.246483
0.249683
0.25324
0.257154
0.261424
0.266048
0.271023
0.276346
0.282012
0.288014
0.294344
0.300993
0.307949
0.315197
0.322722
0.330505
0.338525
0.346756
0.355172
0.363743
0.372436
0.381213
0.390038
0.398866
0.407654
0.416355
0.424919
0.433296
0.441433
0.449278
0.456777
0.463877
0.470527
0.476676
0.482277
0.487285
0.49166
0.495364
0.498367
0.500643
0.502172
0.502939
0.236333
0.236712
0.237469
0.238605
0.240122
0.242019
0.244299
0.246962
0.250008
0.25344
0.257257
0.26146
0.266048
0.27102
0.276374
0.282107
0.288214
0.29469
0.301526
0.308713
0.316239
0.32409
0.332249
0.340697
0.349411
0.358365
0.367531
0.376875
0.386363
0.395954
0.405607
0.415276
0.42491
0.43446
0.443869
0.453082
0.462041
0.470686
0.478958
0.486796
0.494144
0.500943
0.50714
0.512685
0.517531
0.521636
0.524966
0.52749
0.529185
0.530036
0.239133
0.239539
0.240349
0.241566
0.243191
0.245224
0.247667
0.250522
0.25379
0.257474
0.261573
0.26609
0.271023
0.276374
0.282141
0.28832
0.294909
0.301901
0.30929
0.317065
0.325216
0.333728
0.342583
0.351762
0.36124
0.370991
0.380983
0.391182
0.401549
0.412042
0.422614
0.433216
0.443793
0.454288
0.46464
0.474788
0.484665
0.494207
0.503344
0.512012
0.520143
0.527674
0.534543
0.540693
0.546071
0.55063
0.554328
0.557132
0.559017
0.559962
0.242109
0.242543
0.243411
0.244715
0.246455
0.248634
0.251254
0.254317
0.257824
0.261779
0.266183
0.271039
0.276346
0.282107
0.28832
0.294984
0.302095
0.309648
0.317638
0.326055
0.334887
0.344119
0.353735
0.363713
0.374029
0.384653
0.395553
0.406692
0.418029
0.429517
0.441105
0.45274
0.464361
0.475906
0.487307
0.498495
0.509398
0.51994
0.530047
0.539644
0.548654
0.557007
0.564631
0.571462
0.577438
0.582507
0.586621
0.589742
0.59184
0.592893
0.245253
0.245718
0.246648
0.248045
0.24991
0.252245
0.255054
0.258339
0.262104
0.26635
0.271082
0.276302
0.282012
0.288214
0.294909
0.302095
0.30977
0.317931
0.326572
0.335683
0.345254
0.35527
0.365713
0.376563
0.387792
0.399371
0.411265
0.423435
0.435836
0.448418
0.461126
0.473901
0.486677
0.499384
0.511949
0.524293
0.536336
0.547995
0.559184
0.569818
0.579814
0.589087
0.597559
0.605154
0.611805
0.617449
0.622031
0.625509
0.627847
0.629021
0.248559
0.249057
0.250053
0.251549
0.253547
0.256049
0.25906
0.262583
0.266621
0.27118
0.276262
0.281872
0.288014
0.29469
0.301901
0.309648
0.317931
0.326746
0.336088
0.34595
0.35632
0.367184
0.378524
0.390319
0.402542
0.415161
0.42814
0.441437
0.455003
0.468785
0.482724
0.496753
0.510802
0.524794
0.538647
0.552273
0.565584
0.578484
0.590879
0.602673
0.613769
0.624073
0.633495
0.64195
0.649358
0.655648
0.660758
0.664637
0.667246
0.668556
0.25202
0.252552
0.253618
0.255219
0.257358
0.260038
0.263264
0.267039
0.27137
0.27626
0.281716
0.287742
0.294344
0.301526
0.30929
0.317638
0.326572
0.336088
0.346184
0.356852
0.368083
0.379862
0.392172
0.404991
0.418291
0.432039
0.446198
0.460722
0.47556
0.490655
0.505942
0.52135
0.536801
0.552209
0.567484
0.58253
0.597246
0.611527
0.625265
0.638351
0.650677
0.662135
0.672622
0.682041
0.690299
0.697316
0.70302
0.707352
0.710266
0.71173
0.255625
0.256195
0.257334
0.259047
0.261335
0.264203
0.267656
0.271699
0.276339
0.281581
0.287433
0.293902
0.300993
0.308713
0.317065
0.326055
0.335683
0.34595
0.356852
0.368385
0.38054
0.393303
0.406657
0.42058
0.435044
0.450015
0.465453
0.481312
0.497536
0.514064
0.530826
0.547744
0.564733
0.5817
0.598545
0.61516
0.631433
0.647246
0.662478
0.677005
0.690705
0.703454
0.715135
0.725635
0.734849
0.742684
0.749056
0.753898
0.757156
0.758793
0.259366
0.259975
0.261192
0.263022
0.265467
0.268533
0.272226
0.276551
0.281517
0.287132
0.293403
0.300339
0.307949
0.316239
0.325216
0.334887
0.345254
0.35632
0.368083
0.38054
0.393683
0.4075
0.421975
0.437086
0.452804
0.469095
0.485918
0.503223
0.520953
0.539041
0.557412
0.575983
0.59466
0.61334
0.631914
0.650262
0.668258
0.685771
0.702664
0.718797
0.734029
0.748222
0.761241
0.772955
0.783244
0.791999
0.799125
0.804542
0.808188
0.810021
0.263232
0.263881
0.26518
0.267133
0.269744
0.273017
0.276962
0.281584
0.286893
0.292899
0.299612
0.307041
0.315197
0.32409
0.333728
0.344119
0.35527
0.367184
0.379862
0.393303
0.4075
0.422444
0.438118
0.454503
0.471569
0.489282
0.507599
0.526468
0.54583
0.565613
0.585738
0.606113
0.626636
0.647197
0.667673
0.687933
0.707835
0.727233
0.745971
0.763892
0.780837
0.796646
0.811164
0.824242
0.83574
0.845532
0.853508
0.859574
0.863659
0.865713
0.267211
0.267903
0.269288
0.271369
0.274152
0.277643
0.281851
0.286784
0.292453
0.298869
0.306045
0.313992
0.322722
0.332249
0.342583
0.353735
0.365713
0.378524
0.392172
0.406657
0.421975
0.438118
0.455073
0.472819
0.491329
0.510569
0.530494
0.551052
0.572178
0.5938
0.61583
0.638172
0.660714
0.683336
0.705903
0.728269
0.750278
0.771764
0.792553
0.812468
0.831325
0.848943
0.865143
0.879754
0.892614
0.903576
0.912511
0.919311
0.923893
0.926197
0.271291
0.272027
0.2735
0.275715
0.278678
0.282396
0.286878
0.292135
0.29818
0.305024
0.312684
0.321173
0.330505
0.340697
0.351762
0.363713
0.376563
0.390319
0.404991
0.42058
0.437086
0.454503
0.472819
0.492017
0.51207
0.532945
0.554596
0.57697
0.600002
0.623612
0.64771
0.672192
0.696938
0.721816
0.746678
0.771364
0.7957
0.8195
0.842568
0.864704
0.885698
0.905343
0.923433
0.939769
0.954165
0.966448
0.976469
0.984101
0.989246
0.991834
0.275458
0.27624
0.277805
0.280159
0.283308
0.287261
0.292028
0.297622
0.304056
0.311347
0.31951
0.328564
0.338525
0.349411
0.36124
0.374029
0.387792
0.402542
0.418291
0.435044
0.452804
0.471569
0.491329
0.51207
0.533767
0.556388
0.579887
0.604212
0.629294
0.655051
0.681389
0.708195
0.735342
0.762686
0.790067
0.817306
0.84421
0.870573
0.896175
0.920786
0.94417
0.966087
0.986302
1.00458
1.02071
1.03449
1.04575
1.05432
1.06011
1.06302
0.279697
0.280526
0.282186
0.284684
0.288025
0.292221
0.297283
0.303225
0.310064
0.317817
0.326503
0.336142
0.346756
0.358365
0.370991
0.384653
0.399371
0.415161
0.432039
0.450015
0.469095
0.489282
0.510569
0.532945
0.556388
0.580867
0.60634
0.632753
0.660037
0.688107
0.716865
0.746192
0.775951
0.805988
0.836127
0.866173
0.895913
0.925115
0.953532
0.980905
1.00696
1.03143
1.05404
1.07452
1.09261
1.10809
1.12074
1.1304
1.13691
1.14019
0.283992
0.28487
0.286628
0.289273
0.292813
0.297258
0.302624
0.308925
0.316181
0.324411
0.333637
0.343883
0.355172
0.367531
0.380983
0.395553
0.411265
0.42814
0.446198
0.465453
0.485918
0.507599
0.530494
0.554596
0.579887
0.60634
0.633915
0.662557
0.6922
0.722756
0.754124
0.786178
0.818775
0.851748
0.884906
0.918037
0.950904
0.98325
1.0148
1.04525
1.07431
1.10165
1.12695
1.14992
1.17024
1.18765
1.2019
1.21278
1.22012
1.22382
0.288327
0.289255
0.291114
0.293909
0.297652
0.302354
0.308031
0.314701
0.322384
0.331105
0.340886
0.351757
0.363743
0.376875
0.391182
0.406692
0.423435
0.441437
0.460722
0.481312
0.503223
0.526468
0.551052
0.57697
0.604212
0.632753
0.662557
0.693574
0.725736
0.758958
0.793133
0.828133
0.863806
0.899975
0.936434
0.97295
1.00927
1.04509
1.08012
1.11402
1.14643
1.177
1.20536
1.23115
1.25401
1.27362
1.28969
1.30197
1.31028
1.31446
0.292685
0.293664
0.295624
0.298574
0.302524
0.307488
0.313482
0.320529
0.32865
0.337872
0.348223
0.359734
0.372436
0.386363
0.401549
0.418029
0.435836
0.455003
0.47556
0.497536
0.520953
0.54583
0.572178
0.600002
0.629294
0.660037
0.6922
0.725736
0.760582
0.796652
0.83384
0.872014
0.911016
0.950658
0.99072
1.03095
1.07107
1.11075
1.14965
1.1874
1.22358
1.2578
1.28961
1.3186
1.34436
1.36649
1.38465
1.39855
1.40796
1.4127
0.297046
0.298077
0.300141
0.303247
0.307407
0.312637
0.318955
0.326384
0.334951
0.344684
0.355616
0.36778
0.381213
0.395954
0.412042
0.429517
0.448418
0.468785
0.490655
0.514064
0.539041
0.565613
0.5938
0.623612
0.655051
0.688107
0.722756
0.758958
0.796652
0.835758
0.87617
0.917755
0.960351
1.00376
1.04775
1.09205
1.13635
1.1803
1.22351
1.26556
1.30599
1.34432
1.38006
1.4127
1.44177
1.4668
1.48738
1.50315
1.51382
1.51921
0.301392
0.302474
0.304643
0.307907
0.31228
0.317779
0.324424
0.332241
0.34126
0.351511
0.363032
0.37586
0.390038
0.405607
0.422614
0.441105
0.461126
0.482724
0.505942
0.530826
0.557412
0.585738
0.61583
0.64771
0.681389
0.716865
0.754124
0.793133
0.83384
0.87617
0.920021
0.965262
1.01173
1.05921
1.10748
1.15623
1.20513
1.2538
1.30181
1.34868
1.39388
1.43688
1.47708
1.51391
1.54678
1.57516
1.59853
1.61646
1.62862
1.63475
0.305702
0.306837
0.309111
0.312534
0.31712
0.322889
0.329864
0.338072
0.347545
0.35832
0.370436
0.383936
0.398866
0.415276
0.433216
0.45274
0.473901
0.496753
0.52135
0.547744
0.575983
0.606113
0.638172
0.672192
0.708195
0.746192
0.786178
0.828133
0.872014
0.917755
0.965262
1.01441
1.06503
1.11691
1.16982
1.22343
1.27739
1.33128
1.38463
1.4369
1.48749
1.53577
1.58107
1.6227
1.65997
1.69221
1.71883
1.73929
1.75318
1.76019
0.309955
0.311143
0.313522
0.317104
0.321904
0.327944
0.335248
0.343848
0.353778
0.365077
0.37779
0.391966
0.407654
0.42491
0.443793
0.464361
0.486677
0.510802
0.536801
0.564733
0.59466
0.626636
0.660714
0.696938
0.735342
0.775951
0.818775
0.863806
0.911016
0.960351
1.01173
1.06503
1.12009
1.17671
1.23464
1.29355
1.35306
1.41272
1.47201
1.53033
1.587
1.6413
1.69244
1.7396
1.78195
1.81871
1.84912
1.87255
1.88847
1.89652
0.314131
0.315371
0.317854
0.321595
0.326608
0.332917
0.34055
0.349539
0.359924
0.371747
0.385057
0.399907
0.416355
0.43446
0.454288
0.475906
0.499384
0.524794
0.552209
0.5817
0.61334
0.647197
0.683336
0.721816
0.762686
0.805988
0.851748
0.899975
0.950658
1.00376
1.05921
1.11691
1.17671
1.23842
1.30176
1.36643
1.43202
1.49805
1.56394
1.62905
1.69259
1.75375
1.81159
1.86514
1.91342
1.95546
1.99034
2.01727
2.0356
2.04488
0.318208
0.319499
0.322086
0.325983
0.331206
0.337782
0.345739
0.355115
0.36595
0.378293
0.392196
0.407717
0.424919
0.443869
0.46464
0.487307
0.511949
0.538647
0.567484
0.598545
0.631914
0.667673
0.705903
0.746678
0.790067
0.836127
0.884906
0.936434
0.99072
1.04775
1.10748
1.16982
1.23464
1.30176
1.37094
1.44184
1.51407
1.58711
1.66035
1.73306
1.80438
1.87336
1.93892
1.99991
2.05513
2.10338
2.14356
2.17465
2.19586
2.2066
0.322165
0.323506
0.326195
0.330244
0.335675
0.342512
0.350789
0.360544
0.371823
0.384678
0.399165
0.415348
0.433296
0.453082
0.474788
0.498495
0.524293
0.552273
0.58253
0.61516
0.650262
0.687933
0.728269
0.771364
0.817306
0.866173
0.918037
0.97295
1.03095
1.09205
1.15623
1.22343
1.29355
1.36643
1.44184
1.51948
1.59893
1.67967
1.76105
1.84228
1.92242
2.00035
2.07483
2.14449
2.20788
2.26352
2.31
2.34609
2.37075
2.38327
0.325979
0.327369
0.330157
0.334356
0.339988
0.34708
0.355669
0.365795
0.377508
0.390863
0.405922
0.422753
0.441433
0.462041
0.484665
0.509398
0.536336
0.565584
0.597246
0.631433
0.668258
0.707835
0.750278
0.7957
0.84421
0.895913
0.950904
1.00927
1.07107
1.13635
1.20513
1.27739
1.35306
1.43202
1.51407
1.59893
1.6862
1.77537
1.86576
1.95653
2.04664
2.13483
2.21967
2.2995
2.37256
2.43702
2.4911
2.53322
2.56207
2.57673
0.329629
0.331067
0.33395
0.338294
0.34412
0.35146
0.360351
0.370836
0.382969
0.39681
0.412424
0.429886
0.449278
0.470686
0.494207
0.51994
0.547995
0.578484
0.611527
0.647246
0.685771
0.727233
0.771764
0.8195
0.870573
0.925115
0.98325
1.04509
1.11075
1.1803
1.2538
1.33128
1.41272
1.49805
1.58711
1.67967
1.77537
1.87371
1.97404
2.07545
2.17685
2.27682
2.3737
2.46552
2.55012
2.6252
2.6885
2.73798
2.77195
2.78924
0.333094
0.334578
0.337553
0.342035
0.348048
0.355625
0.364805
0.375636
0.388173
0.40248
0.418629
0.436699
0.456777
0.478958
0.503344
0.530047
0.559184
0.590879
0.625265
0.662478
0.702664
0.745971
0.792553
0.842568
0.896175
0.953532
1.0148
1.08012
1.14965
1.22351
1.30181
1.38463
1.47201
1.56394
1.66035
1.76105
1.86576
1.97404
2.08524
2.1985
2.31264
2.42612
2.53705
2.64309
2.74157
2.82957
2.90416
2.96269
3.00298
3.02351
0.336354
0.337881
0.340943
0.345556
0.351748
0.35955
0.369005
0.380164
0.393085
0.407837
0.424495
0.443144
0.463877
0.486796
0.512012
0.539644
0.569818
0.602673
0.638351
0.677005
0.718797
0.763892
0.812468
0.864704
0.920786
0.980905
1.04525
1.11402
1.1874
1.26556
1.34868
1.4369
1.53033
1.62905
1.73306
1.84228
1.95653
2.07545
2.1985
2.32485
2.45331
2.5823
2.70965
2.83264
2.94795
3.05182
3.14041
3.21018
3.25832
3.28287
0.339388
0.340956
0.344099
0.348837
0.355194
0.363208
0.372922
0.38439
0.397673
0.412843
0.42998
0.449175
0.470527
0.494144
0.520143
0.548654
0.579814
0.613769
0.650677
0.690705
0.734029
0.780837
0.831325
0.885698
0.94417
1.00696
1.07431
1.14643
1.22358
1.30599
1.39388
1.48749
1.587
1.69259
1.80438
1.92242
2.04664
2.17685
2.31264
2.45331
2.5978
2.74448
2.89104
3.03435
3.17029
3.29394
3.40006
3.48392
3.54186
3.57143
0.342179
0.343784
0.347003
0.351855
0.358367
0.366577
0.376531
0.388285
0.401903
0.417462
0.435046
0.454749
0.476676
0.500943
0.527674
0.557007
0.589087
0.624073
0.662135
0.703454
0.748222
0.796646
0.848943
0.905343
0.966087
1.03143
1.10165
1.177
1.2578
1.34432
1.43688
1.53577
1.6413
1.75375
1.87336
2.00035
2.13483
2.27682
2.42612
2.5823
2.74448
2.91122
3.08021
3.24798
3.40952
3.55823
3.68664
3.78828
3.85848
3.89427
0.344707
0.346347
0.349635
0.354591
0.361244
0.369633
0.379807
0.391822
0.405747
0.421662
0.439654
0.459822
0.482277
0.50714
0.534543
0.564631
0.597559
0.633495
0.672622
0.715135
0.761241
0.811164
0.865143
0.923433
0.986302
1.05404
1.12695
1.20536
1.28961
1.38006
1.47708
1.58107
1.69244
1.81159
1.93892
2.07483
2.21967
2.3737
2.53705
2.70965
2.89104
3.08021
3.27518
3.47246
3.66624
3.84752
4.00471
4.12886
4.21426
4.25768
0.346957
0.348628
0.351978
0.357027
0.363807
0.372357
0.382726
0.394976
0.409177
0.425411
0.443769
0.464356
0.487285
0.512685
0.540693
0.571462
0.605154
0.64195
0.682041
0.725635
0.772955
0.824242
0.879754
0.939769
1.00458
1.07452
1.14992
1.23115
1.3186
1.4127
1.51391
1.6227
1.7396
1.86514
1.99991
2.14449
2.2995
2.46552
2.64309
2.83264
3.03435
3.24798
3.47246
3.70514
3.94018
4.16567
4.36061
4.513
4.61686
4.66935
0.348915
0.350613
0.354016
0.359148
0.366038
0.374728
0.38527
0.397725
0.412167
0.42868
0.44736
0.468313
0.49166
0.517531
0.546071
0.577438
0.611805
0.649358
0.690299
0.734849
0.783244
0.83574
0.892614
0.954165
1.02071
1.09261
1.17024
1.25401
1.34436
1.44177
1.54678
1.65997
1.78195
1.91342
2.05513
2.20788
2.37256
2.55012
2.74157
2.94795
3.17029
3.40952
3.66624
3.94018
4.22847
4.51917
4.76392
4.95056
5.07571
5.13841
0.350567
0.352287
0.355737
0.360938
0.367922
0.376732
0.387419
0.400048
0.414695
0.431446
0.450398
0.471664
0.495364
0.521636
0.55063
0.582507
0.617449
0.655648
0.697316
0.742684
0.791999
0.845532
0.903576
0.966448
1.03449
1.10809
1.18765
1.27362
1.36649
1.4668
1.57516
1.69221
1.81871
1.95546
2.10338
2.26352
2.43702
2.6252
2.82957
3.05182
3.29394
3.55823
3.84752
4.16567
4.51917
4.92348
5.23025
5.45451
5.60194
5.67511
0.351902
0.353641
0.357128
0.362386
0.369446
0.378352
0.389158
0.401929
0.416742
0.433685
0.45286
0.474378
0.498367
0.524966
0.554328
0.586621
0.622031
0.660758
0.70302
0.749056
0.799125
0.853508
0.912511
0.976469
1.04575
1.12074
1.2019
1.28969
1.38465
1.48738
1.59853
1.71883
1.84912
1.99034
2.14356
2.31
2.4911
2.6885
2.90416
3.14041
3.40006
3.68664
4.00471
4.36061
4.76392
5.23025
5.58401
5.84026
6.0074
6.08997
0.352912
0.354665
0.35818
0.363481
0.370598
0.379578
0.390474
0.403352
0.418291
0.435381
0.454724
0.476435
0.500643
0.52749
0.557132
0.589742
0.625509
0.664637
0.707352
0.753898
0.804542
0.859574
0.919311
0.984101
1.05432
1.1304
1.21278
1.30197
1.39855
1.50315
1.61646
1.73929
1.87255
2.01727
2.17465
2.34609
2.53322
2.73798
2.96269
3.21018
3.48392
3.78828
4.12886
4.513
4.95056
5.45451
5.84026
6.1201
6.30245
6.39241
0.353589
0.355351
0.358886
0.364215
0.371372
0.3804
0.391357
0.404307
0.419331
0.436519
0.455976
0.477816
0.502172
0.529185
0.559017
0.59184
0.627847
0.667246
0.710266
0.757156
0.808188
0.863659
0.923893
0.989246
1.06011
1.13691
1.22012
1.31028
1.40796
1.51382
1.62862
1.75318
1.88847
2.0356
2.19586
2.37075
2.56207
2.77195
3.00298
3.25832
3.54186
3.85848
4.21426
4.61686
5.07571
5.60194
6.0074
6.30245
6.49489
6.58986
0.353928
0.355695
0.359239
0.364583
0.371759
0.380813
0.391799
0.404786
0.419852
0.43709
0.456603
0.478509
0.502939
0.530036
0.559962
0.592893
0.629021
0.668556
0.71173
0.758793
0.810021
0.865713
0.926197
0.991834
1.06302
1.14019
1.22382
1.31446
1.4127
1.51921
1.63475
1.76019
1.89652
2.04488
2.2066
2.38327
2.57673
2.78924
3.02351
3.28287
3.57143
3.89427
4.25768
4.66935
5.13841
5.67511
6.08997
6.39241
6.58986
6.68733
)
;

boundaryField
{
    walls
    {
        type            zeroGradient;
    }
    frontAndBack
    {
        type            empty;
    }
}


// ************************************************************************* //
