/*--------------------------------*- C++ -*----------------------------------*\
| =========                 |                                                 |
| \\      /  F ield         | OpenFOAM: The Open Source CFD Toolbox           |
|  \\    /   O peration     | Version:  2406                                  |
|   \\  /    A nd           | Website:  www.openfoam.com                      |
|    \\/     M anipulation  |                                                 |
\*---------------------------------------------------------------------------*/
FoamFile
{
    version     2.0;
    format      ascii;
    arch        "LSB;label=32;scalar=64";
    class       volScalarField;
    location    "1.95";
    object      nu;
}
// * * * * * * * * * * * * * * * * * * * * * * * * * * * * * * * * * * * * * //

dimensions      [0 2 -1 0 0 0 0];

internalField   nonuniform List<scalar> 
1800
(
0.0152154
0.0214135
0.0297502
0.0844176
0.0296273
0.0148188
0.0110127
0.00932381
0.00884711
0.00782907
0.0139929
0.0486718
0.0986788
0.0211699
0.0125135
0.00984306
0.00866999
0.00793911
0.00791537
0.00716754
0.0140559
0.0404349
0.0178024
0.0111778
0.00902077
0.00811736
0.00768804
0.00744556
0.00755061
0.00731551
0.0160891
0.0182846
0.0106885
0.00855739
0.00770846
0.00734141
0.00723333
0.00729637
0.00755999
0.00782739
0.0280412
0.0114701
0.00842543
0.00744046
0.00708039
0.0070339
0.00720759
0.00759197
0.00825278
0.00937303
0.0157202
0.00878792
0.00732958
0.00689632
0.00687422
0.00713814
0.00770242
0.0086982
0.0104866
0.0140293
0.010052
0.00746658
0.00678741
0.00672231
0.00703196
0.00773256
0.00900883
0.011295
0.0151634
0.021831
0.00796432
0.00681084
0.00656992
0.00683743
0.00757415
0.00897761
0.0114983
0.0161664
0.0273775
0.055632
0.0069865
0.00648229
0.00657015
0.00720029
0.00852685
0.0110936
0.0165067
0.0303589
0.0531077
0.0298757
0.00645803
0.006337
0.00671962
0.0077818
0.010104
0.0158812
0.0342486
0.0462776
0.024195
0.0173893
0.0166371
0.0116356
0.0113403
0.0123413
0.0139358
0.0159159
0.0181955
0.0206132
0.0228797
0.0244741
0.0155949
0.0113794
0.0112053
0.0123094
0.0140751
0.0162304
0.0185819
0.0208401
0.0224967
0.0229571
0.0164099
0.0113738
0.0109965
0.0120318
0.0138332
0.0160975
0.0185131
0.0206568
0.0218854
0.0214404
0.0196664
0.01181
0.0108107
0.011562
0.0131673
0.0153211
0.0176665
0.0196786
0.020608
0.0197142
0.0329034
0.0131134
0.0108956
0.0111215
0.0122938
0.0140629
0.0161274
0.017984
0.0187689
0.0178302
0.0413684
0.0164094
0.0117796
0.0111145
0.0116743
0.0128525
0.0143565
0.0157869
0.016371
0.0155474
0.0231098
0.0281848
0.0148958
0.0121515
0.0118332
0.0124001
0.013272
0.0140317
0.0141297
0.0131155
0.0224339
0.087045
0.0331496
0.0179845
0.014329
0.0134239
0.0133385
0.0132288
0.0126515
0.0114091
0.0240364
0.0268584
0.0269756
0.0389487
0.0396055
0.0201901
0.0159806
0.0141559
0.0126251
0.0112685
0.021423
0.0183334
0.0194844
0.0259567
0.0433806
0.0344536
0.0188154
0.013994
0.0120637
0.011534
0.0335004
0.0420382
0.0162708
0.0159449
0.0170044
0.0156668
0.0145011
0.0149945
0.0147987
0.0176165
0.0249709
0.0525539
0.0186888
0.0209681
0.0187029
0.0147982
0.0132555
0.0137039
0.0135992
0.0162498
0.0193531
0.0278686
0.026027
0.0418562
0.0178393
0.013405
0.0121464
0.0124676
0.0123758
0.01481
0.0160817
0.0187326
0.0257542
0.0328545
0.0152602
0.0122819
0.0114395
0.0116835
0.0114648
0.0134976
0.014061
0.0147758
0.0192699
0.0182437
0.0131764
0.0113819
0.0109217
0.0112728
0.0109971
0.0125448
0.012662
0.0127728
0.014845
0.0142141
0.0117848
0.0106873
0.0104584
0.0109659
0.0108799
0.0120383
0.0116212
0.0116299
0.0127094
0.0125117
0.0110317
0.0103878
0.0102091
0.010665
0.0109282
0.0119269
0.0109813
0.0107478
0.0113971
0.0115491
0.0107579
0.0104229
0.0103017
0.0105157
0.0110101
0.0121114
0.0101257
0.0100953
0.0110865
0.0115017
0.0107472
0.0105121
0.0105556
0.0106177
0.0111363
0.0125159
0.0092637
0.0093551
0.0105829
0.0109038
0.01031
0.0104401
0.0107049
0.0108789
0.0113884
0.0131278
0.00862098
0.00927932
0.0105003
0.0106202
0.010458
0.0107635
0.0108986
0.0112501
0.0118638
0.0142255
0.00838845
0.00943732
0.0101488
0.00989112
0.0106656
0.0117348
0.0114022
0.0116392
0.0124888
0.0160893
0.0101632
0.00997554
0.0100033
0.0104809
0.0128867
0.0144308
0.012456
0.0121095
0.0128525
0.0173529
0.0136801
0.0115149
0.0108873
0.0123663
0.0176673
0.0184053
0.0134405
0.0126641
0.0128873
0.0166885
0.0168259
0.0130031
0.0127953
0.0143619
0.0260311
0.0175292
0.0123112
0.0119693
0.0123007
0.014873
0.0193937
0.0157998
0.0144365
0.014514
0.0154425
0.0111323
0.010183
0.0104597
0.01101
0.0128473
0.0271416
0.01946
0.0141004
0.0130742
0.00968256
0.00861598
0.00862203
0.00921686
0.00992865
0.0112695
0.0143699
0.0125747
0.0111549
0.00886154
0.00769784
0.00770556
0.00814403
0.00879724
0.00937104
0.0101568
0.00867009
0.00833906
0.00766728
0.00727962
0.00742115
0.00805857
0.00881256
0.00934056
0.00947086
0.00964112
0.00678741
0.00688932
0.00702471
0.00739992
0.0085466
0.0109835
0.015634
0.0179934
0.013699
0.0114626
0.0167729
0.0210183
0.0367587
0.150926
0.0274526
0.0158844
0.010332
0.00884843
0.0079275
0.00830439
0.0194215
0.0213126
0.0267375
0.0363019
0.0628868
0.050435
0.0187436
0.0155669
0.0109023
0.00918454
0.0209431
0.0229575
0.0268333
0.0274337
0.0453418
0.0310262
0.0306618
0.0197048
0.0175716
0.0122119
0.0215965
0.0227772
0.0266032
0.0255608
0.0335461
0.0248095
0.0373574
0.0206529
0.0260064
0.0165584
0.021901
0.0231595
0.0263231
0.0263514
0.0306561
0.0257846
0.0304415
0.0229642
0.0249789
0.0200921
0.0201968
0.0216261
0.0232559
0.0259229
0.028098
0.0305716
0.0322216
0.0289179
0.0281917
0.023838
0.0162936
0.0169786
0.0173475
0.0186913
0.0194091
0.0218722
0.0232204
0.0273459
0.0300479
0.030717
0.0115615
0.0118037
0.011669
0.0121391
0.0120411
0.0127705
0.0127108
0.0137494
0.0137189
0.0151231
0.00838976
0.00837919
0.00834424
0.00838655
0.00838059
0.00847132
0.00848954
0.00861766
0.00865374
0.00880586
0.00654692
0.00652991
0.00655025
0.00654337
0.00658442
0.00658555
0.00664394
0.00665195
0.00672382
0.00673874
0.0104177
0.0106793
0.0104491
0.0102044
0.0100569
0.0102025
0.0109638
0.0101583
0.00704339
0.00578631
0.0107927
0.0107331
0.0104659
0.0101801
0.0100316
0.0102723
0.0112705
0.0100421
0.0069256
0.00574926
0.011022
0.0109302
0.0106615
0.0103594
0.0102121
0.0105745
0.01186
0.00980824
0.00681387
0.00572475
0.0112566
0.0111942
0.0109306
0.0106259
0.0105227
0.0110948
0.0128042
0.00947653
0.00670306
0.00570957
0.0114044
0.0113952
0.0111983
0.010942
0.0109582
0.0120491
0.0145095
0.00906514
0.00660226
0.00571164
0.0116647
0.0116705
0.0114847
0.0113123
0.0116264
0.0136151
0.0154372
0.00861772
0.00651035
0.00573088
0.0120259
0.0120389
0.0119693
0.0119891
0.0129758
0.018278
0.0139671
0.00815338
0.00642461
0.00577273
0.0125493
0.0126867
0.012631
0.0129786
0.0166285
0.0357238
0.0118303
0.00769956
0.00635366
0.00584581
0.0134048
0.0133918
0.0136921
0.0170913
0.0417012
0.0207409
0.00998134
0.00730251
0.00630503
0.0059634
0.0143414
0.0150901
0.0191943
0.038659
0.0337825
0.0132673
0.00865382
0.00697005
0.00629196
0.0061512
0.0119606
0.0114768
0.0110468
0.0106722
0.0103234
0.0100039
0.00971836
0.00947587
0.00933535
0.00828131
0.011865
0.0114175
0.0110141
0.0106499
0.0103078
0.00999941
0.00973736
0.00946896
0.00894156
0.00742438
0.0117394
0.0113359
0.0109614
0.0106063
0.0102698
0.00997457
0.00974935
0.00948062
0.00860287
0.00692509
0.011603
0.0112593
0.0109216
0.0105718
0.010237
0.0099585
0.00978447
0.00952741
0.00831458
0.00660062
0.0114798
0.0111974
0.0108993
0.0105571
0.0102224
0.00995639
0.00983229
0.00958123
0.00805456
0.00636916
0.0113743
0.0111525
0.0108917
0.0105521
0.0102236
0.00998917
0.00994092
0.00968596
0.0078301
0.00619939
0.0113456
0.0111894
0.0109542
0.0105935
0.0102419
0.0100194
0.0100475
0.00977002
0.00763047
0.0060699
0.0113377
0.0111973
0.0109869
0.0106308
0.010296
0.0101245
0.0102688
0.00992184
0.00745739
0.00596959
0.0115581
0.0113774
0.0110664
0.0106142
0.010249
0.0101318
0.0104369
0.0100365
0.0073067
0.00589343
0.0114938
0.0111924
0.0109467
0.0105913
0.0102804
0.0102389
0.0107208
0.0101383
0.0071667
0.00583199
0.342976
0.0763503
0.0413366
0.0407439
0.0445756
0.0419178
0.0320858
0.0259656
0.0196739
0.0141047
0.238313
0.0764504
0.0408932
0.0378737
0.0407365
0.0411434
0.0336709
0.0264817
0.0203714
0.0139884
0.178447
0.0754196
0.0402763
0.0355801
0.0379744
0.03982
0.035544
0.0266978
0.0213245
0.0138353
0.147392
0.0728933
0.0393502
0.0336868
0.0359251
0.0385118
0.0377396
0.0266197
0.0224721
0.0136322
0.128085
0.0697526
0.0382534
0.0321377
0.0343709
0.0374379
0.0401145
0.0263625
0.0235332
0.0134031
0.115563
0.0665679
0.0372294
0.0309336
0.0331927
0.0366075
0.0419599
0.0261547
0.0236975
0.013208
0.108428
0.0639119
0.0365003
0.0300673
0.0322892
0.0360827
0.0419861
0.0262448
0.0225128
0.0129695
0.10595
0.0623302
0.0363471
0.0294587
0.0315116
0.0359654
0.0398034
0.026959
0.0200034
0.0130355
0.107076
0.0624194
0.0369462
0.0289837
0.0306916
0.035654
0.0369198
0.0278093
0.0187325
0.012784
0.109589
0.0654534
0.0356611
0.0284806
0.0294512
0.0343872
0.0333443
0.0266047
0.0163414
0.0142551
0.107944
0.0727069
0.0351789
0.0292184
0.0272009
0.0337482
0.0262099
0.0253152
0.0150282
0.0146852
0.103855
0.0738364
0.0341409
0.0319299
0.0219335
0.0383543
0.018177
0.0234875
0.0135068
0.0143784
0.0956618
0.0782714
0.0354804
0.0305243
0.0179884
0.0371486
0.0148939
0.0199473
0.0129055
0.0146864
0.085739
0.0931297
0.0389279
0.022907
0.0175372
0.024667
0.0152333
0.0174695
0.0145398
0.0137145
0.0725281
0.10617
0.0427771
0.0194688
0.0203411
0.0194842
0.0176405
0.016545
0.018011
0.0135996
0.0575876
0.0805104
0.0606759
0.0183126
0.0221865
0.0175999
0.0183766
0.0173375
0.0201092
0.0148928
0.0472428
0.0760873
0.185584
0.0211417
0.0195148
0.0178528
0.0168199
0.0192355
0.0185823
0.0169351
0.0348662
0.0911534
0.0385022
0.0600975
0.0152642
0.0174675
0.0132977
0.0157526
0.0137545
0.0152064
0.0215108
0.0197534
0.0140664
0.0127635
0.0114669
0.0110736
0.0102992
0.0104091
0.0100738
0.0100921
0.00792261
0.00790544
0.00826054
0.00848625
0.0088506
0.00809671
0.00832868
0.00768304
0.0076039
0.00720879
0.0117069
0.0115258
0.0113762
0.0115235
0.011723
0.0120507
0.0124993
0.0130631
0.0139756
0.0151778
0.0126153
0.0122844
0.0121859
0.0123849
0.0127344
0.0132481
0.0138729
0.0147262
0.0158448
0.0173991
0.0132291
0.0129635
0.0130439
0.0133603
0.0138585
0.0144617
0.0152214
0.0161669
0.0173598
0.0188854
0.0135589
0.0135204
0.0138051
0.0142432
0.014851
0.0154628
0.0162739
0.0171101
0.0183356
0.0194973
0.0143624
0.0145705
0.0150457
0.0155572
0.0161469
0.0166462
0.0173408
0.0179916
0.0190937
0.020042
0.0158444
0.0160364
0.0164154
0.016739
0.0170264
0.0172218
0.0175417
0.0179091
0.0185042
0.0192042
0.0167081
0.0164627
0.0163177
0.0162344
0.0160701
0.0159467
0.015798
0.0158241
0.0158237
0.016134
0.014063
0.013628
0.0131663
0.0128875
0.0125223
0.0123267
0.0120195
0.0119287
0.0116862
0.0117475
0.00981468
0.00959408
0.00937785
0.00919792
0.00902413
0.00888316
0.0087378
0.00863197
0.0085226
0.00846056
0.00709383
0.00699386
0.00690669
0.0068246
0.00675814
0.00669464
0.00664873
0.00660271
0.00657854
0.00654833
0.00571781
0.0064288
0.00829783
0.0151142
0.0233694
0.0136599
0.0116904
0.0107914
0.0095671
0.00810282
0.00579793
0.00635282
0.00779129
0.0124218
0.0446434
0.0179256
0.0127008
0.0109477
0.00951494
0.00802562
0.0059256
0.00631027
0.00736807
0.0101649
0.0187262
0.0196542
0.0140699
0.0113859
0.00968024
0.00816607
0.00612001
0.00631312
0.00704585
0.00882395
0.0128548
0.0172617
0.0152101
0.0122211
0.0101421
0.00845225
0.00641403
0.00637843
0.00682772
0.00798739
0.0103581
0.0139534
0.0152085
0.0132638
0.010982
0.00900914
0.00686389
0.00653138
0.00672186
0.00745996
0.00894794
0.0114667
0.0140177
0.0140846
0.0122812
0.00975703
0.00757091
0.00680936
0.00674287
0.00715855
0.00808569
0.00971926
0.0120343
0.0136728
0.0135356
0.0111552
0.0087497
0.0072636
0.00690897
0.00705631
0.00760206
0.00862472
0.0102623
0.0122814
0.0138239
0.0121387
0.0109897
0.00797414
0.00723942
0.00714037
0.00740378
0.00801554
0.00903794
0.0104715
0.0124593
0.0119191
0.016061
0.00912617
0.00777282
0.0074133
0.00744475
0.00777847
0.00842618
0.00940538
0.0110254
0.012035
0.0341356
0.0110157
0.00856706
0.00788376
0.00769628
0.00780558
0.00817903
0.00882661
0.00967731
0.0119216
0.0212269
0.0139499
0.00977549
0.00858498
0.00817007
0.00808144
0.00823775
0.00862505
0.00903874
0.0107288
0.0162519
0.0184218
0.0113699
0.00957203
0.0089294
0.00866552
0.00864223
0.00882593
0.00895586
0.0101526
0.014445
0.0250539
0.0132033
0.010795
0.0100233
0.0096643
0.00949776
0.00949062
0.00940854
0.0102527
0.0140813
0.0289566
0.0142459
0.0117579
0.0112036
0.0110351
0.010868
0.0106835
0.0104064
0.0109071
0.0149159
0.0222264
0.0135162
0.0118876
0.0118609
0.0122332
0.0124999
0.0124168
0.0119977
0.0120959
0.0179741
0.0174202
0.0124918
0.0117094
0.0121267
0.0129998
0.0140464
0.0147363
0.0144594
0.0141267
0.0270671
0.0148535
0.0118
0.0117209
0.0124944
0.013715
0.0154428
0.0175532
0.0187267
0.0181313
0.0312069
0.0132523
0.0115018
0.01195
0.0130481
0.014573
0.0166643
0.0195496
0.0228088
0.0243092
0.0201738
0.0122248
0.0114105
0.0121958
0.0135758
0.0153766
0.0176393
0.0204348
0.0236737
0.026297
0.0113406
0.0112935
0.0124313
0.0157254
0.0256828
0.101163
0.0298238
0.0242345
0.0219551
0.0260187
0.0113326
0.0114745
0.0127239
0.0162296
0.0250846
0.0404194
0.0274987
0.0236655
0.0217519
0.0265845
0.0110622
0.0115036
0.0128711
0.0162359
0.0223148
0.0279371
0.0249662
0.022935
0.0213153
0.0261509
0.0109884
0.0116581
0.0130936
0.0160156
0.020001
0.023118
0.0225246
0.0219452
0.0207024
0.0252999
0.0113799
0.0120702
0.0134853
0.0157906
0.0184165
0.020199
0.0204362
0.0207995
0.0199767
0.0243001
0.0122222
0.0128007
0.0140556
0.0155378
0.0170939
0.0181462
0.0187015
0.0196069
0.0191875
0.0232755
0.0136542
0.0140131
0.0146918
0.0151383
0.0159283
0.0166695
0.0173008
0.018453
0.0183536
0.0222447
0.0161931
0.0160469
0.0152096
0.0146371
0.0150852
0.0157369
0.0162779
0.0174329
0.0174968
0.0211786
0.0218129
0.0194411
0.0155245
0.0142891
0.0148108
0.0153835
0.015657
0.0166104
0.0166454
0.0200557
0.0348337
0.0259507
0.0157551
0.014484
0.0153876
0.0155507
0.0152454
0.0159034
0.0157835
0.0188732
0.0109797
0.0217521
0.0267725
0.0479045
0.0447737
0.0285392
0.0348859
0.0709474
0.0262688
0.0173468
0.0084751
0.0112747
0.0148874
0.0205801
0.0287304
0.031767
0.0239564
0.018159
0.0154471
0.0137493
0.00833522
0.0098539
0.0126293
0.0162482
0.0206988
0.0227581
0.019248
0.0167555
0.0157988
0.0150945
0.00911645
0.0097397
0.0118749
0.0156905
0.0221716
0.029419
0.0237278
0.0205866
0.0189239
0.0189307
0.0110489
0.0109833
0.0123771
0.015856
0.0262086
0.0840781
0.0286935
0.0233939
0.0211842
0.0232877
0.00576378
0.00586598
0.00600536
0.00620672
0.00643969
0.00673836
0.00709095
0.00743617
0.00800214
0.00823397
0.00596598
0.00604229
0.00615827
0.00632252
0.0065006
0.00670125
0.00694364
0.00710524
0.0074891
0.00753056
0.00625264
0.00630032
0.00640796
0.00656335
0.00673192
0.00695173
0.00713325
0.00740822
0.00764702
0.00792349
0.00666016
0.00667497
0.00679475
0.00697058
0.00719819
0.00752629
0.007739
0.00846057
0.00848011
0.00982215
0.00720901
0.00718278
0.00732846
0.00755304
0.00793533
0.00838594
0.00902996
0.0101804
0.0103594
0.0137076
0.0119496
0.0116625
0.011386
0.0109911
0.0106244
0.0104176
0.010482
0.0102059
0.00789924
0.00618965
0.0122242
0.0119692
0.0115599
0.0110499
0.0106297
0.0103833
0.0103741
0.0101348
0.00811794
0.00632953
0.0119622
0.0117652
0.0114769
0.0110867
0.0107249
0.010466
0.0103715
0.0101037
0.00836736
0.00650436
0.0120499
0.0118228
0.0115019
0.0111008
0.0107143
0.0104048
0.0102243
0.00996934
0.00863925
0.00673466
0.0120622
0.0117662
0.0114131
0.0110243
0.0106568
0.0103494
0.0101363
0.00991017
0.00897492
0.00706052
0.0121132
0.0117509
0.0113633
0.010976
0.0106103
0.0102873
0.0100317
0.00982545
0.00932844
0.00754218
0.0121318
0.0117069
0.0112863
0.0108941
0.010525
0.0101892
0.0099076
0.00974213
0.00972304
0.0083744
0.0121136
0.0116389
0.0111929
0.0107943
0.010418
0.0100675
0.00976515
0.00964052
0.0100977
0.0101324
0.0120733
0.0115711
0.0111143
0.0107147
0.0103359
0.00997936
0.00966516
0.00952175
0.0101547
0.0129045
0.012025
0.0115236
0.0110767
0.0106904
0.0103278
0.00998857
0.0096804
0.00948519
0.00978928
0.0101496
0.00840489
0.00976183
0.0106826
0.0112049
0.0118431
0.0141076
0.0162599
0.00881688
0.00652408
0.00567206
0.0089536
0.00998688
0.0104728
0.0106866
0.0109735
0.0119399
0.0139055
0.00930866
0.00663181
0.00565215
0.00949172
0.0100427
0.0102345
0.0102925
0.0103851
0.0108705
0.0120652
0.00968179
0.00674817
0.00565459
0.00975168
0.00996781
0.0100244
0.0100283
0.0100568
0.0103376
0.011164
0.00988138
0.00686959
0.00567406
0.00983349
0.00993718
0.0099486
0.0099127
0.0098849
0.0100548
0.0106783
0.00995264
0.00698974
0.00570924
0.0099706
0.0100362
0.010012
0.00993392
0.00985633
0.00994577
0.0104342
0.00998631
0.00711348
0.00575731
0.0102391
0.0102755
0.0101915
0.0100378
0.00989484
0.00992176
0.0103176
0.00999924
0.00724246
0.00581784
0.0106094
0.0105688
0.0103847
0.010149
0.00995664
0.00994158
0.0102743
0.0100381
0.00738439
0.00589115
0.0109163
0.0107506
0.010483
0.0102131
0.0100154
0.00999258
0.0102922
0.0101106
0.00754098
0.00597667
0.0107729
0.0108396
0.0106179
0.0103751
0.010191
0.0101513
0.0103905
0.0101974
0.0077143
0.00607559
0.0391338
0.036353
0.0726425
0.0634174
0.0278836
0.024946
0.0272696
0.0426987
0.0251943
0.0167111
0.0439725
0.0380668
0.0579923
0.1959
0.0355392
0.0262486
0.0265054
0.0296632
0.0263678
0.014772
0.0506649
0.0405139
0.0530035
0.38442
0.0457587
0.0276741
0.0270765
0.0262644
0.0248169
0.0141313
0.0597437
0.0447398
0.0514059
0.130308
0.0516841
0.0291622
0.027009
0.023952
0.0221893
0.0140879
0.0717091
0.0503855
0.0500236
0.0838843
0.0631727
0.0307049
0.0269359
0.0228932
0.020421
0.0141421
0.0878283
0.0570493
0.0480571
0.0707479
0.070468
0.0324793
0.0271902
0.0226707
0.0194834
0.0142251
0.111948
0.064297
0.0461556
0.0625203
0.0710388
0.0346127
0.0277509
0.0229667
0.0190142
0.0142729
0.154791
0.071199
0.0445984
0.0555352
0.0652151
0.037123
0.0285577
0.0235906
0.0188543
0.0142731
0.239689
0.0760506
0.0432095
0.0494314
0.0571277
0.0396652
0.0295597
0.0243916
0.0189306
0.0142368
0.364386
0.0770499
0.0420392
0.044498
0.0499571
0.041472
0.0307309
0.0252283
0.0192053
0.0141775
0.00725558
0.00743347
0.00808632
0.00870817
0.00936872
0.00961452
0.00977045
0.00920171
0.00918877
0.00769324
0.0148638
0.0110205
0.00966827
0.00972653
0.0101926
0.0106276
0.011124
0.0112942
0.0112982
0.0111108
0.0259874
0.0247159
0.0137725
0.0119394
0.0118432
0.0123814
0.0131938
0.0149418
0.0150346
0.01386
0.0325394
0.038766
0.0271351
0.0168147
0.0149768
0.0154613
0.0167989
0.0231235
0.0246626
0.0148507
0.0359391
0.035943
0.0740962
0.0287046
0.0199437
0.0197089
0.0219882
0.0424073
0.0311834
0.0164567
0.00719018
0.00687019
0.00656785
0.00630253
0.00608694
0.00592083
0.00580131
0.00572738
0.00569734
0.00570998
0.0102493
0.00944978
0.0086491
0.0079489
0.00732521
0.00680108
0.00641003
0.00615252
0.00600737
0.00595223
0.011839
0.0109749
0.0101906
0.00953761
0.00886136
0.00809876
0.00736441
0.00680854
0.00646575
0.00629682
0.0120956
0.0112152
0.0105794
0.0101683
0.00978974
0.00928337
0.00852095
0.00769493
0.00710146
0.00677881
0.0119243
0.0111532
0.0105305
0.0101292
0.00983256
0.00958925
0.00924233
0.00860878
0.00790823
0.00742431
)
;

boundaryField
{
    left
    {
        type            calculated;
        value           nonuniform List<scalar> 
35
(
0.231939
0.351107
0.174859
0.114324
0.0838604
0.0621635
0.0474042
0.032764
0.0191377
0.00788351
0.154581
0.176146
0.203997
0.209965
0.186936
0.159612
0.14133
0.134343
0.139934
0.165241
0.0333877
0.0374208
0.0427203
0.0495594
0.0581147
0.0687481
0.0825491
0.101303
0.123552
0.14101
0.00721729
0.0135526
0.0215942
0.0268779
0.0304496
)
;
    }
    right
    {
        type            calculated;
        value           nonuniform List<scalar> 
35
(
0.017346
0.0137898
0.0152457
0.0195662
0.0253203
0.0299356
0.0316442
0.0317152
0.0310513
0.0300986
0.0290696
0.0279855
0.0267734
0.0253714
0.0237394
0.0217976
0.0194919
0.0170728
0.0150422
0.0137036
0.0130533
0.0129516
0.0132515
0.0138702
0.0148349
0.0167541
0.0200951
0.0215842
0.0187412
0.0153033
0.0129099
0.0113134
0.0102141
0.0096758
0.0114801
)
;
    }
    down
    {
        type            calculated;
        value           nonuniform List<scalar> 
40
(
0.00638823
0.0067478
0.00766059
0.00841222
0.00911161
0.00925932
0.00926772
0.00854253
0.00847974
0.0069049
0.00649941
0.0062704
0.00605876
0.00587975
0.00574814
0.00566111
0.00560795
0.00558248
0.00558419
0.0056163
0.00568382
0.00579795
0.00595197
0.00617852
0.00645225
0.00683655
0.00729224
0.0078596
0.00864265
0.00925299
0.0188255
0.0406737
0.205786
0.13455
0.0272295
0.0183036
0.019961
0.0297147
0.0549601
0.0303928
)
;
    }
    up
    {
        type            calculated;
        value           nonuniform List<scalar> 
40
(
0.00633451
0.0065247
0.00716483
0.00817962
0.0100903
0.0170279
0.0150808
0.0138137
0.0203595
0.0181769
0.00608609
0.0060768
0.00610016
0.0060969
0.00613759
0.00613797
0.0061933
0.00619707
0.00626431
0.00627242
0.00648002
0.0064023
0.00633533
0.00627281
0.00622305
0.0061762
0.00614464
0.00611307
0.0060999
0.00608091
0.00678844
0.00683631
0.00728913
0.00769591
0.00811429
0.00744545
0.00771749
0.00702405
0.00694143
0.00657341
)
;
    }
    cylinder
    {
        type            calculated;
        value           nonuniform List<scalar> 
80
(
0.0675232
0.0421263
0.0702413
0.0833234
0.0366558
0.0229392
0.0162969
0.0156262
0.0200129
0.0212737
0.0128703
0.0109672
0.0109345
0.0126336
0.0187458
0.0313396
0.0162298
0.00965956
0.00766465
0.00673554
0.00549996
0.00547793
0.00546847
0.00546975
0.00549002
0.00553207
0.00560544
0.00572447
0.00591448
0.00622193
0.00764241
0.00684457
0.00640848
0.00613529
0.00594541
0.00580927
0.0057072
0.00562999
0.0055734
0.00552984
0.00579682
0.00590718
0.00604588
0.00623051
0.00649515
0.00689746
0.00762374
0.00932745
0.0135332
0.00966799
0.00545698
0.0054146
0.00539869
0.00540196
0.00542245
0.00545628
0.00550205
0.00555938
0.00562737
0.00570625
0.00553326
0.0056579
0.00585332
0.00615237
0.00661084
0.00734007
0.00861307
0.0113408
0.0211182
0.031173
0.0193458
0.0139921
0.0118864
0.0108589
0.0106147
0.0111309
0.0127398
0.0164222
0.0257187
0.0567569
)
;
    }
    defaultFaces
    {
        type            empty;
    }
}


// ************************************************************************* //
