/*--------------------------------*- C++ -*----------------------------------*\
| =========                 |                                                 |
| \\      /  F ield         | OpenFOAM: The Open Source CFD Toolbox           |
|  \\    /   O peration     | Version:  2406                                  |
|   \\  /    A nd           | Website:  www.openfoam.com                      |
|    \\/     M anipulation  |                                                 |
\*---------------------------------------------------------------------------*/
FoamFile
{
    version     2.0;
    format      ascii;
    arch        "LSB;label=32;scalar=64";
    class       volScalarField;
    location    "1.95";
    object      p;
}
// * * * * * * * * * * * * * * * * * * * * * * * * * * * * * * * * * * * * * //

dimensions      [0 2 -2 0 0 0 0];

internalField   nonuniform List<scalar> 
1800
(
-0.412842
-0.417419
-0.417586
-0.415667
-0.41261
-0.412562
-0.412552
-0.411086
-0.409024
-0.435615
-0.446627
-0.449306
-0.447669
-0.44955
-0.449275
-0.445606
-0.441858
-0.438595
-0.432434
-0.460328
-0.48756
-0.486094
-0.483109
-0.47864
-0.475572
-0.471721
-0.466751
-0.460766
-0.452468
-0.454291
-0.521749
-0.514406
-0.509098
-0.504504
-0.499365
-0.493031
-0.484842
-0.474645
-0.463045
-0.451593
-0.552838
-0.547881
-0.541631
-0.533928
-0.524949
-0.51392
-0.500243
-0.484128
-0.466311
-0.447498
-0.603731
-0.591998
-0.582688
-0.571222
-0.556654
-0.538588
-0.517271
-0.49327
-0.467279
-0.440479
-0.663436
-0.644787
-0.632144
-0.615147
-0.592092
-0.564229
-0.533619
-0.501929
-0.470181
-0.436726
-0.728737
-0.705237
-0.687933
-0.661721
-0.626428
-0.586167
-0.544191
-0.50157
-0.458251
-0.417277
-0.798842
-0.770033
-0.744468
-0.704786
-0.654605
-0.600822
-0.546284
-0.491344
-0.438759
-0.392847
-0.863574
-0.829834
-0.790706
-0.734112
-0.667958
-0.599591
-0.53148
-0.466993
-0.409576
-0.357658
-0.727714
-0.730774
-0.731862
-0.73259
-0.733011
-0.732997
-0.732601
-0.732048
-0.731395
-0.729617
-0.67719
-0.676618
-0.676331
-0.675856
-0.675209
-0.67441
-0.673522
-0.672739
-0.672297
-0.671761
-0.627889
-0.62344
-0.621571
-0.619486
-0.617211
-0.61489
-0.612591
-0.610484
-0.608814
-0.607244
-0.576924
-0.570376
-0.56737
-0.563636
-0.559384
-0.554993
-0.550603
-0.54641
-0.542644
-0.538794
-0.523724
-0.520494
-0.516289
-0.510514
-0.503813
-0.496699
-0.489413
-0.48222
-0.475307
-0.467865
-0.479195
-0.476991
-0.470987
-0.463347
-0.454189
-0.443945
-0.433001
-0.421782
-0.410497
-0.398265
-0.449785
-0.444461
-0.436389
-0.426513
-0.414789
-0.401574
-0.386995
-0.371389
-0.355078
-0.337753
-0.41302
-0.415041
-0.412486
-0.404409
-0.39155
-0.375505
-0.358176
-0.33891
-0.318258
-0.297227
-0.390199
-0.394287
-0.395475
-0.391097
-0.377828
-0.363537
-0.349481
-0.331314
-0.310303
-0.288142
-0.391223
-0.395797
-0.394918
-0.388994
-0.37735
-0.36403
-0.351698
-0.338117
-0.320052
-0.296272
-0.706763
-0.844287
-0.987789
-1.16027
-1.13058
-0.912812
-0.575492
-0.306985
-0.118678
-0.0117734
-0.669888
-0.861941
-1.05895
-1.28533
-1.27028
-1.00585
-0.616475
-0.313657
-0.111766
-0.00422108
-0.618637
-0.870375
-1.12936
-1.41992
-1.41391
-1.10656
-0.661541
-0.320499
-0.104113
0.00384769
-0.553367
-0.860196
-1.19123
-1.55319
-1.56155
-1.2135
-0.709852
-0.327944
-0.0965328
0.0112248
-0.474253
-0.825139
-1.23229
-1.67257
-1.70858
-1.32161
-0.760485
-0.336774
-0.0903753
0.0165024
-0.383973
-0.764456
-1.24383
-1.7691
-1.84237
-1.42494
-0.811599
-0.347791
-0.0869233
0.0188442
-0.288998
-0.678938
-1.22034
-1.834
-1.95191
-1.51622
-0.86109
-0.361963
-0.0871097
0.0182566
-0.200055
-0.571872
-1.1622
-1.86021
-2.02972
-1.5903
-0.907568
-0.380289
-0.0919303
0.0150421
-0.134568
-0.44708
-1.06987
-1.84601
-2.07274
-1.64482
-0.949643
-0.402635
-0.102263
0.00924832
-0.133284
-0.319539
-0.951382
-1.79412
-2.08008
-1.68068
-0.986403
-0.427891
-0.117967
0.000821313
-0.085217
-0.202429
-0.853981
-1.74315
-2.06354
-1.67202
-0.99531
-0.448005
-0.139682
-0.0128411
-0.103568
-0.169385
-0.806665
-1.6538
-1.95031
-1.57686
-0.968011
-0.468604
-0.171893
-0.0324695
-0.127171
-0.196213
-0.754431
-1.5123
-1.7753
-1.46228
-0.9507
-0.507164
-0.213122
-0.0522035
-0.156732
-0.220089
-0.684074
-1.30675
-1.55341
-1.34034
-0.952055
-0.570488
-0.269043
-0.074183
-0.161038
-0.22301
-0.591054
-1.08989
-1.32306
-1.2315
-0.975675
-0.653687
-0.336208
-0.0969346
-0.149859
-0.209727
-0.49477
-0.882357
-1.11092
-1.14715
-1.02017
-0.740901
-0.397549
-0.113777
-0.123869
-0.182083
-0.401268
-0.694247
-0.927635
-1.08322
-1.06931
-0.817121
-0.44621
-0.12415
-0.0870496
-0.143643
-0.302732
-0.539719
-0.787788
-1.02871
-1.07633
-0.841951
-0.464447
-0.12743
-0.040164
-0.100372
-0.261905
-0.45078
-0.677896
-0.979115
-1.05423
-0.834168
-0.464527
-0.126917
-0.0208603
-0.0722916
-0.24177
-0.490314
-0.718571
-0.959455
-1.02085
-0.80127
-0.45453
-0.120452
-0.269116
-0.314433
-0.344255
-0.368256
-0.392498
-0.41382
-0.429157
-0.43886
-0.407674
-0.378266
-0.163321
-0.213897
-0.254153
-0.285129
-0.311439
-0.334796
-0.332679
-0.332045
-0.30798
-0.301611
-0.0736515
-0.125865
-0.168964
-0.20211
-0.227106
-0.251809
-0.253466
-0.261877
-0.248301
-0.246785
0.00466166
-0.0480219
-0.0923258
-0.128794
-0.156635
-0.183379
-0.195638
-0.211409
-0.209331
-0.214051
0.0712452
0.0184725
-0.0268591
-0.0659108
-0.0971682
-0.12585
-0.144942
-0.163783
-0.170903
-0.180853
0.126448
0.0738369
0.0280153
-0.0121062
-0.0452689
-0.0746314
-0.0968612
-0.117431
-0.130745
-0.144835
0.171262
0.118928
0.073127
0.032898
-0.000653395
-0.0297109
-0.0529875
-0.0736863
-0.0899127
-0.106077
0.206481
0.154316
0.108535
0.0686049
0.0352323
0.00708537
-0.0155247
-0.0345261
-0.0499583
-0.0638722
0.22751
0.176266
0.130183
0.0905784
0.0572067
0.0302119
0.00900098
-0.00678815
-0.0181459
-0.0257265
0.237499
0.185342
0.13838
0.0982864
0.0638622
0.0365311
0.0147778
-0.000313529
-0.010499
-0.0147239
0.89802
0.844028
0.781448
0.715007
0.643518
0.564233
0.477001
0.387035
0.304371
0.250354
0.733598
0.675935
0.611366
0.540753
0.462318
0.3739
0.276272
0.176009
0.0848159
0.023851
0.554152
0.494964
0.429243
0.355966
0.273111
0.178816
0.074489
-0.0326165
-0.129419
-0.195162
0.382903
0.321494
0.252997
0.17615
0.0891625
-0.00961843
-0.118477
-0.230359
-0.331013
-0.396331
0.228231
0.163879
0.091861
0.0111145
-0.0800692
-0.182993
-0.294359
-0.410081
-0.509574
-0.574456
0.0890493
0.0221135
-0.0525723
-0.135827
-0.229162
-0.334684
-0.447055
-0.56016
-0.658226
-0.720657
-0.0352323
-0.103373
-0.178882
-0.262917
-0.356685
-0.459169
-0.568855
-0.677571
-0.770748
-0.828306
-0.143828
-0.21072
-0.284558
-0.366121
-0.456128
-0.555124
-0.659272
-0.760426
-0.844435
-0.895431
-0.235457
-0.29871
-0.368471
-0.445211
-0.529672
-0.621647
-0.715528
-0.80585
-0.876928
-0.921232
-0.307023
-0.365105
-0.428511
-0.498286
-0.576447
-0.658641
-0.740017
-0.814346
-0.869884
-0.908357
1.88123
1.8952
1.91012
1.92485
1.93857
1.95076
1.96073
1.96757
1.97281
1.99012
1.83954
1.85154
1.86392
1.87564
1.88605
1.89458
1.90058
1.90367
1.90607
1.92123
1.77863
1.78788
1.7967
1.80432
1.81022
1.8138
1.81441
1.81215
1.80994
1.82083
1.69993
1.70586
1.71023
1.71261
1.71271
1.70983
1.70331
1.69377
1.68492
1.68989
1.60432
1.60617
1.60519
1.60138
1.59469
1.58431
1.56952
1.55139
1.53449
1.53261
1.49497
1.49237
1.48519
1.47406
1.45928
1.43995
1.41539
1.38722
1.36079
1.35129
1.37368
1.36602
1.35215
1.33326
1.30985
1.28086
1.24562
1.20631
1.16893
1.15165
1.24682
1.23339
1.21132
1.1829
1.1492
1.10917
1.06227
1.0113
0.962787
0.936467
1.1194
1.09945
1.06836
1.02963
0.984679
0.932307
0.872161
0.807962
0.747433
0.711313
1.00232
0.968408
0.922753
0.870677
0.813217
0.748276
0.675254
0.598453
0.526753
0.481449
1.72604
1.71387
1.70823
1.69249
1.68101
1.67838
1.68329
1.70141
1.73752
1.81915
1.7219
1.7115
1.70569
1.69002
1.67904
1.67436
1.67811
1.69236
1.72308
1.79395
1.7186
1.70887
1.70322
1.68729
1.67672
1.66953
1.67168
1.68037
1.70326
1.75773
1.71585
1.7062
1.70083
1.68436
1.674
1.66392
1.66408
1.66544
1.67853
1.71031
1.71374
1.70354
1.69851
1.68128
1.67087
1.65756
1.65529
1.64756
1.64936
1.65123
1.7123
1.70089
1.69626
1.67806
1.66732
1.65045
1.64524
1.62671
1.61627
1.5802
1.71141
1.69823
1.69409
1.6747
1.66332
1.6426
1.63387
1.60298
1.57975
1.49691
1.71093
1.6956
1.69202
1.6712
1.65885
1.63399
1.62125
1.57654
1.53973
1.40273
1.71074
1.69305
1.69043
1.66776
1.65406
1.62464
1.60758
1.54757
1.49573
1.29724
1.71075
1.69067
1.68948
1.66489
1.64943
1.61501
1.5931
1.51709
1.44998
1.18956
1.71137
1.68861
1.6868
1.65986
1.64196
1.60311
1.57514
1.48219
1.39383
1.08522
1.71334
1.68721
1.68673
1.65712
1.63735
1.59247
1.55887
1.45445
1.34414
1.07658
1.71656
1.68672
1.68715
1.65431
1.63343
1.58299
1.54298
1.4352
1.3052
1.07411
1.72088
1.68671
1.68851
1.65224
1.62832
1.57846
1.52742
1.42392
1.27659
1.07028
1.72686
1.68755
1.68989
1.65047
1.62012
1.57908
1.51206
1.41647
1.25594
1.06435
1.7364
1.68979
1.6892
1.64732
1.60838
1.58026
1.49653
1.40993
1.24187
1.05793
1.75058
1.69469
1.6847
1.62767
1.5921
1.58031
1.48134
1.40374
1.2351
1.05479
1.77057
1.70057
1.68323
1.6191
1.57894
1.58058
1.46697
1.40145
1.23523
1.05719
1.78499
1.7028
1.68255
1.61981
1.57113
1.58164
1.45553
1.40467
1.23738
1.06466
1.83037
1.70233
1.67894
1.61036
1.56706
1.58299
1.45211
1.416
1.24168
1.07988
0.880989
0.745358
0.585655
0.432492
0.294123
0.168932
0.0551135
-0.0464213
-0.135844
-0.210278
0.837687
0.728561
0.603308
0.478435
0.36176
0.253401
0.151933
0.0577849
-0.0271041
-0.101102
0.824001
0.726008
0.620659
0.515102
0.413397
0.316456
0.224393
0.137916
0.058998
-0.0117868
0.826038
0.733453
0.639294
0.547473
0.458343
0.371736
0.288042
0.208201
0.133687
0.0654644
0.835526
0.748821
0.662588
0.580265
0.500334
0.421371
0.343645
0.268323
0.197029
0.13089
0.849134
0.76906
0.689167
0.612832
0.538418
0.464184
0.390254
0.317919
0.249174
0.184884
0.865912
0.792057
0.717056
0.644192
0.572584
0.501021
0.429407
0.358911
0.291523
0.22875
0.885154
0.815977
0.744313
0.673166
0.602589
0.532264
0.462078
0.393432
0.327176
0.264427
0.900023
0.83228
0.762101
0.69137
0.620507
0.549837
0.479484
0.411231
0.345369
0.284276
0.917282
0.850161
0.780824
0.709284
0.636637
0.564175
0.492958
0.423993
0.357718
0.295486
-1.66475
-1.60034
-1.50525
-1.39871
-1.2967
-1.20599
-1.12637
-1.05914
-1.00401
-0.961302
-1.76098
-1.70406
-1.61787
-1.51603
-1.41551
-1.32632
-1.24818
-1.18061
-1.12438
-1.0807
-1.80415
-1.7547
-1.67973
-1.5861
-1.49179
-1.40426
-1.32638
-1.25797
-1.19929
-1.15181
-1.80024
-1.75824
-1.69691
-1.61512
-1.52733
-1.44266
-1.36546
-1.29684
-1.23631
-1.185
-1.75998
-1.72531
-1.67913
-1.61182
-1.53317
-1.4532
-1.37763
-1.30915
-1.24765
-1.19335
-1.69738
-1.66966
-1.63732
-1.58505
-1.51797
-1.44507
-1.37249
-1.30431
-1.2421
-1.1861
-1.62598
-1.60434
-1.58238
-1.54409
-1.4902
-1.42695
-1.36007
-1.29417
-1.23262
-1.17778
-1.55461
-1.53746
-1.52271
-1.49598
-1.45498
-1.40232
-1.34245
-1.27977
-1.21869
-1.16321
-1.48668
-1.47271
-1.46284
-1.44502
-1.41551
-1.37405
-1.32316
-1.26639
-1.20851
-1.15768
-1.42073
-1.40972
-1.40383
-1.39246
-1.37224
-1.34099
-1.29878
-1.24735
-1.1892
-1.13432
-1.35214
-1.35008
-1.3469
-1.33947
-1.32619
-1.30397
-1.27135
-1.22905
-1.17809
-1.11883
-1.29594
-1.29334
-1.29018
-1.2862
-1.27806
-1.26279
-1.23831
-1.20441
-1.16143
-1.1056
-1.24022
-1.23662
-1.23503
-1.23375
-1.2289
-1.21819
-1.19942
-1.17176
-1.13471
-1.0826
-1.17975
-1.17799
-1.17835
-1.1789
-1.17643
-1.16876
-1.15398
-1.13113
-1.09889
-1.05187
-1.11217
-1.11403
-1.1159
-1.11691
-1.1163
-1.11063
-1.09872
-1.07997
-1.05312
-1.01446
-1.04172
-1.04605
-1.04855
-1.04949
-1.04919
-1.04515
-1.03585
-1.02103
-1.00067
-0.972013
-0.974029
-0.978096
-0.980172
-0.981179
-0.981367
-0.979056
-0.973082
-0.963308
-0.950356
-0.934053
-0.910576
-0.911983
-0.913389
-0.914673
-0.915302
-0.914186
-0.910686
-0.90451
-0.8956
-0.883049
-0.847463
-0.848986
-0.849799
-0.851303
-0.852241
-0.851922
-0.850182
-0.846989
-0.841902
-0.833391
-0.783688
-0.788248
-0.789517
-0.790761
-0.791621
-0.791679
-0.790925
-0.789551
-0.787354
-0.782818
-0.923526
-0.660723
-0.600692
-0.618127
-0.623989
-0.563065
-0.43941
-0.296596
-0.163243
-0.0444478
-0.896984
-0.644252
-0.603353
-0.631052
-0.637026
-0.564969
-0.438327
-0.293497
-0.159644
-0.0429419
-0.871646
-0.638034
-0.614285
-0.650363
-0.653943
-0.572624
-0.439207
-0.290904
-0.155869
-0.0410825
-0.850184
-0.644325
-0.634395
-0.677029
-0.676039
-0.58578
-0.44249
-0.289047
-0.152005
-0.0390008
-0.83136
-0.662306
-0.662956
-0.711624
-0.704575
-0.604472
-0.448378
-0.288005
-0.148021
-0.0367106
-0.812322
-0.688919
-0.699251
-0.755122
-0.741183
-0.629606
-0.457298
-0.2879
-0.143873
-0.0341575
-0.790868
-0.721108
-0.743114
-0.808921
-0.787794
-0.662767
-0.469927
-0.288916
-0.139518
-0.0312274
-0.771848
-0.755641
-0.794325
-0.874728
-0.846929
-0.706196
-0.487229
-0.291292
-0.134915
-0.027745
-0.753234
-0.789443
-0.85322
-0.95405
-0.922327
-0.761666
-0.510287
-0.295228
-0.130013
-0.0234878
-0.733464
-0.81909
-0.918409
-1.04912
-1.01659
-0.830701
-0.539767
-0.300635
-0.124686
-0.0182209
-0.898769
-0.714817
-0.637669
-0.61694
-0.603073
-0.528455
-0.417674
-0.28714
-0.155956
-0.038705
-0.882904
-0.706617
-0.632981
-0.616604
-0.603381
-0.530365
-0.41863
-0.287177
-0.161502
-0.0426838
-0.881817
-0.697538
-0.625309
-0.614778
-0.606095
-0.535802
-0.422222
-0.287546
-0.161797
-0.0432785
-0.888666
-0.686041
-0.615971
-0.612503
-0.609377
-0.543195
-0.427696
-0.291783
-0.163442
-0.0443822
-0.912865
-0.669283
-0.600969
-0.60951
-0.61234
-0.546948
-0.435252
-0.296129
-0.164749
-0.0451337
-0.918947
-1.03249
-1.09791
-1.12696
-1.12206
-1.104
-1.06922
-1.03769
-1.00035
-0.967725
-0.916041
-1.02941
-1.09225
-1.11724
-1.10859
-1.08566
-1.04962
-1.01324
-0.978739
-0.939465
-0.919041
-1.03293
-1.09525
-1.11904
-1.11122
-1.08727
-1.05718
-1.02032
-0.994566
-0.960218
-0.926355
-1.04197
-1.10552
-1.1301
-1.12571
-1.10451
-1.08237
-1.05009
-1.03262
-1.00483
-0.938551
-1.05667
-1.1229
-1.15026
-1.15142
-1.13698
-1.12321
-1.10103
-1.08963
-1.06822
1.31401
1.29968
1.27812
1.25329
1.22622
1.19567
1.16105
1.12485
1.09294
1.07927
1.42473
1.42035
1.40988
1.39574
1.37886
1.35845
1.33413
1.30799
1.28528
1.27816
1.53317
1.53385
1.53013
1.5236
1.51486
1.5033
1.4885
1.47181
1.4575
1.45679
1.63206
1.6368
1.63888
1.63909
1.6376
1.63376
1.62701
1.61807
1.61057
1.61578
1.7194
1.72766
1.7344
1.73988
1.74401
1.74621
1.74584
1.74313
1.74103
1.75118
1.79189
1.80294
1.81351
1.82339
1.83223
1.83949
1.84446
1.84673
1.84866
1.86264
1.84808
1.86134
1.87494
1.88826
1.90075
1.91187
1.92081
1.92659
1.93093
1.9469
1.88621
1.901
1.91676
1.93257
1.94772
1.96171
1.97368
1.98221
1.98818
2.0031
1.90492
1.9204
1.93722
1.95425
1.97072
1.98617
1.99986
2.01022
2.01699
2.02851
1.90325
1.91844
1.9349
1.95145
1.96727
1.98186
1.99449
2.00386
2.01069
2.02666
-0.791064
-0.83475
-0.890052
-0.957185
-1.03709
-1.13006
-1.23471
-1.34487
-1.44409
-1.51412
-0.574173
-0.620589
-0.677426
-0.745396
-0.825846
-0.919738
-1.02469
-1.13762
-1.23894
-1.3119
-0.322815
-0.373011
-0.43242
-0.501933
-0.582829
-0.676203
-0.780949
-0.891383
-0.993306
-1.06768
-0.0554168
-0.109263
-0.171138
-0.241682
-0.322115
-0.413681
-0.515557
-0.621729
-0.720014
-0.791741
0.20706
0.151404
0.0890135
0.0195388
-0.0581737
-0.14547
-0.241909
-0.341855
-0.434295
-0.498903
0.44841
0.394497
0.33504
0.269801
0.197668
0.11725
0.0287964
-0.0624829
-0.146506
-0.20225
0.663312
0.614684
0.561507
0.503448
0.439405
0.368008
0.289402
0.208424
0.134356
0.0880151
0.857264
0.815602
0.770266
0.720729
0.665788
0.604119
0.535902
0.465696
0.40205
0.364801
1.03993
1.00446
0.965274
0.922809
0.875954
0.823355
0.765176
0.70555
0.652169
0.623423
1.20591
1.17591
1.14044
1.10336
1.06407
1.02085
0.973427
0.924997
0.882149
0.861306
1.80937
1.74696
1.72516
1.69903
1.6756
1.66541
1.64979
1.63526
1.57213
1.46408
1.79583
1.74368
1.72551
1.70251
1.67834
1.67183
1.65976
1.64945
1.60779
1.54252
1.78397
1.73981
1.72558
1.69975
1.67866
1.67638
1.6687
1.66571
1.64335
1.61778
1.77362
1.73582
1.72456
1.69884
1.6797
1.6798
1.67631
1.68023
1.6745
1.68188
1.76463
1.73183
1.72262
1.70004
1.6823
1.68249
1.68228
1.69221
1.70046
1.73494
1.75677
1.72794
1.72044
1.7001
1.68444
1.68432
1.68658
1.70141
1.72123
1.77686
1.74978
1.72423
1.7182
1.69925
1.68526
1.68514
1.6892
1.70761
1.73646
1.80772
1.74328
1.7208
1.71585
1.69801
1.68499
1.68494
1.69014
1.71067
1.74579
1.82749
1.73706
1.71791
1.71337
1.69649
1.68403
1.68372
1.68941
1.71062
1.74904
1.83603
1.73121
1.71588
1.71081
1.69465
1.68267
1.68152
1.68709
1.7075
1.74624
1.83323
1.92633
1.75946
1.71966
1.67855
1.65291
1.63651
1.61078
1.57998
1.47676
1.37568
1.88797
1.76205
1.72715
1.68568
1.65689
1.6385
1.61098
1.58004
1.4759
1.35809
1.86653
1.75943
1.72754
1.68804
1.65994
1.64209
1.61529
1.5855
1.48613
1.35796
1.84443
1.75396
1.72742
1.69098
1.6649
1.64838
1.62339
1.59611
1.50282
1.36767
1.8252
1.75005
1.72643
1.69408
1.67014
1.65622
1.63486
1.61134
1.52667
1.38801
1.10517
0.988892
0.842896
0.65998
0.442199
0.196408
-0.063724
-0.319877
-0.555762
-0.758485
1.09083
0.976609
0.833339
0.65528
0.444315
0.204641
-0.0529657
-0.310413
-0.549542
-0.755058
1.1041
0.988029
0.84173
0.66328
0.454138
0.215797
-0.0426199
-0.303084
-0.546146
-0.7553
1.13268
1.00632
0.852152
0.672132
0.463826
0.225558
-0.0346154
-0.298736
-0.546293
-0.759599
1.18315
1.03559
0.865581
0.679983
0.470397
0.231559
-0.0303144
-0.298008
-0.550301
-0.768239
)
;

boundaryField
{
    left
    {
        type            zeroGradient;
    }
    right
    {
        type            fixedValue;
        value           uniform 0;
    }
    down
    {
        type            zeroGradient;
    }
    up
    {
        type            zeroGradient;
    }
    cylinder
    {
        type            zeroGradient;
    }
    defaultFaces
    {
        type            empty;
    }
}


// ************************************************************************* //
