/*--------------------------------*- C++ -*----------------------------------*\
| =========                 |                                                 |
| \\      /  F ield         | OpenFOAM: The Open Source CFD Toolbox           |
|  \\    /   O peration     | Version:  2406                                  |
|   \\  /    A nd           | Website:  www.openfoam.com                      |
|    \\/     M anipulation  |                                                 |
\*---------------------------------------------------------------------------*/
FoamFile
{
    version     2.0;
    format      ascii;
    arch        "LSB;label=32;scalar=64";
    class       surfaceScalarField;
    location    "1.95";
    object      phi;
}
// * * * * * * * * * * * * * * * * * * * * * * * * * * * * * * * * * * * * * //

dimensions      [0 3 -1 0 0 0 0];

oriented        oriented;

internalField   nonuniform List<scalar> 
3485
(
-0.00155482
0.00305725
-0.00150243
-0.00318758
0.00432943
-0.00269667
-0.00431033
0.00434912
-0.00322637
-0.00468903
0.00382842
-0.00344971
-0.00356464
0.00237928
-0.00350368
0.000953276
-0.00104976
-0.00346815
0.0104597
-0.00691062
-0.00259586
0.02564
-0.0148469
-0.000333357
0.0472141
-0.0244636
0.00288945
-0.0306504
0.00704116
0.0708233
-0.000711752
0.003769
-0.000903028
0.0045207
-0.000703601
0.0041497
0.00123199
0.00189282
0.00703224
-0.00342097
0.0184587
-0.0124763
0.0362749
-0.0247268
0.0605862
-0.0391582
0.0911408
-0.0550182
-0.0657529
0.126243
0.000634525
0.00313448
0.00136202
0.0037932
0.00365577
0.00185595
0.0103184
-0.00476979
0.023494
-0.0165965
0.0437378
-0.0327201
0.07042
-0.051409
0.101997
-0.0707352
0.136545
-0.0895658
-0.103672
0.174463
0.00141058
0.0017239
0.00371916
0.00148462
0.0101741
-0.00459895
0.0236669
-0.0182626
0.0452712
-0.0382009
0.0739594
-0.0614083
0.107226
-0.0846753
0.142103
-0.105612
0.175598
-0.123061
-0.135902
0.207828
0.00102277
0.00070113
0.00561893
-0.00311155
0.017861
-0.016841
0.0394737
-0.0398753
0.0689746
-0.0677018
0.102578
-0.0950121
0.136133
-0.118229
0.1665
-0.135979
0.191891
-0.148453
-0.156382
0.212372
0.0012206
-0.000519471
0.00967287
-0.0115638
0.0288446
-0.0360127
0.0574406
-0.0684714
0.0901746
-0.100436
0.121474
-0.126312
0.147805
-0.144561
0.167991
-0.156165
0.182565
-0.163027
-0.1669
0.193082
0.00267066
-0.00319014
0.0162432
-0.0251364
0.0413561
-0.0611255
0.0719408
-0.0990561
0.100715
-0.12921
0.123648
-0.149245
0.140202
-0.161115
0.151819
-0.167782
0.160308
-0.171515
-0.173666
0.167075
0.00490421
-0.00809434
0.0231833
-0.0434155
0.0502788
-0.088221
0.0768437
-0.125621
0.097535
-0.149901
0.111822
-0.163531
0.121457
-0.170751
0.128309
-0.174635
0.133658
-0.176864
-0.178175
0.138167
0.00714264
-0.015237
0.0279565
-0.0642293
0.0523701
-0.112635
0.0721321
-0.145383
0.0855526
-0.163321
0.0942301
-0.172209
0.100091
-0.176611
0.104486
-0.17903
0.108089
-0.180467
-0.18101
0.110924
0.00897783
-0.0242148
0.0292236
-0.084475
0.048411
-0.131822
0.0617835
-0.158756
0.0699476
-0.171485
0.0748649
-0.177126
0.0783065
-0.180053
0.080978
-0.181701
0.0825617
-0.18205
0.0829433
-0.181392
-0.000238247
0.000200951
3.72961e-05
-0.00138526
0.00582946
-0.00468245
-0.00300188
0.0133246
-0.011708
-0.00475644
0.0196623
-0.0179077
-0.00638968
0.0244021
-0.0227688
-0.00773835
0.0279286
-0.02658
-0.00873448
0.0306504
-0.0296542
-0.00937895
0.0328571
-0.0322126
-0.00971389
0.0347472
-0.0344122
0.036465
-0.0097878
-0.0363911
-9.01759e-07
0.000201853
-8.33061e-05
0.00591187
-0.000495155
0.0137365
-0.00120555
0.0203727
-0.00201748
0.025214
-0.00274822
0.0286594
-0.00327938
0.0311815
-0.00354609
0.0331238
-0.00351998
0.034721
0.036146
-0.00320096
0.000189122
1.27315e-05
0.00125158
0.00484941
0.0022926
0.0126955
0.00295203
0.0197133
0.00330771
0.0248583
0.00355349
0.0284136
0.00385769
0.0308773
0.00433928
0.0326422
0.00508103
0.0339793
0.0350916
0.00613547
0.000266781
-0.00025405
0.00224027
0.00287593
0.00485908
0.0100767
0.00723086
0.0173415
0.00916157
0.0229276
0.0107907
0.0267844
0.0123295
0.0293386
0.0139641
0.0310076
0.0158488
0.0320946
0.0327965
0.0181438
0.000370252
-0.000624302
0.00252163
0.000724552
0.00634665
0.00625163
0.0105128
0.0131753
0.0143398
0.0191006
0.017736
0.0233883
0.020868
0.0262066
0.0239678
0.0279079
0.0272741
0.0287883
0.0289842
0.0310865
0.000440623
-0.00106492
0.00199792
-0.000832745
0.00592676
0.00232279
0.0112187
0.00788336
0.0167509
0.0135684
0.0220243
0.0181149
0.0269739
0.021257
0.0317478
0.0231339
0.0366083
0.0239277
0.023596
0.0419965
0.000546201
-0.00161113
0.00125298
-0.00153952
0.00370173
-0.000125956
0.00836983
0.00321525
0.014366
0.0075722
0.0207063
0.0117746
0.0269759
0.0149874
0.0331274
0.0169824
0.0393475
0.0177076
0.016805
0.0461386
-0.000377201
-0.00123393
-0.000575282
-0.00134144
-0.000135208
-0.000566029
0.00204534
0.0010347
0.00616861
0.00344893
0.0116097
0.0063335
0.0176512
0.00894587
0.0240359
0.0105977
0.03085
0.0108936
0.00921012
0.0384448
-0.00111596
-0.000117967
-0.00251357
5.61674e-05
-0.0038756
0.000796008
-0.00465008
0.00180918
-0.00400756
0.00280641
-0.00157561
0.00390155
0.00236006
0.0050102
0.00743201
0.00552579
0.0136173
0.00470833
0.00196017
0.0208672
-0.00162039
-0.0042609
-0.00669126
-0.00833179
-0.00902906
-0.00859566
-0.00618132
-0.000988888
0.0066089
0.0156102
-0.000526252
0.400681
-0.409942
-0.00493543
0.47074
-0.466331
-0.0253326
0.388815
-0.368418
-0.039894
0.240399
-0.225837
-0.0249576
-0.000308853
-0.0146276
0.0114717
-0.209649
0.17322
0.0543581
-0.333083
0.290196
0.089672
-0.335145
0.299831
0.119782
-0.319788
0.289678
-0.188784
0.172151
0.00743216
0.390048
6.82201e-05
0.478104
-0.0230407
0.411924
-0.0353852
0.252743
-0.0172325
-0.0184616
0.0228884
-0.24977
0.0678301
-0.378024
0.102221
-0.369536
0.13035
-0.347917
-0.204702
0.0197566
0.376426
0.0121564
0.485704
-0.0102357
0.434316
-0.0201491
0.262657
0.000520689
-0.0391314
0.0434049
-0.292654
0.0901655
-0.424785
0.122895
-0.402265
0.146653
-0.371676
-0.218142
0.0373849
0.357185
0.0327692
0.49032
0.0122347
0.454851
0.00411377
0.270778
0.0251544
-0.060172
0.0706038
-0.338104
0.119055
-0.473236
0.151374
-0.434584
0.169853
-0.390155
-0.227514
0.0598391
0.328433
0.0597535
0.490405
0.0428097
0.471794
0.0363744
0.277213
0.0580463
-0.0818439
0.102947
-0.383004
0.151017
-0.521306
0.18434
-0.467907
0.199048
-0.404864
-0.232547
0.0845795
0.28585
0.0921364
0.482848
0.0802678
0.483663
0.0765967
0.280884
0.0991919
-0.104439
0.142148
-0.42596
0.18583
-0.564988
0.218359
-0.500436
0.231324
-0.417828
-0.234545
0.108115
0.223873
0.128281
0.462683
0.122652
0.489292
0.121242
0.282294
0.145223
-0.12842
0.186757
-0.467493
0.224605
-0.602837
0.252642
-0.528474
0.263737
-0.428923
-0.235052
0.124015
0.138303
0.162344
0.424353
0.165469
0.486167
0.165736
0.282028
0.18917
-0.151855
0.229491
-0.507815
0.264181
-0.637526
0.287044
-0.551337
0.294716
-0.436595
-0.234585
0.128746
0.030424
0.195399
0.357701
0.207528
0.474038
0.206998
0.282559
0.228288
-0.173146
0.266305
-0.545831
0.299689
-0.67091
0.319619
-0.571267
0.323313
-0.440289
-0.232979
0.115945
-0.0699111
0.209842
0.263805
0.237428
0.446451
0.242545
0.277441
0.263534
-0.194134
0.298957
-0.581254
0.33052
-0.702473
0.348422
-0.589169
0.348523
-0.440391
-0.230228
0.260902
-0.0605255
-0.270287
0.352793
0.171914
0.417899
0.381345
0.51074
0.1846
0.61284
-0.296234
0.670231
-0.638645
0.672867
-0.705109
0.645021
-0.561323
0.598125
-0.393496
-0.198137
0.456956
-0.00110992
-0.516371
0.470925
0.157944
0.544083
0.308187
0.661819
0.0668644
0.760632
-0.395048
0.791145
-0.669157
0.758201
-0.672166
0.700168
-0.503289
0.633837
-0.327165
-0.156959
0.608822
0.0273237
-0.637255
0.611814
0.154952
0.690331
0.22967
0.796992
-0.0397964
0.862238
-0.460293
0.866002
-0.672922
0.811665
-0.617828
0.732225
-0.42385
0.649394
-0.244333
-0.108681
0.689784
0.0299696
-0.69243
0.724782
0.119955
0.809883
0.144568
0.893555
-0.123468
0.93287
-0.499609
0.914174
-0.654226
0.840063
-0.543717
0.744921
-0.328708
0.649511
-0.148924
-0.0545628
0.740378
0.0171039
-0.727512
0.794853
0.0654794
0.877622
0.0617991
0.945825
-0.19167
0.966302
-0.520085
0.917779
-0.605703
0.815184
-0.441122
0.708874
-0.222398
0.617441
-0.0574905
-0.00476301
0.777779
-0.00507322
-0.755602
0.830366
0.0128919
0.902898
-0.0107327
0.965186
-0.253958
0.957445
-0.512344
0.86528
-0.513538
0.738122
-0.313964
0.62811
-0.112386
0.550252
0.0203679
0.0324629
0.793469
-0.0269401
-0.771602
0.834783
-0.028422
0.904675
-0.0806254
0.94124
-0.290523
0.865586
-0.43669
0.715644
-0.363596
0.579681
-0.178001
0.491093
-0.0237978
0.446926
0.0645345
0.0483081
0.77587
-0.0387081
-0.764102
0.80996
-0.0625124
0.862185
-0.13285
0.814738
-0.243076
0.640502
-0.262454
0.453131
-0.176226
0.342323
-0.0671934
0.303857
0.0146691
0.308377
0.0600144
0.0389206
0.678013
-0.0338058
-0.682915
0.691694
-0.0761934
0.654757
-0.0959126
0.48746
-0.0757792
0.280185
-0.0551785
0.148862
-0.0449031
0.105277
-0.0236083
0.11436
0.00558634
0.150461
0.0239132
0.0156696
0.343735
-0.377541
0.267541
0.171629
0.0958494
0.0406709
-0.00423211
-0.0278404
-0.0222541
0.0016591
0.503863
0.0723168
-0.493237
0.514831
0.0999569
0.525495
0.127502
0.536438
0.156131
0.548623
0.180897
0.553985
0.20701
0.536474
0.225339
0.484483
0.226454
0.377516
0.233211
0.178052
0.502303
0.0621109
-0.492097
0.514698
0.0875615
0.528969
0.113232
0.54485
0.140251
0.560124
0.165623
0.578718
0.188416
0.588042
0.216015
0.589472
0.225024
0.570176
0.252507
0.231856
0.509549
0.053054
-0.500492
0.521008
0.076103
0.53446
0.0997798
0.551288
0.123422
0.568342
0.148569
0.588291
0.168467
0.608515
0.19579
0.625814
0.207725
0.642778
0.235543
0.237379
0.519772
0.0446819
-0.5114
0.531
0.0648751
0.544355
0.0864244
0.561021
0.106756
0.579973
0.129617
0.60055
0.14789
0.625079
0.171262
0.647076
0.185728
0.674485
0.208134
0.219434
0.527334
0.036171
-0.518823
0.538979
0.0532297
0.553572
0.071832
0.571108
0.0892191
0.592123
0.108603
0.614771
0.125242
0.641759
0.144274
0.667972
0.159515
0.699187
0.176918
0.191109
0.529149
0.027259
-0.520237
0.541386
0.0409927
0.557353
0.0558645
0.576369
0.0702037
0.599416
0.0855559
0.624773
0.0998844
0.65429
0.114757
0.68517
0.128635
0.720141
0.141948
0.155648
0.522276
0.0181737
-0.51319
0.534944
0.0283245
0.551836
0.0389723
0.572168
0.0498713
0.596951
0.0607728
0.624759
0.0720771
0.657004
0.0825118
0.691746
0.0938928
0.730615
0.103079
0.114662
0.498391
0.00938424
-0.489601
0.511115
0.0155997
0.528197
0.021891
0.549191
0.0288773
0.574846
0.0351176
0.604265
0.0426585
0.638394
0.0483824
0.676114
0.0561731
0.718324
0.0608689
0.0688835
0.432325
0.00201982
-0.424961
0.44342
0.00450562
0.458589
0.00672125
0.477903
0.0095638
0.501441
0.011579
0.529251
0.0148486
0.561248
0.0163861
0.597553
0.0198682
0.637796
0.0206253
0.0237644
0.249678
-0.247658
0.254184
0.260905
0.270469
0.282048
0.296896
0.313283
0.333151
0.353776
0.0697464
0.130066
-0.119746
-0.0800661
0.0600394
0.132197
-0.12249
0.0509509
0.134455
-0.125366
0.0421165
0.137376
-0.128542
0.0333005
0.140612
-0.131796
0.0245205
0.143429
-0.134649
0.0160599
0.144067
-0.135607
0.00831755
0.139526
-0.131784
0.00224192
0.12165
-0.115574
0.0656702
-0.0634282
0.0664256
0.139396
-0.075755
0.057084
0.141539
0.047897
0.143642
0.038972
0.146301
0.0302417
0.149342
0.0217549
0.151916
0.0138086
0.152013
0.0067522
0.146582
0.00155946
0.126843
0.0672296
0.0590138
0.147856
-0.0674741
0.0503341
0.150218
0.041669
0.152307
0.0332009
0.154769
0.0250079
0.157535
0.0172412
0.159683
0.0101939
0.159061
0.00418369
0.152593
0.000262924
0.130763
0.0674925
0.0490267
0.155349
-0.0565198
0.0413861
0.157859
0.0337059
0.159987
0.0261461
0.162329
0.0188287
0.164852
0.0120006
0.166511
0.00607653
0.164985
0.00121674
0.157452
-0.000957936
0.132938
0.0665346
0.0359066
0.162121
-0.0426784
0.0291555
0.16461
0.0224197
0.166723
0.0158298
0.168919
0.00962569
0.171057
0.00417571
0.171961
-0.000169073
0.16933
-0.00299973
0.160283
-0.00286364
0.132802
0.063671
0.0220183
0.167954
-0.0278516
0.0163075
0.170321
0.0106678
0.172363
0.0051997
0.174387
0.000156159
0.1761
-0.00378278
0.1759
-0.00638386
0.171931
-0.0073373
0.161237
-0.00471695
0.130182
0.058954
0.00534553
0.172999
-0.0103904
0.000592513
0.175074
-0.00391074
0.176866
-0.00806454
0.178541
-0.0114406
0.179476
-0.0133032
0.177762
-0.0141511
0.172778
-0.0124561
0.159542
-0.00668866
0.124414
0.0522654
-0.0132484
0.177032
0.00921554
-0.0168656
0.178691
-0.0202056
0.180206
-0.0230403
0.181376
-0.0243276
0.180764
-0.0242207
0.177656
-0.0228499
0.171408
-0.0178737
0.154565
-0.00848109
0.115021
0.0437843
-0.0342
0.179813
0.0314186
-0.0366976
0.181189
-0.0386463
0.182154
-0.0391567
0.181886
-0.0381036
0.17971
-0.0362648
0.175817
-0.0319212
0.167064
-0.0229372
0.145581
-0.00966243
0.101747
0.0341218
-0.057587
0.0560081
-0.0584488
-0.0579955
-0.0561625
-0.053578
-0.0492466
-0.040938
-0.0271788
-0.00990703
0.104042
0.0299004
-0.115418
-0.0185244
0.0924282
0.0303756
-0.0187618
0.0805685
0.0309322
-0.0190725
0.0684453
0.0315776
-0.0194544
0.0560468
0.0323
-0.0199014
0.0433846
0.0329938
-0.0203316
0.0305634
0.0332556
-0.0204345
0.0179694
0.0320087
-0.0194147
0.00671636
0.0271338
-0.0158808
0.0146235
-0.00790712
0.104055
0.0412721
-0.115427
0.0924814
0.0419491
0.080671
0.0427426
0.0686103
0.0436383
0.0562863
0.0446239
0.0437039
0.0455762
0.0309467
0.0460128
0.0183378
0.0446177
0.00690167
0.03857
0.0215251
0.10337
0.0525497
-0.114647
0.0918732
0.0534455
0.0801455
0.0544703
0.0681733
0.0556104
0.0559441
0.0568531
0.0434585
0.0580618
0.0307952
0.0586761
0.0182615
0.0571514
0.0068555
0.049976
0.0283806
0.101519
0.0637427
-0.112712
0.0901621
0.0648026
0.0785727
0.0660597
0.066739
0.0674442
0.0546542
0.0689379
0.0423361
0.0703799
0.0298863
0.0711258
0.0176216
0.0694161
0.00652545
0.0610721
0.0349061
0.0990696
0.0746666
-0.109994
0.0879662
0.0759061
0.0766593
0.0773667
0.0651201
0.0789833
0.0533221
0.0807359
0.041271
0.082431
0.0290815
0.0833154
0.0170874
0.0814102
0.00626046
0.071899
0.0411666
0.0950331
0.085392
-0.105758
0.0842208
0.0867183
0.0732123
0.0883752
0.062005
0.0901906
0.0505919
0.092149
0.0389864
0.0940364
0.027308
0.0949938
0.0158907
0.0928275
0.00567635
0.0821134
0.0468429
0.0906281
0.0955537
-0.10079
0.0804029
0.0969435
0.0699861
0.098792
0.0593046
0.100872
0.0483323
0.103121
0.0371183
0.10525
0.0258495
0.106263
0.0149072
0.10377
0.00525046
0.0917702
0.0520934
0.0836602
0.10528
-0.0933868
0.0739665
0.106637
0.0641855
0.108573
0.054267
0.110791
0.0441353
0.113253
0.0337758
0.11561
0.0233565
0.116682
0.0132716
0.113855
0.00449435
0.100547
0.0565877
0.0781421
0.113578
-0.0864396
0.0695532
0.115226
0.0604256
0.117701
0.0508722
0.120344
0.0410278
0.123097
0.0310263
0.125611
0.0211225
0.126586
0.0117211
0.123256
0.00376254
0.108506
0.0603502
0.0685582
-0.0747269
0.0612942
0.0536288
0.045431
0.0367325
0.0276946
0.0186739
0.0101462
0.003078
0.200635
0.00233585
-0.00498063
0.205633
-0.0104078
0.00540924
0.212601
0.00665242
-0.0136206
0.2156
0.0695992
-0.0725983
0.213946
0.123023
-0.121368
0.208967
0.161603
-0.156623
0.199908
0.169418
-0.160359
0.186529
0.174585
-0.161206
0.162327
0.186794
-0.162592
0.204058
-0.157149
0.200575
-0.000249372
0.205497
-0.0153302
0.211798
0.000352189
0.213741
0.0676555
0.211175
0.12559
0.205495
0.167282
0.196714
0.178199
0.183595
0.187704
0.160797
0.209592
0.249429
0.200375
-0.00263419
0.205155
-0.0201108
0.210739
-0.00523139
0.211487
0.0669077
0.207861
0.129215
0.201121
0.174022
0.192487
0.186833
0.179244
0.200947
0.158035
0.230801
0.292817
0.200019
-0.00466326
0.204587
-0.0246791
0.209409
-0.0100528
0.208812
0.0675047
0.203961
0.134066
0.195907
0.182076
0.187332
0.195409
0.173557
0.214722
0.154212
0.250145
0.334317
0.199526
-0.0061997
0.203795
-0.0289475
0.207797
-0.0140557
0.205694
0.0696079
0.199436
0.140324
0.189931
0.191581
0.181345
0.203995
0.16665
0.229417
0.149409
0.267386
0.373732
0.198907
-0.0071165
0.202765
-0.032806
0.205877
-0.0171673
0.202106
0.0733783
0.194283
0.148147
0.183296
0.202568
0.174597
0.212695
0.158799
0.245215
0.14379
0.282395
0.411763
0.198163
-0.00729004
0.201461
-0.0361035
0.203585
-0.0192918
0.198017
0.0789469
0.18853
0.157633
0.176125
0.214973
0.167124
0.221696
0.150197
0.262143
0.137306
0.295286
0.448279
0.197298
-0.00659803
0.199822
-0.0386279
0.200843
-0.0203127
0.19342
0.0863696
0.182242
0.168812
0.168538
0.228677
0.15897
0.231264
0.141169
0.279943
0.13042
0.306035
0.485312
0.196313
-0.00492165
0.197763
-0.0400772
0.197577
-0.0201267
0.188349
0.0955979
0.175513
0.181647
0.160628
0.243562
0.150236
0.241656
0.132276
0.297902
0.123038
0.315274
0.52191
0.195262
-0.00219405
0.195219
-0.0400345
0.19388
-0.0187872
0.182801
0.106677
0.168459
0.195989
0.1524
0.259622
0.141189
0.252867
0.122684
0.316407
0.11581
0.322148
0.562993
0.303145
-0.00332844
0.306002
-0.0428922
0.317061
-0.0298461
0.320924
0.102814
0.323225
0.193689
0.315563
0.267284
0.32106
0.24737
0.316063
0.321405
0.357739
0.280471
0.499074
0.421659
0.303062
-0.00437997
0.304126
-0.0439568
0.315362
-0.0410815
0.323103
0.0950726
0.331322
0.18547
0.328506
0.270099
0.339886
0.23599
0.344245
0.317046
0.372661
0.252055
0.436917
0.434819
0.303162
-0.0055321
0.30355
-0.044344
0.31144
-0.0489721
0.327195
0.0793177
0.342306
0.170359
0.351702
0.260703
0.370859
0.216833
0.388323
0.299582
0.408483
0.231894
0.381734
0.463666
0.303729
-0.00725091
0.304456
-0.0450714
0.305539
-0.0500549
0.333449
0.0514076
0.355114
0.148694
0.378645
0.237172
0.40918
0.186298
0.434492
0.27427
0.456458
0.209929
0.332125
0.506067
0.304969
-0.01021
0.306112
-0.0462143
0.302274
-0.0462168
0.338102
0.0155799
0.365078
0.121718
0.399466
0.202785
0.439362
0.146402
0.470897
0.242735
0.498473
0.182353
0.280542
0.550055
0.306937
-0.0151368
0.308665
-0.047942
0.305558
-0.0431098
0.340393
-0.0192555
0.370979
0.0911322
0.414208
0.159555
0.456711
0.103899
0.494436
0.205009
0.527167
0.149623
0.226679
0.58103
0.309406
-0.0225324
0.311078
-0.049614
0.311953
-0.0439847
0.337019
-0.0443222
0.369235
0.0589168
0.417884
0.110906
0.457297
0.0644865
0.501968
0.160338
0.537978
0.113613
0.171451
0.593206
0.310726
-0.0312478
0.311326
-0.0502146
0.314621
-0.047279
0.320723
-0.0504251
0.351205
0.0284348
0.401895
0.0602164
0.432545
0.0338363
0.484425
0.108458
0.523742
0.0742952
0.112337
0.582857
0.307785
-0.0370222
0.30058
-0.04301
0.295921
-0.0426203
0.279007
-0.0335107
0.300934
0.00650769
0.340588
0.0205626
0.359055
0.0153691
0.417732
0.049781
0.459397
0.0326311
0.0489279
0.522805
0.264988
0.221978
0.179358
0.145847
0.152355
0.172917
0.188286
0.238067
0.270698
0.319626
0.433079
-0.0914866
0.438022
-0.080698
0.442709
-0.0721613
0.447934
-0.0617445
0.454374
-0.049118
0.460967
-0.0344452
0.468041
-0.017464
0.475907
0.00134927
0.484095
0.0232305
0.0468663
0.438543
-0.0952106
0.443148
-0.0853034
0.447436
-0.0764493
0.452037
-0.0663454
0.457339
-0.0544201
0.463017
-0.0401228
0.469269
-0.0237167
0.475873
-0.00525441
0.483461
0.0156426
0.0382301
0.464462
-0.0960062
0.46719
-0.0880318
0.470211
-0.0794705
0.473138
-0.0692716
0.476094
-0.0573766
0.479348
-0.0433772
0.4831
-0.0274677
0.487471
-0.00962552
0.493204
0.00990947
0.0309415
0.50391
-0.0938493
0.502408
-0.0865296
0.501104
-0.0781666
0.49988
-0.068048
0.498776
-0.056272
0.498418
-0.0430197
0.499012
-0.0280617
0.501203
-0.0118161
0.50514
0.00597195
0.024682
0.542133
-0.0859269
0.534474
-0.0788714
0.527273
-0.0709651
0.520925
-0.0616998
0.515569
-0.0509162
0.511796
-0.0392472
0.509816
-0.0260818
0.510237
-0.0122365
0.513081
0.00312805
0.0189398
0.567005
-0.0719023
0.553754
-0.0656195
0.541711
-0.0589227
0.531378
-0.0513662
0.522974
-0.0425128
0.516891
-0.0331635
0.513287
-0.0224782
0.51251
-0.0114593
0.514765
0.000872793
0.0134681
0.57481
-0.0535069
0.558016
-0.048825
0.54304
-0.0439467
0.530292
-0.0386185
0.520001
-0.0322214
0.512449
-0.0256121
0.507782
-0.0178104
0.506265
-0.00994303
0.507887
-0.000749216
0.00816513
0.561562
-0.0322118
0.542764
-0.0300275
0.526088
-0.0272703
0.511806
-0.0243365
0.500252
-0.0206674
0.491496
-0.0168562
0.485833
-0.0121477
0.483423
-0.00753231
0.484806
-0.00213244
0.00336986
0.502474
-0.0118804
0.48369
-0.0112432
0.467032
-0.0106121
0.452544
-0.00984911
0.440612
-0.00873565
0.43122
-0.00746427
0.424897
-0.00582454
0.421524
-0.00415949
0.421532
-0.00213967
-5.94475e-05
0.307746
0.296503
0.285891
0.276041
0.267306
0.259842
0.254017
0.249858
0.247718
0.00808072
0.0570141
-0.0650948
0.0149977
0.130419
-0.137336
0.0175318
0.164315
-0.166849
0.0177718
0.176479
-0.176719
0.0173187
0.180737
-0.180284
0.0153506
0.182256
-0.180288
0.0125877
0.180579
-0.177816
0.00973312
0.176714
-0.17386
0.00714108
0.170348
-0.167756
0.158936
0.00528973
-0.157084
0.00993821
0.0470759
0.021031
0.119326
0.0276675
0.157678
0.0307908
0.173356
0.0326072
0.17892
0.0333558
0.181507
0.0328506
0.181084
0.0317411
0.177824
0.0304202
0.171669
0.160519
0.028837
0.0107331
0.0363428
0.0256774
0.104382
0.0365263
0.146829
0.0429961
0.166886
0.0470322
0.174884
0.050247
0.178292
0.0522752
0.179056
0.0531343
0.176965
0.053062
0.171741
0.161901
0.0516796
0.0102665
0.0260763
0.0282426
0.0864057
0.0434098
0.131662
0.0536558
0.15664
0.0604809
0.168059
0.0657484
0.173025
0.069916
0.174888
0.0727108
0.17417
0.0739837
0.170468
0.162668
0.0732173
0.00881561
0.0172607
0.0282336
0.0669877
0.0473544
0.112541
0.0617599
0.142234
0.0718398
0.157979
0.0794126
0.165452
0.0855906
0.16871
0.0904213
0.169339
0.093514
0.167375
0.162037
0.0941445
0.00690899
0.0103517
0.0256555
0.0482412
0.0475389
0.0906577
0.0660887
0.123685
0.0798643
0.144203
0.0900679
0.155248
0.0981439
0.160634
0.104702
0.162782
0.109526
0.162551
0.159793
0.11177
0.00501787
0.00533386
0.02126
0.0319991
0.0437902
0.0681275
0.0657156
0.101759
0.0835712
0.126348
0.097181
0.141639
0.10774
0.150075
0.116334
0.154187
0.123303
0.155583
0.154774
0.128322
0.00332629
0.00200757
0.0161142
0.0192112
0.0368004
0.0474413
0.0600847
0.0784748
0.081372
0.105061
0.0987443
0.124266
0.112341
0.136479
0.123107
0.143421
0.131794
0.146896
0.148211
0.138357
0.00182309
0.000184481
0.0111709
0.00986337
0.0282652
0.030347
0.0503206
0.0564194
0.0731857
0.0821955
0.0938462
0.103606
0.111147
0.119179
0.125277
0.129291
0.137068
0.135104
0.137678
0.147601
0.000956834
-0.000772352
0.00722889
0.00359131
0.0200656
0.0175103
0.0386655
0.0378195
0.0603593
0.0605017
0.0821138
0.0818513
0.101807
0.0994851
0.118515
0.112583
0.132224
0.121396
0.126214
0.143688
0.000771666
-0.00154402
0.00447433
-0.000111361
0.0133591
0.0086255
0.027517
0.0236616
0.0458361
0.0421826
0.066229
0.0614585
0.0865462
0.0791679
0.105292
0.0938374
0.121674
0.105014
0.113283
0.134605
0.00100798
-0.002552
0.00311902
-0.0022224
0.00872
0.00302452
0.0184866
0.0138949
0.0323419
0.0283273
0.0493674
0.0444329
0.068049
0.0604863
0.08686
0.0750264
0.104567
0.0873071
0.0977378
0.120112
0.000921988
-0.00347399
0.00229355
-0.00359396
0.0055561
-0.00023803
0.0115652
0.00788588
0.0208346
0.0190579
0.0333486
0.031919
0.0484401
0.0453948
0.0650159
0.0584506
0.0819113
0.0704116
0.0811207
0.0985284
0.000571527
-0.00404551
0.00124602
-0.00426845
0.0026551
-0.00164711
0.00555019
0.00499079
0.0105896
0.0140185
0.0182625
0.0242461
0.0285896
0.0350676
0.0410724
0.0459679
0.0550231
0.0564608
0.0657994
0.0703444
-0.000116212
-0.0039293
-0.000267945
-0.00411672
-0.000536814
-0.00137824
-0.000329774
0.00478375
0.00114182
0.0125469
0.0045111
0.0208768
0.0101504
0.0294284
0.0181081
0.0380101
0.0282041
0.0463649
0.0535982
0.0404053
-0.000800695
-0.0031286
-0.00183894
-0.00307848
-0.00356577
0.000348592
-0.00532677
0.00654476
-0.0063052
0.0135253
-0.0059166
0.0204882
-0.00371806
0.0272298
0.000596993
0.0336951
0.00717297
0.0397889
0.0451262
0.015645
-0.00108606
-0.00204254
-0.00275662
-0.00140792
-0.00545784
0.00304981
-0.00828433
0.00937126
-0.0104602
0.0157012
-0.0115473
0.0215752
-0.0112265
0.0269091
-0.00921297
0.0316815
-0.0053608
0.0359367
0.0396316
0.000133755
-0.000933096
-0.00110945
-0.00293211
0.000591096
-0.0060614
0.00617909
-0.00918496
0.0124948
-0.0116991
0.0182153
-0.0133371
0.0232132
-0.0139621
0.0275341
-0.0134971
0.0312165
-0.0119131
0.0343527
0.0370925
-0.00937397
-0.000663294
-0.000446154
-0.00282029
0.0027481
-0.00583046
0.00918926
-0.00874705
0.0154114
-0.0111466
0.0206149
-0.0128557
0.0249223
-0.0138412
0.0285196
-0.0141624
0.0315377
-0.0139078
0.0340982
0.0363522
-0.0131674
-0.000408858
-0.00234321
-0.00486199
-0.0073583
-0.00951228
-0.0111699
-0.0123045
-0.0129795
-0.0132935
-0.0133325
0.119385
0.522777
-0.507557
0.0891664
0.3234
-0.293181
0.0521701
0.198856
-0.16186
0.028533
0.124576
-0.100938
0.0219502
0.0574408
-0.0508581
0.0275593
-0.00612484
0.00051572
0.0417877
-0.0577286
0.0435002
0.0589811
-0.0790757
0.0618823
0.0771309
-0.0853251
0.0671753
-0.0558912
0.0438581
0.113551
0.529338
0.0826486
0.354302
0.0470292
0.234475
0.0268699
0.144735
0.023069
0.0612418
0.0307974
-0.0138533
0.0459586
-0.0728898
0.0635499
-0.0966669
0.0818233
-0.103599
-0.0675746
0.101461
0.526406
0.0713343
0.384428
0.0396147
0.266195
0.0235724
0.160777
0.0223782
0.0624359
0.0323717
-0.0238468
0.0491133
-0.0896314
0.0674011
-0.114955
0.0859466
-0.122144
-0.0790624
0.0825791
0.514171
0.0563772
0.41063
0.0304571
0.292115
0.0185097
0.172725
0.0199992
0.0609464
0.0325401
-0.0363876
0.0513499
-0.108441
0.0707503
-0.134355
0.0898589
-0.141253
-0.0905333
0.0608003
0.493776
0.0400487
0.431382
0.0205732
0.311591
0.0121736
0.181124
0.0161852
0.0569348
0.0313439
-0.0515463
0.0526511
-0.129748
0.0736426
-0.155347
0.0936985
-0.161309
-0.102193
0.0400958
0.469325
0.0245669
0.446911
0.0109759
0.325182
0.00485639
0.187244
0.0108406
0.0509506
0.0285693
-0.0692751
0.0528598
-0.154039
0.0759826
-0.178469
0.0974536
-0.18278
-0.114295
0.0219038
0.447555
0.0115629
0.457251
0.00194022
0.334805
-0.00363779
0.192822
0.00362583
0.043687
0.024009
-0.0896582
0.051871
-0.181901
0.0776928
-0.204291
0.101074
-0.206161
-0.127131
0.00740261
0.430779
0.00204645
0.462608
-0.00600694
0.342858
-0.013744
0.200559
-0.0056086
0.0355516
0.0179831
-0.11325
0.0499704
-0.213888
0.0789309
-0.233252
0.104612
-0.231842
-0.140983
-0.00179411
0.419405
-0.00349729
0.464311
-0.0138679
0.353229
-0.0250789
0.21177
-0.0157744
0.0262471
0.011966
-0.14099
0.048232
-0.250154
0.0803331
-0.265353
0.108367
-0.259876
-0.156024
-0.00386921
-0.00588918
-0.0210787
-0.0351461
-0.0235266
0.00870288
0.0487449
0.0832233
0.113026
0.00153198
0.0281194
-0.0296514
-0.000804087
0.00233607
0.000232345
-0.00103643
-0.00160067
0.00183301
-0.00594826
0.0043476
-0.00733799
0.00138973
-0.00516737
-0.00217063
-0.0023608
-0.00280656
0.000856005
-0.00321681
-0.00254898
0.0546594
0.129419
-0.155959
0.0208498
0.0361457
0.0112723
0.00854102
0.00208438
0.0110209
-0.00444613
0.0108781
-0.0051554
0.002099
0.000917927
-0.00824395
0.0115042
-0.0133929
0.023931
-0.0156436
-0.0105778
0.138246
0.271598
-0.280425
0.0668554
0.107536
0.0356928
0.0397037
0.0166388
0.0300749
0.00680989
0.020707
0.00820374
0.000705144
0.0190636
-0.0191038
0.0339441
-0.0282733
0.0494297
-0.0311292
-0.0207411
0.204713
0.41
-0.343115
0.112859
0.19939
0.0613462
0.0912168
0.0320402
0.0593809
0.0189172
0.03383
0.019924
-0.000301654
0.0317052
-0.0308851
0.0479304
-0.0444985
0.0652956
-0.0484943
-0.0320313
0.248341
-0.345898
0.15455
0.0839067
0.0423492
0.0253211
0.0255352
0.0381503
0.0555341
0.074215
0.0130271
0.000314735
-0.0133418
0.0141128
-0.00108574
0.0163025
-0.00218966
0.019031
-0.00272852
0.0223015
-0.00327049
0.0247416
-0.00244018
0.0278312
-0.00308956
0.0286803
-0.000849108
0.0306923
-0.002012
0.00104095
0.0346099
0.000373363
-0.0346686
0.0382494
-0.00472517
0.0452299
-0.00917025
0.0549442
-0.0124428
0.0676729
-0.0159992
0.0815405
-0.0163077
0.0991033
-0.0206524
0.115652
-0.0173981
0.136432
-0.0227917
-0.018486
0.0517198
-0.000424035
-0.0509224
0.0578663
-0.0108717
0.0691583
-0.0204622
0.0853758
-0.0286603
0.106765
-0.037388
0.132373
-0.0419165
0.163769
-0.0520479
0.197708
-0.0513373
0.238314
-0.0633978
-0.0605965
0.0644916
-0.00231792
-0.0625978
0.0726964
-0.0190765
0.0872169
-0.0349826
0.108161
-0.0496043
0.135124
-0.0643512
0.168847
-0.0756392
0.206788
-0.089989
0.250659
-0.0952087
0.297801
-0.110539
-0.105911
0.0735839
-0.0706121
0.0833443
0.100041
0.123654
0.153448
0.189578
0.227911
0.271059
0.308121
0.0764974
-0.0746345
0.0812863
-0.0831492
0.0688577
-0.0761327
0.0837724
0.0607722
-0.0781289
0.0862144
0.0521692
-0.0802403
0.0888433
0.0430154
-0.0823679
0.0915218
0.0333797
-0.0842602
0.0938959
0.0234858
-0.0851083
0.0950022
0.0137234
-0.0830242
0.0927867
0.00494255
-0.0734154
0.0821962
-0.0422735
0.047216
0.0828633
-0.0662414
-0.0912563
0.0741463
-0.0674157
0.0649156
-0.0688981
0.055206
-0.0705307
0.0451158
-0.0722778
0.034769
-0.0739134
0.0243576
-0.0746968
0.0142095
-0.0728761
0.00514018
-0.0643461
-0.0371333
0.0848394
-0.0567575
-0.0943233
0.0752601
-0.0578364
0.0655093
-0.0591473
0.0555784
-0.0605998
0.0454426
-0.062142
0.0350974
-0.0635683
0.0246458
-0.0642452
0.0143993
-0.0626296
0.00522323
-0.05517
-0.0319101
0.089088
-0.0469351
-0.0989104
0.079144
-0.0478924
0.0690132
-0.0490166
0.058645
-0.0502316
0.0480019
-0.0514989
0.0371007
-0.052667
0.0260822
-0.0532268
0.015296
-0.0518433
0.00563053
-0.0455046
-0.0262795
0.0920543
-0.0366742
-0.102315
0.0816511
-0.0374893
0.0710477
-0.0384131
0.060223
-0.039407
0.0491696
-0.0404454
0.0379216
-0.041419
0.0266169
-0.0419221
0.015601
-0.0408274
0.00576946
-0.0356731
-0.0205101
0.095066
-0.0261257
-0.105614
0.0843405
-0.0267637
0.0734059
-0.0274786
0.0622421
-0.0282432
0.0508385
-0.0290418
0.0392236
-0.0298042
0.02754
-0.0302385
0.0161702
-0.0294576
0.00604474
-0.0255477
-0.0144653
0.0976287
-0.0152816
-0.108473
0.0865873
-0.0157223
0.0753158
-0.0162071
0.0637921
-0.0167194
0.0520042
-0.0172539
0.0399853
-0.0177853
0.027907
-0.0181601
0.0162481
-0.0177987
0.00605695
-0.0153565
-0.00840837
0.0998124
-0.00417006
-0.110924
0.088483
-0.00439291
0.076895
-0.00461918
0.0650164
-0.00484078
0.052822
-0.00505954
0.0403324
-0.00529567
0.0277411
-0.00556883
0.0156883
-0.00574589
0.00556168
-0.00522994
-0.00284669
0.101654
0.00713562
-0.11296
0.0901158
0.00714555
0.0783001
0.00719655
0.0661662
0.00729304
0.0536749
0.00743183
0.0408212
0.00755804
0.0277653
0.00748702
0.0151936
0.0068258
0.00488119
0.00508248
0.0020345
0.103104
-0.114493
0.0914877
0.0796117
0.0674504
0.0549808
0.0422073