/*--------------------------------*- C++ -*----------------------------------*\
| =========                 |                                                 |
| \\      /  F ield         | OpenFOAM: The Open Source CFD Toolbox           |
|  \\    /   O peration     | Version:  2406                                  |
|   \\  /    A nd           | Website:  www.openfoam.com                      |
|    \\/     M anipulation  |                                                 |
\*---------------------------------------------------------------------------*/
FoamFile
{
    version     2.0;
    format      ascii;
    arch        "LSB;label=32;scalar=64";
    class       volVectorField;
    location    "1.95";
    object      U;
}
// * * * * * * * * * * * * * * * * * * * * * * * * * * * * * * * * * * * * * //

dimensions      [0 1 -1 0 0 0 0];

internalField   nonuniform List<vector> 
1800
(
(-0.0268743 0.015022 0)
(-0.0466863 0.0245089 1.60147e-20)
(-0.055929 0.0197646 1.9646e-20)
(-0.053758 0.0149094 3.8763e-20)
(-0.0485492 0.0106413 4.65944e-20)
(-0.0320885 0.0116594 1.63664e-20)
(0.0149614 0.0171777 1.5119e-20)
(0.0941613 0.0250983 -1.85782e-20)
(0.210756 0.046404 0)
(0.310531 0.0424394 5.39396e-20)
(-0.0389693 0.0245575 7.19568e-21)
(-0.0473579 0.0311462 5.66563e-21)
(-0.0450843 0.0292162 6.45419e-21)
(-0.0372335 0.0246425 -3.0612e-20)
(-5.81267e-05 0.0217677 1.53264e-20)
(0.0839915 0.00945838 -4.53178e-20)
(0.217216 -0.00486002 2.0088e-20)
(0.390852 -0.0174125 8.37376e-20)
(0.613209 -0.0048062 7.80936e-20)
(0.743208 -0.0160408 7.53842e-20)
(-0.0365653 0.028504 1.25959e-20)
(-0.0431938 0.0344205 -5.44516e-20)
(-0.0338914 0.0363058 -4.86107e-20)
(0.0162996 0.0265335 1.03696e-20)
(0.12961 0.0125536 -1.26164e-20)
(0.305801 -0.00323053 5.33939e-21)
(0.532692 -0.0161878 -2.44207e-20)
(0.788985 -0.0250386 -1.23821e-19)
(1.071 -0.0200865 4.07561e-20)
(1.27465 -0.024026 1.99935e-20)
(-0.0245877 0.0212666 2.03164e-20)
(-0.0293677 0.0310937 6.42852e-20)
(0.0157378 0.0266422 -3.73878e-20)
(0.145813 0.0141009 -9.85519e-23)
(0.36141 -0.000647921 6.67901e-20)
(0.642576 -0.010667 -1.78693e-20)
(0.955246 -0.0125331 -6.8639e-20)
(1.26457 -0.00597292 -5.88242e-20)
(1.54714 0.0065434 -3.08386e-21)
(1.76937 0.0206691 5.97723e-20)
(-0.0114603 0.00855323 -9.17024e-23)
(0.00651393 0.0086387 4.89428e-20)
(0.12737 0.00239185 3.02701e-20)
(0.369328 -0.00738652 -6.38638e-20)
(0.703744 -0.0102891 -2.84549e-20)
(1.07272 -0.00219587 4.45172e-20)
(1.4205 0.0144516 4.29188e-20)
(1.71256 0.0346514 9.57707e-20)
(1.93582 0.0542801 -2.08869e-19)
(2.09122 0.0696807 -1.92185e-19)
(-0.00204404 0.00182668 3.44569e-22)
(0.0778014 -0.0112871 1.32395e-19)
(0.322932 -0.017316 9.5662e-20)
(0.702898 -0.011891 -1.17386e-19)
(1.12924 0.00860116 1.1022e-19)
(1.51466 0.0375141 -8.35386e-21)
(1.81352 0.066183 1.23441e-19)
(2.01862 0.0890826 2.12254e-19)
(2.14553 0.10381 -3.10769e-19)
(2.21359 0.111781 -2.38587e-19)
(0.0163851 -0.000926606 -4.14561e-20)
(0.214822 -0.0251088 -2.72504e-19)
(0.614379 -0.0148554 2.93046e-20)
(1.10162 0.0185232 3.37608e-19)
(1.53644 0.0604761 -1.93799e-20)
(1.85239 0.0974242 -2.43916e-19)
(2.05073 0.123525 -1.65445e-19)
(2.16345 0.138775 4.60415e-19)
(2.22491 0.144774 5.43477e-19)
(2.26193 0.149909 4.91036e-20)
(0.0647197 -0.00380178 4.62998e-20)
(0.421603 -0.0239287 3.09292e-20)
(0.961892 0.0199291 -1.56082e-19)
(1.47278 0.0793263 8.16103e-20)
(1.83433 0.127872 -4.5029e-21)
(2.04872 0.158832 -8.21509e-19)
(2.165 0.175385 -9.4433e-22)
(2.22838 0.183178 5.9992e-19)
(2.26354 0.186633 -3.63109e-19)
(2.28257 0.185259 -3.50729e-19)
(0.14197 -0.00273243 1.84791e-19)
(0.679114 0.0034483 1.67327e-19)
(1.29443 0.0860787 -3.99276e-19)
(1.75049 0.157492 -9.50036e-20)
(2.01651 0.200599 5.1048e-21)
(2.15443 0.222835 3.16398e-19)
(2.22414 0.233945 -5.85755e-19)
(2.25957 0.239239 -2.96188e-19)
(2.28092 0.239571 6.3088e-19)
(2.29468 0.23751 1.3526e-19)
(0.245286 0.00930945 4.03043e-21)
(0.944925 0.0645949 4.43631e-19)
(1.55817 0.175064 -3.77134e-19)
(1.93269 0.245681 -1.75963e-19)
(2.12072 0.279853 1.90491e-19)
(2.20677 0.294711 -1.99104e-19)
(2.24726 0.301006 3.72894e-19)
(2.27269 0.302097 2.34768e-20)
(2.28789 0.300366 -2.59583e-19)
(2.28706 0.293069 -8.09974e-20)
(-6.03941e-05 0.00129844 1.89062e-20)
(-0.00620672 0.0682129 -5.3979e-20)
(-0.0185563 0.158847 -4.84993e-20)
(-0.031143 0.236202 8.52019e-20)
(-0.0420966 0.295111 -1.35548e-20)
(-0.0507209 0.340015 -8.51812e-21)
(-0.0568417 0.375544 1.27167e-21)
(-0.0607929 0.404967 -3.15069e-21)
(-0.0629821 0.430495 2.71026e-23)
(-0.0627767 0.453732 2.15001e-20)
(-0.000440954 0.00341694 -1.66276e-20)
(-0.00897254 0.0762711 5.09927e-23)
(-0.0214478 0.171732 3.79935e-20)
(-0.0342727 0.251367 8.75389e-20)
(-0.0454452 0.309633 -1.22777e-20)
(-0.0543787 0.351838 3.54089e-20)
(-0.0610094 0.383608 7.0703e-21)
(-0.0655581 0.40891 0)
(-0.0683905 0.430443 8.83307e-21)
(-0.0692643 0.450295 -2.84059e-20)
(-0.000459134 0.00134733 7.33195e-23)
(-0.010687 0.0700599 8.43577e-20)
(-0.0226161 0.16896 1.25254e-19)
(-0.0347757 0.253357 -5.76462e-20)
(-0.0449625 0.314259 -4.07679e-20)
(-0.0526391 0.356653 4.27821e-20)
(-0.057952 0.386864 -1.24408e-20)
(-0.0612071 0.409529 -5.05906e-21)
(-0.0627587 0.427797 -1.39818e-20)
(-0.0622861 0.444214 2.02472e-20)
(7.45768e-06 -0.00117679 -4.06443e-21)
(-0.00947221 0.0501324 7.88934e-20)
(-0.0201797 0.147633 -3.52413e-20)
(-0.0310575 0.238104 -1.52961e-19)
(-0.0393311 0.304993 2.6125e-20)
(-0.0444891 0.350855 -1.20968e-20)
(-0.046931 0.382056 1.24055e-20)
(-0.0471237 0.403874 0)
(-0.045403 0.419964 4.11813e-20)
(-0.0409289 0.433243 1.15953e-19)
(0.00234843 -0.00421033 3.30644e-20)
(-0.00353534 0.0221002 -1.5051e-20)
(-0.0132938 0.107359 -6.82313e-20)
(-0.0231606 0.201131 4.98134e-20)
(-0.029451 0.27631 -1.26602e-20)
(-0.0315548 0.329361 -1.50396e-20)
(-0.0301896 0.364817 3.54834e-20)
(-0.0260988 0.388016 -6.2978e-20)
(-0.0195982 0.403081 7.82616e-20)
(-0.00899264 0.413235 7.49213e-20)
(0.00562356 -0.00858646 2.11537e-20)
(0.00456748 -0.00115765 -1.1606e-20)
(-0.00342714 0.056114 4.56375e-20)
(-0.0129554 0.141686 -3.65633e-20)
(-0.0185227 0.221944 -1.34289e-19)
(-0.0186142 0.284025 1.56273e-19)
(-0.0138477 0.327371 1.44658e-20)
(-0.00524609 0.355443 -6.5822e-20)
(0.00679666 0.371898 1.87231e-19)
(0.0247638 0.379456 4.99232e-20)
(0.0113943 -0.0147608 -1.55685e-20)
(0.0133275 -0.0141848 3.59019e-20)
(0.00578161 0.011173 1.47542e-20)
(-0.00488856 0.0725384 -2.3311e-19)
(-0.0117175 0.145389 -5.22339e-21)
(-0.01244 0.210267 2.00202e-19)
(-0.00701323 0.260285 1.43968e-19)
(0.00397803 0.294932 1.3267e-19)
(0.0203994 0.315468 -2.91845e-19)
(0.0451749 0.32163 -2.34948e-19)
(0.00910952 -0.0176819 -2.7968e-22)
(0.00793257 -0.0172915 -8.11514e-22)
(0.00200108 -0.0104254 -3.88441e-20)
(-0.00568242 0.0133588 8.67637e-20)
(-0.014599 0.0587437 1.84694e-19)
(-0.0216817 0.113806 -9.31681e-20)
(-0.020428 0.163384 8.04268e-20)
(-0.0110399 0.200658 -1.68585e-20)
(0.00739213 0.223585 -2.68307e-19)
(0.0377093 0.226714 7.63532e-21)
(0.00277053 -0.0104682 3.29974e-21)
(-0.000156554 -0.0170679 -3.20688e-21)
(-0.0137852 -0.0145124 4.50277e-21)
(-0.027613 -0.00504306 -1.54421e-20)
(-0.0390155 0.00945104 -3.94882e-21)
(-0.0470082 0.031008 -1.53275e-19)
(-0.0473109 0.0613444 -4.38437e-20)
(-0.039222 0.0875899 -1.05975e-19)
(-0.0180241 0.102527 3.18171e-21)
(0.0195323 0.0988052 4.18756e-19)
(-0.00819695 0.00158339 7.70949e-21)
(-0.0225182 -0.000509606 4.86848e-21)
(-0.040941 -0.00507486 4.36764e-20)
(-0.0549838 -0.00405025 1.0849e-19)
(-0.0630103 -0.00185934 -8.88345e-20)
(-0.0681769 0.0034687 -2.46485e-19)
(-0.0679643 0.0122627 -7.93468e-20)
(-0.0516983 0.0251956 1.87299e-19)
(-0.0154422 0.0328935 2.52214e-19)
(0.0448166 0.0302666 3.00564e-19)
(-0.041962 0.562191 1.48193e-19)
(-0.00845928 0.649599 -1.44339e-19)
(-0.0755811 0.523378 -4.4104e-19)
(-0.19909 0.323556 1.07293e-18)
(-0.183699 0.0109066 -8.19399e-19)
(-0.0430364 -0.265519 2.19703e-20)
(0.173684 -0.432872 2.27233e-19)
(0.369284 -0.44181 2.13256e-20)
(0.521111 -0.424337 -3.72744e-20)
(0.681764 -0.251621 -5.67755e-20)
(-0.055628 0.54827 1.69467e-19)
(-0.011679 0.655137 -9.82474e-21)
(-0.104279 0.553623 8.57937e-20)
(-0.202692 0.341594 -5.06165e-19)
(-0.154589 -0.0121894 -3.16512e-19)
(0.0168506 -0.318038 7.35909e-19)
(0.257487 -0.493475 -1.50533e-19)
(0.444276 -0.490609 1.23792e-20)
(0.586832 -0.466131 -5.39841e-20)
(0.730319 -0.276132 9.37e-20)
(-0.0457701 0.528803 -3.48633e-19)
(0.00353866 0.661705 4.53391e-20)
(-0.0892801 0.582365 5.39269e-20)
(-0.152113 0.354372 -8.62707e-19)
(-0.0766321 -0.0397275 7.27731e-19)
(0.12641 -0.374676 5.88737e-22)
(0.391177 -0.555375 -1.73447e-20)
(0.564192 -0.536 1.07869e-20)
(0.692357 -0.502271 2.05925e-20)
(0.798812 -0.297883 3.84414e-21)
(-0.00803434 0.503361 -3.65012e-19)
(0.0460336 0.666816 3.14469e-21)
(-0.025077 0.605745 8.27725e-20)
(-0.0631289 0.364084 5.06206e-19)
(0.0531407 -0.0702999 -1.7579e-19)
(0.279123 -0.435152 -1.1887e-19)
(0.560584 -0.619023 1.35372e-19)
(0.722455 -0.578403 0)
(0.842004 -0.530054 0)
(0.894137 -0.314309 -3.51898e-22)
(0.0539654 0.467995 6.18499e-20)
(0.124803 0.664474 2.71218e-19)
(0.0682546 0.626346 1.06065e-20)
(0.0693922 0.369268 -3.13256e-19)
(0.234145 -0.10132 -2.02782e-19)
(0.474844 -0.496779 -6.6469e-19)
(0.754053 -0.683382 2.42814e-20)
(0.899338 -0.620472 2.52514e-20)
(1.0241 -0.549995 -6.10191e-21)
(1.01862 -0.323809 1.50368e-21)
(0.132756 0.417475 1.32741e-19)
(0.236885 0.651115 1.56634e-19)
(0.198206 0.638178 1.40116e-19)
(0.248717 0.369008 -8.78594e-21)
(0.464658 -0.132803 5.78809e-19)
(0.723824 -0.554207 -2.5603e-19)
(0.981289 -0.741876 -1.47106e-19)
(1.08486 -0.661678 3.79737e-20)
(1.21604 -0.56503 1.58351e-21)
(1.1657 -0.326952 -4.00513e-21)
(0.21635 0.346422 -1.08436e-20)
(0.374677 0.62758 -1.61078e-20)
(0.369649 0.640616 -1.90261e-19)
(0.461002 0.366101 8.92127e-20)
(0.732752 -0.164691 -3.12339e-20)
(1.01093 -0.605186 4.00812e-19)
(1.2457 -0.78819 -6.52435e-20)
(1.28754 -0.695941 -3.82311e-20)
(1.40219 -0.575814 1.67809e-20)
(1.32178 -0.325536 -6.31257e-21)
(0.281878 0.247778 -1.11826e-19)
(0.51998 0.578626 -1.49224e-18)
(0.562801 0.631419 -3.7648e-19)
(0.693556 0.36165 -3.94242e-20)
(1.01163 -0.195087 -2.68751e-19)
(1.29668 -0.650615 -4.41793e-19)
(1.5159 -0.82398 2.8921e-19)
(1.5082 -0.719058 -1.46062e-19)
(1.58051 -0.579772 8.51118e-21)
(1.4737 -0.320334 2.01132e-21)
(0.288258 0.121188 -2.3011e-19)
(0.677789 0.520386 -6.02896e-19)
(0.783729 0.619085 9.3508e-19)
(0.936467 0.35217 -2.53741e-19)
(1.28469 -0.217905 -1.27788e-19)
(1.56816 -0.686643 -1.15526e-19)
(1.76284 -0.851846 -3.24039e-19)
(1.72702 -0.732396 4.44754e-20)
(1.75121 -0.575149 4.38899e-20)
(1.61308 -0.310904 2.36608e-20)
(0.300212 -0.0517464 -1.1689e-19)
(0.791063 0.388787 1.41252e-18)
(0.953624 0.584309 8.38769e-19)
(1.14102 0.362648 -3.34629e-19)
(1.54517 -0.225382 9.73872e-21)
(1.83708 -0.710208 7.195e-20)
(1.9927 -0.869871 -4.4431e-19)
(1.92715 -0.73749 -7.50761e-20)
(1.90889 -0.562156 -1.30424e-21)
(1.73507 -0.297017 -3.25059e-20)
(0.641755 -0.13713 1.15864e-19)
(1.05965 0.240338 1.87528e-19)
(1.23125 0.523471 -7.92355e-20)
(1.45727 0.313131 3.67597e-19)
(1.92277 -0.282201 -1.92695e-19)
(2.20369 -0.74556 -1.12729e-19)
(2.29114 -0.88072 -1.45121e-19)
(2.16179 -0.731243 2.74381e-20)
(2.08475 -0.533099 -1.49298e-19)
(1.86333 -0.273716 2.28294e-20)
(1.52186 -0.0241912 -1.35622e-19)
(1.4834 0.182491 -1.64611e-20)
(1.56985 0.427727 -2.6359e-19)
(1.95142 0.154596 1.04477e-19)
(2.45617 -0.440724 -7.63033e-19)
(2.66054 -0.826996 -5.55076e-19)
(2.63067 -0.869053 -1.69626e-19)
(2.38541 -0.671711 -2.67637e-20)
(2.22882 -0.453096 1.83811e-19)
(1.95399 -0.222497 3.91361e-20)
(2.06464 0.0216985 -1.956e-20)
(1.95572 0.196704 2.9751e-20)
(2.02657 0.335364 -9.30383e-20)
(2.46205 0.0106486 -2.93383e-35)
(2.84664 -0.532747 -3.53296e-21)
(2.93782 -0.831556 1.80363e-33)
(2.84147 -0.799647 9.05512e-20)
(2.52957 -0.578659 3.67656e-33)
(2.30262 -0.36082 -1.09874e-20)
(1.98374 -0.168191 1.72945e-20)
(2.29445 0.0423664 -1.63542e-20)
(2.27366 0.182379 -3.54644e-20)
(2.45695 0.239585 2.16243e-19)
(2.83438 -0.101893 0)
(3.10939 -0.598686 5.97503e-19)
(3.12861 -0.836391 3.05008e-19)
(2.96154 -0.739749 -6.88342e-20)
(2.60251 -0.480013 6.68497e-33)
(2.32331 -0.249692 -1.74831e-19)
(1.96557 -0.103319 -2.29983e-20)
(2.42354 0.0347102 1.95655e-21)
(2.48587 0.120959 -9.99576e-21)
(2.71565 0.1274 0)
(3.03819 -0.197223 0)
(3.24704 -0.634449 0)
(3.19233 -0.791039 0)
(2.91423 -0.621651 1.39565e-20)
(2.49438 -0.348268 6.48833e-33)
(2.20658 -0.127296 -1.34479e-20)
(1.87334 -0.0344849 -3.4684e-33)
(2.53039 0.00890752 1.59249e-20)
(2.62947 0.0443087 0)
(2.81717 0.0287483 0)
(3.12065 -0.275026 0)
(3.28991 -0.657641 0)
(3.06983 -0.722508 0)
(2.68283 -0.487256 -1.89009e-20)
(2.22894 -0.212476 2.16353e-19)
(1.94889 -0.0186187 -1.51519e-20)
(1.69106 0.0224368 1.20017e-21)
(2.59767 -0.020979 0)
(2.66363 -0.011437 5.74806e-20)
(2.82277 -0.0554813 1.67184e-19)
(3.14337 -0.350416 0)
(3.09843 -0.620874 2.81529e-19)
(2.62171 -0.571431 1.03226e-19)
(2.13467 -0.311408 -6.13361e-20)
(1.7361 -0.076366 -8.80662e-20)
(1.54272 0.0667575 9.98389e-20)
(1.41782 0.0589133 -5.07098e-20)
(2.5738 -0.0465156 1.51327e-20)
(2.56684 -0.0572731 -1.00277e-20)
(2.76867 -0.134987 1.84247e-20)
(2.91849 -0.364443 -6.27747e-35)
(2.46083 -0.47876 -2.27636e-20)
(1.74981 -0.340853 8.2045e-34)
(1.26396 -0.127504 -8.69351e-21)
(1.03296 0.0194235 -8.54332e-20)
(1.00521 0.097462 -1.59801e-20)
(1.04208 0.0628829 3.97814e-20)
(2.26137 -0.0447461 0)
(2.22054 -0.0947073 -6.21904e-20)
(2.32913 -0.205436 -5.31428e-20)
(2.00857 -0.223342 0)
(1.20176 -0.151886 -6.03476e-20)
(0.617333 -0.0905249 -6.0372e-20)
(0.374935 -0.036051 -5.50855e-20)
(0.34031 0.0187111 -3.54387e-20)
(0.4359 0.0547409 1.90517e-22)
(0.566635 0.0336389 -4.60785e-20)
(1.22346 -0.039109 3.49403e-21)
(1.05369 -0.0890363 0)
(0.700342 -0.0373564 0)
(0.420329 0.0176566 0)
(0.212416 -0.000601635 0)
(0.0452866 -0.0194207 0)
(-0.0759338 -0.0178192 -7.34116e-21)
(-0.0995871 -0.00186023 1.01338e-34)
(-0.0407361 0.00814987 -1.63937e-20)
(0.0540821 0.00719357 -3.83386e-20)
(2.26257 0.268 3.51124e-19)
(2.29542 0.229274 1.40788e-19)
(2.30738 0.184755 2.85027e-19)
(2.29951 0.150747 -3.29674e-19)
(2.28286 0.109396 1.11194e-19)
(2.25709 0.0964727 6.74056e-20)
(2.16349 0.0555248 -5.01456e-20)
(1.92612 0.0355039 5.75064e-21)
(1.65346 -0.015426 1.03851e-19)
(0.973672 -0.0515634 -2.95959e-20)
(2.257 0.230572 -1.63942e-19)
(2.28806 0.199484 3.5397e-20)
(2.31331 0.169061 1.13008e-19)
(2.32495 0.149339 1.05931e-19)
(2.32929 0.116802 -2.02392e-19)
(2.29991 0.0980034 1.23754e-19)
(2.32334 0.066884 3.3381e-21)
(2.16447 0.0342814 -1.7532e-20)
(2.17562 0.0185364 -8.44822e-21)
(1.77722 -0.0376386 4.53116e-20)
(2.29363 0.198337 2.38937e-20)
(2.31669 0.172956 -1.07964e-19)
(2.34129 0.14715 -1.41465e-19)
(2.34529 0.128944 3.07504e-19)
(2.36756 0.109502 -2.05985e-20)
(2.32867 0.0882324 4.46507e-20)
(2.37328 0.0799762 -8.57561e-20)
(2.26858 0.0461669 -7.93131e-20)
(2.32555 0.0530051 -4.66199e-20)
(2.13972 0.00923769 -2.08019e-20)
(2.34247 0.168568 3.92975e-20)
(2.36085 0.14656 -1.2922e-19)
(2.3875 0.127816 2.97281e-20)
(2.38628 0.108694 -1.01034e-19)
(2.41154 0.0984827 1.36395e-19)
(2.38329 0.078458 -5.84969e-20)
(2.41391 0.0780126 1.41919e-20)
(2.35704 0.0545654 -1.46059e-20)
(2.38652 0.0618835 3.32775e-21)
(2.30451 0.0417929 2.7039e-20)
(2.37591 0.139261 7.70355e-20)
(2.39636 0.120002 -2.00998e-19)
(2.42448 0.107185 -1.65132e-20)
(2.4308 0.0898453 -1.63653e-20)
(2.45396 0.0830187 -6.33876e-21)
(2.44448 0.0668073 -1.01204e-21)
(2.46419 0.0651751 3.42147e-20)
(2.43869 0.0519741 -2.0212e-20)
(2.45325 0.0519125 -3.07288e-20)
(2.4129 0.0490452 -3.97008e-20)
(2.38225 0.108567 1.37496e-19)
(2.40669 0.0931455 2.19628e-20)
(2.4367 0.0833258 -1.35179e-19)
(2.4529 0.0700989 7.83321e-20)
(2.4774 0.0634285 5.82256e-20)
(2.48436 0.0526232 -3.7321e-20)
(2.50329 0.0471392 5.20399e-20)
(2.49955 0.0407523 6.51279e-21)
(2.51467 0.0335265 -4.96819e-20)
(2.49961 0.0373688 -6.04014e-20)
(2.34971 0.0758697 1.90239e-20)
(2.37724 0.064684 3.92057e-20)
(2.40952 0.056434 -5.27473e-20)
(2.43298 0.0475225 -3.15034e-20)
(2.4626 0.0406703 5.51465e-20)
(2.48118 0.03397 2.51244e-20)
(2.50682 0.0267853 4.77459e-20)
(2.51987 0.0231762 3.85838e-20)
(2.54099 0.0133835 1.05802e-20)
(2.54769 0.0168803 2.89921e-20)
(2.23935 0.0460249 2.3208e-20)
(2.2725 0.0385824 2.60397e-22)
(2.30133 0.0314324 -6.5259e-20)
(2.33553 0.026556 -5.439e-20)
(2.36414 0.0193289 3.31815e-20)
(2.399 0.0168683 -2.34503e-20)
(2.42598 0.00785732 -1.89762e-20)
(2.46125 0.00783787 5.30795e-20)
(2.48477 -0.00477979 -3.9273e-20)
(2.52063 -0.0022976 -4.16163e-20)
(1.93559 0.00978868 5.3359e-20)
(1.97923 0.00675144 -2.82575e-20)
(1.98712 0.00306701 -2.68324e-20)
(2.04173 0.0016899 2.74203e-20)
(2.04688 -0.00228746 -1.6808e-20)
(2.1115 -0.0026768 -5.64443e-21)
(2.1136 -0.00775781 -1.74192e-20)
(2.18605 -0.00832968 1.18138e-20)
(2.18479 -0.0156517 1.10573e-20)
(2.26238 -0.0180604 -1.23677e-20)
(1.12176 -0.00210691 0)
(1.14022 -0.00274261 2.18539e-21)
(1.13278 -0.00415401 -3.50469e-20)
(1.1612 -0.0036566 -5.3001e-20)
(1.15129 -0.00635018 2.82665e-20)
(1.19011 -0.00419246 1.10166e-19)
(1.17796 -0.00931569 -6.13852e-21)
(1.22462 -0.00596567 -4.98549e-20)
(1.20985 -0.0143743 -4.85155e-21)
(1.26065 -0.0113958 1.42023e-21)
(1.38589 0.811865 -4.55352e-20)
(1.37411 0.855348 -9.53565e-20)
(1.37572 0.90194 -6.23343e-19)
(1.38123 0.954577 1.8963e-19)
(1.38575 1.01112 1.00255e-18)
(1.38314 1.06691 1.38203e-19)
(1.36029 1.10666 -7.93601e-20)
(1.2924 1.1031 -3.28783e-19)
(1.10671 0.98978 -3.33952e-19)
(0.591769 0.550381 -4.61258e-20)
(1.52817 0.785389 -3.55932e-19)
(1.52267 0.827637 1.0453e-18)
(1.52235 0.872277 4.78482e-19)
(1.52752 0.923303 -7.07919e-19)
(1.53508 0.979189 2.41387e-19)
(1.53641 1.03426 2.34909e-19)
(1.51457 1.07141 7.88882e-19)
(1.44118 1.06509 -1.16942e-18)
(1.2337 0.949724 -5.08823e-20)
(0.651907 0.518921 2.13258e-19)
(1.65981 0.756092 1.04421e-19)
(1.66259 0.797775 8.30769e-19)
(1.66486 0.840623 1.61951e-20)
(1.67094 0.887897 -4.23001e-19)
(1.67992 0.939398 1.26511e-19)
(1.68251 0.989476 -6.67118e-20)
(1.65889 1.01998 -4.67039e-20)
(1.57721 1.00875 -4.05973e-19)
(1.34435 0.8898 1.78121e-20)
(0.698412 0.473965 -2.17322e-19)
(1.77801 0.714889 -4.23167e-19)
(1.78778 0.754149 3.89822e-19)
(1.79554 0.794059 -6.0386e-19)
(1.80589 0.837159 -2.27167e-19)
(1.81811 0.883465 1.34969e-18)
(1.82148 0.927301 -8.64095e-19)
(1.79423 0.950334 -9.91177e-19)
(1.70302 0.933899 4.29766e-19)
(1.43993 0.813189 -1.22959e-19)
(0.729677 0.420047 -6.48381e-20)
(1.88354 0.667411 5.32064e-19)
(1.89829 0.704343 4.29882e-19)
(1.91059 0.741151 -2.05188e-19)
(1.92365 0.779729 8.11409e-19)
(1.93706 0.820369 1.66123e-19)
(1.93922 0.856123 -3.73659e-19)
(1.90602 0.867901 5.59904e-19)
(1.80291 0.845122 -6.69438e-19)
(1.50288 0.722218 -7.62043e-19)
(0.736444 0.356565 -1.94453e-21)
(1.98058 0.607367 7.08823e-19)
(1.99849 0.639971 8.95954e-19)
(2.01436 0.672355 -9.22656e-19)
(2.03078 0.706036 -9.56262e-19)
(2.04479 0.739756 2.37896e-19)
(2.04075 0.766155 -7.09749e-19)
(1.99587 0.769486 -4.73479e-19)
(1.87651 0.741437 4.11524e-19)
(1.534 0.615769 6.7866e-20)
(0.717725 0.285707 -1.583e-20)
(2.06463 0.544695 6.60794e-19)
(2.08424 0.573226 -8.91268e-19)
(2.10229 0.6012 -7.92791e-19)
(2.1185 0.629098 6.24947e-19)
(2.12903 0.655784 -5.62952e-19)
(2.11623 0.668805 1.69974e-18)
(2.05763 0.663595 -2.60384e-19)
(1.91514 0.630255 -1.38924e-18)
(1.52337 0.500389 6.08562e-19)
(0.668627 0.212734 3.13633e-20)
(2.13995 0.478715 -4.33513e-19)
(2.1582 0.502424 -6.21919e-19)
(2.17397 0.525073 -8.70726e-19)
(2.18915 0.54777 3.04214e-20)
(2.19318 0.565088 2.84981e-19)
(2.15829 0.565314 2.92883e-19)
(2.09205 0.554523 7.04808e-19)
(1.91161 0.513653 -3.76785e-19)
(1.46319 0.38086 1.92158e-20)
(0.589455 0.143193 6.35915e-20)
(2.20078 0.41245 2.19794e-19)
(2.21657 0.432087 -7.42253e-20)
(2.23282 0.451001 4.32007e-19)
(2.24149 0.465731 1.1756e-18)
(2.219 0.467475 -4.26968e-19)
(2.17594 0.461759 -1.47245e-18)
(2.08871 0.446689 1.06413e-18)
(1.85799 0.394685 9.69004e-19)
(1.34857 0.263097 -4.88846e-19)
(0.48467 0.0829615 -7.90355e-21)
(2.24925 0.350369 -4.51251e-19)
(2.2647 0.366074 -4.90932e-21)
(2.2709 0.376237 6.1679e-19)
(2.25433 0.378687 6.30146e-19)
(2.22177 0.375774 4.49018e-19)
(2.16829 0.36762 -7.20021e-19)
(2.04021 0.34289 3.36427e-20)
(1.74356 0.279932 -3.66974e-19)
(1.17476 0.154705 -5.52812e-19)
(0.364588 0.0375073 -1.3624e-20)
(0.517727 0.28257 4.32322e-20)
(0.479766 0.288627 -2.27569e-19)
(0.436932 0.295713 -4.14541e-20)
(0.389965 0.303987 1.76266e-19)
(0.338755 0.313344 -2.82782e-20)
(0.282662 0.322638 -1.85464e-20)
(0.220906 0.3274 -7.14858e-20)
(0.151648 0.315825 -2.83436e-20)
(0.0774437 0.265582 1.10428e-19)
(0.0291075 0.138743 5.15453e-21)
(0.555553 0.382383 1.32914e-20)
(0.51813 0.394355 4.05347e-20)
(0.476496 0.407826 1.37064e-20)
(0.431077 0.422956 1.11981e-20)
(0.381564 0.439596 6.66813e-20)
(0.327114 0.456369 3.14588e-20)
(0.266377 0.467838 5.28478e-20)
(0.196662 0.459246 -7.29208e-20)
(0.116875 0.399623 7.80423e-20)
(0.0500513 0.22144 1.62772e-22)
(0.608752 0.476455 -1.26827e-19)
(0.572434 0.494054 -2.9143e-20)
(0.532749 0.51345 2.92868e-20)
(0.489687 0.534949 -7.73598e-20)
(0.442703 0.558514 -1.50639e-20)
(0.390735 0.582711 1.21414e-19)
(0.331767 0.601319 -4.91355e-21)
(0.262042 0.596808 -2.07923e-20)
(0.17573 0.529747 -3.83865e-22)
(0.0829779 0.301896 2.0113e-20)
(0.675019 0.565042 -1.00529e-19)
(0.640261 0.588492 -1.71901e-19)
(0.603359 0.613752 -8.41976e-21)
(0.563548 0.641336 3.46105e-20)
(0.519904 0.671309 -1.78541e-19)
(0.471177 0.702118 -7.91664e-20)
(0.414753 0.726715 -1.88741e-19)
(0.345636 0.725049 6.616e-20)
(0.252161 0.650377 -4.81653e-20)
(0.126757 0.375587 -9.21283e-20)
(0.754416 0.642373 1.01484e-19)
(0.722077 0.670887 -6.20146e-20)
(0.689089 0.701238 -3.5347e-20)
(0.653933 0.734353 -3.88156e-20)
(0.615211 0.770419 -5.11257e-20)
(0.57125 0.807686 5.44134e-20)
(0.5185 0.838237 5.93716e-20)
(0.4502 0.839622 -1.29627e-19)
(0.347767 0.758541 -2.42226e-19)
(0.181459 0.44075 5.5521e-20)
(0.843448 0.71278 2.9587e-20)
(0.813649 0.746183 2.5598e-20)
(0.784794 0.780726 9.23036e-20)
(0.754479 0.818124 3.61818e-20)
(0.721056 0.858963 1.86439e-19)
(0.682657 0.901274 -1.60367e-19)
(0.634714 0.936041 -1.22705e-19)
(0.568109 0.938682 -3.5074e-20)
(0.456184 0.85076 9.31526e-20)
(0.243323 0.494447 1.53032e-19)
(0.941134 0.765776 -4.2547e-20)
(0.915915 0.803255 2.15372e-20)
(0.893474 0.841492 1.87715e-19)
(0.87003 0.882724 -9.50349e-20)
(0.843263 0.927786 -3.33951e-19)
(0.810978 0.974596 1.92241e-19)
(0.767746 1.0131 5.66894e-19)
(0.702019 1.01674 1.59469e-19)
(0.577911 0.923446 -2.98651e-20)
(0.311549 0.5356 2.22546e-19)
(1.04176 0.811671 -1.99608e-19)
(1.01896 0.85134 -6.04225e-20)
(1.00173 0.891166 2.03406e-19)
(0.985489 0.934689 -1.12362e-19)
(0.967161 0.982727 7.54598e-20)
(0.943405 1.03248 3.74586e-19)
(0.906994 1.0726 -4.09608e-19)
(0.843288 1.07536 -3.89359e-19)
(0.706995 0.976074 3.32604e-19)
(0.383144 0.562847 -3.72384e-21)
(1.15075 0.833069 -1.75369e-20)
(1.1368 0.875559 4.23127e-20)
(1.12734 0.916494 -1.93817e-19)
(1.11737 0.961371 -6.45895e-20)
(1.10492 1.01189 4.47443e-19)
(1.08709 1.06467 1.33178e-19)
(1.05522 1.10641 -1.17388e-19)
(0.991164 1.10804 0)
(0.840285 1.00341 -2.21193e-19)
(0.45525 0.573457 -1.14524e-19)
(1.24068 0.840521 0)
(1.23526 0.884272 0)
(1.23988 0.927505 5.7725e-19)
(1.24345 0.974082 1.30226e-19)
(1.24249 1.02546 -2.05477e-19)
(1.23389 1.07849 3.96545e-19)
(1.20786 1.119 -2.88195e-19)
(1.14326 1.11812 -8.08544e-19)
(0.97646 1.00888 4.18418e-19)
(0.526557 0.569699 2.1784e-19)
(0.999636 0.00660118 -2.40486e-20)
(1.00437 -0.00947089 -8.59459e-21)
(1.03028 0.0154363 8.98221e-21)
(1.04777 0.100009 5.17582e-21)
(1.04319 0.171021 9.72026e-21)
(1.01375 0.222352 1.86871e-20)
(0.977006 0.230579 -9.74406e-21)
(0.910612 0.234719 -9.71478e-21)
(0.831198 0.244186 -7.58474e-20)
(0.684609 0.252199 4.58384e-20)
(0.999321 0.00591081 -5.22637e-22)
(1.00535 -0.0134081 7.68777e-21)
(1.03044 0.00922421 8.68397e-23)
(1.04644 0.0993826 8.81689e-21)
(1.04166 0.176575 7.73353e-21)
(1.01204 0.232059 -2.87399e-20)
(0.978107 0.245233 -1.31676e-20)
(0.917064 0.255117 5.81834e-22)
(0.843097 0.278652 1.92446e-19)
(0.717196 0.317856 5.30784e-21)
(0.998688 0.00502966 4.83426e-22)
(1.00639 -0.0173384 1.62559e-20)
(1.03108 0.00372431 -1.32156e-20)
(1.04591 0.0997911 -7.99183e-22)
(1.04141 0.182728 -8.46148e-21)
(1.01156 0.242114 7.94146e-22)
(0.979312 0.258679 1.62356e-20)
(0.925517 0.274453 -1.65597e-20)
(0.855542 0.310049 1.11241e-19)
(0.760561 0.379919 -2.46255e-19)
(0.997827 0.00409447 6.89785e-21)
(1.0073 -0.0214218 -7.2094e-22)
(1.03213 -0.00118093 -1.46159e-20)
(1.04618 0.101224 -2.40582e-20)
(1.04223 0.189466 2.09298e-20)
(1.01213 0.25269 2.16151e-20)
(0.980972 0.270812 -2.20964e-20)
(0.935998 0.293008 8.52748e-20)
(0.868892 0.3377 -1.01789e-19)
(0.813874 0.437413 -2.68174e-19)
(0.996866 0.00312223 2.54291e-22)
(1.00806 -0.025705 -2.05155e-20)
(1.03361 -0.00559043 6.8226e-21)
(1.04722 0.103683 3.34207e-20)
(1.0439 0.196805 8.52967e-21)
(1.0136 0.263802 4.67116e-20)
(0.983481 0.281467 2.56755e-20)
(0.948521 0.311064 7.38162e-20)
(0.883494 0.360936 2.1291e-22)
(0.87575 0.489647 1.97325e-19)
(0.995905 0.00209757 -3.43739e-21)
(1.00864 -0.0301947 2.28342e-22)
(1.03539 -0.009573 -4.97672e-21)
(1.04891 0.107175 9.83137e-21)
(1.04624 0.204753 -2.92838e-20)
(1.016 0.275318 8.16877e-21)
(0.987224 0.290536 -2.97153e-21)
(0.962876 0.328746 -2.14064e-19)
(0.899776 0.379281 0)
(0.945895 0.537701 -2.56208e-20)
(0.995095 0.00103977 2.5533e-21)
(1.0089 -0.034864 1.16943e-20)
(1.03713 -0.0131832 1.10575e-21)
(1.05096 0.111658 -5.07354e-20)
(1.04915 0.213241 -1.11607e-20)
(1.01958 0.286996 -5.7888e-20)
(0.992686 0.298101 4.77928e-21)
(0.978425 0.34597 4.85224e-21)
(0.919467 0.393249 -1.91228e-21)
(1.01913 0.577576 7.54779e-19)
(0.994658 -2.74157e-05 3.73281e-21)
(1.00868 -0.0395919 1.5587e-20)
(1.03822 -0.0165767 1.55461e-20)
(1.05305 0.116916 2.0504e-20)
(1.05267 0.22204 -4.57967e-20)
(1.02446 0.298404 1.284e-20)
(1.00052 0.304361 -2.7866e-21)
(0.99446 0.362397 2.67767e-20)
(0.944604 0.401694 1.37822e-19)
(1.10193 0.620528 -2.49607e-20)
(0.994831 -0.00109695 -2.87764e-22)
(1.00779 -0.0441851 -9.00121e-21)
(1.03788 -0.0196133 -4.75795e-21)
(1.05499 0.122873 3.77814e-20)
(1.05708 0.230996 3.86836e-21)
(1.03072 0.309035 1.93485e-20)
(1.01115 0.309547 -4.70959e-20)
(1.01049 0.376562 6.59579e-20)
(0.97857 0.402556 2.81187e-19)
(1.16922 0.642554 -6.46082e-19)
(0.995736 -0.0022097 1.10865e-21)
(1.00622 -0.0483817 -2.29463e-20)
(1.03614 -0.0211522 4.67127e-22)
(1.05697 0.131068 -1.68947e-20)
(1.06267 0.241492 4.76944e-20)
(1.03888 0.319456 -2.76438e-20)
(1.02423 0.314595 -1.61441e-20)
(1.0288 0.389035 3.38071e-20)
(1.01943 0.41412 -1.50772e-19)
(1.26771 0.694458 3.52909e-19)
(0.99762 -0.00353969 -1.04033e-21)
(1.00337 -0.0523283 4.23321e-21)
(1.0326 -0.0283314 5.91829e-21)
(1.05891 0.133346 -3.62411e-20)
(1.07495 0.245717 -3.39513e-20)
(1.05682 0.329484 -3.81873e-20)
(1.0483 0.313502 1.46883e-20)
(1.06424 0.399801 -1.46071e-19)
(1.06186 0.366297 -4.92019e-19)
(1.28089 0.685185 -1.46605e-19)
(1.00051 -0.00474796 -5.27728e-21)
(0.998913 -0.0544129 2.45892e-21)
(1.02614 -0.045004 -1.9538e-21)
(1.05129 0.124608 1.46213e-20)
(1.09922 0.239043 2.25165e-20)
(1.08305 0.336466 5.65533e-20)
(1.11044 0.303204 1.45203e-20)
(1.12418 0.402772 1.14091e-19)
(1.18374 0.3277 2.0777e-19)
(1.29179 0.588396 2.45853e-19)
(1.00311 -0.00608603 -1.33282e-21)
(0.995881 -0.0551264 -1.99138e-21)
(1.02584 -0.0579322 2.27577e-21)
(1.02435 0.111976 3.78026e-21)
(1.1552 0.225297 7.12644e-35)
(1.09834 0.334649 -6.35745e-21)
(1.24926 0.285641 -4.52341e-34)
(1.19355 0.389177 1.6769e-20)
(1.3983 0.30215 -4.22904e-20)
(1.33767 0.510954 -2.02115e-19)
(1.00505 -0.00782846 1.45541e-20)
(0.996816 -0.0555472 -1.99039e-35)
(1.03101 -0.06363 -2.41865e-21)
(0.979442 0.0868064 -5.06347e-21)
(1.24137 0.2014 -1.75753e-20)
(1.09915 0.316506 -4.79899e-22)
(1.42349 0.255914 -5.21485e-34)
(1.28441 0.360796 -3.63956e-20)
(1.59866 0.277144 -9.01048e-20)
(1.46368 0.445491 2.2501e-19)
(1.00607 -0.0106444 0)
(1.00275 -0.0567199 -3.81166e-35)
(1.03628 -0.0602064 0)
(0.953215 0.0432567 0)
(1.29447 0.169479 0)
(1.12255 0.278474 0)
(1.52622 0.208515 -3.13556e-34)
(1.39768 0.32415 0)
(1.70712 0.245374 -1.63534e-20)
(1.63612 0.381299 1.35657e-19)
(1.0056 -0.0151444 2.1612e-21)
(1.01365 -0.0590375 -9.28133e-21)
(1.04192 -0.0550622 -2.94858e-21)
(0.971631 -0.00214601 0)
(1.28626 0.13384 0)
(1.18532 0.228427 5.19348e-21)
(1.54211 0.155874 2.67162e-20)
(1.50484 0.280252 -1.18265e-20)
(1.74927 0.208079 -2.48288e-20)
(1.78233 0.315178 9.95297e-20)
(1.00275 -0.022958 -7.02939e-20)
(1.03085 -0.0603001 9.58525e-21)
(1.03989 -0.0539969 -4.61417e-21)
(1.01535 -0.0488265 -2.44403e-20)
(1.22155 0.0905765 -2.55915e-20)
(1.2464 0.168223 5.4222e-21)
(1.49506 0.103179 -2.57129e-20)
(1.56119 0.228093 -1.88118e-20)
(1.74003 0.165905 -3.03944e-20)
(1.85911 0.248372 9.61207e-20)
(0.997429 -0.0312843 -4.29888e-21)
(1.04111 -0.0620449 -9.93448e-21)
(1.03453 -0.0549345 -5.53298e-21)
(1.03571 -0.0611148 -4.81772e-21)
(1.09043 0.0549227 -7.02408e-35)
(1.26427 0.108084 5.20201e-21)
(1.36402 0.0561196 -8.37581e-34)
(1.53345 0.171945 -1.07688e-20)
(1.64903 0.120471 1.60016e-20)
(1.85148 0.181143 2.24586e-20)
(0.975715 -0.0511032 1.32314e-19)
(1.03678 -0.0632313 -1.58544e-21)
(0.974272 -0.061264 -5.85483e-21)
(0.96943 -0.0607535 7.59708e-21)
(0.873936 0.0150407 1.03434e-20)
(1.15095 0.0419301 3.27802e-21)
(1.06814 0.0264195 1.29499e-20)
(1.34543 0.0971489 -2.28279e-20)
(1.39241 0.0648268 -2.96567e-20)
(1.68047 0.0963628 8.22653e-20)
(0.871255 -0.0332049 6.01016e-21)
(0.848646 -0.045507 -4.73604e-35)
(0.645579 -0.047693 -6.4988e-21)
(0.527463 -0.0264262 0)
(0.4362 0.00151428 0)
(0.596558 0.00978212 5.34644e-21)
(0.520561 0.0129664 -6.14899e-36)
(0.755222 0.0317408 -9.78846e-21)
(0.795673 0.0186715 -2.37576e-20)
(1.02284 0.0309705 -3.75533e-20)
(1.46057 0.707577 1.51157e-19)
(1.5534 0.692327 -4.28779e-20)
(1.65916 0.667327 -3.17666e-21)
(1.76242 0.631223 5.09183e-20)