/*--------------------------------*- C++ -*----------------------------------*\
| =========                 |                                                 |
| \\      /  F ield         | OpenFOAM: The Open Source CFD Toolbox           |
|  \\    /   O peration     | Version:  2406                                  |
|   \\  /    A nd           | Website:  www.openfoam.com                      |
|    \\/     M anipulation  |                                                 |
\*---------------------------------------------------------------------------*/
FoamFile
{
    version     2.0;
    format      ascii;
    arch        "LSB;label=32;scalar=64";
    class       volScalarField;
    location    "1.1";
    object      nu;
}
// * * * * * * * * * * * * * * * * * * * * * * * * * * * * * * * * * * * * * //

dimensions      [0 2 -1 0 0 0 0];

internalField   nonuniform List<scalar> 
1800
(
0.0766178
0.0303216
0.0168673
0.012564
0.0106262
0.00958215
0.00897212
0.00856737
0.00843674
0.00850032
0.0320541
0.0811873
0.0227537
0.0125929
0.0101885
0.00920968
0.00870447
0.00840278
0.00850427
0.00813121
0.0282045
0.0304731
0.0137994
0.0102279
0.00906931
0.00856716
0.00833839
0.00820784
0.00847346
0.00808081
0.0443747
0.0144833
0.00994151
0.00867763
0.00821904
0.00806586
0.00807415
0.00813075
0.00850121
0.00823362
0.0207487
0.0102803
0.00841377
0.00788876
0.00776574
0.00784339
0.00804091
0.00828062
0.00874587
0.00851175
0.0118806
0.00853556
0.00766179
0.00747776
0.00758039
0.00785251
0.00822655
0.00863881
0.00913072
0.00906613
0.00908399
0.00763988
0.00723807
0.00729463
0.00759821
0.00806422
0.00862521
0.0092096
0.0097945
0.0099924
0.00777753
0.00710661
0.0070072
0.00727778
0.00779747
0.00850013
0.00931494
0.0101644
0.0110044
0.0115819
0.00703685
0.00677707
0.00691586
0.00741776
0.00823002
0.00930587
0.0105598
0.0118786
0.0131259
0.0139209
0.00657218
0.00657926
0.00694512
0.00774721
0.00902817
0.0107649
0.0127818
0.0147776
0.0164068
0.0175482
0.00723401
0.00901981
0.0118534
0.014076
0.0146901
0.0148139
0.014876
0.0148611
0.0147348
0.0145741
0.00711209
0.00877466
0.0118384
0.0151521
0.0161199
0.0158762
0.0157344
0.0157865
0.015688
0.015409
0.007071
0.0085582
0.0115396
0.0163432
0.0206472
0.0215264
0.0197605
0.018166
0.0173784
0.0169263
0.00710669
0.00837253
0.0110016
0.01664
0.029864
0.0585365
0.0609273
0.0370452
0.0269426
0.0223385
0.00727057
0.0082585
0.0101996
0.0135973
0.0185511
0.0247423
0.0319606
0.0390215
0.040864
0.0415467
0.00764573
0.00826877
0.00953626
0.011444
0.0134858
0.0152369
0.0167017
0.0177455
0.0182249
0.0206702
0.008377
0.00847795
0.00917624
0.0102757
0.0113248
0.012115
0.0126943
0.013086
0.0132644
0.0143369
0.00984543
0.00902158
0.0091808
0.0097631
0.0102899
0.0106404
0.0108813
0.0110587
0.011101
0.0117151
0.013542
0.0102443
0.00968602
0.00982909
0.00994011
0.00992859
0.00988167
0.00984716
0.00971213
0.010021
0.029428
0.0136861
0.0112934
0.0106882
0.0101786
0.0096911
0.0093213
0.00904023
0.00873395
0.00925578
0.0154324
0.0133616
0.0136177
0.0145318
0.0157384
0.0181376
0.0211104
0.0250911
0.0274572
0.0352969
0.0164594
0.0141322
0.0139399
0.0144542
0.0152506
0.0173414
0.0201009
0.023987
0.0264377
0.0339289
0.0188757
0.0163578
0.0143919
0.0140714
0.0144989
0.0162303
0.0187124
0.0223152
0.0247471
0.0314255
0.0265348
0.0205387
0.0138144
0.0128516
0.0131207
0.0144572
0.0166169
0.0198035
0.0222118
0.0277822
0.0618663
0.0195484
0.0125083
0.0116742
0.0117776
0.0126217
0.0142444
0.0167958
0.0190371
0.023484
0.0241626
0.0150914
0.0117845
0.0111371
0.0110736
0.0114551
0.0124553
0.0142449
0.0160149
0.0194035
0.0159397
0.0131164
0.0116151
0.0110054
0.0109265
0.0110222
0.01151
0.0126406
0.0138337
0.0162681
0.0127077
0.0119535
0.011416
0.0108073
0.010927
0.0110662
0.0112587
0.0119136
0.012621
0.0142956
0.0112184
0.0114613
0.01088
0.0103615
0.0107049
0.0112023
0.0114557
0.0118597
0.0122271
0.0133566
0.0100823
0.0102524
0.0100893
0.00996596
0.0103307
0.0111484
0.0118241
0.0123104
0.0125186
0.0132841
0.00970607
0.00978846
0.00994432
0.0099201
0.0100983
0.0109208
0.0121014
0.0131562
0.0136243
0.0142844
0.00901037
0.00911915
0.0100842
0.0106983
0.0106873
0.0111728
0.0124934
0.0143294
0.0157021
0.0168348
0.00892056
0.0101657
0.0126848
0.0128064
0.0124396
0.0127127
0.0139542
0.0163856
0.019113
0.0226666
0.0100631
0.0135516
0.0173477
0.0131299
0.0124694
0.0132897
0.0152625
0.0190904
0.0238459
0.0364181
0.0124468
0.0197421
0.0203394
0.0136734
0.0129649
0.0137154
0.0156431
0.0195588
0.0241167
0.0355535
0.0157471
0.0223532
0.01729
0.0125141
0.0120841
0.012869
0.0143699
0.0166229
0.0188144
0.0219056
0.0167305
0.0141784
0.0110995
0.0100278
0.0100913
0.0107245
0.0116529
0.0126848
0.0135437
0.0144869
0.0106988
0.00918388
0.00829037
0.0081824
0.0085812
0.00919776
0.00981619
0.0103579
0.0107297
0.011098
0.00765304
0.00733253
0.00735023
0.00770941
0.00823642
0.00871421
0.00905369
0.00929082
0.00940681
0.0095319
0.00685126
0.00718265
0.00789952
0.00901036
0.00988365
0.00999787
0.0096829
0.00937533
0.00912278
0.00901663
0.0194994
0.0162992
0.0140773
0.0118174
0.0103885
0.00939926
0.00874848
0.00862076
0.00813278
0.00844498
0.01619
0.0175391
0.0157424
0.0163831
0.0127674
0.0122555
0.00991986
0.0095424
0.00859258
0.00841571
0.0154322
0.017331
0.0159831
0.0185984
0.0152988
0.0154499
0.0126139
0.0112694
0.010621
0.00921719
0.016881
0.0173788
0.0186849
0.0179746
0.0205099
0.0165154
0.0183845
0.0134755
0.0141098
0.0111469
0.0177645
0.0175311
0.0201929
0.0187135
0.0236003
0.0189977
0.0253307
0.0170358
0.0191269
0.0141788
0.0156234
0.0161339
0.0167097
0.0179825
0.0186006
0.0208911
0.022238
0.0226523
0.0247742
0.019411
0.0131191
0.0136734
0.0134322
0.0145262
0.0141698
0.0159725
0.0155907
0.0184718
0.0176961
0.022787
0.0103675
0.0105636
0.0102875
0.0106527
0.0103175
0.0108516
0.0104702
0.0110927
0.0107673
0.0114054
0.00801956
0.00795706
0.00790721
0.00788037
0.00785196
0.00787003
0.00784114
0.00790785
0.00786593
0.00796867
0.00641719
0.00640122
0.00642807
0.00642482
0.00647875
0.006483
0.00656162
0.00657117
0.0066725
0.0066802
0.0101353
0.0108102
0.0107763
0.0107103
0.0107472
0.0110441
0.0116638
0.00998652
0.00709973
0.00584264
0.0106972
0.0109185
0.0108633
0.0107665
0.0108096
0.0112097
0.0119469
0.0098052
0.00698729
0.00580496
0.0112651
0.0113419
0.0112378
0.0111349
0.0112025
0.011742
0.012488
0.00955849
0.00687715
0.00577862
0.0119363
0.0120287
0.0118929
0.0118026
0.0119646
0.0127832
0.0133457
0.00925697
0.00677331
0.00576649
0.0126934
0.0129773
0.0128985
0.0128483
0.013261
0.014751
0.0139445
0.00888757
0.00667898
0.00577227
0.0136849
0.0142272
0.014283
0.0145337
0.0159183
0.0185192
0.0133516
0.00848753
0.00659677
0.0057981
0.0152488
0.0163848
0.017283
0.0193281
0.0235763
0.0212591
0.0119381
0.00807558
0.00652462
0.00584829
0.0185226
0.022345
0.0273423
0.0355345
0.0314869
0.0168784
0.0104029
0.0076835
0.00647013
0.00593208
0.0261908
0.0341363
0.0354646
0.0274074
0.0187452
0.0127206
0.00919525
0.00734674
0.00644804
0.00606423
0.0244965
0.0231748
0.020376
0.0169125
0.0133887
0.0104044
0.00832339
0.0070922
0.00647751
0.00626676
0.0119645
0.0116124
0.0113069
0.0110349
0.0107825
0.0105595
0.010355
0.0100524
0.00935899
0.00775681
0.0118071
0.0114833
0.011199
0.0109353
0.0106902
0.0104822
0.0103077
0.00997767
0.00895243
0.00722113
0.0117247
0.0114207
0.0111453
0.0108781
0.0106242
0.0104101
0.010246
0.00987858
0.0085812
0.0068465
0.0115943
0.0113519
0.0111246
0.0108797
0.0106436
0.0104575
0.0103374
0.0099148
0.00830023
0.00658436
0.0114318
0.0112189
0.0110227
0.0107971
0.0105808
0.0104302
0.0103758
0.00992825
0.00805684
0.00638878
0.011428
0.01124
0.0110519
0.0108121
0.0105895
0.0104566
0.010448
0.00993202
0.00783902
0.00623737
0.0114641
0.0113765
0.0112307
0.0109694
0.0107105
0.0105672
0.010584
0.00993076
0.0076427
0.00611568
0.0113538
0.0112809
0.011219
0.0110278
0.0108389
0.0107876
0.0109244
0.0100495
0.0074855
0.0060225
0.0116702
0.0115352
0.0113222
0.0109978
0.0107707
0.0107885
0.0110915
0.0100839
0.00734755
0.00594945
0.0115314
0.0114175
0.0113683
0.0111676
0.0109719
0.0110325
0.011423
0.0100649
0.00721735
0.00589013
0.0621905
0.0289891
0.0340933
0.0455831
0.0432469
0.0457611
0.0358185
0.0282421
0.0190393
0.0134975
0.0651585
0.0279959
0.0328052
0.0457932
0.043408
0.0486702
0.0402888
0.0289466
0.0193441
0.0133189
0.0679721
0.0270794
0.0316389
0.0453401
0.042864
0.0514953
0.0467447
0.0295165
0.0197899
0.0132072
0.0705172
0.0261726
0.0304976
0.0441864
0.0423832
0.0553407
0.0552201
0.0299231
0.0202386
0.0129811
0.072096
0.0252373
0.0294245
0.0426707
0.0431905
0.0607276
0.0626898
0.0301648
0.0205467
0.0127693
0.0717556
0.0243528
0.0285394
0.0417752
0.0459871
0.0656629
0.0620565
0.0303038
0.0200093
0.0127354
0.0710203
0.0237203
0.0278129
0.0422303
0.0493224
0.0664341
0.0522604
0.0295512
0.0190518
0.0123981
0.0724817
0.0234794
0.0270049
0.0432491
0.0494539
0.0600256
0.0390408
0.0275151
0.0169419
0.0123994
0.0725303
0.0235831
0.0259073
0.0421442
0.04316
0.0427416
0.0277103
0.0241929
0.0159367
0.0120198
0.0760692
0.0240327
0.0247894
0.0362048
0.0305994
0.0258533
0.0200703
0.0189755
0.014137
0.0133744
0.133966
0.0252972
0.0233541
0.0277338
0.0209236
0.0192146
0.0149341
0.0163022
0.0123745
0.0131191
0.11436
0.0247498
0.0207358
0.0214776
0.0166463
0.0177442
0.0126247
0.0165381
0.0109893
0.0128682
0.0687439
0.0231583
0.0187332
0.0185342
0.0164515
0.0178843
0.0126319
0.0169458
0.0112494
0.0130372
0.0501538
0.0219879
0.01745
0.016867
0.0196051
0.0173301
0.0154083
0.015838
0.0137374
0.0126777
0.0455712
0.0220396
0.0166626
0.0161018
0.0249403
0.0174794
0.024931
0.0157214
0.0178308
0.0129099
0.0501228
0.0225756
0.0165875
0.016136
0.0218933
0.0194543
0.0262237
0.018008
0.0188997
0.0138685
0.0621626
0.0237917
0.0180037
0.0169741
0.0166706
0.0214812
0.0164568
0.0214397
0.0172032
0.0157925
0.049221
0.0313029
0.0195357
0.0155359
0.0128336
0.0142218
0.0119422
0.0144584
0.0125688
0.0136942
0.0259557
0.0182072
0.0122948
0.0109929
0.0102293
0.00993624
0.00984531
0.00972997
0.00957442
0.00954686
0.00795486
0.00787334
0.00851879
0.00852329
0.00842796
0.00811652
0.0081866
0.00751956
0.00761226
0.00717605
0.011247
0.0114538
0.0115738
0.0120096
0.0125121
0.0132382
0.0141692
0.0157299
0.0183108
0.0206415
0.0119613
0.0119118
0.0119882
0.0123654
0.0126885
0.0132843
0.0136525
0.0144773
0.01494
0.0162896
0.0126094
0.0124754
0.0126115
0.0129478
0.0132104
0.0137446
0.0139101
0.0146581
0.0145942
0.01583
0.0129347
0.0128357
0.0130878
0.0133373
0.0138008
0.0141431
0.0146529
0.0150929
0.0155872
0.0161286
0.0134981
0.0135255
0.0139442
0.0142323
0.0148585
0.0149641
0.0156236
0.0155722
0.016468
0.0163257
0.014571
0.0146146
0.0148895
0.0149851
0.0151645
0.0149604
0.0150497
0.0148597
0.0151225
0.0151749
0.0151582
0.0146565
0.0142173
0.0139408
0.0136663
0.0134631
0.0132423
0.0131757
0.0130481
0.013223
0.0125082
0.0120403
0.0116114
0.0113818
0.0111259
0.0110331
0.0108021
0.0107581
0.0105285
0.0105877
0.00933991
0.00914935
0.00897159
0.00881297
0.00867364
0.0085388
0.00841666
0.00830104
0.00819274
0.00810085
0.00703975
0.00693296
0.00683321
0.00674004
0.00666218
0.00658953
0.0065355
0.00648334
0.00645354
0.00642023
0.0060355
0.00689758
0.0087721
0.0139288
0.0418451
0.0271051
0.0159604
0.0122732
0.0100924
0.00842659
0.00610891
0.00683494
0.00839134
0.0124916
0.0295767
0.0351693
0.0181788
0.0126312
0.0100496
0.00838372
0.00622474
0.00680514
0.00804519
0.010963
0.0183629
0.0245576
0.0184096
0.0131337
0.0102674
0.00854403
0.00639643
0.00681561
0.00775395
0.00981328
0.0140732
0.0187597
0.0176843
0.0137348
0.0107344
0.00887528
0.00664528
0.00688057
0.00752985
0.0089682
0.0117495
0.0155288
0.0168141
0.0145029
0.0115192
0.00940782
0.00700505
0.00703016
0.00740022
0.00834812
0.0101703
0.0130344
0.0155117
0.0151875
0.0127548
0.0102207
0.00752031
0.00730818
0.00741396
0.00796662
0.00909342
0.010992
0.0134299
0.0148252
0.0139966
0.0115146
0.00824233
0.00775937
0.00761867
0.00786071
0.00850512
0.00963793
0.0112932
0.0130545
0.0139761
0.0125199
0.00922517
0.00842022
0.00805652
0.00805485
0.00837455
0.00902246
0.00998716
0.0111381
0.0124049
0.0120323
0.0104649
0.009302
0.00877585
0.00858728
0.00867214
0.00901722
0.00958725
0.0102786
0.0111448
0.0116666
0.0116308
0.0102915
0.00980089
0.00952678
0.0094086
0.00948144
0.00973565
0.0101116
0.0103948
0.0111883
0.0119164
0.0109962
0.0109644
0.0109496
0.010721
0.0104778
0.0103895
0.0104382
0.0103444
0.0108344
0.0112407
0.011154
0.0118297
0.0126963
0.0128475
0.0122362
0.0116981
0.0113984
0.0109872
0.0111287
0.0104929
0.0111525
0.0125343
0.014862
0.0172702
0.016611
0.0148699
0.0136759
0.0125411
0.0120715
0.00979091
0.0109852
0.0129136
0.0164651
0.024435
0.0368375
0.0270056
0.0193892
0.0153894
0.013561
0.00907874
0.0106741
0.0130399
0.0170629
0.0260901
0.0591237
0.056097
0.0248728
0.0177149
0.015154
0.00849038
0.0103623
0.0130068
0.0164427
0.0202627
0.0240793
0.0256302
0.0214263
0.01762
0.0155366
0.00805071
0.0100409
0.0127021
0.0149565
0.0162274
0.0172488
0.0179612
0.0173743
0.0160836
0.0149882
0.00770484
0.00967891
0.0122907
0.0140208
0.0147
0.0152102
0.0156057
0.0155507
0.0150811
0.0145432
0.00743361
0.00932899
0.0119916
0.0137166
0.0142431
0.0145271
0.0147601
0.014817
0.0146403
0.0143846
0.0114934
0.0130873
0.0172089
0.0306448
0.0455894
0.0305372
0.0274465
0.0282238
0.0289023
0.0361632
0.0115429
0.0129695
0.01716
0.0248872
0.0323842
0.0284867
0.0270427
0.0283953
0.0298253
0.0397794
0.0117074
0.0130321
0.0169878
0.0220292
0.027185
0.0269254
0.0265451
0.0281942
0.0299009
0.0402339
0.0120212
0.013441
0.0168331
0.0207781
0.0243145
0.0253573
0.02581
0.0277441
0.0295028
0.0392336
0.0123705
0.0140639
0.0163938
0.0197171
0.0222929
0.023954
0.0250428
0.0272382
0.0289176
0.037825
0.0128619
0.014482
0.0157175
0.0185513
0.0207061
0.0228
0.0244222
0.0268824
0.0284508
0.0366571
0.0133671
0.0143988
0.015035
0.0174063
0.0193763
0.0217995
0.0239166
0.0266993
0.0282379
0.0360063
0.0137829
0.0139863
0.0144545
0.0163796
0.0182196
0.0208403
0.0233932
0.0265594
0.0282082
0.0358241
0.0142271
0.0135513
0.0139913
0.0155202
0.017212
0.0198883
0.0227574
0.0263088
0.0281866
0.03587
0.0147624
0.0132825
0.0136795
0.0148757
0.0163726
0.018972
0.0219888
0.0258403
0.0279897
0.0358176
0.0100508
0.0128514
0.0157533
0.0190446
0.0180992
0.0154743
0.0136434
0.012374
0.011712
0.0112616
0.00964195
0.0112137
0.013145
0.0143356
0.0143469
0.0136646
0.013042
0.0124742
0.0121633
0.0118392
0.0103719
0.012006
0.0148107
0.0171168
0.0174469
0.0165799
0.0157705
0.0151554
0.0147703
0.0142892
0.0112794
0.0130621
0.0175273
0.0275943
0.0291575
0.0236518
0.0212999
0.020523
0.0198789
0.0195828
0.0119699
0.0134451
0.0178478
0.0394617
0.0525638
0.0292303
0.0257012
0.0257197
0.0255536
0.0280624
0.00606632
0.00617617
0.00634063
0.0065643
0.00684102
0.00719238
0.00758119
0.00800704
0.00856308
0.00880589
0.00631166
0.00640591
0.00656389
0.00678149
0.00704003
0.00735356
0.00765882
0.0079981
0.00841312
0.00865788
0.0066217
0.00669405
0.00684524
0.00705764
0.00731021
0.00760803
0.00789078
0.00831892
0.00865727
0.00916235
0.00702557
0.00706963
0.00722201
0.00744855
0.00774416
0.0080787
0.00848236
0.00915899
0.00950646
0.010643
0.00754164
0.00755049
0.00771369
0.00798578
0.00838114
0.00886183
0.00963061
0.0106119
0.0109561
0.0128042
0.0134804
0.0134116
0.0133499
0.0129426
0.0124471
0.0120321
0.0116968
0.0109132
0.0088532
0.00687061
0.0139639
0.0136179
0.0131136
0.0124891
0.0119829
0.0116431
0.0114144
0.0108986
0.00920182
0.00712469
0.0132219
0.0129224
0.0126358
0.0122734
0.0119494
0.0117004
0.0114966
0.0110631
0.00963335
0.00745421
0.0132269
0.0129284
0.0126196
0.0122463
0.0118873
0.0115811
0.0113239
0.0109916
0.0100568
0.00790551
0.01311
0.0127365
0.012374
0.0119962
0.011646
0.0113537
0.0111299
0.0109649
0.0106168
0.0086295
0.0129472
0.0125323
0.0121468
0.0117747
0.0114288
0.0111346
0.0109217
0.0108959
0.0112231
0.00992348
0.0127331
0.0122962
0.0119009
0.0115357
0.0111914
0.010888
0.0106636
0.0107037
0.0116562
0.0128827
0.0125116
0.0120817
0.0117007
0.0113594
0.0110371
0.0107469
0.0105124
0.0104667
0.0112957
0.0146729
0.0123079
0.0119033
0.0115508
0.0112423
0.0109567
0.0107016
0.0104737
0.0103109
0.0105324
0.0104991
0.0121285
0.0117506
0.0114226
0.0111349
0.0108698
0.010635
0.0104173
0.0101706
0.00988222
0.00866145
0.00870953
0.0103611
0.0121751
0.014153
0.0171225
0.0203945
0.0141077
0.00914957
0.00698455
0.00599511
0.00925142
0.0107321
0.0120658
0.0132273
0.0142913
0.0151759
0.0136004
0.00947378
0.00709027
0.00598205
0.00994332
0.0110547
0.0118775
0.0124866
0.0129472
0.0132426
0.0125827
0.00968165
0.0072149
0.00599549
0.0105372
0.0112445
0.0117182
0.0120016
0.0121205
0.0121568
0.011847
0.00981706
0.00735413
0.00603275
0.0109404
0.0113811
0.0116255
0.0116941
0.0116371
0.0115732
0.0114072
0.00993997
0.00750898
0.0060923
0.0112845
0.0115708
0.0116268
0.0115172
0.0113531
0.0112662
0.0112063
0.0100973
0.0076841
0.0061715
0.0116876
0.0118365
0.0116772
0.0114143
0.0112073
0.0111489
0.0111832
0.0103067
0.00788266
0.00626897
0.012131
0.012025
0.0116444
0.0113337
0.0111782
0.0111897
0.0113026
0.0105532
0.00810147
0.00638363
0.0122557
0.0119024
0.0115414
0.0113617
0.0113146
0.0113808
0.0115032
0.0107806
0.0083344
0.0065169
0.0116847
0.011891
0.0118655
0.011813
0.0117663
0.0117489
0.0117151
0.0109258
0.00858438
0.00667614
0.0339102
0.0531542
0.0418575
0.0292182
0.0263637
0.027004
0.0304622
0.0390188
0.0278438
0.0200058
0.0366496
0.0460042
0.0509392
0.0308183
0.0271579
0.0269717
0.028944
0.0292416
0.0257928
0.0163219
0.0392559
0.042013
0.0568163
0.0318431
0.0279054
0.0274057
0.0286298
0.0266467
0.0249875
0.0152312
0.0417455
0.0391716
0.057776
0.032888
0.0288742
0.0281152
0.0283204
0.0254086
0.0234388
0.0151517
0.0442535
0.0371199
0.0541922
0.0344633
0.0303632
0.0292359
0.0281737
0.0250746
0.02205
0.0151281
0.0468663
0.0355236
0.0489583
0.0366303
0.0324253
0.0308482
0.0282814
0.0252657
0.0209272
0.0149632
0.0496709
0.0340906
0.0441999
0.0391001
0.0349239
0.0329887
0.0286591
0.0256803
0.0200237
0.0146668
0.0526993
0.0326974
0.0404918
0.0414645
0.0376116
0.0356895
0.0294139
0.0261978
0.0193838
0.0143133
0.0558736
0.0313518
0.0377287
0.0434028
0.0401455
0.0389036
0.0307164
0.0268023
0.0190211
0.0139823
0.059073
0.0301047
0.03567
0.0447805
0.0421293
0.0424009
0.0327644
0.0274975
0.0189135
0.0137158
0.0072437
0.00746413
0.00861204
0.00907465
0.00966549
0.00978459
0.00998521
0.00969606
0.00966637
0.00815109
0.014933
0.0105616
0.00994468
0.0103238
0.0106892
0.0110673
0.0115609
0.0117821
0.0120934
0.0117971
0.0253823
0.0195924
0.0126946
0.0126808
0.0127586
0.01343
0.0143303
0.0162155
0.0167138
0.0157439
0.0294246
0.0831773
0.0184082
0.0171555
0.0166962
0.0178387
0.0196287
0.028181
0.0325879
0.0158102
0.0314766
0.0669277
0.028666
0.0233698
0.0218006
0.0230203
0.02609
0.0448817
0.0430808
0.017841
0.00768724
0.00734526
0.00701184
0.00671812
0.00647512
0.00628183
0.00613847
0.00604537
0.00600213
0.00600865
0.0106864
0.00978898
0.00896974
0.00827304
0.00766519
0.0071572
0.00676903
0.00650285
0.00634791
0.00628914
0.0130979
0.01192
0.0108623
0.00999417
0.00916502
0.00836347
0.00766543
0.00714279
0.00681344
0.00665155
0.013255
0.0123516
0.0116377
0.0110663
0.010415
0.00961753
0.00874027
0.00796011
0.00741886
0.00712477
0.013574
0.0126531
0.0118601
0.0112995
0.0108165
0.0103025
0.00964916
0.00886706
0.00817514
0.00773239
)
;

boundaryField
{
    left
    {
        type            calculated;
        value           nonuniform List<scalar> 
35
(
0.022248
0.0210732
0.0201012
0.0199563
0.0207807
0.0222898
0.0239522
0.0244723
0.0199679
0.007919
0.0336468
0.0323598
0.0310923
0.0298501
0.0286437
0.0274785
0.0263333
0.0251782
0.0240048
0.0229623
0.0326885
0.0350155
0.036662
0.0377013
0.0382391
0.0383137
0.0379521
0.0372017
0.0361528
0.0349315
0.00720826
0.0137006
0.02239
0.0268713
0.0299467
)
;
    }
    right
    {
        type            calculated;
        value           nonuniform List<scalar> 
35
(
0.011264
0.0118504
0.0143494
0.019926
0.0298283
0.0414655
0.0483741
0.0504573
0.0499427
0.0485568
0.0475284
0.0474876
0.048484
0.0501564
0.0518094
0.052386
0.0505749
0.0453932
0.037357
0.0288386
0.0220549
0.0175939
0.0150521
0.0138888
0.0137606
0.0148591
0.017715
0.0248355
0.0465383
0.0399129
0.0224233
0.0146303
0.0111499
0.00955005
0.0090204
)
;
    }
    down
    {
        type            calculated;
        value           nonuniform List<scalar> 
40
(
0.00638102
0.00679287
0.00820899
0.0086714
0.00934348
0.00934708
0.00943819
0.00905251
0.0088708
0.00732191
0.00695979
0.00671652
0.00647761
0.00627348
0.00611664
0.00600226
0.00592445
0.00588005
0.0058691
0.00589463
0.00596385
0.0060802
0.00624815
0.00647448
0.00675821
0.00712831
0.00756405
0.00807986
0.0087629
0.00909343
0.0109575
0.0164822
0.0236716
0.0583708
0.0387068
0.0211251
0.0156919
0.0131673
0.0120315
0.0113815
)
;
    }
    up
    {
        type            calculated;
        value           nonuniform List<scalar> 
40
(
0.00671774
0.0076201
0.0096598
0.0137305
0.0160746
0.0132384
0.0109675
0.00984204
0.00922929
0.00896669
0.00599212
0.00599568
0.00602629
0.00604106
0.00609946
0.00611542
0.0062079
0.00621607
0.0063516
0.00634032
0.0064587
0.00637041
0.00628707
0.00621263
0.00614894
0.00609621
0.00605562
0.00602235
0.00600247
0.00598783
0.00678404
0.00684431
0.00769725
0.00787339
0.0078567
0.0075957
0.00758375
0.00694461
0.00702098
0.00658484
)
;
    }
    cylinder
    {
        type            calculated;
        value           nonuniform List<scalar> 
80
(
0.00675065
0.00666681
0.00666691
0.00675253
0.00698748
0.00749566
0.00853662
0.0109553
0.0196677
0.0508762
0.0581752
0.0239597
0.0186861
0.0219662
0.0304762
0.01961
0.0110662
0.00853934
0.00736314
0.00668946
0.00554789
0.005524
0.00551233
0.00551575
0.00553881
0.00558597
0.00566491
0.00578901
0.00597817
0.00626182
0.00714984
0.00667378
0.00635308
0.00613276
0.00597158
0.00584905
0.00575216
0.00567951
0.00562413
0.00558082
0.00635784
0.00656096
0.0068252
0.00719483
0.00779804
0.00892676
0.0118309
0.0157771
0.00996383
0.00799956
0.0057307
0.0056956
0.00568836
0.00570555
0.00574551
0.00580403
0.00587881
0.00596843
0.00607418
0.00620165
0.00579719
0.00590343
0.00606275
0.00629359
0.00662198
0.00708557
0.00773539
0.00864216
0.00991921
0.0116678
0.0133851
0.0132962
0.0116629
0.0103664
0.00940324
0.00854611
0.00790247
0.00746469
0.00714672
0.00691185
)
;
    }
    defaultFaces
    {
        type            empty;
    }
}


// ************************************************************************* //
