/*--------------------------------*- C++ -*----------------------------------*\
| =========                 |                                                 |
| \\      /  F ield         | OpenFOAM: The Open Source CFD Toolbox           |
|  \\    /   O peration     | Version:  2406                                  |
|   \\  /    A nd           | Website:  www.openfoam.com                      |
|    \\/     M anipulation  |                                                 |
\*---------------------------------------------------------------------------*/
FoamFile
{
    version     2.0;
    format      ascii;
    arch        "LSB;label=32;scalar=64";
    class       volScalarField;
    location    "1.1";
    object      p;
}
// * * * * * * * * * * * * * * * * * * * * * * * * * * * * * * * * * * * * * //

dimensions      [0 2 -2 0 0 0 0];

internalField   nonuniform List<scalar> 
1800
(
-1.08659
-1.07936
-1.06999
-1.05949
-1.04523
-1.02964
-1.01639
-1.00849
-1.00836
-1.0186
-1.07198
-1.07292
-1.06626
-1.05892
-1.04702
-1.03216
-1.01837
-1.00767
-1.00078
-1.00524
-1.10786
-1.10337
-1.09595
-1.0878
-1.07763
-1.06591
-1.05476
-1.04546
-1.03749
-1.04197
-1.14182
-1.13935
-1.13309
-1.12539
-1.11606
-1.10559
-1.09503
-1.0853
-1.07613
-1.07546
-1.18861
-1.17925
-1.17268
-1.1645
-1.15446
-1.14314
-1.13137
-1.11989
-1.10909
-1.10341
-1.23556
-1.22062
-1.21254
-1.20244
-1.18954
-1.17457
-1.15862
-1.14255
-1.12705
-1.11383
-1.28243
-1.2645
-1.25348
-1.2389
-1.21992
-1.19803
-1.17489
-1.15157
-1.12863
-1.10663
-1.33203
-1.31077
-1.29482
-1.27242
-1.24371
-1.21175
-1.17886
-1.14618
-1.11417
-1.08293
-1.38129
-1.35625
-1.33266
-1.29908
-1.25786
-1.21388
-1.16989
-1.12696
-1.08542
-1.04502
-1.42316
-1.39375
-1.35955
-1.31227
-1.25735
-1.20097
-1.1459
-1.09305
-1.04245
-0.993283
-1.18089
-1.18389
-1.18189
-1.17837
-1.17426
-1.17053
-1.16762
-1.16549
-1.16431
-1.1648
-1.2334
-1.23392
-1.2317
-1.22928
-1.2271
-1.22635
-1.22762
-1.23048
-1.23487
-1.24168
-1.27778
-1.27543
-1.27302
-1.27184
-1.27143
-1.2728
-1.27827
-1.28749
-1.29879
-1.31241
-1.30735
-1.30171
-1.29946
-1.30026
-1.30395
-1.31031
-1.31947
-1.33129
-1.34621
-1.36522
-1.31775
-1.30826
-1.30602
-1.30891
-1.31711
-1.33028
-1.3465
-1.36462
-1.38556
-1.41038
-1.30479
-1.29139
-1.28828
-1.29092
-1.29933
-1.31371
-1.33348
-1.35778
-1.38532
-1.41555
-1.27071
-1.25436
-1.24963
-1.25005
-1.25579
-1.26751
-1.28504
-1.30793
-1.33523
-1.36598
-1.22355
-1.20557
-1.19868
-1.19527
-1.19606
-1.20234
-1.2144
-1.23221
-1.25519
-1.28205
-1.17386
-1.15525
-1.1461
-1.138
-1.13207
-1.13021
-1.13343
-1.1425
-1.15764
-1.17823
-1.12618
-1.11235
-1.10174
-1.08994
-1.07774
-1.06725
-1.06063
-1.06015
-1.06715
-1.08287
-1.16974
-1.08329
-0.877497
-0.579389
-0.371671
-0.212649
-0.111694
-0.0532745
-0.0193885
-0.00253501
-1.27454
-1.21601
-0.973224
-0.620819
-0.38107
-0.205301
-0.0995981
-0.0426537
-0.0120437
-8.71744e-05
-1.38583
-1.36944
-1.08308
-0.678216
-0.393619
-0.197652
-0.0861949
-0.03083
-0.00381442
0.00284282
-1.49195
-1.53663
-1.21252
-0.742637
-0.409128
-0.189831
-0.0715429
-0.0178175
0.00528677
0.00633644
-1.5813
-1.70527
-1.35375
-0.816502
-0.428464
-0.183087
-0.0566385
-0.00421876
0.0149296
0.0103166
-1.6324
-1.85895
-1.50091
-0.898946
-0.453534
-0.179684
-0.043499
0.00860558
0.0243111
0.0144438
-1.62825
-1.98931
-1.64613
-0.989562
-0.48659
-0.182203
-0.0346603
0.0187696
0.0322101
0.0180964
-1.56967
-2.08688
-1.78145
-1.08575
-0.528228
-0.192187
-0.0322839
0.0243524
0.0372189
0.0205077
-1.45962
-2.14671
-1.8977
-1.18294
-0.577001
-0.209351
-0.0370559
0.0241409
0.0381355
0.0210449
-1.31458
-2.15544
-1.99177
-1.2777
-0.630605
-0.232719
-0.0482446
0.0182492
0.0346553
0.0195351
-1.17843
-2.18852
-2.05999
-1.32968
-0.659266
-0.250218
-0.0631842
0.00586084
0.0254365
0.0153285
-1.11727
-2.11724
-2.00629
-1.28904
-0.655941
-0.271963
-0.0911419
-0.0182132
0.00817493
0.00749429
-1.1014
-1.99791
-1.87501
-1.22338
-0.658786
-0.310806
-0.1324
-0.0479251
-0.00959605
0.00102854
-1.06996
-1.77723
-1.70026
-1.156
-0.6697
-0.358207
-0.181374
-0.0826806
-0.0286118
-0.00463583
-1.007
-1.54413
-1.5238
-1.10049
-0.696687
-0.414733
-0.231598
-0.116724
-0.0473072
-0.0108482
-0.927646
-1.33292
-1.36488
-1.05986
-0.735954
-0.478882
-0.286121
-0.152826
-0.067403
-0.0180421
-0.828254
-1.14871
-1.2369
-1.04712
-0.792063
-0.544794
-0.334686
-0.182044
-0.0814416
-0.0217319
-0.719406
-1.00644
-1.14617
-1.05337
-0.842299
-0.592739
-0.367082
-0.200493
-0.0896653
-0.0232907
-0.630439
-0.934379
-1.09117
-1.04485
-0.864472
-0.616244
-0.383969
-0.21094
-0.0947666
-0.024572
-0.576174
-0.920601
-1.09829
-1.04896
-0.856998
-0.611474
-0.384968
-0.213746
-0.0968256
-0.0255049
-0.899696
-0.964958
-1.01776
-1.05806
-1.08214
-1.08686
-1.06755
-1.03678
-1.01345
-1.04617
-0.770793
-0.84537
-0.907931
-0.961764
-1.00047
-1.02608
-1.03674
-1.04298
-1.05393
-1.06747
-0.652776
-0.729891
-0.79579
-0.856046
-0.906347
-0.947287
-0.982946
-1.00929
-1.03434
-1.058
-0.545418
-0.621164
-0.689103
-0.751431
-0.808762
-0.859268
-0.905067
-0.943764
-0.97543
-1.01179
-0.448135
-0.521425
-0.589463
-0.652248
-0.710861
-0.76456
-0.81168
-0.857923
-0.895715
-0.940435
-0.361928
-0.432982
-0.498713
-0.559991
-0.616219
-0.668839
-0.716005
-0.76287
-0.804346
-0.851918
-0.289073
-0.357957
-0.419977
-0.478963
-0.531255
-0.581328
-0.626292
-0.66921
-0.709858
-0.752135
-0.231003
-0.297314
-0.357205
-0.413214
-0.46138
-0.507968
-0.546986
-0.584397
-0.618533
-0.652787
-0.195099
-0.258402
-0.317869
-0.370471
-0.416599
-0.458557
-0.490998
-0.520647
-0.544544
-0.567145
-0.180197
-0.244166
-0.304854
-0.356979
-0.405362
-0.443891
-0.47821
-0.503204
-0.52342
-0.535768
0.45239
0.38564
0.311692
0.236286
0.158444
0.0762664
-0.00936503
-0.0934134
-0.168075
-0.215423
0.271768
0.203109
0.128779
0.0507738
-0.0322505
-0.121474
-0.215013
-0.306841
-0.388124
-0.441398
0.0691599
0.000915144
-0.0722337
-0.150469
-0.235244
-0.327362
-0.424474
-0.520477
-0.605754
-0.66286
-0.125248
-0.19404
-0.267977
-0.347719
-0.434438
-0.528656
-0.627846
-0.725896
-0.814063
-0.870763
-0.301306
-0.372216
-0.448301
-0.530225
-0.618954
-0.714455
-0.814485
-0.913632
-1.00007
-1.05644
-0.459363
-0.532387
-0.610074
-0.693012
-0.782376
-0.877809
-0.97609
-1.0728
-1.15684
-1.21104
-0.600264
-0.673469
-0.750444
-0.832591
-0.920689
-1.01314
-1.107
-1.19933
-1.27806
-1.32819
-0.724982
-0.795922
-0.871115
-0.950367
-1.03289
-1.11815
-1.20531
-1.29066
-1.3606
-1.40574
-0.83452
-0.901484
-0.970247
-1.04146
-1.11539
-1.19213
-1.27072
-1.34572
-1.40452
-1.44438
-0.92465
-0.983073
-1.04257
-1.1045
-1.16946
-1.23702
-1.30487
-1.36661
-1.41325
-1.44766
1.46492
1.46897
1.47296
1.47621
1.47845
1.47953
1.47938
1.47835
1.47895
1.49208
1.41874
1.42028
1.42125
1.42111
1.41966
1.41671
1.41228
1.40715
1.4044
1.4146
1.3545
1.35276
1.35003
1.34584
1.34002
1.33235
1.32285
1.31267
1.3054
1.31171
1.27414
1.26858
1.26109
1.25156
1.24001
1.2262
1.21022
1.19363
1.18047
1.1815
1.17754
1.1677
1.15505
1.13969
1.12176
1.10093
1.07734
1.05307
1.03285
1.02815
1.06617
1.05173
1.03326
1.01125
0.986062
0.957343
0.925335
0.892574
0.864373
0.8536
0.942399
0.922811
0.898067
0.86902
0.836177
0.799117
0.758163
0.716245
0.67902
0.661875
0.812922
0.787785
0.75516
0.717057
0.67466
0.627685
0.576689
0.52502
0.478422
0.453662
0.680421
0.649811
0.609235
0.561718
0.508966
0.450763
0.388057
0.325091
0.268446
0.235717
0.557976
0.513023
0.457772
0.39742
0.333265
0.264144
0.190662
0.117405
0.0516291
0.0113923
1.48622
1.44887
1.44926
1.42572
1.41
1.39057
1.38324
1.3802
1.39718
1.44855
1.48468
1.44653
1.44757
1.42315
1.40655
1.38501
1.37694
1.3699
1.38073
1.42223
1.48378
1.44443
1.44607
1.4203
1.40251
1.37861
1.36968
1.35702
1.35958
1.38555
1.48344
1.44262
1.44476
1.41717
1.39795
1.37147
1.36144
1.34149
1.33419
1.33836
1.48359
1.44113
1.44364
1.41375
1.39299
1.36366
1.3521
1.32334
1.3051
1.28018
1.48405
1.44005
1.4427
1.41009
1.38776
1.35517
1.34163
1.30266
1.27279
1.20968
1.4847
1.43948
1.44191
1.40623
1.38221
1.34575
1.33007
1.27971
1.23804
1.1266
1.4857
1.4395
1.44123
1.40208
1.37594
1.3348
1.31736
1.25485
1.2006
1.03219
1.48694
1.44037
1.44071
1.3974
1.36834
1.32204
1.30354
1.22839
1.15934
0.923397
1.48733
1.4423
1.44076
1.39224
1.35917
1.30823
1.28898
1.20144
1.11765
0.809971
1.48829
1.44391
1.44127
1.38781
1.3503
1.29399
1.27252
1.17246
1.06865
0.709236
1.49912
1.44676
1.44706
1.38627
1.34364
1.28115
1.25588
1.14876
1.02654
0.723778
1.50799
1.45045
1.45498
1.388
1.34016
1.27178
1.23929
1.12689
0.985745
0.731684
1.51521
1.45484
1.46277
1.39208
1.33778
1.26544
1.22137
1.10831
0.948865
0.727883
1.52349
1.45818
1.46663
1.39386
1.33381
1.2606
1.20122
1.09229
0.917605
0.717404
1.53345
1.45997
1.46434
1.3878
1.3283
1.25535
1.17996
1.08037
0.893629
0.704632
1.54456
1.45945
1.45463
1.37317
1.32139
1.2493
1.16033
1.07727
0.877443
0.692118
1.55845
1.46093
1.44179
1.35824
1.31333
1.24392
1.14323
1.08402
0.867475
0.684625
1.57403
1.46628
1.43394
1.34743
1.30632
1.24019
1.12971
1.09088
0.861653
0.686483
1.6186
1.4683
1.4302
1.34454
1.30644
1.23804
1.13333
1.09818
0.860266
0.705293
0.448115
0.293621
0.110283
-0.0658651
-0.224047
-0.366811
-0.497583
-0.61567
-0.723125
-0.81924
0.415776
0.285714
0.138457
-0.00579897
-0.137894
-0.26068
-0.376378
-0.486415
-0.589495
-0.685771
0.415372
0.294326
0.168527
0.0469621
-0.0663655
-0.175094
-0.279665
-0.381878
-0.477636
-0.569767
0.42685
0.315109
0.203122
0.0974908
-0.00138971
-0.0978347
-0.19251
-0.287317
-0.377384
-0.465003
0.446445
0.343887
0.241874
0.147446
0.0592298
-0.027224
-0.113662
-0.201154
-0.286725
-0.369917
0.468054
0.375056
0.281978
0.195814
0.115028
0.0354916
-0.0448473
-0.126317
-0.20737
-0.286584
0.48855
0.406915
0.322875
0.242742
0.166075
0.0904706
0.0137768
-0.0637098
-0.140702
-0.216493
0.509856
0.43871
0.362934
0.287091
0.211982
0.137827
0.0637412
-0.00983097
-0.0853228
-0.159057
0.525622
0.459454
0.38842
0.314826
0.239606
0.164439
0.0905236
0.0189549
-0.0536365
-0.12399
0.547512
0.481764
0.411573
0.337382
0.261296
0.185525
0.110414
0.0358897
-0.03841
-0.11033
-0.944741
-0.910888
-0.86145
-0.804925
-0.748456
-0.696406
-0.650281
-0.610037
-0.57677
-0.55155
-1.04418
-1.01197
-0.965439
-0.909639
-0.854175
-0.802983
-0.757702
-0.718259
-0.685244
-0.660442
-1.10983
-1.07985
-1.03769
-0.985089
-0.931451
-0.881149
-0.836257
-0.797528
-0.764738
-0.739357
-1.14445
-1.11707
-1.08055
-1.03335
-0.982624
-0.933789
-0.889846
-0.85179
-0.819285
-0.793176
-1.15402
-1.12935
-1.09942
-1.05911
-1.01321
-0.967157
-0.924558
-0.887258
-0.855308
-0.828983
-1.14641
-1.12469
-1.10108
-1.06802
-1.02828
-0.986468
-0.946098
-0.909799
-0.878694
-0.853056
-1.1296
-1.11118
-1.09287
-1.06646
-1.033
-0.995994
-0.958526
-0.92331
-0.892478
-0.867273
-1.10989
-1.09492
-1.08088
-1.05998
-1.03196
-0.999135
-0.964221
-0.929775
-0.898435
-0.872385
-1.09069
-1.07941
-1.06891
-1.05251
-1.02903
-0.999623
-0.96666
-0.932541
-0.900231
-0.874128
-1.07155
-1.06432
-1.05668
-1.04366
-1.0237
-0.996973
-0.965121
-0.930086
-0.893837
-0.862546
-1.05005
-1.0469
-1.04136
-1.03051
-1.01323
-0.989505
-0.960453
-0.928043
-0.893473
-0.855632
-1.02602
-1.02639
-1.02218
-1.01236
-0.996523
-0.97519
-0.94929
-0.920242
-0.888702
-0.851744
-1.00469
-1.00728
-1.00394
-0.994887
-0.979771
-0.959842
-0.936877
-0.911502
-0.883435
-0.850052
-0.992066
-0.995794
-0.993544
-0.986336
-0.973219
-0.954537
-0.933582
-0.911992
-0.888015
-0.858919
-0.986632
-0.991543
-0.990024
-0.984769
-0.974923
-0.958799
-0.940011
-0.922138
-0.90279
-0.876988
-0.989944
-0.995825
-0.994237
-0.989652
-0.98322
-0.972303
-0.955524
-0.939138
-0.922944
-0.904016
-1.00776
-1.01413
-1.01327
-1.00966
-1.00378
-0.994162
-0.979719
-0.963586
-0.948296
-0.932983
-1.03848
-1.04486
-1.0443
-1.04084
-1.03486
-1.02608
-1.01427
-1.00061
-0.986817
-0.973735
-1.07923
-1.08513
-1.08421
-1.08035
-1.07428
-1.06652
-1.05732
-1.047
-1.03645
-1.0268
-1.12787
-1.13268
-1.13121
-1.12724
-1.12176
-1.11565
-1.10932
-1.10279
-1.09648
-1.09132
-0.772922
-0.648184
-0.589847
-0.505712
-0.406872
-0.299457
-0.204202
-0.126626
-0.067498
-0.0188428
-0.774027
-0.649771
-0.591129
-0.499346
-0.395503
-0.289403
-0.19604
-0.121
-0.0641808
-0.0177447
-0.783155
-0.657118
-0.596463
-0.494696
-0.386037
-0.279605
-0.187592
-0.114865
-0.0603116
-0.0162989
-0.801071
-0.671392
-0.6065
-0.491994
-0.378477
-0.270224
-0.179005
-0.108412
-0.0561233
-0.0147022
-0.82521
-0.69309
-0.621199
-0.491433
-0.372238
-0.261145
-0.17027
-0.101684
-0.0517046
-0.0130659
-0.853804
-0.723228
-0.640952
-0.493502
-0.367292
-0.252362
-0.16139
-0.0947054
-0.0471052
-0.0114368
-0.890136
-0.763293
-0.666944
-0.499031
-0.363831
-0.243873
-0.152321
-0.0874513
-0.042324
-0.00982221
-0.938471
-0.815942
-0.700273
-0.509091
-0.362131
-0.235665
-0.142958
-0.0798252
-0.0372887
-0.00819113
-1.00065
-0.88518
-0.744156
-0.524871
-0.362553
-0.227728
-0.133165
-0.0716886
-0.0318784
-0.00648496
-1.07771
-0.973417
-0.801997
-0.547797
-0.365566
-0.220062
-0.122799
-0.0628909
-0.0259567
-0.00462958
-0.759956
-0.65564
-0.591963
-0.507014
-0.403917
-0.298666
-0.206282
-0.128466
-0.0678824
-0.0189667
-0.752449
-0.649072
-0.588798
-0.507458
-0.40531
-0.300659
-0.20798
-0.129763
-0.0686633
-0.0192307
-0.749425
-0.64399
-0.586159
-0.507371
-0.406291
-0.301355
-0.208286
-0.129844
-0.0687685
-0.0191284
-0.748832
-0.639689
-0.582984
-0.505359
-0.408309
-0.302901
-0.208932
-0.130194
-0.0692335
-0.019239
-0.757529
-0.638938
-0.582071
-0.502362
-0.410028
-0.303991
-0.208773
-0.129937
-0.0693513
-0.0193919
-0.52792
-0.632027
-0.708488
-0.760306
-0.792728
-0.812713
-0.821327
-0.823323
-0.817571
-0.803325
-0.525667
-0.630401
-0.705438
-0.754868
-0.784415
-0.802144
-0.80971
-0.811017
-0.807609
-0.792311
-0.52758
-0.632728
-0.707571
-0.756453
-0.785697
-0.803918
-0.812232
-0.813731
-0.810777
-0.794553
-0.53171
-0.63835
-0.713883
-0.763291
-0.793649
-0.813232
-0.823061
-0.824514
-0.821318
-0.805359
-0.538788
-0.64739
-0.72437
-0.775316
-0.808014
-0.829812
-0.841956
-0.84427
-0.840491
-0.827983
1.10206
1.09463
1.08347
1.07142
1.05923
1.04639
1.03295
1.02033
1.01158
1.01392
1.18657
1.18473
1.17976
1.17353
1.16661
1.15871
1.14993
1.14156
1.13656
1.14223
1.26521
1.26617
1.26495
1.26273
1.25994
1.25637
1.25202
1.24771
1.246
1.25444
1.33581
1.33908
1.34105
1.34235
1.34316
1.34323
1.3424
1.34102
1.3415
1.35236
1.39605
1.40117
1.40563
1.40963
1.41317
1.41598
1.41777
1.41845
1.42025
1.43277
1.44475
1.45133
1.45777
1.46392
1.46963
1.47466
1.47854
1.48076
1.4831
1.49578
1.48024
1.48774
1.4955
1.50314
1.51038
1.51705
1.5227
1.52649
1.52944
1.53977
1.501
1.50872
1.51692
1.52499
1.53266
1.53979
1.54611
1.55088
1.5544
1.56351
1.50578
1.51296
1.52056
1.52788
1.5346
1.54056
1.54554
1.54906
1.55252
1.56669
1.49395
1.4999
1.50607
1.51176
1.51664
1.52055
1.52336
1.52498
1.52744
1.54216
-0.413089
-0.440185
-0.474514
-0.515229
-0.561576
-0.613692
-0.670983
-0.727625
-0.777929
-0.812004
-0.249015
-0.278787
-0.314544
-0.356022
-0.403096
-0.455204
-0.510615
-0.565949
-0.616349
-0.649141
-0.0676487
-0.100135
-0.137315
-0.179181
-0.225792
-0.276788
-0.330516
-0.383789
-0.431521
-0.463012
0.12038
0.085953
0.0478955
0.00623393
-0.0391548
-0.0881328
-0.139315
-0.189399
-0.233858
-0.260608
0.304099
0.269266
0.231738
0.19164
0.14872
0.102908
0.0553562
0.00927437
-0.0308859
-0.0524926
0.475076
0.441872
0.406797
0.369957
0.330911
0.289424
0.246488
0.205277
0.170321
0.153543
0.629626
0.600101
0.569377
0.537307
0.503255
0.466948
0.429358
0.39364
0.364368
0.35155
0.769559
0.744784
0.719283
0.692529
0.663826
0.633026
0.601164
0.571266
0.54757
0.538492
0.901218
0.880368
0.858655
0.836024
0.811963
0.786369
0.76017
0.735972
0.717478
0.712176
1.02215
1.0043
0.984337
0.964587
0.94486
0.924648
0.904345
0.88582
0.872241
0.870734
1.55924
1.48009
1.46561
1.42664
1.41035
1.3935
1.37292
1.34872
1.30054
1.21789
1.54514
1.47714
1.46671
1.42955
1.41373
1.39784
1.38015
1.35915
1.32535
1.27413
1.53299
1.47384
1.4663
1.43139
1.41601
1.40096
1.38614
1.37024
1.35105
1.32741
1.52265
1.47031
1.46494
1.43266
1.41757
1.40317
1.39099
1.38018
1.37298
1.37274
1.5139
1.46682
1.46294
1.43334
1.41843
1.40438
1.39439
1.38788
1.39048
1.40966
1.50654
1.46346
1.46054
1.43336
1.41858
1.40455
1.39623
1.39308
1.40361
1.43822
1.50044
1.46024
1.45802
1.43276
1.41805
1.40368
1.39649
1.39571
1.41221
1.4583
1.49547
1.45715
1.45555
1.43161
1.4169
1.40182
1.39523
1.39571
1.41604
1.46964
1.49151
1.45421
1.45326
1.43001
1.41517
1.39899
1.39252
1.39311
1.41488
1.47199
1.48846
1.45144
1.45116
1.42802
1.41287
1.39524
1.38848
1.38794
1.40861
1.46505
1.68107
1.49037
1.45346
1.40552
1.39145
1.37246
1.34376
1.30486
1.23139
1.13468
1.64226
1.49372
1.46065
1.41009
1.39407
1.37432
1.34488
1.30579
1.23018
1.12463
1.61793
1.49419
1.46336
1.41332
1.39651
1.3772
1.34837
1.31074
1.23726
1.1283
1.5951
1.49151
1.46374
1.4181
1.40077
1.38209
1.35507
1.32059
1.24907
1.13975
1.57581
1.48477
1.46367
1.42235
1.40544
1.38759
1.36328
1.33164
1.26636
1.15808
0.935716
0.850009
0.743206
0.612806
0.461166
0.292041
0.112327
-0.0683714
-0.24043
-0.395688
0.927333
0.842731
0.737894
0.610752
0.463196
0.297506
0.119266
-0.0620468
-0.236043
-0.393193
0.939237
0.85264
0.745751
0.618193
0.471037
0.305442
0.126399
-0.0567633
-0.233181
-0.392777
0.963715
0.869075
0.756721
0.627541
0.479658
0.313045
0.13242
-0.0530923
-0.23234
-0.394732
1.00394
0.893795
0.770516
0.636856
0.486859
0.318711
0.136355
-0.0515754
-0.233865
-0.39934
)
;

boundaryField
{
    left
    {
        type            zeroGradient;
    }
    right
    {
        type            fixedValue;
        value           uniform 0;
    }
    down
    {
        type            zeroGradient;
    }
    up
    {
        type            zeroGradient;
    }
    cylinder
    {
        type            zeroGradient;
    }
    defaultFaces
    {
        type            empty;
    }
}


// ************************************************************************* //
