/*--------------------------------*- C++ -*----------------------------------*\
| =========                 |                                                 |
| \\      /  F ield         | OpenFOAM: The Open Source CFD Toolbox           |
|  \\    /   O peration     | Version:  2406                                  |
|   \\  /    A nd           | Website:  www.openfoam.com                      |
|    \\/     M anipulation  |                                                 |
\*---------------------------------------------------------------------------*/
FoamFile
{
    version     2.0;
    format      ascii;
    arch        "LSB;label=32;scalar=64";
    class       surfaceScalarField;
    location    "1.1";
    object      phi;
}
// * * * * * * * * * * * * * * * * * * * * * * * * * * * * * * * * * * * * * //

dimensions      [0 3 -1 0 0 0 0];

oriented        oriented;

internalField   nonuniform List<scalar> 
3485
(
-0.000279286
0.000178904
0.000100382
0.000393905
0.000555947
-0.00122914
0.0034272
0.00125576
-0.00428905
0.00937404
0.00117587
-0.00712272
0.0185811
-0.000885444
-0.00832162
0.031116
-0.00491886
-0.00761607
0.0469875
-0.0105929
-0.00527854
0.0662448
-0.0175602
-0.00169712
0.0888779
-0.0257106
0.00307749
-0.0305106
0.00782182
0.111567
-0.000757631
0.000936534
-0.00115107
0.000949389
0.00023852
-0.000133834
0.00523864
-0.00382425
0.0145908
-0.0102376
0.0281516
-0.0184796
0.0454066
-0.0278478
0.0656596
-0.0378133
0.0881011
-0.0481521
-0.0545642
0.112155
-1.53998e-06
0.000938074
0.000413479
0.00053437
0.0036299
-0.00335026
0.0115527
-0.011747
0.0243895
-0.0230744
0.0415815
-0.0356716
0.0621599
-0.0484262
0.0850477
-0.0607011
0.109354
-0.0724586
-0.0800439
0.134834
0.000319837
0.000618238
0.00262824
-0.00177403
0.00989887
-0.0106209
0.0225927
-0.0244409
0.0399674
-0.0404491
0.060807
-0.0565113
0.0837684
-0.0713876
0.107719
-0.084652
0.131845
-0.0965847
-0.104746
0.156547
0.000884362
-0.000266124
0.00634721
-0.00723688
0.0180009
-0.0222746
0.035149
-0.041589
0.056092
-0.0613921
0.0789927
-0.079412
0.102416
-0.0948105
0.125508
-0.107744
0.147776
-0.118852
-0.12756
0.170589
0.00190672
-0.00217285
0.0107117
-0.0160419
0.0263234
-0.0378863
0.0467416
-0.0620072
0.0693908
-0.0840413
0.092234
-0.102255
0.114156
-0.116733
0.134793
-0.128381
0.154173
-0.138232
-0.146846
0.173459
0.00338818
-0.00556103
0.0152467
-0.0279004
0.0339208
-0.0565604
0.0559513
-0.0840377
0.0783222
-0.106412
0.0993677
-0.123301
0.118557
-0.135922
0.135966
-0.14579
0.151872
-0.154138
-0.161703
0.166729
0.00484864
-0.0104097
0.0193075
-0.0423593
0.0396631
-0.076916
0.0613711
-0.105746
0.081646
-0.126687
0.0995178
-0.141172
0.115025
-0.151429
0.128526
-0.159291
0.140345
-0.165957
-0.172094
0.150736
0.00624396
-0.0166536
0.0224828
-0.0585981
0.0427648
-0.097198
0.0622473
-0.125228
0.0789209
-0.143361
0.0926411
-0.154893
0.103945
-0.162733
0.113389
-0.168736
0.121353
-0.17392
-0.178767
0.128026
0.0074787
-0.0241323
0.0242086
-0.075328
0.0424938
-0.115483
0.0581256
-0.14086
0.070269
-0.155504
0.0795922
-0.164216
0.0869625
-0.170103
0.0929745
-0.174748
0.0979179
-0.178864
0.101861
-0.182711
-0.00160354
0.0202093
-0.0186057
-0.00522492
0.0403734
-0.036752
-0.00971123
0.0491013
-0.044615
-0.0145084
0.0528299
-0.0480327
-0.0194167
0.0543074
-0.0493991
-0.024296
0.0544594
-0.0495801
-0.029031
0.0537066
-0.0489715
-0.0335658
0.052304
-0.0477693
-0.0378854
0.0503991
-0.0460796
0.0481657
-0.0420227
-0.0440284
-0.000566621
0.0207759
-0.0028415
0.0426483
-0.00609911
0.0523589
-0.00977543
0.0565062
-0.0136959
0.0582279
-0.0178089
0.0585724
-0.0219767
0.0578744
-0.0260465
0.0563738
-0.0299743
0.0543269
0.0520021
-0.0338107
0.000669636
0.0201062
0.000177941
0.04314
-0.00144982
0.0539867
-0.00353508
0.0585915
-0.00572531
0.0604181
-0.00802832
0.0608754
-0.0105519
0.0603979
-0.0133117
0.0591336
-0.0162092
0.0572245
0.0548158
-0.019023
0.00203283
0.0180734
0.00386368
0.0413091
0.00467356
0.0531768
0.00487406
0.058391
0.00488854
0.0604036
0.00482106
0.0609429
0.00450891
0.0607101
0.00372831
0.0599142
0.00246611
0.0584867
0.0565009
0.00078101
0.00365138
0.014422
0.00860541
0.0363551
0.0127746
0.0490076
0.0159917
0.0551739
0.0184978
0.0578975
0.0205344
0.0589062
0.0223073
0.0589373
0.0239569
0.0582646
0.0255638
0.0568798
0.0547817
0.0272829
0.00456257
0.00985947
0.0121016
0.028816
0.0194954
0.0416138
0.0259519
0.0487174
0.0315744
0.0522751
0.0366489
0.0538317
0.0414184
0.0541678
0.0460768
0.0536061
0.0507745
0.0521821
0.0498361
0.0557202
0.0044111
0.00544837
0.013232
0.0199951
0.0230343
0.0318114
0.0324466
0.0393051
0.0412504
0.0434713
0.0496162
0.045466
0.0577562
0.0460277
0.0658273
0.045535
0.0739452
0.0440641
0.0413125
0.0824688
0.00336398
0.00208439
0.0118739
0.0114853
0.0226339
0.0210514
0.0339975
0.0279415
0.0453819
0.0320868
0.05673
0.0341179
0.0681434
0.0346142
0.0796888
0.0339897
0.0913416
0.0324113
0.0288574
0.103797
0.00177564
0.000308749
0.00845196
0.00480895
0.018296
0.0112074
0.0297955
0.016442
0.0422422
0.0196401
0.0554511
0.020909
0.0694367
0.0206286
0.0842068
0.0192196
0.099687
0.0169311
0.0120124
0.116532
0.000409131
0.00398894
0.0109073
0.0202266
0.0315451
0.0448381
0.0601881
0.0777106
0.0977192
0.117553
-0.0537822
0.303184
-0.291425
-0.0291359
0.0394596
-0.0641059
0.00882776
-0.14234
0.104376
0.0513753
-0.249435
0.206888
0.0889484
-0.274606
0.237033
0.116635
-0.251226
0.223539
0.135065
-0.208044
0.189614
0.146085
-0.158563
0.147544
0.152778
-0.118707
0.112015
-0.0603443
0.0582983
-0.0550631
0.324437
-0.0399916
0.0243881
-0.000122013
-0.18221
0.0449588
-0.294516
0.0857086
-0.315356
0.115643
-0.28116
0.135579
-0.227981
0.147449
-0.170433
0.154821
-0.12608
-0.0627314
-0.048279
0.353693
-0.043172
0.0192811
-0.00340311
-0.221979
0.0435931
-0.341512
0.0856266
-0.357389
0.116297
-0.31183
0.136845
-0.248529
0.149136
-0.182724
0.15707
-0.134014
-0.0655507
-0.0304394
0.384913
-0.0336533
0.022495
0.00456781
-0.2602
0.0515878
-0.388532
0.0923442
-0.398146
0.121236
-0.340722
0.140546
-0.267839
0.152186
-0.194364
0.160173
-0.142
-0.0687553
-0.00281327
0.415009
-0.0107622
0.0304439
0.0242622
-0.295224
0.0708717
-0.435142
0.10897
-0.436244
0.133671
-0.365423
0.149178
-0.283346
0.158318
-0.203504
0.165251
-0.148933
-0.0720429
0.0322715
0.438458
0.0204521
0.0422633
0.0510552
-0.325827
0.0972962
-0.481383
0.134615
-0.473563
0.155336
-0.386144
0.165288
-0.293298
0.169834
-0.20805
0.17402
-0.153119
-0.0747607
0.0711821
0.449745
0.0548974
0.058548
0.0772477
-0.348177
0.12242
-0.526555
0.162616
-0.513758
0.183485
-0.407012
0.189261
-0.299075
0.188523
-0.207312
0.188422
-0.153018
-0.0760797
0.109141
0.444401
0.0900312
0.0776574
0.102164
-0.36031
0.142987
-0.567378
0.186178
-0.55695
0.211605
-0.432439
0.217602
-0.305072
0.213693
-0.203402
0.209325
-0.14865
-0.0756409
0.143659
0.417274
0.12404
0.0972758
0.129819
-0.366089
0.163388
-0.600947
0.20504
-0.598602
0.234829
-0.462229
0.244773
-0.315015
0.241526
-0.200155
0.235041
-0.142165
-0.0741695
0.16921
0.365617
0.158159
0.108328
0.160565
-0.368496
0.18721
-0.627591
0.22343
-0.634822
0.253104
-0.491903
0.266952
-0.328863
0.267068
-0.200271
0.261607
-0.136704
-0.0733035
0.319395
0.270415
-0.224193
0.427789
-6.64011e-05
0.512995
-0.453702
0.549231
-0.663827
0.544159
-0.629751
0.526344
-0.474088
0.505829
-0.308347
0.483147
-0.17759
0.459749
-0.113305
-0.0607967
0.493905
0.208136
-0.431626
0.619707
-0.125869
0.689265
-0.52326
0.691753
-0.666315
0.650303
-0.588301
0.59823
-0.422015
0.55594
-0.266057
0.526182
-0.147832
0.502838
-0.0899613
-0.0486288
0.69806
0.143835
-0.633759
0.781585
-0.209394
0.797362
-0.539037
0.763437
-0.63239
0.707577
-0.532441
0.646715
-0.361153
0.594234
-0.213576
0.557545
-0.111142
0.531493
-0.0639096
-0.0358518
0.841926
0.068846
-0.766937
0.884339
-0.251807
0.86682
-0.521517
0.807782
-0.573353
0.732226
-0.456885
0.660803
-0.28973
0.604585
-0.157358
0.566909
-0.0734667
0.540403
-0.0374029
-0.023196
0.917315
-0.00357644
-0.844893
0.940478
-0.27497
0.910387
-0.491427
0.840734
-0.5037
0.75296
-0.369111
0.669515
-0.206284
0.605391
-0.0932343
0.564571
-0.032647
0.538049
-0.0108805
-0.0110027
0.954273
-0.0674451
-0.890404
0.971257
-0.291954
0.921322
-0.441492
0.823531
-0.405908
0.719038
-0.264618
0.635288
-0.122534
0.578124
-0.0360699
0.544271
0.00120551
0.523509
0.00988235
-0.000872616
0.962577
-0.120171
-0.909851
0.960307
-0.289684
0.880329
-0.361514
0.759243
-0.284823
0.645399
-0.150774
0.566008
-0.0431434
0.520406
0.00953292
0.49776
0.0238507
0.486098
0.0215447
0.00558722
0.912237
-0.147325
-0.885083
0.859693
-0.237139
0.730033
-0.231855
0.587823
-0.142612
0.485496
-0.0484463
0.433091
0.00926122
0.412649
0.0299745
0.407445
0.0290549
0.407202
0.0217879
0.00706888
0.706748
-0.114138
-0.739936
0.577642
-0.108033
0.413979
-0.0681919
0.296913
-0.0255465
0.247004
0.00146293
0.240754
0.0155117
0.250959
0.0197688
0.263366
0.0166479
0.273332
0.0118223
0.00417122
0.227012
-0.34115
0.118979
0.0507874
0.0252409
0.0267039
0.0422155
0.0619843
0.0786322
0.0904545
0.526438
0.0964024
-0.520979
0.530651
0.123814
0.532221
0.149165
0.526224
0.172726
0.510035
0.189648
0.476319
0.204305
0.424371
0.208495
0.352634
0.206571
0.273247
0.191541
0.160621
0.551214
0.0849052
-0.539717
0.562181
0.112846
0.574191
0.137155
0.582555
0.164363
0.587252
0.184951
0.584848
0.206709
0.57003
0.223314
0.546394
0.230207
0.491297
0.246638
0.220292
0.574385
0.0722188
-0.561699
0.587805
0.0994266
0.603688
0.121272
0.620038
0.148013
0.63497
0.170018
0.65054
0.191139
0.65878
0.215075
0.664936
0.224051
0.658827
0.252747
0.245361
0.594696
0.0600424
-0.58252
0.609451
0.0846712
0.626892
0.103832
0.647226
0.127679
0.668543
0.148701
0.691578
0.168104
0.71451
0.192142
0.734752
0.203809
0.756836
0.230662
0.23526
0.605925
0.047987
-0.59387
0.622085
0.0685111
0.641158
0.0847582
0.664233
0.104604
0.690169
0.122765
0.717968
0.140305
0.749516
0.160594
0.779199
0.174127
0.814338
0.195523
0.204705
0.605631
0.0353996
-0.593043
0.6229
0.0512422
0.643935
0.0637227
0.669019
0.0795203
0.698507
0.093277
0.73059
0.108223
0.767628
0.123556
0.80527
0.136484
0.8482
0.152593
0.162501
0.592998
0.0223352
-0.579934
0.61075
0.0334901
0.633307
0.0411661
0.659548
0.053279
0.691554
0.0612708
0.72639
0.0733864
0.767338
0.0826081
0.810504
0.0933185
0.859778
0.103319
0.112428
0.560504
0.00993543
-0.548104
0.578143
0.015851
0.599757
0.0195524
0.625981
0.0270546
0.657292
0.0299594
0.692324
0.0383549
0.734115
0.0408169
0.778728
0.048706
0.830959
0.0510882
0.0583038
0.480039
0.000645196
-0.470748
0.493656
0.00223404
0.509785
0.00342244
0.531141
0.00569884
0.554707
0.00639384
0.58391
0.00915189
0.615915
0.00881185
0.652949
0.0116714
0.693894
0.0101441
0.0122618
0.27136
-0.270715
0.273594
0.277017
0.282715
0.289109
0.298261
0.307073
0.318744
0.328888
0.0676791
0.136549
-0.124405
-0.0798229
0.0571572
0.136809
-0.126287
0.0478809
0.137467
-0.12819
0.0392279
0.138705
-0.130052
0.0308496
0.139935
-0.131556
0.0227075
0.140418
-0.132276
0.0149579
0.138833
-0.131083
0.00786226
0.132759
-0.125663
0.00227449
0.114432
-0.108844
0.0616586
-0.0593841
0.0656432
0.147508
-0.0766019
0.0551669
0.147285
0.045436
0.147198
0.036456
0.147685
0.0280338
0.148357
0.0201119
0.14834
0.0128003
0.146144
0.00630968
0.139249
0.00155086
0.11919
0.0632094
0.0582091
0.157293
-0.0679943
0.0484824
0.157012
0.0392278
0.156452
0.030658
0.156255
0.0227764
0.156238
0.0155961
0.15552
0.00919416
0.152546
0.00379014
0.144653
0.000298605
0.122682
0.063508
0.0460034
0.165685
-0.0543955
0.0376288
0.165387
0.0295337
0.164547
0.0219948
0.163793
0.015172
0.163061
0.00920928
0.161483
0.0041803
0.157575
0.000253873
0.14858
-0.00113699
0.124073
0.062371
0.0305573
0.172626
-0.0374987
0.0237918
0.172152
0.0172766
0.171063
0.01122
0.16985
0.00587716
0.168404
0.00151758
0.165843
-0.00181693
0.16091
-0.00365244
0.150415
-0.00286902
0.123289
0.059502
0.0133779
0.178091
-0.0188428
0.00822846
0.177302
0.00337535
0.175916
-0.000973129
0.174198
-0.00443638
0.171867
-0.00688132
0.168288
-0.00838432
0.162413
-0.00802023
0.150051
-0.00463406
0.119903
0.054868
-0.00578566
0.182103
0.00177336
-0.00923533
0.180751
-0.0121357
0.178816
-0.0142948
0.176358
-0.0156077
0.17318
-0.016194
0.168874
-0.0156461
0.161865
-0.0126131
0.147018
-0.00630318
0.113593
0.0485648
-0.0271087
0.184274
0.0249377
-0.0284687
0.182111
-0.0290972
0.179445
-0.0290548
0.176315
-0.0284228
0.172548
-0.0269687
0.16742
-0.0237312
0.158627
-0.017338
0.140625
-0.00769151
0.103947
0.0408733
-0.049473
0.18443
0.0493169
-0.0488023
0.181441
-0.0474766
0.178119
-0.0455339
0.174372
-0.0427838
0.169798
-0.0386076
0.163244
-0.0318717
0.151891
-0.0214314
0.130185
-0.00842882
0.0909442
0.0324445
-0.0731994
0.0749192
-0.0706226
-0.0672521
-0.0629827
-0.0574006
-0.0496612
-0.0386298
-0.0239282
-0.00831213
0.0897198
0.0373398
-0.100226
-0.0268332
0.0791327
0.0382379
-0.0276508
0.0684743
0.0391461
-0.0284877
0.0577536
0.0400317
-0.029311
0.0469778
0.0408271
-0.0300512
0.0361646
0.0413475
-0.0305344
0.0253912
0.0411082
-0.0303347
0.0149145
0.0390274
-0.0285507
0.00555311
0.0329117
-0.0235504
0.0177604
-0.0122073
0.090693
0.0479975
-0.101351
0.0799722
0.0489587
0.0691761
0.0499421
0.0583189
0.050889
0.0474137
0.0517323
0.0364848
0.0522764
0.0256087
0.0519843
0.015029
0.049607
0.0055684
0.0423724
0.0233288
0.091893
0.0586004
-0.102496
0.081186
0.0596657
0.0703866
0.0607415
0.0594893
0.0617863
0.0484918
0.0627298
0.0374095
0.0633587
0.0263267
0.0630672
0.0155016
0.0604321
0.00576688
0.052107
0.0290957
0.0897518
0.0692425
-0.100394
0.0790866
0.0703309
0.0683759
0.0714522
0.0576296
0.0725326
0.0468465
0.0735129
0.0360347
0.0741705
0.025266
0.0738359
0.0147815
0.0709166
0.00540845
0.0614801
0.0345042
0.0889666
0.0798402
-0.0995643
0.0783298
0.0809676
0.0676469
0.0821351
0.0569267
0.0832528
0.0461785
0.0842611
0.0354305
0.0849185
0.0247765
0.0844899
0.0144564
0.0812367
0.00525722
0.0706793
0.0397614
0.0865733
0.0901851
-0.0969182
0.0761765
0.0913645
0.0657091
0.0926025
0.0552032
0.0937587
0.0446824
0.0947819
0.0341803
0.0954206
0.0237949
0.0948753
0.0137728
0.0912588
0.00490684
0.0795453
0.0446682
0.0826593
0.0999946
-0.0924687
0.0729082
0.101115
0.0630872
0.102424
0.0531294
0.103716
0.0430326
0.104879
0.0328645
0.105589
0.0227868
0.104953
0.0130923
0.100953
0.00461487
0.0880227
0.0492831
0.0761171
0.109788
-0.0859102
0.0665537
0.110679
0.0571698
0.111807
0.0479062
0.11298
0.0386635
0.114121
0.0294042
0.114848
0.0202364
0.114121
0.0114419
0.109748
0.00386754
0.0955971
0.0531506
0.0730793
0.118132
-0.0814233
0.0644393
0.119319
0.0553378
0.120909
0.0460215
0.122296
0.0367067
0.123436
0.027539
0.124016
0.0186822
0.122978
0.0103785
0.118052
0.00339729
0.102578
0.0565479
0.063204
-0.0694774
0.0562358
0.0489543
0.0411988
0.0330789
0.0248186
0.0167129
0.00910159
0.00283614
0.203179
-0.0217143
0.0165248
0.205995
0.0607316
-0.0635471
0.203223
0.153366
-0.150595
0.19844
0.18027
-0.175486
0.193787
0.167274
-0.162622
0.189027
0.160273
-0.155513
0.182325
0.153282
-0.14658
0.172303
0.170227
-0.160205
0.148901
0.195292
-0.17189
0.254528
-0.205853
0.203007
-0.0267319
0.205097
0.0586416
0.201475
0.156989
0.196121
0.185623
0.191145
0.17225
0.18649
0.164928
0.180697
0.159075
0.171319
0.179605
0.149022
0.217589
0.302199
0.202748
-0.0314902
0.204001
0.0573883
0.199311
0.16168
0.193054
0.19188
0.187495
0.17781
0.182719
0.169703
0.177687
0.164107
0.168571
0.188722
0.147703
0.238457
0.347406
0.202403
-0.0359036
0.202728
0.0570638
0.1967
0.167708
0.189199
0.19938
0.182948
0.184061
0.17798
0.174672
0.173465
0.168622
0.164238
0.197949
0.14469
0.258004
0.391702
0.201994
-0.0399075
0.201312
0.0577458
0.193603
0.175416
0.18464
0.208343
0.177783
0.190917
0.172568
0.179887
0.168207
0.172983
0.158272
0.207884
0.140812
0.275463
0.432951
0.201548
-0.0434652
0.199762
0.0595314
0.190019
0.185159
0.179688
0.218675
0.172401
0.198204
0.166713
0.185576
0.16204
0.177656
0.15113
0.218794
0.135933
0.290661
0.471966
0.201033
-0.0465083
0.198023
0.0625415
0.186098
0.197084
0.174785
0.229988
0.167107
0.205882
0.160561
0.192122
0.155241
0.182975
0.143059
0.230976
0.129712
0.304007
0.509209
0.200302
-0.0488203
0.196035
0.0668084
0.18216
0.210959
0.170257
0.241891
0.162045
0.214094
0.154315
0.199851
0.14824
0.189051
0.134539
0.244677
0.123784
0.314762
0.547083
0.199177
-0.050007
0.193871
0.0721141
0.178607
0.226222
0.166284
0.254214
0.157462
0.222916
0.148546
0.208768
0.141749
0.195847
0.12725
0.259176
0.117328
0.324684
0.582988
0.197613
-0.0496307
0.191623
0.0781051
0.175829
0.242016
0.16328
0.266763
0.154369
0.231827
0.144697
0.218439
0.13686
0.203684
0.119822
0.276214
0.112043
0.332464
0.625553
0.306116
-0.0537367
0.314297
0.069924
0.315073
0.241241
0.311727
0.270109
0.313835
0.229718
0.311079
0.221195
0.319614
0.195149
0.317114
0.278715
0.366122
0.283455
0.54326
0.448415
0.30226
-0.0539863
0.315923
0.0562607
0.331855
0.225308
0.342543
0.259421
0.353971
0.218291
0.361803
0.213364
0.371705
0.185247
0.374611
0.275809
0.404831
0.253235
0.472812
0.475279
0.298995
-0.0509715
0.318973
0.0362831
0.35146
0.192821
0.379974
0.230907
0.396354
0.201911
0.419071
0.190647
0.42669
0.177628
0.441531
0.260967
0.468936
0.225831
0.420016
0.521732
0.295579
-0.0445401
0.320287
0.0115754
0.367044
0.146064
0.411095
0.186856
0.430265
0.182741
0.464432
0.15648
0.474676
0.167384
0.494692
0.24095
0.529166
0.191357
0.375764
0.573417
0.294039
-0.0365686
0.319401
-0.0137869
0.375404
0.0900611
0.42848
0.133779
0.453097
0.158124
0.490351
0.119226
0.507502
0.150233
0.529178
0.219275
0.56753
0.153005
0.323019
0.620275
0.295324
-0.0298825
0.318728
-0.0371904
0.376689
0.0321001
0.431511
0.0789569
0.464258
0.125377
0.499838
0.0836462
0.523555
0.126515
0.549951
0.192879
0.588284
0.114673
0.260935
0.650368
0.299764
-0.0276363
0.319625
-0.0570516
0.370439
-0.0187139
0.419081
0.0303147
0.45897
0.0854887
0.491002
0.0516143
0.519006
0.0985117
0.556768
0.155116
0.592878
0.0785633
0.195769
0.658044
0.306613
-0.0322395
0.319205
-0.0696436
0.351122
-0.0506305
0.383456
-0.00201936
0.425528
0.0434169
0.450561
0.0265816
0.481331
0.0677414
0.535745
0.100702
0.566908
0.0473999
0.131073
0.631604
0.307294
-0.037523
0.299323
-0.0616726
0.296395
-0.0477025
0.304483
-0.0101081
0.335295
0.0126053
0.350452
0.0114244
0.388203
0.0299903
0.447858
0.0410474
0.472521
0.0227372
0.0601061
0.543488
0.264487
0.202815
0.155112
0.145004
0.157609
0.169034
0.199024
0.240071
0.262809
0.322915
0.465607
-0.0970148
0.474183
-0.0851777
0.480753
-0.0745646
0.486367
-0.060009
0.492351
-0.0434826
0.498061
-0.0245526
0.503832
-0.00399859
0.509857
0.0189135
0.515586
0.0435873
0.0695265
0.482688
-0.104424
0.488275
-0.0907647
0.49271
-0.0789997
0.496519
-0.0638184
0.501739
-0.0487028
0.506923
-0.0297363
0.514039
-0.0111148
0.521322
0.0116302
0.530551
0.0343591
0.0603606
0.520895
-0.103587
0.522228
-0.0920973
0.524136
-0.0809085
0.526156
-0.0658381
0.529303
-0.0518495
0.532651
-0.0330843
0.537881
-0.0163446
0.543459
0.00605198
0.552319
0.0254986
0.0509813
0.568167
-0.0983366
0.564908
-0.0888377
0.562168
-0.0781686
0.560694
-0.0643648
0.559904
-0.0510586
0.560522
-0.0337024
0.562653
-0.0184759
0.566627
0.00207801
0.573437
0.0186882
0.0418991
0.610341
-0.0884026
0.601351
-0.079848
0.593035
-0.0698524
0.58661
-0.0579395
0.581215
-0.0456635
0.57844
-0.0309279
0.577399
-0.0174344
0.579863
-0.000386331
0.584841
0.01371
0.0328709
0.635532
-0.0735667
0.620569
-0.0648852
0.606981
-0.0562645
0.595851
-0.0468095
0.586847
-0.036659
0.581291
-0.0253723
0.578333
-0.0144763
0.579648
-0.00170097
0.583955
0.0094027
0.0237823
0.636766
-0.0522892
0.617526
-0.0456447
0.600541
-0.0392804
0.586678
-0.032946
0.575892
-0.0258729
0.569122
-0.0186023
0.565604
-0.0109588
0.566464
-0.00256056
0.57072
0.00514678
0.0145687
0.607534
-0.0282188
0.586932
-0.0250434
0.569306
-0.0216545
0.555055
-0.0186941
0.544291
-0.0151092
0.537352
-0.0116633
0.53394
-0.00754739
0.534863
-0.00348263
0.539167
0.00084201
0.00563202
0.523893
-0.0086244
0.506716
-0.00786617
0.492316
-0.00725423
0.480515
-0.00689297
0.471617
-0.0062113
0.465426
-0.00547307
0.462207
-0.00432743
0.461897
-0.00317286
0.464548
-0.00180956
-0.000568026
0.31429
0.306424
0.29917
0.292277
0.286066
0.280593
0.276265
0.273092
0.271283
0.00424456
0.0422987
-0.0465432
0.00799214
0.0933771
-0.0971246
0.00939799
0.118925
-0.120331
0.0094643
0.130022
-0.130089
0.00941433
0.134396
-0.134346
0.00897478
0.136906
-0.136466
0.00779576
0.137801
-0.136622
0.00624542
0.136042
-0.134492
0.00483622
0.130922
-0.129513
0.12058
0.00402533
-0.119769
0.00542546
0.0368732
0.0117238
0.0870787
0.0158429
0.114806
0.0181753
0.12769
0.0196504
0.132921
0.0208763
0.13568
0.0216723
0.137005
0.0218644
0.13585
0.021662
0.131125
0.121111
0.0211302
0.0061634
0.0307098
0.0148071
0.0784349
0.0216003
0.108013
0.0262085
0.123082
0.0293834
0.129746
0.032055
0.133008
0.0344811
0.134579
0.0362972
0.134034
0.0372956
0.130126
0.121237
0.03717
0.00632691
0.0243829
0.0169258
0.0678361
0.0262966
0.0986423
0.033185
0.116193
0.0381865
0.124744
0.0423316
0.128863
0.0461018
0.130809
0.0492947
0.130841
0.0514426
0.127978
0.120699
0.0519807
0.00593264
0.0184503
0.0178151
0.0559536
0.0296929
0.0867646
0.0390532
0.106833
0.0460024
0.117795
0.0515942
0.123271
0.0565421
0.125861
0.060886
0.126497
0.0641028
0.124762
0.119389
0.0654129
0.00510755
0.0133427
0.0172583
0.0438028
0.0312791
0.0727438
0.0434523
0.0946598
0.0528266
0.108421
0.0601295
0.115968
0.0663002
0.11969
0.0717359
0.121062
0.0761252
0.120372
0.116915
0.0785988
0.00405872
0.00928401
0.0152291
0.0326325
0.0302034
0.0577694
0.0450119
0.0798513
0.0574418
0.0959911
0.0672561
0.106154
0.0751774
0.111769
0.0819002
0.114339
0.0875509
0.114722
0.112878
0.0915877
0.00301674
0.00626726
0.0122099
0.0234393
0.0262448
0.0437345
0.0421764
0.0639197
0.0572774
0.0808901
0.0701883
0.0932431
0.0807931
0.101164
0.0895624
0.10557
0.0968746
0.10741
0.107162
0.102591
0.00212834
0.00413892
0.00893531
0.0166324
0.0203848
0.032285
0.0351089
0.0491956
0.0509545
0.0650445
0.0661157
0.078082
0.0796486
0.0876313
0.0913655
0.0938528
0.101529
0.0972463
0.0980796
0.110611
0.00131142
0.00282751
0.00566181
0.012282
0.013642
0.0243049
0.0251475
0.0376901
0.0390829
0.051109
0.0539466
0.0632183
0.0684688
0.0731092
0.0818459
0.0804756
0.0937277
0.0853645
0.087538
0.104269
0.000455688
0.00237182
0.00242399
0.0103137
0.00684279
0.0198861
0.0143243
0.0302086
0.0247103
0.040723
0.0371676
0.0507611
0.0506666
0.0596101
0.0643359
0.0668064
0.0774712
0.0722291
0.0759532
0.089056
-0.000412494
0.00278431
-0.000489061
0.0103903
0.000922625
0.0184744
0.00469947
0.0264318
0.0112347
0.0341877
0.0202858
0.0417101
0.0311977
0.0486982
0.0432575
0.0547466
0.0557897
0.0596969
0.0635086
0.0682343
-0.00104974
0.00383406
-0.00244524
0.0117857
-0.0029725
0.0190016
-0.00182376
0.025283
0.00154152
0.0308224
0.00729179
0.0359598
0.0150482
0.0409417
0.0242653
0.0455295
0.0345064
0.0494558
0.0524465
0.0455686
-0.00124063
0.00507469
-0.00315657
0.0137017
-0.00460846
0.0204535
-0.00500916
0.0256837
-0.00397
0.0297833
-0.00121857
0.0332084
0.00320312
0.03652
0.0090341
0.0396985
0.0161029
0.0423871
0.0441581
0.0243913
-0.0016706
0.00674529
-0.00432757
0.0163587
-0.0067061
0.022832
-0.00830787
0.0272855
-0.00902578
0.0305012
-0.00879586
0.0329785
-0.00745801
0.0351822
-0.00489652
0.0371371
-0.00099801
0.0384885
0.0392431
0.00391698
-0.00230027
0.00904556
-0.00586551
0.0199239
-0.00921319
0.0261797
-0.0117961
0.0298685
-0.0135074
0.0322124
-0.014452
0.0339232
-0.0147231
0.0354533
-0.0141323
0.0365462
-0.0125291
0.0368854
0.0366106
-0.0098966
-0.0024675
0.0115131
-0.00641884
0.0238752
-0.0103353
0.0300962
-0.0137571
0.0332902
-0.0166205
0.0350759
-0.0189177
0.0362203
-0.0205437
0.0370793
-0.021448
0.0374505
-0.0217055
0.0371429
0.0362486
-0.0213435
-0.0024703
0.0139834
-0.00667606
0.028081
-0.0111859
0.034606
-0.0155792
0.0376835
-0.0196991
0.0391958
-0.0233848
0.039906
-0.0264174
0.0401119
-0.028782
0.0398151
-0.0305964
0.0389573
0.0375988
-0.0319466
-0.00243557
0.0164189
-0.00683578
0.0324812
-0.0118149
0.0395852
-0.0168999
0.0427684
-0.0218529
0.0441489
-0.0264718
0.044525
-0.0305977
0.0442378
-0.0341916
0.043409
-0.0373137
0.0420794
0.0403295
-0.0400444
-0.00218678
-0.00645762
-0.0114874
-0.0167517
-0.0220019
-0.0270571
-0.0317909
-0.0361511
-0.0401513
-0.0438502
0.0763587
0.306125
-0.293428
0.060216
0.208276
-0.192133
0.0547004
0.110946
-0.105431
0.0609803
0.0228723
-0.0291522
0.0718863
-0.0324036
0.0214976
0.085248
-0.0592223
0.0458605
0.0987178
-0.0649812
0.0515114
0.11086
-0.0587502
0.0466076
0.121715
-0.0478159
0.0369616
-0.0275532
0.0204657
0.0624629
0.311897
0.0516491
0.21909
0.0527273
0.109868
0.0636002
0.0119994
0.0768177
-0.0456211
0.0907203
-0.0731248
0.103942
-0.0782028
0.115453
-0.0702609
0.125413
-0.0577766
-0.0336881
0.0459864
0.311479
0.0414137
0.223663
0.0500243
0.101257
0.065332
-0.00330826
0.0811283
-0.0614173
0.09578
-0.0877765
0.10881
-0.0912334
0.119648
-0.0810983
0.128661
-0.06679
-0.03894
0.0282758
0.307594
0.0312972
0.220641
0.0476124
0.0849422
0.0669804
-0.0226763
0.0851381
-0.079575
0.100669
-0.103308
0.113598
-0.104162
0.123774
-0.0912745
0.131851
-0.0748662
-0.0433792
0.0115181
0.299993
0.0227715
0.209388
0.0458845
0.0618291
0.068797
-0.0455888
0.0890387
-0.0998166
0.105484
-0.119754
0.118393
-0.11707
0.127969
-0.100851
0.135162
-0.0820587
-0.0470622
-0.00366263
0.293759
0.0158949
0.18983
0.0442359
0.0334881
0.0702955
-0.0716484
0.0925363
-0.122057
0.109983
-0.1372
0.123014
-0.130102
0.132146
-0.109982
0.138591
-0.0885041
-0.0500663
-0.0176214
0.290037
0.00973108
0.162478
0.0416507
0.0015685
0.0706735
-0.100671
0.0950547
-0.146438
0.113732
-0.155877
0.127138
-0.143508
0.136071
-0.118915
0.141999
-0.0944315
-0.0525147
-0.0295736
0.287664
0.00288871
0.130016
0.0371283
-0.0326711
0.0691415
-0.132684
0.0960472
-0.173344
0.116345
-0.176176
0.130472
-0.157635
0.139509
-0.127952
0.145206
-0.100128
-0.0545745
-0.0396892
0.287309
-0.00549836
0.0958247
0.0299208
-0.0680903
0.0652118
-0.167975
0.0952162
-0.203349
0.117621
-0.19858
0.132866
-0.17288
0.142316
-0.137402
0.148083
-0.105896
-0.056437
-0.047966
-0.0162472
0.0200388
0.0589511
0.0926355
0.117594
0.134328
0.144471
0.150589
0.0162291
0.0188562
-0.0350853
0.00751151
0.00871762
0.00299347
0.00451804
0.00161075
0.00138272
0.00392342
-0.00231267
0.00820649
-0.00428308
0.0129545
-0.004748
0.0174084
-0.00445389
0.020552
-0.00314356
-0.00167087
0.0756932
0.0662283
-0.123065
0.0473015
0.0371093
0.0323675
0.019452
0.0284858
0.00526449
0.0334285
-0.00725546
0.0420718
-0.0129263
0.051271
-0.0139472
0.0595678
-0.0127507
0.0655702
-0.00914595
-0.00485741
0.126831
0.137317
-0.19792
0.0831578
0.0807828
0.0598333
0.0427765
0.0532921
0.0118057
0.0580601
-0.0120235
0.0680409
-0.0229071
0.0793185
-0.0252248
0.089548
-0.0229802
0.0975584
-0.0171563
-0.00935273
0.157067
0.219496
-0.239246
0.10346
0.13439
0.0738499
0.0723867
0.0653314
0.0203242
0.0698977
-0.0165898
0.0808935
-0.0339029
0.0935932
-0.0379245
0.105074
-0.0344608
0.11462
-0.0267021
-0.014787
0.169555
-0.243487
0.111812
0.078768
0.0699401
0.0748478
0.0868055
0.100392
0.112539
0.122799
0.0096728
8.88142e-05
-0.00976161
0.0106706
-0.000997803
0.0125643
-0.00189368
0.015173
-0.00260871
0.01823
-0.00305705
0.0213184
-0.00308839
0.0245811
-0.00326268
0.0273525
-0.00277139
0.0310536
-0.00370113
-0.00403172
0.0253636
-5.18597e-05
-0.025223
0.0281809
-0.00381509
0.0333924
-0.00710519
0.0407041
-0.00992033
0.049714
-0.0120669
0.0601143
-0.0134888
0.072608
-0.0157564
0.0862854
-0.0164487
0.104063
-0.0214785
-0.0230342
0.0378939
-0.000697647
-0.0372481
0.042369
-0.00829025
0.0503965
-0.0151327
0.0617304
-0.0212542
0.0760175
-0.0263541
0.0934285
-0.0308997
0.114598
-0.036926
0.138756
-0.0406064
0.168917
-0.05164
-0.0520374
0.0476052
-0.0020105
-0.0462923
0.0534678
-0.0141529
0.0636986
-0.0253634
0.0780779
-0.0356335
0.0964018
-0.044678
0.119084
-0.0535819
0.145647
-0.063489
0.176698
-0.071658
0.210209
-0.0851507
-0.0810738
0.0549167
-0.0529018
0.061894
0.0737006
0.0900478
0.110783
0.1358
0.163898
0.194832
0.220292
0.0613983
-0.0545632
0.0610165
-0.0678516
0.0546722
-0.0546167
0.0613427
0.0479154
-0.0548774
0.0616342
0.0409513
-0.0550829
0.0620469
0.0336487
-0.055128
0.0624306
0.026011
-0.0548204
0.0624582
0.0181992
-0.0536949
0.0615067
0.0105364
-0.0507152
0.058378
0.00377058
-0.0433636
0.0501294
-0.0243801
0.0281506
0.0672731
-0.047315
-0.0745213
0.0598534
-0.047197
0.0520699
-0.0470938
0.0439452
-0.0469582
0.0355821
-0.0467649
0.0271323
-0.0463706
0.0187876
-0.0453502
0.0108236
-0.0427511
0.00389372
-0.0364337
-0.0204863
0.0680262
-0.0391468
-0.0761944
0.0597567
-0.0389275
0.0514162
-0.0387533
0.0430456
-0.0385876
0.0346878
-0.0384071
0.0263949
-0.0380777
0.0182638
-0.0372191
0.0105127
-0.035
0.00377201
-0.0296931
-0.0167143
0.0704065
-0.030708
-0.0788453
0.0619393
-0.0304603
0.0534151
-0.0302292
0.0448334
-0.0300058
0.0362059
-0.0297795
0.0275846
-0.0294565
0.0191024
-0.0287369
0.0110315
-0.0269291
0.00401808
-0.0226797
-0.0126963
0.0729828
-0.0219657
-0.0817252
0.0641562
-0.0216337
0.0552409
-0.0213138
0.0462435
-0.0210084
0.0371943
-0.0207304
0.0281767
-0.0204388
0.0193716
-0.0199318
0.0111131
-0.0186706
0.00405623
-0.0156228
-0.00864002
0.0756393
-0.0128677
-0.0847374
0.0664444
-0.0124388
0.0571417
-0.0120111
0.0477346
-0.0116013
0.038249
-0.0112449
0.0287752
-0.010965
0.0195464
-0.0107029
0.0110294
-0.0101537
0.00398911
-0.00858249
-0.00465092
0.0786162
-0.00339339
-0.0880904
0.069035
-0.00285759
0.0593272
-0.00230332
0.0494838
-0.00175786
0.0395115
-0.00127258
0.0294785
-0.000932052
0.0196302
-0.000854598
0.0105901
-0.00111357
0.00348836
-0.00148075
-0.00116256
0.081813
0.00641618
-0.0916225
0.0718958
0.00705962
0.0618618
0.00773061
0.0517023
0.00840162
0.0414166
0.0090132
0.0310462
0.00943833
0.0207756
0.00941595
0.0111632
0.00849885
0.00350136
0.00618109
0.0023388
0.0849374
0.0165079
-0.0950291
0.0747538
0.0172433
0.0644812
0.0180032
0.0541247
0.0187581
0.0436956
0.0194423
0.0332336
0.0199004
0.0228744
0.0197752
0.0130126
0.0183606
0.00462325
0.0145705
0.00696205
0.0876628
-0.0979881
0.0772553
0.0667707
0.0562178
0.0456089
0.0349749
0.0244153
0.0142252
0.00524529
0.0123702
-0.118459
-0.0136797
0.00975913
-0.126902
0.00668208
-0.131415
0.00358493
-0.133525
0.000895127