/*--------------------------------*- C++ -*----------------------------------*\
| =========                 |                                                 |
| \\      /  F ield         | OpenFOAM: The Open Source CFD Toolbox           |
|  \\    /   O peration     | Version:  2406                                  |
|   \\  /    A nd           | Website:  www.openfoam.com                      |
|    \\/     M anipulation  |                                                 |
\*---------------------------------------------------------------------------*/
FoamFile
{
    version     2.0;
    format      ascii;
    arch        "LSB;label=32;scalar=64";
    class       volVectorField;
    location    "1.1";
    object      U;
}
// * * * * * * * * * * * * * * * * * * * * * * * * * * * * * * * * * * * * * //

dimensions      [0 1 -1 0 0 0 0];

internalField   nonuniform List<vector> 
1800
(
(-0.000322356 -0.00130374 0)
(-0.00532446 0.00260505 -1.0539e-20)
(-0.0142054 0.0215616 -9.74812e-20)
(-0.0105486 0.0533241 8.90095e-20)
(0.0175582 0.0825459 1.52819e-19)
(0.0733442 0.105267 2.61854e-20)
(0.154096 0.1229 -3.68993e-20)
(0.256188 0.137429 -4.72221e-20)
(0.378646 0.148808 0)
(0.473742 0.192234 -2.54957e-20)
(-0.00776659 0.000246811 1.14122e-21)
(-0.0105987 0.00124274 -3.64191e-20)
(-0.0104623 -0.00105503 6.34524e-20)
(0.0168182 -0.00111566 1.02501e-19)
(0.0818453 -0.00154331 -2.84562e-20)
(0.178217 -0.00294491 -1.97438e-19)
(0.299559 -0.00343728 4.44566e-20)
(0.439238 -0.00288501 1.579e-19)
(0.59465 0.000985891 1.70803e-21)
(0.70019 0.0187604 3.13557e-21)
(-0.0119617 0.00759362 1.13057e-20)
(-0.0101902 0.0072877 -6.51381e-20)
(0.0130131 -0.00280791 -5.31441e-20)
(0.0912635 -0.018079 2.56155e-20)
(0.215113 -0.032876 -1.87165e-20)
(0.367726 -0.0426409 3.5053e-20)
(0.535808 -0.0456346 -4.34286e-20)
(0.709214 -0.0425179 -1.49596e-19)
(0.888565 -0.0282684 3.05937e-20)
(1.00515 -0.0206131 -2.61125e-20)
(-0.00887091 0.00583339 6.82199e-21)
(0.0008672 0.00289061 5.92774e-20)
(0.0787408 -0.0108725 -5.20887e-20)
(0.22721 -0.0302474 -3.55944e-22)
(0.417717 -0.0452113 1.11954e-19)
(0.625209 -0.050897 -2.40021e-20)
(0.831359 -0.0474838 -5.9745e-20)
(1.02591 -0.0371193 -5.07928e-20)
(1.21237 -0.0170821 -2.20311e-20)
(1.33488 -0.00591297 4.82699e-20)
(-0.00247678 0.00349565 -9.035e-21)
(0.0462377 -0.00966159 5.18042e-20)
(0.201603 -0.0246049 3.1016e-20)
(0.425206 -0.0381467 -6.87886e-20)
(0.674803 -0.0423095 -3.00797e-20)
(0.919136 -0.0352137 4.4209e-20)
(1.14063 -0.0195023 2.97819e-20)
(1.33474 0.0014367 4.69253e-20)
(1.50735 0.0269792 -1.15977e-19)
(1.63197 0.0418076 -7.99692e-20)
(0.0107858 -0.000536071 4.52565e-22)
(0.136019 -0.0245831 1.54262e-19)
(0.377601 -0.0344004 8.46914e-20)
(0.671701 -0.0337071 -1.03237e-19)
(0.962251 -0.0203137 8.9818e-20)
(1.21826 0.00283601 -8.20341e-21)
(1.43159 0.0308506 8.68484e-20)
(1.60805 0.0596746 1.37429e-19)
(1.75806 0.0870534 -1.73662e-19)
(1.88456 0.103723 -1.36791e-19)
(0.0442731 -0.00518514 -3.2456e-20)
(0.267509 -0.0337132 -2.44697e-19)
(0.59917 -0.0289694 2.28303e-20)
(0.947196 -0.00643381 2.82755e-19)
(1.25132 0.0270469 -1.50876e-20)
(1.49384 0.0647764 -1.8734e-19)
(1.68196 0.101526 -1.23412e-19)
(1.83151 0.134142 3.37488e-19)
(1.95782 0.161002 3.80745e-19)
(2.07019 0.17866 3.04266e-20)
(0.096509 -0.0081554 3.79879e-20)
(0.436479 -0.0300084 4.27605e-20)
(0.850798 0.000224066 -1.20423e-19)
(1.22617 0.0475063 6.76576e-20)
(1.51695 0.0974141 -4.96442e-21)
(1.72816 0.143315 -6.49107e-19)
(1.88217 0.182125 5.06675e-21)
(2.00109 0.212922 4.60607e-19)
(2.10095 0.235727 -2.96325e-19)
(2.19136 0.249423 -3.08134e-19)
(0.166988 -0.00532147 1.51595e-19)
(0.63398 -0.00413339 1.44813e-19)
(1.10953 0.0588287 -3.49159e-19)
(1.48183 0.127057 -8.70904e-20)
(1.73732 0.184832 -4.88646e-22)
(1.90637 0.230163 2.54277e-19)
(2.02283 0.264092 -4.69698e-19)
(2.1111 0.288424 -2.49146e-19)
(2.18576 0.304605 5.73338e-19)
(2.25456 0.313538 1.35422e-19)
(0.254004 0.00770592 1.93754e-20)
(0.844076 0.0498088 3.76875e-19)
(1.34869 0.145157 -3.31579e-19)
(1.68991 0.224042 -1.466e-19)
(1.89682 0.278938 1.52948e-19)
(2.02249 0.315965 -1.7547e-19)
(2.10664 0.340778 3.19079e-19)
(2.17181 0.357168 3.19447e-20)
(2.22918 0.367339 -2.37156e-19)
(2.2833 0.372593 -8.14928e-20)
(-0.013831 0.243765 -1.70532e-20)
(-0.0364975 0.483112 6.84943e-20)
(-0.0656663 0.585839 4.30718e-20)
(-0.0921485 0.629454 -5.67129e-20)
(-0.116949 0.645828 2.34443e-21)
(-0.139927 0.646443 1.77368e-20)
(-0.160357 0.636578 6.86598e-21)
(-0.17808 0.618961 -8.89626e-21)
(-0.193475 0.595249 7.87081e-24)
(-0.208079 0.566916 -2.28589e-20)
(-0.0308887 0.25679 1.81577e-20)
(-0.0686292 0.518154 9.89981e-23)
(-0.0999422 0.630108 2.09662e-20)
(-0.124224 0.676303 -6.42609e-20)
(-0.145385 0.693335 -2.40744e-20)
(-0.164858 0.692981 -3.06614e-20)
(-0.182184 0.681025 -1.81034e-20)
(-0.196902 0.661193 0)
(-0.209216 0.635166 -9.98382e-21)
(-0.221105 0.604174 3.20728e-20)
(-0.0468003 0.254145 4.40489e-23)
(-0.100408 0.531628 -5.41836e-20)
(-0.133584 0.656354 -2.87927e-20)
(-0.154984 0.708617 3.55778e-20)
(-0.170222 0.73025 1.49495e-20)
(-0.182416 0.734947 -3.42321e-20)
(-0.192288 0.724561 4.1475e-20)
(-0.199128 0.701875 2.78769e-20)
(-0.204901 0.67234 1.09952e-19)
(-0.211083 0.63924 9.18732e-20)
(-0.0583919 0.235743 1.73109e-20)
(-0.126485 0.520952 6.4468e-20)
(-0.158914 0.659777 1.09322e-21)
(-0.174281 0.717616 6.75134e-20)
(-0.180699 0.738023 -1.92098e-20)
(-0.182735 0.741934 -9.5614e-21)
(-0.183216 0.738067 -5.73841e-21)
(-0.183433 0.727635 0)
(-0.183949 0.707866 -1.79264e-19)
(-0.18275 0.678935 -2.75144e-19)
(-0.059989 0.198666 9.43424e-21)
(-0.136566 0.476878 -2.15901e-21)
(-0.16468 0.630952 -7.84354e-21)
(-0.172143 0.702948 -3.17946e-20)
(-0.170838 0.733781 1.36069e-21)
(-0.165911 0.744775 -3.88767e-20)
(-0.158693 0.744362 -5.80993e-21)
(-0.150392 0.735985 1.1224e-19)
(-0.140271 0.720631 -2.33992e-19)
(-0.127441 0.697446 -2.75764e-19)
(-0.0511457 0.145894 3.66683e-21)
(-0.130619 0.396856 -2.35569e-20)
(-0.156798 0.562816 3.27954e-20)
(-0.159289 0.653518 3.83523e-20)
(-0.150768 0.700548 6.19011e-20)
(-0.137231 0.724447 -2.49037e-19)
(-0.12113 0.734705 -7.93113e-20)
(-0.10282 0.734886 2.54963e-19)
(-0.0806473 0.725486 -4.01429e-19)
(-0.0545283 0.705424 -2.84707e-19)
(-0.0348385 0.0894265 -2.96615e-20)
(-0.109432 0.292594 5.92855e-20)
(-0.1358 0.458669 -7.60767e-21)
(-0.136711 0.565207 3.90069e-20)
(-0.12297 0.629164 7.05883e-20)
(-0.10095 0.667141 -1.1357e-19)
(-0.07416 0.688592 -2.58707e-19)
(-0.0439567 0.697853 -7.72927e-20)
(-0.00918943 0.6963 5.04362e-19)
(0.0320339 0.681666 3.53394e-19)
(-0.0165874 0.0417386 -8.77825e-22)
(-0.0771453 0.183598 -3.5352e-20)
(-0.102934 0.332018 -5.99524e-20)
(-0.104577 0.443397 1.19013e-20)
(-0.0884488 0.519601 1.51723e-20)
(-0.0601035 0.570666 6.75853e-20)
(-0.023719 0.604172 -1.34514e-19)
(0.0180064 0.624487 -5.31451e-20)
(0.0652732 0.63328 1.74514e-19)
(0.12444 0.624264 2.8613e-20)
(-0.00248782 0.0102305 -1.63349e-20)
(-0.0420577 0.0883502 -1.4374e-20)
(-0.0637161 0.201636 2.4551e-20)
(-0.0660336 0.300715 4.9003e-20)
(-0.0494169 0.3768 1.33118e-20)
(-0.0168669 0.433148 -8.06564e-21)
(0.0278155 0.47436 -4.28934e-20)
(0.0808822 0.504255 7.15084e-21)
(0.140807 0.525236 -2.65276e-21)
(0.22311 0.521372 -3.21031e-19)
(0.00141908 -0.000431466 -2.45851e-20)
(-0.0139488 0.0236678 -3.49403e-20)
(-0.0294796 0.0899237 1.23037e-19)
(-0.0317859 0.160175 1.01253e-19)
(-0.0143109 0.21943 -4.8177e-20)
(0.023759 0.266255 -1.76391e-19)
(0.0798477 0.302957 7.75836e-20)
(0.149934 0.332505 -3.80973e-20)
(0.232883 0.358325 -9.00912e-20)
(0.346121 0.358143 -2.11113e-19)
(-0.279896 0.409852 -4.59719e-19)
(-0.225294 0.0694238 -8.97974e-19)
(-0.038975 -0.169913 -5.22832e-19)
(0.142555 -0.315814 3.2504e-19)
(0.353688 -0.354727 -4.687e-20)
(0.511114 -0.329738 9.79126e-21)
(0.624061 -0.276636 -9.15685e-20)
(0.699757 -0.213392 3.83631e-20)
(0.746291 -0.161174 -2.51316e-20)
(0.781012 -0.0835144 -1.62723e-20)
(-0.283969 0.430825 -5.16232e-19)
(-0.271673 0.0418258 1.31819e-20)
(-0.0759944 -0.224366 -1.2055e-19)
(0.126544 -0.376977 -2.18888e-19)
(0.352085 -0.409837 4.07696e-20)
(0.517229 -0.370824 -8.29826e-20)
(0.634022 -0.30465 5.57633e-20)
(0.710901 -0.230935 1.90605e-21)
(0.757749 -0.172784 -4.6347e-20)
(0.793057 -0.0887122 3.19979e-20)
(-0.257494 0.463861 4.50005e-19)
(-0.281069 0.0281326 1.14725e-18)
(-0.0729114 -0.27946 1.71954e-19)
(0.146883 -0.439668 -3.4554e-19)
(0.376067 -0.466637 1.4998e-20)
(0.538806 -0.412807 2.71797e-21)
(0.652083 -0.333211 2.78674e-20)
(0.7262 -0.248644 -3.89813e-20)
(0.771266 -0.184677 2.12142e-21)
(0.80654 -0.0940607 -3.19959e-22)
(-0.194925 0.504205 6.58763e-19)
(-0.231256 0.027756 -2.04659e-20)
(-0.00689272 -0.332013 1.46403e-19)
(0.225447 -0.501863 2.42177e-19)
(0.445858 -0.521558 -1.85094e-21)
(0.591396 -0.452629 1.5523e-20)
(0.688495 -0.360228 -4.03163e-20)
(0.751921 -0.265327 0)
(0.790897 -0.196264 0)
(0.823992 -0.0994416 -7.16466e-23)
(-0.101573 0.53957 1.44893e-19)
(-0.122279 0.035431 -8.47801e-19)
(0.130176 -0.380816 -1.47357e-20)
(0.370451 -0.561865 -1.95304e-19)
(0.575927 -0.571539 -5.33499e-20)
(0.692397 -0.486787 1.27043e-20)
(0.757919 -0.382733 5.06884e-21)
(0.798191 -0.279031 -1.77145e-20)
(0.823669 -0.206418 -5.67516e-20)
(0.849756 -0.10453 -2.17671e-21)
(0.00692629 0.572923 4.56311e-20)
(0.0431178 0.04662 -3.6977e-19)
(0.317616 -0.424243 -1.28956e-18)
(0.558562 -0.619796 1.5123e-20)
(0.755855 -0.616376 1.92152e-19)
(0.847469 -0.512867 1.13481e-20)
(0.873636 -0.397245 2.19886e-21)
(0.877764 -0.286905 -7.38645e-20)
(0.880092 -0.213214 9.5541e-22)
(0.890726 -0.108624 -2.65498e-20)
(0.12791 0.589696 -1.27238e-19)
(0.253872 0.0605918 -3.58062e-20)
(0.521223 -0.45858 5.04691e-19)
(0.75209 -0.676635 -1.38559e-19)
(0.947589 -0.66125 -3.94257e-20)
(1.03528 -0.533835 3.99722e-20)
(1.03365 -0.402757 -1.14475e-20)
(0.998445 -0.286411 1.18241e-20)
(0.970996 -0.214104 1.89982e-20)
(0.955897 -0.110554 9.82013e-21)
(0.252175 0.587856 -1.93519e-19)
(0.477697 0.0863835 9.47174e-19)
(0.735997 -0.475482 7.72523e-19)
(0.946955 -0.726389 5.57086e-20)
(1.12461 -0.708799 -1.75537e-19)
(1.21962 -0.556668 -9.9642e-20)
(1.21407 -0.403658 8.00898e-21)
(1.15243 -0.27824 1.54425e-20)
(1.09868 -0.207516 1.47652e-22)
(1.05216 -0.109096 -3.85773e-21)
(0.392632 0.562555 -6.68983e-19)
(0.704587 0.0992712 2.53288e-19)
(0.974518 -0.474212 -9.63154e-19)
(1.1713 -0.760646 6.86625e-19)
(1.30111 -0.752473 -2.47145e-19)
(1.38335 -0.582896 -5.3393e-20)
(1.38529 -0.405701 -6.45619e-20)
(1.31663 -0.266781 3.99111e-21)
(1.24971 -0.194887 4.10046e-21)
(1.17662 -0.103999 1.70264e-21)
(0.495588 0.504476 -6.035e-20)
(0.910249 0.147732 -2.14603e-19)
(1.24066 -0.455578 -5.97678e-19)
(1.43469 -0.779686 4.62554e-19)
(1.50414 -0.784119 -2.62169e-19)
(1.53831 -0.606966 5.33644e-20)
(1.53395 -0.410244 -1.72744e-19)
(1.46759 -0.256155 -6.85029e-21)
(1.4007 -0.179711 -7.50656e-21)
(1.31379 -0.0963923 -1.22103e-20)
(0.754535 0.39083 4.18759e-19)
(1.24634 0.0993598 5.32256e-20)
(1.64002 -0.491727 -5.85948e-20)
(1.82709 -0.80091 -1.33587e-19)
(1.81971 -0.802142 1.18241e-19)
(1.75755 -0.622314 -1.46046e-20)
(1.70583 -0.411433 1.79359e-20)
(1.63082 -0.242072 3.22321e-20)
(1.56802 -0.158332 -7.60371e-20)
(1.47755 -0.0846398 9.6258e-21)
(1.23021 0.287912 3.06788e-19)
(1.89693 -0.0964546 -5.04808e-19)
(2.29222 -0.627146 -4.89739e-19)
(2.35819 -0.841888 4.81021e-20)
(2.23291 -0.764924 -1.27196e-21)
(2.04476 -0.562443 1.60374e-19)
(1.8924 -0.361626 1.71354e-19)
(1.77459 -0.204877 -2.43158e-20)
(1.70633 -0.127568 9.20052e-20)
(1.62228 -0.0686528 2.02427e-20)
(1.93508 0.220353 7.88029e-20)
(2.53141 -0.213555 3.66879e-20)
(2.73503 -0.658231 5.47154e-20)
(2.62793 -0.806773 3.49389e-35)
(2.43329 -0.700352 -6.44828e-20)
(2.22494 -0.490931 -6.81869e-34)
(2.03645 -0.301437 2.49135e-20)
(1.88666 -0.162975 3.99077e-34)
(1.80167 -0.0966056 -1.18031e-21)
(1.71578 -0.0527127 3.04243e-22)
(2.50655 0.138235 1.50626e-19)
(2.92922 -0.288505 6.00165e-19)
(3.00233 -0.667356 4.64208e-19)
(2.81404 -0.764825 0)
(2.54114 -0.629818 -5.01472e-20)
(2.28387 -0.414765 -1.37483e-19)
(2.07523 -0.236023 -1.43972e-19)
(1.91955 -0.116811 1.62457e-33)
(1.83105 -0.0630661 -5.16455e-20)
(1.7457 -0.0360473 -1.98305e-21)
(2.83602 0.0380684 1.44765e-19)
(3.12705 -0.328305 -1.19973e-20)
(3.15543 -0.631026 0)
(2.94078 -0.667945 0)
(2.63427 -0.51001 0)
(2.33388 -0.305648 0)
(2.08788 -0.154085 7.19256e-21)
(1.91404 -0.0651026 1.86236e-33)
(1.82138 -0.0293619 -2.55042e-21)
(1.73942 -0.0214564 -4.01359e-34)
(2.99938 -0.0474121 7.65256e-20)
(3.23668 -0.352048 0)
(3.23194 -0.583763 0)
(2.92644 -0.578688 0)
(2.53641 -0.409167 0)
(2.21473 -0.212764 0)
(1.98614 -0.0819837 -1.51558e-20)
(1.83638 -0.0183495 8.63435e-20)
(1.76405 0.000990237 -3.25023e-21)
(1.69827 -0.00684489 8.61092e-21)
(3.06242 -0.117044 0)
(3.24573 -0.369554 2.84144e-19)
(3.13581 -0.518582 1.90489e-19)
(2.74029 -0.441879 0)
(2.30219 -0.260246 -9.26616e-20)
(1.97288 -0.0988275 -9.91911e-20)
(1.77466 -0.0104662 -8.73852e-20)
(1.66514 0.021091 -4.15043e-20)
(1.62693 0.0235225 3.48878e-20)
(1.58608 0.0048198 -1.15921e-20)
(2.96838 -0.174371 5.811e-20)
(3.00781 -0.342743 -1.98578e-20)
(2.69582 -0.39077 2.1844e-21)
(2.17416 -0.280677 -2.42333e-35)
(1.73879 -0.122716 2.14392e-20)
(1.48879 -0.010776 -5.66881e-34)
(1.38232 0.0346108 -1.82509e-20)
(1.3435 0.0395221 -3.87183e-20)
(1.3498 0.0311397 -3.96158e-21)
(1.34053 0.00949732 7.48648e-21)
(2.41963 -0.188924 0)
(2.19406 -0.249581 -7.48395e-20)
(1.64339 -0.177275 -4.17489e-20)
(1.12235 -0.0676777 0)
(0.860855 0.00106055 1.28127e-20)
(0.790433 0.0331231 1.6329e-20)
(0.808894 0.0404975 -3.2731e-21)
(0.846826 0.0333264 1.15494e-20)
(0.892371 0.02329 -1.69843e-20)
(0.911372 0.00806686 -5.92096e-21)
(0.911561 -0.0867331 2.32824e-20)
(0.545251 -0.0292252 0)
(0.24534 -0.00230097 0)
(0.100498 0.00139608 0)
(0.0732507 0.00373881 0)
(0.109701 0.00878335 0)
(0.173543 0.0110124 -1.84835e-20)
(0.234025 0.00908452 6.21951e-35)
(0.283535 0.0061037 -4.54561e-21)
(0.310709 0.00209425 -8.1568e-21)
(2.37904 0.378173 3.90315e-19)
(2.38234 0.326053 1.74808e-19)
(2.35763 0.273753 2.84384e-19)
(2.30529 0.214499 -3.18262e-19)
(2.19239 0.156838 8.43894e-20)
(2.03397 0.0986055 2.11683e-20)
(1.78418 0.0484741 8.20555e-20)
(1.48092 0.0248885 1.81226e-20)
(1.13409 -0.0350643 -3.26081e-20)
(0.749714 0.111728 4.29408e-20)
(2.47407 0.338496 -2.07056e-19)
(2.50918 0.299099 3.72172e-20)
(2.51605 0.251554 1.84549e-19)
(2.5105 0.211991 1.46799e-19)
(2.47344 0.151696 -2.25862e-19)
(2.38445 0.126565 1.02878e-19)
(2.29739 0.0597359 -2.32874e-20)
(2.06207 0.0744241 -1.01342e-20)
(1.94737 0.0283025 -1.59371e-20)
(1.47561 0.0325622 -2.60454e-20)
(2.58609 0.288517 3.43372e-20)
(2.60406 0.262983 -1.5084e-19)
(2.65542 0.210204 -2.07377e-19)
(2.62865 0.191961 4.51005e-19)
(2.67703 0.128586 -8.2298e-21)
(2.57401 0.11887 2.19621e-21)
(2.62137 0.0647099 -8.4957e-20)
(2.42112 0.0545456 -6.40958e-20)
(2.44728 0.056015 1.5293e-20)
(2.14223 0.0134905 -6.63319e-21)
(2.69104 0.2405 5.57663e-20)
(2.68451 0.225278 -1.86482e-19)
(2.76889 0.170338 3.09663e-20)
(2.72289 0.160111 -1.44371e-19)
(2.81286 0.106657 2.3288e-19)
(2.71854 0.0923765 -7.02881e-20)
(2.80205 0.0587468 4.98883e-20)
(2.66606 0.0274764 -6.28962e-20)
(2.71536 0.0360654 -1.27193e-19)
(2.55416 -0.00639661 -6.22962e-20)
(2.74013 0.196254 1.045e-19)
(2.74151 0.182448 -3.01861e-19)
(2.82223 0.136549 -2.44944e-20)
(2.80037 0.122188 -2.08853e-20)
(2.87932 0.0817867 -8.14593e-21)
(2.83421 0.0620855 -2.03319e-21)
(2.89903 0.03617 4.31478e-20)
(2.83359 0.00549084 -5.16357e-20)
(2.87491 0.000570647 -8.75229e-20)
(2.79527 -0.0366802 -1.20895e-19)
(2.73136 0.151924 1.90187e-19)
(2.74974 0.136907 3.6219e-20)
(2.82156 0.100607 -2.11982e-19)
(2.82843 0.0827217 1.26767e-19)
(2.89379 0.050418 1.09481e-19)
(2.89175 0.0294272 -7.40458e-20)
(2.94319 0.00647111 1.14741e-19)
(2.93076 -0.0189174 4.09403e-20)
(2.96637 -0.030912 -1.49014e-19)
(2.94126 -0.0655462 -1.90327e-19)
(2.66716 0.102031 1.70912e-20)
(2.70053 0.0885899 6.6455e-20)
(2.76455 0.05658 -8.19684e-20)
(2.79317 0.0421754 -4.15693e-20)
(2.85221 0.0114183 1.12597e-19)
(2.87676 -0.00528886 4.07455e-20)
(2.92774 -0.0289932 9.7234e-20)
(2.94744 -0.0502712 8.36548e-20)
(2.98667 -0.065804 2.11674e-20)
(3.00423 -0.0949609 7.09398e-20)
(2.51204 0.0542034 2.24593e-20)
(2.56506 0.043504 -1.91229e-22)
(2.60756 0.0125911 -8.85724e-20)
(2.66015 0.0070285 -7.71769e-20)
(2.69828 -0.0265335 3.43432e-20)
(2.75032 -0.0320672 -4.0227e-20)
(2.78447 -0.0605357 -3.06049e-20)
(2.83844 -0.0744536 1.12137e-19)
(2.86539 -0.0966123 -9.18706e-20)
(2.9258 -0.119094 -1.04738e-19)
(2.14375 0.00366232 6.99049e-20)
(2.20816 -0.00706395 -3.19143e-20)
(2.2047 -0.0218254 -3.12731e-20)
(2.27934 -0.0278173 3.68784e-20)
(2.26264 -0.04771 -2.15186e-20)
(2.34302 -0.0483128 -9.47487e-22)
(2.32195 -0.0744506 -4.87529e-20)
(2.40099 -0.0729397 2.33222e-20)
(2.38113 -0.102704 2.66958e-20)
(2.45852 -0.103957 -2.96995e-20)
(1.22637 -0.0119825 0)
(1.23195 -0.0162363 3.33047e-21)
(1.21395 -0.0191407 -4.58581e-20)
(1.22402 -0.0225619 -7.10396e-20)
(1.19139 -0.0236441 4.03543e-20)
(1.2141 -0.0283025 1.63102e-19)
(1.16111 -0.0305552 -1.1972e-20)
(1.20188 -0.0371904 -8.94197e-20)
(1.12125 -0.0421709 -1.06308e-20)
(1.18355 -0.0521892 4.44063e-21)
(1.4313 0.864874 -4.90953e-20)
(1.40216 0.899211 -1.01569e-19)
(1.39101 0.936564 -7.3181e-19)
(1.38297 0.977462 2.21985e-19)
(1.37131 1.0178 1.06277e-18)
(1.35028 1.05279 1.35989e-19)
(1.31038 1.07083 -8.19937e-20)
(1.23064 1.05137 -2.91916e-19)
(1.0425 0.931238 -3.12229e-19)
(0.555942 0.515192 -4.01405e-20)
(1.59848 0.842494 -4.33142e-19)
(1.56827 0.873439 1.2225e-18)
(1.54698 0.906278 5.34176e-19)
(1.53217 0.943972 -7.64026e-19)
(1.51841 0.982899 2.48704e-19)
(1.49708 1.01693 2.27334e-19)
(1.4554 1.03331 7.28605e-19)
(1.36903 1.01281 -1.06428e-18)
(1.15943 0.892135 -5.35473e-20)
(0.612758 0.486632 1.75785e-19)
(1.74973 0.818274 1.17627e-19)
(1.72371 0.847302 9.37973e-19)
(1.69824 0.876442 1.76067e-20)
(1.67808 0.908926 -4.40542e-19)
(1.66083 0.942789 1.35143e-19)
(1.63702 0.971812 -4.37188e-20)
(1.59161 0.983059 -4.93785e-20)
(1.49678 0.959258 -3.77796e-19)
(1.26332 0.836163 5.52852e-20)
(0.657804 0.445731 -2.12258e-19)
(1.88032 0.786901 -4.77905e-19)
(1.85939 0.813344 4.27159e-19)
(1.83461 0.83886 -6.46421e-19)
(1.81217 0.86588 -2.32518e-19)
(1.79139 0.893138 1.30425e-18)
(1.76323 0.914695 -8.0099e-19)
(1.71207 0.918614 -8.91785e-19)
(1.60767 0.889065 3.94079e-19)
(1.34612 0.763151 -1.27113e-19)
(0.684794 0.394933 -5.62464e-20)
(1.99199 0.7454 5.92468e-19)
(1.97483 0.768116 4.65834e-19)
(1.95183 0.788987 -2.10998e-19)
(1.92815 0.80993 8.06882e-19)
(1.90392 0.830019 1.42197e-19)
(1.87039 0.84249 -3.50848e-19)
(1.81157 0.837968 4.75241e-19)
(1.69431 0.803572 -5.8671e-19)
(1.39909 0.6746 -6.7145e-19)
(0.689509 0.334199 -1.24101e-20)
(2.08742 0.691516 7.82552e-19)
(2.07129 0.70954 9.49605e-19)
(2.04919 0.72569 -9.33474e-19)
(2.02496 0.741086 -9.18858e-19)
(1.9965 0.753414 2.08378e-19)
(1.95422 0.755601 -6.35894e-19)
(1.88614 0.743634 -3.74986e-19)
(1.75023 0.703925 3.12506e-19)
(1.41781 0.571994 7.52595e-20)
(0.668855 0.266868 -4.32326e-21)
(2.16706 0.630727 7.16887e-19)
(2.15006 0.64371 -9.24253e-19)
(2.12705 0.654649 -7.85303e-19)
(2.09839 0.662445 5.68952e-19)
(2.0607 0.663863 -5.03537e-19)
(2.01011 0.65749 1.45731e-18)
(1.93302 0.64093 -2.04029e-19)
(1.77146 0.594458 -1.17168e-18)
(1.39711 0.460673 5.12995e-19)
(0.621357 0.197946 3.50612e-20)
(2.22873 0.56689 -4.63117e-19)
(2.20493 0.574038 -6.3041e-19)
(2.17439 0.577289 -8.17543e-19)
(2.13815 0.575994 3.36954e-20)
(2.09531 0.570605 2.62673e-19)
(2.03955 0.559946 2.63493e-19)
(1.94593 0.53701 5.6119e-19)
(1.75022 0.480665 -2.77236e-19)
(1.32996 0.346353 2.26667e-20)
(0.548072 0.132734 6.24387e-20)
(2.26654 0.499312 2.24466e-19)
(2.23388 0.500328 -7.85664e-20)
(2.19704 0.498177 3.88594e-19)
(2.15549 0.492662 1.05337e-18)
(2.10572 0.482716 -3.67609e-19)
(2.03638 0.465683 -1.25503e-18)
(1.91657 0.432846 8.90046e-19)
(1.67686 0.365257 8.12461e-19)
(1.2115 0.234075 -4.22819e-19)
(0.454992 0.0767037 -1.85097e-20)
(2.2853 0.433164 -4.46751e-19)
(2.24331 0.430877 -4.65697e-21)
(2.19781 0.425148 5.73083e-19)
(2.1469 0.4151 5.63171e-19)
(2.08415 0.398965 3.89992e-19)
(1.99273 0.372785 -6.12318e-19)
(1.83467 0.328172 4.81904e-20)
(1.54279 0.250912 -3.28951e-19)
(1.04439 0.131632 -4.81364e-19)
(0.352949 0.0345098 -7.01281e-21)
(0.45413 0.383356 1.63697e-20)
(0.417915 0.395552 -4.65414e-20)
(0.378551 0.408056 -1.00045e-20)
(0.336413 0.420484 1.85854e-20)
(0.291235 0.431963 -3.25122e-20)
(0.242502 0.440245 -5.89018e-20)
(0.189656 0.439634 5.81029e-21)
(0.131777 0.417714 -3.24534e-20)
(0.0698678 0.350441 9.5452e-20)
(0.026334 0.186297 1.31057e-20)
(0.503547 0.477636 -1.99685e-20)
(0.467632 0.493748 1.19072e-20)
(0.428899 0.510107 -5.99709e-20)
(0.387407 0.526372 1.16972e-20)
(0.342724 0.541773 3.56863e-20)
(0.294131 0.554025 3.34362e-20)
(0.240588 0.556814 1.40503e-19)
(0.180394 0.535681 -5.65706e-20)
(0.111331 0.459729 6.56355e-20)
(0.0483332 0.252444 -1.12333e-20)
(0.570963 0.565495 -3.8914e-20)
(0.536634 0.585621 6.63093e-20)
(0.499754 0.606195 6.47164e-20)
(0.460069 0.626912 5.82721e-20)
(0.416871 0.646978 2.18859e-20)
(0.369056 0.664007 1.60628e-19)
(0.3149 0.671126 -5.3896e-20)
(0.251597 0.651856 -7.23229e-20)
(0.172778 0.568333 6.34495e-23)
(0.0818438 0.318236 1.14655e-20)
(0.640965 0.649694 1.62528e-19)
(0.607479 0.673584 9.00017e-20)
(0.572463 0.697648 -2.13249e-19)
(0.535097 0.72195 -9.60353e-20)
(0.494448 0.74594 -1.65278e-20)
(0.449182 0.767139 -7.87953e-20)
(0.396869 0.777889 -2.57102e-19)
(0.333096 0.759769 8.3083e-20)
(0.246062 0.668722 -5.9661e-20)
(0.123289 0.378578 -9.82137e-20)
(0.732502 0.721708 -3.1456e-20)
(0.700761 0.74927 -1.98787e-19)
(0.668029 0.776788 1.62794e-19)
(0.633024 0.804539 -7.6294e-20)
(0.594592 0.832097 -1.47452e-19)
(0.551181 0.856975 2.16336e-19)
(0.499758 0.870991 1.03577e-19)
(0.43428 0.854153 -1.26764e-19)
(0.336597 0.757038 -2.64859e-19)
(0.174337 0.431106 4.54854e-20)
(0.832745 0.787129 -1.16784e-21)
(0.803277 0.817629 -5.59259e-21)
(0.773485 0.847374 -2.74011e-21)
(0.741545 0.877332 6.5808e-20)
(0.706154 0.907408 2.09971e-19)
(0.665519 0.93499 -2.0859e-19)
(0.615725 0.951238 -1.402e-19)
(0.548597 0.934874 -4.61905e-20)
(0.438947 0.832004 1.07823e-19)
(0.23188 0.474726 1.50263e-19)
(0.935907 0.836272 -1.71898e-19)
(0.911172 0.870095 8.82829e-20)
(0.887327 0.90262 3.07986e-19)
(0.861099 0.935114 -2.02156e-19)
(0.830537 0.967691 -4.34725e-19)
(0.793609 0.997776 1.91049e-19)
(0.745823 1.01602 6.12482e-19)
(0.676817 1.00009 1.55737e-19)
(0.55325 0.892542 -3.29851e-20)
(0.295318 0.509092 2.1453e-19)
(1.04244 0.877382 -3.47839e-19)
(1.01647 0.91188 -1.22529e-19)
(0.994943 0.944915 3.22084e-19)
(0.973694 0.97879 -1.13103e-19)
(0.949551 1.01334 9.85103e-20)
(0.919059 1.04518 4.05964e-19)
(0.876112 1.06395 -4.29008e-19)
(0.807473 1.04694 -3.83708e-19)
(0.671178 0.934055 3.17155e-19)
(0.360622 0.530408 -5.66966e-21)
(1.16887 0.895366 -1.47355e-20)
(1.1507 0.931711 4.35413e-20)
(1.13309 0.964143 -2.4441e-19)
(1.11313 0.997531 -8.75556e-20)
(1.08979 1.03289 5.04237e-19)
(1.06052 1.06636 1.45318e-19)
(1.01826 1.08608 -1.19209e-19)
(0.946748 1.06876 0)
(0.794991 0.952744 -2.08543e-19)
(0.427566 0.537615 -1.09057e-19)
(1.25843 0.898359 0)
(1.24982 0.936514 0)
(1.24841 0.971707 6.8199e-19)
(1.2419 1.00612 1.53816e-19)
(1.2276 1.04082 -2.29691e-19)
(1.20373 1.07278 4.08966e-19)
(1.16345 1.09037 -2.77977e-19)
(1.0886 1.07113 -7.53494e-19)
(0.919698 0.952044 3.84716e-19)
(0.493382 0.532497 2.0108e-19)
(0.972303 -0.0250972 -1.03328e-20)
(1.04603 0.0876621 -8.76462e-21)
(1.00506 0.212366 6.86745e-21)
(0.981991 0.248412 4.75766e-21)
(0.948369 0.230501 1.70088e-20)
(0.91455 0.220774 2.93685e-20)
(0.889365 0.209879 -1.43868e-20)
(0.829943 0.230987 -2.07739e-20)
(0.78695 0.256373 -8.65543e-20)
(0.616631 0.320743 6.91737e-20)
(0.971851 -0.0292641 -6.05284e-22)
(1.0465 0.0871071 7.74637e-21)
(1.00422 0.219194 1.15728e-22)
(0.981673 0.257648 9.77386e-21)
(0.948371 0.239305 1.30312e-20)
(0.914695 0.229354 -4.19172e-20)
(0.895203 0.220687 -1.47926e-20)
(0.843681 0.246272 2.02799e-22)
(0.808657 0.289697 2.17864e-19)
(0.659914 0.38922 4.81092e-22)
(0.971216 -0.0333133 1.68266e-21)
(1.04753 0.0871465 1.39576e-20)
(1.00382 0.226481 -6.94159e-21)
(0.981398 0.266924 -1.20286e-21)
(0.947151 0.24785 -1.57319e-20)
(0.913597 0.237148 3.00061e-21)
(0.898868 0.229493 1.94258e-20)
(0.856728 0.260044 -1.80588e-20)
(0.829143 0.320494 1.13039e-19)
(0.713327 0.452893 -2.7742e-19)
(0.970318 -0.0372694 1.47376e-21)
(1.04922 0.0877202 -1.62681e-21)
(1.00396 0.234327 -8.22967e-21)
(0.98069 0.27646 -2.48594e-20)
(0.944559 0.256195 3.40097e-20)
(0.912138 0.244149 2.52692e-20)
(0.901264 0.236289 -2.46591e-20)
(0.869004 0.272564 8.985e-20)
(0.849437 0.347835 -1.01395e-19)
(0.772596 0.514478 -2.86232e-19)
(0.969084 -0.0411661 8.60367e-22)
(1.05185 0.0887401 -1.10928e-20)
(1.00467 0.24292 2.76154e-21)
(0.97913 0.286488 4.06135e-20)
(0.941543 0.26422 1.27142e-20)
(0.911568 0.250198 5.50379e-20)
(0.903351 0.24135 2.97597e-20)
(0.880545 0.284283 7.11741e-20)
(0.868177 0.371477 -5.70344e-21)
(0.844537 0.5679 2.24522e-19)
(0.967492 -0.0451243 6.07636e-22)
(1.05574 0.0901608 2.61894e-22)
(1.00562 0.252504 1.51986e-22)
(0.977116 0.297013 1.15248e-20)
(0.940415 0.271556 -4.19372e-20)
(0.912883 0.2553 7.88491e-21)
(0.906096 0.24522 -5.65125e-21)
(0.891005 0.295663 -2.09987e-19)
(0.888773 0.390007 0)
(0.924046 0.618866 -2.68608e-20)
(0.965533 -0.0492933 -8.15401e-22)
(1.06071 0.091943 -1.01791e-22)
(1.00631 0.263212 1.02762e-21)
(0.976577 0.307447 -5.67288e-20)
(0.943293 0.277747 -1.52883e-20)
(0.916472 0.259713 -7.00591e-20)
(0.910654 0.248337 4.5805e-21)
(0.901488 0.306914 6.23707e-21)
(0.911838 0.404278 -2.73679e-21)
(1.00167 0.657355 8.15519e-19)
(0.962939 -0.053394 -1.35833e-20)
(1.06561 0.0937944 -3.89721e-21)
(1.00717 0.274798 2.80893e-21)
(0.979778 0.316809 2.73479e-20)
(0.950926 0.282649 -6.78917e-20)
(0.92265 0.263681 1.67196e-20)
(0.919119 0.250804 -3.36899e-21)
(0.914242 0.318071 2.21234e-20)
(0.938545 0.413924 1.35012e-19)
(1.10158 0.702535 -6.4177e-20)
(0.959201 -0.0570824 2.55609e-21)
(1.06907 0.0956443 1.90725e-21)
(1.0102 0.286436 -1.39394e-21)
(0.987993 0.324384 5.70715e-20)
(0.963875 0.286279 6.82715e-21)
(0.933406 0.267476 2.69722e-20)
(0.936073 0.252558 -4.80034e-20)
(0.932455 0.328212 6.23702e-20)
(0.978532 0.411673 2.59193e-19)
(1.17644 0.719259 -6.42095e-19)
(0.954322 -0.0611683 2.86026e-21)
(1.0704 0.0986068 1.61801e-20)
(1.01738 0.298086 8.55016e-22)
(1.00274 0.330022 -1.75866e-20)
(0.98548 0.288008 7.70451e-20)
(0.957358 0.270914 -3.68548e-20)
(0.969968 0.254958 -1.52958e-20)
(0.963631 0.340546 4.19122e-20)
(1.03176 0.431122 -1.10631e-19)
(1.30354 0.77538 3.74647e-19)
(0.947966 -0.0648394 -2.06654e-21)
(1.06594 0.0951583 -6.24641e-21)
(1.03491 0.305944 -6.08255e-21)
(1.03545 0.337055 -4.01867e-20)
(1.03993 0.290941 -4.53415e-20)
(1.0288 0.275504 -4.58337e-20)
(1.05355 0.250102 1.37374e-20)
(1.04507 0.346696 -1.33801e-19)
(1.09128 0.370851 -4.53089e-19)
(1.3112 0.75354 -8.47554e-20)
(0.939656 -0.0668631 -2.2359e-20)
(1.04701 0.0792146 -8.62493e-21)
(1.06785 0.296917 1.92041e-21)
(1.10952 0.336035 -5.10425e-22)
(1.17203 0.281886 2.67949e-20)
(1.16094 0.275621 6.27798e-20)
(1.26123 0.235855 1.50249e-20)
(1.17979 0.349053 1.09823e-19)
(1.33461 0.331976 1.89411e-19)
(1.36329 0.6355 3.18201e-19)
(0.929849 -0.0671252 -2.59466e-21)
(1.03107 0.0607598 -3.63886e-21)
(1.10727 0.267696 4.40491e-21)
(1.19738 0.312936 8.09919e-21)
(1.33252 0.264145 4.42465e-35)
(1.2811 0.25662 -7.11803e-21)
(1.52193 0.226118 -4.44534e-34)
(1.28333 0.33735 1.78969e-20)
(1.66831 0.300059 -4.63058e-20)
(1.47971 0.554022 -2.47287e-19)
(0.922792 -0.0610512 2.25355e-20)
(1.01242 0.0313847 -3.14844e-35)
(1.13636 0.216722 -4.42842e-21)
(1.27019 0.266466 7.74355e-21)
(1.46452 0.241123 -8.39726e-21)
(1.37484 0.218378 -9.36324e-21)
(1.72727 0.217091 -5.46298e-34)
(1.39928 0.312896 -5.83967e-20)
(1.89588 0.261142 -1.1699e-19)
(1.66005 0.498205 2.68985e-19)
(0.923598 -0.0505716 0)
(0.99991 -0.00195481 -6.45985e-35)
(1.14379 0.14989 0)
(1.31792 0.203053 0)
(1.52995 0.21423 0)
(1.46394 0.171916 0)
(1.80496 0.198552 -3.71968e-34)
(1.54661 0.285333 0)
(1.96562 0.214281 -1.74132e-20)
(1.84599 0.439616 1.56507e-19)
(0.929964 -0.0404067 3.41803e-21)
(1.00131 -0.0321543 -1.67856e-21)
(1.13795 0.0757421 -5.09377e-21)
(1.33203 0.131239 0)
(1.53724 0.180052 0)
(1.53324 0.124948 6.88559e-21)
(1.7919 0.173536 3.55117e-20)
(1.67889 0.258281 -1.32946e-20)
(1.95411 0.16509 -2.65097e-20)
(1.99243 0.364174 1.03879e-19)
(0.937351 -0.0345567 -4.93193e-20)
(1.02223 -0.0622018 8.64871e-22)
(1.12236 0.00266411 -6.08741e-21)
(1.30586 0.0624347 -2.57165e-20)
(1.48544 0.132577 -1.30279e-20)
(1.55078 0.0826613 -2.46095e-21)
(1.70863 0.141822 -3.19468e-20)
(1.74991 0.222828 -9.95417e-21)
(1.90945 0.120211 -4.99367e-20)
(2.0631 0.283734 1.28355e-19)
(0.942008 -0.0344273 -5.97717e-21)
(1.06072 -0.0814444 -1.34087e-20)
(1.07952 -0.0509619 -7.06117e-21)
(1.22195 0.0118384 -5.97003e-21)
(1.33602 0.0790744 3.10929e-35)
(1.4812 0.0462527 7.90533e-21)
(1.49867 0.103809 -7.85538e-34)
(1.72536 0.168655 -1.28152e-20)
(1.78205 0.0760415 1.85699e-20)
(2.01504 0.205692 2.28543e-20)
(0.939885 -0.049761 1.3407e-19)
(1.06375 -0.0896449 -6.64962e-21)
(0.943803 -0.0760462 -8.39529e-21)
(0.996658 -0.0171946 1.1927e-20)
(1.03899 0.0270896 6.00137e-21)
(1.18243 0.0195866 1.33366e-20)
(1.12136 0.0609824 8.62121e-21)
(1.49063 0.0829132 -2.481e-20)
(1.4306 0.0411635 -2.23089e-20)
(1.73941 0.11674 7.89971e-20)
(0.871766 -0.0359066 7.05345e-21)
(0.842257 -0.0628909 -6.16225e-35)
(0.524604 -0.0423178 -8.74387e-21)
(0.48682 -0.00702754 0)
(0.487445 0.00565582 0)
(0.552508 0.0087878 8.05131e-21)
(0.554279 0.0174298 -8.65233e-36)
(0.794492 0.0219826 -1.27031e-20)
(0.759622 0.0167379 -2.77705e-20)
(1.01404 0.0405187 -3.63138e-20)
(1.56385 0.77411 1.55127e-19)
(1.6774 0.765452 -6.74306e-20)
(1.80141 0.748172 -3.27763e-21)
(1.91615 0.722713 6.23191e-20)
(2.01892 0.687104 -2.58092e-19)
(2.11156 0.641933 -4.67523e-19)
(2.1926 0.591802 -2.1578e-19)