/*--------------------------------*- C++ -*----------------------------------*\
| =========                 |                                                 |
| \\      /  F ield         | OpenFOAM: The Open Source CFD Toolbox           |
|  \\    /   O peration     | Version:  2406                                  |
|   \\  /    A nd           | Website:  www.openfoam.com                      |
|    \\/     M anipulation  |                                                 |
\*---------------------------------------------------------------------------*/
FoamFile
{
    version     2.0;
    format      ascii;
    arch        "LSB;label=32;scalar=64";
    class       volScalarField;
    location    "0.6";
    object      nu;
}
// * * * * * * * * * * * * * * * * * * * * * * * * * * * * * * * * * * * * * //

dimensions      [0 2 -1 0 0 0 0];

internalField   nonuniform List<scalar> 
1800
(
0.0104068
0.0117531
0.0109454
0.00997405
0.00938904
0.00908648
0.0089158
0.00877202
0.00874441
0.00922453
0.0135716
0.0131688
0.0105755
0.00940684
0.00894931
0.00879473
0.00875725
0.00873724
0.0088834
0.00889833
0.0234422
0.0126014
0.0097157
0.00887546
0.00864889
0.00865034
0.00873628
0.00881542
0.00910749
0.00903818
0.0166191
0.0104331
0.00886374
0.00846662
0.00845348
0.00858685
0.00876363
0.00890057
0.00926483
0.00896577
0.0113038
0.00898339
0.0082759
0.00820231
0.00837727
0.00864867
0.00892584
0.00912311
0.00951227
0.00881488
0.00914991
0.00814029
0.00788627
0.00805148
0.00841101
0.00883334
0.00920015
0.00939979
0.0096177
0.0086599
0.00802942
0.00761215
0.00765804
0.00804542
0.0086099
0.00918313
0.00957031
0.00963118
0.00947338
0.0085636
0.00734217
0.00727814
0.00757513
0.00820516
0.00899781
0.00966252
0.00989115
0.00964295
0.00920619
0.00860108
0.00689258
0.00708114
0.00762391
0.00853434
0.00955205
0.010152
0.0100274
0.00950314
0.00905112
0.00883768
0.00659124
0.00698431
0.00778623
0.00901396
0.0101882
0.0105039
0.00998624
0.0093702
0.00909457
0.00928957
0.0076958
0.0110179
0.015557
0.0167442
0.0164579
0.0160546
0.0154993
0.0147731
0.0140163
0.01345
0.00749014
0.0107303
0.0162089
0.0178058
0.0170863
0.0163229
0.0155533
0.0146686
0.0137782
0.013116
0.00734619
0.0105444
0.0175813
0.0203693
0.0187392
0.017276
0.0160627
0.0148701
0.0137546
0.0129416
0.00724966
0.0103791
0.0197511
0.0346439
0.0236182
0.0190489
0.0169992
0.0153944
0.013955
0.0129267
0.00720851
0.0103613
0.0240293
0.266902
0.047056
0.0239331
0.0185033
0.0161175
0.0142749
0.0130056
0.00725293
0.0101881
0.019387
0.0429122
0.0332342
0.0237504
0.0195366
0.0169615
0.0146509
0.013083
0.00739603
0.0100204
0.0153398
0.0199075
0.0198819
0.0185287
0.0176836
0.0168202
0.014782
0.0130252
0.00766622
0.00993642
0.0128653
0.0142857
0.0143521
0.0142215
0.0143673
0.0146542
0.013824
0.0125503
0.00814623
0.010105
0.0116102
0.0119018
0.0116886
0.0115452
0.0116347
0.0120083
0.0120371
0.0116941
0.00896624
0.0106723
0.0111462
0.0107515
0.0102939
0.0100382
0.00996071
0.0100351
0.0100564
0.0107371
0.0144192
0.0131383
0.0151404
0.0179129
0.0213521
0.0264668
0.0323427
0.0389378
0.0421166
0.0544538
0.0143857
0.0133959
0.0148813
0.0174592
0.0206962
0.0258695
0.0321533
0.0392941
0.0428982
0.0555896
0.014416
0.0139959
0.0146769
0.0170025
0.0199242
0.0248733
0.0310802
0.0381196
0.0419288
0.0537359
0.0145682
0.0148815
0.0142847
0.0161976
0.0187087
0.0230485
0.0285291
0.0346031
0.038174
0.0473377
0.0146703
0.014759
0.0131702
0.0144878
0.0165143
0.0198489
0.0240725
0.0286473
0.0317013
0.0375547
0.0139818
0.0127776
0.0116926
0.0124701
0.0139089
0.0161274
0.0189626
0.0220499
0.0244142
0.0278221
0.0123984
0.0111212
0.0106745
0.0111082
0.0120299
0.0133955
0.01514
0.0170631
0.0186525
0.0206628
0.0106488
0.0104786
0.0103117
0.0105008
0.0110683
0.0119143
0.0129876
0.0141715
0.0151508
0.0163819
0.0100532
0.0105921
0.0105357
0.010476
0.0107806
0.0113281
0.0120414
0.0128341
0.01345
0.0142768
0.00915565
0.0105839
0.0109926
0.0108715
0.0110124
0.0113741
0.0118786
0.0124551
0.0128607
0.0134872
0.00968097
0.0107372
0.0109738
0.0113722
0.0118433
0.0122638
0.0126856
0.0131714
0.0134354
0.013958
0.00905509
0.00964975
0.0100072
0.010795
0.0120405
0.0132942
0.0142382
0.0149497
0.0152739
0.0157885
0.00987998
0.0107581
0.0109353
0.0113809
0.0126388
0.0144747
0.0163851
0.0180527
0.0191329
0.0201625
0.015515
0.0134558
0.0123965
0.0125467
0.0139102
0.0165909
0.0202886
0.0248293
0.0288497
0.0353707
0.0395123
0.0139078
0.0126845
0.0130558
0.0146449
0.0179511
0.023261
0.0310175
0.0396334
0.0743706
0.0208741
0.0142755
0.0133928
0.0137482
0.015107
0.0175675
0.0208222
0.0239672
0.0268775
0.0295336
0.0142537
0.0120403
0.0112657
0.0114549
0.012282
0.0132859
0.0142499
0.0149751
0.0155914
0.0159011
0.00946401
0.00896884
0.00891019
0.00926717
0.00983462
0.010342
0.0107515
0.0110529
0.0112742
0.0114237
0.00742464
0.00753736
0.00786014
0.00829601
0.00871756
0.00901939
0.0092295
0.0093763
0.00946306
0.00954709
0.0070315
0.00753512
0.00812091
0.00863653
0.00886417
0.00887684
0.008828
0.00878472
0.00874275
0.00875673
0.0112411
0.0100904
0.00933362
0.00885833
0.00858371
0.00848937
0.00836744
0.00867847
0.00822428
0.00944188
0.0141294
0.0141322
0.0114489
0.0110471
0.0094376
0.00927401
0.00834029
0.00851337
0.00802957
0.00851647
0.0151302
0.0153083
0.013943
0.0140513
0.0119663
0.0114955
0.0101609
0.00962003
0.00923441
0.00866702
0.0166827
0.0148844
0.0182952
0.0150804
0.0199584
0.0139669
0.0166341
0.0118585
0.0136491
0.0106776
0.0170602
0.0161374
0.0201035
0.0179928
0.0267491
0.0192427
0.0287016
0.0169439
0.0242309
0.0157161
0.016305
0.0175522
0.0183266
0.0197712
0.0198572
0.0218763
0.0214948
0.0235917
0.0246048
0.0253262
0.0124547
0.0130939
0.0127142
0.0133095
0.0129473
0.0137568
0.0136411
0.0150369
0.0148917
0.0172695
0.00937417
0.00948098
0.00931449
0.00948631
0.00930575
0.00950928
0.00939663
0.00966668
0.00959697
0.00995443
0.00756467
0.00750789
0.00747951
0.00742894
0.00742115
0.00740381
0.00741044
0.0074329
0.0074606
0.0075211
0.00643209
0.00642374
0.00643934
0.00643892
0.00647961
0.0064961
0.00656827
0.00660188
0.00671908
0.00674688
0.0104551
0.0129674
0.0139015
0.0136361
0.0132315
0.0131243
0.0130887
0.0107319
0.00758398
0.00607835
0.0102379
0.0115216
0.0128754
0.0136516
0.013964
0.0143301
0.0141483
0.0106242
0.0074649
0.00603792
0.00996913
0.0104399
0.0114997
0.0131297
0.0147249
0.0161742
0.0156083
0.0105085
0.00736981
0.00601791
0.01004
0.0100284
0.01065
0.0123065
0.0148767
0.0176769
0.0162448
0.0102822
0.00729819
0.00601945
0.0104767
0.0100482
0.0102436
0.01148
0.0139331
0.0168963
0.0151454
0.0099367
0.00724008
0.00603824
0.0111874
0.0102758
0.0100806
0.0108682
0.0127057
0.0148607
0.0134928
0.0095311
0.00717896
0.00606825
0.0116568
0.0103373
0.00990694
0.0104006
0.0117388
0.0131746
0.0120988
0.00911098
0.00711022
0.00610907
0.0116048
0.0101362
0.00968884
0.0100831
0.0111545
0.0121091
0.0110734
0.00871237
0.00704091
0.00616728
0.0108689
0.00971814
0.00946806
0.00991989
0.010858
0.0114069
0.0102833
0.00835221
0.00698528
0.00625516
0.00998929
0.00932256
0.00934972
0.00990996
0.0106991
0.0108114
0.00960748
0.00803796
0.00696002
0.00638916
0.0128327
0.0126379
0.012463
0.0122911
0.0120961
0.0118974
0.0117048
0.0113308
0.0101508
0.00796734
0.0127693
0.0125493
0.0123653
0.0121881
0.0119886
0.0117895
0.0116089
0.011176
0.00966975
0.00749231
0.0127974
0.0125876
0.0124184
0.0122319
0.0120067
0.0117826
0.0115911
0.0110656
0.00925815
0.00714184
0.0127034
0.0124479
0.0122721
0.0120997
0.011904
0.0117245
0.0115938
0.0110262
0.00894936
0.00688796
0.0128419
0.0125877
0.012418
0.0122064
0.0119507
0.0117171
0.0115487
0.0108675
0.00862692
0.00667557
0.0128665
0.0126488
0.0125593
0.0124081
0.0121983
0.0120185
0.0119106
0.0110378
0.00842121
0.00652099
0.0128651
0.012538
0.0123613
0.0121414
0.011901
0.0117338
0.0116825
0.0108308
0.00819354
0.00638918
0.0133488
0.0131857
0.0132717
0.0130901
0.0127604
0.0124878
0.0122914
0.0109094
0.00800027
0.00628162
0.0137967
0.0131859
0.0130273
0.012871
0.0126642
0.0125735
0.0126222
0.0110358
0.00786755
0.0062009
0.0137531
0.0142794
0.0141789
0.0134739
0.0128905
0.012675
0.0127054
0.0109005
0.00772377
0.00613387
0.0237291
0.0303296
0.0306912
0.0463737
0.0533144
0.0531705
0.0330363
0.0253577
0.0165332
0.0131965
0.0234186
0.0292668
0.0303512
0.0431213
0.0525168
0.0643102
0.0365652
0.0256275
0.0166672
0.0131107
0.0231157
0.0282189
0.0296632
0.039222
0.0509286
0.0808363
0.0413213
0.0259737
0.016893
0.0130463
0.0227851
0.027075
0.0285078
0.0358149
0.0521729
0.10606
0.0466089
0.0264492
0.0172555
0.0128774
0.0224027
0.0258275
0.0270444
0.0349299
0.0610754
0.127397
0.0497122
0.0270687
0.0176076
0.0130756
0.0220104
0.0246315
0.0261393
0.0406937
0.0799909
0.105448
0.0467738
0.0266435
0.0175886
0.0127018
0.0216679
0.0236792
0.0265723
0.0617782
0.0819145
0.0617925
0.0364482
0.0252396
0.0171357
0.0125287
0.0215509
0.022833
0.0278306
0.0926525
0.0426402
0.0321581
0.0247941
0.0211777
0.0154159
0.0131732
0.0219981
0.0215703
0.0282051
0.0391633
0.0232779
0.0204032
0.0182976
0.0178263
0.0142554
0.0118493
0.0234593
0.0198147
0.0244424
0.0220467
0.0168985
0.0155045
0.0146989
0.0142843
0.0126847
0.0136948
0.0251142
0.0181695
0.0202732
0.0176531
0.0149023
0.0140267
0.0127928
0.013111
0.0109004
0.014474
0.0270027
0.0163554
0.0184807
0.0170474
0.0147925
0.0141515
0.0122007
0.0134494
0.010293
0.0125732
0.028929
0.014977
0.0184017
0.0184072
0.0164534
0.0151904
0.0132522
0.0135232
0.01108
0.0112272
0.0316826
0.0141928
0.0177217
0.0202795
0.0204747
0.0171759
0.0164211
0.0139795
0.0132088
0.0112358
0.0364614
0.0139635
0.0167051
0.0207212
0.0265972
0.0196529
0.025428
0.01476
0.0149773
0.0125343
0.0435295
0.0141271
0.016232
0.0199842
0.0258012
0.0238409
0.0266982
0.0163965
0.0161317
0.0144728
0.0510468
0.0150445
0.0161697
0.0172882
0.0174371
0.0202711
0.0163157
0.0193124
0.0150271
0.0145032
0.0470289
0.0173672
0.0139677
0.0129054
0.0122015
0.0124613
0.0117778
0.0129106
0.0114652
0.0118463
0.0278725
0.0138361
0.0107083
0.0101589
0.00978888
0.00961902
0.00958013
0.00928742
0.00930857
0.00900552
0.00808111
0.00793441
0.008825
0.00851832
0.0084121
0.00819243
0.00805045
0.00761878
0.00766492
0.00709229
0.0114591
0.0115049
0.0113551
0.0116139
0.0123461
0.0135735
0.0147958
0.0157537
0.0145458
0.0129515
0.0109884
0.0108314
0.0110029
0.0114151
0.012079
0.012973
0.014019
0.0151519
0.0151851
0.0162492
0.0114234
0.0115184
0.0120086
0.0127219
0.0135824
0.014218
0.0152233
0.0156881
0.0161102
0.0156895
0.0123623
0.0126969
0.0133622
0.0140183
0.0146054
0.0147318
0.0154098
0.0154817
0.0165813
0.0153915
0.0137271
0.0139292
0.0143817
0.0145623
0.0146389
0.0145122
0.0148229
0.0149817
0.0158546
0.0156895
0.0141261
0.013802
0.0138367
0.01389
0.0139889
0.0139429
0.0140987
0.0142272
0.0147406
0.0154951
0.0132153
0.0127633
0.0125806
0.012577
0.012612
0.0124681
0.0122557
0.0121072
0.0120976
0.0124646
0.0111102
0.0107639
0.0104832
0.0103249
0.0101523
0.00997672
0.00973799
0.00960072
0.00946688
0.00946351
0.00877974
0.00860038
0.00843944
0.0082916
0.00813698
0.00800294
0.00788058
0.00777998
0.0076902
0.00761829
0.00695224
0.00684881
0.00674777
0.00666086
0.00659796
0.00655307
0.00651308
0.00647587
0.00645089
0.00643265
0.00622723
0.00713578
0.00906968
0.0137137
0.0232794
0.0182423
0.0141237
0.0117834
0.00992429
0.00853497
0.00630701
0.00704092
0.00859031
0.0129891
0.0433046
0.0276808
0.0148178
0.0113339
0.00962399
0.00846825
0.00644995
0.0070031
0.00815853
0.0111471
0.0220765
0.0308981
0.0161838
0.0115292
0.00962242
0.00854273
0.00667545
0.00703968
0.00784013
0.00974669
0.014476
0.0217933
0.0174104
0.0124001
0.0100187
0.00878848
0.00700571
0.00716985
0.00767652
0.00889609
0.0114286
0.015492
0.0167405
0.0135925
0.010901
0.00932099
0.00746883
0.0074143
0.00768409
0.00846954
0.00997454
0.0122655
0.0142148
0.0138071
0.0119424
0.0102043
0.00808468
0.00778888
0.00787043
0.00837358
0.00932627
0.0106829
0.0120591
0.0126761
0.0122438
0.0111598
0.00883149
0.00830187
0.00824529
0.00855692
0.0091714
0.00998658
0.0108003
0.0113476
0.0115575
0.0112449
0.00956579
0.00893096
0.00881531
0.00899835
0.00937498
0.00983927
0.0102739
0.0105977
0.0109366
0.0109092
0.0100741
0.0096342
0.00959717
0.00970313
0.00986243
0.0100199
0.0101318
0.0101714
0.0102582
0.0105656
0.0102701
0.0103801
0.0106596
0.0107902
0.0107512
0.0106337
0.010503
0.01039
0.0103837
0.0115843
0.0102754
0.0111545
0.0120863
0.0124314
0.0122047
0.011828
0.0115195
0.0113693
0.0113557
0.0122418
0.0102164
0.0119413
0.0140884
0.0150842
0.0145951
0.0139097
0.0134134
0.0131808
0.0130024
0.0133948
0.0101311
0.012705
0.0172192
0.0212039
0.0201723
0.0180861
0.0165374
0.0156307
0.0148856
0.0145793
0.00996704
0.013118
0.0205319
0.0458368
0.0450542
0.026114
0.0200697
0.0178268
0.0164515
0.0155592
0.00958212
0.013137
0.0215324
0.0435841
0.0462039
0.0279319
0.021072
0.0187243
0.0174231
0.0162244
0.00911786
0.0129384
0.0196084
0.0249444
0.0260165
0.0231509
0.0198277
0.0180279
0.0170162
0.0160408
0.00868252
0.0124551
0.0172993
0.0192596
0.0197402
0.0192211
0.0178788
0.0167217
0.015923
0.0152529
0.00829659
0.0119039
0.0160456
0.0172905
0.0174775
0.0172712
0.0165881
0.0157778
0.0150739
0.014531
0.00796485
0.0114083
0.0155142
0.016607
0.0165792
0.0163441
0.0158334
0.0151429
0.0144495
0.0139278
0.0132341
0.0154068
0.0216561
0.0389258
0.0379861
0.0333894
0.0333881
0.0363127
0.0385988
0.0504208
0.012929
0.0154632
0.0204684
0.0285447
0.0323696
0.0320633
0.0331368
0.0368115
0.0408411
0.0588966
0.0130244
0.0160896
0.0202498
0.0271941
0.0298318
0.0308285
0.0324366
0.0363101
0.0408577
0.0595528
0.0133499
0.0164807
0.0198125
0.0257136
0.0276966
0.0292468
0.0312624
0.0352227
0.0397306
0.0566546
0.0137005
0.0160307
0.0188945
0.0237997
0.0258285
0.0278377
0.0301707
0.034095
0.0382011
0.0529153
0.0139779
0.0151245
0.0178529
0.0220778
0.024537
0.0270798
0.0297477
0.0336479
0.0371908
0.050086
0.0142317
0.0142516
0.0169582
0.0207395
0.0237078
0.0268776
0.030021
0.0340756
0.037136
0.0488752
0.0144088
0.0136052
0.0163029
0.0197339
0.0230844
0.0268958
0.0306738
0.0351196
0.0379029
0.0491381
0.0144754
0.0132395
0.0158312
0.0189861
0.0225175
0.0269019
0.0313996
0.0364485
0.0391653
0.0504264
0.0144628
0.0131011
0.0154559
0.0184082
0.0219509
0.0267862
0.032011
0.0378167
0.0406643
0.0523543
0.00929195
0.0113058
0.0123451
0.0128693
0.0122537
0.011609
0.0111252
0.0107204
0.0105163
0.0103971
0.00999208
0.011302
0.0125062
0.0128406
0.0126855
0.0123084
0.0120023
0.0117025
0.0115668
0.0113978
0.0128261
0.0136262
0.0164645
0.0170579
0.01651
0.0157211
0.0151748
0.0147181
0.014442
0.0140528
0.0161502
0.0170716
0.0261183
0.0366508
0.0273889
0.0236734
0.0222158
0.0215763
0.0208557
0.0202786
0.0145192
0.0163075
0.0256208
0.128613
0.0382846
0.0312678
0.0300948
0.0310932
0.0309933
0.0334591
0.00645298
0.0066114
0.00682606
0.00709247
0.0073996
0.0077218
0.0080166
0.00826306
0.00851249
0.00858205
0.00673508
0.00688502
0.00709564
0.00734844
0.0076217
0.00791737
0.00822815
0.00866673
0.00906154
0.00963299
0.00704232
0.0071724
0.00736587
0.00759795
0.00785858
0.00819282
0.00864364
0.00943727
0.0101145
0.0119998
0.00739497
0.00749068
0.0076615
0.00788397
0.00817499
0.00860765
0.00929132
0.0102839
0.0109301
0.0130043
0.00780762
0.00785423
0.00801081
0.0082598
0.00864951
0.00925858
0.0101258
0.0108274
0.0109484
0.0124783
0.0130568
0.0134029
0.0141459
0.0143488
0.0141382
0.0137252
0.0131486
0.0120977
0.0101193
0.00783511
0.0144427
0.0141323
0.0138896
0.0134804
0.0131174
0.0128271
0.0125146
0.0119346
0.0105665
0.00827929
0.0137363
0.0134451
0.0133712
0.0132073
0.0130336
0.0128703
0.0126561
0.01225
0.0112731
0.00894321
0.0137837
0.0135727
0.0134863
0.013294
0.0130683
0.01285
0.0126193
0.012366
0.0119886
0.00994028
0.0136606
0.013419
0.0132635
0.0130467
0.0128108
0.0125992
0.0124359
0.0124457
0.0129321
0.0119045
0.0135284
0.0132875
0.0130911
0.0128509
0.0125886
0.0123553
0.0122154
0.0124119
0.0138348
0.0165738
0.0133468
0.0131211
0.0129183
0.0126914
0.012444
0.0122212
0.0120847
0.0122336
0.0135515
0.017952
0.0131717
0.0129741
0.0127904
0.0125994
0.0123942
0.0122056
0.0120578
0.0120238
0.0124523
0.01216
0.0130257
0.0128426
0.01267
0.0124989
0.0123138
0.0121357
0.0119676
0.0117766
0.0115004
0.00982123
0.0129092
0.0127231
0.01255
0.0123814
0.012195
0.0120078
0.0118217
0.0115265
0.0107489
0.00867174
0.00883335
0.0105584
0.0127719
0.0146292
0.0155232
0.0159558
0.0135479
0.0095024
0.00726262
0.00619496
0.00951152
0.0116093
0.0138031
0.0149184
0.0148475
0.0143479
0.0129826
0.00981087
0.00741029
0.00620239
0.0105991
0.0128065
0.0142566
0.0143355
0.0137605
0.013102
0.0121286
0.00989941
0.00756913
0.00624773
0.0117486
0.0135044
0.0142643
0.0139729
0.0131976
0.012445
0.0116994
0.0100362
0.00775406
0.00632373
0.0126418
0.0139676
0.0143519
0.0138568
0.0129867
0.012177
0.0114278
0.010054
0.00793914
0.00642713
0.0136199
0.0147367
0.0145911
0.0135432
0.0124761
0.0117188
0.0111348
0.0101059
0.00817226
0.00656837
0.0147475
0.0150812
0.0138885
0.0125931
0.0117884
0.0113434
0.0110093
0.0102462
0.0084473
0.00674355
0.0148532
0.013743
0.0123208
0.0115459
0.0112597
0.0111804
0.0111018
0.010548
0.0088015
0.00696198
0.012892
0.0117897
0.0111779
0.0110951
0.0112732
0.011489
0.0115976
0.0111058
0.00924177
0.00722068
0.0108008
0.0110346
0.0113686
0.0118161
0.0122501
0.0125477
0.0125899
0.0118419
0.00972521
0.0075127
0.027855
0.0759555
0.0287446
0.0296548
0.0282641
0.0293114
0.0333798
0.0319882
0.0246862
0.0174763
0.0276005
0.0681819
0.0273947
0.0290018
0.0283745
0.0288389
0.0305035
0.0265328
0.0243203
0.0152603
0.0271133
0.0580413
0.0270176
0.0299477
0.0292742
0.0292012
0.0295048
0.0258266
0.0243319
0.0148775
0.0266072
0.0497995
0.0275772
0.0323239
0.0308744
0.0298543
0.0288746
0.0257408
0.0228814
0.0148467
0.0261534
0.0439819
0.0284381
0.0354892
0.0328454
0.0305259
0.0281447
0.0255236
0.0210314
0.0147295
0.0257123
0.0400166
0.0292713
0.0390477
0.0352567
0.031487
0.0275323
0.0252206
0.0192986
0.0144871
0.0252711
0.0371157
0.0299534
0.0427575
0.0384378
0.0331502
0.0273688
0.0249948
0.0180138
0.0141402
0.0248404
0.0348293
0.0304307
0.046072
0.042584
0.035798
0.0278047
0.0248792
0.0172009
0.013791
0.0244352
0.0329995
0.0307011
0.0481014
0.0473382
0.0396932
0.0288472
0.0249118
0.016745
0.013521
0.0240652
0.0315349
0.0307888
0.0481987
0.051458
0.0452686
0.0305434
0.0250972
0.0165478
0.0133328
0.00732757
0.0075961
0.00922556
0.0091691
0.00973896
0.00988261
0.0101524
0.00997114
0.00992954
0.00851795
0.0145247
0.0106996
0.0102401
0.0106739
0.010889
0.0112799
0.0117648
0.0119342
0.0123969
0.011459
0.0257541
0.0169921
0.0128303
0.0133808
0.0133363
0.0140576
0.0150057
0.0167339
0.0173732
0.0165908
0.0288355
0.0329104
0.0187134
0.0192589
0.0185076
0.0199805
0.0223857
0.0329952
0.0333756
0.0155869
0.02864
0.062925
0.0265139
0.0268695
0.0249341
0.0265534
0.0310776
0.0444732
0.0348937
0.0160528
0.00812857
0.00776626
0.00739544
0.00705557
0.00676847
0.00654834
0.00640118
0.00632368
0.00630631
0.00634824
0.0105546
0.00976839
0.00903042
0.00838745
0.00782655
0.00735621
0.00700321
0.00677735
0.00666529
0.00665469
0.0135458
0.0121205
0.0109195
0.00996972
0.00916565
0.00844134
0.00781556
0.00736398
0.0071017
0.007004
0.0145473
0.013519
0.0125853
0.0116216
0.0106756
0.00977562
0.00886923
0.00811922
0.00764468
0.00742167
0.0149181
0.01511
0.0142814
0.0131733
0.0120506
0.0110915
0.0101105
0.00911078
0.00835868
0.00794198
)
;

boundaryField
{
    left
    {
        type            calculated;
        value           nonuniform List<scalar> 
35
(
0.0189796
0.0166392
0.0149413
0.0141096
0.0138663
0.0140003
0.0144895
0.015346
0.0156129
0.00800624
0.0187031
0.018717
0.0187333
0.0187498
0.0187833
0.018879
0.0190585
0.0193692
0.0198125
0.0200882
0.0188658
0.0188304
0.0187665
0.0187396
0.01874
0.0187389
0.0187274
0.0187113
0.0186991
0.0186963
0.0072807
0.0129674
0.0178149
0.0187394
0.0189194
)
;
    }
    right
    {
        type            calculated;
        value           nonuniform List<scalar> 
35
(
0.0103983
0.0114037
0.0140865
0.0205028
0.0352034
0.0586818
0.0747825
0.0783296
0.0748772
0.0693146
0.0652155
0.0640931
0.065898
0.0701503
0.0765773
0.0846204
0.0910457
0.0879637
0.0708607
0.048864
0.0321707
0.0222886
0.0170876
0.0146796
0.0137902
0.0142662
0.0162031
0.0209475
0.0392511
0.0943429
0.029472
0.0159273
0.011439
0.00955343
0.008758
)
;
    }
    down
    {
        type            calculated;
        value           nonuniform List<scalar> 
40
(
0.00644383
0.00688707
0.00897958
0.00865797
0.00937474
0.00941066
0.00961133
0.00936362
0.00913626
0.00776756
0.00745351
0.00718125
0.00689235
0.00663057
0.00642035
0.00627191
0.00618383
0.00614931
0.00615925
0.00621546
0.00632721
0.00648843
0.00670335
0.00697398
0.00729965
0.00765403
0.00797652
0.00820091
0.00839044
0.00835052
0.00935148
0.0121247
0.0133183
0.0141154
0.0128252
0.0118038
0.0111024
0.010571
0.0102926
0.0101707
)
;
    }
    up
    {
        type            calculated;
        value           nonuniform List<scalar> 
40
(
0.00715591
0.00809231
0.00896742
0.00953424
0.0094497
0.00912795
0.00885535
0.00867981
0.00856484
0.00854292
0.00608701
0.00610075
0.00612196
0.00615018
0.00619908
0.00624597
0.00633648
0.00639212
0.00654916
0.00657464
0.00643901
0.00635157
0.00626736
0.0061989
0.00615352
0.00612444
0.00610163
0.00608576
0.0060775
0.00607937
0.00686748
0.00699249
0.00831502
0.00799141
0.0079451
0.00771945
0.00751718
0.0071186
0.00710856
0.0065644
)
;
    }
    cylinder
    {
        type            calculated;
        value           nonuniform List<scalar> 
80
(
0.00696114
0.00679767
0.00668584
0.00661493
0.00658839
0.00664023
0.00678879
0.00705872
0.00752039
0.00828317
0.00957667
0.0123514
0.0221393
0.0271411
0.0143636
0.0102508
0.00849504
0.00751566
0.0069039
0.00650057
0.0057269
0.00570016
0.00569238
0.00570482
0.00573437
0.00577792
0.0058374
0.00592156
0.0060453
0.00622888
0.00726884
0.00686629
0.00657509
0.00636529
0.00619372
0.0060685
0.00596406
0.00588012
0.0058171
0.00576674
0.00716836
0.00753594
0.00808816
0.0089564
0.0107655
0.0157449
0.0190117
0.0113156
0.00893208
0.00788136
0.00590632
0.00588492
0.00590422
0.00595445
0.00603166
0.00614185
0.00628191
0.00645747
0.00666586
0.00690266
0.00597249
0.00609391
0.00628839
0.0065797
0.00699865
0.00759157
0.00840628
0.00941946
0.0103263
0.0106569
0.0104085
0.00999349
0.00964219
0.00937525
0.0091186
0.00868214
0.00819265
0.0077859
0.00745352
0.00717907
)
;
    }
    defaultFaces
    {
        type            empty;
    }
}


// ************************************************************************* //
