/*--------------------------------*- C++ -*----------------------------------*\
| =========                 |                                                 |
| \\      /  F ield         | OpenFOAM: The Open Source CFD Toolbox           |
|  \\    /   O peration     | Version:  2406                                  |
|   \\  /    A nd           | Website:  www.openfoam.com                      |
|    \\/     M anipulation  |                                                 |
\*---------------------------------------------------------------------------*/
FoamFile
{
    version     2.0;
    format      ascii;
    arch        "LSB;label=32;scalar=64";
    class       volScalarField;
    location    "0.6";
    object      p;
}
// * * * * * * * * * * * * * * * * * * * * * * * * * * * * * * * * * * * * * //

dimensions      [0 2 -2 0 0 0 0];

internalField   nonuniform List<scalar> 
1800
(
-1.75394
-1.73794
-1.73546
-1.73855
-1.74709
-1.76331
-1.78976
-1.82855
-1.88092
-1.9481
-1.74963
-1.73497
-1.73096
-1.72959
-1.73176
-1.74054
-1.75742
-1.78292
-1.81697
-1.8608
-1.75099
-1.7422
-1.7366
-1.73138
-1.72916
-1.73236
-1.74194
-1.75789
-1.77933
-1.80896
-1.76959
-1.75875
-1.75092
-1.74368
-1.7383
-1.73643
-1.73887
-1.7455
-1.75555
-1.77282
-1.7996
-1.78499
-1.77636
-1.76771
-1.75942
-1.75301
-1.74944
-1.74873
-1.75058
-1.7591
-1.83614
-1.81983
-1.80977
-1.79852
-1.78633
-1.77492
-1.76545
-1.75814
-1.75316
-1.75353
-1.87639
-1.85853
-1.84595
-1.83075
-1.81351
-1.79641
-1.78068
-1.76654
-1.75405
-1.74405
-1.91491
-1.89536
-1.87907
-1.85862
-1.8354
-1.81205
-1.78968
-1.76822
-1.74729
-1.72645
-1.94499
-1.92372
-1.90271
-1.87628
-1.84688
-1.81728
-1.7881
-1.75876
-1.72838
-1.69584
-1.95932
-1.93641
-1.91024
-1.87784
-1.84275
-1.80735
-1.77164
-1.73452
-1.69479
-1.6515
-1.05585
-1.05991
-1.05766
-1.05144
-1.04257
-1.03225
-1.02091
-1.00861
-0.995238
-0.980636
-1.1594
-1.16221
-1.15974
-1.15424
-1.14668
-1.13828
-1.12942
-1.11995
-1.10959
-1.09789
-1.26933
-1.27066
-1.26794
-1.26347
-1.25824
-1.25281
-1.24746
-1.24208
-1.23616
-1.229
-1.3802
-1.37953
-1.37585
-1.37188
-1.37021
-1.36996
-1.36986
-1.37009
-1.37021
-1.36929
-1.48935
-1.4869
-1.4842
-1.48191
-1.48252
-1.48604
-1.49136
-1.49825
-1.50582
-1.51252
-1.58771
-1.58215
-1.58101
-1.5838
-1.58841
-1.59552
-1.60641
-1.62013
-1.63559
-1.65082
-1.66496
-1.65655
-1.6561
-1.66154
-1.67136
-1.68483
-1.70226
-1.72356
-1.7478
-1.77181
-1.71802
-1.7071
-1.70721
-1.71473
-1.72845
-1.74749
-1.7714
-1.80022
-1.83319
-1.8657
-1.74732
-1.734
-1.73387
-1.74194
-1.75693
-1.77856
-1.80679
-1.8418
-1.88314
-1.92552
-1.75621
-1.74091
-1.73944
-1.74527
-1.75731
-1.77608
-1.80203
-1.83503
-1.87375
-1.91267
-0.893604
-0.585841
-0.39957
-0.23081
-0.134596
-0.0724923
-0.0356546
-0.0150084
-0.00306393
0.000317211
-1.00526
-0.652709
-0.424663
-0.232484
-0.127442
-0.0633551
-0.0275378
-0.00899309
0.000797008
0.00141455
-1.13782
-0.732654
-0.455142
-0.235358
-0.119643
-0.0532101
-0.0185067
-0.00225117
0.00519731
0.00271802
-1.28906
-0.825028
-0.49101
-0.23898
-0.110644
-0.0416372
-0.0082784
0.00540202
0.0102625
0.00436915
-1.45472
-0.92872
-0.53284
-0.24354
-0.100385
-0.0285845
0.00317766
0.0139689
0.0159973
0.00646933
-1.62684
-1.04413
-0.582433
-0.250889
-0.0901884
-0.0149798
0.0152462
0.0230457
0.022158
0.00897281
-1.78997
-1.17226
-0.642625
-0.264779
-0.0829867
-0.00285521
0.0265887
0.0317741
0.0282056
0.0116559
-1.93154
-1.30657
-0.714647
-0.289434
-0.0826698
0.00498578
0.0353153
0.0389286
0.0333367
0.014131
-2.0982
-1.43789
-0.794264
-0.325106
-0.091373
0.00616906
0.0394116
0.0430527
0.0365288
0.0158884
-2.05168
-1.55309
-0.877362
-0.368525
-0.10778
0.000838159
0.0383828
0.0434632
0.0371134
0.0165046
-2.2411
-1.64741
-0.930321
-0.394643
-0.121478
-0.00861369
0.0320872
0.0395248
0.034485
0.0156689
-2.31387
-1.64704
-0.9201
-0.400207
-0.141303
-0.033138
0.0111862
0.0248815
0.0248025
0.0116521
-2.22914
-1.57006
-0.885887
-0.407471
-0.164332
-0.0593003
-0.011024
0.00937696
0.0147573
0.00748467
-1.98073
-1.4292
-0.850255
-0.435456
-0.206999
-0.0959321
-0.0375041
-0.00718492
0.00558488
0.00461379
-1.72908
-1.30839
-0.828172
-0.469073
-0.252509
-0.133838
-0.0645572
-0.0243396
-0.00336178
0.00212237
-1.50734
-1.19442
-0.809121
-0.508355
-0.304055
-0.17441
-0.0925559
-0.0430451
-0.0148124
-0.00337283
-1.31811
-1.10991
-0.813235
-0.558473
-0.360217
-0.215827
-0.119849
-0.0605832
-0.0247597
-0.0068791
-1.16963
-1.05651
-0.8278
-0.6027
-0.405171
-0.247121
-0.138774
-0.0712266
-0.0297021
-0.00798772
-1.07071
-1.03155
-0.839801
-0.62833
-0.429445
-0.264243
-0.149388
-0.0775298
-0.032954
-0.00874245
-1.03112
-1.04157
-0.857511
-0.640781
-0.437386
-0.270708
-0.154085
-0.0805099
-0.0347235
-0.00951979
-1.56119
-1.62368
-1.67299
-1.71035
-1.73635
-1.75958
-1.79359
-1.85857
-1.95366
-2.10147
-1.4171
-1.49551
-1.56423
-1.62937
-1.68655
-1.74999
-1.81666
-1.9061
-1.99631
-2.14428
-1.28405
-1.36934
-1.44818
-1.52791
-1.60117
-1.68309
-1.75826
-1.85704
-1.95153
-2.08558
-1.1562
-1.24099
-1.32174
-1.40281
-1.47675
-1.5576
-1.62874
-1.71521
-1.7975
-1.89809
-1.03645
-1.11682
-1.19398
-1.26755
-1.33717
-1.40869
-1.47365
-1.5438
-1.61048
-1.68153
-0.928723
-1.00384
-1.07382
-1.13809
-1.19956
-1.25869
-1.31555
-1.37148
-1.4259
-1.48017
-0.837294
-0.906667
-0.966733
-1.01988
-1.0703
-1.11634
-1.16372
-1.20853
-1.25267
-1.29283
-0.76643
-0.828936
-0.877707
-0.920555
-0.956446
-0.990979
-1.02829
-1.06177
-1.09889
-1.131
-0.723789
-0.780053
-0.823223
-0.859092
-0.885391
-0.911588
-0.937278
-0.960746
-0.989927
-1.01376
-0.705834
-0.760812
-0.803382
-0.835572
-0.863819
-0.889911
-0.91587
-0.940733
-0.965468
-0.981298
-0.123078
-0.186568
-0.249176
-0.307711
-0.364092
-0.420329
-0.475984
-0.528124
-0.572842
-0.600797
-0.311391
-0.3777
-0.441924
-0.503183
-0.563213
-0.623187
-0.682309
-0.737911
-0.785999
-0.818764
-0.528077
-0.593083
-0.655147
-0.715729
-0.776236
-0.836627
-0.895854
-0.952328
-1.00167
-1.0385
-0.745186
-0.810271
-0.871533
-0.931336
-0.991134
-1.05024
-1.10763
-1.16361
-1.21352
-1.24985
-0.943741
-1.01205
-1.07527
-1.13528
-1.19382
-1.25081
-1.30595
-1.35999
-1.40871
-1.44352
-1.11991
-1.19181
-1.25716
-1.31733
-1.37378
-1.4281
-1.4807
-1.53227
-1.57828
-1.6106
-1.27335
-1.34516
-1.40995
-1.46894
-1.52343
-1.57492
-1.62483
-1.67351
-1.71607
-1.74577
-1.4038
-1.47106
-1.53251
-1.58839
-1.63961
-1.688
-1.73506
-1.7806
-1.8195
-1.84708
-1.50779
-1.56888
-1.62501
-1.67601
-1.72301
-1.76785
-1.81173
-1.85376
-1.88888
-1.91485
-1.58937
-1.64245
-1.6911
-1.73565
-1.77742
-1.81796
-1.85791
-1.89564
-1.92658
-1.95108
1.02074
1.01347
1.00672
1.00019
0.993816
0.987644
0.981846
0.977128
0.97594
0.985741
0.962658
0.952715
0.943302
0.934102
0.925016
0.916064
0.90746
0.900185
0.896902
0.904741
0.889597
0.876779
0.864328
0.852
0.839708
0.827431
0.815421
0.804922
0.798793
0.803954
0.80046
0.783884
0.767675
0.751601
0.735534
0.719389
0.703442
0.689209
0.679756
0.681922
0.698162
0.678364
0.658469
0.638396
0.618135
0.597567
0.576994
0.55816
0.544476
0.543061
0.580234
0.555451
0.530425
0.505446
0.480448
0.455151
0.429879
0.406559
0.388518
0.383004
0.449414
0.421568
0.393051
0.363804
0.333879
0.303103
0.271926
0.242692
0.219347
0.210123
0.3102
0.276847
0.241814
0.206376
0.170843
0.134769
0.0984923
0.0642031
0.035444
0.0218743
0.159842
0.123255
0.0837873
0.0426974
0.00082202
-0.0419265
-0.0848243
-0.125283
-0.159815
-0.178286
0.00900673
-0.0361866
-0.0843145
-0.132397
-0.18029
-0.229017
-0.277986
-0.32419
-0.363855
-0.386996
1.27919
1.174
1.21548
1.16004
1.14012
1.11813
1.10119
1.08215
1.08585
1.0624
1.27729
1.17201
1.21319
1.15614
1.13622
1.11259
1.09506
1.0705
1.06871
1.02744
1.27641
1.17014
1.21098
1.15149
1.13153
1.10676
1.08824
1.05646
1.04721
0.982541
1.27655
1.16843
1.20876
1.14602
1.12623
1.10077
1.08063
1.0402
1.02184
0.928026
1.27767
1.16693
1.2064
1.13982
1.12089
1.09454
1.07213
1.02208
0.992586
0.862462
1.27974
1.16563
1.20366
1.13361
1.11616
1.08762
1.06281
1.00238
0.960636
0.787462
1.28275
1.1645
1.2003
1.12841
1.11111
1.07923
1.05303
0.98197
0.92571
0.699246
1.28674
1.16334
1.1964
1.12306
1.10329
1.0696
1.04313
0.960719
0.887124
0.598948
1.29176
1.16211
1.19281
1.11489
1.09334
1.05998
1.03312
0.938203
0.844936
0.486303
1.29761
1.16159
1.18987
1.10501
1.08337
1.05122
1.02308
0.915715
0.799687
0.360896
1.30395
1.16325
1.18951
1.09863
1.07394
1.04154
1.01244
0.890187
0.758359
0.261146
1.31267
1.17096
1.19699
1.09887
1.06542
1.02909
1.00017
0.867557
0.736639
0.279115
1.32012
1.18254
1.20981
1.10404
1.05819
1.01469
0.983024
0.841915
0.709356
0.302078
1.32744
1.19492
1.22263
1.11023
1.05134
0.998356
0.962012
0.813993
0.67384
0.317368
1.33604
1.20343
1.22925
1.1131
1.04398
0.982442
0.936728
0.786982
0.635405
0.324227
1.34562
1.20577
1.22623
1.10916
1.03695
0.968664
0.911325
0.765983
0.595217
0.326765
1.35711
1.20031
1.21347
1.09806
1.03014
0.958222
0.891068
0.75348
0.558473
0.335732
1.37311
1.19612
1.19338
1.08376
1.02359
0.951763
0.875433
0.747736
0.531517
0.353173
1.39165
1.19775
1.17834
1.07052
1.01893
0.947319
0.863434
0.745634
0.513893
0.371447
1.43203
1.20583
1.17406
1.07022
1.02063
0.947358
0.863691
0.746086
0.513957
0.394896
-0.107444
-0.279913
-0.483673
-0.683437
-0.860048
-1.01506
-1.15536
-1.28412
-1.39387
-1.48587
-0.126056
-0.273898
-0.432877
-0.590992
-0.736596
-0.871459
-0.999477
-1.12347
-1.23572
-1.3342
-0.110339
-0.252005
-0.388389
-0.519493
-0.645931
-0.770006
-0.890265
-1.00556
-1.10546
-1.19878
-0.0761562
-0.212648
-0.337486
-0.447807
-0.553661
-0.662071
-0.771113
-0.877017
-0.976224
-1.06888
-0.0314956
-0.157495
-0.271532
-0.367903
-0.459164
-0.556195
-0.658974
-0.761456
-0.859072
-0.949919
0.0239691
-0.0871042
-0.193165
-0.285433
-0.371926
-0.463298
-0.561711
-0.662052
-0.758061
-0.846633
0.0870778
-0.0110636
-0.113327
-0.208544
-0.296996
-0.385694
-0.479225
-0.576093
-0.671832
-0.759962
0.143742
0.0545249
-0.0444992
-0.143084
-0.235373
-0.322721
-0.411965
-0.505851
-0.602421
-0.689947
0.177096
0.0907345
-0.00525637
-0.102624
-0.194927
-0.284855
-0.378517
-0.474928
-0.570199
-0.653035
0.196931
0.109471
0.015575
-0.0794161
-0.173255
-0.268724
-0.365684
-0.461888
-0.553536
-0.636059
-0.557122
-0.533578
-0.501382
-0.465003
-0.427906
-0.39478
-0.36615
-0.341113
-0.321079
-0.307044
-0.642677
-0.618523
-0.587188
-0.550586
-0.513701
-0.481008
-0.453054
-0.429128
-0.410401
-0.397816
-0.702296
-0.678884
-0.649902
-0.614556
-0.579404
-0.547515
-0.520015
-0.497302
-0.479335
-0.467067
-0.737184
-0.715499
-0.690512
-0.658518
-0.624553
-0.592833
-0.565697
-0.544065
-0.527069
-0.515036
-0.751325
-0.732225
-0.711779
-0.683975
-0.652096
-0.620964
-0.593694
-0.571883
-0.555246
-0.543329
-0.749965
-0.734104
-0.717785
-0.694115
-0.664971
-0.634937
-0.607364
-0.584365
-0.566785
-0.554389
-0.737257
-0.724896
-0.711772
-0.691451
-0.664852
-0.636032
-0.608388
-0.584129
-0.564758
-0.551147
-0.716333
-0.707233
-0.696202
-0.678315
-0.654066
-0.626868
-0.600001
-0.575659
-0.555514
-0.541362
-0.690811
-0.68425
-0.674205
-0.657823
-0.635701
-0.610596
-0.585338
-0.561922
-0.542135
-0.529097
-0.666689
-0.661802
-0.65205
-0.63661
-0.616598
-0.594255
-0.571863
-0.551162
-0.533526
-0.522426
-0.650156
-0.646385
-0.636899
-0.622406
-0.604653
-0.585349
-0.566068
-0.54814
-0.531548
-0.514588
-0.644924
-0.642101
-0.633293
-0.620136
-0.605061
-0.589289
-0.573558
-0.558672
-0.544322
-0.527556
-0.651106
-0.649261
-0.641629
-0.62961
-0.616984
-0.60455
-0.592025
-0.579615
-0.566954
-0.551497
-0.666357
-0.665941
-0.660253
-0.649345
-0.638033
-0.627762
-0.617017
-0.605493
-0.593177
-0.578408
-0.687163
-0.688042
-0.684203
-0.67594
-0.665656
-0.656289
-0.646153
-0.634173
-0.621157
-0.606089
-0.714646
-0.717113
-0.71561
-0.711179
-0.701531
-0.689357
-0.677289
-0.664909
-0.651632
-0.636486
-0.756342
-0.760517
-0.760031
-0.755704
-0.746045
-0.733099
-0.719791
-0.706364
-0.692214
-0.676969
-0.812105
-0.817223
-0.816612
-0.811458
-0.801811
-0.789176
-0.775287
-0.760789
-0.745557
-0.729565
-0.880737
-0.886025
-0.884753
-0.878781
-0.869066
-0.856906
-0.843249
-0.828595
-0.813017
-0.796642
-0.962222
-0.967126
-0.965272
-0.958921
-0.949379
-0.937878
-0.92501
-0.911027
-0.895941
-0.879795
-0.510018
-0.420866
-0.358108
-0.284302
-0.213344
-0.149396
-0.0981675
-0.0594547
-0.0310222
-0.00873668
-0.524917
-0.417592
-0.351125
-0.27199
-0.203533
-0.141885
-0.0928674
-0.0562111
-0.0292773
-0.00830674
-0.539576
-0.415967
-0.346442
-0.263967
-0.194629
-0.13426
-0.0871324
-0.0523414
-0.02686
-0.00743693
-0.555025
-0.416902
-0.343662
-0.256849
-0.186246
-0.126632
-0.0811735
-0.0481427
-0.0241168
-0.00636711
-0.573636
-0.420184
-0.342192
-0.249925
-0.178063
-0.119006
-0.0750812
-0.04376
-0.0212363
-0.005278
-0.597746
-0.426402
-0.342723
-0.243579
-0.17016
-0.11147
-0.0689593
-0.0393171
-0.0183494
-0.00425904
-0.629993
-0.43763
-0.346136
-0.238258
-0.162604
-0.104021
-0.0628135
-0.0348518
-0.0155047
-0.00332998
-0.673281
-0.456885
-0.353115
-0.234241
-0.155364
-0.0965478
-0.0565416
-0.0302952
-0.0126498
-0.00245558
-0.730027
-0.487489
-0.364166
-0.231664
-0.148364
-0.0889043
-0.0500098
-0.0255386
-0.00968699
-0.00158191
-0.801517
-0.531609
-0.379581
-0.230531
-0.141494
-0.0809403
-0.0430913
-0.0204784
-0.00652202
-0.000667355
-0.477959
-0.421666
-0.365035
-0.289792
-0.216332
-0.151342
-0.0997389
-0.0591724
-0.0298142
-0.00847379
-0.47012
-0.41591
-0.363241
-0.290234
-0.217269
-0.15236
-0.100533
-0.0598004
-0.0300259
-0.00840117
-0.468918
-0.412692
-0.360259
-0.29001
-0.217069
-0.152496
-0.100578
-0.0598641
-0.0300955
-0.00822623
-0.471928
-0.410403
-0.354802
-0.289287
-0.217989
-0.153395
-0.101145
-0.0605142
-0.0307663
-0.00832154
-0.485496
-0.413571
-0.353588
-0.283551
-0.218194
-0.153559
-0.101189
-0.0610407
-0.031564
-0.00867716
-0.29751
-0.38388
-0.450543
-0.498254
-0.529129
-0.544935
-0.547993
-0.54082
-0.526317
-0.503932
-0.295194
-0.382297
-0.448664
-0.495443
-0.525413
-0.541024
-0.544322
-0.537054
-0.523505
-0.500847
-0.295526
-0.383618
-0.450314
-0.496966
-0.526323
-0.540838
-0.541973
-0.533521
-0.518452
-0.500974
-0.297427
-0.386912
-0.454363
-0.501151
-0.529722
-0.542329
-0.540349
-0.529792
-0.513565
-0.503862
-0.300989
-0.392051
-0.460516
-0.507612
-0.53542
-0.546027
-0.541516
-0.529195
-0.514453
-0.51289
0.873413
0.868275
0.860914
0.853694
0.847204
0.841154
0.83564
0.831405
0.830191
0.837125
0.934022
0.932447
0.928382
0.923621
0.919015
0.914596
0.910528
0.907488
0.907432
0.916007
0.984505
0.983608
0.98119
0.978451
0.975952
0.973677
0.971662
0.970286
0.971398
0.981242
1.02944
1.0295
1.02848
1.0272
1.02608
1.02508
1.02416
1.0234
1.02462
1.03507
1.06479
1.06503
1.06472
1.06435
1.06416
1.06415
1.06414
1.0639
1.06497
1.0751
1.09005
1.09017
1.09019
1.09032
1.09073
1.09144
1.09229
1.0928
1.09382
1.10118
1.10352
1.103
1.10269
1.1026
1.10282
1.10341
1.10431
1.10509
1.10623
1.11303
1.10406
1.10241
1.10111
1.10002
1.09916
1.0986
1.09824
1.09789
1.09902
1.1101
1.09092
1.08774
1.08501
1.08249
1.08016
1.07809
1.07628
1.07484
1.07571
1.08753
1.06333
1.05828
1.05373
1.0494
1.04526
1.04135
1.0378
1.03501
1.03522
1.04641
-0.196895
-0.21355
-0.235504
-0.261517
-0.290736
-0.32311
-0.358253
-0.394113
-0.42586
-0.447294
-0.0725876
-0.0925244
-0.116182
-0.142396
-0.170966
-0.202207
-0.235543
-0.269063
-0.29898
-0.317589
0.0602979
0.0372585
0.0122181
-0.0139617
-0.0415188
-0.0710709
-0.102261
-0.133153
-0.1606
-0.174437
0.194887
0.169834
0.144134
0.118348
0.0920779
0.0647181
0.036489
0.00906771
-0.0144276
-0.0243668
0.321499
0.296283
0.271468
0.247477
0.223726
0.19959
0.175178
0.151904
0.132827
0.126795
0.436491
0.413434
0.391554
0.370845
0.350444
0.329783
0.309062
0.289751
0.274898
0.272544
0.540551
0.521689
0.504117
0.487141
0.470013
0.452622
0.435424
0.419911
0.408963
0.409788
0.637327
0.62273
0.608848
0.594832
0.580403
0.565804
0.551621
0.539384
0.531773
0.535083
0.732085
0.719478
0.706897
0.694318
0.681697
0.669221
0.657503
0.64802
0.643042
0.647887
0.822266
0.810114
0.796541
0.783929
0.772451
0.7619
0.752593
0.745558
0.742511
0.748229
1.35564
1.20393
1.23105
1.1608
1.15003
1.12963
1.10058
1.07487
1.03499
0.959163
1.34295
1.19948
1.23197
1.16428
1.15159
1.13283
1.10599
1.08234
1.05294
0.995425
1.33144
1.19535
1.23189
1.16666
1.15239
1.13501
1.11052
1.09023
1.07215
1.03084
1.32107
1.19173
1.23111
1.16834
1.1527
1.13633
1.11409
1.0968
1.0876
1.06085
1.31186
1.18851
1.22964
1.16923
1.15239
1.13661
1.11627
1.10129
1.09892
1.08417
1.30378
1.18562
1.22765
1.16934
1.15143
1.1358
1.11694
1.10367
1.10644
1.10064
1.2968
1.18299
1.22534
1.16876
1.14995
1.13399
1.1162
1.104
1.11033
1.1097
1.29088
1.18055
1.22288
1.16757
1.14809
1.13124
1.11417
1.10216
1.11047
1.11092
1.28598
1.17826
1.22036
1.16574
1.1459
1.12761
1.1109
1.09796
1.10661
1.10378
1.28209
1.17608
1.21788
1.16324
1.1433
1.12319
1.10652
1.09131
1.09847
1.08775
1.4704
1.21348
1.21094
1.14032
1.1375
1.11249
1.0777
1.04401
0.983808
0.897969
1.43423
1.21637
1.21634
1.14232
1.13954
1.11462
1.079
1.0447
0.982603
0.891067
1.41153
1.21427
1.22015
1.14548
1.14117
1.11708
1.08172
1.04848
0.987155
0.893437
1.38928
1.21172
1.22478
1.15081
1.14423
1.12137
1.08777
1.05666
0.995406
0.901855
1.37058
1.20849
1.22846
1.15597
1.14737
1.12555
1.0939
1.0634
1.00921
0.912566
0.754747
0.695114
0.623833
0.538625
0.437358
0.319696
0.190133
0.0562943
-0.0727215
-0.192166
0.74816
0.688405
0.617636
0.534429
0.436849
0.322996
0.195672
0.0619173
-0.068349
-0.189136
0.756096
0.694801
0.621908
0.537854
0.440694
0.327829
0.201063
0.0667
-0.0650337
-0.1876
0.774499
0.705675
0.627837
0.541826
0.444147
0.331664
0.205191
0.0701185
-0.0631646
-0.187645
0.808107
0.724576
0.636761
0.546047
0.446225
0.333331
0.207122
0.0716418
-0.0630339
-0.189407
)
;

boundaryField
{
    left
    {
        type            zeroGradient;
    }
    right
    {
        type            fixedValue;
        value           uniform 0;
    }
    down
    {
        type            zeroGradient;
    }
    up
    {
        type            zeroGradient;
    }
    cylinder
    {
        type            zeroGradient;
    }
    defaultFaces
    {
        type            empty;
    }
}


// ************************************************************************* //
