/*--------------------------------*- C++ -*----------------------------------*\
| =========                 |                                                 |
| \\      /  F ield         | OpenFOAM: The Open Source CFD Toolbox           |
|  \\    /   O peration     | Version:  2406                                  |
|   \\  /    A nd           | Website:  www.openfoam.com                      |
|    \\/     M anipulation  |                                                 |
\*---------------------------------------------------------------------------*/
FoamFile
{
    version     2.0;
    format      ascii;
    arch        "LSB;label=32;scalar=64";
    class       surfaceScalarField;
    location    "0.6";
    object      phi;
}
// * * * * * * * * * * * * * * * * * * * * * * * * * * * * * * * * * * * * * //

dimensions      [0 3 -1 0 0 0 0];

oriented        oriented;

internalField   nonuniform List<scalar> 
3485
(
0.00297289
0.00384276
-0.00681564
0.0091327
0.00819408
-0.0143539
0.0175564
0.00878531
-0.017209
0.0284949
0.00580052
-0.016739
0.0419827
0.000597801
-0.0140856
0.0580067
-0.00556031
-0.0104636
0.0763469
-0.0115888
-0.00675146
0.0968788
-0.0172756
-0.00325634
0.119469
-0.022893
0.000302646
-0.0253376
0.00274502
0.142062
0.0023249
0.00151786
0.00767046
0.00284852
0.0161094
0.000346326
0.0278391
-0.00592912
0.0424327
-0.0139958
0.059075
-0.0222026
0.0772737
-0.0297876
0.0966605
-0.0366623
0.116985
-0.0432178
-0.0469088
0.138557
0.00139939
0.000118468
0.00651597
-0.00226806
0.0159571
-0.00909478
0.0291139
-0.019086
0.0448994
-0.0297812
0.0624042
-0.0397075
0.0810299
-0.0484132
0.100406
-0.0560389
0.120262
-0.0630729
-0.0674343
0.140787
0.00122769
-0.00110922
0.00714783
-0.0081882
0.0179798
-0.0199267
0.03237
-0.0334762
0.048916
-0.0463272
0.0666438
-0.0574353
0.0849877
-0.0667571
0.103688
-0.0747395
0.122636
-0.0820209
-0.0868263
0.142028
0.0020138
-0.00312302
0.0095645
-0.0157389
0.0219138
-0.0322761
0.0372718
-0.0488342
0.0540991
-0.0631544
0.0714613
-0.0747975
0.0889494
-0.0842452
0.106526
-0.0923162
0.124331
-0.0998255
-0.105858
0.143362
0.00296255
-0.00608557
0.0121903
-0.0249666
0.0258353
-0.0459211
0.0415952
-0.064594
0.0578892
-0.0794485
0.0739996
-0.090908
0.0898537
-0.100099
0.105784
-0.108247
0.122351
-0.116392
-0.124617
0.14111
0.00391976
-0.0100053
0.0145201
-0.035567
0.0287646
-0.0601656
0.0439435
-0.0797729
0.0586857
-0.0941907
0.0727331
-0.104955
0.0864794
-0.113846
0.100643
-0.12241
0.116068
-0.131817
-0.142541
0.133992
0.00482437
-0.0148297
0.0161888
-0.0469314
0.0299056
-0.0738824
0.0432886
-0.0931559
0.0555519
-0.106454
0.0670366
-0.11644
0.0785559
-0.125365
0.0910434
-0.134898
0.105241
-0.146015
-0.158707
0.121407
0.00551862
-0.0203483
0.0167299
-0.0581427
0.0287418
-0.0858943
0.0394564
-0.103871
0.0488548
-0.115852
0.05775
-0.125335
0.067135
-0.13475
0.0778554
-0.145618
0.0901449
-0.158305
-0.171771
0.103209
0.00582135
-0.0261697
0.0158935
-0.0682148
0.0253924
-0.0953932
0.0331508
-0.111629
0.0397729
-0.122475
0.0462522
-0.131814
0.053516
-0.142014
0.0621054
-0.154207
0.0716811
-0.16788
0.0809757
-0.181065
-0.00202723
0.0181004
-0.0160732
-0.0053188
0.0306615
-0.02737
-0.00885971
0.0345952
-0.0310543
-0.0124098
0.0357354
-0.0321853
-0.015856
0.0355589
-0.0321128
-0.0191095
0.0345037
-0.0312501
-0.0221123
0.0327467
-0.0297439
-0.0248039
0.030295
-0.0276034
-0.0270825
0.0270773
-0.0247987
0.0230708
-0.0288081
-0.0213453
-0.00173527
0.0198357
-0.00464761
0.0335739
-0.00774646
0.0376941
-0.0108988
0.0388877
-0.014017
0.0386771
-0.0170295
0.0375162
-0.0198724
0.0355896
-0.0224834
0.0329059
-0.0247662
0.0293601
0.0248845
-0.0265798
-0.00126296
0.0210987
-0.00352322
0.0358341
-0.00584422
0.0400151
-0.00823855
0.041282
-0.0106996
0.0411382
-0.0131549
0.0399715
-0.0155254
0.0379601
-0.0177597
0.0351402
-0.0197747
0.0313751
0.0265395
-0.0214297
-0.000776656
0.0218753
-0.00225909
0.0373166
-0.00350767
0.0412637
-0.00451599
0.0422904
-0.00581579
0.042438
-0.00740322
0.0415589
-0.00902027
0.0395771
-0.0105795
0.0366994
-0.0120199
0.0328155
0.027722
-0.0132023
0.000195037
0.0216803
0.000164357
0.0373473
0.000166843
0.0412612
0.000240099
0.0422171
0.000152402
0.0425257
-0.000185333
0.0418967
-0.000637274
0.0400291
-0.00111328
0.0371754
-0.00155586
0.0332581
0.0279621
-0.00179604
0.0015666
0.0201137
0.0033091
0.0356048
0.00447132
0.040099
0.00527733
0.0414111
0.00630769
0.0414953
0.00758073
0.0406236
0.00886683
0.038743
0.0100743
0.035968
0.0112003
0.0321321
0.0266757
0.0124867
0.00263917
0.0174745
0.00602661
0.0322173
0.00890564
0.0372199
0.0115397
0.038777
0.0143402
0.0386948
0.0174181
0.0375457
0.0206151
0.035546
0.023789
0.0327941
0.0268817
0.0290394
0.0233995
0.0301578
0.00341927
0.0140552
0.00845766
0.0271789
0.0134518
0.0322258
0.0184827
0.0337461
0.0237775
0.0334
0.0293812
0.031942
0.035135
0.0297922
0.0408658
0.0270633
0.0464678
0.0234375
0.0176903
0.0521769
0.00376486
0.0102904
0.0100427
0.0209011
0.017028
0.0252405
0.0245974
0.0261767
0.0329116
0.0250858
0.0419357
0.0229179
0.0514096
0.0203184
0.0609528
0.0175201
0.0701361
0.0142541
0.00910633
0.0787201
0.00347474
0.0100219
0.0180534
0.0274911
0.0384913
0.0509455
0.0645124
0.0787762
0.093333
0.105184
-0.00651542
-0.00533904
-0.0169536
0.0470258
-0.233357
0.179816
0.0878803
-0.24724
0.206385
0.118027
-0.230976
0.20083
0.137413
-0.193517
0.17413
0.149071
-0.153424
0.141766
0.15541
-0.116632
0.110293
0.158292
-0.0840287
0.0811461
0.159074
-0.0571998
0.0564181
-0.0258547
0.0267085
-0.0111772
-0.0207417
0.0377126
-0.282247
0.0812056
-0.290733
0.113869
-0.26364
0.13535
-0.214997
0.148349
-0.166423
0.155527
-0.12381
0.158955
-0.0874574
0.160182
-0.0584265
-0.0252129
-0.014588
-0.0275835
0.0277046
-0.324539
0.0734401
-0.336468
0.108564
-0.298764
0.132248
-0.238682
0.146757
-0.180932
0.154979
-0.132031
0.159146
-0.0916247
0.161033
-0.0603137
-0.0249599
-0.0144176
-0.0263682
0.0206446
-0.359602
0.0672028
-0.383026
0.103903
-0.335464
0.129225
-0.264004
0.145011
-0.196717
0.154258
-0.141278
0.15923
-0.0965967
0.161919
-0.0630031
-0.0252517
-0.00759666
-0.0205676
0.0212653
-0.388464
0.0667005
-0.428462
0.103041
-0.371804
0.128443
-0.289407
0.144555
-0.212829
0.154356
-0.15108
0.159932
-0.102173
0.163417
-0.066488
-0.0261984
0.00697632
-0.0150572
0.0331518
-0.414639
0.0762454
-0.471555
0.110016
-0.405574
0.133216
-0.312607
0.147889
-0.227501
0.157105
-0.160296
0.162638
-0.107706
0.166631
-0.0704802
-0.0278148
0.0281074
-0.0130067
0.055722
-0.442254
0.0964152
-0.512248
0.127159
-0.436318
0.14669
-0.332138
0.158162
-0.238973
0.165252
-0.167386
0.169667
-0.112121
0.173487
-0.0743011
-0.0299694
0.0545676
-0.0153974
0.0822362
-0.469922
0.121767
-0.551779
0.151608
-0.466159
0.168608
-0.349139
0.176836
-0.247201
0.181078
-0.171628
0.183561
-0.114604
0.18643
-0.0771694
-0.0324694
0.0793324
-0.0160097
0.1041
-0.494689
0.143967
-0.591647
0.17637
-0.498562
0.194044
-0.366812
0.201146
-0.254303
0.203618
-0.174099
0.204597
-0.115583
0.206503
-0.0790759
-0.0353994
0.105692
-0.0165178
0.11795
-0.506947
0.157657
-0.631354
0.195347
-0.536252
0.216903
-0.388368
0.225492
-0.262893
0.228147
-0.176754
0.229061
-0.116496
0.23102
-0.0810351
-0.0392977
0.363426
-0.169542
-0.210402
0.436794
-0.580315
0.471858
-0.666418
0.485825
-0.550218
0.478886
-0.38143
0.461008
-0.245015
0.441213
-0.156959
0.42529
-0.100573
0.41463
-0.0703756
-0.0353773
0.545337
-0.310873
-0.404005
0.581859
-0.616837
0.571211
-0.65577
0.550622
-0.529629
0.530523
-0.361331
0.510468
-0.22496
0.491466
-0.137957
0.476397
-0.0855036
0.465734
-0.0597133
-0.0308771
0.757919
-0.395028
-0.673764
0.746056
-0.604974
0.691249
-0.600963
0.633515
-0.471895
0.58792
-0.315737
0.554901
-0.19194
0.531095
-0.114151
0.514466
-0.0688753
0.50279
-0.0480368
-0.0258631
0.861514
-0.406676
-0.849867
0.801536
-0.544996
0.729501
-0.528928
0.66584
-0.408234
0.613539
-0.263435
0.575266
-0.153667
0.549035
-0.0879198
0.531505
-0.0513455
0.519304
-0.0358359
-0.0208559
0.91787
-0.392216
-0.932329
0.854468
-0.481594
0.772947
-0.447407
0.694223
-0.329509
0.629121
-0.198333
0.583275
-0.107821
0.553766
-0.0584113
0.534873
-0.0324523
0.521691
-0.022654
-0.0153782
0.934071
-0.3593
-0.966987
0.858361
-0.405883
0.768691
-0.357738
0.685618
-0.246437
0.619191
-0.131906
0.57342
-0.0620508
0.545022
-0.0300134
0.527659
-0.0150884
0.516281
-0.011276
-0.0101704
0.928703
-0.310264
-0.977739
0.838224
-0.315405
0.731798
-0.251311
0.640153
-0.154792
0.576066
-0.0678187
0.536537
-0.0225218
0.513561
-0.00703714
0.500236
-0.00176396
0.491407
-0.00244706
-0.00528123
0.859803
-0.230081
-0.939985
0.740376
-0.195978
0.618149
-0.129085
0.528334
-0.0649769
0.476991
-0.0164755
0.45076
0.00370959
0.437054
0.0066688
0.429658
0.00563224
0.424447
0.00276389
-0.0015442
0.622296
-0.109394
-0.742984
0.488504
-0.0621853
0.385209
-0.0257898
0.326803
-0.00657143
0.304347
0.00598038
0.298604
0.00945331
0.297529
0.00774396
0.297809
0.00535145
0.297521
0.0030526
0.00018339
0.17278
-0.282174
0.110595
0.084805
0.0782335
0.0842139
0.0936672
0.101411
0.106763
0.109815
0.548259
0.0859094
-0.553193
0.535575
0.115893
0.516619
0.140364
0.486502
0.164109
0.448004
0.179608
0.397705
0.193661
0.343894
0.19584
0.288986
0.195695
0.239286
0.188256
0.170946
0.593174
0.0783373
-0.585602
0.596618
0.112449
0.599742
0.13724
0.596449
0.167401
0.589588
0.18647
0.574435
0.208814
0.546784
0.223491
0.51144
0.231039
0.456361
0.243335
0.223301
0.62562
0.068081
-0.615364
0.638258
0.0998107
0.650429
0.12507
0.664843
0.152987
0.676495
0.174818
0.690863
0.194446
0.697914
0.21644
0.701766
0.227187
0.696829
0.248272
0.246366
0.649823
0.0568912
-0.638634
0.666408
0.0832264
0.682933
0.108544
0.704227
0.131694
0.725099
0.153946
0.749655
0.16989
0.777076
0.189019
0.802633
0.20163
0.832374
0.21853
0.228873
0.668072
0.044501
-0.655682
0.685548
0.0657499
0.704831
0.0892613
0.728285
0.108239
0.754078
0.128153
0.782474
0.141494
0.81575
0.155743
0.851072
0.166308
0.891811
0.177791
0.188355
0.674839
0.0315765
-0.661914
0.69198
0.0486085
0.713055
0.068186
0.73824
0.083055
0.767173
0.0992195
0.799506
0.109161
0.83564
0.119609
0.87554
0.126408
0.91939
0.133941
0.140758
0.661912
0.0185671
-0.648902
0.6787
0.0318207
0.701338
0.045548
0.72821
0.0561824
0.760448
0.0669817
0.796679
0.0729301
0.83686
0.0794289
0.880904
0.0823632
0.927656
0.0871889
0.0906746
0.611524
0.00759249
-0.60055
0.627907
0.015438
0.650642
0.0228129
0.678552
0.0282722
0.713231
0.0323026
0.751527
0.0346347
0.794728
0.0362281
0.840333
0.0367581
0.889181
0.0383406
0.0398702
0.493854
-0.000567432
-0.485694
0.507746
0.00154593
0.52697
0.00358929
0.550732
0.00451023
0.578152
0.00488223
0.607934
0.00485293
0.639511
0.00465053
0.672315
0.00395488
0.706758
0.00389766
0.00364413
0.246646
-0.247214
0.248192
0.251781
0.256292
0.261174
0.266027
0.270677
0.274632
0.27853
0.0518065
0.126788
-0.115167
-0.0634284
0.0433727
0.121262
-0.112828
0.0364544
0.11788
-0.110962
0.0299966
0.115768
-0.10931
0.0236338
0.114143
-0.107781
0.0174287
0.112367
-0.106162
0.0115482
0.109539
-0.103658
0.00617182
0.103865
-0.0984887
0.00192074
0.0895023
-0.0852512
0.0494318
-0.0475111
0.0472497
0.138366
-0.0588269
0.0377165
0.130795
0.0301715
0.125425
0.0238525
0.122087
0.0182023
0.119794
0.0130556
0.117514
0.00837653
0.114218
0.00418356
0.108058
0.0011026
0.0925833
0.0505344
0.0413117
0.150484
-0.0534297
0.0304866
0.14162
0.0220021
0.13391
0.015624
0.128465
0.0107162
0.124701
0.00683724
0.121393
0.0037036
0.117352
0.00120456
0.110557
-0.00017185
0.0939597
0.0503626
0.0343478
0.162051
-0.0459149
0.0234089
0.152559
0.014542
0.142777
0.00819207
0.134815
0.00391073
0.128983
0.00107181
0.124232
-0.000751563
0.119175
-0.00161693
0.111422
-0.00125752
0.0936003
0.0491051
0.0272986
0.172065
-0.0373133
0.0175506
0.162307
0.00925962
0.151068
0.00325671
0.140818
-0.00055057
0.13279
-0.00274263
0.126424
-0.00373992
0.120172
-0.0035616
0.111244
-0.00208472
0.0921234
0.0470203
0.0185604
0.179754
-0.0262493
0.0110229
0.169845
0.00442619
0.157664
-0.000470416
0.145715
-0.00357897
0.135899
-0.0052436
0.128088
-0.00572567
0.120654
-0.00492803
0.110447
-0.00270085
0.0898962
0.0443195
0.00708658
0.185036
-0.0123678
0.00219219
0.174739
-0.00195458
0.161811
-0.00503558
0.148796
-0.00697947
0.137842
-0.00789919
0.129008
-0.00780228
0.120557
-0.00638563
0.10903
-0.00335128
0.0868619
0.0409682
-0.00948975
0.187303
0.00722259
-0.0109932
0.176242
-0.011868
0.162686
-0.0123391
0.149267
-0.012473
0.137976
-0.0121369
0.128672
-0.0110015
0.119422
-0.00847386
0.106502
-0.0041607
0.0825487
0.0368075
-0.0293635
0.186254
0.0304125
-0.0271474
0.174026
-0.0245538
0.160092
-0.0222459
0.146959
-0.0202803
0.136011
-0.0182386
0.12663
-0.0154668
0.11665
-0.0111304
0.102166
-0.00500519
0.0764234
0.0318023
-0.0509632
0.0561518
-0.0448172
-0.0389322
-0.0339873
-0.029791
-0.0256352
-0.020614
-0.0138413
-0.00563266
0.0676721
0.0381962
-0.0765898
-0.0292785
0.0589562
0.0380601
-0.0293441
0.0504446
0.0378326
-0.0293211
0.042124
0.0375884
-0.0292678
0.0339669
0.0373687
-0.0292116
0.0259519
0.0370765
-0.0290614
0.0181051
0.0363322
-0.0284854
0.0105808
0.0342754
-0.0267511
0.00392469
0.0290873
-0.0224312
0.0161007
-0.012176
0.0689023
0.0472331
-0.0779392
0.0600437
0.0469187
0.0513877
0.0464886
0.0429242
0.0460519
0.0346275
0.0456654
0.0264739
0.0452301
0.0184847
0.0443214
0.0108083
0.0419518
0.00400043
0.0358952
0.0201012
0.0694768
0.0563502
-0.0785939
0.0606047
0.0557908
0.0519388
0.0551545
0.0434548
0.054536
0.0351133
0.0540069
0.0268879
0.0534555
0.0188067
0.0524026
0.0110221
0.0497364
0.00408879
0.0428285
0.02419
0.0689459
0.0654192
-0.0780149
0.0599903
0.0647463
0.0512632
0.0638816
0.042757
0.0630422
0.0344469
0.062317
0.0263031
0.0615993
0.018336
0.0603696
0.0106814
0.057391
0.00390289
0.049607
0.0280928
0.0703119
0.0746638
-0.0795564
0.0613885
0.0736697
0.0526225
0.0726476
0.044003
0.0716617
0.0355089
0.070811
0.0271392
0.0699689
0.0189466
0.0685623
0.0110841
0.0652535
0.00409124
0.0565999
0.0321841
0.064359
0.0833691
-0.0730643
0.0557821
0.0822466
0.0475549
0.0808748
0.0396235
0.0795931
0.0319079
0.0785267
0.024338
0.0775388
0.0169103
0.07599
0.0097638
0.0724
0.00347464
0.0628891
0.0356587
0.0685331
0.0925429
-0.0777068
0.0596903
0.0910894
0.0509309
0.0896342
0.0422876
0.0882365
0.0338205
0.0869937
0.025593
0.0857663
0.0176801
0.0839029
0.010211
0.0798691
0.00367424
0.0694258
0.039333
0.0588556
0.100798
-0.067111
0.0509834
0.0989616
0.0435717
0.0970458
0.0364413
0.0953668
0.0294215
0.0940136
0.0224381
0.0927496
0.0155347
0.0908063
0.00888552
0.0865183
0.00309971
0.0752117
0.0424327
0.0576251
0.108633
-0.0654599
0.0498863
0.1067
0.0421595
0.104773
0.0346785
0.102848
0.0275289
0.101163
0.0206819
0.0995966
0.0141357
0.0973524
0.00799136
0.0926627
0.00274084
0.0804622
0.0451735
0.0512206
-0.0577541
0.0450929
0.0389037
0.0324413
0.0258239
0.0192585
0.0129526
0.00712665
0.00233758
0.200238
0.0496199
-0.0518684
0.194923
0.193883
-0.188567
0.188565
0.198809
-0.192451
0.184787
0.161043
-0.157264
0.182031
0.141455
-0.138699
0.178772
0.140846
-0.137588
0.171921
0.151178
-0.144326
0.159942
0.179711
-0.167732
0.13005
0.224992
-0.1951
0.308147
-0.254687
0.19982
0.0477902
0.193498
0.200204
0.186581
0.205726
0.182388
0.165236
0.179582
0.14426
0.176725
0.143704
0.170737
0.157166
0.158969
0.191478
0.130059
0.253902
0.360267
0.199278
0.046502
0.191652
0.20783
0.183829
0.213549
0.17895
0.170115
0.175933
0.147277
0.17328
0.146357
0.167959
0.162487
0.15615
0.203287
0.128683
0.281369
0.410356
0.198655
0.0458369
0.189401
0.217084
0.180205
0.222746
0.174548
0.175772
0.171393
0.150432
0.168724
0.149025
0.163674
0.167537
0.151619
0.215342
0.125548
0.30744
0.457889
0.198024
0.0458031
0.186771
0.228336
0.175684
0.233832
0.169579
0.181877
0.166454
0.153556
0.163314
0.152166
0.157983
0.172869
0.145413
0.227912
0.123166
0.329687
0.501498
0.19744
0.0463529
0.183836
0.241941
0.170712
0.246956
0.164889
0.187701
0.161573
0.156872
0.157263
0.156475
0.151221
0.178911
0.138078
0.241055
0.115729
0.352037
0.544163
0.196881
0.0474619
0.180963
0.257858
0.166525
0.261394
0.161334
0.192892
0.156937
0.161269
0.150965
0.162447
0.144058
0.185818
0.129591
0.255522
0.113471
0.368157
0.579926
0.196367
0.0490848
0.178915
0.27531
0.16417
0.276139
0.158876
0.198187
0.153037
0.167108
0.145599
0.169885
0.137398
0.194019
0.121775
0.271145
0.106343
0.383589
0.619158
0.195967
0.0511074
0.178311
0.292967
0.16421
0.290239
0.158323
0.204074
0.152444
0.172987
0.144142
0.178187
0.13443
0.20373
0.116663
0.288912
0.100745
0.399508
0.654443
0.195881
0.0532164
0.179656
0.309192
0.168123
0.301772
0.163241
0.208956
0.157667
0.178561
0.147393
0.188462
0.133575
0.217548
0.112025
0.310462
0.0992161
0.412317
0.695905
0.313755
0.0414712
0.31945
0.303497
0.324616
0.296606
0.329081
0.204491
0.335053
0.172589
0.33409
0.189424
0.338517
0.213121
0.340818
0.308161
0.373807
0.379327
0.632834
0.436878
0.317663
0.0258189
0.347391
0.273769
0.370028
0.273968
0.382058
0.192462
0.391453
0.163193
0.399484
0.181394
0.403672
0.208932
0.418953
0.292881
0.434263
0.364017
0.576399
0.490698
0.318821
0.00900806
0.370634
0.221955
0.409653
0.23495
0.429447
0.172668
0.442521
0.150119
0.460362
0.163552
0.464212
0.205082
0.495474
0.261619
0.518994
0.340497
0.52447
0.570923
0.317541
-0.00652258
0.383193
0.156303
0.434893
0.18325
0.461419
0.146142
0.477722
0.133816
0.502915
0.13836
0.511237
0.196759
0.548863
0.223994
0.594094
0.295266
0.47184
0.646725
0.315229
-0.0197414
0.385999
0.0855329
0.446349
0.1229
0.477839
0.114652
0.497665
0.113989
0.525615
0.11041
0.541347
0.181027
0.579962
0.185378
0.640496
0.234732
0.414081
0.698255
0.313762
-0.0314932
0.382961
0.0163338
0.446341
0.0595205
0.480478
0.0805146
0.50422
0.0902469
0.53078
0.0838504
0.557028
0.15478
0.596319
0.146087
0.655843
0.175208
0.349967
0.719957
0.313731
-0.043214
0.373752
-0.0436875
0.431894
0.0013789
0.465491
0.046917
0.493222
0.0625163
0.517785
0.0592876
0.554675
0.117891
0.593892
0.106869
0.643851
0.125249
0.271051
0.722767
0.312762
-0.0539654
0.350917
-0.0818428
0.390282
-0.0379861
0.417387
0.0198121
0.446293
0.0336099
0.468586
0.036995
0.513483
0.072993
0.554121
0.0662323
0.596905
0.0824645
0.175223
0.692732
0.302973
-0.0549278
0.296436
-0.0753058
0.297353
-0.0389037
0.31208
0.00508526
0.334821
0.0108694
0.356176
0.0156392
0.400708
0.0284609
0.438854
0.0280867
0.484734
0.036585
0.072118
0.587838
0.247082
0.171777
0.132873
0.137958
0.148828
0.164467
0.192928
0.221014
0.257599
0.329717
0.458643
-0.085193
0.477509
-0.0776929
0.496044
-0.0719649
0.513752
-0.0636233
0.529121
-0.0526818
0.540165
-0.0372937
0.547691
-0.0198935
0.55162
0.00329315
0.55454
0.0274931
0.0574987
0.508547
-0.103042
0.525385
-0.0945308
0.53889
-0.0854703
0.549504
-0.0742364
0.557725
-0.0609034
0.563776
-0.0433443
0.568735
-0.0248524
0.573823
-0.00179556
0.579845
0.0214717
0.0517411
0.576833
-0.108952
0.584555
-0.102252
0.589851
-0.0907662
0.592876
-0.0772614
0.594601
-0.0626282
0.596604
-0.0453472
0.598676
-0.0269245
0.601551
-0.00467125
0.606932
0.0160916
0.0433086
0.642317
-0.104544
0.637434
-0.0973696
0.632741
-0.0860732
0.628453
-0.0729732
0.624676
-0.0588516
0.622616
-0.0432864
0.622017
-0.0263257
0.624673
-0.00732711
0.629202
0.011562
0.0338773
0.684391
-0.0906804
0.67073
-0.0837082
0.659086
-0.0744292
0.650032
-0.06392
0.643339
-0.0521586
0.639416
-0.0393628
0.638191
-0.025101
0.640781
-0.00991723
0.646037
0.00630597
0.0242331
0.702235
-0.072958
0.684787
-0.0662607
0.670441
-0.0600831
0.659529
-0.0530078
0.651651
-0.044281
0.64692
-0.0346313
0.645265
-0.0234459
0.647293
-0.0119456
0.652734
0.00086528
0.0150526
0.701118
-0.0513088
0.682262
-0.0474048
0.666349
-0.0441702
0.653802
-0.0404602
0.644266
-0.0347451
0.638091
-0.0284569
0.635066
-0.0204206
0.636
-0.0128793
0.640532
-0.00366707
0.00668224
0.670245
-0.0288218
0.650658
-0.0278178
0.633207
-0.0267188
0.618156
-0.0254096
0.606188
-0.0227763
0.597566
-0.0198352
0.592562
-0.0154162
0.591321
-0.0116386
0.593749
-0.00609467
-0.000118917
0.56822
-0.00920331
0.549513
-0.00911135
0.532035
-0.00924053
0.516419
-0.00979359
0.503946
-0.0103033
0.494216
-0.0101053
0.487507
-0.00870728
0.483205
-0.00733594
0.482447
-0.00533696
-0.00336619
0.320514
0.311403
0.302162
0.292369
0.282065
0.27196
0.263253
0.255917
0.25058
0.00339989
0.0351147
-0.0385146
0.00592008
0.0786767
-0.0811969
0.00579281
0.101335
-0.101207
0.00426116
0.111123
-0.109591
0.00270607
0.114555
-0.112999
0.000794905
0.115796
-0.113884
-0.00119319
0.11482
-0.112832
-0.00235158
0.111039
-0.109881
-0.00217181
0.104035
-0.104215
0.0924227
-0.000623936
-0.0939706
0.00474082
0.0303739
0.0103098
0.0731077
0.0133712
0.0982733
0.0143812
0.110113
0.0148523
0.114084
0.0149436
0.115704
0.0143462
0.115418
0.0136461
0.11174
0.0134454
0.104235
0.0922119
0.0136563
0.00551766
0.0248562
0.0138867
0.0647386
0.0204347
0.0917253
0.0244086
0.106139
0.026624
0.111868
0.0283001
0.114028
0.0293895
0.114328
0.0295643
0.111565
0.0290647
0.104735
0.0934011
0.0278754
0.00558704
0.0192692
0.0158179
0.0545078
0.0255472
0.0819959
0.032683
0.0990033
0.0373014
0.10725
0.040668
0.110661
0.0433993
0.111597
0.0449712
0.109993
0.044967
0.104739
0.0952128
0.0431553
0.00504873
0.0142204
0.0157819
0.0437747
0.0276712
0.0701067
0.0377624
0.0889121
0.0452335
0.0997786
0.0508155
0.105079
0.0553337
0.107079
0.0587325
0.106594
0.0603384
0.103133
0.0960646
0.0594866
0.00415035
0.0100701
0.0140765
0.0338485
0.0266279
0.0575552
0.0388377
0.0767023
0.0491174
0.089499
0.0573701
0.0968267
0.0641323
0.100316
0.0696991
0.101027
0.0737054
0.0991271
0.0943581
0.0754119
0.00305276
0.00701734
0.0111741
0.0257272
0.0227584
0.0459709
0.0355545
0.0639062
0.0477306
0.0773228
0.0584767
0.0860807
0.0677528
0.0910404
0.0757413
0.0930387
0.082377
0.0924914
0.0894557
0.0872794
0.00190165
0.00511569
0.00774906
0.0198798
0.0172236
0.0364963
0.0290602
0.0520696
0.0417072
0.0646758
0.0540526
0.0737353
0.0655744
0.0795186
0.076112
0.0825012
0.085542
0.0830614
0.0813283
0.0936694
0.000834562
0.00428112
0.00444821
0.0162662
0.0114036
0.0295409
0.0212637
0.0422096
0.032974
0.0529655
0.0454888
0.0612204
0.0580691
0.0669384
0.0702531
0.0703171
0.081768
0.0715464
0.0704488
0.0926475
4.49529e-05
0.00423617
0.00194851
0.0143626
0.00673985
0.0247496
0.0144946
0.0344548
0.0246323
0.0428278
0.0363967
0.0494561
0.0491402
0.0541949
0.0623629
0.0570944
0.075651
0.0582583
0.0578194
0.0882804
-0.000413273
0.00464944
0.000427941
0.0135214
0.00363785
0.0215397
0.00948902
0.0286036
0.0177047
0.0346121
0.0277891
0.0393717
0.039225
0.0427589
0.0514755
0.0448439
0.0637774
0.0459565
0.0470819
0.0745149
-0.000535525
0.00518497
-0.000198982
0.0131849
0.00196144
0.0193792
0.00625393
0.0243111
0.0125017
0.0283644
0.020334
0.0315394
0.029315
0.0337779
0.0389348
0.0352242
0.0486006
0.0362906
0.0377162
0.0579663
-0.00051582
0.00570079
-0.00046828
0.0131373
0.000897133
0.0180138
0.00385765
0.0213506
0.00822913
0.0239929
0.0136558
0.0261127
0.019826
0.0276077
0.0264277
0.0286225
0.0332269
0.0294914
0.0305811
0.040362
-0.000479522
0.00618031
-0.00070227
0.0133601
-0.00012841
0.01744
0.00139896
0.0198232
0.00379651
0.0215953
0.00687374
0.0230355
0.0105277
0.0239538
0.0146596
0.0244906
0.0192414
0.0249096
0.0253876
0.0244348
-0.000728619
0.00690893
-0.00153822
0.0141697
-0.00193571
0.0178375
-0.00181492
0.0197024
-0.00122627
0.0210067
-8.80761e-05
0.0218973
0.00167153
0.0221942
0.0040148
0.0221474
0.00694077
0.0219837
0.0217542
0.0105742
-0.00138994
0.00829887
-0.00307789
0.0158576
-0.00431372
0.0190733
-0.00515567
0.0205444
-0.00566811
0.0215191
-0.00582474
0.0220539
-0.00556924
0.0219387
-0.00480068
0.0213788
-0.00344285
0.0206258
0.0197541
-0.00144274
-0.00171848
0.0100173
-0.00395158
0.0180907
-0.00601896
0.0211407
-0.00788701
0.0224124
-0.00942429
0.0230564
-0.0105789
0.0232086
-0.0113945
0.0227542
-0.0117922
0.0217765
-0.0116305
0.0204642
0.0188971
-0.0107736
-0.00187938
0.0118967
-0.00461994
0.0208313
-0.00748438
0.0240051
-0.0102694
0.0251975
-0.0127508
0.0255378
-0.0148324
0.0252902
-0.0165429
0.0244647
-0.0178537
0.0230873
-0.018643
0.0212534
0.0190394
-0.0187852
-0.00205074
0.0139475
-0.00521754
0.0239981
-0.00862721
0.0274148
-0.0119946
0.0285648
-0.0151226
0.0286658
-0.0179062
0.0280738
-0.0203262
0.0268848
-0.0223506
0.0251117
-0.0238746
0.0227775
0.019932
-0.0247672
-0.00212573
-0.00549761
-0.00913715
-0.0127576
-0.0162046
-0.019381
-0.0222401
-0.0247318
-0.026753
-0.0281663
0.0691543
0.180707
-0.175347
0.0671583
0.13968
-0.137684
0.0754728
0.0478859
-0.0562004
0.0863422
-0.0119266
0.00105714
0.0976619
-0.0420761
0.0307564
0.108796
-0.0498582
0.038724
0.119138
-0.0466018
0.03626
0.128143
-0.0390084
0.0300039
0.135981
-0.0288618
0.0210234
-0.0154786
0.010109
0.0582803
0.180393
0.0631696
0.134791
0.0769925
0.034063
0.0907642
-0.0256983
0.102924
-0.0542358
0.113809
-0.0607436
0.123485
-0.0562777
0.131647
-0.0471705
0.138512
-0.035727
-0.0198514
0.0470168
0.173739
0.0600207
0.121787
0.0788837
0.0152
0.0949036
-0.0417182
0.107973
-0.0673055
0.118667
-0.0714373
0.127641
-0.0652515
0.134873
-0.0544029
0.140708
-0.041562
-0.0232965
0.0368524
0.161321
0.0585699
0.10007
0.0818029
-0.00803298
0.09963
-0.0595453
0.113338
-0.0810137
0.123787
-0.081886
0.131987
-0.0734515
0.138195
-0.0606111
0.142944
-0.0463105
-0.0258618
0.0279626
0.143933
0.0586239
0.0694084
0.0855426
-0.0349517
0.105004
-0.0790071
0.119163
-0.0951727
0.12929
-0.0920127
0.136654
-0.0808157
0.141786
-0.0657426
0.145406
-0.0499309
-0.0275684
0.0202572
0.122233
0.0595185
0.0301471
0.0894697
-0.0649029
0.11051
-0.100047
0.125026
-0.109689
0.134838
-0.101824
0.141414
-0.0873917
0.145544
-0.0698725
0.148092
-0.0524795
-0.0284625
0.0135302
0.0979289
0.0603516
-0.0166743
0.0927249
-0.0972761
0.115341
-0.122664
0.130249
-0.124597
0.139875
-0.11145
0.145839
-0.0933565
0.149173
-0.0732058
0.150831
-0.0541377
-0.0286522
0.00779806
0.0713456
0.0601759
-0.0690521
0.0945676
-0.131668
0.11882
-0.146916
0.134306
-0.140082
0.143975
-0.12112
0.149583
-0.0989645
0.152387
-0.0760093
0.153411
-0.0551617
-0.0282987
0.00293332
0.0436451
0.0582482
-0.124367
0.0945528
-0.167972
0.120547
-0.17291
0.136925
-0.15646
0.146923
-0.131118
0.152465
-0.104507
0.155019
-0.078563
0.155686
-0.055829
-0.0275869
-0.00147485
0.053974
0.0923868
0.120306
0.137977
0.148625
0.154411
0.156994
0.157583
0.0277783
0.020449
-0.0482273
0.01726
0.0105183
0.013955
0.00330501
0.0148915
-0.000936534
0.0181631
-0.00327155
0.0218241
-0.00366099
0.0249914
-0.00316733
0.0277437
-0.00275229
0.0292503
-0.00150656
-0.000438698
0.0922959
0.0575864
-0.129433
0.0644459
0.0383683
0.0541926
0.0135583
0.0546672
-0.00141118
0.0601591
-0.00876341
0.0668473
-0.0103492
0.0728868
-0.00920688
0.0779385
-0.00780398
0.0809127
-0.00448071
-0.00156373
0.130547
0.0972218
-0.170183
0.0965192
0.0723962
0.0824476
0.02763
0.0820826
-0.00104621
0.0883118
-0.0149926
0.0965647
-0.0186021
0.104451
-0.0170931
0.110946
-0.0142995
0.11534
-0.0088746
-0.00368969
0.14259
0.137057
-0.182425
0.10861
0.106376
0.0934276
0.0428126
0.0929082
-0.000526839
0.100316
-0.0224002
0.10994
-0.028226
0.119192
-0.0263459
0.126786
-0.0218932
0.132552
-0.0146401
-0.00675983
0.140378
-0.178668
0.109069
0.0956811
0.0962114
0.104568
0.115066
0.12498
0.13309
0.139474
0.00690837
0.000198764
-0.00710713
0.00754039
-0.000632016
0.00887033
-0.00132994
0.0108133
-0.00194292
0.0133556
-0.0025423
0.0167855
-0.00342998
0.0217147
-0.00492918
0.0285622
-0.00684749
0.0380904
-0.00952824
-0.0101369
0.018039
0.000555412
-0.0183957
0.0197757
-0.00236865
0.0234316
-0.00498591
0.0290517
-0.007563
0.0369621
-0.0104527
0.0479456
-0.0144134
0.0627197
-0.0197034
0.0813807
-0.0255084
0.104523
-0.0326706
-0.0350471
0.0271545
0.000862726
-0.0274618
0.0299306
-0.00514475
0.0357057
-0.010761
0.0447506
-0.0166079
0.0575961
-0.0232983
0.0748459
-0.0316632
0.0959814
-0.0408389
0.120261
-0.0497881
0.145958
-0.0583674
-0.0592718
0.0346314
0.000937398
-0.034706
0.0384044
-0.00891777
0.0461095
-0.0184661
0.0581802
-0.0286786
0.0750075
-0.0401256
0.0962209
-0.0528766
0.119888
-0.064506
0.144063
-0.0739626
0.165159
-0.0794638
-0.0765375
0.0407398
-0.0404264
0.0454784
0.0548877
0.0693644
0.0887254
0.111261
0.134034
0.153741
0.166925
0.0495938
-0.0418131
0.0495322
-0.0573129
0.0425198
-0.0403444
0.0474184
0.0362218
-0.0391504
0.0454484
0.0303585
-0.0380013
0.0438646
0.024633
-0.036832
0.0425575
0.018891
-0.0355072
0.0412493
0.0131327
-0.0337059
0.0394642
0.00753567
-0.0307773
0.0363744
0.00265732
-0.0253404
0.0302187
-0.0137325
0.0163898
0.0548448
-0.0347892
-0.0618686
0.0480339
-0.0335335
0.0411598
-0.0322763
0.0342553
-0.0310969
0.0273994
-0.0299761
0.0206759
-0.0287837
0.0141823
-0.0272123
0.00809609
-0.0246911
0.00289885
-0.0201431
-0.0108336
0.0549501
-0.0273602
-0.0623791
0.0475718
-0.0261552
0.040355
-0.0250594
0.0333314
-0.0240733
0.0265206
-0.0231653
0.0199386
-0.0222017
0.0136341
-0.0209078
0.00775868
-0.0188158
0.00276832
-0.0151528
-0.00806532
0.0553742
-0.0198086
-0.0629258
0.0480068
-0.0187878
0.0408074
-0.0178601
0.0337735
-0.0170394
0.0269014
-0.0162932
0.0202145
-0.0155147
0.0137988
-0.0144921
0.00785523
-0.0128722
0.00283922
-0.0101368
-0.0052261
0.0562973
-0.0121527
-0.0639532
0.0487743
-0.0112647
0.0413904
-0.0104762
0.0341415
-0.00979046
0.02703
-0.0091817
0.0200989
-0.0085836
0.0134882
-0.00788143
0.00750018
-0.00688421
0.00265534
-0.00529194
-0.00257076
0.0574733
-0.00431715
-0.0653088
0.0497696
-0.00356102
0.0421837
-0.00289033
0.0346968
-0.00230362
0.0272985
-0.00178333
0.0200313
-0.0013164
0.0130743
-0.00092446
0.0068621
-0.000671991
0.00215182
-0.000581662
-0.000418934
0.0592747
0.00373356
-0.0673254
0.0513652
0.0043485
0.0435867
0.00488809
0.0359185
0.00536467
0.0283444
0.00579072
0.020895
0.00613297
0.0137236
0.00624695
0.00723317
0.00581846
0.00222949
0.00442202
0.00181055
0.0614851
0.0120181
-0.0697696
0.0533678
0.0124658
0.0454199
0.0128361
0.0376289
0.0131557
0.0299839
0.0134356
0.0225058
0.0136111
0.0152981
0.0134546
0.00862927
0.0124873
0.00307468
0.00997661
0.00488524
0.0637907
0.0205388
-0.0723115
0.0554573
0.0207992
0.0473163
0.020977
0.0393579
0.0211141
0.0315671
0.0212264
0.0239463
0.021232
0.0165539
0.020847
0.00957589
0.0194652
0.00352542
0.0160271
0.00841066
0.065951
-0.0746907
0.0574061
0.0490621
0.0409083
0.0329231
0.0250937
0.0174554