/*--------------------------------*- C++ -*----------------------------------*\
| =========                 |                                                 |
| \\      /  F ield         | OpenFOAM: The Open Source CFD Toolbox           |
|  \\    /   O peration     | Version:  2406                                  |
|   \\  /    A nd           | Website:  www.openfoam.com                      |
|    \\/     M anipulation  |                                                 |
\*---------------------------------------------------------------------------*/
FoamFile
{
    version     2.0;
    format      ascii;
    arch        "LSB;label=32;scalar=64";
    class       volVectorField;
    location    "0.6";
    object      U;
}
// * * * * * * * * * * * * * * * * * * * * * * * * * * * * * * * * * * * * * //

dimensions      [0 1 -1 0 0 0 0];

internalField   nonuniform List<vector> 
1800
(
(-0.04108 0.0527701 0)
(-0.081901 0.118129 -9.10747e-22)
(-0.0705484 0.165283 -1.96433e-21)
(-0.0210875 0.191463 -5.43433e-20)
(0.0561185 0.204805 -1.51008e-19)
(0.148343 0.216348 -5.67127e-20)
(0.246132 0.233126 8.02065e-20)
(0.344794 0.257095 5.23064e-19)
(0.446821 0.287821 0)
(0.516579 0.342113 5.06912e-20)
(-0.0192827 0.0268918 -4.147e-20)
(-0.0382191 0.0604728 -1.27368e-19)
(-0.00672077 0.0863548 2.48041e-20)
(0.0722624 0.0960095 -1.71003e-21)
(0.180321 0.0972105 9.95594e-21)
(0.298944 0.100213 1.75909e-19)
(0.417302 0.108658 -7.31618e-20)
(0.532306 0.122129 -5.27782e-19)
(0.647315 0.137903 1.93938e-19)
(0.72239 0.176541 2.51556e-19)
(-0.00446674 0.00730579 3.35174e-21)
(0.00555374 0.0153994 -3.76621e-20)
(0.0748802 0.0217986 -1.52642e-20)
(0.194283 0.0185618 1.04883e-20)
(0.33437 0.0151737 -1.4521e-21)
(0.474708 0.0188009 -3.51323e-20)
(0.606155 0.0302879 9.8569e-21)
(0.727606 0.0478411 3.23092e-19)
(0.844569 0.0702404 -2.99593e-19)
(0.924256 0.096736 -7.10157e-19)
(0.00510453 -0.0012512 2.94083e-20)
(0.0605264 -0.0155188 7.40376e-20)
(0.187218 -0.0277401 -5.086e-20)
(0.352219 -0.038541 -4.57135e-22)
(0.521826 -0.0416112 4.19147e-20)
(0.678918 -0.0345555 3.04828e-21)
(0.818651 -0.0193314 4.29339e-20)
(0.943559 0.00130901 4.46513e-20)
(1.06128 0.0264106 7.51753e-21)
(1.139 0.0498145 -1.22036e-19)
(0.023203 -0.00580848 -2.87477e-20)
(0.141549 -0.0386256 3.96632e-20)
(0.32911 -0.0572235 5.08607e-20)
(0.535227 -0.0660104 -6.62796e-20)
(0.726672 -0.0630549 -2.07219e-20)
(0.892066 -0.0495146 2.00187e-20)
(1.03235 -0.0290322 4.15063e-21)
(1.15465 -0.00457994 -7.7203e-21)
(1.26847 0.0230179 5.96891e-20)
(1.3508 0.0426767 6.87387e-20)
(0.0542676 -0.0124646 5.11229e-22)
(0.24735 -0.0546925 1.88954e-19)
(0.493849 -0.0693488 8.13179e-20)
(0.732429 -0.069069 -1.05011e-19)
(0.934806 -0.0569536 7.6455e-20)
(1.0985 -0.0367332 -6.20454e-21)
(1.23245 -0.0125172 4.54134e-20)
(1.34954 0.0132907 5.43632e-20)
(1.46198 0.0401329 -2.76303e-20)
(1.56262 0.0565934 -8.3299e-21)
(0.0975179 -0.0174466 -2.66902e-20)
(0.374466 -0.0595542 -2.48138e-19)
(0.673372 -0.0621222 1.90836e-20)
(0.929988 -0.0489703 2.73273e-19)
(1.12877 -0.0278129 -1.34773e-20)
(1.28082 -0.00303515 -1.33958e-19)
(1.40459 0.0224108 -7.38736e-20)
(1.51835 0.0475291 1.96687e-19)
(1.63713 0.0723297 1.90803e-19)
(1.76722 0.0909821 1.27979e-20)
(0.153362 -0.0179299 3.12092e-20)
(0.517231 -0.0484097 5.62086e-20)
(0.853743 -0.0334995 -9.87993e-20)
(1.11008 -0.00846703 5.75306e-20)
(1.29294 0.0178331 -3.31957e-21)
(1.42939 0.0432016 -4.55582e-19)
(1.54601 0.067257 -8.34349e-22)
(1.66428 0.0910061 3.03818e-19)
(1.79939 0.115415 -1.96216e-19)
(1.9576 0.138226 -2.25382e-19)
(0.219876 -0.011174 1.17098e-19)
(0.663617 -0.0182489 1.20506e-19)
(1.01664 0.0150557 -2.88441e-19)
(1.25672 0.0476287 -6.87951e-20)
(1.4184 0.0746426 -8.13391e-22)
(1.54217 0.0980432 1.69978e-19)
(1.6587 0.120261 -3.18437e-19)
(1.78916 0.143842 -1.77618e-19)
(1.94338 0.169926 4.46551e-19)
(2.1157 0.198423 1.15527e-19)
(0.29236 0.00501596 3.98159e-20)
(0.798666 0.0305192 2.76253e-19)
(1.14752 0.0791512 -2.50563e-19)
(1.36297 0.114322 -9.62756e-20)
(1.50549 0.139432 9.28149e-20)
(1.62288 0.160542 -1.15978e-19)
(1.74585 0.182055 2.15852e-19)
(1.89173 0.207202 2.58816e-20)
(2.05993 0.236337 -2.02134e-19)
(2.23058 0.267018 -7.58199e-20)
(-0.0149355 0.213491 -3.32323e-20)
(-0.0351665 0.362162 1.3026e-19)
(-0.057093 0.409165 8.23858e-20)
(-0.0759885 0.422567 -1.059e-19)
(-0.0930835 0.420119 -1.69961e-21)
(-0.107777 0.407306 4.52991e-20)
(-0.119922 0.386201 3.21965e-20)
(-0.129668 0.35689 -6.92338e-20)
(-0.136656 0.318733 3.23098e-22)
(-0.139895 0.271731 1.20457e-20)
(-0.0331654 0.235568 4.4001e-20)
(-0.0653709 0.397865 -1.2767e-23)
(-0.0889048 0.446139 2.30538e-20)
(-0.106562 0.458552 -1.40491e-19)
(-0.121554 0.454149 -1.34627e-19)
(-0.133852 0.438442 -6.56052e-20)
(-0.143315 0.413828 7.92633e-20)
(-0.150078 0.380393 0)
(-0.153693 0.337061 -1.76751e-20)
(-0.15286 0.283472 6.56539e-20)
(-0.0534092 0.251227 -2.62238e-23)
(-0.0982754 0.424475 -1.72626e-19)
(-0.121769 0.473276 -1.20963e-19)
(-0.136628 0.485975 1.07222e-19)
(-0.147708 0.481125 -3.65267e-20)
(-0.156051 0.464357 -5.68132e-20)
(-0.161345 0.437966 -3.06876e-20)
(-0.163605 0.402095 -1.55493e-20)
(-0.162305 0.355337 -5.84172e-20)
(-0.155865 0.296945 -1.35838e-19)
(-0.0747511 0.259421 3.85409e-20)
(-0.133275 0.440495 3.64377e-20)
(-0.155549 0.489335 8.33997e-21)
(-0.165459 0.503374 1.07171e-19)
(-0.169569 0.500235 -2.24287e-20)
(-0.172137 0.483856 4.89214e-20)
(-0.172218 0.457073 -2.50606e-20)
(-0.168907 0.420633 0)
(-0.161494 0.372651 4.57611e-21)
(-0.148093 0.311636 -1.4105e-19)
(-0.093622 0.258249 -7.0589e-20)
(-0.161775 0.442052 3.2279e-20)
(-0.178382 0.485816 1.18124e-19)
(-0.181378 0.495187 -1.52651e-20)
(-0.183036 0.50038 1.90934e-20)
(-0.181783 0.49301 5.65257e-20)
(-0.175506 0.469502 -6.96641e-20)
(-0.165074 0.434526 8.63262e-20)
(-0.150179 0.387442 -7.88441e-20)
(-0.128187 0.325977 -6.13905e-20)
(-0.104952 0.242302 -6.56353e-20)
(-0.178792 0.424488 -9.28415e-21)
(-0.193526 0.475561 -9.54839e-20)
(-0.195945 0.490091 -6.19472e-22)
(-0.193203 0.493371 1.4865e-19)
(-0.184836 0.487018 -1.29231e-19)
(-0.170119 0.468507 2.48687e-21)
(-0.151139 0.438415 5.7872e-20)
(-0.127251 0.395493 -2.59172e-19)
(-0.0941459 0.336267 -2.10262e-20)
(-0.107558 0.212041 1.49616e-20)
(-0.186506 0.387083 2.41522e-20)
(-0.200724 0.448089 1.1217e-20)
(-0.19809 0.470687 1.84726e-19)
(-0.186968 0.476431 -3.10382e-20)
(-0.169047 0.471271 -2.57914e-19)
(-0.145254 0.456449 -1.62037e-19)
(-0.117591 0.43223 -2.19262e-19)
(-0.0849057 0.396022 4.17286e-19)
(-0.0391513 0.342011 3.38308e-19)
(-0.100512 0.17241 2.78762e-22)
(-0.180225 0.33232 -1.49093e-20)
(-0.192251 0.402078 4.51632e-20)
(-0.182092 0.432861 -9.12277e-20)
(-0.16024 0.444625 -2.31161e-19)
(-0.130385 0.444865 1.15648e-19)
(-0.0952746 0.436784 -9.69506e-20)
(-0.0571379 0.420438 4.49682e-20)
(-0.0145938 0.392421 4.60568e-19)
(0.0456236 0.34604 -2.4167e-20)
(-0.0844185 0.128337 -1.20366e-20)
(-0.157713 0.262869 6.20353e-21)
(-0.165197 0.334764 -1.16559e-20)
(-0.145975 0.371959 1.4996e-20)
(-0.110902 0.390472 4.44147e-21)
(-0.0660158 0.398862 2.82786e-19)
(-0.015815 0.401635 9.44351e-20)
(0.0365649 0.398373 2.1979e-19)
(0.0914816 0.383731 -6.19323e-21)
(0.167722 0.350453 -7.72972e-19)
(-0.0635385 0.0865853 -1.40843e-20)
(-0.123656 0.187484 -2.41207e-20)
(-0.124527 0.251222 -2.68118e-20)
(-0.094442 0.28742 -1.06768e-19)
(-0.0433907 0.30754 1.08324e-19)
(0.0196145 0.321238 4.58417e-19)
(0.0869181 0.334962 9.2144e-20)
(0.153394 0.349992 -4.25343e-19)
(0.217731 0.362101 -5.50104e-19)
(0.30032 0.364736 -5.21571e-19)
(-0.138306 0.00669965 -4.85847e-19)
(0.0951063 -0.288084 -4.61264e-19)
(0.347531 -0.314705 -1.33731e-19)
(0.501788 -0.299895 5.48846e-21)
(0.623431 -0.255702 4.68704e-20)
(0.700706 -0.205726 3.64919e-21)
(0.746327 -0.158533 -5.77368e-20)
(0.776045 -0.115779 1.98713e-20)
(0.790482 -0.0800205 -1.24976e-20)
(0.798919 -0.0376853 -6.51239e-21)
(-0.127285 -0.019725 -4.45921e-19)
(0.0745936 -0.359355 1.8116e-20)
(0.336404 -0.373349 -8.51238e-20)
(0.496959 -0.344147 -2.01156e-20)
(0.624875 -0.285249 4.70196e-20)
(0.705196 -0.224375 -8.57374e-20)
(0.752101 -0.169701 3.55925e-20)
(0.781949 -0.12214 5.61107e-22)
(0.796894 -0.0835186 -2.39166e-20)
(0.805624 -0.0389046 1.41333e-20)
(-0.102171 -0.0353052 8.49369e-19)
(0.0611286 -0.421371 5.64523e-19)
(0.328914 -0.434298 6.09707e-20)
(0.493387 -0.390854 6.14984e-23)
(0.625889 -0.316875 -6.63591e-20)
(0.7085 -0.244231 1.29718e-21)
(0.756461 -0.181526 1.5454e-20)
(0.786704 -0.128865 -2.19538e-20)
(0.802287 -0.0873668 3.08948e-22)
(0.811918 -0.0402485 -6.31362e-22)
(-0.0632757 -0.0393828 8.10631e-19)
(0.0714414 -0.47084 -1.23791e-20)
(0.3394 -0.495435 3.21291e-20)
(0.50155 -0.438647 1.93989e-21)
(0.633093 -0.349788 1.95501e-20)
(0.714783 -0.264876 1.73059e-20)
(0.762164 -0.193867 -2.94155e-20)
(0.792381 -0.135927 0)
(0.808255 -0.0916254 0)
(0.819152 -0.0417728 -1.13577e-23)
(-0.00706414 -0.0339572 -1.17568e-19)
(0.126532 -0.508047 -5.98383e-19)
(0.390446 -0.553742 -9.9787e-21)
(0.539478 -0.485135 -5.59295e-21)
(0.659096 -0.382237 6.00103e-21)
(0.732518 -0.285375 7.33552e-20)
(0.774929 -0.206296 1.43074e-21)
(0.803096 -0.143132 -1.23341e-20)
(0.817981 -0.0962594 -3.63389e-20)
(0.82998 -0.0435286 -1.61761e-21)
(0.0738345 -0.0256626 -2.43826e-19)
(0.245594 -0.53979 -2.77432e-19)
(0.504253 -0.607669 -5.23329e-19)
(0.629519 -0.527632 7.12186e-21)
(0.722707 -0.411717 -1.96183e-20)
(0.776255 -0.304055 3.97077e-20)
(0.805461 -0.217845 1.38263e-20)
(0.826738 -0.149941 -5.4554e-20)
(0.837657 -0.101038 6.02706e-22)
(0.84947 -0.0455288 -1.77926e-20)
(0.18635 -0.0203346 3.63772e-20)
(0.436295 -0.573408 1.57831e-20)
(0.684692 -0.657295 2.5993e-19)
(0.783149 -0.564284 -6.73166e-20)
(0.840439 -0.43534 -9.5588e-21)
(0.863363 -0.318176 -4.21525e-20)
(0.869335 -0.226507 -1.98629e-21)
(0.876177 -0.155108 1.29146e-20)
(0.878137 -0.105275 1.51832e-20)
(0.886583 -0.0476308 8.34765e-21)
(0.339917 -0.0174058 2.40357e-19)
(0.673776 -0.608096 1.71447e-18)
(0.906469 -0.704574 4.14047e-19)
(0.984053 -0.597274 2.83411e-20)
(1.00907 -0.453141 -8.46545e-21)
(1.00029 -0.326189 2.63326e-20)
(0.978218 -0.230264 -4.18273e-20)
(0.964636 -0.156961 3.57668e-20)
(0.952814 -0.107707 -2.43867e-22)
(0.953342 -0.0494147 -3.00729e-21)
(0.53991 -0.0416991 3.80921e-19)
(0.907169 -0.630153 5.3995e-19)
(1.12518 -0.744841 -7.18024e-19)
(1.19575 -0.628274 2.87761e-19)
(1.20196 -0.467843 -5.83455e-20)
(1.17088 -0.329784 -8.00102e-21)
(1.12549 -0.229437 4.79724e-21)
(1.09229 -0.154967 -1.19559e-22)
(1.06642 -0.107292 -6.06434e-21)
(1.05655 -0.050298 -3.88182e-21)
(0.745504 0.0106029 1.95696e-19)
(1.11268 -0.619831 -1.22647e-18)
(1.30806 -0.770196 -5.91654e-19)
(1.38399 -0.653897 2.3704e-19)
(1.38821 -0.478922 -9.18168e-20)
(1.34749 -0.329938 1.54395e-20)
(1.2876 -0.225477 -3.93457e-20)
(1.23998 -0.1504 3.33757e-22)
(1.20417 -0.104705 -2.33055e-21)
(1.18498 -0.0501408 -2.86298e-21)
(1.09433 -0.099187 -6.46848e-19)
(1.38823 -0.670302 -1.71513e-19)
(1.53513 -0.812549 -7.48414e-20)
(1.59473 -0.687305 -1.20174e-19)
(1.59917 -0.487719 7.95752e-20)
(1.55781 -0.321004 8.00525e-21)
(1.49016 -0.210542 2.24449e-20)
(1.43154 -0.136996 1.61245e-20)
(1.38781 -0.0957927 -3.39876e-20)
(1.35811 -0.0475083 4.24004e-21)
(1.76063 -0.336637 -4.02346e-20)
(1.9561 -0.79454 -2.04824e-19)
(1.93096 -0.863033 -1.17644e-19)
(1.84219 -0.696168 -5.80416e-21)
(1.77507 -0.474334 1.13414e-19)
(1.71799 -0.298483 1.34104e-19)
(1.65325 -0.186801 1.11335e-19)
(1.59746 -0.117683 -1.3627e-20)
(1.55789 -0.0822672 5.24825e-20)
(1.52566 -0.0417454 1.35697e-20)
(2.55379 -0.446644 -2.20625e-20)
(2.57788 -0.736581 -6.36968e-20)
(2.39524 -0.757252 8.217e-20)
(2.17167 -0.612144 2.07329e-35)
(1.99539 -0.418713 -2.45975e-20)
(1.87848 -0.259424 -4.89573e-34)
(1.7886 -0.157049 6.50409e-21)
(1.72536 -0.0962245 9.25581e-37)
(1.68135 -0.0676288 4.56135e-23)
(1.64712 -0.0358998 -1.74002e-21)
(2.9936 -0.505872 -4.51435e-20)
(2.80304 -0.743144 3.46173e-19)
(2.53478 -0.737849 7.63719e-20)
(2.29355 -0.573106 0)
(2.0932 -0.374717 -1.16632e-19)
(1.95265 -0.222318 -9.8527e-20)
(1.85058 -0.128861 -7.48168e-20)
(1.78285 -0.0755801 5.09786e-34)
(1.73612 -0.0522173 -2.41586e-20)
(1.70204 -0.0284047 9.04435e-22)
(3.16835 -0.506364 -4.47619e-20)
(2.98084 -0.627711 2.09352e-20)
(2.70388 -0.588691 0)
(2.41702 -0.447672 0)
(2.16414 -0.282987 0)
(1.98777 -0.161309 0)
(1.86937 -0.0904067 2.63831e-21)
(1.79551 -0.0517869 6.14434e-34)
(1.7459 -0.0359828 -6.35508e-22)
(1.70835 -0.0227337 5.41838e-35)
(3.2353 -0.469503 1.78125e-19)
(3.00413 -0.559231 0)
(2.6977 -0.515932 0)
(2.39678 -0.370387 0)
(2.13554 -0.211131 0)
(1.95441 -0.107748 0)
(1.83788 -0.0558689 -6.09729e-21)
(1.7686 -0.0301403 4.78239e-20)
(1.72475 -0.0216471 -9.54685e-22)
(1.69177 -0.0165997 1.06219e-20)
(3.22383 -0.4245 0)
(2.96234 -0.456697 1.20118e-19)
(2.60045 -0.384314 -1.62713e-20)
(2.25312 -0.251936 0)
(1.9866 -0.123435 -8.80578e-20)
(1.82181 -0.0502793 -6.33019e-20)
(1.726 -0.0209745 -4.74384e-20)
(1.67107 -0.00873519 -2.45195e-20)
(1.64008 -0.00731962 2.46076e-20)
(1.61046 -0.00897246 -6.27471e-21)
(3.0348 -0.347826 1.28196e-21)
(2.67711 -0.332685 1.59078e-20)
(2.23644 -0.24916 -2.11199e-20)
(1.86819 -0.139606 -3.71873e-36)
(1.6372 -0.0490251 1.65445e-20)
(1.51906 -0.00726988 -3.83213e-34)
(1.46059 0.00312889 -8.18191e-21)
(1.42882 0.0046493 -1.52194e-20)
(1.41457 0.00163883 -1.41351e-21)
(1.39222 -0.00377643 2.51762e-21)
(2.28547 -0.2221 0)
(1.83643 -0.15092 -1.30293e-20)
(1.41627 -0.068274 2.59017e-20)
(1.14628 -0.019759 0)
(1.02632 0.00920036 2.80781e-20)
(0.989421 0.016974 2.05565e-20)
(0.982699 0.0140076 4.6543e-21)
(0.982325 0.00973087 8.09008e-21)
(0.987788 0.00537583 -1.04142e-20)
(0.978351 6.00949e-05 -1.39852e-21)
(0.692137 -0.0539793 7.24368e-21)
(0.43868 -0.0117295 0)
(0.310844 0.000124784 0)
(0.25818 0.00267419 0)
(0.264824 0.00639501 0)
(0.293632 0.00655583 0)
(0.322936 0.00497177 -8.84366e-21)
(0.344621 0.00333913 2.67537e-35)
(0.360118 0.00200974 -1.71456e-21)
(0.363388 0.000343355 -2.97774e-21)
(2.50723 0.321242 4.02882e-19)
(2.44949 0.260505 1.69247e-19)
(2.34224 0.209882 2.53901e-19)
(2.18997 0.152921 -2.52944e-19)
(1.98122 0.116415 8.64892e-20)
(1.73684 0.0810103 3.61015e-20)
(1.45393 0.0759391 -1.67634e-19)
(1.1748 0.114428 -5.38254e-20)
(0.961317 0.130781 1.32075e-19)
(0.65718 0.344876 1.03177e-19)
(2.68304 0.295435 -2.33717e-19)
(2.67646 0.27381 4.07912e-20)
(2.6635 0.213444 2.12042e-19)
(2.59135 0.195987 1.57567e-19)
(2.52114 0.125657 -2.0048e-19)
(2.35569 0.137276 1.52429e-20)
(2.241 0.0673039 -2.15465e-19)
(1.92556 0.125151 -6.28825e-20)
(1.85054 0.0419145 -2.00383e-19)
(1.2842 0.163638 -2.09057e-19)
(2.83858 0.255295 3.52421e-20)
(2.81543 0.249098 -1.72145e-19)
(2.89577 0.186827 -2.42126e-19)
(2.80453 0.182661 5.21916e-19)
(2.8876 0.0984937 2.41788e-20)
(2.71024 0.103026 -6.69486e-20)
(2.81536 0.0185587 -1.26077e-19)
(2.51348 0.0494399 -1.19845e-19)
(2.64752 -0.048464 1.29535e-19)
(2.18291 0.0122339 -2.93405e-20)
(2.94241 0.22306 6.75303e-20)
(2.93589 0.207451 -2.29095e-19)
(3.02326 0.164564 3.69725e-20)
(2.96538 0.141097 -1.83955e-19)
(3.0608 0.0776779 3.24545e-19)
(2.93941 0.0428028 -1.02753e-19)
(3.05728 -0.0364445 9.5086e-20)
(2.88179 -0.05004 -1.49255e-19)
(3.01001 -0.144232 -3.46124e-19)
(2.78211 -0.134422 -1.25341e-19)
(3.01395 0.173232 1.15539e-19)
(3.03308 0.148383 -3.60285e-19)
(3.09727 0.12615 -1.88667e-20)
(3.08735 0.0922411 -5.40504e-20)
(3.14321 0.050575 -1.85153e-20)
(3.10266 -0.00272855 -2.87831e-21)
(3.15298 -0.0692333 9.27865e-20)
(3.09225 -0.120016 -8.99506e-20)
(3.14635 -0.200012 -1.70948e-19)
(3.06988 -0.232972 -2.63511e-19)
(3.0386 0.129633 2.1268e-19)
(3.06991 0.106193 4.6922e-20)
(3.12013 0.0948734 -2.4828e-19)
(3.13814 0.0608429 1.36656e-19)
(3.17752 0.030933 1.64119e-19)
(3.18131 -0.0249293 -5.30633e-20)
(3.20692 -0.0832635 1.40386e-19)
(3.19718 -0.148705 5.45345e-22)
(3.21597 -0.217925 -2.03824e-19)
(3.19559 -0.274384 -2.78065e-19)
(2.97662 0.0781477 1.06264e-20)
(3.01544 0.0632027 8.58594e-20)
(3.05875 0.0574163 -9.35801e-20)
(3.0974 0.0283423 -1.88667e-20)
(3.13546 0.00472952 1.98169e-19)
(3.17022 -0.0490341 -5.45945e-21)
(3.19567 -0.0967896 1.22004e-19)
(3.22101 -0.165107 1.46635e-19)
(3.22942 -0.220886 6.20056e-20)
(3.24202 -0.284936 1.248e-19)
(2.74725 0.0351235 1.71423e-20)
(2.79311 0.0342199 -9.65048e-22)
(2.82545 0.0263584 -7.05032e-20)
(2.88852 0.0064392 -5.76394e-20)
(2.92174 -0.0155535 -4.05455e-20)
(2.99255 -0.0636424 -3.66349e-20)
(3.01553 -0.103986 -7.59563e-21)
(3.07943 -0.168217 1.26274e-19)
(3.07342 -0.207839 -9.52376e-20)
(3.13161 -0.268923 -9.65157e-20)
(2.2118 -0.00340207 6.96523e-20)
(2.26482 -0.00991449 -1.91599e-20)
(2.27651 -0.0163834 -1.12857e-20)
(2.35635 -0.0340907 2.24516e-20)
(2.35876 -0.0586233 -2.01965e-22)
(2.43879 -0.0849251 2.28431e-20)
(2.42205 -0.112844 -1.01658e-19)
(2.48473 -0.142183 2.29783e-20)
(2.43597 -0.161718 3.74641e-20)
(2.49974 -0.1872 -3.76977e-20)
(1.12004 -0.0166536 0)
(1.11423 -0.019208 4.26542e-21)
(1.10848 -0.0221642 -3.24106e-20)
(1.10485 -0.0262369 -4.03041e-20)
(1.08771 -0.0274766 2.96673e-20)
(1.08081 -0.0333255 1.15471e-19)
(1.04092 -0.0327868 -1.65243e-20)
(1.03807 -0.0409888 -9.82911e-20)
(0.96401 -0.0393539 -1.34284e-20)
(0.989389 -0.046513 5.03605e-21)
(1.28881 0.839274 -5.08282e-20)
(1.22317 0.828957 -1.10251e-19)
(1.18289 0.827634 -5.57287e-19)
(1.14926 0.832346 1.01514e-19)
(1.11632 0.840518 7.26445e-19)
(1.08055 0.848622 4.07789e-20)
(1.03543 0.848386 -8.9855e-20)
(0.964969 0.824196 -1.32821e-19)
(0.817647 0.728807 -2.35399e-19)
(0.446398 0.412178 -2.2736e-20)
(1.44185 0.830981 -4.31834e-19)
(1.35245 0.813179 1.11431e-18)
(1.29171 0.807813 4.67907e-19)
(1.25019 0.812029 -5.2801e-19)
(1.21676 0.819867 1.72631e-19)
(1.18245 0.825822 1.2948e-19)
(1.13799 0.822093 4.08642e-19)
(1.06506 0.795295 -6.58948e-19)
(0.904282 0.697466 -5.83039e-20)
(0.491318 0.389497 7.85509e-20)
(1.61532 0.821204 1.26064e-19)
(1.50481 0.802295 8.69422e-19)
(1.41386 0.792022 1.42566e-20)
(1.35188 0.791114 -3.25297e-19)
(1.30837 0.793435 1.38623e-19)
(1.2693 0.792708 5.14587e-20)
(1.22237 0.782455 -5.22123e-20)
(1.14648 0.751283 -2.71999e-19)
(0.973032 0.649311 1.42536e-19)
(0.52372 0.355127 -1.92965e-19)
(1.79536 0.797053 -4.854e-19)
(1.67232 0.780117 3.80727e-19)
(1.55281 0.7651 -5.75658e-19)
(1.46195 0.75586 -1.79872e-19)
(1.39829 0.749656 8.33048e-19)
(1.34691 0.740712 -4.75915e-19)
(1.29217 0.723672 -5.31156e-19)
(1.20887 0.687763 2.74492e-19)
(1.01996 0.584373 -1.29947e-19)
(0.54018 0.311413 -3.5957e-20)
(1.96499 0.745353 5.98316e-19)
(1.83832 0.730537 4.45591e-19)
(1.69886 0.712401 -1.66003e-19)
(1.57889 0.695674 5.91409e-19)
(1.48926 0.681482 3.80488e-20)
(1.4198 0.666166 -2.41332e-19)
(1.35206 0.644723 2.12011e-19)
(1.25554 0.605785 -3.49054e-19)
(1.04773 0.505228 -4.18198e-19)
(0.542694 0.26125 -3.51782e-20)
(2.10399 0.669557 8.16097e-19)
(1.9796 0.655555 8.91045e-19)
(1.82989 0.635707 -7.56123e-19)
(1.68793 0.613973 -6.18498e-19)
(1.57437 0.59426 9.474e-20)
(1.48582 0.575168 -3.89952e-19)
(1.40276 0.55188 -9.79196e-20)
(1.28973 0.512701 5.5224e-20)
(1.06022 0.419337 8.99459e-20)
(0.53315 0.209096 2.30841e-20)
(2.21288 0.580435 7.47183e-19)
(2.08833 0.566289 -8.70478e-19)
(1.93139 0.544966 -6.52001e-19)
(1.77442 0.51992 3.54573e-19)
(1.64335 0.497229 -3.06261e-19)
(1.53911 0.477002 7.52121e-19)
(1.4416 0.454003 -5.76566e-20)
(1.31098 0.416754 -6.0295e-19)
(1.05772 0.332646 2.66967e-19)
(0.511767 0.158147 4.2831e-20)
(2.2833 0.496261 -4.69547e-19)
(2.15344 0.47886 -5.84909e-19)
(1.98962 0.453262 -6.52364e-19)
(1.82472 0.425149 3.74733e-20)
(1.68527 0.401304 2.00744e-19)
(1.57202 0.381163 1.70645e-19)
(1.46305 0.358995 2.00495e-19)
(1.31459 0.323809 -4.90346e-20)
(1.0359 0.248448 3.04862e-20)
(0.476857 0.110281 5.58979e-20)
(2.31395 0.416605 2.23459e-19)
(2.17102 0.39343 -7.56328e-20)
(2.00013 0.363903 3.21457e-19)
(1.83428 0.33507 7.70492e-19)
(1.69533 0.311835 -2.12752e-19)
(1.57922 0.292189 -6.86234e-19)
(1.46093 0.270284 4.88143e-19)
(1.29325 0.235974 4.86615e-19)
(0.988089 0.168301 -2.73314e-19)
(0.42704 0.0672801 -4.08784e-20)
(2.29705 0.341461 -4.34405e-19)
(2.13821 0.312194 -4.20763e-21)
(1.96473 0.281212 4.59758e-19)
(1.80584 0.253736 3.87944e-19)
(1.67386 0.231615 2.4191e-19)
(1.55783 0.211787 -3.68111e-19)
(1.42942 0.18882 6.04299e-20)
(1.23943 0.153993 -2.48324e-19)
(0.909124 0.0943802 -3.37624e-19)
(0.363842 0.0314709 5.16105e-21)
(0.348738 0.408302 -1.38102e-20)
(0.317431 0.409159 1.47722e-19)
(0.284437 0.408911 1.86952e-20)
(0.250332 0.408396 -1.09706e-19)
(0.215024 0.408039 -3.94081e-20)
(0.178013 0.406682 -8.95898e-20)
(0.138749 0.3999 4.5549e-20)
(0.0967814 0.377753 -3.66758e-20)
(0.0525543 0.319924 8.89002e-20)
(0.0203209 0.175908 1.86922e-20)
(0.398791 0.49032 -5.94845e-20)
(0.366921 0.49112 -1.57954e-20)
(0.333158 0.490898 -1.26864e-19)
(0.29826 0.490714 1.29781e-20)
(0.262212 0.491178 2.05232e-20)
(0.224343 0.49111 3.60993e-20)
(0.18368 0.485536 1.73417e-19)
(0.13905 0.462944 -5.49937e-20)
(0.0883059 0.398159 6.21983e-20)
(0.0396474 0.223001 -1.59363e-20)
(0.461196 0.569433 4.66565e-20)
(0.428914 0.570745 1.57446e-19)
(0.394831 0.570916 9.50087e-20)
(0.359636 0.57119 1.41906e-19)
(0.323264 0.572429 3.95393e-20)
(0.284863 0.573551 1.75841e-19)
(0.243018 0.569177 -6.12849e-20)
(0.195622 0.546357 -6.87143e-20)
(0.137186 0.475113 6.02915e-23)
(0.0667296 0.269325 9.38741e-21)
(0.532258 0.638854 4.21512e-19)
(0.498871 0.639419 3.06939e-19)
(0.463611 0.639334 -3.46337e-19)
(0.427576 0.640172 -1.56051e-19)
(0.390911 0.642833 3.00837e-20)
(0.352568 0.645967 -7.77999e-20)
(0.310494 0.643459 -2.42532e-19)
(0.261264 0.620963 7.17253e-20)
(0.195318 0.544404 -4.95961e-20)
(0.0998803 0.311144 -8.77326e-20)
(0.629048 0.706434 -1.43899e-19)
(0.595299 0.708748 -3.01144e-19)
(0.559596 0.709517 2.61297e-19)
(0.522664 0.710426 -8.80126e-20)
(0.484623 0.712944 -1.55944e-19)
(0.444545 0.716296 1.9101e-19)
(0.40012 0.714387 8.00492e-20)
(0.346625 0.691753 -1.18964e-19)
(0.269807 0.610039 -2.09301e-19)
(0.141651 0.350381 4.96463e-20)
(0.699322 0.758963 -2.69981e-20)
(0.6644 0.759794 -2.68947e-20)
(0.629006 0.760045 -3.87589e-20)
(0.593993 0.761961 6.92956e-20)
(0.559251 0.766562 2.0388e-19)
(0.523063 0.772188 -1.77491e-19)
(0.481955 0.771786 -1.13241e-19)
(0.429217 0.749154 -1.86669e-20)
(0.345339 0.663021 4.7103e-20)
(0.185529 0.381469 1.28086e-19)
(0.835797 0.80124 -2.64184e-19)
(0.799631 0.803463 1.21232e-19)
(0.760859 0.803769 3.29794e-19)
(0.720874 0.804605 -1.84348e-19)
(0.680621 0.80823 -3.80153e-19)
(0.639317 0.813935 1.85055e-19)
(0.593473 0.81447 4.74592e-19)
(0.534754 0.79247 1.44899e-19)
(0.437528 0.704007 1.97931e-20)
(0.237068 0.405519 1.9325e-19)
(0.911318 0.838769 -4.58855e-19)
(0.873875 0.839651 -1.48091e-19)
(0.839256 0.839996 3.11871e-19)
(0.806277 0.84229 -1.17701e-19)
(0.773354 0.847209 7.09466e-20)
(0.738188 0.852949 3.28382e-19)
(0.696319 0.852347 -2.93743e-19)
(0.637426 0.828684 -2.79531e-19)
(0.529759 0.736011 1.88112e-19)
(0.289039 0.422778 -3.11228e-20)
(1.0385 0.855295 -1.72916e-20)
(1.00043 0.855916 4.93796e-20)
(0.959463 0.853596 -2.22347e-19)
(0.919504 0.852977 -5.82358e-20)
(0.882236 0.856799 3.9342e-19)
(0.845589 0.863344 9.17434e-20)
(0.803612 0.863899 -6.19831e-20)
(0.743084 0.841038 0)
(0.62487 0.747853 -1.48156e-19)
(0.342411 0.428509 -8.96038e-20)
(1.13252 0.852167 0)
(1.0993 0.854005 0)
(1.06939 0.853574 5.62639e-19)
(1.0362 0.853933 9.91826e-20)
(1.0008 0.857693 -1.31923e-19)
(0.963402 0.863663 2.78175e-19)
(0.919102 0.863428 -1.30089e-19)
(0.853568 0.839822 -4.43961e-19)
(0.721512 0.745425 2.51981e-19)
(0.395314 0.424895 1.45319e-19)
(0.923332 0.0717714 -1.20524e-20)
(1.04529 0.266905 -5.03225e-21)
(0.916277 0.272989 7.91624e-21)
(0.915623 0.222361 5.76856e-21)
(0.885242 0.195967 1.89665e-20)
(0.865999 0.194807 3.13385e-20)
(0.838006 0.206709 -1.55203e-20)
(0.785332 0.242449 -2.97337e-20)
(0.728829 0.292751 -8.6505e-20)
(0.494315 0.391734 1.26099e-19)
(0.922949 0.0715108 -1.46365e-21)
(1.0457 0.277348 7.76598e-21)
(0.914319 0.284207 5.92039e-23)
(0.914402 0.229969 1.59994e-20)
(0.883093 0.201824 1.48957e-20)
(0.866842 0.201086 -4.098e-20)
(0.846238 0.217586 -1.37357e-20)
(0.800286 0.260465 -6.73251e-23)
(0.754493 0.334869 2.34875e-19)
(0.540175 0.466091 -6.75944e-21)
(0.922482 0.0714812 4.60437e-21)
(1.04636 0.288362 1.4722e-20)
(0.911301 0.29536 -1.21439e-20)
(0.910976 0.237485 -2.17477e-21)
(0.878453 0.207111 -1.77704e-20)
(0.865153 0.206205 3.66062e-21)
(0.851197 0.2266 1.95719e-20)
(0.813589 0.277579 -1.97192e-20)
(0.779732 0.374235 1.07535e-19)
(0.596606 0.536019 -3.71677e-19)
(0.92201 0.0716625 1.40582e-21)
(1.04758 0.300095 -2.77575e-21)
(0.907024 0.30674 -1.43618e-20)
(0.904504 0.24484 -4.45341e-20)
(0.872237 0.211747 3.77456e-20)
(0.862382 0.210187 1.92208e-20)
(0.853419 0.23382 -2.38907e-20)
(0.825014 0.293708 9.36427e-20)
(0.805402 0.410886 -9.82401e-20)
(0.659874 0.603378 -3.54642e-19)
(0.921784 0.071961 2.27567e-21)
(1.04983 0.31277 -1.28676e-20)
(0.901088 0.318879 7.6244e-21)
(0.895288 0.251697 7.0781e-20)
(0.867226 0.215524 1.25e-20)
(0.859826 0.213327 4.26502e-20)
(0.853714 0.239755 3.06405e-20)
(0.834236 0.309052 6.72221e-20)
(0.829993 0.440524 -2.05774e-20)
(0.748105 0.657886 2.82978e-19)
(0.922104 0.0721387 4.79294e-21)
(1.05343 0.326676 4.65276e-22)
(0.893644 0.332073 -6.83509e-21)
(0.88841 0.25804 1.74901e-20)
(0.866493 0.218148 -3.73492e-20)
(0.858401 0.216268 5.37488e-21)
(0.853488 0.245084 -8.66573e-21)
(0.841855 0.323194 -1.94324e-19)
(0.858722 0.468765 0)
(0.809435 0.716328 -3.03264e-20)
(0.922932 0.0720242 -6.43514e-21)
(1.05818 0.341803 2.74868e-21)
(0.88823 0.345498 1.80728e-21)
(0.892326 0.262368 -7.29243e-20)
(0.870364 0.219876 -1.66204e-20)
(0.859639 0.219624 -6.15837e-20)
(0.855766 0.250246 3.35965e-21)
(0.851706 0.337263 7.34125e-21)
(0.88268 0.48522 -5.04607e-21)
(0.929528 0.749289 9.41755e-19)
(0.924069 0.0715162 -5.55088e-20)
(1.06431 0.357011 5.39404e-21)
(0.892646 0.358839 3.27954e-20)
(0.906307 0.263458 4.08924e-20)
(0.880036 0.221136 -8.74613e-20)
(0.86888 0.224191 1.36736e-20)
(0.868063 0.255702 -3.78746e-21)
(0.866108 0.352088 1.52385e-20)
(0.923447 0.50274 1.51368e-19)
(1.01585 0.798694 -1.17744e-19)
(0.924089 0.070383 1.76616e-20)
(1.07368 0.370922 -8.56974e-21)
(0.912046 0.369689 -1.20571e-20)
(0.92876 0.263206 1.07635e-19)
(0.908743 0.224118 7.228e-21)
(0.902751 0.229025 2.0155e-20)
(0.905214 0.259897 -3.50671e-20)
(0.903213 0.361356 5.7352e-20)
(0.973788 0.50346 2.71603e-19)
(1.09622 0.813769 -6.42119e-19)
(0.920206 0.0691262 3.24952e-20)
(1.09088 0.3828 -1.14489e-21)
(0.946628 0.374854 1.05624e-21)
(0.979215 0.262183 -3.57399e-20)
(0.974997 0.22454 7.69709e-20)
(0.97165 0.234341 -2.3299e-20)
(0.972756 0.269576 -8.58866e-21)
(0.958903 0.386374 5.4337e-20)
(1.05165 0.527009 -6.12413e-20)
(1.26013 0.860352 4.2188e-19)
(0.904498 0.0618105 -6.58325e-21)
(1.12892 0.390429 -1.25222e-20)
(1.02803 0.379643 -6.22976e-21)
(1.08996 0.260813 -4.87351e-20)
(1.10733 0.220788 -4.57041e-20)
(1.11676 0.235594 -3.5918e-20)
(1.11205 0.270774 4.05705e-21)
(1.11353 0.38064 -1.35925e-19)
(1.18999 0.481275 -4.00146e-19)
(1.24829 0.848499 -3.82974e-20)
(0.874291 0.0431378 -1.40793e-20)
(1.1833 0.369161 -2.55058e-20)
(1.16272 0.362941 4.08659e-21)
(1.25171 0.251067 -1.42984e-20)
(1.29394 0.210225 4.16554e-20)
(1.30646 0.235256 7.40586e-20)
(1.36236 0.259468 1.33058e-20)
(1.2894 0.385815 1.15465e-19)
(1.53729 0.461713 8.81384e-20)
(1.30407 0.759853 4.39103e-19)
(0.842345 0.0212022 -6.26974e-21)
(1.22323 0.317331 -7.58846e-21)
(1.27899 0.324333 5.53857e-21)
(1.39582 0.231233 1.06968e-20)
(1.45984 0.196468 1.11874e-34)
(1.47958 0.215917 -5.30703e-21)
(1.59465 0.25872 -5.29442e-34)
(1.45375 0.345955 1.93306e-20)
(1.88005 0.441668 -6.32606e-20)
(1.53565 0.69331 -3.39706e-19)
(0.820817 0.00077688 2.65614e-20)
(1.2372 0.240241 -6.1947e-35)
(1.3494 0.265799 -5.97597e-21)
(1.49151 0.201571 1.19596e-20)
(1.57297 0.177402 -1.87652e-20)
(1.59891 0.189387 -3.84689e-20)
(1.75853 0.25143 -6.44829e-34)
(1.59827 0.30165 -8.60503e-20)
(2.08577 0.405548 -1.32917e-19)
(1.84363 0.620958 3.67343e-19)
(0.813373 -0.0169977 0)
(1.23008 0.151677 -1.36781e-34)
(1.37544 0.193781 0)
(1.54111 0.164565 0)
(1.63041 0.155194 0)
(1.67321 0.153921 0)
(1.83263 0.23604 -4.4509e-34)
(1.72511 0.254279 0)
(2.15897 0.331282 -2.15063e-20)
(2.09069 0.5526 2.12575e-19)
(0.817269 -0.0325518 6.51935e-21)
(1.2166 0.0625898 4.13404e-21)
(1.36841 0.113262 -6.81955e-21)
(1.54837 0.121696 0)
(1.6415 0.128804 0)
(1.70533 0.120156 5.82721e-21)
(1.83133 0.212466 3.96509e-20)
(1.83555 0.20585 -1.46828e-20)
(2.14673 0.250664 -3.10082e-20)
(2.21624 0.482423 1.55615e-19)
(0.830737 -0.0469138 -5.14082e-20)
(1.20185 -0.0236557 -8.71786e-21)
(1.32142 0.0335607 -7.21839e-21)
(1.50034 0.0772616 -2.20894e-20)
(1.59378 0.0961167 -1.16176e-20)
(1.68049 0.0892474 -8.23669e-21)
(1.76629 0.174244 -3.1215e-20)
(1.89401 0.159414 -3.13207e-20)
(2.05647 0.182476 -8.4943e-20)
(2.24225 0.396186 8.78586e-20)
(0.85181 -0.0599326 -1.08602e-20)
(1.17269 -0.0870029 -2.07086e-20)
(1.19666 -0.0307493 -7.73345e-21)
(1.35239 0.0378298 -7.89425e-21)
(1.42794 0.0588254 6.74032e-35)
(1.53572 0.0597837 6.88748e-21)
(1.57831 0.119562 -9.45469e-34)
(1.82609 0.109695 -1.59886e-20)
(1.83474 0.128059 1.83505e-20)
(2.16883 0.286841 2.6078e-20)
(0.872049 -0.0787393 1.35474e-19)
(1.08573 -0.119272 -8.77926e-21)
(0.918129 -0.0661434 -8.99249e-21)
(1.02084 0.00941757 1.18008e-20)
(1.06523 0.0233502 2.57478e-21)
(1.15808 0.0311014 1.10737e-20)
(1.20429 0.0593136 1.02321e-20)
(1.46444 0.0545404 -1.48273e-20)
(1.40901 0.0737006 -1.11546e-20)
(1.85597 0.146302 1.11405e-19)
(0.821076 -0.0494233 1.06136e-20)
(0.767196 -0.0632778 -8.9926e-35)
(0.400989 -0.0288991 -9.58125e-21)
(0.4604 0.00442412 0)
(0.467234 0.00513723 0)
(0.519411 0.00909184 7.29932e-21)
(0.573815 0.0141624 -9.77793e-36)
(0.715777 0.0168846 -1.62694e-20)
(0.719963 0.0211947 -2.48227e-20)
(1.02847 0.0407997 -4.07113e-20)
(1.52608 0.864908 1.55007e-19)
(1.66599 0.858201 -9.33755e-20)
(1.83615 0.838858 -3.39033e-21)
(2.00648 0.801047 7.36293e-20)
(2.15948 0.740522 -3.16102e-19)
(2.28026 0.664799 -5.64472e-19)
(2.38072 0.580281 -2.40597e-19)