/*--------------------------------*- C++ -*----------------------------------*\
| =========                 |                                                 |
| \\      /  F ield         | OpenFOAM: The Open Source CFD Toolbox           |
|  \\    /   O peration     | Version:  2406                                  |
|   \\  /    A nd           | Website:  www.openfoam.com                      |
|    \\/     M anipulation  |                                                 |
\*---------------------------------------------------------------------------*/
FoamFile
{
    version     2.0;
    format      ascii;
    arch        "LSB;label=32;scalar=64";
    class       volScalarField;
    location    "0.45";
    object      nu;
}
// * * * * * * * * * * * * * * * * * * * * * * * * * * * * * * * * * * * * * //

dimensions      [0 2 -1 0 0 0 0];

internalField   nonuniform List<scalar> 
1800
(
0.00967049
0.0133349
0.0112332
0.0100695
0.0097238
0.00962457
0.00956267
0.00947421
0.00953039
0.0101602
0.0113959
0.0131668
0.0102414
0.00941352
0.00932272
0.00940724
0.00949205
0.00953432
0.00969407
0.00913006
0.0156693
0.0115404
0.00934862
0.00893459
0.00903594
0.00922882
0.00938578
0.00946687
0.0096936
0.00929704
0.0159616
0.00986726
0.00867586
0.0086077
0.00884107
0.00909749
0.00928392
0.00936837
0.00960213
0.00891319
0.0109954
0.00874912
0.00826705
0.00843385
0.00878546
0.00911843
0.00935143
0.00944326
0.0096209
0.00871578
0.00889486
0.00809152
0.00800918
0.00835665
0.00884449
0.00928483
0.00957197
0.00963659
0.00963812
0.00849105
0.00787614
0.00766233
0.00785548
0.00839148
0.00905543
0.0096262
0.00993008
0.00985312
0.00948764
0.00840027
0.00726506
0.00737803
0.00780707
0.0085674
0.00945288
0.0101332
0.01031
0.00991126
0.00924023
0.00838517
0.00686315
0.0072011
0.0078657
0.00890697
0.0100491
0.0107198
0.0105318
0.00976971
0.00902994
0.00853322
0.00658937
0.00710877
0.00803039
0.00942158
0.0108059
0.0112185
0.0105125
0.00956304
0.00895619
0.00876891
0.00830487
0.0131993
0.0194302
0.0200916
0.0193897
0.0185702
0.0175182
0.0162487
0.0148938
0.0137807
0.00805152
0.0129246
0.0204629
0.0207605
0.0193994
0.0183225
0.0172149
0.0158613
0.0143916
0.0132145
0.00786185
0.0127833
0.0230109
0.0225478
0.0199921
0.0184193
0.0171342
0.0156401
0.0140343
0.0127785
0.0077266
0.0127669
0.0314476
0.0268213
0.0209839
0.0186499
0.0171963
0.0155663
0.0138112
0.0124643
0.00764038
0.0129943
0.0700404
0.0396022
0.0227178
0.0187649
0.0172055
0.0155342
0.0136438
0.0122285
0.00762231
0.0130317
0.0837989
0.0446683
0.0233515
0.0188675
0.0174601
0.0158089
0.0136628
0.01207
0.0076893
0.0125412
0.0299023
0.0256864
0.019814
0.0182301
0.0178275
0.0165769
0.0140153
0.0119742
0.00786681
0.0122169
0.0178457
0.0170114
0.0158779
0.0158576
0.0163588
0.0164442
0.0142229
0.0117375
0.0082033
0.0122272
0.0141197
0.0131801
0.0126646
0.0127072
0.0131244
0.0138971
0.0134513
0.011361
0.00876367
0.0126899
0.0124368
0.0112441
0.0107752
0.0106628
0.0107083
0.0109743
0.0111454
0.0107708
0.0143297
0.0134066
0.0160297
0.0194726
0.0238475
0.0300428
0.0368086
0.0441618
0.0472866
0.0612306
0.0141469
0.0136825
0.0158177
0.0191578
0.0234256
0.0299762
0.0375683
0.0458749
0.0494591
0.0641206
0.0140043
0.0142348
0.0156272
0.0187966
0.0228079
0.0293588
0.0372214
0.0457155
0.0497768
0.0637777
0.0139217
0.0150341
0.0153094
0.0181187
0.0216803
0.0276074
0.0347075
0.0420169
0.0459697
0.0566964
0.0138024
0.0151779
0.0143419
0.0164705
0.0193463
0.0238849
0.0292232
0.0344116
0.037629
0.0438311
0.0131854
0.0134614
0.0126631
0.0139904
0.0160132
0.0189214
0.0223114
0.0255702
0.0278774
0.0309675
0.011873
0.0114813
0.0112024
0.0119869
0.0132657
0.0149729
0.0169426
0.0188683
0.0203543
0.0220054
0.0104755
0.010359
0.0103747
0.0108835
0.0117048
0.0127263
0.0138737
0.0149943
0.0158798
0.0168489
0.00965376
0.0101205
0.010142
0.0104406
0.0110376
0.0117545
0.0125256
0.0132674
0.013814
0.0144768
0.00869489
0.010455
0.0104519
0.0104872
0.0109004
0.0114575
0.0120502
0.0126135
0.0130011
0.0135465
0.00959813
0.0112369
0.0113756
0.0114222
0.0117297
0.0121711
0.012657
0.0131474
0.01342
0.0139215
0.00955839
0.0100097
0.0106525
0.011565
0.0126093
0.0135196
0.01423
0.0148223
0.0151252
0.015633
0.00999996
0.0103904
0.0109166
0.0118597
0.0133954
0.0151147
0.0166612
0.017941
0.0187866
0.0195845
0.0139178
0.0123486
0.0122189
0.0129329
0.0149215
0.0179592
0.021486
0.0253632
0.0285966
0.0334119
0.015279
0.0125878
0.0126006
0.0135397
0.0159288
0.0201509
0.0262109
0.034595
0.0451869
0.0941285
0.0150464
0.0138792
0.0136882
0.0144591
0.0165754
0.0198291
0.0235127
0.0266485
0.0298171
0.0319294
0.013425
0.0120623
0.0116452
0.0121741
0.0132081
0.0141893
0.0150283
0.0155951
0.0161074
0.0162139
0.0096073
0.00915555
0.00923243
0.0096772
0.0102208
0.0106434
0.0109811
0.0112212
0.0114052
0.0114953
0.00751824
0.00769773
0.00806061
0.0084765
0.00884536
0.00909664
0.00927801
0.00940496
0.00948444
0.00955391
0.00709119
0.0075625
0.00805546
0.00847291
0.00866108
0.00869959
0.00869849
0.00869175
0.008679
0.00870704
0.00987978
0.00928953
0.00873242
0.00844046
0.00820203
0.00826626
0.00818344
0.0086656
0.00822002
0.00890074
0.0126296
0.0120184
0.0104121
0.00998495
0.0089068
0.0088132
0.00820192
0.00835735
0.00817455
0.0082921
0.0156229
0.0149754
0.0143228
0.0127393
0.0120174
0.0108613
0.0105925
0.00963228
0.00978027
0.00890876
0.0187174
0.0179684
0.021199
0.0161415
0.0189787
0.0140764
0.0201464
0.0135926
0.0185375
0.0121828
0.020266
0.0205621
0.0216761
0.0208274
0.0203011
0.0202307
0.0212523
0.0272082
0.0309859
0.038563
0.0169548
0.0168465
0.016745
0.0184177
0.0176567
0.0223092
0.0195693
0.0237858
0.0201676
0.0220357
0.0121047
0.0121734
0.0121947
0.0129455
0.0129037
0.0142298
0.0138467
0.0148057
0.0143977
0.0147152
0.0091159
0.00911842
0.00907391
0.00919188
0.00912755
0.00940308
0.00927092
0.00958501
0.00952432
0.00981998
0.00738926
0.007339
0.00730642
0.00728646
0.00730507
0.0073077
0.00736909
0.00741322
0.0074713
0.00757506
0.00640642
0.00639887
0.00641619
0.00643473
0.00649054
0.00652937
0.00662046
0.00666817
0.00679119
0.00682157
0.00893864
0.0117445
0.0149918
0.0168104
0.0174742
0.0178269
0.0170044
0.0119733
0.00799837
0.00625581
0.00869362
0.00940331
0.0108691
0.0132615
0.0158837
0.0183335
0.0190299
0.0122486
0.00794412
0.00623056
0.00893414
0.00888049
0.00945019
0.0109845
0.0134136
0.0159422
0.0171664
0.0119969
0.00787562
0.00621516
0.00950453
0.00897652
0.00909275
0.010045
0.0118597
0.0139079
0.0147176
0.0113094
0.00776204
0.0061999
0.0101299
0.00920174
0.00903086
0.00966335
0.011067
0.0127032
0.0131495
0.0105623
0.00761209
0.00618238
0.010439
0.00930554
0.00903346
0.00954956
0.0107757
0.0121803
0.0123302
0.00995053
0.00745329
0.0061704
0.0102454
0.00922824
0.00904646
0.00959688
0.0108079
0.0120998
0.0118598
0.00945715
0.0073104
0.0061756
0.00986418
0.00912974
0.00912199
0.00978508
0.0110545
0.0121854
0.0114117
0.00902825
0.00719607
0.00620915
0.00944242
0.00904108
0.0092415
0.0100494
0.0113362
0.0120813
0.0108071
0.00863578
0.00711808
0.00628149
0.00909877
0.00898078
0.00938777
0.0103195
0.0114426
0.0115756
0.0100901
0.00829407
0.00708536
0.00640318
0.01352
0.0134027
0.0132886
0.0131521
0.0129578
0.0127427
0.0125453
0.0121691
0.0107953
0.00821791
0.0134802
0.0133111
0.013192
0.013056
0.0128541
0.0126313
0.0124397
0.0119912
0.0102591
0.00773061
0.0135253
0.0133231
0.0132114
0.013067
0.0128399
0.0125948
0.0123997
0.0118614
0.00980992
0.00736987
0.0134273
0.0131379
0.0130388
0.0129278
0.0127309
0.0125205
0.0123727
0.0117774
0.00945135
0.00709899
0.0136168
0.0133207
0.0132507
0.0131116
0.0128551
0.0125887
0.0124028
0.0116599
0.00910798
0.00687711
0.0136261
0.0132575
0.0132531
0.0131786
0.0129661
0.0127621
0.0126638
0.0117929
0.00888316
0.00671333
0.0135534
0.0130271
0.0130036
0.0129594
0.012787
0.0126084
0.012507
0.0115255
0.00860491
0.00656744
0.0142713
0.0141665
0.0146902
0.0146787
0.0142466
0.0138419
0.0135792
0.0118905
0.00843529
0.00645958
0.0143932
0.0128229
0.0128411
0.013056
0.0130285
0.0130436
0.0132112
0.0117439
0.00827979
0.00637571
0.0148529
0.0181688
0.0173628
0.0156946
0.014832
0.0144995
0.0141364
0.0115924
0.00809565
0.00630259
0.0198088
0.0365109
0.0277968
0.0513723
0.0587136
0.0494986
0.03135
0.0238268
0.0157745
0.013281
0.0195154
0.0354808
0.0271848
0.0457562
0.059779
0.0596868
0.0341493
0.0239575
0.0159156
0.0132055
0.0192271
0.0342405
0.0263051
0.0404612
0.0595235
0.0742508
0.0380017
0.0242153
0.0161547
0.013151
0.018911
0.032618
0.0251405
0.0368379
0.0636797
0.0912378
0.0425116
0.0247212
0.0165855
0.0130183
0.0185501
0.0306159
0.0239909
0.0368366
0.0808966
0.0964127
0.0451771
0.0254594
0.0170141
0.0132896
0.018213
0.0286088
0.0238092
0.0464935
0.113288
0.0776604
0.0417974
0.0247957
0.0170981
0.0126765
0.0179217
0.0270468
0.025283
0.0879347
0.0756241
0.0462926
0.0321119
0.0236467
0.0166764
0.0130886
0.0177936
0.0253905
0.0275186
0.0695271
0.0301561
0.0250594
0.0214505
0.0188817
0.0149015
0.0132356
0.0179067
0.0227686
0.0273924
0.0265663
0.0189067
0.0175355
0.016417
0.0158439
0.0135226
0.0117507
0.0185739
0.0195317
0.0218107
0.0183067
0.015211
0.0142613
0.013694
0.0131283
0.0122268
0.0142209
0.0191519
0.0172566
0.0186376
0.0162457
0.0141597
0.0133242
0.0123835
0.0122581
0.0106246
0.013378
0.0195909
0.0154943
0.0185282
0.0164619
0.0144701
0.0136228
0.0121799
0.0126196
0.0101681
0.0113583
0.0201435
0.014299
0.0198639
0.01842
0.0162728
0.0148163
0.0135122
0.0127006
0.0110833
0.0110631
0.0212466
0.0135764
0.0195701
0.0214112
0.0201967
0.0173341
0.0165632
0.0134889
0.0130775
0.0116049
0.0231434
0.013299
0.0182362
0.0226849
0.0257735
0.0205321
0.023094
0.0143087
0.0150591
0.0130877
0.0256042
0.0133604
0.0173725
0.0216908
0.0262511
0.024935
0.0237918
0.0161363
0.0161159
0.0140682
0.029062
0.0140292
0.0164201
0.0173547
0.0174234
0.0189091
0.0161927
0.0187353
0.0143309
0.0135016
0.0323733
0.0152699
0.0131837
0.0125019
0.012009
0.0120684
0.0116592
0.0122599
0.0112067
0.0112745
0.0237755
0.0127226
0.0103524
0.00999553
0.00968515
0.00952794
0.00946073
0.00916277
0.00917173
0.00875536
0.00818511
0.00796259
0.00893122
0.00853712
0.00842377
0.00821302
0.00804974
0.00767703
0.00764055
0.00707736
0.0102202
0.0108061
0.0115906
0.0128838
0.014018
0.0145263
0.0141842
0.013088
0.0116867
0.0107519
0.0106547
0.0108413
0.0114033
0.0121305
0.0126715
0.0128487
0.0130694
0.0135478
0.0138915
0.0139542
0.0115884
0.0118478
0.0125073
0.013269
0.0138166
0.0138066
0.0137219
0.0137409
0.0144194
0.0148357
0.0127603
0.0131217
0.0136996
0.0141829
0.0144939
0.0144418
0.0143936
0.0142734
0.0151006
0.0158503
0.013656
0.013764
0.0140015
0.0140357
0.0140364
0.0140033
0.0142369
0.014552
0.0157328
0.0170907
0.0134844
0.0133895
0.013674
0.013914
0.0140104
0.0140448
0.0144878
0.015167
0.0162721
0.0166611
0.0126644
0.0124089
0.0124738
0.0125602
0.0123679
0.0121218
0.0121081
0.0123103
0.0124128
0.0123204
0.0106405
0.0103473
0.0101479
0.00997195
0.00975492
0.00959351
0.00948498
0.0094434
0.00932255
0.0092574
0.00855212
0.00839702
0.00823132
0.00806371
0.00793231
0.00783866
0.00774695
0.00765069
0.00754906
0.00746502
0.00694794
0.0068421
0.00674281
0.00666978
0.00661956
0.00657341
0.0065253
0.00648204
0.00644758
0.00642129
0.00629858
0.0071346
0.00887149
0.0138292
0.0427712
0.0183599
0.0127941
0.010881
0.00955295
0.00849041
0.00639432
0.00706065
0.00845704
0.0125907
0.045785
0.025465
0.0136896
0.0106168
0.00926273
0.00838715
0.00655605
0.00705052
0.00810252
0.0108592
0.0204032
0.0267666
0.0150836
0.0109815
0.00933739
0.00845906
0.00679828
0.00711269
0.00786449
0.00966554
0.0138985
0.0195084
0.0159707
0.0118474
0.00982307
0.00876832
0.0071362
0.00725918
0.00777019
0.00898208
0.0113273
0.0144761
0.0149919
0.0126743
0.0106732
0.00941086
0.00758456
0.00750424
0.00782905
0.00867622
0.0101307
0.0119319
0.0129878
0.0125257
0.0113976
0.0103464
0.0081339
0.00785556
0.00804384
0.00865768
0.00962039
0.0106933
0.0114655
0.0116547
0.0114267
0.0110963
0.00873344
0.00831734
0.00842155
0.00887976
0.00952811
0.0101569
0.0105992
0.0108219
0.0109817
0.0111286
0.00928095
0.00888172
0.0089707
0.00932188
0.00973737
0.0100666
0.0102726
0.0104232
0.010723
0.0109897
0.00972342
0.00956642
0.00973821
0.0100073
0.010192
0.0102404
0.0102063
0.0101655
0.010265
0.0107988
0.0100544
0.0103931
0.01084
0.0111121
0.0110974
0.0109136
0.0107297
0.0106529
0.0107973
0.01246
0.0103132
0.0113581
0.0123582
0.0127514
0.0125643
0.0122091
0.0119867
0.0120553
0.0123113
0.0135056
0.010527
0.0124838
0.0145879
0.0152783
0.0148514
0.0143234
0.0140597
0.0141828
0.0142599
0.0146695
0.0106235
0.0136016
0.018032
0.0196393
0.018797
0.0177326
0.0169461
0.0166156
0.0161219
0.0156827
0.010617
0.0147239
0.0256066
0.0354076
0.0311078
0.0235505
0.0200651
0.0186493
0.0175404
0.0164738
0.0103498
0.0147803
0.0284276
0.170277
0.0481725
0.0262357
0.0214448
0.0197685
0.0183903
0.0169472
0.00990501
0.0150903
0.0286743
0.0414303
0.0381038
0.0263476
0.0215147
0.0196465
0.018294
0.0168453
0.00943819
0.0147009
0.022755
0.0256931
0.0256612
0.0227638
0.0200726
0.0184965
0.0172949
0.0161044
0.00900614
0.014155
0.0203404
0.0218554
0.0217643
0.020558
0.0189055
0.0175265
0.0163241
0.0152481
0.00862458
0.0136148
0.0193881
0.0203813
0.020062
0.0192564
0.01807
0.0167987
0.0155342
0.0144634
0.013625
0.0161611
0.0223261
0.0377233
0.0371069
0.0352671
0.0361864
0.0402242
0.0433345
0.0580287
0.0133959
0.0166109
0.0214279
0.0298573
0.032848
0.0338807
0.0357979
0.0406244
0.0460114
0.0688799
0.013487
0.0174013
0.0215406
0.0290147
0.0308493
0.03252
0.034836
0.0397246
0.0456434
0.0689914
0.0137491
0.0175354
0.0210495
0.0273585
0.0286854
0.0306196
0.0332213
0.0380366
0.0438124
0.0645009
0.0139897
0.016665
0.0199735
0.0250978
0.0267622
0.0290035
0.0318062
0.036386
0.0415687
0.0590504
0.0142271
0.0154835
0.0187708
0.0231937
0.0256041
0.0283195
0.0313789
0.0357907
0.0401941
0.0550946
0.0144828
0.0144918
0.0177971
0.0218518
0.0250467
0.0284153
0.0319236
0.0364216
0.040167
0.0535061
0.0146234
0.013805
0.0171213
0.0209036
0.0247358
0.0288496
0.0330203
0.0378811
0.0412007
0.0538958
0.0146192
0.0134515
0.0166541
0.0202537
0.0244683
0.0293479
0.0343084
0.0397776
0.0428543
0.0555461
0.0145051
0.0133382
0.0163006
0.0198124
0.024181
0.0297865
0.035616
0.0419287
0.04491
0.0580509
0.00916778
0.0110816
0.0117647
0.0121025
0.0115962
0.0111201
0.0107621
0.0104539
0.0103115
0.0102373
0.00998445
0.011378
0.0123464
0.0125723
0.0123943
0.0120675
0.0118074
0.0115544
0.011453
0.0113081
0.0133733
0.0140779
0.0168103
0.0169051
0.0162091
0.0154982
0.0150121
0.0145965
0.0143562
0.0139962
0.0191501
0.0182789
0.0302145
0.0366225
0.0269843
0.0239016
0.0225844
0.0219193
0.0211501
0.0204987
0.0155756
0.0169837
0.0284108
0.0867374
0.0381328
0.0331105
0.0323343
0.0336479
0.0333703
0.0357959
0.00664618
0.00681082
0.00703098
0.0072896
0.0075639
0.0078102
0.00800151
0.00814475
0.00831769
0.00841786
0.0069326
0.00707963
0.00728272
0.00751441
0.00776192
0.00803708
0.00835039
0.00879687
0.00915664
0.00975404
0.00722546
0.00734208
0.00751851
0.0077357
0.00801447
0.00843227
0.00907138
0.010161
0.0110962
0.0140467
0.00754201
0.00761344
0.00776204
0.0079876
0.0083493
0.00896776
0.00998164
0.0114546
0.0124728
0.017628
0.00789476
0.00791183
0.00804958
0.00832699
0.00882196
0.00961921
0.0106101
0.0114077
0.0116156
0.0145529
0.012759
0.0132428
0.014298
0.0148029
0.0147554
0.0143579
0.0137106
0.0125741
0.0106101
0.00827105
0.014284
0.0140976
0.014134
0.0139579
0.0137315
0.0134775
0.0131131
0.0124467
0.0111125
0.00881721
0.0137871
0.0136259
0.0137516
0.0137313
0.0136419
0.0135106
0.0132712
0.0128175
0.0119304
0.00966351
0.01396
0.0139004
0.0139856
0.0138937
0.0137243
0.0135317
0.013288
0.0130139
0.0127851
0.0109902
0.013952
0.0138729
0.0138663
0.0137256
0.0135233
0.0133175
0.0131349
0.0131501
0.0139139
0.0138505
0.0139368
0.0138607
0.013787
0.0135992
0.0133506
0.0131112
0.0129626
0.0131883
0.0149372
0.0205587
0.0138428
0.0137809
0.0136858
0.0135058
0.0132736
0.0130531
0.0129289
0.0131427
0.0145308
0.0172934
0.0137357
0.0136922
0.0136023
0.0134534
0.0132611
0.0130765
0.0129463
0.0129555
0.0133135
0.0121073
0.0136449
0.0135955
0.0135018
0.0133671
0.0131892
0.0130066
0.0128451
0.012676
0.0122798
0.010028
0.0135679
0.0134899
0.0133852
0.0132514
0.0130686
0.0128701
0.0126829
0.0123944
0.0114546
0.00892106
0.00879033
0.0101957
0.0117952
0.0128779
0.013685
0.0152435
0.0126626
0.00925033
0.00725749
0.00625422
0.00944056
0.0113039
0.0131687
0.0139286
0.0135375
0.0130949
0.0126307
0.00971306
0.00741027
0.0062513
0.010685
0.0130706
0.0143197
0.0138757
0.0131422
0.0126379
0.0118311
0.00977959
0.0075776
0.00629517
0.0124355
0.0146315
0.0148227
0.0137472
0.0126249
0.0118731
0.0113323
0.00994105
0.00778726
0.00638171
0.0139375
0.015394
0.0149484
0.0137048
0.0125621
0.0117637
0.0111729
0.0100123
0.00800302
0.0065027
0.0153011
0.0164515
0.0152811
0.0135837
0.0123617
0.0115861
0.0110399
0.0101037
0.00826113
0.00666765
0.0171477
0.0169509
0.0144397
0.0127477
0.011887
0.0113852
0.0109987
0.0102587
0.00856753
0.00687842
0.0166413
0.0142919
0.0123996
0.011627
0.0113797
0.0112508
0.0110903
0.0105401
0.00895436
0.00714406
0.0130166
0.011645
0.0110766
0.0110938
0.0113106
0.0114725
0.0115083
0.0110721
0.00945939
0.00747221
0.0105019
0.0107635
0.011226
0.0118089
0.0122955
0.012565
0.0126007
0.0119766
0.0100825
0.00785757
0.0253572
0.0570999
0.0263725
0.0304158
0.0287965
0.0296948
0.0336916
0.02899
0.023121
0.0161205
0.0245842
0.0516717
0.0248941
0.0299762
0.0288061
0.0290406
0.030421
0.0253683
0.0235587
0.0146364
0.0237371
0.0478668
0.024997
0.0319038
0.029863
0.0293749
0.0295723
0.025533
0.0237296
0.01451
0.0230509
0.0450052
0.025877
0.0354367
0.0314293
0.0297738
0.0288432
0.0255516
0.0223108
0.0145797
0.0224507
0.0428221
0.0268332
0.0395495
0.0330504
0.0300034
0.027773
0.0250812
0.0203284
0.0145145
0.0218894
0.041487
0.0276362
0.0440968
0.0350489
0.0306029
0.0269176
0.0245046
0.0184686
0.0143414
0.0213702
0.0404953
0.0281912
0.0493265
0.0380282
0.0320167
0.0266535
0.0241138
0.0171693
0.0140521
0.0209008
0.039489
0.0284366
0.0544166
0.0424095
0.0343689
0.0270147
0.0238324
0.0163848
0.0137544
0.0204873
0.0384672
0.0284116
0.0570741
0.0481638
0.0377554
0.0278996
0.0236967
0.01596
0.0135387
0.0201275
0.0374805
0.0281928
0.0557647
0.054322
0.0425508
0.0293195
0.0237272
0.015782
0.0133907
0.00741424
0.00765119
0.00946489
0.00919602
0.00974527
0.00993915
0.0102245
0.0100681
0.0100235
0.00865107
0.0141771
0.0108124
0.010273
0.0107666
0.010935
0.0113343
0.0118034
0.0119436
0.0123737
0.0112227
0.0227635
0.0168605
0.0128781
0.0135437
0.0135087
0.0142239
0.015179
0.0167982
0.0172967
0.0162329
0.0253979
0.0317537
0.0192662
0.0199568
0.0192146
0.0207736
0.0235975
0.0354751
0.0313998
0.0156283
0.0261233
0.0532417
0.0267658
0.0283869
0.0262165
0.0278826
0.0335298
0.0435919
0.0299112
0.0152214
0.00825636
0.00786932
0.00747522
0.0071246
0.00684218
0.00663997
0.00651641
0.00645933
0.00646147
0.00652497
0.0104097
0.00965803
0.00894336
0.00833869
0.00782398
0.00740307
0.0070982
0.00690944
0.00682643
0.00683946
0.013453
0.012018
0.0108034
0.00989959
0.00914441
0.00844836
0.00786602
0.00746489
0.00724417
0.00717652
0.0152294
0.0141224
0.0130501
0.0119576
0.0109531
0.00992835
0.00891957
0.00817691
0.00774589
0.00756031
0.015347
0.0174452
0.0166042
0.0146922
0.0130378
0.011734
0.0103622
0.00916813
0.00840586
0.00802346
)
;

boundaryField
{
    left
    {
        type            calculated;
        value           nonuniform List<scalar> 
35
(
0.0149258
0.0146378
0.0139951
0.0134849
0.0132592
0.0132739
0.0135279
0.0139364
0.0137361
0.00806686
0.0144759
0.0144107
0.0143471
0.0142813
0.0142209
0.0142023
0.0142193
0.0143124
0.0144848
0.0148181
0.0156847
0.0155017
0.0153376
0.0152071
0.0150843
0.0149599
0.0148382
0.0147268
0.0146296
0.0145474
0.00735128
0.0122696
0.0150869
0.0156368
0.0158249
)
;
    }
    right
    {
        type            calculated;
        value           nonuniform List<scalar> 
35
(
0.0102384
0.0113131
0.0140253
0.0206972
0.0376216
0.0687289
0.0903257
0.0935414
0.0871124
0.0780895
0.0717659
0.0698732
0.0718034
0.076566
0.0839123
0.0942802
0.105805
0.10779
0.0876912
0.0576495
0.0356922
0.0236017
0.0174865
0.0148304
0.01381
0.0141874
0.0159967
0.0202393
0.0363418
0.134907
0.0314577
0.0162024
0.0115023
0.00955794
0.00870796
)
;
    }
    down
    {
        type            calculated;
        value           nonuniform List<scalar> 
40
(
0.00650778
0.00692238
0.00937587
0.00865237
0.00936506
0.00947191
0.0097023
0.00948426
0.0092698
0.00795601
0.00762909
0.00732682
0.0070065
0.00672506
0.0065102
0.00637088
0.00629932
0.00628051
0.00630689
0.00638445
0.00651459
0.00668567
0.0069124
0.00718621
0.00748875
0.00775754
0.00793632
0.00801006
0.00809485
0.00812872
0.0091646
0.0116098
0.0122119
0.0126337
0.0117292
0.0110603
0.0105865
0.0102068
0.0100192
0.00996239
)
;
    }
    up
    {
        type            calculated;
        value           nonuniform List<scalar> 
40
(
0.0071974
0.00789838
0.00846443
0.00887874
0.00888138
0.00873363
0.00860397
0.00851621
0.00845754
0.00846334
0.00610164
0.00611863
0.00614962
0.00619808
0.00625966
0.00633037
0.00642432
0.00649603
0.00664275
0.00666014
0.0064684
0.0063753
0.00629246
0.00623868
0.00620717
0.00617996
0.00615177
0.00612714
0.00610883
0.00610007
0.00695978
0.00706213
0.00857577
0.00805029
0.00799008
0.00776474
0.00755703
0.00720645
0.00711818
0.0065899
)
;
    }
    cylinder
    {
        type            calculated;
        value           nonuniform List<scalar> 
80
(
0.0073534
0.00714976
0.00699786
0.00689008
0.006817
0.00680113
0.00686675
0.00702036
0.00729467
0.00772372
0.00838072
0.00958014
0.0125572
0.0225616
0.0142135
0.009742
0.00814541
0.00730433
0.00678319
0.00643595
0.00585857
0.00584213
0.00583591
0.00583375
0.00583402
0.00584322
0.00587233
0.00593318
0.00603743
0.00619839
0.00743606
0.00703251
0.00673782
0.00651788
0.00634056
0.006209
0.00609506
0.0060107
0.00594574
0.00589201
0.00755372
0.00801648
0.00874063
0.0099453
0.0127869
0.0212455
0.0169087
0.0109648
0.00899961
0.00802996
0.00597435
0.00593936
0.00595408
0.0060113
0.00610246
0.00623346
0.00640508
0.00662306
0.00689222
0.00720853
0.00605645
0.00619664
0.00641395
0.00673103
0.00717539
0.00777748
0.00852551
0.00929642
0.00983638
0.0100466
0.0100301
0.00995158
0.00988137
0.00975939
0.00960302
0.00928206
0.00877793
0.00831458
0.0079315
0.00761327
)
;
    }
    defaultFaces
    {
        type            empty;
    }
}


// ************************************************************************* //
