/*--------------------------------*- C++ -*----------------------------------*\
| =========                 |                                                 |
| \\      /  F ield         | OpenFOAM: The Open Source CFD Toolbox           |
|  \\    /   O peration     | Version:  2406                                  |
|   \\  /    A nd           | Website:  www.openfoam.com                      |
|    \\/     M anipulation  |                                                 |
\*---------------------------------------------------------------------------*/
FoamFile
{
    version     2.0;
    format      ascii;
    arch        "LSB;label=32;scalar=64";
    class       volScalarField;
    location    "0.45";
    object      p;
}
// * * * * * * * * * * * * * * * * * * * * * * * * * * * * * * * * * * * * * //

dimensions      [0 2 -2 0 0 0 0];

internalField   nonuniform List<scalar> 
1800
(
-1.90306
-1.8907
-1.89235
-1.89973
-1.91197
-1.93102
-1.95868
-1.99599
-2.04309
-2.10308
-1.93768
-1.92607
-1.92653
-1.93192
-1.94163
-1.95769
-1.98124
-2.0124
-2.0512
-2.10017
-1.96696
-1.95823
-1.95641
-1.95849
-1.96486
-1.97716
-1.99625
-2.02205
-2.05407
-2.09558
-1.99452
-1.98598
-1.98174
-1.98005
-1.98177
-1.98836
-2.00059
-2.01833
-2.04115
-2.07253
-2.02521
-2.01087
-2.00485
-2.00028
-1.99744
-1.99811
-2.00326
-2.01283
-2.02651
-2.04739
-2.05276
-2.03634
-2.02816
-2.02002
-2.0122
-2.00677
-2.00485
-2.00644
-2.01136
-2.0217
-2.07912
-2.06141
-2.05019
-2.03763
-2.02444
-2.01296
-2.00434
-1.99858
-1.99528
-1.99458
-2.1004
-2.08132
-2.06619
-2.04837
-2.02933
-2.01173
-1.99662
-1.98371
-1.97209
-1.96069
-2.11073
-2.09013
-2.07034
-2.04672
-2.02176
-1.99819
-1.97664
-1.95634
-1.93601
-1.91378
-2.10377
-2.08155
-2.05692
-2.02765
-1.99724
-1.96802
-1.94003
-1.91213
-1.88277
-1.8499
-0.933419
-0.937893
-0.936377
-0.930333
-0.921114
-0.910061
-0.897673
-0.88409
-0.869138
-0.852231
-1.03636
-1.0401
-1.03845
-1.03276
-1.0244
-1.01466
-1.00387
-0.992042
-0.978906
-0.963667
-1.1488
-1.15165
-1.1497
-1.1447
-1.1378
-1.13
-1.12158
-1.1124
-1.10211
-1.08965
-1.26773
-1.26963
-1.26664
-1.26246
-1.25818
-1.25331
-1.24819
-1.24269
-1.23637
-1.22793
-1.38991
-1.39028
-1.38772
-1.38448
-1.38277
-1.38143
-1.38051
-1.37977
-1.37867
-1.37546
-1.51225
-1.50874
-1.50746
-1.50682
-1.5078
-1.51058
-1.51439
-1.5193
-1.52473
-1.52788
-1.6251
-1.61862
-1.61935
-1.62221
-1.62645
-1.63342
-1.64257
-1.65403
-1.667
-1.67725
-1.7222
-1.71377
-1.71478
-1.72064
-1.72973
-1.74194
-1.75703
-1.77544
-1.79655
-1.81438
-1.80039
-1.79001
-1.79136
-1.79925
-1.81163
-1.82814
-1.8488
-1.87396
-1.9031
-1.92884
-1.85912
-1.84718
-1.84864
-1.8565
-1.86902
-1.88661
-1.90962
-1.93772
-1.96978
-1.99767
-0.746503
-0.450042
-0.291028
-0.164374
-0.0928455
-0.0468836
-0.0204869
-0.00610073
0.00177116
0.00126692
-0.845762
-0.495966
-0.307035
-0.163391
-0.0860149
-0.0392407
-0.0139097
-0.00127919
0.00484122
0.00213992
-0.962758
-0.552013
-0.326411
-0.162739
-0.0785336
-0.0307635
-0.00659419
0.00414174
0.00833363
0.00313869
-1.0972
-0.618233
-0.348519
-0.161788
-0.0698633
-0.021042
0.00175017
0.0103812
0.0124065
0.00440312
-1.24691
-0.69512
-0.373275
-0.160151
-0.0595901
-0.00981497
0.0112736
0.0175216
0.0171372
0.00608402
-1.40838
-0.78494
-0.402526
-0.159074
-0.0484089
0.00240351
0.0215945
0.0252825
0.0223718
0.00819008
-1.57633
-0.890668
-0.440402
-0.161967
-0.0385827
0.0140622
0.0316687
0.0329651
0.0276756
0.0105463
-1.74173
-1.01043
-0.491664
-0.173441
-0.033532
0.0228391
0.0399667
0.0395547
0.0323736
0.0128246
-1.88502
-1.13395
-0.555807
-0.196012
-0.0361082
0.0262843
0.0446365
0.0437532
0.0355689
0.0145875
-1.97263
-1.24829
-0.624894
-0.226795
-0.0455918
0.0242075
0.0450386
0.0448089
0.0365737
0.0154198
-2.13821
-1.3291
-0.663349
-0.245892
-0.0547748
0.0182738
0.0411987
0.0422939
0.0349207
0.0150804
-2.18788
-1.335
-0.670733
-0.265924
-0.0814111
-0.00629832
0.0228499
0.0299625
0.0268369
0.0118875
-2.08092
-1.28555
-0.65882
-0.281083
-0.106243
-0.0313937
0.00290636
0.0162766
0.0178758
0.00821328
-1.83748
-1.18797
-0.655383
-0.317076
-0.144178
-0.0624077
-0.0193481
0.00224791
0.00972522
0.00559393
-1.61385
-1.1074
-0.658653
-0.358281
-0.18641
-0.095239
-0.0423459
-0.0122745
0.00231217
0.00369013
-1.41819
-1.02559
-0.660917
-0.403012
-0.232541
-0.129594
-0.0661922
-0.0284395
-0.00785375
-0.00148745
-1.26086
-0.970877
-0.680578
-0.455151
-0.282674
-0.165126
-0.0900032
-0.0442505
-0.017366
-0.00497745
-1.14504
-0.938103
-0.704319
-0.499445
-0.323497
-0.1927
-0.107088
-0.054554
-0.0226818
-0.006198
-1.07076
-0.925915
-0.7212
-0.524025
-0.345333
-0.206786
-0.116355
-0.0601541
-0.0252514
-0.00684938
-1.04232
-0.943977
-0.741993
-0.536764
-0.354552
-0.213982
-0.121525
-0.0632965
-0.0272489
-0.00776073
-1.77423
-1.85558
-1.91903
-1.97233
-2.01687
-2.06625
-2.11669
-2.17274
-2.21285
-2.27207
-1.63247
-1.72842
-1.80965
-1.88802
-1.95883
-2.04026
-2.12278
-2.20462
-2.26199
-2.32731
-1.48946
-1.58608
-1.67155
-1.75427
-1.83098
-1.91123
-1.99584
-2.08163
-2.14924
-2.22129
-1.34375
-1.43427
-1.51793
-1.59419
-1.66404
-1.73227
-1.79349
-1.85725
-1.90841
-1.96938
-1.2027
-1.2848
-1.3615
-1.43085
-1.49352
-1.54893
-1.5968
-1.64241
-1.67649
-1.71308
-1.07294
-1.14439
-1.21193
-1.27502
-1.33192
-1.3811
-1.42319
-1.45647
-1.48164
-1.49723
-0.955423
-1.01553
-1.07545
-1.13415
-1.18552
-1.23212
-1.26804
-1.29292
-1.31265
-1.32131
-0.856352
-0.905912
-0.96124
-1.01358
-1.06255
-1.10799
-1.13865
-1.16502
-1.18081
-1.18374
-0.798194
-0.841105
-0.893063
-0.938549
-0.984014
-1.02517
-1.0531
-1.07813
-1.08972
-1.08896
-0.778512
-0.828015
-0.874916
-0.922918
-0.971745
-1.01115
-1.04484
-1.06408
-1.07289
-1.06586
-0.311329
-0.375044
-0.435179
-0.488156
-0.536386
-0.581702
-0.624195
-0.662951
-0.695992
-0.7177
-0.533772
-0.597021
-0.653082
-0.703199
-0.750375
-0.795089
-0.836571
-0.874588
-0.908218
-0.93309
-0.773979
-0.834199
-0.88493
-0.929814
-0.972616
-1.01397
-1.05277
-1.08844
-1.12036
-1.14663
-0.983012
-1.04357
-1.09487
-1.13898
-1.17954
-1.21863
-1.25601
-1.29081
-1.3218
-1.34622
-1.15322
-1.21745
-1.27234
-1.3187
-1.35998
-1.39916
-1.43685
-1.4723
-1.50425
-1.52627
-1.30258
-1.36818
-1.42439
-1.47207
-1.51455
-1.55478
-1.59345
-1.62976
-1.66417
-1.68571
-1.44011
-1.50271
-1.55676
-1.60368
-1.64654
-1.68756
-1.7273
-1.76519
-1.7984
-1.82177
-1.56511
-1.62218
-1.67204
-1.71647
-1.75806
-1.7984
-1.83787
-1.87581
-1.90876
-1.93312
-1.67389
-1.72459
-1.76942
-1.81013
-1.84878
-1.8868
-1.92466
-1.96143
-1.99304
-2.01752
-1.76997
-1.81236
-1.84999
-1.88488
-1.91876
-1.9529
-1.9877
-2.02157
-2.05032
-2.07398
0.856072
0.845694
0.836287
0.827635
0.819659
0.812383
0.805929
0.800978
0.799847
0.808902
0.794258
0.781515
0.769872
0.759038
0.748904
0.739456
0.730845
0.723988
0.721321
0.728802
0.717917
0.702686
0.688538
0.675187
0.662521
0.650489
0.639273
0.630017
0.62527
0.63068
0.625943
0.607547
0.590445
0.574263
0.558829
0.544002
0.529949
0.518018
0.510882
0.513995
0.522707
0.501812
0.48154
0.461881
0.442884
0.424412
0.406679
0.391222
0.380858
0.381002
0.399514
0.374097
0.350121
0.32735
0.305458
0.284051
0.263299
0.24491
0.231662
0.228876
0.272413
0.245411
0.218216
0.190975
0.164194
0.137785
0.112001
0.0887533
0.0712116
0.0651724
0.126397
0.0931406
0.0603499
0.0291763
-0.000732589
-0.0301903
-0.0589632
-0.0852109
-0.106414
-0.116069
-0.0269811
-0.0602074
-0.0952982
-0.131452
-0.167237
-0.202668
-0.237233
-0.2686
-0.294097
-0.307134
-0.175509
-0.219249
-0.264493
-0.307467
-0.34827
-0.388096
-0.426667
-0.46191
-0.491213
-0.508282
1.21929
1.06552
1.14248
1.06457
1.04554
1.0252
1.00116
0.978051
0.970761
0.914971
1.21746
1.06352
1.13982
1.06049
1.0421
1.02021
0.995048
0.966216
0.953592
0.876256
1.21677
1.06152
1.13724
1.05555
1.03801
1.01505
0.988255
0.952049
0.932304
0.827417
1.21729
1.05945
1.13454
1.04965
1.03361
1.00979
0.980853
0.935863
0.907461
0.768744
1.21906
1.05726
1.1315
1.04293
1.0295
1.00438
0.972879
0.918118
0.87873
0.69911
1.22214
1.0548
1.12775
1.03655
1.02576
0.998373
0.964437
0.899154
0.84795
0.619965
1.2266
1.05183
1.1229
1.03151
1.02098
0.991138
0.95597
0.879922
0.8129
0.526762
1.23256
1.04807
1.11795
1.02627
1.01313
0.983312
0.947739
0.86021
0.776058
0.42392
1.23994
1.04384
1.11373
1.01884
1.00404
0.975979
0.939347
0.839299
0.73519
0.304536
1.24837
1.04036
1.10958
1.01074
0.995961
0.969465
0.930713
0.818305
0.68733
0.171332
1.25864
1.0396
1.10897
1.00744
0.987485
0.961367
0.921139
0.793808
0.652119
0.0714594
1.27158
1.04712
1.11807
1.01069
0.978443
0.948753
0.908955
0.771232
0.635011
0.0875298
1.28139
1.06029
1.13337
1.01685
0.969427
0.932507
0.889812
0.742448
0.605188
0.117853
1.28928
1.07464
1.14866
1.0225
0.960087
0.913367
0.866456
0.708624
0.569054
0.146661
1.29661
1.08484
1.15708
1.02427
0.950346
0.894623
0.839137
0.676698
0.533089
0.167896
1.30339
1.08821
1.15493
1.01974
0.941594
0.878687
0.812868
0.651642
0.495732
0.188385
1.3117
1.08349
1.14181
1.00852
0.933864
0.867115
0.791929
0.636044
0.461236
0.213998
1.32472
1.07938
1.12107
0.993543
0.927467
0.859614
0.775304
0.629045
0.433727
0.241204
1.34017
1.0798
1.10328
0.979854
0.92358
0.854212
0.762805
0.624994
0.41456
0.263681
1.38107
1.09167
1.09871
0.977705
0.926787
0.854071
0.761415
0.625424
0.414978
0.285073
-0.313071
-0.511539
-0.730759
-0.916751
-1.06444
-1.1993
-1.33232
-1.45987
-1.57483
-1.68116
-0.329717
-0.481542
-0.63995
-0.786761
-0.918337
-1.04617
-1.17429
-1.2994
-1.42046
-1.53197
-0.311715
-0.452001
-0.581199
-0.704835
-0.826532
-0.948474
-1.06835
-1.18478
-1.28777
-1.39135
-0.27046
-0.407268
-0.520179
-0.621918
-0.727356
-0.838868
-0.948968
-1.05355
-1.15258
-1.24985
-0.216242
-0.342624
-0.444559
-0.532399
-0.624668
-0.726684
-0.830196
-0.929792
-1.02444
-1.11587
-0.143785
-0.258129
-0.359045
-0.446137
-0.533942
-0.630687
-0.731146
-0.827633
-0.915662
-0.997209
-0.0618568
-0.167886
-0.2744
-0.369144
-0.456504
-0.547313
-0.643718
-0.738702
-0.822438
-0.892377
0.00624281
-0.0935999
-0.202183
-0.303214
-0.391568
-0.478831
-0.572202
-0.664748
-0.741805
-0.803267
0.0445295
-0.0530653
-0.158944
-0.260406
-0.353368
-0.446029
-0.540122
-0.627237
-0.697275
-0.750643
0.0610043
-0.0363138
-0.135894
-0.23299
-0.330833
-0.430583
-0.525185
-0.607852
-0.675266
-0.730483
-0.490206
-0.468671
-0.438865
-0.404834
-0.370645
-0.340194
-0.314293
-0.292543
-0.275708
-0.264118
-0.566694
-0.545098
-0.516277
-0.481407
-0.447317
-0.417206
-0.39136
-0.369808
-0.353531
-0.342987
-0.617605
-0.597054
-0.570442
-0.536624
-0.503413
-0.473529
-0.447703
-0.426943
-0.41125
-0.401142
-0.64423
-0.625583
-0.602651
-0.571936
-0.539089
-0.508672
-0.48288
-0.462941
-0.448241
-0.438716
-0.65003
-0.633888
-0.614754
-0.587591
-0.556329
-0.526223
-0.500255
-0.480035
-0.46558
-0.456295
-0.63948
-0.626135
-0.610151
-0.586197
-0.557104
-0.528013
-0.502117
-0.481164
-0.465944
-0.45629
-0.616979
-0.606256
-0.592435
-0.570986
-0.544094
-0.516453
-0.49124
-0.470149
-0.454177
-0.443914
-0.588114
-0.579418
-0.566874
-0.547429
-0.523018
-0.497681
-0.474353
-0.454617
-0.43941
-0.429757
-0.559436
-0.552034
-0.540181
-0.522418
-0.500715
-0.478355
-0.457774
-0.440316
-0.426924
-0.419449
-0.53776
-0.53112
-0.519907
-0.50388
-0.485213
-0.46648
-0.449613
-0.435822
-0.425814
-0.421438
-0.526594
-0.520899
-0.510566
-0.496467
-0.480874
-0.465519
-0.45161
-0.439945
-0.429804
-0.418331
-0.527142
-0.522255
-0.513017
-0.5011
-0.488742
-0.476885
-0.465978
-0.456508
-0.447703
-0.435589
-0.537323
-0.533528
-0.525117
-0.514829
-0.504971
-0.495756
-0.486876
-0.478511
-0.470082
-0.458305
-0.554812
-0.552699
-0.544946
-0.53524
-0.526665
-0.518892
-0.510616
-0.501895
-0.492597
-0.480434
-0.578269
-0.577997
-0.573284
-0.563331
-0.554574
-0.547142
-0.538204
-0.528025
-0.517061
-0.503774
-0.604797
-0.605678
-0.604302
-0.59956
-0.589331
-0.57974
-0.56948
-0.557846
-0.545616
-0.531063
-0.643464
-0.646398
-0.645669
-0.640981
-0.630566
-0.618928
-0.607343
-0.594974
-0.581415
-0.566073
-0.696861
-0.701272
-0.701114
-0.696162
-0.685824
-0.673095
-0.659833
-0.645937
-0.630899
-0.614296
-0.763053
-0.768002
-0.767265
-0.761578
-0.751601
-0.739159
-0.725482
-0.710846
-0.694991
-0.677532
-0.841965
-0.846868
-0.84563
-0.839562
-0.829862
-0.81797
-0.804642
-0.790139
-0.774306
-0.756704
-0.419375
-0.344279
-0.288882
-0.22177
-0.163828
-0.112193
-0.0723554
-0.0427841
-0.0216516
-0.00623604
-0.430504
-0.341831
-0.281493
-0.211365
-0.155308
-0.105819
-0.06797
-0.0402037
-0.0203037
-0.00601605
-0.439
-0.341063
-0.27604
-0.203613
-0.147448
-0.0992751
-0.0631162
-0.0369429
-0.0182122
-0.00529487
-0.448333
-0.342512
-0.271423
-0.196425
-0.139921
-0.0926723
-0.0580332
-0.0333462
-0.0157731
-0.00433202
-0.461658
-0.345115
-0.267219
-0.189222
-0.132515
-0.0860684
-0.0528531
-0.0296021
-0.013222
-0.00334799
-0.481162
-0.349009
-0.264154
-0.182497
-0.125394
-0.079611
-0.0477199
-0.0258683
-0.0107249
-0.00246074
-0.50897
-0.355518
-0.263203
-0.1767
-0.11861
-0.0733018
-0.0426401
-0.0221824
-0.00833409
-0.00169155
-0.547317
-0.367511
-0.265014
-0.172031
-0.112086
-0.0670217
-0.0374985
-0.0184613
-0.00598231
-0.000988259
-0.598391
-0.386571
-0.270092
-0.168515
-0.105707
-0.0606217
-0.0321642
-0.0145964
-0.003566
-0.00028389
-0.66437
-0.413813
-0.278711
-0.166023
-0.0993434
-0.053956
-0.0265286
-0.0105024
-0.00100364
0.000462853
-0.392664
-0.344217
-0.297105
-0.227401
-0.166554
-0.113592
-0.0730047
-0.0415751
-0.020019
-0.00575478
-0.384825
-0.338862
-0.295688
-0.227801
-0.167378
-0.114436
-0.0736697
-0.0421025
-0.0201066
-0.00562535
-0.384062
-0.335891
-0.292733
-0.227401
-0.167179
-0.114514
-0.073687
-0.0421588
-0.0201283
-0.00544953
-0.386964
-0.333659
-0.287208
-0.227039
-0.168361
-0.115489
-0.0744109
-0.0429649
-0.0208383
-0.00553342
-0.399726
-0.337209
-0.285329
-0.224838
-0.168412
-0.115745
-0.0747454
-0.0438179
-0.0218247
-0.00596105
-0.256385
-0.331175
-0.387785
-0.426848
-0.449198
-0.456476
-0.451965
-0.438784
-0.422196
-0.403699
-0.254353
-0.329911
-0.386415
-0.424986
-0.447113
-0.454581
-0.449814
-0.436106
-0.420318
-0.399943
-0.254661
-0.331123
-0.387894
-0.426217
-0.447473
-0.453448
-0.446473
-0.431946
-0.415957
-0.402677
-0.256292
-0.333988
-0.391243
-0.429216
-0.448941
-0.452174
-0.441888
-0.42609
-0.410712
-0.407701
-0.259275
-0.33833
-0.396141
-0.433635
-0.451505
-0.451681
-0.438534
-0.422328
-0.410279
-0.417108
0.774329
0.769644
0.763345
0.757655
0.752972
0.74887
0.745353
0.743002
0.743318
0.75114
0.830062
0.828265
0.823836
0.818882
0.814454
0.810607
0.807418
0.805347
0.806051
0.814754
0.872174
0.87022
0.86678
0.863284
0.860376
0.858023
0.856215
0.855192
0.856556
0.866075
0.90915
0.907731
0.905154
0.902525
0.900363
0.898668
0.897374
0.896482
0.897568
0.907264
0.936624
0.934917
0.932599
0.930437
0.928808
0.927721
0.927036
0.926464
0.927248
0.936047
0.954233
0.951979
0.949579
0.947543
0.946145
0.945443
0.94534
0.945347
0.945836
0.951322
0.960532
0.957262
0.954183
0.951582
0.949635
0.948399
0.947763
0.947356
0.948022
0.955456
0.954585
0.949915
0.945668
0.941953
0.938845
0.93638
0.934459
0.932912
0.933374
0.943786
0.935702
0.929352
0.923626
0.918504
0.913999
0.91015
0.906946
0.90453
0.904898
0.915658
0.903084
0.894825
0.887374
0.880609
0.874493
0.869067
0.864401
0.860922
0.860818
0.871005
-0.166426
-0.180165
-0.198683
-0.220752
-0.245541
-0.273996
-0.307168
-0.341224
-0.369957
-0.389685
-0.0527795
-0.0692418
-0.0890432
-0.111127
-0.135635
-0.163294
-0.193459
-0.223852
-0.251064
-0.2677
0.0667703
0.0474253
0.0267877
0.00576308
-0.0165181
-0.0413831
-0.0687568
-0.0965647
-0.121243
-0.132926
0.187043
0.165637
0.144687
0.124524
0.103927
0.0815706
0.0573937
0.0333089
0.0128673
0.00533697
0.299963
0.278208
0.258173
0.239762
0.221597
0.202534
0.182428
0.162719
0.146701
0.143233
0.400623
0.380647
0.363156
0.347551
0.332391
0.316775
0.300591
0.285089
0.273374
0.273764
0.490305
0.474407
0.460677
0.448048
0.435594
0.422984
0.410254
0.398503
0.390574
0.394109
0.573242
0.561384
0.550479
0.539908
0.529553
0.519372
0.509422
0.500759
0.49599
0.501895
0.654396
0.643828
0.633593
0.623991
0.614988
0.606405
0.598384
0.592034
0.589618
0.596847
0.732374
0.721633
0.710186
0.700151
0.691532
0.683916
0.677402
0.672848
0.671927
0.679455
1.29733
1.09179
1.15996
1.06155
1.05589
1.03452
1.00067
0.973762
0.93106
0.854706
1.28424
1.08773
1.16115
1.06542
1.05697
1.03763
1.00585
0.980717
0.947156
0.885129
1.27233
1.08417
1.16121
1.06836
1.05752
1.03985
1.01033
0.988167
0.964699
0.914953
1.26173
1.08118
1.16035
1.07063
1.05768
1.04125
1.01386
0.994106
0.97858
0.939996
1.2524
1.0785
1.15867
1.07203
1.05719
1.04162
1.01594
0.997957
0.988441
0.958799
1.24424
1.07603
1.15642
1.07259
1.05606
1.04099
1.01657
0.999963
0.994671
0.971102
1.23718
1.07375
1.15384
1.07248
1.05447
1.03947
1.01586
1.00018
0.997486
0.976313
1.23117
1.0716
1.15106
1.07171
1.05263
1.0371
1.01391
0.998338
0.996788
0.973928
1.22618
1.06953
1.14816
1.07018
1.05061
1.03386
1.01075
0.994122
0.99229
0.963307
1.22222
1.06751
1.14527
1.06781
1.04831
1.02983
1.00644
0.987365
0.983654
0.943847
1.40853
1.10365
1.13804
1.04167
1.04535
1.01796
0.979328
0.946431
0.886004
0.803668
1.37357
1.105
1.14281
1.04311
1.04709
1.02016
0.980667
0.947037
0.884693
0.797097
1.3519
1.10259
1.1471
1.04621
1.04843
1.02255
0.98314
0.950461
0.888292
0.79835
1.33069
1.09976
1.15244
1.05165
1.05118
1.02686
0.989182
0.957997
0.895176
0.804604
1.31234
1.09612
1.15683
1.05672
1.05388
1.03079
0.994693
0.963242
0.907542
0.811896
0.678074
0.627711
0.567884
0.49444
0.403896
0.296987
0.179552
0.0595394
-0.056275
-0.16411
0.67063
0.619843
0.561022
0.490424
0.404159
0.301042
0.185442
0.0651804
-0.0518307
-0.161143
0.676648
0.624296
0.563426
0.49259
0.407514
0.305954
0.191036
0.0701432
-0.0483356
-0.159564
0.691739
0.631972
0.566255
0.494035
0.409595
0.309523
0.195388
0.0739316
-0.0460706
-0.159352
0.721486
0.648029
0.572627
0.495403
0.4096
0.310495
0.197568
0.0760814
-0.0452366
-0.160537
)
;

boundaryField
{
    left
    {
        type            zeroGradient;
    }
    right
    {
        type            fixedValue;
        value           uniform 0;
    }
    down
    {
        type            zeroGradient;
    }
    up
    {
        type            zeroGradient;
    }
    cylinder
    {
        type            zeroGradient;
    }
    defaultFaces
    {
        type            empty;
    }
}


// ************************************************************************* //
