/*--------------------------------*- C++ -*----------------------------------*\
| =========                 |                                                 |
| \\      /  F ield         | OpenFOAM: The Open Source CFD Toolbox           |
|  \\    /   O peration     | Version:  2406                                  |
|   \\  /    A nd           | Website:  www.openfoam.com                      |
|    \\/     M anipulation  |                                                 |
\*---------------------------------------------------------------------------*/
FoamFile
{
    version     2.0;
    format      ascii;
    arch        "LSB;label=32;scalar=64";
    class       surfaceScalarField;
    location    "0.45";
    object      phi;
}
// * * * * * * * * * * * * * * * * * * * * * * * * * * * * * * * * * * * * * //

dimensions      [0 3 -1 0 0 0 0];

oriented        oriented;

internalField   nonuniform List<scalar> 
3485
(
0.00289479
0.00671678
-0.00961156
0.00803978
0.0101076
-0.0152526
0.0153242
0.00818537
-0.0154697
0.0251224
0.00265631
-0.0124546
0.0370696
-0.00373057
-0.00821658
0.0507256
-0.00943706
-0.0042189
0.0658173
-0.0142525
-0.000839237
0.0822978
-0.0185214
0.00204092
0.100011
-0.0227082
0.00499472
-0.0256225
0.00816798
0.117466
0.00289547
0.00382131
0.00825611
0.00474698
0.0165552
-0.000113675
0.0275967
-0.00838525
0.0405126
-0.0166464
0.0546437
-0.0235682
0.069607
-0.0292159
0.0852322
-0.0341466
0.101535
-0.0390109
-0.0429392
0.118852
0.00259692
0.00122439
0.00859922
-0.00125532
0.0184443
-0.00995876
0.0310236
-0.0209646
0.0452125
-0.0308354
0.0604054
-0.038761
0.0763062
-0.0451167
0.0927953
-0.0506357
0.109896
-0.0561115
-0.0608529
0.12781
0.00206405
-0.000839661
0.00919358
-0.00838484
0.0205668
-0.0213319
0.0342782
-0.034676
0.0492311
-0.0457883
0.0649248
-0.0544547
0.0811576
-0.0613495
0.097891
-0.0673691
0.11519
-0.0734106
-0.0788715
0.133209
0.00263186
-0.00347152
0.0111463
-0.0168992
0.0235045
-0.0336902
0.0377695
-0.048941
0.0529057
-0.0609244
0.0684805
-0.0700296
0.0843922
-0.0772611
0.100731
-0.0837082
0.117723
-0.090402
-0.0971889
0.13604
0.00357564
-0.00704716
0.0131763
-0.0264999
0.0260863
-0.0466003
0.0403084
-0.0631631
0.0548643
-0.0754803
0.0694394
-0.0846047
0.0840955
-0.0919172
0.0991249
-0.0987376
0.115019
-0.106296
-0.115126
0.132956
0.0043315
-0.0113787
0.0146859
-0.0368542
0.0277027
-0.0596171
0.0412699
-0.0767303
0.0545527
-0.0887631
0.0674786
-0.0975306
0.0803713
-0.10481
0.0938018
-0.112168
0.108543
-0.121037
-0.132334
0.125751
0.00495712
-0.0163358
0.0156091
-0.0475062
0.0280064
-0.0720144
0.0401122
-0.0888361
0.0514236
-0.100074
0.0622118
-0.108319
0.0730829
-0.115681
0.0848235
-0.123909
0.0982112
-0.134425
-0.14778
0.113658
0.00539031
-0.0217261
0.0156913
-0.0578072
0.0266278
-0.0829509
0.0365559
-0.0987642
0.0454599
-0.108979
0.0539544
-0.116813
0.0628447
-0.124571
0.0729606
-0.134025
0.0847462
-0.14621
-0.160738
0.0977037
0.005494
-0.0272201
0.0146683
-0.0669814
0.0233812
-0.0916638
0.0306428
-0.106026
0.0369269
-0.115263
0.0430567
-0.122943
0.0498766
-0.131391
0.0580477
-0.142196
0.0675139
-0.155677
0.0772312
-0.170455
-0.00170663
0.014477
-0.0127703
-0.0041449
0.0228943
-0.020456
-0.00663698
0.025113
-0.022621
-0.00903685
0.025525
-0.0231251
-0.0112474
0.0250255
-0.022815
-0.0132089
0.0238813
-0.0219199
-0.0149047
0.0222008
-0.020505
-0.0162979
0.0199494
-0.0185561
-0.0172805
0.0169685
-0.0159859
0.0130524
-0.017666
-0.0126669
-0.00157578
0.0160527
-0.00382847
0.025147
-0.00609303
0.0273776
-0.00828375
0.0277157
-0.0103302
0.027072
-0.0121638
0.0257149
-0.0137603
0.0237972
-0.0150856
0.0212747
-0.0160418
0.0179248
0.0134549
-0.0164444
-0.00132501
0.0173778
-0.00322269
0.0270447
-0.0050254
0.0291803
-0.00679653
0.0294868
-0.00848541
0.0287608
-0.00999528
0.0272248
-0.0113004
0.0251023
-0.0123772
0.0223515
-0.0131429
0.0186905
0.0137374
-0.0134253
-0.00101073
0.0183885
-0.0023954
0.0284293
-0.00340841
0.0301933
-0.00452409
0.0306025
-0.00569945
0.0299362
-0.00671849
0.0282439
-0.00754952
0.0259333
-0.00819311
0.0229951
-0.00858947
0.0190869
0.013737
-0.0085891
-0.00060966
0.0189981
-0.00123208
0.0290517
-0.0014291
0.0303903
-0.00172509
0.0308985
-0.00215766
0.0303688
-0.00246865
0.0285548
-0.00261038
0.026075
-0.00261326
0.022998
-0.00243044
0.018904
0.013136
-0.0018294
0.000377287
0.0186209
0.000724665
0.0287044
0.000823257
0.0302918
0.00112177
0.0306
0.00172014
0.0297704
0.00249116
0.0277838
0.00333827
0.0252279
0.00420996
0.0221263
0.00512772
0.0179863
0.0119252
0.00633848
0.00131388
0.017307
0.00286289
0.0271553
0.00391736
0.0292373
0.00532893
0.0291884
0.00723508
0.0278642
0.00931682
0.0257021
0.0114294
0.0231153
0.0135172
0.0200385
0.0155536
0.0159499
0.00963165
0.0178472
0.00211548
0.0151915
0.00504909
0.0242217
0.00792195
0.0263644
0.0111985
0.0259119
0.0149553
0.0241075
0.0189024
0.021755
0.0228473
0.0191704
0.0267101
0.0161757
0.030455
0.0122051
0.00573206
0.0343546
0.00272026
0.0124712
0.00687772
0.0200643
0.0116363
0.0216059
0.0172614
0.0202867
0.0237398
0.017629
0.0307102
0.0147846
0.0377728
0.0121078
0.0445911
0.00935731
0.0509094
0.00588677
0.000304997
0.0563365
0.00285968
0.00767133
0.0138075
0.0216396
0.0310521
0.0416178
0.0528864
0.0642846
0.0751661
0.0836391
0.0150759
-0.0969149
0.0641731
0.0701789
-0.263339
0.208236
0.106605
-0.243323
0.206897
0.131416
-0.209679
0.184867
0.14623
-0.168292
0.153479
0.154602
-0.130112
0.12174
0.158687
-0.097037
0.0929515
0.160054
-0.0684178
0.0670508
0.15977
-0.0448119
0.0450966
-0.0190129
0.020358
0.0116917
-0.125051
0.0633126
-0.31496
0.101762
-0.281771
0.128383
-0.2363
0.144738
-0.184648
0.154092
-0.139465
0.158829
-0.101774
0.160657
-0.0702458
0.160742
-0.0448977
-0.0178529
0.00822672
-0.146703
0.0545046
-0.361238
0.0950418
-0.322309
0.123696
-0.264953
0.141906
-0.202858
0.152524
-0.150084
0.158179
-0.107428
0.1607
-0.0727669
0.161394
-0.0455921
-0.0170568
0.00592063
-0.161213
0.0458508
-0.401168
0.0878475
-0.364305
0.118363
-0.295469
0.138371
-0.222866
0.150351
-0.162063
0.157085
-0.114162
0.160463
-0.0761457
0.161962
-0.0470907
-0.0167881
0.00686337
-0.169906
0.0411886
-0.435494
0.0832372
-0.406354
0.114556
-0.326788
0.135608
-0.243917
0.148593
-0.175049
0.156293
-0.121861
0.160535
-0.0803881
0.162946
-0.0495012
-0.0171823
0.0135298
-0.177097
0.044813
-0.466777
0.0855612
-0.447102
0.115833
-0.35706
0.136313
-0.264397
0.149229
-0.187965
0.157279
-0.129912
0.162092
-0.0852008
0.165349
-0.0527585
-0.0183248
0.0273302
-0.18658
0.0589458
-0.498392
0.0978245
-0.485981
0.125779
-0.385015
0.143985
-0.282603
0.155313
-0.199293
0.162599
-0.137197
0.167297
-0.0898994
0.17103
-0.0564909
-0.0202237
0.0481393
-0.200365
0.0813063
-0.531559
0.118514
-0.523188
0.144726
-0.411227
0.160489
-0.298366
0.169496
-0.2083
0.175135
-0.142837
0.178978
-0.0937422
0.182574
-0.0600869
-0.0228267
0.0724717
-0.2165
0.104976
-0.564063
0.141545
-0.559757
0.167973
-0.437655
0.183086
-0.31348
0.190883
-0.216097
0.195358
-0.147312
0.198423
-0.0968072
0.201769
-0.0634328
-0.0262345
0.0969805
-0.229841
0.123697
-0.59078
0.161415
-0.597476
0.189793
-0.466033
0.205678
-0.329365
0.213689
-0.224108
0.218239
-0.151862
0.221574
-0.100142
0.225471
-0.0673301
-0.0309011
0.393321
-0.411912
-0.211251
0.453531
-0.65099
0.475748
-0.619692
0.475265
-0.46555
0.4595
-0.3136
0.440805
-0.205413
0.424515
-0.135572
0.413064
-0.0886912
0.406172
-0.0604383
-0.028732
0.530161
-0.50465
-0.437423
0.545931
-0.666759
0.541859
-0.615621
0.52951
-0.4532
0.512174
-0.296264
0.493751
-0.186989
0.477519
-0.119339
0.465843
-0.0770157
0.458257
-0.0528519
-0.0257392
0.740505
-0.532722
-0.712432
0.698036
-0.624291
0.643193
-0.560778
0.598386
-0.408394
0.564319
-0.262196
0.538511
-0.161182
0.519372
-0.1002
0.50604
-0.0636836
0.497094
-0.0439066
-0.0222049
0.830124
-0.483985
-0.878861
0.752113
-0.54628
0.686212
-0.494877
0.63262
-0.354801
0.590435
-0.220012
0.560035
-0.130782
0.539019
-0.0791831
0.524818
-0.0494833
0.515463
-0.0345515
-0.0187497
0.888467
-0.423386
-0.949066
0.807636
-0.465449
0.726047
-0.413288
0.656955
-0.285709
0.60447
-0.167528
0.568682
-0.0949946
0.545288
-0.0557884
0.529708
-0.0339041
0.518992
-0.0238356
-0.0145743
0.898489
-0.355062
-0.966813
0.816598
-0.383558
0.729606
-0.326296
0.654933
-0.211036
0.599228
-0.111822
0.562308
-0.0580746
0.539205
-0.0326855
0.524454
-0.0191532
0.514973
-0.014354
-0.0105978
0.890073
-0.284887
-0.960249
0.796946
-0.290431
0.696597
-0.225947
0.617376
-0.131815
0.56449
-0.0589363
0.531888
-0.0254724
0.512205
-0.0130024
0.500099
-0.0070472
0.492046
-0.00630142
-0.00645413
0.823886
-0.198208
-0.910564
0.706186
-0.172731
0.594772
-0.114533
0.519841
-0.0568835
0.477712
-0.016808
0.454609
-0.0023692
0.44115
0.000456854
0.433117
0.000985144
0.427336
-0.000519665
-0.00277432
0.601689
-0.0897528
-0.710145
0.478467
-0.0495093
0.387163
-0.0232286
0.337958
-0.00767862
0.317772
0.00337825
0.309824
0.00557849
0.30595
0.00433127
0.303987
0.00294755
0.302052
0.00141595
-0.000461354
0.176581
-0.266333
0.127071
0.103843
0.096164
0.0995422
0.105121
0.109452
0.1124
0.113815
0.533105
0.0856213
-0.541495
0.518961
0.111848
0.499454
0.133165
0.468955
0.15625
0.431497
0.170414
0.383819
0.183718
0.333821
0.183206
0.283175
0.178456
0.236476
0.16555
0.142692
0.600654
0.0798887
-0.594921
0.605936
0.106565
0.61134
0.127761
0.612174
0.155415
0.607797
0.174791
0.595015
0.196501
0.569509
0.208712
0.536872
0.211093
0.485147
0.217275
0.190416
0.644515
0.0706141
-0.63524
0.657618
0.0934611
0.672213
0.113167
0.692194
0.135434
0.709463
0.157522
0.72884
0.177124
0.737464
0.200088
0.743749
0.204809
0.735223
0.225801
0.213206
0.670183
0.0602585
-0.659828
0.684503
0.0791413
0.70145
0.0962203
0.725003
0.11188
0.751577
0.130948
0.782857
0.145844
0.813439
0.169506
0.840104
0.178143
0.866776
0.199129
0.201121
0.687799
0.0501393
-0.67768
0.701679
0.0652615
0.719095
0.0788045
0.741481
0.0894946
0.768758
0.103671
0.800911
0.113691
0.837918
0.132499
0.874405
0.141656
0.913898
0.159636
0.165953
0.693163
0.0393853
-0.682409
0.707811
0.0506131
0.726842
0.059774
0.749114
0.0672223
0.776795
0.0759908
0.807483
0.0830029
0.843813
0.0961686
0.882036
0.103433
0.924564
0.117108
0.123704
0.680796
0.0273525
-0.668763
0.69769
0.0337191
0.718863
0.0386005
0.742621
0.0434646
0.771683
0.0469285
0.801856
0.0528303
0.837961
0.0600637
0.875229
0.0661652
0.917542
0.0747949
0.0809976
0.632743
0.0128545
-0.618245
0.652125
0.0143367
0.674271
0.0164546
0.700004
0.0177321
0.727827
0.019105
0.757808
0.0228492
0.792398
0.0254739
0.827954
0.0306094
0.868695
0.0340536
0.0391284
0.513175
0.000132278
-0.500453
0.527549
-3.71879e-05
0.543314
0.000689783
0.560804
0.00024151
0.578487
0.00142295
0.599335
0.00200087
0.621955
0.00285356
0.648234
0.00433092
0.676988
0.00529948
0.00597173
0.24356
-0.243427
0.243523
0.244212
0.244454
0.245877
0.247878
0.250731
0.255062
0.260362
0.0372828
0.11982
-0.104418
-0.0526844
0.0278423
0.109316
-0.0998752
0.0219166
0.102984
-0.0970585
0.0175031
0.0992797
-0.0948662
0.0136627
0.0967807
-0.0929403
0.0101552
0.0945176
-0.0910101
0.00689899
0.0917025
-0.0884463
0.0037886
0.0869844
-0.083874
0.00118393
0.0754075
-0.0728028
0.0424897
-0.0413057
0.0439463
0.136683
-0.0608093
0.0299155
0.123346
0.0202414
0.112658
0.0140148
0.105506
0.00980942
0.100986
0.00669208
0.0976349
0.00420209
0.0941925
0.00211751
0.0890689
0.000531745
0.0769933
0.0430214
0.0512087
0.152134
-0.0666602
0.0360708
0.138484
0.0240062
0.124723
0.0156812
0.113831
0.0101666
0.106501
0.00632946
0.101472
0.00347982
0.0970421
0.00139186
0.0911569
0.000119904
0.0782652
0.0431413
0.0517044
0.164403
-0.0639732
0.0389571
0.151232
0.027611
0.136069
0.0188492
0.122593
0.0125036
0.112846
0.00780033
0.106175
0.00415657
0.100686
0.00146111
0.0938524
-3.62882e-05
0.0797626
0.043105
0.0453409
0.173321
-0.0542588
0.0361463
0.160426
0.0274155
0.1448
0.0198841
0.130124
0.0137174
0.119013
0.00866458
0.111228
0.00450437
0.104846
0.00136583
0.0969909
-0.000259571
0.081388
0.0428455
0.0326534
0.179059
-0.0383917
0.0271182
0.165962
0.0216641
0.150254
0.016353
0.135436
0.0113549
0.124011
0.00682135
0.115762
0.0029349
0.108733
7.76218e-05
0.0998482
-0.00089857
0.0823642
0.0419469
0.0152667
0.181625
-0.0178322
0.013225
0.168003
0.0109948
0.152484
0.00821089
0.138219
0.00502752
0.127195
0.00184728
0.118942
-0.000860064
0.11144
-0.00240208
0.10139
-0.0019589
0.081921
0.039988
-0.00550624
0.180826
0.0063049
-0.0041923
0.166689
-0.00335683
0.151649
-0.00350348
0.138366
-0.00443893
0.12813
-0.00560266
0.120106
-0.00633564
0.112173
-0.00580461
0.100859
-0.00322457
0.079341
0.0367634
-0.0267228
0.177204
0.0303451
-0.0226346
0.162601
-0.019164
0.148178
-0.0168508
0.136053
-0.0154454
0.126725
-0.0142822
0.118942
-0.0125775
0.110468
-0.00940171
0.0976834
-0.0043776
0.0743169
0.0323858
-0.0479928
0.0547414
-0.0410684
-0.035086
-0.0304243
-0.0266428
-0.0229631
-0.0185207
-0.0125012
-0.00516574
0.0579899
0.0356025
-0.0660034
-0.027589
0.0502874
0.0348186
-0.027116
0.0428778
0.0340328
-0.0266232
0.0357172
0.0333812
-0.0262206
0.0287522
0.032915
-0.02595
0.0219444
0.0325269
-0.0257191
0.0153056
0.0318545
-0.0252157
0.00895814
0.0301366
-0.0237891
0.00334101
0.0258015
-0.0201844
0.0146023
-0.0112613
0.0591192
0.0437475
-0.0672641
0.0512818
0.0426559
0.0437439
0.0415706
0.0364603
0.0406648
0.0293742
0.0400011
0.0224423
0.0394589
0.0156722
0.0386246
0.00918238
0.0366264
0.00342086
0.031563
0.0180232
0.0597308
0.0519799
-0.0679632
0.0518444
0.0505424
0.0442598
0.0491551
0.0369222
0.0480024
0.0297696
0.0471537
0.0227603
0.0464683
0.0159064
0.0454785
0.00932761
0.0432051
0.00347337
0.0374172
0.0214965
0.0597612
0.0602243
-0.0680056
0.0517699
0.0585337
0.0441069
0.0568181
0.036725
0.0553844
0.0295633
0.0543154
0.0225715
0.05346
0.0157503
0.0522997
0.00920878
0.0497466
0.00340042
0.0432256
0.024897
0.0602525
0.0686664
-0.0686946
0.0522988
0.0664875
0.0446298
0.0644871
0.0371964
0.0628178
0.0299449
0.061567
0.0228502
0.0605547
0.0159418
0.0592082
0.00933584
0.0563525
0.00346264
0.0490988
0.0283596
0.0558194
0.0764559
-0.0636089
0.0481891
0.0741177
0.0409864
0.0716898
0.0340967
0.0697074
0.0274197
0.0682439
0.0208917
0.0670827
0.0145152
0.0655847
0.00840539
0.0624623
0.00302439
0.0544798
0.031384
0.0601504
0.0851693
-0.0688638
0.052075
0.0821931
0.0441849
0.07958
0.0365254
0.0773669
0.0291314
0.0756379
0.0220269
0.0741872
0.0152457
0.0723659
0.00886129
0.0688468
0.00324438
0.0600967
0.0346284
0.0463191
0.0920116
-0.0531614
0.0398276
0.0886846
0.0340275
0.0853801
0.0285496
0.0828448
0.0231246
0.0810628
0.0176635
0.0796484
0.0122279
0.0778015
0.00698974
0.0740849
0.00243068
0.0646558
0.037059
0.0537934
0.0997406
-0.0615224
0.0462044
0.0962737
0.0385641
0.0930204
0.0312569
0.090152
0.0244089
0.0879109
0.0180376
0.0860197
0.0121663
0.0836728
0.00685039
0.0794008
0.0024047
0.0691015
0.0394638
0.0371636
-0.0418411
0.0335622
0.029524
0.0248098
0.0197804
0.01479
0.0100165
0.00554335
0.001842
0.197158
0.106838
-0.106006
0.189948
0.225239
-0.21803
0.183836
0.190162
-0.184049
0.181004
0.14791
-0.145078
0.178683
0.135469
-0.133148
0.175387
0.138418
-0.135123
0.167492
0.155316
-0.14742
0.153944
0.186251
-0.172703
0.120393
0.241123
-0.207572
0.317868
-0.263479
0.196577
0.108252
0.188307
0.233509
0.181775
0.196694
0.178569
0.151115
0.176342
0.137696
0.173397
0.141364
0.166231
0.162482
0.152739
0.199743
0.120377
0.273485
0.370981
0.195822
0.110419
0.186138
0.243193
0.178823
0.204009
0.175061
0.154877
0.172759
0.139998
0.169915
0.144208
0.163342
0.169055
0.149673
0.213412
0.11904
0.304118
0.422058
0.194958
0.113451
0.183457
0.254694
0.174892
0.212574
0.170638
0.159131
0.168275
0.14236
0.165209
0.147275
0.158887
0.175377
0.144888
0.227411
0.11629
0.332716
0.470343
0.194084
0.117356
0.180291
0.268487
0.17004
0.222825
0.165794
0.163377
0.163378
0.144776
0.159557
0.151096
0.152918
0.182016
0.138489
0.24184
0.114095
0.35711
0.515743
0.193284
0.122062
0.176866
0.284905
0.164897
0.234794
0.161323
0.166951
0.158447
0.147652
0.153285
0.156258
0.145846
0.189455
0.130659
0.257028
0.106021
0.381747
0.558155
0.192582
0.12747
0.173993
0.303494
0.161274
0.247513
0.157962
0.170263
0.153649
0.151965
0.146952
0.162955
0.138645
0.197762
0.12245
0.273223
0.106941
0.397256
0.596233
0.192287
0.133172
0.17274
0.323042
0.160231
0.260022
0.155839
0.174655
0.150186
0.157619
0.142243
0.170897
0.132045
0.20796
0.114678
0.29059
0.0948298
0.417104
0.637901
0.192645
0.138517
0.173743
0.341944
0.162617
0.271147
0.158074
0.179198
0.15268
0.163012
0.143449
0.180129
0.131593
0.219816
0.111371
0.310812
0.0948583
0.433617
0.671237
0.19421
0.142296
0.178127
0.358028
0.170544
0.27873
0.166974
0.182768
0.1607
0.169286
0.148828
0.192001
0.132328
0.236316
0.109043
0.334096
0.0914292
0.451231
0.720825
0.318399
0.125908
0.326998
0.349429
0.334767
0.270961
0.339714
0.177821
0.345049
0.163951
0.344913
0.192137
0.349459
0.23177
0.351364
0.332191
0.36771
0.434885
0.652295
0.43624
0.328903
0.0990155
0.363769
0.314562
0.385333
0.249397
0.395344
0.16781
0.403781
0.155514
0.412451
0.183467
0.417562
0.226659
0.436909
0.312843
0.452405
0.419389
0.591755
0.512946
0.334325
0.0667007
0.392119
0.256768
0.427153
0.214363
0.443377
0.151585
0.456205
0.142686
0.472925
0.166748
0.481363
0.218221
0.518006
0.2762
0.546012
0.391383
0.540351
0.597416
0.334871
0.0338396
0.406754
0.184886
0.452442
0.168675
0.474095
0.129932
0.490608
0.126173
0.513651
0.143705
0.528016
0.203857
0.572427
0.231789
0.621402
0.342408
0.49114
0.670614
0.332568
0.00328158
0.410299
0.107155
0.463848
0.115126
0.489626
0.104154
0.509364
0.106435
0.535396
0.117672
0.557073
0.18218
0.602954
0.185908
0.664887
0.280475
0.437526
0.718501
0.329878
-0.0245859
0.406827
0.0302066
0.463794
0.0581589
0.491967
0.0759806
0.514525
0.083877
0.540529
0.0916687
0.571934
0.150775
0.615488
0.142354
0.677993
0.21797
0.370424
0.745095
0.326879
-0.0494542
0.39464
-0.0375552
0.447958
0.00484116
0.476289
0.0476495
0.501626
0.0585399
0.527428
0.0658669
0.567154
0.111049
0.606707
0.102801
0.666505
0.158173
0.280843
0.756085
0.319904
-0.0673477
0.363773
-0.0814242
0.40086
-0.0322459
0.42463
0.0238794
0.450654
0.0325154
0.476012
0.0405089
0.520934
0.066127
0.558828
0.0649061
0.617385
0.0996156
0.17395
0.724279
0.300516
-0.0658536
0.295056
-0.0759646
0.297157
-0.0343462
0.312417
0.0086189
0.33405
0.0108825
0.35825
0.0163087
0.399503
0.0248743
0.437094
0.0273154
0.496274
0.0404349
0.0695276
0.600696
0.236157
0.160192
0.125846
0.134465
0.145347
0.161656
0.18653
0.213846
0.254281
0.323808
0.475577
-0.0920214
0.503945
-0.0891774
0.5232
-0.0859149
0.536317
-0.0770904
0.544816
-0.0627583
0.54975
-0.0433258
0.551823
-0.0199053
0.551022
0.00710621
0.5479
0.0334674
0.0611461
0.533773
-0.112848
0.548967
-0.104371
0.557662
-0.0946106
0.562808
-0.0822365
0.566956
-0.0669063
0.571605
-0.0479749
0.577319
-0.0256191
0.584196
0.000229852
0.589724
0.0279394
0.0559488
0.601559
-0.116992
0.606729
-0.109541
0.609206
-0.0970883
0.609792
-0.0828218
0.61002
-0.0671344
0.611482
-0.0494367
0.614814
-0.0289519
0.619805
-0.00476106
0.626661
0.021084
0.0473694
0.662984
-0.109362
0.656269
-0.102825
0.650468
-0.0912877
0.645328
-0.0776818
0.641294
-0.0631006
0.639468
-0.0476103
0.640353
-0.0298373
0.644411
-0.00881898
0.650793
0.0147018
0.038335
0.704213
-0.0950745
0.691189
-0.0898008
0.680672
-0.0807709
0.672471
-0.0694806
0.666443
-0.0570723
0.66302
-0.0441879
0.662441
-0.0292584
0.665105
-0.0114829
0.66998
0.0098266
0.0306351
0.728985
-0.0789648
0.712835
-0.0736512
0.699493
-0.0674287
0.688705
-0.0586921
0.68045
-0.0488182
0.674952
-0.0386896
0.672176
-0.0264819
0.672324
-0.0116308
0.675461
0.00668885
0.0236876
0.734328
-0.0572074
0.714651
-0.0539737
0.697508
-0.050286
0.683417
-0.044601
0.672537
-0.0379382
0.664859
-0.0310118
0.660112
-0.0217351
0.658726
-0.0102444
0.661168
0.00424637
0.0160925
0.699657
-0.0325849
0.677215
-0.0315319
0.656475
-0.0295461
0.639158
-0.0272835
0.625962
-0.0247429
0.615983
-0.0210321
0.609105
-0.0148571
0.606364
-0.00750337
0.609374
0.00123637
0.00722137
0.578164
-0.0100525
0.556571
-0.00993933
0.5375
-0.0104745
0.521895
-0.011679
0.509183
-0.0120303
0.498542
-0.0103909
0.491277
-0.00759283
0.488675
-0.00490075
0.492281
-0.00237011
-0.000950276
0.313756
0.303816
0.293342
0.281663
0.269632
0.259241
0.251649
0.246748
0.244378
0.00351175
0.0321956
-0.0357074
0.00658384
0.074275
-0.0773471
0.00702999
0.0978061
-0.0982522
0.00622067
0.108237
-0.107427
0.0057379
0.11125
-0.110767
0.00414069
0.112499
-0.110901
0.00155819
0.111033
-0.10845
-0.000486786
0.105915
-0.10387
-0.00110271
0.0972707
-0.0966548
0.0844115
-0.000199045
-0.0853152
0.00463771
0.0275579
0.0106112
0.0683015
0.0145151
0.0939023
0.0163464
0.106405
0.017137
0.110459
0.0174742
0.112161
0.0168367
0.11167
0.015572
0.107179
0.0144375
0.0984052
0.0852634
0.0135856
0.00517092
0.022387
0.0133946
0.0600778
0.0204012
0.0868956
0.0250192
0.101787
0.0275866
0.107892
0.029514
0.110234
0.0307435
0.110441
0.0307639
0.107159
0.0296998
0.0994693
0.0873664
0.0275969
0.00506564
0.0173213
0.0144936
0.0506498
0.0239542
0.0774351
0.0313512
0.0943903
0.0363983
0.102845
0.0401764
0.106456
0.0432846
0.107332
0.0451692
0.105274
0.045271
0.0993676
0.0894286
0.0432088
0.00444831
0.012873
0.0139019
0.0411962
0.0247533
0.0665837
0.0345104
0.0846332
0.0422431
0.0951121
0.0483908
0.100308
0.0535834
0.10214
0.0577002
0.101158
0.0600445
0.0970233
0.0896218
0.0598513
0.00351596
0.00935706
0.0119859
0.0327263
0.0229955
0.0555741
0.0342414
0.0733873
0.0443482
0.0850053
0.0530762
0.0915803
0.060694
0.094522
0.0672744
0.0945771
0.0723885
0.0919092
0.086671
0.0753392
0.00241859
0.00693847
0.00920401
0.0259409
0.0192091
0.045569
0.0307073
0.0618891
0.0422415
0.0734711
0.0530979
0.0807239
0.0630966
0.0845233
0.072165
0.0855087
0.0800337
0.0840406
0.0804117
0.086293
0.00138782
0.00555064
0.0063324
0.0209963
0.0147091
0.0371923
0.0254556
0.0511425
0.0373226
0.0616041
0.0494294
0.068617
0.06129
0.0726627
0.0725804
0.0742183
0.0829152
0.0737058
0.0714044
0.0919225
0.000579304
0.00497134
0.00393431
0.0176413
0.0105844
0.0305422
0.0199909
0.041736
0.0312076
0.0503875
0.0433988
0.0564258
0.05595
0.0601115
0.0683564
0.0618119
0.0801554
0.0619069
0.06045
0.0911097
0.000123512
0.00484783
0.00241521
0.0153496
0.00766592
0.0252915
0.0156788
0.0337231
0.0258189
0.0402474
0.0374467
0.044798
0.0500421
0.0475161
0.0631424
0.0487116
0.0762689
0.0487804
0.048204
0.088515
-8.77027e-05
0.00493553
0.0015104
0.0137515
0.00555947
0.0212424
0.0120031
0.0272795
0.0204058
0.0318447
0.030265
0.0349388
0.04109
0.0366911
0.0523402
0.0374614
0.0632691
0.0378514
0.0390007
0.0724725
-0.000108839
0.00504437
0.00107391
0.0125687
0.00415427
0.0181621
0.00908338
0.0223504
0.0155124
0.0254156
0.0230153
0.0274359
0.0311367
0.0285697
0.0393965
0.0292016
0.0473617
0.0298862
0.0313165
0.0550458
-0.000138385
0.00518275
0.000642652
0.0117877
0.00282689
0.0159778
0.00636108
0.0188162
0.0108966
0.0208801
0.016071
0.0222616
0.0215718
0.0230689
0.0271605
0.0236129
0.0327748
0.024272
0.0253706
0.0387207
-0.000251436
0.00543419
4.43921e-05
0.0114919
0.00128033
0.0147419
0.00352417
0.0165724
0.00634957
0.0180547
0.00953071
0.0190805
0.0129819
0.0196177
0.0166801
0.0199147
0.0207103
0.0202417
0.0207671
0.0253138
-0.00032822
0.00576241
-0.000449476
0.0116131
-0.000132704
0.0144251
0.000677592
0.0157621
0.00183097
0.0169013
0.00338665
0.0175248
0.00537451
0.0176298
0.00777006
0.0175191
0.0106359
0.0173759
0.0172584
0.0141445
-0.000891424
0.00665383
-0.00184534
0.012567
-0.0023992
0.014979
-0.0025999
0.0159628
-0.00249164
0.016793
-0.00199962
0.0170328
-0.00109444
0.0167246
0.000235392
0.0161893
0.00207451
0.0155368
0.0147784
0.00455457
-0.00132184
0.00797567
-0.00274633
0.0139915
-0.00381952
0.0160522
-0.0047391
0.0168823
-0.00536307
0.017417
-0.00576026
0.01743
-0.00588129
0.0168456
-0.00558593
0.0158939
-0.00475912
0.01471
0.0132805
-0.00326128
-0.00146906
0.00944473
-0.00330173
0.0158242
-0.00509629
0.0178467
-0.00678428
0.0185703
-0.00813692
0.0187696
-0.00917896
0.018472
-0.00995945
0.0176261
-0.0103941
0.0163286
-0.0103408
0.0146567
0.0125858
-0.00964607
-0.00161597
0.0110607
-0.0038241
0.0180323
-0.0060988
0.0201214
-0.00826173
0.0207333
-0.0101454
0.0206533
-0.0117145
0.0200411
-0.0129987
0.0189103
-0.0139528
0.0172827
-0.0144473
0.0151512
0.0124522
-0.0143136
-0.00170963
-0.00413331
-0.00663285
-0.00902468
-0.0111864
-0.0130651
-0.0146597
-0.0159332
-0.0167679
-0.0169827
0.0686189
0.159245
-0.155391
0.0704164
0.122212
-0.124009
0.0810984
0.0336902
-0.0443722
0.0924192
-0.0184075
0.00708669
0.103474
-0.0416676
0.0306128
0.113894
-0.0459044
0.0354845
0.123473
-0.0415373
0.0319583
0.13173
-0.0341783
0.0259216
0.13889
-0.0243663
0.0172058
-0.0126445
0.00762805
0.0595148
0.154776
0.0681787
0.113548
0.0834891
0.0183798
0.0969258
-0.0318442
0.10849
-0.0532316
0.118539
-0.0559538
0.127408
-0.0504067
0.134818
-0.0415882
0.141029
-0.0305765
-0.0166784
0.051203
0.142293
0.0671093
0.0976415
0.0863795
-0.000890425
0.10141
-0.0468745
0.113444
-0.0652657
0.123128
-0.0656377
0.131222
-0.0585007
0.137687
-0.0480537
0.142892
-0.0357807
-0.0197932
0.0441705
0.123437
0.0676607
0.0741513
0.0904156
-0.0236453
0.106669
-0.0631281
0.118944
-0.0775407
0.12815
-0.0748437
0.135348
-0.0656982
0.140735
-0.0534414
0.144848
-0.0398933
-0.022019
0.0380084
0.0995728
0.0695537
0.042606
0.0953213
-0.0494128
0.112726
-0.0805325
0.125072
-0.0898868
0.133703
-0.0834753
0.139909
-0.071904
0.144136
-0.0576679
0.147082
-0.0428398
-0.0233614
0.0325834
0.071544
0.0722614
0.00292793
0.100481
-0.0776325
0.118999
-0.0990506
0.131312
-0.1022
0.139376
-0.0915393
0.144625
-0.0771531
0.147755
-0.0607975
0.149577
-0.0446624
-0.0238634
0.027986
0.0402967
0.0749636
-0.0440496
0.104981
-0.107649
0.124627
-0.118697
0.136928
-0.114501
0.144555
-0.0991667
0.149021
-0.0816193
0.151257
-0.0630329
0.152137
-0.0455426
-0.0236407
0.024275
0.00637561
0.0765751
-0.0963497
0.108141
-0.139215
0.128963
-0.139519
0.141413
-0.126951
0.148818
-0.106572
0.152747
-0.0855486
0.154351
-0.0646367
0.154539
-0.0457301
-0.0228593
0.0211088
-0.0290469
0.076582
-0.151823
0.109624
-0.172257
0.131661
-0.161556
0.144532
-0.139822
0.151964
-0.114004
0.155639
-0.0892236
0.156885
-0.065883
0.156647
-0.0454918
-0.0217027
0.0181435
0.0745571
0.109197
0.132508
0.146165
0.153901
0.157629
0.158797
0.158402
0.0298939
0.0227282
-0.052622
0.0201312
0.00976265
0.0174442
0.00268699
0.0188568
-0.00141255
0.0219357
-0.00307892
0.0251932
-0.00325746
0.0278645
-0.00267136
0.030203
-0.0023385
0.0312842
-0.00108117
-9.18966e-05
0.0953363
0.0632895
-0.135898
0.0687446
0.0363543
0.0600422
0.0113894
0.0613476
-0.00271802
0.0665512
-0.00828251
0.0725591
-0.00926538
0.0777672
-0.00787942
0.0820774
-0.00664867
0.0843562
-0.00336003
-0.000735707
0.131922
0.0997573
-0.16839
0.100212
0.0680646
0.0886829
0.0229187
0.0895875
-0.0036227
0.0957538
-0.0144488
0.103339
-0.016851
0.110277
-0.0148169
0.115849
-0.0122203
0.119372
-0.00688299
-0.00228842
0.141275
0.129364
-0.170882
0.111113
0.0982268
0.0991033
0.0349287
0.100362
-0.00488102
0.107995
-0.0220821
0.116938
-0.0257946
0.125193
-0.0230715
0.131796
-0.018823
0.136636
-0.0117229
-0.00479421
0.136435
-0.162462
0.110652
0.101209
0.103414
0.111945
0.121635
0.130522
0.13762
0.143103
0.00596912
0.000176506
-0.00614563
0.00653937
-0.000570251
0.00775762
-0.00121825
0.00962493
-0.00186731
0.0123524
-0.00272747
0.0165015
-0.00414907
0.0227798
-0.00627835
0.0314606
-0.00868081
0.0424925
-0.0110318
-0.0101296
0.0156968
0.000472018
-0.0159923
0.0173442
-0.0022176
0.0208614
-0.00473548
0.0265314
-0.00753732
0.0350476
-0.0112437
0.0474173
-0.0165187
0.0642464
-0.0231075
0.085235
-0.0296694
0.110209
-0.036006
-0.035818
0.0238376
0.0006914
-0.0240569
0.0265584
-0.00493846
0.0322532
-0.0104303
0.0414383
-0.0167224
0.0548053
-0.0246107
0.0727493
-0.0344627
0.0944159
-0.044774
0.118881
-0.0541344
0.144007
-0.0611318
-0.0602016
0.0307324
0.000654645
-0.0306956
0.0345257
-0.00873181
0.0422301
-0.0181346
0.0543778
-0.0288701
0.0711261
-0.041359
0.0915413
-0.0548779
0.113454
-0.0666867
0.134997
-0.0756777
0.153686
-0.0798205
-0.0773977
0.036596
-0.0361404
0.0414498
0.050912
0.0652507
0.083743
0.104204
0.123811
0.140055
0.151345
0.0464006
-0.0383692
0.0466005
-0.0546319
0.0392034
-0.0363392
0.0435365
0.0330938
-0.0346556
0.0407652
0.0276333
-0.0331344
0.0385948
0.0224287
-0.0317413
0.0369459
0.0172363
-0.0303404
0.0355328
0.0119946
-0.0285908
0.0338324
0.006863
-0.0258531
0.0309847
0.00239532
-0.0209425
0.0254102
-0.011044
0.0134393
0.050108
-0.031333
-0.0571442
0.0434802
-0.0297115
0.0369835
-0.0281589
0.0306374
-0.0267883
0.0244612
-0.0255651
0.0184588
-0.0243379
0.012661
-0.0227929
0.00721084
-0.0204029
0.00256411
-0.0162958
-0.00847992
0.0496814
-0.0241804
-0.0568341
0.042705
-0.022735
0.0360237
-0.0214776
0.0296367
-0.0204014
0.0235211
-0.0194495
0.017651
-0.0184679
0.0120425
-0.0171843
0.00682471
-0.0151852
0.0024173
-0.0118884
-0.00606262
0.049527
-0.0170237
-0.0566836
0.0426679
-0.015876
0.0360791
-0.0148888
0.0297329
-0.0140551
0.0235987
-0.0133152
0.0176725
-0.0125418
0.0120123
-0.0115241
0.00679258
-0.00996544
0.00243027
-0.00752605
-0.00363235
0.0497296
-0.00988881
-0.0568645
0.0428429
-0.00898926
0.0361911
-0.00823698
0.0297429
-0.00760693
0.02347
-0.00704233
0.0173817
-0.00645348
0.0115821
-0.00572452
0.00634602
-0.00472935
0.00217924
-0.00335927
-0.00145311
0.0502067
-0.00270205
-0.0573934
0.0432611
-0.00204363
0.0365225
-0.00149845
0.0299456
-0.00103001
0.0234913
-0.00058804
0.0171715
-0.000133698
0.0111216
0.000325425
0.00572432
0.000667905
0.00169875
0.000666298
0.000245636
0.0513395
0.00460511
-0.0586467
0.0442841
0.00501173
0.0374501
0.0053356
0.0307919
0.00562818
0.0242723
0.00593154
0.0179032
0.00623546
0.0118146
0.00641404
0.00633409
0.00614836
0.00205691
0.00494349
0.00230254
0.0529185
0.0120788
-0.0603922
0.0457225
0.0122077
0.0387815
0.0122766
0.0320548
0.0123548
0.0255084
0.012478
0.0191468
0.012597
0.0130544
0.0125065
0.00743865
0.0117641
0.00271817
0.00966397
0.00502071
0.0547115
0.0197385
-0.0623712
0.047348
0.0195712
0.0402602
0.0193645
0.0334081
0.0192069
0.0267518
0.0191343
0.0202771
0.0190717
0.0140264
0.0187572
0.00814393
0.0176465
0.00302815
0.0147798
0.00804885
0.0564986
-0.0643491
0.0489537