/*--------------------------------*- C++ -*----------------------------------*\
| =========                 |                                                 |
| \\      /  F ield         | OpenFOAM: The Open Source CFD Toolbox           |
|  \\    /   O peration     | Version:  2406                                  |
|   \\  /    A nd           | Website:  www.openfoam.com                      |
|    \\/     M anipulation  |                                                 |
\*---------------------------------------------------------------------------*/
FoamFile
{
    version     2.0;
    format      ascii;
    arch        "LSB;label=32;scalar=64";
    class       volVectorField;
    location    "0.45";
    object      U;
}
// * * * * * * * * * * * * * * * * * * * * * * * * * * * * * * * * * * * * * //

dimensions      [0 1 -1 0 0 0 0];

internalField   nonuniform List<vector> 
1800
(
(-0.067579 0.078354 0)
(-0.0978338 0.129738 2.54686e-20)
(-0.068479 0.149238 7.97935e-20)
(0.00213665 0.149078 -5.0263e-20)
(0.0888917 0.144956 -1.40981e-19)
(0.175664 0.148454 -3.92343e-20)
(0.257804 0.161561 1.01556e-19)
(0.336565 0.181819 4.83151e-19)
(0.416428 0.207078 0)
(0.476018 0.240821 1.36698e-19)
(-0.0444862 0.0501162 -3.29276e-20)
(-0.0561417 0.0803951 -7.50948e-20)
(-0.00125807 0.0857117 -1.83135e-20)
(0.101033 0.0752088 -1.12089e-19)
(0.212354 0.0658974 5.58152e-20)
(0.315861 0.0667541 2.81411e-19)
(0.409383 0.0766422 -7.72607e-20)
(0.497053 0.0913055 -6.19781e-19)
(0.583965 0.106252 2.58011e-19)
(0.651615 0.125438 1.99861e-19)
(-0.0205362 0.0240925 9.74764e-21)
(-0.00540768 0.0357752 -6.17446e-20)
(0.0887369 0.0292146 -4.71225e-20)
(0.224762 0.0145642 -1.19572e-20)
(0.357795 0.00808608 -7.54114e-21)
(0.474229 0.0145511 -1.03829e-19)
(0.575281 0.0308281 -1.2472e-20)
(0.667529 0.0520915 4.99995e-19)
(0.759558 0.0742907 -4.19781e-19)
(0.837683 0.0887349 -9.82764e-19)
(0.000739258 0.00322819 2.33615e-20)
(0.0608304 -0.00543985 6.14971e-20)
(0.207847 -0.0218455 -2.42309e-20)
(0.376477 -0.0358221 3.92463e-22)
(0.527643 -0.0369526 -2.4028e-20)
(0.654425 -0.0248019 3.12317e-20)
(0.761968 -0.00376764 1.35511e-19)
(0.859312 0.0213643 1.08913e-19)
(0.956605 0.0470133 5.62902e-21)
(1.03836 0.0626571 -1.98499e-19)
(0.0230662 -0.00452772 -2.91969e-20)
(0.152814 -0.0359315 3.276e-20)
(0.351122 -0.0551258 2.66001e-20)
(0.546291 -0.0631098 -2.66643e-20)
(0.709741 -0.0568534 -2.7796e-21)
(0.841695 -0.0385632 -7.34028e-21)
(0.951347 -0.013129 -2.29441e-20)
(1.05018 0.0150048 -6.56334e-20)
(1.1501 0.0431328 2.08847e-19)
(1.24229 0.0581958 2.00543e-19)
(0.0627544 -0.01336 5.1417e-22)
(0.26668 -0.055325 1.84317e-19)
(0.509267 -0.0694159 5.65348e-20)
(0.724076 -0.0681896 -7.12851e-20)
(0.893251 -0.0541776 4.42336e-20)
(1.02462 -0.0311963 -2.13096e-21)
(1.13223 -0.00395655 7.7216e-22)
(1.23075 0.0239338 -2.9919e-20)
(1.33432 0.0504417 9.78987e-20)
(1.44316 0.0634746 1.09114e-19)
(0.112681 -0.0197424 -1.6031e-20)
(0.393719 -0.061317 -2.22662e-19)
(0.674119 -0.0638421 1.03028e-20)
(0.899168 -0.0510342 2.1905e-19)
(1.06521 -0.0295207 -5.36013e-21)
(1.18956 -0.00336642 -8.53554e-20)
(1.29183 0.0239083 -4.46276e-20)
(1.39026 0.0501573 5.7579e-20)
(1.50204 0.0742232 2.43019e-20)
(1.63916 0.089082 -1.16749e-20)
(0.171923 -0.0203485 2.44579e-20)
(0.529345 -0.0503608 7.54217e-20)
(0.83672 -0.0370642 -6.2396e-20)
(1.06013 -0.0134869 4.84466e-20)
(1.21462 0.012746 -5.7826e-21)
(1.32811 0.0392003 -3.24839e-19)
(1.42553 0.0645245 1.21445e-20)
(1.52837 0.0885574 1.69103e-19)
(1.65581 0.111299 -1.18714e-19)
(1.82072 0.13004 -1.47577e-19)
(0.238324 -0.0128645 9.96851e-20)
(0.664534 -0.0205774 1.08613e-19)
(0.984129 0.0094197 -2.63434e-19)
(1.19471 0.0402255 -7.44926e-20)
(1.3328 0.0673456 -9.36628e-21)
(1.43593 0.0916797 1.21146e-19)
(1.53258 0.114607 -2.10628e-19)
(1.64568 0.137886 -1.20601e-19)
(1.79215 0.162441 2.97775e-19)
(1.97487 0.188288 8.90737e-20)
(0.307713 0.00420551 6.18713e-20)
(0.787903 0.0269126 2.4929e-19)
(1.10426 0.0709348 -2.4817e-19)
(1.29476 0.103914 -8.49774e-20)
(1.41656 0.128363 6.80031e-20)
(1.51335 0.149122 -1.08827e-19)
(1.61462 0.169894 1.55213e-19)
(1.74214 0.193754 3.8474e-20)
(1.90512 0.221672 -1.35759e-19)
(2.09199 0.252944 -6.24562e-20)
(-0.0127905 0.170073 -3.2238e-20)
(-0.0278321 0.27038 1.32581e-19)
(-0.0430238 0.297344 8.06813e-20)
(-0.0557037 0.302519 -1.02529e-19)
(-0.0667364 0.296901 -3.42844e-21)
(-0.0754455 0.283699 4.70512e-20)
(-0.0819069 0.263999 3.51339e-20)
(-0.0864014 0.23746 -7.65621e-20)
(-0.0886941 0.202529 3.66741e-22)
(-0.0869486 0.157271 2.07855e-20)
(-0.0278927 0.18925 4.67096e-20)
(-0.0512684 0.297107 -1.13427e-22)
(-0.0673014 0.323396 1.61371e-20)
(-0.0790141 0.326672 -1.39334e-19)
(-0.088495 0.318199 -1.516e-19)
(-0.0952274 0.301525 -6.48933e-20)
(-0.0993128 0.27827 9.72538e-20)
(-0.101043 0.247874 0)
(-0.100028 0.207964 -1.70015e-20)
(-0.0939452 0.155884 6.47303e-20)
(-0.0451661 0.204666 -5.51207e-23)
(-0.0772481 0.318355 -1.8071e-19)
(-0.0927571 0.343618 -1.30394e-19)
(-0.102251 0.345605 1.12129e-19)
(-0.108933 0.335325 -5.88677e-20)
(-0.112462 0.316095 -5.15748e-20)
(-0.112953 0.290125 -5.02071e-20)
(-0.110718 0.256779 -2.67197e-20)
(-0.10514 0.212969 -1.01539e-19)
(-0.0933464 0.155324 -1.82476e-19)
(-0.0638298 0.215064 3.71323e-20)
(-0.104982 0.332452 9.64611e-21)
(-0.117575 0.35594 1.23375e-20)
(-0.123849 0.358018 1.03056e-19)
(-0.126689 0.347179 -1.45914e-20)
(-0.126042 0.326173 6.68252e-20)
(-0.12196 0.298426 -2.68938e-20)
(-0.114769 0.263312 0)
(-0.103571 0.217048 8.19637e-20)
(-0.0849313 0.155464 -5.47029e-20)
(-0.0827308 0.220017 -8.57764e-20)
(-0.131601 0.337149 3.67472e-20)
(-0.138429 0.354056 1.47689e-19)
(-0.141848 0.359739 -1.5627e-20)
(-0.141267 0.352319 2.57143e-20)
(-0.13528 0.330858 8.33629e-20)
(-0.125434 0.302231 -7.80246e-20)
(-0.112312 0.266589 4.29744e-20)
(-0.094551 0.219378 2.40666e-20)
(-0.0679527 0.155504 5.33397e-20)
(-0.0978595 0.215997 -8.40582e-20)
(-0.148796 0.332061 -6.36861e-21)
(-0.154831 0.346478 -1.14405e-19)
(-0.156758 0.352148 -2.44978e-20)
(-0.151933 0.346896 1.49524e-19)
(-0.138686 0.327069 -4.94748e-20)
(-0.121949 0.299719 3.6603e-20)
(-0.102383 0.265697 -4.48147e-20)
(-0.0778382 0.219665 -1.08118e-19)
(-0.0417843 0.155387 1.05153e-19)
(-0.106259 0.20029 3.06114e-20)
(-0.16077 0.314527 1.53778e-20)
(-0.167588 0.338342 2.3683e-20)
(-0.16266 0.34256 1.22434e-19)
(-0.148645 0.333922 -8.27701e-20)
(-0.127177 0.315729 -2.13998e-19)
(-0.103242 0.292071 -4.08811e-20)
(-0.0771521 0.262219 -1.99098e-19)
(-0.0458019 0.220415 2.01075e-19)
(0.0014877 0.158738 1.83778e-19)
(-0.107056 0.175243 8.59146e-22)
(-0.163083 0.282123 -1.00688e-20)
(-0.165579 0.314398 6.87814e-20)
(-0.150875 0.320668 -6.45676e-20)
(-0.125275 0.314015 -2.08429e-19)
(-0.0942605 0.300618 5.99907e-20)
(-0.0616105 0.283024 -9.79934e-21)
(-0.0275929 0.259406 7.71065e-20)
(0.0112075 0.224022 3.71663e-19)
(0.0716092 0.168065 -3.8937e-20)
(-0.0995138 0.143476 -9.34177e-21)
(-0.15217 0.236904 2.25211e-20)
(-0.148043 0.271949 -1.28732e-20)
(-0.120901 0.281847 -5.89015e-20)
(-0.0806029 0.280293 -1.11648e-20)
(-0.0361039 0.275475 2.24122e-19)
(0.0089899 0.26931 1.17546e-19)
(0.054123 0.257537 2.0195e-19)
(0.102156 0.232782 -4.04209e-21)
(0.175414 0.188275 -5.01053e-19)
(-0.0860257 0.109615 5.47093e-21)
(-0.130221 0.183243 -1.48184e-20)
(-0.116937 0.213733 -4.19633e-20)
(-0.0727382 0.221914 -6.90448e-20)
(-0.0129945 0.222198 6.86583e-20)
(0.0491852 0.225235 4.15478e-19)
(0.109002 0.233696 -1.28012e-20)
(0.165846 0.243141 -3.55711e-19)
(0.22181 0.243891 -4.90857e-19)
(0.300959 0.230041 -3.87511e-19)
(-0.0518376 -0.112409 -4.34625e-19)
(0.216781 -0.328235 -3.17359e-19)
(0.443273 -0.312611 -8.29018e-20)
(0.577359 -0.27431 -1.4436e-20)
(0.674575 -0.224059 4.41013e-20)
(0.733591 -0.175775 2.65492e-21)
(0.766233 -0.132967 -4.63465e-20)
(0.788052 -0.0951928 1.55703e-20)
(0.795805 -0.063584 -9.68751e-21)
(0.800119 -0.028528 -4.61082e-21)
(-0.031414 -0.15473 -3.64952e-19)
(0.210293 -0.40248 1.61928e-20)
(0.441934 -0.364834 -6.73171e-20)
(0.578164 -0.310869 -4.98111e-21)
(0.678351 -0.247091 3.87209e-20)
(0.738571 -0.189771 -7.06413e-20)
(0.771654 -0.140994 2.85727e-20)
(0.79329 -0.0994735 3.53468e-22)
(0.801548 -0.0656025 -1.87514e-20)
(0.805985 -0.0290675 1.09731e-20)
(0.00127413 -0.18896 8.04985e-19)
(0.205116 -0.469207 3.85056e-19)
(0.439588 -0.418781 4.15032e-20)
(0.576635 -0.349175 2.03992e-20)
(0.679504 -0.271641 -5.84494e-20)
(0.741007 -0.204636 9.87811e-22)
(0.774816 -0.149522 1.21631e-20)
(0.796796 -0.104079 -1.76352e-20)
(0.805884 -0.067931 -6.34827e-23)
(0.811141 -0.0297257 -8.06272e-22)
(0.0445509 -0.213498 6.80634e-19)
(0.210948 -0.52496 -9.13977e-21)
(0.443641 -0.4736 1.65374e-20)
(0.578426 -0.388739 -1.54228e-20)
(0.681676 -0.297525 1.72366e-20)
(0.743387 -0.220275 1.43977e-20)
(0.777553 -0.158586 -2.41662e-20)
(0.800135 -0.109072 0)
(0.810048 -0.0706771 0)
(0.816695 -0.0305582 6.8238e-24)
(0.0995525 -0.227891 -1.70621e-19)
(0.245603 -0.568867 -4.59793e-19)
(0.470438 -0.526575 -7.59309e-21)
(0.595911 -0.428079 1.18219e-20)
(0.693368 -0.323788 9.03707e-21)
(0.751579 -0.236334 6.53254e-20)
(0.784056 -0.16809 9.80872e-22)
(0.806565 -0.114446 -1.04683e-20)
(0.81671 -0.0739013 -3.06849e-20)
(0.82502 -0.0316221 -1.58661e-21)
(0.174657 -0.236519 -2.67997e-19)
(0.330436 -0.606086 -2.15501e-19)
(0.54342 -0.576536 -3.32421e-19)
(0.649332 -0.465264 5.11571e-21)
(0.730061 -0.348902 -3.40349e-20)
(0.777107 -0.251987 3.61181e-20)
(0.802872 -0.177629 1.27495e-20)
(0.822642 -0.120016 -4.69512e-20)
(0.831302 -0.0775848 5.00503e-22)
(0.840911 -0.0329924 -1.54617e-20)
(0.278867 -0.245765 8.42428e-20)
(0.482433 -0.643465 2.09753e-20)
(0.679489 -0.623106 1.81117e-19)
(0.758558 -0.498439 -4.8353e-20)
(0.811177 -0.370585 -5.40445e-21)
(0.837226 -0.265369 -4.42204e-20)
(0.848496 -0.185965 -1.08724e-21)
(0.860231 -0.125091 1.16774e-20)
(0.86404 -0.0814213 1.32931e-20)
(0.8733 -0.03468 7.49851e-21)
(0.429426 -0.260896 2.66886e-19)
(0.700618 -0.682917 1.58032e-18)
(0.873986 -0.667118 3.0717e-19)
(0.925094 -0.527628 2.06032e-20)
(0.946238 -0.387641 1.29726e-20)
(0.945956 -0.27473 3.77686e-20)
(0.936453 -0.191483 -4.23133e-20)
(0.934458 -0.128527 3.43307e-20)
(0.929198 -0.0846203 -3.05331e-22)
(0.934881 -0.036507 -2.81465e-21)
(0.628868 -0.276506 6.56995e-19)
(0.953714 -0.717254 5.11665e-19)
(1.09954 -0.707854 -5.8606e-19)
(1.12555 -0.554284 1.95556e-19)
(1.12026 -0.400755 -2.64232e-20)
(1.0975 -0.279695 -1.46821e-21)
(1.06828 -0.193122 1.2036e-20)
(1.0516 -0.129018 -4.48287e-22)
(1.03591 -0.0858851 -6.75042e-21)
(1.03557 -0.0380026 -4.25613e-21)
(0.858848 -0.251902 1.67701e-19)
(1.18503 -0.722455 -1.15615e-18)
(1.31753 -0.732088 -4.88738e-19)
(1.33104 -0.574092 1.73892e-19)
(1.30499 -0.410413 -5.64947e-20)
(1.26429 -0.282711 8.50062e-21)
(1.21952 -0.193423 -1.60779e-20)
(1.19076 -0.12836 9.18867e-22)
(1.1677 -0.0860844 -1.61591e-21)
(1.16132 -0.0389379 -1.59423e-21)
(1.22832 -0.394353 -4.94346e-19)
(1.45083 -0.752283 -1.69252e-19)
(1.56697 -0.749663 -5.38551e-20)
(1.58342 -0.581006 -1.18628e-19)
(1.54573 -0.402963 7.23689e-20)
(1.48884 -0.269489 9.28247e-21)
(1.42762 -0.180645 1.9479e-20)
(1.38514 -0.119029 1.27571e-20)
(1.35268 -0.0809194 -2.65554e-20)
(1.33649 -0.0381287 3.24962e-21)
(1.76773 -0.623896 -2.69838e-19)
(1.82644 -0.893004 -1.15325e-19)
(1.8077 -0.81638 -1.19906e-20)
(1.76524 -0.595646 -1.59207e-20)
(1.71558 -0.391106 1.36196e-19)
(1.66103 -0.250834 1.314e-19)
(1.602 -0.162658 9.95988e-20)
(1.55818 -0.105481 -1.17602e-20)
(1.52733 -0.0719587 4.55075e-20)
(1.50632 -0.0343464 1.19661e-20)
(2.55729 -0.644273 -9.2186e-20)
(2.42566 -0.764643 -6.74413e-20)
(2.21389 -0.70579 7.09926e-20)
(2.03275 -0.525542 1.58755e-35)
(1.90543 -0.343877 -1.76367e-20)
(1.8171 -0.215293 -4.36576e-34)
(1.74362 -0.135877 4.51415e-21)
(1.69398 -0.0874598 -4.01056e-35)
(1.65716 -0.0607357 1.9438e-22)
(1.63343 -0.0304003 -1.98851e-21)
(2.92095 -0.64929 -1.61756e-19)
(2.6201 -0.76687 2.35748e-19)
(2.37617 -0.691769 2.20759e-22)
(2.16645 -0.49653 0)
(2.00334 -0.311603 -1.06012e-19)
(1.89336 -0.187518 -8.43643e-20)
(1.81089 -0.114326 -6.27412e-20)
(1.75712 -0.0713467 3.65051e-34)
(1.71788 -0.0491328 -2.05832e-20)
(1.6947 -0.0250552 1.23313e-21)
(3.10382 -0.565756 -1.40438e-19)
(2.81777 -0.608962 2.22064e-20)
(2.53811 -0.548702 0)
(2.27333 -0.392157 0)
(2.06372 -0.239091 0)
(1.92771 -0.139546 0)
(1.83431 -0.0832758 1.99774e-21)
(1.77519 -0.0514092 4.47168e-34)
(1.73232 -0.0357941 -3.83017e-22)
(1.70396 -0.0208345 1.09693e-34)
(3.13181 -0.484002 1.53209e-19)
(2.84602 -0.537184 0)
(2.55926 -0.472634 0)
(2.279 -0.31733 0)
(2.052 -0.177575 0)
(1.90695 -0.0969526 0)
(1.8129 -0.0560515 -4.69238e-21)
(1.75597 -0.0338467 4.2167e-20)
(1.71653 -0.024616 -6.48105e-22)
(1.69167 -0.0164091 1.07578e-20)
(3.10294 -0.401552 0)
(2.80506 -0.424323 7.62029e-20)
(2.46594 -0.348291 -3.78038e-20)
(2.15718 -0.215544 0)
(1.93204 -0.105949 -7.91915e-20)
(1.79923 -0.0507997 -5.49253e-20)
(1.7187 -0.0274151 -4.11983e-20)
(1.67062 -0.0152596 -2.27156e-20)
(1.64018 -0.0121387 2.48425e-20)
(1.61523 -0.0102808 -5.74641e-21)
(2.91789 -0.307088 -3.53136e-20)
(2.53784 -0.302797 2.05091e-20)
(2.13249 -0.221242 -2.04131e-20)
(1.81935 -0.118147 -9.16604e-37)
(1.62888 -0.0441681 1.42707e-20)
(1.53037 -0.0143053 -3.29521e-34)
(1.47535 -0.00575377 -6.42552e-21)
(1.44269 -0.00223694 -1.1777e-20)
(1.42431 -0.0031694 -1.0808e-21)
(1.40229 -0.00542675 1.93628e-21)
(2.20592 -0.182304 0)
(1.76789 -0.12168 5.12117e-21)
(1.40189 -0.0595149 3.2842e-20)
(1.1748 -0.0207709 0)
(1.07052 0.00373577 2.70667e-20)
(1.03161 0.00901888 1.85471e-20)
(1.01533 0.0070283 5.75806e-21)
(1.00685 0.00486771 7.61861e-21)
(1.00497 0.00205116 -9.24815e-21)
(0.991818 -0.00127979 -7.41903e-22)
(0.677839 -0.0456215 -8.24423e-21)
(0.478171 -0.00908324 0)
(0.374237 -0.00223012 0)
(0.320777 0.000706079 0)
(0.320337 0.00453338 0)
(0.337652 0.00436973 0)
(0.354603 0.00320737 -7.00688e-21)
(0.366962 0.00214683 2.1558e-35)
(0.37559 0.00125529 -1.34134e-21)
(0.37488 8.62747e-06 -2.37768e-21)
(2.4447 0.315248 3.62196e-19)
(2.37349 0.251083 1.76858e-19)
(2.27126 0.188593 2.12213e-19)
(2.10941 0.135386 -2.45062e-19)
(1.91386 0.0947432 1.32581e-19)
(1.66269 0.0682862 5.38765e-20)
(1.42083 0.0416797 -1.84503e-19)
(1.13209 0.0594535 -3.37056e-20)
(0.974181 0.00630766 -1.20524e-19)
(0.636546 0.18425 -8.36967e-20)
(2.72036 0.30234 -2.39337e-19)
(2.70794 0.253164 3.68752e-20)
(2.7166 0.172271 2.52358e-19)
(2.64459 0.148879 1.90348e-19)
(2.60393 0.0608496 -2.7086e-19)
(2.42704 0.0664711 6.82221e-20)
(2.3399 -0.0482039 -2.26444e-19)
(2.01718 -0.0142435 -6.16799e-20)
(1.94712 -0.166122 -1.15101e-19)
(1.41814 -0.110036 -4.72764e-20)
(2.91764 0.264541 4.08273e-20)
(2.9084 0.209578 -1.96625e-19)
(2.97883 0.125391 -2.77061e-19)
(2.91878 0.0880704 6.37918e-19)
(3.0131 0.00236026 -2.68538e-21)
(2.86749 -0.0169109 -1.96513e-20)
(2.96338 -0.114402 -2.14196e-19)
(2.69301 -0.151669 -2.2522e-19)
(2.77772 -0.25064 -1.11158e-22)
(2.34402 -0.300115 -6.5085e-20)
(3.02813 0.233441 7.80768e-20)
(3.03345 0.171399 -2.80095e-19)
(3.09175 0.0925965 8.09854e-20)
(3.06684 0.0257835 -2.44432e-19)
(3.14307 -0.0478483 3.55053e-19)
(3.09129 -0.108096 -1.63765e-19)
(3.1748 -0.168969 6.76115e-20)
(3.05671 -0.246677 -1.1055e-19)
(3.11636 -0.312374 -1.79929e-19)
(2.92564 -0.391938 5.05738e-20)
(3.10628 0.189809 1.17261e-19)
(3.11699 0.130871 -4.05576e-19)
(3.1618 0.0620211 3.25486e-21)
(3.15288 -0.0162176 -1.06515e-19)
(3.20005 -0.0833811 -3.91694e-20)
(3.18187 -0.16187 -2.56684e-21)
(3.22942 -0.2084 1.82533e-19)
(3.19796 -0.285429 -7.55827e-20)
(3.2188 -0.326859 -1.56125e-19)
(3.15783 -0.409222 -2.43696e-19)
(3.12702 0.162161 2.17328e-19)
(3.14531 0.108493 6.07153e-20)
(3.18828 0.0432715 -2.74842e-19)
(3.19369 -0.0325504 1.31519e-19)
(3.22533 -0.0988825 1.90938e-19)
(3.22401 -0.178007 -5.47441e-21)
(3.24059 -0.216258 9.75535e-20)
(3.23648 -0.290936 -8.7515e-20)
(3.2325 -0.319998 -1.15662e-19)
(3.22092 -0.393592 -1.81777e-19)
(3.06608 0.118707 -1.26627e-20)
(3.09557 0.0729759 1.17457e-19)
(3.14681 0.0130634 -1.10145e-19)
(3.16691 -0.0495784 -1.26102e-20)
(3.19807 -0.113618 2.22593e-19)
(3.20875 -0.176652 -2.02675e-20)
(3.21406 -0.21617 9.74206e-20)
(3.21637 -0.273577 1.38767e-19)
(3.20182 -0.298068 7.67887e-20)
(3.20181 -0.35053 1.12463e-19)
(2.83578 0.0811744 -8.4833e-21)
(2.89207 0.0378198 -2.04525e-21)
(2.94021 -0.0110921 -8.29986e-20)
(2.9872 -0.0579525 -7.43355e-20)
(3.00822 -0.119103 -2.36154e-20)
(3.03948 -0.155015 -3.83808e-20)
(3.0275 -0.193091 5.65336e-22)
(3.05253 -0.227375 8.5081e-20)
(3.02058 -0.246701 -2.90385e-20)
(3.04145 -0.277145 -7.08797e-21)
(2.29557 0.00295162 5.95233e-20)
(2.35027 -0.0275162 -1.48158e-20)
(2.36755 -0.0481839 -1.54394e-20)
(2.41276 -0.0811538 3.34238e-20)
(2.38432 -0.0947779 -1.3541e-20)
(2.4262 -0.114902 1.47252e-20)
(2.36417 -0.129027 -7.9854e-20)
(2.41041 -0.135112 1.57923e-20)
(2.34023 -0.148074 3.03186e-20)
(2.38732 -0.1568 -2.85905e-20)
(1.10532 -0.0165391 0)
(1.09664 -0.0179098 3.0032e-21)
(1.0825 -0.0202526 -3.9913e-20)
(1.05971 -0.0212435 -6.80589e-20)
(1.03281 -0.024472 4.12298e-20)
(1.00769 -0.0276242 1.63666e-19)
(0.970091 -0.0278795 -8.78204e-21)
(0.959091 -0.0349243 -5.52836e-20)
(0.90059 -0.0282935 1.04558e-21)
(0.928273 -0.0405373 8.07945e-22)
(1.14839 0.796929 -5.73046e-20)
(1.04212 0.762816 -1.2173e-19)
(0.990298 0.751753 -5.00989e-19)
(0.956064 0.748131 4.97013e-20)
(0.926742 0.74599 5.85868e-19)
(0.897262 0.742286 -2.94849e-21)
(0.862123 0.73226 -9.38368e-20)
(0.808114 0.705522 -6.7434e-20)
(0.691171 0.622013 -2.07661e-19)
(0.385401 0.35674 -1.71314e-20)
(1.392 0.799243 -4.05469e-19)
(1.23237 0.753772 1.02538e-18)
(1.11723 0.728185 4.34432e-19)
(1.04699 0.718251 -3.82189e-19)
(1.00277 0.713462 1.32328e-19)
(0.967416 0.707578 7.80113e-20)
(0.930027 0.694896 2.46703e-19)
(0.875024 0.667404 -4.70232e-19)
(0.752234 0.585323 -6.00621e-20)
(0.419027 0.332353 4.18047e-20)
(1.65546 0.784958 1.29343e-19)
(1.48011 0.740936 7.84343e-19)
(1.31302 0.703019 1.11784e-20)
(1.18992 0.678266 -2.36835e-19)
(1.11071 0.664036 1.37675e-19)
(1.05555 0.654212 9.84058e-20)
(1.00629 0.640632 -5.21634e-20)
(0.942073 0.614028 -2.14429e-19)
(0.807444 0.536364 1.76252e-19)
(0.446382 0.301066 -1.75899e-19)
(1.86742 0.743995 -4.55233e-19)
(1.69833 0.704226 3.38107e-19)
(1.51023 0.659729 -4.85439e-19)
(1.34953 0.623402 -1.36511e-19)
(1.23581 0.600538 5.52366e-19)
(1.15734 0.587564 -3.15306e-19)
(1.09253 0.575171 -3.55332e-19)
(1.01463 0.551572 2.06641e-19)
(0.861845 0.480708 -1.21917e-19)
(0.469078 0.266026 -2.40716e-20)
(2.02135 0.683154 5.70346e-19)
(1.86291 0.645524 3.98221e-19)
(1.67077 0.598103 -1.37024e-19)
(1.49173 0.556231 4.49381e-19)
(1.35607 0.529463 5.23039e-21)
(1.26008 0.515877 -1.85452e-19)
(1.18179 0.505861 1.20115e-19)
(1.08966 0.485961 -2.42833e-19)
(0.915243 0.422226 -2.87035e-19)
(0.487193 0.229166 -4.25571e-20)
(2.12768 0.614977 7.50394e-19)
(1.97344 0.576595 7.91223e-19)
(1.78214 0.528535 -6.29805e-19)
(1.59872 0.486188 -4.78301e-19)
(1.45539 0.459635 6.25667e-20)
(1.35117 0.446999 -3.01167e-19)
(1.26401 0.438635 -3.23116e-20)
(1.15906 0.420479 -6.49662e-21)
(0.960863 0.361351 8.7748e-20)
(0.497099 0.190548 3.2541e-20)
(2.19691 0.544599 6.67268e-19)
(2.03754 0.504039 -7.5159e-19)
(1.84716 0.457425 -5.4176e-19)
(1.66771 0.418156 2.70242e-19)
(1.52702 0.394079 -2.43305e-19)
(1.4221 0.382216 5.84354e-19)
(1.32987 0.373187 -2.8664e-20)
(1.21238 0.35462 -4.61913e-19)
(0.988754 0.297295 2.00478e-19)
(0.493406 0.149453 4.48691e-20)
(2.22355 0.473384 -4.13912e-19)
(2.05625 0.432086 -4.9705e-19)
(1.86933 0.388993 -5.19093e-19)
(1.69991 0.353969 3.79893e-20)
(1.56819 0.332164 1.81226e-19)
(1.46677 0.319646 1.51303e-19)
(1.37089 0.308128 1.25818e-19)
(1.23964 0.286455 3.77538e-21)
(0.98957 0.228831 3.42369e-20)
(0.471554 0.107123 5.7844e-20)
(2.21449 0.398089 1.81805e-19)
(2.03841 0.3586 -7.52668e-20)
(1.8567 0.320792 2.56958e-19)
(1.69994 0.290834 6.42262e-19)
(1.57925 0.270844 -1.62168e-19)
(1.48187 0.256522 -5.60928e-19)
(1.38114 0.241169 4.18153e-19)
(1.23323 0.214896 4.4341e-19)
(0.956471 0.157696 -2.5813e-19)
(0.430702 0.06645 -5.4632e-20)
(2.16981 0.324926 -3.42188e-19)
(1.98723 0.28849 -3.31447e-21)
(1.81325 0.255678 3.67994e-19)
(1.67075 0.229393 2.98045e-19)
(1.56089 0.2096 1.94867e-19)
(1.46571 0.19235 -3.19911e-19)
(1.35673 0.172326 8.74899e-20)
(1.18853 0.141531 -2.63881e-19)
(0.88809 0.0883287 -3.26529e-19)
(0.374134 0.0311204 1.23542e-20)
(0.300652 0.383365 -2.20361e-20)
(0.272289 0.376649 1.98111e-19)
(0.242948 0.369826 2.53008e-20)
(0.21316 0.364409 -1.35525e-19)
(0.182747 0.360981 -4.09448e-20)
(0.151151 0.358316 -9.4325e-20)
(0.117806 0.352216 4.9152e-20)
(0.0823809 0.333873 -3.71377e-20)
(0.045264 0.285604 8.74916e-20)
(0.0179098 0.16093 1.94108e-20)
(0.347101 0.458298 -6.96047e-20)
(0.317454 0.449926 -2.1986e-20)
(0.286715 0.441778 -1.40566e-19)
(0.255739 0.435652 1.32771e-20)
(0.224381 0.432267 1.91462e-20)
(0.191871 0.430269 3.63644e-20)
(0.157241 0.42488 1.71244e-19)
(0.119527 0.405931 -5.59109e-20)
(0.0768597 0.351787 6.17047e-20)
(0.0353062 0.201104 -1.59743e-20)
(0.405059 0.530202 6.49022e-20)
(0.373893 0.52048 1.75604e-19)
(0.34173 0.511165 9.98835e-20)
(0.309605 0.504361 1.49489e-19)
(0.277367 0.500996 3.96241e-20)
(0.244046 0.499659 1.72767e-19)
(0.208249 0.495047 -5.55852e-20)
(0.168181 0.475714 -5.806e-20)
(0.119105 0.416194 -1.70511e-23)
(0.0591406 0.240246 9.89624e-21)
(0.473071 0.593931 4.66719e-19)
(0.439619 0.582271 3.35759e-19)
(0.405271 0.571837 -3.54299e-19)
(0.371613 0.564871 -1.52734e-19)
(0.338536 0.562211 1.76916e-20)
(0.304776 0.562163 -7.64171e-20)
(0.268339 0.558794 -2.21744e-19)
(0.226301 0.539488 6.34456e-20)
(0.170489 0.475413 -4.32467e-20)
(0.0887222 0.276291 -8.18181e-20)
(0.55929 0.658023 -1.55538e-19)
(0.523469 0.64622 -3.10613e-19)
(0.487104 0.63455 2.59451e-19)
(0.451525 0.62605 -8.51199e-20)
(0.416685 0.622319 -1.40893e-19)
(0.381352 0.62195 1.51953e-19)
(0.343176 0.618702 6.2597e-20)
(0.298008 0.598929 -1.14853e-19)
(0.233676 0.530407 -1.81756e-19)
(0.124872 0.309503 5.16504e-20)
(0.626058 0.701069 -2.89022e-20)
(0.588299 0.686289 -2.62722e-20)
(0.55119 0.674187 -2.56701e-20)
(0.51657 0.667147 6.17239e-20)
(0.483938 0.665678 1.92274e-19)
(0.451238 0.667535 -1.5202e-19)
(0.41516 0.66576 -9.73277e-20)
(0.370032 0.646142 -5.41666e-21)
(0.299428 0.574355 1.78354e-20)
(0.163603 0.335792 1.16663e-19)
(0.761136 0.749714 -2.56826e-19)
(0.71792 0.735778 1.14457e-19)
(0.673908 0.721343 3.10544e-19)
(0.631926 0.710882 -1.56294e-19)
(0.592483 0.706808 -3.35941e-19)
(0.554135 0.707351 1.81046e-19)
(0.513267 0.705123 4.04709e-19)
(0.462484 0.685048 1.39516e-19)
(0.3802 0.61043 4.09248e-20)
(0.209258 0.357186 1.84331e-19)
(0.796829 0.779274 -4.59269e-19)
(0.753941 0.762318 -1.39883e-19)
(0.71741 0.748844 2.70567e-19)
(0.685512 0.740787 -1.17851e-19)
(0.655877 0.738018 5.26378e-20)
(0.625785 0.738423 2.84515e-19)
(0.591041 0.735062 -2.28091e-19)
(0.54287 0.71354 -2.32995e-19)
(0.45491 0.635633 1.36982e-19)
(0.253019 0.370786 -3.95434e-20)
(0.965697 0.791943 -1.86683e-20)
(0.91318 0.773259 4.93935e-20)
(0.857492 0.753686 -1.96716e-19)
(0.808581 0.741304 -4.25394e-20)
(0.767306 0.73882 3.37132e-19)
(0.729823 0.741873 6.88372e-20)
(0.689828 0.740581 -3.92585e-20)
(0.636287 0.719848 0)
(0.537148 0.642012 -1.23499e-19)
(0.299588 0.374066 -8.14811e-20)
(0.990648 0.804948 0)
(0.956968 0.789496 0)
(0.927426 0.77448 5.11e-19)
(0.894268 0.763372 7.6592e-20)
(0.85999 0.758017 -8.9998e-20)
(0.825333 0.75568 2.21607e-19)
(0.785651 0.748756 -6.9636e-20)
(0.728988 0.723436 -3.20216e-19)
(0.61848 0.641166 2.01152e-19)
(0.344894 0.370969 1.25232e-19)
(0.888205 0.149012 -1.08565e-20)
(1.04021 0.309147 -3.94649e-21)
(0.882021 0.261176 8.19802e-21)
(0.896378 0.204749 4.70512e-21)
(0.86928 0.187983 1.66155e-20)
(0.851297 0.191342 2.92994e-20)
(0.818678 0.211598 -1.59881e-20)
(0.767062 0.250236 -3.29742e-20)
(0.692647 0.312408 -8.46115e-20)
(0.435741 0.404534 1.47788e-19)
(0.887866 0.152894 -2.05011e-21)
(1.0401 0.322158 8.38693e-21)
(0.878873 0.271932 -2.57025e-23)
(0.894383 0.211018 1.76262e-20)
(0.866588 0.193082 1.29321e-20)
(0.852879 0.197672 -3.785e-20)
(0.826973 0.223865 -1.35174e-20)
(0.782307 0.270361 -2.10497e-22)
(0.718681 0.359221 2.39013e-19)
(0.481377 0.480072 -9.12778e-21)
(0.887357 0.157035 6.72452e-21)
(1.03987 0.335717 1.70439e-20)
(0.873986 0.28246 -1.55087e-20)
(0.889597 0.217156 -2.6559e-21)
(0.861377 0.197474 -1.53243e-20)
(0.851361 0.202936 4.10504e-21)
(0.831768 0.234493 1.99277e-20)
(0.795863 0.289803 -1.99744e-20)
(0.744585 0.402841 1.02609e-19)
(0.538144 0.55173 -4.11831e-19)
(0.886867 0.161448 1.38676e-21)
(1.03989 0.350016 -3.38308e-21)
(0.867023 0.293065 -1.71891e-20)
(0.881487 0.222919 -4.72713e-20)
(0.854868 0.201161 3.00129e-20)
(0.848169 0.207306 1.60989e-20)
(0.833429 0.243391 -2.34414e-20)
(0.807407 0.30848 9.34081e-20)
(0.771404 0.44346 -9.45192e-20)
(0.604139 0.61959 -3.85087e-19)
(0.886879 0.166075 3.32903e-21)
(1.04065 0.365418 -2.04454e-20)
(0.857572 0.304218 1.05667e-20)
(0.87123 0.227668 7.64881e-20)
(0.849796 0.203961 9.58503e-21)
(0.844787 0.211199 3.69877e-20)
(0.832781 0.250974 3.02798e-20)
(0.816317 0.326198 6.41884e-20)
(0.797853 0.475017 -2.81382e-20)
(0.693083 0.676684 3.06413e-19)
(0.887948 0.170587 7.177e-21)
(1.0425 0.382392 6.43786e-22)
(0.847215 0.316207 -1.2311e-20)
(0.864768 0.231687 1.76299e-20)
(0.848326 0.205683 -3.22028e-20)
(0.842472 0.215095 3.3591e-21)
(0.831808 0.257868 -9.9218e-21)
(0.823592 0.342992 -1.85654e-19)
(0.827027 0.508132 0)
(0.749542 0.735867 -3.23433e-20)
(0.889634 0.174778 -9.66639e-21)
(1.04606 0.40054 1.25919e-20)
(0.843163 0.328017 1.71341e-21)
(0.870477 0.233133 -6.93791e-20)
(0.850511 0.206992 -1.6384e-20)
(0.843342 0.219556 -5.13736e-20)
(0.834588 0.264661 2.60557e-21)
(0.835174 0.35876 7.84126e-21)
(0.85337 0.521192 -6.27964e-21)
(0.896036 0.768021 9.87465e-19)
(0.8922 0.178395 -8.24108e-20)
(1.05377 0.417876 2.2518e-20)
(0.85481 0.339546 4.23513e-20)
(0.885819 0.232575 3.95627e-20)
(0.861972 0.209011 -8.38241e-20)
(0.856761 0.225728 1.07487e-20)
(0.850609 0.272935 -3.98956e-21)
(0.850897 0.377439 1.23928e-20)
(0.901377 0.54609 1.54108e-19)
(0.935185 0.826377 -1.29218e-19)
(0.893791 0.18028 2.57411e-20)
(1.06969 0.43317 -1.98365e-20)
(0.884897 0.346964 -1.50085e-20)
(0.918635 0.232767 9.08575e-20)
(0.90837 0.212008 6.1185e-21)
(0.906265 0.230705 1.6883e-20)
(0.901211 0.278389 -3.04059e-20)
(0.904802 0.385806 5.54822e-20)
(0.95698 0.545251 2.74674e-19)
(1.06665 0.830706 -6.82488e-19)
(0.893648 0.180972 4.92465e-20)
(1.10042 0.444606 -2.99455e-20)
(0.938271 0.348473 6.33132e-22)
(0.991265 0.230478 -2.08982e-20)
(0.992145 0.212678 6.41037e-20)
(0.989198 0.238642 -1.70803e-20)
(0.982082 0.292993 -6.7119e-21)
(0.974269 0.418662 5.90923e-20)
(1.05813 0.570174 -3.0258e-20)
(1.2063 0.891612 4.39184e-19)
(0.882868 0.173213 -1.02592e-20)
(1.16669 0.451319 -9.11538e-21)
(1.05362 0.348646 -8.77283e-21)
(1.12348 0.227351 -2.99672e-20)
(1.14196 0.209093 -4.27335e-20)
(1.15255 0.2394 -3.36012e-20)
(1.14151 0.293295 1.87512e-21)
(1.16479 0.405931 -1.36823e-19)
(1.21341 0.546948 -3.79914e-19)
(1.17129 0.876854 -2.8612e-20)
(0.859481 0.143954 -1.86609e-20)
(1.25636 0.423768 -2.73521e-20)
(1.21288 0.330301 8.44803e-21)
(1.29485 0.218238 -2.48741e-20)
(1.3329 0.20039 4.7758e-20)
(1.35393 0.237901 7.95783e-20)
(1.39634 0.282968 1.41693e-20)
(1.35632 0.417924 1.23174e-19)
(1.59683 0.528656 7.59245e-20)
(1.34578 0.779614 4.7507e-19)
(0.83083 0.103807 -1.00967e-20)
(1.32035 0.364844 -1.01855e-20)
(1.3397 0.295323 3.06349e-21)
(1.44281 0.201766 1.15651e-20)
(1.49818 0.186675 1.4678e-34)
(1.53686 0.218068 -5.6214e-21)
(1.61517 0.278393 -5.82495e-34)
(1.55419 0.364668 2.0108e-20)
(1.93689 0.510973 -7.31946e-20)
(1.63445 0.712241 -3.68079e-19)
(0.809011 0.0622703 2.95759e-20)
(1.34633 0.279745 -8.38427e-35)
(1.41226 0.243147 -3.6776e-21)
(1.53646 0.177513 9.78665e-21)
(1.60563 0.168085 -2.51976e-20)
(1.65666 0.194832 -4.57148e-20)
(1.7665 0.263758 -7.14378e-34)
(1.70523 0.31801 -1.008e-19)
(2.14402 0.466164 -1.35084e-19)
(1.93837 0.638108 3.9959e-19)
(0.79812 0.0221623 0)
(1.34276 0.183256 -1.71087e-34)
(1.43982 0.179804 0)
(1.58387 0.147457 0)
(1.66033 0.145341 0)
(1.72559 0.161815 0)
(1.8397 0.241552 -4.81622e-34)
(1.82415 0.259073 0)
(2.22266 0.388367 -2.36462e-20)
(2.15757 0.583716 2.33562e-19)
(0.797496 -0.0144117 1.00716e-20)
(1.32607 0.0845372 1.77905e-21)
(1.43306 0.107962 -4.83172e-21)
(1.59018 0.112566 0)
(1.67063 0.11964 0)
(1.74897 0.130263 5.9707e-21)
(1.84705 0.210364 4.10153e-20)
(1.9194 0.202572 -1.47322e-20)
(2.20129 0.308231 -3.27067e-20)
(2.27839 0.513664 1.86938e-19)
(0.806202 -0.0480317 -3.50838e-20)
(1.29742 -0.0114874 -7.98039e-21)
(1.37968 0.0354068 -5.29241e-21)
(1.53918 0.0755623 -2.27856e-20)
(1.62101 0.0894322 -1.22845e-20)
(1.71325 0.0989451 -9.99423e-21)
(1.79152 0.166242 -3.26748e-20)
(1.95223 0.153029 -3.50207e-20)
(2.09628 0.231769 -8.378e-20)
(2.32612 0.416722 6.57996e-20)
(0.82136 -0.0739894 -1.51025e-20)
(1.23609 -0.0833918 -2.34779e-20)
(1.23289 -0.0243571 -5.90871e-21)
(1.37705 0.0412736 -9.0013e-21)
(1.44713 0.055829 7.39569e-35)
(1.54891 0.0661742 7.0748e-21)
(1.60819 0.110093 -1.05801e-33)
(1.84401 0.106323 -1.58818e-20)
(1.86544 0.15988 1.80395e-20)
(2.26292 0.289245 2.90258e-20)
(0.832977 -0.0992608 1.33256e-19)
(1.09669 -0.123327 -1.11143e-20)
(0.909928 -0.0586078 -7.0646e-21)
(1.02037 0.0161377 1.38002e-20)
(1.06677 0.0235963 5.92511e-22)
(1.1541 0.0332961 1.23115e-20)
(1.2177 0.0520551 1.21039e-20)
(1.43858 0.0537869 -1.30505e-20)
(1.43689 0.0837819 -9.20788e-21)
(1.90349 0.140582 1.20559e-19)
(0.771583 -0.0549582 1.35824e-20)
(0.736318 -0.0595594 -1.01574e-34)
(0.362247 -0.0248717 -8.05126e-21)
(0.448172 0.0065131 0)
(0.45767 0.00512863 0)
(0.508109 0.00862636 7.69144e-21)
(0.562556 0.0120052 -1.01988e-35)
(0.680295 0.0160443 -1.61158e-20)
(0.715648 0.021015 -2.40568e-20)
(1.00998 0.0388674 -4.57626e-20)
(1.5451 0.880104 1.90461e-19)
(1.74597 0.866104 -9.68819e-20)
(1.95275 0.83026 -2.76126e-21)
(2.11465 0.772593 8.73078e-20)
(2.23464 0.705569 -3.74037e-19)
(2.32886 0.641118 -5.74478e-19)
(2.4087 0.580373 -2.3136e-19)