/*--------------------------------*- C++ -*----------------------------------*\
| =========                 |                                                 |
| \\      /  F ield         | OpenFOAM: The Open Source CFD Toolbox           |
|  \\    /   O peration     | Version:  2406                                  |
|   \\  /    A nd           | Website:  www.openfoam.com                      |
|    \\/     M anipulation  |                                                 |
\*---------------------------------------------------------------------------*/
FoamFile
{
    version     2.0;
    format      ascii;
    arch        "LSB;label=32;scalar=64";
    class       volVectorField;
    location    "1.2";
    object      flux;
}
// * * * * * * * * * * * * * * * * * * * * * * * * * * * * * * * * * * * * * //

dimensions      [0 1 -1 1 0 0 0];

internalField   nonuniform List<vector> 
2500
(
(0.000327907 0.000327907 0)
(0.000982016 0.000330892 0)
(0.00163305 0.000336958 0)
(0.00227973 0.000346074 0)
(0.00291945 0.000358284 0)
(0.00355033 0.000373641 0)
(0.00417052 0.000392207 0)
(0.0047782 0.000414053 0)
(0.00537165 0.000439258 0)
(0.0059492 0.000467909 0)
(0.00650922 0.000500096 0)
(0.00705016 0.000535911 0)
(0.00757052 0.000575445 0)
(0.00806884 0.00061879 0)
(0.00854369 0.000666027 0)
(0.00899365 0.000717231 0)
(0.00941733 0.000772464 0)
(0.0098133 0.000831771 0)
(0.0101801 0.000895178 0)
(0.0105164 0.000962687 0)
(0.0108205 0.00103427 0)
(0.0110908 0.00110988 0)
(0.0113259 0.00118941 0)
(0.011524 0.00127274 0)
(0.0116834 0.00135968 0)
(0.0118022 0.00145004 0)
(0.0118788 0.00154352 0)
(0.0119113 0.00163983 0)
(0.011898 0.00173859 0)
(0.0118372 0.00183938 0)
(0.0117272 0.00194173 0)
(0.0115667 0.00204512 0)
(0.0113545 0.00214898 0)
(0.0110894 0.00225268 0)
(0.0107709 0.00235559 0)
(0.0103985 0.002457 0)
(0.00997237 0.0025562 0)
(0.00949294 0.00265246 0)
(0.0089612 0.00274502 0)
(0.0083786 0.00283314 0)
(0.00774715 0.00291608 0)
(0.0070694 0.00299311 0)
(0.00634842 0.00306356 0)
(0.00558781 0.00312678 0)
(0.00479167 0.00318217 0)
(0.00396453 0.00322922 0)
(0.00311133 0.0032675 0)
(0.00223733 0.00329663 0)
(0.00134814 0.0033162 0)
(0.000450236 0.00332519 0)
(0.000330892 0.000982016 0)
(0.000991067 0.000991067 0)
(0.00164823 0.00100927 0)
(0.00230105 0.00103664 0)
(0.00294702 0.00107331 0)
(0.00358426 0.00111943 0)
(0.00421093 0.0011752 0)
(0.00482525 0.00124082 0)
(0.00542551 0.00131654 0)
(0.00601003 0.00140262 0)
(0.00657722 0.00149931 0)
(0.00712551 0.00160692 0)
(0.0076534 0.00172571 0)
(0.00815942 0.00185596 0)
(0.00864213 0.00199791 0)
(0.00910009 0.00215179 0)
(0.00953187 0.0023178 0)
(0.00993602 0.00249607 0)
(0.0103111 0.00268667 0)
(0.0106555 0.00288963 0)
(0.0109676 0.00310486 0)
(0.011246 0.00333219 0)
(0.0114888 0.00357135 0)
(0.0116943 0.00382196 0)
(0.0118607 0.00408348 0)
(0.0119861 0.00435527 0)
(0.0120686 0.00463652 0)
(0.0121064 0.00492628 0)
(0.0120976 0.00522345 0)
(0.0120403 0.00552676 0)
(0.011933 0.00583481 0)
(0.011774 0.006146 0)
(0.011562 0.00645864 0)
(0.011296 0.00677086 0)
(0.0109752 0.0070807 0)
(0.0105991 0.00738608 0)
(0.0101678 0.00768483 0)
(0.00968176 0.00797474 0)
(0.00914188 0.00825354 0)
(0.00854965 0.00851899 0)
(0.00790713 0.00876884 0)
(0.00721688 0.00900093 0)
(0.00648208 0.00921318 0)
(0.00570642 0.00940366 0)
(0.00489412 0.00957057 0)
(0.00404986 0.00971235 0)
(0.00317874 0.00982768 0)
(0.00228602 0.00991551 0)
(0.00137669 0.00997497 0)
(0.000459229 0.0100038 0)
(0.000336958 0.00163305 0)
(0.00100927 0.00164823 0)
(0.00167862 0.00167862 0)
(0.00234377 0.00172436 0)
(0.00300225 0.00178565 0)
(0.00365223 0.00186276 0)
(0.00429191 0.00195598 0)
(0.00491954 0.00206569 0)
(0.00553344 0.00219229 0)
(0.00613197 0.00233622 0)
(0.00671352 0.00249793 0)
(0.00727655 0.00267789 0)
(0.00781956 0.00287659 0)
(0.00834104 0.00309448 0)
(0.00883953 0.00333199 0)
(0.00931355 0.0035895 0)
(0.0097616 0.00386733 0)
(0.0101822 0.00416574 0)
(0.0105737 0.00448484 0)
(0.0109345 0.00482469 0)
(0.011263 0.00518515 0)
(0.0115573 0.00556595 0)
(0.0118157 0.00596664 0)
(0.0120361 0.00638658 0)
(0.0122167 0.00682491 0)
(0.0123553 0.00728053 0)
(0.0124498 0.00775211 0)
(0.0124983 0.00823806 0)
(0.0124985 0.00873654 0)
(0.0124485 0.00924542 0)
(0.0123465 0.00976235 0)
(0.0121906 0.0102847 0)
(0.0119793 0.0108095 0)
(0.0117115 0.0113338 0)
(0.0113861 0.0118541 0)
(0.0110026 0.0123671 0)
(0.010561 0.012869 0)
(0.0100617 0.0133562 0)
(0.00950545 0.0138248 0)
(0.0088939 0.0142709 0)
(0.0082291 0.014691 0)
(0.00751374 0.0150812 0)
(0.00675114 0.0154382 0)
(0.0059452 0.0157585 0)
(0.00510036 0.0160392 0)
(0.00422164 0.0162776 0)
(0.00331449 0.0164715 0)
(0.00238461 0.016619 0)
(0.00143639 0.0167187 0)
(0.00047904 0.0167685 0)
(0.000346074 0.00227973 0)
(0.00103664 0.00230105 0)
(0.00172436 0.00234377 0)
(0.00240808 0.00240808 0)
(0.00308541 0.00249428 0)
(0.00375458 0.00260271 0)
(0.00441386 0.00273384 0)
(0.00506156 0.00288817 0)
(0.00569603 0.00306628 0)
(0.00631567 0.00326879 0)
(0.0069189 0.00349637 0)
(0.00750418 0.00374968 0)
(0.00806999 0.0040294 0)
(0.00861482 0.0043362 0)
(0.00913715 0.00467069 0)
(0.00963544 0.00503343 0)
(0.0101081 0.00542489 0)
(0.0105535 0.00584543 0)
(0.01097 0.00629527 0)
(0.0113558 0.00677445 0)
(0.0117089 0.00728284 0)
(0.0120275 0.00782007 0)
(0.0123094 0.00838552 0)
(0.0125526 0.0089783 0)
(0.0127546 0.00959722 0)
(0.0129133 0.0102407 0)
(0.0130261 0.010907 0)
(0.0130908 0.0115938 0)
(0.0131049 0.0122985 0)
(0.0130661 0.0130181 0)
(0.0129722 0.0137493 0)
(0.0128212 0.0144884 0)
(0.0126111 0.0152313 0)
(0.0123406 0.0159736 0)
(0.0120085 0.0167105 0)
(0.011614 0.0174372 0)
(0.0111569 0.0181485 0)
(0.0106375 0.018839 0)
(0.0100566 0.0195033 0)
(0.00941589 0.020136 0)
(0.00871741 0.0207318 0)
(0.00796404 0.0212854 0)
(0.00715933 0.0217919 0)
(0.00630746 0.0222465 0)
(0.00541326 0.0226449 0)
(0.00448216 0.0229832 0)
(0.00352008 0.0232583 0)
(0.00253323 0.0234672 0)
(0.00152626 0.0236079 0)
(0.000509077 0.0236786 0)
(0.000358284 0.00291945 0)
(0.00107331 0.00294702 0)
(0.00178565 0.00300225 0)
(0.00249428 0.00308541 0)
(0.00319688 0.00319688 0)
(0.00389179 0.00333713 0)
(0.00457736 0.00350674 0)
(0.00525198 0.0037064 0)
(0.00591407 0.00393686 0)
(0.00656205 0.00419894 0)
(0.00719441 0.00449352 0)
(0.00780959 0.00482149 0)
(0.00840608 0.00518374 0)
(0.00898233 0.00558116 0)
(0.00953676 0.00601457 0)
(0.0100677 0.00648471 0)
(0.0105736 0.00699224 0)
(0.0110525 0.00753763 0)
(0.0115027 0.00812121 0)
(0.0119221 0.00874308 0)
(0.0123086 0.00940309 0)
(0.01266 0.0101008 0)
(0.0129739 0.0108354 0)
(0.0132478 0.0116058 0)
(0.0134791 0.0124105 0)
(0.0136651 0.0132476 0)
(0.0138029 0.0141145 0)
(0.0138897 0.0150086 0)
(0.0139228 0.0159263 0)
(0.0138994 0.0168638 0)
(0.0138168 0.0178169 0)
(0.0136725 0.0187806 0)
(0.0134645 0.0197496 0)
(0.0131907 0.0207182 0)
(0.0128497 0.0216802 0)
(0.0124406 0.0226292 0)
(0.0119628 0.0235584 0)
(0.0114165 0.0244608 0)
(0.0108025 0.0253292 0)
(0.0101224 0.0261567 0)
(0.00937851 0.026936 0)
(0.00857382 0.0276604 0)
(0.00771218 0.0283233 0)
(0.00679818 0.0289183 0)
(0.00583713 0.0294399 0)
(0.00483504 0.0298829 0)
(0.00379845 0.030243 0)
(0.00273424 0.0305164 0)
(0.00164775 0.0307004 0)
(0.000549703 0.0307928 0)
(0.000373641 0.00355033 0)
(0.00111943 0.00358426 0)
(0.00186276 0.00365223 0)
(0.00260271 0.00375458 0)
(0.00333713 0.00389179 0)
(0.00406444 0.00406444 0)
(0.00478314 0.00427329 0)
(0.00549168 0.00451916 0)
(0.00618858 0.00480304 0)
(0.00687233 0.00512593 0)
(0.00754144 0.00548896 0)
(0.0081944 0.00589324 0)
(0.00882966 0.00633992 0)
(0.00944564 0.00683011 0)
(0.0100407 0.00736488 0)
(0.0106131 0.00794519 0)
(0.011161 0.00857187 0)
(0.0116825 0.00924558 0)
(0.0121755 0.00996675 0)
(0.0126376 0.0107356 0)
(0.0130666 0.0115519 0)
(0.0134598 0.0124152 0)
(0.0138145 0.0133247 0)
(0.0141277 0.0142789 0)
(0.0143964 0.0152761 0)
(0.0146173 0.0163138 0)
(0.0147871 0.0173892 0)
(0.0149026 0.0184988 0)
(0.0149602 0.0196383 0)
(0.0149567 0.020803 0)
(0.0148889 0.0219876 0)
(0.0147539 0.023186 0)
(0.0145488 0.0243916 0)
(0.0142713 0.0255974 0)
(0.0139195 0.0267955 0)
(0.0134922 0.027978 0)
(0.0129885 0.0291363 0)
(0.0124083 0.0302616 0)
(0.0117526 0.0313452 0)
(0.0110227 0.032378 0)
(0.0102212 0.0333511 0)
(0.00935125 0.0342559 0)
(0.00841721 0.0350841 0)
(0.00742411 0.0358278 0)
(0.00637789 0.0364798 0)
(0.00528525 0.0370337 0)
(0.00415358 0.0374839 0)
(0.00299063 0.0378258 0)
(0.00180267 0.0380558 0)
(0.000601508 0.0381713 0)
(0.000392207 0.00417052 0)
(0.0011752 0.00421093 0)
(0.00195598 0.00429191 0)
(0.00273384 0.00441386 0)
(0.00350674 0.00457736 0)
(0.00427329 0.00478314 0)
(0.00503208 0.00503208 0)
(0.00578173 0.00532524 0)
(0.00652084 0.00566378 0)
(0.00724798 0.00604897 0)
(0.00796171 0.00648216 0)
(0.00866055 0.00696473 0)
(0.00934296 0.00749811 0)
(0.0100073 0.00808367 0)
(0.0106518 0.00872273 0)
(0.0112747 0.00941651 0)
(0.011874 0.0101661 0)
(0.0124474 0.0109722 0)
(0.0129927 0.0118357 0)
(0.0135073 0.0127566 0)
(0.0139883 0.0137349 0)
(0.0144328 0.0147702 0)
(0.0148376 0.0158613 0)
(0.0151992 0.0170068 0)
(0.015514 0.0182046 0)
(0.0157782 0.0194519 0)
(0.0159878 0.0207451 0)
(0.0161388 0.0220802 0)
(0.0162271 0.0234523 0)
(0.0162487 0.0248555 0)
(0.0161998 0.0262836 0)
(0.0160766 0.0277292 0)
(0.0158759 0.0291845 0)
(0.0155946 0.0306407 0)
(0.0152303 0.0320885 0)
(0.0147813 0.0335183 0)
(0.0142464 0.0349196 0)
(0.0136254 0.0362818 0)
(0.0129189 0.0375941 0)
(0.0121283 0.0388455 0)
(0.0112564 0.0400251 0)
(0.0103068 0.0411223 0)
(0.00928403 0.042127 0)
(0.00819389 0.0430295 0)
(0.00704306 0.043821 0)
(0.00583913 0.0444936 0)
(0.00459053 0.0450403 0)
(0.0033061 0.0454555 0)
(0.00199327 0.0457348 0)
(0.000665247 0.0458752 0)
(0.000414053 0.0047782 0)
(0.00124082 0.00482525 0)
(0.00206569 0.00491954 0)
(0.00288817 0.00506156 0)
(0.0037064 0.00525198 0)
(0.00451916 0.00549168 0)
(0.00532524 0.00578173 0)
(0.00612338 0.00612338 0)
(0.00691231 0.00651803 0)
(0.00769071 0.0069672 0)
(0.00845721 0.00747251 0)
(0.00921035 0.00803565 0)
(0.00994859 0.00865833 0)
(0.0106703 0.00934223 0)
(0.0113735 0.010089 0)
(0.0120564 0.0109 0)
(0.0127168 0.0117768 0)
(0.0133521 0.0127203 0)
(0.0139598 0.0137313 0)
(0.0145369 0.0148103 0)
(0.0150802 0.0159573 0)
(0.0155862 0.0171718 0)
(0.0160512 0.0184527 0)
(0.016471 0.0197983 0)
(0.0168414 0.0212063 0)
(0.0171578 0.0226734 0)
(0.0174155 0.0241957 0)
(0.0176097 0.0257683 0)
(0.0177355 0.0273857 0)
(0.0177881 0.029041 0)
(0.0177626 0.0307267 0)
(0.0176547 0.0324345 0)
(0.0174602 0.0341547 0)
(0.0171754 0.0358774 0)
(0.0167972 0.0375913 0)
(0.0163232 0.039285 0)
(0.015752 0.040946 0)
(0.0150828 0.0425617 0)
(0.0143162 0.0441191 0)
(0.0134537 0.0456051 0)
(0.012498 0.0470066 0)
(0.0114532 0.0483108 0)
(0.0103244 0.0495056 0)
(0.00911813 0.0505794 0)
(0.00784192 0.0515213 0)
(0.0065045 0.052322 0)
(0.00511551 0.0529729 0)
(0.00368517 0.0534674 0)
(0.00222233 0.0538001 0)
(0.000741845 0.0539673 0)
(0.000439258 0.00537165 0)
(0.00131654 0.00542551 0)
(0.00219229 0.00553344 0)
(0.00306628 0.00569603 0)
(0.00393686 0.00591407 0)
(0.00480304 0.00618858 0)
(0.00566378 0.00652084 0)
(0.00651803 0.00691231 0)
(0.00736465 0.00736465 0)
(0.00820246 0.00787967 0)
(0.00903017 0.0084593 0)
(0.00984637 0.00910554 0)
(0.0106495 0.00982043 0)
(0.0114379 0.010606 0)
(0.0122097 0.0114642 0)
(0.0129626 0.0123969 0)
(0.0136942 0.0134057 0)
(0.014402 0.0144919 0)
(0.0150828 0.0156567 0)
(0.0157333 0.0169006 0)
(0.0163498 0.0182238 0)
(0.0169282 0.0196259 0)
(0.0174641 0.0211057 0)
(0.0179528 0.0226615 0)
(0.0183891 0.0242905 0)
(0.0187676 0.0259894 0)
(0.0190828 0.0277536 0)
(0.0193287 0.0295776 0)
(0.0194997 0.031455 0)
(0.0195898 0.033378 0)
(0.0195932 0.0353381 0)
(0.0195046 0.0373252 0)
(0.0193188 0.0393286 0)
(0.0190312 0.0413364 0)
(0.018638 0.0433356 0)
(0.018136 0.0453127 0)
(0.0175232 0.0472531 0)
(0.0167985 0.0491419 0)
(0.0159622 0.0509638 0)
(0.0150158 0.0527033 0)
(0.0139622 0.054345 0)
(0.0128059 0.0558736 0)
(0.0115525 0.0572747 0)
(0.0102096 0.0585343 0)
(0.00878565 0.0596398 0)
(0.00729075 0.0605798 0)
(0.00573601 0.0613443 0)
(0.00413329 0.0619252 0)
(0.00249313 0.0623161 0)
(0.000832407 0.0625125 0)
(0.000467909 0.0059492 0)
(0.00140262 0.00601003 0)
(0.00233622 0.00613197 0)
(0.00326879 0.00631567 0)
(0.00419894 0.00656205 0)
(0.00512593 0.00687233 0)
(0.00604897 0.00724798 0)
(0.0069672 0.00769071 0)
(0.00787967 0.00820246 0)
(0.00878536 0.00878536 0)
(0.00968307 0.00944166 0)
(0.0105715 0.0101737 0)
(0.0114491 0.010984 0)
(0.012314 0.0118749 0)
(0.0131644 0.0128487 0)
(0.0139979 0.0139077 0)
(0.0148118 0.0150538 0)
(0.0156031 0.0162889 0)
(0.0163685 0.0176141 0)
(0.017104 0.0190305 0)
(0.0178055 0.0205383 0)
(0.0184681 0.0221373 0)
(0.0190867 0.0238263 0)
(0.0196558 0.0256035 0)
(0.0201693 0.0274661 0)
(0.0206208 0.0294101 0)
(0.0210037 0.0314308 0)
(0.0213111 0.0335219 0)
(0.0215359 0.035676 0)
(0.0216711 0.0378847 0)
(0.0217098 0.0401379 0)
(0.0216453 0.0424244 0)
(0.0214714 0.0447317 0)
(0.0211824 0.0470461 0)
(0.0207735 0.0493528 0)
(0.0202407 0.0516358 0)
(0.0195812 0.0538784 0)
(0.0187936 0.0560632 0)
(0.0178776 0.0581723 0)
(0.0168348 0.0601875 0)
(0.0156683 0.0620906 0)
(0.0143829 0.0638638 0)
(0.0129851 0.0654901 0)
(0.0114833 0.066953 0)
(0.00988745 0.0682375 0)
(0.00820901 0.0693301 0)
(0.00646088 0.070219 0)
(0.00465689 0.0708946 0)
(0.00280959 0.0713493 0)
(0.000938246 0.0715778 0)
(0.000500096 0.00650922 0)
(0.00149931 0.00657722 0)
(0.00249793 0.00671352 0)
(0.00349637 0.0069189 0)
(0.00449352 0.00719441 0)
(0.00548896 0.00754144 0)
(0.00648216 0.00796171 0)
(0.00747251 0.00845721 0)
(0.0084593 0.00903017 0)
(0.00944166 0.00968307 0)
(0.0104185 0.0104185 0)
(0.0113887 0.0112394 0)
(0.0123507 0.0121484 0)
(0.0133026 0.0131484 0)
(0.0142425 0.0142423 0)
(0.0151677 0.0154327 0)
(0.0160754 0.016722 0)
(0.0169623 0.0181123 0)
(0.0178244 0.0196053 0)
(0.0186575 0.0212024 0)
(0.0194565 0.022904 0)
(0.0202162 0.02471 0)
(0.0209304 0.0266196 0)
(0.0215926 0.0286307 0)
(0.0221957 0.0307404 0)
(0.0227323 0.0329446 0)
(0.0231945 0.0352379 0)
(0.023574 0.0376136 0)
(0.0238625 0.0400634 0)
(0.0240516 0.0425777 0)
(0.0241329 0.0451454 0)
(0.0240984 0.0477538 0)
(0.0239405 0.0503886 0)
(0.0236523 0.0530342 0)
(0.0232276 0.0556735 0)
(0.0226616 0.0582884 0)
(0.0219506 0.0608595 0)
(0.0210924 0.0633665 0)
(0.0200864 0.0657888 0)
(0.0189341 0.0681052 0)
(0.0176386 0.0702945 0)
(0.0162053 0.0723359 0)
(0.0146417 0.0742093 0)
(0.012957 0.0758956 0)
(0.0111628 0.077377 0)
(0.0092723 0.0786377 0)
(0.00730052 0.0796638 0)
(0.00526353 0.0804438 0)
(0.0031763 0.0809689 0)
(0.0010609 0.0812328 0)
(0.000535911 0.00705016 0)
(0.00160692 0.00712551 0)
(0.00267789 0.00727655 0)
(0.00374968 0.00750418 0)
(0.00482149 0.00780959 0)
(0.00589324 0.0081944 0)
(0.00696473 0.00866055 0)
(0.00803565 0.00921035 0)
(0.00910554 0.00984637 0)
(0.0101737 0.0105715 0)
(0.0112394 0.0113887 0)
(0.0123013 0.0123013 0)
(0.0133581 0.0133126 0)
(0.014408 0.0144259 0)
(0.0154487 0.0156445 0)
(0.0164775 0.0169716 0)
(0.0174914 0.0184101 0)
(0.0184865 0.0199626 0)
(0.0194586 0.0216313 0)
(0.0204027 0.0234178 0)
(0.0213131 0.0253231 0)
(0.0221837 0.0273473 0)
(0.0230074 0.0294896 0)
(0.0237767 0.0317481 0)
(0.0244833 0.03412 0)
(0.0251184 0.0366007 0)
(0.0256727 0.0391845 0)
(0.0261366 0.041864 0)
(0.0265001 0.0446304 0)
(0.0267532 0.0474728 0)
(0.0268858 0.0503789 0)
(0.0268884 0.0533343 0)
(0.0267517 0.056323 0)
(0.0264673 0.0593274 0)
(0.0260277 0.0623281 0)
(0.0254266 0.0653041 0)
(0.0246594 0.0682334 0)
(0.0237229 0.0710927 0)
(0.0226163 0.073858 0)
(0.0213405 0.0765049 0)
(0.019899 0.0790088 0)
(0.0182977 0.0813455 0)
(0.0165448 0.0834915 0)
(0.014651 0.0854244 0)
(0.0126296 0.0871236 0)
(0.0104958 0.0885703 0)
(0.00826699 0.0897483 0)
(0.005962 0.0906441 0)
(0.0035986 0.0912472 0)
(0.00120216 0.0915505 0)
(0.000575445 0.00757052 0)
(0.00172571 0.0076534 0)
(0.00287659 0.00781956 0)
(0.0040294 0.00806999 0)
(0.00518374 0.00840608 0)
(0.00633992 0.00882966 0)
(0.00749811 0.00934296 0)
(0.00865833 0.00994859 0)
(0.00982043 0.0106495 0)
(0.010984 0.0114491 0)
(0.0121484 0.0123507 0)
(0.0133126 0.0133581 0)
(0.0144752 0.0144752 0)
(0.0156345 0.0157059 0)
(0.0167881 0.0170541 0)
(0.0179333 0.0185234 0)
(0.0190664 0.0201175 0)
(0.0201835 0.0218394 0)
(0.0212796 0.023692 0)
(0.0223492 0.0256773 0)
(0.023386 0.0277967 0)
(0.0243827 0.0300508 0)
(0.0253312 0.032439 0)
(0.026223 0.0349596 0)
(0.0270483 0.0376096 0)
(0.0277968 0.0403846 0)
(0.0284579 0.0432783 0)
(0.0290199 0.0462829 0)
(0.0294713 0.0493887 0)
(0.0298001 0.0525838 0)
(0.0299944 0.0558546 0)
(0.0300426 0.0591851 0)
(0.0299337 0.0625574 0)
(0.0296573 0.0659515 0)
(0.0292043 0.0693455 0)
(0.028567 0.0727157 0)
(0.0277392 0.0760369 0)
(0.026717 0.0792825 0)
(0.0254986 0.0824247 0)
(0.0240849 0.0854356 0)
(0.0224792 0.0882866 0)
(0.020688 0.0909496 0)
(0.0187206 0.0933973 0)
(0.0165891 0.0956037 0)
(0.0143087 0.0975445 0)
(0.011897 0.099198 0)
(0.00937431 0.100545 0)
(0.0067625 0.10157 0)
(0.00408269 0.10226 0)
(0.00136411 0.102607 0)
(0.00061879 0.00806884 0)
(0.00185596 0.00815942 0)
(0.00309448 0.00834104 0)
(0.0043362 0.00861482 0)
(0.00558116 0.00898233 0)
(0.00683011 0.00944564 0)
(0.00808367 0.0100073 0)
(0.00934223 0.0106703 0)
(0.010606 0.0114379 0)
(0.0118749 0.012314 0)
(0.0131484 0.0133026 0)
(0.0144259 0.014408 0)
(0.0157059 0.0156345 0)
(0.0169868 0.0169868 0)
(0.0182662 0.0184694 0)
(0.0195409 0.0200866 0)
(0.0208074 0.0218427 0)
(0.022061 0.0237416 0)
(0.0232964 0.0257865 0)
(0.0245074 0.0279803 0)
(0.0256866 0.0303248 0)
(0.0268259 0.0328211 0)
(0.0279162 0.035469 0)
(0.0289473 0.0382671 0)
(0.0299083 0.0412126 0)
(0.0307871 0.0443008 0)
(0.0315711 0.0475254 0)
(0.032247 0.050878 0)
(0.032801 0.0543481 0)
(0.033219 0.0579229 0)
(0.0334871 0.0615873 0)
(0.0335912 0.0653238 0)
(0.0335181 0.0691123 0)
(0.0332555 0.0729305 0)
(0.032792 0.0767537 0)
(0.032118 0.0805552 0)
(0.0312261 0.0843062 0)
(0.0301107 0.0879763 0)
(0.0287694 0.091534 0)
(0.0272023 0.0949467 0)
(0.025413 0.0981818 0)
(0.0234084 0.101207 0)
(0.0211989 0.10399 0)
(0.0187983 0.1065 0)
(0.0162239 0.10871 0)
(0.0134962 0.110594 0)
(0.0106387 0.11213 0)
(0.00767683 0.113299 0)
(0.00463573 0.114086 0)
(0.00154915 0.114482 0)
(0.000666027 0.00854369 0)
(0.00199791 0.00864213 0)
(0.00333199 0.00883953 0)
(0.00467069 0.00913715 0)
(0.00601457 0.00953676 0)
(0.00736488 0.0100407 0)
(0.00872273 0.0106518 0)
(0.010089 0.0113735 0)
(0.0114642 0.0122097 0)
(0.0128487 0.0131644 0)
(0.0142423 0.0142425 0)
(0.0156445 0.0154487 0)
(0.0170541 0.0167881 0)
(0.0184694 0.0182662 0)
(0.0198879 0.0198879 0)
(0.0213066 0.0216587 0)
(0.0227214 0.0235834 0)
(0.0241272 0.0256667 0)
(0.0255183 0.0279126 0)
(0.0268875 0.0303248 0)
(0.0282268 0.0329057 0)
(0.0295269 0.035657 0)
(0.0307773 0.0385792 0)
(0.0319666 0.0416711 0)
(0.033082 0.0449302 0)
(0.0341097 0.0483519 0)
(0.0350351 0.0519297 0)
(0.0358426 0.0556549 0)
(0.0365162 0.0595162 0)
(0.0370393 0.0634999 0)
(0.0373952 0.0675895 0)
(0.0375675 0.0717657 0)
(0.0375404 0.0760064 0)
(0.0372988 0.0802867 0)
(0.0368291 0.084579 0)
(0.0361194 0.0888531 0)
(0.0351603 0.0930763 0)
(0.0339448 0.0972142 0)
(0.032469 0.101231 0)
(0.0307327 0.105088 0)
(0.0287391 0.10875 0)
(0.0264957 0.112177 0)
(0.0240141 0.115333 0)
(0.0213098 0.118183 0)
(0.0184028 0.120694 0)
(0.0153167 0.122836 0)
(0.0120787 0.124583 0)
(0.00871859 0.125914 0)
(0.00526603 0.12681 0)
(0.00176007 0.127261 0)
(0.000717231 0.00899365 0)
(0.00215179 0.00910009 0)
(0.0035895 0.00931355 0)
(0.00503343 0.00963544 0)
(0.00648471 0.0100677 0)
(0.00794519 0.0106131 0)
(0.00941651 0.0112747 0)
(0.0109 0.0120564 0)
(0.0123969 0.0129626 0)
(0.0139077 0.0139979 0)
(0.0154327 0.0151677 0)
(0.0169716 0.0164775 0)
(0.0185234 0.0179333 0)
(0.0200866 0.0195409 0)
(0.0216587 0.0213066 0)
(0.0232364 0.0232364 0)
(0.0248154 0.0253361 0)
(0.0263902 0.0276113 0)
(0.0279545 0.0300669 0)
(0.0295004 0.0327074 0)
(0.0310188 0.0355362 0)
(0.0324994 0.0385557 0)
(0.0339303 0.041767 0)
(0.0352983 0.0451696 0)
(0.036589 0.0487613 0)
(0.0377866 0.0525378 0)
(0.0388741 0.0564925 0)
(0.0398335 0.0606164 0)
(0.040646 0.0648977 0)
(0.0412923 0.0693218 0)
(0.0417529 0.0738708 0)
(0.0420081 0.0785236 0)
(0.0420392 0.083256 0)
(0.0418281 0.0880403 0)
(0.0413583 0.0928457 0)
(0.0406153 0.0976382 0)
(0.0395872 0.102381 0)
(0.038265 0.107035 0)
(0.0366435 0.111559 0)
(0.0347213 0.115911 0)
(0.0325014 0.120046 0)
(0.0299919 0.123921 0)
(0.0272053 0.127495 0)
(0.0241595 0.130725 0)
(0.0208771 0.133573 0)
(0.0173854 0.136005 0)
(0.0137159 0.13799 0)
(0.0099035 0.139501 0)
(0.00598314 0.140521 0)
(0.00200008 0.141034 0)
(0.000772464 0.00941733 0)
(0.0023178 0.00953187 0)
(0.00386733 0.0097616 0)
(0.00542489 0.0101081 0)
(0.00699224 0.0105736 0)
(0.00857187 0.011161 0)
(0.0101661 0.011874 0)
(0.0117768 0.0127168 0)
(0.0134057 0.0136942 0)
(0.0150538 0.0148118 0)
(0.016722 0.0160754 0)
(0.0184101 0.0174914 0)
(0.0201175 0.0190664 0)
(0.0218427 0.0208074 0)
(0.0235834 0.0227214 0)
(0.0253361 0.0248154 0)
(0.0270962 0.0270962 0)
(0.0288581 0.0295706 0)
(0.0306145 0.0322445 0)
(0.0323568 0.0351233 0)
(0.0340751 0.0382114 0)
(0.0357577 0.0415124 0)
(0.0373912 0.045028 0)
(0.0389609 0.0487585 0)
(0.0404501 0.0527024 0)
(0.0418409 0.0568557 0)
(0.0431137 0.0612121 0)
(0.0442479 0.0657624 0)
(0.0452216 0.0704944 0)
(0.0460123 0.0753926 0)
(0.046597 0.0804377 0)
(0.0469528 0.0856071 0)
(0.0470571 0.0908742 0)
(0.0468885 0.0962084 0)
(0.046427 0.101575 0)
(0.0456549 0.106937 0)
(0.0445573 0.112253 0)
(0.0431229 0.117477 0)
(0.0413444 0.122564 0)
(0.0392192 0.127464 0)
(0.0367499 0.132127 0)
(0.0339446 0.136504 0)
(0.0308174 0.140544 0)
(0.0273883 0.1442 0)
(0.023683 0.147428 0)
(0.0197331 0.150186 0)
(0.0155751 0.152438 0)
(0.0112497 0.154155 0)
(0.00679812 0.155313 0)
(0.0022729 0.155896 0)
(0.000831771 0.0098133 0)
(0.00249607 0.00993602 0)
(0.00416574 0.0101822 0)
(0.00584543 0.0105535 0)
(0.00753763 0.0110525 0)
(0.00924558 0.0116825 0)
(0.0109722 0.0124474 0)
(0.0127203 0.0133521 0)
(0.0144919 0.014402 0)
(0.0162889 0.0156031 0)
(0.0181123 0.0169623 0)
(0.0199626 0.0184865 0)
(0.0218394 0.0201835 0)
(0.0237416 0.022061 0)
(0.0256667 0.0241272 0)
(0.0276113 0.0263902 0)
(0.0295706 0.0288581 0)
(0.0315385 0.0315385 0)
(0.0335072 0.0344387 0)
(0.0354674 0.0375654 0)
(0.037408 0.0409242 0)
(0.0393159 0.0445197 0)
(0.0411765 0.0483548 0)
(0.0429728 0.0524308 0)
(0.0446863 0.056747 0)
(0.0462963 0.0612999 0)
(0.0477808 0.0660838 0)
(0.0491158 0.0710894 0)
(0.0502761 0.0763044 0)
(0.0512356 0.0817123 0)
(0.0519674 0.0872931 0)
(0.0524446 0.0930221 0)
(0.0526405 0.0988705 0)
(0.0525294 0.104805 0)
(0.0520873 0.110787 0)
(0.0512927 0.116774 0)
(0.0501272 0.122721 0)
(0.0485762 0.128577 0)
(0.0466301 0.134288 0)
(0.0442845 0.139799 0)
(0.0415412 0.145051 0)
(0.0384086 0.149989 0)
(0.0349018 0.154553 0)
(0.0310433 0.158688 0)
(0.0268625 0.162343 0)
(0.0223956 0.165469 0)
(0.017685 0.168024 0)
(0.0127782 0.169973 0)
(0.00772381 0.171288 0)
(0.00258283 0.17195 0)
(0.000895178 0.0101801 0)
(0.00268667 0.0103111 0)
(0.00448484 0.0105737 0)
(0.00629527 0.01097 0)
(0.00812121 0.0115027 0)
(0.00996675 0.0121755 0)
(0.0118357 0.0129927 0)
(0.0137313 0.0139598 0)
(0.0156567 0.0150828 0)
(0.0176141 0.0163685 0)
(0.0196053 0.0178244 0)
(0.0216313 0.0194586 0)
(0.023692 0.0212796 0)
(0.0257865 0.0232964 0)
(0.0279126 0.0255183 0)
(0.0300669 0.0279545 0)
(0.0322445 0.0306145 0)
(0.0344387 0.0335072 0)
(0.0366414 0.0366414 0)
(0.0388424 0.0400251 0)
(0.0410294 0.0436654 0)
(0.0431882 0.0475682 0)
(0.0453023 0.0517377 0)
(0.047353 0.0561767 0)
(0.0493192 0.0608852 0)
(0.0511777 0.065861 0)
(0.0529032 0.0710988 0)
(0.0544684 0.0765897 0)
(0.0558445 0.0823214 0)
(0.057001 0.088277 0)
(0.0579068 0.0944352 0)
(0.0585301 0.10077 0)
(0.0588397 0.10725 0)
(0.0588048 0.113839 0)
(0.0583968 0.120494 0)
(0.0575893 0.12717 0)
(0.0563597 0.133813 0)
(0.0546896 0.140368 0)
(0.0525662 0.146772 0)
(0.0499828 0.152964 0)
(0.04694 0.158876 0)
(0.043446 0.164442 0)
(0.0395172 0.169596 0)
(0.0351787 0.174272 0)
(0.0304638 0.178409 0)
(0.0254141 0.181952 0)
(0.0200789 0.18485 0)
(0.0145134 0.187062 0)
(0.00877506 0.188555 0)
(0.00293488 0.189307 0)
(0.000962687 0.0105164 0)
(0.00288963 0.0106555 0)
(0.00482469 0.0109345 0)
(0.00677445 0.0113558 0)
(0.00874308 0.0119221 0)
(0.0107356 0.0126376 0)
(0.0127566 0.0135073 0)
(0.0148103 0.0145369 0)
(0.0169006 0.0157333 0)
(0.0190305 0.017104 0)
(0.0212024 0.0186575 0)
(0.0234178 0.0204027 0)
(0.0256773 0.0223492 0)
(0.0279803 0.0245074 0)
(0.0303248 0.0268875 0)
(0.0327074 0.0295004 0)
(0.0351233 0.0323568 0)
(0.0375654 0.0354674 0)
(0.0400251 0.0388424 0)
(0.0424914 0.0424914 0)
(0.044951 0.0464232 0)
(0.0473883 0.0506454 0)
(0.049785 0.0551639 0)
(0.0521202 0.0599827 0)
(0.0543706 0.0651036 0)
(0.0565099 0.0705255 0)
(0.0585095 0.076244 0)
(0.0603384 0.0822511 0)
(0.0619633 0.0885345 0)
(0.0633494 0.0950773 0)
(0.0644605 0.101857 0)
(0.0652594 0.108847 0)
(0.0657093 0.116013 0)
(0.0657738 0.123315 0)
(0.0654185 0.130708 0)
(0.0646114 0.13814 0)
(0.0633248 0.145552 0)
(0.0615354 0.152881 0)
(0.0592265 0.160057 0)
(0.0563884 0.167009 0)
(0.0530197 0.17366 0)
(0.0491281 0.179933 0)
(0.0447313 0.18575 0)
(0.0398568 0.191037 0)
(0.0345426 0.195721 0)
(0.0288364 0.199737 0)
(0.0227952 0.203025 0)
(0.0164836 0.205537 0)
(0.00996921 0.207234 0)
(0.00333487 0.208088 0)
(0.00103427 0.0108205 0)
(0.00310486 0.0109676 0)
(0.00518515 0.011263 0)
(0.00728284 0.0117089 0)
(0.00940309 0.0123086 0)
(0.0115519 0.0130666 0)
(0.0137349 0.0139883 0)
(0.0159573 0.0150802 0)
(0.0182238 0.0163498 0)
(0.0205383 0.0178055 0)
(0.022904 0.0194565 0)
(0.0253231 0.0213131 0)
(0.0277967 0.023386 0)
(0.0303248 0.0256866 0)
(0.0329057 0.0282268 0)
(0.0355362 0.0310188 0)
(0.0382114 0.0340751 0)
(0.0409242 0.037408 0)
(0.0436654 0.0410294 0)
(0.0464232 0.044951 0)
(0.0491834 0.0491834 0)
(0.0519289 0.0537361 0)
(0.0546397 0.058617 0)
(0.0572928 0.0638321 0)
(0.059862 0.0693848 0)
(0.0623181 0.0752757 0)
(0.0646288 0.0815018 0)
(0.0667589 0.0880562 0)
(0.0686706 0.0949272 0)
(0.0703238 0.102098 0)
(0.0716765 0.109546 0)
(0.0726857 0.117243 0)
(0.073308 0.125153 0)
(0.0735003 0.133233 0)
(0.0732215 0.141433 0)
(0.072433 0.149696 0)
(0.0711003 0.157956 0)
(0.0691948 0.166144 0)
(0.0666943 0.174179 0)
(0.0635853 0.181981 0)
(0.0598638 0.18946 0)
(0.0555364 0.196529 0)
(0.0506216 0.203096 0)
(0.0451497 0.209075 0)
(0.0391636 0.214381 0)
(0.032718 0.218935 0)
(0.0258789 0.222668 0)
(0.0187218 0.225522 0)
(0.0113265 0.227451 0)
(0.00378962 0.228423 0)
(0.00110988 0.0110908 0)
(0.00333219 0.011246 0)
(0.00556595 0.0115573 0)
(0.00782007 0.0120275 0)
(0.0101008 0.01266 0)
(0.0124152 0.0134598 0)
(0.0147702 0.0144328 0)
(0.0171718 0.0155862 0)
(0.0196259 0.0169282 0)
(0.0221373 0.0184681 0)
(0.02471 0.0202162 0)
(0.0273473 0.0221837 0)
(0.0300508 0.0243827 0)
(0.0328211 0.0268259 0)
(0.035657 0.0295269 0)
(0.0385557 0.0324994 0)
(0.0415124 0.0357577 0)
(0.0445197 0.0393159 0)
(0.0475682 0.0431882 0)
(0.0506454 0.0473883 0)
(0.0537361 0.0519289 0)
(0.0568219 0.0568219 0)
(0.0598809 0.0620775 0)
(0.062888 0.0677039 0)
(0.0658142 0.0737068 0)
(0.0686269 0.0800888 0)
(0.07129 0.086849 0)
(0.0737638 0.0939818 0)
(0.0760053 0.101477 0)
(0.0779686 0.109318 0)
(0.0796055 0.117483 0)
(0.0808658 0.125941 0)
(0.0816988 0.134656 0)
(0.0820538 0.143582 0)
(0.0818814 0.152665 0)
(0.0811351 0.161841 0)
(0.0797728 0.171039 0)
(0.0777583 0.180179 0)
(0.0750634 0.189172 0)
(0.0716691 0.197924 0)
(0.0675678 0.206335 0)
(0.0627645 0.214301 0)
(0.0572777 0.221718 0)
(0.0511408 0.228483 0)
(0.0444019 0.234496 0)
(0.0371237 0.239664 0)
(0.0293827 0.243907 0)
(0.0212669 0.247154 0)
(0.0128706 0.24935 0)
(0.00430714 0.250457 0)
(0.00118941 0.0113259 0)
(0.00357135 0.0114888 0)
(0.00596664 0.0118157 0)
(0.00838552 0.0123094 0)
(0.0108354 0.0129739 0)
(0.0133247 0.0138145 0)
(0.0158613 0.0148376 0)
(0.0184527 0.0160512 0)
(0.0211057 0.0174641 0)
(0.0238263 0.0190867 0)
(0.0266196 0.0209304 0)
(0.0294896 0.0230074 0)
(0.032439 0.0253312 0)
(0.035469 0.0279162 0)
(0.0385792 0.0307773 0)
(0.041767 0.0339303 0)
(0.045028 0.0373912 0)
(0.0483548 0.0411765 0)
(0.0517377 0.0453023 0)
(0.0551639 0.049785 0)
(0.058617 0.0546397 0)
(0.0620775 0.0598809 0)
(0.0655217 0.0655217 0)
(0.0689221 0.0715728 0)
(0.0722469 0.0780428 0)
(0.0754603 0.0849368 0)
(0.0785218 0.0922564 0)
(0.0813868 0.0999982 0)
(0.0840069 0.108154 0)
(0.0863297 0.116708 0)
(0.0882999 0.125639 0)
(0.0898594 0.134916 0)
(0.090949 0.144502 0)
(0.0915089 0.154347 0)
(0.0914803 0.164394 0)
(0.0908071 0.174573 0)
(0.0894379 0.184806 0)
(0.0873274 0.195002 0)
(0.0844394 0.205063 0)
(0.0807482 0.21488 0)
(0.076241 0.224339 0)
(0.0709199 0.23332 0)
(0.0648033 0.241701 0)
(0.0579272 0.249361 0)
(0.0503453 0.256182 0)
(0.0421295 0.262056 0)
(0.0333681 0.266883 0)
(0.0241644 0.270581 0)
(0.0146297 0.273085 0)
(0.00489686 0.274348 0)
(0.00127274 0.011524 0)
(0.00382196 0.0116943 0)
(0.00638658 0.0120361 0)
(0.0089783 0.0125526 0)
(0.0116058 0.0132478 0)
(0.0142789 0.0141277 0)
(0.0170068 0.0151992 0)
(0.0197983 0.016471 0)
(0.0226615 0.0179528 0)
(0.0256035 0.0196558 0)
(0.0286307 0.0215926 0)
(0.0317481 0.0237767 0)
(0.0349596 0.026223 0)
(0.0382671 0.0289473 0)
(0.0416711 0.0319666 0)
(0.0451696 0.0352983 0)
(0.0487585 0.0389609 0)
(0.0524308 0.0429728 0)
(0.0561767 0.047353 0)
(0.0599827 0.0521202 0)
(0.0638321 0.0572928 0)
(0.0677039 0.062888 0)
(0.0715728 0.0689221 0)
(0.0754091 0.0754091 0)
(0.0791782 0.0823609 0)
(0.0828405 0.0897858 0)
(0.0863514 0.0976885 0)
(0.0896611 0.106069 0)
(0.0927149 0.11492 0)
(0.0954537 0.12423 0)
(0.0978139 0.133977 0)
(0.099729 0.144133 0)
(0.10113 0.154657 0)
(0.101946 0.1655 0)
(0.102107 0.176598 0)
(0.101547 0.187878 0)
(0.100202 0.199252 0)
(0.0980155 0.210622 0)
(0.0949416 0.221874 0)
(0.0909456 0.232887 0)
(0.0860081 0.243528 0)
(0.0801266 0.253658 0)
(0.0733185 0.263136 0)
(0.0656218 0.271818 0)
(0.0570966 0.279566 0)
(0.0478245 0.28625 0)
(0.0379082 0.291751 0)
(0.0274684 0.295971 0)
(0.0166368 0.29883 0)
(0.00556998 0.300273 0)
(0.00135968 0.0116834 0)