/*--------------------------------*- C++ -*----------------------------------*\
| =========                 |                                                 |
| \\      /  F ield         | OpenFOAM: The Open Source CFD Toolbox           |
|  \\    /   O peration     | Version:  2406                                  |
|   \\  /    A nd           | Website:  www.openfoam.com                      |
|    \\/     M anipulation  |                                                 |
\*---------------------------------------------------------------------------*/
FoamFile
{
    version     2.0;
    format      ascii;
    arch        "LSB;label=32;scalar=64";
    class       volScalarField;
    location    "1.2";
    object      gradTx;
}
// * * * * * * * * * * * * * * * * * * * * * * * * * * * * * * * * * * * * * //

dimensions      [0 -1 0 1 0 0 0];

internalField   nonuniform List<scalar> 
2500
(
0.00327907
0.00982016
0.0163305
0.0227973
0.0291945
0.0355033
0.0417052
0.047782
0.0537165
0.059492
0.0650922
0.0705016
0.0757052
0.0806884
0.0854369
0.0899365
0.0941733
0.098133
0.101801
0.105164
0.108205
0.110908
0.113259
0.11524
0.116834
0.118022
0.118788
0.119113
0.11898
0.118372
0.117272
0.115667
0.113545
0.110894
0.107709
0.103985
0.0997237
0.0949294
0.089612
0.083786
0.0774715
0.070694
0.0634842
0.0558781
0.0479167
0.0396453
0.0311133
0.0223733
0.0134814
0.00450236
0.00330892
0.00991067
0.0164823
0.0230105
0.0294702
0.0358426
0.0421093
0.0482525
0.0542551
0.0601003
0.0657722
0.0712551
0.076534
0.0815942
0.0864213
0.0910009
0.0953187
0.0993602
0.103111
0.106555
0.109676
0.11246
0.114888
0.116943
0.118607
0.119861
0.120686
0.121064
0.120976
0.120403
0.11933
0.11774
0.11562
0.11296
0.109752
0.105991
0.101678
0.0968176
0.0914188
0.0854965
0.0790713
0.0721688
0.0648208
0.0570642
0.0489412
0.0404986
0.0317874
0.0228602
0.0137669
0.00459229
0.00336958
0.0100927
0.0167862
0.0234377
0.0300225
0.0365223
0.0429191
0.0491954
0.0553344
0.0613197
0.0671352
0.0727655
0.0781956
0.0834104
0.0883953
0.0931355
0.097616
0.101822
0.105737
0.109345
0.11263
0.115573
0.118157
0.120361
0.122167
0.123553
0.124498
0.124983
0.124985
0.124485
0.123465
0.121906
0.119793
0.117115
0.113861
0.110026
0.10561
0.100617
0.0950545
0.088939
0.082291
0.0751374
0.0675114
0.059452
0.0510036
0.0422164
0.0331449
0.0238461
0.0143639
0.0047904
0.00346074
0.0103664
0.0172436
0.0240808
0.0308541
0.0375458
0.0441386
0.0506156
0.0569603
0.0631567
0.069189
0.0750418
0.0806999
0.0861482
0.0913715
0.0963544
0.101081
0.105535
0.1097
0.113558
0.117089
0.120275
0.123094
0.125526
0.127546
0.129133
0.130261
0.130908
0.131049
0.130661
0.129722
0.128212
0.126111
0.123406
0.120085
0.11614
0.111569
0.106375
0.100566
0.0941589
0.0871741
0.0796404
0.0715933
0.0630746
0.0541326
0.0448216
0.0352008
0.0253323
0.0152626
0.00509077
0.00358284
0.0107331
0.0178565
0.0249428
0.0319688
0.0389179
0.0457736
0.0525198
0.0591407
0.0656205
0.0719441
0.0780959
0.0840608
0.0898233
0.0953676
0.100677
0.105736
0.110525
0.115027
0.119221
0.123086
0.1266
0.129739
0.132478
0.134791
0.136651
0.138029
0.138897
0.139228
0.138994
0.138168
0.136725
0.134645
0.131907
0.128497
0.124406
0.119628
0.114165
0.108025
0.101224
0.0937851
0.0857382
0.0771218
0.0679818
0.0583713
0.0483504
0.0379845
0.0273424
0.0164775
0.00549703
0.00373641
0.0111943
0.0186276
0.0260271
0.0333713
0.0406444
0.0478314
0.0549168
0.0618858
0.0687233
0.0754144
0.081944
0.0882966
0.0944564
0.100407
0.106131
0.11161
0.116825
0.121755
0.126376
0.130666
0.134598
0.138145
0.141277
0.143964
0.146173
0.147871
0.149026
0.149602
0.149567
0.148889
0.147539
0.145488
0.142713
0.139195
0.134922
0.129885
0.124083
0.117526
0.110227
0.102212
0.0935125
0.0841721
0.0742411
0.0637789
0.0528525
0.0415358
0.0299063
0.0180267
0.00601508
0.00392207
0.011752
0.0195598
0.0273384
0.0350674
0.0427329
0.0503208
0.0578173
0.0652084
0.0724798
0.0796171
0.0866055
0.0934296
0.100073
0.106518
0.112747
0.11874
0.124474
0.129927
0.135073
0.139883
0.144328
0.148376
0.151992
0.15514
0.157782
0.159878
0.161388
0.162271
0.162487
0.161998
0.160766
0.158759
0.155946
0.152303
0.147813
0.142464
0.136254
0.129189
0.121283
0.112564
0.103068
0.0928403
0.0819389
0.0704306
0.0583913
0.0459053
0.033061
0.0199327
0.00665247
0.00414053
0.0124082
0.0206569
0.0288817
0.037064
0.0451916
0.0532524
0.0612338
0.0691231
0.0769071
0.0845721
0.0921035
0.0994859
0.106703
0.113735
0.120564
0.127168
0.133521
0.139598
0.145369
0.150802
0.155862
0.160512
0.16471
0.168414
0.171578
0.174155
0.176097
0.177355
0.177881
0.177626
0.176547
0.174602
0.171754
0.167972
0.163232
0.15752
0.150828
0.143162
0.134537
0.12498
0.114532
0.103244
0.0911813
0.0784192
0.065045
0.0511551
0.0368517
0.0222233
0.00741845
0.00439258
0.0131654
0.0219229
0.0306628
0.0393686
0.0480304
0.0566378
0.0651803
0.0736465
0.0820246
0.0903017
0.0984637
0.106495
0.114379
0.122097
0.129626
0.136942
0.14402
0.150828
0.157333
0.163498
0.169282
0.174641
0.179528
0.183891
0.187676
0.190828
0.193287
0.194997
0.195898
0.195932
0.195046
0.193188
0.190312
0.18638
0.18136
0.175232
0.167985
0.159622
0.150158
0.139622
0.128059
0.115525
0.102096
0.0878565
0.0729075
0.0573601
0.0413329
0.0249313
0.00832407
0.00467909
0.0140262
0.0233622
0.0326879
0.0419894
0.0512593
0.0604897
0.069672
0.0787967
0.0878536
0.0968307
0.105715
0.114491
0.12314
0.131644
0.139979
0.148118
0.156031
0.163685
0.17104
0.178055
0.184681
0.190867
0.196558
0.201693
0.206208
0.210037
0.213111
0.215359
0.216711
0.217098
0.216453
0.214714
0.211824
0.207735
0.202407
0.195812
0.187936
0.178776
0.168348
0.156683
0.143829
0.129851
0.114833
0.0988745
0.0820901
0.0646088
0.0465689
0.0280959
0.00938246
0.00500096
0.0149931
0.0249793
0.0349637
0.0449352
0.0548896
0.0648216
0.0747251
0.084593
0.0944166
0.104185
0.113887
0.123507
0.133026
0.142425
0.151677
0.160754
0.169623
0.178244
0.186575
0.194565
0.202162
0.209304
0.215926
0.221957
0.227323
0.231945
0.23574
0.238625
0.240516
0.241329
0.240984
0.239405
0.236523
0.232276
0.226616
0.219506
0.210924
0.200864
0.189341
0.176386
0.162053
0.146417
0.12957
0.111628
0.092723
0.0730052
0.0526353
0.031763
0.010609
0.00535911
0.0160692
0.0267789
0.0374968
0.0482149
0.0589324
0.0696473
0.0803565
0.0910554
0.101737
0.112394
0.123013
0.133581
0.14408
0.154487
0.164775
0.174914
0.184865
0.194586
0.204027
0.213131
0.221837
0.230074
0.237767
0.244833
0.251184
0.256727
0.261366
0.265001
0.267532
0.268858
0.268884
0.267517
0.264673
0.260277
0.254266
0.246594
0.237229
0.226163
0.213405
0.19899
0.182977
0.165448
0.14651
0.126296
0.104958
0.0826699
0.05962
0.035986
0.0120216
0.00575445
0.0172571
0.0287659
0.040294
0.0518374
0.0633992
0.0749811
0.0865833
0.0982043
0.10984
0.121484
0.133126
0.144752
0.156345
0.167881
0.179333
0.190664
0.201835
0.212796
0.223492
0.23386
0.243827
0.253312
0.26223
0.270483
0.277968
0.284579
0.290199
0.294713
0.298001
0.299944
0.300426
0.299337
0.296573
0.292043
0.28567
0.277392
0.26717
0.254986
0.240849
0.224792
0.20688
0.187206
0.165891
0.143087
0.11897
0.0937431
0.067625
0.0408269
0.0136411
0.0061879
0.0185596
0.0309448
0.043362
0.0558116
0.0683011
0.0808367
0.0934223
0.10606
0.118749
0.131484
0.144259
0.157059
0.169868
0.182662
0.195409
0.208074
0.22061
0.232964
0.245074
0.256866
0.268259
0.279162
0.289473
0.299083
0.307871
0.315711
0.32247
0.32801
0.33219
0.334871
0.335912
0.335181
0.332555
0.32792
0.32118
0.312261
0.301107
0.287694
0.272023
0.25413
0.234084
0.211989
0.187983
0.162239
0.134962
0.106387
0.0767683
0.0463573
0.0154915
0.00666027
0.0199791
0.0333199
0.0467069
0.0601457
0.0736488
0.0872273
0.10089
0.114642
0.128487
0.142423
0.156445
0.170541
0.184694
0.198879
0.213066
0.227214
0.241272
0.255183
0.268875
0.282268
0.295269
0.307773
0.319666
0.33082
0.341097
0.350351
0.358426
0.365162
0.370393
0.373952
0.375675
0.375404
0.372988
0.368291
0.361194
0.351603
0.339448
0.32469
0.307327
0.287391
0.264957
0.240141
0.213098
0.184028
0.153167
0.120787
0.0871859
0.0526603
0.0176007
0.00717231
0.0215179
0.035895
0.0503343
0.0648471
0.0794519
0.0941651
0.109
0.123969
0.139077
0.154327
0.169716
0.185234
0.200866
0.216587
0.232364
0.248154
0.263902
0.279545
0.295004
0.310188
0.324994
0.339303
0.352983
0.36589
0.377866
0.388741
0.398335
0.40646
0.412923
0.417529
0.420081
0.420392
0.418281
0.413583
0.406153
0.395872
0.38265
0.366435
0.347213
0.325014
0.299919
0.272053
0.241595
0.208771
0.173854
0.137159
0.099035
0.0598314
0.0200008
0.00772464
0.023178
0.0386733
0.0542489
0.0699224
0.0857187
0.101661
0.117768
0.134057
0.150538
0.16722
0.184101
0.201175
0.218427
0.235834
0.253361
0.270962
0.288581
0.306145
0.323568
0.340751
0.357577
0.373912
0.389609
0.404501
0.418409
0.431137
0.442479
0.452216
0.460123
0.46597
0.469528
0.470571
0.468885
0.46427
0.456549
0.445573
0.431229
0.413444
0.392192
0.367499
0.339446
0.308174
0.273883
0.23683
0.197331
0.155751
0.112497
0.0679812
0.022729
0.00831771
0.0249607
0.0416574
0.0584543
0.0753763
0.0924558
0.109722
0.127203
0.144919
0.162889
0.181123
0.199626
0.218394
0.237416
0.256667
0.276113
0.295706
0.315385
0.335072
0.354674
0.37408
0.393159
0.411765
0.429728
0.446863
0.462963
0.477808
0.491158
0.502761
0.512356
0.519674
0.524446
0.526405
0.525294
0.520873
0.512927
0.501272
0.485762
0.466301
0.442845
0.415412
0.384086
0.349018
0.310433
0.268625
0.223956
0.17685
0.127782
0.0772381
0.0258283
0.00895178
0.0268667
0.0448484
0.0629527
0.0812121
0.0996675
0.118357
0.137313
0.156567
0.176141
0.196053
0.216313
0.23692
0.257865
0.279126
0.300669
0.322445
0.344387
0.366414
0.388424
0.410294
0.431882
0.453023
0.47353
0.493192
0.511777
0.529032
0.544684
0.558445
0.57001
0.579068
0.585301
0.588397
0.588048
0.583968
0.575893
0.563597
0.546896
0.525662
0.499828
0.4694
0.43446
0.395172
0.351787
0.304638
0.254141
0.200789
0.145134
0.0877506
0.0293488
0.00962687
0.0288963
0.0482469
0.0677445
0.0874308
0.107356
0.127566
0.148103
0.169006
0.190305
0.212024
0.234178
0.256773
0.279803
0.303248
0.327074
0.351233
0.375654
0.400251
0.424914
0.44951
0.473883
0.49785
0.521202
0.543706
0.565099
0.585095
0.603384
0.619633
0.633494
0.644605
0.652594
0.657093
0.657738
0.654185
0.646114
0.633248
0.615354
0.592265
0.563884
0.530197
0.491281
0.447313
0.398568
0.345426
0.288364
0.227952
0.164836
0.0996921
0.0333487
0.0103427
0.0310486
0.0518515
0.0728284
0.0940309
0.115519
0.137349
0.159573
0.182238
0.205383
0.22904
0.253231
0.277967
0.303248
0.329057
0.355362
0.382114
0.409242
0.436654
0.464232
0.491834
0.519289
0.546397
0.572928
0.59862
0.623181
0.646288
0.667589
0.686706
0.703238
0.716765
0.726857
0.73308
0.735003
0.732215
0.72433
0.711003
0.691948
0.666943
0.635853
0.598638
0.555364
0.506216
0.451497
0.391636
0.32718
0.258789
0.187218
0.113265
0.0378962
0.0110988
0.0333219
0.0556595
0.0782007
0.101008
0.124152
0.147702
0.171718
0.196259
0.221373
0.2471
0.273473
0.300508
0.328211
0.35657
0.385557
0.415124
0.445197
0.475682
0.506454
0.537361
0.568219
0.598809
0.62888
0.658142
0.686269
0.7129
0.737638
0.760053
0.779686
0.796055
0.808658
0.816988
0.820538
0.818814
0.811351
0.797728
0.777583
0.750634
0.716691
0.675678
0.627645
0.572777
0.511408
0.444019
0.371237
0.293827
0.212669
0.128706
0.0430714
0.0118941
0.0357135
0.0596664
0.0838552
0.108354
0.133247
0.158613
0.184527
0.211057
0.238263
0.266196
0.294896
0.32439
0.35469
0.385792
0.41767
0.45028
0.483548
0.517377
0.551639
0.58617
0.620775
0.655217
0.689221
0.722469
0.754603
0.785218
0.813868
0.840069
0.863297
0.882999
0.898594
0.90949
0.915089
0.914803
0.908071
0.894379
0.873274
0.844394
0.807482
0.76241
0.709199
0.648033
0.579272
0.503453
0.421295
0.333681
0.241644
0.146297
0.0489686
0.0127274
0.0382196
0.0638658
0.089783
0.116058
0.142789
0.170068
0.197983
0.226615
0.256035
0.286307
0.317481
0.349596
0.382671
0.416711
0.451696
0.487585
0.524308
0.561767
0.599827
0.638321
0.677039
0.715728
0.754091
0.791782
0.828405
0.863514
0.896611
0.927149
0.954537
0.978139
0.99729
1.0113
1.01946
1.02107
1.01547
1.00202
0.980155
0.949416
0.909456
0.860081
0.801266
0.733185
0.656218
0.570966
0.478245
0.379082
0.274684
0.166368
0.0556998
0.0135968
0.0408348
0.0682491
0.0959722
0.124105
0.152761
0.182046
0.212063
0.242905
0.274661
0.307404
0.3412
0.376096
0.412126
0.449302
0.487613
0.527024
0.56747
0.608852
0.651036
0.693848
0.737068
0.780428
0.823609
0.866236
0.907879
0.948045
0.986183
1.02168
1.05387
1.08203
1.10539
1.12316
1.1345
1.13859
1.13462
1.12182
1.09949
1.06704
1.02402
0.970127
0.905283
0.829633
0.743573
0.647767
0.543145
0.430894
0.31243
0.189316
0.0633986
0.0145004
0.0435527
0.0728053
0.102407
0.132476
0.163138
0.194519
0.226734
0.259894
0.294101
0.329446
0.366007
0.403846
0.443008
0.483519
0.525378
0.568557
0.612999
0.65861
0.705255
0.752757
0.800888
0.849368
0.897858
0.945957
0.993196
1.03904
1.08288
1.12403
1.16176
1.19522
1.22356
1.24585
1.26111
1.26838
1.26668
1.25507
1.23269
1.19879
1.15277
1.0942
1.02291
0.939013
0.842897
0.735291
0.61725
0.490149
0.355651
0.215614
0.0722253
0.0154352
0.0463652
0.0775211
0.10907
0.141145
0.173892
0.207451
0.241957
0.277536
0.314308
0.352379
0.391845
0.432783
0.475254
0.519297
0.564925
0.612121
0.660838
0.710988
0.76244
0.815018
0.86849
0.922564
0.976885
1.03103
1.08449
1.13669
1.18696
1.23455
1.27863
1.31827
1.35247
1.38017
1.40025
1.41155
1.41291
1.4032
1.38134
1.34638
1.29752
1.2342
1.1561
1.06325
0.956032
0.835239
0.702061
0.558087
0.405274
0.245834
0.0823736
0.0163983
0.0492628
0.0823806
0.115938
0.150086
0.184988
0.220802
0.257683
0.295776
0.335219
0.376136
0.41864
0.462829
0.50878
0.556549
0.606164
0.657624
0.710894
0.765897
0.822511
0.880562
0.939818
0.999982
1.06069
1.12148
1.18184
1.24113
1.29864
1.35353
1.40489
1.45168
1.49278
1.52695
1.5529
1.56928
1.57469
1.56777
1.54718
1.51173
1.46037
1.39232
1.30709
1.20459
1.08517
0.949652
0.799384
0.636206
0.46242
0.280674
0.0940792
0.0173859
0.0522345
0.0873654
0.122985
0.159263
0.196383
0.234523
0.273857
0.31455
0.35676
0.400634
0.446304
0.493887
0.543481
0.595162
0.648977
0.704944
0.763044
0.823214
0.885345
0.949272
1.01477
1.08154
1.1492
1.2173
1.28527
1.35244
1.41806
1.48122
1.54089
1.59595
1.64511
1.68698
1.72006
1.74277
1.75346
1.75046
1.73216
1.69702
1.6437
1.57111
1.47855
1.36573
1.23292
1.08098
0.911407
0.726329
0.528463
0.320985
0.107631
0.0183938
0.0552676
0.0924542
0.130181
0.168638
0.20803
0.248555
0.29041
0.33378
0.378847
0.425777
0.474728
0.525838
0.579229
0.634999
0.693218
0.753926
0.817123
0.88277
0.950773
1.02098
1.09318
1.16708
1.2423
1.31837
1.39471
1.47063
1.5453
1.61776
1.68691
1.75148
1.81004
1.86104
1.90273
1.93329
1.95075
1.95313
1.93841
1.90468
1.85021
1.77352
1.67357
1.54983
1.40242
1.23219
1.0408
0.830691
0.605089
0.367818
0.123386
0.0194173
0.0583481
0.0976235
0.137493
0.178169
0.219876
0.262836
0.307267
0.353381
0.401379
0.451454
0.503789
0.558546
0.615873
0.675895
0.738708
0.804377
0.872931
0.944352
1.01857
1.09546
1.17483
1.25639
1.33977
1.42451
1.51002
1.59558
1.68032
1.76323
1.84311
1.91859
1.98809
2.04984
2.10189
2.1421
2.16818
2.17772
2.16828
2.13746
2.08301
2.00297
1.89583
1.76071
1.59747
1.40692
1.19083
0.952054
0.694396
0.422482
0.14179
0.0204512
0.06146
0.102847
0.144884
0.187806
0.23186
0.277292
0.324345
0.373252
0.424244
0.477538
0.533343
0.591851
0.653238
0.717657
0.785236
0.856071
0.930221
1.0077
1.08847
1.17243
1.25941
1.34916
1.44133
1.53545
1.63095
1.72709
1.82298
1.91756
2.00955
2.09748
2.17962
2.25401
2.31844
2.37045
2.40736
2.42632
2.42433
2.3984
2.34563
2.26343
2.14966
2.00291
1.82267
1.60959
1.36557
1.09386
0.799005
0.486619
0.163402
0.0214898
0.0645864
0.108095
0.152313
0.197496
0.243916
0.291845
0.341547
0.393286
0.447317
0.503886
0.56323
0.625574
0.691123
0.760064
0.83256
0.908742
0.988705
1.0725
1.16013
1.25153
1.34656
1.44502
1.54657
1.65079
1.7571
1.86479
1.97296
2.0805
2.18609
2.28816
2.38485
2.474
2.55315
2.61949
2.66992
2.70105
2.70927
2.69084
2.64208
2.55951
2.44018
2.28191
2.08364
1.8457
1.57006
1.26043
0.922226
0.56231
0.18893
0.0225268
0.0677086
0.113338
0.159736
0.207182
0.255974
0.306407
0.358774
0.413364
0.470461
0.530342
0.593274
0.659515
0.729305
0.802867
0.880403
0.962084
1.04805
1.13839
1.23315
1.33233
1.43582
1.54347
1.655
1.77
1.88797
2.00819
2.12978
2.25164
2.37241
2.49045
2.60378
2.71007
2.8066
2.89023
2.95738
3.00408
3.02598
3.01847
2.97685
2.89655
2.77346
2.60436
2.3873
2.12211
1.81069
1.45725
1.06828
0.652208
0.219282
0.0235559
0.070807
0.118541
0.167105
0.216802
0.267955
0.320885
0.375913
0.433356
0.493528
0.556735
0.623281
0.693455
0.767537
0.84579
0.928457
1.01575
1.10787
1.20494
1.30708
1.41433
1.52665
1.64394
1.76598
1.89245
2.02286
2.15658
2.29277
2.43033
2.56793
2.70387
2.8361
2.96216
3.07909
3.18341
3.27107
3.33746
3.37739
3.38521
3.35498
3.28069
3.15671
2.97829
2.74222
2.44741
2.09554
1.69133
1.24257
0.759733
0.255625
0.02457
0.0738608
0.123671
0.174372
0.226292
0.27978
0.335183
0.39285
0.453127
0.516358
0.582884
0.653041
0.727157
0.805552
0.888531
0.976382
1.06937
1.16774
1.2717
1.3814
1.49696
1.61841
1.74573
1.87878
2.01731
2.16093
2.30909
2.461
2.61565
2.77175
2.92761
3.08117
3.22985
3.37052
3.4994
3.61199
3.703
3.76634
3.79516
3.78198
3.71897
3.59845
3.41354
3.15907
2.83254
2.43501
1.97173
1.45213
0.88932
0.299475
0.025562
0.0768483
0.12869
0.181485
0.235584
0.291363
0.349196
0.40946
0.472531
0.538784
0.608595
0.682334
0.760369
0.843062
0.930763
1.02381
1.12253
1.22721
1.33813
1.45552
1.57956
1.71039
1.84806
1.99252
2.14365
2.30116
2.4646
2.63331
2.8064
2.98265
3.16048
3.33785
3.51218
3.68024
3.83802
3.98061
4.1021
4.19542
4.2524
4.26375
4.21934
4.10876
3.92211
3.6513
3.29148
2.84258
2.31027
1.70613
1.04675
0.352807
0.0265246
0.0797474
0.133562
0.18839
0.244608
0.302616
0.362818
0.425617
0.491419
0.560632
0.633665
0.710927
0.792825
0.879763
0.972142
1.07035
1.17477
1.28577
1.40368
1.52881
1.66144
1.80179
1.95002
2.10622
2.27036
2.44232
2.62178
2.80826
3.00102
3.199
3.4008
3.6045
3.80761
4.00692
4.19833
4.37663
4.53538
4.66661
4.76071
4.80635
4.7906
4.69942
4.5187
4.23591
3.8424
3.33595
2.72253
2.01659
1.23959
0.418193
0.0274502
0.0825354
0.138248
0.195033
0.253292
0.313452
0.375941
0.441191
0.509638
0.581723
0.657888
0.73858
0.824247
0.91534
1.01231
1.11559
1.22564
1.34288
1.46772
1.60057
1.74179
1.89172
2.05063
2.21874
2.39619
2.58301
2.77908
2.98413
3.19762
3.41877
3.64639
3.87883
4.11383
4.34836
4.57838
4.79865
5.00236
5.18081
5.32304
5.41554
5.44208
5.38402
5.22131
4.9347
4.50925
3.93874
3.22923
2.39939
1.47769
0.498961
0.0283314
0.0851899
0.142709
0.20136
0.261567
0.32378
0.388455
0.456051
0.527033
0.601875
0.681052
0.765049
0.854356
0.949467
1.05088
1.15911
1.27464
1.39799
1.52964
1.67009
1.81981
1.97924
2.1488
2.32887
2.51974
2.72165
2.93472
3.1589
3.39397
3.63945
3.89451
4.15788
4.42769
4.70129
4.97501
5.24382
5.50093
5.73725
5.9408
6.09602
6.1831
6.17775
6.05185
5.77588
5.32419
4.68306
3.85821
2.87536
1.7737
0.599327
0.0291608
0.0876884
0.14691
0.207318
0.26936
0.333511
0.400251
0.470066
0.54345
0.620906
0.702945
0.790088
0.882866
0.981818
1.0875
1.20046
1.32127
1.45051
1.58876
1.7366
1.8946
2.06335
2.24339
2.43528
2.6395
2.85651
3.08669
3.3303
3.58746
3.85809
4.14182
4.4379
4.74505
5.06126
5.38351
5.70742
6.02673
6.3326
6.61271
6.85006
7.02156
7.09663
7.03659
6.79638
6.33168
5.61367
4.6472
3.47146
2.1433
0.724391
0.0299311
0.0900093
0.150812
0.212854
0.276604
0.342559
0.411223
0.483108
0.558736
0.638638
0.723359
0.813455
0.909496
1.01207
1.12177
1.23921
1.36504
1.49989
1.64442
1.79933
1.96529
2.14301
2.3332
2.53658
2.75386
2.98572
3.23284
3.49581
3.77517
4.07131
4.38442
4.71442
5.0608
5.42247
5.79744
6.18248
6.57255
6.95999
7.3333
7.67549
7.96156
8.15529
8.20567
8.04508
7.59564
6.79536
5.64749
4.22132
2.60458
0.879749
0.0306356
0.0921318
0.154382
0.217919
0.283233
0.350841
0.42127
0.495056
0.572747
0.654901
0.742093
0.834915
0.933973
1.0399
1.15333
1.27495
1.40544
1.54553
1.69596
1.8575
2.03096
2.21718
2.41701
2.63136
2.86115
3.10733
3.37087
3.65275
3.95394
4.27538
4.61791
4.98225
5.36885
5.77779
6.2085
6.65948
7.1277
7.60786
8.09105
8.56267
8.99909
9.36206
9.58998
9.58639
9.21364
8.32729
6.92816
5.16314
3.17488
1.07021
0.0312678
0.0940366
0.157585
0.222465
0.289183
0.358278
0.430295
0.505794
0.585343
0.66953
0.758956
0.854244
0.956037
1.065
1.18183
1.30725
1.442
1.58688
1.74272
1.91037
2.09075
2.28483
2.49361
2.71818
2.95969
3.21934
3.49842
3.79829
4.12041
4.46629
4.83749
5.23562
5.66225
6.11885
6.60663
7.1263
7.67771
8.25918
8.86646
9.49077
10.1154
10.7087
11.2101
11.5007
11.3485
10.3747
8.57683
6.32959
3.86251
1.29684
0.0318217
0.0957057
0.160392
0.226449
0.294399
0.364798
0.43821
0.515213
0.596398
0.682375
0.77377
0.871236
0.975445
1.0871
1.20694
1.33573
1.47428
1.62343
1.78409
1.95721
2.14381
2.34496
2.56182
2.79566
3.04783
3.31979
3.61314
3.92963
4.27119
4.63993
5.03816
5.46841
5.93348
6.43636
6.98028
7.56856
8.20454
8.89127
9.63102
10.4244
11.2683
12.1521
13.0456
13.8615
14.3083
13.2489
10.677
7.71729
4.6497
1.55193
0.0322922
0.0971235
0.162776
0.229832
0.298829
0.370337
0.444936
0.52322
0.605798
0.693301
0.786377
0.885703
0.99198
1.10594
1.22836
1.36005
1.50186
1.65469
1.81952
1.99737
2.18935
2.39664
2.62056
2.8625
3.12401
3.40681
3.71278
4.04404
4.40296
4.79223
5.21488
5.67441
6.17477
6.72056
7.31706
7.97037
8.68758
9.47696
10.3482
11.3132
12.3868
13.5906
14.963
16.5953
18.7777
17.6384
13.1671
9.21431
5.46803
1.81358
0.032675
0.0982768
0.164715
0.232583
0.30243
0.374839
0.450403
0.529729
0.613443
0.70219
0.796638
0.897483
1.00545
1.1213
1.24583
1.3799
1.52438
1.68024
1.8485
2.03025
2.22668
2.43907
2.66883
2.91751
3.18683
3.4787
3.79527
4.13898
4.51261
4.91935
5.36292
5.84764
6.3786
6.96184
7.6046
8.31559
9.10548
9.98743
10.9781
12.0993
13.3806
14.8657
16.6249
18.7831
21.572
20.3627
15.1409
10.5062
6.19549
2.04838
0.0329663
0.0991551
0.16619
0.234672
0.305164
0.378258
0.454555
0.534674
0.619252
0.708946
0.804438
0.906441
1.0157
1.13299
1.25914
1.39501
1.54155
1.69973
1.87062
2.05537
2.25522
2.47154
2.70581
2.95971
3.23508
3.534
3.85883
4.21228
4.59744
5.01795
5.47805
5.98278
6.53816
7.15146
7.83154
8.58931
9.43838
10.3959
11.4839
12.7312
14.1761
15.8716
17.8923
20.3442
23.3679
22.1023
16.5298
11.4757
6.7603
2.23329
0.033162
0.0997497
0.167187
0.236079
0.307004
0.380558
0.457348
0.538001
0.623161
0.713493
0.809689
0.912472
1.0226
1.14086
1.2681
1.40521
1.55313
1.71288
1.88555
2.07234
2.27451
2.4935
2.73085
2.9883
3.2678
3.57154
3.90204
4.26217
4.65528
5.08529
5.55684
6.07547
6.64787
7.28219
7.98846
8.77915
9.66993
10.6807
11.8369
13.1713
14.7266
16.5574
18.7332
21.3373
24.4567
23.1517
17.4023
12.108
7.13767
2.35824
0.0332519
0.100038
0.167685
0.236786
0.307928
0.381713
0.458752
0.539673
0.625125
0.715778
0.812328
0.915505
1.02607
1.14482
1.27261
1.41034
1.55896
1.7195
1.89307
2.08088
2.28423
2.50457
2.74348
3.00273
3.28433
3.59052
3.92389
4.28743
4.68459
5.11945
5.59685
6.12261
6.70375
7.34888
8.06865
8.87633
9.78865
10.8269
12.018
13.3968
15.007
16.9032
19.1503
21.819
24.9735
23.6481
17.822
12.4179
7.32508
2.4207
)
;

boundaryField
{
    walls
    {
        type            calculated;
        value           nonuniform List<scalar> 
200
(
0.0332519
0.100038
0.167685
0.236786
0.307928
0.381713
0.458752
0.539673
0.625125
0.715778
0.812328
0.915505
1.02607
1.14482
1.27261
1.41034
1.55896
1.7195
1.89307
2.08088
2.28423
2.50457
2.74348
3.00273
3.28433
3.59052
3.92389
4.28743
4.68459
5.11945
5.59685
6.12261
6.70375
7.34888
8.06865
8.87633
9.78865
10.8269
12.018
13.3968
15.007
16.9032
19.1503
21.819
24.9735
23.6481
17.822
12.4179
7.32508
2.4207
0
0
0
0
0
0
0
0
0
0
0
0
0
0
0
0
0
0
0
0
0
0
0
0
0
0
0
0
0
0
0
0
0
0
0
0
0
0
0
0
0
0
0
0
0
0
0
0
0
0
0
0
0
0
0
0
0
0
0
0
0
0
0
0
0
0
0
0
0
0
0
0
0
0
0
0
0
0
0
0
0
0
0
0
0
0
0
0
0
0
0
0
0
0
0
0
0
0
0
0
0.00327907
0.00982016
0.0163305
0.0227973
0.0291945
0.0355033
0.0417052
0.047782
0.0537165
0.059492
0.0650922
0.0705016
0.0757052
0.0806884
0.0854369
0.0899365
0.0941733
0.098133
0.101801
0.105164
0.108205
0.110908
0.113259
0.11524
0.116834
0.118022
0.118788
0.119113
0.11898
0.118372
0.117272
0.115667
0.113545
0.110894
0.107709
0.103985
0.0997237
0.0949294
0.089612
0.083786
0.0774715
0.070694
0.0634842
0.0558781
0.0479167
0.0396453
0.0311133
0.0223733
0.0134814
0.00450236
)
;
    }
    frontAndBack
    {
        type            empty;
    }
}


// ************************************************************************* //
