/*--------------------------------*- C++ -*----------------------------------*\
| =========                 |                                                 |
| \\      /  F ield         | OpenFOAM: The Open Source CFD Toolbox           |
|  \\    /   O peration     | Version:  2406                                  |
|   \\  /    A nd           | Website:  www.openfoam.com                      |
|    \\/     M anipulation  |                                                 |
\*---------------------------------------------------------------------------*/
FoamFile
{
    version     2.0;
    format      ascii;
    arch        "LSB;label=32;scalar=64";
    class       volScalarField;
    location    "1.2";
    object      T;
}
// * * * * * * * * * * * * * * * * * * * * * * * * * * * * * * * * * * * * * //

dimensions      [0 0 0 1 0 0 0];

internalField   nonuniform List<scalar> 
2500
(
0.196853
0.196984
0.197246
0.197638
0.198158
0.198805
0.199578
0.200474
0.201489
0.202622
0.203869
0.205226
0.206689
0.208254
0.209917
0.211672
0.213514
0.215439
0.217439
0.219511
0.221646
0.223839
0.226082
0.228369
0.230692
0.233043
0.235413
0.237794
0.240177
0.242553
0.244912
0.247244
0.249539
0.251786
0.253975
0.256094
0.258134
0.260083
0.261931
0.263668
0.265283
0.266767
0.268111
0.269306
0.270346
0.271223
0.271931
0.272467
0.272826
0.273006
0.196984
0.197117
0.197381
0.197776
0.198301
0.198955
0.199735
0.200639
0.201665
0.20281
0.204069
0.20544
0.206919
0.208502
0.210183
0.211959
0.213823
0.215771
0.217798
0.219896
0.22206
0.224283
0.226558
0.228878
0.231236
0.233623
0.23603
0.23845
0.240873
0.243289
0.245689
0.248062
0.250399
0.252687
0.254917
0.257077
0.259157
0.261144
0.263029
0.264801
0.266449
0.267964
0.269336
0.270557
0.271619
0.272514
0.273238
0.273786
0.274153
0.274337
0.197246
0.197381
0.19765
0.198052
0.198587
0.199253
0.200048
0.20097
0.202016
0.203183
0.204469
0.205869
0.207379
0.208997
0.210716
0.212532
0.214441
0.216437
0.218514
0.220667
0.222888
0.225172
0.227511
0.229898
0.232325
0.234785
0.237267
0.239765
0.242267
0.244764
0.247246
0.249703
0.252122
0.254494
0.256807
0.259049
0.261208
0.263273
0.265233
0.267075
0.26879
0.270367
0.271796
0.273067
0.274174
0.275108
0.275863
0.276433
0.276816
0.277008
0.197638
0.197776
0.198052
0.198466
0.199016
0.1997
0.200517
0.201466
0.202542
0.203744
0.205068
0.206512
0.20807
0.20974
0.211516
0.213394
0.21537
0.217438
0.219592
0.221826
0.224134
0.226509
0.228945
0.231433
0.233966
0.236535
0.239131
0.241745
0.244367
0.246987
0.249594
0.252176
0.254722
0.257221
0.259659
0.262024
0.264304
0.266487
0.268559
0.270509
0.272326
0.273996
0.275511
0.27686
0.278034
0.279025
0.279827
0.280433
0.28084
0.281044
0.198158
0.198301
0.198587
0.199016
0.199585
0.200294
0.201142
0.202125
0.203243
0.204491
0.205867
0.207369
0.208991
0.210731
0.212584
0.214546
0.216611
0.218775
0.221032
0.223376
0.225801
0.2283
0.230865
0.233489
0.236164
0.238881
0.24163
0.244402
0.247186
0.249971
0.252746
0.255498
0.258215
0.260884
0.263491
0.266024
0.268467
0.270809
0.273034
0.27513
0.277083
0.278881
0.280513
0.281966
0.283232
0.284301
0.285166
0.28582
0.28626
0.286479
0.198805
0.198955
0.199253
0.1997
0.200294
0.201035
0.20192
0.202948
0.204117
0.205424
0.206866
0.20844
0.210143
0.211972
0.213922
0.215988
0.218167
0.220453
0.22284
0.225323
0.227895
0.23055
0.233279
0.236075
0.23893
0.241834
0.244777
0.247749
0.250738
0.253733
0.256721
0.259688
0.262622
0.265508
0.268331
0.271076
0.273728
0.276271
0.278691
0.280972
0.2831
0.285061
0.28684
0.288427
0.28981
0.290979
0.291924
0.29264
0.29312
0.293361
0.199578
0.199735
0.200048
0.200517
0.201142
0.20192
0.202851
0.203933
0.205164
0.206541
0.208063
0.209726
0.211527
0.213463
0.21553
0.217724
0.22004
0.222473
0.225019
0.227671
0.230422
0.233266
0.236195
0.239201
0.242275
0.245407
0.248586
0.251802
0.255041
0.258292
0.261541
0.264772
0.267972
0.271123
0.274209
0.277215
0.280122
0.282913
0.285572
0.288081
0.290423
0.292584
0.294546
0.296297
0.297824
0.299114
0.300159
0.300951
0.301482
0.301748
0.200474
0.200639
0.20097
0.201466
0.202125
0.202948
0.203933
0.205078
0.206382
0.207843
0.209459
0.211226
0.213143
0.215205
0.217411
0.219755
0.222233
0.224842
0.227574
0.230426
0.233389
0.236458
0.239623
0.242878
0.246212
0.249615
0.253075
0.256581
0.260119
0.263675
0.267234
0.27078
0.274296
0.277764
0.281166
0.284483
0.287695
0.290784
0.293729
0.29651
0.29911
0.301509
0.303691
0.305639
0.307339
0.308776
0.30994
0.310822
0.311414
0.311711
0.201489
0.201665
0.202016
0.202542
0.203243
0.204117
0.205164
0.206382
0.207771
0.209328
0.211052
0.21294
0.214991
0.2172
0.219566
0.222084
0.224751
0.227562
0.230512
0.233595
0.236805
0.240135
0.243576
0.24712
0.250757
0.254476
0.258264
0.262109
0.265996
0.269909
0.273832
0.277746
0.281633
0.285474
0.289246
0.292929
0.2965
0.299938
0.30322
0.306323
0.309226
0.311908
0.314348
0.316529
0.318432
0.320043
0.321349
0.322338
0.323002
0.323335
0.202622
0.20281
0.203183
0.203744
0.204491
0.205424
0.206541
0.207843
0.209328
0.210995
0.212842
0.214868
0.217071
0.219448
0.221997
0.224714
0.227596
0.230638
0.233837
0.237186
0.240679
0.244308
0.248066
0.251943
0.255928
0.26001
0.264176
0.268412
0.272701
0.277026
0.281369
0.28571
0.290027
0.294299
0.2985
0.302608
0.306597
0.310441
0.314114
0.317592
0.320848
0.323859
0.326601
0.329053
0.331194
0.333008
0.334478
0.335592
0.336341
0.336716
0.203869
0.204069
0.204469
0.205068
0.205867
0.206866
0.208063
0.209459
0.211052
0.212842
0.214829
0.21701
0.219384
0.22195
0.224705
0.227647
0.230772
0.234077
0.237557
0.241207
0.24502
0.24899
0.253107
0.257362
0.261744
0.26624
0.270837
0.275518
0.280266
0.285063
0.289887
0.294716
0.299526
0.304292
0.308987
0.313583
0.318052
0.322363
0.326489
0.330398
0.334062
0.337453
0.340544
0.34331
0.345727
0.347775
0.349436
0.350695
0.351542
0.351966
0.205226
0.20544
0.205869
0.206512
0.207369
0.20844
0.209726
0.211226
0.21294
0.214868
0.21701
0.219364
0.22193
0.224707
0.227693
0.230887
0.234284
0.237883
0.241679
0.245667
0.24984
0.254192
0.258714
0.263395
0.268224
0.273188
0.278272
0.283457
0.288726
0.294057
0.299428
0.304812
0.310183
0.315512
0.32077
0.325923
0.33094
0.335787
0.34043
0.344834
0.348966
0.352793
0.356285
0.359411
0.362145
0.364463
0.366344
0.36777
0.368728
0.369209
0.206689
0.206919
0.207379
0.20807
0.208991
0.210143
0.211527
0.213143
0.214991
0.217071
0.219384
0.22193
0.224709
0.22772
0.230963
0.234436
0.238136
0.242062
0.24621
0.250574
0.255149
0.259928
0.264902
0.270061
0.275392
0.28088
0.28651
0.292263
0.298118
0.304052
0.310038
0.31605
0.322055
0.328023
0.333918
0.339705
0.345345
0.350801
0.356032
0.361
0.365666
0.369992
0.373941
0.37748
0.380577
0.383203
0.385335
0.386953
0.38804
0.388586
0.208254
0.208502
0.208997
0.20974
0.210731
0.211972
0.213463
0.215205
0.2172
0.219448
0.22195
0.224707
0.22772
0.23099
0.234515
0.238296
0.242331
0.246619
0.251156
0.255938
0.260959
0.266212
0.271689
0.277379
0.283268
0.289342
0.295583
0.30197
0.308482
0.315091
0.321769
0.328486
0.335206
0.341893
0.348508
0.35501
0.361355
0.3675
0.3734
0.379008
0.38428
0.389173
0.393644
0.397653
0.401163
0.404142
0.406562
0.408398
0.409632
0.410252
0.209917
0.210183
0.210716
0.211516
0.212584
0.213922
0.21553
0.217411
0.219566
0.221997
0.224705
0.227693
0.230963
0.234515
0.238351
0.24247
0.246873
0.251559
0.256524
0.261766
0.267279
0.273057
0.27909
0.285368
0.291877
0.298601
0.305521
0.312615
0.319858
0.327221
0.334673
0.342179
0.3497
0.357195
0.36462
0.371927
0.379068
0.385991
0.392645
0.398979
0.404939
0.410474
0.415537
0.42008
0.424061
0.427441
0.430187
0.432273
0.433675
0.434379
0.211672
0.211959
0.212532
0.213394
0.214546
0.215988
0.217724
0.219755
0.222084
0.224714
0.227647
0.230887
0.234436
0.238296
0.24247
0.24696
0.251765
0.256886
0.262321
0.268068
0.274121
0.280475
0.287121
0.294047
0.30124
0.308683
0.316355
0.324232
0.332288
0.340491
0.348805
0.357192
0.365608
0.374008
0.38234
0.390551
0.398586
0.406386
0.413892
0.421043
0.42778
0.434044
0.439777
0.444926
0.449441
0.453277
0.456395
0.458763
0.460356
0.461156
0.213514
0.213823
0.214441
0.21537
0.216611
0.218167
0.22004
0.222233
0.224751
0.227596
0.230772
0.234284
0.238136
0.242331
0.246873
0.251765
0.257008
0.262603
0.268551
0.274849
0.281494
0.288479
0.295797
0.303436
0.311381
0.319616
0.328118
0.336861
0.345817
0.35495
0.364222
0.373589
0.383003
0.392411
0.401758
0.410982
0.42002
0.428805
0.437269
0.445343
0.452957
0.460043
0.466535
0.47237
0.47749
0.481843
0.485383
0.488073
0.489883
0.490792
0.215439
0.215771
0.216437
0.217438
0.218775
0.220453
0.222473
0.224842
0.227562
0.230638
0.234077
0.237883
0.242062
0.246619
0.251559
0.256886
0.262603
0.268714
0.275219
0.282117
0.289406
0.29708
0.305132
0.313551
0.322321
0.331425
0.34084
0.350537
0.360486
0.370648
0.38098
0.391435
0.401958
0.412491
0.42297
0.433326
0.443487
0.453377
0.462917
0.472029
0.480631
0.488645
0.495995
0.502606
0.508412
0.513351
0.51737
0.520425
0.522481
0.523515
0.217439
0.217798
0.218514
0.219592
0.221032
0.22284
0.225019
0.227574
0.230512
0.233837
0.237557
0.241679
0.24621
0.251156
0.256524
0.262321
0.268551
0.275219
0.282327
0.289875
0.297863
0.306287
0.315139
0.324408
0.33408
0.344136
0.354551
0.365297
0.376338
0.387635
0.399139
0.410797
0.422551
0.434333
0.446073
0.457692
0.469109
0.480236
0.490984
0.501262
0.510977
0.520038
0.528356
0.535845
0.542427
0.548031
0.552593
0.556062
0.558398
0.559572
0.219511
0.219896
0.220667
0.221826
0.223376
0.225323
0.227671
0.230426
0.233595
0.237186
0.241207
0.245667
0.250574
0.255938
0.261766
0.268068
0.274849
0.282117
0.289875
0.298127
0.306872
0.316107
0.325827
0.336021
0.346675
0.35777
0.369279
0.381173
0.393415
0.405959
0.418754
0.431743
0.444858
0.458027
0.471168
0.484194
0.497012
0.509524
0.521626
0.533214
0.544182
0.554422
0.563833
0.572315
0.579776
0.586132
0.59131
0.59525
0.597904
0.599238
0.221646
0.22206
0.222888
0.224134
0.225801
0.227895
0.230422
0.233389
0.236805
0.240679
0.24502
0.24984
0.255149
0.260959
0.267279
0.274121
0.281494
0.289406
0.297863
0.306872
0.316433
0.326545
0.337204
0.348401
0.360121
0.372346
0.385049
0.398197
0.411752
0.425666
0.439882
0.454336
0.468956
0.483659
0.498356
0.512948
0.527329
0.541388
0.555007
0.568066
0.580441
0.592011
0.602656
0.61226
0.620716
0.627925
0.633803
0.638277
0.641292
0.642808
0.223839
0.224283
0.225172
0.226509
0.2283
0.23055
0.233266
0.236458
0.240135
0.244308
0.24899
0.254192
0.259928
0.266212
0.273057
0.280475
0.288479
0.29708
0.306287
0.316107
0.326545
0.337602
0.349274
0.361554
0.374429
0.38788
0.40188
0.416396
0.431385
0.446798
0.462573
0.47864
0.494919
0.51132
0.527741
0.544072
0.560195
0.575981
0.591298
0.606007
0.619966
0.633034
0.645072
0.655945
0.665528
0.673706
0.680377
0.685459
0.688884
0.690607
0.226082
0.226558
0.227511
0.228945
0.230865
0.233279
0.236195
0.239623
0.243576
0.248066
0.253107
0.258714
0.264902
0.271689
0.27909
0.287121
0.295797
0.305132
0.315139
0.325827
0.337204
0.349274
0.362035
0.375483
0.389604
0.404381
0.419788
0.43579
0.452343
0.469393
0.486875
0.504713
0.522819
0.541092
0.559422
0.577684
0.595745
0.61346
0.630676
0.647235
0.662975
0.677732
0.691343
0.703653
0.714514
0.723791
0.731366
0.737138
0.741032
0.74299
0.228369
0.228878
0.229898
0.231433
0.233489
0.236075
0.239201
0.242878
0.24712
0.251943
0.257362
0.263395
0.270061
0.277379
0.285368
0.294047
0.303436
0.313551
0.324408
0.336021
0.348401
0.361554
0.375483
0.390183
0.405646
0.421855
0.438782
0.456395
0.474647
0.493481
0.512828
0.532607
0.55272
0.573058
0.593498
0.613901
0.634117
0.653982
0.673323
0.691959
0.709701
0.726362
0.741752
0.755689
0.768001
0.778528
0.787131
0.793691
0.798118
0.800346
0.230692
0.231236
0.232325
0.233966
0.236164
0.23893
0.242275
0.246212
0.250757
0.255928
0.261744
0.268224
0.275392
0.283268
0.291877
0.30124
0.311381
0.322321
0.33408
0.346675
0.360121
0.374429
0.389604
0.405646
0.422548
0.440296
0.458864
0.478218
0.498311
0.519085
0.540466
0.562366
0.584681
0.607292
0.630061
0.652836
0.675446
0.697708
0.719426
0.74039
0.760386
0.779195
0.796598
0.81238
0.826341
0.838291
0.848066
0.855527
0.860564
0.8631
0.233043
0.233623
0.234785
0.236535
0.238881
0.241834
0.245407
0.249615
0.254476
0.26001
0.26624
0.273188
0.28088
0.289342
0.298601
0.308683
0.319616
0.331425
0.344136
0.35777
0.372346
0.38788
0.404381
0.421855
0.440296
0.459693
0.480024
0.501254
0.523339
0.546216
0.569809
0.594025
0.618752
0.643859
0.669196
0.694594
0.719863
0.744797
0.769171
0.792748
0.815282
0.836516
0.856198
0.874077
0.889914
0.903488
0.914604
0.923094
0.92883
0.931719
0.235413
0.23603
0.237267
0.239131
0.24163
0.244777
0.248586
0.253075
0.258264
0.264176
0.270837
0.278272
0.28651
0.295583
0.305521
0.316355
0.328118
0.34084
0.354551
0.369279
0.385049
0.40188
0.419788
0.438782
0.458864
0.480024
0.502243
0.525491
0.549722
0.574873
0.600867
0.627604
0.654966
0.682811
0.710976
0.739273
0.767492
0.795401
0.822746
0.849256
0.874647
0.898624
0.920891
0.941154
0.959132
0.974563
0.987214
0.996887
1.00343
1.00672
0.237794
0.23845
0.239765
0.241745
0.244402
0.247749
0.251802
0.256581
0.262109
0.268412
0.275518
0.283457
0.292263
0.30197
0.312615
0.324232
0.336861
0.350537
0.365297
0.381173
0.398197
0.416396
0.43579
0.456395
0.478218
0.501254
0.525491
0.5509
0.577437
0.605041
0.633632
0.663108
0.693343
0.724186
0.755459
0.786957
0.818447
0.849668
0.880334
0.910137
0.938749
0.96583
0.991033
1.01401
1.03444
1.052
1.06641
1.07745
1.08491
1.08867
0.240177
0.240873
0.242267
0.244367
0.247186
0.250738
0.255041
0.260119
0.265996
0.272701
0.280266
0.288726
0.298118
0.308482
0.319858
0.332288
0.345817
0.360486
0.376338
0.393415
0.411752
0.431385
0.452343
0.474647
0.498311
0.523339
0.549722
0.577437
0.606444
0.636685
0.66808
0.700523
0.733884
0.768002
0.802686
0.837713
0.872825
0.907731
0.942111
0.975612
1.00786
1.03846
1.067
1.09309
1.11632
1.13632
1.15277
1.16538
1.17391
1.17822
0.242553
0.243289
0.244764
0.246987
0.249971
0.253733
0.258292
0.263675
0.269909
0.277026
0.285063
0.294057
0.304052
0.315091
0.327221
0.340491
0.35495
0.370648
0.387635
0.405959
0.425666
0.446798
0.469393
0.493481
0.519085
0.546216
0.574873
0.605041
0.636685
0.669751
0.704162
0.73981
0.776563
0.814252
0.852673
0.891583
0.930703
0.969709
1.00824
1.0459
1.08225
1.11684
1.14919
1.17883
1.20529
1.22812
1.24692
1.26135
1.27112
1.27606
0.244912
0.245689
0.247246
0.249594
0.252746
0.256721
0.261541
0.267234
0.273832
0.281369
0.289887
0.299428
0.310038
0.321769
0.334673
0.348805
0.364222
0.38098
0.399139
0.418754
0.439882
0.462573
0.486875
0.512828
0.540466
0.569809
0.600867
0.633632
0.66808
0.704162
0.741804
0.780905
0.821328
0.862899
0.905403
0.948583
0.992131
1.03569
1.07886
1.12119
1.16218
1.20131
1.23802
1.27174
1.30191
1.32801
1.34955
1.3661
1.37732
1.383
0.247244
0.248062
0.249703
0.252176
0.255498
0.259688
0.264772
0.27078
0.277746
0.28571
0.294716
0.304812
0.31605
0.328486
0.342179
0.357192
0.373589
0.391435
0.410797
0.431743
0.454336
0.47864
0.504713
0.532607
0.562366
0.594025
0.627604
0.663108
0.700523
0.73981
0.780905
0.82371
0.86809
0.91387
0.960827
1.00869
1.05712
1.10574
1.15409
1.20168
1.24792
1.29221
1.33391
1.37233
1.40681
1.43671
1.46144
1.48047
1.4934
1.49993
0.249539
0.250399
0.252122
0.254722
0.258215
0.262622
0.267972
0.274296
0.281633
0.290027
0.299526
0.310183
0.322055
0.335206
0.3497
0.365608
0.383003
0.401958
0.422551
0.444858
0.468956
0.494919
0.522819
0.55272
0.584681
0.618752
0.654966
0.693343
0.733884
0.776563
0.821328
0.86809
0.916722
0.96705
1.01885
1.07183
1.12564
1.17987
1.23402
1.28751
1.3397
1.38989
1.43731
1.48116
1.52065
1.55499
1.58345
1.60541
1.62034
1.6279
0.251786
0.252687
0.254494
0.257221
0.260884
0.265508
0.271123
0.277764
0.285474
0.294299
0.304292
0.315512
0.328023
0.341893
0.357195
0.374008
0.392411
0.412491
0.434333
0.458027
0.483659
0.51132
0.541092
0.573058
0.607292
0.643859
0.682811
0.724186
0.768002
0.814252
0.862899
0.91387
0.96705
1.02227
1.07931
1.13788
1.19761
1.25804
1.31865
1.37878
1.43772
1.49465
1.54866
1.59882
1.64415
1.6837
1.71658
1.74199
1.75931
1.76808
0.253975
0.254917
0.256807
0.259659
0.263491
0.268331
0.274209
0.281166
0.289246
0.2985
0.308987
0.32077
0.333918
0.348508
0.36462
0.38234
0.401758
0.42297
0.446073
0.471168
0.498356
0.527741
0.559422
0.593498
0.630061
0.669196
0.710976
0.755459
0.802686
0.852673
0.905403
0.960827
1.01885
1.07931
1.14201
1.20665
1.27285
1.34015
1.40795
1.47556
1.54215
1.60678
1.66842
1.72592
1.77811
1.82381
1.86193
1.89147
1.91163
1.92186
0.256094
0.257077
0.259049
0.262024
0.266024
0.271076
0.277215
0.284483
0.292929
0.302608
0.313583
0.325923
0.339705
0.35501
0.371927
0.390551
0.410982
0.433326
0.457692
0.484194
0.512948
0.544072
0.577684
0.613901
0.652836
0.694594
0.739273
0.786957
0.837713
0.891583
0.948583
1.00869
1.07183
1.13788
1.20665
1.27786
1.35113
1.42598
1.50178
1.57778
1.65306
1.72654
1.797
1.86308
1.92336
1.97639
2.02076
2.05526
2.07885
2.09083
0.258134
0.259157
0.261208
0.264304
0.268467
0.273728
0.280122
0.287695
0.2965
0.306597
0.318052
0.33094
0.345345
0.361355
0.379068
0.398586
0.42002
0.443487
0.469109
0.497012
0.527329
0.560195
0.595745
0.634117
0.675446
0.719863
0.767492
0.818447
0.872825
0.930703
0.992131
1.05712
1.12564
1.19761
1.27285
1.35113
1.43208
1.51521
1.5999
1.68531
1.77045
1.85408
1.9348
2.01097
2.08085
2.14263
2.19455
2.23504
2.2628
2.27691
0.260083
0.261144
0.263273
0.266487
0.270809
0.276271
0.282913
0.290784
0.299938
0.310441
0.322363
0.335787
0.350801
0.3675
0.385991
0.406386
0.428805
0.453377
0.480236
0.509524
0.541388
0.575981
0.61346
0.653982
0.697708
0.744797
0.795401
0.849668
0.907731
0.969709
1.03569
1.10574
1.17987
1.25804
1.34015
1.42598
1.51521
1.60739
1.70188
1.79782
1.89413
1.98945
2.08211
2.17019
2.25155
2.32389
2.38498
2.43279
2.46565
2.48237
0.261931
0.263029
0.265233
0.268559
0.273034
0.278691
0.285572
0.293729
0.30322
0.314114
0.326489
0.34043
0.356032
0.3734
0.392645
0.413892
0.437269
0.462917
0.490984
0.521626
0.555007
0.591298
0.630676
0.673323
0.719426
0.769171
0.822746
0.880334
0.942111
1.00824
1.07886
1.15409
1.23402
1.31865
1.40795
1.50178
1.5999
1.70188
1.80713
1.9148
2.02375
2.13248
2.23911
2.34134
2.4365
2.52171
2.59405
2.65087
2.69002
2.70998
0.263668
0.264801
0.267075
0.270509
0.27513
0.280972
0.288081
0.29651
0.306323
0.317592
0.330398
0.344834
0.361
0.379008
0.398979
0.421043
0.445343
0.472029
0.501262
0.533214
0.568066
0.606007
0.647235
0.691959
0.74039
0.792748
0.849256
0.910137
0.975612
1.0459
1.12119
1.20168
1.28751
1.37878
1.47556
1.57778
1.68531
1.79782
1.9148
2.03545
2.15864
2.28278
2.40575
2.52485
2.63679
2.73782
2.82411
2.89215
2.93912
2.9631
0.265283
0.266449
0.26879
0.272326
0.277083
0.2831
0.290423
0.29911
0.309226
0.320848
0.334062
0.348966
0.365666
0.38428
0.404939
0.42778
0.452957
0.480631
0.510977
0.544182
0.580441
0.619966
0.662975
0.709701
0.760386
0.815282
0.874647
0.938749
1.00786
1.08225
1.16218
1.24792
1.3397
1.43772
1.54215
1.65306
1.77045
1.89413
2.02375
2.15864
2.29775
2.4395
2.58162
2.72097
2.85347
2.97423
3.07802
3.16012
3.21688
3.24585
0.266767
0.267964
0.270367
0.273996
0.278881
0.285061
0.292584
0.301509
0.311908
0.323859
0.337453
0.352793
0.369992
0.389173
0.410474
0.434044
0.460043
0.488645
0.520038
0.554422
0.592011
0.633034
0.677732
0.726362
0.779195
0.836516
0.898624
0.96583
1.03846
1.11684
1.20131
1.29221
1.38989
1.49465
1.60678
1.72654
1.85408
1.98945
2.13248
2.28278
2.4395
2.60124
2.76571
2.92947
3.08752
3.23329
3.35933
3.45919
3.52818
3.56337
0.268111
0.269336
0.271796
0.275511
0.280513
0.28684
0.294546
0.303691
0.314348
0.326601
0.340544
0.356285
0.373941
0.393644
0.415537
0.439777
0.466535
0.495995
0.528356
0.563833
0.602656
0.645072
0.691343
0.741752
0.796598
0.856198
0.920891
0.991033
1.067
1.14919
1.23802
1.33391
1.43731
1.54866
1.66842
1.797
1.9348
2.08211
2.23911
2.40575
2.58162
2.76571
2.9561
3.14931
3.33956
3.51786
3.67265
3.79499
3.87917
3.92198
0.269306
0.270557
0.273067
0.27686
0.281966
0.288427
0.296297
0.305639
0.316529
0.329053
0.34331
0.359411
0.37748
0.397653
0.42008
0.444926
0.47237
0.502606
0.535845
0.572315
0.61226
0.655945
0.703653
0.755689
0.81238
0.874077
0.941154
1.01401
1.09309
1.17883
1.27174
1.37233
1.48116
1.59882
1.72592
1.86308
2.01097
2.17019
2.34134
2.52485
2.72097
2.92947
3.14931
3.37787
3.60934
3.83181
4.02433
4.17488
4.27751
4.32938
0.270346
0.271619
0.274174
0.278034
0.283232
0.28981
0.297824
0.307339
0.318432
0.331194
0.345727
0.362145
0.380577
0.401163
0.424061
0.449441
0.47749
0.508412
0.542427
0.579776
0.620716
0.665528
0.714514
0.768001
0.826341
0.889914
0.959132
1.03444
1.11632
1.20529
1.30191
1.40681
1.52065
1.64415
1.77811
1.92336
2.08085
2.25155
2.4365
2.63679
2.85347
3.08752
3.33956
3.60934
3.89401
4.18167
4.42397
4.60875
4.73266
4.79474
0.271223
0.272514
0.275108
0.279025
0.284301
0.290979
0.299114
0.308776
0.320043
0.333008
0.347775
0.364463
0.383203
0.404142
0.427441
0.453277
0.481843
0.513351
0.548031
0.586132
0.627925
0.673706
0.723791
0.778528
0.838291
0.903488
0.974563
1.052
1.13632
1.22812
1.32801
1.43671
1.55499
1.6837
1.82381
1.97639
2.14263
2.32389
2.52171
2.73782
2.97423
3.23329
3.51786
3.83181
4.18167
4.58292
4.88721
5.1096
5.25578
5.32832
0.271931
0.273238
0.275863
0.279827
0.285166
0.291924
0.300159
0.30994
0.321349
0.334478
0.349436
0.366344
0.385335
0.406562
0.430187
0.456395
0.485383
0.51737
0.552593
0.59131
0.633803
0.680377
0.731366
0.787131
0.848066
0.914604
0.987214
1.06641
1.15277
1.24692
1.34955
1.46144
1.58345
1.71658
1.86193
2.02076
2.19455
2.38498
2.59405
2.82411
3.07802
3.35933
3.67265
4.02433
4.42397
4.88721
5.23848
5.49284
5.65873
5.74066
0.272467
0.273786
0.276433
0.280433
0.28582
0.29264
0.300951
0.310822
0.322338
0.335592
0.350695
0.36777
0.386953
0.408398
0.432273
0.458763
0.488073
0.520425
0.556062
0.59525
0.638277
0.685459
0.737138
0.793691
0.855527
0.923094
0.996887
1.07745
1.16538
1.26135
1.3661
1.48047
1.60541
1.74199
1.89147
2.05526
2.23504
2.43279
2.65087
2.89215
3.16012
3.45919
3.79499
4.17488
4.60875
5.1096
5.49284
5.77079
5.95187
6.0412
0.272826
0.274153
0.276816
0.28084
0.28626
0.29312
0.301482
0.311414
0.323002
0.336341
0.351542
0.368728
0.38804
0.409632
0.433675
0.460356
0.489883
0.522481
0.558398
0.597904
0.641292
0.688884
0.741032
0.798118
0.860564
0.92883
1.00343
1.08491
1.17391
1.27112
1.37732
1.4934
1.62034
1.75931
1.91163
2.07885
2.2628
2.46565
2.69002
2.93912
3.21688
3.52818
3.87917
4.27751
4.73266
5.25578
5.65873
5.95187
6.14305
6.23738
0.273006
0.274337
0.277008
0.281044
0.286479
0.293361
0.301748
0.311711
0.323335
0.336716
0.351966
0.369209
0.388586
0.410252
0.434379
0.461156
0.490792
0.523515
0.559572
0.599238
0.642808
0.690607
0.74299
0.800346
0.8631
0.931719
1.00672
1.08867
1.17822
1.27606
1.383
1.49993
1.6279
1.76808
1.92186
2.09083
2.27691
2.48237
2.70998
2.9631
3.24585
3.56337
3.92198
4.32938
4.79474
5.32832
5.74066
6.0412
6.23738
6.33421
)
;

boundaryField
{
    walls
    {
        type            zeroGradient;
    }
    frontAndBack
    {
        type            empty;
    }
}


// ************************************************************************* //
