/*--------------------------------*- C++ -*----------------------------------*\
| =========                 |                                                 |
| \\      /  F ield         | OpenFOAM: The Open Source CFD Toolbox           |
|  \\    /   O peration     | Version:  2406                                  |
|   \\  /    A nd           | Website:  www.openfoam.com                      |
|    \\/     M anipulation  |                                                 |
\*---------------------------------------------------------------------------*/
FoamFile
{
    version     2.0;
    format      ascii;
    arch        "LSB;label=32;scalar=64";
    class       volVectorField;
    location    "2.3";
    object      flux;
}
// * * * * * * * * * * * * * * * * * * * * * * * * * * * * * * * * * * * * * //

dimensions      [0 1 -1 1 0 0 0];

internalField   nonuniform List<vector> 
2500
(
(0.00141849 0.00141849 0)
(0.00424953 0.00142528 0)
(0.00707069 0.00143918 0)
(0.00987794 0.00145996 0)
(0.0126619 0.00148766 0)
(0.0154158 0.00152228 0)
(0.0181326 0.00156384 0)
(0.0208053 0.00161234 0)
(0.0234266 0.00166779 0)
(0.025989 0.00173019 0)
(0.0284846 0.00179952 0)
(0.0309058 0.00187576 0)
(0.0332441 0.00195888 0)
(0.0354915 0.00204884 0)
(0.0376391 0.00214558 0)
(0.0396784 0.00224899 0)
(0.0416003 0.00235899 0)
(0.043396 0.00247542 0)
(0.0450561 0.00259812 0)
(0.0465717 0.00272688 0)
(0.0479336 0.00286147 0)
(0.0491328 0.0030016 0)
(0.0501605 0.00314694 0)
(0.051008 0.00329711 0)
(0.0516672 0.00345169 0)
(0.0521303 0.00361019 0)
(0.0523901 0.00377208 0)
(0.05244 0.00393677 0)
(0.0522743 0.00410361 0)
(0.051888 0.00427191 0)
(0.0512772 0.00444089 0)
(0.0504393 0.00460977 0)
(0.0493727 0.00477768 0)
(0.048077 0.00494373 0)
(0.0465534 0.00510698 0)
(0.0448047 0.00526648 0)
(0.042835 0.00542125 0)
(0.0406501 0.00557029 0)
(0.0382574 0.00571261 0)
(0.0356659 0.00584723 0)
(0.0328864 0.00597319 0)
(0.0299312 0.00608957 0)
(0.0268139 0.00619548 0)
(0.0235498 0.00629013 0)
(0.0201555 0.00637277 0)
(0.0166487 0.00644277 0)
(0.0130482 0.00649957 0)
(0.0093736 0.00654274 0)
(0.00564527 0.00657174 0)
(0.00188514 0.00658506 0)
(0.00142528 0.00424953 0)
(0.00427022 0.00427022 0)
(0.00710537 0.00431183 0)
(0.00992641 0.00437414 0)
(0.0127242 0.0044572 0)
(0.015492 0.00456106 0)
(0.0182227 0.00468573 0)
(0.0209093 0.00483125 0)
(0.0235445 0.00499761 0)
(0.0261207 0.00518481 0)
(0.0286302 0.00539283 0)
(0.0310651 0.0056216 0)
(0.0334172 0.00587103 0)
(0.0356781 0.00614099 0)
(0.0378393 0.00643129 0)
(0.0398918 0.00674166 0)
(0.0418268 0.0070718 0)
(0.0436351 0.00742128 0)
(0.0453076 0.0077896 0)
(0.0468351 0.00817616 0)
(0.0482084 0.00858024 0)
(0.0494183 0.00900097 0)
(0.050456 0.00943739 0)
(0.0513128 0.00988836 0)
(0.0519803 0.0103526 0)
(0.0524507 0.0108287 0)
(0.0527167 0.011315 0)
(0.0527715 0.0118097 0)
(0.0526094 0.012311 0)
(0.0522252 0.0128166 0)
(0.0516151 0.0133244 0)
(0.0507761 0.0138319 0)
(0.0497066 0.0143366 0)
(0.0484063 0.0148357 0)
(0.0468762 0.0153264 0)
(0.045119 0.0158059 0)
(0.0431388 0.0162712 0)
(0.0409414 0.0167194 0)
(0.0385343 0.0171473 0)
(0.0359265 0.0175522 0)
(0.0331288 0.017931 0)
(0.0301534 0.018281 0)
(0.0270144 0.0185996 0)
(0.0237271 0.0188843 0)
(0.0203081 0.0191329 0)
(0.0167755 0.0193434 0)
(0.0131482 0.0195143 0)
(0.00944576 0.0196442 0)
(0.00568758 0.0197321 0)
(0.00189846 0.0197747 0)
(0.00143918 0.00707069 0)
(0.00431183 0.00710537 0)
(0.00717461 0.00717461 0)
(0.0100233 0.00727843 0)
(0.0128488 0.00741688 0)
(0.0156443 0.00759001 0)
(0.0184028 0.00779787 0)
(0.0211172 0.00804048 0)
(0.0237802 0.00831787 0)
(0.0263842 0.00863003 0)
(0.0289214 0.00897692 0)
(0.031384 0.00935845 0)
(0.0337635 0.00977448 0)
(0.0360517 0.0102248 0)
(0.0382398 0.0107091 0)
(0.0403189 0.0112269 0)
(0.04228 0.0117778 0)
(0.0441138 0.012361 0)
(0.045811 0.0129758 0)
(0.0473624 0.0136211 0)
(0.0487584 0.0142957 0)
(0.04999 0.0149982 0)
(0.0510479 0.0157271 0)
(0.0519232 0.0164804 0)
(0.0526075 0.0172559 0)
(0.0530927 0.0180514 0)
(0.0533711 0.0188641 0)
(0.053436 0.019691 0)
(0.0532812 0.020529 0)
(0.0529014 0.0213745 0)
(0.0522925 0.0222238 0)
(0.0514515 0.0230727 0)
(0.0503764 0.0239169 0)
(0.0490668 0.0247521 0)
(0.0475237 0.0255734 0)
(0.0457496 0.0263761 0)
(0.0437485 0.0271551 0)
(0.0415262 0.0279055 0)
(0.0390902 0.0286222 0)
(0.0364496 0.0293003 0)
(0.0336153 0.0299349 0)
(0.0305998 0.0305214 0)
(0.0274171 0.0310552 0)
(0.0240831 0.0315322 0)
(0.0206146 0.0319488 0)
(0.0170301 0.0323015 0)
(0.013349 0.0325876 0)
(0.00959146 0.0328049 0)
(0.00577577 0.0329517 0)
(0.00192771 0.0330251 0)
(0.00145996 0.00987794 0)
(0.00437414 0.00992641 0)
(0.00727843 0.0100233 0)
(0.0101687 0.0101687 0)
(0.0130358 0.0103626 0)
(0.0158729 0.0106051 0)
(0.0186732 0.0108963 0)
(0.0214293 0.0112361 0)
(0.024134 0.0116248 0)
(0.0267797 0.0120622 0)
(0.0293586 0.0125483 0)
(0.0318627 0.013083 0)
(0.0342836 0.0136661 0)
(0.0366127 0.0142974 0)
(0.0388414 0.0149764 0)
(0.0409605 0.0157026 0)
(0.0429609 0.0164752 0)
(0.0448331 0.0172934 0)
(0.0465677 0.018156 0)
(0.048155 0.0190616 0)
(0.0495855 0.0200086 0)
(0.0508497 0.020995 0)
(0.0519381 0.0220186 0)
(0.0528416 0.0230767 0)
(0.0535513 0.0241664 0)
(0.0540589 0.0252843 0)
(0.0543563 0.0264268 0)
(0.0544365 0.0275896 0)
(0.0542929 0.0287683 0)
(0.05392 0.0299579 0)
(0.0533133 0.031153 0)
(0.0524693 0.032348 0)
(0.0513861 0.0335368 0)
(0.0500628 0.0347131 0)
(0.0485002 0.0358702 0)
(0.0467007 0.0370013 0)
(0.0446682 0.0380994 0)
(0.0424086 0.0391574 0)
(0.0399291 0.0401681 0)
(0.0372392 0.0411246 0)
(0.0343498 0.0420199 0)
(0.0312737 0.0428474 0)
(0.0280253 0.0436007 0)
(0.0246207 0.0442741 0)
(0.0210774 0.0448621 0)
(0.0174144 0.04536 0)
(0.0136516 0.0457636 0)
(0.00980988 0.0460697 0)
(0.00590774 0.0462755 0)
(0.0019718 0.0463789 0)
(0.00148766 0.0126619 0)
(0.0044572 0.0127242 0)
(0.00741688 0.0128488 0)
(0.0103626 0.0130358 0)
(0.0132852 0.0132852 0)
(0.016178 0.0135972 0)
(0.0190339 0.0139718 0)
(0.0218457 0.0144091 0)
(0.0246062 0.0149092 0)
(0.0273077 0.0154722 0)
(0.0299422 0.0160979 0)
(0.0325018 0.0167863 0)
(0.034978 0.0175372 0)
(0.037362 0.0183503 0)
(0.039645 0.019225 0)
(0.0418177 0.0201606 0)
(0.0438708 0.0211564 0)
(0.0457945 0.0222111 0)
(0.0475792 0.0233234 0)
(0.049215 0.0244915 0)
(0.0506918 0.0257132 0)
(0.052 0.0269863 0)
(0.0531296 0.0283077 0)
(0.0540711 0.0296741 0)
(0.0548152 0.0310819 0)
(0.0553531 0.0325266 0)
(0.0556764 0.0340035 0)
(0.0557775 0.0355072 0)
(0.0556494 0.037032 0)
(0.0552861 0.0385715 0)
(0.0546827 0.0401187 0)
(0.0538353 0.0416663 0)
(0.0527415 0.0432065 0)
(0.0514002 0.044731 0)
(0.0498119 0.0462312 0)
(0.0479787 0.0476982 0)
(0.0459045 0.0491228 0)
(0.0435949 0.0504959 0)
(0.0410574 0.051808 0)
(0.0383014 0.0530501 0)
(0.0353381 0.0542131 0)
(0.0321806 0.0552882 0)
(0.0288439 0.0562673 0)
(0.0253444 0.0571426 0)
(0.0217005 0.0579069 0)
(0.0179316 0.0585542 0)
(0.0140587 0.0590789 0)
(0.0101034 0.0594766 0)
(0.00608495 0.0597437 0)
(0.00203104 0.0598779 0)
(0.00152228 0.0154158 0)
(0.00456106 0.015492 0)
(0.00759001 0.0156443 0)
(0.0106051 0.0158729 0)
(0.0135972 0.016178 0)
(0.0165595 0.0165595 0)
(0.0194851 0.0170177 0)
(0.0223667 0.0175527 0)
(0.0251971 0.0181646 0)
(0.0279684 0.0188535 0)
(0.0306728 0.0196193 0)
(0.033302 0.0204621 0)
(0.0358475 0.0213815 0)
(0.0383005 0.0223773 0)
(0.0406518 0.0234489 0)
(0.042892 0.0245955 0)
(0.0450114 0.0258161 0)
(0.0470001 0.0271094 0)
(0.048848 0.0284736 0)
(0.0505448 0.0299069 0)
(0.0520803 0.0314065 0)
(0.0534441 0.0329697 0)
(0.054626 0.034593 0)
(0.0556158 0.0362722 0)
(0.0564038 0.0380029 0)
(0.0569805 0.0397798 0)
(0.057337 0.0415972 0)
(0.057465 0.0434484 0)
(0.0573571 0.0453263 0)
(0.0570067 0.0472232 0)
(0.0564081 0.0491305 0)
(0.0555571 0.0510393 0)
(0.0544507 0.0529397 0)
(0.0530874 0.0548216 0)
(0.0514674 0.0566743 0)
(0.0495923 0.0584869 0)
(0.0474659 0.0602478 0)
(0.0450938 0.0619457 0)
(0.0424834 0.063569 0)
(0.0396442 0.0651061 0)
(0.0365879 0.0665458 0)
(0.0333279 0.0678773 0)
(0.0298796 0.0690901 0)
(0.0262603 0.0701746 0)
(0.022489 0.0711219 0)
(0.0185863 0.0719242 0)
(0.014574 0.0725745 0)
(0.0104747 0.0730674 0)
(0.00630911 0.0733985 0)
(0.00210598 0.0735648 0)
(0.00156384 0.0181326 0)
(0.00468573 0.0182227 0)
(0.00779787 0.0184028 0)
(0.0108963 0.0186732 0)
(0.0139718 0.0190339 0)
(0.0170177 0.0194851 0)
(0.020027 0.020027 0)
(0.0229926 0.0206599 0)
(0.025907 0.0213839 0)
(0.0287624 0.0221992 0)
(0.0315509 0.0231057 0)
(0.034264 0.0241035 0)
(0.0368932 0.0251924 0)
(0.0394294 0.0263721 0)
(0.0418632 0.0276419 0)
(0.0441849 0.0290011 0)
(0.0463847 0.0304486 0)
(0.0484521 0.0319828 0)
(0.0503767 0.0336019 0)
(0.0521479 0.0353035 0)
(0.0537547 0.0370848 0)
(0.0551864 0.0389424 0)
(0.056432 0.0408723 0)
(0.057481 0.0428697 0)
(0.0583228 0.0449294 0)
(0.0589473 0.0470452 0)
(0.059345 0.0492103 0)
(0.0595067 0.0514169 0)
(0.0594242 0.0536566 0)
(0.0590903 0.0559202 0)
(0.0584987 0.0581975 0)
(0.0576444 0.0604778 0)
(0.0565238 0.0627493 0)
(0.0551349 0.0650001 0)
(0.0534772 0.0672171 0)
(0.0515522 0.0693872 0)
(0.0493634 0.0714966 0)
(0.046916 0.0735315 0)
(0.0442178 0.0754779 0)
(0.0412782 0.0773219 0)
(0.0381093 0.0790498 0)
(0.0347249 0.0806483 0)
(0.0311412 0.082105 0)
(0.0273762 0.0834079 0)
(0.02345 0.0845463 0)
(0.0193842 0.0855106 0)
(0.015202 0.0862925 0)
(0.0109274 0.0868851 0)
(0.00658231 0.0872831 0)
(0.00219731 0.0874831 0)
(0.00161234 0.0208053 0)
(0.00483125 0.0209093 0)
(0.00804048 0.0211172 0)
(0.0112361 0.0214293 0)
(0.0144091 0.0218457 0)
(0.0175527 0.0223667 0)
(0.0206599 0.0229926 0)
(0.0237236 0.0237236 0)
(0.0267363 0.02456 0)
(0.0296902 0.0255021 0)
(0.0325771 0.0265499 0)
(0.0353887 0.0277035 0)
(0.0381161 0.0289629 0)
(0.04075 0.0303277 0)
(0.0432808 0.0317974 0)
(0.0456986 0.0333711 0)
(0.047993 0.0350477 0)
(0.0501534 0.0368255 0)
(0.0521687 0.0387026 0)
(0.0540278 0.0406764 0)
(0.0557192 0.0427437 0)
(0.0572316 0.0449006 0)
(0.0585533 0.0471427 0)
(0.0596729 0.0494647 0)
(0.0605793 0.0518604 0)
(0.0612613 0.0543229 0)
(0.0617087 0.0568443 0)
(0.0619114 0.0594158 0)
(0.0618604 0.0620275 0)
(0.0615475 0.0646688 0)
(0.0609657 0.0673278 0)
(0.0601089 0.069992 0)
(0.058973 0.0726479 0)
(0.0575552 0.0752811 0)
(0.0558545 0.0778765 0)
(0.0538718 0.0804186 0)
(0.0516103 0.0828912 0)
(0.0490751 0.0852778 0)
(0.0462737 0.0875619 0)
(0.0432161 0.0897269 0)
(0.0399143 0.0917567 0)
(0.0363831 0.0936355 0)
(0.0326392 0.0953482 0)
(0.0287017 0.0968808 0)
(0.0245918 0.0982203 0)
(0.0203325 0.0993553 0)
(0.0159484 0.100276 0)
(0.0114654 0.100973 0)
(0.00690708 0.101442 0)
(0.00230589 0.101678 0)
(0.00166779 0.0234266 0)
(0.00499761 0.0235445 0)
(0.00831787 0.0237802 0)
(0.0116248 0.024134 0)
(0.0149092 0.0246062 0)
(0.0181646 0.0251971 0)
(0.0213839 0.025907 0)
(0.02456 0.0267363 0)
(0.0276854 0.0276854 0)
(0.0307523 0.0287547 0)
(0.0337523 0.0299444 0)
(0.036677 0.0312547 0)
(0.0395174 0.0326856 0)
(0.0422638 0.0342368 0)
(0.0449066 0.035908 0)
(0.0474352 0.0376983 0)
(0.0498391 0.0396065 0)
(0.0521071 0.041631 0)
(0.0542276 0.0437697 0)
(0.0561889 0.0460198 0)
(0.0579789 0.0483778 0)
(0.0595854 0.0508397 0)
(0.0609961 0.0534004 0)
(0.0621987 0.0560541 0)
(0.0631811 0.0587939 0)
(0.0639313 0.0616122 0)
(0.0644378 0.0644998 0)
(0.0646899 0.067447 0)
(0.0646772 0.0704426 0)
(0.0643906 0.0734743 0)
(0.063822 0.0765288 0)
(0.0629645 0.0795915 0)
(0.0618129 0.0826469 0)
(0.0603635 0.0856785 0)
(0.0586147 0.088669 0)
(0.0565669 0.0916 0)
(0.0542226 0.094453 0)
(0.0515868 0.0972087 0)
(0.0486669 0.0998478 0)
(0.0454731 0.102351 0)
(0.0420178 0.104699 0)
(0.0383164 0.106874 0)
(0.0343865 0.108857 0)
(0.0302483 0.110633 0)
(0.0259245 0.112185 0)
(0.0214396 0.113501 0)
(0.0168201 0.114568 0)
(0.0120938 0.115378 0)
(0.00728645 0.115922 0)
(0.00243273 0.116195 0)
(0.00173019 0.025989 0)
(0.00518481 0.0261207 0)
(0.00863003 0.0263842 0)
(0.0120622 0.0267797 0)
(0.0154722 0.0273077 0)
(0.0188535 0.0279684 0)
(0.0221992 0.0287624 0)
(0.0255021 0.0296902 0)
(0.0287547 0.0307523 0)
(0.0319491 0.0319491 0)
(0.0350771 0.0332813 0)
(0.0381299 0.034749 0)
(0.0410982 0.0363524 0)
(0.0439724 0.0380915 0)
(0.0467423 0.0399659 0)
(0.0493971 0.0419749 0)
(0.0519258 0.0441174 0)
(0.0543166 0.0463919 0)
(0.0565574 0.048796 0)
(0.0586359 0.0513269 0)
(0.0605391 0.0539811 0)
(0.0622542 0.056754 0)
(0.0637677 0.0596404 0)
(0.0650665 0.0626338 0)
(0.0661373 0.0657269 0)
(0.0669672 0.0689109 0)
(0.0675435 0.0721761 0)
(0.0678542 0.0755113 0)
(0.0678877 0.0789041 0)
(0.0676337 0.0823409 0)
(0.0670828 0.0858064 0)
(0.0662271 0.0892843 0)
(0.0650601 0.092757 0)
(0.0635773 0.0962055 0)
(0.061776 0.0996101 0)
(0.0596559 0.10295 0)
(0.0572189 0.106203 0)
(0.0544698 0.109348 0)
(0.0514159 0.112363 0)
(0.0480673 0.115224 0)
(0.0444371 0.117909 0)
(0.0405411 0.120398 0)
(0.0363982 0.122669 0)
(0.0320298 0.124704 0)
(0.0274602 0.126483 0)
(0.0227158 0.127992 0)
(0.0178252 0.129217 0)
(0.0128185 0.130145 0)
(0.00772401 0.130769 0)
(0.00257903 0.131083 0)
(0.00179952 0.0284846 0)
(0.00539283 0.0286302 0)
(0.00897692 0.0289214 0)
(0.0125483 0.0293586 0)
(0.0160979 0.0299422 0)
(0.0196193 0.0306728 0)
(0.0231057 0.0315509 0)
(0.0265499 0.0325771 0)
(0.0299444 0.0337523 0)
(0.0332813 0.0350771 0)
(0.0365522 0.0365522 0)
(0.0397482 0.038178 0)
(0.0428599 0.0399549 0)
(0.0458773 0.0418832 0)
(0.04879 0.0439625 0)
(0.0515868 0.0461925 0)
(0.0542561 0.0485721 0)
(0.0567856 0.0510998 0)
(0.0591626 0.0537734 0)
(0.061374 0.0565901 0)
(0.063406 0.0595461 0)
(0.0652447 0.0626368 0)
(0.0668759 0.0658566 0)
(0.0682852 0.0691985 0)
(0.0694581 0.0726547 0)
(0.0703805 0.0762157 0)
(0.0710382 0.0798708 0)
(0.071418 0.0836079 0)
(0.0715068 0.0874131 0)
(0.0712929 0.0912712 0)
(0.0707654 0.0951655 0)
(0.0699151 0.0990775 0)
(0.0687341 0.102987 0)
(0.0672167 0.106874 0)
(0.0653591 0.110715 0)
(0.0631601 0.114486 0)
(0.0606211 0.118163 0)
(0.057746 0.121721 0)
(0.0545422 0.125133 0)
(0.0510198 0.128375 0)
(0.0471923 0.131421 0)
(0.0430764 0.134245 0)
(0.0386921 0.136824 0)
(0.0340623 0.139136 0)
(0.0292131 0.141159 0)
(0.024173 0.142875 0)
(0.0189732 0.144268 0)
(0.0136465 0.145325 0)
(0.00822398 0.146036 0)
(0.00274621 0.146393 0)
(0.00187576 0.0309058 0)
(0.0056216 0.0310651 0)
(0.00935845 0.031384 0)
(0.013083 0.0318627 0)
(0.0167863 0.0325018 0)
(0.0204621 0.033302 0)
(0.0241035 0.034264 0)
(0.0277035 0.0353887 0)
(0.0312547 0.036677 0)
(0.034749 0.0381299 0)
(0.038178 0.0397482 0)
(0.0415327 0.0415327 0)
(0.0448034 0.043484 0)
(0.04798 0.0456026 0)
(0.0510516 0.0478886 0)
(0.0540067 0.0503417 0)
(0.056833 0.0529611 0)
(0.0595179 0.0557455 0)
(0.0620477 0.0586929 0)
(0.0644086 0.0618004 0)
(0.0665859 0.0650643 0)
(0.0685646 0.0684799 0)
(0.0703294 0.0720412 0)
(0.0718646 0.0757412 0)
(0.0731545 0.0795713 0)
(0.0741834 0.0835216 0)
(0.0749357 0.0875803 0)
(0.0753964 0.0917343 0)
(0.0755511 0.0959686 0)
(0.0753861 0.100266 0)
(0.0748891 0.104609 0)
(0.0740491 0.108977 0)
(0.0728567 0.113346 0)
(0.0713046 0.117695 0)
(0.0693879 0.121997 0)
(0.0671042 0.126225 0)
(0.0644538 0.130352 0)
(0.0614402 0.134349 0)
(0.0580705 0.138187 0)
(0.0543547 0.141836 0)
(0.0503069 0.145267 0)
(0.0459446 0.148452 0)
(0.0412889 0.151362 0)
(0.0363645 0.153972 0)
(0.0311996 0.156258 0)
(0.0258252 0.158198 0)
(0.0202753 0.159773 0)
(0.0145858 0.160969 0)
(0.0087913 0.161773 0)
(0.00293593 0.162177 0)
(0.00195888 0.0332441 0)
(0.00587103 0.0334172 0)
(0.00977448 0.0337635 0)
(0.0136661 0.0342836 0)
(0.0175372 0.034978 0)
(0.0213815 0.0358475 0)
(0.0251924 0.0368932 0)
(0.0289629 0.0381161 0)
(0.0326856 0.0395174 0)
(0.0363524 0.0410982 0)
(0.0399549 0.0428599 0)
(0.043484 0.0448034 0)
(0.0469298 0.0469298 0)
(0.0502819 0.0492399 0)
(0.0535291 0.051734 0)
(0.0566593 0.0544123 0)
(0.0596599 0.0572742 0)
(0.0625173 0.0603187 0)
(0.0652175 0.0635441 0)
(0.0677454 0.0669476 0)
(0.0700855 0.0705257 0)
(0.0722217 0.0742735 0)
(0.0741373 0.0781852 0)
(0.0758153 0.0822534 0)
(0.0772385 0.086469 0)
(0.0783894 0.0908216 0)
(0.079251 0.0952988 0)
(0.0798063 0.0998864 0)
(0.0800389 0.104568 0)
(0.0799335 0.109326 0)
(0.0794755 0.114139 0)
(0.0786522 0.118985 0)
(0.0774523 0.12384 0)
(0.0758669 0.128677 0)
(0.0738892 0.133468 0)
(0.0715156 0.138183 0)
(0.0687453 0.14279 0)
(0.0655811 0.147257 0)
(0.0620292 0.15155 0)
(0.0581001 0.155637 0)
(0.0538079 0.159483 0)
(0.0491712 0.163056 0)
(0.0442124 0.166324 0)
(0.0389581 0.169258 0)
(0.0334388 0.171828 0)
(0.0276885 0.174011 0)
(0.0217443 0.175785 0)
(0.0156459 0.177131 0)
(0.00943171 0.178037 0)
(0.00315012 0.178492 0)
(0.00204884 0.0354915 0)
(0.00614099 0.0356781 0)
(0.0102248 0.0360517 0)
(0.0142974 0.0366127 0)
(0.0183503 0.037362 0)
(0.0223773 0.0383005 0)
(0.0263721 0.0394294 0)
(0.0303277 0.04075 0)
(0.0342368 0.0422638 0)
(0.0380915 0.0439724 0)
(0.0418832 0.0458773 0)
(0.0456026 0.04798 0)
(0.0492399 0.0502819 0)
(0.0527842 0.0527842 0)
(0.056224 0.0554877 0)
(0.0595469 0.058393 0)
(0.0627395 0.0614999 0)
(0.0657878 0.0648079 0)
(0.0686766 0.0683154 0)
(0.0713902 0.0720201 0)
(0.0739118 0.0759187 0)
(0.0762242 0.0800065 0)
(0.0783092 0.0842776 0)
(0.0801484 0.0887245 0)
(0.0817228 0.0933379 0)
(0.0830132 0.098107 0)
(0.0840005 0.103019 0)
(0.0846658 0.108058 0)
(0.0849905 0.113207 0)
(0.0849569 0.118446 0)
(0.0845486 0.123754 0)
(0.0837502 0.129105 0)
(0.0825485 0.134473 0)
(0.0809324 0.139828 0)
(0.0788934 0.14514 0)
(0.0764259 0.150373 0)
(0.0735278 0.155494 0)
(0.0702009 0.160465 0)
(0.0664508 0.165249 0)
(0.0622877 0.169808 0)
(0.0577263 0.174103 0)
(0.0527857 0.178098 0)
(0.0474901 0.181754 0)
(0.0418681 0.185039 0)
(0.0359529 0.187919 0)
(0.0297817 0.190367 0)
(0.0233954 0.192357 0)
(0.0168377 0.193869 0)
(0.0101519 0.194885 0)
(0.003391 0.195396 0)
(0.00214558 0.0376391 0)
(0.00643129 0.0378393 0)
(0.0107091 0.0382398 0)
(0.0149764 0.0388414 0)
(0.019225 0.039645 0)
(0.0234489 0.0406518 0)
(0.0276419 0.0418632 0)
(0.0317974 0.0432808 0)
(0.035908 0.0449066 0)
(0.0399659 0.0467423 0)
(0.0439625 0.04879 0)
(0.0478886 0.0510516 0)
(0.051734 0.0535291 0)
(0.0554877 0.056224 0)
(0.0591378 0.0591378 0)
(0.0626715 0.0622716 0)
(0.0660748 0.0656257 0)
(0.0693328 0.0692001 0)
(0.0724297 0.0729938 0)
(0.0753487 0.0770048 0)
(0.0780719 0.0812303 0)
(0.0805806 0.0856657 0)
(0.0828552 0.0903055 0)
(0.0848756 0.095142 0)
(0.086621 0.100166 0)
(0.0880701 0.105366 0)
(0.0892017 0.110729 0)
(0.0899944 0.116239 0)
(0.0904275 0.121877 0)
(0.0904805 0.127622 0)
(0.0901344 0.13345 0)
(0.0893714 0.139335 0)
(0.0881756 0.145247 0)
(0.0865335 0.151154 0)
(0.0844341 0.157021 0)
(0.08187 0.16281 0)
(0.0788374 0.168482 0)
(0.0753364 0.173997 0)
(0.0713721 0.179311 0)
(0.0669541 0.184381 0)
(0.0620973 0.189163 0)
(0.0568219 0.193616 0)
(0.0511536 0.197696 0)
(0.0451234 0.201365 0)
(0.0387673 0.204585 0)
(0.0321263 0.207323 0)
(0.0252457 0.209551 0)
(0.0181739 0.211243 0)
(0.0109594 0.212382 0)
(0.00366116 0.212955 0)
(0.00224899 0.0396784 0)
(0.00674166 0.0398918 0)
(0.0112269 0.0403189 0)
(0.0157026 0.0409605 0)
(0.0201606 0.0418177 0)
(0.0245955 0.042892 0)
(0.0290011 0.0441849 0)
(0.0333711 0.0456986 0)
(0.0376983 0.0474352 0)
(0.0419749 0.0493971 0)
(0.0461925 0.0515868 0)
(0.0503417 0.0540067 0)
(0.0544123 0.0566593 0)
(0.058393 0.0595469 0)
(0.0622716 0.0626715 0)
(0.0660348 0.0660348 0)
(0.069668 0.0696379 0)
(0.0731558 0.0734813 0)
(0.0764813 0.0775648 0)
(0.0796266 0.0818869 0)
(0.0825727 0.0864453 0)
(0.0852994 0.091236 0)
(0.0877855 0.0962537 0)
(0.090009 0.101491 0)
(0.0919471 0.106939 0)
(0.0935764 0.112586 0)
(0.0948731 0.118418 0)
(0.0958134 0.124419 0)
(0.0963735 0.130569 0)
(0.0965303 0.136845 0)
(0.0962618 0.143223 0)
(0.095547 0.149672 0)
(0.0943672 0.156162 0)
(0.0927058 0.162657 0)
(0.0905493 0.169117 0)
(0.0878876 0.175503 0)
(0.0847147 0.18177 0)
(0.0810292 0.187871 0)
(0.0768347 0.193759 0)
(0.0721404 0.199385 0)
(0.0669613 0.204699 0)
(0.0613184 0.209652 0)
(0.0552392 0.214196 0)
(0.048757 0.218286 0)
(0.0419114 0.22188 0)
(0.0347475 0.224938 0)
(0.0273153 0.227427 0)
(0.0196692 0.229319 0)
(0.0118634 0.230593 0)
(0.00396361 0.231234 0)
(0.00235899 0.0416003 0)
(0.0070718 0.0418268 0)
(0.0117778 0.04228 0)
(0.0164752 0.0429609 0)
(0.0211564 0.0438708 0)
(0.0258161 0.0450114 0)
(0.0304486 0.0463847 0)
(0.0350477 0.047993 0)
(0.0396065 0.0498391 0)
(0.0441174 0.0519258 0)
(0.0485721 0.0542561 0)
(0.0529611 0.056833 0)
(0.0572742 0.0596599 0)
(0.0614999 0.0627395 0)
(0.0656257 0.0660748 0)
(0.0696379 0.069668 0)
(0.0735213 0.0735213 0)
(0.0772597 0.0776359 0)
(0.0808353 0.0820122 0)
(0.0842292 0.0866498 0)
(0.087421 0.0915468 0)
(0.090389 0.0967002 0)
(0.0931104 0.102105 0)
(0.095561 0.107755 0)
(0.0977159 0.11364 0)
(0.0995492 0.119749 0)
(0.101034 0.126069 0)
(0.102145 0.132582 0)
(0.102854 0.139268 0)
(0.103134 0.146103 0)
(0.102962 0.153061 0)
(0.102311 0.160109 0)
(0.10116 0.167214 0)
(0.0994889 0.174336 0)
(0.0972807 0.181434 0)
(0.0945224 0.188462 0)
(0.0912053 0.19537 0)
(0.0873257 0.202107 0)
(0.0828857 0.208619 0)
(0.0778936 0.214851 0)
(0.0723641 0.220745 0)
(0.0663193 0.226247 0)
(0.0597882 0.231302 0)
(0.052807 0.235856 0)
(0.0454189 0.239862 0)
(0.0376737 0.243274 0)
(0.0296273 0.246053 0)
(0.0213403 0.248167 0)
(0.012874 0.24959 0)
(0.00430179 0.250306 0)
(0.00247542 0.043396 0)
(0.00742128 0.0436351 0)
(0.012361 0.0441138 0)
(0.0172934 0.0448331 0)
(0.0222111 0.0457945 0)
(0.0271094 0.0470001 0)
(0.0319828 0.0484521 0)
(0.0368255 0.0501534 0)
(0.041631 0.0521071 0)
(0.0463919 0.0543166 0)
(0.0510998 0.0567856 0)
(0.0557455 0.0595179 0)
(0.0603187 0.0625173 0)
(0.0648079 0.0657878 0)
(0.0692001 0.0693328 0)
(0.0734813 0.0731558 0)
(0.0776359 0.0772597 0)
(0.0816467 0.0816467 0)
(0.0854952 0.0863183 0)
(0.0891613 0.091275 0)
(0.0926232 0.0965159 0)
(0.0958576 0.102039 0)
(0.0988399 0.10784 0)
(0.101544 0.113912 0)
(0.103942 0.120248 0)
(0.106006 0.126836 0)
(0.107706 0.133663 0)
(0.109012 0.140711 0)
(0.109895 0.147958 0)
(0.110323 0.155382 0)
(0.110267 0.162952 0)
(0.1097 0.170635 0)
(0.108594 0.178395 0)
(0.106926 0.186189 0)
(0.104675 0.193971 0)
(0.101823 0.201691 0)
(0.09836 0.209293 0)
(0.0942784 0.216721 0)
(0.0895783 0.223914 0)
(0.0842667 0.230808 0)
(0.0783581 0.23734 0)
(0.0718749 0.243446 0)
(0.0648481 0.249063 0)
(0.0573169 0.254131 0)
(0.0493285 0.258593 0)
(0.0409383 0.262397 0)
(0.0322084 0.265498 0)
(0.0232068 0.267859 0)
(0.0140032 0.269449 0)
(0.00467972 0.27025 0)
(0.00259812 0.0450561 0)
(0.0077896 0.0453076 0)
(0.0129758 0.045811 0)
(0.018156 0.0465677 0)
(0.0233234 0.0475792 0)
(0.0284736 0.048848 0)
(0.0336019 0.0503767 0)
(0.0387026 0.0521687 0)
(0.0437697 0.0542276 0)
(0.048796 0.0565574 0)
(0.0537734 0.0591626 0)
(0.0586929 0.0620477 0)
(0.0635441 0.0652175 0)
(0.0683154 0.0686766 0)
(0.0729938 0.0724297 0)
(0.0775648 0.0764813 0)
(0.0820122 0.0808353 0)
(0.0863183 0.0854952 0)
(0.0904636 0.0904636 0)
(0.0944268 0.0957422 0)
(0.0981848 0.101331 0)
(0.101713 0.10723 0)
(0.104984 0.113435 0)
(0.10797 0.119941 0)
(0.11064 0.126741 0)
(0.112964 0.133824 0)
(0.114909 0.141177 0)
(0.11644 0.148782 0)
(0.117525 0.156618 0)
(0.118128 0.16466 0)
(0.118215 0.172878 0)
(0.117754 0.181235 0)
(0.116714 0.189694 0)
(0.115065 0.198207 0)
(0.112782 0.206725 0)
(0.109845 0.215192 0)
(0.106236 0.223548 0)
(0.101946 0.231728 0)
(0.0969723 0.239664 0)
(0.0913198 0.247284 0)
(0.0850022 0.254518 0)
(0.0780425 0.26129 0)
(0.0704732 0.26753 0)
(0.0623367 0.273167 0)
(0.0536849 0.278136 0)
(0.0445792 0.282378 0)
(0.0350891 0.285838 0)
(0.0252912 0.288474 0)
(0.0152647 0.290251 0)
(0.00510202 0.291145 0)
(0.00272688 0.0465717 0)
(0.00817616 0.0468351 0)
(0.0136211 0.0473624 0)
(0.0190616 0.048155 0)
(0.0244915 0.049215 0)
(0.0299069 0.0505448 0)
(0.0353035 0.0521479 0)
(0.0406764 0.0540278 0)
(0.0460198 0.0561889 0)
(0.0513269 0.0586359 0)
(0.0565901 0.061374 0)
(0.0618004 0.0644086 0)
(0.0669476 0.0677454 0)
(0.0720201 0.0713902 0)
(0.0770048 0.0753487 0)
(0.0818869 0.0796266 0)
(0.0866498 0.0842292 0)
(0.091275 0.0891613 0)
(0.0957422 0.0944268 0)
(0.100029 0.100029 0)
(0.104111 0.105969 0)
(0.107961 0.112249 0)
(0.111551 0.118865 0)
(0.11485 0.125815 0)
(0.117825 0.133091 0)
(0.120442 0.140685 0)
(0.122664 0.148583 0)
(0.124454 0.156769 0)
(0.125773 0.165221 0)
(0.126582 0.173914 0)
(0.126843 0.182816 0)
(0.126516 0.191889 0)
(0.125566 0.201093 0)
(0.123957 0.210377 0)
(0.12166 0.219688 0)
(0.118646 0.228963 0)
(0.114896 0.238136 0)
(0.110394 0.247136 0)
(0.105135 0.255886 0)
(0.0991207 0.264305 0)
(0.0923637 0.272312 0)
(0.0848871 0.279821 0)
(0.0767251 0.286752 0)
(0.0679234 0.293023 0)
(0.0585392 0.298558 0)
(0.0486403 0.303288 0)
(0.038305 0.30715 0)
(0.0276196 0.310095 0)
(0.0166744 0.312081 0)
(0.00557404 0.313081 0)
(0.00286147 0.0479336 0)
(0.00858024 0.0482084 0)
(0.0142957 0.0487584 0)
(0.0200086 0.0495855 0)
(0.0257132 0.0506918 0)
(0.0314065 0.0520803 0)
(0.0370848 0.0537547 0)
(0.0427437 0.0557192 0)
(0.0483778 0.0579789 0)
(0.0539811 0.0605391 0)
(0.0595461 0.063406 0)
(0.0650643 0.0665859 0)
(0.0705257 0.0700855 0)
(0.0759187 0.0739118 0)
(0.0812303 0.0780719 0)
(0.0864453 0.0825727 0)
(0.0915468 0.087421 0)
(0.0965159 0.0926232 0)
(0.101331 0.0981848 0)
(0.105969 0.104111 0)
(0.110405 0.110405 0)
(0.114608 0.117068 0)
(0.11855 0.124102 0)
(0.122196 0.131504 0)
(0.125511 0.139268 0)
(0.128456 0.147388 0)
(0.130993 0.155851 0)
(0.133078 0.16464 0)
(0.134669 0.173737 0)
(0.135722 0.183113 0)
(0.136191 0.192737 0)
(0.136032 0.202571 0)
(0.135202 0.212569 0)
(0.13366 0.22268 0)
(0.131368 0.232844 0)
(0.128294 0.242994 0)
(0.124409 0.253057 0)
(0.119696 0.262952 0)
(0.114141 0.272594 0)
(0.107745 0.281893 0)
(0.100518 0.290753 0)
(0.0924828 0.29908 0)
(0.0836744 0.306779 0)
(0.0741425 0.313756 0)
(0.0639497 0.319924 0)
(0.0531718 0.3252 0)
(0.0418965 0.329515 0)
(0.0302217 0.332806 0)
(0.0182505 0.335027 0)
(0.00610191 0.336146 0)
(0.0030016 0.0491328 0)
(0.00900097 0.0494183 0)
(0.0149982 0.04999 0)
(0.020995 0.0508497 0)
(0.0269863 0.052 0)
(0.0329697 0.0534441 0)
(0.0389424 0.0551864 0)
(0.0449006 0.0572316 0)
(0.0508397 0.0595854 0)
(0.056754 0.0622542 0)
(0.0626368 0.0652447 0)
(0.0684799 0.0685646 0)
(0.0742735 0.0722217 0)
(0.0800065 0.0762242 0)
(0.0856657 0.0805806 0)
(0.091236 0.0852994 0)
(0.0967002 0.090389 0)
(0.102039 0.0958576 0)
(0.10723 0.101713 0)
(0.112249 0.107961 0)
(0.117068 0.114608 0)
(0.121658 0.121658 0)
(0.125986 0.129114 0)
(0.130016 0.136975 0)
(0.133709 0.145238 0)
(0.137024 0.153897 0)
(0.139916 0.162942 0)
(0.14234 0.172359 0)
(0.144245 0.182127 0)
(0.145583 0.19222 0)
(0.146301 0.202607 0)
(0.146349 0.213246 0)
(0.145675 0.224092 0)
(0.144232 0.235089 0)
(0.141974 0.246172 0)
(0.138859 0.257269 0)
(0.134854 0.268299 0)
(0.129932 0.279173 0)
(0.124075 0.289795 0)
(0.117279 0.300062 0)
(0.109551 0.309868 0)
(0.100913 0.319102 0)
(0.0914009 0.327657 0)
(0.0810682 0.335423 0)
(0.0699835 0.342299 0)
(0.0582312 0.34819 0)
(0.0459103 0.353011 0)
(0.0331319 0.356693 0)
(0.0200142 0.359179 0)
(0.00669272 0.360431 0)
(0.00314694 0.0501605 0)
(0.00943739 0.050456 0)
(0.0157271 0.0510479 0)
(0.0220186 0.0519381 0)
(0.0283077 0.0531296 0)
(0.034593 0.054626 0)
(0.0408723 0.056432 0)
(0.0471427 0.0585533 0)
(0.0534004 0.0609961 0)
(0.0596404 0.0637677 0)
(0.0658566 0.0668759 0)
(0.0720412 0.0703294 0)
(0.0781852 0.0741373 0)
(0.0842776 0.0783092 0)
(0.0903055 0.0828552 0)
(0.0962537 0.0877855 0)
(0.102105 0.0931104 0)
(0.10784 0.0988399 0)
(0.113435 0.104984 0)
(0.118865 0.111551 0)
(0.124102 0.11855 0)
(0.129114 0.125986 0)
(0.133866 0.133866 0)
(0.13832 0.142191 0)
(0.142433 0.150961 0)
(0.146161 0.160172 0)
(0.149455 0.169817 0)
(0.152263 0.179882 0)
(0.154531 0.190348 0)
(0.156201 0.201192 0)
(0.157217 0.212381 0)
(0.157517 0.223874 0)
(0.157044 0.235623 0)
(0.155739 0.247568 0)
(0.153548 0.259641 0)
(0.150421 0.271763 0)
(0.146314 0.283845 0)
(0.141191 0.295789 0)
(0.13503 0.307486 0)
(0.127818 0.318821 0)
(0.119559 0.329673 0)
(0.110272 0.339917 0)
(0.099995 0.349425 0)
(0.0887846 0.358074 0)
(0.0767163 0.365744 0)
(0.0638841 0.372324 0)
(0.0503996 0.377717 0)
(0.0363893 0.381839 0)
(0.0219893 0.384624 0)
(0.00735458 0.386028 0)
(0.00329711 0.051008 0)
(0.00988836 0.0513128 0)
(0.0164804 0.0519232 0)
(0.0230767 0.0528416 0)
(0.0296741 0.0540711 0)
(0.0362722 0.0556158 0)
(0.0428697 0.057481 0)
(0.0494647 0.0596729 0)
(0.0560541 0.0621987 0)
(0.0626338 0.0650665 0)
(0.0691985 0.0682852 0)
(0.0757412 0.0718646 0)
(0.0822534 0.0758153 0)
(0.0887245 0.0801484 0)
(0.095142 0.0848756 0)
(0.101491 0.090009 0)
(0.107755 0.095561 0)
(0.113912 0.101544 0)
(0.119941 0.10797 0)
(0.125815 0.11485 0)
(0.131504 0.122196 0)
(0.136975 0.130016 0)
(0.142191 0.13832 0)
(0.147111 0.147111 0)
(0.151691 0.156394 0)
(0.15588 0.166167 0)
(0.159626 0.176425 0)
(0.162872 0.187158 0)
(0.165556 0.19835 0)
(0.167615 0.209978 0)
(0.168983 0.222009 0)
(0.16959 0.234404 0)
(0.169369 0.247111 0)
(0.16825 0.26007 0)
(0.166169 0.273208 0)
(0.163063 0.286438 0)
(0.15888 0.299664 0)
(0.153573 0.312776 0)
(0.147108 0.325654 0)
(0.139467 0.338167 0)
(0.130647 0.350177 0)
(0.120665 0.361541 0)
(0.109558 0.372113 0)
(0.0973869 0.381749 0)
(0.0842341 0.39031 0)
(0.0702047 0.397666 0)
(0.0554247 0.403702 0)
(0.0400387 0.40832 0)
(0.0242033 0.411443 0)
(0.00809669 0.413018 0)
(0.00345169 0.0516672 0)
(0.0103526 0.0519803 0)
(0.0172559 0.0526075 0)
(0.0241664 0.0535513 0)
(0.0310819 0.0548152 0)
(0.0380029 0.0564038 0)
(0.0449294 0.0583228 0)
(0.0518604 0.0605793 0)
(0.0587939 0.0631811 0)
(0.0657269 0.0661373 0)
(0.0726547 0.0694581 0)
(0.0795713 0.0731545 0)
(0.086469 0.0772385 0)
(0.0933379 0.0817228 0)
(0.100166 0.086621 0)
(0.106939 0.0919471 0)
(0.11364 0.0977159 0)
(0.120248 0.103942 0)
(0.126741 0.11064 0)
(0.133091 0.117825 0)
(0.139268 0.125511 0)
(0.145238 0.133709 0)
(0.150961 0.142433 0)
(0.156394 0.151691 0)
(0.161489 0.161489 0)
(0.166192 0.17183 0)
(0.170446 0.182714 0)
(0.174188 0.194132 0)
(0.17735 0.206073 0)
(0.17986 0.218515 0)
(0.181643 0.231428 0)
(0.18262 0.244772 0)
(0.182711 0.258497 0)
(0.181836 0.272537 0)
(0.179916 0.286816 0)
(0.176877 0.301242 0)
(0.172652 0.315709 0)
(0.167181 0.330096 0)
(0.160421 0.344267 0)
(0.152342 0.358078 0)
(0.142933 0.371369 0)