/*--------------------------------*- C++ -*----------------------------------*\
| =========                 |                                                 |
| \\      /  F ield         | OpenFOAM: The Open Source CFD Toolbox           |
|  \\    /   O peration     | Version:  2406                                  |
|   \\  /    A nd           | Website:  www.openfoam.com                      |
|    \\/     M anipulation  |                                                 |
\*---------------------------------------------------------------------------*/
FoamFile
{
    version     2.0;
    format      ascii;
    arch        "LSB;label=32;scalar=64";
    class       volScalarField;
    location    "2.3";
    object      gradTy;
}
// * * * * * * * * * * * * * * * * * * * * * * * * * * * * * * * * * * * * * //

dimensions      [0 -1 0 1 0 0 0];

internalField   nonuniform List<scalar> 
2500
(
0.0141849
0.0142528
0.0143918
0.0145996
0.0148766
0.0152228
0.0156384
0.0161234
0.0166779
0.0173019
0.0179952
0.0187576
0.0195888
0.0204884
0.0214558
0.0224899
0.0235899
0.0247542
0.0259812
0.0272688
0.0286147
0.030016
0.0314694
0.0329711
0.0345169
0.0361019
0.0377208
0.0393677
0.0410361
0.0427191
0.0444089
0.0460977
0.0477768
0.0494373
0.0510698
0.0526648
0.0542125
0.0557029
0.0571261
0.0584723
0.0597319
0.0608957
0.0619548
0.0629013
0.0637277
0.0644277
0.0649957
0.0654274
0.0657174
0.0658506
0.0424953
0.0427022
0.0431183
0.0437414
0.044572
0.0456106
0.0468573
0.0483125
0.0499761
0.0518481
0.0539283
0.056216
0.0587103
0.0614099
0.0643129
0.0674166
0.070718
0.0742128
0.077896
0.0817616
0.0858024
0.0900097
0.0943739
0.0988836
0.103526
0.108287
0.11315
0.118097
0.12311
0.128166
0.133244
0.138319
0.143366
0.148357
0.153264
0.158059
0.162712
0.167194
0.171473
0.175522
0.17931
0.18281
0.185996
0.188843
0.191329
0.193434
0.195143
0.196442
0.197321
0.197747
0.0707069
0.0710537
0.0717461
0.0727843
0.0741688
0.0759001
0.0779787
0.0804048
0.0831787
0.0863003
0.0897692
0.0935845
0.0977448
0.102248
0.107091
0.112269
0.117778
0.12361
0.129758
0.136211
0.142957
0.149982
0.157271
0.164804
0.172559
0.180514
0.188641
0.19691
0.20529
0.213745
0.222238
0.230727
0.239169
0.247521
0.255734
0.263761
0.271551
0.279055
0.286222
0.293003
0.299349
0.305214
0.310552
0.315322
0.319488
0.323015
0.325876
0.328049
0.329517
0.330251
0.0987794
0.0992641
0.100233
0.101687
0.103626
0.106051
0.108963
0.112361
0.116248
0.120622
0.125483
0.13083
0.136661
0.142974
0.149764
0.157026
0.164752
0.172934
0.18156
0.190616
0.200086
0.20995
0.220186
0.230767
0.241664
0.252843
0.264268
0.275896
0.287683
0.299579
0.31153
0.32348
0.335368
0.347131
0.358702
0.370013
0.380994
0.391574
0.401681
0.411246
0.420199
0.428474
0.436007
0.442741
0.448621
0.4536
0.457636
0.460697
0.462755
0.463789
0.126619
0.127242
0.128488
0.130358
0.132852
0.135972
0.139718
0.144091
0.149092
0.154722
0.160979
0.167863
0.175372
0.183503
0.19225
0.201606
0.211564
0.222111
0.233234
0.244915
0.257132
0.269863
0.283077
0.296741
0.310819
0.325266
0.340035
0.355072
0.37032
0.385715
0.401187
0.416663
0.432065
0.44731
0.462312
0.476982
0.491228
0.504959
0.51808
0.530501
0.542131
0.552882
0.562673
0.571426
0.579069
0.585542
0.590789
0.594766
0.597437
0.598779
0.154158
0.15492
0.156443
0.158729
0.16178
0.165595
0.170177
0.175527
0.181646
0.188535
0.196193
0.204621
0.213815
0.223773
0.234489
0.245955
0.258161
0.271094
0.284736
0.299069
0.314065
0.329697
0.34593
0.362722
0.380029
0.397798
0.415972
0.434484
0.453263
0.472232
0.491305
0.510393
0.529397
0.548216
0.566743
0.584869
0.602478
0.619457
0.63569
0.651061
0.665458
0.678773
0.690901
0.701746
0.711219
0.719242
0.725745
0.730674
0.733985
0.735648
0.181326
0.182227
0.184028
0.186732
0.190339
0.194851
0.20027
0.206599
0.213839
0.221992
0.231057
0.241035
0.251924
0.263721
0.276419
0.290011
0.304486
0.319828
0.336019
0.353035
0.370848
0.389424
0.408723
0.428697
0.449294
0.470452
0.492103
0.514169
0.536566
0.559202
0.581975
0.604778
0.627493
0.650001
0.672171
0.693872
0.714966
0.735315
0.754779
0.773219
0.790498
0.806483
0.82105
0.834079
0.845463
0.855106
0.862925
0.868851
0.872831
0.874831
0.208053
0.209093
0.211172
0.214293
0.218457
0.223667
0.229926
0.237236
0.2456
0.255021
0.265499
0.277035
0.289629
0.303277
0.317974
0.333711
0.350477
0.368255
0.387026
0.406764
0.427437
0.449006
0.471427
0.494647
0.518604
0.543229
0.568443
0.594158
0.620275
0.646688
0.673278
0.69992
0.726479
0.752811
0.778765
0.804186
0.828912
0.852778
0.875619
0.897269
0.917567
0.936355
0.953482
0.968808
0.982203
0.993553
1.00276
1.00973
1.01442
1.01678
0.234266
0.235445
0.237802
0.24134
0.246062
0.251971
0.25907
0.267363
0.276854
0.287547
0.299444
0.312547
0.326856
0.342368
0.35908
0.376983
0.396065
0.41631
0.437697
0.460198
0.483778
0.508397
0.534004
0.560541
0.587939
0.616122
0.644998
0.67447
0.704426
0.734743
0.765288
0.795915
0.826469
0.856785
0.88669
0.916
0.94453
0.972087
0.998478
1.02351
1.04699
1.06874
1.08857
1.10633
1.12185
1.13501
1.14568
1.15378
1.15922
1.16195
0.25989
0.261207
0.263842
0.267797
0.273077
0.279684
0.287624
0.296902
0.307523
0.319491
0.332813
0.34749
0.363524
0.380915
0.399659
0.419749
0.441174
0.463919
0.48796
0.513269
0.539811
0.56754
0.596404
0.626338
0.657269
0.689109
0.721761
0.755113
0.789041
0.823409
0.858064
0.892843
0.92757
0.962055
0.996101
1.0295
1.06203
1.09348
1.12363
1.15224
1.17909
1.20398
1.22669
1.24704
1.26483
1.27992
1.29217
1.30145
1.30769
1.31083
0.284846
0.286302
0.289214
0.293586
0.299422
0.306728
0.315509
0.325771
0.337523
0.350771
0.365522
0.38178
0.399549
0.418832
0.439625
0.461925
0.485721
0.510998
0.537734
0.565901
0.595461
0.626368
0.658566
0.691985
0.726547
0.762157
0.798708
0.836079
0.874131
0.912712
0.951655
0.990775
1.02987
1.06874
1.10715
1.14486
1.18163
1.21721
1.25133
1.28375
1.31421
1.34245
1.36824
1.39136
1.41159
1.42875
1.44268
1.45325
1.46036
1.46393
0.309058
0.310651
0.31384
0.318627
0.325018
0.33302
0.34264
0.353887
0.36677
0.381299
0.397482
0.415327
0.43484
0.456026
0.478886
0.503417
0.529611
0.557455
0.586929
0.618004
0.650643
0.684799
0.720412
0.757412
0.795713
0.835216
0.875803
0.917343
0.959686
1.00266
1.04609
1.08977
1.13346
1.17695
1.21997
1.26225
1.30352
1.34349
1.38187
1.41836
1.45267
1.48452
1.51362
1.53972
1.56258
1.58198
1.59773
1.60969
1.61773
1.62177
0.332441
0.334172
0.337635
0.342836
0.34978
0.358475
0.368932
0.381161
0.395174
0.410982
0.428599
0.448034
0.469298
0.492399
0.51734
0.544123
0.572742
0.603187
0.635441
0.669476
0.705257
0.742735
0.781852
0.822534
0.86469
0.908216
0.952988
0.998864
1.04568
1.09326
1.14139
1.18985
1.2384
1.28677
1.33468
1.38183
1.4279
1.47257
1.5155
1.55637
1.59483
1.63056
1.66324
1.69258
1.71828
1.74011
1.75785
1.77131
1.78037
1.78492
0.354915
0.356781
0.360517
0.366127
0.37362
0.383005
0.394294
0.4075
0.422638
0.439724
0.458773
0.4798
0.502819
0.527842
0.554877
0.58393
0.614999
0.648079
0.683154
0.720201
0.759187
0.800065
0.842776
0.887245
0.933379
0.98107
1.03019
1.08058
1.13207
1.18446
1.23754
1.29105
1.34473
1.39828
1.4514
1.50373
1.55494
1.60465
1.65249
1.69808
1.74103
1.78098
1.81754
1.85039
1.87919
1.90367
1.92357
1.93869
1.94885
1.95396
0.376391
0.378393
0.382398
0.388414
0.39645
0.406518
0.418632
0.432808
0.449066
0.467423
0.4879
0.510516
0.535291
0.56224
0.591378
0.622716
0.656257
0.692001
0.729938
0.770048
0.812303
0.856657
0.903055
0.95142
1.00166
1.05366
1.10729
1.16239
1.21877
1.27622
1.3345
1.39335
1.45247
1.51154
1.57021
1.6281
1.68482
1.73997
1.79311
1.84381
1.89163
1.93616
1.97696
2.01365
2.04585
2.07323
2.09551
2.11243
2.12382
2.12955
0.396784
0.398918
0.403189
0.409605
0.418177
0.42892
0.441849
0.456986
0.474352
0.493971
0.515868
0.540067
0.566593
0.595469
0.626715
0.660348
0.696379
0.734813
0.775648
0.818869
0.864453
0.91236
0.962537
1.01491
1.06939
1.12586
1.18418
1.24419
1.30569
1.36845
1.43223
1.49672
1.56162
1.62657
1.69117
1.75503
1.8177
1.87871
1.93759
1.99385
2.04699
2.09652
2.14196
2.18286
2.2188
2.24938
2.27427
2.29319
2.30593
2.31234
0.416003
0.418268
0.4228
0.429609
0.438708
0.450114
0.463847
0.47993
0.498391
0.519258
0.542561
0.56833
0.596599
0.627395
0.660748
0.69668
0.735213
0.776359
0.820122
0.866498
0.915468
0.967002
1.02105
1.07755
1.1364
1.19749
1.26069
1.32582
1.39268
1.46103
1.53061
1.60109
1.67214
1.74336
1.81434
1.88462
1.9537
2.02107
2.08619
2.14851
2.20745
2.26247
2.31302
2.35856
2.39862
2.43274
2.46053
2.48167
2.4959
2.50306
0.43396
0.436351
0.441138
0.448331
0.457945
0.470001
0.484521
0.501534
0.521071
0.543166
0.567856
0.595179
0.625173
0.657878
0.693328
0.731558
0.772597
0.816467
0.863183
0.91275
0.965159
1.02039
1.0784
1.13912
1.20248
1.26836
1.33663
1.40711
1.47958
1.55382
1.62952
1.70635
1.78395
1.86189
1.93971
2.01691
2.09293
2.16721
2.23914
2.30808
2.3734
2.43446
2.49063
2.54131
2.58593
2.62397
2.65498
2.67859
2.69449
2.7025
0.450561
0.453076
0.45811
0.465677
0.475792
0.48848
0.503767
0.521687
0.542276
0.565574
0.591626
0.620477
0.652175
0.686766
0.724297
0.764813
0.808353
0.854952
0.904636
0.957422
1.01331
1.0723
1.13435
1.19941
1.26741
1.33824
1.41177
1.48782
1.56618
1.6466
1.72878
1.81235
1.89694
1.98207
2.06725
2.15192
2.23548
2.31728
2.39664
2.47284
2.54518
2.6129
2.6753
2.73167
2.78136
2.82378
2.85838
2.88474
2.90251
2.91145
0.465717
0.468351
0.473624
0.48155
0.49215
0.505448
0.521479
0.540278
0.561889
0.586359
0.61374
0.644086
0.677454
0.713902
0.753487
0.796266
0.842292
0.891613
0.944268
1.00029
1.05969
1.12249
1.18865
1.25815
1.33091
1.40685
1.48583
1.56769
1.65221
1.73914
1.82816
1.91889
2.01093
2.10377
2.19688
2.28963
2.38136
2.47136
2.55886
2.64305
2.72312
2.79821
2.86752
2.93023
2.98558
3.03288
3.0715
3.10095
3.12081
3.13081
0.479336
0.482084
0.487584
0.495855
0.506918
0.520803
0.537547
0.557192
0.579789
0.605391
0.63406
0.665859
0.700855
0.739118
0.780719
0.825727
0.87421
0.926232
0.981848
1.04111
1.10405
1.17068
1.24102
1.31504
1.39268
1.47388
1.55851
1.6464
1.73737
1.83113
1.92737
2.02571
2.12569
2.2268
2.32844
2.42994
2.53057
2.62952
2.72594
2.81893
2.90753
2.9908
3.06779
3.13756
3.19924
3.252
3.29515
3.32806
3.35027
3.36146
0.491328
0.494183
0.4999
0.508497
0.52
0.534441
0.551864
0.572316
0.595854
0.622542
0.652447
0.685646
0.722217
0.762242
0.805806
0.852994
0.90389
0.958576
1.01713
1.07961
1.14608
1.21658
1.29114
1.36975
1.45238
1.53897
1.62942
1.72359
1.82127
1.9222
2.02607
2.13246
2.24092
2.35089
2.46172
2.57269
2.68299
2.79173
2.89795
3.00062
3.09868
3.19102
3.27657
3.35423
3.42299
3.4819
3.53011
3.56693
3.59179
3.60431
0.501605
0.50456
0.510479
0.519381
0.531296
0.54626
0.56432
0.585533
0.609961
0.637677
0.668759
0.703294
0.741373
0.783092
0.828552
0.877855
0.931104
0.988399
1.04984
1.11551
1.1855
1.25986
1.33866
1.42191
1.50961
1.60172
1.69817
1.79882
1.90348
2.01192
2.12381
2.23874
2.35623
2.47568
2.59641
2.71763
2.83845
2.95789
3.07486
3.18821
3.29673
3.39917
3.49425
3.58074
3.65744
3.72324
3.77717
3.81839
3.84624
3.86028
0.51008
0.513128
0.519232
0.528416
0.540711
0.556158
0.57481
0.596729
0.621987
0.650665
0.682852
0.718646
0.758153
0.801484
0.848756
0.90009
0.95561
1.01544
1.0797
1.1485
1.22196
1.30016
1.3832
1.47111
1.56394
1.66167
1.76425
1.87158
1.9835
2.09978
2.22009
2.34404
2.47111
2.6007
2.73208
2.86438
2.99664
3.12776
3.25654
3.38167
3.50177
3.61541
3.72113
3.81749
3.9031
3.97666
4.03702
4.0832
4.11443
4.13018
0.516672
0.519803
0.526075
0.535513
0.548152
0.564038
0.583228
0.605793
0.631811
0.661373
0.694581
0.731545
0.772385
0.817228
0.86621
0.919471
0.977159
1.03942
1.1064
1.17825
1.25511
1.33709
1.42433
1.51691
1.61489
1.7183
1.82714
1.94132
2.06073
2.18515
2.31428
2.44772
2.58497
2.72537
2.86816
3.01242
3.15709
3.30096
3.44267
3.58078
3.71369
3.83977
3.95734
4.06473
4.16032
4.2426
4.3102
4.36197
4.39701
4.41469
0.521303
0.524507
0.530927
0.540589
0.553531
0.569805
0.589473
0.612613
0.639313
0.669672
0.703805
0.741834
0.783894
0.830132
0.880701
0.935764
0.995492
1.06006
1.12964
1.20442
1.28456
1.37024
1.46161
1.5588
1.66192
1.77105
1.88622
2.00739
2.13449
2.26733
2.40565
2.54905
2.69703
2.84893
3.00394
3.16106
3.31916
3.47689
3.63276
3.78511
3.93215
4.07202
4.20277
4.32247
4.42922
4.52126
4.59699
4.65506
4.69439
4.71424
0.523901
0.527167
0.533711
0.543563
0.556764
0.57337
0.59345
0.617087
0.644378
0.675435
0.710382
0.749357
0.79251
0.840005
0.892017
0.948731
1.01034
1.07706
1.14909
1.22664
1.30993
1.39916
1.49455
1.59626
1.70446
1.81928
1.94081
2.06906
2.204
2.34551
2.49334
2.64713
2.80639
2.97045
3.13846
3.30937
3.48194
3.6547
3.82598
3.99393
4.15652
4.3116
4.45696
4.59033
4.70952
4.81247
4.89731
4.96243
5.00657
5.02887
0.5244
0.527715
0.53436
0.544365
0.557775
0.57465
0.595067
0.619114
0.646899
0.678542
0.71418
0.753964
0.798063
0.846658
0.899944
0.958134
1.02145
1.09012
1.1644
1.24454
1.33078
1.4234
1.52263
1.62872
1.74188
1.86231
1.99016
2.12551
2.26839
2.41873
2.57634
2.74091
2.91194
3.08879
3.27056
3.45616
3.64424
3.8332
4.02119
4.20613
4.38572
4.55752
4.71897
4.86746
5.00046
5.11554
5.21052
5.2835
5.33302
5.35805
0.522743
0.526094
0.532812
0.542929
0.556494
0.573571
0.594242
0.618604
0.646772
0.678877
0.715068
0.755511
0.800389
0.849905
0.904275
0.963735
1.02854
1.09895
1.17525
1.25773
1.34669
1.44245
1.54531
1.65556
1.7735
1.89938
2.03344
2.17583
2.32666
2.48592
2.6535
2.82913
3.01236
3.20254
3.39878
3.59991
3.8045
4.0108
4.21677
4.42009
4.61816
4.80819
4.98726
5.15237
5.30057
5.42904
5.53523
5.61693
5.67241
5.70046
0.51888
0.522252
0.529014
0.5392
0.552861
0.570067
0.590903
0.615475
0.643906
0.676337
0.712929
0.753861
0.799335
0.849569
0.904805
0.965303
1.03134
1.10323
1.18128
1.26582
1.35722
1.45583
1.56201
1.67615
1.7986
1.9297
2.06976
2.21903
2.37771
2.54588
2.72349
2.91036
3.10608
3.31004
3.52132
3.73873
3.96073
4.18543
4.41058
4.63359
4.85156
5.06131
5.25951
5.4427
5.60749
5.75061
5.86909
5.96036
6.02239
6.05377
0.512772
0.516151
0.522925
0.533133
0.546827
0.564081
0.584987
0.609657
0.63822
0.670828
0.707654
0.748891
0.794755
0.845486
0.901344
0.962618
1.02962
1.10267
1.18215
1.26843
1.36191
1.46301
1.57217
1.68983
1.81643
1.9524
2.09815
2.25403
2.42033
2.59723
2.78481
2.98294
3.19129
3.40929
3.63604
3.8703
4.11045
4.35443
4.59981
4.8437
5.08285
5.31368
5.53239
5.73505
5.91774
6.07671
6.2085
6.31016
6.3793
6.4143
0.504393
0.507761
0.514515
0.524693
0.538353
0.555571
0.576444
0.601089
0.629645
0.662271
0.699151
0.740491
0.786522
0.837502
0.893714
0.95547
1.02311
1.097
1.17754
1.26516
1.36032
1.46349
1.57517
1.6959
1.8262
1.96659
2.11758
2.27965
2.45318
2.6385
2.83578
3.04499
3.26591
3.498
3.74039
3.99183
4.2506
4.51453
4.78092
5.04662
5.308
5.56105
5.80147
6.02478
6.22652
6.40238
6.54841
6.66116
6.73792
6.7768
0.493727
0.497066
0.503764
0.513861
0.527415
0.544507
0.565238
0.58973
0.618129
0.650601
0.687341
0.728567
0.774523
0.825485
0.881756
0.943672
1.0116
1.08594
1.16714
1.25566
1.35202
1.45675
1.57044
1.69369
1.82711
1.97134
2.12699
2.29465
2.47487
2.66806
2.87455
3.09442
3.32755
3.57349
3.8314
4.10002
4.37756
4.66171
4.94956
5.23764
5.52194
5.79799
6.06097
6.30582
6.52747
6.72104
6.882
7.00643
7.0912
7.13416
0.48077
0.484063
0.490668
0.500628
0.514002
0.530874
0.551349
0.575552
0.603635
0.635773
0.672167
0.713046
0.758669
0.809324
0.865335
0.927058
0.994889
1.06926
1.15065
1.23957
1.3366
1.44232
1.55739
1.6825
1.81836
1.9657
2.12526
2.29776
2.48388
2.68418
2.89911
3.12893
3.3736
3.63278
3.90569
4.19106
4.48707
4.79125
5.1005
5.41103
5.71844
6.0178
6.3037
6.57052
6.81255
7.02427
7.20058
7.33702
7.43004
7.47721
0.465534
0.468762
0.475237
0.485002
0.498119
0.514674
0.534772
0.558545
0.586147
0.61776
0.653591
0.693879
0.738892
0.788934
0.844341
0.905493
0.972807
1.04675
1.12782
1.2166
1.31368
1.41974
1.53548
1.66169
1.79916
1.94874
2.11129
2.28766
2.47866
2.68503
2.90736
3.14604
3.40119
3.67257
3.95948
4.26067
4.57427
4.89771
5.22767
5.56007
5.89014
6.21243
6.52102
6.80964
7.07196
7.30179
7.49344
7.6419
7.74321
7.7946
0.448047
0.45119
0.457496
0.467007
0.479787
0.495923
0.515522
0.538718
0.565669
0.596559
0.631601
0.671042
0.715156
0.764259
0.8187
0.878876
0.945224
1.01823
1.09845
1.18646
1.28294
1.38859
1.50421
1.63063
1.76877
1.91956
2.08399
2.26304
2.45767
2.66877
2.89708
3.14317
3.40729
3.68933
3.98867
4.30412
4.63378
4.97497
5.3242
5.67712
6.02857
6.37264
6.70286
7.01236
7.29417
7.54146
7.74792
7.90802
8.01734
8.07282
0.42835
0.431388
0.437485
0.446682
0.459045
0.474659
0.493634
0.516103
0.542226
0.572189
0.606211
0.644538
0.687453
0.735278
0.788374
0.847147
0.912053
0.9836
1.06236
1.14896
1.24409
1.34854
1.46314
1.5888
1.72652
1.87733
2.04234
2.22266
2.41938
2.63355
2.86608
3.11768
3.38877
3.67937
3.98896
4.31641
4.65981
5.01643
5.38261
5.75375
6.12434
6.48807
6.83793
7.16649
7.46615
7.72951
7.94963
8.12048
8.23721
8.29649
0.406501
0.409414
0.415262
0.424086
0.435949
0.450938
0.46916
0.490751
0.515868
0.544698
0.57746
0.614402
0.655811
0.702009
0.753364
0.810292
0.873257
0.942784
1.01946
1.10394
1.19696
1.29932
1.41191
1.53573
1.67181
1.82131
1.98541
2.16535
2.36236
2.57762
2.81221
3.06699
3.34253
3.63898
3.95595
4.29238
4.64638
5.01517
5.39499
5.78102
6.16747
6.54764
6.91407
7.25883
7.57378
7.85092
8.08283
8.26298
8.38613
8.4487
0.382574
0.385343
0.390902
0.399291
0.410574
0.424834
0.442178
0.462737
0.486669
0.514159
0.545422
0.580705
0.620292
0.664508
0.713721
0.768347
0.828857
0.895783
0.969723
1.05135
1.14141
1.24075
1.3503
1.47108
1.60421
1.7509
1.91243
2.09013
2.28535
2.49941
2.73352
2.98868
3.26561
3.5646
3.88539
4.22697
4.58754
4.96429
5.35338
5.74987
6.14773
6.53996
6.91875
7.27574
7.60234
7.89009
8.13111
8.31849
8.44665
8.51179
0.356659
0.359265
0.364496
0.372392
0.383014
0.396442
0.412782
0.432161
0.454731
0.480673
0.510198
0.543547
0.581001
0.622877
0.669541
0.721404
0.778936
0.842667
0.913198
0.991207
1.07745
1.17279
1.27818
1.39467
1.52342
1.66568
1.82281
1.99622
2.18735
2.39761
2.62833
2.88064
3.15541
3.45303
3.77335
4.1155
4.47772
4.85724
5.2502
5.65159
6.05524
6.45397
6.83971
7.20382
7.53737
7.83158
8.07823
8.27012
8.40143
8.4682
0.328864
0.331288
0.336153
0.343498
0.353381
0.365879
0.381093
0.399143
0.420178
0.444371
0.471923
0.503069
0.538079
0.577263
0.620973
0.669613
0.723641
0.783581
0.850022
0.923637
1.00518
1.09551
1.19559
1.30647
1.42933
1.56546
1.71625
1.88314
2.06764
2.27125
2.49537
2.74123
3.0098
3.30159
3.61656
3.95395
4.31208
4.68827
5.0787
5.47836
5.88108
6.27959
6.66575
7.03075
7.36553
7.66111
7.90913
8.10219
8.23436
8.3016
0.299312
0.301534
0.305998
0.312737
0.321806
0.333279
0.347249
0.363831
0.383164
0.405411
0.430764
0.459446
0.491712
0.527857
0.568219
0.613184
0.663193
0.718749
0.780425
0.848871
0.924828
1.00913
1.10272
1.20665
1.32208
1.4503
1.5927
1.75074
1.92594
2.11984
2.33389
2.56939
2.82736
3.10841
3.41262
3.73929
4.0869
4.45288
4.83351
5.2239
5.61798
6.00857
6.38759
6.74629
7.07564
7.3667
7.61109
7.80144
7.9318
7.99814
0.268139
0.270144
0.274171
0.280253
0.288439
0.298796
0.311412
0.326392
0.343865
0.363982
0.386921
0.412889
0.442124
0.474901
0.511536
0.552392
0.597882
0.648481
0.704732
0.767251
0.836744
0.914009
0.99995
1.09558
1.20203
1.32054
1.45247
1.59926
1.76242
1.94344
2.1438
2.36482
2.60754
2.87264
3.16026
3.46985
3.79998
4.14826
4.51118
4.88405
5.26103
5.63521
5.99875
6.34319
6.65974
6.93971
7.17493
7.35823
7.48381
7.54774
0.235498
0.237271
0.240831
0.246207
0.253444
0.262603
0.273762
0.287017
0.302483
0.320298
0.340623
0.363645
0.389581
0.418681
0.451234
0.48757
0.52807
0.573169
0.623367
0.679234
0.741425
0.810682
0.887846
0.973869
1.06981
1.17685
1.29626
1.42941
1.57775
1.74272
1.92573
2.12807
2.35079
2.59458
2.85964
3.14552
3.45095
3.77375
4.11066
4.45733
4.80831
5.15711
5.49636
5.8181
6.11402
6.37592
6.59609
6.76773
6.88535
6.94525
0.201555
0.203081
0.206146
0.210774
0.217005
0.22489
0.2345
0.245918
0.259245
0.274602
0.292131
0.311996
0.334388
0.359529
0.387673
0.419114
0.454189
0.493285
0.536849
0.585392
0.639497
0.699835
0.767163
0.842341
0.926332
1.0202
1.12513
1.24235
1.3732
1.51902
1.68111
1.86067
2.05871
2.2759
2.51246
2.76805
3.04156
3.33107
3.63366
3.94542
4.26141
4.57578
4.88182
5.17229
5.43965
5.67641
5.87553
6.03081
6.13724
6.19147
0.166487
0.167755
0.170301
0.174144
0.179316
0.185863
0.193842
0.203325
0.214396
0.227158
0.24173
0.258252
0.276885
0.297817
0.321263
0.347475
0.376737
0.409383
0.445792
0.486403
0.531718
0.582312
0.638841
0.702047
0.772764
0.851921
0.940537
1.03971
1.15059
1.27437
1.41219
1.56512
1.73407
1.91965
2.12209
2.34113
2.57585
2.8246
3.0849
3.35338
3.62577
3.89698
4.16122
4.41218
4.64329
4.84805
5.02033
5.15471
5.24684
5.2938
0.130482
0.131482
0.13349
0.136516
0.140587
0.14574
0.15202
0.159484
0.168201
0.178252
0.189732
0.202753
0.217443
0.233954
0.252457
0.273153
0.296273
0.322084
0.350891
0.38305
0.418965
0.459103
0.503996
0.554247
0.610536
0.673621
0.744335
0.823578
0.912299
1.01147
1.12205
1.24492
1.38083
1.53031
1.69357
1.87041
2.06013
2.26139
2.47219
2.68979
2.91073
3.13086
3.34546
3.54938
3.73727
3.90378
4.04392
4.15326
4.22823
4.26646
0.093736
0.0944576
0.0959146
0.0980988
0.101034
0.104747
0.109274
0.114654
0.120938
0.128185
0.136465
0.145858
0.156459
0.168377
0.181739
0.196692
0.213403
0.232068
0.252912
0.276196
0.302217
0.331319
0.363893
0.400387
0.441302
0.4872
0.538698
0.596465
0.661207
0.73365
0.814508
0.904445
1.00402
1.11365
1.23349
1.36342
1.50291
1.651
1.80621
1.96654
2.12941
2.29177
2.45012
2.60065
2.73937
2.86236
2.96588
3.04667
3.10207
3.13035
0.0564527
0.0568758
0.0577577
0.0590774
0.0608495
0.0630911
0.0658231
0.0690708
0.0728645
0.0772401
0.0822398
0.087913
0.0943171
0.101519
0.109594
0.118634
0.12874
0.140032
0.152647
0.166744
0.182505
0.200142
0.219893
0.242033
0.266871
0.294751
0.326054
0.361191
0.400598
0.444723
0.494008
0.548865
0.609645
0.6766
0.749841
0.829292
0.914641
1.0053
1.10036
1.1986
1.29845
1.39801
1.49515
1.58752
1.67267
1.74818
1.81176
1.86138
1.89545
1.91292
0.0188514
0.0189846
0.0192771
0.019718
0.0203104
0.0210598
0.0219731
0.0230589
0.0243273
0.0257903
0.0274621
0.0293593
0.0315012
0.03391
0.0366116
0.0396361
0.0430179
0.0467972
0.0510202
0.0557404
0.0610191
0.0669272
0.0735458
0.0809669
0.0892947
0.0986457
0.109148
0.120941
0.134173
0.148993
0.165553
0.183992
0.20443
0.226952
0.251598
0.278343
0.307082
0.337619
0.36965
0.402761
0.436422
0.469998
0.502764
0.533928
0.562665
0.588154
0.60962
0.626385
0.637905
0.643856
)
;

boundaryField
{
    walls
    {
        type            calculated;
        value           nonuniform List<scalar> 
200
(
0
0
0
0
0
0
0
0
0
0
0
0
0
0
0
0
0
0
0
0
0
0
0
0
0
0
0
0
0
0
0
0
0
0
0
0
0
0
0
0
0
0
0
0
0
0
0
0
0
0
0.0141849
0.0424953
0.0707069
0.0987794
0.126619
0.154158
0.181326
0.208053
0.234266
0.25989
0.284846
0.309058
0.332441
0.354915
0.376391
0.396784
0.416003
0.43396
0.450561
0.465717
0.479336
0.491328
0.501605
0.51008
0.516672
0.521303
0.523901
0.5244
0.522743
0.51888
0.512772
0.504393
0.493727
0.48077
0.465534
0.448047
0.42835
0.406501
0.382574
0.356659
0.328864
0.299312
0.268139
0.235498
0.201555
0.166487
0.130482
0.093736
0.0564527
0.0188514
0.0658506
0.197747
0.330251
0.463789
0.598779
0.735648
0.874831
1.01678
1.16195
1.31083
1.46393
1.62177
1.78492
1.95396
2.12955
2.31234
2.50306
2.7025
2.91145
3.13081
3.36146
3.60431
3.86028
4.13018
4.41469
4.71424
5.02887
5.35805
5.70046
6.05377
6.4143
6.7768
7.13416
7.47721
7.7946
8.07282
8.29649
8.4487
8.51179
8.4682
8.3016
7.99814
7.54774
6.94525
6.19147
5.2938
4.26646
3.13035
1.91292
0.643856
0
0
0
0
0
0
0
0
0
0
0
0
0
0
0
0
0
0
0
0
0
0
0
0
0
0
0
0
0
0
0
0
0
0
0
0
0
0
0
0
0
0
0
0
0
0
0
0
0
0
)
;
    }
    frontAndBack
    {
        type            empty;
    }
}


// ************************************************************************* //
