/*--------------------------------*- C++ -*----------------------------------*\
| =========                 |                                                 |
| \\      /  F ield         | OpenFOAM: The Open Source CFD Toolbox           |
|  \\    /   O peration     | Version:  2406                                  |
|   \\  /    A nd           | Website:  www.openfoam.com                      |
|    \\/     M anipulation  |                                                 |
\*---------------------------------------------------------------------------*/
FoamFile
{
    version     2.0;
    format      ascii;
    arch        "LSB;label=32;scalar=64";
    class       volScalarField;
    location    "2.3";
    object      T;
}
// * * * * * * * * * * * * * * * * * * * * * * * * * * * * * * * * * * * * * //

dimensions      [0 0 0 1 0 0 0];

internalField   nonuniform List<scalar> 
2500
(
0.384405
0.384973
0.386105
0.387801
0.390056
0.392866
0.396222
0.400119
0.404545
0.409489
0.41494
0.420883
0.427303
0.434181
0.441499
0.449236
0.45737
0.465877
0.474729
0.483899
0.493358
0.503073
0.513011
0.523137
0.533414
0.543804
0.554266
0.56476
0.575242
0.585669
0.595997
0.60618
0.616173
0.625929
0.635404
0.644551
0.653326
0.661685
0.669586
0.676988
0.683852
0.690142
0.695824
0.700868
0.705244
0.70893
0.711904
0.714149
0.715653
0.716407
0.384973
0.385543
0.386681
0.388385
0.390651
0.393475
0.396848
0.400764
0.405212
0.410181
0.41566
0.421633
0.428086
0.435
0.442357
0.450136
0.458314
0.466867
0.475768
0.48499
0.494502
0.504273
0.514269
0.524456
0.534795
0.545248
0.555775
0.566334
0.576883
0.587378
0.597774
0.608024
0.618084
0.627907
0.637446
0.646657
0.655494
0.663913
0.671871
0.679327
0.686241
0.692578
0.698303
0.703384
0.707793
0.711507
0.714504
0.716766
0.718282
0.719041
0.386105
0.386681
0.38783
0.389551
0.391839
0.39469
0.398097
0.402051
0.406544
0.411563
0.417097
0.423132
0.429651
0.436637
0.444072
0.451933
0.460199
0.468845
0.477845
0.48717
0.49679
0.506673
0.516786
0.527092
0.537555
0.548135
0.558792
0.569484
0.580166
0.590796
0.601327
0.611713
0.621908
0.631864
0.641534
0.650873
0.659834
0.668372
0.676445
0.684009
0.691024
0.697455
0.703264
0.708421
0.712898
0.716667
0.71971
0.722007
0.723546
0.724317
0.387801
0.388385
0.389551
0.391296
0.393618
0.396511
0.399967
0.40398
0.408539
0.413633
0.419251
0.425377
0.431996
0.43909
0.446641
0.454627
0.463025
0.471811
0.480958
0.490438
0.50022
0.510272
0.52056
0.531048
0.541697
0.552468
0.56332
0.574211
0.585095
0.595928
0.606663
0.617253
0.627651
0.637808
0.647676
0.657208
0.666356
0.675075
0.68332
0.691047
0.698215
0.704787
0.710725
0.715997
0.720573
0.724428
0.727539
0.729888
0.731463
0.732251
0.390056
0.390651
0.391839
0.393618
0.395984
0.398932
0.402455
0.406546
0.411194
0.416388
0.422117
0.428365
0.435117
0.442356
0.450062
0.458214
0.466789
0.475763
0.485107
0.494794
0.504793
0.515071
0.525593
0.536323
0.547221
0.558249
0.569363
0.580519
0.591674
0.602779
0.613788
0.624652
0.635322
0.645749
0.655882
0.665674
0.675074
0.684035
0.692512
0.700458
0.707832
0.714594
0.720705
0.726131
0.730842
0.734811
0.738015
0.740435
0.742056
0.742869
0.392866
0.393475
0.39469
0.396511
0.398932
0.401949
0.405556
0.409743
0.414503
0.419822
0.42569
0.432091
0.439011
0.44643
0.454331
0.462691
0.471488
0.480696
0.490288
0.500235
0.510506
0.521067
0.531883
0.542917
0.55413
0.565479
0.576922
0.588414
0.599908
0.611357
0.622711
0.63392
0.644933
0.6557
0.666168
0.676287
0.686005
0.695273
0.704043
0.712267
0.7199
0.726902
0.733232
0.738854
0.743736
0.747849
0.75117
0.753679
0.75536
0.756203
0.396222
0.396848
0.398097
0.399967
0.402455
0.405556
0.409262
0.413567
0.418459
0.423929
0.429964
0.43655
0.44367
0.451307
0.459442
0.468052
0.477116
0.486606
0.496497
0.506757
0.517356
0.528259
0.53943
0.550832
0.562423
0.574161
0.586002
0.597899
0.609804
0.621668
0.63344
0.645068
0.656498
0.667677
0.678552
0.689068
0.699173
0.708814
0.717939
0.726501
0.734451
0.741744
0.748341
0.754201
0.759291
0.763581
0.767045
0.769662
0.771416
0.772295
0.400119
0.400764
0.402051
0.40398
0.406546
0.409743
0.413567
0.418007
0.423056
0.428702
0.434932
0.441733
0.449088
0.456979
0.465388
0.474292
0.483667
0.493489
0.503729
0.514356
0.52534
0.536644
0.548232
0.560065
0.572101
0.584297
0.596606
0.60898
0.621371
0.633725
0.64599
0.658111
0.670033
0.6817
0.693055
0.704042
0.714604
0.724686
0.734234
0.743195
0.75152
0.759161
0.766074
0.772217
0.777554
0.782054
0.785687
0.788433
0.790273
0.791196
0.404545
0.405212
0.406544
0.408539
0.411194
0.414503
0.418459
0.423056
0.428283
0.43413
0.440584
0.447631
0.455255
0.463438
0.472161
0.481401
0.491135
0.501336
0.511978
0.523027
0.534453
0.546219
0.558287
0.570617
0.583167
0.59589
0.608739
0.621665
0.634615
0.647536
0.660371
0.673065
0.685557
0.69779
0.709703
0.721236
0.732329
0.742925
0.752964
0.762392
0.771153
0.779199
0.78648
0.792953
0.798579
0.803323
0.807155
0.810051
0.811993
0.812966
0.409489
0.410181
0.411563
0.413633
0.416388
0.419822
0.423929
0.428702
0.43413
0.440204
0.44691
0.454235
0.462162
0.470674
0.479751
0.489371
0.49951
0.510141
0.521236
0.532764
0.544691
0.55698
0.569592
0.582487
0.595619
0.608942
0.622406
0.635959
0.649548
0.663114
0.676601
0.689947
0.703092
0.715972
0.728523
0.740682
0.752385
0.763569
0.774173
0.784136
0.7934
0.801911
0.809616
0.81647
0.822428
0.827454
0.831515
0.834584
0.836642
0.837674
0.41494
0.41566
0.417097
0.419251
0.422117
0.42569
0.429964
0.434932
0.440584
0.44691
0.453897
0.461531
0.469796
0.478675
0.488147
0.498191
0.508782
0.519893
0.531496
0.543558
0.556046
0.568921
0.582143
0.595671
0.609458
0.623454
0.63761
0.65187
0.666177
0.680472
0.694694
0.708778
0.72266
0.736272
0.749547
0.762416
0.774811
0.786664
0.797909
0.808481
0.818317
0.827358
0.835548
0.842835
0.849173
0.85452
0.858842
0.862109
0.8643
0.865399
0.420883
0.421633
0.423132
0.425377
0.428365
0.432091
0.43655
0.441733
0.447631
0.454235
0.461531
0.469506
0.478144
0.487427
0.497336
0.507848
0.518939
0.530581
0.542746
0.5554
0.568509
0.582035
0.595935
0.610166
0.624681
0.639428
0.654354
0.669402
0.684513
0.699623
0.714667
0.729578
0.744287
0.758721
0.772809
0.786476
0.79965
0.812258
0.824226
0.835486
0.845968
0.855609
0.864346
0.872124
0.878892
0.884604
0.889222
0.892714
0.895056
0.896231
0.427303
0.428086
0.429651
0.431996
0.435117
0.439011
0.44367
0.449088
0.455255
0.462162
0.469796
0.478144
0.48719
0.496916
0.507302
0.518327
0.529966
0.542191
0.554973
0.568278
0.582071
0.596313
0.61096
0.625968
0.641286
0.656863
0.672642
0.688563
0.704564
0.720579
0.736538
0.752369
0.767999
0.78335
0.798345
0.812906
0.826952
0.840404
0.853184
0.865216
0.876424
0.886739
0.896093
0.904424
0.911676
0.917799
0.922751
0.926497
0.92901
0.93027
0.434181
0.435
0.436637
0.43909
0.442356
0.44643
0.451307
0.456979
0.463438
0.470674
0.478675
0.487427
0.496916
0.507123
0.51803
0.529613
0.541848
0.554709
0.568163
0.582179
0.596719
0.611744
0.627209
0.643068
0.659268
0.675757
0.692474
0.709357
0.72634
0.743353
0.760323
0.777173
0.793823
0.810192
0.826196
0.841749
0.856766
0.87116
0.884847
0.897741
0.909762
0.920831
0.930876
0.939827
0.947623
0.954208
0.959536
0.963567
0.966271
0.967627
0.441499
0.442357
0.444072
0.446641
0.450062
0.454331
0.459442
0.465388
0.472161
0.479751
0.488147
0.497336
0.507302
0.51803
0.529498
0.541685
0.554566
0.568115
0.582299
0.597086
0.612439
0.628315
0.644671
0.661457
0.678621
0.696106
0.713849
0.731786
0.749847
0.767957
0.786039
0.804011
0.821788
0.839281
0.856401
0.873055
0.889149
0.90459
0.919284
0.933139
0.946065
0.957978
0.968794
0.978439
0.986844
0.993946
0.999694
1.00404
1.00696
1.00843
0.449236
0.450136
0.451933
0.454627
0.458214
0.462691
0.468052
0.474292
0.481401
0.489371
0.498191
0.507848
0.518327
0.529613
0.541685
0.554521
0.568099
0.582389
0.597361
0.612981
0.629212
0.64601
0.663331
0.681124
0.699335
0.717903
0.736765
0.755853
0.775091
0.794402
0.813703
0.832907
0.851922
0.870654
0.889004
0.906873
0.924159
0.940759
0.956571
0.971493
0.985427
0.998278
1.00995
1.02037
1.02946
1.03714
1.04336
1.04806
1.05122
1.05281
0.45737
0.458314
0.460199
0.463025
0.466789
0.471488
0.477116
0.483667
0.491135
0.49951
0.508782
0.518939
0.529966
0.541848
0.554566
0.568099
0.582421
0.597507
0.613325
0.629841
0.647017
0.66481
0.683172
0.702054
0.721397
0.74114
0.761217
0.781554
0.802075
0.822695
0.843328
0.86388
0.884253
0.904344
0.924048
0.943256
0.961857
0.979738
0.996787
1.01289
1.02794
1.04184
1.05447
1.06575
1.0756
1.08392
1.09066
1.09577
1.0992
1.10092
0.465877
0.466867
0.468845
0.471811
0.475763
0.480696
0.486606
0.493489
0.501336
0.510141
0.519893
0.530581
0.542191
0.554709
0.568115
0.582389
0.597507
0.613443
0.630166
0.647641
0.66583
0.68469
0.704173
0.724226
0.744791
0.765803
0.787193
0.808885
0.830798
0.852843
0.874927
0.89695
0.918807
0.940388
0.961578
0.982258
1.00231
1.0216
1.04002
1.05743
1.07373
1.08878
1.10248
1.11472
1.1254
1.13445
1.14178
1.14733
1.15106
1.15293
0.474729
0.475768
0.477845
0.480958
0.485107
0.490288
0.496497
0.503729
0.511978
0.521236
0.531496
0.542746
0.554973
0.568163
0.582299
0.597361
0.613325
0.630166
0.647853
0.666351
0.685623
0.705625
0.726308
0.747619
0.769496
0.791875
0.814682
0.837838
0.861258
0.884848
0.908509
0.932134
0.955611
0.97882
1.00164
1.02393
1.04557
1.06643
1.08635
1.10522
1.12288
1.13922
1.1541
1.16741
1.17903
1.18888
1.19686
1.20292
1.20698
1.20902
0.483899
0.48499
0.48717
0.490438
0.494794
0.500235
0.506757
0.514356
0.523027
0.532764
0.543558
0.5554
0.568278
0.582179
0.597086
0.612981
0.629841
0.647641
0.666351
0.685938
0.706363
0.727582
0.749547
0.772203
0.795487
0.819333
0.843664
0.868398
0.893445
0.918707
0.944078
0.969445
0.994685
1.01967
1.04427
1.06833
1.09173
1.11429
1.13588
1.15635
1.17553
1.19329
1.20949
1.22398
1.23666
1.2474
1.25611
1.26272
1.26716
1.26939
0.493358
0.494502
0.49679
0.50022
0.504793
0.510506
0.517356
0.52534
0.534453
0.544691
0.556046
0.568509
0.582071
0.596719
0.612439
0.629212
0.647017
0.66583
0.685623
0.706363
0.728011
0.750525
0.773854
0.797944
0.822733
0.848149
0.874115
0.900546
0.927346
0.954414
0.981635
1.00889
1.03605
1.06297
1.08951
1.11552
1.14083
1.16528
1.18871
1.21094
1.23181
1.25115
1.2688
1.28462
1.29846
1.3102
1.31972
1.32695
1.33181
1.33425
0.503073
0.504273
0.506673
0.510272
0.515071
0.521067
0.528259
0.536644
0.546219
0.55698
0.568921
0.582035
0.596313
0.611744
0.628315
0.64601
0.66481
0.68469
0.705625
0.727582
0.750525
0.77441
0.799188
0.824804
0.851194
0.878288
0.906004
0.934254
0.96294
0.991952
1.02117
1.05047
1.07971
1.10874
1.13741
1.16553
1.19295
1.21947
1.24492
1.2691
1.29183
1.31292
1.3322
1.34949
1.36463
1.37748
1.38792
1.39584
1.40117
1.40385
0.513011
0.514269
0.516786
0.52056
0.525593
0.531883
0.53943
0.548232
0.558287
0.569592
0.582143
0.595935
0.61096
0.627209
0.644671
0.663331
0.683172
0.704173
0.726308
0.749547
0.773854
0.799188
0.8255
0.852734
0.880828
0.909708
0.939292
0.969489
1.0002
1.0313
1.06268
1.09419
1.12568
1.15701
1.18798
1.21843
1.24815
1.27695
1.30463
1.33096
1.35575
1.37879
1.39986
1.41878
1.43538
1.44947
1.46093
1.46963
1.47548
1.47843
0.523137
0.524456
0.527092
0.531048
0.536323
0.542917
0.550832
0.560065
0.570617
0.582487
0.595671
0.610166
0.625968
0.643068
0.661457
0.681124
0.702054
0.724226
0.747619
0.772203
0.797944
0.824804
0.852734
0.88168
0.911579
0.942357
0.973931
1.00621
1.03908
1.07243
1.10613
1.14002
1.17396
1.20777
1.24126
1.27424
1.30649
1.33779
1.36792
1.39663
1.4237
1.44889
1.47197
1.49271
1.51092
1.52641
1.53901
1.54858
1.55502
1.55826
0.533414
0.534795
0.537555
0.541697
0.547221
0.55413
0.562423
0.572101
0.583167
0.595619
0.609458
0.624681
0.641286
0.659268
0.678621
0.699335
0.721397
0.744791
0.769496
0.795487
0.822733
0.851194
0.880828
0.911579
0.943385
0.976174
1.00986
1.04435
1.07954
1.11529
1.15148
1.18795
1.22453
1.26103
1.29726
1.333
1.36801
1.40206
1.43489
1.46623
1.49582
1.5234
1.54871
1.57148
1.5915
1.60854
1.62241
1.63296
1.64006
1.64363
0.543804
0.545248
0.548135
0.552468
0.558249
0.565479
0.574161
0.584297
0.59589
0.608942
0.623454
0.639428
0.656863
0.675757
0.696106
0.717903
0.74114
0.765803
0.791875
0.819333
0.848149
0.878288
0.909708
0.942357
0.976174
1.01109
1.04702
1.08386
1.12151
1.15984
1.1987
1.23793
1.27736
1.31678
1.35599
1.39473
1.43277
1.46983
1.50562
1.53986
1.57225
1.60248
1.63026
1.6553
1.67734
1.69611
1.71141
1.72306
1.7309
1.73485
0.554266
0.555775
0.558792
0.56332
0.569363
0.576922
0.586002
0.596606
0.608739
0.622406
0.63761
0.654354
0.672642
0.692474
0.713849
0.736765
0.761217
0.787193
0.814682
0.843664
0.874115
0.906004
0.939292
0.973931
1.00986
1.04702
1.08531
1.12465
1.16492
1.20599
1.24771
1.28991
1.33241
1.37499
1.41742
1.45944
1.50078
1.54114
1.5802
1.61763
1.65311
1.68628
1.71682
1.74438
1.76867
1.78939
1.80629
1.81916
1.82784
1.8322
0.56476
0.566334
0.569484
0.574211
0.580519
0.588414
0.597899
0.60898
0.621665
0.635959
0.65187
0.669402
0.688563
0.709357
0.731786
0.755853
0.781554
0.808885
0.837838
0.868398
0.900546
0.934254
0.969489
1.00621
1.04435
1.08386
1.12465
1.16662
1.20967
1.25366
1.29843
1.34382
1.38962
1.4356
1.48153
1.52711
1.57205
1.61602
1.65866
1.69962
1.73851
1.77495
1.80854
1.83892
1.86572
1.88861
1.90731
1.92155
1.93116
1.936
0.575242
0.576883
0.580166
0.585095
0.591674
0.599908
0.609804
0.621371
0.634615
0.649548
0.666177
0.684513
0.704564
0.72634
0.749847
0.775091
0.802075
0.830798
0.861258
0.893445
0.927346
0.96294
1.0002
1.03908
1.07954
1.12151
1.16492
1.20967
1.25565
1.30274
1.35076
1.39955
1.44889
1.49854
1.54824
1.59769
1.64655
1.69446
1.74104
1.78588
1.82854
1.86858
1.90558
1.93908
1.96869
1.99401
2.01471
2.0305
2.04116
2.04653
0.585669
0.587378
0.590796
0.595928
0.602779
0.611357
0.621668
0.633725
0.647536
0.663114
0.680472
0.699623
0.720579
0.743353
0.767957
0.794402
0.822695
0.852843
0.884848
0.918707
0.954414
0.991952
1.0313
1.07243
1.11529
1.15984
1.20599
1.25366
1.30274
1.35309
1.40457
1.45698
1.51011
1.5637
1.61748
1.67111
1.72423
1.77645
1.82733
1.87642
1.92324
1.96727
2.00803
2.04501
2.07774
2.10577
2.12871
2.14623
2.15806
2.16402
0.595997
0.597774
0.601327
0.606663
0.613788
0.622711
0.63344
0.64599
0.660371
0.676601
0.694694
0.714667
0.736538
0.760323
0.786039
0.813703
0.843328
0.874927
0.908509
0.944078
0.981635
1.02117
1.06268
1.10613
1.15148
1.1987
1.24771
1.29843
1.35076
1.40457
1.4597
1.51596
1.57313
1.63094
1.6891
1.74724
1.80498
1.86188
1.91747
1.97122
2.0226
2.07104
2.11596
2.15679
2.19299
2.22403
2.24947
2.26892
2.28205
2.28868
0.60618
0.608024
0.611713
0.617253
0.624652
0.63392
0.645068
0.658111
0.673065
0.689947
0.708778
0.729578
0.752369
0.777173
0.804011
0.832907
0.86388
0.89695
0.932134
0.969445
1.00889
1.05047
1.09419
1.14002
1.18795
1.23793
1.28991
1.34382
1.39955
1.45698
1.51596
1.5763
1.63776
1.70008
1.76292
1.82592
1.88865
1.95063
2.01133
2.07017
2.12655
2.17982
2.22933
2.27441
2.31445
2.34884
2.37705
2.39864
2.41323
2.42059
0.616173
0.618084
0.621908
0.627651
0.635322
0.644933
0.656498
0.670033
0.685557
0.703092
0.72266
0.744287
0.767999
0.793823
0.821788
0.851922
0.884253
0.918807
0.955611
0.994685
1.03605
1.07971
1.12568
1.17396
1.22453
1.27736
1.33241
1.38962
1.44889
1.51011
1.57313
1.63776
1.70377
1.77086
1.83871
1.90691
1.975
2.04246
2.1087
2.17309
2.23492
2.29348
2.34802
2.39778
2.44205
2.48013
2.51141
2.53536
2.55157
2.55975
0.625929
0.627907
0.631864
0.637808
0.645749
0.6557
0.667677
0.6817
0.69779
0.715972
0.736272
0.758721
0.78335
0.810192
0.839281
0.870654
0.904344
0.940388
0.97882
1.01967
1.06297
1.10874
1.15701
1.20777
1.26103
1.31678
1.37499
1.4356
1.49854
1.5637
1.63094
1.70008
1.77086
1.84302
1.91618
1.98992
2.06375
2.13709
2.20931
2.27968
2.34743
2.41174
2.47177
2.52665
2.57555
2.61768
2.65233
2.67889
2.69688
2.70596
0.635404
0.637446
0.641534
0.647676
0.655882
0.666168
0.678552
0.693055
0.709703
0.728523
0.749547
0.772809
0.798345
0.826196
0.856401
0.889004
0.924048
0.961578
1.00164
1.04427
1.08951
1.13741
1.18798
1.24126
1.29726
1.35599
1.41742
1.48153
1.54824
1.61748
1.6891
1.76292
1.83871
1.91618
1.99494
2.07455
2.15449
2.23411
2.31272
2.38953
2.46366
2.53419
2.60016
2.6606
2.71455
2.7611
2.79943
2.82884
2.84877
2.85884
0.644551
0.646657
0.650873
0.657208
0.665674
0.676287
0.689068
0.704042
0.721236
0.740682
0.762416
0.786476
0.812906
0.841749
0.873055
0.906873
0.943256
0.982258
1.02393
1.06833
1.11552
1.16553
1.21843
1.27424
1.333
1.39473
1.45944
1.52711
1.59769
1.67111
1.74724
1.82592
1.90691
1.98992
2.07455
2.16035
2.24672
2.333
2.41841
2.50208
2.58303
2.66024
2.73261
2.79903
2.85843
2.90975
2.95207
2.98457
3.00661
3.01774
0.653326
0.655494
0.659834
0.666356
0.675074
0.686005
0.699173
0.714604
0.732329
0.752385
0.774811
0.79965
0.826952
0.856766
0.889149
0.924159
0.961857
1.00231
1.04557
1.09173
1.14083
1.19295
1.24815
1.30649
1.36801
1.43277
1.50078
1.57205
1.64655
1.72423
1.80498
1.88865
1.975
2.06375
2.15449
2.24672
2.33984
2.43311
2.52569
2.61661
2.7048
2.7891
2.86828
2.9411
3.00632
3.06276
3.10935
3.14516
3.16947
3.18175
0.661685
0.663913
0.668372
0.675075
0.684035
0.695273
0.708814
0.724686
0.742925
0.763569
0.786664
0.812258
0.840404
0.87116
0.90459
0.940759
0.979738
1.0216
1.06643
1.11429
1.16528
1.21947
1.27695
1.33779
1.40206
1.46983
1.54114
1.61602
1.69446
1.77645
1.86188
1.95063
2.04246
2.13709
2.23411
2.333
2.43311
2.53366
2.63372
2.73223
2.82801
2.91976
3.00612
3.08569
3.15707
3.21893
3.27006
3.30939
3.3361
3.3496
0.669586
0.671871
0.676445
0.68332
0.692512
0.704043
0.717939
0.734234
0.752964
0.774173
0.797909
0.824226
0.853184
0.884847
0.919284
0.956571
0.996787
1.04002
1.08635
1.13588
1.18871
1.24492
1.30463
1.36792
1.43489
1.50562
1.5802
1.65866
1.74104
1.82733
1.91747
2.01133
2.1087
2.20931
2.31272
2.41841
2.52569
2.63372
2.74149
2.84785
2.9515
3.051
3.14484
3.23145
3.30927
3.3768
3.43266
3.47568
3.50491
3.5197
0.676988
0.679327
0.684009
0.691047
0.700458
0.712267
0.726501
0.743195
0.762392
0.784136
0.808481
0.835486
0.865216
0.897741
0.933139
0.971493
1.01289
1.05743
1.10522
1.15635
1.21094
1.2691
1.33096
1.39663
1.46623
1.53986
1.61763
1.69962
1.78588
1.87642
1.97122
2.07017
2.17309
2.27968
2.38953
2.50208
2.61661
2.73223
2.84785
2.96223
3.07392
3.18136
3.28287
3.37672
3.46117
3.53454
3.5953
3.64213
3.67396
3.69007
0.683852
0.686241
0.691024
0.698215
0.707832
0.7199
0.734451
0.75152
0.771153
0.7934
0.818317
0.845968
0.876424
0.909762
0.946065
0.985427
1.02794
1.07373
1.12288
1.17553
1.23181
1.29183
1.35575
1.4237
1.49582
1.57225
1.65311
1.73851
1.82854
1.92324
2.0226
2.12655
2.23492
2.34743
2.46366
2.58303
2.7048
2.82801
2.9515
3.07392
3.19371
3.30916
3.41843
3.5196
3.61076
3.69006
3.75579
3.80649
3.84097
3.85843
0.690142
0.692578
0.697455
0.704787
0.714594
0.726902
0.741744
0.759161
0.779199
0.801911
0.827358
0.855609
0.886739
0.920831
0.957978
0.998278
1.04184
1.08878
1.13922
1.19329
1.25115
1.31292
1.37879
1.44889
1.5234
1.60248
1.68628
1.77495
1.86858
1.96727
2.07104
2.17982
2.29348
2.41174
2.53419
2.66024
2.7891
2.91976
3.051
3.18136
3.30916
3.43254
3.5495
3.65795
3.75579
3.84098
3.91167
3.96622
4.00334
4.02214
0.695824
0.698303
0.703264
0.710725
0.720705
0.733232
0.748341
0.766074
0.78648
0.809616
0.835548
0.864346
0.896093
0.930876
0.968794
1.00995
1.05447
1.10248
1.1541
1.20949
1.2688
1.3322
1.39986
1.47197
1.54871
1.63026
1.71682
1.80854
1.90558
2.00803
2.11596
2.22933
2.34802
2.47177
2.60016
2.73261
2.86828
3.00612
3.14484
3.28287
3.41843
3.5495
3.67393
3.78945
3.89379
3.98473
4.06024
4.11854
4.15824
4.17835
0.700868
0.703384
0.708421
0.715997
0.726131
0.738854
0.754201
0.772217
0.792953
0.81647
0.842835
0.872124
0.904424
0.939827
0.978439
1.02037
1.06575
1.11472
1.16741
1.22398
1.28462
1.34949
1.41878
1.49271
1.57148
1.6553
1.74438
1.83892
1.93908
2.04501
2.15679
2.27441
2.39778
2.52665
2.6606
2.79903
2.9411
3.08569
3.23145
3.37672
3.5196
3.65795
3.78945
3.91168
4.02218
4.11857
4.19866
4.26055
4.30269
4.32405
0.705244
0.707793
0.712898
0.720573
0.730842
0.743736
0.759291
0.777554
0.798579
0.822428
0.849173
0.878892
0.911676
0.947623
0.986844
1.02946
1.0756
1.1254
1.17903
1.23666
1.29846
1.36463
1.43538
1.51092
1.5915
1.67734
1.76867
1.86572
1.96869
2.07774
2.19299
2.31445
2.44205
2.57555
2.71455
2.85843
3.00632
3.15707
3.30927
3.46117
3.61076
3.75579
3.89379
4.02218
4.13835
4.23976
4.32408
4.38925
4.43365
4.45616
0.70893
0.711507
0.716667
0.724428
0.734811
0.747849
0.763581
0.782054
0.803323
0.827454
0.85452
0.884604
0.917799
0.954208
0.993946
1.03714
1.08392
1.13445
1.18888
1.2474
1.3102
1.37748
1.44947
1.52641
1.60854
1.69611
1.78939
1.88861
1.99401
2.10577
2.22403
2.34884
2.48013
2.61768
2.7611
2.90975
3.06276
3.21893
3.3768
3.53454
3.69006
3.84098
3.98473
4.11857
4.23976
4.34563
4.43369
4.50178
4.54818
4.57171
0.711904
0.714504
0.71971
0.727539
0.738015
0.75117
0.767045
0.785687
0.807155
0.831515
0.858842
0.889222
0.922751
0.959536
0.999694
1.04336
1.09066
1.14178
1.19686
1.25611
1.31972
1.38792
1.46093
1.53901
1.62241
1.71141
1.80629
1.90731
2.01471
2.12871
2.24947
2.37705
2.51141
2.65233
2.79943
2.95207
3.10935
3.27006
3.43266
3.5953
3.75579
3.91167
4.06024
4.19866
4.32408
4.43369
4.52489
4.59544
4.64353
4.66791
0.714149
0.716766
0.722007
0.729888
0.740435
0.753679
0.769662
0.788433
0.810051
0.834584
0.862109
0.892714
0.926497
0.963567
1.00404
1.04806
1.09577
1.14733
1.20292
1.26272
1.32695
1.39584
1.46963
1.54858
1.63296
1.72306
1.81916
1.92155
2.0305
2.14623
2.26892
2.39864
2.53536
2.67889
2.82884
2.98457
3.14516
3.30939
3.47568
3.64213
3.80649
3.96622
4.11854
4.26055
4.38925
4.50178
4.59544
4.66791
4.71731
4.74236
0.715653
0.718282
0.723546
0.731463
0.742056
0.75536
0.771416
0.790273
0.811993
0.836642
0.8643
0.895056
0.92901
0.966271
1.00696
1.05122
1.0992
1.15106
1.20698
1.26716
1.33181
1.40117
1.47548
1.55502
1.64006
1.7309
1.82784
1.93116
2.04116
2.15806
2.28205
2.41323
2.55157
2.69688
2.84877
3.00661
3.16947
3.3361
3.50491
3.67396
3.84097
4.00334
4.15824
4.30269
4.43365
4.54818
4.64353
4.71731
4.76761
4.79313
0.716407
0.719041
0.724317
0.732251
0.742869
0.756203
0.772295
0.791196
0.812966
0.837674
0.865399
0.896231
0.93027
0.967627
1.00843
1.05281
1.10092
1.15293
1.20902
1.26939
1.33425
1.40385
1.47843
1.55826
1.64363
1.73485
1.8322
1.936
2.04653
2.16402
2.28868
2.42059
2.55975
2.70596
2.85884
3.01774
3.18175
3.3496
3.5197
3.69007
3.85843
4.02214
4.17835
4.32405
4.45616
4.57171
4.66791
4.74236
4.79313
4.81888
)
;

boundaryField
{
    walls
    {
        type            zeroGradient;
    }
    frontAndBack
    {
        type            empty;
    }
}


// ************************************************************************* //
