/*--------------------------------*- C++ -*----------------------------------*\
| =========                 |                                                 |
| \\      /  F ield         | OpenFOAM: The Open Source CFD Toolbox           |
|  \\    /   O peration     | Version:  2406                                  |
|   \\  /    A nd           | Website:  www.openfoam.com                      |
|    \\/     M anipulation  |                                                 |
\*---------------------------------------------------------------------------*/
FoamFile
{
    version     2.0;
    format      ascii;
    arch        "LSB;label=32;scalar=64";
    class       volScalarField;
    location    "1.75";
    object      nu;
}
// * * * * * * * * * * * * * * * * * * * * * * * * * * * * * * * * * * * * * //

dimensions      [0 2 -1 0 0 0 0];

internalField   nonuniform List<scalar> 
1800
(
0.0194184
0.0205611
0.0254829
0.0530188
0.0293513
0.0144901
0.0110253
0.00954534
0.00908884
0.00815089
0.0163131
0.0467324
0.0641324
0.023479
0.0129526
0.0100706
0.0088981
0.00816331
0.00812879
0.00733413
0.0162037
0.149661
0.018491
0.011251
0.00914994
0.00824789
0.00782996
0.00757169
0.00769612
0.00738228
0.0170397
0.018895
0.0108138
0.00862695
0.00780088
0.00744639
0.00734279
0.0073895
0.00765241
0.00781226
0.0313179
0.0114537
0.00846634
0.00750996
0.00716247
0.00711603
0.00727516
0.00761795
0.00820593
0.00898874
0.0156945
0.00881004
0.00738003
0.00695804
0.00693102
0.00717234
0.00767826
0.00852486
0.00991592
0.0122168
0.0100723
0.00750942
0.00683281
0.00675853
0.00703988
0.00767219
0.00878059
0.0106227
0.013618
0.017745
0.0080039
0.00684785
0.00659675
0.00683753
0.00751202
0.00876628
0.0109108
0.0144691
0.0208029
0.0322835
0.00701873
0.00650564
0.00657608
0.00716401
0.00839056
0.0106739
0.0150139
0.0248117
0.0518889
0.0525786
0.00647884
0.00634825
0.00670878
0.00770926
0.0098266
0.0146091
0.0279196
0.0622474
0.0371167
0.0212049
0.00986199
0.00993093
0.011022
0.012844
0.0151219
0.0177233
0.0206878
0.0239737
0.0280934
0.0349691
0.00974944
0.00971846
0.0107802
0.0126926
0.0151695
0.0178727
0.0206157
0.0233102
0.026105
0.0295124
0.0100069
0.00960167
0.0104185
0.0121749
0.0146519
0.0174914
0.0203327
0.0228931
0.0247957
0.0254611
0.010851
0.00964834
0.0100325
0.0113987
0.0135007
0.016027
0.0185041
0.0204646
0.0214813
0.0211509
0.013173
0.0100036
0.00976505
0.0106227
0.0121213
0.0139919
0.0158609
0.0173153
0.0179398
0.0176217
0.0205817
0.0111962
0.00986848
0.0101366
0.0110185
0.0122078
0.0134508
0.0144722
0.0149308
0.0147773
0.0328022
0.0143713
0.0108216
0.0103013
0.0106151
0.0112457
0.0119247
0.0124578
0.0126655
0.0123987
0.0192874
0.0280008
0.0147676
0.0118344
0.0111806
0.0112827
0.0114499
0.0114707
0.0113225
0.0107934
0.0193493
0.058324
0.0936893
0.0211142
0.0146053
0.013002
0.012112
0.0114099
0.0108401
0.0102039
0.0216656
0.0217037
0.0258551
0.0485345
0.0375858
0.0174486
0.0132451
0.0115638
0.0106872
0.0103164
0.090336
0.0218288
0.0148227
0.0156209
0.0154095
0.0150899
0.0149806
0.0162115
0.0167085
0.020409
0.0418846
0.0263488
0.0173042
0.0184183
0.0156182
0.0142143
0.0138442
0.0149802
0.0155285
0.0189339
0.0236811
0.0323212
0.0292812
0.020629
0.0145555
0.0129297
0.0125275
0.0134595
0.0140915
0.0172588
0.0176598
0.0221134
0.0742166
0.0181241
0.0132189
0.0119897
0.0116166
0.0122078
0.0126924
0.0155126
0.014699
0.0164282
0.0227691
0.0148226
0.0121836
0.011347
0.0111531
0.0115191
0.0116967
0.0139849
0.0129253
0.0137677
0.0152707
0.0130052
0.0112417
0.0107299
0.01083
0.0112606
0.0112178
0.0129241
0.0117229
0.0121981
0.0130842
0.011831
0.0105845
0.0102303
0.0104638
0.0111314
0.0111619
0.0123998
0.01091
0.0109581
0.0119053
0.0110747
0.0103631
0.0101101
0.0102172
0.0109576
0.0113396
0.0123559
0.0100087
0.0104144
0.011926
0.0109342
0.0103786
0.0103216
0.0102853
0.0108405
0.0115728
0.0126947
0.00938889
0.00972494
0.0111664
0.0103805
0.0102354
0.0105325
0.0105994
0.0109562
0.0118415
0.0133362
0.00895036
0.00964235
0.0106155
0.010237
0.010535
0.0108381
0.0110704
0.011428
0.0123425
0.0145404
0.00842804
0.00974211
0.00967734
0.0099087
0.0112186
0.0114527
0.0115246
0.0122732
0.0134162
0.0170015
0.00953414
0.00981684
0.00982402
0.0113866
0.0141448
0.0126562
0.0118351
0.01276
0.0144023
0.0199188
0.0119667
0.0107468
0.011313
0.0147398
0.0197271
0.0141972
0.0124175
0.0129325
0.0143747
0.0199799
0.0141031
0.0124728
0.0137864
0.0187923
0.0280669
0.0136765
0.012164
0.0127618
0.0138411
0.0175366
0.0167071
0.0153039
0.014705
0.0182528
0.0134037
0.0109241
0.010597
0.011283
0.0122397
0.0144946
0.0227293
0.0159455
0.0140081
0.0115547
0.00923199
0.00878774
0.00909214
0.0098781
0.0107045
0.0120655
0.0132402
0.0118199
0.0100435
0.00819316
0.00768918
0.00792573
0.00845802
0.00915375
0.00971943
0.0104229
0.00850048
0.00800586
0.00740516
0.00725818
0.00759207
0.00826464
0.00885671
0.00925457
0.0093978
0.00957938
0.0067692
0.00687658
0.00710321
0.00776289
0.0093425
0.0120703
0.0142889
0.0130414
0.0112382
0.0102461
0.0177957
0.0258596
0.0758848
0.0410349
0.0201519
0.0134809
0.00982513
0.0086992
0.00793529
0.0083439
0.0195687
0.0226879
0.0310078
0.0487952
0.0338318
0.0409157
0.0153101
0.0133222
0.0100534
0.00877934
0.0212465
0.0235575
0.0266748
0.0270607
0.0364654
0.0270075
0.0241856
0.016812
0.0151817
0.0112499
0.0213014
0.0217894
0.0252512
0.022618
0.0279806
0.0212776
0.0278242
0.0179667
0.0208003
0.0145651
0.0209823
0.0214519
0.0242121
0.0229955
0.0257174
0.0218751
0.0243037
0.0196592
0.0207443
0.0172406
0.0192241
0.0203168
0.021462
0.023413
0.0244428
0.025603
0.0261337
0.0237849
0.0236074
0.0204284
0.0156235
0.0162448
0.0164286
0.0176209
0.0179851
0.0200268
0.0205302
0.0233934
0.0238849
0.0247399
0.0113369
0.0115828
0.0114494
0.0118946
0.011766
0.0124595
0.0122917
0.013286
0.01305
0.0143088
0.00835091
0.00834129
0.00830333
0.00833782
0.0083281
0.00840374
0.00841224
0.00851771
0.00853713
0.00865305
0.0065239
0.00650422
0.00652157
0.00651172
0.00655147
0.00654832
0.00660884
0.0066107
0.00668869
0.00669601
0.0103535
0.0106318
0.010412
0.0101845
0.0100632
0.010245
0.0110329
0.0101169
0.00703572
0.00578814
0.0107111
0.010676
0.0104289
0.0101698
0.010054
0.0103275
0.0113204
0.00997024
0.00691949
0.00575093
0.010934
0.0108804
0.0106404
0.0103637
0.0102485
0.0106463
0.0119063
0.00973404
0.00680812
0.00572534
0.0111721
0.0111275
0.0108901
0.0106252
0.0105688
0.0111887
0.0128338
0.00941506
0.00669935
0.00571028
0.0113912
0.0114194
0.0112472
0.0109999
0.0110352
0.0121453
0.0143074
0.00901636
0.00659948
0.00571181
0.0117499
0.0117758
0.0116045
0.0114861
0.0119009
0.0140295
0.0148081
0.00855179
0.00650485
0.00573072
0.0120815
0.012171
0.0121881
0.0122114
0.0132645
0.0191772
0.0137649
0.0081127
0.00642148
0.00577442
0.0129301
0.0131119
0.0129531
0.0135383
0.0178294
0.0244703
0.0114685
0.00767284
0.00635236
0.00584884
0.0138663
0.013883
0.0147491
0.0214672
0.145009
0.0190361
0.00974162
0.00726641
0.00630326
0.00596897
0.015074
0.0171666
0.02528
0.0620925
0.0286774
0.0126133
0.00851902
0.0069459
0.00629517
0.00616254
0.0119666
0.0114982
0.0110822
0.0107171
0.0103778
0.0100714
0.00980015
0.00954885
0.00931565
0.00815557
0.0118373
0.0114087
0.0110223
0.01067
0.0103399
0.0100471
0.00980277
0.00952852
0.00891693
0.00737054
0.0116901
0.0113041
0.0109462
0.0106043
0.0102824
0.010007
0.0098046
0.00953194
0.00857776
0.00689923
0.0115528
0.011223
0.0108984
0.01056
0.0102396
0.00998155
0.00983009
0.00956437
0.00828904
0.00658794
0.0114389
0.0111703
0.010884
0.010552
0.0102291
0.00997906
0.00986926
0.00959746
0.00802746
0.00636155
0.0113295
0.0111226
0.0108772
0.0105522
0.0102392
0.0100224
0.00998528
0.00969403
0.0078054
0.00619465
0.0112929
0.0111477
0.0109264
0.0105824
0.0102498
0.0100499
0.0100956
0.00977876
0.00761021
0.00606692
0.0112846
0.0111522
0.0109556
0.0106173
0.0103031
0.0101573
0.0103245
0.00992657
0.00744162
0.00596899
0.0115047
0.011335
0.0110352
0.0105988
0.0102546
0.0101654
0.010495
0.0100285
0.00729346
0.00589389
0.0114253
0.0111333
0.0109083
0.0105805
0.0102983
0.0102899
0.0107967
0.0101123
0.00715593
0.00583359
0.176053
0.0553514
0.036935
0.0407641
0.0446002
0.0407596
0.0323193
0.026753
0.0199794
0.0140761
0.134675
0.0557585
0.0357656
0.0375808
0.0423674
0.0413927
0.0342876
0.0274143
0.0206666
0.0139123
0.110958
0.0558456
0.034581
0.0352069
0.0405073
0.0412965
0.0368052
0.027805
0.0215969
0.0137355
0.0961024
0.0553095
0.0333415
0.0333661
0.0390096
0.0409073
0.0400292
0.0278856
0.0226612
0.0135296
0.0856694
0.0541934
0.0321229
0.0319331
0.0378004
0.0405087
0.0438707
0.0277441
0.0235538
0.0132913
0.078272
0.0527964
0.0310749
0.030858
0.0368119
0.0401355
0.047177
0.0276573
0.0233993
0.0130922
0.0736774
0.0517289
0.0303429
0.030087
0.0359561
0.0398178
0.0474486
0.0278767
0.0219564
0.0128465
0.0719997
0.0517075
0.030055
0.0294975
0.035035
0.0398013
0.0438112
0.0285687
0.0193573
0.012926
0.0732895
0.0529648
0.0301951
0.0289285
0.0337795
0.039547
0.0387531
0.0288029
0.0181894
0.0126227
0.077023
0.0551765
0.0295759
0.0284264
0.0319382
0.0369708
0.033042
0.0261843
0.0157489
0.0140301
0.0811193
0.0644616
0.0295478
0.0284366
0.0280148
0.0343173
0.0232913
0.0229097
0.014313
0.0145767
0.0789576
0.0761653
0.0284132
0.029487
0.0211828
0.0349327
0.0161064
0.0205309
0.0128744
0.0141629
0.0729043
0.0919253
0.0287216
0.0261385
0.0174026
0.0299891
0.0138116
0.018766
0.0125517
0.0138809
0.0684452
0.115713
0.0322969
0.0198403
0.0175292
0.0215528
0.0147779
0.0172984
0.0143718
0.0129989
0.0650968
0.107613
0.037824
0.0171679
0.0205561
0.0180962
0.0182357
0.0165981
0.0177718
0.0134258
0.0579369
0.0650729
0.0417088
0.0168058
0.0207026
0.0172739
0.0193361
0.017649
0.0202226
0.015169
0.0482936
0.0601681
0.0557979
0.019422
0.0177366
0.0180819
0.0167376
0.0202007
0.0186212
0.0171807
0.0353647
0.0947908
0.0397214
0.0314134
0.01437
0.0169475
0.0127914
0.0154765
0.0135236
0.0150881
0.0218828
0.0199058
0.0139561
0.0124698
0.0111364
0.0107179
0.0101406
0.0102417
0.00995592
0.00997527
0.00792687
0.00789044
0.00830048
0.00852601
0.00871514
0.00805517
0.00831739
0.00763435
0.00757979
0.00719829
0.0115622
0.0113907
0.0112467
0.0114214
0.0116767
0.0120693
0.012531
0.0133066
0.0143256
0.0154867
0.0122825
0.012001
0.0119507
0.0122089
0.0126434
0.0132221
0.0139386
0.0149671
0.0160782
0.0177835
0.0127729
0.0126286
0.0128142
0.0132635
0.0138798
0.0146125
0.0155061
0.0164933
0.0177977
0.0192398
0.0133319
0.0134481
0.0138603
0.0144169
0.0151026
0.0157278
0.0165713
0.0172146
0.0184825
0.019265
0.0145055
0.0147813
0.0152867
0.0157604
0.0162849
0.0166373
0.0172515
0.0176595
0.0186675
0.0192845
0.0160528
0.0161669
0.0164426
0.0166687
0.0168628
0.0169621
0.0171996
0.0174375
0.0178882
0.0184408
0.0167112
0.0164154
0.0161787
0.0160722
0.0158134
0.0156761
0.0154276
0.0154225
0.0153122
0.0155826
0.0139042
0.0134468
0.0129432
0.0126663
0.0122601
0.0121045
0.0117613
0.0117105
0.0114463
0.011522
0.00971861
0.00950191
0.00929668
0.00912226
0.00895856
0.00882574
0.00868591
0.00859097
0.00848012
0.00842542
0.00708772
0.00698812
0.00690167
0.00681772
0.006751
0.00668429
0.00663736
0.0065877
0.0065613
0.00652832
0.00577193
0.00651076
0.00837532
0.0147266
0.0306547
0.0151172
0.0122027
0.0110011
0.00964429
0.00815274
0.00585151
0.00643839
0.00788676
0.012315
0.0417299
0.0205917
0.0135605
0.0111969
0.00958477
0.00808283
0.00597725
0.00640044
0.00748125
0.0102422
0.0181534
0.0208162
0.0149792
0.011716
0.00976871
0.00822556
0.00616607
0.00640791
0.00717159
0.00896627
0.0128636
0.0171181
0.0156624
0.0125675
0.0102719
0.00853234
0.00644525
0.00647731
0.00696454
0.00815716
0.0105174
0.0138647
0.015103
0.0134162
0.0111198
0.00910759
0.00685702
0.0066308
0.00686948
0.00764692
0.00916195
0.0115741
0.0138071
0.0138998
0.0122691
0.00987291
0.00746993
0.00689759
0.00689758
0.00736209
0.00833656
0.00996145
0.0120444
0.0133781
0.0132554
0.0111186
0.00840661
0.007315
0.00706085
0.00726852
0.00787687
0.00895515
0.0105439
0.0122472
0.013424
0.0120089
0.00992652
0.00793655
0.00737739
0.00734977
0.00767962
0.00836918
0.00945503
0.0108278
0.0125351
0.0118471
0.0126673
0.00884856
0.00787587
0.00761406
0.0077102
0.00811561
0.00884868
0.00990355
0.0114979
0.0123842
0.0179378
0.0102262
0.00858903
0.00807893
0.00796057
0.00812326
0.00855297
0.00925739
0.0101352
0.0120235
0.0345299
0.0122202
0.00956122
0.00879393
0.00848139
0.00843583
0.00862663
0.0090402
0.00944393
0.0109332
0.0697777
0.0149819
0.0107736
0.00980582
0.00938141
0.00917201
0.00916755
0.009358
0.00945157
0.0104799
0.0435156
0.0168201
0.0119664
0.0109799
0.0107266
0.0105099
0.0103302
0.01027
0.0100917
0.010706
0.0581432
0.0159847
0.012032
0.0117263
0.0120829
0.0123881
0.0122909
0.011922
0.0113763
0.0115395
0.0346607
0.0136685
0.0116438
0.0119139
0.0127975
0.0140263
0.015015
0.0148233
0.0136759
0.0131803
0.0182986
0.012067
0.0113747
0.0120427
0.0132486
0.0151109
0.0179767
0.0202921
0.0185007
0.0165705
0.0134331
0.0111669
0.0112665
0.0122884
0.0138249
0.0160789
0.0202131
0.028527
0.0330774
0.025826
0.0113412
0.0106109
0.0112058
0.0125487
0.0144367
0.0170327
0.0213486
0.0324673
0.0705384
0.0671517
0.0103378
0.0102225
0.0111461
0.0127502
0.0148539
0.0176366
0.0217956
0.0285925
0.0404287
0.063571
0.0113742
0.0115103
0.0129844
0.0176662
0.0356383
0.048971
0.0266779
0.0241459
0.02288
0.0275422
0.0111497
0.011557
0.0132859
0.0180672
0.0301566
0.0346688
0.0253574
0.0237596
0.0228637
0.0285337
0.0109213
0.0116001
0.0134529
0.0175673
0.0242823
0.0276112
0.0240387
0.0232515
0.0225557
0.0282729
0.0111108
0.0118056
0.0136883
0.0169307
0.0212015
0.0234865
0.022518
0.0225433
0.0220515
0.0274856
0.0117639
0.0122287
0.0140709
0.0164369
0.0193018
0.0208072
0.0209981
0.0216965
0.0214386
0.0265328
0.0127309
0.0129539
0.014481
0.0159216
0.0177103
0.0188442
0.0195794
0.0207742
0.0207821
0.0255948
0.0141905
0.0141127
0.0146943
0.0152802
0.0163436
0.0173101
0.0182832
0.0198016
0.0200864
0.0247047
0.0165762
0.0157544
0.0146351
0.01463
0.0153191
0.0161764
0.0171668
0.018824
0.0193344
0.0238041
0.0207066
0.017721
0.0144218
0.0142175
0.0147749
0.0155054
0.016301
0.0179111
0.0185251
0.0228168
0.0308355
0.0198371
0.0143238
0.0143799
0.0148321
0.0152772
0.0156656
0.0170885
0.0176647
0.0216935
0.0107853
0.0184086
0.0239973
0.0471066
0.0681965
0.0566034
0.0700731
0.0247322
0.0178855
0.0145231
0.00872929
0.0112334
0.0144667
0.0194581
0.0244114
0.0235259
0.0183182
0.0153242
0.0139893
0.0130438
0.00867446
0.0102481
0.0129629
0.0164503
0.0192609
0.0192376
0.0173225
0.0161345
0.0154844
0.0148361
0.00946796
0.0102536
0.0126421
0.0173414
0.0251355
0.0274649
0.022279
0.0201941
0.0190256
0.0189999
0.0113906
0.0114419
0.0130398
0.017855
0.0386379
0.045991
0.0257089
0.0231187
0.0217646
0.0240523
0.00581395
0.00591642
0.00605905
0.00626217
0.00649916
0.00679906
0.00715407
0.0075072
0.00805961
0.00833265
0.00602528
0.00610386
0.00622621
0.00639738
0.0065856
0.00680011
0.007057
0.0072492
0.00764107
0.007726
0.00631731
0.006369
0.00648413
0.00664772
0.00683049
0.00706159
0.00726712
0.00755698
0.00781034
0.00810239
0.0067244
0.00674507
0.00687111
0.00705604
0.00729873
0.00763727
0.00788298
0.00858633
0.00864691
0.00991158
0.00726546
0.00724765
0.00739658
0.00763414
0.00802399
0.00850434
0.00912857
0.0102389
0.0103578
0.0135191
0.0122221
0.0119412
0.0116726
0.011273
0.0109021
0.0106912
0.0107219
0.0103418
0.00804206
0.00628695
0.0124848
0.0122255
0.0118112
0.0112964
0.0108764
0.0106308
0.0105995
0.0102866
0.00827624
0.00643822
0.0121961
0.0119936
0.0117055
0.0113182
0.0109609
0.0107029
0.0105881
0.0102663
0.00854373
0.00662817
0.0122918
0.0120575
0.0117317
0.0113272
0.0109376
0.0106219
0.0104207
0.0101318
0.00883427
0.00688057
0.0122966
0.0119843
0.0116187
0.0112215
0.010848
0.0105348
0.01031
0.0100755
0.00919923
0.00724288
0.0123205
0.0119397
0.0115395
0.0111439
0.0107724
0.0104458
0.0101872
0.00999396
0.00958577
0.00778706
0.0123023
0.0118607
0.0114294
0.0110294
0.0106536
0.0103132
0.0100321
0.00989423
0.0100052
0.00875944
0.0122404
0.0117557
0.0113044
0.010901
0.0105197
0.010166
0.00986551
0.00976607
0.0103576
0.0109024
0.0121567
0.0116546
0.011201
0.0108037
0.010428
0.0100772
0.00977051
0.00963097
0.0102606
0.0130246
0.0120676
0.011576
0.0111394
0.0107606
0.0104066
0.0100801
0.0097853
0.00958081
0.00979116
0.00979624
0.00845382
0.00986113
0.0109212
0.011602
0.0124669
0.0152199
0.0155791
0.00886911
0.00660398
0.00572642
0.00900738
0.0101142
0.0107101
0.0110407
0.0114476
0.0125144
0.0140843
0.00934878
0.00671098
0.00570698
0.00958824
0.0102217
0.0104774
0.0105826
0.0107333
0.0112871
0.0123384
0.00968798
0.00682834
0.00571047
0.00990054
0.0101693
0.010266
0.0103046
0.0103646
0.0106722
0.0114349
0.00990818
0.00695311
0.00573164
0.0100206
0.0101554
0.0101864
0.0101676
0.0101638
0.0103595
0.0109398
0.00998449
0.007076
0.00576917
0.0101724
0.0102616
0.0102509
0.0101851
0.0101221
0.0102255
0.01068
0.0100431
0.00720658
0.00582089
0.0104568
0.0105096
0.0104292
0.0102836
0.0101567
0.0102002
0.0105678
0.0100745
0.00734135
0.00588558
0.0108463
0.0108139
0.0106273
0.0103969
0.0102171
0.0102145
0.0105197
0.0101282
0.00749136
0.00596435
0.0111667
0.0109949
0.010723
0.0104613
0.0102785
0.0102692
0.0105428
0.0102175
0.00765692
0.00605644
0.0110214
0.0110842
0.0108682
0.0106345
0.0104612
0.0104293
0.0106392
0.0103195
0.00784244
0.00616338
0.0384705
0.03636
0.110207
0.0424485
0.026508
0.0250689
0.0279104
0.0428992
0.0258075
0.0172655
0.0435246
0.0381205
0.0721984
0.0640117
0.0306039
0.0259295
0.0269106
0.0298614
0.0262042
0.0151028
0.0502996
0.0408242
0.0572999
0.111136
0.0351053
0.0270264
0.0272163
0.026468
0.024811
0.0143749
0.0594183
0.0434699
0.0518328
0.25209
0.0389908
0.027729
0.0270289
0.0243069
0.0224935
0.0143528
0.0718618
0.0461279
0.0488207
0.210247
0.042044
0.0285496
0.0268886
0.0233269
0.0208656
0.0144337
0.0892564
0.0490656
0.0463168
0.114272
0.0451911
0.029915
0.0271073
0.0231843
0.0199677
0.0145062
0.115877
0.0520179
0.043852
0.0784656
0.048106
0.0318336
0.0276566
0.0235475
0.0194868
0.0145123
0.161202
0.0545114
0.0416703
0.0617416
0.049495
0.034205
0.0284607
0.0242135
0.0192837
0.0144461
0.223852
0.0555865
0.039797
0.0517834
0.0489337
0.0367933
0.0294874
0.0250443
0.0193064
0.0143367
0.230254
0.0553675
0.0382297
0.0452423
0.0469937
0.039152
0.0307535
0.0259264
0.0195355
0.0142073
0.0072537
0.00742557
0.00816228
0.00880231
0.00945396
0.00965984
0.00980104
0.00930086
0.00928099
0.00777854
0.0149537
0.0108918
0.00968153
0.0098444
0.0103207
0.0107419
0.0112292
0.0114186
0.0114688
0.0113099
0.0256446
0.0241653
0.0133432
0.0120033
0.0120339
0.0126195
0.0134579
0.0152457
0.0154078
0.0141966
0.031456
0.0407061
0.0236839
0.0164173
0.0152224
0.0159084
0.0173869
0.0241689
0.0261968
0.0151487
0.034954
0.0361845
0.065898
0.0250838
0.0199488
0.0202307
0.0228209
0.0440663
0.0331743
0.016888
0.00727288
0.00694773
0.00663919
0.00636852
0.00614834
0.00597804
0.00585505
0.00577877
0.00574719
0.00575902
0.0103711
0.00953925
0.0087232
0.00801417
0.00738605
0.00686129
0.00646971
0.00621114
0.00606499
0.0060094
0.0120574
0.011162
0.0103418
0.00965244
0.0089399
0.00815632
0.00741906
0.0068662
0.00652588
0.00635825
0.0122845
0.0114021
0.0107627
0.0103379
0.00992873
0.00937364
0.00857317
0.00774349
0.00715695
0.00683906
0.0121852
0.0113757
0.0107344
0.010316
0.0100016
0.00973115
0.00933432
0.00866262
0.00795521
0.00747679
)
;

boundaryField
{
    left
    {
        type            calculated;
        value           nonuniform List<scalar> 
35
(
0.0694922
0.083234
0.0917094
0.0904581
0.0832584
0.0659925
0.0489925
0.0332939
0.0194108
0.00789021
0.13776
0.125297
0.107337
0.0916132
0.079249
0.069969
0.0635986
0.060104
0.0595484
0.0621807
0.0343328
0.0388494
0.0447316
0.0523775
0.06216
0.0745735
0.0905459
0.109553
0.125984
0.136296
0.00721592
0.0136346
0.0217338
0.0270142
0.0309242
)
;
    }
    right
    {
        type            calculated;
        value           nonuniform List<scalar> 
35
(
0.0145289
0.0130718
0.0149606
0.0195653
0.0260374
0.0316841
0.0341257
0.034555
0.0340617
0.0332472
0.0324359
0.031689
0.0308808
0.0298343
0.028412
0.0264997
0.0239768
0.0209292
0.0179056
0.0155314
0.0140382
0.0133505
0.0133128
0.0137864
0.0146919
0.0165221
0.0205068
0.0252934
0.0230148
0.0183569
0.0146795
0.0121774
0.0105036
0.00961781
0.0102614
)
;
    }
    down
    {
        type            calculated;
        value           nonuniform List<scalar> 
40
(
0.00638561
0.00674926
0.0077415
0.00848972
0.00918093
0.00928159
0.0092784
0.00863654
0.00855067
0.00697258
0.00656965
0.00633835
0.00612249
0.00593992
0.00580516
0.00571446
0.00565773
0.00562981
0.00562998
0.00566119
0.00572937
0.00584269
0.00599796
0.00622234
0.00649475
0.00686514
0.00730297
0.00782646
0.00853117
0.00909819
0.0155707
0.0608904
0.165906
0.174589
0.0328594
0.0282248
0.0318164
0.0669938
0.0344552
0.0180266
)
;
    }
    up
    {
        type            calculated;
        value           nonuniform List<scalar> 
40
(
0.00633622
0.00664443
0.0075039
0.00904399
0.0133378
0.0235485
0.0167454
0.024911
0.01708
0.0117659
0.00606406
0.00605182
0.00607342
0.00606774
0.00610826
0.00610585
0.00616477
0.00616509
0.00624065
0.00624593
0.00648353
0.00640539
0.00633681
0.00627175
0.00621936
0.00616895
0.00613497
0.0060992
0.00608365
0.00606094
0.00678797
0.00682394
0.00734323
0.00775123
0.00800688
0.00744358
0.00771605
0.0069886
0.0069328
0.00657646
)
;
    }
    cylinder
    {
        type            calculated;
        value           nonuniform List<scalar> 
80
(
0.010276
0.0102696
0.0109471
0.0130491
0.0219612
0.0339439
0.020013
0.01409
0.0141272
0.0201242
0.0172559
0.0125301
0.0118842
0.0131921
0.0196521
0.0303674
0.0161467
0.00969212
0.00769721
0.00675805
0.00550259
0.00548001
0.0054693
0.00547036
0.00549005
0.00553206
0.00560734
0.00572815
0.00592131
0.00623494
0.00752969
0.00680256
0.0063912
0.00612863
0.0059423
0.0058079
0.00570686
0.00563137
0.00557547
0.00553267
0.00587693
0.00599633
0.00614706
0.00634958
0.00664383
0.00709875
0.00795043
0.010071
0.0138221
0.00926243
0.00550257
0.00546101
0.00544589
0.00545039
0.00547273
0.00550937
0.00555849
0.00562024
0.00569364
0.00577894
0.00557729
0.00569802
0.00588398
0.00616179
0.00657351
0.00719364
0.00817769
0.00991132
0.0136794
0.0272969
0.0601278
0.0315476
0.0269988
0.0220329
0.0239653
0.0287234
0.0404272
0.0177552
0.0126315
0.0109131
)
;
    }
    defaultFaces
    {
        type            empty;
    }
}


// ************************************************************************* //
