/*--------------------------------*- C++ -*----------------------------------*\
| =========                 |                                                 |
| \\      /  F ield         | OpenFOAM: The Open Source CFD Toolbox           |
|  \\    /   O peration     | Version:  2406                                  |
|   \\  /    A nd           | Website:  www.openfoam.com                      |
|    \\/     M anipulation  |                                                 |
\*---------------------------------------------------------------------------*/
FoamFile
{
    version     2.0;
    format      ascii;
    arch        "LSB;label=32;scalar=64";
    class       volScalarField;
    location    "1.75";
    object      p;
}
// * * * * * * * * * * * * * * * * * * * * * * * * * * * * * * * * * * * * * //

dimensions      [0 2 -2 0 0 0 0];

internalField   nonuniform List<scalar> 
1800
(
-0.506588
-0.511339
-0.511621
-0.505972
-0.494546
-0.486973
-0.480783
-0.470119
-0.458535
-0.466537
-0.53931
-0.543394
-0.543954
-0.540725
-0.535847
-0.529321
-0.521591
-0.512347
-0.499738
-0.518437
-0.583975
-0.580093
-0.583952
-0.581549
-0.573897
-0.565569
-0.555902
-0.544522
-0.530086
-0.528669
-0.635516
-0.624376
-0.614736
-0.610047
-0.603692
-0.594777
-0.583042
-0.56875
-0.55272
-0.538371
-0.663324
-0.658746
-0.653199
-0.645728
-0.635959
-0.62304
-0.606742
-0.587807
-0.56742
-0.547115
-0.718997
-0.706622
-0.697917
-0.686493
-0.671115
-0.651393
-0.627962
-0.601947
-0.574484
-0.547041
-0.779009
-0.760524
-0.748299
-0.731321
-0.707724
-0.678705
-0.646468
-0.612761
-0.578998
-0.545938
-0.843929
-0.820963
-0.803966
-0.778008
-0.742667
-0.701997
-0.659575
-0.617055
-0.575156
-0.534357
-0.913183
-0.885014
-0.859898
-0.820772
-0.770798
-0.717109
-0.663062
-0.608739
-0.55558
-0.50788
-0.976912
-0.94361
-0.905251
-0.849482
-0.78394
-0.716704
-0.64958
-0.583552
-0.524044
-0.47117
-0.865442
-0.867871
-0.869018
-0.870079
-0.871241
-0.872575
-0.874262
-0.876562
-0.879317
-0.881044
-0.826508
-0.825965
-0.826275
-0.826974
-0.828173
-0.829941
-0.832378
-0.835631
-0.839724
-0.843914
-0.784573
-0.780587
-0.779669
-0.779517
-0.780058
-0.781452
-0.783741
-0.787005
-0.791386
-0.796681
-0.739178
-0.731476
-0.72897
-0.727243
-0.726238
-0.726314
-0.727558
-0.730041
-0.73388
-0.738722
-0.691138
-0.680418
-0.675832
-0.671674
-0.668052
-0.665582
-0.664433
-0.664657
-0.666242
-0.668538
-0.638053
-0.62957
-0.623203
-0.616241
-0.609201
-0.602905
-0.597669
-0.59362
-0.59074
-0.588344
-0.587599
-0.583045
-0.574768
-0.565567
-0.555461
-0.544915
-0.534405
-0.524292
-0.514849
-0.506118
-0.556614
-0.553276
-0.541751
-0.527462
-0.514598
-0.500235
-0.484336
-0.467527
-0.450657
-0.435448
-0.514359
-0.519425
-0.512686
-0.503557
-0.492962
-0.476265
-0.456866
-0.435502
-0.413502
-0.393639
-0.494703
-0.497967
-0.49657
-0.488794
-0.47356
-0.459792
-0.445319
-0.425671
-0.403196
-0.379528
-0.878092
-1.03034
-1.14408
-1.17393
-1.00912
-0.692827
-0.412135
-0.205057
-0.0758218
-0.00811739
-0.869001
-1.08421
-1.2501
-1.30782
-1.11666
-0.749396
-0.427172
-0.199281
-0.0654521
-0.00180996
-0.84637
-1.13484
-1.36203
-1.45526
-1.23575
-0.813709
-0.444046
-0.192871
-0.0540183
0.00537472
-0.803172
-1.1736
-1.47577
-1.60881
-1.36299
-0.883576
-0.463045
-0.186687
-0.0422466
0.0127908
-0.737147
-1.18698
-1.57732
-1.75913
-1.49388
-0.957626
-0.484954
-0.182145
-0.0315562
0.0192521
-0.647877
-1.17021
-1.65001
-1.89484
-1.62218
-1.0339
-0.510364
-0.180602
-0.0236451
0.0234608
-0.539628
-1.11836
-1.68827
-2.00448
-1.73943
-1.10878
-0.539345
-0.183226
-0.0198064
0.0247052
-0.42135
-1.03091
-1.68737
-2.07902
-1.83573
-1.17773
-0.571729
-0.191516
-0.0208206
0.0230707
-0.312372
-0.909076
-1.6433
-2.12097
-1.90617
-1.23739
-0.606727
-0.2068
-0.027445
0.0189012
-0.242471
-0.765248
-1.56183
-2.10925
-1.95263
-1.28794
-0.643255
-0.228759
-0.040093
0.0123388
-0.156641
-0.635942
-1.4941
-2.1022
-1.95697
-1.30036
-0.664451
-0.253713
-0.0610888
0.00114299
-0.207191
-0.588859
-1.43445
-1.98496
-1.85302
-1.24842
-0.668195
-0.289056
-0.0954446
-0.0153495
-0.248139
-0.585709
-1.33675
-1.82798
-1.70693
-1.19246
-0.683795
-0.333688
-0.133746
-0.0315499
-0.289309
-0.570735
-1.19933
-1.61392
-1.53614
-1.14533
-0.722043
-0.395448
-0.178269
-0.0479385
-0.304202
-0.528284
-1.0331
-1.38787
-1.37313
-1.11703
-0.782085
-0.473558
-0.229178
-0.0640261
-0.293257
-0.473221
-0.871342
-1.17582
-1.23688
-1.11309
-0.855495
-0.552052
-0.277846
-0.0773109
-0.260002
-0.410546
-0.717991
-0.988051
-1.12912
-1.12983
-0.931521
-0.620777
-0.313761
-0.0848398
-0.214671
-0.341285
-0.579583
-0.837549
-1.04981
-1.13324
-0.965753
-0.653522
-0.332222
-0.0883031
-0.15462
-0.286499
-0.514421
-0.739303
-0.978363
-1.11353
-0.965102
-0.659998
-0.337151
-0.0902699
-0.127049
-0.251431
-0.505677
-0.777722
-0.986171
-1.08796
-0.939001
-0.648089
-0.329891
-0.090381
-0.381615
-0.425702
-0.457197
-0.481824
-0.49896
-0.510864
-0.513615
-0.503379
-0.452904
-0.421082
-0.271472
-0.322053
-0.360833
-0.3925
-0.417191
-0.433351
-0.430069
-0.421467
-0.395461
-0.392252
-0.177983
-0.231
-0.273172
-0.307848
-0.334174
-0.357218
-0.361408
-0.367101
-0.35611
-0.354229
-0.0966177
-0.150232
-0.194868
-0.232773
-0.262782
-0.291051
-0.305749
-0.321917
-0.322584
-0.32887
-0.0273623
-0.0810202
-0.127214
-0.167967
-0.201113
-0.232383
-0.253909
-0.275336
-0.286438
-0.301788
0.0303081
-0.023002
-0.069626
-0.111339
-0.146096
-0.178175
-0.203097
-0.227326
-0.245339
-0.266461
0.0772686
0.0246687
-0.0216726
-0.0629161
-0.0978378
-0.12913
-0.15516
-0.179559
-0.200525
-0.222769
0.114398
0.0624076
0.0162539
-0.023914
-0.0582737
-0.0877692
-0.11265
-0.134685
-0.154411
-0.173226
0.137221
0.0860602
0.0396068
0.000209859
-0.033714
-0.0609777
-0.0834409
-0.101093
-0.115327
-0.126285
0.148015
0.0959931
0.0491164
0.00905886
-0.0257698
-0.053455
-0.0763011
-0.0926981
-0.104714
-0.111515
0.803506
0.747543
0.682922
0.614457
0.540969
0.459811
0.371049
0.280127
0.197051
0.143157
0.638423
0.578868
0.512358
0.439831
0.35953
0.269403
0.17044
0.0694281
-0.022036
-0.0826284
0.457172
0.396209
0.328669
0.253627
0.16912
0.0734267
-0.0318233
-0.139254
-0.236091
-0.301325
0.283254
0.220356
0.150354
0.0720386
-0.0163204
-0.116212
-0.225725
-0.337827
-0.438387
-0.503562
0.125168
0.0595959
-0.013642
-0.0955665
-0.187846
-0.291598
-0.403341
-0.519071
-0.618217
-0.682758
-0.0179861
-0.0861712
-0.16197
-0.246072
-0.339817
-0.444526
-0.556679
-0.669327
-0.766899
-0.829281
-0.143891
-0.213085
-0.289537
-0.374578
-0.469707
-0.572921
-0.681579
-0.789534
-0.882083
-0.939233
-0.255652
-0.324061
-0.39956
-0.481672
-0.568439
-0.665484
-0.770573
-0.872069
-0.955767
-1.00655
-0.347338
-0.410648
-0.480284
-0.558091
-0.643222
-0.736495
-0.830467
-0.918583
-0.988228
-1.03249
-0.419482
-0.478543
-0.543546
-0.615923
-0.693964
-0.774314
-0.854799
-0.927856
-0.982362
-1.02067
1.77357
1.78621
1.7996
1.81265
1.82466
1.83514
1.8435
1.84906
1.85356
1.87041
1.73298
1.74364
1.75444
1.76445
1.77308
1.77982
1.78411
1.7858
1.7873
1.80166
1.67341
1.6813
1.68855
1.69445
1.69855
1.70028
1.6991
1.69534
1.69209
1.70213
1.59612
1.60069
1.60351
1.60419
1.6025
1.59777
1.58946
1.5784
1.56849
1.5727
1.50185
1.5023
1.49976
1.4943
1.48589
1.47376
1.4573
1.43778
1.41993
1.41745
1.39397
1.38996
1.3812
1.3684
1.35189
1.33084
1.3047
1.27526
1.24796
1.23794
1.27395
1.26486
1.24945
1.22892
1.20381
1.17312
1.13634
1.09583
1.05765
1.03989
1.14836
1.13353
1.10992
1.07984
1.0444
1.00263
0.954161
0.901974
0.852675
0.825873
1.022
1.0006
0.967927
0.927503
0.880786
0.826661
0.764955
0.699605
0.638414
0.602024
0.906419
0.870847
0.823394
0.769452
0.710105
0.643357
0.568803
0.490957
0.418712
0.37329
1.64831
1.63701
1.6299
1.61151
1.6018
1.59608
1.59665
1.60968
1.64071
1.7173
1.64571
1.63429
1.62767
1.60981
1.59985
1.592
1.59143
1.60077
1.62672
1.69314
1.64368
1.63157
1.62552
1.60789
1.59759
1.58705
1.58499
1.58899
1.60752
1.65814
1.64212
1.62892
1.62345
1.60579
1.59501
1.58126
1.57742
1.57433
1.58353
1.61194
1.64102
1.62632
1.62152
1.60353
1.59207
1.57465
1.56869
1.55676
1.55523
1.55404
1.64037
1.62373
1.61974
1.60112
1.58874
1.56724
1.55868
1.53623
1.52315
1.48422
1.64011
1.62111
1.61815
1.59856
1.58499
1.55906
1.54733
1.51282
1.48779
1.40211
1.64021
1.61852
1.61682
1.59579
1.58076
1.55009
1.53472
1.48672
1.449
1.30895
1.64061
1.61609
1.61608
1.59296
1.57616
1.54024
1.52102
1.45815
1.4062
1.20421
1.64123
1.61389
1.61637
1.59055
1.57151
1.52974
1.50634
1.42821
1.36198
1.09708
1.6426
1.61167
1.61434
1.58643
1.56517
1.51762
1.48873
1.39467
1.3067
0.993682
1.64559
1.61107
1.61774
1.58468
1.56195
1.5061
1.47154
1.36835
1.25845
0.990271
1.64985
1.61187
1.62028
1.58311
1.55932
1.49706
1.45482
1.35002
1.22027
0.990317
1.65505
1.61415
1.62235
1.58239
1.55527
1.49424
1.43872
1.33794
1.19055
0.985649
1.6617
1.61768
1.62266
1.58156
1.548
1.4964
1.42261
1.32871
1.16707
0.976862
1.67118
1.62054
1.61933
1.57536
1.5373
1.49829
1.40647
1.32065
1.15084
0.967309
1.68478
1.62383
1.61363
1.55774
1.52344
1.49885
1.39058
1.31429
1.14331
0.961638
1.70449
1.62933
1.61188
1.54819
1.51005
1.49902
1.37479
1.31342
1.14386
0.961983
1.71837
1.63204
1.61184
1.54523
1.49947
1.49889
1.36198
1.31866
1.14599
0.967285
1.764
1.63156
1.60789
1.53862
1.49831
1.49893
1.35905
1.33132
1.14947
0.98162
0.788786
0.652516
0.490623
0.33435
0.192369
0.0637511
-0.05203
-0.156046
-0.246283
-0.321069
0.747199
0.636424
0.50871
0.380672
0.260891
0.15013
0.047126
-0.0483085
-0.133702
-0.20853
0.734305
0.633716
0.525614
0.417393
0.313445
0.215107
0.122053
0.0350084
-0.0445051
-0.115987
0.735812
0.640677
0.543989
0.450189
0.359687
0.272453
0.188267
0.108196
0.0331709
-0.0355314
0.744237
0.655544
0.567319
0.48359
0.402875
0.323754
0.245942
0.170637
0.0990979
0.0326445
0.756438
0.675041
0.593759
0.516468
0.441713
0.367642
0.293971
0.221975
0.153295
0.0889399
0.771761
0.697046
0.621265
0.547899
0.476381
0.405221
0.334147
0.264354
0.197285
0.134795
0.789058
0.719499
0.647756
0.576644
0.506638
0.436848
0.367704
0.300083
0.234556
0.172187
0.801819
0.734309
0.664752
0.594672
0.524738
0.454611
0.385534
0.318269
0.253762
0.193676
0.818944
0.752348
0.683638
0.612909
0.541161
0.469775
0.399857
0.332044
0.267048
0.205576
-1.57052
-1.51287
-1.42838
-1.33353
-1.24171
-1.15916
-1.08663
-1.02539
-0.975175
-0.936427
-1.67115
-1.61953
-1.54247
-1.4511
-1.36056
-1.27939
-1.20843
-1.14689
-1.09569
-1.05622
-1.72266
-1.67731
-1.6096
-1.52494
-1.43962
-1.36011
-1.28911
-1.22695
-1.17376
-1.13109
-1.73043
-1.69159
-1.63538
-1.56069
-1.48057
-1.40329
-1.33274
-1.27031
-1.21563
-1.16968
-1.70415
-1.67187
-1.62841
-1.56591
-1.49334
-1.41981
-1.35044
-1.28774
-1.23185
-1.18306
-1.65597
-1.62991
-1.59833
-1.54864
-1.48575
-1.41797
-1.35091
-1.28815
-1.23122
-1.1806
-1.59751
-1.57695
-1.55474
-1.5172
-1.46551
-1.40572
-1.34322
-1.28213
-1.22539
-1.17528
-1.53671
-1.52054
-1.50511
-1.47782
-1.43724
-1.38635
-1.32958
-1.27101
-1.21456
-1.16392
-1.47773
-1.46485
-1.45405
-1.43483
-1.40429
-1.36295
-1.31369
-1.25993
-1.20605
-1.15954
-1.4219
-1.41139
-1.40366
-1.39016
-1.36761
-1.33481
-1.29265
-1.24306
-1.18856
-1.13813
-1.36743
-1.35882
-1.35424
-1.345
-1.32871
-1.30363
-1.26948
-1.22771
-1.17973
-1.12606
-1.31267
-1.30867
-1.30707
-1.30086
-1.28914
-1.27006
-1.24254
-1.20723
-1.16493
-1.11272
-1.25741
-1.26033
-1.26018
-1.2565
-1.2482
-1.23344
-1.21082
-1.18036
-1.14207
-1.09149
-1.2078
-1.2083
-1.20867
-1.20732
-1.20175
-1.19003
-1.17116
-1.14511
-1.11123
-1.06549
-1.1527
-1.15187
-1.15231
-1.15243
-1.14887
-1.13951
-1.12364
-1.10186
-1.07395
-1.03712
-1.09025
-1.09546
-1.09601
-1.0966
-1.09455
-1.08772
-1.07514
-1.05757
-1.03642
-1.00737
-1.03408
-1.04195
-1.04396
-1.0449
-1.04394
-1.0398
-1.03131
-1.01816
-1.00204
-0.983584
-0.985624
-0.993751
-0.996368
-0.997747
-0.997804
-0.996087
-0.992094
-0.984621
-0.973475
-0.96046
-0.94293
-0.949696
-0.952031
-0.953469
-0.954124
-0.953851
-0.95292
-0.951106
-0.9466
-0.937761
-0.903428
-0.908253
-0.909996
-0.911151
-0.911935
-0.912305
-0.912511
-0.913034
-0.913355
-0.910429
-0.948635
-0.719882
-0.672103
-0.665467
-0.626597
-0.526091
-0.392087
-0.255236
-0.137983
-0.038193
-0.924773
-0.710254
-0.678299
-0.676007
-0.633074
-0.523133
-0.386939
-0.249954
-0.133752
-0.0364826
-0.905525
-0.7114
-0.692312
-0.692215
-0.643156
-0.52277
-0.382631
-0.244662
-0.129117
-0.0344465
-0.893617
-0.725138
-0.714978
-0.714889
-0.657507
-0.525892
-0.37952
-0.239492
-0.124186
-0.0322264
-0.887726
-0.750041
-0.746065
-0.744799
-0.677264
-0.532477
-0.377723
-0.234424
-0.118935
-0.0298596
-0.88529
-0.78373
-0.785866
-0.783107
-0.703466
-0.542845
-0.377441
-0.229441
-0.113308
-0.0273251
-0.883893
-0.824473
-0.835318
-0.831252
-0.738329
-0.557755
-0.378986
-0.224525
-0.10722
-0.0245537
-0.882578
-0.871637
-0.894769
-0.891234
-0.784062
-0.578351
-0.382812
-0.219674
-0.100558
-0.0214245
-0.880564
-0.922782
-0.965464
-0.966382
-0.843597
-0.606082
-0.38946
-0.214899
-0.0932006
-0.0177714
-0.879045
-0.97649
-1.0485
-1.05993
-0.92015
-0.642234
-0.399284
-0.21013
-0.0850147
-0.0134001
-0.937215
-0.761669
-0.696846
-0.657907
-0.604887
-0.505806
-0.381896
-0.245145
-0.133911
-0.0368937
-0.923916
-0.754243
-0.690743
-0.657498
-0.606924
-0.50433
-0.383309
-0.251188
-0.137323
-0.0383863
-0.921942
-0.745952
-0.685172
-0.657695
-0.611291
-0.507713
-0.382766
-0.252175
-0.138217
-0.0385305
-0.924748
-0.736179
-0.677865
-0.657007
-0.614181
-0.513924
-0.387693
-0.254787
-0.139515
-0.0389625
-0.940779
-0.723301
-0.667633
-0.656054
-0.617366
-0.521562
-0.392252
-0.257061
-0.14016
-0.0391879
-0.898247
-1.01206
-1.08186
-1.1167
-1.11962
-1.10746
-1.07998
-1.05365
-1.02121
-0.994132
-0.895544
-1.00944
-1.07692
-1.10812
-1.10741
-1.09073
-1.06148
-1.03088
-0.998974
-0.966614
-0.898326
-1.01279
-1.07985
-1.11001
-1.10955
-1.092
-1.06712
-1.03633
-1.01183
-0.983588
-0.904945
-1.02116
-1.08935
-1.12022
-1.12236
-1.10724
-1.08891
-1.06174
-1.0454
-1.02177
-0.915993
-1.03467
-1.10529
-1.13863
-1.14542
-1.13627
-1.12543
-1.10676
-1.09649
-1.0773
1.23223
1.21927
1.19984
1.17765
1.15365
1.12678
1.09672
1.06585
1.03951
1.02946
1.33915
1.33511
1.32566
1.31311
1.29827
1.2805
1.2596
1.23756
1.21912
1.21495
1.44288
1.44346
1.44017
1.43452
1.42705
1.41724
1.40481
1.39105
1.37983
1.38136
1.53721
1.54154
1.54357
1.54404
1.54312
1.54024
1.53495
1.52793
1.52252
1.52924
1.62026
1.62787
1.63421
1.63951
1.64369
1.64622
1.64655
1.64487
1.64397
1.65496
1.68926
1.69952
1.70941
1.71873
1.72716
1.73421
1.73921
1.74175
1.74407
1.75821
1.74275
1.75508
1.76777
1.78025
1.79199
1.8025
1.81102
1.81656
1.82076
1.83621
1.77909
1.79283
1.80749
1.82221
1.83633
1.8494
1.86065
1.86869
1.87431
1.88793
1.79682
1.81112
1.82661
1.84225
1.85734
1.87146
1.88395
1.89342
1.89974
1.91101
1.79502
1.80893
1.82392
1.83887
1.85304
1.86599
1.87706
1.88515
1.89124
1.90754
-0.769975
-0.810049
-0.860818
-0.922309
-0.995089
-1.07857
-1.17233
-1.2704
-1.35832
-1.4202
-0.561137
-0.603963
-0.656204
-0.718403
-0.791636
-0.876527
-0.970528
-1.07009
-1.15945
-1.22321
-0.321691
-0.368122
-0.422724
-0.486225
-0.559663
-0.643819
-0.737297
-0.834663
-0.923907
-0.988479
-0.068244
-0.117951
-0.174705
-0.239037
-0.31196
-0.39439
-0.485154
-0.578538
-0.664342
-0.725727
0.180085
0.128819
0.0717029
0.0084923
-0.0617808
-0.140146
-0.225828
-0.313514
-0.393932
-0.448518
0.409086
0.359456
0.305068
0.245773
0.180615
0.10851
0.030025
-0.0499058
-0.122702
-0.169269
0.613265
0.568463
0.519824
0.467102
0.409332
0.34544
0.275884
0.205237
0.141444
0.1033
0.797314
0.758945
0.717544
0.672639
0.623173
0.568122
0.507945
0.446935
0.392505
0.362439
0.970189
0.937573
0.901936
0.863602
0.821576
0.774804
0.723695
0.672138
0.626918
0.604235
1.12778
1.10022
1.06808
1.03474
0.999648
0.96138
0.919887
0.878232
0.842376
0.826247
1.72833
1.66897
1.6453
1.61368
1.59456
1.58253
1.56504
1.54641
1.48296
1.3786
1.7144
1.66603
1.64486
1.61698
1.59859
1.58894
1.57473
1.55994
1.51701
1.45362
1.70226
1.66242
1.64483
1.62025
1.60135
1.59404
1.58336
1.57557
1.55104
1.52516
1.69176
1.65859
1.64427
1.62099
1.60298
1.59808
1.59078
1.58971
1.58086
1.58609
1.68269
1.65493
1.6434
1.61872
1.60397
1.60077
1.59656
1.60134
1.60564
1.63652
1.67482
1.65145
1.64188
1.61697
1.60489
1.60233
1.60066
1.6102
1.62545
1.67643
1.66783
1.64806
1.63966
1.61606
1.60547
1.60297
1.60307
1.61612
1.63997
1.7059
1.66156
1.64488
1.63716
1.61524
1.60541
1.60269
1.60383
1.61899
1.64885
1.72488
1.65614
1.6421
1.63462
1.61421
1.6047
1.60146
1.60296
1.61883
1.65193
1.73318
1.65173
1.6396
1.6322
1.61297
1.60345
1.59924
1.60053
1.61571
1.64918
1.73066
1.84756
1.68068
1.63863
1.59523
1.57151
1.55468
1.52782
1.49213
1.39252
1.28927
1.80879
1.68377
1.6465
1.60203
1.57513
1.55656
1.52823
1.49248
1.3916
1.27334
1.78676
1.68135
1.64676
1.60459
1.57816
1.56007
1.5324
1.49804
1.40118
1.27427
1.7643
1.67577
1.64754
1.60804
1.58322
1.56618
1.54016
1.50869
1.41682
1.28466
1.74468
1.67186
1.64741
1.61074
1.58878
1.57371
1.55105
1.52344
1.43924
1.30513
1.03037
0.919149
0.779596
0.605636
0.399642
0.167841
-0.0774782
-0.320254
-0.54539
-0.740957
1.01722
0.907801
0.770927
0.601639
0.401967
0.175718
-0.0673303
-0.311286
-0.539457
-0.737689
1.03026
0.91893
0.779344
0.609784
0.411652
0.186412
-0.0574797
-0.304228
-0.536052
-0.737738
1.058
0.937008
0.790226
0.61918
0.421516
0.196004
-0.0496833
-0.299858
-0.535848
-0.741468
1.10617
0.965369
0.804077
0.627812
0.42869
0.202291
-0.0452037
-0.29878
-0.539172
-0.749164
)
;

boundaryField
{
    left
    {
        type            zeroGradient;
    }
    right
    {
        type            fixedValue;
        value           uniform 0;
    }
    down
    {
        type            zeroGradient;
    }
    up
    {
        type            zeroGradient;
    }
    cylinder
    {
        type            zeroGradient;
    }
    defaultFaces
    {
        type            empty;
    }
}


// ************************************************************************* //
