/*--------------------------------*- C++ -*----------------------------------*\
| =========                 |                                                 |
| \\      /  F ield         | OpenFOAM: The Open Source CFD Toolbox           |
|  \\    /   O peration     | Version:  2406                                  |
|   \\  /    A nd           | Website:  www.openfoam.com                      |
|    \\/     M anipulation  |                                                 |
\*---------------------------------------------------------------------------*/
FoamFile
{
    version     2.0;
    format      ascii;
    arch        "LSB;label=32;scalar=64";
    class       surfaceScalarField;
    location    "1.75";
    object      phi;
}
// * * * * * * * * * * * * * * * * * * * * * * * * * * * * * * * * * * * * * //

dimensions      [0 3 -1 0 0 0 0];

oriented        oriented;

internalField   nonuniform List<scalar> 
3485
(
-0.00161905
0.00189291
-0.000273854
-0.00373906
0.00257568
-0.000455671
-0.00536921
0.00231948
-0.00068932
-0.00605403
0.00153823
-0.000853421
-0.00495123
-0.000161553
-0.000941245
-0.000533747
-0.00376215
-0.000655333
0.00842627
-0.00951454
0.000554524
0.0224974
-0.0168782
0.0028071
0.0417595
-0.0254442
0.00618209
-0.0311338
0.0100601
0.0628332
-0.000955637
0.00284854
-0.00146667
0.00308671
-0.00173303
0.00258584
-0.000381227
0.000186431
0.00471739
-0.00526017
0.015258
-0.0143028
0.0317632
-0.0260196
0.0542469
-0.0393619
0.0825336
-0.0537309
-0.0631367
0.114537
5.20959e-05
0.00279645
0.000153106
0.0029857
0.00209063
0.000648317
0.0084487
-0.00617164
0.0210597
-0.0178711
0.0401932
-0.0334363
0.0652791
-0.0511056
0.0950353
-0.0691182
0.127963
-0.0866591
-0.0991785
0.164005
0.00127898
0.00151746
0.00313901
0.00112568
0.00907251
-0.00528519
0.0218869
-0.018986
0.0424274
-0.0384117
0.0696036
-0.0606125
0.101171
-0.0826733
0.134571
-0.102518
0.167188
-0.119276
-0.131454
0.199463
0.000819441
0.000698022
0.00517128
-0.00322616
0.0169747
-0.0170886
0.0376597
-0.039671
0.0657952
-0.0665472
0.0980385
-0.0928557
0.130745
-0.11538
0.161123
-0.132896
0.187417
-0.14557
-0.15395
0.209912
0.0012255
-0.000527481
0.00954016
-0.0115408
0.0280046
-0.035553
0.0554243
-0.0670907
0.0871119
-0.0982348
0.118059
-0.123803
0.144959
-0.14228
0.166549
-0.154485
0.183074
-0.162095
-0.166603
0.195728
0.00264572
-0.0031732
0.015868
-0.0247631
0.0401597
-0.0598447
0.0700637
-0.0969947
0.0988817
-0.127053
0.12265
-0.147571
0.140516
-0.160146
0.153525
-0.167495
0.163246
-0.171816
-0.174444
0.171087
0.0048121
-0.0079853
0.0226162
-0.0425671
0.049269
-0.0864976
0.0760318
-0.123758
0.0975571
-0.148578
0.112949
-0.162963
0.123657
-0.170855
0.131485
-0.175323
0.137666
-0.177996
-0.179691
0.142912
0.00701421
-0.0149995
0.0275327
-0.0630856
0.0520944
-0.111059
0.0725114
-0.144175
0.0867441
-0.162811
0.0961261
-0.172344
0.102544
-0.177273
0.107333
-0.180111
0.111247
-0.18191
-0.183024
0.11458
0.00889404
-0.0238935
0.0291981
-0.0833897
0.0488795
-0.130741
0.0629501
-0.158245
0.0717768
-0.171638
0.0771884
-0.177756
0.0808944
-0.180979
0.0838408
-0.183058
0.0860511
-0.18412
0.0872205
-0.184193
-0.000344163
0.0044638
-0.00411964
-0.00159198
0.0157781
-0.0145303
-0.00351916
0.0250199
-0.0230927
-0.0057373
0.0312883
-0.0290701
-0.00796901
0.035394
-0.0331623
-0.0100706
0.0381798
-0.0360781
-0.0119929
0.0401643
-0.038242
-0.0137475
0.0416448
-0.0398902
-0.0153553
0.0428092
-0.0412014
0.0437791
-0.0167814
-0.0423531
0.000376567
0.00408723
0.000508433
0.0156462
-3.86382e-05
0.0255669
-0.00110672
0.0323564
-0.00241944
0.0367067
-0.00378935
0.0395497
-0.00511789
0.0414928
-0.00635196
0.0428789
-0.00745301
0.0439103
0.0447272
-0.00840109
0.00106182
0.00302541
0.00281748
0.0138905
0.0040704
0.024314
0.00462676
0.0318
0.00472088
0.0366126
0.00460878
0.0396618
0.00446003
0.0416416
0.00437564
0.0429633
0.00442013
0.0438658
0.044525
0.0046223
0.00149693
0.00152849
0.00490586
0.0104816
0.00834706
0.0208728
0.0110858
0.0290613
0.0131612
0.0345373
0.0148417
0.0379812
0.0163731
0.0401102
0.0179298
0.0414066
0.0196404
0.0421552
0.0425332
0.0216322
0.00134984
0.000178642
0.00588624
0.00594521
0.0115056
0.0152534
0.0168047
0.0237622
0.021388
0.029954
0.0253784
0.0339907
0.029047
0.0364416
0.0326546
0.037799
0.0364312
0.0383786
0.0383169
0.0406475
0.000872811
-0.000694168
0.00516636
0.00165167
0.0120181
0.00840165
0.0195497
0.0162306
0.0267693
0.0227344
0.033428
0.0273321
0.0396432
0.0302264
0.0456619
0.0317803
0.0517791
0.0322615
0.0316678
0.0584282
0.00070214
-0.00139631
0.00340562
-0.00105181
0.00950518
0.0023021
0.0176091
0.0081267
0.0263567
0.0139868
0.0350767
0.0186121
0.0435762
0.0217269
0.0519207
0.0234357
0.060339
0.0238433
0.02265
0.0693567
0.000680584
-0.00207689
0.00172219
-0.00209342
0.00488454
-0.000860257
0.0108544
0.00215687
0.0187396
0.00610154
0.0274799
0.00987179
0.0366012
0.0126056
0.0459921
0.0140449
0.0557744
0.0140609
0.0120698
0.0663547
-0.000779586
-0.00129731
-0.00130305
-0.00156995
-0.00124357
-0.000919739
0.000783751
0.000129549
0.00525304
0.00163225
0.0115476
0.00357726
0.0191525
0.00500071
0.0278692
0.00532815
0.0376802
0.00424986
0.00127983
0.0484702
-0.00157116
-0.00359679
-0.00520584
-0.00592972
-0.00523872
-0.00231678
0.00323845
0.0113737
0.0218057
0.0331456
-0.017164
0.427746
-0.427364
-0.026475
0.434249
-0.424938
-0.0399063
0.290112
-0.276681
-0.035053
0.0870168
-0.0918701
-0.00331504
-0.142578
0.11084
0.0375894
-0.282598
0.241693
0.0773857
-0.334659
0.294862
0.107297
-0.301433
0.271521
0.130671
-0.263489
0.240115
-0.148248
0.13655
-0.0107258
0.430071
-0.0251186
0.448642
-0.0406717
0.305665
-0.0331487
0.0794938
0.00192743
-0.177654
0.0453865
-0.326057
0.0857259
-0.374998
0.114699
-0.330405
0.137324
-0.286114
-0.159998
0.0019883
0.432705
-0.0142096
0.46484
-0.0302643
0.32172
-0.0206551
0.0698845
0.0163903
-0.214699
0.0625721
-0.372239
0.102202
-0.414628
0.128022
-0.356226
0.147513
-0.305605
-0.170684
0.0243811
0.429956
0.00749206
0.481729
-0.00891595
0.338128
0.00164838
0.0593202
0.0391505
-0.252201
0.0877637
-0.420852
0.127234
-0.454099
0.149152
-0.378143
0.163068
-0.319522
-0.1787
0.0529858
0.417618
0.0368352
0.497879
0.0210787
0.353885
0.0312306
0.0491683
0.0672206
-0.288191
0.116695
-0.470326
0.157475
-0.494879
0.17756
-0.398229
0.185138
-0.3271
-0.182612
0.0850025
0.391044
0.0740899
0.508792
0.0598847
0.36809
0.0680339
0.0410192
0.101309
-0.321467
0.148014
-0.517031
0.18865
-0.535514
0.209659
-0.419239
0.212887
-0.330327
-0.182276
0.117011
0.343389
0.115954
0.509849
0.103783
0.38026
0.110897
0.0339053
0.142959
-0.353528
0.184441
-0.558513
0.220243
-0.571317
0.24155
-0.440546
0.243367
-0.332143
-0.179188
0.142643
0.267101
0.156961
0.495532
0.148528
0.388693
0.155157
0.0272764
0.186982
-0.385353
0.224884
-0.596415
0.25374
-0.600173
0.271885
-0.458691
0.273291
-0.33355
-0.175308
0.158554
0.157017
0.19695
0.457135
0.190724
0.394919
0.1948
0.0232012
0.225709
-0.416262
0.262543
-0.633249
0.28743
-0.62506
0.300789
-0.47205
0.300707
-0.333467
-0.17168
0.150964
0.0391981
0.218816
0.389283
0.223857
0.389877
0.230558
0.0165011
0.257831
-0.443535
0.293401
-0.66882
0.317561
-0.649219
0.327485
-0.481975
0.324855
-0.330837
-0.168423
0.271137
0.00739141
-0.239331
0.362372
0.298048
0.44339
0.308859
0.546253
-0.0863615
0.624635
-0.521917
0.652698
-0.696883
0.636985
-0.633506
0.600931
-0.445921
0.557256
-0.287162
-0.141589
0.438308
0.0595939
-0.49051
0.486476
0.24988
0.594651
0.200685
0.710712
-0.202423
0.763429
-0.574634
0.752377
-0.685831
0.704127
-0.585257
0.6488
-0.390594
0.5931
-0.231462
-0.10898
0.601963
0.087082
-0.629451
0.643689
0.208154
0.74922
0.0951537
0.834538
-0.287741
0.854736
-0.594832
0.817545
-0.648639
0.744459
-0.512171
0.671832
-0.317967
0.607978
-0.167608
-0.0734785
0.710277
0.0759309
-0.699126
0.77416
0.144271
0.862881
0.00643247
0.917338
-0.342198
0.917894
-0.595388
0.86405
-0.594795
0.773354
-0.421475
0.68291
-0.227523
0.608199
-0.0928975
-0.0348733
0.778766
0.0430763
-0.745911
0.850592
0.0724451
0.924705
-0.06768
0.96267
-0.380164
0.941637
-0.574354
0.859754
-0.512912
0.753698
-0.315419
0.660744
-0.134569
0.588843
-0.0209965
0.00152912
0.820161
0.00456087
-0.781646
0.884067
0.00853973
0.94967
-0.133283
0.97384
-0.404334
0.920164
-0.520678
0.806362
-0.39911
0.686411
-0.195469
0.597127
-0.045285
0.539709
0.0364215
0.0279381
0.832277
-0.0276258
-0.80009
0.889025
-0.0482081
0.946316
-0.190575
0.925761
-0.383778
0.811267
-0.406185
0.668759
-0.256601
0.55769
-0.0843998
0.491323
0.0210814
0.460524
0.0672209
0.0390553
0.811335
-0.0488661
-0.790095
0.859159
-0.0960321
0.870487
-0.201903
0.758069
-0.271361
0.575176
-0.223291
0.428354
-0.10978
0.356133
-0.0121785
0.336326
0.0408883
0.343484
0.0600632
0.0320655
0.704993
-0.050972
-0.702887
0.704628
-0.0956672
0.60509
-0.102365
0.407403
-0.0736736
0.23241
-0.0482984
0.149303
-0.0266735
0.137841
-0.000716409
0.159988
0.0187417
0.193517
0.0265337
0.0143668
0.33279
-0.383762
0.237123
0.134758
0.0610844
0.012786
-0.0138874
-0.0146038
0.00413787
0.0306715
0.513133
0.0772688
-0.503181
0.522721
0.104992
0.53195
0.133683
0.540959
0.162078
0.54966
0.187026
0.5474
0.212173
0.52061
0.226252
0.457828
0.226788
0.343689
0.228676
0.167191
0.512386
0.0671459
-0.502263
0.524361
0.0930165
0.537869
0.120175
0.552527
0.14742
0.566267
0.173286
0.582117
0.196324
0.585142
0.223227
0.581614
0.230315
0.554405
0.255885
0.231087
0.519249
0.0582007
-0.510303
0.530449
0.0818159
0.543991
0.106633
0.560769
0.130642
0.577136
0.156919
0.596995
0.176464
0.614854
0.205368
0.629788
0.215381
0.641598
0.244075
0.243234
0.529616
0.049699
-0.521115
0.541246
0.0701858
0.55489
0.0929892
0.572282
0.113251
0.591494
0.137707
0.612552
0.155406
0.637237
0.180682
0.65829
0.194329
0.684032
0.218333
0.228139
0.538107
0.0406332
-0.529041
0.550613
0.0576791
0.566034
0.0775689
0.584556
0.0947282
0.606796
0.115467
0.630327
0.131876
0.658732
0.152277
0.685609
0.167451
0.717658
0.186284
0.199886
0.54051
0.0309196
-0.530797
0.553742
0.0444471
0.570932
0.0603795
0.591137
0.0745232
0.615853
0.0907503
0.642679
0.10505
0.674258
0.120698
0.707012
0.134697
0.744333
0.148963
0.162573
0.532958
0.0210116
-0.52305
0.546631
0.0307742
0.564771
0.0422394
0.586474
0.0528202
0.612939
0.0642855
0.642574
0.0754151
0.67704
0.0862325
0.714252
0.0974854
0.756132
0.107082
0.118615
0.507216
0.0112721
-0.497476
0.520832
0.0171581
0.539151
0.0239202
0.561446
0.030525
0.588688
0.037044
0.619861
0.0442418
0.656076
0.0500178
0.696117
0.0574441
0.741169
0.0620309
0.069689
0.439307
0.00274189
-0.430777
0.451383
0.00508208
0.467898
0.00740522
0.488395
0.0100278
0.513326
0.0121128
0.542468
0.0150995
0.576023
0.0164635
0.613811
0.0196561
0.655982
0.01986
0.0227835
0.255271
-0.25253
0.260353
0.267759
0.277787
0.289899
0.304999
0.321462
0.341119
0.360978
0.0697238
0.130993
-0.120553
-0.0801637
0.059937
0.133131
-0.123344
0.0507983
0.135388
-0.12625
0.0419274
0.138289
-0.129418
0.0330995
0.141435
-0.132607
0.0243483
0.144062
-0.135311
0.0159506
0.144432
-0.136034
0.00828024
0.139624
-0.131954
0.00226243
0.121482
-0.115464
0.0654553
-0.0631929
0.0668731
0.140532
-0.0764118
0.0573919
0.142612
0.0481211
0.144659
0.0391471
0.147263
0.0303867
0.150195
0.0218895
0.152559
0.0139375
0.152384
0.00686175
0.1467
0.00163108
0.126712
0.0670864
0.059707
0.149324
-0.0684996
0.0507836
0.151535
0.0419646
0.153478
0.0334224
0.155806
0.0252093
0.158408
0.0174458
0.160323
0.0103901
0.15944
0.00434045
0.15275
0.000362174
0.13069
0.0674486
0.0499975
0.15725
-0.0579227
0.0419895
0.159543
0.0340198
0.161448
0.0262651
0.16356
0.0188486
0.165825
0.0119975
0.167174
0.00607529
0.165362
0.00121965
0.157606
-0.000951113
0.132861
0.0664975
0.0371065
0.164413
-0.0442697
0.0300434
0.166606
0.0230605
0.168431
0.0162686
0.170352
0.00991361
0.17218
0.00436971
0.172718
-6.18562e-05
0.169794
-0.00292445
0.160468
-0.00283695
0.132774
0.0636605
0.0225661
0.170586
-0.0287398
0.0165774
0.172595
0.0107695
0.174238
0.00527166
0.17585
0.000250337
0.177201
-0.00367934
0.176647
-0.0063659
0.17248
-0.00736618
0.161468
-0.00473269
0.13014
0.0589278
0.00496651
0.176046
-0.0104258
-0.000153134
0.177714
-0.00499453
0.17908
-0.00944122
0.180297
-0.0128553
0.180615
-0.0145279
0.17832
-0.0150225
0.172975
-0.0129695
0.159415
-0.00688189
0.124053
0.052046
-0.013451
0.179971
0.00952612
-0.0169438
0.181207
-0.0201335
0.18227
-0.0227634
0.182927
-0.023947
0.181799
-0.0241673
0.17854
-0.0229639
0.171771
-0.01796
0.154411
-0.00849112
0.114584
0.0435548
-0.036366
0.182829
0.0335073
-0.0389461
0.183787
-0.0407715
0.184095
-0.040926
0.183081
-0.0395794
0.180452
-0.037471
0.176432
-0.0327175
0.167018
-0.0233171
0.145011
-0.00972814
0.100995
0.0338267
-0.0608785
0.0595149
-0.0612109
-0.0601736
-0.0580719
-0.0553758
-0.0505816
-0.0418087
-0.0275383
-0.00993314
0.101986
0.0309195
-0.113195
-0.0197108
0.0905515
0.0315337
-0.0200987
0.0788894
0.0322309
-0.0205688
0.066987
0.0330195
-0.021117
0.0548358
0.0338754
-0.0217242
0.0424489
0.0346655
-0.0222786
0.0299249
0.0349412
-0.0224172
0.0176208
0.0335796
-0.0212755
0.00659114
0.0284119
-0.0173822
0.0152589
-0.00866775
0.102295
0.0421887
-0.113564
0.0908417
0.0429868
0.0791692
0.0439034
0.0672689
0.0449198
0.0551319
0.0460123
0.0427657
0.0470317
0.0302538
0.0474531
0.0179073
0.0459261
0.00672278
0.0395964
0.0219817
0.101947
0.0534058
-0.113164
0.0905223
0.054411
0.0788812
0.0555445
0.0670159
0.056785
0.0549204
0.0581079
0.0426024
0.0593497
0.0301451
0.0599104
0.0178482
0.0582231
0.00668288
0.0507617
0.0286646
0.100436
0.0645515
-0.111581
0.0891315
0.0657153
0.0776036
0.0670724
0.0658444
0.0685443
0.053855
0.0700973
0.0416632
0.0715415
0.0293761
0.0721976
0.0173004
0.0702988
0.00639519
0.0616669
0.0350598
0.0982682
0.0754211
-0.109138
0.0872281
0.0767554
0.0759972
0.0783033
0.0645433
0.0799982
0.0528376
0.0818029
0.0408878
0.0834912
0.0288102
0.0842752
0.0169307
0.0821783
0.00620655
0.072391
0.0412663
0.0942693
0.0861399
-0.104988
0.0834882
0.0875365
0.0725335
0.089258
0.0614064
0.0911254
0.0500955
0.0931138
0.0386051
0.0949816
0.0270441
0.0958362
0.0157357
0.0934866
0.00561853
0.0825082
0.0468848
0.0900021
0.0963057
-0.100168
0.0797791
0.0977595
0.0693792
0.0996579
0.0587349
0.10177
0.0478271
0.104022
0.0367052
0.106104
0.0255488
0.106993
0.0147257
0.10431
0.00518393
0.09205
0.0520688
0.0830664
0.106074
-0.0928347
0.0733455
0.10748
0.0635549
0.109449
0.0536481
0.111676
0.0435543
0.114115
0.0332672
0.116391
0.0229583
0.117302
0.0130122
0.114256
0.0043885
0.100674
0.0564573
0.0776573
0.114357
-0.0859404
0.0690736
0.116064
0.0599438
0.118578
0.0503942
0.121226
0.0405746
0.123935
0.030632
0.126333
0.0208246
0.127109
0.0115423
0.123538
0.00370567
0.10851
0.0601629
0.0681175
-0.0743135
0.0608378
0.0531666
0.0449742
0.0363024
0.0273249
0.0183995
0.00998336
0.00302999
0.200978
-0.00182496
-0.00116306
0.20688
-0.0141088
0.0082065
0.212586
0.0291899
-0.034896
0.213137
0.10199
-0.102541
0.209999
0.147113
-0.143975
0.204366
0.170846
-0.165214
0.195418
0.168593
-0.159645
0.182905
0.172589
-0.160077
0.159665
0.185576
-0.162335
0.208134
-0.161664
0.200962
-0.00479708
0.20664
-0.0197873
0.211501
0.0243294
0.21103
0.102461
0.207152
0.15099
0.20107
0.176929
0.192584
0.177079
0.180502
0.184672
0.158722
0.207356
0.253292
0.200806
-0.00761372
0.206213
-0.0251936
0.21015
0.0203919
0.208498
0.104113
0.203682
0.155806
0.196776
0.183835
0.188645
0.18521
0.17661
0.196706
0.156457
0.227509
0.296585
0.200511
-0.0101344
0.205587
-0.0302698
0.208525
0.0174532
0.205512
0.107126
0.199559
0.16176
0.191582
0.191812
0.183731
0.193061
0.171323
0.209114
0.153025
0.245807
0.338029
0.200083
-0.0122275
0.204767
-0.0349536
0.206622
0.0155983
0.202048
0.1117
0.19478
0.169027
0.185622
0.200969
0.177974
0.20071
0.164761
0.222326
0.148517
0.262052
0.377408
0.199526
-0.0137641
0.203742
-0.039169
0.204413
0.0149269
0.198089
0.118025
0.189394
0.177722
0.179052
0.211311
0.171455
0.208307
0.157179
0.236602
0.143165
0.276066
0.415585
0.198832
-0.0146068
0.202461
-0.042798
0.201844
0.015544
0.193639
0.126231
0.183494
0.187867
0.172025
0.22278
0.164213
0.21612
0.148813
0.252001
0.136874
0.288006
0.452291
0.197976
-0.0145931
0.200828
-0.0456499
0.198852
0.0175204
0.188744
0.136338
0.177194
0.199417
0.164681
0.235293
0.156334
0.224467
0.140032
0.268303
0.13024
0.297798
0.489696
0.19693
-0.0135333
0.198716
-0.0474362
0.195394
0.0208429
0.183501
0.148231
0.170628
0.21229
0.157135
0.248786
0.148011
0.233591
0.131513
0.284801
0.122976
0.306334
0.526732
0.195756
-0.0112997
0.196024
-0.0477038
0.191516
0.0253503
0.177972
0.161775
0.163977
0.226285
0.149471
0.263292
0.139639
0.243422
0.122343
0.302097
0.116267
0.312411
0.568685
0.303331
-0.0126201
0.30785
-0.0522236
0.3185
0.0147009
0.319327
0.160948
0.319713
0.225899
0.311254
0.271751
0.31714
0.237536
0.313517
0.30572
0.358175
0.267752
0.502801
0.424059
0.302529
-0.0131388
0.304908
-0.054603
0.318043
0.00156668
0.324764
0.154227
0.33188
0.218782
0.330261
0.27337
0.343216
0.224581
0.348238
0.300698
0.374374
0.241616
0.438815
0.43836
0.301807
-0.0129355
0.302777
-0.0555732
0.315501
-0.0111569
0.334416
0.135312
0.349114
0.204084
0.362604
0.25988
0.383605
0.20358
0.398724
0.28558
0.415673
0.224667
0.380412
0.474076
0.301655
-0.0125802
0.301784
-0.0557018
0.310994
-0.0203679
0.346315
0.0999915
0.367913
0.182487
0.396621
0.231172
0.427609
0.172592
0.447398
0.265791
0.469687
0.202379
0.32737
0.522728
0.302476
-0.0130459
0.301688
-0.0549138
0.308566
-0.0272456
0.35438
0.0541772
0.383321
0.153546
0.421541
0.192951
0.458832
0.1353
0.484624
0.239999
0.514208
0.172795
0.27451
0.567068
0.304708
-0.0157436
0.303837
-0.0540432
0.31148
-0.0348883
0.356695
0.00896241
0.392608
0.117633
0.437548
0.148011
0.475784
0.0970644
0.509103
0.20668
0.541616
0.140282
0.221593
0.594533
0.308089
-0.0218222
0.308348
-0.0543019
0.317288
-0.0438292
0.351374
-0.0251233
0.391002
0.0780048
0.439691
0.0993229
0.474697
0.0620581
0.51637
0.165007
0.550254
0.106398
0.167298
0.604549
0.310198
-0.0300105
0.309787
-0.0538908
0.317368
-0.0514098
0.331852
-0.0396071
0.370457
0.0393992
0.418609
0.0511711
0.445345
0.0353221
0.496965
0.113388
0.534326
0.0690365
0.108871
0.592752
0.307949
-0.035949
0.300045
-0.0459871
0.294127
-0.0454915
0.283192
-0.0286726
0.312626
0.00996545
0.346576
0.0172209
0.364525
0.017373
0.426788
0.051125
0.466209
0.0296159
0.0475519
0.527528
0.266061
0.220074
0.174583
0.14591
0.155876
0.173096
0.190469
0.241594
0.27121
0.318762
0.43649
-0.0925946
0.442714
-0.082636
0.448889
-0.0746743
0.455524
-0.0645575
0.462974
-0.0517201
0.470332
-0.0360981
0.478133
-0.0182261
0.485655
0.00200342
0.493876
0.0252868
0.0502097
0.444569
-0.0988035
0.451355
-0.0894221
0.457473
-0.0807915
0.463207
-0.0702921
0.469012
-0.0575247
0.474744
-0.0418301
0.480746
-0.0242285
0.486815
-0.00406532
0.494023
0.0180783
0.0419705
0.476934
-0.101661
0.480921
-0.0934095
0.48448
-0.0843506
0.487142
-0.0729541
0.489416
-0.0597991
0.491799
-0.0442126
0.49461
-0.027039
0.498208
-0.00766388
0.50334
0.0129459
0.0350075
0.520607
-0.0995398
0.518398
-0.0912003
0.515921
-0.0818735
0.513325
-0.0703589
0.510916
-0.0573893
0.509515
-0.0428122
0.509247
-0.0267704
0.511075
-0.00949246
0.514703
0.00931836
0.0285955
0.557541
-0.0900132
0.548253
-0.0819116
0.539509
-0.0731297
0.531913
-0.0627629
0.525637
-0.0511136
0.521366
-0.0385416
0.519106
-0.02451
0.519686
-0.0100722
0.522731
0.00627339
0.0222854
0.579162
-0.0746418
0.564703
-0.0674521
0.551742
-0.060169
0.540788
-0.0518095
0.532044
-0.042369
0.52588
-0.0323772
0.522356
-0.0209868
0.521937
-0.00965299
0.524632
0.00357809
0.0161211
0.585213
-0.0553062
0.567676
-0.049915
0.552147
-0.0446396
0.538973
-0.0386357
0.528471
-0.0318676
0.520831
-0.024737
0.516274
-0.0164299
0.514986
-0.0083648
0.517126
0.00143859
0.0101967
0.570447
-0.0330008
0.550864
-0.0303318
0.533511
-0.027287
0.518727
-0.023852
0.506861
-0.0200014
0.497914
-0.0157901
0.492399
-0.0109144
0.490185
-0.00615065
0.49216
-0.000537189
0.00488104
0.506351
-0.0118237
0.486971
-0.0109514
0.469869
-0.0101852
0.455239
-0.00922256
0.443333
-0.00809491
0.434249
-0.00670627
0.428431
-0.00509666
0.425645
-0.00336448
0.426475
-0.00136652
0.000579046
0.306938
0.295987
0.285802
0.276579
0.268484
0.261778
0.256681
0.253317
0.25195
0.00719907
0.054079
-0.061278
0.0135007
0.122516
-0.128818
0.0158848
0.154687
-0.157071
0.0161311
0.166773
-0.167019
0.0158557
0.171118
-0.170843
0.0142342
0.173121
-0.1715
0.0116959
0.172134
-0.169596
0.00902932
0.168661
-0.165994
0.00665764
0.162451
-0.160079
0.151141
0.00503858
-0.149522
0.0088735
0.0452055
0.0189707
0.112419
0.0251711
0.148487
0.0281851
0.163759
0.0299414
0.169362
0.0309537
0.172109
0.0308106
0.172277
0.029958
0.169514
0.0288334
0.163575
0.152536
0.0274388
0.00961661
0.0355889
0.0231396
0.0988958
0.0332048
0.138422
0.0394175
0.157546
0.0433721
0.165407
0.046595
0.168886
0.0488894
0.169983
0.0500532
0.16835
0.0502077
0.163421
0.15371
0.0490333
0.0092817
0.0263072
0.0254381
0.0827394
0.039368
0.124492
0.0490675
0.147846
0.0557058
0.158769
0.0609173
0.163675
0.0652309
0.165669
0.068349
0.165232
0.0699607
0.161809
0.154173
0.069498
0.00809659
0.0182106
0.0254579
0.0653781
0.0428029
0.107147
0.0562151
0.134434
0.065872
0.149112
0.0732988
0.156248
0.0794985
0.159469
0.0845388
0.160191
0.0879636
0.158384
0.153167
0.0889689
0.00648633
0.0117242
0.0232533
0.0486112
0.0428331
0.0875669
0.0597721
0.117495
0.07272
0.136164
0.0825992
0.146369
0.0905995
0.151469
0.097244
0.153547
0.102314
0.153314
0.150515
0.104966
0.0048563
0.00686794
0.0195239
0.0339436
0.0395033
0.0675875
0.0591011
0.0978974
0.075427
0.119838
0.0882745
0.133521
0.0985602
0.141183
0.107112
0.144996
0.114155
0.146271
0.145331
0.119338
0.00339845
0.00346949
0.0151479
0.0221941
0.0335257
0.0492097
0.054032
0.0773911
0.0729284
0.100942
0.0886914
0.117758
0.101439
0.128436
0.111882
0.134553
0.12052
0.137633
0.138625
0.127226
0.00216362
0.00130588
0.0109183
0.0134395
0.0262726
0.0338553
0.0456959
0.0579678
0.0657076
0.08093
0.0838896
0.0995761
0.0993794
0.112946
0.112376
0.121556
0.12353
0.126479
0.128572
0.133583
0.00111233
0.000193544
0.00723526
0.00731658
0.0190094
0.0220812
0.0356048
0.0413723
0.054677
0.0618577
0.0736796
0.0805735
0.0909028
0.0957225
0.105642
0.106817
0.117922
0.114199
0.118188
0.128307
0.000459619
-0.000266075
0.00445065
0.00332555
0.01277
0.0137618
0.0255789
0.0285635
0.0419115
0.0455251
0.0599466
0.0625385
0.0778778
0.0777913
0.0944925
0.0902025
0.109162
0.0995289
0.106267
0.121082
0.000311516
-0.000577591
0.00270047
0.000936588
0.00804861
0.00841372
0.0169227
0.0196895
0.0293684
0.0330794
0.0445949
0.0473119
0.061295
0.0610913
0.0781757
0.0733218
0.0942043
0.0835002
0.0918702
0.108602
0.000157056
-0.000734647
0.00125976
-0.000166112
0.00417262
0.00550085
0.00936531
0.0144968
0.0174239
0.0250208
0.0284127
0.0363231
0.0417403
0.0477636
0.0564445
0.0586177
0.0715637
0.068381
0.0767306
0.0867033
9.80245e-05
-0.000832671
0.000143067
-0.000211155
0.000650679
0.00499324
0.00242003
0.0127274
0.00617333
0.0212675
0.0123743
0.0301222
0.0210408
0.0390971
0.0317233
0.0479352
0.043842
0.0562623
0.0632743
0.0572983
-0.000138267
-0.000694404
-0.00115255
0.000803127
-0.00269782
0.00653851
-0.00362095
0.0136506
-0.0032311
0.0208776
-0.00104076
0.0279318
0.00328643
0.0347699
0.00981047
0.0414111
0.0183363
0.0477365
0.0529521
0.0286585
-0.000458786
-0.000235618
-0.00266836
0.0030127
-0.00554207
0.00941222
-0.00804554
0.016154
-0.0096275
0.0224596
-0.00992944
0.0282338
-0.00860065
0.0334411
-0.00533195
0.0381425
-6.28167e-05
0.0424674
0.0461775
0.0067118
-0.000820017
0.0005844
-0.00381333
0.00600601
-0.00735462
0.0129535
-0.0105497
0.0193492
-0.012983
0.0248928
-0.0144482
0.029699
-0.0147959
0.0337888
-0.0137994
0.037146
-0.0112981
0.0399661
0.0424007
-0.00752126
-0.00127272
0.00185712
-0.0044914
0.00922469
-0.00819395
0.0166561
-0.0115859
0.0227411
-0.0142944
0.0276013
-0.0161822
0.0315868
-0.0172769
0.0348834
-0.0176196
0.0374887
-0.0171198
0.0394663
0.0411583
-0.0158774
-0.00131526
0.00317238
-0.00431234
0.0122218
-0.00782961
0.0201733
-0.0111763
0.0260878
-0.0140004
0.0304255
-0.016154
0.0337403
-0.0176247
0.0363542
-0.0185228
0.0383868
-0.0189916
0.0399351
0.0412801
-0.0191134
-0.000947258
-0.00325574
-0.0061751
-0.00915747
-0.0118943
-0.0142321
-0.0161199
-0.0176234
-0.0188897
-0.0199627
0.108864
0.470855
-0.458636
0.0784436
0.297911
-0.26749
0.0463506
0.189612
-0.157519
0.031253
0.102694
-0.0875966
0.0314842
0.0290335
-0.0292647
0.0413869
-0.0303875
0.0204849
0.0571661
-0.0690311
0.0532518
0.0738327
-0.0797879
0.0631213
0.09024
-0.0780158
0.0616085
-0.0490435
0.0383969
0.100309
0.479147
0.0692012
0.329018
0.0408294
0.217983
0.0303318
0.113192
0.0335184
0.0258468
0.0453586
-0.0422277
0.061915
-0.0855875
0.0787385
-0.0966114
0.0949036
-0.0941809
-0.0591192
0.0842965
0.481554
0.0559059
0.357409
0.0333668
0.240523
0.027647
0.118912
0.0340612
0.0194326
0.0482861
-0.0564526
0.0659244
-0.103226
0.0830589
-0.113746
0.0990453
-0.110167
-0.0687326
0.0630505
0.475802
0.0401836
0.380276
0.0245542
0.256152
0.0233607
0.120105
0.0332103
0.00958298
0.0501579
-0.0734001
0.0693259
-0.122394
0.0870452
-0.131465
0.103037
-0.12616
-0.0780092
0.0412703
0.46319
0.0240555
0.397491
0.0154571
0.26475
0.0181389
0.117423
0.0312771
-0.00355522
0.0510066
-0.0931297
0.0721195
-0.143507
0.0907664
-0.150112
0.10703
-0.142423
-0.0870885
0.0212568
0.448645
0.00922885
0.409519
0.00670058
0.267279
0.012023
0.112101
0.0280112
-0.0195434
0.0506164
-0.115735
0.0741244
-0.167015
0.0941184
-0.170106
0.111003
-0.159308
-0.0961481
0.00368043
0.437444
-0.0028636
0.416063
-0.00196902
0.266384
0.00445198
0.10568
0.022874
-0.0379654
0.048661
-0.141522
0.0751244
-0.193478
0.0969479
-0.19193
0.114863
-0.177223
-0.105408
-0.00893073
0.430497
-0.0117206
0.418852
-0.0109256
0.265589
-0.00518945
0.0999438
0.0156264
-0.0587813
0.0450873
-0.170983
0.0751019
-0.223493
0.0992136
-0.216041
0.118552
-0.196561
-0.115107
-0.0165934
0.427977
-0.0184722
0.420731
-0.0212156
0.268332
-0.0168701
0.0955983
0.00708616
-0.0827376
0.0406085
-0.204505
0.0745152
-0.2574
0.101149
-0.242675
0.12215
-0.217563
-0.125455
-0.0193496
-0.0235564
-0.0319047
-0.0281765
-7.44106e-05
0.037114
0.0745769
0.103423
0.125975
0.00398626
0.0281069
-0.0320932
-0.000119143
0.0041054
0.000113865
-0.000233009
-0.00143268
0.00154655
-0.00338736
0.00195467
-0.0034767
8.93433e-05
-0.00208989
-0.00138681
0.00080013
-0.00289002
0.00510106
-0.00430093
-0.00314324
0.0583198
0.117377
-0.14759
0.026061
0.0363642
0.0131099
0.0127181
0.00307306
0.0115834
-0.001273
0.00630073
0.0024097
-0.00359336
0.0123545
-0.0113316
0.02456
-0.0150955
0.0355941
-0.0153351
-0.00988494
0.133086
0.243061
-0.25877
0.0697284
0.0997222
0.0383141
0.0441323
0.0210349
0.0288627
0.0154221
0.0119135
0.0214071
-0.0095783
0.0343947
-0.0243192
0.0491612
-0.029862
0.0629692
-0.0291431
-0.0185111
0.190981
0.367951
-0.315871
0.109176
0.181527
0.060734
0.0925743
0.0358123
0.0537844
0.0280469
0.0196789
0.0335162
-0.0150476
0.0474753
-0.0382783
0.0635927
-0.0459793
0.0792486
-0.044799
-0.0282325
0.228125
-0.318811
0.142162
0.0772181
0.0434059
0.0338201
0.0392573
0.0542308
0.0713729
0.0881823
0.0123725
0.000261888
-0.0126344
0.013466
-0.00109346
0.0156242
-0.00215817
0.0183911
-0.00276688
0.0217131
-0.00332203
0.0245551
-0.00284204
0.027974
-0.00341887
0.0296647
-0.00169071
0.0324641
-0.00279936
0.000370892
0.0327423
0.000267865
-0.0327482
0.0362588
-0.00460997
0.0429397
-0.0088391
0.0523076
-0.0121348
0.0645011
-0.0155155
0.078008
-0.0163489
0.0946072
-0.0200181
0.110457
-0.0175405
0.129936
-0.0222783
-0.0172831
0.0488866
-0.00050342
-0.0481153
0.0547335
-0.0104568
0.0654294
-0.019535
0.0808095
-0.0275149
0.100995
-0.0357014
0.125058
-0.0404112
0.154097
-0.0490574
0.18527
-0.0487133
0.22202
-0.059028
-0.0540336
0.0610186
-0.00227314
-0.0592489
0.0687779
-0.0182161
0.0824985
-0.0332557
0.102241
-0.047257
0.127603
-0.0610634
0.158828
-0.0716365
0.193861
-0.0840905
0.233714
-0.0885666
0.275718
-0.101032
-0.094187
0.0697556
-0.0669902
0.0789783
0.094756
0.116997
0.144903
0.178232
0.21348
0.25214
0.284691
0.073451
-0.0707769
0.0773124
-0.0799865
0.0660148
-0.0720682
0.0795044
0.0581644
-0.0737697
0.0816201
0.0498367
-0.0755341
0.0838618
0.0410051
-0.0772582
0.0860899
0.031746
-0.0786922
0.0879513
0.0222803
-0.079089
0.0885547
0.012977
-0.0767432
0.0860466
0.00465762
-0.0674839
0.0758032
-0.0387026
0.0433602
0.0794071
-0.0626155
-0.0875684
0.0709422
-0.0636033
0.0619998
-0.0648274
0.0526185
-0.0661528
0.0428995
-0.0675392
0.0329747
-0.0687674
0.0230371
-0.0691514
0.0133981
-0.0671042
0.00483493
-0.0589207
-0.0338677
0.0812349
-0.0534367
-0.0904136
0.0719577
-0.0543261
0.0625266
-0.0553963
0.0529406
-0.0565667
0.0431864
-0.057785
0.033272
-0.058853
0.0233032
-0.0591826
0.0135753
-0.0573764
0.00490994
-0.0502553
-0.0289578
0.0851893
-0.0439522
-0.0946739
0.0755941
-0.0447309
0.0658295
-0.0456316
0.0558518
-0.0465891
0.0456313
-0.0475645
0.0351923
-0.048414
0.0246784
-0.0486687
0.0144297
-0.0471276
0.00529559
-0.0411213
-0.0236622
0.0881599
-0.0340596
-0.0980525
0.0781223
-0.0346933
0.0678937
-0.0354031
0.0574572
-0.0361526
0.0468126
-0.0369199
0.0360064
-0.0376078
0.0251901
-0.0378524
0.0147106
-0.0366481
0.00542246
-0.0318331
-0.0182397
0.0911682
-0.0238564
-0.101371
0.0807906
-0.0243157
0.0702103
-0.0248228
0.0594122
-0.0253545
0.048395
-0.0259027
0.0372037
-0.0264164
0.0260026
-0.0266514
0.0151891
-0.0258347
0.00565386
-0.0222978
-0.0125859
0.0939347
-0.0133347
-0.104456
0.0832169
-0.0135979
0.0722742
-0.0138801
0.0610872
-0.0141675
0.0496495
-0.0144651
0.0380071
-0.0147739
0.0263573
-0.0150016
0.0152168
-0.0146941
0.00562583
-0.0127068
-0.00696002
0.0964426
-0.00250849
-0.107269
0.0854048
-0.00256002
0.0741144
-0.00258974
0.0625407
-0.00259372
0.0506601
-0.00258449
0.038498
-0.00261183
0.0262624
-0.00276611
0.0146305
-0.00306216
0.00504096
-0.00311734
-0.00191906
0.0987231
0.00853695
-0.109769
0.0874513
0.00871174
0.0759188
0.00894277
0.064091
0.00923409
0.0519359
0.00957061
0.0394564
0.00986772
0.0268135
0.00987674
0.0146644
0.009087
0.00470453
0.00684251
0.00278546
0.100611
-0.111785
0.0892244
0.0775984
0.0657154
0.0535619
0.041151
0.0286105
0.016422
0.00588229
0.0151829
-0.147173
-0.0175316
0.0113017
-0.156198