/*--------------------------------*- C++ -*----------------------------------*\
| =========                 |                                                 |
| \\      /  F ield         | OpenFOAM: The Open Source CFD Toolbox           |
|  \\    /   O peration     | Version:  2406                                  |
|   \\  /    A nd           | Website:  www.openfoam.com                      |
|    \\/     M anipulation  |                                                 |
\*---------------------------------------------------------------------------*/
FoamFile
{
    version     2.0;
    format      ascii;
    arch        "LSB;label=32;scalar=64";
    class       volVectorField;
    location    "1.75";
    object      U;
}
// * * * * * * * * * * * * * * * * * * * * * * * * * * * * * * * * * * * * * //

dimensions      [0 1 -1 0 0 0 0];

internalField   nonuniform List<vector> 
1800
(
(-0.0139919 0.00499147 0)
(-0.0278931 0.00408956 1.35687e-20)
(-0.0360359 -0.00574683 3.62318e-21)
(-0.033974 -0.0125568 8.26585e-20)
(-0.0282781 -0.0180099 1.26497e-19)
(-0.00691932 -0.0221896 2.95666e-20)
(0.0444527 -0.0208558 -8.45499e-21)
(0.122081 -0.0160685 -1.26704e-19)
(0.227749 0.000367715 0)
(0.318733 0.0042842 4.74302e-20)
(-0.0289568 0.0157889 1.08671e-20)
(-0.03545 0.0185154 2.75977e-20)
(-0.0326578 0.0129839 1.96671e-20)
(-0.0215121 0.00527375 1.77978e-20)
(0.0150139 -0.00542783 9.97244e-21)
(0.0988028 -0.0205853 -9.09349e-20)
(0.225716 -0.0352529 3.89565e-20)
(0.385999 -0.0453302 1.93859e-19)
(0.585241 -0.0311992 4.14081e-20)
(0.707489 -0.0396818 1.57882e-20)
(-0.031277 0.0212348 1.48825e-20)
(-0.0308915 0.0215855 -5.12678e-20)
(-0.0243046 0.0166346 -5.3587e-20)
(0.0277695 0.00995124 1.38461e-20)
(0.139732 -0.0076669 -1.77761e-20)
(0.311247 -0.0248403 2.41814e-20)
(0.5264 -0.0375791 -3.47275e-20)
(0.765023 -0.0447764 -2.23966e-19)
(1.02812 -0.0344663 9.75857e-20)
(1.20558 -0.0351234 1.21778e-19)
(-0.0231476 0.0184271 3.01876e-20)
(-0.0242963 0.0286752 9.27272e-20)
(0.0236349 0.0155026 -5.1801e-20)
(0.154864 -3.15788e-05 -1.00724e-22)
(0.36567 -0.0165348 8.76045e-20)
(0.634809 -0.0271441 -2.56729e-20)
(0.930032 -0.0283424 -9.57709e-20)
(1.22033 -0.0201699 -8.18139e-20)
(1.48983 -0.0037765 -1.00977e-20)
(1.69443 0.0127338 9.08689e-20)
(-0.0105785 0.00753546 9.47062e-22)
(0.00774565 0.00575071 5.16986e-20)
(0.131582 -0.00311371 2.21448e-20)
(0.371105 -0.0156332 -6.49388e-20)
(0.693929 -0.0201031 -3.22062e-20)
(1.04624 -0.0123513 5.28836e-20)
(1.37862 0.00530208 5.01003e-20)
(1.66132 0.028137 1.06868e-19)
(1.88293 0.0525079 -2.39855e-19)
(2.04051 0.0715497 -2.12956e-19)
(-0.00233516 0.00241432 3.62783e-22)
(0.0787706 -0.0118654 1.30051e-19)
(0.322 -0.019139 9.7926e-20)
(0.690523 -0.0155016 -1.20763e-19)
(1.10163 0.00367501 1.18686e-19)
(1.47639 0.0326449 -9.21038e-21)
(1.77303 0.0632977 1.34665e-19)
(1.98396 0.0899696 2.28206e-19)
(2.12226 0.109755 -3.25684e-19)
(2.20375 0.122754 -2.52061e-19)
(0.0165464 -0.000897685 -4.14421e-20)
(0.21298 -0.0249966 -2.68834e-19)
(0.602126 -0.0157938 2.95365e-20)
(1.07522 0.0161909 3.42005e-19)
(1.50322 0.0582926 -1.98952e-20)
(1.82247 0.0974056 -2.55453e-19)
(2.03067 0.127172 -1.7387e-19)
(2.15515 0.146605 4.93301e-19)
(2.22693 0.157441 5.63313e-19)
(2.26995 0.162408 5.22289e-20)
(0.0641224 -0.00374763 4.55468e-20)
(0.413687 -0.0236199 2.90819e-20)
(0.940268 0.0188261 -1.54669e-19)
(1.44495 0.0784106 8.13391e-20)
(1.8118 0.129713 -4.51104e-21)
(2.037 0.164404 -8.30782e-19)
(2.16368 0.184804 -2.46073e-21)
(2.23545 0.195418 5.9539e-19)
(2.27842 0.200311 -3.64885e-19)
(2.30376 0.202654 -3.66017e-19)
(0.139733 -0.00258604 1.81039e-19)
(0.66531 0.00338747 1.64042e-19)
(1.27184 0.0856198 -3.93109e-19)
(1.73106 0.159389 -9.43364e-20)
(2.00654 0.206581 5.06185e-21)
(2.15355 0.231458 3.15663e-19)
(2.23105 0.244229 -5.85307e-19)
(2.27377 0.25058 -2.98846e-19)
(2.29823 0.252148 6.39151e-19)
(2.31567 0.2505 1.36748e-19)
(0.241535 0.00934348 4.30208e-21)
(0.929769 0.0641746 4.35947e-19)
(1.54122 0.176382 -3.71197e-19)
(1.92233 0.250612 -1.73971e-19)
(2.11923 0.288881 1.88208e-19)
(2.21295 0.304825 -1.97264e-19)
(2.259 0.313246 3.73712e-19)
(2.28726 0.314858 2.36175e-20)
(2.30838 0.314324 -2.57451e-19)
(2.31868 0.309682 -8.08933e-20)
(-0.00295226 0.05533 1.63109e-20)
(-0.0116977 0.192375 -3.78956e-20)
(-0.0260411 0.303026 -3.59377e-20)
(-0.0406893 0.37834 5.8347e-20)
(-0.0540354 0.428358 -6.76946e-21)
(-0.0655743 0.462895 -1.04839e-20)
(-0.0752347 0.487895 -5.35242e-21)
(-0.0833747 0.506807 1.3236e-20)
(-0.0902849 0.521956 -4.93139e-23)
(-0.0950095 0.534896 5.27558e-21)
(-0.00505237 0.0552809 -1.49673e-20)
(-0.0200794 0.199782 1.13581e-23)
(-0.0354001 0.318712 1.39993e-20)
(-0.0499046 0.398433 6.60709e-20)
(-0.0626492 0.44942 2.54648e-20)
(-0.0735362 0.483077 2.70317e-20)
(-0.0827177 0.506459 -2.43139e-20)
(-0.0904512 0.523513 0)
(-0.09696 0.536592 6.18633e-21)
(-0.101722 0.547232 -2.14748e-20)
(-0.00571149 0.0461842 7.73132e-23)
(-0.026034 0.188476 7.56831e-20)
(-0.0413793 0.315966 9.12314e-20)
(-0.0545566 0.403733 -5.08276e-20)
(-0.0651652 0.459178 -1.23802e-22)
(-0.0733904 0.494473 2.68298e-20)
(-0.0796491 0.517861 1.57814e-20)
(-0.0842516 0.533981 1.02874e-20)
(-0.0874706 0.545532 4.18116e-20)
(-0.0892702 0.554458 7.29062e-20)
(-0.00393451 0.0294514 -1.00707e-21)
(-0.02666 0.156369 8.47477e-20)
(-0.0409147 0.289772 -2.75273e-20)
(-0.0517036 0.38862 -1.05794e-19)
(-0.0587473 0.452576 1.44006e-20)
(-0.0625885 0.492688 -2.63651e-20)
(-0.0640401 0.518255 1.2309e-20)
(-0.0636246 0.534998 0)
(-0.0616332 0.546216 -4.71817e-20)
(-0.0576505 0.55418 1.19271e-20)
(-0.000442364 0.00897433 4.29257e-20)
(-0.0208015 0.104676 -1.7087e-20)
(-0.0333425 0.235929 -7.51516e-20)
(-0.0416312 0.346052 3.73312e-20)
(-0.0446573 0.42262 -1.32765e-20)
(-0.043219 0.472066 -3.41742e-20)
(-0.0386447 0.503279 3.8351e-20)
(-0.0317549 0.522809 -1.83222e-20)
(-0.0227742 0.534699 -2.14523e-20)
(-0.0104396 0.541511 -3.43308e-20)
(0.00245808 -0.00273629 2.50539e-20)
(-0.00837113 0.0452856 -2.12499e-20)
(-0.0191813 0.156497 5.8342e-20)
(-0.0264582 0.270396 -2.60905e-20)
(-0.0268939 0.360046 -1.22269e-19)
(-0.020803 0.422901 8.56484e-20)
(-0.00993724 0.464287 -1.07827e-20)
(0.00436881 0.490142 1.56151e-20)
(0.0217775 0.504781 6.20394e-20)
(0.0443442 0.510531 -4.98741e-20)
(0.00800726 -0.00992263 -1.74966e-20)
(0.00667934 0.00227188 3.58626e-20)
(-0.00132007 0.0715226 1.1194e-20)
(-0.00894405 0.16939 -2.19392e-19)
(-0.00992797 0.261515 1.5116e-20)
(-0.00267645 0.334538 1.7946e-19)
(0.011716 0.387305 8.02232e-20)
(0.0318804 0.422695 1.20644e-19)
(0.0572877 0.443515 -1.58372e-19)
(0.090022 0.449322 -1.38232e-19)
(0.0165322 -0.0189097 -4.57709e-22)
(0.0189258 -0.0194489 -2.02132e-20)
(0.016686 0.00459589 -8.97814e-20)
(0.00325285 0.0669933 1.15756e-19)
(-0.00154756 0.143848 1.89805e-19)
(0.00237283 0.213504 -8.19992e-20)
(0.0151421 0.26913 5.59696e-20)
(0.0366494 0.309957 -3.30628e-20)
(0.0670069 0.335998 -2.50087e-19)
(0.10721 0.340403 1.73799e-20)
(0.0111799 -0.0215441 4.1429e-21)
(0.00968952 -0.0230608 -7.86432e-21)
(0.00302361 -0.0163907 1.90778e-20)
(-0.00539677 -0.00318668 -3.95146e-21)
(-0.00848116 0.0337696 -8.03148e-22)
(-0.0110945 0.0824368 -2.05097e-19)
(-0.00322035 0.127977 -6.80053e-20)
(0.0173756 0.163612 -1.32416e-19)
(0.0519685 0.186244 3.106e-21)
(0.100398 0.185514 3.85662e-19)
(0.00103095 -0.0092056 1.55794e-21)
(-0.00258653 -0.0199259 2.07603e-21)
(-0.0161909 -0.0233556 5.24592e-20)
(-0.0259606 -0.0183726 1.24004e-19)
(-0.0328803 -0.0116183 -9.19466e-20)
(-0.0346558 0.00137431 -2.81313e-19)
(-0.0204675 0.0218239 -6.33764e-20)
(0.00878039 0.0399407 2.50324e-19)
(0.0565319 0.0526192 3.08715e-19)
(0.122594 0.0533297 3.15394e-19)
(-0.104581 0.592163 2.56554e-20)
(-0.10631 0.594218 -3.82125e-19)
(-0.177127 0.392062 -6.27813e-19)
(-0.220895 0.124905 1.1228e-18)
(-0.103807 -0.175604 -6.32543e-19)
(0.0861927 -0.363836 2.32234e-20)
(0.295452 -0.437523 6.4522e-20)
(0.4687 -0.398716 4.62846e-20)
(0.593887 -0.350609 -4.25075e-20)
(0.714332 -0.198738 -4.45601e-20)
(-0.11311 0.592718 1.62407e-20)
(-0.124682 0.609249 -8.27251e-21)
(-0.214453 0.411844 4.54363e-20)
(-0.224107 0.115941 -5.63618e-19)
(-0.0754635 -0.221912 -1.97757e-19)
(0.137829 -0.422024 4.371e-19)
(0.353927 -0.493423 -4.67611e-20)
(0.516935 -0.44066 8.66479e-21)
(0.63373 -0.384115 -7.05437e-20)
(0.747469 -0.216951 8.08548e-20)
(-0.09398 0.593457 -2.71836e-19)
(-0.111427 0.626923 3.7881e-19)
(-0.199001 0.432313 1.18272e-19)
(-0.175807 0.104282 -9.48838e-19)
(0.00625626 -0.271267 5.70265e-19)
(0.241665 -0.482555 2.70996e-21)
(0.461942 -0.547508 1.13407e-20)
(0.602043 -0.478464 -2.66137e-20)
(0.699158 -0.414051 1.25761e-20)
(0.792667 -0.233991 1.42684e-21)
(-0.0413495 0.590902 -2.1912e-19)
(-0.0590754 0.64539 -2.71088e-21)
(-0.12254 0.448218 1.43382e-19)
(-0.0785184 0.0881645 5.91869e-19)
(0.137989 -0.322205 -1.38359e-19)
(0.389009 -0.545558 -7.33029e-20)
(0.617194 -0.599193 5.59918e-20)
(0.731699 -0.509687 0)
(0.801529 -0.436788 0)
(0.856752 -0.24785 -2.41979e-22)
(0.0399454 0.576898 1.23164e-19)
(0.0350511 0.661921 3.15324e-20)
(-0.0221102 0.469156 5.69202e-21)
(0.0772946 0.0712726 -3.97905e-19)
(0.312018 -0.372478 -2.04877e-19)
(0.563405 -0.610537 -4.88145e-19)
(0.797822 -0.650601 1.96003e-20)
(0.897225 -0.535123 3.10517e-21)
(0.945261 -0.449672 -4.34028e-20)
(0.946558 -0.256206 -1.42568e-21)
(0.142607 0.546223 1.69456e-19)
(0.163082 0.672537 4.78543e-20)
(0.136357 0.4799 -3.89965e-19)
(0.273335 0.0557774 2.30686e-22)
(0.533897 -0.419005 6.27761e-19)
(0.770987 -0.673294 -1.91251e-19)
(0.987529 -0.702157 -9.87176e-20)
(1.07549 -0.558825 -2.29417e-20)
(1.11935 -0.453497 1.41877e-21)
(1.06458 -0.257629 -1.84532e-20)
(0.253525 0.495151 -5.70908e-20)
(0.32122 0.673847 -3.47736e-20)
(0.335461 0.489047 1.61057e-20)
(0.505047 0.0431977 8.12652e-21)
(0.806141 -0.459935 -5.67156e-20)
(1.0294 -0.726521 3.5537e-19)
(1.19738 -0.747393 -5.23993e-20)
(1.25183 -0.582102 -1.6771e-20)
(1.30092 -0.451992 1.7385e-20)
(1.20439 -0.252804 -7.09214e-22)
(0.349747 0.411319 -1.89324e-19)
(0.494641 0.654288 -1.37593e-18)
(0.552412 0.49569 -2.99149e-20)
(0.760726 0.0341042 -7.41202e-21)
(1.10015 -0.495359 -3.51339e-19)
(1.31945 -0.767842 -4.45665e-19)
(1.43729 -0.779323 2.20322e-19)
(1.43145 -0.600431 -8.64268e-20)
(1.4717 -0.447481 4.64612e-21)
(1.35176 -0.243843 -1.70929e-21)
(0.396748 0.289434 -5.3944e-19)
(0.693478 0.625804 -5.90483e-19)
(0.782401 0.498986 5.28757e-19)
(1.02294 0.0178311 9.17005e-20)
(1.383 -0.523628 -2.87471e-19)
(1.59593 -0.799631 -1.39137e-19)
(1.68463 -0.79812 -2.86092e-19)
(1.61988 -0.609136 3.04447e-20)
(1.62741 -0.439151 3.19808e-20)
(1.4921 -0.232338 1.79004e-20)
(0.40547 0.0998888 -1.62921e-19)
(0.827342 0.535251 1.58075e-18)
(0.955014 0.503699 6.39025e-19)
(1.26832 0.0355789 -9.33725e-20)
(1.65473 -0.540091 -1.80391e-19)
(1.8458 -0.822956 1.04632e-19)
(1.90941 -0.807717 -4.73427e-19)
(1.80645 -0.607637 -5.18559e-20)
(1.77003 -0.425281 -8.35133e-21)
(1.6164 -0.218801 -2.91052e-20)
(0.643986 -0.0328435 1.29037e-19)
(1.09346 0.419769 2.38992e-19)
(1.24165 0.459088 -4.46493e-20)
(1.63063 -0.0102096 2.59928e-19)
(2.03367 -0.583292 -9.32597e-20)
(2.17092 -0.84797 -9.31542e-20)
(2.17153 -0.810572 -8.12532e-20)
(2.02458 -0.593056 4.84309e-20)
(1.93237 -0.396711 -1.55903e-19)
(1.74872 -0.198268 1.99919e-20)
(1.38738 0.0456548 -7.45105e-20)
(1.44976 0.322232 -1.33026e-19)
(1.68991 0.318354 -4.16646e-19)
(2.21426 -0.189179 1.241e-19)
(2.55964 -0.697124 -6.61811e-19)
(2.56732 -0.87679 -2.85602e-19)
(2.43084 -0.771617 6.58185e-21)
(2.20921 -0.526482 -3.6176e-20)
(2.06669 -0.324636 1.85617e-19)
(1.84997 -0.156525 3.63521e-20)
(1.99341 0.101419 4.2551e-21)
(1.93066 0.285752 5.16357e-20)
(2.24389 0.178654 -8.78218e-20)
(2.69627 -0.308805 -1.06357e-35)
(2.89885 -0.722917 -4.48782e-20)
(2.82436 -0.824363 7.67402e-34)
(2.60274 -0.683395 8.14278e-20)
(2.30728 -0.446591 2.60532e-33)
(2.1253 -0.253351 -7.29412e-21)
(1.89072 -0.114971 1.06807e-20)
(2.29873 0.111479 2.88338e-20)
(2.35235 0.229865 7.60102e-20)
(2.68961 0.060274 4.01866e-19)
(3.00909 -0.392606 0)
(3.12648 -0.74564 4.40837e-19)
(3.00228 -0.787214 9.97758e-20)
(2.73333 -0.592696 -1.64929e-19)
(2.37465 -0.346025 5.40656e-33)
(2.13675 -0.165222 -1.346e-19)
(1.88161 -0.0685705 -1.50619e-20)
(2.48718 0.0806511 4.5327e-20)
(2.62919 0.136495 -1.69458e-20)
(2.93015 -0.0427717 0)
(3.18013 -0.448668 0)
(3.24427 -0.730079 0)
(3.02757 -0.696668 0)
(2.68231 -0.465352 1.55436e-20)
(2.30561 -0.227535 5.60722e-33)
(2.06645 -0.0685872 -9.88829e-21)
(1.82441 -0.0189657 -2.31634e-33)
(2.63017 0.0289889 1.87538e-20)
(2.77167 0.0459456 0)
(3.0213 -0.124849 0)
(3.26101 -0.492678 0)
(3.22438 -0.698752 0)
(2.89137 -0.585945 0)
(2.47225 -0.327309 -2.61007e-20)
(2.08342 -0.112532 1.94851e-19)
(1.87332 0.014325 -1.14668e-20)
(1.6937 0.0224804 3.50822e-21)
(2.69843 -0.0165732 0)
(2.79119 -0.0243548 1.14821e-19)
(3.04804 -0.20223 2.54024e-19)
(3.21348 -0.51211 0)
(2.93631 -0.606635 1.63016e-19)
(2.44378 -0.424746 -1.7566e-20)
(2.01625 -0.171891 -1.19783e-19)
(1.69788 -0.00467012 -8.84179e-20)
(1.56373 0.0755541 8.17947e-20)
(1.48042 0.0479455 -3.65516e-20)
(2.6438 -0.0526195 2.96622e-20)
(2.71202 -0.0910181 -1.69713e-20)
(2.94244 -0.257916 2.30891e-20)
(2.80596 -0.445843 -6.60916e-35)
(2.206 -0.419404 -1.37654e-20)
(1.6045 -0.221427 1.26612e-34)
(1.26319 -0.0367086 -2.23286e-20)
(1.11808 0.0591878 -8.84489e-20)
(1.11924 0.0939669 -1.26399e-20)
(1.15184 0.050472 2.8043e-20)
(2.30498 -0.0626265 0)
(2.33815 -0.150202 -7.83241e-20)
(2.29711 -0.246552 -6.44334e-20)
(1.70663 -0.209907 0)
(0.965631 -0.121165 -5.5483e-20)
(0.561254 -0.0477815 -3.94682e-20)
(0.448059 0.0060814 -4.44143e-20)
(0.482431 0.0448823 -4.73374e-21)
(0.587602 0.0566784 -9.7069e-21)
(0.691413 0.0292019 -2.67196e-20)
(1.22027 -0.0618867 8.53559e-21)
(0.967905 -0.0819085 0)
(0.580522 -0.0187445 0)
(0.298658 0.00962208 0)
(0.0995063 -0.00803545 0)
(-0.0203047 -0.0141439 0)
(-0.0656708 -0.00709263 -2.0409e-20)
(-0.0264796 0.00543841 1.21404e-34)
(0.0572603 0.0126107 -1.34419e-20)
(0.14502 0.00692529 -2.8277e-20)
(2.30764 0.290411 3.58056e-19)
(2.33597 0.246144 1.43561e-19)
(2.33502 0.204985 3.02975e-19)
(2.32649 0.170232 -3.33668e-19)
(2.29536 0.131646 9.50025e-20)
(2.25076 0.115857 5.60978e-20)
(2.1138 0.0610699 6.44137e-21)
(1.86021 0.0431114 1.95397e-20)
(1.53095 -0.0279878 6.30618e-20)
(0.850874 -0.0689725 -5.31962e-20)
(2.30266 0.252091 -1.70857e-19)
(2.33345 0.219226 3.77817e-20)
(2.35423 0.195529 1.11344e-19)
(2.35856 0.173354 1.09603e-19)
(2.36024 0.140663 -2.01101e-19)
(2.32044 0.12604 1.21262e-19)
(2.3254 0.0905168 1.6019e-20)
(2.14909 0.0608319 -8.1064e-21)
(2.13077 0.0495941 3.40121e-21)
(1.70722 -0.0131009 4.12864e-20)
(2.33839 0.220685 2.37298e-20)
(2.35887 0.196136 -1.10743e-19)
(2.38475 0.172377 -1.44288e-19)
(2.38234 0.157703 3.15857e-19)
(2.40861 0.139123 -2.08073e-20)
(2.36104 0.118237 3.97181e-20)
(2.40663 0.114148 -7.80299e-20)
(2.28558 0.0759368 -6.56878e-20)
(2.33278 0.0929904 -3.59536e-20)
(2.12542 0.0416508 -1.59038e-20)
(2.38795 0.191739 4.08704e-20)
(2.40413 0.169915 -1.35165e-19)
(2.4357 0.153689 3.09896e-20)
(2.42917 0.13369 -1.03399e-19)
(2.4623 0.128142 1.42626e-19)
(2.42684 0.104875 -5.65354e-20)
(2.4644 0.111567 1.62127e-20)
(2.39804 0.0834204 -1.69705e-20)
(2.42647 0.0984744 -6.58008e-21)
(2.33146 0.0722702 1.45864e-20)
(2.4243 0.161364 7.80074e-20)
(2.44521 0.140334 -2.07577e-19)
(2.4792 0.131541 -1.66386e-20)
(2.48412 0.110725 -1.63367e-20)
(2.51461 0.108425 -6.1335e-21)
(2.50294 0.088576 -1.10048e-21)
(2.52967 0.0914269 3.18642e-20)
(2.50115 0.075624 -2.2746e-20)
(2.52009 0.0801019 -3.46529e-20)
(2.47397 0.0724312 -4.32507e-20)
(2.43233 0.127401 1.39866e-19)
(2.45908 0.109508 2.31798e-20)
(2.49458 0.103268 -1.40578e-19)
(2.51286 0.0869162 8.19518e-20)
(2.54347 0.0825737 6.25152e-20)
(2.55236 0.0692027 -4.264e-20)
(2.57834 0.0650421 5.98554e-20)
(2.57593 0.0567979 1.66452e-20)
(2.59848 0.0515963 -6.6206e-20)
(2.5834 0.0518489 -8.0917e-20)
(2.39633 0.0909532 1.80597e-20)
(2.42716 0.0770408 4.16606e-20)
(2.46383 0.0715048 -5.47807e-20)
(2.49151 0.059789 -3.15538e-20)
(2.526 0.0538976 6.09438e-20)
(2.54933 0.0447545 2.72115e-20)
(2.58063 0.0373779 5.44052e-20)
(2.59909 0.0313314 4.31882e-20)
(2.62613 0.0216992 9.2718e-21)
(2.64034 0.0215139 3.33331e-20)
(2.27675 0.0578169 2.20318e-20)
(2.31469 0.0471108 1.80175e-22)
(2.3458 0.0427151 -6.57664e-20)
(2.38714 0.0343469 -5.52803e-20)
(2.41667 0.0285706 3.17681e-20)
(2.46131 0.0222829 -2.52502e-20)
(2.4874 0.0136881 -2.10485e-20)
(2.53581 0.00848323 6.40807e-20)
(2.55586 -0.00373622 -5.14398e-20)
(2.60945 -0.00769974 -5.88876e-20)
(1.96454 0.0163004 5.39396e-20)
(2.01274 0.0116434 -2.76837e-20)
(2.02511 0.00855276 -2.60328e-20)
(2.0856 0.00498843 2.75066e-20)
(2.0924 0.000986451 -1.62947e-20)
(2.16507 -0.00184001 -4.18432e-21)
(2.16492 -0.00797991 -2.26868e-20)
(2.24873 -0.0117564 1.38912e-20)
(2.24117 -0.021165 1.39314e-20)
(2.33331 -0.0281085 -1.56114e-20)
(1.14503 -0.00157625 0)
(1.16738 -0.00257124 2.36074e-21)
(1.16113 -0.00393963 -3.52395e-20)
(1.19306 -0.00456669 -5.30957e-20)
(1.1821 -0.0072287 2.89809e-20)
(1.22487 -0.00690013 1.1334e-19)
(1.20752 -0.0130379 -7.13005e-21)
(1.25862 -0.0109394 -5.61003e-20)
(1.23381 -0.0222591 -6.29234e-21)
(1.28755 -0.0186366 2.13399e-21)
(1.39395 0.819395 -4.5632e-20)
(1.38191 0.863127 -9.53483e-20)
(1.38343 0.909929 -6.46562e-19)
(1.38858 0.962583 2.00935e-19)
(1.39224 1.01866 1.02947e-18)
(1.38812 1.07312 1.43957e-19)
(1.36327 1.11052 -7.88355e-20)
(1.29327 1.10447 -3.32666e-19)
(1.10538 0.988585 -3.34027e-19)
(0.589877 0.548227 -4.60256e-20)
(1.53958 0.791358 -3.6995e-19)
(1.53333 0.833948 1.07834e-18)
(1.53277 0.878913 4.89465e-19)
(1.53762 0.930029 -7.28633e-19)
(1.54404 0.985309 2.465e-19)
(1.54317 1.03877 2.39337e-19)
(1.51856 1.07358 7.98107e-19)
(1.44245 1.06517 -1.17549e-18)
(1.23224 0.947934 -5.07938e-20)
(0.650214 0.517164 2.11663e-19)
(1.67526 0.761828 1.05841e-19)
(1.67607 0.803718 8.52951e-19)
(1.67668 0.846464 1.66149e-20)
(1.68148 0.893511 -4.32269e-19)
(1.68914 0.944395 1.27502e-19)
(1.6897 0.993045 -6.86162e-20)
(1.66355 1.02167 -4.68557e-20)
(1.57948 1.00894 -4.06805e-19)
(1.34394 0.88875 1.88545e-20)
(0.697686 0.473225 -2.17115e-19)
(1.79875 0.720335 -4.33028e-19)
(1.80563 0.759979 3.98916e-19)
(1.81081 0.800145 -6.15288e-19)
(1.81871 0.843252 -2.30967e-19)
(1.82825 0.888954 1.36767e-18)
(1.82855 0.93131 -8.7128e-19)
(1.79824 0.952552 -9.95255e-19)
(1.70447 0.93473 4.3068e-19)
(1.4388 0.812478 -1.23587e-19)
(0.729087 0.419671 -6.46958e-20)
(1.91037 0.672771 5.42721e-19)
(1.92167 0.709805 4.38121e-19)
(1.93033 0.746218 -2.0839e-19)
(1.9397 0.784191 8.22399e-19)
(1.94925 0.824082 1.67103e-19)
(1.94722 0.858457 -3.76038e-19)
(1.91068 0.868985 5.60602e-19)
(1.80493 0.845291 -6.68866e-19)
(1.50253 0.721718 -7.59282e-19)
(0.736442 0.356473 -2.5083e-21)
(2.01 0.614775 7.2277e-19)
(2.02337 0.647228 9.10759e-19)
(2.03535 0.679343 -9.33918e-19)
(2.04859 0.712415 -9.6215e-19)
(2.05928 0.744715 2.35961e-19)
(2.05142 0.769348 -7.07446e-19)
(2.00294 0.771702 -4.69688e-19)
(1.87963 0.742777 4.07025e-19)
(1.53411 0.615933 6.87724e-20)
(0.71763 0.285817 -1.53221e-20)
(2.09925 0.555292 6.715e-19)
(2.11401 0.584516 -9.03869e-19)
(2.1258 0.612472 -8.02957e-19)
(2.13448 0.640022 6.31947e-19)
(2.1377 0.666847 -5.68048e-19)
(2.11961 0.67719 1.69643e-18)
(2.06052 0.67042 -2.56859e-19)
(1.91458 0.634555 -1.37926e-18)
(1.52015 0.501452 6.03685e-19)
(0.666855 0.212799 3.18237e-20)
(2.17758 0.487414 -4.42453e-19)
(2.19015 0.509547 -6.34474e-19)
(2.20069 0.531113 -8.81913e-19)
(2.21255 0.552403 3.06508e-20)
(2.21235 0.564033 2.77211e-19)
(2.16948 0.567704 2.97396e-19)
(2.09476 0.555965 7.14641e-19)
(1.90992 0.514011 -3.7628e-19)
(1.45896 0.380106 1.92076e-20)
(0.586946 0.142717 6.3459e-20)
(2.23528 0.426447 2.20683e-19)
(2.24718 0.446112 -7.4072e-20)
(2.25865 0.464657 4.32214e-19)
(2.25641 0.47875 1.09576e-18)
(2.2253 0.475031 -3.6737e-19)
(2.18435 0.470902 -1.38324e-18)
(2.09135 0.451666 1.05327e-18)
(1.8538 0.397472 9.48209e-19)
(1.34126 0.26317 -4.82843e-19)
(0.481172 0.0826838 -8.34865e-21)
(2.28749 0.368092 -4.57496e-19)
(2.29597 0.381715 -4.96374e-21)
(2.29014 0.389273 6.17742e-19)
(2.26595 0.389597 6.16209e-19)
(2.23175 0.384725 4.3428e-19)
(2.17371 0.377315 -7.11906e-19)
(2.03753 0.34918 3.37337e-20)
(1.73351 0.282871 -3.61841e-19)
(1.16296 0.154621 -5.4603e-19)
(0.360453 0.0373874 -1.32529e-20)
(0.508594 0.29665 3.94314e-20)
(0.470992 0.30445 -2.0359e-19)
(0.428821 0.313383 -3.69456e-20)
(0.382731 0.323556 1.5369e-19)
(0.332548 0.334707 -2.77052e-20)
(0.277633 0.345328 -2.273e-20)
(0.217229 0.350349 -5.90527e-20)
(0.149636 0.337282 -2.79912e-20)
(0.0769959 0.283086 1.06872e-19)
(0.0289609 0.147764 5.64122e-21)
(0.548864 0.395322 9.80284e-21)
(0.511673 0.408866 3.64532e-20)
(0.470569 0.423926 5.16285e-21)
(0.42587 0.440618 1.0933e-20)
(0.377191 0.458655 6.07899e-20)
(0.323664 0.476334 3.09267e-20)
(0.263948 0.487672 6.52227e-20)
(0.19551 0.477398 -6.86614e-20)
(0.116949 0.414053 7.49632e-20)
(0.0500698 0.228322 -1.18714e-21)
(0.604492 0.488486 -1.14802e-19)
(0.568363 0.507521 -1.7857e-20)
(0.529105 0.528306 3.30344e-20)
(0.48661 0.551107 -5.7044e-20)
(0.440261 0.575753 -9.19317e-21)
(0.38896 0.600485 1.25548e-19)
(0.330704 0.618547 -1.38716e-20)
(0.261879 0.612001 -3.08469e-20)
(0.176368 0.541171 -2.96205e-22)
(0.083152 0.30657 1.84975e-20)
(0.673088 0.576482 -7.01593e-20)
(0.638618 0.601253 -1.38264e-19)
(0.602162 0.627722 -3.53491e-20)
(0.562851 0.656343 1.49359e-20)
(0.519683 0.687032 -1.49387e-19)
(0.471364 0.717901 -7.79656e-20)
(0.415285 0.741409 -2.00972e-19)
(0.346545 0.737284 6.95859e-20)
(0.253247 0.658809 -5.03034e-20)
(0.126951 0.378226 -9.23897e-20)
(0.754279 0.652779 8.4485e-20)
(0.722409 0.682456 -7.8296e-20)
(0.690049 0.713876 -6.93341e-21)
(0.655561 0.747895 -4.41002e-20)
(0.61741 0.784505 -6.68247e-20)
(0.573788 0.821598 8.4827e-20)
(0.52109 0.850829 6.88136e-20)
(0.452598 0.849717 -1.28072e-19)
(0.349599 0.765093 -2.47229e-19)
(0.181792 0.442303 5.30806e-20)
(0.844243 0.722773 2.54619e-20)
(0.814745 0.757148 2.10374e-20)
(0.78635 0.792507 7.61188e-20)
(0.756594 0.830562 4.09329e-20)
(0.723725 0.871752 1.89093e-19)
(0.685686 0.913734 -1.69582e-19)
(0.637763 0.94707 -1.26646e-19)
(0.570761 0.947261 -3.88742e-20)
(0.457932 0.855979 9.95642e-20)
(0.24345 0.495321 1.52849e-19)
(0.943105 0.77509 -5.81847e-20)
(0.918196 0.813427 3.07484e-20)
(0.896057 0.852326 2.05925e-19)
(0.872885 0.894007 -1.14835e-19)
(0.846344 0.939217 -3.53366e-19)
(0.814145 0.985597 1.90677e-19)
(0.770768 1.0227 5.81721e-19)
(0.704559 1.02409 1.58307e-19)
(0.579488 0.927699 -3.45004e-20)
(0.311458 0.535953 2.21088e-19)
(1.04508 0.821283 -2.16353e-19)
(1.02238 0.861686 -6.91276e-20)
(1.00526 0.902039 2.23267e-19)
(0.989072 0.945818 -1.11447e-19)
(0.970626 0.993715 8.08934e-20)
(0.946494 1.04268 3.83512e-19)
(0.909467 1.08102 -4.21252e-19)
(0.844893 1.08121 -3.9423e-19)
(0.707431 0.978618 3.38244e-19)
(0.382311 0.562087 -1.87877e-21)
(1.15501 0.842038 -1.67407e-20)
(1.14147 0.885154 4.18929e-20)
(1.13217 0.926438 -2.02916e-19)
(1.12215 0.971426 -7.00373e-20)
(1.10942 1.02169 4.61924e-19)
(1.09095 1.07352 1.38325e-19)
(1.05809 1.11327 -1.21352e-19)
(0.992764 1.11232 0)
(0.840392 1.00459 -2.22279e-19)
(0.454072 0.57198 -1.1435e-19)
(1.24611 0.849205 0)
(1.24097 0.893661 0)
(1.2459 0.937376 5.98995e-19)
(1.24942 0.984016 1.37019e-19)
(1.2479 1.03488 -2.15238e-19)
(1.23818 1.08655 4.06138e-19)
(1.21059 1.12466 -2.96133e-19)
(1.14423 1.12102 -8.18079e-19)
(0.975448 1.00866 4.20157e-19)
(0.524678 0.567561 2.17812e-19)
(0.995367 0.00109942 -1.65007e-20)
(1.01163 -0.0140325 -1.07552e-20)
(1.03607 0.0458189 8.39656e-21)
(1.04222 0.143311 2.92735e-21)
(1.02738 0.203482 9.66038e-21)
(0.991851 0.2348 1.96063e-20)
(0.955766 0.229537 -1.0335e-20)
(0.889385 0.232573 -1.13027e-20)
(0.818963 0.243174 -7.31027e-20)
(0.674271 0.258162 4.48467e-20)
(0.99489 -0.000143554 -4.0023e-22)
(1.0128 -0.0190421 8.46489e-21)
(1.03583 0.0414127 1.11396e-22)
(1.04063 0.145931 6.56151e-21)
(1.0262 0.210834 7.48797e-21)
(0.991089 0.245138 -3.01922e-20)
(0.957973 0.243863 -1.30841e-20)
(0.897677 0.251611 4.86067e-22)
(0.833255 0.276232 1.87146e-19)
(0.709681 0.323319 4.72451e-21)
(0.994027 -0.00155112 5.58611e-22)
(1.01412 -0.0238954 1.67918e-20)
(1.03611 0.0378801 -1.11746e-20)
(1.03997 0.14941 -7.80732e-22)
(1.0261 0.218498 -8.55781e-21)
(0.990989 0.255465 1.37999e-21)
(0.959749 0.256726 1.6625e-20)
(0.907408 0.269373 -1.63743e-20)
(0.847542 0.30619 1.07467e-19)
(0.755326 0.385052 -2.41956e-19)
(0.992899 -0.00307939 4.10907e-21)
(1.01545 -0.0286901 -8.68592e-22)
(1.03696 0.0351465 -1.26602e-20)
(1.04016 0.153762 -1.68442e-20)
(1.02682 0.226516 1.9753e-20)
(0.991428 0.26597 2.19048e-20)
(0.961617 0.268001 -2.22611e-20)
(0.918629 0.28616 8.41993e-20)
(0.862245 0.332388 -9.85254e-20)
(0.810281 0.44251 -2.64305e-19)
(0.991567 -0.00471807 3.24829e-22)
(1.01681 -0.0334986 -2.03352e-20)
(1.03845 0.0331386 5.48537e-21)
(1.04114 0.159027 2.62459e-20)
(1.02815 0.234928 7.88034e-21)
(0.992472 0.276648 4.82621e-20)
(0.96417 0.277516 2.63058e-20)
(0.931404 0.302297 7.2061e-20)
(0.877613 0.354289 -5.89009e-22)
(0.87335 0.494562 1.96944e-19)
(0.990082 -0.00645736 -1.6393e-21)
(1.01812 -0.0383906 2.50695e-22)
(1.0405 0.0317986 -3.2855e-21)
(1.04272 0.165252 7.5748e-21)
(1.03004 0.243712 -2.76462e-20)
(0.99447 0.287334 7.86276e-21)
(0.967926 0.285213 -3.64726e-21)
(0.945465 0.318022 -2.10963e-19)
(0.894111 0.37137 0)
(0.94505 0.542865 -2.53762e-20)
(0.988586 -0.00826826 9.60498e-22)
(1.01915 -0.043413 1.1465e-20)
(1.04278 0.0310456 9.25324e-22)
(1.04467 0.172417 -3.86052e-20)
(1.03262 0.252729 -1.04015e-20)
(0.997922 0.297809 -5.99732e-20)
(0.97343 0.291317 4.70229e-21)
(0.960125 0.333344 5.03139e-21)
(0.913966 0.384247 -1.99362e-21)
(1.01899 0.582544 7.52134e-19)
(0.987374 -0.0100867 -3.1306e-21)
(1.01942 -0.0484765 1.50966e-20)
(1.04465 0.0307374 8.10373e-21)
(1.04681 0.180282 1.71035e-20)
(1.03625 0.261696 -4.34379e-20)
(1.00316 0.307752 1.33944e-20)
(0.981448 0.296159 -2.93037e-21)
(0.975023 0.347967 2.60588e-20)
(0.939168 0.391556 1.34746e-19)
(1.10364 0.626359 -2.88372e-20)
(0.986841 -0.0118255 1.60585e-21)
(1.01831 -0.0532992 -8.79331e-21)
(1.04533 0.031026 -1.07633e-21)
(1.04927 0.188642 3.03918e-20)
(1.04151 0.270348 4.07495e-21)
(1.01027 0.316631 2.11632e-20)
(0.992746 0.299962 -4.75111e-20)
(0.990427 0.360535 6.51896e-20)
(0.973638 0.391064 2.72545e-19)
(1.17003 0.647978 -6.38979e-19)
(0.987329 -0.0134452 4.69093e-21)
(1.01551 -0.0576893 -2.26812e-20)
(1.04463 0.032741 3.90515e-22)
(1.05236 0.198804 -1.23654e-20)
(1.04895 0.279353 4.69592e-20)
(1.01987 0.324558 -2.87451e-20)
(1.00765 0.303352 -1.60037e-20)
(1.00972 0.371681 3.44593e-20)
(1.01545 0.40351 -1.44777e-19)
(1.27337 0.701388 3.51923e-19)
(0.989301 -0.0151305 -1.42925e-21)
(1.00938 -0.0627544 3.60425e-21)
(1.0419 0.0274293 4.58502e-22)
(1.05793 0.203825 -3.10075e-20)
(1.06561 0.284306 -3.00516e-20)
(1.0409 0.33393 -4.02738e-20)
(1.03684 0.301348 1.48326e-20)
(1.04917 0.381416 -1.41788e-19)
(1.06077 0.350648 -4.85029e-19)
(1.28431 0.691417 -1.35846e-19)
(0.993145 -0.0162206 -7.56609e-21)
(0.998879 -0.0671297 -2.50631e-22)
(1.03452 0.0107515 8.19891e-22)
(1.05903 0.198684 8.74692e-21)
(1.10351 0.280183 1.54566e-20)
(1.07957 0.342084 5.83343e-20)
(1.12731 0.289954 1.53157e-20)
(1.12952 0.382559 1.08051e-19)
(1.20529 0.312387 2.01964e-19)
(1.28491 0.592844 2.51805e-19)
(0.996774 -0.0164384 -1.70916e-21)
(0.98992 -0.0691016 -1.99655e-21)
(1.0298 -0.00663835 2.02215e-21)
(1.04521 0.18566 4.29368e-21)
(1.18346 0.267239 5.17662e-35)
(1.11212 0.337692 -7.35409e-21)
(1.30942 0.27072 -4.50494e-34)
(1.21872 0.368626 1.65468e-20)
(1.44175 0.291338 -4.21325e-20)
(1.34434 0.511564 -2.05463e-19)
(0.999279 -0.0159778 1.68807e-20)
(0.986022 -0.0693307 -1.9042e-35)
(1.02707 -0.0208821 -2.23123e-21)
(1.0176 0.153476 -2.04818e-21)
(1.28943 0.243705 -1.49484e-20)
(1.13311 0.312118 4.53718e-21)
(1.50993 0.23795 -5.29759e-34)
(1.32044 0.345401 -3.96869e-20)
(1.64726 0.268448 -9.52267e-20)
(1.50528 0.440521 2.28815e-19)
(1.00061 -0.0156527 0)
(0.989134 -0.0689681 -7.89188e-35)
(1.0235 -0.0296411 0)
(1.00613 0.0989797 0)
(1.35034 0.211179 0)
(1.1835 0.267898 0)
(1.61378 0.192071 -3.25316e-34)
(1.43953 0.316957 0)
(1.75525 0.234106 -1.63412e-20)
(1.69443 0.373579 1.37334e-19)
(1.00023 -0.0172449 2.34889e-21)
(1.00205 -0.0682406 -8.01841e-21)
(1.02569 -0.0385489 -3.16711e-21)
(1.02355 0.0380399 0)
(1.34561 0.171162 0)
(1.26385 0.214139 6.07528e-21)
(1.62116 0.144525 2.78588e-20)
(1.55339 0.279987 -1.18705e-20)
(1.79644 0.195454 -2.49237e-20)
(1.83238 0.308009 9.78179e-20)
(0.997275 -0.0226503 -6.82238e-20)
(1.0253 -0.0673884 7.84825e-21)
(1.03252 -0.0500695 -4.62862e-21)
(1.05346 -0.0176909 -2.36045e-20)
(1.28227 0.120469 -2.36913e-20)
(1.32539 0.15367 6.80399e-21)
(1.56111 0.0975976 -2.756e-20)
(1.61242 0.23265 -1.77673e-20)
(1.7824 0.155528 -3.09572e-20)
(1.89891 0.242861 1.0285e-19)
(0.991706 -0.0298115 -4.61499e-21)
(1.04166 -0.0666347 -1.05386e-20)
(1.0267 -0.0591393 -5.55014e-21)
(1.05872 -0.0452463 -4.72105e-21)
(1.14683 0.0725183 -7.54859e-35)
(1.33216 0.0938815 6.28486e-21)
(1.40598 0.0554429 -8.77102e-34)
(1.57929 0.180276 -1.07315e-20)
(1.68373 0.113122 1.63361e-20)
(1.88719 0.175755 2.26676e-20)
(0.971337 -0.0494512 1.3186e-19)
(1.04126 -0.0669281 -2.00095e-21)
(0.966994 -0.0670696 -6.12398e-21)
(0.963268 -0.0510992 8.32425e-21)
(0.916782 0.0233782 1.02329e-20)
(1.18321 0.0335686 6.47147e-21)
(1.07445 0.0303981 1.37154e-20)
(1.37856 0.101827 -2.56458e-20)
(1.41645 0.0590235 -2.97348e-20)
(1.7012 0.0924318 7.89615e-20)
(0.871352 -0.0322521 6.21665e-21)
(0.854969 -0.0494155 -4.88206e-35)
(0.626749 -0.0490151 -6.56664e-21)
(0.514378 -0.0228246 0)
(0.456608 0.00276777 0)
(0.597346 0.00897078 6.47684e-21)
(0.520701 0.0144304 -6.44289e-36)
(0.771731 0.0305641 -9.74916e-21)
(0.800493 0.0165356 -2.4718e-20)
(1.02105 0.0314437 -3.79554e-20)
(1.47053 0.713171 1.49075e-19)
(1.56751 0.696819 -4.70698e-20)
(1.67906 0.671538 -3.16303e-21)
(1.78947 0.635462 5.21815e-20)
(1.89239 0.59208 -2.14163e-19)