/*--------------------------------*- C++ -*----------------------------------*\
| =========                 |                                                 |
| \\      /  F ield         | OpenFOAM: The Open Source CFD Toolbox           |
|  \\    /   O peration     | Version:  2406                                  |
|   \\  /    A nd           | Website:  www.openfoam.com                      |
|    \\/     M anipulation  |                                                 |
\*---------------------------------------------------------------------------*/
FoamFile
{
    version     2.0;
    format      ascii;
    arch        "LSB;label=32;scalar=64";
    class       volScalarField;
    location    "1.4";
    object      nu;
}
// * * * * * * * * * * * * * * * * * * * * * * * * * * * * * * * * * * * * * //

dimensions      [0 2 -1 0 0 0 0];

internalField   nonuniform List<scalar> 
1800
(
0.0257653
0.0325539
0.0605362
0.0289699
0.0145879
0.0113053
0.00993499
0.00916246
0.00894645
0.00864093
0.0269476
0.038452
0.0419445
0.0184038
0.0119829
0.0099724
0.009058
0.00849022
0.00849715
0.00778662
0.0262872
0.0553119
0.0168465
0.0110449
0.00926609
0.00851585
0.00815443
0.0079032
0.00807088
0.00765685
0.0308115
0.0165444
0.0105022
0.00870842
0.00802419
0.00774056
0.00766441
0.00767613
0.0079534
0.00790009
0.0265896
0.0109159
0.00848444
0.00769888
0.00742122
0.00739611
0.00753423
0.00778703
0.00825291
0.00851994
0.0135936
0.0086892
0.00752226
0.00717562
0.00716615
0.00737613
0.00776946
0.00834592
0.0091514
0.0100266
0.00966528
0.00757795
0.00699879
0.00694627
0.00719648
0.00770736
0.00849803
0.00960299
0.0110966
0.0126587
0.00796305
0.0069538
0.00673652
0.0069581
0.00753235
0.00849971
0.00993792
0.0118834
0.0142954
0.016977
0.00705995
0.00660084
0.00667115
0.00719812
0.00821794
0.00987378
0.0122706
0.0155034
0.0199847
0.027522
0.00653065
0.0064197
0.00675778
0.00764775
0.00930692
0.0121657
0.0169831
0.0259535
0.0492098
0.113343
0.00771643
0.00903348
0.0112686
0.0139023
0.0157081
0.0167298
0.0176026
0.018441
0.0187723
0.0184942
0.00762165
0.00879055
0.0109875
0.0141224
0.0168973
0.0184627
0.0193004
0.0198739
0.0200693
0.0198955
0.00765268
0.00859289
0.0105207
0.0137356
0.0178014
0.0216024
0.0246064
0.0268543
0.0278091
0.026195
0.00784306
0.00845965
0.00992477
0.0125463
0.0164449
0.0213647
0.0268912
0.032538
0.0367602
0.03512
0.0083113
0.00844982
0.00936204
0.0110921
0.0134543
0.0159927
0.0182582
0.0200102
0.0211102
0.0225239
0.00935748
0.00867114
0.0090212
0.0100478
0.0113962
0.0127371
0.0138556
0.0146551
0.0150737
0.0157535
0.0120857
0.00932676
0.0090358
0.00954676
0.0102912
0.0110168
0.0116163
0.0120466
0.012249
0.0125862
0.0215157
0.0110361
0.00963207
0.00963637
0.00995543
0.0102741
0.0105128
0.0106565
0.0106885
0.010791
0.0232787
0.0169329
0.0118376
0.0106161
0.0104147
0.0102986
0.010148
0.00997081
0.00978566
0.00974196
0.0232549
0.0916052
0.0235946
0.0144658
0.0122127
0.0109859
0.0101714
0.00959619
0.00925284
0.00944537
0.0190019
0.0151151
0.0139254
0.0143948
0.0146601
0.0157666
0.0172858
0.0198894
0.0214868
0.027188
0.0222164
0.0165746
0.0152889
0.0148374
0.0144039
0.0150663
0.0163208
0.0187446
0.0203277
0.0256024
0.0269852
0.0248548
0.0175735
0.0144882
0.0134489
0.0137781
0.0148605
0.0171171
0.0187501
0.0234791
0.0265399
0.0978438
0.0182492
0.013212
0.0122696
0.0123461
0.0131321
0.0150491
0.0167143
0.0208865
0.0198122
0.0283538
0.0151505
0.0123087
0.0115608
0.0114661
0.0118366
0.0131875
0.0146015
0.0181468
0.0157346
0.0166918
0.0135193
0.0117523
0.0111744
0.0111345
0.0112176
0.0120114
0.0129561
0.0157514
0.0132684
0.0133956
0.0127114
0.0111429
0.0107213
0.0109523
0.0110909
0.0115296
0.0120072
0.0140506
0.0116438
0.0118622
0.011826
0.0105492
0.0102044
0.0106166
0.0111059
0.0115366
0.0117112
0.0131255
0.0104746
0.0116105
0.0113773
0.0102019
0.00994939
0.0102568
0.0110067
0.0117467
0.0119314
0.012911
0.00969386
0.0104614
0.0104149
0.00993625
0.0100157
0.0101549
0.0108802
0.0119545
0.0125008
0.0133267
0.0094083
0.00986077
0.0100505
0.0102044
0.0104801
0.0104823
0.0109606
0.0121798
0.0133803
0.0146088
0.00885294
0.00922107
0.00956012
0.0107873
0.0114908
0.011535
0.0118171
0.0130345
0.0148657
0.0174387
0.00905589
0.00948625
0.0109847
0.0133887
0.0125053
0.0123642
0.0131047
0.0147784
0.0171908
0.0229033
0.010277
0.0110386
0.0148944
0.0171881
0.0130708
0.012283
0.0131217
0.0155584
0.0188255
0.0286619
0.0122936
0.0139449
0.0217348
0.0212144
0.0136076
0.012734
0.0133878
0.0154841
0.0181492
0.0248054
0.0158238
0.0158343
0.0218499
0.0154014
0.0117249
0.0113671
0.0120954
0.0136187
0.0152643
0.0180922
0.0181218
0.0148427
0.0126725
0.0100151
0.00934384
0.00959483
0.0103109
0.0113128
0.012213
0.0134282
0.011826
0.0102854
0.00860482
0.00792383
0.00801426
0.00851579
0.00916411
0.00982791
0.010305
0.0108271
0.00804721
0.00750845
0.00725126
0.00743767
0.00793643
0.00850483
0.00893389
0.00924679
0.00938821
0.00953784
0.00678126
0.00696666
0.00747739
0.00859969
0.0102881
0.0113583
0.0109604
0.010248
0.00965828
0.00935032
0.0283264
0.23023
0.0272673
0.0172139
0.0132011
0.0106324
0.00904851
0.00854519
0.00801667
0.00846777
0.0198954
0.0261396
0.0278959
0.027091
0.0171482
0.0160564
0.0116363
0.0106306
0.00906321
0.00848181
0.018388
0.0193276
0.0202964
0.0201183
0.0189854
0.0165587
0.0156393
0.0126192
0.0121833
0.00995675
0.0181192
0.017838
0.0195634
0.0176892
0.0199041
0.0159705
0.0182137
0.0141994
0.0154654
0.0123469
0.0186257
0.0185181
0.0202743
0.0192105
0.0211043
0.018325
0.0196088
0.0168106
0.0173252
0.0152146
0.0170235
0.0178257
0.0182159
0.0197104
0.0197629
0.0217578
0.0208233
0.0215131
0.0204687
0.019333
0.0140444
0.0146684
0.0145196
0.0155272
0.0153662
0.0170608
0.0166588
0.0192034
0.0182197
0.0213116
0.0108164
0.0111542
0.0108767
0.011303
0.0110756
0.0116085
0.0113937
0.0120468
0.0117961
0.0125422
0.00822947
0.00821022
0.00814349
0.00816562
0.00811803
0.00817027
0.00813998
0.00821061
0.00819
0.00826916
0.0064656
0.00644045
0.00645864
0.00644917
0.00649083
0.00649248
0.00655707
0.00656324
0.00665239
0.00665907
0.0101909
0.0105926
0.0104369
0.0102852
0.0102479
0.0105073
0.011282
0.0100131
0.00703653
0.00580056
0.0105478
0.0106254
0.0104541
0.0102633
0.0102275
0.0105902
0.0115683
0.0098609
0.0069256
0.00576439
0.0108692
0.0108715
0.0106916
0.0104984
0.0104786
0.0109597
0.0120873
0.00960347
0.00681616
0.00573813
0.0112439
0.0112883
0.0111263
0.0109283
0.0109514
0.0116689
0.0129575
0.00927863
0.00670928
0.00572374
0.0117218
0.0118089
0.011639
0.0114642
0.011668
0.0129344
0.0139888
0.00889192
0.00661019
0.00572578
0.012197
0.0124079
0.0124708
0.0125209
0.0131052
0.0156164
0.0138158
0.00845486
0.00651809
0.00574712
0.013064
0.0135136
0.0134237
0.0134935
0.0159482
0.0229324
0.0126162
0.00802304
0.00643736
0.00579428
0.0141951
0.0143572
0.0150252
0.0181828
0.0263296
0.0210315
0.0108166
0.00760826
0.00637415
0.00587508
0.0155911
0.018165
0.0295489
0.255976
0.0461452
0.0151012
0.0093196
0.00723766
0.0063374
0.00600379
0.0243947
0.048775
0.109733
0.0414318
0.0180442
0.0111527
0.00831532
0.00695413
0.00634559
0.00620695
0.0119364
0.011518
0.0111481
0.0108199
0.0105171
0.0102505
0.0100155
0.00974366
0.00928904
0.00790291
0.011765
0.0113861
0.0110471
0.0107347
0.0104458
0.0101997
0.00999957
0.0097066
0.00889009
0.00726364
0.0116287
0.011281
0.0109606
0.0106524
0.0103668
0.0101327
0.00996714
0.00966468
0.00854092
0.00685036
0.0115246
0.0112322
0.0109429
0.0106358
0.0103457
0.010118
0.00998377
0.00965856
0.00824624
0.00656379
0.0113887
0.0111605
0.0109202
0.0106329
0.0103518
0.0101409
0.0100512
0.00969456
0.0079919
0.00635174
0.0112483
0.0110596
0.0108543
0.0105836
0.0103315
0.0101806
0.0101931
0.00980755
0.00778569
0.00619689
0.0112555
0.0111193
0.0109196
0.0106136
0.0103302
0.0101898
0.0102789
0.00984865
0.00759713
0.00607605
0.0112656
0.0111536
0.0109948
0.0107049
0.0104432
0.0103497
0.0105278
0.00993675
0.00743119
0.0059813
0.0115008
0.0113522
0.0110879
0.0107
0.0104129
0.0103815
0.0107107
0.00999163
0.00728611
0.00590652
0.0113821
0.0111409
0.0109801
0.0107158
0.0104928
0.0105437
0.0110362
0.0100352
0.00715415
0.00584689
0.11582
0.0363218
0.0333677
0.044188
0.0432311
0.0413852
0.034205
0.0281359
0.0199232
0.0138326
0.108666
0.0354843
0.0317141
0.0419778
0.0437928
0.0430432
0.0372985
0.0289439
0.0204372
0.0136248
0.0977757
0.0346162
0.0302917
0.0401551
0.0439358
0.0442022
0.0416054
0.0295217
0.0211318
0.013463
0.0869402
0.0336661
0.0290052
0.0386605
0.0438441
0.0453089
0.0475441
0.0298166
0.0218579
0.0132669
0.077445
0.0326064
0.0278642
0.0374422
0.0437705
0.0466692
0.0546906
0.0298864
0.0223698
0.0130013
0.0696841
0.0315649
0.0269568
0.0364451
0.0438962
0.0479644
0.059257
0.0300219
0.0217957
0.0128421
0.0639861
0.0308256
0.0263222
0.0356129
0.0439664
0.0485858
0.0556746
0.0300868
0.0203877
0.0126049
0.0606833
0.0307471
0.0258669
0.0347626
0.04324
0.0485589
0.0457177
0.0296539
0.0180249
0.0126671
0.0602541
0.0317539
0.0254589
0.0334805
0.0408218
0.0463671
0.0351668
0.0275482
0.0169608
0.0122439
0.0638197
0.0332494
0.0250161
0.0321263
0.0354957
0.0362795
0.0261972
0.0225139
0.0147862
0.0138125
0.0719784
0.036221
0.0246317
0.0295892
0.0263923
0.0270383
0.0177707
0.018663
0.0133497
0.0139511
0.0654399
0.0386106
0.0230856
0.0259795
0.0188276
0.023252
0.0136085
0.0178353
0.0118945
0.0130371
0.0556937
0.0395275
0.0218269
0.0209594
0.0166234
0.0213252
0.0127942
0.0181254
0.0117843
0.0127673
0.0489437
0.0393839
0.0213464
0.0171303
0.0182795
0.0183486
0.014889
0.0168955
0.0137415
0.0127636
0.0483985
0.0390077
0.0210397
0.0156154
0.0222861
0.017175
0.0213649
0.0160982
0.0176031
0.0137148
0.0534639
0.0356716
0.0210734
0.0156768
0.0204041
0.0179787
0.0224145
0.017755
0.020487
0.0150823
0.0544679
0.0348741
0.0237153
0.0175402
0.0165652
0.0197315
0.016556
0.0215744
0.0181863
0.0165645
0.0394058
0.0493584
0.027514
0.0192275
0.0133526
0.0156378
0.0121714
0.0149629
0.0131124
0.0146135
0.0233913
0.0196472
0.0132665
0.0116892
0.0106005
0.0102274
0.00995743
0.00996827
0.00975483
0.00976001
0.00793677
0.00787341
0.00839965
0.00854173
0.00851695
0.00806144
0.00827621
0.00755389
0.00757355
0.00719065
0.0112122
0.0111606
0.011158
0.0114399
0.0118743
0.0123901
0.0129938
0.0141594
0.0151165
0.0178346
0.011808
0.0117437
0.0118678
0.0123068
0.0128323
0.0135657
0.0141637
0.0151904
0.0162816
0.0176584
0.0125814
0.0126515
0.0129606
0.0135562
0.0140981
0.0148483
0.0153126
0.0161537
0.0167436
0.0179509
0.013487
0.0136153
0.0139602
0.0143778
0.0147984
0.0152066
0.0156147
0.0160552
0.0166845
0.0171694
0.0144924
0.0145111
0.0147997
0.0150095
0.0153886
0.0155689
0.0160451
0.0162827
0.0170823
0.0173517
0.0154492
0.0153481
0.015547
0.0156451
0.015857
0.0158565
0.0159803
0.0160987
0.0162919
0.0166862
0.0160835
0.0156508
0.0153473
0.015084
0.0147765
0.0145707
0.014199
0.0142472
0.0139216
0.0142774
0.0133202
0.0127977
0.0122988
0.0120009
0.0116619
0.0115198
0.01122
0.0112326
0.0109278
0.0111148
0.00953473
0.00932893
0.00914014
0.00897815
0.0088359
0.00870689
0.0085843
0.00847827
0.00837675
0.00831043
0.00707305
0.00697149
0.0068798
0.006791
0.00671773
0.00664481
0.00659381
0.00653795
0.00651087
0.00647065
0.00589713
0.0066938
0.00852797
0.0141304
0.0559641
0.0204325
0.0137922
0.0114992
0.00981517
0.00828225
0.0059757
0.00662872
0.00809895
0.0121651
0.0314451
0.027215
0.0157547
0.0118425
0.00978671
0.00823704
0.00609886
0.00660074
0.00773385
0.0104492
0.0172996
0.0218457
0.0167152
0.0125062
0.0100573
0.00840468
0.00627957
0.0066194
0.00745466
0.00929959
0.0130147
0.0169277
0.0163056
0.0132703
0.0106376
0.00876408
0.00653636
0.00669686
0.00727267
0.0085521
0.0109258
0.0139632
0.0151825
0.0138137
0.0114576
0.00935235
0.00689655
0.00684821
0.00718895
0.00807312
0.0096946
0.0120303
0.0139434
0.0140455
0.0124916
0.0101264
0.00740349
0.00709938
0.00720879
0.00777677
0.00889098
0.0106465
0.0126502
0.0137374
0.0134452
0.0113098
0.00811749
0.00749089
0.0073593
0.00764559
0.00835665
0.00958426
0.0113275
0.0130361
0.0139523
0.0123836
0.00911609
0.00807108
0.00768529
0.00771466
0.00809329
0.00884684
0.010011
0.0114641
0.0130975
0.0124309
0.0104932
0.00887927
0.00823674
0.00803764
0.0081539
0.00856875
0.00928797
0.0102694
0.0116133
0.0124781
0.0123237
0.00991748
0.00905631
0.00867217
0.00856908
0.00871882
0.00910872
0.00971348
0.0103307
0.0115949
0.0142963
0.0110544
0.0101547
0.00972589
0.00945944
0.00936948
0.00949102
0.00980312
0.0099756
0.0108492
0.0148588
0.011726
0.0112189
0.0111877
0.0110228
0.0107087
0.0105054
0.0104959
0.0103261
0.0107517
0.0134969
0.0116205
0.0117118
0.0124869
0.013246
0.0131772
0.012483
0.0119302
0.0113532
0.0113341
0.0118608
0.0112368
0.0118338
0.0132459
0.0155228
0.0179179
0.0173236
0.0153822
0.0136794
0.0127428
0.0104782
0.0107592
0.0117935
0.0136025
0.016649
0.0230148
0.0328811
0.0264035
0.0184408
0.0150124
0.00941425
0.0102878
0.0116896
0.013844
0.0172122
0.0249119
0.0557871
0.0924214
0.0256238
0.0176447
0.00870284
0.00992383
0.0116665
0.0140248
0.0170937
0.0215419
0.0282379
0.0332885
0.0258323
0.019124
0.00823703
0.00961628
0.0116325
0.0139529
0.0159628
0.0176893
0.0195669
0.0212733
0.0207493
0.0184367
0.00792288
0.00931976
0.0114956
0.0138333
0.0153955
0.0164465
0.0175389
0.0186051
0.0188297
0.0180663
0.0111589
0.012097
0.0147447
0.0234199
0.063778
0.0327079
0.0259398
0.0256362
0.0254932
0.0313566
0.0109923
0.0121135
0.0149926
0.0218697
0.0337026
0.0290362
0.0253084
0.0255399
0.0259022
0.0334558
0.0111471
0.0121779
0.0150786
0.0198766
0.026262
0.0263577
0.0246399
0.0252456
0.0258103
0.0335564
0.0115926
0.0124067
0.0152438
0.0187245
0.0229854
0.0240714
0.0237408
0.0247657
0.0254238
0.0327757
0.0121125
0.0129197
0.0153227
0.0179058
0.0208006
0.0222271
0.0227736
0.0242027
0.0249111
0.031742
0.0127787
0.0136876
0.0150913
0.0170391
0.0190733
0.0207016
0.0218403
0.0236464
0.0244244
0.0308181
0.0137184
0.014454
0.014633
0.0160985
0.0176081
0.0193515
0.0209139
0.0230782
0.0240005
0.0301266
0.014685
0.0148791
0.0141299
0.0152161
0.0163839
0.018141
0.0199608
0.0224333
0.0235742
0.0295941
0.0156563
0.0149317
0.0137117
0.0145448
0.0154484
0.0171151
0.0190065
0.0216789
0.0230534
0.0290473
0.0170086
0.0148773
0.0135441
0.0142285
0.0148749
0.0163346
0.0181119
0.0208281
0.0223717
0.0282979
0.0104416
0.014664
0.019144
0.0284053
0.0327071
0.024572
0.0182583
0.0147641
0.0132285
0.012227
0.00923703
0.0111873
0.0136841
0.0164279
0.0171218
0.0156535
0.014251
0.0132915
0.0127707
0.0122634
0.00944534
0.0110908
0.0138133
0.0168205
0.0179228
0.0173983
0.0163196
0.0155338
0.0150416
0.014495
0.0102709
0.0114666
0.014657
0.0217233
0.029914
0.0250649
0.0213042
0.0201869
0.0193951
0.0192567
0.0117467
0.012281
0.0149585
0.0246268
0.180917
0.0313887
0.0246958
0.0240086
0.0234381
0.0259041
0.00593227
0.00603353
0.00618148
0.00638716
0.00663115
0.00694719
0.00730921
0.00769877
0.00828441
0.00859263
0.00616344
0.00624504
0.00637901
0.00656473
0.00677613
0.00703701
0.00732188
0.00758358
0.0080288
0.00818963
0.00646866
0.00652745
0.00665594
0.00683629
0.00704845
0.00730628
0.00754703
0.0078739
0.00820866
0.0085913
0.00687802
0.00691062
0.00704851
0.00725127
0.00752764
0.00785641
0.00816432
0.0088157
0.0090341
0.0102708
0.00740752
0.00740916
0.00756925
0.00783398
0.00824305
0.00871628
0.00936459
0.0104263
0.0107567
0.013381
0.0128983
0.0126681
0.012441
0.012018
0.0115986
0.0113167
0.0111945
0.0105996
0.00840264
0.00653792
0.0131696
0.0128748
0.0124216
0.011866
0.0114195
0.0111455
0.0110304
0.0105915
0.00868702
0.00672786
0.0127101
0.0124714
0.0121813
0.0118034
0.0114605
0.0112064
0.0110452
0.0106412
0.00901463
0.00696713
0.0127932
0.0125313
0.0122024
0.0118
0.0114123
0.0110891
0.0108474
0.010514
0.00935474
0.0072901
0.0127532
0.0124044
0.0120242
0.0116206
0.0112438
0.0109268
0.0106868
0.0104639
0.00979843
0.00777623
0.012687
0.0122748
0.0118639
0.0114646
0.0110932
0.0107713
0.010523
0.0103921
0.0102765
0.00855183
0.0125649
0.012106
0.0116735
0.0112748
0.0109012
0.0105678
0.0103066
0.0102545
0.0107459
0.0100963
0.0124073
0.0119282
0.0114919
0.011101
0.0107316
0.0103946
0.0101166
0.0100527
0.0108824
0.013438
0.0122441
0.0117727
0.0113534
0.0109854
0.0106413
0.0103272
0.0100515
0.00990644
0.0103989
0.011881
0.0120898
0.0116433
0.0112499
0.0109057
0.0105878
0.010303
0.0100463
0.0098214
0.00979153
0.00909655
0.00856347
0.0100576
0.011438
0.0126213
0.0143312
0.0180783
0.0142413
0.00896667
0.00678523
0.00585299
0.00910185
0.0103677
0.0112905
0.0119812
0.0126638
0.0137223
0.0138075
0.00939157
0.00689261
0.00583618
0.00975192
0.0105895
0.0110531
0.0113434
0.0116667
0.0122466
0.0125597
0.0096714
0.00701538
0.00584432
0.0102041
0.0106373
0.0108601
0.0109857
0.0111024
0.0114
0.0117966
0.0098974
0.00714881
0.00587152
0.0104351
0.0106684
0.0107664
0.0107961
0.0108277
0.0110121
0.0113583
0.0100298
0.00728439
0.00591668
0.0106572
0.0108165
0.0108357
0.0107794
0.0107241
0.0108168
0.0111162
0.0101497
0.0074318
0.00597734
0.0109983
0.0110989
0.0110146
0.0108613
0.0107376
0.0107719
0.011021
0.0102488
0.00758779
0.00605294
0.011446
0.0114208
0.0111962
0.0109563
0.0107903
0.0107898
0.0109954
0.0103468
0.00775868
0.00614465
0.0117635
0.0115593
0.0112656
0.0110268
0.0108758
0.0108714
0.0110401
0.01046
0.00795105
0.0062546
0.0115283
0.0116317
0.0114613
0.0112675
0.0111183
0.011073
0.0111531
0.0105705
0.00816711
0.00638453
0.0363189
0.0405056
0.0755779
0.0316587
0.025858
0.025869
0.0291714
0.0413468
0.0272345
0.0187674
0.040495
0.0397169
0.132814
0.0370491
0.0275158
0.0261175
0.0278822
0.0297607
0.0260126
0.0158441
0.0456867
0.0398344
0.119523
0.0416856
0.0289724
0.026674
0.0278677
0.0267501
0.0248975
0.01488
0.0521394
0.0396268
0.0832388
0.0456079
0.0302141
0.0272387
0.0276511
0.0249563
0.0230675
0.0148529
0.0598605
0.0392062
0.0637614
0.0492028
0.0316426
0.0281193
0.0275677
0.024268
0.021657
0.0149229
0.0688416
0.0387972
0.0531317
0.0520795
0.0335068
0.0295127
0.0278093
0.0243477
0.020746
0.0149033
0.0793143
0.0384713
0.0463291
0.0532251
0.0357615
0.031429
0.028343
0.0248316
0.0201246
0.0147618
0.0914908
0.0381541
0.0415528
0.0521728
0.0381615
0.0337935
0.0291591
0.0255286
0.0197312
0.014532
0.10441
0.0377192
0.0380494
0.0496774
0.0403744
0.0364484
0.0303254
0.0263474
0.019566
0.0142779
0.11429
0.0370963
0.0354113
0.0468113
0.0421079
0.0391045
0.0319566
0.027237
0.0196268
0.0140403
0.00724559
0.00743033
0.00836301
0.00896386
0.00958286
0.00973092
0.00988859
0.00950802
0.00948046
0.00796128
0.0149991
0.0106761
0.0097809
0.0100921
0.0105329
0.0109259
0.0114128
0.0116296
0.0118023
0.0116429
0.024972
0.0221182
0.0128606
0.0122913
0.0124142
0.0130516
0.0139239
0.0157792
0.0161065
0.0149418
0.029729
0.057565
0.0198822
0.0164881
0.0158996
0.0168558
0.0185036
0.0261771
0.0295914
0.0156234
0.0329398
0.0436339
0.0361315
0.0230562
0.0206501
0.0215285
0.0244204
0.0455505
0.0388556
0.0176502
0.00746614
0.00713147
0.00680965
0.00652714
0.00629642
0.00611638
0.00598564
0.00590356
0.00586787
0.00587747
0.0105761
0.00969265
0.00886071
0.00814657
0.00752068
0.00700098
0.0066116
0.00635149
0.00620264
0.00614574
0.0125715
0.0115705
0.0106414
0.00985783
0.0090731
0.00826405
0.007538
0.00700041
0.00666779
0.00650431
0.012734
0.0118526
0.0111899
0.0107067
0.0101964
0.00951927
0.00865879
0.00784596
0.00728465
0.0069827
0.0128416
0.0119514
0.0112465
0.0107641
0.0103826
0.0100159
0.0094954
0.00875678
0.00805514
0.00760206
)
;

boundaryField
{
    left
    {
        type            calculated;
        value           nonuniform List<scalar> 
35
(
0.029684
0.0296009
0.0299247
0.0313859
0.0342366
0.037345
0.037377
0.0313283
0.0200229
0.00790312
0.0471182
0.0446181
0.042025
0.0394241
0.0368992
0.0345436
0.0324826
0.0308582
0.0298098
0.02944
0.0356156
0.03992
0.0445716
0.0488868
0.0520417
0.0536666
0.0539306
0.0531293
0.0515377
0.0494578
0.00720947
0.0137295
0.0221218
0.0275095
0.0318272
)
;
    }
    right
    {
        type            calculated;
        value           nonuniform List<scalar> 
35
(
0.0122313
0.0122808
0.0145813
0.019698
0.0277739
0.0359965
0.0403153
0.0415296
0.0411985
0.0403607
0.039694
0.039479
0.039616
0.0397516
0.0394183
0.0381441
0.0355173
0.0313515
0.0261685
0.0212201
0.0174702
0.0150969
0.0138837
0.0135904
0.0140736
0.0156588
0.0192449
0.0275165
0.0357007
0.0268614
0.0185201
0.0135945
0.0109025
0.00956697
0.00935786
)
;
    }
    down
    {
        type            calculated;
        value           nonuniform List<scalar> 
40
(
0.00638001
0.00676364
0.00794788
0.00860919
0.00928266
0.00931825
0.00934582
0.00884776
0.00871217
0.00713206
0.00674404
0.00650721
0.00628046
0.00608826
0.00594448
0.00584415
0.00577914
0.00574531
0.00574159
0.00577051
0.0058379
0.00594798
0.00610448
0.00632274
0.00658743
0.00693844
0.00734543
0.0078362
0.0085372
0.00906424
0.0124848
0.0268194
0.0476263
0.116323
0.0544497
0.0782973
0.0383429
0.018705
0.0147788
0.0129323
)
;
    }
    up
    {
        type            calculated;
        value           nonuniform List<scalar> 
40
(
0.00646476
0.00705041
0.0085181
0.01217
0.0306033
0.0843348
0.0188932
0.0123836
0.0103564
0.0095711
0.00601528
0.00600175
0.00602671
0.0060232
0.00607292
0.00607557
0.00615104
0.00615449
0.00625886
0.00625996
0.00648096
0.00639821
0.0063219
0.00625086
0.00619019
0.00613506
0.00609501
0.0060571
0.00603817
0.00601351
0.00678427
0.00681924
0.00749106
0.0078239
0.00788044
0.00750669
0.00767194
0.00693998
0.00695903
0.00658824
)
;
    }
    cylinder
    {
        type            calculated;
        value           nonuniform List<scalar> 
80
(
0.0073312
0.00728956
0.00740209
0.00773108
0.00849284
0.010397
0.0179258
0.0260512
0.0160193
0.0159306
0.0228672
0.0211624
0.0174514
0.0191267
0.0352903
0.0339654
0.0138191
0.00935101
0.00764688
0.00677244
0.00551414
0.00549195
0.00548019
0.0054815
0.00550154
0.00554597
0.0056248
0.00575134
0.00594976
0.00626368
0.0072953
0.00671442
0.00635611
0.00611423
0.00593932
0.00581428
0.0057184
0.00564486
0.00558849
0.00554545
0.00608277
0.00623332
0.00642365
0.00668424
0.00708136
0.00773667
0.00912674
0.0130478
0.0119408
0.0084784
0.00560916
0.00557044
0.00555898
0.00556815
0.00559665
0.00564019
0.00569773
0.00576964
0.00585701
0.00596058
0.00568075
0.00579524
0.00596691
0.00621401
0.00656249
0.00705242
0.00775011
0.008756
0.0102246
0.0124483
0.016099
0.0217874
0.0227591
0.0168519
0.0129093
0.0105826
0.00913318
0.00829235
0.00780084
0.00750192
)
;
    }
    defaultFaces
    {
        type            empty;
    }
}


// ************************************************************************* //
