/*--------------------------------*- C++ -*----------------------------------*\
| =========                 |                                                 |
| \\      /  F ield         | OpenFOAM: The Open Source CFD Toolbox           |
|  \\    /   O peration     | Version:  2406                                  |
|   \\  /    A nd           | Website:  www.openfoam.com                      |
|    \\/     M anipulation  |                                                 |
\*---------------------------------------------------------------------------*/
FoamFile
{
    version     2.0;
    format      ascii;
    arch        "LSB;label=32;scalar=64";
    class       volScalarField;
    location    "1.4";
    object      p;
}
// * * * * * * * * * * * * * * * * * * * * * * * * * * * * * * * * * * * * * //

dimensions      [0 2 -2 0 0 0 0];

internalField   nonuniform List<scalar> 
1800
(
-0.729852
-0.733123
-0.726689
-0.715218
-0.705202
-0.692887
-0.67709
-0.661375
-0.6485
-0.646332
-0.740822
-0.74515
-0.739065
-0.728738
-0.720731
-0.709295
-0.695534
-0.680995
-0.666027
-0.670618
-0.773665
-0.773093
-0.76805
-0.760525
-0.75088
-0.739051
-0.725597
-0.71167
-0.696286
-0.696984
-0.812503
-0.807159
-0.797925
-0.789188
-0.778723
-0.765855
-0.751016
-0.735345
-0.719209
-0.709523
-0.850246
-0.843849
-0.835739
-0.825091
-0.81182
-0.795845
-0.777776
-0.758764
-0.739993
-0.724016
-0.905985
-0.892031
-0.88202
-0.868541
-0.850767
-0.829225
-0.805213
-0.780093
-0.755017
-0.730998
-0.965895
-0.948183
-0.935495
-0.9173
-0.892478
-0.862825
-0.830697
-0.797802
-0.765265
-0.734295
-1.0309
-1.00957
-0.992485
-0.966406
-0.931284
-0.891075
-0.849085
-0.807148
-0.766284
-0.726667
-1.09738
-1.07129
-1.04666
-1.00885
-0.960642
-0.90857
-0.856739
-0.807077
-0.760035
-0.711377
-1.15615
-1.12488
-1.08844
-1.03549
-0.972691
-0.908112
-0.84543
-0.784367
-0.723373
-0.66556
-1.07012
-1.07311
-1.07329
-1.07317
-1.07296
-1.073
-1.07365
-1.07477
-1.07647
-1.0798
-1.07345
-1.07349
-1.07321
-1.07376
-1.075
-1.07706
-1.08038
-1.08511
-1.09143
-1.10011
-1.06778
-1.06444
-1.06365
-1.06482
-1.06783
-1.07249
-1.07884
-1.08693
-1.09688
-1.10952
-1.04937
-1.04218
-1.04073
-1.04231
-1.0467
-1.05385
-1.06352
-1.07551
-1.0897
-1.1063
-1.01649
-1.0051
-1.00246
-1.00332
-1.00755
-1.01554
-1.02719
-1.04215
-1.05985
-1.07959
-0.970909
-0.955905
-0.95149
-0.950109
-0.951925
-0.957766
-0.967649
-0.981278
-0.998156
-1.01745
-0.917668
-0.901083
-0.894441
-0.889425
-0.886756
-0.887745
-0.892685
-0.90146
-0.913788
-0.929077
-0.855198
-0.845643
-0.837595
-0.829117
-0.821369
-0.815829
-0.813256
-0.813963
-0.818151
-0.826556
-0.811105
-0.80172
-0.788988
-0.777775
-0.765974
-0.753846
-0.742856
-0.734073
-0.728582
-0.729502
-0.760034
-0.760926
-0.752136
-0.741885
-0.728315
-0.711758
-0.694552
-0.678763
-0.666404
-0.660684
-1.105
-1.17863
-1.11521
-0.912443
-0.627948
-0.383232
-0.206628
-0.0986663
-0.0357944
-0.00447068
-1.1558
-1.29583
-1.24135
-1.01047
-0.671569
-0.392955
-0.198372
-0.0866069
-0.0260192
-0.000580228
-1.20189
-1.42207
-1.38619
-1.12281
-0.72558
-0.405048
-0.189418
-0.0731841
-0.0151233
0.00403303
-1.23296
-1.55264
-1.54049
-1.24697
-0.787584
-0.419728
-0.180343
-0.0588562
-0.0033525
0.00931418
-1.23612
-1.67274
-1.69948
-1.37751
-0.856427
-0.437955
-0.172743
-0.0449926
0.00847723
0.0148744
-1.20047
-1.76248
-1.85458
-1.51101
-0.931607
-0.461141
-0.168754
-0.0336224
0.018951
0.0199113
-1.12115
-1.81282
-1.98728
-1.64232
-1.01212
-0.490446
-0.170168
-0.0266867
0.0263812
0.0233963
-1.00209
-1.81954
-2.07771
-1.76212
-1.09431
-0.526007
-0.178023
-0.025373
0.0293683
0.0245348
-0.85428
-1.77667
-2.18393
-1.86259
-1.17247
-0.56664
-0.192932
-0.030196
0.0272264
0.0231171
-0.704519
-1.68902
-2.16662
-1.93924
-1.24338
-0.610307
-0.214812
-0.0413049
0.0200056
0.0193801
-0.56691
-1.627
-2.18304
-1.9728
-1.27306
-0.634881
-0.236999
-0.0594633
0.00560266
0.0121641
-0.560466
-1.58023
-2.09956
-1.88671
-1.22853
-0.639773
-0.271422
-0.0945319
-0.0188788
0.00147442
-0.618178
-1.49664
-1.964
-1.75084
-1.17182
-0.6506
-0.316112
-0.138413
-0.0470283
-0.00839338
-0.65001
-1.36683
-1.76062
-1.59116
-1.1196
-0.675383
-0.369131
-0.186022
-0.0768291
-0.0183408
-0.640523
-1.18218
-1.54003
-1.43855
-1.08373
-0.720365
-0.435508
-0.237934
-0.106039
-0.0279262
-0.601973
-1.02138
-1.33276
-1.30993
-1.07073
-0.779826
-0.507259
-0.291564
-0.136317
-0.0372469
-0.539023
-0.865753
-1.14745
-1.2108
-1.08424
-0.852286
-0.57493
-0.33493
-0.157144
-0.0419301
-0.465161
-0.729848
-0.999754
-1.14236
-1.10495
-0.902196
-0.616327
-0.36166
-0.169548
-0.0441438
-0.38467
-0.654603
-0.919456
-1.08257
-1.09798
-0.918321
-0.631597
-0.374409
-0.176415
-0.0458924
-0.339783
-0.623176
-0.924729
-1.09599
-1.08684
-0.900424
-0.620807
-0.373779
-0.178176
-0.0468667
-0.565527
-0.616985
-0.656833
-0.677681
-0.689606
-0.696476
-0.691679
-0.670528
-0.630166
-0.639541
-0.449935
-0.509663
-0.561114
-0.595153
-0.619339
-0.635883
-0.643448
-0.644686
-0.645316
-0.658668
-0.348476
-0.406301
-0.462724
-0.507939
-0.543419
-0.57112
-0.593045
-0.61468
-0.628592
-0.646108
-0.259187
-0.319207
-0.375756
-0.42486
-0.467366
-0.504761
-0.536022
-0.567934
-0.589546
-0.617733
-0.180688
-0.241206
-0.297294
-0.348426
-0.393485
-0.436391
-0.471635
-0.508956
-0.538381
-0.575382
-0.112754
-0.172447
-0.2273
-0.278351
-0.323398
-0.367269
-0.404659
-0.444172
-0.479274
-0.519836
-0.0560053
-0.114113
-0.167488
-0.216533
-0.260573
-0.302385
-0.340219
-0.37811
-0.41499
-0.453267
-0.0102
-0.0673678
-0.118823
-0.165489
-0.207902
-0.246458
-0.282311
-0.316041
-0.349661
-0.382633
0.0179998
-0.0381867
-0.0879668
-0.132748
-0.173011
-0.208106
-0.240245
-0.267861
-0.293498
-0.317368
0.0303774
-0.0254176
-0.0762661
-0.121906
-0.162774
-0.198199
-0.229087
-0.254177
-0.275526
-0.291817
0.676008
0.614374
0.54432
0.471083
0.393588
0.309557
0.219555
0.12911
0.0474862
-0.00488816
0.506295
0.441665
0.370174
0.293225
0.209228
0.116547
0.0167929
-0.0831934
-0.172763
-0.231658
0.31565
0.250375
0.178824
0.100388
0.0132761
-0.0838553
-0.188864
-0.294432
-0.388769
-0.451767
0.131305
0.0648938
-0.00830356
-0.0891737
-0.179208
-0.279471
-0.387578
-0.49648
-0.593806
-0.656722
-0.0368583
-0.105513
-0.181324
-0.265061
-0.357947
-0.460648
-0.56997
-0.681076
-0.776835
-0.838946
-0.187795
-0.258812
-0.336598
-0.421627
-0.515419
-0.618432
-0.727293
-0.835409
-0.929104
-0.989021
-0.31992
-0.39209
-0.470783
-0.556981
-0.650232
-0.750745
-0.855603
-0.958708
-1.04695
-1.10203
-0.438644
-0.509836
-0.585511
-0.66179
-0.747638
-0.847204
-0.947666
-1.04445
-1.12382
-1.17293
-0.529929
-0.594563
-0.667238
-0.745607
-0.830908
-0.921019
-1.01015
-1.09425
-1.16011
-1.20278
-0.605921
-0.667566
-0.737915
-0.811891
-0.886406
-0.962343
-1.03841
-1.10739
-1.15854
-1.19507
1.64655
1.65557
1.66486
1.67354
1.68109
1.68718
1.69146
1.69379
1.69638
1.71161
1.60481
1.61166
1.61817
1.62361
1.62757
1.62968
1.62966
1.62786
1.62711
1.6394
1.54446
1.54836
1.55126
1.55259
1.55202
1.54911
1.54361
1.53632
1.53074
1.53882
1.46674
1.4671
1.46544
1.46152
1.45521
1.446
1.43363
1.41936
1.40735
1.40987
1.37266
1.36873
1.36165
1.35154
1.33851
1.32197
1.30166
1.27924
1.25953
1.25553
1.26508
1.25671
1.2435
1.22612
1.20499
1.17952
1.14956
1.11739
1.08846
1.07723
1.14448
1.13112
1.11157
1.08685
1.05746
1.02266
0.982364
0.939487
0.900203
0.881813
1.01877
0.999631
0.971802
0.937533
0.898005
0.852539
0.801205
0.747424
0.69777
0.671057
0.892387
0.866869
0.83011
0.785566
0.734879
0.677348
0.613347
0.54716
0.48633
0.450662
0.777809
0.737505
0.685419
0.627133
0.563877
0.494025
0.417696
0.339651
0.268282
0.223985
1.5885
1.56863
1.56062
1.54223
1.53163
1.51753
1.51231
1.51706
1.54034
1.60665
1.58709
1.56591
1.559
1.54053
1.52907
1.51287
1.5066
1.50781
1.52579
1.58249
1.58619
1.56348
1.55759
1.53873
1.52615
1.50729
1.49979
1.49586
1.50631
1.54772
1.58564
1.56131
1.55639
1.53682
1.52286
1.50084
1.49195
1.48115
1.48231
1.50183
1.58539
1.55936
1.55541
1.53478
1.5192
1.49351
1.48297
1.46362
1.45432
1.44453
1.5854
1.5576
1.55467
1.53257
1.51516
1.48532
1.4727
1.44324
1.42284
1.37544
1.58567
1.55601
1.55416
1.53016
1.5107
1.47628
1.46111
1.42009
1.38845
1.29346
1.58621
1.55461
1.55388
1.52751
1.50573
1.46626
1.44832
1.3945
1.35087
1.20008
1.58707
1.55362
1.55394
1.52464
1.50012
1.45485
1.43435
1.36688
1.30939
1.09455
1.58813
1.5533
1.5547
1.52193
1.49382
1.44197
1.41924
1.33848
1.26686
0.9858
1.59004
1.55267
1.55516
1.51867
1.48746
1.42819
1.4015
1.30752
1.21429
0.884252
1.59515
1.55427
1.56003
1.51789
1.48369
1.41505
1.38331
1.28353
1.16962
0.892436
1.60152
1.55621
1.56526
1.51813
1.48127
1.40645
1.36621
1.26441
1.13001
0.896734
1.60867
1.55857
1.56963
1.52003
1.4786
1.40367
1.34927
1.24864
1.09473
0.890103
1.61697
1.56165
1.57136
1.52054
1.47332
1.40414
1.33159
1.23533
1.06576
0.876916
1.62647
1.56452
1.56959
1.5138
1.46572
1.40363
1.31307
1.22557
1.04599
0.863326
1.63783
1.56663
1.56256
1.49861
1.45642
1.40112
1.29492
1.22102
1.03628
0.853228
1.65483
1.57094
1.5556
1.4841
1.44638
1.39869
1.27693
1.22474
1.03445
0.848481
1.67031
1.57605
1.55196
1.476
1.43745
1.39644
1.26182
1.23248
1.03402
0.849524
1.71552
1.57675
1.54879
1.47175
1.43839
1.39402
1.26184
1.24456
1.03492
0.864448
0.666943
0.524898
0.35299
0.185963
0.0346345
-0.100911
-0.22226
-0.331515
-0.425781
-0.5071
0.629152
0.510939
0.373545
0.236144
0.109318
-0.00635684
-0.112818
-0.21252
-0.303423
-0.383388
0.619614
0.510052
0.393088
0.277682
0.169136
0.0673409
-0.0287868
-0.120126
-0.204314
-0.280898
0.622503
0.519896
0.416156
0.317115
0.223447
0.133512
0.0464387
-0.0374741
-0.117431
-0.191346
0.63222
0.53839
0.444735
0.356833
0.273613
0.192446
0.11224
0.0336945
-0.0425229
-0.113916
0.645707
0.560657
0.475077
0.394494
0.31793
0.242526
0.167408
0.0929318
0.0205652
-0.0481793
0.660796
0.584111
0.505506
0.430007
0.357329
0.285336
0.2136
0.141866
0.0728126
0.00633842
0.676466
0.607
0.534392
0.462795
0.392168
0.322357
0.252819
0.1836
0.11659
0.0504874
0.687979
0.622263
0.553347
0.483678
0.413093
0.343381
0.273639
0.205706
0.140308
0.0769215
0.706244
0.641559
0.57399
0.503836
0.432196
0.361175
0.290771
0.222453
0.155215
0.0911287
-1.24762
-1.20291
-1.13811
-1.06506
-0.993
-0.926596
-0.868204
-0.818791
-0.778317
-0.747423
-1.35166
-1.3104
-1.25016
-1.17854
-1.10817
-1.04333
-0.986106
-0.936577
-0.895411
-0.864099
-1.41473
-1.37759
-1.3238
-1.25646
-1.18841
-1.12471
-1.06764
-1.01812
-0.976031
-0.942719
-1.44073
-1.40825
-1.36244
-1.30211
-1.23736
-1.175
-1.11825
-1.06841
-1.02529
-0.989648
-1.43724
-1.40952
-1.37275
-1.32125
-1.262
-1.2023
-1.14631
-1.09601
-1.05172
-1.01379
-1.41351
-1.39028
-1.36216
-1.32018
-1.2683
-1.21306
-1.15895
-1.10879
-1.06394
-1.02508
-1.3787
-1.35951
-1.33846
-1.30561
-1.26231
-1.21339
-1.163
-1.11437
-1.06997
-1.03189
-1.34001
-1.3244
-1.30861
-1.28341
-1.24842
-1.20639
-1.16068
-1.1144
-1.07071
-1.03287
-1.30239
-1.28994
-1.27808
-1.25898
-1.23122
-1.19596
-1.15566
-1.11291
-1.0712
-1.03607
-1.26818
-1.25882
-1.25003
-1.23556
-1.21339
-1.18338
-1.14693
-1.10588
-1.06234
-1.02317
-1.23694
-1.23098
-1.22488
-1.21408
-1.1965
-1.17136
-1.13927
-1.10212
-1.06131
-1.0164
-1.20529
-1.20307
-1.19945
-1.19149
-1.17737
-1.15622
-1.12811
-1.09442
-1.05609
-1.0097
-1.17032
-1.17143
-1.16962
-1.16361
-1.15154
-1.13296
-1.10814
-1.078
-1.0427
-0.998465
-1.13485
-1.13848
-1.13786
-1.13317
-1.12275
-1.10593
-1.08364
-1.05749
-1.02706
-0.988986
-1.10415
-1.10968
-1.10978
-1.10643
-1.09858
-1.0845
-1.06438
-1.04141
-1.01763
-0.98758
-1.07891
-1.08611
-1.08676
-1.0845
-1.07943
-1.06991
-1.05388
-1.03415
-1.01571
-0.99476
-1.06146
-1.06918
-1.0697
-1.06738
-1.06317
-1.05722
-1.04712
-1.03102
-1.01766
-1.00323
-1.05479
-1.06203
-1.06256
-1.06088
-1.0579
-1.05381
-1.04751
-1.03673
-1.02399
-1.01246
-1.0567
-1.06303
-1.06368
-1.06279
-1.06096
-1.0582
-1.05403
-1.0475
-1.03926
-1.0317
-1.06322
-1.0682
-1.06872
-1.06821
-1.06708
-1.06551
-1.06358
-1.06093
-1.05777
-1.05553
-0.889968
-0.721099
-0.675465
-0.618068
-0.529861
-0.405097
-0.285221
-0.179704
-0.0961786
-0.0267825
-0.878328
-0.721106
-0.681359
-0.619295
-0.521941
-0.396762
-0.277131
-0.173398
-0.0920731
-0.02531
-0.873844
-0.73019
-0.692833
-0.623404
-0.51806
-0.389447
-0.269003
-0.166687
-0.0874618
-0.0235106
-0.879144
-0.749159
-0.710815
-0.63149
-0.517741
-0.383343
-0.260986
-0.159704
-0.0825126
-0.0215575
-0.892815
-0.777392
-0.735791
-0.644363
-0.520274
-0.378304
-0.253065
-0.15244
-0.077256
-0.0195307
-0.912545
-0.814725
-0.768468
-0.66303
-0.525832
-0.374411
-0.245239
-0.144865
-0.0716861
-0.0174529
-0.937835
-0.861835
-0.80967
-0.688651
-0.534972
-0.371864
-0.237484
-0.13691
-0.065751
-0.0153087
-0.969411
-0.919534
-0.861868
-0.723603
-0.548549
-0.370994
-0.229769
-0.128457
-0.0593409
-0.0130414
-1.00882
-0.990181
-0.927719
-0.77059
-0.5677
-0.372277
-0.222083
-0.11937
-0.0523111
-0.0105599
-1.05482
-1.07623
-1.01109
-0.832418
-0.593754
-0.376255
-0.214412
-0.109501
-0.0445112
-0.00774825
-0.885935
-0.74046
-0.687192
-0.615632
-0.517907
-0.392056
-0.279264
-0.179255
-0.0965789
-0.0268337
-0.877432
-0.733931
-0.680924
-0.614047
-0.520094
-0.396218
-0.282973
-0.181539
-0.0979266
-0.0274538
-0.874783
-0.727627
-0.676438
-0.614111
-0.521686
-0.398002
-0.284592
-0.182028
-0.0981158
-0.0274071
-0.872901
-0.721313
-0.671565
-0.613165
-0.524574
-0.401162
-0.28696
-0.182922
-0.0986161
-0.0275657
-0.880335
-0.715846
-0.666995
-0.611062
-0.525194
-0.406053
-0.288781
-0.18314
-0.0985792
-0.0276423
-0.717055
-0.827664
-0.902462
-0.94647
-0.963915
-0.967612
-0.95985
-0.950819
-0.938845
-0.926333
-0.714678
-0.825896
-0.898827
-0.939837
-0.953667
-0.953557
-0.943661
-0.931356
-0.921264
-0.90759
-0.717279
-0.828898
-0.901522
-0.941659
-0.955028
-0.954655
-0.947232
-0.935353
-0.92998
-0.917675
-0.722576
-0.835961
-0.909492
-0.95016
-0.965198
-0.966871
-0.963757
-0.954812
-0.953087
-0.941005
-0.731429
-0.847196
-0.92267
-0.965317
-0.98399
-0.990134
-0.99252
-0.989074
-0.988898
-0.977896
1.18024
1.17024
1.15528
1.13859
1.12101
1.10179
1.08089
1.06027
1.04402
1.04101
1.27759
1.27467
1.26764
1.25854
1.24805
1.23571
1.22155
1.20726
1.19657
1.19801
1.37014
1.37093
1.36882
1.36513
1.36033
1.35406
1.34625
1.33796
1.33232
1.33789
1.45372
1.45756
1.4597
1.46083
1.4611
1.4601
1.45757
1.45401
1.45224
1.46158
1.52647
1.53295
1.53856
1.5435
1.54769
1.55076
1.55227
1.55228
1.5533
1.56557
1.58655
1.5952
1.60365
1.61172
1.61915
1.62554
1.63033
1.63304
1.63575
1.64969
1.63241
1.64267
1.65329
1.66374
1.67363
1.68258
1.68994
1.69475
1.69841
1.71203
1.66252
1.67373
1.68568
1.69762
1.70907
1.71972
1.72903
1.73581
1.74041
1.75094
1.67535
1.68665
1.69875
1.71078
1.72221
1.73274
1.74191
1.74881
1.75409
1.7671
1.67017
1.68074
1.6919
1.70275
1.71272
1.72151
1.72866
1.7336
1.73788
1.75397
-0.59263
-0.625314
-0.666869
-0.716888
-0.775092
-0.840941
-0.914748
-0.989707
-1.05645
-1.10285
-0.403412
-0.439022
-0.482213
-0.533175
-0.592387
-0.65968
-0.732494
-0.807142
-0.874478
-0.920827
-0.190641
-0.229548
-0.274726
-0.326576
-0.38567
-0.452129
-0.52411
-0.597054
-0.662785
-0.709132
0.0321594
-0.00942115
-0.056225
-0.108547
-0.16695
-0.231714
-0.301269
-0.370849
-0.433567
-0.475896
0.249857
0.207252
0.160451
0.109392
0.0534721
-0.00776326
-0.0730843
-0.13805
-0.196286
-0.232771
0.451231
0.410145
0.365813
0.318254
0.266802
0.210879
0.151446
0.0926443
0.040545
0.0103619
0.631644
0.594684
0.555297
0.51335
0.468094
0.418927
0.366683
0.315202
0.270254
0.24646
0.794176
0.762699
0.729469
0.694071
0.655684
0.613773
0.569138
0.525345
0.487918
0.470152
0.946494
0.919874
0.891537
0.861602
0.829328
0.79418
0.75686
0.720572
0.690517
0.677764
1.0859
1.06345
1.03797
1.01213
0.98551
0.957214
0.927489
0.898841
0.875788
0.867882
1.66184
1.59868
1.58094
1.54258
1.52555
1.50965
1.48985
1.46603
1.40815
1.31423
1.64747
1.59614
1.58025
1.54478
1.52975
1.5152
1.49854
1.47857
1.43798
1.38091
1.63513
1.59352
1.57711
1.54595
1.53266
1.51948
1.50599
1.49226
1.46823
1.44396
1.62469
1.59079
1.57454
1.54698
1.53479
1.52279
1.51225
1.50468
1.49453
1.4976
1.61592
1.58782
1.57262
1.54774
1.53625
1.52509
1.51699
1.5147
1.51614
1.54181
1.60862
1.58464
1.57069
1.54798
1.53706
1.52636
1.52013
1.52207
1.53308
1.57665
1.60256
1.58134
1.56861
1.5476
1.5372
1.5266
1.52164
1.52669
1.54513
1.60213
1.5976
1.57802
1.56649
1.54668
1.53666
1.52582
1.52155
1.52847
1.55202
1.61809
1.59363
1.57476
1.5644
1.54537
1.5355
1.52403
1.5199
1.52742
1.55354
1.62429
1.59062
1.5716
1.56243
1.54386
1.53379
1.52126
1.51679
1.5236
1.54964
1.62053
1.78417
1.60964
1.56801
1.52209
1.50328
1.48498
1.45647
1.4159
1.32837
1.22544
1.74498
1.61341
1.57574
1.52785
1.50632
1.48683
1.45727
1.41668
1.32727
1.21271
1.72155
1.61185
1.57708
1.53093
1.50918
1.49006
1.46111
1.42216
1.33558
1.21549
1.69857
1.60687
1.57779
1.53508
1.51407
1.49561
1.46844
1.43264
1.34919
1.22693
1.67871
1.60203
1.57894
1.53886
1.51956
1.50217
1.47799
1.44576
1.36879
1.247
0.994402
0.895099
0.770778
0.617406
0.437437
0.235791
0.0218693
-0.191779
-0.392547
-0.570343
0.983729
0.885803
0.763901
0.614626
0.439941
0.242774
0.0306752
-0.18394
-0.387304
-0.567519
0.996312
0.896374
0.772211
0.62271
0.449007
0.252364
0.0394283
-0.177537
-0.384015
-0.567311
1.02246
0.913871
0.783578
0.632583
0.458689
0.261325
0.0466575
-0.173212
-0.383238
-0.570014
1.06622
0.940429
0.797843
0.642144
0.466431
0.267765
0.0512521
-0.171539
-0.385308
-0.57589
)
;

boundaryField
{
    left
    {
        type            zeroGradient;
    }
    right
    {
        type            fixedValue;
        value           uniform 0;
    }
    down
    {
        type            zeroGradient;
    }
    up
    {
        type            zeroGradient;
    }
    cylinder
    {
        type            zeroGradient;
    }
    defaultFaces
    {
        type            empty;
    }
}


// ************************************************************************* //
