/*--------------------------------*- C++ -*----------------------------------*\
| =========                 |                                                 |
| \\      /  F ield         | OpenFOAM: The Open Source CFD Toolbox           |
|  \\    /   O peration     | Version:  2406                                  |
|   \\  /    A nd           | Website:  www.openfoam.com                      |
|    \\/     M anipulation  |                                                 |
\*---------------------------------------------------------------------------*/
FoamFile
{
    version     2.0;
    format      ascii;
    arch        "LSB;label=32;scalar=64";
    class       surfaceScalarField;
    location    "1.4";
    object      phi;
}
// * * * * * * * * * * * * * * * * * * * * * * * * * * * * * * * * * * * * * //

dimensions      [0 3 -1 0 0 0 0];

oriented        oriented;

internalField   nonuniform List<scalar> 
3485
(
-0.0012164
0.000172127
0.00104427
-0.00237206
0.000100715
0.00105495
-0.00288502
-6.60202e-05
0.000578979
-0.00185895
-0.000573419
-0.000452648
0.00210046
-0.00236573
-0.00159368
0.00981351
-0.00595007
-0.00176299
0.0214573
-0.0111329
-0.000510968
0.0369907
-0.0176976
0.0021642
0.0561552
-0.0251556
0.0059911
-0.0297472
0.0101014
0.0758011
-0.00089419
0.00106632
-0.00178176
0.000988288
-0.00198861
0.000140832
2.57707e-05
-0.0025878
0.00603343
-0.00837339
0.0168092
-0.0167259
0.0324107
-0.0267344
0.0523685
-0.0376553
0.0763209
-0.0491081
-0.0562079
0.102782
-0.000162535
0.00122885
-6.63336e-05
0.000892087
0.0020889
-0.0020144
0.00877086
-0.00926977
0.0209235
-0.0205261
0.0385065
-0.0343088
0.0608809
-0.0491087
0.0869826
-0.0637571
0.115908
-0.0780337
-0.0873813
0.147082
0.000555184
0.000673668
0.00238944
-0.000942171
0.00874586
-0.00837082
0.0213294
-0.0218533
0.0401327
-0.0393293
0.0640795
-0.0582557
0.0915598
-0.076589
0.120885
-0.0930823
0.150427
-0.107576
-0.117621
0.180667
0.00053861
0.000135057
0.00499221
-0.00539577
0.0164406
-0.0198192
0.0352623
-0.0406751
0.0599892
-0.0640561
0.0882063
-0.0864729
0.117496
-0.105879
0.146031
-0.121617
0.172399
-0.133944
-0.142745
0.197523
0.00119388
-0.00105882
0.00930533
-0.0135072
0.026072
-0.0365858
0.0501631
-0.0647662
0.0781405
-0.0920336
0.106496
-0.114829
0.132828
-0.132211
0.155994
-0.144783
0.175768
-0.153718
-0.159978
0.193001
0.00274314
-0.00380196
0.0149246
-0.0256887
0.0364491
-0.0581103
0.0631681
-0.0914852
0.0901247
-0.11899
0.114124
-0.138827
0.134056
-0.152143
0.150177
-0.160904
0.163318
-0.166859
-0.171131
0.17447
0.00465383
-0.00845579
0.0207676
-0.0418024
0.0448727
-0.0822155
0.0702194
-0.116832
0.0922428
-0.141014
0.109599
-0.156183
0.1229
-0.165444
0.133329
-0.171333
0.141877
-0.175406
-0.178555
0.149301
0.00663609
-0.0150919
0.0254506
-0.060617
0.0487584
-0.105523
0.069516
-0.137589
0.0853694
-0.156867
0.0969213
-0.167735
0.105593
-0.174116
0.112508
-0.178249
0.118249
-0.181147
-0.183409
0.123104
0.00838379
-0.0234757
0.0275897
-0.0798229
0.047292
-0.125226
0.0625141
-0.152811
0.0730745
-0.167427
0.0803348
-0.174995
0.085605
-0.179386
0.0897166
-0.18236
0.0931188
-0.184549
0.0959103
-0.186201
-0.000769201
0.0138652
-0.013096
-0.00315968
0.032224
-0.0298336
-0.00651528
0.0422188
-0.0388632
-0.0102887
0.0473339
-0.0435605
-0.0142131
0.0500394
-0.046115
-0.018142
0.0514545
-0.0475256
-0.0219578
0.0520582
-0.0482424
-0.025575
0.0521081
-0.0484909
-0.028974
0.0517532
-0.0483543
0.0511219
-0.032241
-0.0478548
0.000300557
0.0135646
-0.000537493
0.0330621
-0.00249339
0.0441747
-0.00505807
0.0498986
-0.00790341
0.0528847
-0.0108919
0.054443
-0.0139503
0.0551166
-0.01701
0.0551678
-0.0200213
0.0547646
0.0540496
-0.022949
0.00150196
0.0120626
0.00271576
0.0318483
0.00275494
0.0441356
0.00193125
0.0507223
0.000694862
0.0541211
-0.000713047
0.0558509
-0.00220385
0.0566074
-0.00374658
0.0567105
-0.00532503
0.056343
0.0556842
-0.00695967
0.0026873
0.00937535
0.00642213
0.0281135
0.00922225
0.0413354
0.010968
0.0489765
0.0120746
0.0530145
0.0128804
0.0550452
0.0135555
0.0559323
0.0141733
0.0560927
0.0147803
0.0557359
0.0550396
0.0154249
0.00350069
0.00587466
0.00975869
0.0218555
0.0158106
0.0352835
0.0208231
0.043964
0.0249452
0.0488924
0.0285172
0.0514731
0.0318065
0.0526431
0.0349864
0.0529128
0.0381872
0.0525351
0.0515917
0.0416351
0.0034169
0.00245776
0.0112339
0.0140384
0.0201326
0.0263848
0.028521
0.0355756
0.0360542
0.0413592
0.0429025
0.0446249
0.0493449
0.0462007
0.0556268
0.0466308
0.0619656
0.0461963
0.0448781
0.0686793
0.00229435
0.00016341
0.00993035
0.00640243
0.0201846
0.0161305
0.03102
0.0247403
0.0415526
0.0308266
0.0516018
0.0345756
0.0612906
0.0365119
0.0708269
0.0370946
0.0804467
0.0365765
0.0346188
0.0907059
0.00108128
-0.000917874
0.00652036
0.00096336
0.0158372
0.00681366
0.0270163
0.0135611
0.0388535
0.0189895
0.0508546
0.0225745
0.0629024
0.0244641
0.0750444
0.0249525
0.0874156
0.0242053
0.0213002
0.100734
0.000706516
-0.00162439
0.00299482
-0.00132495
0.0087597
0.00104879
0.0174761
0.00484477
0.0279349
0.00853062
0.0395087
0.0110008
0.0519743
0.0119985
0.0652941
0.0116327
0.0795587
0.00994071
0.00576104
0.0950979
-0.000580117
-0.000850122
0.000777643
0.00516976
0.0121067
0.0213445
0.032832
0.0466289
0.0625607
0.0784231
-0.0456487
0.406279
-0.392872
-0.0453047
0.262244
-0.262588
-0.0304789
0.0454128
-0.0602386
0.00379124
-0.151873
0.117603
0.0463195
-0.270544
0.228016
0.0841248
-0.299605
0.261799
0.113067
-0.276097
0.247155
0.132087
-0.221593
0.202573
0.145055
-0.175502
0.162534
-0.0932069
0.0878516
-0.0428081
0.426138
-0.0512761
0.270712
-0.036904
0.0310406
0.000725915
-0.189503
0.0457157
-0.315534
0.0852495
-0.339138
0.115247
-0.306095
0.134803
-0.24115
0.148334
-0.189032
-0.0989642
-0.0307785
0.449957
-0.0468539
0.286787
-0.0329444
0.0171311
0.00658625
-0.229033
0.0530557
-0.362003
0.092153
-0.378236
0.120954
-0.334896
0.139457
-0.259652
0.152666
-0.202241
-0.104934
-0.00630397
0.471686
-0.0278037
0.308287
-0.0169893
0.00631676
0.0233048
-0.269327
0.0705811
-0.409279
0.107843
-0.415498
0.132921
-0.359973
0.14799
-0.274722
0.15923
-0.213481
-0.110566
0.0254772
0.487844
0.00141771
0.332347
0.00996263
-0.00222816
0.0477104
-0.307075
0.0959252
-0.457494
0.132612
-0.452184
0.153231
-0.380593
0.1627
-0.284191
0.169708
-0.220488
-0.114845
0.0636322
0.492891
0.0377231
0.358256
0.0416389
-0.00614399
0.0744119
-0.339848
0.122734
-0.505816
0.161834
-0.491284
0.180847
-0.399606
0.184891
-0.288236
0.185856
-0.221453
-0.116525
0.104794
0.478803
0.0798684
0.383181
0.0770549
-0.00333044
0.103442
-0.366236
0.148363
-0.550737
0.189616
-0.532538
0.21096
-0.420949
0.213006
-0.290282
0.208302
-0.21675
-0.114938
0.142115
0.437423
0.123775
0.40152
0.116386
0.0040591
0.138299
-0.388149
0.1767
-0.589137
0.215131
-0.570969
0.238804
-0.444622
0.24275
-0.294227
0.235321
-0.209321
-0.110861
0.171756
0.360765
0.16499
0.408286
0.154822
0.0142279
0.17663
-0.409957
0.209603
-0.62211
0.241362
-0.602728
0.263376
-0.466637
0.269996
-0.300847
0.263235
-0.20256
-0.106285
0.180313
0.258875
0.19551
0.393089
0.191385
0.018352
0.211255
-0.429827
0.242421
-0.653275
0.268881
-0.629188
0.286089
-0.483845
0.293029
-0.307786
0.288469
-0.198001
-0.103192
0.289017
0.174445
-0.204588
0.394048
0.288058
0.495578
-0.083178
0.578392
-0.512641
0.609509
-0.684393
0.594414
-0.614093
0.559798
-0.44923
0.528245
-0.276232
0.498129
-0.167885
-0.0852678
0.441946
0.170429
-0.437929
0.557069
0.172935
0.674149
-0.200258
0.725455
-0.563946
0.718953
-0.677891
0.677798
-0.572938
0.622099
-0.39353
0.574182
-0.228316
0.536738
-0.130441
-0.0655738
0.633892
0.154792
-0.618255
0.732309
0.0745187
0.812716
-0.280665
0.818509
-0.569738
0.776076
-0.635458
0.715199
-0.512062
0.652361
-0.330692
0.600403
-0.176358
0.559393
-0.0894306
-0.0444837
0.77879
0.107054
-0.731052
0.857309
-0.0040012
0.902483
-0.325839
0.889883
-0.557139
0.829613
-0.575187
0.745354
-0.427803
0.664707
-0.250046
0.605398
-0.117048
0.562843
-0.0468759
-0.0236082
0.86183
0.0476583
-0.802435
0.925621
-0.067792
0.952056
-0.352274
0.923878
-0.52896
0.846021
-0.497331
0.749297
-0.331079
0.661192
-0.16194
0.597845
-0.0537016
0.555249
-0.00427985
-0.00355013
0.900878
-0.0077685
-0.845451
0.956859
-0.123773
0.973039
-0.368454
0.921376
-0.477298
0.814139
-0.390094
0.700859
-0.217799
0.61457
-0.075651
0.561134
-0.000265403
0.529058
0.0277966
0.0115493
0.910762
-0.0564836
-0.862046
0.959535
-0.172546
0.943366
-0.352285
0.847459
-0.381391
0.716482
-0.259118
0.603734
-0.10505
0.531242
-0.00315942
0.493969
0.0370074
0.477469
0.044297
0.0189054
0.88114
-0.0934252
-0.844198
0.89451
-0.185917
0.808288
-0.266062
0.652291
-0.225394
0.508779
-0.115605
0.423474
-0.019746
0.388957
0.0313574
0.381611
0.0443541
0.385745
0.0401629
0.0169572
0.728496
-0.088405
-0.733516
0.656243
-0.113664
0.485886
-0.0957057
0.31377
-0.0532778
0.217787
-0.0196222
0.193229
0.00481202
0.204792
0.0197941
0.22569
0.0234562
0.245996
0.0198571
0.00840627
0.283942
-0.372347
0.170278
0.0745724
0.0212946
0.00167247
0.00648449
0.0262786
0.0497348
0.0695919
0.522988
0.0897359
-0.516813
0.528146
0.117945
0.533586
0.143861
0.536358
0.171698
0.5342
0.19516
0.514556
0.217166
0.469259
0.225965
0.391506
0.224834
0.283888
0.2104
0.155101
0.528959
0.0793233
-0.518546
0.539468
0.107436
0.550391
0.132938
0.561926
0.160163
0.571531
0.185555
0.579477
0.209221
0.571409
0.234033
0.556864
0.239379
0.508889
0.258375
0.226061
0.540018
0.0691007
-0.529796
0.552893
0.0945612
0.566311
0.11952
0.583022
0.143452
0.59802
0.170557
0.617493
0.189748
0.631087
0.220438
0.642558
0.227908
0.642052
0.258881
0.249858
0.556485
0.0589147
-0.546299
0.570462
0.0805845
0.585819
0.104163
0.605217
0.124054
0.625358
0.150416
0.648912
0.166194
0.673746
0.195603
0.696174
0.205481
0.72016
0.234895
0.238966
0.569176
0.0480988
-0.55836
0.584028
0.0657323
0.601747
0.0864442
0.623056
0.102744
0.64787
0.125603
0.674525
0.139539
0.706157
0.163971
0.736205
0.175433
0.772103
0.198997
0.208634
0.571593
0.0366214
-0.560116
0.587087
0.050238
0.606736
0.0667956
0.629853
0.079627
0.657937
0.0975187
0.68807
0.109406
0.724227
0.127814
0.760778
0.138882
0.803562
0.156213
0.166744
0.560878
0.0247631
-0.549019
0.57664
0.0344756
0.597427
0.0460084
0.621864
0.0551899
0.651884
0.0674991
0.684863
0.0764265
0.723994
0.0886833
0.765396
0.0974795
0.812933
0.108677
0.11763
0.531077
0.0128592
-0.519173
0.546562
0.0189904
0.567772
0.0247982
0.592243
0.0307191
0.622988
0.036754
0.656843
0.0425712
0.697249
0.0482779
0.740782
0.0539461
0.790902
0.0585575
0.0643338
0.459495
0.0028852
-0.449521
0.47329
0.00519466
0.491382
0.00670695
0.513112
0.00898892
0.539575
0.0102911
0.569581
0.0125646
0.604455
0.0134048
0.642845
0.0155555
0.686241
0.0151621
0.0170585
0.26742
-0.264534
0.272614
0.279321
0.28831
0.298601
0.311166
0.324571
0.340126
0.355288
0.0693051
0.133842
-0.122682
-0.0804655
0.0591495
0.135469
-0.125314
0.0499001
0.137294
-0.128044
0.0410731
0.139752
-0.130925
0.0323867
0.142327
-0.133641
0.0238409
0.144214
-0.135669
0.0156638
0.143801
-0.135623
0.00817814
0.138382
-0.130897
0.00229051
0.119849
-0.113962
0.0644471
-0.0621566
0.067398
0.144318
-0.0778742
0.0572253
0.145642
0.0475137
0.147005
0.0383186
0.148947
0.0295262
0.151119
0.0211579
0.152583
0.0134196
0.151539
0.00657856
0.145223
0.00156665
0.124861
0.0660137
0.0611967
0.153992
-0.07087
0.0515075
0.155331
0.0421288
0.156384
0.0332581
0.157817
0.0249178
0.15946
0.017181
0.16032
0.0102282
0.158492
0.00431091
0.151141
0.000437273
0.128735
0.066451
0.0507274
0.162677
-0.0594128
0.0420741
0.163984
0.0336325
0.164825
0.0256018
0.165848
0.0181214
0.16694
0.0113958
0.167045
0.00563875
0.164249
0.000998635
0.155781
-0.000988843
0.130722
0.0654622
0.0369422
0.170167
-0.0444321
0.0295281
0.171398
0.0222424
0.172111
0.0153273
0.172763
0.00905511
0.173212
0.00372531
0.172375
-0.000488246
0.168462
-0.0031338
0.158426
-0.00286253
0.130451
0.0625996
0.0202978
0.176467
-0.0265973
0.0142784
0.177418
0.00860693
0.177782
0.00331667
0.178054
-0.00137599
0.177905
-0.00489014
0.175889
-0.00731144
0.170884
-0.0078497
0.158965
-0.00485356
0.127455
0.0577461
0.000921469
0.181504
-0.00595912
-0.00376374
0.182103
-0.00826844
0.182287
-0.0122084
0.181993
-0.0146344
0.180331
-0.0158217
0.177076
-0.0159367
0.170999
-0.0133846
0.156412
-0.0069196
0.12099
0.0508265
-0.0195662
0.184706
0.0163641
-0.0224216
0.184958
-0.0248387
0.184704
-0.0263565
0.183511
-0.0267808
0.180755
-0.0264958
0.176791
-0.0243728
0.168876
-0.0184779
0.150518
-0.00846403
0.110976
0.0423624
-0.0447759
0.186904
0.0425778
-0.0459594
0.186142
-0.0457362
0.184481
-0.0442878
0.182063
-0.042477
0.178944
-0.0394747
0.173789
-0.0335983
0.162999
-0.0233031
0.140222
-0.00944205
0.0971149
0.0329204
-0.0686223
0.0693257
-0.0670295
-0.0649086
-0.0622318
-0.0582828
-0.0519211
-0.0417334
-0.0267367
-0.00944472
0.096915
0.034039
-0.10781
-0.0231436
0.0858418
0.0348998
-0.0238266
0.0746019
0.0358253
-0.0245854
0.0631921
0.0368105
-0.0254007
0.0516128
0.0377987
-0.0262194
0.0398814
0.0386074
-0.026876
0.0280888
0.038731
-0.0269383
0.0165417
0.0370197
-0.0254726
0.00617978
0.0312456
-0.0208837
0.0167689
-0.0105891
0.0975272
0.0450931
-0.108581
0.0863456
0.0460814
0.075001
0.04717
0.0634995
0.048312
0.0518472
0.049451
0.0400651
0.0503895
0.0282386
0.0505575
0.0166473
0.0486109
0.00620695
0.041686
0.0229759
0.0980655
0.0560933
-0.109066
0.0868901
0.0572567
0.0755416
0.0585185
0.0640177
0.0598359
0.0523215
0.0611471
0.0404737
0.0622373
0.0285628
0.0624685
0.0168662
0.0603075
0.00629144
0.0522607
0.0292673
0.0968629
0.0670124
-0.107782
0.0858206
0.068299
0.0746084
0.0697307
0.0632169
0.0712274
0.0516421
0.0727219
0.0399048
0.0739746
0.0281028
0.0742704
0.0165244
0.0718859
0.00609312
0.062692
0.0353604
0.0946096
0.077781
-0.105378
0.0837516
0.079157
0.0727781
0.0807042
0.0616615
0.0823441
0.0503676
0.0840158
0.0388934
0.0854489
0.0273425
0.0858213
0.0160195
0.0832089
0.00584248
0.072869
0.0412029
0.0909419
0.0885045
-0.101665
0.0801799
0.089919
0.0693088
0.0915753
0.0583648
0.093288
0.0473625
0.095018
0.0363159
0.0964955
0.025321
0.0968162
0.0146584
0.0938715
0.00519556
0.0823318
0.0463985
0.0875609
0.098578
-0.0976345
0.0774174
0.100062
0.067097
0.101896
0.0565513
0.103834
0.045809
0.10576
0.0349719
0.107333
0.0242355
0.107553
0.0139235
0.104184
0.00489751
0.0913578
0.051296
0.0805942
0.108305
-0.0903207
0.0709915
0.109665
0.0613894
0.111498
0.0517192
0.113504
0.0419008
0.115579
0.0319415
0.117292
0.0220138
0.11748
0.0124664
0.113731
0.00421711
0.0996071
0.0555131
0.0759867
0.116512
-0.0841946
0.0674786
0.118173
0.0584372
0.120539
0.0490323
0.122909
0.0394283
0.125183
0.0297646
0.126956
0.0202654
0.12698
0.0112676
0.122729
0.00366222
0.107212
0.0591753
0.0663737
-0.072543
0.0592335
0.0517285
0.0437128
0.0352551
0.0265421
0.0178982
0.0097303
0.00298125
0.202076
-0.0156427
0.011557
0.20792
0.00591404
-0.011759
0.209308
0.0927319
-0.0941196
0.206248
0.155942
-0.152882
0.201531
0.169863
-0.165146
0.195879
0.170751
-0.165099
0.187994
0.160931
-0.153045
0.177193
0.169729
-0.158928
0.154715
0.187762
-0.165285
0.226694
-0.179789
0.201998
-0.0196505
0.207293
0.000619006
0.207772
0.0922522
0.203925
0.15979
0.198773
0.175014
0.192983
0.176541
0.185834
0.16808
0.175674
0.179889
0.154538
0.208899
0.27265
0.201848
-0.0235089
0.206511
-0.00404386
0.205927
0.0928357
0.201049
0.164669
0.195185
0.180878
0.188942
0.182784
0.182435
0.174588
0.17251
0.189814
0.152914
0.228495
0.316499
0.201607
-0.0271263
0.205582
-0.00801838
0.203765
0.0946527
0.197582
0.170851
0.190795
0.187665
0.183943
0.189636
0.177963
0.180568
0.167833
0.199944
0.149919
0.246409
0.358635
0.201268
-0.0304048
0.204525
-0.0112752
0.201274
0.097904
0.193527
0.178598
0.185723
0.195469
0.178225
0.197134
0.172581
0.186212
0.161732
0.210794
0.145731
0.26241
0.398988
0.200828
-0.0332426
0.203342
-0.0137891
0.198428
0.102818
0.188958
0.188068
0.180179
0.204247
0.172008
0.205305
0.166378
0.191842
0.154441
0.222731
0.140692
0.276159
0.438015
0.200259
-0.0355114
0.201969
-0.0154993
0.195202
0.109584
0.184032
0.199239
0.174388
0.21389
0.165463
0.21423
0.159468
0.197837
0.146322
0.235877
0.134555
0.287926
0.474935
0.19949
-0.0370117
0.200288
-0.0162969
0.191637
0.118235
0.17895
0.211925
0.16853
0.22431
0.158751
0.22401
0.152104
0.204484
0.137772
0.250209
0.128211
0.297486
0.512826
0.198402
-0.0374239
0.198173
-0.0160677
0.18787
0.128538
0.173934
0.225862
0.16279
0.235454
0.152099
0.234701
0.144672
0.211912
0.129825
0.265055
0.121204
0.306108
0.549835
0.196946
-0.0363802
0.19547
-0.0145913
0.184062
0.139945
0.169187
0.240737
0.157551
0.24709
0.145969
0.246282
0.137907
0.219974
0.121597
0.281365
0.115788
0.311916
0.59308
0.304413
-0.0387833
0.311827
-0.0220046
0.31783
0.133942
0.314296
0.244271
0.313514
0.247871
0.306945
0.252852
0.315259
0.21166
0.313225
0.283398
0.35996
0.265182
0.5192
0.43384
0.301846
-0.0386188
0.309236
-0.0293949
0.323244
0.119934
0.329983
0.237533
0.338471
0.239384
0.342606
0.248716
0.356759
0.197507
0.359113
0.281044
0.383451
0.240844
0.445885
0.456766
0.299083
-0.0356913
0.306683
-0.0369952
0.329187
0.0974297
0.354053
0.212668
0.370122
0.223314
0.391134
0.227704
0.408169
0.180473
0.418349
0.270864
0.440373
0.21882
0.382804
0.503453
0.296862
-0.0305428
0.304123
-0.0442568
0.333685
0.0678678
0.377985
0.168368
0.399136
0.202163
0.434049
0.192791
0.455628
0.158894
0.470316
0.256176
0.5023
0.186835
0.331918
0.553186
0.296558
-0.0250901
0.302209
-0.0499079
0.336667
0.0334094
0.392627
0.112408
0.42103
0.17376
0.461262
0.152559
0.487415
0.132741
0.508473
0.235118
0.543499
0.15181
0.282523
0.592895
0.298729
-0.0218093
0.303181
-0.05436
0.338735
-0.00214364
0.395568
0.055575
0.433193
0.136134
0.474466
0.111287
0.503771
0.103435
0.532641
0.206248
0.564504
0.119947
0.229353
0.617674
0.303439
-0.0232378
0.308127
-0.0590481
0.338901
-0.0329173
0.385996
0.00847942
0.430292
0.0918383
0.471374
0.0702055
0.500415
0.0743938
0.538573
0.16809
0.570113
0.0884069
0.171535
0.627931
0.308305
-0.0295327
0.311164
-0.0619067
0.331174
-0.0529274
0.358222
-0.0185684
0.403507
0.046553
0.44011
0.0336023
0.464715
0.0497885
0.517956
0.114849
0.55176
0.0546035
0.11156
0.611734
0.307847
-0.0353691
0.299251
-0.0533111
0.294374
-0.0480503
0.294886
-0.0190801
0.328803
0.012636
0.350091
0.0123142
0.375688
0.0241917
0.441654
0.0488821
0.472716
0.0235416
0.0506021
0.533674
0.266641
0.21333
0.16528
0.1462
0.158836
0.17115
0.195341
0.244224
0.267765
0.318367
0.45021
-0.096836
0.459671
-0.0873348
0.467748
-0.0789475
0.47516
-0.0668241
0.48223
-0.0515028
0.488932
-0.0332989
0.4955
-0.0125267
0.501621
0.0102424
0.509288
0.0349116
0.0617999
0.4666
-0.10667
0.474661
-0.0953953
0.480531
-0.0848172
0.484774
-0.0710679
0.489002
-0.0557298
0.492849
-0.0371465
0.497825
-0.0175022
0.5033
0.0047673
0.510157
0.0280543
0.0534105
0.505185
-0.108402
0.506935
-0.097145
0.508049
-0.0859309
0.508134
-0.0711531
0.508809
-0.0564047
0.50979
-0.0381276
0.512489
-0.0202009
0.516096
0.00115935
0.522136
0.0220152
0.0457502
0.547528
-0.102744
0.542354
-0.0919713
0.537598
-0.0811747
0.533618
-0.0671733
0.530889
-0.0536753
0.529637
-0.036876
0.530395
-0.0209591
0.53318
-0.00162513
0.538396
0.0167989
0.0378472
0.580944
-0.0907938
0.570409
-0.0814354
0.561072
-0.0718385
0.553727
-0.0598281
0.548122
-0.0480705
0.544878
-0.0336314
0.543839
-0.0199207
0.545806
-0.0035915
0.550291
0.0123139
0.0297782
0.602158
-0.0752775
0.58762
-0.0668972
0.574744
-0.0589628
0.564286
-0.0493697
0.556008
-0.0397934
0.550565
-0.0281875
0.547839
-0.0171949
0.548482
-0.00423489
0.552377
0.00841887
0.0220396
0.607935
-0.055282
0.589978
-0.0489399
0.573944
-0.0429292
0.560664
-0.0360895
0.550055
-0.0291839
0.542761
-0.0208938
0.538783
-0.0132169
0.538201
-0.00365303
0.541724
0.00489604
0.0147443
0.588123
-0.031671
0.567591
-0.0284078
0.549494
-0.0248316
0.53452
-0.0211154
0.522547
-0.0172117
0.514305
-0.0126519
0.509467
-0.00837822
0.508804
-0.00299033
0.512145
0.001555
0.00771656
0.512368
-0.0103649
0.493344
-0.0093837
0.477025
-0.00851233
0.463529
-0.00761967
0.452907
-0.00658929
0.445576
-0.00532099
0.441275
-0.00407807
0.440639
-0.00235395
0.44307
-0.000876302
0.00126617
0.308003
0.298619
0.290106
0.282487
0.275898
0.270577
0.266498
0.264145
0.263268
0.00562657
0.0479606
-0.0535871
0.0106789
0.106961
-0.112013
0.0126444
0.135791
-0.137757
0.0128674
0.147641
-0.147864
0.0128942
0.15198
-0.152006
0.0120886
0.154447
-0.153641
0.0103003
0.154612
-0.152824
0.00818093
0.151925
-0.149806
0.00626287
0.14605
-0.144132
0.135068
0.00497398
-0.133779
0.00699329
0.0409673
0.0152184
0.0987357
0.0205496
0.13046
0.0234498
0.144741
0.0251597
0.15027
0.0265368
0.15307
0.0271542
0.153995
0.0269416
0.152137
0.0262093
0.146782
0.136252
0.0250253
0.0076557
0.0333116
0.0186419
0.0877494
0.0272941
0.121808
0.0330551
0.13898
0.0369076
0.146417
0.0400882
0.149889
0.0427463
0.151337
0.0444563
0.150428
0.0450297
0.146209
0.137135
0.0441474
0.00751872
0.0257928
0.0204884
0.0747797
0.0321751
0.110121
0.04083
0.130325
0.0470711
0.140176
0.0521049
0.144855
0.0564792
0.146962
0.059959
0.146948
0.0620442
0.144124
0.137097
0.0620818
0.00675269
0.0190402
0.0206012
0.0609312
0.0347398
0.0959823
0.0462008
0.118864
0.0549022
0.131475
0.061865
0.137893
0.067832
0.140995
0.0728754
0.141904
0.0765167
0.140482
0.135691
0.0779229
0.00562189
0.0134183
0.0191652
0.0473878
0.0348577
0.0802898
0.0487435
0.104978
0.0598022
0.120416
0.0686558
0.129039
0.0761159
0.133535
0.0825185
0.135502
0.0876108
0.13539
0.132709
0.0905927
0.0043815
0.00903677
0.016605
0.0351643
0.0327897
0.0641052
0.0486197
0.089148
0.0619851
0.10705
0.072804
0.11822
0.0817964
0.124543
0.08955
0.127748
0.0961466
0.128793
0.127705
0.101151
0.00319092
0.00584585
0.0133287
0.0250265
0.0286644
0.0487695
0.0455579
0.0722545
0.0610808
0.0915274
0.0740915
0.10521
0.0847594
0.113875
0.0936998
0.118808
0.101303
0.121191
0.121609
0.107399
0.0021986
0.00364725
0.00993704
0.0172881
0.0230749
0.0356316
0.0395124
0.0558169
0.0564544
0.0745854
0.071932
0.089732
0.0852171
0.10059
0.0964613
0.107563
0.10621
0.111441
0.112753
0.115067
0.0014706
0.00217666
0.00692143
0.0118372
0.0169597
0.0255934
0.0310139
0.0417627
0.0472978
0.0583016
0.0637997
0.0732301
0.0790925
0.0852971
0.0925077
0.0941482
0.103967
0.0999817
0.10286
0.113861
0.000929223
0.00124744
0.00437945
0.008387
0.0111031
0.0188698
0.0214915
0.0313743
0.0349818
0.0448113
0.0502753
0.0579365
0.0659797
0.0695927
0.0810627
0.0790652
0.0948539
0.0861906
0.0911942
0.106519
0.000394498
0.000852938
0.00197291
0.00680859
0.00551723
0.0153254
0.0118103
0.0250813
0.0211631
0.0354584
0.0331283
0.0459713
0.0467558
0.0559653
0.0610389
0.0647821
0.0751267
0.0721027
0.0778734
0.0884476
-0.000241611
0.00109455
-0.0004791
0.00704608
0.000206011
0.0146403
0.00272253
0.0225648
0.00768417
0.0304967
0.0152801
0.0383754
0.0251218
0.0461235
0.0364664
0.0534375
0.048645
0.0599241
0.0650697
0.0614487
-0.00084716
0.00194171
-0.00246053
0.00865945
-0.00373756
0.0159174
-0.00392103
0.0227482
-0.00241766
0.0289934
0.00120902
0.0347487
0.00706687
0.0402657
0.0148092
0.0456951
0.0239323
0.050801
0.0546866
0.0343154
-0.00131027
0.00325198
-0.00381402
0.0111632
-0.00627852
0.0183819
-0.008029
0.0244987
-0.00871216
0.0296765
-0.00803518
0.0340718
-0.00567359
0.0379041
-0.00155815
0.0415797
0.00408606
0.0451568
0.0478156
0.0109571
-0.00188165
0.00513364
-0.00528795
0.0145695
-0.00875026
0.0218442
-0.0115654
0.0273139
-0.0134853
0.0315964
-0.0144742
0.0350607
-0.0144054
0.0378352
-0.0130906
0.0402649
-0.010488
0.0425541
0.0438325
-0.00650481
-0.00231476
0.00744839
-0.00638631
0.018641
-0.0106042
0.0260621
-0.0142361
0.0309458
-0.0169899
0.0343501
-0.0188034
0.0368743
-0.0197997
0.0388315
-0.0201065
0.0405717
-0.0195196
0.0419672
0.0424039
-0.018091
-0.0022477
0.0096961
-0.00634151
0.0227349
-0.0107379
0.0304585
-0.0147565
0.0349643
-0.0181516
0.0377452
-0.0208869
0.0396097
-0.0230405
0.0409851
-0.0246031
0.0421343
-0.025558
0.0429222
0.0430088
-0.0261629
-0.00193557
0.0116317
-0.00574075
0.02654
-0.0100769
0.0347947
-0.0143689
0.0392563
-0.0184228
0.0417991
-0.0221562
0.0433431
-0.0254966
0.0443256
-0.0283109
0.0449485
-0.0305863
0.0451976
0.0449519
-0.0325294
-0.0014643
-0.00475783
-0.0088264
-0.0131306
-0.0174465
-0.021629
-0.0255458
-0.0290881
-0.0322449
-0.0351478
0.0905911
0.380456
-0.364527
0.0642833
0.2537
-0.227392
0.0463335
0.153767
-0.135817
0.0451122
0.0565704
-0.0553491
0.0530178
-0.0113052
0.00339954
0.0663975
-0.0543374
0.0409578
0.0816912
-0.072281
0.0569873
0.0960378
-0.0709445
0.0565978
0.109274
-0.0617225
0.0484867
-0.0368366
0.0282945
0.076186
0.392717
0.0538018
0.276084
0.0420988
0.16547
0.0459657
0.0527035
0.0569888
-0.0223283
0.0715303
-0.0688789
0.0869735
-0.0877242
0.100993
-0.0849637
0.113537
-0.0742668
-0.0445411
0.0575145
0.396651
0.040939
0.29266
0.0365408
0.169868
0.0454797
0.0437647
0.0598263
-0.0366749
0.0759901
-0.0850427
0.0917782
-0.103512
0.105489
-0.0986745
0.117317
-0.0860947
-0.0514838
0.0373809
0.393586
0.0269774
0.303064
0.0305463
0.166299
0.044306
0.030005
0.0619612
-0.0543302
0.0799509
-0.103032
0.0963207
-0.119882
0.109824
-0.112178
0.121002
-0.0972723
-0.0577489
0.0177037
0.386839
0.0136671
0.3071
0.0249754
0.154991
0.0428831
0.0120972
0.0635924
-0.0750395
0.0834838
-0.122924
0.10065
-0.137049
0.114106
-0.125634
0.12476
-0.107926
-0.0634173
-0.00052654
0.380861
0.00207219
0.304501
0.0195971
0.137466
0.0408122
-0.00911787
0.0644094
-0.0986367
0.0863559
-0.14487
0.104585
-0.155277
0.118237
-0.139286
0.128578
-0.118267
-0.068597
-0.0159212
0.378691
-0.00709279
0.295673
0.0134339
0.116939
0.0371988
-0.0328828
0.0638219
-0.12526
0.0881665
-0.169215
0.107835
-0.174946
0.122011
-0.153462
0.132328
-0.128584
-0.0734389
-0.0279639
0.380492
-0.0155415
0.283251
0.00538907
0.0960086
0.0312463
-0.05874
0.0613096
-0.155323
0.0885844
-0.19649
0.110174
-0.196535
0.125243
-0.168532
0.135866
-0.139207
-0.0781302
-0.0369831
0.384946
-0.0245888
0.270856
-0.00528766
0.0767075
0.0226985
-0.0867262
0.0568084
-0.189433
0.0875804
-0.227262
0.111568
-0.220523
0.127874
-0.184837
0.139114
-0.150448
-0.0828718
-0.0430735
-0.0348053
-0.0183364
0.01254
0.0511226
0.0856604
0.112292
0.130028
0.142114
0.00974824
0.0237179
-0.0334662
0.00302081
0.00672743
0.000619847
0.00240096
-0.000931898
0.00155174
-0.00118584
0.000253945
0.000651943
-0.00183779
0.00468533
-0.00403339
0.00975752
-0.00507219
0.0139355
-0.00417802
-0.0024697
0.0665202
0.0886178
-0.13142
0.0370864
0.0361612
0.0210758
0.0184115
0.0136921
0.00893547
0.0156164
-0.00167034
0.0240898
-0.0103112
0.0347016
-0.0146452
0.0450589
-0.0154295
0.0532929
-0.012412
-0.00720462
0.127884
0.182433
-0.221699
0.0764093
0.0876359
0.0477662
0.0470547
0.0361318
0.0205698
0.0376802
-0.0032187
0.0474606
-0.0200916
0.0602396
-0.0274242
0.0727813
-0.0279713
0.0833939
-0.0230245
-0.0134792
0.171413
0.282875
-0.271856
0.104834
0.154216
0.0651896
0.0866987
0.0496586
0.0361009
0.0499768
-0.00353693
0.0598688
-0.0299836
0.0740288
-0.0415841
0.0879217
-0.0418642
0.100215
-0.0353181
-0.0207378
0.196287
-0.277939
0.12311
0.0739914
0.0547432
0.0546058
0.06558
0.0809832
0.0957168
0.108885
0.0110143
0.000135826
-0.0111501
0.0121215
-0.00110723
0.0142243
-0.00210281
0.0170617
-0.00283737
0.0204994
-0.00343765
0.0238617
-0.00336238
0.0275382
-0.0036765
0.0299585
-0.0024203
0.0325681
-0.00260951
-0.000898111
0.0289598
-3.03372e-05
-0.0287936
0.0322675
-0.00441489
0.0383998
-0.00823512
0.0470605
-0.011498
0.0579981
-0.0143753
0.0701314
-0.0154957
0.0843605
-0.0179055
0.0981413
-0.0162012
0.114752
-0.0192207
-0.0175657
0.0431813
-0.000854657
-0.0423569
0.0485218
-0.0097554
0.058133
-0.0178463
0.0718682
-0.0252332
0.0893672
-0.0318744
0.109905
-0.036034
0.134054
-0.0420536
0.159528
-0.0416752
0.190189
-0.0498822
-0.0490755
0.0540057
-0.00250185
-0.0523585
0.0610015
-0.0167511
0.0732529
-0.0300978
0.0906283
-0.0426086
0.112562
-0.0538082
0.138947
-0.0624191
0.168307
-0.0714129
0.201271
-0.0746394
0.237212
-0.0858235
-0.083719
0.061972
-0.0594999
0.0702462
0.0842958
0.103769
0.127884
0.156057
0.185795
0.218554
0.247797
0.0675068
-0.0626338
0.0689964
-0.0738694
0.0604998
-0.0633733
0.0703803
0.0532063
-0.0643789
0.0716725
0.0455306
-0.0653565
0.0730322
0.0374177
-0.0661981
0.074311
0.0289274
-0.0666786
0.0751689
0.0202611
-0.0662037
0.0748701
0.0117635
-0.0634368
0.0719345
0.00422032
-0.0550756
0.0626187
-0.0313244
0.0355447
0.0730734
-0.0549522
-0.080755
0.0651297
-0.0554296
0.0567597
-0.056009
0.0480024
-0.0565993
0.038968
-0.0571636
0.0298079
-0.0575185
0.0207184
-0.0571143
0.0119855
-0.0547039
0.00431372
-0.0474038
-0.0270106
0.0743619
-0.0463055
-0.0830085
0.0656076
-0.0466753
0.0567355
-0.0471369
0.047769
-0.0476327
0.0387278
-0.0481225
0.0296488
-0.0484395
0.0206372
-0.0481027
0.011947
-0.0460136
0.00429918
-0.039756
-0.0227115
0.0776654
-0.0373941
-0.0865768
0.0686749
-0.0376848
0.0595619
-0.038024
0.0503031
-0.0383739
0.0408894
-0.0387088
0.0313618
-0.0389118
0.0218635
-0.0386045
0.0127057
-0.0368558
0.00464227
-0.0316925
-0.0180692
0.080587
-0.0281297
-0.0898515
0.0711923
-0.0282901
0.061644
-0.0284756
0.0519356
-0.0286656
0.042083
-0.0288562
0.0321549
-0.0289837
0.0223236
-0.0287732
0.0129337
-0.0274659
0.00474463
-0.0235035
-0.0133246
0.0835273
-0.0185167
-0.0931402
0.073762
-0.0185248
0.0638255
-0.0185392
0.0537136
-0.0185536
0.0434423
-0.0185849
0.0330864
-0.0186277
0.0228529
-0.0185396
0.0131737
-0.0177868
0.00486126
-0.015191
-0.0084633
0.0865528
-0.00853834
-0.0965312
0.0764041
-0.00837609
0.0660613
-0.00819632
0.0555104
-0.00800276
0.0447552
-0.00782968
0.0338626
-0.00773516
0.0230765
-0.00775354
0.0129913
-0.00770162
0.00465654
-0.00685624
-0.00380676
0.08957
0.0017844
-0.0998927
0.0790675
0.00212636
0.0683549
0.0025163
0.0574078
0.00294437
0.0462099
0.00336817
0.0347943
0.00368042
0.0233705
0.00367031
0.012618
0.00305084
0.00404057
0.00172123
0.000233807
0.0924915
0.0123646
-0.103072
0.0817312
0.0128866
0.0707765
0.013471
0.0596123
0.0141086
0.048229
0.0147515
0.0366497
0.0152597
0.0250276
0.0152924
0.0138996
0.0141789
0.00463543
0.0109854
0.00486923
0.0949886
-0.105768
0.0840486
0.0729342
0.0616421
0.0501742
0.0385579
0.0269119
0.0156182
0.0057199
0.013809
-0.132092
-0.0154966
0.0107053
-0.141028
0.00704876
-0.146149
0.00325653
-0.149032