/*--------------------------------*- C++ -*----------------------------------*\
| =========                 |                                                 |
| \\      /  F ield         | OpenFOAM: The Open Source CFD Toolbox           |
|  \\    /   O peration     | Version:  2406                                  |
|   \\  /    A nd           | Website:  www.openfoam.com                      |
|    \\/     M anipulation  |                                                 |
\*---------------------------------------------------------------------------*/
FoamFile
{
    version     2.0;
    format      ascii;
    arch        "LSB;label=32;scalar=64";
    class       volVectorField;
    location    "1.4";
    object      U;
}
// * * * * * * * * * * * * * * * * * * * * * * * * * * * * * * * * * * * * * //

dimensions      [0 1 -1 0 0 0 0];

internalField   nonuniform List<vector> 
1800
(
(0.000810744 -0.00742815 0)
(-0.00221878 -0.0139548 -4.34422e-21)
(-0.00685983 -0.0148008 -7.13963e-20)
(-0.00914436 -0.0139125 7.788e-20)
(0.00113877 -0.00771373 1.1966e-19)
(0.0367607 0.00344338 3.19073e-20)
(0.0963462 0.0135943 -4.26012e-20)
(0.180602 0.0237942 -1.64244e-19)
(0.285141 0.0384974 0)
(0.368322 0.0637312 1.61834e-21)
(-0.00961313 0.00239882 1.09181e-20)
(-0.0127846 -0.00092097 -1.2742e-20)
(-0.00909466 -0.00729137 7.40664e-20)
(0.00413189 -0.0162379 8.73531e-20)
(0.0506859 -0.0268548 -1.30546e-20)
(0.135095 -0.0369524 -1.71275e-19)
(0.249859 -0.0446589 5.18175e-20)
(0.389229 -0.0475271 2.62449e-19)
(0.551669 -0.0361386 -1.47511e-20)
(0.657539 -0.0301697 -2.2067e-20)
(-0.0140363 0.00812822 1.1468e-20)
(-0.0124694 0.00675227 -5.21121e-20)
(0.000605639 0.000439623 -4.57451e-20)
(0.0591509 -0.0116357 2.37802e-20)
(0.173735 -0.0279 -1.6025e-20)
(0.331599 -0.0412808 4.90723e-20)
(0.516771 -0.0478366 -3.10597e-20)
(0.714956 -0.0468781 -2.53915e-19)
(0.930252 -0.0275211 9.06871e-20)
(1.06566 -0.0209068 9.75616e-20)
(-0.0114427 0.00780014 1.43126e-20)
(-0.00354873 0.00903736 7.32894e-20)
(0.054954 -0.00398182 -6.27126e-20)
(0.190001 -0.0203509 -6.06516e-22)
(0.387396 -0.0346283 1.21622e-19)
(0.622053 -0.04117 -3.66274e-20)
(0.869142 -0.0374985 -1.15127e-19)
(1.10844 -0.0249015 -8.57798e-20)
(1.33936 -0.000625378 -1.23585e-20)
(1.49791 0.018276 7.17949e-20)
(-0.00375796 0.00233031 -1.86955e-21)
(0.0300971 -0.00622738 5.37252e-20)
(0.167159 -0.0203865 4.68178e-20)
(0.395794 -0.033051 -9.35558e-20)
(0.680034 -0.0358609 -4.16092e-20)
(0.978357 -0.0260122 6.12833e-20)
(1.25845 -0.00550604 5.20578e-20)
(1.50277 0.0217772 9.81909e-20)
(1.70805 0.0535827 -2.12769e-19)
(1.85595 0.0778083 -1.70248e-19)
(0.00176999 7.48219e-05 4.06241e-22)
(0.105518 -0.0211753 1.53641e-19)
(0.347543 -0.0323316 1.06251e-19)
(0.679245 -0.030648 -1.40715e-19)
(1.03434 -0.0130038 1.32693e-19)
(1.35889 0.0162894 -1.06068e-20)
(1.62628 0.0504226 1.3376e-19)
(1.83253 0.084038 2.17134e-19)
(1.98536 0.11337 -2.95632e-19)
(2.09421 0.135615 -2.30283e-19)
(0.0251054 -0.002474 -4.176e-20)
(0.233791 -0.0305388 -2.68246e-19)
(0.596996 -0.0259141 3.07414e-20)
(1.01632 0.00134516 3.62079e-19)
(1.39715 0.0413831 -2.21261e-20)
(1.69488 0.0835161 -2.55334e-19)
(1.9072 0.120689 -1.65673e-19)
(2.05154 0.150132 4.84563e-19)
(2.14972 0.171787 5.42975e-19)
(2.21694 0.185167 5.10927e-20)
(0.0718978 -0.00505313 4.34736e-20)
(0.415705 -0.0268008 2.56692e-20)
(0.896784 0.00892044 -1.54483e-19)
(1.35585 0.0643538 8.11468e-20)
(1.70421 0.117608 -3.84214e-21)
(1.93606 0.160126 -8.22756e-19)
(2.08143 0.190511 -6.21303e-21)
(2.1735 0.211093 5.92833e-19)
(2.23613 0.224042 -3.61184e-19)
(2.2832 0.231391 -3.60787e-19)
(0.143576 -0.00316148 1.68291e-19)
(0.643028 0.000655161 1.55849e-19)
(1.20337 0.0756286 -3.81809e-19)
(1.64073 0.149714 -9.10088e-20)
(1.92025 0.203455 5.24184e-21)
(2.08348 0.238777 3.06205e-19)
(2.17991 0.260738 -5.57635e-19)
(2.24204 0.274542 -2.81108e-19)
(2.28628 0.282218 6.53624e-19)
(2.32058 0.287429 1.46084e-19)
(0.239377 0.0089514 5.78362e-21)
(0.888392 0.0592971 4.10215e-19)
(1.46849 0.16751 -3.54035e-19)
(1.84601 0.246622 -1.66067e-19)
(2.05617 0.293487 1.80718e-19)
(2.16909 0.319823 -1.89588e-19)
(2.23497 0.33344 3.64424e-19)
(2.27775 0.341156 2.59467e-20)
(2.30569 0.345663 -2.54708e-19)
(2.32796 0.345052 -7.79886e-20)
(-0.00845902 0.170277 7.77311e-22)
(-0.0242881 0.390122 1.62474e-20)
(-0.0472077 0.507968 1.92459e-21)
(-0.0691064 0.568175 -3.4246e-21)
(-0.0896671 0.599983 7.7952e-22)
(-0.108968 0.616443 -9.16584e-23)
(-0.12636 0.623447 -2.41417e-21)
(-0.141284 0.624187 7.56563e-21)
(-0.154096 0.620164 -5.74078e-23)
(-0.166496 0.611854 -1.64367e-20)
(-0.018672 0.173254 -2.44978e-23)
(-0.0468003 0.41007 8.96973e-24)
(-0.0716057 0.539671 -1.00193e-21)
(-0.0924265 0.604682 3.72467e-21)
(-0.110451 0.637887 2.84303e-20)
(-0.126725 0.654279 1.93323e-23)
(-0.141434 0.659985 -3.4502e-20)
(-0.154327 0.658303 0)
(-0.165625 0.651415 -1.5921e-21)
(-0.176794 0.640746 2.75998e-21)
(-0.0263129 0.161381 6.38245e-23)
(-0.0661833 0.40692 2.52684e-20)
(-0.0917283 0.551121 2.32431e-20)
(-0.110274 0.625136 -1.55767e-20)
(-0.124312 0.662589 4.22892e-20)
(-0.135472 0.681422 -7.32753e-21)
(-0.144575 0.689179 4.03559e-20)
(-0.151895 0.68922 2.39099e-20)
(-0.157711 0.683484 9.65222e-20)
(-0.163277 0.673244 1.12604e-19)
(-0.0285831 0.134681 4.88535e-21)
(-0.0776196 0.376136 7.09339e-20)
(-0.102112 0.536076 -8.01463e-21)
(-0.115914 0.623711 6.61927e-21)
(-0.123322 0.668533 -1.02039e-20)
(-0.126837 0.690626 -3.60141e-20)
(-0.127856 0.699877 5.71253e-21)
(-0.127048 0.700938 0)
(-0.124818 0.696336 -1.59686e-19)
(-0.121591 0.687952 -1.72169e-19)
(-0.0234833 0.095122 3.76607e-20)
(-0.0761375 0.313462 -1.4613e-20)
(-0.0985705 0.485871 -6.32324e-20)
(-0.106999 0.591648 -3.35619e-21)
(-0.10697 0.650316 -9.19064e-21)
(-0.102102 0.681732 -5.7883e-20)
(-0.094534 0.697543 2.64832e-20)
(-0.0851701 0.703591 7.90721e-20)
(-0.0739932 0.702779 -2.02834e-19)
(-0.0604785 0.696253 -2.25445e-19)
(-0.0125871 0.0504346 1.96189e-20)
(-0.061338 0.223483 -2.79113e-20)
(-0.0822244 0.396461 6.28078e-20)
(-0.0874482 0.51964 1.53236e-20)
(-0.0813696 0.596612 -3.70505e-20)
(-0.0681633 0.642384 -1.14986e-19)
(-0.0508957 0.668507 -6.23795e-20)
(-0.0311109 0.681896 1.87961e-19)
(-0.00889058 0.686326 -2.36059e-19)
(0.0170763 0.682677 -2.32683e-19)
(-0.00085927 0.0119883 -3.47199e-20)
(-0.0369995 0.122822 6.54506e-20)
(-0.0562721 0.276188 -1.29437e-21)
(-0.0614981 0.405696 -1.09376e-19)
(-0.0529909 0.498458 5.72858e-20)
(-0.0340963 0.560597 4.06491e-20)
(-0.00847062 0.600419 -1.22226e-19)
(0.0215293 0.624336 2.66744e-20)
(0.0555082 0.636242 2.40901e-19)
(0.0960707 0.634921 1.48789e-19)
(0.00424745 -0.00366667 -7.38877e-22)
(-0.00986882 0.039622 -2.49401e-20)
(-0.0258974 0.149381 -7.87984e-20)
(-0.0330576 0.265019 7.06028e-20)
(-0.0262791 0.36043 1.34906e-19)
(-0.0064486 0.43219 -1.05838e-20)
(0.0233971 0.483347 -5.13224e-20)
(0.0605904 0.517955 -5.68539e-20)
(0.10456 0.539006 -4.56478e-20)
(0.158795 0.538565 3.03796e-20)
(0.0126467 -0.0147934 -8.12032e-21)
(0.016629 -0.00620504 -1.27407e-20)
(0.000267821 0.044441 3.39271e-20)
(-0.00923594 0.126207 2.29958e-20)
(-0.00682159 0.205526 6.5055e-21)
(0.00972459 0.271518 -1.42132e-19)
(0.0395737 0.322931 -7.15457e-20)
(0.0806329 0.361307 -8.5626e-20)
(0.133228 0.388447 3.46012e-22)
(0.201225 0.385206 3.63329e-20)
(0.0100325 -0.0163204 -1.17362e-20)
(0.00809382 -0.0150991 -1.01258e-20)
(0.00152706 -0.00894344 9.6293e-20)
(-0.00190744 0.0215479 1.05918e-19)
(-0.00182166 0.067321 -8.15304e-20)
(0.0132966 0.111639 -3.45505e-19)
(0.0467462 0.14873 4.30878e-21)
(0.0979082 0.178299 1.68181e-19)
(0.167817 0.200752 1.68488e-19)
(0.254706 0.197977 8.73684e-20)
(-0.227687 0.551763 -2.3171e-19)
(-0.238955 0.361434 -8.01892e-19)
(-0.194355 0.0735777 -7.10047e-19)
(-0.0814996 -0.185959 8.02079e-19)
(0.134164 -0.345474 -2.47441e-19)
(0.329425 -0.389774 1.60978e-20)
(0.494201 -0.363694 -7.51967e-20)
(0.614692 -0.295244 4.94371e-20)
(0.692814 -0.23557 -3.49889e-20)
(0.757648 -0.126782 -2.6357e-20)
(-0.233807 0.572773 -2.88898e-19)
(-0.279811 0.365566 2.05268e-21)
(-0.233755 0.0537021 -5.79473e-20)
(-0.0897842 -0.236318 -4.39757e-19)
(0.146342 -0.406559 -2.25543e-20)
(0.349943 -0.444141 5.14146e-20)
(0.515744 -0.405748 4.37659e-20)
(0.634713 -0.323507 3.93713e-21)
(0.711359 -0.255659 -6.28418e-20)
(0.776067 -0.136511 5.0804e-20)
(-0.201136 0.602057 4.37003e-20)
(-0.280716 0.382788 9.51758e-19)
(-0.222067 0.0333733 1.89825e-19)
(-0.0447263 -0.28907 -7.12718e-19)
(0.207911 -0.468685 2.17676e-19)
(0.409421 -0.497785 3.41986e-21)
(0.563012 -0.446487 3.06153e-20)
(0.669226 -0.350545 -4.52637e-20)
(0.737951 -0.275241 4.88433e-21)
(0.798731 -0.146234 -3.95812e-23)
(-0.130273 0.629963 2.33284e-19)
(-0.203283 0.403791 -1.46404e-20)
(-0.15289 0.0167381 1.85943e-19)
(0.0627217 -0.343044 4.72992e-19)
(0.32796 -0.530559 -5.31393e-20)
(0.522448 -0.547996 -9.15078e-21)
(0.651548 -0.48242 -2.27595e-20)
(0.729653 -0.373521 0)
(0.780396 -0.29247 0)
(0.829726 -0.155319 -1.27744e-22)
(-0.0311028 0.649174 1.86326e-19)
(-0.102348 0.432718 -5.2975e-19)
(-0.0114745 0.00114279 -7.19224e-21)
(0.220113 -0.395171 -3.48255e-19)
(0.491404 -0.591803 -1.32094e-19)
(0.685043 -0.594208 -1.5317e-19)
(0.790371 -0.510753 1.04424e-20)
(0.828277 -0.389067 -1.50825e-20)
(0.84945 -0.304609 -6.38655e-20)
(0.875226 -0.162632 -2.56101e-21)
(0.0883834 0.659474 1.5607e-19)
(0.0454145 0.459954 -2.12854e-19)
(0.176241 -0.0110607 -1.20563e-18)
(0.407272 -0.442073 1.32462e-20)
(0.670673 -0.65325 4.40774e-19)
(0.867763 -0.639979 -5.71545e-20)
(0.967348 -0.532554 -2.84184e-20)
(0.968892 -0.395166 -6.60706e-20)
(0.954995 -0.308516 1.17338e-21)
(0.943022 -0.166497 -2.92528e-20)
(0.218275 0.650144 -1.27347e-19)
(0.240755 0.48571 -5.09175e-20)
(0.389832 -0.0146183 3.69411e-19)
(0.626312 -0.480054 -1.15448e-19)
(0.867552 -0.71169 -6.18832e-20)
(1.0468 -0.688244 1.68174e-19)
(1.1521 -0.553387 -2.6317e-20)
(1.13721 -0.394199 3.74467e-21)
(1.0972 -0.302678 1.85537e-20)
(1.03938 -0.165261 7.47359e-21)
(0.337156 0.606532 -2.59562e-19)
(0.457952 0.508682 -3.00995e-19)
(0.622251 -0.00259451 6.93349e-19)
(0.888559 -0.505596 4.31769e-20)
(1.10898 -0.758449 -3.24275e-19)
(1.2349 -0.733347 -2.68326e-19)
(1.32519 -0.576034 7.4551e-20)
(1.30758 -0.391739 -1.5604e-20)
(1.26039 -0.289278 1.18803e-21)
(1.16303 -0.158515 -3.93786e-21)
(0.439076 0.532819 -8.29424e-19)
(0.680163 0.520441 -2.03427e-19)
(0.869073 -0.000851523 -4.40298e-19)
(1.17662 -0.520878 6.26536e-19)
(1.39198 -0.788945 -3.62817e-19)
(1.45445 -0.765803 -1.06292e-19)
(1.49354 -0.595901 -1.48129e-19)
(1.46343 -0.390768 1.15985e-20)
(1.42061 -0.272933 1.51923e-20)
(1.30161 -0.147788 8.65755e-21)
(0.491178 0.387909 -1.40796e-19)
(0.828123 0.516405 8.85181e-19)
(1.1066 0.033926 7.57894e-20)
(1.46329 -0.52666 3.36761e-19)
(1.67603 -0.806669 -3.27829e-19)
(1.69607 -0.781657 9.3292e-20)
(1.66966 -0.605904 -3.16829e-19)
(1.60533 -0.389254 -1.99069e-20)
(1.56131 -0.25698 -1.00616e-20)
(1.43678 -0.135559 -2.05171e-20)
(0.695001 0.22711 3.28544e-19)
(1.11434 0.447035 1.80341e-19)
(1.47054 -0.00434343 -5.46821e-20)
(1.85779 -0.567662 2.64975e-20)
(2.03597 -0.827219 7.64685e-20)
(2.00934 -0.784838 -4.41874e-20)
(1.90505 -0.598871 -8.59612e-22)
(1.77746 -0.377741 4.54524e-20)
(1.71144 -0.234683 -1.11433e-19)
(1.58554 -0.119584 1.38476e-20)
(1.20323 0.198309 1.53877e-19)
(1.59241 0.278913 -3.45253e-19)
(2.11105 -0.189411 -5.80024e-19)
(2.42642 -0.689595 1.00424e-19)
(2.44725 -0.865993 -2.67988e-19)
(2.31939 -0.748864 4.16059e-20)
(2.1451 -0.527863 1.84027e-19)
(1.9504 -0.315977 -3.57032e-20)
(1.84104 -0.187135 1.3687e-19)
(1.70876 -0.0946136 2.63509e-20)
(1.85564 0.212298 6.27946e-20)
(2.20373 0.147229 6.38386e-20)
(2.66002 -0.303458 -1.79648e-20)
(2.80112 -0.700572 2.27507e-35)
(2.68038 -0.815614 -7.77372e-20)
(2.46073 -0.680934 -2.99981e-34)
(2.25328 -0.457452 4.8554e-20)
(2.04705 -0.255779 1.09749e-33)
(1.91983 -0.138535 -3.13667e-21)
(1.77967 -0.0684395 3.37502e-21)
(2.34289 0.174099 1.37676e-19)
(2.68531 0.0412967 4.16184e-19)
(2.99706 -0.379537 5.60554e-19)
(3.05328 -0.70652 0)
(2.89238 -0.763052 1.16531e-19)
(2.60229 -0.594166 -9.23113e-20)
(2.3159 -0.367991 -1.80701e-19)
(2.07109 -0.186085 2.99348e-33)
(1.93106 -0.0859194 -8.2006e-20)
(1.79185 -0.0423247 -6.15776e-21)
(2.65469 0.0984594 1.4239e-19)
(2.94498 -0.0478346 -2.09064e-20)
(3.17514 -0.420754 0)
(3.19299 -0.676872 0)
(2.96954 -0.670652 0)
(2.63395 -0.475586 0)
(2.31792 -0.256661 1.16502e-20)
(2.05127 -0.104945 3.33659e-33)
(1.90246 -0.0298594 -5.06554e-21)
(1.76934 -0.0164279 -1.01599e-33)
(2.82667 0.0229071 4.31399e-20)
(3.05396 -0.119849 0)
(3.26538 -0.450168 0)
(3.23031 -0.63463 0)
(2.90771 -0.565648 0)
(2.48854 -0.353215 0)
(2.15265 -0.152012 -2.27073e-20)
(1.91301 -0.0320114 1.28306e-19)
(1.79822 0.0182402 -6.13816e-21)
(1.69872 0.00702019 6.80094e-21)
(2.8803 -0.040617 0)
(3.08548 -0.182655 2.53773e-19)
(3.24507 -0.462309 2.89904e-19)
(3.04059 -0.559892 0)
(2.59992 -0.418464 -2.98245e-20)
(2.15998 -0.200849 -1.06636e-19)
(1.85183 -0.0416902 -1.19098e-19)
(1.66501 0.0312212 -6.10577e-20)
(1.60198 0.0515113 5.08014e-20)
(1.5525 0.0222998 -1.94693e-20)
(2.80681 -0.0973345 5.99918e-20)
(2.97602 -0.235714 -2.48703e-20)
(2.92006 -0.407874 1.91976e-20)
(2.45078 -0.404545 -4.45969e-35)
(1.89065 -0.239724 1.11794e-20)
(1.50266 -0.0651037 -5.24724e-34)
(1.32164 0.0338622 -2.5155e-20)
(1.25422 0.0625795 -6.23651e-20)
(1.26868 0.0603114 -7.09942e-21)
(1.27856 0.0255136 1.41747e-20)
(2.39506 -0.127409 0)
(2.37553 -0.235293 -9.29975e-20)
(1.95285 -0.245528 -6.54144e-20)
(1.27268 -0.141776 0)
(0.813739 -0.0429373 -1.579e-20)
(0.648003 0.0154407 -1.54394e-21)
(0.650547 0.0442242 -2.14075e-20)
(0.706471 0.0485353 1.05611e-20)
(0.784708 0.0401038 -2.29771e-20)
(0.837442 0.0166333 -1.23092e-20)
(1.09931 -0.0866358 2.11288e-20)
(0.744182 -0.0525942 0)
(0.364156 -0.00624838 0)
(0.128642 -0.000507703 0)
(0.0151599 -0.00326603 0)
(-0.00228451 -0.00103268 0)
(0.0493462 0.00903706 -2.44299e-20)
(0.126516 0.0123178 9.2815e-35)
(0.202045 0.0101423 -7.89193e-21)
(0.254503 0.00405571 -1.50007e-20)
(2.36388 0.343089 3.74602e-19)
(2.36515 0.291452 1.5258e-19)
(2.35315 0.241471 2.81619e-19)
(2.3235 0.20669 -3.02427e-19)
(2.25765 0.173648 7.53604e-20)
(2.15732 0.147552 3.80428e-20)
(1.94828 0.0907484 4.08283e-20)
(1.64881 0.0699079 2.08464e-20)
(1.25722 -0.0254499 2.68503e-20)
(0.699598 -0.00186418 -4.67055e-21)
(2.37799 0.308844 -1.81886e-19)
(2.40464 0.283776 3.58833e-20)
(2.41503 0.243245 1.35218e-19)
(2.40652 0.219982 1.10409e-19)
(2.39247 0.183277 -1.82689e-19)
(2.33117 0.179254 9.55429e-20)
(2.29055 0.140586 -1.2118e-20)
(2.08567 0.125122 -9.0113e-21)
(1.99412 0.103022 -1.22743e-20)
(1.53627 0.0316811 6.05858e-21)
(2.43184 0.271603 2.5921e-20)
(2.45203 0.251938 -1.25852e-19)
(2.48807 0.220683 -1.71653e-19)
(2.47428 0.20297 3.55224e-19)
(2.50423 0.178596 -1.19748e-20)
(2.44315 0.161043 1.23615e-20)
(2.47708 0.160864 -6.92017e-20)
(2.34523 0.119971 -4.94643e-20)
(2.35557 0.152096 8.08094e-21)
(2.11181 0.0661628 -7.30794e-21)
(2.51119 0.236204 4.56456e-20)
(2.52375 0.215385 -1.46779e-19)
(2.57395 0.194334 2.36136e-20)
(2.56241 0.168243 -1.13634e-19)
(2.60673 0.161711 1.75864e-19)
(2.56699 0.125474 -5.2731e-20)
(2.60653 0.145788 3.76758e-20)
(2.53884 0.0928103 -4.73114e-20)
(2.55939 0.134404 -9.45324e-20)
(2.4521 0.0677672 -4.84468e-20)
(2.56585 0.19831 8.7605e-20)
(2.58532 0.175403 -2.41593e-19)
(2.63536 0.162933 -2.25496e-20)
(2.6416 0.132375 -1.26166e-20)
(2.68371 0.132515 -4.77846e-21)
(2.67522 0.0923944 -1.54571e-21)
(2.70858 0.10924 2.16209e-20)
(2.6855 0.0621914 -3.86893e-20)
(2.70676 0.0880494 -6.24647e-20)
(2.66669 0.0439144 -8.4726e-20)
(2.5725 0.157299 1.58129e-19)
(2.6005 0.135577 2.80183e-20)
(2.64977 0.12677 -1.70696e-19)
(2.6719 0.0989376 1.03345e-19)
(2.71452 0.0968589 8.06629e-20)
(2.72994 0.0637376 -6.65771e-20)
(2.76404 0.0684944 9.33628e-20)
(2.77249 0.0336822 4.91902e-20)
(2.79704 0.0409008 -1.20946e-19)
(2.79814 0.00984334 -1.50006e-19)
(2.52056 0.112678 1.69383e-20)
(2.55483 0.0944342 5.13909e-20)
(2.60436 0.0865064 -6.63084e-20)
(2.63735 0.0632007 -3.71756e-20)
(2.68286 0.0582793 8.07608e-20)
(2.71543 0.0318234 3.99491e-20)
(2.75339 0.0289241 7.95755e-20)
(2.78671 0.00157355 5.97377e-20)
(2.81387 -0.00163616 7.86268e-21)
(2.85018 -0.0280648 4.87827e-20)
(2.38005 0.0708003 2.08859e-20)
(2.42549 0.0576673 3.56688e-23)
(2.46706 0.0492638 -7.48847e-20)
(2.51544 0.0308745 -6.60632e-20)
(2.55359 0.023636 3.62005e-20)
(2.60805 0.00277885 -3.46404e-20)
(2.63828 -0.00510283 -3.25867e-20)
(2.70124 -0.0277435 1.01125e-19)
(2.71983 -0.0377525 -8.84052e-20)
(2.79305 -0.0624478 -1.04457e-19)
(2.0488 0.0175886 5.90287e-20)
(2.11119 0.0147035 -2.85912e-20)
(2.1247 0.00317868 -2.68501e-20)
(2.1906 -0.00188417 3.18369e-20)
(2.20113 -0.0136955 -1.89963e-20)
(2.2729 -0.0211594 -4.88941e-21)
(2.2764 -0.0340273 -3.28065e-20)
(2.35678 -0.0442245 2.32555e-20)
(2.34854 -0.0601684 2.07832e-20)
(2.43765 -0.0741387 -2.34084e-20)
(1.19932 -0.00297174 0)
(1.22433 -0.00631859 2.96913e-21)
(1.21285 -0.00951738 -3.93311e-20)
(1.24403 -0.0134284 -6.12516e-20)
(1.2207 -0.0171854 3.55551e-20)
(1.25971 -0.0203985 1.48802e-19)
(1.22186 -0.0249459 -1.0763e-20)
(1.26997 -0.0275893 -9.18159e-20)
(1.21428 -0.0369651 -1.29406e-20)
(1.26986 -0.0366016 4.4789e-21)
(1.41549 0.841119 -4.66912e-20)
(1.39831 0.883068 -9.6934e-20)
(1.39686 0.928272 -7.02875e-19)
(1.3989 0.978457 2.22653e-19)
(1.39817 1.03014 1.07617e-18)
(1.38822 1.078 1.49375e-19)
(1.35736 1.10776 -7.93363e-20)
(1.28243 1.09571 -3.27318e-19)
(1.09142 0.97574 -3.29905e-19)
(0.581066 0.539376 -4.46693e-20)
(1.57451 0.813795 -4.05539e-19)
(1.55936 0.854153 1.16481e-18)
(1.55155 0.896519 5.18245e-19)
(1.54976 0.944631 -7.70667e-19)
(1.54921 0.995576 2.55382e-19)
(1.54064 1.04267 2.4339e-19)
(1.5088 1.07011 7.9535e-19)
(1.42727 1.05598 -1.1593e-18)
(1.21403 0.934674 -5.17072e-20)
(0.639788 0.508588 2.03021e-19)
(1.72338 0.783633 1.11731e-19)
(1.71361 0.822969 9.06742e-19)
(1.70457 0.862868 1.74762e-20)
(1.70046 0.906641 -4.48361e-19)
(1.69871 0.952729 1.3156e-19)
(1.68905 0.994673 -6.51699e-20)
(1.65381 1.01646 -4.79483e-20)
(1.56338 0.998742 -4.02483e-19)
(1.32466 0.875567 2.9144e-20)
(0.687436 0.465799 -2.16448e-19)
(1.85705 0.747344 -4.58455e-19)
(1.85253 0.784405 4.18857e-19)
(1.84536 0.820697 -6.41041e-19)
(1.84078 0.859077 -2.3726e-19)
(1.83785 0.899078 1.37974e-18)
(1.82586 0.934103 -8.65841e-19)
(1.78537 0.948482 -9.76443e-19)
(1.68468 0.925653 4.22881e-19)
(1.41591 0.800254 -1.25392e-19)
(0.71783 0.413296 -6.24446e-20)
(1.97412 0.702336 5.70026e-19)
(1.97323 0.735455 4.56842e-19)
(1.9686 0.76767 -2.1397e-19)
(1.96466 0.801202 8.34302e-19)
(1.96029 0.83474 1.62156e-19)
(1.94377 0.861061 -3.7301e-19)
(1.89595 0.86591 5.38446e-19)
(1.78256 0.837697 -6.47102e-19)
(1.47754 0.7104 -7.35355e-19)
(0.724832 0.351112 -5.86209e-21)
(2.0752 0.649992 7.55736e-19)
(2.07818 0.679384 9.40359e-19)
(2.07719 0.706659 -9.49614e-19)
(2.07415 0.732902 -9.6304e-19)
(2.06626 0.758326 2.30256e-19)
(2.0426 0.774083 -6.92119e-19)
(1.98327 0.770794 -4.4299e-19)
(1.85133 0.737334 3.78314e-19)
(1.50443 0.606122 7.13465e-20)
(0.704282 0.281244 -1.16376e-20)
(2.16416 0.594481 7.02238e-19)
(2.16486 0.617497 -9.33876e-19)
(2.15891 0.639238 -8.18382e-19)
(2.15103 0.662055 6.23606e-19)
(2.14067 0.678835 -5.49503e-19)
(2.10613 0.681851 1.62561e-18)
(2.03884 0.670436 -2.408e-19)
(1.88108 0.629452 -1.31528e-18)
(1.48613 0.492288 5.75747e-19)
(0.652343 0.208712 3.30537e-20)
(2.23122 0.528597 -4.61798e-19)
(2.23378 0.54708 -6.44286e-19)
(2.23634 0.564361 -8.40164e-19)
(2.23331 0.574055 3.04686e-20)
(2.19691 0.58213 2.81031e-19)
(2.14711 0.575829 2.96291e-19)
(2.06393 0.560796 6.7252e-19)
(1.86742 0.51116 -3.45246e-19)
(1.41789 0.371883 2.04084e-20)
(0.571489 0.139399 6.32856e-20)
(2.29042 0.47401 2.24409e-19)
(2.28865 0.488519 -7.43195e-20)
(2.27283 0.498471 3.66158e-19)
(2.24314 0.494313 8.46037e-19)
(2.20796 0.490706 -3.5701e-19)
(2.15864 0.481071 -1.42464e-18)
(2.04837 0.455773 1.00459e-18)
(1.79974 0.39277 9.04472e-19)
(1.29409 0.254638 -4.6152e-19)
(0.467566 0.0803343 -1.12564e-20)
(2.32716 0.410493 -4.48046e-19)
(2.30781 0.414414 -4.70353e-21)
(2.28104 0.413825 5.69558e-19)
(2.25042 0.410937 5.81826e-19)
(2.20825 0.40386 4.31111e-19)
(2.13246 0.387132 -6.81168e-19)
(1.97837 0.350312 3.75992e-20)
(1.66801 0.275885 -3.46566e-19)
(1.11422 0.147132 -5.16817e-19)
(0.351819 0.0362376 -1.155e-20)
(0.486418 0.338333 2.9586e-20)
(0.449373 0.349429 -1.36903e-19)
(0.408446 0.361556 -2.50642e-20)
(0.364111 0.374586 9.3222e-20)
(0.316094 0.387842 -2.90404e-20)
(0.263793 0.39916 -3.82934e-20)
(0.206546 0.402677 -2.76533e-20)
(0.143044 0.385329 -2.94507e-20)
(0.0747702 0.323025 1.0058e-19)
(0.0281184 0.169729 8.74942e-21)
(0.531247 0.435339 -2.07804e-21)
(0.494445 0.451563 2.57874e-20)
(0.454334 0.468977 -2.23555e-20)
(0.411039 0.48746 1.10314e-20)
(0.364074 0.506348 4.8116e-20)
(0.312611 0.523338 3.15203e-20)
(0.255451 0.531794 1.01426e-19)
(0.190486 0.516262 -6.13902e-20)
(0.11576 0.444945 6.9536e-20)
(0.0497802 0.244036 -5.94752e-21)
(0.593422 0.526311 -8.26877e-20)
(0.558013 0.547487 1.7271e-20)
(0.519851 0.570013 4.63497e-20)
(0.478653 0.593872 -3.71173e-21)
(0.433676 0.618448 5.78971e-21)
(0.383778 0.641346 1.41503e-19)
(0.327065 0.65526 -3.52084e-20)
(0.260312 0.642464 -5.41319e-20)
(0.177041 0.563621 -9.65732e-23)
(0.0834944 0.316503 1.47997e-20)
(0.665553 0.612226 2.60202e-20)
(0.631977 0.638403 -4.06593e-20)
(0.596716 0.665821 -1.13413e-19)
(0.558752 0.69469 -3.63247e-20)
(0.516937 0.724508 -8.37843e-20)
(0.469816 0.752775 -7.77671e-20)
(0.414756 0.771498 -2.31054e-19)
(0.347062 0.760867 7.75323e-20)
(0.254713 0.674733 -5.56663e-20)
(0.127293 0.383992 -9.52424e-20)
(0.748501 0.686808 3.43897e-20)
(0.717094 0.717372 -1.30025e-19)
(0.68544 0.749175 7.20581e-20)
(0.651834 0.782849 -5.92446e-20)
(0.614628 0.818011 -1.06972e-19)
(0.571836 0.851969 1.54269e-19)
(0.519842 0.87591 8.87281e-20)
(0.452036 0.867932 -1.27345e-19)
(0.34969 0.775577 -2.61173e-19)
(0.181053 0.444379 4.82754e-20)
(0.842512 0.755891 1.39828e-20)
(0.812729 0.790501 8.88575e-21)
(0.783811 0.82542 3.61347e-20)
(0.753513 0.862192 5.37405e-20)
(0.720227 0.900965 1.99192e-19)
(0.681871 0.938869 -1.93164e-19)
(0.633846 0.965973 -1.36299e-19)
(0.567071 0.958562 -4.59866e-20)
(0.454838 0.85941 1.11979e-19)
(0.240692 0.492709 1.53807e-19)
(0.947372 0.806755 -1.04485e-19)
(0.922961 0.845133 5.55728e-20)
(0.900438 0.883287 2.5372e-19)
(0.876081 0.923009 -1.61841e-19)
(0.847727 0.964715 -4.01772e-19)
(0.813287 1.00567 1.8977e-19)
(0.767731 1.03525 6.14581e-19)
(0.699879 1.0283 1.56794e-19)
(0.574169 0.924266 -4.10446e-20)
(0.307007 0.529259 2.17942e-19)
(1.0509 0.851206 -2.69914e-19)
(1.02816 0.8911 -9.32845e-20)
(1.01085 0.930417 2.7336e-19)
(0.993983 0.972042 -1.11145e-19)
(0.973948 1.01597 9.25604e-20)
(0.947087 1.05858 4.02029e-19)
(0.906717 1.08841 -4.39682e-19)
(0.838953 1.07997 -3.98408e-19)
(0.699516 0.970158 3.39433e-19)
(0.376136 0.552947 -9.18732e-22)
(1.16618 0.869162 -1.51384e-20)
(1.15236 0.911354 4.16619e-20)
(1.14177 0.950962 -2.25689e-19)
(1.12986 0.993278 -8.19287e-20)
(1.11454 1.0393 4.92448e-19)
(1.09243 1.08466 1.46918e-19)
(1.05531 1.11605 -1.25891e-19)
(0.985921 1.10729 0)
(0.830794 0.993566 -2.19905e-19)
(0.446915 0.562302 -1.12702e-19)
(1.25748 0.873994 0)
(1.25215 0.917659 0)
(1.25644 0.959759 6.51946e-19)
(1.25787 1.0034 1.50968e-19)
(1.25287 1.04957 -2.32428e-19)
(1.23838 1.09444 4.19923e-19)
(1.20559 1.12429 -3.01801e-19)
(1.13454 1.11349 -8.14436e-19)
(0.96266 0.995903 4.1387e-19)
(0.516146 0.557834 2.13897e-19)
(0.984413 -0.0173824 -9.73985e-21)
(1.03089 0.0136559 -1.10911e-20)
(1.03105 0.131043 6.84639e-21)
(1.01701 0.215781 3.11461e-21)
(0.988094 0.23405 1.26902e-20)
(0.949447 0.234695 2.39123e-20)
(0.918757 0.219665 -1.22915e-20)
(0.855431 0.229807 -1.53135e-20)
(0.80174 0.246687 -7.60038e-20)
(0.650892 0.283507 5.1785e-20)
(0.98407 -0.0200566 -3.85533e-22)
(1.03131 0.00892949 8.46184e-21)
(1.03023 0.132432 1.29448e-22)
(1.01573 0.222982 6.48268e-21)
(0.988045 0.243151 9.5501e-21)
(0.949602 0.244732 -3.56811e-20)
(0.92281 0.232273 -1.38063e-20)
(0.86698 0.246252 3.35449e-22)
(0.820219 0.278666 1.94027e-19)
(0.690918 0.3495 3.0232e-21)
(0.983457 -0.022802 9.68829e-22)
(1.03233 0.0047586 1.53802e-20)
(1.02999 0.134565 -6.29472e-21)
(1.01528 0.230559 -8.50745e-22)
(0.98803 0.252132 -1.15177e-20)
(0.949297 0.254313 2.46793e-21)
(0.925508 0.243074 1.79902e-20)
(0.878848 0.261183 -1.67276e-20)
(0.837808 0.307803 1.07111e-19)
(0.740674 0.41177 -2.50973e-19)
(0.982489 -0.0256587 1.83444e-21)
(1.03391 0.00106689 -1.26867e-21)
(1.03047 0.137457 -7.45045e-21)
(1.01541 0.238634 -1.46643e-20)
(0.987793 0.261113 2.48161e-20)
(0.948829 0.263542 2.35846e-20)
(0.92767 0.251946 -2.33508e-20)
(0.891043 0.274942 8.5041e-20)
(0.855227 0.333285 -9.74701e-20)
(0.798521 0.470339 -2.69418e-19)
(0.981084 -0.0286505 5.35022e-22)
(1.03608 -0.00225809 -1.51637e-20)
(1.03181 0.141151 2.28268e-21)
(1.01587 0.247356 2.54047e-20)
(0.987456 0.270112 9.56138e-21)
(0.948907 0.272304 5.2854e-20)
(0.930139 0.258841 2.80681e-20)
(0.903616 0.287926 7.06207e-20)
(0.872156 0.354826 -2.65153e-21)
(0.864652 0.522894 2.05299e-19)
(0.979182 -0.0317998 -2.12524e-22)
(1.03891 -0.00534859 2.53688e-22)
(1.03394 0.14572 4.29766e-22)
(1.01648 0.256817 7.17854e-21)
(0.987743 0.27895 -3.32496e-20)
(0.950441 0.280422 7.82414e-21)
(0.933611 0.264007 -4.67983e-21)
(0.916163 0.300588 -2.09105e-19)
(0.88973 0.371553 0)
(0.940522 0.572709 -2.57077e-20)
(0.976809 -0.0350972 -1.25928e-22)
(1.04215 -0.0083283 6.0207e-21)
(1.03638 0.151232 7.55848e-22)
(1.01739 0.266894 -3.55037e-20)
(0.989757 0.287293 -1.21744e-20)
(0.954127 0.28785 -6.60888e-20)
(0.938863 0.267922 4.68347e-21)
(0.928531 0.313067 5.51055e-21)
(0.910907 0.384201 -2.27266e-21)
(1.01622 0.612047 7.73143e-19)
(0.974146 -0.0384487 -8.54545e-21)
(1.04497 -0.0113287 6.76912e-21)
(1.03869 0.157567 -1.09502e-21)
(1.01926 0.277129 1.76266e-20)
(0.994528 0.294815 -5.17712e-20)
(0.960277 0.294534 1.51702e-20)
(0.947158 0.270914 -3.16195e-21)
(0.941727 0.325174 2.44402e-20)
(0.936586 0.391551 1.32771e-19)
(1.10633 0.657364 -4.17557e-20)
(0.971578 -0.0416538 3.04195e-21)
(1.04584 -0.0143531 -4.01883e-21)
(1.04086 0.164431 1.05467e-21)
(1.02313 0.286967 3.11611e-20)
(1.00292 0.301197 5.28196e-21)
(0.969232 0.300091 2.52061e-20)
(0.960533 0.273014 -4.88484e-20)
(0.957406 0.335942 6.34797e-20)
(0.97266 0.389847 2.62914e-19)
(1.1746 0.676564 -6.36312e-19)
(0.969712 -0.0444885 7.30313e-21)
(1.04323 -0.0162826 -5.66864e-21)
(1.04331 0.172772 5.14563e-22)
(1.03 0.296757 -9.02205e-21)
(1.01608 0.306043 5.75725e-20)
(0.983235 0.304305 -3.42241e-20)
(0.982394 0.274959 -1.63537e-20)
(0.981327 0.346657 3.69478e-20)
(1.01938 0.404793 -1.29905e-19)
(1.29235 0.731688 3.57147e-19)
(0.968908 -0.0471884 -1.73852e-21)
(1.034 -0.0218491 -1.26019e-21)
(1.04773 0.174606 -5.60647e-21)
(1.04526 0.304403 -2.88467e-20)
(1.04506 0.310776 -3.3509e-20)
(1.01866 0.311946 -4.58495e-20)
(1.03375 0.270732 1.57643e-20)
(1.03868 0.354115 -1.34837e-19)
(1.07021 0.34647 -4.67774e-19)
(1.28768 0.720425 -1.09266e-19)
(0.969137 -0.048751 -1.26749e-20)
(1.01481 -0.032289 -4.64579e-21)
(1.0521 0.161653 1.99237e-21)
(1.0731 0.304661 1.41777e-21)
(1.12404 0.307057 1.63673e-20)
(1.10104 0.317008 6.20363e-20)
(1.1912 0.255969 1.59514e-20)
(1.15462 0.354695 1.04005e-19)
(1.25308 0.311284 1.95413e-19)
(1.30472 0.60766 2.74739e-19)
(0.969288 -0.0473645 -2.05119e-21)
(0.994164 -0.0412532 -2.47985e-21)
(1.05795 0.139072 2.68319e-21)
(1.10424 0.288424 5.92167e-21)
(1.2539 0.291704 3.81523e-35)
(1.17992 0.303047 -8.11252e-21)
(1.43446 0.237476 -4.35814e-34)
(1.25459 0.345652 1.66681e-20)
(1.53643 0.288813 -4.30747e-20)
(1.41989 0.514262 -2.19004e-19)
(0.970191 -0.0419745 2.20025e-20)
(0.976676 -0.0510053 -2.34076e-35)
(1.05993 0.105866 -2.71649e-21)
(1.13099 0.245006 3.17643e-21)
(1.3847 0.267409 -1.04964e-20)
(1.24377 0.266139 2.94865e-21)
(1.65193 0.213409 -5.31919e-34)
(1.35832 0.329948 -5.02493e-20)
(1.76373 0.254494 -1.10299e-19)
(1.61135 0.443194 2.41576e-19)
(0.972309 -0.0342947 0)
(0.971267 -0.0590871 -7.45487e-35)
(1.05332 0.0647058 0)
(1.15743 0.178609 0)
(1.45237 0.23639 0)
(1.32758 0.216775 0)
(1.74094 0.181931 -3.46268e-34)
(1.4927 0.306995 0)
(1.8645 0.209243 -1.66471e-20)
(1.78462 0.383468 1.42808e-19)
(0.974391 -0.0283508 2.87989e-21)
(0.982604 -0.0649616 -6.54469e-21)
(1.04883 0.0200101 -3.57531e-21)
(1.17489 0.10265 0)
(1.45481 0.196608 0)
(1.41266 0.164036 7.08779e-21)
(1.73243 0.147486 3.18681e-20)
(1.62371 0.276626 -1.2401e-20)
(1.88128 0.16827 -2.55517e-20)
(1.90362 0.319421 9.6589e-20)
(0.97489 -0.0269293 -5.71544e-20)
(1.01227 -0.0720079 5.77252e-21)
(1.05115 -0.0256704 -4.79182e-21)
(1.17284 0.032862 -2.58295e-20)
(1.39725 0.142406 -1.68201e-20)
(1.45561 0.112062 3.20289e-21)
(1.65439 0.110101 -3.14348e-20)
(1.69023 0.236307 -1.27297e-20)
(1.84705 0.131986 -3.59913e-20)
(1.96975 0.250005 1.16844e-19)
(0.972058 -0.029688 -5.14827e-21)
(1.04489 -0.0753895 -1.13717e-20)
(1.03815 -0.0574827 -5.96203e-21)
(1.13414 -0.012782 -5.07247e-21)
(1.25425 0.0850804 -1.59236e-35)
(1.4274 0.0626169 7.87434e-21)
(1.46082 0.0742248 -8.53542e-34)
(1.65649 0.18663 -1.12682e-20)
(1.73784 0.0910323 1.74916e-20)
(1.95247 0.17747 2.27063e-20)
(0.958611 -0.0479095 1.34734e-19)
(1.05124 -0.0767329 -5.24036e-21)
(0.953925 -0.0735056 -7.06371e-21)
(0.974796 -0.0331454 1.07495e-20)
(0.993675 0.0283663 6.96553e-21)
(1.19874 0.0213155 1.22403e-20)
(1.08685 0.0464004 1.31487e-20)
(1.44443 0.0997274 -2.78673e-20)
(1.44106 0.0447689 -2.74838e-20)
(1.7229 0.0963542 7.37676e-20)
(0.872771 -0.0325266 6.51325e-21)
(0.856694 -0.0573337 -5.34105e-35)
(0.580311 -0.04752 -7.4187e-21)
(0.498 -0.014477 0)
(0.48265 0.00479038 0)
(0.578197 0.00852774 8.21134e-21)
(0.531122 0.0166902 -7.16885e-36)
(0.795929 0.0264203 -1.05564e-20)
(0.788557 0.0148978 -2.68675e-20)
(1.01239 0.0358791 -3.73786e-20)
(1.51133 0.735762 1.48233e-19)
(1.62248 0.720089 -5.68025e-20)
(1.74729 0.696207 -3.26698e-21)
(1.86638 0.66511 5.5989e-20)
(1.97441 0.627493 -2.30216e-19)