/*--------------------------------*- C++ -*----------------------------------*\
| =========                 |                                                 |
| \\      /  F ield         | OpenFOAM: The Open Source CFD Toolbox           |
|  \\    /   O peration     | Version:  2406                                  |
|   \\  /    A nd           | Website:  www.openfoam.com                      |
|    \\/     M anipulation  |                                                 |
\*---------------------------------------------------------------------------*/
FoamFile
{
    version     2.0;
    format      ascii;
    arch        "LSB;label=32;scalar=64";
    class       volVectorField;
    location    "0.35";
    object      flux;
}
// * * * * * * * * * * * * * * * * * * * * * * * * * * * * * * * * * * * * * //

dimensions      [0 1 -1 1 0 0 0];

internalField   nonuniform List<vector> 
2500
(
(0.00177077 0.00177077 0)
(0.00528264 0.00178571 0)
(0.00871599 0.00181584 0)
(0.012023 0.00186035 0)
(0.0151506 0.0019186 0)
(0.0180515 0.00198973 0)
(0.0206809 0.00207264 0)
(0.0229975 0.00216607 0)
(0.0249642 0.00226858 0)
(0.0265486 0.00237858 0)
(0.0277235 0.00249437 0)
(0.0284676 0.00261415 0)
(0.0287661 0.00273603 0)
(0.0286109 0.0028581 0)
(0.028001 0.00297843 0)
(0.0269431 0.00309512 0)
(0.0254509 0.00320628 0)
(0.023546 0.00331016 0)
(0.0212569 0.00340508 0)
(0.018619 0.0034895 0)
(0.0156743 0.00356206 0)
(0.0124702 0.00362158 0)
(0.00905909 0.00366709 0)
(0.00549715 0.00369786 0)
(0.00184356 0.00371338 0)
(-0.00184079 0.00371339 0)
(-0.00549443 0.0036979 0)
(-0.00905646 0.00366716 0)
(-0.0124677 0.00362167 0)
(-0.015672 0.00356218 0)
(-0.0186169 0.00348964 0)
(-0.021255 0.00340524 0)
(-0.0235444 0.00331035 0)
(-0.0254496 0.00320649 0)
(-0.026942 0.00309534 0)
(-0.0280002 0.00297867 0)
(-0.0286103 0.00285835 0)
(-0.0287658 0.00273629 0)
(-0.0284676 0.00261442 0)
(-0.0277237 0.00249465 0)
(-0.026549 0.00237887 0)
(-0.0249648 0.00226888 0)
(-0.0229983 0.00216639 0)
(-0.0206819 0.00207298 0)
(-0.0180528 0.00199012 0)
(-0.0151523 0.00191908 0)
(-0.0120253 0.00186097 0)
(-0.00871929 0.00181671 0)
(-0.00528412 0.00178681 0)
(-0.00177028 0.00177077 0)
(0.00178571 0.00528264 0)
(0.0053277 0.0053277 0)
(0.00879062 0.00541755 0)
(0.0121258 0.00555042 0)
(0.01528 0.00572435 0)
(0.0182055 0.0059367 0)
(0.0208572 0.00618425 0)
(0.0231934 0.00646319 0)
(0.0251767 0.00676924 0)
(0.0267744 0.00709766 0)
(0.0279591 0.00744337 0)
(0.0287093 0.00780096 0)
(0.02901 0.00816484 0)
(0.0288533 0.00852929 0)
(0.028238 0.00888854 0)
(0.0271709 0.00923688 0)
(0.025666 0.00956877 0)
(0.0237448 0.00987888 0)
(0.0214362 0.0101622 0)
(0.018776 0.0104143 0)
(0.0158064 0.0106309 0)
(0.0125753 0.0108085 0)
(0.00913537 0.0109444 0)
(0.00554344 0.0110362 0)
(0.0018591 0.0110825 0)
(-0.00185627 0.0110825 0)
(-0.00554066 0.0110363 0)
(-0.00913269 0.0109445 0)
(-0.0125727 0.0108086 0)
(-0.015804 0.010631 0)
(-0.0187739 0.0104144 0)
(-0.0214343 0.0101624 0)
(-0.0237431 0.00987908 0)
(-0.0256646 0.009569 0)
(-0.0271698 0.00923715 0)
(-0.0282372 0.00888884 0)
(-0.0288527 0.00852962 0)
(-0.0290098 0.00816521 0)
(-0.0287092 0.00780137 0)
(-0.0279592 0.00744382 0)
(-0.0267748 0.00709817 0)
(-0.0251773 0.00676981 0)
(-0.0231942 0.00646384 0)
(-0.0208582 0.00618501 0)
(-0.0182067 0.00593763 0)
(-0.0152815 0.00572553 0)
(-0.0121276 0.00555205 0)
(-0.00879346 0.00541995 0)
(-0.00533005 0.00533127 0)
(-0.00178631 0.00528534 0)
(0.00181584 0.00871599 0)
(0.00541755 0.00879062 0)
(0.0089387 0.0089387 0)
(0.0123298 0.00915787 0)
(0.0155369 0.00944481 0)
(0.0185114 0.00979517 0)
(0.0212073 0.0102036 0)
(0.0235825 0.0106638 0)
(0.0255987 0.0111687 0)
(0.0272227 0.0117106 0)
(0.0284268 0.012281 0)
(0.0291891 0.0128709 0)
(0.0294944 0.0134713 0)
(0.0293346 0.0140725 0)
(0.0287086 0.0146652 0)
(0.0276233 0.0152399 0)
(0.0260929 0.0157875 0)
(0.0241394 0.0162991 0)
(0.0217922 0.0167666 0)
(0.0190877 0.0171824 0)
(0.0160686 0.0175397 0)
(0.0127838 0.0178328 0)
(0.00928678 0.018057 0)
(0.00563528 0.0182084 0)
(0.00188987 0.0182848 0)
(-0.00188705 0.0182848 0)
(-0.00563251 0.0182085 0)
(-0.0092841 0.018057 0)
(-0.0127812 0.0178329 0)
(-0.0160662 0.0175398 0)
(-0.0190855 0.0171825 0)
(-0.0217903 0.0167667 0)
(-0.0241378 0.0162993 0)
(-0.0260915 0.0157877 0)
(-0.0276222 0.0152402 0)
(-0.0287078 0.0146656 0)
(-0.029334 0.0140729 0)
(-0.0294941 0.0134717 0)
(-0.029189 0.0128715 0)
(-0.0284269 0.0122816 0)
(-0.027223 0.0117113 0)
(-0.0255992 0.0111696 0)
(-0.0235831 0.0106648 0)
(-0.0212081 0.0102048 0)
(-0.0185123 0.00979658 0)
(-0.0155379 0.00944659 0)
(-0.0123308 0.00916019 0)
(-0.00894007 0.00894191 0)
(-0.00541873 0.00879521 0)
(-0.00181621 0.008721 0)
(0.00186035 0.012023 0)
(0.00555042 0.0121258 0)
(0.00915787 0.0123298 0)
(0.0126319 0.0126319 0)
(0.0159173 0.0130274 0)
(0.0189643 0.0135104 0)
(0.0217258 0.0140734 0)
(0.0241586 0.0147078 0)
(0.0262235 0.0154038 0)
(0.0278866 0.0161508 0)
(0.0291194 0.016937 0)
(0.0298996 0.0177503 0)
(0.0302117 0.0185779 0)
(0.0300472 0.0194067 0)
(0.0294054 0.0202238 0)
(0.0282932 0.021016 0)
(0.0267251 0.0217708 0)
(0.0247239 0.022476 0)
(0.0223194 0.0231204 0)
(0.0195491 0.0236935 0)
(0.0164569 0.0241861 0)
(0.0130925 0.0245902 0)
(0.00951099 0.0248991 0)
(0.0057713 0.025108 0)
(0.00193547 0.0252133 0)
(-0.00193262 0.0252133 0)
(-0.00576849 0.025108 0)
(-0.00950827 0.0248993 0)
(-0.0130899 0.0245904 0)
(-0.0164545 0.0241864 0)
(-0.0195469 0.0236938 0)
(-0.0223174 0.0231208 0)
(-0.0247221 0.0224765 0)
(-0.0267236 0.0217713 0)
(-0.028292 0.0210166 0)
(-0.0294045 0.0202245 0)
(-0.0300466 0.0194076 0)
(-0.0302112 0.0185788 0)
(-0.0298994 0.0177514 0)
(-0.0291194 0.0169382 0)
(-0.0278868 0.0161521 0)
(-0.0262239 0.0154053 0)
(-0.024159 0.0147094 0)
(-0.0217264 0.0140752 0)
(-0.0189649 0.0135125 0)
(-0.0159179 0.0130299 0)
(-0.0126323 0.0126348 0)
(-0.00915843 0.0123334 0)
(-0.00555096 0.01213 0)
(-0.00186052 0.0120276 0)
(0.0019186 0.0151506 0)
(0.00572435 0.01528 0)
(0.00944481 0.0155369 0)
(0.0130274 0.0159173 0)
(0.0164154 0.0164154 0)
(0.0195574 0.0170236 0)
(0.0224048 0.0177326 0)
(0.024913 0.0185316 0)
(0.0270417 0.0194082 0)
(0.0287559 0.0203488 0)
(0.0300263 0.0213389 0)
(0.0308299 0.0223631 0)
(0.0311508 0.0234053 0)
(0.0309804 0.024449 0)
(0.0303179 0.0254779 0)
(0.0291703 0.0264755 0)
(0.0275529 0.027426 0)
(0.0254891 0.0283141 0)
(0.0230097 0.0291255 0)
(0.0201534 0.0298472 0)
(0.0169653 0.0304675 0)
(0.0134968 0.0309764 0)
(0.00980457 0.0313654 0)
(0.0059494 0.0316284 0)
(0.00199519 0.031761 0)
(-0.00199226 0.031761 0)
(-0.00594652 0.0316285 0)
(-0.00980178 0.0313656 0)
(-0.0134941 0.0309767 0)
(-0.0169628 0.0304679 0)
(-0.0201511 0.0298478 0)
(-0.0230077 0.0291262 0)
(-0.0254872 0.0283148 0)
(-0.0275514 0.0274269 0)
(-0.029169 0.0264765 0)
(-0.0303168 0.0254791 0)
(-0.0309796 0.0244503 0)
(-0.0311503 0.0234068 0)
(-0.0308296 0.0223648 0)
(-0.0300262 0.0213408 0)
(-0.0287559 0.0203509 0)
(-0.0270418 0.0194104 0)
(-0.0249132 0.0185341 0)
(-0.022405 0.0177354 0)
(-0.0195576 0.0170267 0)
(-0.0164156 0.0164188 0)
(-0.0130274 0.0159211 0)
(-0.00944488 0.0155411 0)
(-0.00572452 0.0152847 0)
(-0.00191866 0.0151555 0)
(0.00198973 0.0180515 0)
(0.0059367 0.0182055 0)
(0.00979517 0.0185114 0)
(0.0135104 0.0189643 0)
(0.0170236 0.0195574 0)
(0.0202815 0.0202815 0)
(0.0232338 0.0211257 0)
(0.0258341 0.022077 0)
(0.0280408 0.0231207 0)
(0.0298174 0.0242406 0)
(0.0311337 0.0254195 0)
(0.0319659 0.0266389 0)
(0.0322976 0.0278797 0)
(0.0321199 0.0291224 0)
(0.0314319 0.0303473 0)
(0.0302412 0.0315351 0)
(0.0285637 0.0326667 0)
(0.0264234 0.033724 0)
(0.0238526 0.0346901 0)
(0.0208911 0.0355493 0)
(0.017586 0.0362878 0)
(0.0139904 0.0368935 0)
(0.010163 0.0373567 0)
(0.00616685 0.0376698 0)
(0.0020681 0.0378276 0)
(-0.00206507 0.0378277 0)
(-0.00616387 0.03767 0)
(-0.0101601 0.037357 0)
(-0.0139876 0.036894 0)
(-0.0175834 0.0362883 0)
(-0.0208887 0.03555 0)
(-0.0238504 0.0346909 0)
(-0.0264214 0.033725 0)
(-0.0285619 0.0326679 0)
(-0.0302398 0.0315365 0)
(-0.0314307 0.030349 0)
(-0.0321189 0.0291243 0)
(-0.0322968 0.0278819 0)
(-0.0319654 0.0266413 0)
(-0.0311333 0.0254222 0)
(-0.0298172 0.0242436 0)
(-0.0280406 0.023124 0)
(-0.025834 0.0220806 0)
(-0.0232338 0.0211297 0)
(-0.0202814 0.0202859 0)
(-0.0170234 0.0195621 0)
(-0.01351 0.0189694 0)
(-0.00979487 0.0185168 0)
(-0.00593663 0.0182113 0)
(-0.00198971 0.0180574 0)
(0.00207264 0.0206809 0)
(0.00618425 0.0208572 0)
(0.0102036 0.0212073 0)
(0.0140734 0.0217258 0)
(0.0177326 0.0224048 0)
(0.0211257 0.0232338 0)
(0.0242002 0.0242002 0)
(0.0269079 0.0252892 0)
(0.0292054 0.026484 0)
(0.0310548 0.0277661 0)
(0.0324246 0.0291157 0)
(0.0332901 0.0305116 0)
(0.0336343 0.031932 0)
(0.0334481 0.0333545 0)
(0.0327305 0.0347567 0)
(0.0314896 0.0361163 0)
(0.0297419 0.0374117 0)
(0.0275125 0.038622 0)
(0.024835 0.0397278 0)
(0.0217511 0.0407113 0)
(0.0183095 0.0415566 0)
(0.0145658 0.04225 0)
(0.0105808 0.0427802 0)
(0.00642032 0.0431386 0)
(0.0021531 0.0433193 0)
(-0.00214994 0.0433193 0)
(-0.0064172 0.0431388 0)
(-0.0105778 0.0427806 0)
(-0.0145628 0.0422506 0)
(-0.0183067 0.0415574 0)
(-0.0217485 0.0407123 0)
(-0.0248326 0.039729 0)
(-0.0275103 0.0386234 0)
(-0.0297399 0.0374134 0)
(-0.0314879 0.0361184 0)
(-0.032729 0.0347591 0)
(-0.0334468 0.0333573 0)
(-0.0336332 0.0319351 0)
(-0.0332892 0.0305151 0)
(-0.0324238 0.0291197 0)
(-0.0310542 0.0277706 0)
(-0.0292049 0.026489 0)
(-0.0269075 0.0252947 0)
(-0.0241998 0.0242061 0)
(-0.0211252 0.0232402 0)
(-0.0177321 0.0224116 0)
(-0.0140726 0.0217331 0)
(-0.010203 0.021215 0)
(-0.00618397 0.0208651 0)
(-0.00207257 0.0206889 0)
(0.00216607 0.0229975 0)
(0.00646319 0.0231934 0)
(0.0106638 0.0235825 0)
(0.0147078 0.0241586 0)
(0.0185316 0.024913 0)
(0.022077 0.0258341 0)
(0.0252892 0.0269079 0)
(0.0281179 0.0281179 0)
(0.0305177 0.0294454 0)
(0.032449 0.03087 0)
(0.0338791 0.0323694 0)
(0.0347822 0.0339203 0)
(0.0351405 0.0354984 0)
(0.0349446 0.0370789 0)
(0.0341937 0.0386368 0)
(0.0328962 0.0401473 0)
(0.0310693 0.0415864 0)
(0.0287395 0.0429311 0)
(0.025942 0.0441596 0)
(0.02272 0.0452523 0)
(0.0191247 0.0461914 0)
(0.015214 0.0469617 0)
(0.0110516 0.0475507 0)
(0.00670591 0.0479488 0)
(0.00224887 0.0481496 0)
(-0.00224553 0.0481497 0)
(-0.0067026 0.0479491 0)
(-0.0110483 0.0475512 0)
(-0.0152108 0.0469624 0)
(-0.0191217 0.0461924 0)
(-0.0227171 0.0452536 0)
(-0.0259393 0.0441613 0)
(-0.028737 0.0429331 0)
(-0.031067 0.0415889 0)
(-0.032894 0.0401503 0)
(-0.0341918 0.0386403 0)
(-0.0349428 0.037083 0)
(-0.0351389 0.0355031 0)
(-0.0347808 0.0339256 0)
(-0.0338778 0.0323754 0)
(-0.0324479 0.0308767 0)
(-0.0305166 0.0294529 0)
(-0.0281169 0.0281262 0)
(-0.0252882 0.0269169 0)
(-0.022076 0.0258438 0)
(-0.0185305 0.0249233 0)
(-0.0147066 0.0241695 0)
(-0.0106628 0.0235938 0)
(-0.0064627 0.0232051 0)
(-0.00216593 0.0230093 0)
(0.00226858 0.0249642 0)
(0.00676924 0.0251767 0)
(0.0111687 0.0255987 0)
(0.0154038 0.0262235 0)
(0.0194082 0.0270417 0)
(0.0231207 0.0280408 0)
(0.026484 0.0292054 0)
(0.0294454 0.0305177 0)
(0.0319574 0.0319574 0)
(0.0339787 0.0335024 0)
(0.0354749 0.0351285 0)
(0.0364192 0.0368105 0)
(0.036793 0.038522 0)
(0.0365864 0.040236 0)
(0.0357989 0.0419255 0)
(0.0344392 0.0435636 0)
(0.0325256 0.0451242 0)
(0.0300856 0.0465823 0)
(0.0271562 0.0479146 0)
(0.0237829 0.0490995 0)
(0.0200189 0.0501178 0)
(0.0159251 0.0509532 0)
(0.011568 0.0515919 0)
(0.0070192 0.0520236 0)
(0.00235395 0.0522413 0)
(-0.00235038 0.0522415 0)
(-0.00701565 0.0520241 0)
(-0.0115645 0.0515926 0)
(-0.0159217 0.0509542 0)
(-0.0200156 0.0501193 0)
(-0.0237796 0.0491013 0)
(-0.0271531 0.0479169 0)
(-0.0300826 0.0465853 0)
(-0.0325227 0.0451278 0)
(-0.0344365 0.0435679 0)
(-0.0357963 0.0419306 0)
(-0.0365839 0.0402421 0)
(-0.0367906 0.038529 0)
(-0.0364169 0.0368187 0)
(-0.0354727 0.0351378 0)
(-0.0339766 0.0335128 0)
(-0.0319554 0.0319691 0)
(-0.0294435 0.0305305 0)
(-0.0264822 0.0292193 0)
(-0.0231189 0.0280558 0)
(-0.0194064 0.0270577 0)
(-0.0154021 0.0262403 0)
(-0.0111673 0.0256162 0)
(-0.00676847 0.0251947 0)
(-0.00226836 0.0249824 0)
(0.00237858 0.0265486 0)
(0.00709766 0.0267744 0)
(0.0117106 0.0272227 0)
(0.0161508 0.0278866 0)
(0.0203488 0.0287559 0)
(0.0242406 0.0298174 0)
(0.0277661 0.0310548 0)
(0.03087 0.032449 0)
(0.0335024 0.0339787 0)
(0.0356202 0.0356202 0)
(0.0371873 0.0373478 0)
(0.0381757 0.0391348 0)
(0.038566 0.0409531 0)
(0.0383481 0.042774 0)
(0.0375213 0.0445688 0)
(0.0360949 0.0463091 0)
(0.0340881 0.047967 0)
(0.0315299 0.049516 0)
(0.0284591 0.0509313 0)
(0.0249232 0.05219 0)
(0.0209784 0.0532719 0)
(0.016688 0.0541592 0)
(0.012122 0.0548378 0)
(0.00735535 0.0552964 0)
(0.00246672 0.0555277 0)
(-0.00246282 0.0555279 0)
(-0.00735146 0.055297 0)
(-0.0121182 0.0548388 0)
(-0.0166842 0.0541607 0)
(-0.0209746 0.0532739 0)
(-0.0249195 0.0521927 0)
(-0.0284553 0.0509348 0)
(-0.0315262 0.0495204 0)
(-0.0340844 0.0479723 0)
(-0.0360912 0.0463156 0)
(-0.0375176 0.0445767 0)
(-0.0383444 0.0427833 0)
(-0.0385624 0.0409639 0)
(-0.038172 0.0391474 0)
(-0.0371837 0.0373622 0)
(-0.0356166 0.0356364 0)
(-0.0334989 0.0339969 0)
(-0.0308666 0.0324691 0)
(-0.0277629 0.0310767 0)
(-0.0242376 0.029841 0)
(-0.0203459 0.0287811 0)
(-0.0161481 0.0279131 0)
(-0.0117085 0.0272502 0)
(-0.00709649 0.0268026 0)
(-0.00237823 0.0265771 0)
(0.00249437 0.0277235 0)
(0.00744337 0.0279591 0)
(0.012281 0.0284268 0)
(0.016937 0.0291194 0)
(0.0213389 0.0300263 0)
(0.0254195 0.0311337 0)
(0.0291157 0.0324246 0)
(0.0323694 0.0338791 0)
(0.0351285 0.0354749 0)
(0.0373478 0.0371873 0)
(0.0389896 0.0389896 0)
(0.0400244 0.0408537 0)
(0.0404322 0.0427504 0)
(0.0402022 0.0446499 0)
(0.039334 0.0465222 0)
(0.0378374 0.0483375 0)
(0.0357325 0.0500668 0)
(0.03305 0.0516826 0)
(0.0298303 0.0531589 0)
(0.0261234 0.0544718 0)
(0.0219881 0.0556002 0)
(0.017491 0.0565258 0)
(0.0127051 0.0572336 0)
(0.00770915 0.057712 0)
(0.00258545 0.0579533 0)
(-0.00258108 0.0579536 0)
(-0.00770476 0.0577129 0)
(-0.0127007 0.0572351 0)
(-0.0174865 0.0565281 0)
(-0.0219836 0.0556033 0)
(-0.0261188 0.0544759 0)
(-0.0298255 0.0531641 0)
(-0.0330451 0.0516892 0)
(-0.0357275 0.050075 0)
(-0.0378322 0.0483475 0)
(-0.0393286 0.0465343 0)
(-0.0401967 0.0446643 0)
(-0.0404265 0.0427673 0)
(-0.0400186 0.0408733 0)
(-0.0389837 0.0390121 0)
(-0.0373419 0.0372128 0)
(-0.0351227 0.0355036 0)
(-0.0323637 0.0339108 0)
(-0.0291103 0.0324592 0)
(-0.0254145 0.031171 0)
(-0.0213343 0.0300661 0)
(-0.016933 0.0291612 0)
(-0.0122778 0.0284703 0)
(-0.00744154 0.0280037 0)
(-0.00249382 0.0277686 0)
(0.00261415 0.0284676 0)
(0.00780096 0.0287093 0)
(0.0128709 0.0291891 0)
(0.0177503 0.0298996 0)
(0.0223631 0.0308299 0)
(0.0266389 0.0319659 0)
(0.0305116 0.0332901 0)
(0.0339203 0.0347822 0)
(0.0368105 0.0364192 0)
(0.0391348 0.0381757 0)
(0.0408537 0.0400244 0)
(0.0419365 0.0419365 0)
(0.0423623 0.0438821 0)
(0.0421199 0.0458305 0)
(0.0412088 0.0477509 0)
(0.0396395 0.0496128 0)
(0.0374332 0.0513866 0)
(0.034622 0.0530438 0)
(0.0312483 0.054558 0)
(0.0273646 0.0559046 0)
(0.0230324 0.057062 0)
(0.0183214 0.0580113 0)
(0.0133082 0.0587373 0)
(0.00807509 0.059228 0)
(0.00270832 0.0594756 0)
(-0.00270326 0.059476 0)
(-0.00806997 0.0592293 0)
(-0.013303 0.0587396 0)
(-0.018316 0.0580147 0)
(-0.0230268 0.0570666 0)
(-0.0273587 0.0559108 0)
(-0.031242 0.054566 0)
(-0.0346153 0.053054 0)
(-0.0374261 0.0513992 0)
(-0.0396319 0.0496283 0)
(-0.0412008 0.0477696 0)
(-0.0421113 0.0458529 0)
(-0.0423533 0.0439085 0)
(-0.0419272 0.0419673 0)
(-0.0408441 0.0400598 0)
(-0.0391252 0.0382159 0)
(-0.036801 0.0364643 0)
(-0.033911 0.0348322 0)
(-0.0305027 0.0333448 0)
(-0.0266307 0.0320249 0)
(-0.0223557 0.0308928 0)
(-0.017744 0.0299658 0)
(-0.0128661 0.0292579 0)
(-0.0077981 0.0287798 0)
(-0.00261325 0.0285391 0)
(0.00273603 0.0287661 0)
(0.00816484 0.02901 0)
(0.0134713 0.0294944 0)
(0.0185779 0.0302117 0)
(0.0234053 0.0311508 0)
(0.0278797 0.0322976 0)
(0.031932 0.0336343 0)
(0.0354984 0.0351405 0)
(0.038522 0.036793 0)
(0.0409531 0.038566 0)
(0.0427504 0.0404322 0)
(0.0438821 0.0423623 0)
(0.0443261 0.0443261 0)
(0.044071 0.0462927 0)
(0.0431163 0.0482311 0)
(0.0414731 0.0501104 0)
(0.0391636 0.0519008 0)
(0.0362214 0.0535735 0)
(0.032691 0.0551017 0)
(0.0286274 0.0564609 0)
(0.0240948 0.057629 0)
(0.0191663 0.0585872 0)
(0.0139219 0.05932 0)
(0.0084475 0.0598154 0)
(0.00283348 0.0600655 0)
(-0.00282735 0.0600661 0)
(-0.00844125 0.0598174 0)
(-0.0139154 0.0593235 0)
(-0.0191594 0.0585924 0)
(-0.0240875 0.0576362 0)
(-0.0286194 0.0564704 0)
(-0.0326823 0.0551141 0)
(-0.0362119 0.0535891 0)
(-0.0391532 0.0519203 0)
(-0.0414618 0.0501344 0)
(-0.043104 0.0482602 0)
(-0.0440577 0.0463276 0)
(-0.044312 0.0443673 0)
(-0.0438673 0.0424104 0)
(-0.0427351 0.0404876 0)
(-0.0409375 0.0386291 0)
(-0.0385065 0.0368637 0)
(-0.0354833 0.035219 0)
(-0.0319176 0.0337202 0)
(-0.0278664 0.0323904 0)
(-0.0233935 0.0312498 0)
(-0.0185679 0.0303159 0)
(-0.0134637 0.0296027 0)
(-0.00816033 0.0291212 0)
(-0.00273458 0.0288787 0)
(0.0028581 0.0286109 0)
(0.00852929 0.0288533 0)
(0.0140725 0.0293346 0)
(0.0194067 0.0300472 0)
(0.024449 0.0309804 0)
(0.0291224 0.0321199 0)
(0.0333545 0.0334481 0)
(0.0370789 0.0349446 0)
(0.040236 0.0365864 0)
(0.042774 0.0383481 0)
(0.0446499 0.0402022 0)
(0.0458305 0.0421199 0)
(0.0462927 0.044071 0)
(0.0460249 0.0460249 0)
(0.0450265 0.0479506 0)
(0.0433092 0.0498177 0)
(0.0408963 0.0515964 0)
(0.0378229 0.0532581 0)
(0.0341357 0.0547764 0)
(0.0298919 0.0561267 0)
(0.0251588 0.0572872 0)
(0.0200124 0.0582392 0)
(0.0145364 0.0589673 0)
(0.00882058 0.0594596 0)
(0.00295904 0.0597083 0)
(-0.00295129 0.0597093 0)
(-0.0088126 0.0594627 0)
(-0.014528 0.0589727 0)
(-0.0200033 0.0582472 0)
(-0.0251488 0.0572983 0)
(-0.0298808 0.0561414 0)
(-0.0341233 0.0547954 0)
(-0.0378091 0.0532823 0)
(-0.0408808 0.0516265 0)
(-0.043292 0.0498548 0)
(-0.0450076 0.0479957 0)
(-0.0460042 0.0460789 0)
(-0.0462706 0.044135 0)
(-0.045807 0.0421946 0)
(-0.0446255 0.0402884 0)
(-0.042749 0.0384463 0)
(-0.040211 0.0366968 0)
(-0.0370545 0.035067 0)
(-0.0333313 0.0335821 0)
(-0.0291011 0.0322648 0)
(-0.0244302 0.0311351 0)
(-0.019391 0.0302102 0)
(-0.0140607 0.029504 0)
(-0.00852215 0.0290272 0)
(-0.00285577 0.028787 0)
(0.00297843 0.028001 0)
(0.00888854 0.028238 0)
(0.0146652 0.0287086 0)
(0.0202238 0.0294054 0)
(0.0254779 0.0303179 0)
(0.0303473 0.0314319 0)
(0.0347567 0.0327305 0)
(0.0386368 0.0341937 0)
(0.0419255 0.0357989 0)
(0.0445688 0.0375213 0)
(0.0465222 0.039334 0)
(0.0477509 0.0412088 0)
(0.0482311 0.0431163 0)
(0.0479506 0.0450265 0)
(0.0469092 0.0469092 0)
(0.0451188 0.0487345 0)
(0.042604 0.0504733 0)
(0.0394014 0.0520978 0)
(0.0355596 0.0535821 0)
(0.0311382 0.0549021 0)
(0.0262074 0.0560367 0)
(0.0208464 0.0569675 0)
(0.0151423 0.0576794 0)
(0.00918853 0.058161 0)
(0.00308316 0.0584045 0)
(-0.00307293 0.058406 0)
(-0.00917791 0.0581657 0)
(-0.0151309 0.0576876 0)
(-0.0208339 0.0569797 0)
(-0.0261933 0.0560536 0)
(-0.0311223 0.0549246 0)
(-0.0355414 0.0536112 0)
(-0.0393808 0.0521348 0)
(-0.0425806 0.0505195 0)
(-0.0450925 0.0487915 0)
(-0.0468799 0.0469785 0)
(-0.0479185 0.0451097 0)
(-0.0481963 0.0432149 0)
(-0.0477138 0.0413241 0)
(-0.0464835 0.0394671 0)
(-0.0445292 0.037673 0)
(-0.0418857 0.0359695 0)
(-0.0385979 0.0343832 0)
(-0.0347198 0.0329381 0)
(-0.0303134 0.0316565 0)
(-0.0254481 0.0305577 0)
(-0.0201991 0.0296582 0)
(-0.0146467 0.0289715 0)
(-0.00887727 0.0285079 0)
(-0.00297471 0.0282745 0)
(0.00309512 0.0269431 0)
(0.00923688 0.0271709 0)
(0.0152399 0.0276233 0)
(0.021016 0.0282932 0)
(0.0264755 0.0291703 0)
(0.0315351 0.0302412 0)
(0.0361163 0.0314896 0)
(0.0401473 0.0328962 0)
(0.0435636 0.0344392 0)
(0.0463091 0.0360949 0)
(0.0483375 0.0378374 0)
(0.0496128 0.0396395 0)
(0.0501104 0.0414731 0)
(0.0498177 0.0433092 0)
(0.0487345 0.0451188 0)
(0.0468733 0.0468733 0)
(0.0442597 0.0485446 0)
(0.0409317 0.0501062 0)
(0.03694 0.0515328 0)
(0.0323465 0.0528017 0)
(0.0272241 0.0538924 0)
(0.0216551 0.0547872 0)
(0.0157299 0.0554718 0)
(0.00954566 0.0559351 0)
(0.00320408 0.0561698 0)
(-0.00319006 0.0561721 0)
(-0.00953103 0.0559423 0)
(-0.0157141 0.0554842 0)
(-0.0216374 0.0548056 0)
(-0.0272039 0.0539179 0)
(-0.0323232 0.0528357 0)
(-0.0369131 0.051577 0)
(-0.0409007 0.0501623 0)
(-0.0442241 0.048615 0)
(-0.046833 0.0469601 0)
(-0.0486893 0.0452245 0)
(-0.0497678 0.0434362 0)
(-0.0500562 0.0416237 0)
(-0.0495548 0.0398158 0)
(-0.0482766 0.038041 0)
(-0.0462466 0.0363271 0)
(-0.0435008 0.0347007 0)
(-0.0400859 0.0331867 0)
(-0.036058 0.0318083 0)
(-0.0314816 0.0305862 0)
(-0.0264286 0.0295388 0)
(-0.0209772 0.0286817 0)
(-0.015211 0.0280275 0)
(-0.00921918 0.027586 0)
(-0.00308922 0.0273637 0)
(0.00320628 0.0254509 0)
(0.00956877 0.025666 0)
(0.0157875 0.0260929 0)
(0.0217708 0.0267251 0)
(0.027426 0.0275529 0)
(0.0326667 0.0285637 0)
(0.0374117 0.0297419 0)
(0.0415864 0.0310693 0)
(0.0451242 0.0325256 0)
(0.047967 0.0340881 0)
(0.0500668 0.0357325 0)
(0.0513866 0.0374332 0)
(0.0519008 0.0391636 0)
(0.0515964 0.0408963 0)
(0.0504733 0.042604 0)
(0.0485446 0.0442597 0)
(0.0458369 0.0458369 0)
(0.0423896 0.0473105 0)
(0.0382551 0.0486568 0)
(0.0334977 0.0498544 0)
(0.0281929 0.0508838 0)
(0.0224258 0.0517285 0)
(0.0162902 0.052375 0)
(0.00988652 0.0528129 0)
(0.00332015 0.0530353 0)
(-0.00330045 0.0530388 0)
(-0.00986582 0.0528236 0)
(-0.0162675 0.0523936 0)
(-0.0224002 0.0517562 0)
(-0.0281633 0.0509221 0)
(-0.0334632 0.0499054 0)
(-0.0382148 0.0487232 0)
(-0.0423428 0.047395 0)
(-0.0457828 0.0459428 0)
(-0.048483 0.0443905 0)
(-0.0504039 0.0427635 0)
(-0.0515193 0.0410881 0)
(-0.0518167 0.0393913 0)
(-0.0512965 0.0377 0)
(-0.0499721 0.0360411 0)
(-0.0478695 0.0344404 0)
(-0.0450261 0.0329225 0)
(-0.0414904 0.0315107 0)
(-0.0373203 0.0302263 0)
(-0.0325829 0.0290885 0)
(-0.0273526 0.0281139 0)
(-0.0217103 0.0273168 0)
(-0.0157424 0.0267087 0)
(-0.00954112 0.0262984 0)
(-0.00319703 0.0260919 0)
(0.00331016 0.023546 0)
(0.00987888 0.0237448 0)
(0.0162991 0.0241394 0)
(0.022476 0.0247239 0)
(0.0283141 0.0254891 0)
(0.033724 0.0264234 0)
(0.038622 0.0275125 0)
(0.0429311 0.0287395 0)
(0.0465823 0.0300856 0)
(0.049516 0.0315299 0)
(0.0516826 0.03305 0)
(0.0530438 0.034622 0)
(0.0535735 0.0362214 0)
(0.0532581 0.0378229 0)
(0.0520978 0.0394014 0)
(0.0501062 0.0409317 0)
(0.0473105 0.0423896 0)
(0.0437517 0.0437517 0)
(0.0394839 0.0449963 0)
(0.0345735 0.0461033 0)
(0.0290983 0.0470551 0)
(0.0231463 0.0478364 0)
(0.0168143 0.0484347 0)
(0.010206 0.0488405 0)
(0.00342995 0.0490475 0)
(-0.00340176 0.0490526 0)
(-0.0101762 0.0488563 0)
(-0.0167815 0.0484623 0)
(-0.0231089 0.0478774 0)
(-0.0290546 0.047112 0)
(-0.0345222 0.0461792 0)
(-0.0394235 0.0450949 0)
(-0.0436811 0.0438775 0)
(-0.0472286 0.0425474 0)
(-0.0500123 0.041127 0)
(-0.0519917 0.0396396 0)
(-0.0531401 0.0381098 0)
(-0.0534442 0.0365622 0)
(-0.052905 0.0350218 0)
(-0.0515363 0.0335129 0)
(-0.0493652 0.032059 0)
(-0.0464304 0.0306823 0)
(-0.0427821 0.0294037 0)
(-0.0384803 0.028242 0)
(-0.0335941 0.0272141 0)
(-0.0282003 0.0263347 0)
(-0.0223824 0.0256162 0)
(-0.0162293 0.0250686 0)
(-0.009836 0.0246993 0)
(-0.00329576 0.0245135 0)
(0.00340508 0.0212569 0)
(0.0101622 0.0214362 0)
(0.0167666 0.0217922 0)
(0.0231204 0.0223194 0)
(0.0291255 0.0230097 0)
(0.0346901 0.0238526 0)
(0.0397278 0.024835 0)
(0.0441596 0.025942 0)
(0.0479146 0.0271562 0)
(0.0509313 0.0284591 0)
(0.0531589 0.0298303 0)
(0.054558 0.0312483 0)
(0.0551017 0.032691 0)
(0.0547764 0.0341357 0)
(0.0535821 0.0355596 0)
(0.0515328 0.03694 0)
(0.0486568 0.0382551 0)
(0.0449963 0.0394839 0)
(0.0406067 0.0406067 0)
(0.0355566 0.0416057 0)
(0.029926 0.0424647 0)
(0.0238054 0.0431703 0)
(0.0172943 0.043711 0)
(0.0104993 0.0440786 0)
(0.00353231 0.0442675 0)
(-0.00349158 0.044275 0)
(-0.0104562 0.0441018 0)
(-0.0172464 0.0437514 0)
(-0.0237504 0.0432304 0)
(-0.0298615 0.0425482 0)
(-0.0354803 0.0417171 0)
(-0.0405165 0.0407518 0)
(-0.0448902 0.0396691 0)
(-0.0485334 0.0384878 0)
(-0.0513908 0.0372281 0)
(-0.0534211 0.0359116 0)
(-0.0545967 0.0345601 0)
(-0.0549046 0.033196 0)
(-0.0543458 0.0318414 0)
(-0.0529349 0.0305178 0)
(-0.0507001 0.0292456 0)
(-0.0476814 0.0280442 0)
(-0.0439307 0.0269313 0)
(-0.0395099 0.0259226 0)
(-0.0344902 0.0250323 0)
(-0.0289504 0.0242722 0)
(-0.0229764 0.0236524 0)
(-0.0166593 0.0231807 0)
(-0.0100962 0.0228629 0)
(-0.00338286 0.0227032 0)
(0.0034895 0.018619 0)
(0.0104143 0.018776 0)
(0.0171824 0.0190877 0)
(0.0236935 0.0195491 0)
(0.0298472 0.0201534 0)
(0.0355493 0.0208911 0)
(0.0407113 0.0217511 0)
(0.0452523 0.02272 0)
(0.0490995 0.0237829 0)
(0.05219 0.0249232 0)
(0.0544718 0.0261234 0)
(0.0559046 0.0273646 0)
(0.0564609 0.0286274 0)
(0.0561267 0.0298919 0)
(0.0549021 0.0311382 0)
(0.0528017 0.0323465 0)
(0.0498544 0.0334977 0)
(0.0461033 0.0345735 0)
(0.0416057 0.0355566 0)
(0.0364315 0.0364315 0)
(0.0306629 0.0371842 0)
(0.0243926 0.0378029 0)
(0.0177227 0.0382779 0)
(0.0107624 0.038602 0)
(0.00362638 0.0387705 0)
(-0.00356739 0.0387814 0)
(-0.0106998 0.0386356 0)
(-0.0176529 0.0383364 0)
(-0.024312 0.0378901 0)
(-0.0305679 0.0373053 0)
(-0.0363186 0.0365934 0)
(-0.0414716 0.0357675 0)
(-0.0459451 0.0348431 0)
(-0.0496695 0.0338369 0)
(-0.0525885 0.0327672 0)
(-0.0546598 0.0316528 0)
(-0.0558556 0.0305132 0)
(-0.0561629 0.0293677 0)
(-0.0555832 0.0282352 0)
(-0.0541321 0.0271339 0)
(-0.0518387 0.0260806 0)
(-0.0487448 0.025091 0)
(-0.0449037 0.0241789 0)
(-0.0403793 0.0233564 0)
(-0.0352445 0.0226338 0)
(-0.0295802 0.0220196 0)
(-0.0234739 0.0215207 0)
(-0.0170188 0.0211421 0)
(-0.0103135 0.0208878 0)
(-0.00345554 0.02076 0)
(0.00356206 0.0156743 0)
(0.0106309 0.0158064 0)
(0.0175397 0.0160686 0)
(0.0241861 0.0164569 0)
(0.0304675 0.0169653 0)
(0.0362878 0.017586 0)
(0.0415566 0.0183095 0)
(0.0461914 0.0191247 0)
(0.0501178 0.0200189 0)
(0.0532719 0.0209784 0)
(0.0556002 0.0219881 0)
(0.057062 0.0230324 0)
(0.057629 0.0240948 0)
(0.0572872 0.0251588 0)
(0.0560367 0.0262074 0)
(0.0538924 0.0272241 0)
(0.0508838 0.0281929 0)
(0.0470551 0.0290983 0)
(0.0424647 0.029926 0)
(0.0371842 0.0306629 0)
(0.0312974 0.0312974 0)
(0.0248991 0.0318197 0)
(0.0180934 0.0322218 0)
(0.0109919 0.032498 0)
(0.00371176 0.0326445 0)
(-0.00362649 0.0326601 0)
(-0.0109012 0.032546 0)
(-0.0179919 0.0323055 0)
(-0.0247815 0.0319445 0)
(-0.0311582 0.031471 0)
(-0.0370182 0.0308952 0)
(-0.0422668 0.0302291 0)
(-0.0468208 0.0294863 0)
(-0.0506092 0.0286818 0)
(-0.0535749 0.0278314 0)
(-0.055675 0.0269515 0)
(-0.0568819 0.0260585 0)
(-0.0571826 0.0251685 0)
(-0.0565796 0.0242969 0)
(-0.0550895 0.0234578 0)
(-0.0527429 0.022664 0)
(-0.0495831 0.0219264 0)
(-0.0456653 0.0212544 0)
(-0.041055 0.0206553 0)
(-0.0358269 0.0201347 0)
(-0.0300636 0.0196968 0)
(-0.0238539 0.0193443 0)
(-0.0172922 0.0190789 0)
(-0.0104783 0.0189015 0)
(-0.0035106 0.0188128 0)
(0.00362158 0.0124702 0)
(0.0108085 0.0125753 0)
(0.0178328 0.0127838 0)
(0.0245902 0.0130925 0)
(0.0309764 0.0134968 0)
(0.0368935 0.0139904 0)
(0.04225 0.0145658 0)
(0.0469617 0.015214 0)
(0.0509532 0.0159251 0)
(0.0541592 0.016688 0)
(0.0565258 0.017491 0)
(0.0580113 0.0183214 0)
(0.0585872 0.0191663 0)
(0.0582392 0.0200124 0)
(0.0569675 0.0208464 0)
(0.0547872 0.0216551 0)
(0.0517285 0.0224258 0)
(0.0478364 0.0231463 0)
(0.0431703 0.0238054 0)
(0.0378029 0.0243926 0)
(0.0318197 0.0248991 0)
(0.0253171 0.0253171 0)
(0.018401 0.0256406 0)
(0.0111851 0.0258654 0)
(0.00378857 0.0259891 0)
(-0.00366589 0.0260112 0)
(-0.0110545 0.0259333 0)
(-0.0182544 0.0257589 0)
(-0.0251465 0.0254937 0)
(-0.0316172 0.025145 0)
(-0.0375605 0.0247222 0)
(-0.0428805 0.024236 0)
(-0.0474924 0.0236985 0)
(-0.0513244 0.0231227 0)
(-0.0543188 0.0225221 0)
(-0.0564327 0.0219105 0)
(-0.0576386 0.0213012 0)
(-0.0579245 0.0207068 0)
(-0.0572939 0.0201385 0)
(-0.055765 0.0196062 0)
(-0.0533701 0.0191174 0)
(-0.0501544 0.018678 0)
(-0.0461749 0.0182913 0)
(-0.041499 0.017959 0)
(-0.0362029 0.0176808 0)
(-0.0303706 0.0174552 0)
(-0.0240919 0.0172795 0)
(-0.0174615 0.0171512 0)
(-0.0105796 0.0170674 0)
(-0.00354428 0.017026 0)
(0.00366709 0.00905909 0)
(0.0109444 0.00913537 0)
(0.018057 0.00928678 0)
(0.0248991 0.00951099 0)
(0.0313654 0.00980457 0)
(0.0373567 0.010163 0)
(0.0427802 0.0105808 0)
(0.0475507 0.0110516 0)
(0.0515919 0.011568 0)
(0.0548378 0.012122 0)
(0.0572336 0.0127051 0)
(0.0587373 0.0133082 0)
(0.05932 0.0139219 0)
(0.0589673 0.0145364 0)
(0.0576794 0.0151423 0)
(0.0554718 0.0157299 0)
(0.052375 0.0162902 0)
(0.0484347 0.0168143 0)
(0.043711 0.0172943 0)
(0.0382779 0.0177227 0)
(0.0322218 0.0180934 0)
(0.0256406 0.018401 0)
(0.0186417 0.0186417 0)
(0.0113404 0.018813 0)
(0.00385755 0.0189137 0)
(-0.00368231 0.0189446 0)
(-0.0111535 0.0189077 0)
(-0.0184315 0.0188069 0)
(-0.0253953 0.0186479 0)
(-0.0319297 0.0184376 0)
(-0.0379272 0.0181847 0)
(-0.0432906 0.0178989 0)
(-0.0479342 0.0175909 0)
(-0.0517856 0.0172721 0)
(-0.0547871 0.0169537 0)
(-0.056896 0.0166471 0)
(-0.0580856 0.0163622 0)
(-0.0583453 0.0161081 0)
(-0.0576802 0.0158916 0)
(-0.0561106 0.0157172 0)
(-0.0536711 0.0155869 0)
(-0.0504092 0.0155 0)
(-0.0463843 0.0154529 0)
(-0.0416655 0.0154399 0)
(-0.0363308 0.0154532 0)
(-0.0304649 0.0154839 0)
(-0.0241579 0.0155228 0)
(-0.0175044 0.015561 0)
(-0.0106035 0.0155912 0)
(-0.00355197 0.0156076 0)
(0.00369786 0.00549715 0)
(0.0110362 0.00554344 0)
(0.0182084 0.00563528 0)
(0.025108 0.0057713 0)
(0.0316284 0.0059494 0)
(0.0376698 0.00616685 0)
(0.0431386 0.00642032 0)
(0.0479488 0.00670591 0)
(0.0520236 0.0070192 0)
(0.0552964 0.00735535 0)
(0.057712 0.00770915 0)
(0.059228 0.00807509 0)
(0.0598154 0.0084475 0)
(0.0594596 0.00882058 0)
(0.058161 0.00918853 0)
(0.0559351 0.00954566 0)
(0.0528129 0.00988652 0)
(0.0488405 0.010206 0)
(0.0440786 0.0104993 0)
(0.038602 0.0107624 0)
(0.032498 0.0109919 0)
(0.0258654 0.0111851 0)
(0.018813 0.0113404 0)
(0.0114571 0.0114571 0)
(0.00392017 0.0115358 0)
(-0.00367196 0.0115783 0)
(-0.0111921 0.0115876 0)
(-0.0185142 0.0115683 0)
(-0.0255158 0.011526 0)
(-0.0320803 0.0114679 0)
(-0.0380992 0.0114023 0)
(-0.0434743 0.0113382 0)
(-0.0481192 0.0112854 0)
(-0.0519616 0.011254 0)
(-0.0549438 0.0112534 0)
(-0.0570242 0.0112925 0)
(-0.0581775 0.0113785 0)