/*--------------------------------*- C++ -*----------------------------------*\
| =========                 |                                                 |
| \\      /  F ield         | OpenFOAM: The Open Source CFD Toolbox           |
|  \\    /   O peration     | Version:  2406                                  |
|   \\  /    A nd           | Website:  www.openfoam.com                      |
|    \\/     M anipulation  |                                                 |
\*---------------------------------------------------------------------------*/
FoamFile
{
    version     2.0;
    format      ascii;
    arch        "LSB;label=32;scalar=64";
    class       volScalarField;
    location    "0.35";
    object      gradTy;
}
// * * * * * * * * * * * * * * * * * * * * * * * * * * * * * * * * * * * * * //

dimensions      [0 -1 0 1 0 0 0];

internalField   nonuniform List<scalar> 
2500
(
0.0177077
0.0178571
0.0181584
0.0186035
0.019186
0.0198973
0.0207264
0.0216607
0.0226858
0.0237858
0.0249437
0.0261415
0.0273603
0.028581
0.0297843
0.0309512
0.0320628
0.0331016
0.0340508
0.034895
0.0356206
0.0362158
0.0366709
0.0369786
0.0371338
0.0371339
0.036979
0.0366716
0.0362167
0.0356218
0.0348964
0.0340524
0.0331035
0.0320649
0.0309534
0.0297867
0.0285835
0.0273629
0.0261442
0.0249465
0.0237887
0.0226888
0.0216639
0.0207298
0.0199012
0.0191908
0.0186097
0.0181671
0.0178681
0.0177077
0.0528264
0.053277
0.0541755
0.0555042
0.0572435
0.059367
0.0618425
0.0646319
0.0676924
0.0709766
0.0744337
0.0780096
0.0816484
0.0852929
0.0888854
0.0923688
0.0956877
0.0987888
0.101622
0.104143
0.106309
0.108085
0.109444
0.110362
0.110825
0.110825
0.110363
0.109445
0.108086
0.10631
0.104144
0.101624
0.0987908
0.09569
0.0923715
0.0888884
0.0852962
0.0816521
0.0780137
0.0744382
0.0709817
0.0676981
0.0646384
0.0618501
0.0593763
0.0572553
0.0555205
0.0541995
0.0533127
0.0528534
0.0871599
0.0879062
0.089387
0.0915787
0.0944481
0.0979517
0.102036
0.106638
0.111687
0.117106
0.12281
0.128709
0.134713
0.140725
0.146652
0.152399
0.157875
0.162991
0.167666
0.171824
0.175397
0.178328
0.18057
0.182084
0.182848
0.182848
0.182085
0.18057
0.178329
0.175398
0.171825
0.167667
0.162993
0.157877
0.152402
0.146656
0.140729
0.134717
0.128715
0.122816
0.117113
0.111696
0.106648
0.102048
0.0979658
0.0944659
0.0916019
0.0894191
0.0879521
0.08721
0.12023
0.121258
0.123298
0.126319
0.130274
0.135104
0.140734
0.147078
0.154038
0.161508
0.16937
0.177503
0.185779
0.194067
0.202238
0.21016
0.217708
0.22476
0.231204
0.236935
0.241861
0.245902
0.248991
0.25108
0.252133
0.252133
0.25108
0.248993
0.245904
0.241864
0.236938
0.231208
0.224765
0.217713
0.210166
0.202245
0.194076
0.185788
0.177514
0.169382
0.161521
0.154053
0.147094
0.140752
0.135125
0.130299
0.126348
0.123334
0.1213
0.120276
0.151506
0.1528
0.155369
0.159173
0.164154
0.170236
0.177326
0.185316
0.194082
0.203488
0.213389
0.223631
0.234053
0.24449
0.254779
0.264755
0.27426
0.283141
0.291255
0.298472
0.304675
0.309764
0.313654
0.316284
0.31761
0.31761
0.316285
0.313656
0.309767
0.304679
0.298478
0.291262
0.283148
0.274269
0.264765
0.254791
0.244503
0.234068
0.223648
0.213408
0.203509
0.194104
0.185341
0.177354
0.170267
0.164188
0.159211
0.155411
0.152847
0.151555
0.180515
0.182055
0.185114
0.189643
0.195574
0.202815
0.211257
0.22077
0.231207
0.242406
0.254195
0.266389
0.278797
0.291224
0.303473
0.315351
0.326667
0.33724
0.346901
0.355493
0.362878
0.368935
0.373567
0.376698
0.378276
0.378277
0.3767
0.37357
0.36894
0.362883
0.3555
0.346909
0.33725
0.326679
0.315365
0.30349
0.291243
0.278819
0.266413
0.254222
0.242436
0.23124
0.220806
0.211297
0.202859
0.195621
0.189694
0.185168
0.182113
0.180574
0.206809
0.208572
0.212073
0.217258
0.224048
0.232338
0.242002
0.252892
0.26484
0.277661
0.291157
0.305116
0.31932
0.333545
0.347567
0.361163
0.374117
0.38622
0.397278
0.407113
0.415566
0.4225
0.427802
0.431386
0.433193
0.433193
0.431388
0.427806
0.422506
0.415574
0.407123
0.39729
0.386234
0.374134
0.361184
0.347591
0.333573
0.319351
0.305151
0.291197
0.277706
0.26489
0.252947
0.242061
0.232402
0.224116
0.217331
0.21215
0.208651
0.206889
0.229975
0.231934
0.235825
0.241586
0.24913
0.258341
0.269079
0.281179
0.294454
0.3087
0.323694
0.339203
0.354984
0.370789
0.386368
0.401473
0.415864
0.429311
0.441596
0.452523
0.461914
0.469617
0.475507
0.479488
0.481496
0.481497
0.479491
0.475512
0.469624
0.461924
0.452536
0.441613
0.429331
0.415889
0.401503
0.386403
0.37083
0.355031
0.339256
0.323754
0.308767
0.294529
0.281262
0.269169
0.258438
0.249233
0.241695
0.235938
0.232051
0.230093
0.249642
0.251767
0.255987
0.262235
0.270417
0.280408
0.292054
0.305177
0.319574
0.335024
0.351285
0.368105
0.38522
0.40236
0.419255
0.435636
0.451242
0.465823
0.479146
0.490995
0.501178
0.509532
0.515919
0.520236
0.522413
0.522415
0.520241
0.515926
0.509542
0.501193
0.491013
0.479169
0.465853
0.451278
0.435679
0.419306
0.402421
0.38529
0.368187
0.351378
0.335128
0.319691
0.305305
0.292193
0.280558
0.270577
0.262403
0.256162
0.251947
0.249824
0.265486
0.267744
0.272227
0.278866
0.287559
0.298174
0.310548
0.32449
0.339787
0.356202
0.373478
0.391348
0.409531
0.42774
0.445688
0.463091
0.47967
0.49516
0.509313
0.5219
0.532719
0.541592
0.548378
0.552964
0.555277
0.555279
0.55297
0.548388
0.541607
0.532739
0.521927
0.509348
0.495204
0.479723
0.463156
0.445767
0.427833
0.409639
0.391474
0.373622
0.356364
0.339969
0.324691
0.310767
0.29841
0.287811
0.279131
0.272502
0.268026
0.265771
0.277235
0.279591
0.284268
0.291194
0.300263
0.311337
0.324246
0.338791
0.354749
0.371873
0.389896
0.408537
0.427504
0.446499
0.465222
0.483375
0.500668
0.516826
0.531589
0.544718
0.556002
0.565258
0.572336
0.57712
0.579533
0.579536
0.577129
0.572351
0.565281
0.556033
0.544759
0.531641
0.516892
0.50075
0.483475
0.465343
0.446643
0.427673
0.408733
0.390121
0.372128
0.355036
0.339108
0.324592
0.31171
0.300661
0.291612
0.284703
0.280037
0.277686
0.284676
0.287093
0.291891
0.298996
0.308299
0.319659
0.332901
0.347822
0.364192
0.381757
0.400244
0.419365
0.438821
0.458305
0.477509
0.496128
0.513866
0.530438
0.54558
0.559046
0.57062
0.580113
0.587373
0.59228
0.594756
0.59476
0.592293
0.587396
0.580147
0.570666
0.559108
0.54566
0.53054
0.513992
0.496283
0.477696
0.458529
0.439085
0.419673
0.400598
0.382159
0.364643
0.348322
0.333448
0.320249
0.308928
0.299658
0.292579
0.287798
0.285391
0.287661
0.2901
0.294944
0.302117
0.311508
0.322976
0.336343
0.351405
0.36793
0.38566
0.404322
0.423623
0.443261
0.462927
0.482311
0.501104
0.519008
0.535735
0.551017
0.564609
0.57629
0.585872
0.5932
0.598154
0.600655
0.600661
0.598174
0.593235
0.585924
0.576362
0.564704
0.551141
0.535891
0.519203
0.501344
0.482602
0.463276
0.443673
0.424104
0.404876
0.386291
0.368637
0.35219
0.337202
0.323904
0.312498
0.303159
0.296027
0.291212
0.288787
0.286109
0.288533
0.293346
0.300472
0.309804
0.321199
0.334481
0.349446
0.365864
0.383481
0.402022
0.421199
0.44071
0.460249
0.479506
0.498177
0.515964
0.532581
0.547764
0.561267
0.572872
0.582392
0.589673
0.594596
0.597083
0.597093
0.594627
0.589727
0.582472
0.572983
0.561414
0.547954
0.532823
0.516265
0.498548
0.479957
0.460789
0.44135
0.421946
0.402884
0.384463
0.366968
0.35067
0.335821
0.322648
0.311351
0.302102
0.29504
0.290272
0.28787
0.28001
0.28238
0.287086
0.294054
0.303179
0.314319
0.327305
0.341937
0.357989
0.375213
0.39334
0.412088
0.431163
0.450265
0.469092
0.487345
0.504733
0.520978
0.535821
0.549021
0.560367
0.569675
0.576794
0.58161
0.584045
0.58406
0.581657
0.576876
0.569797
0.560536
0.549246
0.536112
0.521348
0.505195
0.487915
0.469785
0.451097
0.432149
0.413241
0.394671
0.37673
0.359695
0.343832
0.329381
0.316565
0.305577
0.296582
0.289715
0.285079
0.282745
0.269431
0.271709
0.276233
0.282932
0.291703
0.302412
0.314896
0.328962
0.344392
0.360949
0.378374
0.396395
0.414731
0.433092
0.451188
0.468733
0.485446
0.501062
0.515328
0.528017
0.538924
0.547872
0.554718
0.559351
0.561698
0.561721
0.559423
0.554842
0.548056
0.539179
0.528357
0.51577
0.501623
0.48615
0.469601
0.452245
0.434362
0.416237
0.398158
0.38041
0.363271
0.347007
0.331867
0.318083
0.305862
0.295388
0.286817
0.280275
0.27586
0.273637
0.254509
0.25666
0.260929
0.267251
0.275529
0.285637
0.297419
0.310693
0.325256
0.340881
0.357325
0.374332
0.391636
0.408963
0.42604
0.442597
0.458369
0.473105
0.486568
0.498544
0.508838
0.517285
0.52375
0.528129
0.530353
0.530388
0.528236
0.523936
0.517562
0.509221
0.499054
0.487232
0.47395
0.459428
0.443905
0.427635
0.410881
0.393913
0.377
0.360411
0.344404
0.329225
0.315107
0.302263
0.290885
0.281139
0.273168
0.267087
0.262984
0.260919
0.23546
0.237448
0.241394
0.247239
0.254891
0.264234
0.275125
0.287395
0.300856
0.315299
0.3305
0.34622
0.362214
0.378229
0.394014
0.409317
0.423896
0.437517
0.449963
0.461033
0.470551
0.478364
0.484347
0.488405
0.490475
0.490526
0.488563
0.484623
0.478774
0.47112
0.461792
0.450949
0.438775
0.425474
0.41127
0.396396
0.381098
0.365622
0.350218
0.335129
0.32059
0.306823
0.294037
0.28242
0.272141
0.263347
0.256162
0.250686
0.246993
0.245135
0.212569
0.214362
0.217922
0.223194
0.230097
0.238526
0.24835
0.25942
0.271562
0.284591
0.298303
0.312483
0.32691
0.341357
0.355596
0.3694
0.382551
0.394839
0.406067
0.416057
0.424647
0.431703
0.43711
0.440786
0.442675
0.44275
0.441018
0.437514
0.432304
0.425482
0.417171
0.407518
0.396691
0.384878
0.372281
0.359116
0.345601
0.33196
0.318414
0.305178
0.292456
0.280442
0.269313
0.259226
0.250323
0.242722
0.236524
0.231807
0.228629
0.227032
0.18619
0.18776
0.190877
0.195491
0.201534
0.208911
0.217511
0.2272
0.237829
0.249232
0.261234
0.273646
0.286274
0.298919
0.311382
0.323465
0.334977
0.345735
0.355566
0.364315
0.371842
0.378029
0.382779
0.38602
0.387705
0.387814
0.386356
0.383364
0.378901
0.373053
0.365934
0.357675
0.348431
0.338369
0.327672
0.316528
0.305132
0.293677
0.282352
0.271339
0.260806
0.25091
0.241789
0.233564
0.226338
0.220196
0.215207
0.211421
0.208878
0.2076
0.156743
0.158064
0.160686
0.164569
0.169653
0.17586
0.183095
0.191247
0.200189
0.209784
0.219881
0.230324
0.240948
0.251588
0.262074
0.272241
0.281929
0.290983
0.29926
0.306629
0.312974
0.318197
0.322218
0.32498
0.326445
0.326601
0.32546
0.323055
0.319445
0.31471
0.308952
0.302291
0.294863
0.286818
0.278314
0.269515
0.260585
0.251685
0.242969
0.234578
0.22664
0.219264
0.212544
0.206553
0.201347
0.196968
0.193443
0.190789
0.189015
0.188128
0.124702
0.125753
0.127838
0.130925
0.134968
0.139904
0.145658
0.15214
0.159251
0.16688
0.17491
0.183214
0.191663
0.200124
0.208464
0.216551
0.224258
0.231463
0.238054
0.243926
0.248991
0.253171
0.256406
0.258654
0.259891
0.260112
0.259333
0.257589
0.254937
0.25145
0.247222
0.24236
0.236985
0.231227
0.225221
0.219105
0.213012
0.207068
0.201385
0.196062
0.191174
0.18678
0.182913
0.17959
0.176808
0.174552
0.172795
0.171512
0.170674
0.17026
0.0905909
0.0913537
0.0928678
0.0951099
0.0980457
0.10163
0.105808
0.110516
0.11568
0.12122
0.127051
0.133082
0.139219
0.145364
0.151423
0.157299
0.162902
0.168143
0.172943
0.177227
0.180934
0.18401
0.186417
0.18813
0.189137
0.189446
0.189077
0.188069
0.186479
0.184376
0.181847
0.178989
0.175909
0.172721
0.169537
0.166471
0.163622
0.161081
0.158916
0.157172
0.155869
0.155
0.154529
0.154399
0.154532
0.154839
0.155228
0.15561
0.155912
0.156076
0.0549715
0.0554344
0.0563528
0.057713
0.059494
0.0616685
0.0642032
0.0670591
0.070192
0.0735535
0.0770915
0.0807509
0.084475
0.0882058
0.0918853
0.0954566
0.0988652
0.10206
0.104993
0.107624
0.109919
0.111851
0.113404
0.114571
0.115358
0.115783
0.115876
0.115683
0.11526
0.114679
0.114023
0.113382
0.112854
0.11254
0.112534
0.112925
0.113785
0.115163
0.117081
0.119527
0.122452
0.125772
0.129365
0.13308
0.136743
0.140171
0.143181
0.145607
0.147309
0.148184
0.0184356
0.018591
0.0188987
0.0193547
0.0199519
0.020681
0.021531
0.0224887
0.0235395
0.0246672
0.0258545
0.0270832
0.0283348
0.0295904
0.0308316
0.0320408
0.0332015
0.0342995
0.0353231
0.0362638
0.0371176
0.0378857
0.0385755
0.0392017
0.0397873
0.0403651
0.040978
0.0416797
0.0425353
0.0436201
0.045019
0.0468232
0.0491273
0.0520239
0.0555973
0.0599163
0.0650251
0.0709358
0.0776193
0.0849995
0.0929486
0.101287
0.109785
0.118173
0.126154
0.13342
0.139668
0.144626
0.148068
0.149828
-0.0184079
-0.0185627
-0.0188705
-0.0193262
-0.0199226
-0.0206507
-0.0214994
-0.0224553
-0.0235038
-0.0246282
-0.0258108
-0.0270326
-0.0282735
-0.0295129
-0.0307293
-0.0319006
-0.0330045
-0.0340176
-0.0349158
-0.0356739
-0.0362649
-0.0366589
-0.0368231
-0.0367196
-0.0363051
-0.035529
-0.0343325
-0.0326476
-0.0303967
-0.027493
-0.0238414
-0.0193421
-0.0138944
-0.00740299
0.000213368
0.00901249
0.0190173
0.0302043
0.0424922
0.0557327
0.0697048
0.0841131
0.0985937
0.112725
0.126047
0.138084
0.148377
0.15651
0.162138
0.165013
-0.0549443
-0.0554066
-0.0563251
-0.0576849
-0.0594652
-0.0616387
-0.064172
-0.067026
-0.0701565
-0.0735146
-0.0770476
-0.0806997
-0.0844125
-0.088126
-0.0917791
-0.0953103
-0.0986582
-0.101762
-0.104562
-0.106998
-0.109012
-0.110545
-0.111535
-0.111921
-0.111635
-0.110606
-0.108754
-0.10599
-0.102218
-0.0973279
-0.0912062
-0.083732
-0.0747854
-0.0642553
-0.0520499
-0.0381103
-0.0224254
-0.00504879
0.0138856
0.0341499
0.0554132
0.077239
0.0990921
0.120355
0.140352
0.158389
0.173791
0.185948
0.194356
0.198648
-0.0905646
-0.0913269
-0.092841
-0.0950827
-0.0980178
-0.101601
-0.105778
-0.110483
-0.115645
-0.121182
-0.127007
-0.13303
-0.139154
-0.14528
-0.151309
-0.157141
-0.162675
-0.167815
-0.172464
-0.176529
-0.179919
-0.182544
-0.184315
-0.185142
-0.184932
-0.183585
-0.180996
-0.177048
-0.171615
-0.164555
-0.155721
-0.144955
-0.1321
-0.117012
-0.0995698
-0.079695
-0.0573742
-0.0326811
-0.00579978
0.022955
0.0531233
0.0840955
0.115119
0.14532
0.173742
0.199394
0.221311
0.238617
0.250591
0.256705
-0.124677
-0.125727
-0.127812
-0.130899
-0.134941
-0.139876
-0.145628
-0.152108
-0.159217
-0.166842
-0.174865
-0.18316
-0.191594
-0.200033
-0.208339
-0.216374
-0.224002
-0.231089
-0.237504
-0.24312
-0.247815
-0.251465
-0.253953
-0.255158
-0.254957
-0.253218
-0.249802
-0.244555
-0.237309
-0.227877
-0.216058
-0.20164
-0.184406
-0.164153
-0.140704
-0.113939
-0.0838191
-0.0504219
-0.0139748
0.025115
0.0662378
0.108571
0.151085
0.192576
0.231711
0.267101
0.297387
0.321333
0.337916
0.346389
-0.15672
-0.15804
-0.160662
-0.164545
-0.169628
-0.175834
-0.183067
-0.191217
-0.200156
-0.209746
-0.219836
-0.230268
-0.240875
-0.251488
-0.261933
-0.272039
-0.281633
-0.290546
-0.298615
-0.305679
-0.311582
-0.316172
-0.319297
-0.320803
-0.320534
-0.31832
-0.313978
-0.307308
-0.298085
-0.286058
-0.270953
-0.252476
-0.230323
-0.204199
-0.173839
-0.139045
-0.0997207
-0.0559241
-0.00791077
0.0438186
0.0984822
0.154998
0.211987
0.267812
0.320642
0.368554
0.409653
0.442208
0.464781
0.476325
-0.186169
-0.187739
-0.190855
-0.195469
-0.201511
-0.208887
-0.217485
-0.227171
-0.237796
-0.249195
-0.261188
-0.273587
-0.286194
-0.298808
-0.311223
-0.323232
-0.334632
-0.345222
-0.354803
-0.363186
-0.370182
-0.375605
-0.379272
-0.380992
-0.380569
-0.377789
-0.372418
-0.364193
-0.352818
-0.337956
-0.319236
-0.29625
-0.268571
-0.23577
-0.19745
-0.153287
-0.103086
-0.0468445
0.0151796
0.0823986
0.153839
0.228106
0.303381
0.377463
0.447862
0.511932
0.567051
0.610809
0.641197
0.656753
-0.21255
-0.214343
-0.217903
-0.223174
-0.230077
-0.238504
-0.248326
-0.259393
-0.271531
-0.284553
-0.298255
-0.31242
-0.326823
-0.341233
-0.355414
-0.369131
-0.382148
-0.394235
-0.405165
-0.414716
-0.422668
-0.428805
-0.432906
-0.434743
-0.434074
-0.430635
-0.424127
-0.414214
-0.400507
-0.382562
-0.359877
-0.331897
-0.298024
-0.257647
-0.210177
-0.155104
-0.0920709
-0.0209573
0.0580199
0.144208
0.23643
0.332921
0.431313
0.52868
0.621654
0.706618
0.779956
0.838324
0.87893
0.899741
-0.235444
-0.237431
-0.241378
-0.247221
-0.254872
-0.264214
-0.275103
-0.28737
-0.300826
-0.315262
-0.330451
-0.346153
-0.362119
-0.378091
-0.393808
-0.409007
-0.423428
-0.436811
-0.448902
-0.459451
-0.468208
-0.474924
-0.479342
-0.481192
-0.480184
-0.475992
-0.468245
-0.456515
-0.440303
-0.419028
-0.392026
-0.358548
-0.317777
-0.268852
-0.210923
-0.143213
-0.0651152
0.023689
0.123096
0.232436
0.350331
0.474595
0.602185
0.729239
0.851233
0.963238
1.06028
1.13773
1.19171
1.21941
-0.254496
-0.256646
-0.260915
-0.267236
-0.275514
-0.285619
-0.297399
-0.31067
-0.325227
-0.340844
-0.357275
-0.374261
-0.391532
-0.408808
-0.425806
-0.442241
-0.457828
-0.472286
-0.485334
-0.496695
-0.506092
-0.513244
-0.517856
-0.519616
-0.518177
-0.513146
-0.504069
-0.49041
-0.471538
-0.446709
-0.415055
-0.375587
-0.327207
-0.268734
-0.198962
-0.116745
-0.0211152
0.0885665
0.21242
0.349843
0.499299
0.658142
0.822516
0.987374
1.14666
1.29367
1.42156
1.52395
1.59546
1.6322
-0.26942
-0.271698
-0.276222
-0.28292
-0.29169
-0.302398
-0.314879
-0.32894
-0.344365
-0.360912
-0.378322
-0.396319
-0.414618
-0.43292
-0.450925
-0.46833
-0.48483
-0.500123
-0.513908
-0.525885
-0.535749
-0.543188
-0.547871
-0.549438
-0.547485
-0.541546
-0.53107
-0.515401
-0.493752
-0.465187
-0.428598
-0.382704
-0.326055
-0.257064
-0.174066
-0.0754158
0.040369
0.174409
0.327218
0.49841
0.686386
0.888049
1.0986
1.3115
1.51867
1.711
1.87909
2.01408
2.10856
2.15716
-0.280002
-0.282372
-0.287078
-0.294045
-0.303168
-0.314307
-0.32729
-0.341918
-0.357963
-0.375176
-0.393286
-0.412008
-0.43104
-0.450076
-0.468799
-0.486893
-0.504039
-0.519917
-0.534211
-0.546598
-0.55675
-0.564327
-0.56896
-0.570242
-0.567709
-0.560814
-0.548905
-0.531189
-0.506709
-0.474304
-0.43259
-0.37994
-0.314484
-0.234133
-0.136637
-0.0196973
0.118873
0.280901
0.467541
0.678864
0.913413
1.16773
1.43598
1.70978
1.97842
2.22948
2.44996
2.62763
2.75222
2.81638
-0.286103
-0.288527
-0.29334
-0.300466
-0.309796
-0.321189
-0.334468
-0.349428
-0.365839
-0.383444
-0.401967
-0.421113
-0.440577
-0.460042
-0.479185
-0.497678
-0.515193
-0.531401
-0.545967
-0.558556
-0.568819
-0.576386
-0.580856
-0.581775
-0.578618
-0.570756
-0.557426
-0.537694
-0.510412
-0.474177
-0.427292
-0.367735
-0.293145
-0.200833
-0.0878328
0.0489922
0.212766
0.406319
0.631789
0.89009
1.18026
1.49875
1.83869
2.18954
2.53709
2.86436
3.1533
3.38687
3.55093
3.63547
-0.287658
-0.290098
-0.294941
-0.302112
-0.311503
-0.322968
-0.336332
-0.351389
-0.367906
-0.385624
-0.404265
-0.423533
-0.44312
-0.462706
-0.481963
-0.500562
-0.518167
-0.534442
-0.549046
-0.561629
-0.571826
-0.579245
-0.583453
-0.583952
-0.580157
-0.571358
-0.556682
-0.535047
-0.505108
-0.465203
-0.413298
-0.346937
-0.263207
-0.158725
-0.0296714
0.128124
0.318997
0.547146
0.81617
1.12839
1.48396
1.87976
2.30821
2.7563
3.2053
3.63184
4.01049
4.31739
4.53314
4.64433
-0.284676
-0.287092
-0.29189
-0.298994
-0.308296
-0.319654
-0.332892
-0.347808
-0.364169
-0.38172
-0.400186
-0.419272
-0.438673
-0.45807
-0.477138
-0.495548
-0.512965
-0.52905
-0.543458
-0.555832
-0.565796
-0.572939
-0.576802
-0.576849
-0.572438
-0.562785
-0.54691
-0.523586
-0.491274
-0.448049
-0.391531
-0.318806
-0.226366
-0.11006
0.0349109
0.213941
0.432874
0.697712
1.01412
1.38663
1.81748
2.30504
2.8418
3.41239
3.99232
4.54896
5.04577
5.449
5.73224
5.87805
-0.277237
-0.279592
-0.284269
-0.291194
-0.300262
-0.311333
-0.324238
-0.338778
-0.354727
-0.371837
-0.389837
-0.408441
-0.427351
-0.446255
-0.464835
-0.482766
-0.499721
-0.515363
-0.529349
-0.541321
-0.550895
-0.55765
-0.561106
-0.560697
-0.555735
-0.545368
-0.528522
-0.50384
-0.469599
-0.423627
-0.363206
-0.284968
-0.184796
-0.0577333
0.102082
0.301434
0.547954
0.849909
1.21574
1.65327
2.1683
2.76247
3.43017
4.15471
4.9047
5.63378
6.28743
6.81719
7.18795
7.37819
-0.26549
-0.267748
-0.27223
-0.278868
-0.287559
-0.298172
-0.310542
-0.324479
-0.339766
-0.356166
-0.373419
-0.391252
-0.409375
-0.42749
-0.445292
-0.462466
-0.478695
-0.493652
-0.507001
-0.518387
-0.527429
-0.533701
-0.536711
-0.535873
-0.530466
-0.519586
-0.502085
-0.476497
-0.440945
-0.393041
-0.329766
-0.247334
-0.141053
-0.0051742
0.167246
0.384465
0.65611
0.993121
1.40748
1.91154
2.51667
3.23074
4.05372
4.97087
5.94412
6.90621
7.77026
8.46572
8.94815
9.1941
-0.249648
-0.251773
-0.255992
-0.262239
-0.270418
-0.280406
-0.292049
-0.305166
-0.319554
-0.334989
-0.351227
-0.36801
-0.385065
-0.40211
-0.418857
-0.435008
-0.450261
-0.464304
-0.476814
-0.487448
-0.495831
-0.501544
-0.504092
-0.502884
-0.49718
-0.486048
-0.468291
-0.442369
-0.406295
-0.357521
-0.292791
-0.20798
-0.0979072
0.0438742
0.22531
0.456088
0.747875
1.11452
1.57212
2.13884
2.834
3.67589
4.67667
5.83202
7.10272
8.39091
9.54121
10.4509
11.0712
11.3838
-0.229983
-0.231942
-0.235831
-0.24159
-0.249132
-0.25834
-0.269075
-0.281169
-0.294435
-0.308666
-0.323637
-0.33911
-0.354833
-0.370545
-0.385979
-0.400859
-0.414904
-0.427821
-0.439307
-0.449037
-0.456653
-0.461749
-0.463843
-0.46235
-0.456535
-0.445463
-0.427923
-0.402347
-0.366699
-0.318342
-0.253884
-0.168985
-0.0581256
0.0856591
0.271106
0.509107
0.81316
1.1999
1.6897
2.30725
3.08194
4.04738
5.23807
6.67835
8.35134
10.1272
11.6717
12.8486
13.6278
14.0136
-0.206819
-0.208582
-0.212081
-0.217264
-0.22405
-0.232338
-0.241998
-0.252882
-0.264822
-0.277629
-0.291103
-0.305027
-0.319176
-0.333313
-0.347198
-0.36058
-0.373203
-0.384803
-0.395099
-0.403793
-0.41055
-0.41499
-0.416655
-0.414987
-0.409277
-0.398617
-0.381824
-0.357357
-0.323201
-0.276731
-0.214546
-0.13225
-0.0242052
0.116798
0.299938
0.536869
0.842381
1.23526
1.73948
2.38578
3.21401
4.27618
5.64006
7.38944
9.6013
12.2053
14.2854
15.7633
16.6998
17.1529
-0.180528
-0.182067
-0.185123
-0.189649
-0.195576
-0.202814
-0.211252
-0.22076
-0.231189
-0.242376
-0.254145
-0.266307
-0.278664
-0.291011
-0.303134
-0.314816
-0.325829
-0.335941
-0.344902
-0.352445
-0.358269
-0.362029
-0.363308
-0.361589
-0.356217
-0.346342
-0.330858
-0.308308
-0.276784
-0.233783
-0.176042
-0.0993142
0.00189645
0.134685
0.308192
0.534192
0.827888
1.20901
1.70343
2.34559
3.18251
4.28092
5.7414
7.72982
10.5573
14.9113
17.6099
19.3319
20.3704
20.8616
-0.151523
-0.152815
-0.155379
-0.159179
-0.164156
-0.170234
-0.177321
-0.185305
-0.194064
-0.203459
-0.213343
-0.223557
-0.233935
-0.244302
-0.254481
-0.264286
-0.273526
-0.282003
-0.289504
-0.295802
-0.300636
-0.303706
-0.304649
-0.30301
-0.298211
-0.289497
-0.27588
-0.256058
-0.228312
-0.190382
-0.139302
-0.0711925
0.0190003
0.137851
0.293903
0.498268
0.765447
1.11448
1.57063
2.16794
2.95336
3.99408
5.39184
7.31447
10.0759
14.3671
17.0097
18.6863
19.6928
20.1675
-0.120253
-0.121276
-0.123308
-0.126323
-0.130274
-0.1351
-0.140726
-0.147066
-0.154021
-0.161481
-0.16933
-0.17744
-0.185679
-0.19391
-0.201991
-0.209772
-0.217103
-0.223824
-0.229764
-0.234739
-0.238539
-0.240919
-0.241579
-0.240147
-0.236143
-0.228941
-0.217718
-0.201383
-0.178495
-0.147151
-0.104841
-0.0482741
0.0268645
0.126214
0.257143
0.42929
0.655294
0.951797
1.34084
1.85183
2.52426
3.41135
4.58424
6.13266
8.14219
10.5533
12.4615
13.7997
14.6378
15.04
-0.0871929
-0.0879346
-0.0894007
-0.0915843
-0.0944488
-0.0979487
-0.10203
-0.106628
-0.111673
-0.117085
-0.122778
-0.128661
-0.134637
-0.140607
-0.146467
-0.15211
-0.157424
-0.162293
-0.166593
-0.170188
-0.172922
-0.174615
-0.175044
-0.173931
-0.170917
-0.165532
-0.157156
-0.144967
-0.127876
-0.104438
-0.0727477
-0.0302926
0.0262271
0.101141
0.200123
0.330615
0.502381
0.728242
1.02503
1.41471
1.92555
2.5926
3.45555
4.54863
5.87
7.30917
8.55307
9.48546
10.0925
10.3896
-0.0528412
-0.0533005
-0.0541873
-0.0555096
-0.0572452
-0.0593663
-0.0618397
-0.064627
-0.0676847
-0.0709649
-0.0744154
-0.077981
-0.0816033
-0.0852215
-0.0887727
-0.0921918
-0.0954112
-0.09836
-0.100962
-0.103135
-0.104783
-0.105796
-0.106035
-0.10533
-0.103458
-0.100128
-0.0949545
-0.0874271
-0.0768662
-0.0623708
-0.0427487
-0.0164262
0.0186683
0.0652579
0.126917
0.208337
0.315666
0.456941
0.642603
0.885995
1.2036
1.61437
2.13655
2.77942
3.52612
4.30914
5.00728
5.54944
5.91139
6.09091
-0.0177028
-0.0178631
-0.0181621
-0.0186052
-0.0191866
-0.0198971
-0.0207257
-0.0216593
-0.0226836
-0.0237823
-0.0249382
-0.0261325
-0.0273458
-0.0285577
-0.0297471
-0.0308922
-0.0319703
-0.0329576
-0.0338286
-0.0345554
-0.035106
-0.0354428
-0.0355197
-0.0352786
-0.0346442
-0.033518
-0.0317695
-0.0292253
-0.0256547
-0.0207516
-0.0141103
-0.00519495
0.00670052
0.0225051
0.0434391
0.0711036
0.107595
0.155647
0.218785
0.301458
0.409034
0.547399
0.721668
0.933241
1.17471
1.42447
1.6494
1.82668
1.94642
2.0062
)
;

boundaryField
{
    walls
    {
        type            calculated;
        value           nonuniform List<scalar> 
200
(
0
0
0
0
0
0
0
0
0
0
0
0
0
0
0
0
0
0
0
0
0
0
0
0
0
0
0
0
0
0
0
0
0
0
0
0
0
0
0
0
0
0
0
0
0
0
0
0
0
0
0.0177077
0.0528264
0.0871599
0.12023
0.151506
0.180515
0.206809
0.229975
0.249642
0.265486
0.277235
0.284676
0.287661
0.286109
0.28001
0.269431
0.254509
0.23546
0.212569
0.18619
0.156743
0.124702
0.0905909
0.0549715
0.0184356
-0.0184079
-0.0549443
-0.0905646
-0.124677
-0.15672
-0.186169
-0.21255
-0.235444
-0.254496
-0.26942
-0.280002
-0.286103
-0.287658
-0.284676
-0.277237
-0.26549
-0.249648
-0.229983
-0.206819
-0.180528
-0.151523
-0.120253
-0.0871929
-0.0528412
-0.0177028
0.0177077
0.0528534
0.08721
0.120276
0.151555
0.180574
0.206889
0.230093
0.249824
0.265771
0.277686
0.285391
0.288787
0.28787
0.282745
0.273637
0.260919
0.245135
0.227032
0.2076
0.188128
0.17026
0.156076
0.148184
0.149828
0.165013
0.198648
0.256705
0.346389
0.476325
0.656753
0.899741
1.21941
1.6322
2.15716
2.81638
3.63547
4.64433
5.87805
7.37819
9.1941
11.3838
14.0136
17.1529
20.8616
20.1675
15.04
10.3896
6.09091
2.0062
0
0
0
0
0
0
0
0
0
0
0
0
0
0
0
0
0
0
0
0
0
0
0
0
0
0
0
0
0
0
0
0
0
0
0
0
0
0
0
0
0
0
0
0
0
0
0
0
0
0
)
;
    }
    frontAndBack
    {
        type            empty;
    }
}


// ************************************************************************* //
