/*--------------------------------*- C++ -*----------------------------------*\
| =========                 |                                                 |
| \\      /  F ield         | OpenFOAM: The Open Source CFD Toolbox           |
|  \\    /   O peration     | Version:  2406                                  |
|   \\  /    A nd           | Website:  www.openfoam.com                      |
|    \\/     M anipulation  |                                                 |
\*---------------------------------------------------------------------------*/
FoamFile
{
    version     2.0;
    format      ascii;
    arch        "LSB;label=32;scalar=64";
    class       volScalarField;
    location    "0.35";
    object      T;
}
// * * * * * * * * * * * * * * * * * * * * * * * * * * * * * * * * * * * * * //

dimensions      [0 0 0 1 0 0 0];

internalField   nonuniform List<scalar> 
2500
(
0.0776626
0.0783709
0.0797756
0.0818573
0.0845848
0.0879175
0.0918054
0.0961899
0.101004
0.106176
0.111624
0.117265
0.123011
0.128771
0.134455
0.139972
0.145232
0.150152
0.154651
0.158655
0.162098
0.164925
0.167087
0.168548
0.169285
0.169286
0.168549
0.167088
0.164927
0.162101
0.158658
0.154654
0.150156
0.145236
0.139976
0.13446
0.128776
0.123015
0.117269
0.111628
0.10618
0.101009
0.0961941
0.0918094
0.0879213
0.0845883
0.0818604
0.0797782
0.0783727
0.0776645
0.0783709
0.0790852
0.080502
0.0826014
0.0853523
0.0887134
0.0926345
0.0970563
0.101912
0.107127
0.112622
0.118311
0.124105
0.129915
0.135647
0.14121
0.146515
0.151476
0.156013
0.160051
0.163523
0.166373
0.168553
0.170027
0.170771
0.170771
0.170028
0.168555
0.166375
0.163526
0.160054
0.156016
0.15148
0.146519
0.141214
0.135651
0.129919
0.12411
0.118315
0.112626
0.107132
0.101916
0.0970606
0.0926386
0.0887173
0.0853559
0.0826048
0.0805049
0.0790874
0.0783729
0.0797756
0.080502
0.0819426
0.0840774
0.0868746
0.0902922
0.0942791
0.0987751
0.103712
0.109015
0.114601
0.120385
0.126277
0.132183
0.138011
0.143667
0.14906
0.154104
0.158716
0.162821
0.166351
0.169248
0.171464
0.172963
0.173718
0.173719
0.172964
0.171466
0.16925
0.166353
0.162823
0.158719
0.154107
0.149064
0.143671
0.138015
0.132188
0.126281
0.12039
0.114606
0.109019
0.103717
0.0987796
0.0942834
0.0902964
0.0868785
0.0840812
0.0819462
0.0805052
0.0797787
0.0818573
0.0826014
0.0840774
0.0862646
0.0891302
0.0926315
0.0967159
0.101322
0.106379
0.111811
0.117534
0.123459
0.129494
0.135544
0.141513
0.147306
0.15283
0.157996
0.16272
0.166924
0.170539
0.173506
0.175776
0.177311
0.178085
0.178085
0.177312
0.175778
0.173508
0.170542
0.166927
0.162723
0.158
0.152834
0.14731
0.141517
0.135548
0.129499
0.123464
0.117539
0.111816
0.106384
0.101327
0.0967205
0.092636
0.0891346
0.0862688
0.0840816
0.0826055
0.0818613
0.0845848
0.0853523
0.0868746
0.0891302
0.0920855
0.0956963
0.0999085
0.104658
0.109874
0.115475
0.121376
0.127485
0.133708
0.139946
0.1461
0.152073
0.157768
0.163094
0.167964
0.172298
0.176025
0.179084
0.181424
0.183006
0.183804
0.183804
0.183007
0.181425
0.179086
0.176028
0.172301
0.167967
0.163098
0.157772
0.152077
0.146105
0.139951
0.133713
0.127491
0.121381
0.11548
0.109879
0.104663
0.0999135
0.0957014
0.0920905
0.0891351
0.0868795
0.0853572
0.0845897
0.0879175
0.0887134
0.0902922
0.0926315
0.0956963
0.0994409
0.103809
0.108734
0.114143
0.119951
0.12607
0.132404
0.138856
0.145323
0.151704
0.157896
0.1638
0.169322
0.17437
0.178863
0.182726
0.185897
0.188322
0.189962
0.190789
0.190789
0.189963
0.188324
0.185899
0.182729
0.178866
0.174373
0.169326
0.163805
0.157901
0.151709
0.145328
0.138861
0.13241
0.126075
0.119956
0.114148
0.10874
0.103815
0.0994467
0.0957021
0.0926373
0.0902981
0.0887193
0.0879235
0.0918054
0.0926345
0.0942791
0.0967159
0.0999085
0.103809
0.108359
0.113489
0.119122
0.125171
0.131544
0.138141
0.14486
0.151595
0.158239
0.164687
0.170835
0.176584
0.18184
0.186518
0.19054
0.193842
0.196367
0.198074
0.198935
0.198935
0.198075
0.196368
0.193844
0.190543
0.186521
0.181844
0.176588
0.17084
0.164692
0.158244
0.1516
0.144866
0.138147
0.13155
0.125178
0.119128
0.113496
0.108365
0.103816
0.0999153
0.0967229
0.0942863
0.0926417
0.0918127
0.0961899
0.0970563
0.0987751
0.101322
0.104658
0.108734
0.113489
0.11885
0.124736
0.131057
0.137716
0.144609
0.151629
0.158665
0.165607
0.172343
0.178765
0.18477
0.190261
0.195147
0.199349
0.202797
0.205434
0.207218
0.208117
0.208117
0.207219
0.205436
0.202799
0.199352
0.195151
0.190265
0.184775
0.17877
0.172348
0.165612
0.158671
0.151635
0.144616
0.137723
0.131065
0.124744
0.118858
0.113497
0.108743
0.104667
0.101331
0.0987841
0.0970654
0.096199
0.101004
0.101912
0.103712
0.106379
0.109874
0.114143
0.119122
0.124736
0.1309
0.137519
0.144492
0.151709
0.159059
0.166426
0.173694
0.180746
0.18747
0.193756
0.199504
0.204619
0.209017
0.212626
0.215387
0.217253
0.218195
0.218195
0.217254
0.215389
0.212629
0.20902
0.204622
0.199508
0.193761
0.187475
0.180752
0.173701
0.166434
0.159067
0.151717
0.1445
0.137528
0.13091
0.124746
0.119132
0.114153
0.109885
0.106391
0.103724
0.101924
0.101016
0.106176
0.107127
0.109015
0.111811
0.115475
0.119951
0.125171
0.131057
0.137519
0.144458
0.151767
0.159333
0.167038
0.174759
0.182377
0.189768
0.196815
0.203403
0.209427
0.214787
0.219396
0.223178
0.226071
0.228027
0.229013
0.229014
0.228028
0.226073
0.223181
0.219399
0.214791
0.209432
0.203409
0.196821
0.189775
0.182385
0.174768
0.167047
0.159343
0.151778
0.14447
0.137531
0.13107
0.125185
0.119965
0.11549
0.111827
0.109031
0.107143
0.106192
0.111624
0.112622
0.114601
0.117534
0.121376
0.12607
0.131544
0.137716
0.144492
0.151767
0.159431
0.167363
0.17544
0.183536
0.191521
0.19927
0.206656
0.213563
0.219876
0.225495
0.230326
0.23429
0.237322
0.239372
0.240406
0.240406
0.239373
0.237324
0.234293
0.23033
0.2255
0.219882
0.213569
0.206664
0.199278
0.191531
0.183547
0.175453
0.167376
0.159445
0.151783
0.144508
0.137734
0.131563
0.12609
0.121397
0.117556
0.114624
0.112645
0.111647
0.117265
0.118311
0.120385
0.123459
0.127485
0.132404
0.138141
0.144609
0.151709
0.159333
0.167363
0.175675
0.184138
0.192619
0.200986
0.209103
0.216841
0.224076
0.23069
0.236576
0.241636
0.245789
0.248965
0.251112
0.252195
0.252195
0.251113
0.248967
0.245792
0.241641
0.236581
0.230697
0.224085
0.216851
0.209114
0.200998
0.192634
0.184154
0.175693
0.167383
0.159355
0.151733
0.144635
0.138169
0.132433
0.127516
0.123491
0.120419
0.118345
0.117299
0.123011
0.124105
0.126277
0.129494
0.133708
0.138856
0.14486
0.151629
0.159059
0.167038
0.17544
0.184138
0.192993
0.201868
0.210622
0.219115
0.227211
0.23478
0.241699
0.247856
0.25315
0.257494
0.260817
0.263063
0.264196
0.264197
0.263065
0.26082
0.257499
0.253156
0.247864
0.241709
0.234791
0.227224
0.21913
0.210639
0.201888
0.193016
0.184163
0.175469
0.167069
0.159094
0.151667
0.144901
0.1389
0.133754
0.129542
0.126327
0.124157
0.123063
0.128771
0.129915
0.132183
0.135544
0.139946
0.145323
0.151595
0.158665
0.166426
0.174759
0.183536
0.192619
0.201868
0.211137
0.220278
0.229147
0.237602
0.245506
0.252731
0.25916
0.264688
0.269223
0.272693
0.275038
0.276221
0.276222
0.27504
0.272697
0.269229
0.264695
0.25917
0.252743
0.24552
0.237619
0.229168
0.220303
0.211165
0.201901
0.192657
0.183578
0.174807
0.166478
0.158722
0.151657
0.14539
0.140016
0.135617
0.13226
0.129993
0.128851
0.134455
0.135647
0.138011
0.141513
0.1461
0.151704
0.158239
0.165607
0.173694
0.182377
0.191521
0.200986
0.210622
0.220278
0.229802
0.239042
0.247849
0.256083
0.26361
0.270307
0.276065
0.28079
0.284404
0.286847
0.288079
0.28808
0.28685
0.284409
0.280798
0.276076
0.27032
0.263627
0.256104
0.247874
0.239072
0.229837
0.22032
0.21067
0.201041
0.191584
0.182448
0.173773
0.165693
0.158334
0.151806
0.146208
0.141626
0.138129
0.135768
0.134578
0.139972
0.14121
0.143667
0.147306
0.152073
0.157896
0.164687
0.172343
0.180746
0.189768
0.19927
0.209103
0.219115
0.229147
0.239042
0.248641
0.257791
0.266345
0.274164
0.281121
0.287102
0.29201
0.295764
0.298302
0.299583
0.299584
0.298307
0.295772
0.292021
0.287117
0.281139
0.274187
0.266374
0.257827
0.248685
0.239094
0.229209
0.219187
0.209186
0.199365
0.189876
0.180866
0.172475
0.164832
0.158052
0.152239
0.147481
0.143848
0.141396
0.140161
0.145232
0.146515
0.14906
0.15283
0.157768
0.1638
0.170835
0.178765
0.18747
0.196815
0.206656
0.216841
0.227211
0.237602
0.247849
0.257791
0.267267
0.276126
0.284223
0.291428
0.297622
0.302705
0.306593
0.309221
0.310547
0.310549
0.309227
0.306603
0.30272
0.297643
0.291455
0.284257
0.276169
0.26732
0.257856
0.247927
0.237694
0.227319
0.216967
0.206801
0.196979
0.187653
0.178968
0.171057
0.16404
0.158024
0.153099
0.14934
0.146802
0.145523
0.150152
0.151476
0.154104
0.157996
0.163094
0.169322
0.176584
0.18477
0.193756
0.203403
0.213563
0.224076
0.23478
0.245506
0.256083
0.266345
0.276126
0.285269
0.293626
0.301063
0.307456
0.312702
0.316714
0.319428
0.320797
0.3208
0.319436
0.316729
0.312723
0.307486
0.301102
0.293677
0.285332
0.276204
0.266441
0.256199
0.245644
0.234943
0.224266
0.213781
0.203652
0.194035
0.18508
0.176922
0.169688
0.163485
0.158407
0.154532
0.151916
0.150597
0.154651
0.156013
0.158716
0.16272
0.167964
0.17437
0.18184
0.190261
0.199504
0.209427
0.219876
0.23069
0.241699
0.252731
0.26361
0.274164
0.284223
0.293626
0.302222
0.309869
0.316444
0.32184
0.325966
0.328757
0.330166
0.33017
0.32877
0.325988
0.321871
0.316488
0.309926
0.302295
0.29372
0.284339
0.274306
0.263783
0.252938
0.241944
0.230976
0.220206
0.209802
0.199926
0.19073
0.182354
0.174926
0.168558
0.163345
0.159367
0.156682
0.155329
0.158655
0.160051
0.162821
0.166924
0.172298
0.178863
0.186518
0.195147
0.204619
0.214787
0.225495
0.236576
0.247856
0.25916
0.270307
0.281121
0.291428
0.301063
0.309869
0.317705
0.324442
0.32997
0.334199
0.337059
0.338504
0.33851
0.337077
0.33423
0.330016
0.324505
0.317788
0.309977
0.3012
0.291599
0.281332
0.270564
0.259468
0.248222
0.237003
0.225988
0.21535
0.205253
0.195852
0.187291
0.1797
0.173194
0.167868
0.163804
0.161061
0.159679
0.162098
0.163523
0.166351
0.170539
0.176025
0.182726
0.19054
0.199349
0.209017
0.219396
0.230326
0.241636
0.25315
0.264688
0.276065
0.287102
0.297622
0.307456
0.316444
0.324442
0.331318
0.336961
0.341278
0.344198
0.345674
0.345683
0.344224
0.341322
0.337027
0.33141
0.324564
0.316602
0.307657
0.297874
0.287413
0.276444
0.265143
0.253691
0.24227
0.23106
0.220234
0.209962
0.200401
0.191696
0.183979
0.177365
0.171954
0.167824
0.165037
0.163633
0.164925
0.166373
0.169248
0.173506
0.179084
0.185897
0.193842
0.202797
0.212626
0.223178
0.23429
0.245789
0.257494
0.269223
0.28079
0.29201
0.302705
0.312702
0.32184
0.32997
0.336961
0.342698
0.347088
0.350058
0.351562
0.351574
0.350095
0.347152
0.342793
0.337093
0.330147
0.322069
0.312994
0.303072
0.292465
0.281345
0.269892
0.258289
0.246722
0.235372
0.224416
0.214024
0.204354
0.195554
0.187754
0.181072
0.175606
0.171436
0.168622
0.167204
0.167087
0.168553
0.171464
0.175776
0.181424
0.188322
0.196367
0.205434
0.215387
0.226071
0.237322
0.248965
0.260817
0.272693
0.284404
0.295764
0.306593
0.316714
0.325966
0.334199
0.341278
0.347088
0.351534
0.354544
0.35607
0.356087
0.354597
0.351626
0.347224
0.341468
0.334453
0.326297
0.317136
0.307123
0.296422
0.285208
0.273664
0.261974
0.250326
0.238902
0.227881
0.217434
0.207718
0.19888
0.191051
0.184348
0.178866
0.174684
0.171864
0.170443
0.168548
0.170027
0.172963
0.177311
0.183006
0.189962
0.198074
0.207218
0.217253
0.228027
0.239372
0.251112
0.263063
0.275038
0.286847
0.298302
0.309221
0.319428
0.328757
0.337059
0.344198
0.350058
0.354544
0.357583
0.359127
0.359151
0.357658
0.354675
0.350253
0.344468
0.33742
0.329229
0.320031
0.309981
0.299246
0.288003
0.276436
0.264732
0.253078
0.241658
0.23065
0.220224
0.210535
0.20173
0.193936
0.187266
0.181815
0.17766
0.174858
0.173447
0.169285
0.170771
0.173718
0.178085
0.183804
0.190789
0.198935
0.208117
0.218195
0.229013
0.240406
0.252195
0.264196
0.276221
0.288079
0.299583
0.310547
0.320797
0.330166
0.338504
0.345674
0.351562
0.35607
0.359127
0.360684
0.360719
0.359232
0.356253
0.351835
0.346055
0.339014
0.330832
0.321651
0.311625
0.300923
0.289725
0.278215
0.266581
0.255009
0.243683
0.232779
0.222464
0.212892
0.204203
0.196521
0.189954
0.184593
0.180509
0.177756
0.17637
0.169286
0.170771
0.173719
0.178085
0.183804
0.190789
0.198935
0.208117
0.218195
0.229014
0.240406
0.252195
0.264197
0.276222
0.28808
0.299584
0.310549
0.3208
0.33017
0.33851
0.345683
0.351574
0.356087
0.359151
0.360719
0.360766
0.359297
0.356342
0.351954
0.346213
0.339221
0.331102
0.321996
0.312062
0.30147
0.2904
0.279037
0.26757
0.256183
0.245058
0.234368
0.224275
0.214927
0.206456
0.198982
0.192603
0.187402
0.183445
0.180781
0.17944
0.168549
0.170028
0.172964
0.177312
0.183007
0.189963
0.198075
0.207219
0.217254
0.228028
0.239373
0.251113
0.263065
0.27504
0.28685
0.298307
0.309227
0.319436
0.32877
0.337077
0.344224
0.350095
0.354597
0.357658
0.359232
0.359297
0.357859
0.354947
0.350619
0.344955
0.33806
0.330058
0.321095
0.311329
0.300932
0.290086
0.278976
0.267789
0.256709
0.245912
0.235568
0.225829
0.216836
0.208712
0.201563
0.195478
0.190528
0.186769
0.184242
0.182971
0.167088
0.168555
0.171466
0.175778
0.181425
0.188324
0.196368
0.205436
0.215389
0.226073
0.237324
0.248967
0.26082
0.272697
0.284409
0.295772
0.306603
0.316729
0.325988
0.33423
0.341322
0.347152
0.351626
0.354675
0.356253
0.356342
0.354947
0.352102
0.347865
0.34232
0.335573
0.327752
0.319004
0.309492
0.299388
0.288876
0.27814
0.267368
0.256739
0.246424
0.236585
0.227365
0.21889
0.211271
0.204596
0.198938
0.194354
0.190883
0.188555
0.187386
0.164927
0.166375
0.16925
0.173508
0.179086
0.185899
0.193844
0.202799
0.212629
0.223181
0.234293
0.245792
0.257499
0.269229
0.280798
0.292021
0.30272
0.312723
0.321871
0.330016
0.337027
0.342793
0.347224
0.350253
0.351835
0.351954
0.350619
0.347865
0.343754
0.338373
0.331831
0.32426
0.315811
0.306648
0.296949
0.286898
0.276681
0.266482
0.256477
0.246831
0.237693
0.229193
0.221441
0.214525
0.208513
0.203454
0.19938
0.196314
0.194265
0.193239
0.162101
0.163526
0.166353
0.170542
0.176028
0.182729
0.190543
0.199352
0.20902
0.219399
0.23033
0.241641
0.253156
0.264695
0.276076
0.287117
0.297643
0.307486
0.316488
0.324505
0.33141
0.337093
0.341468
0.344468
0.346055
0.346213
0.344955
0.34232
0.338373
0.333205
0.326931
0.319687
0.311628
0.302926
0.29376
0.284318
0.274788
0.265351
0.25618
0.247429
0.239234
0.231707
0.224934
0.218974
0.213864
0.209622
0.206249
0.203736
0.202072
0.201241
0.158658
0.160054
0.162823
0.166927
0.172301
0.178866
0.186521
0.195151
0.204622
0.214791
0.2255
0.236581
0.247864
0.25917
0.27032
0.281139
0.291455
0.301102
0.309926
0.317788
0.324564
0.330147
0.334453
0.33742
0.339014
0.339221
0.33806
0.335573
0.331831
0.326931
0.320993
0.314161
0.306598
0.29848
0.289996
0.281336
0.272692
0.264245
0.25616
0.248583
0.241632
0.235393
0.22992
0.225237
0.221338
0.218196
0.215766
0.214002
0.212856
0.212292
0.154654
0.156016
0.158719
0.162723
0.167967
0.174373
0.181844
0.190265
0.199508
0.209432
0.219882
0.230697
0.241709
0.252743
0.263627
0.274187
0.284257
0.293677
0.302295
0.309977
0.316602
0.322069
0.326297
0.329229
0.330832
0.331102
0.330058
0.327752
0.32426
0.319687
0.314161
0.307837
0.300885
0.293495
0.285862
0.278187
0.270664
0.263477
0.256787
0.250725
0.245388
0.240832
0.237069
0.234072
0.231779
0.2301
0.228931
0.228169
0.227719
0.227512
0.150156
0.15148
0.154107
0.158
0.163098
0.169326
0.176588
0.184775
0.193761
0.203409
0.213569
0.224085
0.234791
0.24552
0.256104
0.266374
0.276169
0.285332
0.29372
0.3012
0.307657
0.312994
0.317136
0.320031
0.321651
0.321996
0.321095
0.319004
0.315811
0.311628
0.306598
0.300885
0.294677
0.288174
0.281589
0.275132
0.269009
0.263406
0.258481
0.254352
0.251089
0.24871
0.247173
0.246385
0.246205
0.24646
0.246965
0.247535
0.248014
0.248282
0.145236
0.146519
0.149064
0.152834
0.157772
0.163805
0.17084
0.17877
0.187475
0.196821
0.206664
0.216851
0.227224
0.237619
0.247874
0.257827
0.26732
0.276204
0.284339
0.291599
0.297874
0.303072
0.307123
0.309981
0.311625
0.312062
0.311329
0.309492
0.306648
0.302926
0.29848
0.293495
0.288174
0.282741
0.277425
0.272458
0.26806
0.264425
0.261711
0.260022
0.259401
0.259815
0.261156
0.263242
0.265828
0.268629
0.271342
0.273678
0.275388
0.276288
0.139976
0.141214
0.143671
0.14731
0.152077
0.157901
0.164692
0.172348
0.180752
0.189775
0.199278
0.209114
0.21913
0.229168
0.239072
0.248685
0.257856
0.266441
0.274306
0.281332
0.287413
0.292465
0.296422
0.299246
0.300923
0.30147
0.300932
0.299388
0.296949
0.29376
0.289996
0.285862
0.281589
0.277425
0.27363
0.270462
0.268165
0.266949
0.266978
0.268345
0.271061
0.275035
0.280073
0.285879
0.292071
0.298207
0.303827
0.308493
0.311832
0.31357
0.13446
0.135651
0.138015
0.141517
0.146105
0.151709
0.158244
0.165612
0.173701
0.182385
0.191531
0.200998
0.210639
0.220303
0.229837
0.239094
0.247927
0.256199
0.263783
0.270564
0.276444
0.281345
0.285208
0.288003
0.289725
0.2904
0.290086
0.288876
0.286898
0.284318
0.281336
0.278187
0.275132
0.272458
0.270462
0.269441
0.269674
0.271401
0.274799
0.279959
0.286857
0.295337
0.3051
0.315702
0.326575
0.337069
0.346506
0.354241
0.35973
0.362574
0.128776
0.129919
0.132188
0.135548
0.139951
0.145328
0.1516
0.158671
0.166434
0.174768
0.183547
0.192634
0.201888
0.211165
0.22032
0.229209
0.237694
0.245644
0.252938
0.259468
0.265143
0.269892
0.273664
0.276436
0.278215
0.279037
0.278976
0.27814
0.276681
0.274788
0.272692
0.270664
0.269009
0.26806
0.268165
0.269674
0.272919
0.278185
0.285679
0.2955
0.307598
0.321744
0.337513
0.354271
0.371208
0.387386
0.401826
0.413598
0.421921
0.426225
0.123015
0.12411
0.126281
0.129499
0.133713
0.138861
0.144866
0.151635
0.159067
0.167047
0.175453
0.184154
0.193016
0.201901
0.21067
0.219187
0.227319
0.234943
0.241944
0.248222
0.253691
0.258289
0.261974
0.264732
0.266581
0.26757
0.267789
0.267368
0.266482
0.265351
0.264245
0.263477
0.263406
0.264425
0.266949
0.271401
0.278185
0.287654
0.300071
0.315562
0.334067
0.355287
0.378648
0.403283
0.428058
0.451644
0.472638
0.489716
0.501767
0.507993
0.117269
0.118315
0.12039
0.123464
0.127491
0.13241
0.138147
0.144616
0.151717
0.159343
0.167376
0.175693
0.184163
0.192657
0.201041
0.209186
0.216967
0.224266
0.230976
0.237003
0.24227
0.246722
0.250326
0.253078
0.255009
0.256183
0.256709
0.256739
0.256477
0.25618
0.25616
0.256787
0.258481
0.261711
0.266978
0.274799
0.285679
0.300071
0.318326
0.340636
0.366956
0.396935
0.429841
0.464523
0.49942
0.53266
0.562245
0.586294
0.603246
0.611998
0.111628
0.112626
0.114606
0.117539
0.121381
0.126075
0.13155
0.137723
0.1445
0.151778
0.159445
0.167383
0.175469
0.183578
0.191584
0.199365
0.206801
0.213781
0.220206
0.225988
0.23106
0.235372
0.238902
0.241658
0.243683
0.245058
0.245912
0.246424
0.246831
0.247429
0.248583
0.250725
0.254352
0.260022
0.268345
0.279959
0.2955
0.315562
0.340636
0.371027
0.406766
0.447489
0.49232
0.539779
0.587751
0.633602
0.674469
0.707676
0.731057
0.743115
0.10618
0.107132
0.109019
0.111816
0.11548
0.119956
0.125178
0.131065
0.137528
0.14447
0.151783
0.159355
0.167069
0.174807
0.182448
0.189876
0.196979
0.203652
0.209802
0.21535
0.220234
0.224416
0.227881
0.23065
0.232779
0.234368
0.235568
0.236585
0.237693
0.239234
0.241632
0.245388
0.251089
0.259401
0.271061
0.286857
0.307598
0.334067
0.366956
0.406766
0.453688
0.507433
0.567048
0.630711
0.695608
0.758011
0.813742
0.858981
0.890764
0.907126
0.101009
0.101916
0.103717
0.106384
0.109879
0.114148
0.119128
0.124744
0.13091
0.137531
0.144508
0.151733
0.159094
0.166478
0.173773
0.180866
0.187653
0.194035
0.199926
0.205253
0.209962
0.214024
0.217434
0.220224
0.222464
0.224275
0.225829
0.227365
0.229193
0.231707
0.235393
0.240832
0.24871
0.259815
0.275035
0.295337
0.321744
0.355287
0.396935
0.447489
0.507433
0.576719
0.654469
0.738614
0.825516
0.909851
0.985279
1.0463
1.08898
1.11088
0.0961941
0.0970606
0.0987796
0.101327
0.104663
0.10874
0.113496
0.118858
0.124746
0.13107
0.137734
0.144635
0.151667
0.158722
0.165693
0.172475
0.178968
0.18508
0.19073
0.195852
0.200401
0.204354
0.207718
0.210535
0.212892
0.214927
0.216836
0.21889
0.221441
0.224934
0.22992
0.237069
0.247173
0.261156
0.280073
0.3051
0.337513
0.378648
0.429841
0.49232
0.567048
0.654469
0.754114
0.863992
0.979717
1.09365
1.19539
1.27702
1.33361
1.36248
0.0918094
0.0926386
0.0942834
0.0967205
0.0999135
0.103815
0.108365
0.113497
0.119132
0.125185
0.131563
0.138169
0.144901
0.151657
0.158334
0.164832
0.171057
0.176922
0.182354
0.187291
0.191696
0.195554
0.19888
0.20173
0.204203
0.206456
0.208712
0.211271
0.214525
0.218974
0.225237
0.234072
0.246385
0.263242
0.285879
0.315702
0.354271
0.403283
0.464523
0.539779
0.630711
0.738614
0.863992
1.00575
1.15957
1.31494
1.45215
1.56025
1.63409
1.67142
0.0879213
0.0887173
0.0902964
0.092636
0.0957014
0.0994467
0.103816
0.108743
0.114153
0.119965
0.12609
0.132433
0.1389
0.14539
0.151806
0.158052
0.16404
0.169688
0.174926
0.1797
0.183979
0.187754
0.191051
0.193936
0.196521
0.198982
0.201563
0.204596
0.208513
0.213864
0.221338
0.231779
0.246205
0.265828
0.292071
0.326575
0.371208
0.428058
0.49942
0.587751
0.695608
0.825516
0.979717
1.15957
1.36377
1.58186
1.7668
1.90755
2.00161
2.04859
0.0845883
0.0853559
0.0868785
0.0891346
0.0920905
0.0957021
0.0999153
0.104667
0.109885
0.11549
0.121397
0.127516
0.133754
0.140016
0.146208
0.152239
0.158024
0.163485
0.168558
0.173194
0.177365
0.181072
0.184348
0.187266
0.189954
0.192603
0.195478
0.198938
0.203454
0.209622
0.218196
0.2301
0.24646
0.268629
0.298207
0.337069
0.387386
0.451644
0.53266
0.633602
0.758011
0.909851
1.09365
1.31494
1.58186
1.91139
2.15654
2.33352
2.44891
2.50589
0.0818604
0.0826048
0.0840812
0.0862688
0.0891351
0.0926373
0.0967229
0.101331
0.106391
0.111827
0.117556
0.123491
0.129542
0.135617
0.141626
0.147481
0.153099
0.158407
0.163345
0.167868
0.171954
0.175606
0.178866
0.181815
0.184593
0.187402
0.190528
0.194354
0.19938
0.206249
0.215766
0.228931
0.246965
0.271342
0.303827
0.346506
0.401826
0.472638
0.562245
0.674469
0.813742
0.985279
1.19539
1.45215
1.7668
2.15654
2.44719
2.655
2.78932
2.85529
0.0797782
0.0805049
0.0819462
0.0840816
0.0868795
0.0902981
0.0942863
0.0987841
0.103724
0.109031
0.114624
0.120419
0.126327
0.13226
0.138129
0.143848
0.14934
0.154532
0.159367
0.163804
0.167824
0.171436
0.174684
0.17766
0.180509
0.183445
0.186769
0.190883
0.196314
0.203736
0.214002
0.228169
0.247535
0.273678
0.308493
0.354241
0.413598
0.489716
0.586294
0.707676
0.858981
1.0463
1.27702
1.56025
1.90755
2.33352
2.655
2.88551
3.03442
3.10749
0.0783727
0.0790874
0.0805052
0.0826055
0.0853572
0.0887193
0.0926417
0.0970654
0.101924
0.107143
0.112645
0.118345
0.124157
0.129993
0.135768
0.141396
0.146802
0.151916
0.156682
0.161061
0.165037
0.168622
0.171864
0.174858
0.177756
0.180781
0.184242
0.188555
0.194265
0.202072
0.212856
0.227719
0.248014
0.275388
0.311832
0.35973
0.421921
0.501767
0.603246
0.731057
0.890764
1.08898
1.33361
1.63409
2.00161
2.44891
2.78932
3.03442
3.19302
3.27088
0.0776645
0.0783729
0.0797787
0.0818613
0.0845897
0.0879235
0.0918127
0.096199
0.101016
0.106192
0.111647
0.117299
0.123063
0.128851
0.134578
0.140161
0.145523
0.150597
0.155329
0.159679
0.163633
0.167204
0.170443
0.173447
0.17637
0.17944
0.182971
0.187386
0.193239
0.201241
0.212292
0.227512
0.248282
0.276288
0.31357
0.362574
0.426225
0.507993
0.611998
0.743115
0.907126
1.11088
1.36248
1.67142
2.04859
2.50589
2.85529
3.10749
3.27088
3.35112
)
;

boundaryField
{
    walls
    {
        type            zeroGradient;
    }
    frontAndBack
    {
        type            empty;
    }
}


// ************************************************************************* //
