/*--------------------------------*- C++ -*----------------------------------*\
| =========                 |                                                 |
| \\      /  F ield         | OpenFOAM: The Open Source CFD Toolbox           |
|  \\    /   O peration     | Version:  2406                                  |
|   \\  /    A nd           | Website:  www.openfoam.com                      |
|    \\/     M anipulation  |                                                 |
\*---------------------------------------------------------------------------*/
FoamFile
{
    version     2.0;
    format      ascii;
    arch        "LSB;label=32;scalar=64";
    class       volScalarField;
    location    "1.3";
    object      nu;
}
// * * * * * * * * * * * * * * * * * * * * * * * * * * * * * * * * * * * * * //

dimensions      [0 2 -1 0 0 0 0];

internalField   nonuniform List<scalar> 
1800
(
0.0306872
0.0441759
0.120366
0.0191342
0.0126171
0.010639
0.00957808
0.00895852
0.00878681
0.00865711
0.02898
0.0487803
0.0408994
0.0165771
0.0114143
0.00977334
0.00898696
0.00850995
0.0085523
0.00792718
0.0270941
0.0497406
0.0160076
0.0108445
0.00924117
0.0085641
0.00823859
0.00801719
0.00821334
0.00779226
0.0347115
0.0158642
0.0103508
0.00871369
0.00809422
0.00784783
0.0077939
0.00781162
0.0081134
0.00800363
0.0230082
0.0106921
0.0084736
0.00775951
0.0075222
0.00752032
0.00766747
0.00790532
0.00836421
0.00848979
0.0127998
0.00863362
0.00757034
0.00726348
0.00727408
0.00748599
0.00785449
0.00836007
0.00904551
0.00959864
0.00942004
0.00759724
0.00706943
0.0070358
0.00728295
0.00775669
0.00844686
0.00934715
0.0104854
0.0115618
0.00789735
0.00699663
0.00680636
0.00702848
0.00756906
0.00843439
0.00964594
0.0111872
0.0130144
0.0148017
0.00705458
0.00664564
0.00672822
0.00724121
0.0081991
0.00968567
0.0117204
0.0142471
0.0172448
0.0207888
0.00654441
0.00645826
0.00680129
0.00767275
0.00923846
0.0117197
0.0152556
0.0208903
0.0310153
0.0542429
0.00748383
0.00896334
0.0114173
0.0139976
0.0153638
0.0159868
0.0165096
0.0169358
0.016951
0.0166414
0.00738094
0.00871873
0.0111998
0.0145511
0.016899
0.0176778
0.0178477
0.0179667
0.0179702
0.0177771
0.0073835
0.008513
0.0107583
0.0144977
0.0189277
0.0223548
0.0241619
0.0246468
0.0240077
0.0222396
0.00750765
0.0083558
0.0101393
0.0133749
0.0185721
0.0262212
0.0371528
0.0515374
0.0621777
0.0427644
0.00783822
0.00829926
0.00949828
0.011594
0.0144153
0.0174676
0.0203892
0.0229355
0.0248522
0.0285679
0.0085591
0.00842993
0.00906461
0.0103216
0.0118455
0.0132711
0.0144364
0.0152849
0.0157897
0.0169322
0.0101603
0.00888881
0.0089625
0.00965854
0.0105045
0.0112567
0.0118496
0.0122672
0.0124569
0.0129729
0.01479
0.0100111
0.00930972
0.00956021
0.00996643
0.0103064
0.0105526
0.0107112
0.0107446
0.010994
0.0430055
0.0132976
0.0105285
0.0101541
0.0101312
0.0100767
0.00998151
0.00986607
0.0097044
0.00977555
0.0298961
0.0322805
0.0158454
0.0125247
0.0112303
0.0104065
0.00980353
0.00934846
0.00902593
0.00934663
0.0172811
0.0143492
0.0137584
0.0142758
0.0148421
0.0163639
0.0183432
0.0213912
0.0232633
0.0296331
0.0194567
0.0155872
0.014718
0.0144913
0.0145072
0.0156615
0.0173712
0.0202437
0.0221216
0.0280709
0.0242891
0.0204726
0.0161342
0.0141038
0.0136167
0.0144329
0.0159463
0.0186106
0.0205048
0.0258118
0.0333422
0.0447505
0.0158391
0.0128875
0.0123485
0.0128232
0.0140521
0.0163862
0.0183163
0.0229132
0.0254505
0.0278627
0.0139543
0.0119671
0.0115044
0.0116427
0.012396
0.0141492
0.0158735
0.0197322
0.0179488
0.0168375
0.0128775
0.0115184
0.0111568
0.011139
0.0114427
0.0125609
0.0138137
0.0168524
0.0141152
0.0135953
0.0123345
0.0110967
0.010898
0.0110382
0.0111379
0.0117589
0.0124993
0.0147256
0.0120096
0.0121183
0.011729
0.0105413
0.0104579
0.010918
0.011202
0.0115907
0.0119313
0.0134755
0.0107245
0.0117164
0.0112111
0.01014
0.0100495
0.0106133
0.0112917
0.0118173
0.0119848
0.0130288
0.00982612
0.0104209
0.0101738
0.00990495
0.00992994
0.0103547
0.0112663
0.0121914
0.0125244
0.013294
0.00950195
0.00980428
0.0099506
0.0101724
0.0102525
0.0104076
0.0112384
0.0125802
0.0135541
0.0145121
0.00893476
0.00910825
0.00975039
0.0109408
0.0113571
0.011311
0.0118704
0.0134113
0.0152596
0.0173043
0.00896433
0.00958914
0.0116423
0.0132061
0.0125194
0.0126195
0.0133991
0.0152632
0.0179242
0.0231025
0.0100541
0.0115519
0.0169513
0.0151453
0.0125513
0.0124838
0.0137601
0.0166395
0.0204199
0.0315724
0.0121505
0.0148652
0.0344299
0.0165946
0.0131101
0.0129553
0.0140137
0.0166306
0.0198626
0.0277878
0.0156959
0.0165684
0.0255663
0.0139017
0.0116574
0.0117557
0.012753
0.0145135
0.0163457
0.0192905
0.0175442
0.0148448
0.0119572
0.00991906
0.00953675
0.00993321
0.010734
0.0117611
0.0126585
0.0137952
0.0114753
0.00984925
0.00842391
0.00796835
0.00817531
0.00873196
0.00938383
0.0100127
0.0104555
0.0109247
0.00790807
0.0074236
0.00726459
0.00751907
0.00803514
0.00857328
0.00897357
0.00925992
0.00939293
0.00953392
0.00679995
0.00702684
0.00761995
0.00880018
0.0102542
0.0108479
0.0104175
0.009879
0.00943423
0.0092131
0.0370664
0.0330023
0.0201354
0.0148662
0.0119942
0.0101426
0.00894524
0.00858962
0.00809028
0.00847707
0.0197927
0.024465
0.0204584
0.0203208
0.0150139
0.0142789
0.0110358
0.0102367
0.00894973
0.0084505
0.0170886
0.018518
0.0178233
0.0180035
0.0167815
0.0154294
0.0145767
0.0120977
0.0117226
0.00970664
0.0173507
0.0173358
0.0185722
0.0170065
0.0188062
0.0156412
0.0180287
0.0140816
0.0152898
0.0119774
0.0182404
0.018085
0.0198631
0.0188142
0.0207679
0.0183766
0.0202343
0.0172331
0.0183743
0.0152032
0.016419
0.0172043
0.0175006
0.0189169
0.0190335
0.0210695
0.0205306
0.0222151
0.0212552
0.0203646
0.013623
0.0143102
0.0140627
0.0150916
0.0148717
0.0164271
0.0160058
0.0186219
0.0175612
0.0219089
0.0106659
0.011005
0.0106713
0.0111361
0.0108244
0.0113512
0.0110911
0.0116797
0.0114444
0.012138
0.00817586
0.00813782
0.00807442
0.00808381
0.0080301
0.00807783
0.00803518
0.00810685
0.00807423
0.00816193
0.00644713
0.00642252
0.00644426
0.00643571
0.00648157
0.00648446
0.00655254
0.00656153
0.00665452
0.00666251
0.0101353
0.0106051
0.0104818
0.0103577
0.0103487
0.0106357
0.0114041
0.0100063
0.00704872
0.00581043
0.0105415
0.0106541
0.0105117
0.0103511
0.0103487
0.0107382
0.0116746
0.00983489
0.00693851
0.00577414
0.0109339
0.0109652
0.0108144
0.0106496
0.0106557
0.0111534
0.012169
0.00956703
0.00682857
0.00574739
0.0114169
0.0114811
0.0113178
0.0111333
0.0111907
0.0119304
0.012991
0.00924664
0.00672193
0.00573303
0.0119566
0.0120879
0.0119715
0.0118589
0.0121059
0.0133961
0.0138566
0.00886182
0.00662203
0.00573546
0.0125892
0.0129572
0.0130056
0.0129636
0.0136828
0.0164569
0.013654
0.00843945
0.00653178
0.00575864
0.0136232
0.0140436
0.0140115
0.0145818
0.0178792
0.0229899
0.0122956
0.0080122
0.00645439
0.00580789
0.0145765
0.0153416
0.017266
0.023027
0.0361055
0.0202728
0.0106352
0.00760814
0.00639592
0.00589113
0.0180457
0.0240604
0.04203
0.235478
0.0318161
0.0140523
0.00924898
0.00726116
0.00636564
0.00602181
0.0390243
0.138434
0.0569183
0.0265718
0.0157136
0.0108449
0.00831632
0.00698933
0.00637845
0.00622509
0.0119314
0.0115325
0.0111815
0.0108696
0.0105824
0.0103306
0.010107
0.00982668
0.00929624
0.0078413
0.0117583
0.0113967
0.0110749
0.010778
0.0105043
0.0102728
0.010084
0.00978106
0.0088967
0.00724062
0.0116392
0.0113043
0.0109968
0.0107005
0.0104251
0.0101991
0.0100366
0.00971671
0.00854061
0.00684189
0.0115355
0.0112587
0.0109864
0.0106954
0.0104188
0.0102011
0.0100689
0.00971507
0.00824746
0.00656285
0.0113769
0.011158
0.0109355
0.0106703
0.0104125
0.0102241
0.0101492
0.00976227
0.00799972
0.00635711
0.0112567
0.011066
0.0108676
0.0106122
0.0103792
0.0102482
0.0102726
0.00985348
0.00779497
0.00620544
0.0112998
0.0111715
0.0109799
0.0106831
0.0104079
0.0102716
0.0103467
0.00985816
0.00760294
0.00608466
0.0112907
0.0111948
0.0110618
0.0107963
0.010552
0.0104655
0.0106211
0.00994002
0.00743704
0.0059897
0.0115267
0.011388
0.0111438
0.0107778
0.0105113
0.0104973
0.0108178
0.00999941
0.00729436
0.00591525
0.0113847
0.0111773
0.011051
0.0108128
0.0106078
0.0106751
0.0111596
0.0100404
0.00716456
0.00585626
0.0991371
0.0331621
0.03328
0.0450898
0.042918
0.0424196
0.0348823
0.0283278
0.019713
0.0137267
0.101147
0.0322583
0.0316546
0.043793
0.0435804
0.044328
0.0384532
0.0291243
0.0201553
0.0135216
0.0984817
0.0313455
0.0302686
0.0425196
0.0437274
0.0458344
0.043516
0.0297146
0.0207634
0.0133765
0.092264
0.0303763
0.0290121
0.0413001
0.0436438
0.0475193
0.0505083
0.0300575
0.0213868
0.0131748
0.0841693
0.029336
0.0278974
0.0401465
0.0438314
0.0497259
0.0584675
0.03019
0.0218103
0.0129084
0.0760364
0.0283424
0.0270186
0.0391029
0.0446416
0.0518592
0.06201
0.0303561
0.021203
0.0127854
0.0693659
0.0276362
0.0263891
0.0382514
0.0455703
0.0528383
0.0558878
0.0302002
0.0199224
0.0125394
0.064944
0.0274795
0.0258548
0.0374182
0.0452835
0.0522065
0.0441645
0.0292211
0.0176569
0.0125748
0.0636767
0.0281212
0.0252625
0.0359169
0.0423284
0.0472718
0.0328053
0.0265528
0.0166046
0.0121442
0.0674756
0.029305
0.0246619
0.0337735
0.0349976
0.0334177
0.0238915
0.0212682
0.0145652
0.013712
0.0797737
0.0315149
0.0240212
0.0296504
0.0247844
0.024002
0.0166228
0.017769
0.0130606
0.0136304
0.0694074
0.0324116
0.0222061
0.0245464
0.018037
0.0209166
0.0131841
0.0174014
0.011582
0.0128122
0.0558468
0.0319295
0.020587
0.0199128
0.0165062
0.0199088
0.012682
0.0178912
0.0115613
0.0127683
0.0472452
0.0311782
0.0196249
0.0168361
0.0186786
0.0178828
0.0150476
0.0165925
0.0136611
0.0128457
0.0458217
0.0313481
0.0189817
0.0156022
0.0230968
0.0171872
0.0225862
0.01593
0.0177757
0.0136102
0.0512329
0.0304892
0.0189708
0.0156837
0.0207496
0.0183944
0.023582
0.0178468
0.020231
0.0146909
0.056614
0.0305246
0.0211253
0.0172447
0.0165239
0.02036
0.0165106
0.0217502
0.0179287
0.0162344
0.0418435
0.0416526
0.0242422
0.0176712
0.0131579
0.0151581
0.0120659
0.0148094
0.012964
0.014356
0.0241054
0.0193276
0.0129678
0.0114477
0.0104668
0.0101172
0.00991903
0.00989164
0.00969485
0.0096914
0.00794114
0.00787143
0.00843522
0.00853666
0.00847842
0.00807765
0.00825171
0.00753676
0.00758226
0.00718785
0.0111554
0.011185
0.0112245
0.0115732
0.0120401
0.0125666
0.0133282
0.0143489
0.0157715
0.0204613
0.0118087
0.0117956
0.0119336
0.0123879
0.0128808
0.0135303
0.0140667
0.0151002
0.0159871
0.0175514
0.012654
0.0127033
0.0129647
0.0134928
0.013919
0.0145678
0.0148346
0.0157019
0.0160137
0.0171156
0.0134428
0.0134741
0.0137408
0.0140572
0.0144222
0.0147937
0.0151395
0.0156173
0.0161422
0.0166497
0.0142077
0.0141656
0.014447
0.0146433
0.0150804
0.0152529
0.0157836
0.015987
0.0167991
0.0169826
0.0150859
0.0150078
0.0152485
0.0153524
0.0156037
0.0155226
0.015682
0.0156903
0.015862
0.0161673
0.0157786
0.0153199
0.0149937
0.014699
0.0144051
0.0141571
0.0138585
0.0138538
0.0135669
0.0139152
0.0130595
0.0125479
0.0120701
0.0117885
0.0114762
0.011344
0.0110856
0.0110721
0.0108035
0.0109617
0.0094743
0.00927328
0.00909068
0.0089322
0.00879225
0.00866284
0.0085389
0.0084302
0.00833074
0.00825325
0.00706492
0.006962
0.00686779
0.00677701
0.00670121
0.00662805
0.00657543
0.00652019
0.00649175
0.00645153
0.00594095
0.00675682
0.00859088
0.0140197
0.0547675
0.0226732
0.0144593
0.0117137
0.00989521
0.00833218
0.00601904
0.00669476
0.00818205
0.0122001
0.0298064
0.029326
0.0165482
0.0121115
0.00988032
0.00829076
0.0061407
0.00666913
0.00782935
0.010568
0.017323
0.0222649
0.0172804
0.0127829
0.0101629
0.0084619
0.00631819
0.00668855
0.00755633
0.00944701
0.0132091
0.0171667
0.0166254
0.0134871
0.0107288
0.00882209
0.00656923
0.0067637
0.00737187
0.00870284
0.011159
0.0142688
0.0154894
0.0140148
0.0115246
0.00939339
0.00692167
0.00691118
0.00727607
0.00819938
0.00989965
0.012361
0.0143469
0.0143498
0.0125963
0.0101734
0.0074187
0.00716312
0.00728544
0.00786767
0.00901805
0.0108655
0.0130259
0.014168
0.0136781
0.0113979
0.00811544
0.00756508
0.00744114
0.00772308
0.00842916
0.00965993
0.0114427
0.0132518
0.0141629
0.012532
0.00907652
0.00816396
0.00779306
0.00781407
0.00817587
0.00890107
0.0100168
0.0114087
0.0129524
0.0124022
0.0103679
0.00899161
0.00839202
0.00819295
0.00829656
0.00868841
0.00936247
0.0102551
0.0114377
0.0122159
0.0119555
0.0100273
0.00928353
0.00892396
0.00881321
0.00894211
0.00929752
0.00984254
0.0103515
0.011432
0.013257
0.0110409
0.01044
0.0101221
0.00986009
0.00972803
0.00979371
0.0100358
0.0101186
0.0108204
0.0130803
0.0114567
0.0114166
0.0116848
0.0116396
0.0112496
0.0109237
0.0108049
0.0105469
0.0108398
0.0119278
0.0113202
0.0118621
0.0130524
0.0142791
0.0142087
0.0131671
0.0124391
0.0117396
0.0115571
0.0107948
0.0110322
0.0120788
0.014037
0.0175574
0.0220628
0.0201702
0.0171925
0.0145781
0.0130678
0.00976158
0.0106148
0.0120596
0.0143781
0.01848
0.0291828
0.0601116
0.0314902
0.0185508
0.0150154
0.00893481
0.0102071
0.0120037
0.014674
0.0190285
0.0286503
0.0540542
0.0408755
0.0220123
0.0168922
0.00836687
0.00988318
0.0119787
0.0145102
0.0171101
0.0199176
0.0228558
0.0234737
0.0199539
0.0169693
0.00796948
0.00957143
0.0118465
0.0140632
0.0154813
0.0165594
0.017703
0.0183967
0.0177076
0.0164264
0.00768268
0.00925899
0.011637
0.0138181
0.0149271
0.0156201
0.0163363
0.0168694
0.0167825
0.0162494
0.0111912
0.012381
0.0154685
0.0255272
0.0561907
0.0314132
0.0263007
0.0263566
0.0264919
0.0327701
0.0111208
0.0123701
0.0156522
0.0229203
0.033312
0.0285451
0.0257424
0.0263487
0.0270538
0.0353016
0.0113281
0.0124149
0.0156824
0.0205369
0.0265881
0.0263852
0.0251497
0.0260966
0.0270215
0.0355177
0.011742
0.012679
0.0157692
0.0193168
0.0233916
0.0244188
0.0243345
0.0256458
0.0266472
0.0346969
0.0121628
0.0132514
0.0156776
0.018431
0.0212401
0.0227559
0.0234603
0.0251235
0.0261322
0.033581
0.0127534
0.0139789
0.0152659
0.017466
0.0195528
0.0213601
0.0226444
0.0246485
0.0256699
0.0326112
0.0135534
0.0144979
0.0146998
0.0164514
0.0181231
0.0201112
0.0218517
0.024208
0.025322
0.0319526
0.0142413
0.0145673
0.014154
0.015515
0.0169048
0.0189519
0.0210145
0.0237115
0.0250176
0.0315371
0.0149596
0.0143547
0.0137225
0.0147686
0.0159219
0.0179077
0.0201225
0.0230863
0.0246361
0.0311665
0.0159319
0.0141701
0.0135199
0.01432
0.0152281
0.0170393
0.0192203
0.0223124
0.0240751
0.0306052
0.010326
0.0139398
0.017913
0.0246052
0.0252621
0.0201847
0.0160932
0.0137346
0.0126028
0.011844
0.00937769
0.0111948
0.0134856
0.0156027
0.0159167
0.0147077
0.0137639
0.0129714
0.0125384
0.0121038
0.00971302
0.0113753
0.0141215
0.0169159
0.0177816
0.0170831
0.0161163
0.0153893
0.0149418
0.0144192
0.0105566
0.0119257
0.0154662
0.0233443
0.029932
0.0243684
0.0212485
0.0202594
0.019542
0.0193561
0.0117777
0.0126015
0.0157854
0.0280914
0.0902985
0.0302223
0.0249353
0.0244748
0.024068
0.0265593
0.00597264
0.00607467
0.00622616
0.00643512
0.0066867
0.0070131
0.00738385
0.00779193
0.00838166
0.00867793
0.00620934
0.00629281
0.00643242
0.0066257
0.00685009
0.00712963
0.00742376
0.00771416
0.00816294
0.00834086
0.00651779
0.00657882
0.0067124
0.00690048
0.00712382
0.00739323
0.00764763
0.00800633
0.00835851
0.00876912
0.0069276
0.00696238
0.00710305
0.00731206
0.00759412
0.00791923
0.00825416
0.00891397
0.00918356
0.0104042
0.00745506
0.00745893
0.00761968
0.0078882
0.00829197
0.00875942
0.00944028
0.0105034
0.0108533
0.0132119
0.013119
0.0129259
0.0127313
0.0123029
0.0118574
0.0115349
0.0113452
0.0106862
0.00853609
0.00663425
0.0134253
0.0131138
0.0126419
0.012064
0.0115994
0.0113059
0.0111545
0.0106853
0.00884086
0.00684195
0.0128788
0.0126217
0.0123306
0.011956
0.0116184
0.0113656
0.0111896
0.0107705
0.00919699
0.00710473
0.0129427
0.0126684
0.012342
0.0119451
0.0115633
0.0112428
0.0109931
0.0106551
0.00955908
0.00746069
0.0128804
0.0125209
0.0121416
0.0117419
0.0113697
0.0110572
0.0108188
0.0106097
0.0100349
0.00800647
0.0127807
0.0123632
0.0119558
0.0115613
0.0111951
0.0108797
0.0106402
0.0105395
0.0105495
0.00890356
0.0126251
0.012168
0.0117427
0.0113509
0.0109836
0.0106575
0.0104068
0.0103876
0.0110267
0.0107723
0.0124418
0.0119734
0.0115504
0.0111712
0.0108131
0.0104882
0.0102229
0.0101646
0.0110254
0.014285
0.0122603
0.0118067
0.0114057
0.011054
0.0107266
0.0104302
0.0101691
0.0100183
0.0104318
0.0113761
0.0120934
0.0116666
0.0112921
0.010964
0.0106618
0.0103931
0.0101496
0.00991789
0.00980509
0.00892428
0.00861055
0.0101399
0.0116343
0.0130535
0.0151994
0.0191098
0.0141305
0.00900969
0.00684606
0.00589707
0.00914396
0.0104672
0.011514
0.0123479
0.0131472
0.014185
0.0136793
0.00939987
0.00695305
0.00588106
0.00980588
0.0107223
0.0112867
0.0116678
0.012038
0.012544
0.0125373
0.00966089
0.0070781
0.00589108
0.0103046
0.0108117
0.0110967
0.0112617
0.0113888
0.0116355
0.0118233
0.00986647
0.00721478
0.00592138
0.0105828
0.010865
0.0109965
0.0110403
0.0110645
0.0112035
0.0114091
0.0100105
0.00735647
0.00597055
0.0108337
0.0110225
0.0110507
0.0109889
0.0109218
0.010986
0.0111932
0.0101532
0.00751186
0.00603595
0.0111929
0.0113079
0.0112102
0.0110395
0.0109062
0.0109273
0.0111228
0.0102926
0.0076786
0.00611679
0.0116543
0.0116167
0.0113598
0.011108
0.010948
0.0109518
0.0111284
0.0104267
0.00786042
0.00621385
0.0119472
0.0117136
0.0114051
0.01118
0.0110501
0.0110556
0.0111979
0.0105554
0.00806309
0.00633007
0.0116408
0.0117744
0.0116375
0.0114723
0.0113401
0.011291
0.0113243
0.0106664
0.00828893
0.00646866
0.035519
0.0434637
0.0582062
0.0305295
0.0259615
0.0262085
0.029575
0.0404568
0.027614
0.0192686
0.0392534
0.0412734
0.0893581
0.0342391
0.0272734
0.0263479
0.0282053
0.029571
0.0259528
0.0160532
0.0436909
0.0401704
0.110165
0.0371228
0.028364
0.0268363
0.0281191
0.026782
0.0249312
0.0150198
0.0487866
0.0389435
0.0922928
0.0393313
0.0293718
0.0274275
0.0278855
0.0251248
0.0232173
0.0149786
0.0545105
0.0378709
0.070173
0.0415888
0.0307218
0.0283868
0.027799
0.0245484
0.0218406
0.015025
0.0608286
0.0370524
0.0561308
0.0440399
0.0325957
0.0298673
0.0280204
0.0246846
0.020884
0.0149602
0.0678792
0.036373
0.047542
0.0461436
0.0348987
0.0318676
0.0285249
0.0251738
0.0201816
0.0147657
0.0758287
0.0356896
0.0419481
0.0472392
0.0373783
0.0343257
0.0293366
0.0258392
0.0197079
0.0144883
0.0844964
0.0349197
0.0380979
0.0471718
0.0397179
0.0371043
0.0305613
0.0266107
0.0194738
0.0141995
0.092915
0.0340621
0.0353387
0.0463059
0.0416237
0.0399283
0.0323469
0.0274574
0.0194747
0.0139442
0.00724354
0.00743804
0.00843783
0.00900489
0.0096136
0.00974975
0.00991984
0.00957145
0.00954303
0.00802162
0.0149885
0.0106254
0.00982758
0.010169
0.0105881
0.0109746
0.0114636
0.0116846
0.0119014
0.011716
0.0249188
0.0213388
0.0127745
0.0124098
0.0125283
0.013177
0.014058
0.0159295
0.016312
0.0151959
0.0294993
0.0688848
0.0192627
0.0166464
0.0161435
0.0171642
0.0188525
0.0267866
0.0306475
0.0157184
0.0324811
0.0487455
0.0327269
0.0230285
0.0209822
0.021986
0.0249478
0.0457578
0.0407489
0.0177965
0.00753432
0.00719696
0.00687104
0.00658487
0.00635067
0.00616719
0.00603335
0.00594849
0.00591053
0.00591842
0.0106237
0.00973059
0.008899
0.00818786
0.00756638
0.00705037
0.00666216
0.0064009
0.00625014
0.00619176
0.0127454
0.0116943
0.0107229
0.00990921
0.00910652
0.00829659
0.00757901
0.00704748
0.00671662
0.00655316
0.0128945
0.0120095
0.0113317
0.0108227
0.0102722
0.00955482
0.00868415
0.00788267
0.00733013
0.00703141
0.0130765
0.0121648
0.01143
0.010921
0.0105125
0.0101063
0.00954345
0.00878989
0.00809445
0.00764762
)
;

boundaryField
{
    left
    {
        type            calculated;
        value           nonuniform List<scalar> 
35
(
0.0262792
0.0256395
0.0253599
0.0260742
0.0280064
0.0305747
0.0320112
0.0293583
0.0201408
0.00790747
0.0405208
0.0385788
0.0366549
0.0347576
0.0328923
0.0310938
0.0294391
0.0280235
0.026965
0.0264059
0.0352357
0.039005
0.0426417
0.0454624
0.0470604
0.0474704
0.0469752
0.0458379
0.0442664
0.0424454
0.00720786
0.0137361
0.0222394
0.0275434
0.0317
)
;
    }
    right
    {
        type            calculated;
        value           nonuniform List<scalar> 
35
(
0.0118475
0.0121187
0.0144959
0.019763
0.0283925
0.0375949
0.0426465
0.0441291
0.0437862
0.0428409
0.0421215
0.0420081
0.042441
0.0430453
0.0432545
0.0424167
0.0399115
0.0353989
0.029411
0.0234672
0.0188503
0.0158546
0.0142229
0.0136419
0.0139235
0.0153622
0.0187231
0.0268072
0.0402901
0.0304301
0.0197712
0.0139604
0.0109929
0.00955915
0.00921907
)
;
    }
    down
    {
        type            calculated;
        value           nonuniform List<scalar> 
40
(
0.00637919
0.00677137
0.00802491
0.00863532
0.00930611
0.00932863
0.00937469
0.0089157
0.0087647
0.00718957
0.00680872
0.00656984
0.00633919
0.00614347
0.0059962
0.00589218
0.00582391
0.00578739
0.00578159
0.00580885
0.0058754
0.00598558
0.00614416
0.00636252
0.00662945
0.006982
0.007394
0.00789743
0.00860986
0.00909684
0.0119178
0.0214614
0.0364575
0.132095
0.0909069
0.0875582
0.0234151
0.0159631
0.0135513
0.0122865
)
;
    }
    up
    {
        type            calculated;
        value           nonuniform List<scalar> 
40
(
0.00653632
0.0072197
0.00891104
0.0132539
0.0291543
0.0252876
0.014175
0.0111394
0.00984949
0.00931243
0.00600265
0.00599293
0.00602019
0.00602111
0.0060756
0.00608124
0.00616389
0.00616853
0.00628433
0.00628208
0.00647561
0.00639111
0.00631222
0.00623938
0.00617664
0.00612159
0.00608079
0.00604421
0.00602403
0.00600127
0.00678322
0.00682377
0.00754994
0.00784017
0.00786406
0.00753582
0.00764575
0.0069348
0.00697668
0.00658936
)
;
    }
    cylinder
    {
        type            calculated;
        value           nonuniform List<scalar> 
80
(
0.00705835
0.00700129
0.00706595
0.00728457
0.00779093
0.00894315
0.0120975
0.0241932
0.0243578
0.0189683
0.0251302
0.022893
0.0179696
0.0207628
0.0407296
0.026483
0.0124908
0.00905569
0.00756833
0.00675749
0.00552244
0.00549988
0.00548753
0.00548883
0.00550944
0.00555562
0.00563586
0.00576336
0.00596105
0.00626898
0.00723642
0.00669433
0.00634977
0.0061145
0.00594485
0.00582226
0.00572621
0.00565229
0.00559607
0.00555349
0.00616199
0.00632696
0.00653636
0.00682457
0.00727235
0.00803569
0.00974659
0.0144627
0.0111791
0.0082904
0.00564678
0.00560881
0.00559869
0.00561026
0.00564203
0.0056894
0.0057511
0.00582707
0.0059192
0.00602979
0.00571755
0.00583009
0.00599756
0.0062372
0.00657338
0.0070433
0.00770416
0.00863338
0.00994397
0.0118435
0.0145875
0.0171748
0.0158472
0.0129493
0.0109583
0.00950416
0.00849454
0.00787429
0.00748055
0.00721984
)
;
    }
    defaultFaces
    {
        type            empty;
    }
}


// ************************************************************************* //
