/*--------------------------------*- C++ -*----------------------------------*\
| =========                 |                                                 |
| \\      /  F ield         | OpenFOAM: The Open Source CFD Toolbox           |
|  \\    /   O peration     | Version:  2406                                  |
|   \\  /    A nd           | Website:  www.openfoam.com                      |
|    \\/     M anipulation  |                                                 |
\*---------------------------------------------------------------------------*/
FoamFile
{
    version     2.0;
    format      ascii;
    arch        "LSB;label=32;scalar=64";
    class       volScalarField;
    location    "1.3";
    object      p;
}
// * * * * * * * * * * * * * * * * * * * * * * * * * * * * * * * * * * * * * //

dimensions      [0 2 -2 0 0 0 0];

internalField   nonuniform List<scalar> 
1800
(
-0.820043
-0.823422
-0.810094
-0.800846
-0.795074
-0.778971
-0.761875
-0.747188
-0.73701
-0.73696
-0.820173
-0.823241
-0.813707
-0.804383
-0.797978
-0.786552
-0.772899
-0.759349
-0.746618
-0.749925
-0.8515
-0.850255
-0.844024
-0.83645
-0.827257
-0.816058
-0.803812
-0.791851
-0.779366
-0.782428
-0.886451
-0.881155
-0.872532
-0.864164
-0.854325
-0.842576
-0.829545
-0.816395
-0.803153
-0.797576
-0.923059
-0.91501
-0.906677
-0.896429
-0.884005
-0.869513
-0.853643
-0.837451
-0.821786
-0.809992
-0.97284
-0.958246
-0.947959
-0.934725
-0.917848
-0.897962
-0.876289
-0.854011
-0.832173
-0.811883
-1.02804
-1.01004
-0.99708
-0.979051
-0.955162
-0.927237
-0.897429
-0.867202
-0.837472
-0.809238
-1.09035
-1.06896
-1.0515
-1.02556
-0.991418
-0.952909
-0.913054
-0.873433
-0.835043
-0.798613
-1.15487
-1.12918
-1.10432
-1.06694
-1.01985
-0.969113
-0.918273
-0.869029
-0.822135
-0.777821
-1.2119
-1.18135
-1.14539
-1.09369
-1.03262
-0.969649
-0.908548
-0.850584
-0.79429
-0.739779
-1.10716
-1.11018
-1.10967
-1.1085
-1.10707
-1.106
-1.10569
-1.10601
-1.1072
-1.11033
-1.12577
-1.12592
-1.12503
-1.12478
-1.12508
-1.12635
-1.12926
-1.1339
-1.1403
-1.14916
-1.13485
-1.13174
-1.13051
-1.13122
-1.13368
-1.1376
-1.14325
-1.151
-1.16133
-1.17522
-1.12959
-1.12285
-1.12128
-1.12302
-1.12784
-1.13551
-1.14581
-1.15862
-1.17369
-1.19121
-1.10724
-1.09629
-1.09387
-1.09567
-1.10158
-1.11191
-1.12648
-1.1448
-1.16576
-1.1884
-1.06817
-1.05341
-1.04941
-1.04946
-1.0536
-1.06249
-1.07602
-1.09378
-1.11507
-1.13909
-1.0175
-1.00012
-0.994108
-0.990847
-0.990879
-0.995433
-1.00468
-1.0184
-1.03613
-1.05712
-0.961715
-0.943989
-0.936188
-0.928927
-0.923382
-0.921301
-0.923261
-0.92942
-0.939713
-0.95421
-0.901178
-0.893533
-0.883698
-0.872823
-0.862004
-0.852539
-0.845502
-0.841876
-0.842476
-0.849461
-0.857941
-0.859062
-0.843978
-0.829667
-0.81664
-0.801719
-0.787106
-0.775327
-0.768307
-0.769132
-1.13447
-1.16472
-1.04386
-0.793908
-0.537465
-0.317912
-0.169133
-0.0806186
-0.0293655
-0.00380935
-1.20365
-1.29348
-1.16436
-0.871903
-0.568913
-0.31993
-0.158602
-0.0687222
-0.0203708
-0.000472109
-1.27021
-1.43741
-1.30657
-0.964745
-0.606758
-0.322993
-0.146985
-0.055451
-0.0103188
0.0035031
-1.32505
-1.58758
-1.46284
-1.0695
-0.650638
-0.327432
-0.134698
-0.0410768
0.00064784
0.00812766
-1.3548
-1.72817
-1.62638
-1.18259
-0.700357
-0.334538
-0.123237
-0.0267082
0.0119039
0.0131527
-1.34335
-1.84218
-1.78715
-1.30193
-0.756396
-0.346196
-0.114882
-0.014229
0.0222469
0.0179626
-1.282
-1.92067
-1.93311
-1.42419
-0.819258
-0.364094
-0.111827
-0.00572985
0.0301055
0.0216553
-1.17368
-1.95545
-2.05402
-1.54308
-0.887408
-0.388924
-0.115331
-0.00274947
0.0339855
0.0233785
-1.02797
-1.94199
-2.1377
-1.64848
-0.957089
-0.420281
-0.125738
-0.00586394
0.0329774
0.0227159
-0.869718
-1.88457
-2.17246
-1.73598
-1.02476
-0.45676
-0.142853
-0.0149092
0.0270676
0.0197737
-0.724214
-1.84993
-2.20832
-1.77753
-1.05564
-0.479459
-0.1619
-0.0307021
0.0144462
0.0136123
-0.69832
-1.81126
-2.14712
-1.70443
-1.02681
-0.494041
-0.195664
-0.0613698
-0.00706333
0.00402817
-0.73772
-1.71497
-2.00865
-1.59023
-0.991236
-0.518235
-0.242349
-0.100986
-0.0312696
-0.00439315
-0.754243
-1.52763
-1.80652
-1.46321
-0.962838
-0.553136
-0.295074
-0.144581
-0.0572277
-0.012718
-0.734443
-1.33345
-1.59053
-1.34544
-0.951918
-0.605867
-0.35687
-0.189612
-0.0822843
-0.0210682
-0.687215
-1.14757
-1.38868
-1.24893
-0.960893
-0.669864
-0.423587
-0.237119
-0.108762
-0.0295497
-0.616367
-0.974599
-1.21348
-1.18195
-0.994472
-0.742873
-0.484728
-0.275289
-0.126939
-0.033861
-0.533223
-0.829321
-1.07722
-1.14343
-1.03029
-0.794361
-0.524001
-0.299107
-0.137757
-0.035814
-0.450295
-0.751415
-0.999895
-1.10185
-1.03656
-0.814875
-0.541266
-0.31134
-0.144051
-0.037393
-0.402883
-0.72474
-1.00451
-1.11018
-1.02636
-0.801752
-0.536205
-0.312532
-0.146123
-0.0383817
-0.639251
-0.693492
-0.730125
-0.75627
-0.774759
-0.787023
-0.784452
-0.763288
-0.726671
-0.739788
-0.516752
-0.580346
-0.631274
-0.672335
-0.704344
-0.728836
-0.74414
-0.750535
-0.755653
-0.765675
-0.411506
-0.477189
-0.534794
-0.583275
-0.625517
-0.660556
-0.692407
-0.719984
-0.738962
-0.75603
-0.318108
-0.383376
-0.443592
-0.496002
-0.544309
-0.587565
-0.627002
-0.66421
-0.691147
-0.721147
-0.23458
-0.298971
-0.359123
-0.413781
-0.463663
-0.511346
-0.552466
-0.594665
-0.628554
-0.669033
-0.161314
-0.224382
-0.282963
-0.337324
-0.38655
-0.43439
-0.476116
-0.519787
-0.558361
-0.602529
-0.0996102
-0.161128
-0.217525
-0.269684
-0.317354
-0.362347
-0.403655
-0.445115
-0.4848
-0.526165
-0.0498751
-0.110349
-0.163928
-0.21422
-0.259295
-0.300816
-0.339582
-0.376057
-0.411886
-0.447724
-0.0193371
-0.0780895
-0.129793
-0.178331
-0.220649
-0.258887
-0.293309
-0.322858
-0.350822
-0.377414
-0.00639057
-0.0641418
-0.117984
-0.16634
-0.209995
-0.247894
-0.280889
-0.30802
-0.331132
-0.349189
0.634784
0.571205
0.499406
0.424834
0.346449
0.262097
0.172505
0.0831514
0.00292405
-0.048391
0.46184
0.395637
0.322751
0.244802
0.160279
0.0676914
-0.0311886
-0.129614
-0.21738
-0.274884
0.267073
0.200592
0.128097
0.0491389
-0.0379682
-0.134399
-0.23789
-0.34133
-0.433496
-0.494943
0.0790727
0.0116926
-0.0621447
-0.143203
-0.232841
-0.331957
-0.438085
-0.544389
-0.639317
-0.700762
-0.0921118
-0.161634
-0.237821
-0.321347
-0.413393
-0.514417
-0.621446
-0.729732
-0.823185
-0.883968
-0.244504
-0.316436
-0.394777
-0.480002
-0.573267
-0.674552
-0.780851
-0.886124
-0.977426
-1.03605
-0.379391
-0.452641
-0.531434
-0.616496
-0.708225
-0.807324
-0.909977
-1.01065
-1.09669
-1.15064
-0.499246
-0.570156
-0.645695
-0.724968
-0.812358
-0.908024
-1.00487
-1.09895
-1.1758
-1.22368
-0.592426
-0.656588
-0.729748
-0.811598
-0.896334
-0.982586
-1.06843
-1.15024
-1.21399
-1.25549
-0.675919
-0.740192
-0.809893
-0.878624
-0.94828
-1.02204
-1.09633
-1.16363
-1.21347
-1.24916
1.61245
1.62003
1.62774
1.63477
1.64069
1.6452
1.64806
1.64929
1.65123
1.66581
1.56969
1.57501
1.57987
1.5836
1.58586
1.58634
1.58485
1.58192
1.58046
1.59205
1.50843
1.51069
1.51191
1.51154
1.50931
1.50484
1.49796
1.48962
1.48339
1.49086
1.43011
1.42873
1.42532
1.41966
1.41168
1.40095
1.38733
1.37217
1.35965
1.36162
1.33569
1.33001
1.3212
1.30939
1.2947
1.27665
1.2551
1.23186
1.21174
1.20731
1.22737
1.21727
1.20245
1.18353
1.16092
1.1341
1.10311
1.07033
1.04126
1.02994
1.10591
1.09079
1.06969
1.04357
1.01293
0.977115
0.936189
0.893153
0.854137
0.835977
0.979606
0.958671
0.929286
0.893662
0.853011
0.80678
0.755192
0.701673
0.652611
0.626328
0.852345
0.825243
0.787114
0.741339
0.689624
0.631446
0.567376
0.5017
0.441686
0.406592
0.736727
0.694751
0.64127
0.581834
0.51771
0.447426
0.371286
0.294041
0.223765
0.180243
1.57761
1.55339
1.54679
1.52776
1.51565
1.49946
1.49328
1.49558
1.51683
1.57928
1.57616
1.55067
1.54518
1.52584
1.51286
1.49455
1.48741
1.48612
1.50183
1.55471
1.57535
1.54821
1.54381
1.52379
1.50963
1.48873
1.48048
1.474
1.48196
1.5196
1.57503
1.54606
1.54269
1.52161
1.50599
1.48207
1.47255
1.45915
1.45766
1.47349
1.57506
1.54422
1.54183
1.51927
1.50197
1.47457
1.46348
1.44153
1.42947
1.41617
1.57531
1.54268
1.54124
1.51675
1.49759
1.46624
1.45314
1.42111
1.39787
1.34692
1.57575
1.54145
1.54088
1.51402
1.4928
1.45704
1.44155
1.39805
1.3635
1.2646
1.5764
1.54052
1.54074
1.51102
1.48745
1.44675
1.42879
1.3727
1.32607
1.17096
1.57728
1.5401
1.54088
1.50778
1.48129
1.43486
1.41484
1.34549
1.2848
1.0648
1.57833
1.54088
1.5417
1.50457
1.47415
1.42142
1.39979
1.31762
1.2426
0.95505
1.58027
1.5404
1.54249
1.50123
1.46721
1.40728
1.38224
1.2874
1.19128
0.854101
1.58632
1.54376
1.54802
1.50045
1.46258
1.39412
1.36437
1.26375
1.14745
0.86527
1.59326
1.54607
1.55424
1.50126
1.45989
1.38548
1.34745
1.24382
1.10699
0.870688
1.60067
1.54849
1.55968
1.50396
1.45745
1.38188
1.33029
1.227
1.07054
0.864244
1.60922
1.55123
1.56215
1.50484
1.45271
1.38091
1.31193
1.21277
1.04073
0.851054
1.61897
1.55363
1.56021
1.4981
1.44595
1.37906
1.29257
1.20246
1.02005
0.837269
1.63018
1.55498
1.55163
1.4828
1.43764
1.37538
1.27378
1.19874
1.00892
0.826074
1.64592
1.55857
1.54266
1.46777
1.42848
1.37188
1.25582
1.20393
1.00502
0.819921
1.66155
1.56405
1.53772
1.45872
1.42042
1.36918
1.24067
1.21174
1.00314
0.820572
1.70664
1.5652
1.53455
1.45466
1.42119
1.36669
1.24184
1.22256
1.0032
0.836357
0.627108
0.481442
0.305536
0.135054
-0.0186852
-0.155832
-0.279572
-0.390827
-0.48797
-0.570131
0.590463
0.468751
0.327923
0.187954
0.0595146
-0.0575821
-0.166066
-0.268132
-0.361783
-0.444257
0.583073
0.469974
0.350183
0.232791
0.123047
0.019783
-0.0780988
-0.172086
-0.259284
-0.339449
0.587891
0.482563
0.376536
0.275718
0.180834
0.0893119
0.000496893
-0.0862813
-0.168923
-0.246357
0.599851
0.503857
0.408054
0.318453
0.234015
0.15148
0.0697683
-0.011001
-0.0898399
-0.16435
0.615451
0.528399
0.440818
0.358789
0.281207
0.204817
0.128476
0.0522584
-0.0222591
-0.093763
0.631527
0.553634
0.473574
0.396979
0.32343
0.250748
0.177896
0.104839
0.0341196
-0.0348914
0.647937
0.578204
0.504985
0.432682
0.361267
0.290757
0.220044
0.150135
0.0810604
0.0130363
0.66014
0.594603
0.52549
0.455267
0.384076
0.313474
0.242339
0.173936
0.10661
0.04218
0.679371
0.614872
0.547078
0.476373
0.404087
0.332175
0.260825
0.191291
0.122242
0.0566499
-1.13343
-1.09242
-1.03298
-0.965604
-0.898904
-0.837523
-0.78342
-0.737184
-0.699214
-0.6703
-1.23715
-1.19898
-1.14347
-1.07719
-1.01209
-0.95204
-0.898821
-0.852671
-0.814231
-0.785067
-1.30223
-1.26761
-1.21783
-1.15547
-1.09228
-1.03311
-0.980093
-0.934159
-0.895146
-0.864409
-1.33223
-1.30165
-1.25901
-1.20307
-1.14297
-1.08509
-1.03251
-0.986442
-0.94669
-0.914027
-1.33413
-1.30764
-1.27315
-1.22533
-1.17043
-1.11517
-1.06348
-1.01725
-0.976741
-0.942364
-1.31657
-1.29395
-1.26725
-1.22818
-1.18029
-1.12943
-1.07978
-1.03405
-0.993544
-0.958911
-1.28836
-1.26939
-1.24907
-1.21828
-1.17831
-1.13346
-1.08747
-1.04337
-1.00354
-0.969897
-1.2566
-1.24103
-1.22556
-1.20165
-1.16906
-1.13039
-1.08865
-1.04671
-1.00753
-0.974043
-1.22613
-1.21377
-1.20208
-1.18369
-1.1574
-1.12437
-1.08698
-1.04768
-1.00974
-0.978122
-1.19869
-1.1897
-1.1811
-1.16702
-1.1456
-1.11681
-1.08209
-1.04331
-1.00249
-0.966149
-1.17271
-1.1675
-1.16163
-1.15094
-1.13357
-1.10894
-1.07781
-1.04211
-1.00319
-0.960198
-1.14476
-1.1433
-1.13977
-1.13144
-1.1169
-1.09567
-1.0681
-1.03565
-0.999216
-0.955351
-1.1138
-1.11574
-1.11363
-1.1068
-1.09373
-1.0745
-1.04994
-1.02106
-0.987879
-0.946975
-1.08583
-1.08984
-1.08872
-1.08314
-1.07171
-1.05402
-1.03159
-1.00677
-0.978525
-0.943542
-1.06416
-1.06979
-1.06944
-1.06555
-1.05733
-1.04283
-1.0222
-1.00009
-0.978202
-0.950134
-1.04828
-1.05533
-1.05525
-1.05203
-1.04622
-1.03631
-1.01993
-1.0019
-0.985626
-0.965646
-1.04284
-1.05014
-1.04995
-1.04687
-1.04206
-1.03556
-1.02483
-1.00969
-0.994919
-0.979667
-1.04951
-1.05645
-1.05658
-1.05449
-1.05096
-1.04568
-1.03723
-1.02522
-1.01241
-1.00052
-1.06489
-1.07109
-1.07129
-1.06961
-1.06661
-1.06231
-1.05639
-1.0485
-1.03978
-1.03199
-1.08544
-1.09041
-1.09032
-1.08877
-1.08627
-1.08326
-1.07995
-1.07618
-1.07236
-1.06981
-0.849099
-0.697764
-0.649598
-0.580529
-0.486548
-0.367674
-0.256117
-0.160469
-0.0857629
-0.0239045
-0.841584
-0.699247
-0.654179
-0.579063
-0.477416
-0.358651
-0.247868
-0.15432
-0.0819099
-0.0225575
-0.841628
-0.708764
-0.663811
-0.579994
-0.471453
-0.350325
-0.239485
-0.147727
-0.0775367
-0.0208792
-0.8515
-0.727174
-0.679372
-0.58408
-0.468525
-0.342881
-0.231105
-0.140841
-0.0728327
-0.0190511
-0.86927
-0.754324
-0.701232
-0.591939
-0.467902
-0.336183
-0.222701
-0.133667
-0.0678476
-0.0171634
-0.893052
-0.79053
-0.729947
-0.604319
-0.469674
-0.330263
-0.21426
-0.126188
-0.0625942
-0.0152475
-0.923016
-0.836794
-0.766525
-0.622559
-0.474289
-0.32522
-0.205734
-0.118344
-0.0570372
-0.0132973
-0.961908
-0.894346
-0.81361
-0.648316
-0.482394
-0.321215
-0.197047
-0.110018
-0.0510783
-0.011267
-1.01099
-0.966144
-0.873992
-0.683711
-0.49488
-0.318492
-0.188117
-0.101062
-0.0445785
-0.00907867
-1.06922
-1.05551
-0.950365
-0.731736
-0.512887
-0.317341
-0.178863
-0.0913213
-0.0373889
-0.00663253
-0.843349
-0.712289
-0.657802
-0.579861
-0.473974
-0.359215
-0.254397
-0.161205
-0.0862502
-0.0240189
-0.835293
-0.705676
-0.652272
-0.579101
-0.477828
-0.361876
-0.256913
-0.163071
-0.0873859
-0.0244991
-0.8323
-0.699806
-0.648304
-0.578664
-0.479659
-0.363747
-0.257816
-0.163372
-0.0875398
-0.0244298
-0.830373
-0.694249
-0.644156
-0.577157
-0.482881
-0.366773
-0.259325
-0.163996
-0.0880115
-0.0245665
-0.837885
-0.690593
-0.641198
-0.574926
-0.485906
-0.370167
-0.260182
-0.163952
-0.0880012
-0.0246633
-0.641983
-0.750944
-0.826908
-0.873839
-0.89658
-0.906553
-0.905785
-0.902668
-0.895076
-0.883484
-0.639788
-0.749315
-0.823538
-0.867646
-0.886894
-0.893483
-0.890848
-0.885452
-0.880474
-0.867854
-0.642122
-0.752154
-0.826097
-0.869405
-0.888149
-0.894789
-0.894182
-0.889348
-0.887872
-0.87536
-0.647103
-0.758805
-0.833577
-0.877401
-0.897615
-0.906155
-0.909124
-0.906283
-0.906741
-0.893945
-0.655398
-0.769382
-0.845947
-0.891635
-0.915129
-0.927467
-0.934997
-0.935903
-0.936502
-0.925123
1.17514
1.166
1.15236
1.13729
1.12159
1.10462
1.08634
1.06858
1.05503
1.05398
1.26888
1.26633
1.26002
1.25194
1.24272
1.23196
1.21971
1.20754
1.19892
1.20191
1.35743
1.3583
1.35653
1.35339
1.34933
1.34405
1.33749
1.33066
1.32647
1.33311
1.43722
1.44091
1.44305
1.44431
1.44484
1.4443
1.44244
1.43972
1.43884
1.4488
1.50632
1.51242
1.51772
1.52244
1.52651
1.52959
1.53129
1.53163
1.53302
1.5455
1.56314
1.5712
1.57909
1.58663
1.59359
1.59962
1.60419
1.6068
1.60945
1.6231
1.60611
1.61557
1.62538
1.63502
1.64415
1.65244
1.65931
1.6638
1.66724
1.67988
1.63366
1.64387
1.65474
1.66556
1.67592
1.68556
1.69403
1.70028
1.70447
1.71412
1.64432
1.65443
1.66521
1.67584
1.68585
1.69499
1.70287
1.70874
1.71351
1.72715
1.63742
1.64665
1.65634
1.66563
1.67405
1.68132
1.68709
1.69096
1.69466
1.71042
-0.52027
-0.550929
-0.58988
-0.636561
-0.690518
-0.751677
-0.819804
-0.888304
-0.94926
-0.991393
-0.33857
-0.372079
-0.412616
-0.460237
-0.515223
-0.577223
-0.643946
-0.711799
-0.773111
-0.814699
-0.135104
-0.171755
-0.21413
-0.262517
-0.317331
-0.378508
-0.444192
-0.510242
-0.569418
-0.610832
0.0773284
0.0381979
-0.0056141
-0.0543192
-0.108339
-0.167784
-0.231067
-0.293843
-0.350106
-0.38704
0.284871
0.24488
0.201185
0.153775
0.102163
0.046055
-0.0132664
-0.0717154
-0.123658
-0.154963
0.477147
0.438666
0.397385
0.353354
0.305988
0.254846
0.200953
0.148172
0.101965
0.0764524
0.649762
0.615228
0.578672
0.539972
0.498421
0.45354
0.406236
0.360134
0.320516
0.300665
0.805348
0.776037
0.745333
0.712801
0.677669
0.639534
0.599279
0.560281
0.527636
0.512925
0.951194
0.926448
0.900315
0.872857
0.843409
0.811581
0.778149
0.746109
0.720155
0.709988
1.08481
1.06389
1.04033
1.01662
0.992431
0.966986
0.940594
0.915542
0.895883
0.890275
1.65044
1.58338
1.56624
1.52791
1.51105
1.49459
1.47435
1.44997
1.39467
1.3041
1.63614
1.58058
1.56705
1.53053
1.51511
1.49979
1.48261
1.46161
1.42296
1.36777
1.62386
1.57768
1.5652
1.53197
1.51796
1.50374
1.48963
1.47464
1.45185
1.42793
1.61349
1.5749
1.56237
1.53294
1.51998
1.50674
1.49548
1.48644
1.47689
1.4791
1.6048
1.57205
1.55973
1.53354
1.52127
1.50874
1.49984
1.49582
1.49733
1.52117
1.59757
1.56899
1.55733
1.53368
1.52188
1.50969
1.50259
1.50261
1.51321
1.5542
1.59159
1.56579
1.55501
1.5333
1.52183
1.50962
1.50374
1.50669
1.52431
1.57831
1.58672
1.56256
1.55276
1.53243
1.52114
1.50854
1.50331
1.508
1.53036
1.59302
1.58282
1.55939
1.55061
1.53114
1.51985
1.50648
1.50136
1.50655
1.53117
1.59823
1.5798
1.55632
1.54861
1.52955
1.518
1.50344
1.49798
1.5024
1.52666
1.59372
1.77291
1.59406
1.55345
1.50695
1.48967
1.47103
1.44235
1.40163
1.31826
1.21629
1.73376
1.59776
1.56098
1.51233
1.49256
1.47289
1.44326
1.40251
1.31712
1.20449
1.7099
1.59674
1.56285
1.51553
1.4953
1.47601
1.44701
1.40792
1.32505
1.20772
1.68692
1.59239
1.56331
1.5199
1.50003
1.48136
1.45405
1.41835
1.33809
1.21933
1.66725
1.58706
1.56384
1.52387
1.50531
1.48759
1.46319
1.43065
1.35688
1.23906
0.994821
0.899564
0.780446
0.63396
0.462527
0.270719
0.0671446
-0.136582
-0.328697
-0.499616
0.984937
0.890961
0.774147
0.631534
0.465028
0.277348
0.0754442
-0.129186
-0.323742
-0.496959
0.997379
0.901381
0.782399
0.63953
0.47383
0.286529
0.083779
-0.123079
-0.320581
-0.496708
1.02306
0.91865
0.793794
0.649405
0.483337
0.295205
0.0907489
-0.118866
-0.319737
-0.499164
1.06563
0.94468
0.808074
0.659086
0.491096
0.301567
0.0952841
-0.11711
-0.321543
-0.504592
)
;

boundaryField
{
    left
    {
        type            zeroGradient;
    }
    right
    {
        type            fixedValue;
        value           uniform 0;
    }
    down
    {
        type            zeroGradient;
    }
    up
    {
        type            zeroGradient;
    }
    cylinder
    {
        type            zeroGradient;
    }
    defaultFaces
    {
        type            empty;
    }
}


// ************************************************************************* //
