/*--------------------------------*- C++ -*----------------------------------*\
| =========                 |                                                 |
| \\      /  F ield         | OpenFOAM: The Open Source CFD Toolbox           |
|  \\    /   O peration     | Version:  2406                                  |
|   \\  /    A nd           | Website:  www.openfoam.com                      |
|    \\/     M anipulation  |                                                 |
\*---------------------------------------------------------------------------*/
FoamFile
{
    version     2.0;
    format      ascii;
    arch        "LSB;label=32;scalar=64";
    class       surfaceScalarField;
    location    "1.3";
    object      phi;
}
// * * * * * * * * * * * * * * * * * * * * * * * * * * * * * * * * * * * * * //

dimensions      [0 3 -1 0 0 0 0];

oriented        oriented;

internalField   nonuniform List<scalar> 
3485
(
-0.000910231
7.77687e-05
0.000832463
-0.00172215
0.00019228
0.000619637
-0.00167236
0.00020213
-0.000251918
0.00070581
-0.000187488
-0.00219068
0.00638707
-0.00204176
-0.0036395
0.0156524
-0.0055811
-0.0036842
0.028581
-0.0107674
-0.00216119
0.0451688
-0.017359
0.000771137
0.0651371
-0.0249068
0.0049385
-0.0295277
0.00936814
0.0852967
-0.000883293
0.000961061
-0.00158817
0.000897157
-0.00145866
7.26182e-05
0.00116467
-0.00281081
0.00786611
-0.0087432
0.019259
-0.016974
0.0351332
-0.0266416
0.0548698
-0.0370956
0.0779397
-0.0479767
-0.0547039
0.103116
-0.000121072
0.00108213
7.10663e-05
0.000705019
0.00250513
-0.00236144
0.00951906
-0.00982475
0.0217811
-0.0210052
0.0391157
-0.0343087
0.0607902
-0.0483161
0.0857344
-0.0620398
0.113097
-0.0753395
-0.0839313
0.142325
0.000539158
0.000542975
0.00261161
-0.00136743
0.0093161
-0.00906593
0.0219819
-0.0224906
0.0403476
-0.0393709
0.0632954
-0.0572564
0.0893356
-0.0743563
0.116987
-0.0896907
0.144924
-0.103277
-0.112529
0.173522
0.000631755
-8.87804e-05
0.00548956
-0.00622523
0.0171212
-0.0206976
0.0355233
-0.0408927
0.0591564
-0.063004
0.0858451
-0.0839452
0.113541
-0.102053
0.140749
-0.116898
0.166303
-0.128831
-0.137477
0.191252
0.00141769
-0.00150647
0.00974479
-0.0145523
0.026194
-0.0371468
0.0492389
-0.0639376
0.0757809
-0.089546
0.102837
-0.111002
0.128409
-0.127625
0.15154
-0.140028
0.171962
-0.149253
-0.156057
0.190541
0.00289461
-0.00440108
0.0148838
-0.0265415
0.0355287
-0.0577916
0.0609975
-0.0894065
0.0869773
-0.115526
0.11069
-0.134714
0.131087
-0.148022
0.148246
-0.157188
0.162738
-0.163745
-0.168642
0.175323
0.00460734
-0.00900842
0.0201098
-0.042044
0.043145
-0.0808268
0.0676813
-0.113943
0.0895827
-0.137427
0.107469
-0.1526
0.121681
-0.162234
0.133141
-0.168648
0.142726
-0.17333
-0.176963
0.151047
0.0064317
-0.0154401
0.0244261
-0.0600384
0.0469267
-0.103327
0.0674291
-0.134445
0.0835374
-0.153535
0.0956134
-0.164676
0.104879
-0.1715
0.112325
-0.176094
0.118596
-0.179601
-0.182309
0.123942
0.00808543
-0.0235255
0.0265606
-0.0785136
0.045835
-0.122602
0.0610565
-0.149667
0.0719002
-0.164379
0.0796398
-0.172416
0.0854788
-0.177339
0.0900568
-0.180672
0.0938279
-0.183372
0.0970206
-0.185502
-0.0010281
0.0163474
-0.0153192
-0.00386865
0.0358335
-0.032993
-0.00767776
0.0455809
-0.0417718
-0.0118794
0.0502581
-0.0460564
-0.0162215
0.0525515
-0.0482095
-0.0205596
0.0535373
-0.0491991
-0.0247726
0.0536733
-0.0494603
-0.0287856
0.0532232
-0.0492102
-0.0325951
0.0523425
-0.048533
0.0511826
-0.0362829
-0.0474949
7.08983e-05
0.0162765
-0.00123216
0.0371366
-0.00366496
0.0480138
-0.00665136
0.0532445
-0.00990049
0.0558007
-0.0133103
0.056947
-0.0168091
0.0571721
-0.0203194
0.0567335
-0.0237788
0.0558019
0.0545281
-0.0271243
0.00134522
0.0149312
0.0020567
0.0364251
0.00153513
0.0485353
0.000232084
0.0545475
-0.00140174
0.0574345
-0.00318043
0.0587257
-0.00506758
0.0590593
-0.00705216
0.0587181
-0.00911074
0.0578605
0.05665
-0.0112327
0.00265785
0.0122734
0.00593639
0.0331465
0.00814511
0.0463266
0.00936986
0.0533228
0.0100706
0.0567337
0.0105479
0.0582485
0.0109228
0.0586844
0.0112221
0.0584189
0.0114362
0.0576464
0.0565496
0.0115366
0.00377289
0.0085005
0.00987845
0.027041
0.0154894
0.0407156
0.0200303
0.0487819
0.0237442
0.0530199
0.0269514
0.0550412
0.0298675
0.0557682
0.0326269
0.0556595
0.0353443
0.054929
0.0536442
0.0382498
0.00401403
0.00448647
0.0121058
0.0189492
0.0208266
0.0319948
0.0288199
0.0407887
0.0359255
0.0459143
0.0423752
0.0485915
0.0484346
0.0497089
0.0543143
0.0497797
0.0602038
0.0490395
0.0474586
0.0663894
0.00316547
0.001321
0.0115881
0.0105266
0.0220796
0.0215032
0.0327726
0.0300957
0.0429988
0.035688
0.0527115
0.0388788
0.0620852
0.0403352
0.0713269
0.040538
0.0806524
0.039714
0.0375264
0.0905846
0.00167405
-0.000353053
0.00851747
0.00368322
0.0187337
0.011287
0.0303708
0.0184586
0.0424043
0.0236545
0.0544754
0.0268077
0.066558
0.0282526
0.0787316
0.0283644
0.0911017
0.0273439
0.0241824
0.104446
0.000508176
-0.000861229
0.00411582
7.55672e-05
0.0118533
0.00354958
0.0219999
0.00831202
0.0335002
0.0121542
0.0459231
0.0143848
0.0591493
0.0150263
0.073174
0.0143398
0.0880747
0.0124431
0.0079072
0.10435
-2.87663e-05
0.000666438
0.0039641
0.0100854
0.0186001
0.0293007
0.0421659
0.0572768
0.0746584
0.0919337
-0.0506296
0.38109
-0.366743
-0.043517
0.191684
-0.198797
-0.0197811
-0.0248132
0.00107732
0.0192053
-0.197242
0.158256
0.0611733
-0.279909
0.237941
0.0960354
-0.287151
0.252289
0.12136
-0.253407
0.228082
0.137457
-0.199226
0.183128
0.148047
-0.154607
0.144018
-0.0809648
0.0768966
-0.0488809
0.402847
-0.051363
0.194166
-0.0277423
-0.0484339
0.0143489
-0.239334
0.0592628
-0.324823
0.096068
-0.323956
0.122722
-0.28006
0.139563
-0.216068
0.150815
-0.165859
-0.0854264
-0.0380701
0.429684
-0.0493212
0.205417
-0.0260357
-0.0717195
0.0178864
-0.283256
0.0638158
-0.370752
0.100322
-0.360462
0.126452
-0.30619
0.142902
-0.232518
0.154264
-0.177221
-0.0902237
-0.0152347
0.456455
-0.0331608
0.223343
-0.0117982
-0.093082
0.0324935
-0.327547
0.0780742
-0.416333
0.112048
-0.394435
0.135021
-0.329163
0.149085
-0.246582
0.15936
-0.187496
-0.0950272
0.0157294
0.478976
-0.00508167
0.244154
0.0129727
-0.111136
0.0561642
-0.370739
0.101823
-0.461992
0.133213
-0.425825
0.151067
-0.347018
0.160337
-0.255852
0.167601
-0.194759
-0.0991006
0.0539218
0.491443
0.0299413
0.268135
0.0423117
-0.123507
0.0822291
-0.410656
0.129297
-0.509059
0.16141
-0.457938
0.175327
-0.360936
0.178652
-0.259177
0.18085
-0.196957
-0.101353
0.095512
0.486516
0.0701126
0.293534
0.0737511
-0.127145
0.107546
-0.444451
0.154435
-0.555948
0.190247
-0.493751
0.204582
-0.37527
0.203936
-0.258532
0.200409
-0.19343
-0.100903
0.133937
0.457024
0.111948
0.315524
0.108641
-0.123838
0.136069
-0.47188
0.178183
-0.598062
0.215447
-0.531014
0.233306
-0.393129
0.232897
-0.258123
0.225562
-0.186095
-0.0979797
0.165677
0.395697
0.151623
0.329578
0.146042
-0.118257
0.169846
-0.495685
0.204872
-0.633088
0.23825
-0.564391
0.258117
-0.412996
0.260811
-0.260817
0.253127
-0.17841
-0.0941708
0.179892
0.307739
0.184492
0.324978
0.181589
-0.115354
0.203501
-0.517596
0.234286
-0.663873
0.261359
-0.591464
0.279248
-0.430885
0.28444
-0.266009
0.279047
-0.173018
-0.0915493
0.297634
0.215177
-0.205072
0.405131
0.217481
0.507406
-0.217629
0.576577
-0.586767
0.591752
-0.679049
0.569591
-0.569303
0.538821
-0.400116
0.51169
-0.238877
0.484382
-0.14571
-0.0754842
0.456209
0.191308
-0.432339
0.580864
0.0928256
0.684633
-0.321397
0.719479
-0.621614
0.701511
-0.66108
0.652973
-0.520765
0.598202
-0.345345
0.55601
-0.196685
0.524085
-0.113786
-0.0587218
0.654132
0.159432
-0.622256
0.754278
-0.00732036
0.812594
-0.379713
0.800494
-0.609514
0.752019
-0.612605
0.691779
-0.460526
0.631904
-0.285469
0.584559
-0.14934
0.548894
-0.0781206
-0.0407886
0.80093
0.102504
-0.744003
0.872733
-0.0791229
0.8975
-0.404479
0.866141
-0.578156
0.795926
-0.54239
0.713742
-0.378342
0.641563
-0.21329
0.590451
-0.0982282
0.554172
-0.0418419
-0.0231463
0.882968
0.0383896
-0.818853
0.936413
-0.132568
0.944489
-0.412555
0.898857
-0.532523
0.81415
-0.457683
0.720484
-0.284676
0.64016
-0.132966
0.584954
-0.0430225
0.548627
-0.0055148
-0.00621133
0.921007
-0.0204035
-0.862213
0.967858
-0.179419
0.963638
-0.408336
0.891876
-0.460761
0.780093
-0.345901
0.675652
-0.180235
0.60025
-0.0575638
0.554533
0.00269461
0.527048
0.0219704
0.00692002
0.931057
-0.0727144
-0.878746
0.966716
-0.215078
0.927333
-0.368953
0.819122
-0.35255
0.691016
-0.217794
0.589036
-0.0782542
0.526486
0.00498623
0.49527
0.03391
0.48094
0.0363009
0.0138698
0.895834
-0.110112
-0.858436
0.888528
-0.207772
0.782448
-0.262873
0.627943
-0.198045
0.498658
-0.0885094
0.426121
-0.0057171
0.397484
0.0336234
0.391482
0.039912
0.394185
0.0335981
0.0132231
0.72489
-0.0977462
-0.737256
0.63089
-0.113772
0.456776
-0.0887598
0.302627
-0.0438958
0.22536
-0.0112432
0.20939
0.0102536
0.221725
0.0212881
0.240049
0.0215884
0.25662
0.0170267
0.00682647
0.265169
-0.362915
0.151397
0.0626374
0.0187415
0.00749837
0.017752
0.0390402
0.0606286
0.0776553
0.52318
0.0922959
-0.518455
0.527537
0.119585
0.531875
0.146709
0.532425
0.174773
0.525409
0.197557
0.499818
0.216843
0.450828
0.222511
0.373866
0.219286
0.27426
0.202723
0.154484
0.534219
0.0822925
-0.524216
0.544003
0.109802
0.555236
0.135476
0.566378
0.163631
0.57506
0.188875
0.579747
0.212157
0.568321
0.233937
0.550391
0.237216
0.499664
0.25345
0.221809
0.549429
0.0712027
-0.53834
0.56216
0.0970713
0.576275
0.121361
0.593522
0.146384
0.609283
0.173114
0.628674
0.192765
0.640789
0.221822
0.65001
0.227995
0.646386
0.257074
0.245938
0.568055
0.0601783
-0.55703
0.58241
0.0827163
0.598519
0.105251
0.618682
0.126221
0.639949
0.151847
0.664426
0.168287
0.689457
0.196791
0.711671
0.205782
0.733962
0.234784
0.235897
0.580932
0.0488596
-0.569613
0.596348
0.0672995
0.614705
0.0868946
0.636864
0.104062
0.662579
0.126132
0.690309
0.140558
0.722678
0.164422
0.753378
0.175082
0.789158
0.199004
0.206201
0.582503
0.0369101
-0.570553
0.598564
0.0512384
0.618831
0.0666278
0.64282
0.0800726
0.671639
0.0973131
0.702835
0.109362
0.739777
0.12748
0.777033
0.137825
0.820535
0.155501
0.164523
0.570795
0.0244524
-0.558337
0.587087
0.0349463
0.608597
0.0451172
0.633783
0.054887
0.664588
0.0665078
0.698497
0.0754538
0.738578
0.0873979
0.780695
0.0957089
0.829331
0.106866
0.115108
0.540001
0.012246
-0.527795
0.556172
0.0187761
0.577896
0.0233924
0.602935
0.0298484
0.634445
0.0349979
0.668806
0.0410932
0.710069
0.0461345
0.753997
0.0517807
0.804926
0.0559366
0.0615989
0.466493
0.00241169
-0.456659
0.480659
0.00460985
0.498405
0.00564613
0.520226
0.00802811
0.546303
0.00892118
0.576027
0.0113692
0.610343
0.0118182
0.648133
0.0139907
0.690738
0.0133311
0.0150812
0.27012
-0.267708
0.27473
0.280376
0.288404
0.297325
0.308694
0.320512
0.334503
0.347834
0.0690082
0.134917
-0.123384
-0.080541
0.0586563
0.136206
-0.125854
0.0493136
0.137741
-0.128398
0.0404576
0.139889
-0.131033
0.0318008
0.142099
-0.133442
0.0233491
0.143575
-0.135123
0.0153147
0.142786
-0.134751
0.00799118
0.137123
-0.1298
0.00224987
0.118552
-0.112811
0.0637361
-0.0614863
0.0674297
0.145661
-0.078174
0.0570441
0.146591
0.0472053
0.14758
0.0379637
0.149131
0.0291947
0.150868
0.020906
0.151863
0.0132714
0.15042
0.00652924
0.143865
0.00158502
0.123496
0.0653211
0.0609995
0.15548
-0.0708181
0.0512041
0.156387
0.0417868
0.156997
0.0329406
0.157977
0.02467
0.159138
0.0170279
0.159505
0.0101588
0.157289
0.00430681
0.149717
0.000467069
0.127336
0.0657882
0.0500558
0.164137
-0.0587127
0.0414224
0.16502
0.0330074
0.165412
0.0250379
0.165946
0.0176721
0.166504
0.0110849
0.166092
0.00543907
0.162935
0.000902129
0.154254
-0.00101023
0.129248
0.064778
0.0355154
0.171519
-0.0428975
0.0282382
0.172297
0.0211621
0.172488
0.0145066
0.172602
0.00846789
0.172543
0.00334129
0.171219
-0.000726273
0.167003
-0.00325381
0.156782
-0.00288458
0.128879
0.0618934
0.0180152
0.177565
-0.0240621
0.0122672
0.178045
0.00679795
0.177957
0.00169282
0.177707
-0.00266708
0.176903
-0.00584253
0.174395
-0.00796549
0.169126
-0.00816639
0.156983
-0.00491223
0.125625
0.0569812
-0.0013596
0.182274
-0.00334917
-0.00570815
0.182394
-0.00979066
0.18204
-0.0132222
0.181139
-0.0153496
0.17903
-0.016372
0.175417
-0.0162682
0.169022
-0.0134364
0.154151
-0.00683136
0.11902
0.0501498
-0.0230718
0.185526
0.0198204
-0.025782
0.185104
-0.0276022
0.18386
-0.0283824
0.181919
-0.0282901
0.178938
-0.0274644
0.174591
-0.0247353
0.166293
-0.018413
0.147829
-0.00832157
0.108928
0.0418283
-0.0464579
0.186854
0.0451298
-0.046803
0.185449
-0.0461941
0.183251
-0.0448631
0.180588
-0.0428996
0.176974
-0.0394748
0.171167
-0.0332163
0.160034
-0.0228162
0.137429
-0.00918219
0.0952943
0.0326461
-0.0703472
0.0716993
-0.0682701
-0.0656911
-0.062442
-0.0578833
-0.0510958
-0.0407283
-0.0259012
-0.00912051
0.0948923
0.035148
-0.105679
-0.024361
0.0839529
0.0360527
-0.0251132
0.0728727
0.0370091
-0.0259289
0.0616529
0.0380027
-0.0267829
0.0502968
0.0389688
-0.0276128
0.0388235
0.0397172
-0.0282438
0.0273205
0.0397406
-0.0282376
0.0160792
0.0379028
-0.0266614
0.00600107
0.0319755
-0.0218974
0.0171787
-0.0111777
0.095599
0.0461032
-0.106554
0.084537
0.0471148
0.0733362
0.0482098
0.0620071
0.0493319
0.0505595
0.0504164
0.0390175
0.0512592
0.0274645
0.0512936
0.0161683
0.0491989
0.00601553
0.0421283
0.0231943
0.0964456
0.0569911
-0.107334
0.0853968
0.0581636
0.0741953
0.0594113
0.062837
0.0606902
0.0513236
0.0619297
0.039675
0.0629079
0.0279792
0.0629894
0.0165089
0.0606692
0.00615326
0.0524839
0.0293475
0.095023
0.0678281
-0.10586
0.0840902
0.0690964
0.0730203
0.0704812
0.0618061
0.0719043
0.0504411
0.0732947
0.0389401
0.0744089
0.0273952
0.0745343
0.0160868
0.0719776
0.00591931
0.0626514
0.0352669
0.0928686
0.0785787
-0.103619
0.0820545
0.0799105
0.0711527
0.081383
0.0601482
0.0829088
0.049019
0.0844239
0.0377695
0.0856584
0.0265001
0.0858038
0.0154961
0.0829816
0.00563752
0.07251
0.0409044
0.0897356
0.089242
-0.100399
0.07902
0.0906261
0.0682037
0.0921993
0.0573322
0.0937803
0.0464349
0.0953212
0.0355409
0.0965524
0.0247478
0.0965969
0.0143169
0.0934124
0.00507763
0.0817493
0.045982
0.0865128
0.0992187
-0.0964895
0.0764832
0.100656
0.0662854
0.102397
0.0558651
0.104201
0.0452506
0.105936
0.0345468
0.107256
0.0239474
0.107196
0.0137666
0.103593
0.00485484
0.0906611
0.0508368
0.0794034
0.108929
-0.0891143
0.069864
0.110195
0.060379
0.111882
0.0508673
0.113712
0.0412287
0.115574
0.0314514
0.117033
0.0216914
0.116956
0.0122879
0.112997
0.00416076
0.0987883
0.0549976
0.0751656
0.117176
-0.0834119
0.066623
0.118738
0.0575724
0.120933
0.0482097
0.123075
0.0387067
0.125077
0.0291915
0.126549
0.0198643
0.126283
0.0110384
0.121823
0.00358708
0.10624
0.0585847
0.0653962
-0.0716044
0.05828
0.0508146
0.0428565
0.0344919
0.0259178
0.0174499
0.00947271
0.00290157
0.202496
-0.0193192
0.0148129
0.20766
0.020267
-0.025431
0.207592
0.113656
-0.113587
0.203781
0.167132
-0.163321
0.198936
0.171052
-0.166207
0.193518
0.167932
-0.162514
0.186042
0.158236
-0.150761
0.175621
0.169524
-0.159102
0.153028
0.189654
-0.167062
0.234853
-0.187504
0.202373
-0.0237019
0.206931
0.0157085
0.205968
0.114619
0.201452
0.171648
0.19622
0.176284
0.190742
0.17341
0.184071
0.164907
0.174313
0.179282
0.152988
0.210979
0.281286
0.202174
-0.0278856
0.206032
0.0118498
0.204006
0.116645
0.198509
0.177144
0.19261
0.182183
0.186787
0.179234
0.180816
0.170878
0.171313
0.188784
0.151492
0.2308
0.325445
0.201895
-0.0317911
0.204981
0.00876388
0.201693
0.119933
0.194915
0.183923
0.188162
0.188936
0.181868
0.185527
0.176447
0.176299
0.166778
0.198454
0.148538
0.249039
0.368124
0.201543
-0.0353444
0.20381
0.00649664
0.199015
0.124728
0.19069
0.192248
0.183041
0.196585
0.17625
0.192318
0.171134
0.181416
0.160751
0.208836
0.144416
0.265375
0.40892
0.201117
-0.0384718
0.202526
0.00508771
0.195949
0.131305
0.185969
0.202229
0.177517
0.205036
0.170161
0.199675
0.164971
0.186606
0.153511
0.220296
0.139457
0.279429
0.447978
0.200581
-0.0410632
0.201063
0.00460633
0.1925
0.139868
0.180986
0.213742
0.171855
0.214167
0.163769
0.207761
0.158122
0.192252
0.14543
0.232988
0.133328
0.291531
0.484817
0.199841
-0.0429141
0.199309
0.0051382
0.188771
0.150406
0.175994
0.226519
0.166233
0.223929
0.157241
0.216753
0.150898
0.198595
0.136899
0.246987
0.127072
0.301359
0.522774
0.198753
-0.0436777
0.197185
0.00670619
0.184986
0.162606
0.171228
0.240277
0.160845
0.234311
0.15087
0.226729
0.143753
0.205712
0.129134
0.261606
0.120227
0.310266
0.559589
0.197254
-0.0429418
0.194554
0.00940621
0.181377
0.175783
0.16694
0.254713
0.156194
0.245057
0.145343
0.23758
0.137552
0.213503
0.121193
0.277964
0.114979
0.31648
0.602964
0.304871
-0.0458025
0.312741
0.00153649
0.316947
0.171577
0.312903
0.258758
0.312671
0.245289
0.307354
0.242896
0.316164
0.204693
0.314009
0.280119
0.361188
0.269302
0.525592
0.438559
0.301891
-0.0456835
0.311029
-0.00760109
0.325306
0.1573
0.333031
0.251033
0.342605
0.235715
0.348376
0.237125
0.361611
0.191459
0.363352
0.278378
0.389296
0.243358
0.450947
0.463941
0.298721
-0.0423942
0.309645
-0.018525
0.335288
0.131657
0.361815
0.224506
0.378295
0.219235
0.400497
0.214923
0.414577
0.177379
0.425194
0.26776
0.450108
0.218445
0.38997
0.511084
0.295895
-0.0362787
0.307817
-0.0304478
0.343477
0.0959977
0.388732
0.17925
0.409405
0.198562
0.44471
0.179618
0.46226
0.159828
0.477924
0.252096
0.51192
0.184449
0.341917
0.559973
0.295126
-0.0293943
0.305953
-0.0412753
0.348408
0.053543
0.404682
0.122976
0.432026
0.171218
0.471659
0.139986
0.49453
0.136957
0.515348
0.231278
0.551218
0.148579
0.292829
0.600306
0.297082
-0.0244662
0.306398
-0.0505913
0.350225
0.00971598
0.40771
0.0654908
0.444117
0.134811
0.483615
0.100488
0.510732
0.10984
0.538607
0.203403
0.571228
0.115958
0.237449
0.626609
0.301922
-0.0243776
0.310395
-0.0590643
0.348342
-0.028231
0.397061
0.0167711
0.440562
0.0913105
0.4785
0.0625499
0.506786
0.0815537
0.544443
0.165746
0.576693
0.0837082
0.17721
0.636932
0.307622
-0.0299894
0.312962
-0.0644044
0.337159
-0.0524276
0.366685
-0.0127553
0.411741
0.0462548
0.444264
0.0300265
0.470052
0.0557655
0.523937
0.111861
0.556835
0.05081
0.116108
0.617936
0.307722
-0.0357012
0.299238
-0.0559201
0.295014
-0.0482037
0.298401
-0.0161427
0.331795
0.0128605
0.350243
0.0115787
0.379679
0.0263294
0.444756
0.0467843
0.473054
0.0225121
0.0531953
0.535967
0.266309
0.210389
0.162185
0.146043
0.158903
0.170482
0.196811
0.243596
0.266108
0.319303
0.455871
-0.0978526
0.46551
-0.0878134
0.473324
-0.0786319
0.480098
-0.065487
0.486591
-0.04939
0.492928
-0.0303994
0.498936
-0.00935766
0.50525
0.0135073
0.512188
0.0381911
0.0654322
0.473436
-0.107347
0.480635
-0.0950125
0.485659
-0.0836556
0.489173
-0.0690011
0.49311
-0.0533273
0.496993
-0.0342823
0.502309
-0.0146738
0.508058
0.00775828
0.515475
0.0307746
0.0566912
0.5115
-0.107763
0.51235
-0.0958622
0.513021
-0.0843265
0.513071
-0.0690507
0.514138
-0.0543943
0.515604
-0.0357486
0.519105
-0.0181753
0.523254
0.00361008
0.530078
0.0239501
0.0484296
0.553653
-0.101443
0.548496
-0.0907055
0.544033
-0.0798638
0.540665
-0.0656824
0.538622
-0.0523514
0.538035
-0.0351614
0.539513
-0.0196538
0.542779
0.000344899
0.54865
0.0180787
0.0400491
0.588685
-0.089822
0.578661
-0.0806813
0.569804
-0.0710065
0.563003
-0.0588817
0.55776
-0.0471085
0.554903
-0.0323043
0.554134
-0.0188847
0.556372
-0.00189326
0.561171
0.0132798
0.0316072
0.611557
-0.0747703
0.597188
-0.0663121
0.584353
-0.0581716
0.573943
-0.0484716
0.565581
-0.0387467
0.560235
-0.0269588
0.55748
-0.0161295
0.558328
-0.0027415
0.562423
0.0091852
0.0234768
0.616708
-0.0545463
0.598491
-0.0480947
0.582186
-0.0418672
0.568755
-0.03504
0.557998
-0.0279901
0.550865
-0.0198258
0.546917
-0.0121815
0.546717
-0.00254084
0.550549
0.00535284
0.0156891
0.594052
-0.0306624
0.573339
-0.027382
0.555213
-0.0237405
0.540329
-0.0201567
0.528593
-0.016254
0.520747
-0.0119797
0.516269
-0.00770334
0.516335
-0.0026073
0.52
0.00168791
0.00789452
0.515073
-0.00976756
0.496535
-0.00884466
0.480787
-0.00799276
0.467841
-0.00721016
0.457851
-0.00626434
0.451073
-0.00520181
0.447363
-0.0039929
0.44719
-0.00243458
0.449836
-0.000958003
0.00107189
0.309535
0.300691
0.292698
0.285488
0.279223
0.274022
0.270029
0.267594
0.266636
0.00518563
0.0460345
-0.0512201
0.00988941
0.102277
-0.106981
0.0117718
0.130061
-0.131943
0.0120241
0.141739
-0.141991
0.0120898
0.146093
-0.146159
0.0114901
0.148591
-0.147991
0.00995355
0.149045
-0.147508
0.00800685
0.146674
-0.144727
0.00618659
0.141034
-0.139214
0.130275
0.00494048
-0.129029
0.0064547
0.0395798
0.0140995
0.0946327
0.019149
0.125011
0.0219902
0.138897
0.023697
0.144386
0.0250931
0.147195
0.0258431
0.148295
0.0257806
0.146736
0.0251586
0.141656
0.13137
0.0240632
0.00710461
0.0324752
0.017296
0.0844413
0.0254196
0.116887
0.0309316
0.133385
0.0346745
0.140644
0.0377664
0.144103
0.0404198
0.145641
0.0422152
0.144941
0.0429176
0.140954
0.13208
0.0422081
0.00704853
0.0254267
0.0191024
0.0723874
0.0300016
0.105988
0.0381609
0.125226
0.0441204
0.134684
0.048972
0.139251
0.0532345
0.141379
0.0566985
0.141477
0.0588615
0.138791
0.13186
0.0590812
0.00641354
0.0190131
0.0193934
0.0594075
0.0325849
0.0927968
0.0432837
0.114527
0.0514555
0.126512
0.0580602
0.132646
0.0637817
0.135657
0.0686767
0.136582
0.0722648
0.135203
0.130392
0.0737328
0.00540948
0.0136036
0.0182895
0.0465274
0.0331171
0.0779692
0.0461507
0.101494
0.0564806
0.116182
0.0647626
0.124364
0.0718054
0.128614
0.0779316
0.130456
0.0828709
0.130263
0.127445
0.0858174
0.00425689
0.00934674
0.016033
0.0347513
0.031591
0.0624113
0.0467585
0.0863262
0.0594768
0.103464
0.069686
0.114155
0.0781372
0.120163
0.0854515
0.123141
0.0917191
0.123996
0.122694
0.0964701
0.00312542
0.00622132
0.0129437
0.024933
0.027803
0.047552
0.0442445
0.0698847
0.0594007
0.0883079
0.0720962
0.10146
0.0824601
0.109799
0.0911045
0.114497
0.0984416
0.116659
0.116821
0.104315
0.00218788
0.00403345
0.00967155
0.0174493
0.0223312
0.0348924
0.0382733
0.0539426
0.0548795
0.0717017
0.0702172
0.0861221
0.0834953
0.0965211
0.0947811
0.103211
0.10456
0.106879
0.107969
0.113413
0.00147849
0.00255496
0.00667625
0.0122516
0.0161646
0.025404
0.0295172
0.04059
0.0451704
0.0560484
0.0612683
0.0700243
0.0764192
0.0813702
0.089898
0.0897322
0.101528
0.0952493
0.0978698
0.111627
0.000865962
0.001689
0.00394757
0.00916995
0.0100038
0.0193478
0.0195061
0.0310877
0.032045
0.0435094
0.0464879
0.0555814
0.061554
0.0663041
0.0762423
0.0750439
0.0898479
0.0816437
0.0862429
0.101475
0.000193144
0.00149585
0.0012304
0.0081327
0.00401712
0.0165611
0.00938472
0.0257201
0.0176947
0.0351995
0.0285962
0.0446799
0.0412406
0.0536598
0.0547114
0.0615731
0.0682141
0.068141
0.0732554
0.0812016
-0.000551983
0.00204783
-0.00129859
0.00887931
-0.00119433
0.0164568
0.000637938
0.0238878
0.00482347
0.031014
0.0115878
0.0379156
0.0205773
0.0446702
0.0311048
0.0510456
0.0425724
0.0566734
0.0610587
0.054769
-0.00108245
0.00313028
-0.00295835
0.0107552
-0.00447866
0.0179772
-0.0049286
0.0243378
-0.00378141
0.0298668
-0.00060921
0.0347434
0.00472774
0.0393333
0.0118134
0.0439599
0.0201902
0.0482966
0.051444
0.0298049
-0.00147775
0.00460804
-0.00410481
0.0133823
-0.00660704
0.0204794
-0.00835725
0.026088
-0.00910523
0.0306148
-0.00866461
0.0343028
-0.00674544
0.0374141
-0.0033646
0.0405791
0.0014492
0.0434828
0.0454382
0.00745503
-0.00212079
0.00672882
-0.0057258
0.0169873
-0.00929707
0.0240507
-0.0121694
0.0289603
-0.0141399
0.0325853
-0.0152268
0.0353897
-0.0154609
0.0376483
-0.0145725
0.0396907
-0.0123222
0.0412325
0.0418178
-0.00870189
-0.00244446
0.00917329
-0.00658984
0.0211327
-0.0108079
0.0282687
-0.0144098
0.0325622
-0.0171523
0.0353278
-0.0190391
0.0372765
-0.0202186
0.0388278
-0.0207078
0.0401798
-0.0204322
0.040957
0.0408754
-0.0194898
-0.00233679
0.0115101
-0.00649922
0.0252951
-0.0109462
0.0327158
-0.0150881
0.036704
-0.01875
0.0389897
-0.0218948
0.0404213
-0.024483
0.041416
-0.0264273
0.0421241
-0.0277792
0.0423089
0.0418377
-0.0287415
-0.00210504
0.0136151
-0.00613865
0.0293287
-0.0107304
0.0373075
-0.0153576
0.0413312
-0.0198293
0.0434615
-0.0240106
0.0446025
-0.0277555
0.0451609
-0.0309259
0.0452946
-0.0335942
0.0449772
0.0441822
-0.0359387
-0.00170414
-0.00536841
-0.00983275
-0.014558
-0.019306
-0.0239026
-0.028202
-0.0321177
-0.0356735
-0.0389862
0.0852454
0.356394
-0.340164
0.0619972
0.239248
-0.216
0.0483899
0.140117
-0.12651
0.0501881
0.0444051
-0.0462034
0.0594567
-0.0198974
0.0106289
0.0730705
-0.0573842
0.0437705
0.0877939
-0.0705796
0.0558562
0.101394
-0.0670908
0.0534903
0.113792
-0.0569516
0.0445545
-0.0335822
0.0255618
0.0704582
0.367137
0.0519906
0.257715
0.0448593
0.147248
0.051658
0.0376064
0.063821
-0.0320604
0.078363
-0.0719261
0.0931053
-0.0853219
0.106262
-0.0802476
0.117883
-0.0685727
-0.040717
0.0524154
0.369491
0.0398434
0.270287
0.0402068
0.146885
0.0519701
0.0258431
0.0672486
-0.0473389
0.0830917
-0.0877692
0.0979872
-0.100218
0.110694
-0.0929541
0.121501
-0.0793799
-0.0470383
0.0330712
0.366225
0.0269274
0.276431
0.0353684
0.138444
0.0517927
0.00941888
0.0701068
-0.065653
0.0874469
-0.105109
0.102674
-0.115445
0.114998
-0.105278
0.125035
-0.0894172
-0.0526245
0.0142121
0.359467
0.0150123
0.275631
0.0310547
0.122402
0.0515325
-0.0110589
0.0725961
-0.0867167
0.091506
-0.124019
0.107229
-0.131167
0.119292
-0.117341
0.128659
-0.098784
-0.0575471
-0.00322254
0.353988
0.00491568
0.267493
0.026875
0.100442
0.0507147
-0.0348985
0.0744177
-0.11042
0.0950347
-0.144636
0.111472
-0.147604
0.123484
-0.129353
0.132363
-0.107663
-0.061902
-0.0182217
0.35272
-0.00353974
0.252811
0.0217942
0.0751084
0.048496
-0.0616004
0.0749881
-0.136912
0.097622
-0.16727
0.115101
-0.165084
0.127356
-0.141608
0.136013
-0.116319
-0.0658289
-0.0304619
0.35444
-0.01147
0.233819
0.0147018
0.0489366
0.0440636
-0.0909622
0.0737654
-0.166614
0.0989092
-0.192414
0.117865
-0.184039
0.130704
-0.154448
0.139451
-0.125066
-0.0695063
-0.0401533
0.358655
-0.0206108
0.214276
0.00500693
0.0233189
0.0370527
-0.123008
0.070565
-0.200126
0.098781
-0.22063
0.119673
-0.204931
0.133432
-0.168207
0.142579
-0.134214
-0.0731312
-0.0470746
-0.0315948
-0.00719858
0.0280495
0.0658648
0.0975234
0.120675
0.135596
0.145401
0.0118038
0.0218554
-0.0336592
0.00439637
0.00740742
0.00104783
0.00334854
-0.000551012
0.00159884
-0.000108103
-0.000442908
0.00270032
-0.00280842
0.00742894
-0.00472862
0.0124151
-0.00498615
0.0162645
-0.00384936
-0.00220571
0.0693477
0.0802772
-0.127769
0.040437
0.0363182
0.0244173
0.0193682
0.0181532
0.00786291
0.0214972
-0.00378691
0.0302963
-0.0116075
0.0404961
-0.0149285
0.0502006
-0.0146907
0.0576712
-0.0113199
-0.0064006
0.12726
0.166018
-0.213001
0.0785472
0.0850314
0.0514546
0.0464608
0.0416067
0.0177108
0.0445658
-0.00674603
0.0545833
-0.0216249
0.0669175
-0.0272627
0.0787186
-0.0264918
0.088442
-0.0210434
-0.0120537
0.166455
0.260363
-0.2608
0.104065
0.147422
0.0676184
0.0829074
0.0545038
0.0308253
0.0565651
-0.0088073
0.0671416
-0.0322014
0.0808993
-0.0410205
0.0940133
-0.0396057
0.105363
-0.0323935
-0.018671
0.187181
-0.266982
0.118603
0.0750005
0.0596225
0.061444
0.0730131
0.0878488
0.101733
0.113894
0.0105938
0.000102803
-0.0106966
0.0116852
-0.00109141
0.0137422
-0.00205703
0.0165492
-0.00280694
0.0199253
-0.00337609
0.0232602
-0.00333499
0.0267955
-0.00353527
0.0291883
-0.00239279
0.0319
-0.00271173
-0.0017592
0.0278149
-9.97249e-05
-0.0276123
0.031011
-0.00428755
0.0368972
-0.00794319
0.0451926
-0.0111024
0.0555353
-0.0137188
0.0670352
-0.0148349
0.0804788
-0.0169788
0.0938243
-0.0157383
0.11047
-0.0193578
-0.0190583
0.0414808
-0.000931
-0.0406496
0.0466077
-0.00941436
0.0557812
-0.0171167
0.0688158
-0.024137
0.0852508
-0.0301538
0.104563
-0.0341466
0.127326
-0.0397425
0.151784
-0.0401962
0.182064
-0.0496375
-0.0499958
0.0519287
-0.00254266
-0.0503171
0.0586378
-0.0161234
0.0703224
-0.0288014
0.0867866
-0.0406012
0.107484
-0.0508508
0.13237
-0.0590334
0.160328
-0.0677002
0.192266
-0.0721339
0.227523
-0.0848952
-0.0832727
0.0596667
-0.0572689
0.0676065
0.0810132
0.0994933
0.122375
0.149159
0.177929
0.21011
0.238628
0.0656013
-0.0600115
0.0663633
-0.0719531
0.0587129
-0.0605443
0.0674327
0.0516051
-0.0613144
0.0684221
0.0441599
-0.06204
0.0694853
0.0363003
-0.0626132
0.0704728
0.02807
-0.0628191
0.0710494
0.0196588
-0.0621095
0.0705206
0.0114066
-0.0592526
0.0675049
0.00409125
-0.0512099
0.0585252
-0.0290366
0.0331279
0.0712046
-0.0524817
-0.0787343
0.0634341
-0.0527738
0.0552537
-0.053134
0.0466982
-0.0534846
0.0378768
-0.0537917
0.028943
-0.0538853
0.0200929
-0.0532594
0.0116083
-0.0507681
0.0041774
-0.0437789
-0.0248592
0.0722979
-0.0439927
-0.0807869
0.0637003
-0.0441761
0.0549974
-0.0444311
0.0462196
-0.0447068
0.0373964
-0.0449685
0.0285717
-0.0450606
0.0198489
-0.0445365
0.011469
-0.0423882
0.00412264
-0.0364325
-0.0207366
0.0753337
-0.0352397
-0.0840867
0.0665149
-0.0353573
0.0575919
-0.0355082
0.0485492
-0.035664
0.0393851
-0.0358044
0.0301457
-0.0358212
0.0209722
-0.035363
0.0121635
-0.0335796
0.00443947
-0.0287085
-0.0162971
0.0781866
-0.0261494
-0.0872769
0.0689771
-0.0261478
0.0596313
-0.0261625
0.0501472
-0.0261799
0.0405458
-0.026203
0.0309018
-0.0261772
0.021392
-0.0258532
0.0123586
-0.0245462
0.00452744
-0.0208774
-0.0117697
0.0810677
-0.0167036
-0.0905135
0.0714833
-0.0165634
0.0617443
-0.0164235
0.0518493
-0.0162849
0.0418188
-0.0161725
0.0317346
-0.016093
0.0218148
-0.0159334
0.0125036
-0.015235
0.00459501
-0.0129687
-0.00717467
0.084114
-0.00688387
-0.0939337
0.0741395
-0.00658897
0.0639876
-0.00627151
0.0536459
-0.00594322
0.0431201
-0.00564665
0.0324803
-0.0054532
0.0219778
-0.00543092
0.012227
-0.00548425
0.00429872
-0.00504041
-0.00287595
0.087234
0.00328176
-0.0973996
0.0769066
0.00373842
0.0663929
0.00424221
0.0556725
0.00477714
0.0447335
0.00529239
0.0336112
0.00566906
0.0225085
0.00567176
0.0120776
0.00494664
0.00379284
0.00324439
0.000916889
0.0902716
0.0137146
-0.100705
0.0796826
0.0143275
0.0689289
0.0149959
0.0580024
0.0157036
0.0469017
0.0163931
0.0356569
0.0169139
0.0244173
0.0169113
0.0136728
0.0156912
0.00466104
0.0122562
0.00557793
0.0928852
-0.103532
0.0820995
0.0711665
0.0600871
0.0488675
0.0375375
0.0262112
0.015241
0.00559975
0.0130972
-0.127422
-0.0147034
0.0101436
-0.136261
0.00667852
-0.141262
0.00312647
-0.143956
-3.28008e-05
-0.144832
-0.00248523
-0.143706