/*--------------------------------*- C++ -*----------------------------------*\
| =========                 |                                                 |
| \\      /  F ield         | OpenFOAM: The Open Source CFD Toolbox           |
|  \\    /   O peration     | Version:  2406                                  |
|   \\  /    A nd           | Website:  www.openfoam.com                      |
|    \\/     M anipulation  |                                                 |
\*---------------------------------------------------------------------------*/
FoamFile
{
    version     2.0;
    format      ascii;
    arch        "LSB;label=32;scalar=64";
    class       volVectorField;
    location    "1.3";
    object      U;
}
// * * * * * * * * * * * * * * * * * * * * * * * * * * * * * * * * * * * * * //

dimensions      [0 1 -1 0 0 0 0];

internalField   nonuniform List<vector> 
1800
(
(0.000975287 -0.00639769 0)
(-0.00390475 -0.00858723 -9.2398e-21)
(-0.00780921 -0.00576216 -8.75882e-20)
(-0.0127798 -0.00141222 4.7299e-20)
(0.0059772 0.016235 1.13265e-19)
(0.0455168 0.0320901 3.51395e-20)
(0.110558 0.0456072 -4.58525e-20)
(0.199902 0.0572812 -1.43111e-19)
(0.309214 0.0707396 0)
(0.395474 0.101285 -8.31595e-21)
(-0.00810125 0.000726939 7.23048e-21)
(-0.0108448 -0.00170297 -4.22628e-20)
(-0.00791978 -0.00543224 8.23905e-20)
(0.00611 -0.0140091 7.70952e-20)
(0.0576022 -0.0215325 -1.54286e-20)
(0.143937 -0.0289468 -1.71919e-19)
(0.258749 -0.0342935 4.9082e-20)
(0.396283 -0.0358548 2.34205e-19)
(0.553496 -0.0268484 -1.39641e-20)
(0.657559 -0.0169729 -2.00216e-20)
(-0.0130414 0.00771567 1.06162e-20)
(-0.0114174 0.00648095 -5.17196e-20)
(0.0030066 0.000489608 -4.57979e-20)
(0.0662244 -0.0124929 2.32299e-20)
(0.183183 -0.0282936 -1.55236e-20)
(0.3383 -0.0403392 4.39666e-20)
(0.516268 -0.0453444 -3.18191e-20)
(0.704467 -0.0429333 -2.11516e-19)
(0.905803 -0.0240151 6.1114e-20)
(1.03291 -0.0168681 3.55394e-20)
(-0.00964109 0.00676978 1.41457e-20)
(-0.000688838 0.00726655 6.86563e-20)
(0.0622082 -0.00503176 -5.91269e-20)
(0.199769 -0.0209837 -5.85362e-22)
(0.393885 -0.0345384 1.12549e-19)
(0.61858 -0.0401152 -3.24249e-20)
(0.850954 -0.0357288 -9.66479e-20)
(1.07414 -0.0229473 -7.10782e-20)
(1.28986 0.00156802 -1.23404e-20)
(1.43408 0.0189114 5.08751e-20)
(-0.00223525 0.00155603 -6.96451e-21)
(0.0376408 -0.00799664 4.90466e-20)
(0.178527 -0.0212437 4.95989e-20)
(0.4039 -0.0326565 -8.92196e-20)
(0.675672 -0.0346021 -3.8284e-20)
(0.955484 -0.024386 5.44856e-20)
(1.21606 -0.00390834 4.49758e-20)
(1.44396 0.023146 8.27378e-20)
(1.63945 0.0555061 -1.68218e-19)
(1.77865 0.0786369 -1.2962e-19)
(0.00550025 -0.000498772 4.34539e-22)
(0.11797 -0.0232303 1.65949e-19)
(0.358448 -0.033437 9.96208e-20)
(0.676344 -0.0309751 -1.3554e-19)
(1.00989 -0.0133591 1.26033e-19)
(1.31313 0.0157204 -9.30657e-21)
(1.5651 0.0501861 1.19617e-19)
(1.76416 0.0850655 1.89994e-19)
(1.91772 0.117005 -2.52318e-19)
(2.03203 0.140662 -1.89865e-19)
(0.0323661 -0.0037034 -3.94247e-20)
(0.246851 -0.0329047 -2.69035e-19)
(0.599124 -0.0282547 2.87682e-20)
(0.995594 -0.00180452 3.53429e-19)
(1.35407 0.0376189 -2.03195e-20)
(1.63805 0.0804643 -2.39192e-19)
(1.84672 0.119954 -1.5477e-19)
(1.99542 0.152941 4.4265e-19)
(2.10259 0.178603 4.94958e-19)
(2.18057 0.195983 4.43735e-20)
(0.0796162 -0.00637622 4.28014e-20)
(0.42339 -0.0291573 2.94959e-20)
(0.884618 0.00458095 -1.5143e-19)
(1.32053 0.0582129 7.96465e-20)
(1.65552 0.111769 -3.82213e-21)
(1.88525 0.156664 -7.84646e-19)
(2.03569 0.190661 -4.39669e-21)
(2.1358 0.215102 5.58754e-19)
(2.20684 0.231628 -3.39698e-19)
(2.26106 0.241606 -3.41664e-19)
(0.149584 -0.00403732 1.65137e-19)
(0.640738 -0.00169643 1.54901e-19)
(1.17857 0.0696079 -3.80498e-19)
(1.60054 0.142367 -8.92553e-20)
(1.87607 0.197337 5.29903e-21)
(2.04234 0.235063 2.99677e-19)
(2.14414 0.259886 -5.50986e-19)
(2.21218 0.276263 -2.81093e-19)
(2.26341 0.285618 6.31073e-19)
(2.30374 0.291141 1.40383e-19)
(0.242001 0.00843621 6.27525e-21)
(0.875588 0.0562198 4.02412e-19)
(1.43707 0.16074 -3.47187e-19)
(1.80624 0.239332 -1.61775e-19)
(2.01606 0.287474 1.7618e-19)
(2.13303 0.316179 -1.85022e-19)
(2.20458 0.33311 3.5442e-19)
(2.2538 0.343342 2.31521e-20)
(2.29193 0.347347 -2.53905e-19)
(2.32035 0.350442 -8.21444e-20)
(-0.0103366 0.199551 -4.81395e-21)
(-0.0286606 0.432083 3.28489e-20)
(-0.0542026 0.546826 1.4892e-20)
(-0.0780776 0.601788 -2.03454e-20)
(-0.100492 0.628424 1.39954e-21)
(-0.121484 0.639415 5.1987e-21)
(-0.14028 0.640579 -4.89365e-23)
(-0.156457 0.635056 4.08363e-21)
(-0.170503 0.624297 -4.95038e-23)
(-0.18427 0.609082 -2.08167e-20)
(-0.0229471 0.20544 5.35582e-21)
(-0.0547685 0.457288 3.98106e-23)
(-0.0823659 0.58345 4.785e-21)
(-0.104695 0.642472 -1.73402e-20)
(-0.123946 0.670262 1.38837e-20)
(-0.141472 0.681014 -9.52196e-21)
(-0.157336 0.680402 -3.26123e-20)
(-0.171204 0.672066 0)
(-0.18335 0.658556 -4.06761e-21)
(-0.195459 0.641258 1.10698e-20)
(-0.0333711 0.195574 5.90619e-23)
(-0.0785233 0.459255 2.61972e-21)
(-0.10716 0.600139 6.22365e-21)
(-0.127197 0.667306 -6.04565e-22)
(-0.142067 0.699126 3.82032e-20)
(-0.153855 0.713169 -1.52228e-20)
(-0.163526 0.716029 3.74625e-20)
(-0.171444 0.710345 2.40547e-20)
(-0.177754 0.697504 1.04267e-19)
(-0.18356 0.678804 1.1531e-19)
(-0.0382922 0.169849 7.98236e-21)
(-0.0946777 0.433926 6.80262e-20)
(-0.122362 0.591223 -4.25002e-21)
(-0.137146 0.670477 3.15784e-20)
(-0.144609 0.707615 -1.47693e-20)
(-0.147833 0.723178 -3.06804e-20)
(-0.148413 0.726473 2.20317e-21)
(-0.147178 0.721872 0)
(-0.144632 0.711868 -1.59515e-19)
(-0.141455 0.698183 -2.02534e-19)
(-0.0345644 0.128722 3.13777e-20)
(-0.096489 0.374964 -1.18527e-20)
(-0.121526 0.54714 -5.08489e-20)
(-0.129815 0.644118 -1.35792e-20)
(-0.129033 0.694199 -6.58772e-21)
(-0.123549 0.718817 -5.7679e-20)
(-0.115618 0.728962 1.83455e-20)
(-0.10607 0.729713 1.02329e-19)
(-0.0946233 0.72355 -2.32713e-19)
(-0.081102 0.71122 -2.55087e-19)
(-0.0231944 0.0788642 1.68926e-20)
(-0.083383 0.284446 -2.69089e-20)
(-0.10693 0.462154 5.80359e-20)
(-0.111255 0.577997 2.47516e-20)
(-0.103714 0.645935 -8.15849e-21)
(-0.0894486 0.684278 -1.64069e-19)
(-0.0716282 0.704672 -7.18142e-20)
(-0.0516533 0.713372 2.21939e-19)
(-0.0293295 0.713645 -3.03339e-19)
(-0.00380524 0.705947 -2.65288e-19)
(-0.00868968 0.0327573 -3.46349e-20)
(-0.058421 0.178337 6.59702e-20)
(-0.0811906 0.343172 -4.38668e-21)
(-0.0852923 0.469621 -6.36535e-20)
(-0.0745303 0.554648 6.55888e-20)
(-0.0536898 0.609134 -6.40823e-21)
(-0.0267364 0.642743 -1.72867e-19)
(0.0040643 0.661795 -4.25398e-21)
(0.0387039 0.66974 3.3745e-19)
(0.0797873 0.665021 2.20836e-19)
(0.00296188 0.00276953 -9.36574e-22)
(-0.0287659 0.0800441 -3.61678e-20)
(-0.049067 0.210951 -7.60135e-20)
(-0.0550297 0.330433 5.59205e-20)
(-0.04497 0.422335 1.04978e-19)
(-0.0215809 0.488612 1.38459e-20)
(0.0113522 0.534456 -8.08345e-20)
(0.0509033 0.564571 -5.90134e-20)
(0.0966197 0.581949 1.95232e-20)
(0.153346 0.579109 3.16074e-20)
(0.0061217 -0.00561628 -6.53401e-21)
(-0.0027629 0.0129973 -1.3003e-20)
(-0.0181321 0.0915225 2.9524e-20)
(-0.026056 0.184126 3.31281e-20)
(-0.0192682 0.265813 9.06091e-21)
(0.00296425 0.330826 -1.06811e-19)
(0.038373 0.380088 -6.63081e-20)
(0.0840575 0.416324 -6.13425e-20)
(0.139781 0.442139 -5.58062e-22)
(0.213443 0.438146 -7.06999e-20)
(0.00906614 -0.0103881 -1.16251e-20)
(0.00677884 -0.00801149 -1.94235e-20)
(0.0029267 0.0115956 1.58167e-19)
(-0.00823491 0.0608641 1.22681e-19)
(-0.00459494 0.116011 -7.26065e-20)
(0.0173983 0.163214 -3.03322e-19)
(0.0580453 0.201236 2.65065e-20)
(0.115381 0.231374 1.12739e-19)
(0.190452 0.255315 9.58201e-20)
(0.286362 0.25141 -1.5213e-21)
(-0.25363 0.515997 -3.10641e-19)
(-0.251023 0.268262 -8.73121e-19)
(-0.157871 -0.0173224 -6.57817e-19)
(-0.0129904 -0.245638 6.29905e-19)
(0.209526 -0.358871 -1.77262e-19)
(0.394715 -0.374522 1.40055e-20)
(0.54267 -0.33471 -8.66933e-20)
(0.647136 -0.266234 4.61903e-20)
(0.713533 -0.208239 -3.16236e-20)
(0.766707 -0.110701 -2.2494e-20)
(-0.259024 0.538692 -3.69794e-19)
(-0.29489 0.264004 5.93218e-21)
(-0.197129 -0.0506553 -8.5731e-20)
(-0.0241732 -0.302323 -3.62183e-19)
(0.215823 -0.419721 2.77817e-21)
(0.408309 -0.425148 -1.16332e-20)
(0.558722 -0.372032 5.1888e-20)
(0.663219 -0.290639 3.11097e-21)
(0.729086 -0.225139 -5.74283e-20)
(0.782585 -0.118672 4.36344e-20)
(-0.227943 0.571966 1.58731e-19)
(-0.297545 0.272166 1.08005e-18)
(-0.187173 -0.0836742 1.97192e-19)
(0.014596 -0.360907 -5.86393e-19)
(0.264964 -0.48163 1.36645e-19)
(0.452624 -0.475442 3.31305e-21)
(0.593318 -0.408811 3.08478e-20)
(0.689345 -0.314478 -4.43428e-20)
(0.750037 -0.241934 3.72473e-21)
(0.801512 -0.126729 -1.59163e-22)
(-0.154884 0.605892 3.75358e-19)
(-0.232965 0.291024 -1.73481e-20)
(-0.113839 -0.114448 1.84401e-19)
(0.116722 -0.419744 3.98352e-19)
(0.372354 -0.541993 -3.24521e-20)
(0.54514 -0.52209 2.52798e-21)
(0.661113 -0.441813 -3.24193e-20)
(0.735178 -0.335495 0)
(0.782695 -0.257296 0)
(0.826948 -0.134475 -1.06669e-22)
(-0.0555879 0.631503 1.83554e-19)
(-0.122774 0.314671 -6.54484e-19)
(0.0273539 -0.142952 -1.05793e-20)
(0.273825 -0.47713 -3.01907e-19)
(0.532288 -0.599857 -1.02806e-19)
(0.69271 -0.562949 -8.1698e-20)
(0.776017 -0.467548 8.3308e-21)
(0.813297 -0.3506 -1.69911e-20)
(0.836686 -0.269081 -6.29991e-20)
(0.864403 -0.141114 -2.46355e-21)
(0.0607614 0.652817 1.32251e-19)
(0.0329008 0.340024 -2.73017e-19)
(0.21563 -0.165308 -1.30998e-18)
(0.458346 -0.531276 1.48383e-20)
(0.713452 -0.657377 3.49584e-19)
(0.875439 -0.600061 -2.69693e-20)
(0.937521 -0.484694 -1.54263e-20)
(0.932949 -0.356797 -7.1501e-20)
(0.923138 -0.27437 1.10721e-21)
(0.92155 -0.145317 -2.9106e-20)
(0.189599 0.653095 -1.35526e-19)
(0.236108 0.365931 -4.90864e-20)
(0.426655 -0.177113 4.5716e-19)
(0.662591 -0.578358 -1.32505e-19)
(0.896062 -0.715466 -5.50719e-20)
(1.05852 -0.639137 1.14743e-19)
(1.12172 -0.497358 -2.03555e-20)
(1.08886 -0.354152 7.20476e-21)
(1.04754 -0.27076 1.90609e-20)
(1.00615 -0.14546 8.76445e-21)
(0.310724 0.622795 -2.55972e-19)
(0.45805 0.393989 6.52331e-20)
(0.658445 -0.175484 6.78395e-19)
(0.905583 -0.611952 5.1498e-20)
(1.10091 -0.766728 -2.75348e-19)
(1.23198 -0.680171 -2.00137e-19)
(1.29885 -0.51144 4.56058e-20)
(1.25877 -0.347258 -3.69439e-21)
(1.20091 -0.258775 7.19511e-22)
(1.12037 -0.140608 -4.01592e-21)
(0.425141 0.565552 -8.34718e-19)
(0.679354 0.409752 -6.06953e-20)
(0.907517 -0.163853 -5.60057e-19)
(1.188 -0.630289 6.85067e-19)
(1.35029 -0.802542 -3.33504e-19)
(1.4168 -0.714819 -8.69559e-20)
(1.46005 -0.527 -1.12055e-19)
(1.41886 -0.34118 8.37315e-21)
(1.36101 -0.242324 1.11747e-20)
(1.2551 -0.131568 6.0824e-21)
(0.491973 0.445703 -1.25112e-19)
(0.844031 0.426794 5.53169e-19)
(1.15729 -0.133474 -2.06366e-19)
(1.47842 -0.639152 4.02875e-19)
(1.62487 -0.822069 -3.18697e-19)
(1.62676 -0.734874 7.99328e-20)
(1.6163 -0.538297 -2.54673e-19)
(1.56001 -0.336846 -1.43329e-20)
(1.50631 -0.225627 -9.45563e-21)
(1.39214 -0.120526 -1.76789e-20)
(0.708388 0.295255 3.7955e-19)
(1.1498 0.364681 1.38827e-19)
(1.54733 -0.179409 -3.28884e-20)
(1.87739 -0.671373 -3.13825e-20)
(1.98965 -0.835775 9.91346e-20)
(1.92193 -0.738219 -3.24053e-20)
(1.82488 -0.536048 8.0344e-21)
(1.72221 -0.326336 4.01607e-20)
(1.66063 -0.203553 -9.8189e-20)
(1.54664 -0.105675 1.23364e-20)
(1.18607 0.237839 2.13991e-19)
(1.69174 0.183184 -3.57399e-19)
(2.20041 -0.351299 -5.28672e-19)
(2.42085 -0.771749 8.47423e-20)
(2.39475 -0.847959 -1.7048e-19)
(2.24075 -0.684429 1.02639e-19)
(2.05661 -0.466796 1.92789e-19)
(1.88346 -0.273439 -3.17811e-20)
(1.79048 -0.162957 1.19309e-19)
(1.67696 -0.0842114 2.39098e-20)
(1.85128 0.22509 7.24214e-20)
(2.32539 0.0437684 6.02842e-20)
(2.71849 -0.437917 8.81377e-21)
(2.75349 -0.762227 2.92228e-35)
(2.58964 -0.794648 -7.57439e-20)
(2.37847 -0.617266 -4.78441e-34)
(2.17878 -0.397987 3.95509e-20)
(1.98853 -0.218209 8.09606e-34)
(1.87532 -0.120705 -2.32978e-21)
(1.75577 -0.0618693 2.07733e-21)
(2.3768 0.172643 1.48359e-19)
(2.78366 -0.0573073 5.04877e-19)
(3.03113 -0.4905 5.52288e-19)
(2.99675 -0.746822 0)
(2.77593 -0.729426 5.20207e-20)
(2.48376 -0.531403 -1.15945e-19)
(2.22357 -0.316527 -1.70472e-19)
(2.01214 -0.156948 2.46317e-33)
(1.89227 -0.0753044 -7.0553e-20)
(1.77421 -0.0394607 -4.45246e-21)
(2.705 0.088405 1.54339e-19)
(3.02139 -0.132706 -1.98917e-20)
(3.19823 -0.507106 0)
(3.1286 -0.692586 0)
(2.8564 -0.624007 0)
(2.5267 -0.413366 0)
(2.23238 -0.21442 1.00505e-20)
(1.99805 -0.0864858 2.7791e-33)
(1.87088 -0.0279595 -4.0638e-21)
(1.75815 -0.018094 -7.67438e-34)
(2.87657 0.00930054 5.02064e-20)
(3.12704 -0.194333 0)
(3.2876 -0.51327 0)
(3.15456 -0.626777 0)
(2.77996 -0.513912 0)
(2.38349 -0.300141 0)
(2.08728 -0.121759 -2.01224e-20)
(1.88242 -0.023701 1.13311e-19)
(1.78512 0.0131639 -5.00853e-21)
(1.69917 0.00191003 7.57642e-21)
(2.93402 -0.0577834 0)
(3.15792 -0.245957 2.77027e-19)
(3.23634 -0.501525 2.71115e-19)
(2.95189 -0.528107 0)
(2.49788 -0.359802 -6.04728e-20)
(2.08856 -0.158397 -1.08481e-19)
(1.81952 -0.0255525 -1.0923e-19)
(1.66327 0.029903 -5.39877e-20)
(1.61173 0.0418941 4.46633e-20)
(1.56612 0.015713 -1.63469e-20)
(2.86084 -0.11895 6.48687e-20)
(3.01029 -0.277924 -2.53097e-20)
(2.85701 -0.416504 1.4619e-20)
(2.35228 -0.365173 -3.64945e-35)
(1.83047 -0.193652 1.62482e-20)
(1.49324 -0.0397699 -5.71728e-34)
(1.34198 0.0381259 -2.30464e-20)
(1.28711 0.0558506 -5.39124e-20)
(1.30024 0.0498428 -5.88675e-21)
(1.30306 0.0194532 1.15082e-20)
(2.40914 -0.147863 0)
(2.33056 -0.246732 -9.11771e-20)
(1.83911 -0.228445 -6.34033e-20)
(1.20073 -0.115708 0)
(0.817938 -0.0242575 -3.42582e-21)
(0.694094 0.025086 6.44235e-21)
(0.707175 0.0456197 -1.27972e-20)
(0.758788 0.0441197 1.16998e-20)
(0.82623 0.0341156 -2.12018e-20)
(0.866255 0.0134281 -9.72789e-21)
(1.04027 -0.0887161 2.38914e-20)
(0.674192 -0.043781 0)
(0.313599 -0.00508846 0)
(0.105168 -0.000597769 0)
(0.0233549 -0.00130451 0)
(0.0303612 0.0037685 0)
(0.0924995 0.0108719 -2.27182e-20)
(0.166043 0.0115301 8.27638e-35)
(0.233261 0.008705 -6.61907e-21)
(0.276333 0.00331566 -1.22946e-20)
(2.36543 0.351898 3.94296e-19)
(2.36736 0.300184 1.58395e-19)
(2.3468 0.258762 2.88463e-19)
(2.31287 0.223817 -3.01772e-19)
(2.23312 0.190403 8.61879e-20)
(2.10969 0.152176 3.86623e-20)
(1.88219 0.0911347 3.75077e-20)
(1.57915 0.0656116 1.95977e-20)
(1.19622 -0.0274147 -8.30959e-21)
(0.694915 0.0299867 2.59895e-21)
(2.402 0.324237 -1.90579e-19)
(2.42818 0.290397 3.74863e-20)
(2.43416 0.252983 1.45903e-19)
(2.42737 0.232915 1.21617e-19)
(2.40982 0.195507 -1.92259e-19)
(2.34201 0.187436 9.06892e-20)
(2.28473 0.134659 -2.97459e-20)
(2.06744 0.116225 -1.04626e-20)
(1.96354 0.0834193 -1.00608e-20)
(1.51168 0.0228186 3.5927e-21)
(2.47371 0.282615 2.91896e-20)
(2.493 0.261302 -1.31655e-19)
(2.53253 0.224827 -1.76205e-19)
(2.51581 0.20987 3.76115e-19)
(2.55293 0.180076 -6.20259e-21)
(2.48718 0.163229 -1.55879e-22)
(2.52169 0.149634 -7.58485e-20)
(2.37853 0.102493 -5.53841e-20)
(2.37643 0.123105 9.12274e-21)
(2.126 0.0320145 -7.57578e-21)
(2.565 0.242269 4.81732e-20)
(2.57295 0.223164 -1.58601e-19)
(2.63311 0.193528 2.4674e-20)
(2.61423 0.171112 -1.19741e-19)
(2.67015 0.156242 1.95324e-19)
(2.62494 0.121562 -5.58546e-20)
(2.67163 0.131132 4.59994e-20)
(2.59741 0.071318 -5.66963e-20)
(2.61414 0.10555 -1.07004e-19)
(2.49612 0.0236159 -4.83704e-20)
(2.62126 0.201728 9.27163e-20)
(2.63574 0.181073 -2.60074e-19)
(2.69538 0.159766 -2.36116e-20)
(2.69576 0.132621 -1.33129e-20)
(2.74725 0.124065 -4.84818e-21)
(2.73478 0.0855419 -1.74789e-21)
(2.77479 0.0937671 2.48611e-20)
(2.74762 0.040947 -4.44898e-20)
(2.77086 0.0640768 -7.26014e-20)
(2.72255 0.00322464 -9.75639e-20)
(2.62322 0.15928 1.67473e-19)
(2.64833 0.139154 3.04394e-20)
(2.70457 0.122726 -1.83748e-19)
(2.72394 0.0965531 1.11519e-19)
(2.77303 0.0879973 8.88736e-20)
(2.78634 0.054518 -7.2897e-20)
(2.82561 0.0538132 1.03768e-19)
(2.8313 0.0132363 5.14758e-20)
(2.85817 0.019806 -1.33682e-19)
(2.8557 -0.0231856 -1.66366e-19)
(2.56511 0.112263 1.66911e-20)
(2.59966 0.0959304 5.58007e-20)
(2.65369 0.0806764 -7.13852e-20)
(2.68598 0.0584711 -3.93822e-20)
(2.73677 0.0485274 8.96544e-20)
(2.76752 0.0208604 4.2206e-20)
(2.81077 0.0142495 8.75265e-20)
(2.84198 -0.0177771 6.70853e-20)
(2.87195 -0.0223845 1.04382e-20)
(2.90659 -0.0561841 5.50442e-20)
(2.41924 0.0671955 2.10621e-20)
(2.46796 0.0576326 -3.03845e-23)
(2.51074 0.0406411 -7.93261e-20)
(2.56051 0.0243294 -7.07177e-20)
(2.60141 0.0122478 3.67049e-20)
(2.65495 -0.0096898 -3.74337e-20)
(2.68871 -0.0209471 -3.47871e-20)
(2.74931 -0.0459337 1.09164e-19)
(2.77033 -0.0588445 -9.52739e-20)
(2.84009 -0.0859285 -1.12191e-19)
(2.07893 0.0146379 6.19898e-20)
(2.1467 0.0112612 -2.9142e-20)
(2.15376 -0.00499942 -2.8227e-20)
(2.22424 -0.00842359 3.3989e-20)
(2.22875 -0.0253857 -2.00871e-20)
(2.30111 -0.030595 -4.96298e-21)
(2.30144 -0.0479816 -3.69874e-20)
(2.37715 -0.0565682 2.51207e-20)
(2.36788 -0.0761575 2.26418e-20)
(2.45005 -0.0887034 -2.54353e-20)
(1.21368 -0.00508894 0)
(1.23478 -0.00955543 3.22813e-21)
(1.22044 -0.0129988 -4.15532e-20)
(1.24676 -0.0175506 -6.50802e-20)
(1.21792 -0.0203894 3.79198e-20)
(1.25324 -0.0239387 1.59038e-19)
(1.20778 -0.0276238 -1.18225e-20)
(1.25414 -0.0315456 -9.93407e-20)
(1.18801 -0.0390881 -1.41539e-20)
(1.24525 -0.0413948 4.96599e-21)
(1.42302 0.84941 -4.73735e-20)
(1.40251 0.889845 -9.80776e-20)
(1.39847 0.933464 -7.19132e-19)
(1.39773 0.981635 2.26958e-19)
(1.39386 1.03062 1.08391e-18)
(1.38065 1.07512 1.48363e-19)
(1.34707 1.10139 -7.99283e-20)
(1.27053 1.08673 -3.20558e-19)
(1.07972 0.965655 -3.26396e-19)
(0.574747 0.533319 -4.37113e-20)
(1.58663 0.822603 -4.16075e-19)
(1.56719 0.861049 1.19015e-18)
(1.55567 0.901454 5.2649e-19)
(1.55025 0.947329 -7.7723e-19)
(1.54574 0.995316 2.55937e-19)
(1.53299 1.03872 2.4149e-19)
(1.49762 1.06261 7.83757e-19)
(1.41399 1.04613 -1.1399e-18)
(1.20086 0.924255 -5.2105e-20)
(0.633014 0.502932 1.9635e-19)
(1.73797 0.794247 1.13926e-19)
(1.72377 0.831381 9.21095e-19)
(1.71023 0.868695 1.76401e-20)
(1.70153 0.909517 -4.4954e-19)
(1.695 0.952175 1.32911e-19)
(1.6806 0.990288 -6.0665e-20)
(1.64154 1.00885 -4.83461e-20)
(1.54891 0.989208 -3.96862e-19)
(1.31041 0.865844 3.54345e-20)
(0.680514 0.460993 -2.15235e-19)
(1.87173 0.759336 -4.65896e-19)
(1.86248 0.793645 4.23417e-19)
(1.8502 0.827048 -6.46043e-19)
(1.84049 0.862519 -2.37288e-19)
(1.83239 0.899196 1.36669e-18)
(1.81525 0.930448 -8.52208e-19)
(1.77095 0.941893 -9.56996e-19)
(1.6682 0.917284 4.15773e-19)
(1.40013 0.791665 -1.25844e-19)
(0.710507 0.409248 -6.09777e-20)
(1.9869 0.715949 5.78234e-19)
(1.98192 0.746685 4.60825e-19)
(1.97275 0.776122 -2.13942e-19)
(1.96368 0.806115 8.29472e-19)
(1.95338 0.835638 1.57176e-19)
(1.93153 0.858004 -3.67936e-19)
(1.87993 0.860473 5.23111e-19)
(1.76447 0.830715 -6.32805e-19)
(1.46055 0.702804 -7.20152e-19)
(0.717021 0.34754 -7.57579e-21)
(2.0868 0.666401 7.65818e-19)
(2.0843 0.692501 9.48493e-19)
(2.07614 0.716099 -9.52814e-19)
(2.06582 0.739364 -9.59208e-19)
(2.05272 0.761695 2.25844e-19)
(2.02439 0.773784 -6.78761e-19)
(1.96279 0.767933 -4.25502e-19)
(1.82917 0.732383 3.61069e-19)
(1.48421 0.599408 7.27648e-20)
(0.695391 0.277963 -9.67672e-21)
(2.17037 0.608296 7.12739e-19)
(2.16634 0.628459 -9.39556e-19)
(2.15785 0.648028 -8.12358e-19)
(2.14768 0.667201 6.0866e-19)
(2.12854 0.680089 -5.38319e-19)
(2.087 0.679853 1.59121e-18)
(2.01607 0.666617 -2.32349e-19)
(1.85538 0.623448 -1.28251e-18)
(1.46338 0.485048 5.6108e-19)
(0.643554 0.205807 3.37421e-20)
(2.23855 0.546579 -4.61988e-19)
(2.23553 0.56369 -6.40238e-19)
(2.22792 0.577548 -8.48059e-19)
(2.20986 0.584634 3.10985e-20)
(2.17172 0.584669 2.76425e-19)
(2.1219 0.577162 2.86012e-19)
(2.03575 0.559385 6.42485e-19)
(1.8368 0.505434 -3.26913e-19)
(1.39283 0.365376 2.11143e-20)
(0.563782 0.137459 6.28845e-20)
(2.2978 0.485482 2.19855e-19)
(2.2855 0.493913 -7.52149e-20)
(2.25759 0.49872 3.7428e-19)
(2.22444 0.495164 8.84481e-19)
(2.18699 0.491131 -3.59498e-19)
(2.12949 0.478815 -1.38295e-18)
(2.01351 0.450926 9.72577e-19)
(1.76528 0.385285 8.78876e-19)
(1.26965 0.248853 -4.48096e-19)
(0.462412 0.0791815 -1.24332e-20)
(2.31654 0.420474 -4.35229e-19)
(2.29224 0.419929 -4.30658e-21)
(2.26409 0.418963 5.62816e-19)
(2.23159 0.411651 5.76354e-19)
(2.18021 0.40271 4.17969e-19)
(2.09641 0.38233 -6.65075e-19)
(1.93957 0.343251 3.71164e-20)
(1.63364 0.268391 -3.38591e-19)
(1.09393 0.142683 -5.04414e-19)
(0.350395 0.0356014 -1.09488e-20)
(0.477471 0.353212 2.57166e-20)
(0.440629 0.36501 -1.10472e-19)
(0.400134 0.377682 -2.05422e-20)
(0.356416 0.391002 7.05092e-20)
(0.309193 0.404179 -2.99079e-20)
(0.257888 0.414935 -4.44605e-20)
(0.201877 0.417352 -1.68259e-20)
(0.139985 0.398459 -3.02577e-20)
(0.0735185 0.334041 9.87223e-20)
(0.027652 0.176079 1.00521e-20)
(0.523781 0.449583 -7.1436e-21)
(0.487183 0.466204 2.1669e-20)
(0.447451 0.483779 -3.3436e-20)
(0.404666 0.502088 1.11812e-20)
(0.358341 0.520371 4.39645e-20)
(0.307677 0.536242 3.19925e-20)
(0.251531 0.543071 1.14157e-19)
(0.18793 0.525628 -5.94524e-20)
(0.114792 0.452266 6.80392e-20)
(0.0494883 0.247947 -7.64237e-21)
(0.588137 0.539556 -6.98464e-20)
(0.553082 0.56086 3.16091e-20)
(0.515351 0.583285 5.17747e-20)
(0.474638 0.606698 1.5629e-20)
(0.430183 0.630364 1.09782e-20)
(0.380834 0.651803 1.47525e-19)
(0.324737 0.663755 -4.17953e-20)
(0.258802 0.648817 -6.09202e-20)
(0.176548 0.567966 -3.82317e-23)
(0.0833298 0.318454 1.36642e-20)
(0.660033 0.624894 6.59287e-20)
(0.626611 0.650858 -1.6125e-21)
(0.591584 0.677808 -1.43712e-19)
(0.553951 0.705884 -5.51129e-20)
(0.512574 0.734501 -6.16304e-20)
(0.465984 0.761078 -7.79861e-20)
(0.411574 0.777637 -2.40313e-19)
(0.344725 0.764693 7.97489e-20)
(0.253463 0.676502 -5.72777e-20)
(0.126673 0.384193 -9.64055e-20)
(0.744288 0.699079 1.47365e-20)
(0.712742 0.729257 -1.50555e-19)
(0.680848 0.76034 1.01182e-19)
(0.646988 0.792864 -6.48098e-20)
(0.609614 0.826379 -1.21011e-19)
(0.566824 0.858134 1.7716e-19)
(0.515136 0.879339 9.47221e-20)
(0.448054 0.868527 -1.27216e-19)
(0.346917 0.773924 -2.64518e-19)
(0.179556 0.442252 4.68955e-20)
(0.841269 0.767238 9.58479e-21)
(0.811468 0.801171 4.51593e-21)
(0.782176 0.835086 2.32323e-20)
(0.751269 0.870345 5.79422e-20)
(0.717249 0.90698 2.02861e-19)
(0.678148 0.942098 -2.00042e-19)
(0.629588 0.965943 -1.38716e-19)
(0.562733 0.955456 -4.72861e-20)
(0.451149 0.854319 1.13206e-19)
(0.238532 0.488614 1.53123e-19)
(0.947163 0.81731 -1.23665e-19)
(0.923026 0.854895 6.5143e-20)
(0.900405 0.891934 2.70525e-19)
(0.875612 0.929989 -1.75889e-19)
(0.846494 0.969305 -4.14847e-19)
(0.810991 1.00712 1.89899e-19)
(0.764302 1.03316 6.18892e-19)
(0.69558 1.02316 1.56226e-19)
(0.569838 0.91745 -4.02682e-20)
(0.304348 0.524437 2.16559e-19)
(1.05025 0.860675 -2.9272e-19)
(1.0271 0.899511 -1.02566e-19)
(1.00928 0.937564 2.90254e-19)
(0.991864 0.977489 -1.11402e-19)
(0.971127 1.01908 9.52779e-20)
(0.943326 1.05867 4.04987e-19)
(0.901924 1.08515 -4.39554e-19)
(0.833294 1.07395 -3.95793e-19)
(0.693821 0.962667 3.34916e-19)
(0.372752 0.547923 -1.82867e-21)
(1.16847 0.878335 -1.47607e-20)
(1.15363 0.919317 4.18988e-20)
(1.14142 0.957357 -2.32883e-19)
(1.12774 0.997672 -8.4972e-20)
(1.11069 1.04119 4.9944e-19)
(1.08695 1.08352 1.4787e-19)
(1.04849 1.11169 -1.252e-19)
(0.978238 1.10036 0)
(0.823316 0.985323 -2.17676e-19)
(0.442627 0.556927 -1.11983e-19)
(1.25938 0.882999 0)
(1.25329 0.925644 0)
(1.25627 0.966294 6.66833e-19)
(1.25573 1.00779 1.54029e-19)
(1.24837 1.05114 -2.35063e-19)
(1.23148 1.09266 4.20457e-19)
(1.19675 1.11907 -2.98437e-19)
(1.12458 1.10563 -8.03249e-19)
(0.953023 0.986743 4.08291e-19)
(0.510773 0.552 2.11499e-19)
(0.980861 -0.0222229 -1.00278e-20)
(1.03677 0.0331125 -1.08429e-20)
(1.02485 0.159091 6.79489e-21)
(1.00639 0.230815 3.54333e-21)
(0.975118 0.235618 1.38344e-20)
(0.937391 0.230946 2.55038e-20)
(0.908707 0.216215 -1.2912e-20)
(0.846638 0.229778 -1.67662e-20)
(0.797199 0.2492 -7.85419e-20)
(0.641535 0.294467 5.59876e-20)
(0.980488 -0.0254518 -4.34669e-22)
(1.03709 0.0293289 8.6191e-21)
(1.02397 0.1624 1.26398e-22)
(1.00545 0.238925 7.27586e-21)
(0.975241 0.244812 1.04611e-20)
(0.937589 0.240584 -3.75546e-20)
(0.913328 0.228195 -1.40624e-20)
(0.859026 0.245658 2.9267e-22)
(0.816804 0.281355 1.99758e-19)
(0.682729 0.361124 2.31458e-21)
(0.979874 -0.0286551 1.14818e-21)
(1.03797 0.026126 1.5598e-20)
(1.02367 0.166356 -5.97732e-21)
(1.00513 0.247276 -9.30228e-22)
(0.974992 0.253823 -1.27674e-20)
(0.937036 0.249658 2.69329e-21)
(0.916326 0.238288 1.83756e-20)
(0.871391 0.260003 -1.69865e-20)
(0.835341 0.310783 1.08392e-19)
(0.733733 0.423739 -2.57277e-19)
(0.978942 -0.0318827 1.25643e-21)
(1.03946 0.0234422 -1.38978e-21)
(1.02406 0.170995 -6.86891e-21)
(1.00514 0.256029 -1.68447e-20)
(0.974127 0.262764 2.73652e-20)
(0.936214 0.258232 2.41158e-20)
(0.918571 0.246395 -2.36776e-20)
(0.883707 0.273139 8.59421e-20)
(0.853651 0.336597 -9.82216e-20)
(0.792232 0.483028 -2.73167e-19)
(0.977596 -0.0351918 6.23477e-22)
(1.04173 0.0211864 -1.39855e-20)
(1.02529 0.1764 1.84139e-21)
(1.00518 0.265367 2.87359e-20)
(0.972972 0.271619 1.04402e-20)
(0.93604 0.266165 5.37922e-20)
(0.920944 0.252556 2.85468e-20)
(0.896018 0.28548 7.05031e-20)
(0.871103 0.358597 -3.44383e-21)
(0.859734 0.535949 2.09955e-19)
(0.975749 -0.0386479 2.60128e-22)
(1.04491 0.0192498 2.55335e-22)
(1.02721 0.182702 1.02383e-21)
(1.00515 0.275372 8.14738e-21)
(0.972688 0.280137 -3.58346e-20)
(0.937519 0.273317 7.82691e-21)
(0.924221 0.257141 -4.95925e-21)
(0.907912 0.297528 -2.08936e-19)
(0.889379 0.375715 0)
(0.937127 0.586198 -2.59941e-20)
(0.973373 -0.04226 -3.76769e-22)
(1.04877 0.0174864 3.96552e-21)
(1.02932 0.190012 7.61655e-22)
(1.00558 0.285823 -4.02079e-20)
(0.974769 0.287926 -1.30794e-20)
(0.941277 0.279722 -6.74e-20)
(0.929308 0.260647 4.65189e-21)
(0.919602 0.309435 5.70838e-21)
(0.911194 0.388712 -2.39203e-21)
(1.01344 0.625197 7.84689e-19)
(0.970533 -0.0459259 -9.3521e-21)
(1.05237 0.0157434 3.3796e-21)
(1.03132 0.198201 -2.34777e-21)
(1.00753 0.296118 1.98086e-20)
(0.98032 0.294691 -5.63009e-20)
(0.947572 0.285408 1.56795e-20)
(0.937686 0.263331 -3.22017e-21)
(0.932542 0.321066 2.37288e-20)
(0.937071 0.396604 1.32965e-19)
(1.10605 0.670602 -4.77271e-20)
(0.967452 -0.0494804 3.05799e-21)
(1.05419 0.0141538 -1.49382e-21)
(1.03371 0.206851 1.25328e-21)
(1.01232 0.305602 3.628e-20)
(0.990126 0.300162 5.76471e-21)
(0.957028 0.290164 2.60964e-20)
(0.951971 0.265161 -4.88107e-20)
(0.948762 0.331558 6.29449e-20)
(0.974022 0.39465 2.61117e-19)
(1.17628 0.688816 -6.36504e-19)
(0.964685 -0.0526514 7.28581e-21)
(1.05251 0.0134136 1.50093e-21)
(1.03731 0.216697 5.97505e-22)
(1.02118 0.314343 -1.00493e-20)
(1.00568 0.303784 6.32504e-20)
(0.973184 0.29379 -3.56911e-20)
(0.977062 0.267096 -1.62222e-20)
(0.974715 0.342573 3.82465e-20)
(1.02286 0.410764 -1.23956e-19)
(1.29785 0.744691 3.60661e-19)
(0.962453 -0.0555573 -1.85521e-21)
(1.04345 0.00794572 -3.38651e-21)
(1.04519 0.220667 -6.83413e-21)
(1.04079 0.32208 -3.07063e-20)
(1.04067 0.30815 -3.6868e-20)
(1.01779 0.300709 -4.64854e-20)
(1.03834 0.262333 1.54812e-20)
(1.03939 0.349524 -1.3367e-19)
(1.07499 0.351834 -4.6191e-19)
(1.29222 0.731057 -1.00447e-19)
(0.96034 -0.0575318 -1.45033e-20)
(1.02358 -0.00360942 -7.4575e-21)
(1.05644 0.209264 2.25103e-21)
(1.08102 0.322804 -1.03087e-22)
(1.13642 0.303099 1.93414e-20)
(1.11695 0.303862 6.21266e-20)
(1.21451 0.247185 1.5732e-20)
(1.1625 0.350838 1.05124e-19)
(1.27404 0.316076 1.9492e-19)
(1.32405 0.613543 2.8604e-19)
(0.957741 -0.0562176 -2.13648e-21)
(1.00249 -0.0155066 -2.67352e-21)
(1.07079 0.184996 3.15875e-21)
(1.13031 0.304382 6.65371e-21)
(1.27902 0.286538 3.83509e-35)
(1.21017 0.287575 -7.93065e-21)
(1.46747 0.231001 -4.34671e-34)
(1.26229 0.342325 1.69695e-20)
(1.57541 0.290169 -4.37165e-20)
(1.44733 0.521012 -2.26016e-19)
(0.956579 -0.0500115 2.27571e-20)
(0.982827 -0.0305858 -2.47398e-35)
(1.07995 0.145825 -3.1402e-21)
(1.17422 0.258836 4.72272e-21)
(1.41234 0.262344 -9.47285e-21)
(1.28511 0.249211 -1.29678e-22)
(1.68293 0.212027 -5.3364e-34)
(1.36831 0.325309 -5.3105e-20)
(1.80687 0.252254 -1.13258e-19)
(1.63376 0.454793 2.48138e-19)
(0.958541 -0.0406469 0)
(0.974333 -0.0452593 -6.45737e-35)
(1.0769 0.095286 0)
(1.20984 0.19191 0)
(1.47989 0.232494 0)
(1.37288 0.200178 0)
(1.76715 0.185347 -3.5323e-34)
(1.5086 0.301293 0)
(1.8989 0.205733 -1.68003e-20)
(1.80301 0.397625 1.45897e-19)
(0.961947 -0.0325791 3.03884e-21)
(0.982941 -0.0572906 -4.94431e-21)
(1.07154 0.039409 -3.91629e-21)
(1.2266 0.115585 0)
(1.48409 0.194294 0)
(1.45403 0.149001 7.12116e-21)
(1.7561 0.154335 3.31547e-20)
(1.64217 0.272351 -1.26534e-20)
(1.90446 0.163598 -2.57608e-20)
(1.92663 0.331153 9.76207e-20)
(0.964392 -0.0291985 -5.3981e-20)
(1.01152 -0.0703343 4.44425e-21)
(1.06883 -0.0163428 -5.08866e-21)
(1.21592 0.0445441 -2.63814e-20)
(1.42848 0.141612 -1.52013e-20)
(1.48897 0.100331 1.36649e-21)
(1.67524 0.119117 -3.19697e-20)
(1.71013 0.23409 -1.10221e-20)
(1.86534 0.12625 -3.93714e-20)
(1.99678 0.258116 1.21004e-19)
(0.963616 -0.0306854 -5.35952e-21)
(1.04785 -0.0776104 -1.18484e-20)
(1.04851 -0.0556016 -6.23738e-21)
(1.16227 -0.00411747 -5.30436e-21)
(1.28343 0.0845248 2.80093e-36)
(1.44789 0.0552606 8.02386e-21)
(1.47368 0.0835052 -8.29815e-34)
(1.67891 0.18354 -1.16547e-20)
(1.75283 0.0843737 1.78525e-20)
(1.97313 0.183551 2.26695e-20)
(0.953375 -0.0479602 1.34906e-19)
(1.05503 -0.0804646 -5.98245e-21)
(0.950611 -0.0746608 -7.43838e-21)
(0.981708 -0.0278797 1.14149e-20)
(1.01167 0.0283807 6.34991e-21)
(1.19491 0.0196073 1.2884e-20)
(1.0952 0.051692 1.21752e-20)
(1.46266 0.0954877 -2.72864e-20)
(1.44112 0.0418391 -2.6067e-20)
(1.72724 0.101523 7.39671e-20)
(0.873062 -0.0332897 6.63845e-21)
(0.853951 -0.0594105 -5.55605e-35)
(0.563446 -0.046112 -7.8098e-21)
(0.494356 -0.0119538 0)
(0.486121 0.00523299 0)
(0.569604 0.00852852 8.34162e-21)
(0.537755 0.0170761 -7.53539e-36)
(0.798795 0.0249418 -1.11018e-20)
(0.780228 0.0152062 -2.72981e-20)
(1.01133 0.0375584 -3.69425e-20)
(1.52956 0.746161 1.50171e-19)
(1.64353 0.731833 -5.98208e-20)
(1.76931 0.710069 -3.29954e-21)
(1.88801 0.68141 5.77508e-20)
(1.99378 0.645214 -2.39294e-19)
(2.08738 0.603052 -4.43121e-19)
(2.17052 0.557242 -2.05129e-19)