/*--------------------------------*- C++ -*----------------------------------*\
| =========                 |                                                 |
| \\      /  F ield         | OpenFOAM: The Open Source CFD Toolbox           |
|  \\    /   O peration     | Version:  2406                                  |
|   \\  /    A nd           | Website:  www.openfoam.com                      |
|    \\/     M anipulation  |                                                 |
\*---------------------------------------------------------------------------*/
FoamFile
{
    version     2.0;
    format      ascii;
    arch        "LSB;label=32;scalar=64";
    class       volVectorField;
    location    "0.6";
    object      flux;
}
// * * * * * * * * * * * * * * * * * * * * * * * * * * * * * * * * * * * * * //

dimensions      [0 1 -1 1 0 0 0];

internalField   nonuniform List<vector> 
2500
(
(0.000903875 0.000903875 0)
(0.00269559 0.000905968 0)
(0.00444483 0.000910396 0)
(0.00612594 0.000916899 0)
(0.00771086 0.000925401 0)
(0.00917473 0.000935783 0)
(0.0104946 0.000947894 0)
(0.0116497 0.000961557 0)
(0.0126219 0.000976575 0)
(0.0133959 0.000992728 0)
(0.0139597 0.00100979 0)
(0.0143043 0.00102751 0)
(0.0144244 0.00104564 0)
(0.0143181 0.00106393 0)
(0.0139871 0.00108214 0)
(0.0134368 0.00110002 0)
(0.0126759 0.00111733 0)
(0.0117166 0.00113387 0)
(0.010574 0.00114942 0)
(0.00926638 0.00116381 0)
(0.00781444 0.00117689 0)
(0.00624129 0.00118852 0)
(0.00457189 0.0011986 0)
(0.00283275 0.00120707 0)
(0.00105146 0.00121388 0)
(-0.000743727 0.00121901 0)
(-0.00252438 0.00122249 0)
(-0.00426232 0.00122435 0)
(-0.00593009 0.00122466 0)
(-0.00750136 0.00122353 0)
(-0.00895139 0.00122105 0)
(-0.0102574 0.00121736 0)
(-0.0113989 0.00121261 0)
(-0.0123582 0.00120696 0)
(-0.0131202 0.00120056 0)
(-0.0136732 0.00119359 0)
(-0.0140089 0.00118622 0)
(-0.0141222 0.00117861 0)
(-0.0140116 0.00117092 0)
(-0.0136791 0.00116331 0)
(-0.0131304 0.00115592 0)
(-0.0123743 0.00114889 0)
(-0.011423 0.00114235 0)
(-0.0102916 0.00113639 0)
(-0.00899813 0.00113112 0)
(-0.0075631 0.00112664 0)
(-0.00600921 0.00112301 0)
(-0.00436103 0.0011203 0)
(-0.00264452 0.00111846 0)
(-0.000886249 0.00111695 0)
(0.000905968 0.00269559 0)
(0.00270211 0.00270211 0)
(0.00445576 0.00271531 0)
(0.00614095 0.00273477 0)
(0.00772975 0.00276021 0)
(0.00919722 0.00279127 0)
(0.0105204 0.0028275 0)
(0.0116784 0.00286838 0)
(0.0126531 0.0029133 0)
(0.0134291 0.00296163 0)
(0.0139945 0.00301266 0)
(0.0143401 0.00306567 0)
(0.0144608 0.00311993 0)
(0.0143546 0.00317467 0)
(0.0140232 0.00322916 0)
(0.013472 0.00328266 0)
(0.0127098 0.0033345 0)
(0.0117487 0.00338402 0)
(0.010604 0.00343062 0)
(0.00929385 0.00347376 0)
(0.00783915 0.003513 0)
(0.006263 0.00354794 0)
(0.00459044 0.00357828 0)
(0.00284802 0.00360381 0)
(0.0010634 0.00362441 0)
(-0.000735118 0.00364004 0)
(-0.00251905 0.00365074 0)
(-0.00426015 0.00365665 0)
(-0.00593091 0.00365798 0)
(-0.00750498 0.00365499 0)
(-0.00895756 0.00364804 0)
(-0.0102658 0.00363752 0)
(-0.0114093 0.00362384 0)
(-0.0123702 0.00360749 0)
(-0.0131335 0.00358895 0)
(-0.0136876 0.00356872 0)
(-0.0140239 0.00354729 0)
(-0.0141375 0.00352515 0)
(-0.0140269 0.0035028 0)
(-0.0136941 0.00348067 0)
(-0.0131448 0.0034592 0)
(-0.0123879 0.00343877 0)
(-0.0114355 0.00341974 0)
(-0.0103028 0.00340244 0)
(-0.00900789 0.00338715 0)
(-0.00757122 0.00337411 0)
(-0.00601555 0.00336358 0)
(-0.00436558 0.00335577 0)
(-0.00264786 0.00335078 0)
(-0.000887753 0.00334753 0)
(0.000910396 0.00444483 0)
(0.00271531 0.00445576 0)
(0.00447748 0.00447748 0)
(0.00617083 0.00450958 0)
(0.00776736 0.00455157 0)
(0.00924203 0.00460287 0)
(0.0105717 0.00466271 0)
(0.0117355 0.00473022 0)
(0.0127151 0.00480442 0)
(0.0134953 0.00488425 0)
(0.0140637 0.00496857 0)
(0.0144116 0.00505618 0)
(0.0145334 0.00514586 0)
(0.0144273 0.00523638 0)
(0.0140951 0.00532652 0)
(0.0135422 0.00541509 0)
(0.0127773 0.00550095 0)
(0.0118127 0.00558303 0)
(0.0106638 0.00566036 0)
(0.00934876 0.00573207 0)
(0.00788862 0.00579741 0)
(0.00630657 0.00585574 0)
(0.00462776 0.00590659 0)
(0.00287888 0.0059496 0)
(0.00108769 0.00598457 0)
(-0.000717399 0.00601146 0)
(-0.00250777 0.00603035 0)
(-0.00425509 0.00604146 0)
(-0.00593174 0.00604513 0)
(-0.00751129 0.00604181 0)
(-0.00896887 0.00603208 0)
(-0.0102816 0.00601656 0)
(-0.011429 0.00599596 0)
(-0.0123931 0.00597104 0)
(-0.013159 0.00594259 0)
(-0.0137149 0.00591142 0)
(-0.0140525 0.00587832 0)
(-0.0141667 0.00584408 0)
(-0.014056 0.00580946 0)
(-0.0137227 0.00577519 0)
(-0.0131723 0.00574193 0)
(-0.0124138 0.0057103 0)
(-0.0114593 0.00568085 0)
(-0.0103242 0.00565408 0)
(-0.00902646 0.00563042 0)
(-0.00758666 0.00561025 0)
(-0.00602756 0.0055939 0)
(-0.00437383 0.00558169 0)
(-0.00265276 0.00557385 0)
(-0.000889497 0.00556973 0)
(0.000916899 0.00612594 0)
(0.00273477 0.00614095 0)
(0.00450958 0.00617083 0)
(0.00621504 0.00621504 0)
(0.00782304 0.00627292 0)
(0.00930835 0.00634363 0)
(0.0106477 0.00642614 0)
(0.0118201 0.00651924 0)
(0.0128071 0.0066216 0)
(0.0135933 0.00673174 0)
(0.0141664 0.00684812 0)
(0.0145174 0.00696908 0)
(0.014641 0.00709296 0)
(0.0145352 0.00721807 0)
(0.0142019 0.00734275 0)
(0.0136464 0.00746535 0)
(0.0128777 0.00758434 0)
(0.0119081 0.00769825 0)
(0.010753 0.00780577 0)
(0.00943089 0.0079057 0)
(0.00796282 0.00799702 0)
(0.00637218 0.00807889 0)
(0.0046843 0.00815066 0)
(0.00292601 0.00821186 0)
(0.00112527 0.00826225 0)
(-0.00068934 0.00830174 0)
(-0.00248905 0.00833048 0)
(-0.00424537 0.00834878 0)
(-0.00593056 0.0083571 0)
(-0.00751802 0.00835609 0)
(-0.00898281 0.0083465 0)
(-0.010302 0.0083292 0)
(-0.0114549 0.00830515 0)
(-0.0124236 0.00827536 0)
(-0.0131932 0.00824089 0)
(-0.0137519 0.0082028 0)
(-0.0140912 0.00816215 0)
(-0.0142063 0.00811999 0)
(-0.0140957 0.00807728 0)
(-0.0137617 0.00803497 0)
(-0.0132097 0.0079939 0)
(-0.012449 0.00795486 0)
(-0.0114917 0.00791853 0)
(-0.0103532 0.00788553 0)
(-0.00905171 0.00785637 0)
(-0.00760773 0.00783152 0)
(-0.00604411 0.00781132 0)
(-0.00438564 0.00779607 0)
(-0.00265983 0.00778593 0)
(-0.000891874 0.00778082 0)
(0.000925401 0.00771086 0)
(0.00276021 0.00772975 0)
(0.00455157 0.00776736 0)
(0.00627292 0.00782304 0)
(0.00789595 0.00789595 0)
(0.00939524 0.00798505 0)
(0.0107473 0.00808903 0)
(0.0119309 0.0082064 0)
(0.0129276 0.00833547 0)
(0.0137218 0.0084744 0)
(0.0143011 0.00862126 0)
(0.0146564 0.00877398 0)
(0.0147823 0.00893049 0)
(0.0146771 0.00908867 0)
(0.0143424 0.00924644 0)
(0.0137838 0.00940179 0)
(0.0130102 0.00955277 0)
(0.0120341 0.0096976 0)
(0.0108712 0.00983462 0)
(0.00954001 0.00996238 0)
(0.00806181 0.0100796 0)
(0.00646021 0.0101853 0)
(0.00476073 0.0102786 0)
(0.00299046 0.0103591 0)
(0.00117756 0.0104263 0)
(-0.000649162 0.0104803 0)
(-0.00246073 0.0105212 0)
(-0.00422847 0.0105495 0)
(-0.00592443 0.0105657 0)
(-0.00752189 0.0105706 0)
(-0.00899576 0.0105653 0)
(-0.010323 0.0105507 0)
(-0.0114828 0.010528 0)
(-0.0124573 0.0104985 0)
(-0.0132315 0.0104634 0)
(-0.0137936 0.010424 0)
(-0.0141353 0.0103816 0)
(-0.0142515 0.0103373 0)
(-0.0141411 0.0102924 0)
(-0.0138061 0.0102478 0)
(-0.0132524 0.0102045 0)
(-0.0124892 0.0101633 0)
(-0.0115286 0.0101251 0)
(-0.0103863 0.0100905 0)
(-0.00908046 0.0100599 0)
(-0.00763172 0.0100339 0)
(-0.00606301 0.0100127 0)
(-0.00439923 0.0099967 0)
(-0.00266801 0.00998597 0)
(-0.000894608 0.00998059 0)
(0.000935783 0.00917473 0)
(0.00279127 0.00919722 0)
(0.00460287 0.00924203 0)
(0.00634363 0.00930835 0)
(0.00798505 0.00939524 0)
(0.00950143 0.00950143 0)
(0.010869 0.00962539 0)
(0.0120665 0.00976535 0)
(0.0130751 0.00991933 0)
(0.0138791 0.0100851 0)
(0.014466 0.0102605 0)
(0.0148267 0.010443 0)
(0.0149557 0.0106302 0)
(0.0148512 0.0108195 0)
(0.014515 0.0110086 0)
(0.0139528 0.0111951 0)
(0.0131736 0.0113767 0)
(0.0121899 0.0115513 0)
(0.0110178 0.011717 0)
(0.00967588 0.0118722 0)
(0.00818573 0.0120153 0)
(0.00657119 0.0121452 0)
(0.00485806 0.012261 0)
(0.00307369 0.0123621 0)
(0.00124651 0.0124481 0)
(-0.000594418 0.0125191 0)
(-0.00241986 0.0125754 0)
(-0.0042009 0.0126173 0)
(-0.00590939 0.0126456 0)
(-0.00751844 0.0126614 0)
(-0.00900279 0.0126656 0)
(-0.0103392 0.0126596 0)
(-0.011507 0.0126446 0)
(-0.0124882 0.0126222 0)
(-0.0132676 0.0125936 0)
(-0.0138337 0.0125603 0)
(-0.0141779 0.0125237 0)
(-0.0142955 0.0124851 0)
(-0.0141853 0.0124456 0)
(-0.0138496 0.0124063 0)
(-0.0132942 0.0123681 0)
(-0.0125283 0.012332 0)
(-0.0115646 0.0122985 0)
(-0.0104185 0.0122682 0)
(-0.00910832 0.0122416 0)
(-0.00765492 0.0122191 0)
(-0.00608128 0.0122008 0)
(-0.00441238 0.012187 0)
(-0.00267593 0.0121778 0)
(-0.000897253 0.0121731 0)
(0.000947894 0.0104946 0)
(0.0028275 0.0105204 0)
(0.00466271 0.0105717 0)
(0.00642614 0.0106477 0)
(0.00808903 0.0107473 0)
(0.00962539 0.010869 0)
(0.0110112 0.0110112 0)
(0.0122249 0.0111718 0)
(0.0132474 0.0113485 0)
(0.014063 0.011539 0)
(0.0146589 0.0117405 0)
(0.0150261 0.0119504 0)
(0.0151589 0.0121659 0)
(0.0150555 0.0123842 0)
(0.014718 0.0126026 0)
(0.0141518 0.0128183 0)
(0.0133664 0.0130289 0)
(0.0123745 0.0132321 0)
(0.0111921 0.0134256 0)
(0.00983826 0.0136077 0)
(0.00833482 0.0137768 0)
(0.0067059 0.0139315 0)
(0.00497761 0.014071 0)
(0.00317761 0.0141946 0)
(0.00133464 0.014302 0)
(-0.000521936 0.0143932 0)
(-0.0023626 0.0144687 0)
(-0.00415819 0.0145289 0)
(-0.00588033 0.0145748 0)
(-0.00750192 0.0146074 0)
(-0.00899756 0.014628 0)
(-0.0103439 0.014638 0)
(-0.0115202 0.0146387 0)
(-0.0125084 0.0146318 0)
(-0.0132934 0.0146188 0)
(-0.0138635 0.0146009 0)
(-0.0142105 0.0145798 0)
(-0.0143297 0.0145564 0)
(-0.0142199 0.0145321 0)
(-0.0138836 0.0145077 0)
(-0.0133267 0.014484 0)
(-0.0125588 0.0144617 0)
(-0.0115924 0.0144413 0)
(-0.0104432 0.0144231 0)
(-0.0091296 0.0144074 0)
(-0.00767254 0.0143942 0)
(-0.00609508 0.0143837 0)
(-0.00442227 0.0143759 0)
(-0.00268187 0.0143707 0)
(-0.000899234 0.0143681 0)
(0.000961557 0.0116497 0)
(0.00286838 0.0116784 0)
(0.00473022 0.0117355 0)
(0.00651924 0.0118201 0)
(0.0082064 0.0119309 0)
(0.00976535 0.0120665 0)
(0.0111718 0.0122249 0)
(0.0124038 0.0124038 0)
(0.0134423 0.0126009 0)
(0.0142711 0.0128134 0)
(0.0148774 0.0130384 0)
(0.0152521 0.0132731 0)
(0.0153895 0.0135143 0)
(0.0152878 0.0137591 0)
(0.0149491 0.0140043 0)
(0.0143791 0.0142473 0)
(0.0135873 0.0144852 0)
(0.0125867 0.0147155 0)
(0.0113934 0.014936 0)
(0.010027 0.0151447 0)
(0.00850953 0.0153399 0)
(0.0068654 0.0155204 0)
(0.00512112 0.0156851 0)
(0.00330468 0.0158336 0)
(0.00144516 0.0159655 0)
(-0.000427739 0.016081 0)
(-0.00228421 0.0161805 0)
(-0.00409479 0.0162647 0)
(-0.0058309 0.0163347 0)
(-0.00746523 0.0163916 0)
(-0.00897223 0.0164369 0)
(-0.0103285 0.0164719 0)
(-0.0115132 0.0164982 0)
(-0.0125082 0.0165173 0)
(-0.0132985 0.0165307 0)
(-0.0138727 0.0165398 0)
(-0.0142224 0.0165457 0)
(-0.0143432 0.0165497 0)
(-0.0142341 0.0165524 0)
(-0.0138976 0.0165547 0)
(-0.0133401 0.016557 0)
(-0.012571 0.0165595 0)
(-0.0116032 0.0165625 0)
(-0.0104524 0.0165658 0)
(-0.00913722 0.0165694 0)
(-0.00767858 0.0165729 0)
(-0.00609962 0.0165762 0)
(-0.00442541 0.0165789 0)
(-0.00268371 0.0165809 0)
(-0.000899836 0.016582 0)
(0.000976575 0.0126219 0)
(0.0029133 0.0126531 0)
(0.00480442 0.0127151 0)
(0.0066216 0.0128071 0)
(0.00833547 0.0129276 0)
(0.00991933 0.0130751 0)
(0.0113485 0.0132474 0)
(0.0126009 0.0134423 0)
(0.013657 0.013657 0)
(0.0145005 0.0138887 0)
(0.0151186 0.0141344 0)
(0.0155019 0.0143909 0)
(0.0156448 0.014655 0)
(0.0155456 0.0149234 0)
(0.0152062 0.0151931 0)
(0.0146327 0.0154611 0)
(0.0138346 0.0157244 0)
(0.0128253 0.0159805 0)
(0.0116213 0.0162271 0)
(0.0102422 0.0164622 0)
(0.00871052 0.016684 0)
(0.00705111 0.0168915 0)
(0.0052908 0.0170835 0)
(0.00345795 0.0172598 0)
(0.00158202 0.01742 0)
(-0.000306961 0.0175646 0)
(-0.00217886 0.017694 0)
(-0.00400395 0.0178092 0)
(-0.0057534 0.0179112 0)
(-0.00739974 0.0180015 0)
(-0.0089173 0.0180813 0)
(-0.0102826 0.0181522 0)
(-0.0114748 0.0182158 0)
(-0.0124758 0.0182735 0)
(-0.0132709 0.0183266 0)
(-0.0138485 0.0183763 0)
(-0.0142006 0.0184235 0)
(-0.014323 0.018469 0)
(-0.0142148 0.0185133 0)
(-0.013879 0.0185565 0)
(-0.0133219 0.0185985 0)
(-0.0125533 0.0186392 0)
(-0.0115861 0.018678 0)
(-0.0104363 0.0187143 0)
(-0.00912251 0.0187474 0)
(-0.00766571 0.0187765 0)
(-0.00608905 0.0188009 0)
(-0.00441753 0.0188198 0)
(-0.00267884 0.0188328 0)
(-0.000898191 0.0188394 0)
(0.000992728 0.0133959 0)
(0.00296163 0.0134291 0)
(0.00488425 0.0134953 0)
(0.00673174 0.0135933 0)
(0.0084744 0.0137218 0)
(0.0100851 0.0138791 0)
(0.011539 0.014063 0)
(0.0128134 0.0142711 0)
(0.0138887 0.0145005 0)
(0.0147485 0.0147485 0)
(0.0153796 0.0150117 0)
(0.0157726 0.0152869 0)
(0.015922 0.0155708 0)
(0.015826 0.0158601 0)
(0.0154868 0.0161516 0)
(0.0149104 0.0164423 0)
(0.0141068 0.0167292 0)
(0.0130894 0.0170097 0)
(0.0118751 0.0172817 0)
(0.010484 0.0175431 0)
(0.00893881 0.0177924 0)
(0.00726489 0.0180284 0)
(0.00548942 0.0182504 0)
(0.00364118 0.018458 0)
(0.00175 0.0186514 0)
(-0.000153742 0.0188308 0)
(-0.0020396 0.0189972 0)
(-0.00387758 0.0191515 0)
(-0.00563865 0.019295 0)
(-0.00729519 0.0194291 0)
(-0.00882146 0.0195553 0)
(-0.010194 0.019675 0)
(-0.0113919 0.0197898 0)
(-0.0123974 0.0199009 0)
(-0.0131957 0.0200093 0)
(-0.0137757 0.0201159 0)
(-0.0141297 0.0202213 0)
(-0.0142534 0.0203255 0)
(-0.0141466 0.0204284 0)
(-0.0138124 0.0205294 0)
(-0.0132574 0.0206279 0)
(-0.0124916 0.0207225 0)
(-0.0115281 0.0208121 0)
(-0.010383 0.0208951 0)
(-0.00907503 0.0209701 0)
(-0.00762511 0.0210353 0)
(-0.0060563 0.0210896 0)
(-0.00439348 0.0211314 0)
(-0.00266414 0.02116 0)
(-0.00089325 0.0211744 0)
(0.00100979 0.0139597 0)
(0.00301266 0.0139945 0)
(0.00496857 0.0140637 0)
(0.00684812 0.0141664 0)
(0.00862126 0.0143011 0)
(0.0102605 0.014466 0)
(0.0117405 0.0146589 0)
(0.0130384 0.0148774 0)
(0.0141344 0.0151186 0)
(0.0150117 0.0153796 0)
(0.015657 0.015657 0)
(0.0160611 0.0159477 0)
(0.0162181 0.0162483 0)
(0.0161264 0.0165556 0)
(0.0157884 0.0168662 0)
(0.0152102 0.0171773 0)
(0.0144021 0.017486 0)
(0.0133778 0.0177898 0)
(0.0121546 0.0180866 0)
(0.0107529 0.0183746 0)
(0.00919581 0.0186525 0)
(0.00750911 0.0189192 0)
(0.00572043 0.0191744 0)
(0.00385893 0.0194178 0)
(0.00195484 0.0196498 0)
(3.88913e-05 0.0198711 0)
(-0.00185818 0.0200827 0)
(-0.00370616 0.0202858 0)
(-0.00547583 0.0204817 0)
(-0.00713948 0.0206721 0)
(-0.00867137 0.0208584 0)
(-0.0100481 0.0210421 0)
(-0.0112489 0.0212244 0)
(-0.0122563 0.0214063 0)
(-0.0130558 0.0215885 0)
(-0.0136365 0.0217712 0)
(-0.0139911 0.0219544 0)
(-0.0141159 0.0221375 0)
(-0.0140109 0.0223192 0)
(-0.0136795 0.0224983 0)
(-0.0131288 0.0226726 0)
(-0.0123691 0.0228401 0)
(-0.0114135 0.0229982 0)
(-0.0102784 0.0231442 0)
(-0.0089823 0.0232756 0)
(-0.00754621 0.0233897 0)
(-0.00599295 0.0234842 0)
(-0.00434712 0.0235571 0)
(-0.00263588 0.0236066 0)
(-0.000883757 0.0236316 0)
(0.00102751 0.0143043 0)
(0.00306567 0.0143401 0)
(0.00505618 0.0144116 0)
(0.00696908 0.0145174 0)
(0.00877398 0.0146564 0)
(0.010443 0.0148267 0)
(0.0119504 0.0150261 0)
(0.0132731 0.0152521 0)
(0.0143909 0.0155019 0)
(0.0152869 0.0157726 0)
(0.0159477 0.0160611 0)
(0.0163639 0.0163639 0)
(0.0165298 0.0166781 0)
(0.0164439 0.0170002 0)
(0.0161085 0.0173274 0)
(0.0155302 0.0176566 0)
(0.0147193 0.0179854 0)
(0.01369 0.0183115 0)
(0.0124599 0.0186329 0)
(0.0110498 0.0189482 0)
(0.00948342 0.0192563 0)
(0.00778678 0.0195565 0)
(0.00598799 0.0198487 0)
(0.00411665 0.0201332 0)
(0.00220334 0.0204106 0)
(0.000279143 0.0206819 0)
(-0.00162495 0.0209483 0)
(-0.00347854 0.0212114 0)
(-0.00525229 0.0214727 0)
(-0.0069185 0.0217338 0)
(-0.00845149 0.0219962 0)
(-0.00982803 0.0222614 0)
(-0.0110277 0.0225301 0)
(-0.0120333 0.0228031 0)
(-0.0128308 0.0230805 0)
(-0.0134098 0.0233618 0)
(-0.0137634 0.0236461 0)
(-0.0138886 0.0239315 0)
(-0.0137858 0.024216 0)
(-0.013459 0.0244966 0)
(-0.0129155 0.02477 0)
(-0.012166 0.0250324 0)
(-0.011224 0.0252799 0)
(-0.0101056 0.0255083 0)
(-0.00882953 0.0257134 0)
(-0.00741649 0.0258914 0)
(-0.00588897 0.0260386 0)
(-0.00427113 0.0261519 0)
(-0.00258959 0.0262288 0)
(-0.000868222 0.0262677 0)
(0.00104564 0.0144244 0)
(0.00311993 0.0144608 0)
(0.00514586 0.0145334 0)
(0.00709296 0.014641 0)
(0.00893049 0.0147823 0)
(0.0106302 0.0149557 0)
(0.0121659 0.0151589 0)
(0.0135143 0.0153895 0)
(0.014655 0.0156448 0)
(0.0155708 0.015922 0)
(0.0162483 0.0162181 0)
(0.0166781 0.0165298 0)
(0.0168543 0.0168543 0)
(0.0167757 0.0171885 0)
(0.0164448 0.0175296 0)
(0.0158683 0.0178751 0)
(0.015057 0.0182225 0)
(0.0140253 0.0185701 0)
(0.0127913 0.0189163 0)
(0.0113762 0.0192599 0)
(0.00980412 0.0196004 0)
(0.00810158 0.0199376 0)
(0.00629714 0.0202717 0)
(0.00442079 0.0206035 0)
(0.00250349 0.020934 0)
(0.000576586 0.0212646 0)
(-0.00132869 0.0215971 0)
(-0.00318179 0.0219332 0)
(-0.00495341 0.0222746 0)
(-0.00661589 0.0226231 0)
(-0.0081438 0.0229802 0)
(-0.00951421 0.0233471 0)
(-0.0107072 0.0237243 0)
(-0.0117059 0.0241119 0)
(-0.0124971 0.0245094 0)
(-0.013071 0.0249153 0)
(-0.0134214 0.0253275 0)
(-0.013546 0.0257429 0)
(-0.0134458 0.0261578 0)
(-0.0131255 0.0265676 0)
(-0.012593 0.0269671 0)
(-0.0118591 0.0273506 0)
(-0.0109376 0.0277121 0)
(-0.00984486 0.0280456 0)
(-0.00859922 0.0283449 0)
(-0.00722109 0.0286044 0)
(-0.00573248 0.0288189 0)
(-0.00415684 0.0289839 0)
(-0.00252001 0.029096 0)
(-0.000844874 0.0291526 0)
(0.00106393 0.0143181 0)
(0.00317467 0.0143546 0)
(0.00523638 0.0144273 0)
(0.00721807 0.0145352 0)
(0.00908867 0.0146771 0)
(0.0108195 0.0148512 0)
(0.0123842 0.0150555 0)
(0.0137591 0.0152878 0)
(0.0149234 0.0155456 0)
(0.0158601 0.015826 0)
(0.0165556 0.0161264 0)
(0.0170002 0.0164439 0)
(0.0171885 0.0167757 0)
(0.0171192 0.0171192 0)
(0.016795 0.0174719 0)
(0.0162231 0.0178317 0)
(0.0154143 0.0181967 0)
(0.0143837 0.0185654 0)
(0.0131497 0.0189369 0)
(0.011734 0.0193105 0)
(0.0101611 0.0196863 0)
(0.00845804 0.0200645 0)
(0.00665387 0.0204462 0)
(0.00477894 0.0208326 0)
(0.00286454 0.0212253 0)
(0.000942298 0.0216263 0)
(-0.000956425 0.0220377 0)
(-0.00280105 0.0224617 0)
(-0.00456233 0.0229002 0)
(-0.00621286 0.0233553 0)
(-0.00772756 0.0238282 0)
(-0.00908401 0.0243201 0)
(-0.0102629 0.0248309 0)
(-0.0112482 0.0253603 0)
(-0.0120274 0.0259066 0)
(-0.0125917 0.0264673 0)
(-0.0129358 0.0270386 0)
(-0.0130583 0.027616 0)
(-0.0129612 0.0281937 0)
(-0.0126497 0.0287649 0)
(-0.0121325 0.0293221 0)
(-0.011421 0.0298572 0)
(-0.010529 0.0303617 0)
(-0.00947281 0.030827 0)
(-0.00827071 0.0312446 0)
(-0.00694252 0.0316065 0)
(-0.00550945 0.0319056 0)
(-0.003994 0.0321356 0)
(-0.0024209 0.0322919 0)
(-0.000811621 0.0323708 0)
(0.00108214 0.0139871 0)
(0.00322916 0.0140232 0)
(0.00532652 0.0140951 0)
(0.00734275 0.0142019 0)
(0.00924644 0.0143424 0)
(0.0110086 0.014515 0)
(0.0126026 0.014718 0)
(0.0140043 0.0149491 0)
(0.0151931 0.0152062 0)
(0.0161516 0.0154868 0)
(0.0168662 0.0157884 0)
(0.0173274 0.0161085 0)
(0.0175296 0.0164448 0)
(0.0174719 0.016795 0)
(0.0171573 0.0171573 0)
(0.0165931 0.0175299 0)
(0.0157907 0.0179116 0)
(0.0147655 0.0183015 0)
(0.0135364 0.0186994 0)
(0.0121256 0.0191053 0)
(0.0105582 0.0195199 0)
(0.00886154 0.0199443 0)
(0.0070652 0.0203803 0)
(0.00519989 0.0208298 0)
(0.00329722 0.0212951 0)
(0.00138899 0.021779 0)
(-0.000493343 0.022284 0)
(-0.00231928 0.0228128 0)
(-0.0040598 0.0233679 0)
(-0.00568789 0.0239512 0)
(-0.00717902 0.0245642 0)
(-0.00851152 0.0252076 0)
(-0.00966693 0.0258811 0)
(-0.0106303 0.0265833 0)
(-0.0113901 0.0273114 0)
(-0.0119389 0.0280615 0)
(-0.0122726 0.0288282 0)
(-0.012391 0.0296047 0)
(-0.012297 0.0303827 0)
(-0.0119971 0.0311528 0)
(-0.0115006 0.0319047 0)
(-0.0108195 0.0326271 0)
(-0.00996787 0.0333085 0)
(-0.00896202 0.0339369 0)
(-0.00781972 0.034501 0)
(-0.00656011 0.03499 0)
(-0.00520333 0.035394 0)
(-0.00377052 0.0357049 0)
(-0.00228489 0.0359159 0)
(-0.000765988 0.0360225 0)
(0.00110002 0.0134368 0)
(0.00328266 0.013472 0)
(0.00541509 0.0135422 0)
(0.00746535 0.0136464 0)
(0.00940179 0.0137838 0)
(0.0111951 0.0139528 0)
(0.0128183 0.0141518 0)
(0.0142473 0.0143791 0)
(0.0154611 0.0146327 0)
(0.0164423 0.0149104 0)
(0.0171773 0.0152102 0)
(0.0176566 0.0155302 0)
(0.0178751 0.0158683 0)
(0.0178317 0.0162231 0)
(0.0175299 0.0165931 0)
(0.0169774 0.0169774 0)
(0.016186 0.0173754 0)
(0.0151715 0.0177871 0)
(0.0139535 0.018213 0)
(0.0125545 0.0186541 0)
(0.0110001 0.019112 0)
(0.00931846 0.0195886 0)
(0.00753929 0.0200866 0)
(0.00569377 0.0206089 0)
(0.00381374 0.0211588 0)
(0.00193115 0.0217397 0)
(7.74186e-05 0.022355 0)
(-0.00171715 0.0230079 0)
(-0.00342393 0.0237014 0)
(-0.0050165 0.0244377 0)
(-0.00647112 0.0252183 0)
(-0.00776714 0.0260435 0)
(-0.00888727 0.0269125 0)
(-0.00981789 0.027823 0)
(-0.0105491 0.0287708 0)
(-0.0110748 0.0297503 0)
(-0.0113927 0.0307539 0)
(-0.0115039 0.0317722 0)
(-0.011413 0.032794 0)
(-0.0111277 0.0338068 0)
(-0.0106582 0.0347963 0)
(-0.0100172 0.0357478 0)
(-0.00921916 0.0366457 0)
(-0.00828024 0.0374742 0)
(-0.00721766 0.0382181 0)
(-0.00604954 0.038863 0)
(-0.00479459 0.039396 0)
(-0.00347211 0.0398061 0)
(-0.00210328 0.0400846 0)
(-0.000705052 0.0402252 0)
(0.00111733 0.0126759 0)
(0.0033345 0.0127098 0)
(0.00550095 0.0127773 0)
(0.00758434 0.0128777 0)
(0.00955277 0.0130102 0)
(0.0113767 0.0131736 0)
(0.0130289 0.0133664 0)
(0.0144852 0.0135873 0)
(0.0157244 0.0138346 0)
(0.0167292 0.0141068 0)
(0.017486 0.0144021 0)
(0.0179854 0.0147193 0)
(0.0182225 0.015057 0)
(0.0181967 0.0154143 0)
(0.0179116 0.0157907 0)
(0.0173754 0.016186 0)
(0.0166005 0.0166005 0)
(0.0156032 0.0170351 0)
(0.0144034 0.0174914 0)
(0.0130245 0.0179713 0)
(0.0114926 0.0184776 0)
(0.00983618 0.0190134 0)
(0.00808552 0.0195823 0)
(0.0062721 0.0201886 0)
(0.00442798 0.0208364 0)
(0.00258515 0.0215303 0)
(0.000774891 0.0222746 0)
(-0.000972839 0.0230733 0)
(-0.00263 0.0239299 0)
(-0.00417101 0.024847 0)
(-0.00557321 0.0258261 0)
(-0.00681727 0.0268674 0)
(-0.00788748 0.0279693 0)
(-0.00877197 0.0291285 0)
(-0.00946278 0.0303392 0)
(-0.00995581 0.0315938 0)
(-0.0102508 0.0328821 0)
(-0.0103508 0.0341916 0)
(-0.0102624 0.0355076 0)
(-0.00999482 0.0368135 0)
(-0.00955956 0.0380909 0)
(-0.00897016 0.0393201 0)
(-0.00824155 0.0404808 0)
(-0.00738963 0.0415525 0)
(-0.00643091 0.0425153 0)
(-0.00538216 0.0433503 0)
(-0.0042602 0.0440406 0)
(-0.00308191 0.0445719 0)
(-0.00186577 0.0449327 0)
(-0.00062536 0.0451149 0)
(0.00113387 0.0117166 0)
(0.00338402 0.0117487 0)
(0.00558303 0.0118127 0)
(0.00769825 0.0119081 0)
(0.0096976 0.0120341 0)
(0.0115513 0.0121899 0)
(0.0132321 0.0123745 0)
(0.0147155 0.0125867 0)
(0.0159805 0.0128253 0)
(0.0170097 0.0130894 0)
(0.0177898 0.0133778 0)
(0.0183115 0.01369 0)
(0.0185701 0.0140253 0)
(0.0185654 0.0143837 0)
(0.0183015 0.0147655 0)
(0.0177871 0.0151715 0)
(0.0170351 0.0156032 0)
(0.0160625 0.0160625 0)
(0.0148896 0.016552 0)
(0.0135406 0.0170752 0)
(0.0120422 0.017636 0)
(0.0104232 0.0182389 0)
(0.00871451 0.0188889 0)
(0.00694787 0.0195915 0)
(0.00515549 0.0203524 0)
(0.00336933 0.0211771 0)
(0.00162039 0.0220713 0)
(-6.18764e-05 0.0230399 0)
(-0.00165026 0.0240871 0)
(-0.00312027 0.0252161 0)
(-0.00445069 0.0264286 0)
(-0.0056239 0.0277245 0)
(-0.00662622 0.0291016 0)
(-0.007448 0.0305552 0)
(-0.00808375 0.032078 0)
(-0.00853195 0.0336599 0)
(-0.0087949 0.0352876 0)
(-0.00887836 0.0369451 0)
(-0.00879111 0.0386135 0)
(-0.00854445 0.0402711 0)
(-0.00815162 0.0418945 0)
(-0.00762724 0.0434582 0)
(-0.00698673 0.044936 0)
(-0.00624578 0.0463016 0)
(-0.00541993 0.0475291 0)
(-0.00452422 0.0485943 0)
(-0.00357299 0.0494753 0)
(-0.00258002 0.0501536 0)
(-0.00156022 0.0506144 0)
(-0.000522828 0.0508471 0)
(0.00114942 0.010574 0)
(0.00343062 0.010604 0)
(0.00566036 0.0106638 0)
(0.00780577 0.010753 0)
(0.00983462 0.0108712 0)
(0.011717 0.0110178 0)
(0.0134256 0.0111921 0)
(0.014936 0.0113934 0)
(0.0162271 0.0116213 0)
(0.0172817 0.0118751 0)
(0.0180866 0.0121546 0)
(0.0186329 0.0124599 0)
(0.0189163 0.0127913 0)
(0.0189369 0.0131497 0)
(0.0186994 0.0135364 0)
(0.018213 0.0139535 0)
(0.0174914 0.0144034 0)
(0.016552 0.0148896 0)
(0.0154162 0.0154162 0)
(0.0141085 0.0159879 0)
(0.0126563 0.0166101 0)
(0.0110891 0.0172891 0)
(0.00943816 0.0180315 0)
(0.00773555 0.0188443 0)
(0.00601358 0.0197347 0)
(0.00430407 0.0207101 0)
(0.00263763 0.0217772 0)
(0.00104297 0.0229424 0)
(-0.000453748 0.0242108 0)
(-0.00182948 0.0255864 0)
(-0.0030648 0.0270712 0)
(-0.00414429 0.0286648 0)
(-0.00505679 0.0303645 0)
(-0.00579553 0.0321643 0)
(-0.00635808 0.0340549 0)
(-0.00674621 0.0360234 0)
(-0.00696552 0.0380532 0)
(-0.007025 0.0401239 0)
(-0.00693646 0.0422114 0)
(-0.00671384 0.0442887 0)
(-0.00637254 0.0463255 0)
(-0.00592861 0.0482899 0)
(-0.00539813 0.0501483 0)
(-0.00479656 0.0518671 0)
(-0.00413821 0.0534133 0)
(-0.00343592 0.054756 0)
(-0.00270089 0.0558672 0)
(-0.00194288 0.056723 0)
(-0.00117226 0.0573046 0)
(-0.00039262 0.0575984 0)
(0.00116381 0.00926638 0)
(0.00347376 0.00929385 0)
(0.00573207 0.00934876 0)
(0.0079057 0.00943089 0)
(0.00996238 0.00954001 0)
(0.0118722 0.00967588 0)
(0.0136077 0.00983826 0)
(0.0151447 0.010027 0)
(0.0164622 0.0102422 0)
(0.0175431 0.010484 0)
(0.0183746 0.0107529 0)
(0.0189482 0.0110498 0)
(0.0192599 0.0113762 0)
(0.0193105 0.011734 0)
(0.0191053 0.0121256 0)
(0.0186541 0.0125545 0)
(0.0179713 0.0130245 0)
(0.0170752 0.0135406 0)
(0.0159879 0.0141085 0)
(0.0147346 0.0147346 0)
(0.0133434 0.0154261 0)
(0.0118445 0.0161912 0)
(0.0102697 0.0170383 0)
(0.00865112 0.0179764 0)
(0.00702131 0.0190147 0)
(0.00541181 0.0201622 0)
(0.00385271 0.0214276 0)
(0.00237176 0.0228187 0)
(0.000993794 0.0243421 0)
(-0.000259948 0.0260025 0)
(-0.0013723 0.0278025 0)
(-0.00233057 0.029742 0)
(-0.00312674 0.0318174 0)
(-0.00375762 0.0340214 0)
(-0.00422464 0.0363426 0)
(-0.00453365 0.0387651 0)
(-0.00469444 0.0412683 0)
(-0.00472011 0.0438267 0)
(-0.00462629 0.0464106 0)
(-0.00443035 0.0489857 0)
(-0.00415042 0.0515145 0)
(-0.00380448 0.0539566 0)
(-0.00340951 0.0562697 0)
(-0.00298073 0.0584114 0)
(-0.00253097 0.0603399 0)
(-0.00207032 0.0620159 0)
(-0.00160599 0.0634038 0)
(-0.00114264 0.0644734 0)
(-0.000684845 0.0652004 0)
(-0.000229009 0.0655678 0)
(0.00117689 0.00781444 0)
(0.003513 0.00783915 0)
(0.00579741 0.00788862 0)
(0.00799702 0.00796282 0)
(0.0100796 0.00806181 0)
(0.0120153 0.00818573 0)
(0.0137768 0.00833482 0)
(0.0153399 0.00850953 0)
(0.016684 0.00871052 0)
(0.0177924 0.00893881 0)
(0.0186525 0.00919581 0)
(0.0192563 0.00948342 0)
(0.0196004 0.00980412 0)
(0.0196863 0.0101611 0)
(0.0195199 0.0105582 0)
(0.019112 0.0110001 0)
(0.0184776 0.0114926 0)
(0.017636 0.0120422 0)
(0.0166101 0.0126563 0)
(0.0154261 0.0133434 0)
(0.0141129 0.0141129 0)
(0.0127012 0.0149749 0)
(0.0112234 0.0159402 0)
(0.00971196 0.01702 0)
(0.00819941 0.0182258 0)
(0.00671702 0.0195689 0)
(0.00529415 0.02106 0)
(0.00395742 0.0227089 0)
(0.00273002 0.0245239 0)
(0.00163097 0.026511 0)
(0.000674687 0.0286738 0)
(-0.000129475 0.0310122 0)
(-0.000777406 0.0335222 0)
(-0.00127027 0.0361954 0)
(-0.00161434 0.0390179 0)
(-0.00182055 0.0419705 0)
(-0.00190391 0.0450281 0)
(-0.0018827 0.0481595 0)
(-0.00177746 0.0513281 0)
(-0.00160989 0.0544915 0)
(-0.00140171 0.0576032 0)
(-0.00117344 0.0606126 0)
(-0.000943319 0.0634672 0)
(-0.000726378 0.0661135 0)
(-0.000533696 0.068499 0)
(-0.000371966 0.0705742 0)
(-0.000243409 0.0722941 0)
(-0.000146292 0.0736202 0)
(-7.77723e-05 0.0745221 0)
(-2.51932e-05 0.0749781 0)
(0.00118852 0.00624129 0)
(0.00354794 0.006263 0)
(0.00585574 0.00630657 0)
(0.00807889 0.00637218 0)
(0.0101853 0.00646021 0)
(0.0121452 0.00657119 0)
(0.0139315 0.0067059 0)
(0.0155204 0.0068654 0)
(0.0168915 0.00705111 0)
(0.0180284 0.00726489 0)
(0.0189192 0.00750911 0)
(0.0195565 0.00778678 0)
(0.0199376 0.00810158 0)
(0.0200645 0.00845804 0)
(0.0199443 0.00886154 0)
(0.0195886 0.00931846 0)
(0.0190134 0.00983618 0)
(0.0182389 0.0104232 0)
(0.0172891 0.0110891 0)
(0.0161912 0.0118445 0)
(0.0149749 0.0127012 0)
(0.0136718 0.0136718 0)
(0.0123148 0.0147697 0)
(0.0109367 0.0160087 0)
(0.00957018 0.017403 0)
(0.00824601 0.0189666 0)
(0.00699276 0.0207128 0)
(0.00583566 0.0226539 0)
(0.00479593 0.0248002 0)
(0.00388996 0.0271596 0)
(0.00312884 0.0297368 0)
(0.00251788 0.0325325 0)
(0.00205646 0.0355425 0)
(0.00173806 0.0387569 0)
(0.0015505 0.0421597 0)
(0.00147652 0.0457281 0)
(0.00149457 0.0494318 0)
(0.00157988 0.0532333 0)
(0.0017057 0.0570878 0)
(0.00184474 0.0609437 0)
(0.00197064 0.0647435 0)
(0.00205953 0.0684248 0)
(0.00209134 0.0719222 0)
(0.0020511 0.0751691 0)
(0.00192976 0.0780999 0)
(0.00172476 0.0806522 0)
(0.00144004 0.0827695 0)
(0.00108539 0.0844032 0)
(0.000672984 0.0855148 0)
(0.00022692 0.086077 0)
(0.0011986 0.00457189 0)
(0.00357828 0.00459044 0)
(0.00590659 0.00462776 0)
(0.00815066 0.0046843 0)
(0.0102786 0.00476073 0)
(0.012261 0.00485806 0)
(0.014071 0.00497761 0)
(0.0156851 0.00512112 0)
(0.0170835 0.0052908 0)
(0.0182504 0.00548942 0)
(0.0191744 0.00572043 0)
(0.0198487 0.00598799 0)
(0.0202717 0.00629714 0)
(0.0204462 0.00665387 0)
(0.0203803 0.0070652 0)
(0.0200866 0.00753929 0)
(0.0195823 0.00808552 0)
(0.0188889 0.00871451 0)
(0.0180315 0.00943816 0)
(0.0170383 0.0102697 0)
(0.0159402 0.0112234 0)
(0.0147697 0.0123148 0)
(0.0135602 0.0135602 0)
(0.0123453 0.0149767 0)
(0.0111573 0.0165816 0)
(0.0100268 0.018392 0)
(0.00898145 0.0204244 0)
(0.00804479 0.0226941 0)
(0.00723575 0.0252142 0)
(0.00656765 0.0279949 0)
(0.00604761 0.0310426 0)
(0.00567615 0.0343592 0)
(0.00544695 0.0379405 0)
(0.00534698 0.0417759 0)
(0.00535685 0.0458469 0)
(0.00545151 0.0501269 0)
(0.00560132 0.0545803 0)
(0.00577335 0.0591621 0)
(0.00593299 0.0638185 0)
(0.00604579 0.0684867 0)
(0.00607935 0.0730965 0)
(0.0060053 0.0775713 0)
(0.00580102 0.0818303 0)
(0.00545129 0.0857907 0)
(0.00494935 0.0893708 0)
(0.00429759 0.0924925 0)
(0.00350757 0.0950849 0)
(0.00259908 0.0970869 0)
(0.00159606 0.09845 0)
(0.00053698 0.0991396 0)
(0.00120707 0.00283275 0)
(0.00360381 0.00284802 0)
(0.0059496 0.00287888 0)
(0.00821186 0.00292601 0)
(0.0103591 0.00299046 0)
(0.0123621 0.00307369 0)
(0.0141946 0.00317761 0)
(0.0158336 0.00330468 0)
(0.0172598 0.00345795 0)
(0.018458 0.00364118 0)
(0.0194178 0.00385893 0)