/*--------------------------------*- C++ -*----------------------------------*\
| =========                 |                                                 |
| \\      /  F ield         | OpenFOAM: The Open Source CFD Toolbox           |
|  \\    /   O peration     | Version:  2406                                  |
|   \\  /    A nd           | Website:  www.openfoam.com                      |
|    \\/     M anipulation  |                                                 |
\*---------------------------------------------------------------------------*/
FoamFile
{
    version     2.0;
    format      ascii;
    arch        "LSB;label=32;scalar=64";
    class       volScalarField;
    location    "0.6";
    object      gradTx;
}
// * * * * * * * * * * * * * * * * * * * * * * * * * * * * * * * * * * * * * //

dimensions      [0 -1 0 1 0 0 0];

internalField   nonuniform List<scalar> 
2500
(
0.00903875
0.0269559
0.0444483
0.0612594
0.0771086
0.0917473
0.104946
0.116497
0.126219
0.133959
0.139597
0.143043
0.144244
0.143181
0.139871
0.134368
0.126759
0.117166
0.10574
0.0926638
0.0781444
0.0624129
0.0457189
0.0283275
0.0105146
-0.00743727
-0.0252438
-0.0426232
-0.0593009
-0.0750136
-0.0895139
-0.102574
-0.113989
-0.123582
-0.131202
-0.136732
-0.140089
-0.141222
-0.140116
-0.136791
-0.131304
-0.123743
-0.11423
-0.102916
-0.0899813
-0.075631
-0.0600921
-0.0436103
-0.0264452
-0.00886249
0.00905968
0.0270211
0.0445576
0.0614095
0.0772975
0.0919722
0.105204
0.116784
0.126531
0.134291
0.139945
0.143401
0.144608
0.143546
0.140232
0.13472
0.127098
0.117487
0.10604
0.0929385
0.0783915
0.06263
0.0459044
0.0284802
0.010634
-0.00735118
-0.0251905
-0.0426015
-0.0593091
-0.0750498
-0.0895756
-0.102658
-0.114093
-0.123702
-0.131335
-0.136876
-0.140239
-0.141375
-0.140269
-0.136941
-0.131448
-0.123879
-0.114355
-0.103028
-0.0900789
-0.0757122
-0.0601555
-0.0436558
-0.0264786
-0.00887753
0.00910396
0.0271531
0.0447748
0.0617083
0.0776736
0.0924203
0.105717
0.117355
0.127151
0.134953
0.140637
0.144116
0.145334
0.144273
0.140951
0.135422
0.127773
0.118127
0.106638
0.0934876
0.0788862
0.0630657
0.0462776
0.0287888
0.0108769
-0.00717399
-0.0250777
-0.0425509
-0.0593174
-0.0751129
-0.0896887
-0.102816
-0.11429
-0.123931
-0.13159
-0.137149
-0.140525
-0.141667
-0.14056
-0.137227
-0.131723
-0.124138
-0.114593
-0.103242
-0.0902646
-0.0758666
-0.0602756
-0.0437383
-0.0265276
-0.00889497
0.00916899
0.0273477
0.0450958
0.0621504
0.0782304
0.0930835
0.106477
0.118201
0.128071
0.135933
0.141664
0.145174
0.14641
0.145352
0.142019
0.136464
0.128777
0.119081
0.10753
0.0943089
0.0796282
0.0637218
0.046843
0.0292601
0.0112527
-0.0068934
-0.0248905
-0.0424537
-0.0593056
-0.0751802
-0.0898281
-0.10302
-0.114549
-0.124236
-0.131932
-0.137519
-0.140912
-0.142063
-0.140957
-0.137617
-0.132097
-0.12449
-0.114917
-0.103532
-0.0905171
-0.0760773
-0.0604411
-0.0438564
-0.0265983
-0.00891874
0.00925401
0.0276021
0.0455157
0.0627292
0.0789595
0.0939524
0.107473
0.119309
0.129276
0.137218
0.143011
0.146564
0.147823
0.146771
0.143424
0.137838
0.130102
0.120341
0.108712
0.0954001
0.0806181
0.0646021
0.0476073
0.0299046
0.0117756
-0.00649162
-0.0246073
-0.0422847
-0.0592443
-0.0752189
-0.0899576
-0.10323
-0.114828
-0.124573
-0.132315
-0.137936
-0.141353
-0.142515
-0.141411
-0.138061
-0.132524
-0.124892
-0.115286
-0.103863
-0.0908046
-0.0763172
-0.0606301
-0.0439923
-0.0266801
-0.00894608
0.00935783
0.0279127
0.0460287
0.0634363
0.0798505
0.0950143
0.10869
0.120665
0.130751
0.138791
0.14466
0.148267
0.149557
0.148512
0.14515
0.139528
0.131736
0.121899
0.110178
0.0967588
0.0818573
0.0657119
0.0485806
0.0307369
0.0124651
-0.00594418
-0.0241986
-0.042009
-0.0590939
-0.0751844
-0.0900279
-0.103392
-0.11507
-0.124882
-0.132676
-0.138337
-0.141779
-0.142955
-0.141853
-0.138496
-0.132942
-0.125283
-0.115646
-0.104185
-0.0910832
-0.0765492
-0.0608128
-0.0441238
-0.0267593
-0.00897253
0.00947894
0.028275
0.0466271
0.0642614
0.0808903
0.0962539
0.110112
0.122249
0.132474
0.14063
0.146589
0.150261
0.151589
0.150555
0.14718
0.141518
0.133664
0.123745
0.111921
0.0983826
0.0833482
0.067059
0.0497761
0.0317761
0.0133464
-0.00521936
-0.023626
-0.0415819
-0.0588033
-0.0750192
-0.0899756
-0.103439
-0.115202
-0.125084
-0.132934
-0.138635
-0.142105
-0.143297
-0.142199
-0.138836
-0.133267
-0.125588
-0.115924
-0.104432
-0.091296
-0.0767254
-0.0609508
-0.0442227
-0.0268187
-0.00899234
0.00961557
0.0286838
0.0473022
0.0651924
0.082064
0.0976535
0.111718
0.124038
0.134423
0.142711
0.148774
0.152521
0.153895
0.152878
0.149491
0.143791
0.135873
0.125867
0.113934
0.10027
0.0850953
0.068654
0.0512112
0.0330468
0.0144516
-0.00427739
-0.0228421
-0.0409479
-0.058309
-0.0746523
-0.0897223
-0.103285
-0.115132
-0.125082
-0.132985
-0.138727
-0.142224
-0.143432
-0.142341
-0.138976
-0.133401
-0.12571
-0.116032
-0.104524
-0.0913722
-0.0767858
-0.0609962
-0.0442541
-0.0268371
-0.00899836
0.00976575
0.029133
0.0480442
0.066216
0.0833547
0.0991933
0.113485
0.126009
0.13657
0.145005
0.151186
0.155019
0.156448
0.155456
0.152062
0.146327
0.138346
0.128253
0.116213
0.102422
0.0871052
0.0705111
0.052908
0.0345795
0.0158202
-0.00306961
-0.0217886
-0.0400395
-0.057534
-0.0739974
-0.089173
-0.102826
-0.114748
-0.124758
-0.132709
-0.138485
-0.142006
-0.14323
-0.142148
-0.13879
-0.133219
-0.125533
-0.115861
-0.104363
-0.0912251
-0.0766571
-0.0608905
-0.0441753
-0.0267884
-0.00898191
0.00992728
0.0296163
0.0488425
0.0673174
0.084744
0.100851
0.11539
0.128134
0.138887
0.147485
0.153796
0.157726
0.15922
0.15826
0.154868
0.149104
0.141068
0.130894
0.118751
0.10484
0.0893881
0.0726489
0.0548942
0.0364118
0.0175
-0.00153742
-0.020396
-0.0387758
-0.0563865
-0.0729519
-0.0882146
-0.10194
-0.113919
-0.123974
-0.131957
-0.137757
-0.141297
-0.142534
-0.141466
-0.138124
-0.132574
-0.124916
-0.115281
-0.10383
-0.0907503
-0.0762511
-0.060563
-0.0439348
-0.0266414
-0.0089325
0.0100979
0.0301266
0.0496857
0.0684812
0.0862126
0.102605
0.117405
0.130384
0.141344
0.150117
0.15657
0.160611
0.162181
0.161264
0.157884
0.152102
0.144021
0.133778
0.121546
0.107529
0.0919581
0.0750911
0.0572043
0.0385893
0.0195484
0.000388913
-0.0185818
-0.0370616
-0.0547583
-0.0713948
-0.0867137
-0.100481
-0.112489
-0.122563
-0.130558
-0.136365
-0.139911
-0.141159
-0.140109
-0.136795
-0.131288
-0.123691
-0.114135
-0.102784
-0.089823
-0.0754621
-0.0599295
-0.0434712
-0.0263588
-0.00883757
0.0102751
0.0306567
0.0505618
0.0696908
0.0877398
0.10443
0.119504
0.132731
0.143909
0.152869
0.159477
0.163639
0.165298
0.164439
0.161085
0.155302
0.147193
0.1369
0.124599
0.110498
0.0948342
0.0778678
0.0598799
0.0411665
0.0220334
0.00279143
-0.0162495
-0.0347854
-0.0525229
-0.069185
-0.0845149
-0.0982803
-0.110277
-0.120333
-0.128308
-0.134098
-0.137634
-0.138886
-0.137858
-0.13459
-0.129155
-0.12166
-0.11224
-0.101056
-0.0882953
-0.0741649
-0.0588897
-0.0427113
-0.0258959
-0.00868222
0.0104564
0.0311993
0.0514586
0.0709296
0.0893049
0.106302
0.121659
0.135143
0.14655
0.155708
0.162483
0.166781
0.168543
0.167757
0.164448
0.158683
0.15057
0.140253
0.127913
0.113762
0.0980412
0.0810158
0.0629714
0.0442079
0.0250349
0.00576586
-0.0132869
-0.0318179
-0.0495341
-0.0661589
-0.081438
-0.0951421
-0.107072
-0.117059
-0.124971
-0.13071
-0.134214
-0.13546
-0.134458
-0.131255
-0.12593
-0.118591
-0.109376
-0.0984486
-0.0859922
-0.0722109
-0.0573248
-0.0415684
-0.0252001
-0.00844874
0.0106393
0.0317467
0.0523638
0.0721807
0.0908867
0.108195
0.123842
0.137591
0.149234
0.158601
0.165556
0.170002
0.171885
0.171192
0.16795
0.162231
0.154143
0.143837
0.131497
0.11734
0.101611
0.0845804
0.0665387
0.0477894
0.0286454
0.00942298
-0.00956425
-0.0280105
-0.0456233
-0.0621286
-0.0772756
-0.0908401
-0.102629
-0.112482
-0.120274
-0.125917
-0.129358
-0.130583
-0.129612
-0.126497
-0.121325
-0.11421
-0.10529
-0.0947281
-0.0827071
-0.0694252
-0.0550945
-0.03994
-0.024209
-0.00811621
0.0108214
0.0322916
0.0532652
0.0734275
0.0924644
0.110086
0.126026
0.140043
0.151931
0.161516
0.168662
0.173274
0.175296
0.174719
0.171573
0.165931
0.157907
0.147655
0.135364
0.121256
0.105582
0.0886154
0.070652
0.0519989
0.0329722
0.0138899
-0.00493343
-0.0231928
-0.040598
-0.0568789
-0.0717902
-0.0851152
-0.0966693
-0.106303
-0.113901
-0.119389
-0.122726
-0.12391
-0.12297
-0.119971
-0.115006
-0.108195
-0.0996787
-0.0896202
-0.0781972
-0.0656011
-0.0520333
-0.0377052
-0.0228489
-0.00765988
0.0110002
0.0328266
0.0541509
0.0746535
0.0940179
0.111951
0.128183
0.142473
0.154611
0.164423
0.171773
0.176566
0.178751
0.178317
0.175299
0.169774
0.16186
0.151715
0.139535
0.125545
0.110001
0.0931846
0.0753929
0.0569377
0.0381374
0.0193115
0.000774186
-0.0171715
-0.0342393
-0.050165
-0.0647112
-0.0776714
-0.0888727
-0.0981789
-0.105491
-0.110748
-0.113927
-0.115039
-0.11413
-0.111277
-0.106582
-0.100172
-0.0921916
-0.0828024
-0.0721766
-0.0604954
-0.0479459
-0.0347211
-0.0210328
-0.00705052
0.0111733
0.033345
0.0550095
0.0758434
0.0955277
0.113767
0.130289
0.144852
0.157244
0.167292
0.17486
0.179854
0.182225
0.181967
0.179116
0.173754
0.166005
0.156032
0.144034
0.130245
0.114926
0.0983618
0.0808552
0.062721
0.0442798
0.0258515
0.00774891
-0.00972839
-0.0263
-0.0417101
-0.0557321
-0.0681727
-0.0788748
-0.0877197
-0.0946278
-0.0995581
-0.102508
-0.103508
-0.102624
-0.0999482
-0.0955956
-0.0897016
-0.0824155
-0.0738963
-0.0643091
-0.0538216
-0.042602
-0.0308191
-0.0186577
-0.0062536
0.0113387
0.0338402
0.0558303
0.0769825
0.096976
0.115513
0.132321
0.147155
0.159805
0.170097
0.177898
0.183115
0.185701
0.185654
0.183015
0.177871
0.170351
0.160625
0.148896
0.135406
0.120422
0.104232
0.0871451
0.0694787
0.0515549
0.0336933
0.0162039
-0.000618764
-0.0165026
-0.0312027
-0.0445069
-0.056239
-0.0662622
-0.07448
-0.0808375
-0.0853195
-0.087949
-0.0887836
-0.0879111
-0.0854445
-0.0815162
-0.0762724
-0.0698673
-0.0624578
-0.0541993
-0.0452422
-0.0357299
-0.0258002
-0.0156022
-0.00522828
0.0114942
0.0343062
0.0566036
0.0780577
0.0983462
0.11717
0.134256
0.14936
0.162271
0.172817
0.180866
0.186329
0.189163
0.189369
0.186994
0.18213
0.174914
0.16552
0.154162
0.141085
0.126563
0.110891
0.0943816
0.0773555
0.0601358
0.0430407
0.0263763
0.0104297
-0.00453748
-0.0182948
-0.030648
-0.0414429
-0.0505679
-0.0579553
-0.0635808
-0.0674621
-0.0696552
-0.07025
-0.0693646
-0.0671384
-0.0637254
-0.0592861
-0.0539813
-0.0479656
-0.0413821
-0.0343592
-0.0270089
-0.0194288
-0.0117226
-0.0039262
0.0116381
0.0347376
0.0573207
0.079057
0.0996238
0.118722
0.136077
0.151447
0.164622
0.175431
0.183746
0.189482
0.192599
0.193105
0.191053
0.186541
0.179713
0.170752
0.159879
0.147346
0.133434
0.118445
0.102697
0.0865112
0.0702131
0.0541181
0.0385271
0.0237176
0.00993794
-0.00259948
-0.013723
-0.0233057
-0.0312674
-0.0375762
-0.0422464
-0.0453365
-0.0469444
-0.0472011
-0.0462629
-0.0443035
-0.0415042
-0.0380448
-0.0340951
-0.0298073
-0.0253097
-0.0207032
-0.0160599
-0.0114264
-0.00684845
-0.00229009
0.0117689
0.03513
0.0579741
0.0799702
0.100796
0.120153
0.137768
0.153399
0.16684
0.177924
0.186525
0.192563
0.196004
0.196863
0.195199
0.19112
0.184776
0.17636
0.166101
0.154261
0.141129
0.127012
0.112234
0.0971196
0.0819941
0.0671702
0.0529415
0.0395742
0.0273002
0.0163097
0.00674687
-0.00129475
-0.00777406
-0.0127027
-0.0161434
-0.0182055
-0.0190391
-0.018827
-0.0177746
-0.0160989
-0.0140171
-0.0117344
-0.00943319
-0.00726378
-0.00533696
-0.00371966
-0.00243409
-0.00146292
-0.000777723
-0.000251932
0.0118852
0.0354794
0.0585574
0.0807889
0.101853
0.121452
0.139315
0.155204
0.168915
0.180284
0.189192
0.195565
0.199376
0.200645
0.199443
0.195886
0.190134
0.182389
0.172891
0.161912
0.149749
0.136718
0.123148
0.109367
0.0957018
0.0824601
0.0699276
0.0583566
0.0479593
0.0388996
0.0312884
0.0251788
0.0205646
0.0173806
0.015505
0.0147652
0.0149457
0.0157988
0.017057
0.0184474
0.0197064
0.0205953
0.0209134
0.020511
0.0192976
0.0172476
0.0144004
0.0108539
0.00672984
0.0022692
0.011986
0.0357828
0.0590659
0.0815066
0.102786
0.12261
0.14071
0.156851
0.170835
0.182504
0.191744
0.198487
0.202717
0.204462
0.203803
0.200866
0.195823
0.188889
0.180315
0.170383
0.159402
0.147697
0.135602
0.123453
0.111573
0.100268
0.0898145
0.0804479
0.0723575
0.0656765
0.0604761
0.0567615
0.0544695
0.0534698
0.0535685
0.0545151
0.0560132
0.0577335
0.0593299
0.0604579
0.0607935
0.060053
0.0580102
0.0545129
0.0494935
0.0429759
0.0350757
0.0259908
0.0159606
0.0053698
0.0120707
0.0360381
0.059496
0.0821186
0.103591
0.123621
0.141946
0.158336
0.172598
0.18458
0.194178
0.201332
0.206035
0.208326
0.208298
0.206089
0.201886
0.195915
0.188443
0.179764
0.1702
0.160087
0.149767
0.139581
0.129855
0.120889
0.112949
0.106254
0.100967
0.097184
0.0949316
0.0941576
0.0947315
0.0964447
0.0990157
0.102099
0.105298
0.108181
0.110303
0.111227
0.110552
0.107933
0.103108
0.095916
0.0863155
0.0743889
0.0603446
0.0445048
0.0272567
0.00916529
0.0121388
0.0362441
0.0598457
0.0826225
0.104263
0.124481
0.14302
0.159655
0.1742
0.186514
0.196498
0.204106
0.20934
0.212253
0.212951
0.211588
0.208364
0.203524
0.197347
0.190147
0.182258
0.17403
0.165816
0.157963
0.1508
0.144625
0.139691
0.136199
0.134283
0.133999
0.135319
0.138127
0.142211
0.147271
0.152919
0.158694
0.164076
0.168506
0.171415
0.172248
0.170501
0.165747
0.157674
0.146107
0.131027
0.112586
0.0911063
0.067063
0.0410287
0.0137942
0.0121901
0.0364004
0.0601146
0.0830174
0.104803
0.125191
0.143932
0.16081
0.175646
0.188308
0.198711
0.206819
0.212646
0.216263
0.21779
0.217397
0.215303
0.211771
0.207101
0.201622
0.195689
0.189666
0.18392
0.178808
0.174664
0.171782
0.170407
0.17072
0.172822
0.176725
0.182343
0.189481
0.197837
0.207
0.216457
0.225607
0.233779
0.240256
0.24431
0.245238
0.242399
0.235261
0.223438
0.206726
0.18513
0.158882
0.128439
0.0944672
0.0577708
0.0194235
0.0122249
0.0365074
0.0603035
0.0833048
0.105212
0.125754
0.144687
0.161805
0.17694
0.189972
0.200827
0.209483
0.215971
0.220377
0.22284
0.22355
0.222746
0.220713
0.217772
0.214276
0.2106
0.207128
0.204244
0.202319
0.201693
0.202662
0.205462
0.210254
0.217107
0.225984
0.236732
0.249073
0.262597
0.276765
0.290916
0.304281
0.316003
0.325171
0.33086
0.332171
0.328291
0.318542
0.302435
0.279719
0.250417
0.214851
0.17364
0.127685
0.0780806
0.0262554
0.0122435
0.0365665
0.0604146
0.0834878
0.105495
0.126173
0.145289
0.162647
0.178092
0.191515
0.202858
0.212114
0.219332
0.224617
0.228128
0.230079
0.230733
0.230399
0.229424
0.228187
0.227089
0.226539
0.226941
0.228685
0.232122
0.237553
0.245209
0.255232
0.267659
0.282402
0.299237
0.31779
0.337532
0.357776
0.377687
0.396294
0.412517
0.425207
0.433187
0.435314
0.430546
0.418009
0.397071
0.367404
0.329037
0.28239
0.228279
0.167891
0.102685
0.034536
0.0122466
0.0365798
0.0604513
0.083571
0.105657
0.126456
0.145748
0.163347
0.179112
0.19295
0.204817
0.214727
0.222746
0.229002
0.233679
0.237014
0.239299
0.240871
0.242108
0.243421
0.245239
0.248002
0.252142
0.258071
0.266159
0.276717
0.289975
0.306061
0.32498
0.346595
0.370605
0.396533
0.423717
0.451303
0.478252
0.503358
0.525271
0.542547
0.553697
0.557266
0.551912
0.536499
0.510192
0.472545
0.423571
0.363795
0.294264
0.216519
0.132474
0.0445665
0.0122353
0.0365499
0.0604181
0.0835609
0.105706
0.126614
0.146074
0.163916
0.180015
0.194291
0.206721
0.217338
0.226231
0.233553
0.239512
0.244377
0.24847
0.252161
0.255864
0.260025
0.26511
0.271596
0.279949
0.29061
0.303977
0.320377
0.340046
0.363106
0.389534
0.419144
0.451559
0.486195
0.522242
0.558659
0.594177
0.627311
0.656391
0.679613
0.6951
0.700998
0.695574
0.67734
0.645177
0.598456
0.537141
0.46186
0.37393
0.275328
0.168541
0.0567187
0.0122105
0.0364804
0.0603208
0.083465
0.105653
0.126656
0.14628
0.164369
0.180813
0.195553
0.208584
0.219962
0.229802
0.238282
0.245642
0.252183
0.258261
0.264286
0.270712
0.278025
0.286738
0.297368
0.310426
0.326393
0.3457
0.368702
0.395652
0.426671
0.461721
0.500572
0.542773
0.587629
0.634176
0.681168
0.727075
0.770093
0.808172
0.839072
0.860437
0.869902
0.865227
0.844448
0.80605
0.749129
0.67354
0.580004
0.470153
0.346496
0.212245
0.0714541
0.0121736
0.0363752
0.0601656
0.083292
0.105507
0.126596
0.14638
0.164719
0.181522
0.19675
0.210421
0.222614
0.233471
0.243201
0.252076
0.260435
0.268674
0.277245
0.286648
0.29742
0.310122
0.325325
0.343592
0.365454
0.391388
0.42179
0.456941
0.496978
0.541855
0.591312
0.644833
0.701613
0.760533
0.820127
0.878578
0.933719
0.983058
1.02383
1.05309
1.06783
1.06515
1.04243
0.997619
0.929391
0.837405
0.722445
0.5865
0.432737
0.265284
0.0893506
0.0121261
0.0362384
0.0599596
0.0830515
0.10528
0.126446
0.146387
0.164982
0.182158
0.197898
0.212244
0.225301
0.237243
0.248309
0.258811
0.269125
0.279693
0.291016
0.303645
0.318174
0.335222
0.355425
0.379405
0.407759
0.441023
0.479648
0.523962
0.574131
0.630126
0.691668
0.758192
0.828799
0.902212
0.976745
1.05027
1.12022
1.1836
1.23702
1.27681
1.29915
1.30027
1.27672
1.22565
1.14512
1.03445
0.894423
0.727437
0.537463
0.329798
0.111138
0.0120696
0.0360749
0.0597104
0.0827536
0.104985
0.126222
0.146318
0.165173
0.182735
0.199009
0.214063
0.228031
0.241119
0.253603
0.265833
0.27823
0.291285
0.305552
0.321643
0.340214
0.361954
0.387569
0.417759
0.453196
0.494494
0.542176
0.596636
0.658098
0.726565
0.801771
0.883124
0.96965
1.05993
1.15208
1.24363
1.33159
1.41239
1.48193
1.53566
1.56875
1.57632
1.55374
1.49707
1.4035
1.27175
1.1025
0.898598
0.665001
0.40851
0.137745
0.0120056
0.0358895
0.0594259
0.0824089
0.104634
0.125936
0.146188
0.165307
0.183266
0.200093
0.215885
0.230805
0.245094
0.259066
0.273114
0.287708
0.303392
0.32078
0.340549
0.363426
0.390179
0.421597
0.458469
0.50156
0.551578
0.609143
0.674738
0.748669
0.831009
0.921533
1.01966
1.12438
1.23416
1.34692
1.4599
1.56965
1.67197
1.76196
1.83403
1.88209
1.89981
1.88104
1.82028
1.71339
1.55817
1.355
1.10716
0.820887
0.50491
0.170363
0.0119359
0.0356872
0.0591142
0.082028
0.10424
0.125603
0.146009
0.165398
0.183763
0.201159
0.217712
0.233618
0.249153
0.264673
0.280615
0.297503
0.315938
0.336599
0.360234
0.387651
0.419705
0.457281
0.501269
0.552546
0.611935
0.680173
0.757866
0.845434
0.943055
1.05059
1.16752
1.29285
1.42499
1.5617
1.69997
1.8359
1.96467
2.08045
2.17647
2.24511
2.27821
2.26754
2.20544
2.08578
1.90489
1.6625
1.36237
1.01227
0.62351
0.210535
0.0118622
0.0354729
0.0587832
0.0816215
0.103816
0.125237
0.145798
0.165457
0.184235
0.202213
0.219544
0.236461
0.253275
0.270386
0.288282
0.307539
0.328821
0.352876
0.380532
0.412683
0.450281
0.494318
0.545803
0.605739
0.675087
0.754729
0.845424
0.947747
1.06203
1.18827
1.32607
1.47451
1.63203
1.79634
1.96421
2.13138
2.29239
2.44049
2.56757
2.66419
2.71991
2.72371
2.66492
2.53442
2.32619
2.03875
1.67621
1.24844
0.770174
0.26026
0.0117861
0.0352515
0.0584408
0.0811999
0.103373
0.124851
0.145564
0.165497
0.18469
0.203255
0.221375
0.239315
0.257429
0.27616
0.296047
0.317722
0.341916
0.369451
0.401239
0.438267
0.481595
0.532333
0.591621
0.660608
0.740416
0.8321
0.936605
1.0547
1.18693
1.33349
1.49419
1.66827
1.85432
2.05007
2.25224
2.45632
2.65632
2.84458
3.01159
3.14587
3.23413
3.26175
3.21379
3.07668
2.84053
2.50167
2.06446
1.54159
0.952546
0.322141
0.0117092
0.035028
0.0580946
0.0807728
0.102924
0.124456
0.145321
0.165524
0.185133
0.204284
0.223192
0.24216
0.261578
0.281937
0.303827
0.32794
0.355076
0.386135
0.422114
0.464106
0.513281
0.570878
0.638185
0.716512
0.807162
0.911394
1.03038
1.16512
1.31643
1.48479
1.67029
1.87245
2.09013
2.32128
2.56273
2.80991
3.05652
3.29418
3.51203
3.6964
3.8307
3.89567
3.87044
3.73467
3.47214
3.07513
2.54804
1.9077
1.18056
0.399532
0.0116331
0.0348067
0.0577519
0.0803497
0.102478
0.124063
0.145077
0.165547
0.185565
0.205294
0.224983
0.244966
0.265676
0.287649
0.311528
0.338068
0.368135
0.402711
0.442887
0.489857
0.544915
0.609437
0.684867
0.772694
0.874424
0.991544
1.12548
1.27754
1.44884
1.64023
1.85218
2.08465
2.33689
2.60729
2.89305
3.18986
3.49144
3.78904
4.07078
4.32094
4.51935
4.6411
4.65717
4.53696
4.25348
3.79149
3.15497
2.36776
1.46695
0.496678
0.0115592
0.034592
0.0574193
0.079939
0.102045
0.123681
0.14484
0.16557
0.185985
0.206279
0.226726
0.2477
0.269671
0.293221
0.319047
0.347963
0.380909
0.418945
0.463255
0.515145
0.576032
0.647435
0.730965
0.828302
0.941172
1.07132
1.22045
1.39022
1.58212
1.79743
2.03712
2.3017
2.59105
2.90422
3.23909
3.59202
3.95728
4.32638
4.6871
5.02229
5.30848
5.51445
5.60062
5.52081
5.22931
4.69575
3.92318
2.94887
1.8275
0.618708
0.0114889
0.0343877
0.057103
0.0795486
0.101633
0.12332
0.144617
0.165595
0.186392
0.207225
0.228401
0.250324
0.273506
0.298572
0.326271
0.357478
0.393201
0.434582
0.482899
0.539566
0.606126
0.684248
0.775713
0.882401
1.00627
1.14934
1.31363
1.50116
1.71387
1.95355
2.22175
2.51969
2.84806
3.20683
3.59495
4.00996
4.44736
4.89983
5.35601
5.79873
6.20261
6.53078
6.73131
6.73542
6.46382
5.85293
4.90415
3.68479
2.28035
0.771243
0.0114235
0.0341974
0.0568085
0.0791853
0.101251
0.122985
0.144413
0.165625
0.18678
0.208121
0.229982
0.252799
0.277121
0.303617
0.333085
0.366457
0.404808
0.44936
0.501483
0.562697
0.634672
0.719222
0.818303
0.933996
1.0685
1.22411
1.4032
1.60817
1.84145
2.10538
2.40221
2.73398
3.10236
3.50853
3.95289
4.43469
4.9515
5.49835
6.06644
6.64106
7.19816
7.6988
8.08048
8.24553
8.05488
7.36243
6.16714
4.61385
2.84293
0.959116
0.0113639
0.0340244
0.0565408
0.0788553
0.100905
0.122682
0.144231
0.165658
0.187143
0.208951
0.231442
0.255083
0.280456
0.30827
0.339369
0.374742
0.415525
0.463016
0.518671
0.584114
0.661135
0.751691
0.857907
0.982065
1.1266
1.2941
1.48726
1.70892
1.96198
2.24941
2.5742
2.93929
3.34752
3.80147
4.30332
4.85459
5.45571
6.10536
6.79939
7.5289
8.27674
9.01064
9.66907
10.1318
10.1655
9.38969
7.79992
5.76884
3.52364
1.18343
0.0113112
0.0338715
0.0563042
0.0785637
0.100599
0.122416
0.144074
0.165694
0.187474
0.209701
0.232756
0.257134
0.283449
0.312446
0.34501
0.382181
0.425153
0.475291
0.534133
0.603399
0.68499
0.780999
0.893708
1.02559
1.17931
1.35773
1.56388
1.801
2.0725
2.38196
2.73315
3.12997
3.57646
4.0768
4.63517
5.25573
5.94239
6.6986
7.52672
8.4272
9.39662
10.4235
11.4768
12.4681
13.1041
12.2462
9.88617
7.1465
4.30476
1.43649
0.0112664
0.0337411
0.0561025
0.0783152
0.100339
0.122191
0.143942
0.165729
0.187765
0.210353
0.233897
0.258914
0.286044
0.316065
0.3499
0.38863
0.433503
0.485943
0.54756
0.620159
0.705742
0.806522
0.924925
1.0636
1.22542
1.41349
1.63117
1.88207
2.17008
2.49938
2.87446
3.3002
3.78186
4.32518
4.93646
5.62262
6.39135
7.2513
8.21234
9.28607
10.4871
11.8362
13.3708
15.181
17.5555
16.6207
12.3645
8.63498
5.11792
1.6964
0.0112301
0.0336358
0.055939
0.0781132
0.100127
0.122008
0.143837
0.165762
0.188009
0.210896
0.234842
0.260386
0.288189
0.319056
0.35394
0.39396
0.440406
0.494753
0.558672
0.634038
0.722941
0.827695
0.950849
1.0952
1.2638
1.45999
1.68739
1.94994
2.25197
2.59817
2.99373
3.44438
3.95652
4.53737
5.19517
5.93948
6.78156
7.73498
8.81654
10.0478
11.4581
13.0902
15.0136
17.3519
20.3352
19.3329
14.3286
9.91999
5.8412
1.9298
0.011203
0.0335577
0.0558169
0.0779607
0.099967
0.12187
0.143759
0.165789
0.188198
0.211314
0.235571
0.261519
0.289839
0.321356
0.357049
0.398061
0.445719
0.501536
0.56723
0.644734
0.736202
0.844032
0.970869
1.11963
1.29351
1.49602
1.73101
2.0027
2.31573
2.67526
3.08703
3.55748
4.09396
4.70491
5.40023
6.19166
7.09345
8.12313
9.30285
10.6612
12.2363
14.0802
16.2666
18.9001
22.12
21.0632
15.7102
10.8842
6.40282
2.11364
0.0111846
0.0335078
0.0557385
0.0778593
0.0998597
0.121778
0.143707
0.165809
0.188328
0.2116
0.236066
0.262288
0.29096
0.322919
0.359159
0.400846
0.449327
0.506144
0.573046
0.652004
0.745221
0.855148
0.9845
1.13627
1.31377
1.52061
1.76081
2.03878
2.3594
2.72815
3.15114
3.63535
4.18879
4.8208
5.54244
6.36703
7.31088
8.39424
9.64272
11.089
12.7751
14.7552
17.0977
19.8845
23.2013
22.1063
16.5779
11.513
6.77804
2.23787
0.0111695
0.0334753
0.0556973
0.0778082
0.0998059
0.121731
0.143681
0.16582
0.188394
0.211744
0.236316
0.262677
0.291526
0.323708
0.360225
0.402252
0.451149
0.508471
0.575984
0.655678
0.749781
0.86077
0.991396
1.1447
1.32402
1.53307
1.77592
2.05709
2.38159
2.75504
3.18377
3.67503
4.23718
4.88002
5.61523
6.45693
7.42248
8.53352
9.81726
11.3082
13.0497
15.0956
17.5098
20.3619
23.7143
22.5997
16.9951
11.821
6.96436
2.29996
)
;

boundaryField
{
    walls
    {
        type            calculated;
        value           nonuniform List<scalar> 
200
(
0.0111695
0.0334753
0.0556973
0.0778082
0.0998059
0.121731
0.143681
0.16582
0.188394
0.211744
0.236316
0.262677
0.291526
0.323708
0.360225
0.402252
0.451149
0.508471
0.575984
0.655678
0.749781
0.86077
0.991396
1.1447
1.32402
1.53307
1.77592
2.05709
2.38159
2.75504
3.18377
3.67503
4.23718
4.88002
5.61523
6.45693
7.42248
8.53352
9.81726
11.3082
13.0497
15.0956
17.5098
20.3619
23.7143
22.5997
16.9951
11.821
6.96436
2.29996
0
0
0
0
0
0
0
0
0
0
0
0
0
0
0
0
0
0
0
0
0
0
0
0
0
0
0
0
0
0
0
0
0
0
0
0
0
0
0
0
0
0
0
0
0
0
0
0
0
0
0
0
0
0
0
0
0
0
0
0
0
0
0
0
0
0
0
0
0
0
0
0
0
0
0
0
0
0
0
0
0
0
0
0
0
0
0
0
0
0
0
0
0
0
0
0
0
0
0
0
0.00903875
0.0269559
0.0444483
0.0612594
0.0771086
0.0917473
0.104946
0.116497
0.126219
0.133959
0.139597
0.143043
0.144244
0.143181
0.139871
0.134368
0.126759
0.117166
0.10574
0.0926638
0.0781444
0.0624129
0.0457189
0.0283275
0.0105146
-0.00743727
-0.0252438
-0.0426232
-0.0593009
-0.0750136
-0.0895139
-0.102574
-0.113989
-0.123582
-0.131202
-0.136732
-0.140089
-0.141222
-0.140116
-0.136791
-0.131304
-0.123743
-0.11423
-0.102916
-0.0899813
-0.075631
-0.0600921
-0.0436103
-0.0264452
-0.00886249
)
;
    }
    frontAndBack
    {
        type            empty;
    }
}


// ************************************************************************* //
