/*--------------------------------*- C++ -*----------------------------------*\
| =========                 |                                                 |
| \\      /  F ield         | OpenFOAM: The Open Source CFD Toolbox           |
|  \\    /   O peration     | Version:  2406                                  |
|   \\  /    A nd           | Website:  www.openfoam.com                      |
|    \\/     M anipulation  |                                                 |
\*---------------------------------------------------------------------------*/
FoamFile
{
    version     2.0;
    format      ascii;
    arch        "LSB;label=32;scalar=64";
    class       volScalarField;
    location    "0.6";
    object      T;
}
// * * * * * * * * * * * * * * * * * * * * * * * * * * * * * * * * * * * * * //

dimensions      [0 0 0 1 0 0 0];

internalField   nonuniform List<scalar> 
2500
(
0.144273
0.144635
0.145352
0.146413
0.147802
0.149497
0.151472
0.153695
0.156132
0.158744
0.16149
0.164328
0.167212
0.170097
0.172939
0.175692
0.178314
0.180763
0.183
0.184992
0.186707
0.188118
0.189203
0.189947
0.190337
0.190367
0.190039
0.189358
0.188334
0.186986
0.185334
0.183405
0.181231
0.178845
0.176287
0.173597
0.170818
0.167994
0.165169
0.162389
0.159698
0.157137
0.154748
0.152568
0.150631
0.148969
0.147606
0.146565
0.145862
0.145507
0.144635
0.144997
0.145716
0.14678
0.148172
0.149871
0.151851
0.15408
0.156522
0.159141
0.161894
0.164739
0.16763
0.170523
0.173372
0.176132
0.178761
0.181216
0.18346
0.185458
0.187178
0.188593
0.189683
0.19043
0.190822
0.190855
0.190528
0.189847
0.188824
0.187475
0.185822
0.183892
0.181716
0.179328
0.176768
0.174075
0.171293
0.168465
0.165638
0.162854
0.16016
0.157597
0.155205
0.153022
0.151084
0.149419
0.148055
0.147013
0.146309
0.145954
0.145352
0.145716
0.146438
0.147507
0.148906
0.150614
0.152603
0.154842
0.157297
0.159928
0.162695
0.165554
0.16846
0.171367
0.174231
0.177005
0.179648
0.182116
0.184373
0.186382
0.188112
0.189537
0.190635
0.191388
0.191786
0.191823
0.191499
0.19082
0.189797
0.188448
0.186793
0.18486
0.18268
0.180288
0.177723
0.175025
0.172237
0.169404
0.16657
0.163781
0.161081
0.158512
0.156116
0.153929
0.151986
0.150318
0.148951
0.147907
0.147202
0.146846
0.146413
0.14678
0.147507
0.148583
0.149993
0.151713
0.153716
0.155972
0.158444
0.161095
0.163881
0.166761
0.169688
0.172618
0.175503
0.178298
0.180961
0.183449
0.185724
0.187751
0.189497
0.190936
0.192046
0.192809
0.193216
0.19326
0.19294
0.192264
0.191242
0.189892
0.188235
0.186299
0.184114
0.181717
0.179145
0.176439
0.173644
0.170803
0.167961
0.165165
0.162457
0.159881
0.157477
0.155284
0.153336
0.151663
0.150293
0.149246
0.148538
0.148182
0.147802
0.148172
0.148906
0.149993
0.151415
0.153151
0.155173
0.15745
0.159946
0.162621
0.165434
0.168342
0.171297
0.174254
0.177168
0.179991
0.182681
0.185196
0.187495
0.189544
0.191311
0.192769
0.193895
0.194673
0.195091
0.195144
0.194832
0.19416
0.19314
0.19179
0.190131
0.188192
0.186002
0.183599
0.181019
0.178306
0.175502
0.172652
0.169801
0.166995
0.164279
0.161694
0.159283
0.157083
0.155129
0.153451
0.152076
0.151026
0.150316
0.149958
0.149497
0.149871
0.150614
0.151713
0.153151
0.154907
0.156952
0.159254
0.161778
0.164484
0.16733
0.170271
0.173261
0.176253
0.179201
0.182059
0.184782
0.187328
0.189658
0.191736
0.193529
0.19501
0.196157
0.196953
0.197386
0.197452
0.197149
0.196484
0.195468
0.19412
0.192461
0.190519
0.188325
0.185916
0.18333
0.180609
0.177797
0.174938
0.172078
0.169264
0.166539
0.163946
0.161527
0.15932
0.15736
0.155677
0.154298
0.153244
0.152533
0.152174
0.151472
0.151851
0.152603
0.153716
0.155173
0.156952
0.159023
0.161356
0.163913
0.166655
0.169539
0.172519
0.175549
0.178582
0.181571
0.184469
0.187232
0.189816
0.192182
0.194293
0.196117
0.197627
0.198799
0.199618
0.20007
0.200152
0.199862
0.199207
0.198198
0.196855
0.195198
0.193256
0.19106
0.188647
0.186057
0.18333
0.180511
0.177646
0.174779
0.171958
0.169226
0.166627
0.164203
0.16199
0.160025
0.158338
0.156956
0.1559
0.155187
0.154828
0.153695
0.15408
0.154842
0.155972
0.15745
0.159254
0.161356
0.163723
0.166318
0.1691
0.172026
0.175051
0.178127
0.181207
0.184242
0.187186
0.189994
0.192621
0.195028
0.197179
0.199039
0.200582
0.201785
0.202631
0.203107
0.203209
0.202936
0.202295
0.201298
0.199963
0.198312
0.196374
0.194181
0.191769
0.189178
0.186449
0.183628
0.18076
0.177891
0.175067
0.172332
0.169731
0.167304
0.165089
0.163123
0.161435
0.160051
0.158995
0.158281
0.157921
0.156132
0.156522
0.157297
0.158444
0.159946
0.161778
0.163913
0.166318
0.168954
0.171781
0.174754
0.177828
0.180955
0.184086
0.187173
0.190168
0.193026
0.195702
0.198156
0.200351
0.202253
0.203835
0.205074
0.205951
0.206457
0.206584
0.206334
0.205713
0.204732
0.203411
0.201772
0.199844
0.197659
0.195254
0.192669
0.189946
0.18713
0.184266
0.1814
0.17858
0.175849
0.173251
0.170828
0.168617
0.166653
0.164968
0.163587
0.162532
0.16182
0.16146
0.158744
0.159141
0.159928
0.161095
0.162621
0.164484
0.166655
0.1691
0.171781
0.174655
0.17768
0.180807
0.183989
0.187176
0.190319
0.193371
0.196284
0.199013
0.201519
0.203763
0.205713
0.207339
0.208619
0.209535
0.210075
0.210235
0.210014
0.209419
0.208463
0.207163
0.205545
0.203635
0.201467
0.199078
0.196508
0.1938
0.190998
0.188148
0.185296
0.182489
0.179772
0.177186
0.174775
0.172575
0.170622
0.168945
0.167572
0.166523
0.165814
0.165457
0.16149
0.161894
0.162695
0.163881
0.165434
0.16733
0.169539
0.172026
0.174754
0.17768
0.180759
0.183943
0.187183
0.19043
0.193634
0.196745
0.199718
0.202506
0.205069
0.207368
0.20937
0.211046
0.212374
0.213334
0.213917
0.214116
0.213933
0.213373
0.21245
0.211183
0.209595
0.207714
0.205575
0.203215
0.200673
0.197992
0.195218
0.192396
0.189572
0.186792
0.1841
0.18154
0.179152
0.176975
0.175041
0.173382
0.172023
0.170985
0.170284
0.16993
0.164328
0.164739
0.165554
0.166761
0.168342
0.170271
0.172519
0.175051
0.177828
0.180807
0.183943
0.187186
0.190488
0.193798
0.197066
0.200242
0.203278
0.206129
0.208754
0.211113
0.213174
0.214907
0.216289
0.217302
0.217935
0.218183
0.218047
0.217533
0.216655
0.215432
0.213888
0.212052
0.209957
0.207641
0.205144
0.202508
0.19978
0.197003
0.194224
0.191489
0.188841
0.186322
0.183974
0.181833
0.179932
0.178301
0.176965
0.175945
0.175257
0.17491
0.167212
0.16763
0.16846
0.169688
0.171297
0.173261
0.175549
0.178127
0.180955
0.183989
0.187183
0.190488
0.193854
0.19723
0.200565
0.203808
0.206912
0.209831
0.212522
0.214947
0.217073
0.218869
0.220313
0.221388
0.222081
0.222389
0.222312
0.221858
0.221039
0.219876
0.218393
0.216619
0.214587
0.212336
0.209905
0.207337
0.204677
0.201969
0.199258
0.19659
0.194008
0.191553
0.189264
0.187178
0.185326
0.183738
0.182438
0.181445
0.180775
0.180437
0.170097
0.170523
0.171367
0.172618
0.174254
0.176253
0.178582
0.181207
0.184086
0.187176
0.19043
0.193798
0.19723
0.200674
0.204078
0.207392
0.210567
0.213557
0.21632
0.218817
0.221014
0.222882
0.224397
0.225543
0.226309
0.226689
0.226686
0.226307
0.225565
0.224482
0.22308
0.221391
0.219447
0.217285
0.214947
0.212474
0.209911
0.2073
0.204687
0.202116
0.199627
0.197263
0.195059
0.193051
0.19127
0.189743
0.188493
0.187539
0.186895
0.186571
0.172939
0.173372
0.174231
0.175503
0.177168
0.179201
0.181571
0.184242
0.187173
0.190319
0.193634
0.197066
0.200565
0.204078
0.207553
0.210941
0.214191
0.217257
0.220097
0.222671
0.224947
0.226895
0.228492
0.229721
0.230572
0.23104
0.231127
0.230842
0.230199
0.229218
0.227924
0.226347
0.22452
0.22248
0.220268
0.217924
0.215492
0.213015
0.210536
0.208096
0.205737
0.203496
0.201409
0.199509
0.197824
0.196381
0.1952
0.1943
0.193692
0.193386
0.175692
0.176132
0.177005
0.178298
0.179991
0.182059
0.184469
0.187186
0.190168
0.193371
0.196745
0.200242
0.203808
0.207392
0.210941
0.214404
0.217732
0.220878
0.2238
0.226459
0.228822
0.230859
0.232549
0.233875
0.234827
0.235401
0.235599
0.235432
0.234912
0.234062
0.232906
0.231474
0.229799
0.227919
0.225872
0.223699
0.221442
0.219142
0.21684
0.214577
0.212389
0.210314
0.208382
0.206626
0.20507
0.203739
0.202651
0.201821
0.201262
0.20098
0.178314
0.178761
0.179648
0.180961
0.182681
0.184782
0.187232
0.189994
0.193026
0.196284
0.199718
0.203278
0.206912
0.210567
0.214191
0.217732
0.221141
0.224372
0.227382
0.230133
0.232592
0.23473
0.236526
0.237964
0.239035
0.239736
0.240069
0.240046
0.23968
0.238994
0.238012
0.236764
0.235285
0.233609
0.231776
0.229824
0.227794
0.225724
0.223653
0.221619
0.219655
0.217795
0.216067
0.214498
0.213111
0.211926
0.210959
0.210222
0.209726
0.209476
0.180763
0.181216
0.182116
0.183449
0.185196
0.187328
0.189816
0.192621
0.195702
0.199013
0.202506
0.206129
0.209831
0.213557
0.217257
0.220878
0.224372
0.227692
0.230797
0.233648
0.236213
0.238465
0.240382
0.241951
0.243161
0.244013
0.244509
0.244661
0.244484
0.244001
0.243236
0.242221
0.240987
0.23957
0.238008
0.236337
0.234595
0.232819
0.231043
0.229302
0.227626
0.226042
0.224575
0.223247
0.222076
0.221079
0.220267
0.21965
0.219235
0.219026
0.183
0.18346
0.184373
0.185724
0.187495
0.189658
0.192182
0.195028
0.198156
0.201519
0.205069
0.208754
0.212522
0.21632
0.220097
0.2238
0.227382
0.230797
0.234003
0.236963
0.239646
0.242026
0.244082
0.245801
0.247176
0.248206
0.248898
0.249261
0.249315
0.24908
0.248583
0.247854
0.246925
0.245831
0.244607
0.243288
0.241909
0.240502
0.239099
0.237727
0.236413
0.235178
0.234042
0.233019
0.232123
0.231364
0.230749
0.230283
0.229972
0.229815
0.184992
0.185458
0.186382
0.187751
0.189544
0.191736
0.194293
0.197179
0.200351
0.203763
0.207368
0.211113
0.214947
0.218817
0.222671
0.226459
0.230133
0.233648
0.236963
0.240043
0.242857
0.24538
0.247595
0.249488
0.251055
0.252297
0.25322
0.253838
0.254169
0.254235
0.254065
0.253687
0.253133
0.252436
0.251629
0.250746
0.249816
0.248868
0.247928
0.247018
0.246156
0.245358
0.244634
0.243994
0.243442
0.242981
0.242614
0.242339
0.242157
0.242065
0.186707
0.187178
0.188112
0.189497
0.191311
0.193529
0.196117
0.199039
0.202253
0.205713
0.20937
0.213174
0.217073
0.221014
0.224947
0.228822
0.232592
0.236213
0.239646
0.242857
0.245817
0.248502
0.250897
0.252992
0.254782
0.256271
0.257469
0.258389
0.259052
0.259481
0.259704
0.259751
0.259652
0.25944
0.259144
0.258794
0.258416
0.258033
0.257663
0.257322
0.257019
0.256761
0.25655
0.256384
0.256259
0.25617
0.25611
0.256073
0.256052
0.256042
0.188118
0.188593
0.189537
0.190936
0.192769
0.19501
0.197627
0.200582
0.203835
0.207339
0.211046
0.214907
0.218869
0.222882
0.226895
0.230859
0.23473
0.238465
0.242026
0.24538
0.248502
0.25137
0.253971
0.256296
0.258346
0.260124
0.261644
0.262921
0.263978
0.26484
0.265534
0.266091
0.266541
0.266914
0.267237
0.267534
0.267827
0.268132
0.268459
0.268814
0.269197
0.269603
0.270021
0.270439
0.270841
0.271211
0.271531
0.271787
0.271965
0.272056
0.189203
0.189683
0.190635
0.192046
0.193895
0.196157
0.198799
0.201785
0.205074
0.208619
0.212374
0.216289
0.220313
0.224397
0.228492
0.232549
0.236526
0.240382
0.244082
0.247595
0.250897
0.253971
0.256805
0.259395
0.261743
0.263858
0.265754
0.267451
0.268972
0.270345
0.271599
0.272764
0.273869
0.274943
0.276008
0.277085
0.278189
0.279326
0.280498
0.281699
0.282916
0.284131
0.285318
0.286451
0.287499
0.288431
0.289218
0.289834
0.290258
0.290472
0.189947
0.19043
0.191388
0.192809
0.194673
0.196953
0.199618
0.202631
0.205951
0.209535
0.213334
0.217302
0.221388
0.225543
0.229721
0.233875
0.237964
0.241951
0.245801
0.249488
0.252992
0.256296
0.259395
0.262287
0.264978
0.267481
0.269814
0.271999
0.274064
0.276038
0.277951
0.279835
0.281718
0.283624
0.285575
0.287585
0.289659
0.291797
0.293987
0.296209
0.298436
0.300631
0.302753
0.304755
0.30659
0.308208
0.309565
0.310622
0.311345
0.311712
0.190337
0.190822
0.191786
0.193216
0.195091
0.197386
0.20007
0.203107
0.206457
0.210075
0.213917
0.217935
0.222081
0.226309
0.230572
0.234827
0.239035
0.243161
0.247176
0.251055
0.254782
0.258346
0.261743
0.264978
0.268062
0.27101
0.273847
0.276598
0.279295
0.281969
0.284655
0.287382
0.29018
0.29307
0.29607
0.299187
0.302418
0.30575
0.309159
0.312607
0.316048
0.319427
0.322678
0.325734
0.328523
0.330975
0.333026
0.334619
0.335709
0.33626
0.190367
0.190855
0.191823
0.19326
0.195144
0.197452
0.200152
0.203209
0.206584
0.210235
0.214116
0.218183
0.222389
0.226689
0.23104
0.235401
0.239736
0.244013
0.248206
0.252297
0.256271
0.260124
0.263858
0.267481
0.27101
0.274468
0.277882
0.281284
0.28471
0.288197
0.291779
0.295491
0.299359
0.303404
0.307639
0.312062
0.316663
0.321413
0.326273
0.331186
0.336083
0.340882
0.345493
0.349819
0.353762
0.357225
0.360117
0.362362
0.363896
0.364673
0.190039
0.190528
0.191499
0.19294
0.194832
0.197149
0.199862
0.202936
0.206334
0.210014
0.213933
0.218047
0.222312
0.226686
0.231127
0.235599
0.240069
0.244509
0.248898
0.25322
0.257469
0.261644
0.265754
0.269814
0.273847
0.277882
0.281953
0.2861
0.290363
0.294784
0.299403
0.304254
0.309366
0.314757
0.320436
0.326394
0.332607
0.339034
0.345614
0.352269
0.358901
0.3654
0.371643
0.377498
0.382832
0.387514
0.391426
0.39446
0.396533
0.397583
0.189358
0.189847
0.19082
0.192264
0.19416
0.196484
0.199207
0.202295
0.205713
0.209419
0.213373
0.217533
0.221858
0.226307
0.230842
0.235432
0.240046
0.244661
0.249261
0.253838
0.258389
0.262921
0.267451
0.271999
0.276598
0.281284
0.2861
0.291092
0.296309
0.301799
0.307605
0.313768
0.320317
0.32727
0.334628
0.342377
0.35048
0.358878
0.367488
0.376205
0.384901
0.393427
0.401621
0.40931
0.416317
0.422471
0.427613
0.431602
0.434328
0.43571
0.188334
0.188824
0.189797
0.191242
0.19314
0.195468
0.198198
0.201298
0.204732
0.208463
0.21245
0.216655
0.221039
0.225565
0.230199
0.234912
0.23968
0.244484
0.249315
0.254169
0.259052
0.263978
0.268972
0.274064
0.279295
0.28471
0.290363
0.296309
0.302606
0.309309
0.31647
0.324133
0.332331
0.341081
0.350383
0.360212
0.370517
0.381222
0.392219
0.40337
0.41451
0.425447
0.43597
0.445854
0.454872
0.462797
0.469423
0.474568
0.478084
0.479867
0.186986
0.187475
0.188448
0.189892
0.19179
0.19412
0.196855
0.199963
0.203411
0.207163
0.211183
0.215432
0.219876
0.224482
0.229218
0.234062
0.238994
0.244001
0.24908
0.254235
0.259481
0.26484
0.270345
0.276038
0.281969
0.288197
0.294784
0.301799
0.309309
0.31738
0.326074
0.335442
0.345522
0.356332
0.367868
0.380099
0.392961
0.406355
0.420145
0.434159
0.448185
0.461982
0.475279
0.487789
0.499217
0.509275
0.517692
0.524232
0.528705
0.530973
0.185334
0.185822
0.186793
0.188235
0.190131
0.192461
0.195198
0.198312
0.201772
0.205545
0.209595
0.213888
0.218393
0.22308
0.227924
0.232906
0.238012
0.243236
0.248583
0.254065
0.259704
0.265534
0.271599
0.277951
0.284655
0.291779
0.299403
0.307605
0.31647
0.326074
0.336492
0.347785
0.359998
0.373152
0.387244
0.402235
0.418048
0.434562
0.451611
0.46898
0.486407
0.503589
0.520185
0.535831
0.55015
0.562772
0.57335
0.581578
0.58721
0.590068
0.183405
0.183892
0.18486
0.186299
0.188192
0.190519
0.193256
0.196374
0.199844
0.203635
0.207714
0.212052
0.216619
0.221391
0.226347
0.231474
0.236764
0.242221
0.247854
0.253687
0.259751
0.266091
0.272764
0.279835
0.287382
0.295491
0.304254
0.313768
0.324133
0.335442
0.347785
0.361236
0.37585
0.391657
0.408655
0.4268
0.446004
0.466122
0.486957
0.508246
0.52967
0.550852
0.571367
0.590757
0.608543
0.624253
0.637441
0.647713
0.65475
0.658324
0.181231
0.181716
0.18268
0.184114
0.186002
0.188325
0.19106
0.194181
0.197659
0.201467
0.205575
0.209957
0.214587
0.219447
0.22452
0.229799
0.235285
0.240987
0.246925
0.253133
0.259652
0.266541
0.273869
0.281718
0.29018
0.299359
0.309366
0.320317
0.332331
0.345522
0.359998
0.37585
0.393149
0.411938
0.432219
0.453949
0.477028
0.501293
0.526509
0.552365
0.578475
0.604376
0.629544
0.653402
0.675349
0.69478
0.711126
0.723878
0.732624
0.73707
0.178845
0.179328
0.180288
0.181717
0.183599
0.185916
0.188647
0.191769
0.195254
0.199078
0.203215
0.207641
0.212336
0.217285
0.22248
0.227919
0.233609
0.23957
0.245831
0.252436
0.25944
0.266914
0.274943
0.283624
0.29307
0.303404
0.314757
0.32727
0.341081
0.356332
0.373152
0.391657
0.411938
0.434054
0.458021
0.4838
0.511285
0.540295
0.570562
0.601722
0.633312
0.664774
0.695462
0.724657
0.751602
0.775527
0.795702
0.811471
0.822302
0.827812
0.176287
0.176768
0.177723
0.179145
0.181019
0.18333
0.186057
0.189178
0.192669
0.196508
0.200673
0.205144
0.209905
0.214947
0.220268
0.225872
0.231776
0.238008
0.244607
0.251629
0.259144
0.267237
0.276008
0.285575
0.29607
0.307639
0.320436
0.334628
0.350383
0.367868
0.387244
0.408655
0.432219
0.458021
0.486096
0.516417
0.548882
0.583296
0.61936
0.656657
0.694644
0.73265
0.769885
0.805461
0.838421
0.867788
0.89262
0.912074
0.925456
0.93227
0.173597
0.174075
0.175025
0.176439
0.178306
0.180609
0.18333
0.186449
0.189946
0.1938
0.197992
0.202508
0.207337
0.212474
0.217924
0.223699
0.229824
0.236337
0.243288
0.250746
0.258794
0.267534
0.277085
0.287585
0.299187
0.312062
0.326394
0.342377
0.360212
0.380099
0.402235
0.4268
0.453949
0.4838
0.516417
0.551798
0.589853
0.630385
0.673071
0.717444
0.762876
0.808572
0.853577
0.89679
0.937008
0.972986
1.00351
1.02748
1.044
1.05242
0.170818
0.171293
0.172237
0.173644
0.175502
0.177797
0.180511
0.183628
0.18713
0.190998
0.195218
0.19978
0.204677
0.209911
0.215492
0.221442
0.227794
0.234595
0.241909
0.249816
0.258416
0.267827
0.278189
0.289659
0.302418
0.316663
0.332607
0.35048
0.370517
0.392961
0.418048
0.446004
0.477028
0.511285
0.548882
0.589853
0.634137
0.681549
0.731757
0.784251
0.838324
0.893048
0.947273
0.999645
1.04865
1.09269
1.1302
1.15974
1.18014
1.19055
0.167994
0.168465
0.169404
0.170803
0.172652
0.174938
0.177646
0.18076
0.184266
0.188148
0.192396
0.197003
0.201969
0.2073
0.213015
0.219142
0.225724
0.232819
0.240502
0.248868
0.258033
0.268132
0.279326
0.291797
0.30575
0.321413
0.339034
0.358878
0.381222
0.406355
0.434562
0.466122
0.501293
0.540295
0.583296
0.630385
0.681549
0.736638
0.795332
0.857102
0.921167
0.986467
1.05164
1.11502
1.1747
1.22864
1.27477
1.31122
1.33643
1.34932
0.165169
0.165638
0.16657
0.167961
0.169801
0.172078
0.174779
0.177891
0.1814
0.185296
0.189572
0.194224
0.199258
0.204687
0.210536
0.21684
0.223653
0.231043
0.239099
0.247928
0.257663
0.268459
0.280498
0.293987
0.309159
0.326273
0.345614
0.367488
0.392219
0.420145
0.451611
0.486957
0.526509
0.570562
0.61936
0.673071
0.731757
0.795332
0.863524
0.935813
1.01138
1.08904
1.16721
1.24386
1.31659
1.38274
1.4396
1.48467
1.51591
1.53189
0.162389
0.162854
0.163781
0.165165
0.166995
0.169264
0.171958
0.175067
0.17858
0.182489
0.186792
0.191489
0.19659
0.202116
0.208096
0.214577
0.221619
0.229302
0.237727
0.247018
0.257322
0.268814
0.281699
0.296209
0.312607
0.331186
0.352269
0.376205
0.40337
0.434159
0.46898
0.508246
0.552365
0.601722
0.656657
0.717444
0.784251
0.857102
0.935813
1.01993
1.10865
1.20071
1.29429
1.38699
1.47577
1.55713
1.62743
1.68333
1.72214
1.74201
0.159698
0.16016
0.161081
0.162457
0.164279
0.166539
0.169226
0.172332
0.175849
0.179772
0.1841
0.188841
0.194008
0.199627
0.205737
0.212389
0.219655
0.227626
0.236413
0.246156
0.257019
0.269197
0.282916
0.298436
0.316048
0.336083
0.358901
0.384901
0.41451
0.448185
0.486407
0.52967
0.578475
0.633312
0.694644
0.762876
0.838324
0.921167
1.01138
1.10865
1.21227
1.32099
1.43285
1.54501
1.65368
1.75419
1.84151
1.91111
1.95947
1.98421
0.157137
0.157597
0.158512
0.159881
0.161694
0.163946
0.166627
0.169731
0.173251
0.177186
0.18154
0.186322
0.191553
0.197263
0.203496
0.210314
0.217795
0.226042
0.235178
0.245358
0.256761
0.269603
0.284131
0.300631
0.319427
0.340882
0.3654
0.393427
0.425447
0.461982
0.503589
0.550852
0.604376
0.664774
0.73265
0.808572
0.893048
0.986467
1.08904
1.20071
1.32099
1.44881
1.58222
1.71806
1.85164
1.97662
2.08576
2.17278
2.23315
2.264
0.154748
0.155205
0.156116
0.157477
0.159283
0.161527
0.164203
0.167304
0.170828
0.174775
0.179152
0.183974
0.189264
0.195059
0.201409
0.208382
0.216067
0.224575
0.234042
0.244634
0.25655
0.270021
0.285318
0.302753
0.322678
0.345493
0.371643
0.401621
0.43597
0.475279
0.520185
0.571367
0.629544
0.695462
0.769885
0.853577
0.947273
1.05164
1.16721
1.29429
1.43285
1.58222
1.7408
1.90544
2.07062
2.22764
2.36512
2.47432
2.54967
2.58804
0.152568
0.153022
0.153929
0.155284
0.157083
0.15932
0.16199
0.165089
0.168617
0.172575
0.176975
0.181833
0.187178
0.193051
0.199509
0.206626
0.214498
0.223247
0.233019
0.243994
0.256384
0.270439
0.286451
0.304755
0.325734
0.349819
0.377498
0.40931
0.445854
0.487789
0.535831
0.590757
0.653402
0.724657
0.805461
0.89679
0.999645
1.11502
1.24386
1.38699
1.54501
1.71806
1.90544
2.10483
2.31071
2.51145
2.6863
2.82344
2.91705
2.96439
0.150631
0.151084
0.151986
0.153336
0.155129
0.15736
0.160025
0.163123
0.166653
0.170622
0.175041
0.179932
0.185326
0.19127
0.197824
0.20507
0.213111
0.222076
0.232123
0.243442
0.256259
0.270841
0.287499
0.30659
0.328523
0.353762
0.382832
0.416317
0.454872
0.499217
0.55015
0.608543
0.675349
0.751602
0.838421
0.937008
1.04865
1.1747
1.31659
1.47577
1.65368
1.85164
2.07062
2.31071
2.56934
2.83488
3.05919
3.23032
3.34505
3.40251
0.148969
0.149419
0.150318
0.151663
0.153451
0.155677
0.158338
0.161435
0.164968
0.168945
0.173382
0.178301
0.183738
0.189743
0.196381
0.203739
0.211926
0.221079
0.231364
0.242981
0.25617
0.271211
0.288431
0.308208
0.330975
0.357225
0.387514
0.422471
0.462797
0.509275
0.562772
0.624253
0.69478
0.775527
0.867788
0.972986
1.09269
1.22864
1.38274
1.55713
1.75419
1.97662
2.22764
2.51145
2.83488
3.21367
3.49971
3.70825
3.84511
3.91296
0.147606
0.148055
0.148951
0.150293
0.152076
0.154298
0.156956
0.160051
0.163587
0.167572
0.172023
0.176965
0.182438
0.188493
0.1952
0.202651
0.210959
0.220267
0.230749
0.242614
0.25611
0.271531
0.289218
0.309565
0.333026
0.360117
0.391426
0.427613
0.469423
0.517692
0.57335
0.637441
0.711126
0.795702
0.89262
1.00351
1.1302
1.27477
1.4396
1.62743
1.84151
2.08576
2.36512
2.6863
3.05919
3.49971
3.83251
4.07285
4.22931
4.3065
0.146565
0.147013
0.147907
0.149246
0.151026
0.153244
0.1559
0.158995
0.162532
0.166523
0.170985
0.175945
0.181445
0.187539
0.1943
0.201821
0.210222
0.21965
0.230283
0.242339
0.256073
0.271787
0.289834
0.310622
0.334619
0.362362
0.39446
0.431602
0.474568
0.524232
0.581578
0.647713
0.723878
0.811471
0.912074
1.02748
1.15974
1.31122
1.48467
1.68333
1.91111
2.17278
2.47432
2.82344
3.23032
3.70825
4.07285
4.33665
4.50822
4.59277
0.145862
0.146309
0.147202
0.148538
0.150316
0.152533
0.155187
0.158281
0.16182
0.165814
0.170284
0.175257
0.180775
0.186895
0.193692
0.201262
0.209726
0.219235
0.229972
0.242157
0.256052
0.271965
0.290258
0.311345
0.335709
0.363896
0.396533
0.434328
0.478084
0.528705
0.58721
0.65475
0.732624
0.822302
0.925456
1.044
1.18014
1.33643
1.51591
1.72214
1.95947
2.23315
2.54967
2.91705
3.34505
3.84511
4.22931
4.50822
4.68983
4.77934
0.145507
0.145954
0.146846
0.148182
0.149958
0.152174
0.154828
0.157921
0.16146
0.165457
0.16993
0.17491
0.180437
0.186571
0.193386
0.20098
0.209476
0.219026
0.229815
0.242065
0.256042
0.272056
0.290472
0.311712
0.33626
0.364673
0.397583
0.43571
0.479867
0.530973
0.590068
0.658324
0.73707
0.827812
0.93227
1.05242
1.19055
1.34932
1.53189
1.74201
1.98421
2.264
2.58804
2.96439
3.40251
3.91296
4.3065
4.59277
4.77934
4.87134
)
;

boundaryField
{
    walls
    {
        type            zeroGradient;
    }
    frontAndBack
    {
        type            empty;
    }
}


// ************************************************************************* //
