/*--------------------------------*- C++ -*----------------------------------*\
| =========                 |                                                 |
| \\      /  F ield         | OpenFOAM: The Open Source CFD Toolbox           |
|  \\    /   O peration     | Version:  2406                                  |
|   \\  /    A nd           | Website:  www.openfoam.com                      |
|    \\/     M anipulation  |                                                 |
\*---------------------------------------------------------------------------*/
FoamFile
{
    version     2.0;
    format      ascii;
    arch        "LSB;label=32;scalar=64";
    class       volVectorField;
    location    "0.5";
    object      flux;
}
// * * * * * * * * * * * * * * * * * * * * * * * * * * * * * * * * * * * * * //

dimensions      [0 1 -1 1 0 0 0];

internalField   nonuniform List<vector> 
2500
(
(0.00123816 0.00123816 0)
(0.00369264 0.00124276 0)
(0.00608922 0.00125226 0)
(0.00839289 0.00126625 0)
(0.0105653 0.00128453 0)
(0.0125723 0.00130684 0)
(0.0143826 0.00133281 0)
(0.0159675 0.00136206 0)
(0.017302 0.00139411 0)
(0.0183649 0.00142848 0)
(0.0191393 0.00146462 0)
(0.0196126 0.00150197 0)
(0.019777 0.00153994 0)
(0.0196296 0.00157794 0)
(0.0191723 0.00161538 0)
(0.0184121 0.00165167 0)
(0.0173607 0.00168625 0)
(0.0160344 0.00171858 0)
(0.014454 0.00174815 0)
(0.0126443 0.00177452 0)
(0.0106341 0.00179727 0)
(0.0084551 0.00181607 0)
(0.00614191 0.00183063 0)
(0.00373132 0.00184074 0)
(0.00126169 0.00184625 0)
(-0.00122764 0.00184711 0)
(-0.00369702 0.00184332 0)
(-0.00610715 0.00183496 0)
(-0.00841967 0.00182218 0)
(-0.0105978 0.00180522 0)
(-0.0126071 0.00178437 0)
(-0.0144157 0.00175997 0)
(-0.0159952 0.00173244 0)
(-0.0173205 0.00170223 0)
(-0.0183712 0.00166983 0)
(-0.0191309 0.00163578 0)
(-0.0195879 0.00160063 0)
(-0.0197354 0.00156494 0)
(-0.0195715 0.00152927 0)
(-0.0190993 0.0014942 0)
(-0.0183266 0.00146029 0)
(-0.0172658 0.00142806 0)
(-0.015934 0.00139802 0)
(-0.0143524 0.00137064 0)
(-0.012546 0.00134636 0)
(-0.0105434 0.00132555 0)
(-0.0083761 0.00130856 0)
(-0.00607812 0.00129565 0)
(-0.00368548 0.00128692 0)
(-0.00123504 0.0012818 0)
(0.00124276 0.00369264 0)
(0.00370674 0.00370674 0)
(0.00611271 0.00373507 0)
(0.00842516 0.00377685 0)
(0.0106059 0.00383149 0)
(0.0126206 0.00389813 0)
(0.0144378 0.00397575 0)
(0.0160288 0.00406312 0)
(0.0173684 0.0041589 0)
(0.0184355 0.00426158 0)
(0.0192128 0.00436954 0)
(0.0196879 0.00448112 0)
(0.019853 0.00459456 0)
(0.019705 0.00470808 0)
(0.0192461 0.00481992 0)
(0.018483 0.00492833 0)
(0.0174276 0.00503162 0)
(0.0160963 0.00512818 0)
(0.0145099 0.00521653 0)
(0.0126935 0.00529531 0)
(0.0106757 0.00536329 0)
(0.00848846 0.00541946 0)
(0.00616658 0.00546298 0)
(0.00374694 0.00549321 0)
(0.00126807 0.00550972 0)
(-0.00123057 0.00551234 0)
(-0.00370918 0.00550107 0)
(-0.00612828 0.00547617 0)
(-0.0084494 0.0054381 0)
(-0.0106357 0.00538755 0)
(-0.0126524 0.00532538 0)
(-0.0144677 0.00525264 0)
(-0.0160529 0.00517056 0)
(-0.0173832 0.0050805 0)
(-0.0184377 0.00498393 0)
(-0.0192001 0.00488242 0)
(-0.0196587 0.00477763 0)
(-0.0198068 0.00467123 0)
(-0.0196423 0.00456494 0)
(-0.0191683 0.00446042 0)
(-0.0183927 0.00435935 0)
(-0.017328 0.00426331 0)
(-0.0159914 0.0041738 0)
(-0.0144041 0.00409223 0)
(-0.0125911 0.00401988 0)
(-0.0105812 0.00395788 0)
(-0.00840599 0.00390724 0)
(-0.00609975 0.00386885 0)
(-0.00369933 0.00384327 0)
(-0.00124016 0.00382947 0)
(0.00125226 0.00608922 0)
(0.00373507 0.00611271 0)
(0.00615933 0.00615933 0)
(0.00848931 0.00622824 0)
(0.0106865 0.00631837 0)
(0.0127166 0.00642831 0)
(0.0145476 0.00655636 0)
(0.0161507 0.00670052 0)
(0.0175005 0.00685853 0)
(0.0185756 0.00702793 0)
(0.0193588 0.00720606 0)
(0.0198376 0.00739014 0)
(0.020004 0.0075773 0)
(0.019855 0.0077646 0)
(0.0193926 0.00794914 0)
(0.0186238 0.00812802 0)
(0.0175606 0.00829847 0)
(0.0162193 0.00845784 0)
(0.0146211 0.00860367 0)
(0.0127911 0.00873372 0)
(0.0107583 0.00884599 0)
(0.00855479 0.0089388 0)
(0.00621565 0.00901076 0)
(0.00377806 0.00906083 0)
(0.00128082 0.00908832 0)
(-0.00123629 0.00909291 0)
(-0.00373319 0.00907464 0)
(-0.00617011 0.00903393 0)
(-0.00850829 0.00897155 0)
(-0.0107106 0.00888862 0)
(-0.012742 0.00878658 0)
(-0.0145706 0.00866716 0)
(-0.0161673 0.00853238 0)
(-0.0175072 0.00838447 0)
(-0.0185693 0.00822587 0)
(-0.0193372 0.00805917 0)
(-0.0197991 0.00788708 0)
(-0.0199481 0.00771237 0)
(-0.0197824 0.00753783 0)
(-0.0193049 0.00736624 0)
(-0.0185237 0.00720031 0)
(-0.0174513 0.00704265 0)
(-0.0161051 0.00689573 0)
(-0.0145063 0.00676184 0)
(-0.0126804 0.00664307 0)
(-0.0106561 0.00654127 0)
(-0.00846513 0.00645807 0)
(-0.00614209 0.00639482 0)
(-0.00372486 0.00635261 0)
(-0.00124885 0.00633113 0)
(0.00126625 0.00839289 0)
(0.00377685 0.00842516 0)
(0.00622824 0.00848931 0)
(0.00858419 0.00858419 0)
(0.0108059 0.00870833 0)
(0.0128586 0.00885978 0)
(0.01471 0.00903618 0)
(0.016331 0.00923478 0)
(0.0176958 0.00945247 0)
(0.018783 0.00968586 0)
(0.019575 0.00993129 0)
(0.0200591 0.0101849 0)
(0.0202274 0.0104428 0)
(0.0200769 0.0107009 0)
(0.0196095 0.0109552 0)
(0.0188323 0.0112018 0)
(0.0177574 0.0114367 0)
(0.0164015 0.0116565 0)
(0.0147858 0.0118576 0)
(0.0129358 0.012037 0)
(0.0108807 0.012192 0)
(0.00865323 0.0123202 0)
(0.00628861 0.0124197 0)
(0.0038245 0.0124892 0)
(0.00130014 0.0125277 0)
(-0.00124425 0.0125346 0)
(-0.00376815 0.0125102 0)
(-0.00623137 0.012455 0)
(-0.00859471 0.01237 0)
(-0.0108206 0.0122568 0)
(-0.0128739 0.0121174 0)
(-0.0147219 0.0119542 0)
(-0.0163356 0.0117699 0)
(-0.0176897 0.0115676 0)
(-0.018763 0.0113507 0)
(-0.0195389 0.0111227 0)
(-0.0200055 0.0108874 0)
(-0.020156 0.0106485 0)
(-0.0199884 0.0104098 0)
(-0.0195058 0.0101752 0)
(-0.0187163 0.00994835 0)
(-0.0176326 0.00973284 0)
(-0.0162722 0.00953203 0)
(-0.0146567 0.00934904 0)
(-0.0128117 0.0091867 0)
(-0.0107662 0.00904753 0)
(-0.00855244 0.00893367 0)
(-0.00620521 0.00884688 0)
(-0.00376302 0.00878844 0)
(-0.00126165 0.00875899 0)
(0.00128453 0.0105653 0)
(0.00383149 0.0106059 0)
(0.00631837 0.0106865 0)
(0.00870833 0.0108059 0)
(0.0109621 0.0109621 0)
(0.0130445 0.0111527 0)
(0.0149226 0.0113747 0)
(0.0165669 0.0116247 0)
(0.0179515 0.0118987 0)
(0.0190544 0.0121924 0)
(0.0198579 0.0125013 0)
(0.0203491 0.0128206 0)
(0.02052 0.0131452 0)
(0.0203674 0.0134702 0)
(0.0198935 0.0137903 0)
(0.0191054 0.0141008 0)
(0.0180153 0.0143967 0)
(0.0166401 0.0146736 0)
(0.0150016 0.014927 0)
(0.0131255 0.0151532 0)
(0.0110415 0.0153488 0)
(0.00878256 0.0155108 0)
(0.00638468 0.0156368 0)
(0.00388598 0.0157251 0)
(0.00132624 0.0157744 0)
(-0.00125373 0.0157844 0)
(-0.00381284 0.015755 0)
(-0.00631032 0.015687 0)
(-0.00870646 0.0155817 0)
(-0.0109632 0.0154412 0)
(-0.0130447 0.0152679 0)
(-0.0149181 0.0150647 0)
(-0.0165539 0.0148353 0)
(-0.0179264 0.0145834 0)
(-0.0190142 0.0143133 0)
(-0.0198005 0.0140294 0)
(-0.0202733 0.0137363 0)
(-0.0204257 0.0134388 0)
(-0.0202556 0.0131417 0)
(-0.0197663 0.0128497 0)
(-0.018966 0.0125674 0)
(-0.0178676 0.0122993 0)
(-0.0164889 0.0120495 0)
(-0.0148516 0.0118218 0)
(-0.0129819 0.0116199 0)
(-0.0109091 0.0114468 0)
(-0.00866578 0.0113051 0)
(-0.00628732 0.011197 0)
(-0.00381274 0.0111241 0)
(-0.00127829 0.0110874 0)
(0.00130684 0.0125723 0)
(0.00389813 0.0126206 0)
(0.00642831 0.0127166 0)
(0.00885978 0.0128586 0)
(0.0111527 0.0130445 0)
(0.0132712 0.0132712 0)
(0.015182 0.0135353 0)
(0.0168549 0.0138327 0)
(0.0182636 0.0141587 0)
(0.0193856 0.0145083 0)
(0.0202032 0.0148759 0)
(0.020703 0.0152558 0)
(0.020877 0.0156422 0)
(0.020722 0.016029 0)
(0.0202401 0.0164102 0)
(0.0194387 0.0167798 0)
(0.0183302 0.0171323 0)
(0.0169318 0.0174621 0)
(0.0152655 0.0177642 0)
(0.0133576 0.018034 0)
(0.0112383 0.0182675 0)
(0.00894123 0.0184612 0)
(0.00650292 0.0186123 0)
(0.00396217 0.0187187 0)
(0.00135947 0.0187791 0)
(-0.00126371 0.0187928 0)
(-0.00386555 0.0187599 0)
(-0.00640462 0.0186815 0)
(-0.00884051 0.018559 0)
(-0.0111345 0.0183949 0)
(-0.0132503 0.018192 0)
(-0.0151544 0.0179541 0)
(-0.0168169 0.0176852 0)
(-0.0182117 0.0173899 0)
(-0.019317 0.0170731 0)
(-0.0201158 0.0167402 0)
(-0.0205961 0.0163966 0)
(-0.0207506 0.0160479 0)
(-0.0205775 0.0156998 0)
(-0.0200801 0.0153576 0)
(-0.0192667 0.015027 0)
(-0.0181506 0.014713 0)
(-0.0167496 0.0144206 0)
(-0.0150862 0.0141542 0)
(-0.0131867 0.0139179 0)
(-0.011081 0.0137153 0)
(-0.00880222 0.0135496 0)
(-0.00638624 0.013423 0)
(-0.00387266 0.0133376 0)
(-0.00129835 0.0132947 0)
(0.00133281 0.0143826 0)
(0.00397575 0.0144378 0)
(0.00655636 0.0145476 0)
(0.00903618 0.01471 0)
(0.0113747 0.0149226 0)
(0.0135353 0.015182 0)
(0.0154841 0.0154841 0)
(0.0171903 0.0158243 0)
(0.0186271 0.0161973 0)
(0.0197715 0.0165972 0)
(0.0206055 0.0170178 0)
(0.0211154 0.0174525 0)
(0.0212931 0.0178947 0)
(0.0211353 0.0183373 0)
(0.0206443 0.0187737 0)
(0.0198275 0.019197 0)
(0.0186975 0.0196007 0)
(0.017272 0.0199786 0)
(0.0155735 0.020325 0)
(0.0136288 0.0206346 0)
(0.0114686 0.020903 0)
(0.00912737 0.021126 0)
(0.00664221 0.0213006 0)
(0.00405276 0.0214245 0)
(0.0014003 0.021496 0)
(-0.00127287 0.0215144 0)
(-0.00392414 0.0214801 0)
(-0.00651126 0.0213941 0)
(-0.00899307 0.0212582 0)
(-0.0113301 0.0210751 0)
(-0.0134854 0.0208483 0)
(-0.0154249 0.0205819 0)
(-0.0171181 0.0202805 0)
(-0.0185384 0.0199494 0)
(-0.0196638 0.0195942 0)
(-0.020477 0.0192209 0)
(-0.0209656 0.0188357 0)
(-0.0211226 0.0184449 0)
(-0.0209459 0.0180547 0)
(-0.0204391 0.0176716 0)
(-0.0196106 0.0173014 0)
(-0.0184741 0.01695 0)
(-0.0170477 0.0166228 0)
(-0.0153543 0.0163249 0)
(-0.0134207 0.0160608 0)
(-0.0112774 0.0158344 0)
(-0.00895808 0.0156491 0)
(-0.00649924 0.0155078 0)
(-0.00394111 0.0154123 0)
(-0.00132127 0.0153643 0)
(0.00136206 0.0159675 0)
(0.00406312 0.0160288 0)
(0.00670052 0.0161507 0)
(0.00923478 0.016331 0)
(0.0116247 0.0165669 0)
(0.0138327 0.0168549 0)
(0.0158243 0.0171903 0)
(0.0175681 0.0175681 0)
(0.0190364 0.0179822 0)
(0.0202061 0.0184262 0)
(0.0210585 0.0188933 0)
(0.0215799 0.0193761 0)
(0.0217618 0.0198672 0)
(0.021601 0.020359 0)
(0.0210998 0.0208439 0)
(0.0202657 0.0213144 0)
(0.0191118 0.0217633 0)
(0.0176561 0.0221838 0)
(0.0159215 0.0225696 0)
(0.0139356 0.0229149 0)
(0.0117297 0.0232145 0)
(0.0093389 0.0234643 0)
(0.00680136 0.0236607 0)
(0.00415749 0.0238012 0)
(0.00144946 0.0238842 0)
(-0.00127951 0.0239088 0)
(-0.00398589 0.0238755 0)
(-0.00662656 0.0237854 0)
(-0.00915948 0.0236407 0)
(-0.0115444 0.0234443 0)
(-0.0137436 0.0232001 0)
(-0.0157223 0.0229127 0)
(-0.0174494 0.0225872 0)
(-0.018898 0.0222295 0)
(-0.0200455 0.0218457 0)
(-0.0208743 0.0214423 0)
(-0.0213721 0.0210262 0)
(-0.0215315 0.0206041 0)
(-0.0213508 0.0201831 0)
(-0.0208335 0.0197697 0)
(-0.0199883 0.0193707 0)
(-0.0188291 0.0189921 0)
(-0.0173747 0.0186398 0)
(-0.0156483 0.0183191 0)
(-0.0136772 0.018035 0)
(-0.0114927 0.0177916 0)
(-0.00912886 0.0175925 0)
(-0.00662305 0.0174405 0)
(-0.00401611 0.017338 0)
(-0.00134638 0.0172864 0)
(0.00139411 0.017302 0)
(0.0041589 0.0173684 0)
(0.00685853 0.0175005 0)
(0.00945247 0.0176958 0)
(0.0118987 0.0179515 0)
(0.0141587 0.0182636 0)
(0.0161973 0.0186271 0)
(0.0179822 0.0190364 0)
(0.0194852 0.0194852 0)
(0.0206826 0.0199665 0)
(0.0215554 0.0204728 0)
(0.0220894 0.0209963 0)
(0.022276 0.0215288 0)
(0.022112 0.0220622 0)
(0.0215997 0.0225883 0)
(0.0207469 0.023099 0)
(0.0195669 0.0235865 0)
(0.0180783 0.0240436 0)
(0.0163046 0.0244632 0)
(0.0142737 0.0248394 0)
(0.0120181 0.0251667 0)
(0.00957358 0.0254404 0)
(0.00697914 0.0256569 0)
(0.00427619 0.0258134 0)
(0.0015079 0.0259083 0)
(-0.00128152 0.0259409 0)
(-0.00404755 0.0259115 0)
(-0.00674609 0.0258216 0)
(-0.00933417 0.0256735 0)
(-0.0117707 0.0254705 0)
(-0.014017 0.0252168 0)
(-0.0160378 0.0249172 0)
(-0.0178013 0.0245776 0)
(-0.01928 0.024204 0)
(-0.020451 0.023803 0)
(-0.0212965 0.0233817 0)
(-0.0218038 0.0229473 0)
(-0.0219656 0.022507 0)
(-0.0217803 0.022068 0)
(-0.0212515 0.0216374 0)
(-0.0203883 0.021222 0)
(-0.019205 0.0208282 0)
(-0.0177206 0.0204622 0)
(-0.0159591 0.0201293 0)
(-0.0139483 0.0198345 0)
(-0.01172 0.0195821 0)
(-0.00930915 0.0193758 0)
(-0.00675371 0.0192184 0)
(-0.00409524 0.0191123 0)
(-0.00137286 0.0190589 0)
(0.00142848 0.0183649 0)
(0.00426158 0.0184355 0)
(0.00702793 0.0185756 0)
(0.00968586 0.018783 0)
(0.0121924 0.0190544 0)
(0.0145083 0.0193856 0)
(0.0165972 0.0197715 0)
(0.0184262 0.0202061 0)
(0.0199665 0.0206826 0)
(0.0211937 0.0211937 0)
(0.0220883 0.0217314 0)
(0.022636 0.0222875 0)
(0.0228278 0.0228533 0)
(0.0226605 0.0234202 0)
(0.0221365 0.0239795 0)
(0.0212639 0.0245228 0)
(0.0200563 0.0250418 0)
(0.0185328 0.0255288 0)
(0.0167174 0.0259767 0)
(0.014639 0.0263789 0)
(0.0123306 0.0267297 0)
(0.00982909 0.0270245 0)
(0.00717439 0.0272593 0)
(0.00440893 0.0274314 0)
(0.00157695 0.0275391 0)
(-0.00127629 0.0275818 0)
(-0.00410518 0.02756 0)
(-0.0068646 0.0274753 0)
(-0.0095106 0.0273302 0)
(-0.0120012 0.0271283 0)
(-0.0142968 0.0268741 0)
(-0.0163615 0.0265728 0)
(-0.0181627 0.0262304 0)
(-0.0196725 0.0258534 0)
(-0.0208677 0.0254488 0)
(-0.0217301 0.0250237 0)
(-0.0222469 0.0245857 0)
(-0.0224109 0.0241421 0)
(-0.0222204 0.0237003 0)
(-0.0216795 0.0232675 0)
(-0.0207974 0.0228505 0)
(-0.0195889 0.0224558 0)
(-0.0180736 0.0220893 0)
(-0.0162759 0.0217564 0)
(-0.0142244 0.021462 0)
(-0.0119514 0.0212102 0)
(-0.00949256 0.0210046 0)
(-0.00688657 0.0208478 0)
(-0.00417568 0.0207421 0)
(-0.00139978 0.020689 0)
(0.00146462 0.0191393 0)
(0.00436954 0.0192128 0)
(0.00720606 0.0193588 0)
(0.00993129 0.019575 0)
(0.0125013 0.0198579 0)
(0.0148759 0.0202032 0)
(0.0170178 0.0206055 0)
(0.0188933 0.0210585 0)
(0.0204728 0.0215554 0)
(0.0217314 0.0220883 0)
(0.0226491 0.0226491 0)
(0.0232113 0.0232292 0)
(0.0234087 0.0238197 0)
(0.0232383 0.0244115 0)
(0.0227023 0.0249957 0)
(0.0218092 0.0255635 0)
(0.020573 0.0261065 0)
(0.0190132 0.0266167 0)
(0.0171546 0.0270866 0)
(0.0150268 0.0275097 0)
(0.0126637 0.0278802 0)
(0.0101031 0.0281931 0)
(0.00738608 0.0284447 0)
(0.00455603 0.0286322 0)
(0.00165833 0.028754 0)
(-0.00126062 0.0288096 0)
(-0.00415412 0.0287996 0)
(-0.00697596 0.0287259 0)
(-0.00968117 0.0285913 0)
(-0.0122268 0.0283995 0)
(-0.0145725 0.0281552 0)
(-0.0166815 0.0278641 0)
(-0.0185207 0.0275322 0)
(-0.0200616 0.0271662 0)
(-0.0212807 0.0267733 0)
(-0.0221596 0.0263608 0)
(-0.0226854 0.0259361 0)
(-0.022851 0.0255066 0)
(-0.0226549 0.0250796 0)
(-0.0221013 0.0246621 0)
(-0.0212 0.0242607 0)
(-0.0199662 0.0238815 0)
(-0.01842 0.0235302 0)
(-0.0165863 0.0232117 0)
(-0.0144945 0.0229305 0)
(-0.0121775 0.0226905 0)
(-0.00967159 0.0224946 0)
(-0.00701616 0.0223456 0)
(-0.00425409 0.0222451 0)
(-0.00142602 0.0221947 0)
(0.00150197 0.0196126 0)
(0.00448112 0.0196879 0)
(0.00739014 0.0198376 0)
(0.0101849 0.0200591 0)
(0.0128206 0.0203491 0)
(0.0152558 0.020703 0)
(0.0174525 0.0211154 0)
(0.0193761 0.0215799 0)
(0.0209963 0.0220894 0)
(0.0222875 0.022636 0)
(0.0232292 0.0232113 0)
(0.0238065 0.0238065 0)
(0.0240101 0.0244126 0)
(0.0238366 0.0250205 0)
(0.0232886 0.0256209 0)
(0.0223748 0.026205 0)
(0.0211095 0.0267643 0)
(0.0195129 0.0272906 0)
(0.0176105 0.0277765 0)
(0.0154325 0.0282153 0)
(0.013014 0.0286014 0)
(0.0103936 0.0289298 0)
(0.00761348 0.0291968 0)
(0.00471822 0.0293999 0)
(0.00175433 0.0295375 0)
(-0.00123064 0.0296094 0)
(-0.00418885 0.0296164 0)
(-0.00707299 0.0295606 0)
(-0.00983707 0.029445 0)
(-0.0124372 0.0292736 0)
(-0.0148322 0.0290514 0)
(-0.0169845 0.0287839 0)
(-0.0188605 0.0284776 0)
(-0.0204314 0.0281392 0)
(-0.0216731 0.0277757 0)
(-0.0225673 0.0273945 0)
(-0.0231011 0.0270026 0)
(-0.0232673 0.0266073 0)
(-0.0230649 0.0262154 0)
(-0.0224984 0.0258335 0)
(-0.021578 0.0254675 0)
(-0.0203195 0.025123 0)
(-0.0187435 0.0248049 0)
(-0.0168756 0.0245175 0)
(-0.0147456 0.0242646 0)
(-0.0123873 0.0240492 0)
(-0.00983745 0.023874 0)
(-0.00713607 0.0237409 0)
(-0.00432659 0.0236514 0)
(-0.00145027 0.0236064 0)
(0.00153994 0.019777 0)
(0.00459456 0.019853 0)
(0.0075773 0.020004 0)
(0.0104428 0.0202274 0)
(0.0131452 0.02052 0)
(0.0156422 0.020877 0)
(0.0178947 0.0212931 0)
(0.0198672 0.0217618 0)
(0.0215288 0.022276 0)
(0.0228533 0.0228278 0)
(0.0238197 0.0234087 0)
(0.0244126 0.0240101 0)
(0.0246227 0.0246227 0)
(0.0244465 0.0252375 0)
(0.0238869 0.0258453 0)
(0.0229526 0.0264374 0)
(0.0216585 0.0270051 0)
(0.0200254 0.0275404 0)
(0.0180794 0.0280362 0)
(0.0158517 0.0284857 0)
(0.0133781 0.0288836 0)
(0.0106986 0.029225 0)
(0.00785619 0.0295065 0)
(0.00489672 0.0297258 0)
(0.00186785 0.0298817 0)
(-0.00118169 0.0299741 0)
(-0.00420291 0.0300042 0)
(-0.00714741 0.0299742 0)
(-0.00996818 0.0298875 0)
(-0.0126204 0.0297484 0)
(-0.0150622 0.0295618 0)
(-0.0172552 0.0293337 0)
(-0.0191654 0.0290702 0)
(-0.0207635 0.0287782 0)
(-0.0220255 0.0284644 0)
(-0.0229327 0.0281358 0)
(-0.0234726 0.0277992 0)
(-0.0236382 0.0274612 0)
(-0.0234287 0.0271278 0)
(-0.0228492 0.0268048 0)
(-0.0219105 0.0264972 0)
(-0.0206288 0.0262096 0)
(-0.0190254 0.0259458 0)
(-0.0171266 0.025709 0)
(-0.0149627 0.0255019 0)
(-0.012568 0.0253265 0)
(-0.00997989 0.0251845 0)
(-0.0072388 0.0250771 0)
(-0.0043886 0.025005 0)
(-0.00147099 0.0249689 0)
(0.00157794 0.0196296 0)
(0.00470808 0.019705 0)
(0.0077646 0.019855 0)
(0.0107009 0.0200769 0)
(0.0134702 0.0203674 0)
(0.016029 0.020722 0)
(0.0183373 0.0211353 0)
(0.020359 0.021601 0)
(0.0220622 0.022112 0)
(0.0234202 0.0226605 0)
(0.0244115 0.0232383 0)
(0.0250205 0.0238366 0)
(0.0252375 0.0244465 0)
(0.0250592 0.0250592 0)
(0.0244885 0.0256656 0)
(0.0235345 0.0262572 0)
(0.0222126 0.0268256 0)
(0.020544 0.0273631 0)
(0.0185558 0.0278627 0)
(0.0162799 0.0283182 0)
(0.0137532 0.0287243 0)
(0.0110166 0.0290768 0)
(0.00811433 0.0293724 0)
(0.00509336 0.0296092 0)
(0.00200256 0.0297864 0)
(-0.00110817 0.0299044 0)
(-0.00418873 0.0299647 0)
(-0.00718963 0.0299698 0)
(-0.0100629 0.0299234 0)
(-0.0127629 0.02983 0)
(-0.0152469 0.0296948 0)
(-0.0174761 0.0295237 0)
(-0.019416 0.0293228 0)
(-0.0210372 0.0290986 0)
(-0.0223155 0.0288576 0)
(-0.0232325 0.0286063 0)
(-0.0237757 0.0283507 0)
(-0.0239387 0.0280964 0)
(-0.0237213 0.0278485 0)
(-0.023129 0.0276115 0)
(-0.0221732 0.027389 0)
(-0.0208709 0.0271841 0)
(-0.0192441 0.0269991 0)
(-0.0173195 0.0268356 0)
(-0.0151281 0.0266948 0)
(-0.0127046 0.0265772 0)
(-0.0100869 0.0264832 0)
(-0.00731557 0.0264128 0)
(-0.00443477 0.0263659 0)
(-0.00148639 0.0263426 0)
(0.00161538 0.0191723 0)
(0.00481992 0.0192461 0)
(0.00794914 0.0193926 0)
(0.0109552 0.0196095 0)
(0.0137903 0.0198935 0)
(0.0164102 0.0202401 0)
(0.0187737 0.0206443 0)
(0.0208439 0.0210998 0)
(0.0225883 0.0215997 0)
(0.0239795 0.0221365 0)
(0.0249957 0.0227023 0)
(0.0256209 0.0232886 0)
(0.0258453 0.0238869 0)
(0.0256656 0.0244885 0)
(0.0250849 0.0250849 0)
(0.0241125 0.0256678 0)
(0.0227644 0.0262294 0)
(0.0210625 0.0267624 0)
(0.0190345 0.0272603 0)
(0.0167133 0.0277173 0)
(0.0141367 0.0281286 0)
(0.0113466 0.0284905 0)
(0.00838864 0.0288004 0)
(0.00531076 0.0290568 0)
(0.00216305 0.0292594 0)
(-0.00100345 0.0294092 0)
(-0.00413751 0.029508 0)
(-0.00718864 0.0295589 0)
(-0.010108 0.0295659 0)
(-0.012849 0.0295336 0)
(-0.0153685 0.0294676 0)
(-0.0176273 0.0293735 0)
(-0.0195905 0.0292576 0)
(-0.0212287 0.0291258 0)
(-0.0225178 0.0289841 0)
(-0.0234397 0.0288382 0)
(-0.0239825 0.0286931 0)
(-0.0241403 0.0285531 0)
(-0.0239136 0.0284219 0)
(-0.0233087 0.0283022 0)
(-0.0223379 0.0281958 0)
(-0.0210187 0.0281038 0)
(-0.0193739 0.0280262 0)
(-0.017431 0.0279626 0)
(-0.0152212 0.027912 0)
(-0.0127796 0.0278732 0)
(-0.0101443 0.0278445 0)
(-0.00735604 0.0278246 0)
(-0.00445881 0.0278121 0)
(-0.00149436 0.027806 0)
(0.00165167 0.0184121 0)
(0.00492833 0.018483 0)
(0.00812802 0.0186238 0)
(0.0112018 0.0188323 0)
(0.0141008 0.0191054 0)
(0.0167798 0.0194387 0)
(0.019197 0.0198275 0)
(0.0213144 0.0202657 0)
(0.023099 0.0207469 0)
(0.0245228 0.0212639 0)
(0.0255635 0.0218092 0)
(0.026205 0.0223748 0)
(0.0264374 0.0229526 0)
(0.0262572 0.0235345 0)
(0.0256678 0.0241125 0)
(0.024679 0.024679 0)
(0.0233072 0.0252267 0)
(0.0215749 0.025749 0)
(0.0195106 0.02624 0)
(0.0171482 0.0266945 0)
(0.0145264 0.0271086 0)
(0.0116884 0.0274791 0)
(0.00868062 0.0278043 0)
(0.0055524 0.0280832 0)
(0.00235492 0.0283163 0)
(-0.000859631 0.0285052 0)
(-0.004039 0.0286523 0)
(-0.00713174 0.0287613 0)
(-0.0100882 0.0288365 0)
(-0.0128611 0.028883 0)
(-0.015407 0.0289064 0)
(-0.0176861 0.0289124 0)
(-0.0196638 0.0289069 0)
(-0.0213107 0.0288955 0)
(-0.0226031 0.0288834 0)
(-0.0235235 0.0288751 0)
(-0.0240608 0.0288745 0)
(-0.0242099 0.0288841 0)
(-0.0239722 0.0289057 0)
(-0.0233551 0.0289397 0)
(-0.0223717 0.0289855 0)
(-0.0210406 0.0290414 0)
(-0.0193853 0.0291047 0)
(-0.0174336 0.0291723 0)
(-0.0152175 0.0292403 0)
(-0.0127722 0.0293048 0)
(-0.0101355 0.029362 0)
(-0.00734802 0.0294084 0)
(-0.00445329 0.029441 0)
(-0.00149241 0.0294578 0)
(0.00168625 0.0173607 0)
(0.00503162 0.0174276 0)
(0.00829847 0.0175606 0)
(0.0114367 0.0177574 0)
(0.0143967 0.0180153 0)
(0.0171323 0.0183302 0)
(0.0196007 0.0186975 0)
(0.0217633 0.0191118 0)
(0.0235865 0.0195669 0)
(0.0250418 0.0200563 0)
(0.0261065 0.020573 0)
(0.0267643 0.0211095 0)
(0.0270051 0.0216585 0)
(0.0268256 0.0222126 0)
(0.0262294 0.0227644 0)
(0.0252267 0.0233072 0)
(0.0238344 0.0238344 0)
(0.0220758 0.0243403 0)
(0.01998 0.0248198 0)
(0.0175819 0.0252686 0)
(0.0149213 0.0256837 0)
(0.0120423 0.0260629 0)
(0.00899269 0.0264051 0)
(0.00582282 0.0267106 0)
(0.00258501 0.0269804 0)
(-0.00066747 0.0272171 0)
(-0.00388138 0.0274239 0)
(-0.00700442 0.0276051 0)
(-0.0099862 0.0277656 0)
(-0.0127791 0.0279108 0)
(-0.0153392 0.0280466 0)
(-0.0176268 0.0281787 0)
(-0.0196074 0.0283127 0)
(-0.0212522 0.0284536 0)
(-0.0225381 0.0286057 0)
(-0.0234486 0.0287723 0)
(-0.0239735 0.0289553 0)
(-0.0241091 0.0291553 0)
(-0.023858 0.0293716 0)
(-0.023229 0.0296017 0)
(-0.0222362 0.0298417 0)
(-0.0208995 0.0300867 0)
(-0.019243 0.0303304 0)
(-0.0172954 0.030566 0)
(-0.0150886 0.0307859 0)
(-0.0126579 0.0309831 0)
(-0.0100408 0.0311504 0)
(-0.00727707 0.0312818 0)
(-0.00440938 0.0313724 0)
(-0.00147756 0.0314185 0)
(0.00171858 0.0160344 0)
(0.00512818 0.0160963 0)
(0.00845784 0.0162193 0)
(0.0116565 0.0164015 0)
(0.0146736 0.0166401 0)
(0.0174621 0.0169318 0)
(0.0199786 0.017272 0)
(0.0221838 0.0176561 0)
(0.0240436 0.0180783 0)
(0.0255288 0.0185328 0)
(0.0266167 0.0190132 0)
(0.0272906 0.0195129 0)
(0.0275404 0.0200254 0)
(0.0273631 0.020544 0)
(0.0267624 0.0210625 0)
(0.025749 0.0215749 0)
(0.0243403 0.0220758 0)
(0.0225603 0.0225603 0)
(0.020439 0.0230244 0)
(0.0180122 0.0234651 0)
(0.0153207 0.0238804 0)
(0.0124098 0.024269 0)
(0.00932828 0.0246313 0)
(0.0061277 0.0249683 0)
(0.00286146 0.0252825 0)
(-0.000416162 0.0255772 0)
(-0.00365102 0.0258568 0)
(-0.00679009 0.0261263 0)
(-0.00978241 0.0263914 0)
(-0.0125801 0.026658 0)
(-0.0151391 0.0269324 0)
(-0.01742 0.0272202 0)
(-0.0193889 0.0275268 0)
(-0.0210176 0.0278566 0)
(-0.0222844 0.0282126 0)
(-0.023174 0.0285965 0)
(-0.0236777 0.0290083 0)
(-0.0237936 0.029446 0)
(-0.0235259 0.0299056 0)
(-0.0228849 0.0303812 0)
(-0.0218866 0.030865 0)
(-0.0205519 0.0313475 0)
(-0.018906 0.031818 0)
(-0.0169781 0.032265 0)
(-0.0148004 0.0326766 0)
(-0.0124077 0.033041 0)
(-0.00983674 0.0333474 0)
(-0.007126 0.0335864 0)
(-0.00431659 0.0337502 0)
(-0.00144629 0.0338334 0)
(0.00174815 0.014454 0)
(0.00521653 0.0145099 0)
(0.00860367 0.0146211 0)
(0.0118576 0.0147858 0)
(0.014927 0.0150016 0)
(0.0177642 0.0152655 0)
(0.020325 0.0155735 0)
(0.0225696 0.0159215 0)
(0.0244632 0.0163046 0)
(0.0259767 0.0167174 0)
(0.0270866 0.0171546 0)
(0.0277765 0.0176105 0)
(0.0280362 0.0180794 0)
(0.0278627 0.0185558 0)
(0.0272603 0.0190345 0)
(0.02624 0.0195106 0)
(0.0248198 0.01998 0)
(0.0230244 0.020439 0)
(0.0208849 0.0208849 0)
(0.0184378 0.0213159 0)
(0.0157252 0.0217313 0)
(0.0127932 0.0221314 0)
(0.00969198 0.0225177 0)
(0.00647405 0.0228928 0)
(0.00319392 0.0232603 0)
(-9.31985e-05 0.0236249 0)
(-0.00333234 0.0239922 0)
(-0.00646986 0.0243684 0)
(-0.00945444 0.02476 0)
(-0.0122381 0.0251738 0)
(-0.014777 0.0256163 0)
(-0.0170323 0.0260935 0)
(-0.0189711 0.0266103 0)
(-0.0205664 0.0271705 0)
(-0.0217981 0.0277759 0)
(-0.0226528 0.0284262 0)
(-0.023124 0.029119 0)
(-0.0232118 0.0298492 0)
(-0.0229228 0.0306089 0)
(-0.0222696 0.0313879 0)
(-0.02127 0.0321733 0)
(-0.0199464 0.0329504 0)
(-0.0183255 0.0337026 0)
(-0.0164369 0.0344127 0)
(-0.0143127 0.0350629 0)
(-0.0119871 0.0356359 0)
(-0.00949541 0.036116 0)
(-0.00687427 0.0364893 0)
(-0.00416236 0.0367448 0)
(-0.00139438 0.0368743 0)
(0.00177452 0.0126443 0)
(0.00529531 0.0126935 0)
(0.00873372 0.0127911 0)
(0.012037 0.0129358 0)
(0.0151532 0.0131255 0)
(0.018034 0.0133576 0)
(0.0206346 0.0136288 0)
(0.0229149 0.0139356 0)
(0.0248394 0.0142737 0)
(0.0263789 0.014639 0)
(0.0275097 0.0150268 0)
(0.0282153 0.0154325 0)
(0.0284857 0.0158517 0)
(0.0283182 0.0162799 0)
(0.0277173 0.0167133 0)
(0.0266945 0.0171482 0)
(0.0252686 0.0175819 0)
(0.0234651 0.0180122 0)
(0.0213159 0.0184378 0)
(0.0188586 0.0188586 0)
(0.0161362 0.0192753 0)
(0.0131962 0.0196899 0)
(0.0100896 0.0201056 0)
(0.00687028 0.0205264 0)
(0.00359362 0.0209578 0)
(0.000315778 0.021406 0)
(-0.00290758 0.0218781 0)
(-0.00602235 0.0223816 0)
(-0.00897703 0.0229245 0)
(-0.0117238 0.0235143 0)
(-0.0142193 0.0241584 0)
(-0.0164259 0.024863 0)
(-0.0183119 0.0256329 0)
(-0.0198521 0.0264709 0)
(-0.0210287 0.0273777 0)
(-0.0218308 0.0283509 0)
(-0.0222548 0.029385 0)
(-0.0223037 0.0304712 0)
(-0.0219872 0.0315972 0)
(-0.0213205 0.0327473 0)
(-0.0203241 0.0339025 0)
(-0.0190225 0.0350415 0)
(-0.0174437 0.0361406 0)
(-0.0156179 0.0371752 0)
(-0.0135772 0.0381202 0)
(-0.0113545 0.0389514 0)
(-0.00898335 0.0396466 0)
(-0.00649727 0.0401864 0)
(-0.00393163 0.0405555 0)
(-0.00131676 0.0407425 0)
(0.00179727 0.0106341 0)
(0.00536329 0.0106757 0)
(0.00884599 0.0107583 0)
(0.012192 0.0108807 0)
(0.0153488 0.0110415 0)
(0.0182675 0.0112383 0)
(0.020903 0.0114686 0)
(0.0232145 0.0117297 0)
(0.0251667 0.0120181 0)
(0.0267297 0.0123306 0)
(0.0278802 0.0126637 0)
(0.0286014 0.013014 0)
(0.0288836 0.0133781 0)
(0.0287243 0.0137532 0)
(0.0281286 0.0141367 0)
(0.0271086 0.0145264 0)
(0.0256837 0.0149213 0)
(0.0238804 0.0153207 0)
(0.0217313 0.0157252 0)
(0.0192753 0.0161362 0)
(0.0165565 0.0165565 0)
(0.0136235 0.0169899 0)
(0.0105284 0.0174414 0)
(0.0073263 0.0179172 0)
(0.00407353 0.0184247 0)
(0.000827093 0.018972 0)
(-0.00235673 0.019568 0)
(-0.00542351 0.0202222 0)
(-0.00832177 0.020944 0)
(-0.0110041 0.0217423 0)
(-0.0134283 0.0226256 0)
(-0.0155579 0.0236004 0)
(-0.0173631 0.0246718 0)
(-0.0188216 0.0258418 0)
(-0.0199182 0.0271095 0)
(-0.0206455 0.0284703 0)
(-0.0210037 0.0299153 0)
(-0.0209996 0.0314314 0)
(-0.0206468 0.0330008 0)
(-0.0199643 0.0346014 0)
(-0.0189757 0.0362068 0)
(-0.0177083 0.0377874 0)
(-0.0161918 0.0393107 0)
(-0.0144574 0.0407429 0)
(-0.0125365 0.0420498 0)
(-0.0104606 0.0431985 0)
(-0.00826036 0.0441586 0)
(-0.00596538 0.0449038 0)
(-0.00360627 0.045413 0)
(-0.00120732 0.0456711 0)
(0.00181607 0.0084551 0)
(0.00541946 0.00848846 0)
(0.0089388 0.00855479 0)
(0.0123202 0.00865323 0)
(0.0155108 0.00878256 0)
(0.0184612 0.00894123 0)
(0.021126 0.00912737 0)
(0.0234643 0.0093389 0)
(0.0254404 0.00957358 0)
(0.0270245 0.00982909 0)
(0.0281931 0.0101031 0)
(0.0289298 0.0103936 0)
(0.029225 0.0106986 0)
(0.0290768 0.0110166 0)
(0.0284905 0.0113466 0)
(0.0274791 0.0116884 0)
(0.0260629 0.0120423 0)
(0.024269 0.0124098 0)
(0.0221314 0.0127932 0)
(0.0196899 0.0131962 0)
(0.0169899 0.0136235 0)
(0.0140811 0.0140811 0)
(0.011017 0.0145764 0)
(0.00785357 0.0151178 0)
(0.00464836 0.0157151 0)
(0.00145911 0.0163789 0)
(-0.00165735 0.0171203 0)
(-0.00464643 0.017951 0)
(-0.00745691 0.0188825 0)
(-0.0100422 0.0199256 0)
(-0.0123612 0.02109 0)
(-0.0143797 0.0223834 0)
(-0.0160705 0.0238108 0)
(-0.0174144 0.025374 0)
(-0.0184002 0.0270705 0)
(-0.019025 0.0288931 0)
(-0.0192936 0.0308293 0)
(-0.0192182 0.032861 0)
(-0.0188172 0.0349638 0)
(-0.0181145 0.0371079 0)
(-0.0171381 0.0392581 0)
(-0.0159186 0.0413746 0)
(-0.0144882 0.0434141 0)
(-0.0128788 0.0453313 0)
(-0.0111216 0.0470807 0)
(-0.00924576 0.0486182 0)
(-0.00727806 0.0499032 0)
(-0.00524288 0.0509006 0)
(-0.00316435 0.0515821 0)
(-0.00105869 0.0519275 0)
(0.00183063 0.00614191 0)
(0.00546298 0.00616658 0)
(0.00901076 0.00621565 0)
(0.0124197 0.00628861 0)
(0.0156368 0.00638468 0)
(0.0186123 0.00650292 0)
(0.0213006 0.00664221 0)
(0.0236607 0.00680136 0)
(0.0256569 0.00697914 0)
(0.0272593 0.00717439 0)
(0.0284447 0.00738608 0)
(0.0291968 0.00761348 0)
(0.0295065 0.00785619 0)
(0.0293724 0.00811433 0)
(0.0288004 0.00838864 0)
(0.0278043 0.00868062 0)
(0.0264051 0.00899269 0)
(0.0246313 0.00932828 0)
(0.0225177 0.00969198 0)
(0.0201056 0.0100896 0)
(0.0174414 0.0105284 0)
(0.0145764 0.011017 0)
(0.0115652 0.0115652 0)
(0.00846508 0.0121843 0)
(0.00533458 0.0128869 0)
(0.00223227 0.0136863 0)
(-0.000784579 0.0145968 0)
(-0.0036613 0.0156325 0)
(-0.00634716 0.0168078 0)
(-0.00879664 0.0181357 0)
(-0.0109706 0.0196279 0)
(-0.0128371 0.0212935 0)
(-0.0143726 0.0231383 0)
(-0.0155619 0.0251638 0)
(-0.016399 0.0273661 0)
(-0.0168866 0.0297355 0)
(-0.0170358 0.0322554 0)
(-0.0168652 0.0349016 0)
(-0.0163998 0.0376426 0)
(-0.0156699 0.0404394 0)
(-0.014709 0.0432459 0)
(-0.0135524 0.04601 0)
(-0.0122351 0.0486752 0)
(-0.0107907 0.0511819 0)
(-0.00924962 0.0534704 0)
(-0.00763814 0.0554826 0)
(-0.00597801 0.057165 0)
(-0.00428655 0.0584711 0)
(-0.00257936 0.0593638 0)
(-0.00086191 0.0598164 0)
(0.00184074 0.00373132 0)
(0.00549321 0.00374694 0)
(0.00906083 0.00377806 0)
(0.0124892 0.0038245 0)
(0.0157251 0.00388598 0)
(0.0187187 0.00396217 0)
(0.0214245 0.00405276 0)
(0.0238012 0.00415749 0)
(0.0258134 0.00427619 0)
(0.0274314 0.00440893 0)
(0.0286322 0.00455603 0)
(0.0293999 0.00471822 0)
(0.0297258 0.00489672 0)
(0.0296092 0.00509336 0)
(0.0290568 0.00531076 0)
(0.0280832 0.0055524 0)
(0.0267106 0.00582282 0)
(0.0249683 0.0061277 0)
(0.0228928 0.00647405 0)
(0.0205264 0.00687028 0)
(0.0179172 0.0073263 0)
(0.0151178 0.00785357 0)
(0.0121843 0.00846508 0)
(0.0091753 0.0091753 0)
(0.00615037 0.01 0)