/*--------------------------------*- C++ -*----------------------------------*\
| =========                 |                                                 |
| \\      /  F ield         | OpenFOAM: The Open Source CFD Toolbox           |
|  \\    /   O peration     | Version:  2406                                  |
|   \\  /    A nd           | Website:  www.openfoam.com                      |
|    \\/     M anipulation  |                                                 |
\*---------------------------------------------------------------------------*/
FoamFile
{
    version     2.0;
    format      ascii;
    arch        "LSB;label=32;scalar=64";
    class       volScalarField;
    location    "0.5";
    object      gradTy;
}
// * * * * * * * * * * * * * * * * * * * * * * * * * * * * * * * * * * * * * //

dimensions      [0 -1 0 1 0 0 0];

internalField   nonuniform List<scalar> 
2500
(
0.0123816
0.0124276
0.0125226
0.0126625
0.0128453
0.0130684
0.0133281
0.0136206
0.0139411
0.0142848
0.0146462
0.0150197
0.0153994
0.0157794
0.0161538
0.0165167
0.0168625
0.0171858
0.0174815
0.0177452
0.0179727
0.0181607
0.0183063
0.0184074
0.0184625
0.0184711
0.0184332
0.0183496
0.0182218
0.0180522
0.0178437
0.0175997
0.0173244
0.0170223
0.0166983
0.0163578
0.0160063
0.0156494
0.0152927
0.014942
0.0146029
0.0142806
0.0139802
0.0137064
0.0134636
0.0132555
0.0130856
0.0129565
0.0128692
0.012818
0.0369264
0.0370674
0.0373507
0.0377685
0.0383149
0.0389813
0.0397575
0.0406312
0.041589
0.0426158
0.0436954
0.0448112
0.0459456
0.0470808
0.0481992
0.0492833
0.0503162
0.0512818
0.0521653
0.0529531
0.0536329
0.0541946
0.0546298
0.0549321
0.0550972
0.0551234
0.0550107
0.0547617
0.054381
0.0538755
0.0532538
0.0525264
0.0517056
0.050805
0.0498393
0.0488242
0.0477763
0.0467123
0.0456494
0.0446042
0.0435935
0.0426331
0.041738
0.0409223
0.0401988
0.0395788
0.0390724
0.0386885
0.0384327
0.0382947
0.0608922
0.0611271
0.0615933
0.0622824
0.0631837
0.0642831
0.0655636
0.0670052
0.0685853
0.0702793
0.0720606
0.0739014
0.075773
0.077646
0.0794914
0.0812802
0.0829847
0.0845784
0.0860367
0.0873372
0.0884599
0.089388
0.0901076
0.0906083
0.0908832
0.0909291
0.0907464
0.0903393
0.0897155
0.0888862
0.0878658
0.0866716
0.0853238
0.0838447
0.0822587
0.0805917
0.0788708
0.0771237
0.0753783
0.0736624
0.0720031
0.0704265
0.0689573
0.0676184
0.0664307
0.0654127
0.0645807
0.0639482
0.0635261
0.0633113
0.0839289
0.0842516
0.0848931
0.0858419
0.0870833
0.0885978
0.0903618
0.0923478
0.0945247
0.0968586
0.0993129
0.101849
0.104428
0.107009
0.109552
0.112018
0.114367
0.116565
0.118576
0.12037
0.12192
0.123202
0.124197
0.124892
0.125277
0.125346
0.125102
0.12455
0.1237
0.122568
0.121174
0.119542
0.117699
0.115676
0.113507
0.111227
0.108874
0.106485
0.104098
0.101752
0.0994835
0.0973284
0.0953203
0.0934904
0.091867
0.0904753
0.0893367
0.0884688
0.0878844
0.0875899
0.105653
0.106059
0.106865
0.108059
0.109621
0.111527
0.113747
0.116247
0.118987
0.121924
0.125013
0.128206
0.131452
0.134702
0.137903
0.141008
0.143967
0.146736
0.14927
0.151532
0.153488
0.155108
0.156368
0.157251
0.157744
0.157844
0.15755
0.15687
0.155817
0.154412
0.152679
0.150647
0.148353
0.145834
0.143133
0.140294
0.137363
0.134388
0.131417
0.128497
0.125674
0.122993
0.120495
0.118218
0.116199
0.114468
0.113051
0.11197
0.111241
0.110874
0.125723
0.126206
0.127166
0.128586
0.130445
0.132712
0.135353
0.138327
0.141587
0.145083
0.148759
0.152558
0.156422
0.16029
0.164102
0.167798
0.171323
0.174621
0.177642
0.18034
0.182675
0.184612
0.186123
0.187187
0.187791
0.187928
0.187599
0.186815
0.18559
0.183949
0.18192
0.179541
0.176852
0.173899
0.170731
0.167402
0.163966
0.160479
0.156998
0.153576
0.15027
0.14713
0.144206
0.141542
0.139179
0.137153
0.135496
0.13423
0.133376
0.132947
0.143826
0.144378
0.145476
0.1471
0.149226
0.15182
0.154841
0.158243
0.161973
0.165972
0.170178
0.174525
0.178947
0.183373
0.187737
0.19197
0.196007
0.199786
0.20325
0.206346
0.20903
0.21126
0.213006
0.214245
0.21496
0.215144
0.214801
0.213941
0.212582
0.210751
0.208483
0.205819
0.202805
0.199494
0.195942
0.192209
0.188357
0.184449
0.180547
0.176716
0.173014
0.1695
0.166228
0.163249
0.160608
0.158344
0.156491
0.155078
0.154123
0.153643
0.159675
0.160288
0.161507
0.16331
0.165669
0.168549
0.171903
0.175681
0.179822
0.184262
0.188933
0.193761
0.198672
0.20359
0.208439
0.213144
0.217633
0.221838
0.225696
0.229149
0.232145
0.234643
0.236607
0.238012
0.238842
0.239088
0.238755
0.237854
0.236407
0.234443
0.232001
0.229127
0.225872
0.222295
0.218457
0.214423
0.210262
0.206041
0.201831
0.197697
0.193707
0.189921
0.186398
0.183191
0.18035
0.177916
0.175925
0.174405
0.17338
0.172864
0.17302
0.173684
0.175005
0.176958
0.179515
0.182636
0.186271
0.190364
0.194852
0.199665
0.204728
0.209963
0.215288
0.220622
0.225883
0.23099
0.235865
0.240436
0.244632
0.248394
0.251667
0.254404
0.256569
0.258134
0.259083
0.259409
0.259115
0.258216
0.256735
0.254705
0.252168
0.249172
0.245776
0.24204
0.23803
0.233817
0.229473
0.22507
0.22068
0.216374
0.21222
0.208282
0.204622
0.201293
0.198345
0.195821
0.193758
0.192184
0.191123
0.190589
0.183649
0.184355
0.185756
0.18783
0.190544
0.193856
0.197715
0.202061
0.206826
0.211937
0.217314
0.222875
0.228533
0.234202
0.239795
0.245228
0.250418
0.255288
0.259767
0.263789
0.267297
0.270245
0.272593
0.274314
0.275391
0.275818
0.2756
0.274753
0.273302
0.271283
0.268741
0.265728
0.262304
0.258534
0.254488
0.250237
0.245857
0.241421
0.237003
0.232675
0.228505
0.224558
0.220893
0.217564
0.21462
0.212102
0.210046
0.208478
0.207421
0.20689
0.191393
0.192128
0.193588
0.19575
0.198579
0.202032
0.206055
0.210585
0.215554
0.220883
0.226491
0.232292
0.238197
0.244115
0.249957
0.255635
0.261065
0.266167
0.270866
0.275097
0.278802
0.281931
0.284447
0.286322
0.28754
0.288096
0.287996
0.287259
0.285913
0.283995
0.281552
0.278641
0.275322
0.271662
0.267733
0.263608
0.259361
0.255066
0.250796
0.246621
0.242607
0.238815
0.235302
0.232117
0.229305
0.226905
0.224946
0.223456
0.222451
0.221947
0.196126
0.196879
0.198376
0.200591
0.203491
0.20703
0.211154
0.215799
0.220894
0.22636
0.232113
0.238065
0.244126
0.250205
0.256209
0.26205
0.267643
0.272906
0.277765
0.282153
0.286014
0.289298
0.291968
0.293999
0.295375
0.296094
0.296164
0.295606
0.29445
0.292736
0.290514
0.287839
0.284776
0.281392
0.277757
0.273945
0.270026
0.266073
0.262154
0.258335
0.254675
0.25123
0.248049
0.245175
0.242646
0.240492
0.23874
0.237409
0.236514
0.236064
0.19777
0.19853
0.20004
0.202274
0.2052
0.20877
0.212931
0.217618
0.22276
0.228278
0.234087
0.240101
0.246227
0.252375
0.258453
0.264374
0.270051
0.275404
0.280362
0.284857
0.288836
0.29225
0.295065
0.297258
0.298817
0.299741
0.300042
0.299742
0.298875
0.297484
0.295618
0.293337
0.290702
0.287782
0.284644
0.281358
0.277992
0.274612
0.271278
0.268048
0.264972
0.262096
0.259458
0.25709
0.255019
0.253265
0.251845
0.250771
0.25005
0.249689
0.196296
0.19705
0.19855
0.200769
0.203674
0.20722
0.211353
0.21601
0.22112
0.226605
0.232383
0.238366
0.244465
0.250592
0.256656
0.262572
0.268256
0.273631
0.278627
0.283182
0.287243
0.290768
0.293724
0.296092
0.297864
0.299044
0.299647
0.299698
0.299234
0.2983
0.296948
0.295237
0.293228
0.290986
0.288576
0.286063
0.283507
0.280964
0.278485
0.276115
0.27389
0.271841
0.269991
0.268356
0.266948
0.265772
0.264832
0.264128
0.263659
0.263426
0.191723
0.192461
0.193926
0.196095
0.198935
0.202401
0.206443
0.210998
0.215997
0.221365
0.227023
0.232886
0.238869
0.244885
0.250849
0.256678
0.262294
0.267624
0.272603
0.277173
0.281286
0.284905
0.288004
0.290568
0.292594
0.294092
0.29508
0.295589
0.295659
0.295336
0.294676
0.293735
0.292576
0.291258
0.289841
0.288382
0.286931
0.285531
0.284219
0.283022
0.281958
0.281038
0.280262
0.279626
0.27912
0.278732
0.278445
0.278246
0.278121
0.27806
0.184121
0.18483
0.186238
0.188323
0.191054
0.194387
0.198275
0.202657
0.207469
0.212639
0.218092
0.223748
0.229526
0.235345
0.241125
0.24679
0.252267
0.25749
0.2624
0.266945
0.271086
0.274791
0.278043
0.280832
0.283163
0.285052
0.286523
0.287613
0.288365
0.28883
0.289064
0.289124
0.289069
0.288955
0.288834
0.288751
0.288745
0.288841
0.289057
0.289397
0.289855
0.290414
0.291047
0.291723
0.292403
0.293048
0.29362
0.294084
0.29441
0.294578
0.173607
0.174276
0.175606
0.177574
0.180153
0.183302
0.186975
0.191118
0.195669
0.200563
0.20573
0.211095
0.216585
0.222126
0.227644
0.233072
0.238344
0.243403
0.248198
0.252686
0.256837
0.260629
0.264051
0.267106
0.269804
0.272171
0.274239
0.276051
0.277656
0.279108
0.280466
0.281787
0.283127
0.284536
0.286057
0.287723
0.289553
0.291553
0.293716
0.296017
0.298417
0.300867
0.303304
0.30566
0.307859
0.309831
0.311504
0.312818
0.313724
0.314185
0.160344
0.160963
0.162193
0.164015
0.166401
0.169318
0.17272
0.176561
0.180783
0.185328
0.190132
0.195129
0.200254
0.20544
0.210625
0.215749
0.220758
0.225603
0.230244
0.234651
0.238804
0.24269
0.246313
0.249683
0.252825
0.255772
0.258568
0.261263
0.263914
0.26658
0.269324
0.272202
0.275268
0.278566
0.282126
0.285965
0.290083
0.29446
0.299056
0.303812
0.30865
0.313475
0.31818
0.32265
0.326766
0.33041
0.333474
0.335864
0.337502
0.338334
0.14454
0.145099
0.146211
0.147858
0.150016
0.152655
0.155735
0.159215
0.163046
0.167174
0.171546
0.176105
0.180794
0.185558
0.190345
0.195106
0.1998
0.20439
0.208849
0.213159
0.217313
0.221314
0.225177
0.228928
0.232603
0.236249
0.239922
0.243684
0.2476
0.251738
0.256163
0.260935
0.266103
0.271705
0.277759
0.284262
0.29119
0.298492
0.306089
0.313879
0.321733
0.329504
0.337026
0.344127
0.350629
0.356359
0.36116
0.364893
0.367448
0.368743
0.126443
0.126935
0.127911
0.129358
0.131255
0.133576
0.136288
0.139356
0.142737
0.14639
0.150268
0.154325
0.158517
0.162799
0.167133
0.171482
0.175819
0.180122
0.184378
0.188586
0.192753
0.196899
0.201056
0.205264
0.209578
0.21406
0.218781
0.223816
0.229245
0.235143
0.241584
0.24863
0.256329
0.264709
0.273777
0.283509
0.29385
0.304712
0.315972
0.327473
0.339025
0.350415
0.361406
0.371752
0.381202
0.389514
0.396466
0.401864
0.405555
0.407425
0.106341
0.106757
0.107583
0.108807
0.110415
0.112383
0.114686
0.117297
0.120181
0.123306
0.126637
0.13014
0.133781
0.137532
0.141367
0.145264
0.149213
0.153207
0.157252
0.161362
0.165565
0.169899
0.174414
0.179172
0.184247
0.18972
0.19568
0.202222
0.20944
0.217423
0.226256
0.236004
0.246718
0.258418
0.271095
0.284703
0.299153
0.314314
0.330008
0.346014
0.362068
0.377874
0.393107
0.407429
0.420498
0.431985
0.441586
0.449038
0.45413
0.456711
0.084551
0.0848846
0.0855479
0.0865323
0.0878256
0.0894123
0.0912737
0.093389
0.0957358
0.0982909
0.101031
0.103936
0.106986
0.110166
0.113466
0.116884
0.120423
0.124098
0.127932
0.131962
0.136235
0.140811
0.145764
0.151178
0.157151
0.163789
0.171203
0.17951
0.188825
0.199256
0.2109
0.223834
0.238108
0.25374
0.270705
0.288931
0.308293
0.32861
0.349638
0.371079
0.392581
0.413746
0.434141
0.453313
0.470807
0.486182
0.499032
0.509006
0.515821
0.519275
0.0614191
0.0616658
0.0621565
0.0628861
0.0638468
0.0650292
0.0664221
0.0680136
0.0697914
0.0717439
0.0738608
0.0761348
0.0785619
0.0811433
0.0838864
0.0868062
0.0899269
0.0932828
0.0969198
0.100896
0.105284
0.11017
0.115652
0.121843
0.128869
0.136863
0.145968
0.156325
0.168078
0.181357
0.196279
0.212935
0.231383
0.251638
0.273661
0.297355
0.322554
0.349016
0.376426
0.404394
0.432459
0.4601
0.486752
0.511819
0.534704
0.554826
0.57165
0.584711
0.593638
0.598164
0.0373132
0.0374694
0.0377806
0.038245
0.0388598
0.0396217
0.0405276
0.0415749
0.0427619
0.0440893
0.0455603
0.0471822
0.0489672
0.0509336
0.0531076
0.055524
0.0582282
0.061277
0.0647405
0.0687028
0.073263
0.0785357
0.0846508
0.091753
0.1
0.109561
0.120612
0.133331
0.147892
0.164458
0.183173
0.204147
0.227453
0.253106
0.281059
0.311188
0.343281
0.377033
0.412044
0.447815
0.483755
0.519197
0.553409
0.585622
0.615058
0.640963
0.662638
0.679476
0.690988
0.696826
0.0126169
0.0126807
0.0128082
0.0130014
0.0132624
0.0135947
0.014003
0.0144946
0.015079
0.0157695
0.0165833
0.0175433
0.0186785
0.0200256
0.0216305
0.0235492
0.0258501
0.0286146
0.0319392
0.0359362
0.0407353
0.0464836
0.0533458
0.0615037
0.0711542
0.0825067
0.0957791
0.111192
0.128962
0.149291
0.172358
0.198306
0.227225
0.259142
0.294004
0.331661
0.371857
0.414216
0.45824
0.503304
0.548665
0.593474
0.636799
0.677656
0.715042
0.747982
0.775572
0.797022
0.811696
0.819141
-0.0122764
-0.0123057
-0.0123629
-0.0124425
-0.0125373
-0.0126371
-0.0127287
-0.0127951
-0.0128152
-0.0127629
-0.0126062
-0.0123064
-0.0118169
-0.0110817
-0.0100345
-0.00859631
-0.0066747
-0.00416162
-0.000931985
0.00315778
0.00827093
0.0145911
0.0223227
0.0316897
0.0429345
0.0563146
0.0720982
0.0905574
0.111961
0.136561
0.164585
0.196215
0.231576
0.270712
0.313573
0.35999
0.409661
0.462136
0.516806
0.5729
0.629495
0.685525
0.739814
0.791109
0.838131
0.879624
0.914422
0.941503
0.960044
0.969455
-0.0369702
-0.0370918
-0.0373319
-0.0376815
-0.0381284
-0.0386555
-0.0392414
-0.0398589
-0.0404755
-0.0410518
-0.0415412
-0.0418885
-0.0420291
-0.0418873
-0.0413751
-0.04039
-0.0388138
-0.0365102
-0.0333234
-0.0290758
-0.0235673
-0.0165735
-0.00784579
0.00288837
0.0159236
0.0315737
0.0501664
0.0720365
0.0975161
0.126922
0.160543
0.198617
0.241314
0.288714
0.340779
0.397331
0.458024
0.522332
0.589524
0.658667
0.728622
0.798066
0.865524
0.929413
0.988103
1.03999
1.08357
1.11753
1.1408
1.15262
-0.0610715
-0.0612828
-0.0617011
-0.0623137
-0.0631032
-0.0640462
-0.0651126
-0.0662656
-0.0674609
-0.068646
-0.0697596
-0.0707299
-0.0714741
-0.0718963
-0.0718864
-0.0713174
-0.0700442
-0.0679009
-0.0646986
-0.0602235
-0.0542351
-0.0464643
-0.036613
-0.0243541
-0.00933327
0.00882852
0.0305292
0.0561782
0.0861855
0.120948
0.160831
0.20615
0.257139
0.313929
0.376513
0.444717
0.518164
0.596249
0.678115
0.762641
0.848443
0.93389
1.01714
1.09621
1.16903
1.23355
1.28785
1.33022
1.35928
1.37405
-0.0841967
-0.084494
-0.0850829
-0.0859471
-0.0870646
-0.0884051
-0.0899307
-0.0915948
-0.0933417
-0.095106
-0.0968117
-0.0983707
-0.0996818
-0.100629
-0.10108
-0.100882
-0.099862
-0.0978241
-0.0945444
-0.0897703
-0.0832177
-0.0745691
-0.0634716
-0.0495374
-0.0323442
-0.0114384
0.0136596
0.0434475
0.0784293
0.1191
0.165924
0.219312
0.279591
0.346966
0.421487
0.503003
0.59112
0.685166
0.784152
0.886753
0.991303
1.09581
1.19799
1.29535
1.38528
1.46517
1.53255
1.58521
1.62138
1.63978
-0.105978
-0.106357
-0.107106
-0.108206
-0.109632
-0.111345
-0.113301
-0.115444
-0.117707
-0.120012
-0.122268
-0.124372
-0.126204
-0.127629
-0.12849
-0.128611
-0.127791
-0.125801
-0.122381
-0.117238
-0.110041
-0.100422
-0.0879664
-0.0722203
-0.0526855
-0.0288238
-6.12169e-05
0.034203
0.0745847
0.121698
0.17613
0.238417
0.309005
0.388209
0.476165
0.572778
0.677664
0.7901
0.908969
1.03273
1.1594
1.28656
1.4114
1.53081
1.64148
1.74009
1.82346
1.88875
1.93366
1.95653
-0.126071
-0.126524
-0.12742
-0.128739
-0.130447
-0.132503
-0.134854
-0.137436
-0.14017
-0.142968
-0.145725
-0.148322
-0.150622
-0.152469
-0.153685
-0.15407
-0.153392
-0.151391
-0.14777
-0.142193
-0.134283
-0.123612
-0.109706
-0.0920341
-0.0700165
-0.0430194
-0.0103624
0.0286748
0.0748393
0.128887
0.191559
0.263547
0.345454
0.437745
0.540687
0.654283
0.7782
0.911695
1.05354
1.20199
1.35469
1.50874
1.66069
1.80667
1.9425
2.06395
2.16693
2.24776
2.30345
2.33183
-0.144157
-0.144677
-0.145706
-0.147219
-0.149181
-0.151544
-0.154249
-0.157223
-0.160378
-0.163615
-0.166815
-0.169845
-0.172552
-0.174761
-0.176273
-0.176861
-0.176268
-0.1742
-0.170323
-0.164259
-0.155579
-0.143797
-0.128371
-0.108693
-0.0840908
-0.0538265
-0.0170999
0.0269449
0.0792072
0.140612
0.212082
0.294507
0.38869
0.495297
0.614782
0.747307
0.892647
1.05009
1.21835
1.39545
1.57869
1.7646
1.94898
2.12701
2.29343
2.44283
2.56992
2.66994
2.73897
2.77419
-0.159952
-0.160529
-0.161673
-0.163356
-0.165539
-0.168169
-0.171181
-0.174494
-0.178013
-0.181627
-0.185207
-0.188605
-0.191654
-0.19416
-0.195905
-0.196638
-0.196074
-0.193889
-0.189711
-0.183119
-0.173631
-0.160705
-0.143726
-0.122003
-0.0947666
-0.0611663
-0.0202695
0.0289314
0.0875095
0.156586
0.237302
0.330784
0.438092
0.560153
0.697682
0.851078
1.02031
1.20477
1.40318
1.6134
1.83234
2.05594
2.2791
2.49584
2.69953
2.88321
3.04007
3.16389
3.24951
3.29326
-0.173205
-0.173832
-0.175072
-0.176897
-0.179264
-0.182117
-0.185384
-0.18898
-0.1928
-0.196725
-0.200616
-0.204314
-0.207635
-0.210372
-0.212287
-0.213107
-0.212522
-0.210176
-0.205664
-0.198521
-0.188216
-0.174144
-0.155619
-0.131866
-0.102012
-0.065087
-0.0200151
0.0343781
0.0993598
0.176275
0.26652
0.371508
0.492612
0.631098
0.788028
0.96414
1.15971
1.37437
1.60693
1.85519
2.11573
2.38382
2.65334
2.91691
3.16614
3.39209
3.58588
3.73934
3.84572
3.90014
-0.183712
-0.184377
-0.185693
-0.18763
-0.190142
-0.19317
-0.196638
-0.200455
-0.20451
-0.208677
-0.212807
-0.216731
-0.220255
-0.223155
-0.225178
-0.226031
-0.225381
-0.222844
-0.217981
-0.210287
-0.199182
-0.184002
-0.16399
-0.138285
-0.105909
-0.0657659
-0.0166309
0.0428503
0.114158
0.198887
0.298726
0.415425
0.550737
0.706349
0.883778
1.08423
1.30845
1.55646
1.82735
2.11899
2.42775
2.74824
3.0732
3.39355
3.69865
3.97695
4.21681
4.40744
4.5399
4.60777
-0.191309
-0.192001
-0.193372
-0.195389
-0.198005
-0.201158
-0.20477
-0.208743
-0.212965
-0.217301
-0.221596
-0.225673
-0.229327
-0.232325
-0.234397
-0.235235
-0.234486
-0.23174
-0.226528
-0.218308
-0.206455
-0.19025
-0.168866
-0.141358
-0.106645
-0.063505
-0.0105572
0.0537399
0.131094
0.223373
0.332593
0.460886
0.610458
0.78351
0.982138
1.20818
1.46302
1.74732
2.06072
2.4014
2.76571
3.14773
3.53898
3.92833
4.30231
4.64586
4.94357
5.18111
5.34658
5.43148
-0.195879
-0.196587
-0.197991
-0.200055
-0.202733
-0.205961
-0.209656
-0.213721
-0.218038
-0.222469
-0.226854
-0.231011
-0.234726
-0.237757
-0.239825
-0.240608
-0.239735
-0.236777
-0.23124
-0.222548
-0.210037
-0.192936
-0.170358
-0.141276
-0.104513
-0.0587205
-0.00236683
0.0662808
0.149165
0.248444
0.366487
0.505856
0.669273
0.859551
1.0795
1.33177
1.61864
1.94172
2.30151
2.69695
3.12473
3.5787
4.04917
4.52266
4.98204
5.40753
5.77848
6.07564
6.28312
6.3897
-0.197354
-0.198068
-0.199481
-0.20156
-0.204257
-0.207506
-0.211226
-0.215315
-0.219656
-0.224109
-0.22851
-0.232673
-0.236382
-0.239387
-0.241403
-0.242099
-0.241091
-0.237936
-0.232118
-0.223037
-0.209996
-0.192182
-0.168652
-0.138309
-0.0998879
-0.0519256
0.00725613
0.0795746
0.167207
0.272606
0.398512
0.547951
0.724215
0.930824
1.17144
1.44972
1.76914
2.13259
2.54199
2.99758
3.49707
4.03459
4.59962
5.17606
5.74213
6.27149
6.73601
7.10951
7.37072
7.50499
-0.195715
-0.196423
-0.197824
-0.199884
-0.202556
-0.205775
-0.209459
-0.213508
-0.217803
-0.222204
-0.226549
-0.230649
-0.234287
-0.237213
-0.239136
-0.239722
-0.23858
-0.235259
-0.229228
-0.219872
-0.206468
-0.188172
-0.163998
-0.132794
-0.0932165
-0.0437056
0.0175473
0.0926296
0.183939
0.294217
0.426572
0.584509
0.771931
0.993132
1.25275
1.55567
1.90682
2.3109
2.77181
3.29196
3.87105
4.50463
5.18214
5.88503
6.58565
7.24831
7.83368
8.30558
8.63571
8.80533
-0.190993
-0.191683
-0.193049
-0.195058
-0.197663
-0.200801
-0.204391
-0.208335
-0.212515
-0.216795
-0.221013
-0.224984
-0.228492
-0.23129
-0.233087
-0.233551
-0.23229
-0.228849
-0.222696
-0.213205
-0.199643
-0.181145
-0.156699
-0.125113
-0.0849879
-0.0346878
0.0277012
0.10441
0.198029
0.31156
0.448463
0.612704
0.808804
1.04187
1.3176
1.64227
2.02259
2.46549
2.97766
3.56473
4.22995
4.9721
5.78248
6.64114
7.51351
8.35009
9.09355
9.69297
10.1113
10.3257
-0.183266
-0.183927
-0.185237
-0.187163
-0.18966
-0.192667
-0.196106
-0.199883
-0.203883
-0.207974
-0.212
-0.21578
-0.219105
-0.221732
-0.223379
-0.223717
-0.222362
-0.218866
-0.2127
-0.203241
-0.189757
-0.171381
-0.14709
-0.115675
-0.075708
-0.0255054
0.0369171
0.113894
0.208166
0.322948
0.461997
0.629698
0.831146
1.07224
1.35977
1.70149
2.10611
2.58324
3.14311
3.79592
4.55048
5.41181
6.37678
7.42746
8.52253
9.59166
10.5451
11.31
11.8398
12.1098
-0.172658
-0.17328
-0.174513
-0.176326
-0.178676
-0.181506
-0.184741
-0.188291
-0.19205
-0.195889
-0.199662
-0.203195
-0.206288
-0.208709
-0.210187
-0.210406
-0.208995
-0.205519
-0.199464
-0.190225
-0.177083
-0.159186
-0.135524
-0.104894
-0.0658704
-0.0167597
0.0444492
0.120143
0.213151
0.326828
0.465151
0.63283
0.83544
1.07958
1.37305
1.72503
2.14632
2.64947
3.24887
3.96056
4.8014
5.78687
6.92611
8.21169
9.60123
10.9938
12.2314
13.2088
13.8753
14.2114
-0.15934
-0.159914
-0.161051
-0.162722
-0.164889
-0.167496
-0.170477
-0.173747
-0.177206
-0.180736
-0.1842
-0.187435
-0.190254
-0.192441
-0.193739
-0.193853
-0.19243
-0.18906
-0.183255
-0.174437
-0.161918
-0.144882
-0.122351
-0.0931625
-0.0559261
-0.00898095
0.0496583
0.122366
0.211982
0.321909
0.456228
0.619839
0.818638
1.05974
1.35173
1.70504
2.13234
2.64901
3.27381
4.02941
4.94285
6.04506
7.36768
8.93204
10.7183
12.5937
14.2213
15.4627
16.2859
16.6941
-0.143524
-0.144041
-0.145063
-0.146567
-0.148516
-0.150862
-0.153543
-0.156483
-0.159591
-0.162759
-0.165863
-0.168756
-0.171266
-0.173195
-0.17431
-0.174336
-0.172954
-0.169781
-0.164369
-0.156179
-0.144574
-0.128788
-0.107907
-0.0808355
-0.0462574
-0.00259274
0.0520589
0.119986
0.203948
0.30728
0.434025
0.589093
0.778478
1.00953
1.29128
1.63497
2.05461
2.56785
3.19713
3.97136
4.92816
6.1171
7.60328
9.4677
11.7845
14.4808
16.638
18.1757
19.1531
19.6269
-0.12546
-0.125911
-0.126804
-0.128117
-0.129819
-0.131867
-0.134207
-0.136772
-0.139483
-0.142244
-0.144945
-0.147456
-0.149627
-0.151281
-0.152212
-0.152175
-0.150886
-0.148004
-0.143127
-0.135772
-0.125365
-0.111216
-0.0924962
-0.0682095
-0.0371548
0.00211746
0.0513596
0.112695
0.1887
0.282516
0.397979
0.539801
0.713795
0.927179
1.18898
1.51059
1.90651
2.39545
3.00194
3.75873
4.71089
5.92293
7.49304
9.58459
12.5062
16.9429
19.7106
21.4863
22.5614
23.0713
-0.105434
-0.105812
-0.106561
-0.107662
-0.109091
-0.11081
-0.112774
-0.114927
-0.1172
-0.119514
-0.121775
-0.123873
-0.12568
-0.127046
-0.127796
-0.127722
-0.126579
-0.124077
-0.119871
-0.113545
-0.104606
-0.0924576
-0.0763814
-0.0555119
-0.0288016
0.0050187
0.0474901
0.100489
0.166307
0.247753
0.348284
0.472179
0.624766
0.812725
1.0445
1.33088
1.68576
2.12732
2.67965
3.37534
4.25968
5.39796
6.88983
8.90102
11.7433
16.1055
18.8075
20.5302
21.5681
22.0588
-0.083761
-0.0840599
-0.0846513
-0.0855244
-0.0866578
-0.0880222
-0.0895808
-0.0912886
-0.0930915
-0.0949256
-0.0967159
-0.0983745
-0.0997989
-0.100869
-0.101443
-0.101355
-0.100408
-0.0983674
-0.0949541
-0.0898335
-0.0826036
-0.0727806
-0.0597801
-0.042895
-0.0212676
0.00614453
0.0406119
0.0836877
0.137277
0.203726
0.285941
0.387539
0.513054
0.668211
0.860303
1.0987
1.39556
1.76681
2.23357
2.82408
3.57645
4.54238
5.79135
7.41134
9.48621
11.9547
13.9109
15.2863
16.1498
16.565
-0.0607812
-0.0609975
-0.0614209
-0.0620521
-0.0628732
-0.0638624
-0.0649924
-0.0662305
-0.0675371
-0.0688657
-0.0701616
-0.0713607
-0.072388
-0.0731557
-0.0735604
-0.0734802
-0.0727707
-0.07126
-0.0687427
-0.0649727
-0.0596538
-0.0524288
-0.0428655
-0.03044
-0.0145156
0.00568381
0.0311063
0.0629144
0.102539
0.151749
0.212743
0.288272
0.381797
0.497711
0.641634
0.820808
1.04464
1.32545
1.67935
2.12748
2.69708
3.42209
4.34096
5.48666
6.85606
8.33745
9.61663
10.5764
11.2022
11.5087
-0.0368548
-0.0369933
-0.0372486
-0.0376302
-0.0381274
-0.0387266
-0.0394111
-0.0401611
-0.0409524
-0.0417568
-0.0425409
-0.0432659
-0.043886
-0.0443477
-0.0445881
-0.0445329
-0.0440938
-0.0431659
-0.0416236
-0.0393163
-0.0360627
-0.0316435
-0.0257936
-0.0181908
-0.00844305
0.00392814
0.0195086
0.0390179
0.0633438
0.0935866
0.131117
0.177656
0.235373
0.307031
0.396171
0.507362
0.646538
0.821419
1.04202
1.32117
1.67473
2.12096
2.67736
3.35243
4.12853
4.93739
5.65712
6.21604
6.58943
6.77481
-0.0123504
-0.0124016
-0.0124885
-0.0126165
-0.0127829
-0.0129835
-0.0132127
-0.0134638
-0.0137286
-0.0139978
-0.0142602
-0.0145027
-0.0147099
-0.0148639
-0.0149436
-0.0149241
-0.0147756
-0.0144629
-0.0139438
-0.0131676
-0.0120732
-0.0105869
-0.0086191
-0.00606126
-0.00278099
0.00138338
0.00662999
0.0132025
0.0214017
0.0316011
0.0442666
0.0599832
0.0794908
0.103732
0.133915
0.171601
0.218815
0.278182
0.353087
0.447802
0.567488
0.717799
0.903597
1.12602
1.37739
1.63586
1.86807
2.051
2.17461
2.23639
)
;

boundaryField
{
    walls
    {
        type            calculated;
        value           nonuniform List<scalar> 
200
(
0
0
0
0
0
0
0
0
0
0
0
0
0
0
0
0
0
0
0
0
0
0
0
0
0
0
0
0
0
0
0
0
0
0
0
0
0
0
0
0
0
0
0
0
0
0
0
0
0
0
0.0123816
0.0369264
0.0608922
0.0839289
0.105653
0.125723
0.143826
0.159675
0.17302
0.183649
0.191393
0.196126
0.19777
0.196296
0.191723
0.184121
0.173607
0.160344
0.14454
0.126443
0.106341
0.084551
0.0614191
0.0373132
0.0126169
-0.0122764
-0.0369702
-0.0610715
-0.0841967
-0.105978
-0.126071
-0.144157
-0.159952
-0.173205
-0.183712
-0.191309
-0.195879
-0.197354
-0.195715
-0.190993
-0.183266
-0.172658
-0.15934
-0.143524
-0.12546
-0.105434
-0.083761
-0.0607812
-0.0368548
-0.0123504
0.012818
0.0382947
0.0633113
0.0875899
0.110874
0.132947
0.153643
0.172864
0.190589
0.20689
0.221947
0.236064
0.249689
0.263426
0.27806
0.294578
0.314185
0.338334
0.368743
0.407425
0.456711
0.519275
0.598164
0.696826
0.819141
0.969455
1.15262
1.37405
1.63978
1.95653
2.33183
2.77419
3.29326
3.90014
4.60777
5.43148
6.3897
7.50499
8.80533
10.3257
12.1098
14.2114
16.6941
19.6269
23.0713
22.0588
16.565
11.5087
6.77481
2.23639
0
0
0
0
0
0
0
0
0
0
0
0
0
0
0
0
0
0
0
0
0
0
0
0
0
0
0
0
0
0
0
0
0
0
0
0
0
0
0
0
0
0
0
0
0
0
0
0
0
0
)
;
    }
    frontAndBack
    {
        type            empty;
    }
}


// ************************************************************************* //
