/*--------------------------------*- C++ -*----------------------------------*\
| =========                 |                                                 |
| \\      /  F ield         | OpenFOAM: The Open Source CFD Toolbox           |
|  \\    /   O peration     | Version:  2406                                  |
|   \\  /    A nd           | Website:  www.openfoam.com                      |
|    \\/     M anipulation  |                                                 |
\*---------------------------------------------------------------------------*/
FoamFile
{
    version     2.0;
    format      ascii;
    arch        "LSB;label=32;scalar=64";
    class       volScalarField;
    location    "0.5";
    object      T;
}
// * * * * * * * * * * * * * * * * * * * * * * * * * * * * * * * * * * * * * //

dimensions      [0 0 0 1 0 0 0];

internalField   nonuniform List<scalar> 
2500
(
0.123005
0.1235
0.124482
0.125936
0.127839
0.130162
0.132868
0.135915
0.139255
0.142836
0.146601
0.150492
0.154446
0.158402
0.162298
0.166071
0.169663
0.173016
0.176077
0.178797
0.181134
0.183051
0.184516
0.185508
0.186009
0.186012
0.185518
0.184533
0.183075
0.181166
0.178836
0.176123
0.17307
0.169725
0.166141
0.162376
0.158489
0.154541
0.150595
0.146712
0.142955
0.139382
0.136049
0.133008
0.130308
0.12799
0.12609
0.124639
0.123659
0.123165
0.1235
0.123997
0.124983
0.126442
0.128353
0.130685
0.133401
0.13646
0.139813
0.143407
0.147187
0.151092
0.155062
0.159034
0.162944
0.166732
0.170337
0.173703
0.176776
0.179507
0.181853
0.183777
0.185249
0.186244
0.186747
0.186751
0.186255
0.185267
0.183804
0.181888
0.17955
0.176827
0.173763
0.170406
0.166809
0.163031
0.159129
0.155167
0.151207
0.14731
0.143539
0.139953
0.136608
0.133557
0.130846
0.12852
0.126614
0.125158
0.124174
0.123678
0.124482
0.124983
0.125976
0.127447
0.129372
0.131721
0.134458
0.13754
0.140919
0.144541
0.148349
0.152284
0.156284
0.160286
0.164226
0.168043
0.171675
0.175067
0.178163
0.180915
0.18328
0.185219
0.186702
0.187705
0.188213
0.188217
0.187718
0.186724
0.18525
0.183321
0.180966
0.178224
0.175138
0.171757
0.168135
0.164329
0.1604
0.15641
0.152421
0.148497
0.144699
0.141087
0.137718
0.134645
0.131916
0.129573
0.127653
0.126187
0.125197
0.124697
0.125936
0.126442
0.127447
0.128934
0.13088
0.133256
0.136024
0.13914
0.142556
0.146218
0.150069
0.154048
0.158093
0.162139
0.166124
0.169983
0.173657
0.177086
0.180217
0.183001
0.185392
0.187353
0.188853
0.189868
0.190383
0.190388
0.189885
0.188881
0.187392
0.185443
0.183064
0.180294
0.177175
0.173759
0.1701
0.166254
0.162284
0.158252
0.154222
0.150257
0.146419
0.14277
0.139366
0.136261
0.133504
0.131137
0.129197
0.127716
0.126715
0.12621
0.127839
0.128353
0.129372
0.13088
0.132855
0.135265
0.138073
0.141234
0.1447
0.148415
0.152321
0.156358
0.160461
0.164566
0.168608
0.172523
0.17625
0.179729
0.182906
0.18573
0.188156
0.190147
0.191669
0.192701
0.193224
0.193231
0.192722
0.191706
0.190198
0.188223
0.185813
0.183006
0.179846
0.176384
0.172675
0.168778
0.164755
0.160669
0.156585
0.152567
0.148678
0.14498
0.141531
0.138385
0.13559
0.133192
0.131227
0.129726
0.128712
0.128201
0.130162
0.130685
0.131721
0.133256
0.135265
0.137717
0.140574
0.14379
0.147316
0.151095
0.15507
0.159177
0.163351
0.167527
0.17164
0.175624
0.179415
0.182956
0.186188
0.189062
0.191531
0.193557
0.195108
0.196158
0.196693
0.196702
0.196187
0.195156
0.193625
0.19162
0.189171
0.18632
0.18311
0.179593
0.175825
0.171866
0.167779
0.163628
0.159478
0.155397
0.151446
0.14769
0.144186
0.14099
0.138152
0.135715
0.133719
0.132194
0.131165
0.130645
0.132868
0.133401
0.134458
0.136024
0.138073
0.140574
0.143487
0.146767
0.150363
0.154218
0.158272
0.16246
0.166718
0.170978
0.175172
0.179235
0.183103
0.186714
0.190012
0.192944
0.195463
0.197531
0.199114
0.200188
0.200735
0.200748
0.200226
0.199179
0.197622
0.195581
0.19309
0.190187
0.18692
0.18334
0.179504
0.175474
0.171314
0.167088
0.162865
0.15871
0.154689
0.150866
0.147299
0.144046
0.141158
0.138678
0.136647
0.135095
0.134047
0.133518
0.135915
0.13646
0.13754
0.13914
0.141234
0.14379
0.146767
0.15012
0.153795
0.157734
0.161877
0.166158
0.170509
0.174862
0.179149
0.183302
0.187256
0.190947
0.194318
0.197316
0.199892
0.202008
0.203628
0.204728
0.205291
0.205308
0.204779
0.203713
0.202128
0.20005
0.197511
0.194552
0.191222
0.187572
0.183663
0.179554
0.175313
0.171005
0.1667
0.162465
0.158367
0.15447
0.150835
0.14752
0.144576
0.142049
0.139979
0.138398
0.13733
0.136791
0.139255
0.139813
0.140919
0.142556
0.1447
0.147316
0.150363
0.153795
0.157556
0.161589
0.165829
0.170211
0.174665
0.179121
0.18351
0.187761
0.191808
0.195588
0.19904
0.20211
0.204749
0.206917
0.208579
0.209709
0.210289
0.210312
0.209777
0.208693
0.207078
0.204959
0.20237
0.199352
0.195955
0.192232
0.188243
0.184051
0.179724
0.17533
0.170938
0.166618
0.162437
0.158462
0.154755
0.151374
0.148372
0.145795
0.143684
0.142071
0.140982
0.140433
0.142836
0.143407
0.144541
0.146218
0.148415
0.151095
0.154218
0.157734
0.161589
0.165721
0.170066
0.174556
0.179121
0.183687
0.188185
0.192542
0.19669
0.200564
0.204103
0.207251
0.209959
0.212184
0.213891
0.215053
0.215654
0.215684
0.215144
0.214042
0.212398
0.210238
0.207597
0.204519
0.201053
0.197254
0.193184
0.188907
0.184492
0.180008
0.175527
0.17112
0.166856
0.162801
0.15902
0.155572
0.15251
0.149882
0.147729
0.146085
0.144975
0.144415
0.146601
0.147187
0.148349
0.150069
0.152321
0.15507
0.158272
0.161877
0.165829
0.170066
0.174522
0.179126
0.183806
0.188489
0.193101
0.19757
0.201825
0.205799
0.20943
0.212661
0.215441
0.217727
0.219482
0.220681
0.221305
0.221344
0.220801
0.219683
0.21801
0.21581
0.213119
0.209981
0.206447
0.202573
0.198422
0.194061
0.189558
0.184987
0.180418
0.175925
0.171577
0.167445
0.163591
0.160077
0.156956
0.154279
0.152085
0.15041
0.149279
0.148709
0.150492
0.151092
0.152284
0.154048
0.156358
0.159177
0.16246
0.166158
0.170211
0.174556
0.179126
0.183848
0.188648
0.193452
0.198183
0.202767
0.207133
0.211211
0.214938
0.218255
0.221111
0.223461
0.225269
0.226506
0.227156
0.227208
0.226664
0.225533
0.223834
0.221598
0.218859
0.215665
0.212066
0.208121
0.203893
0.199451
0.194866
0.190211
0.185559
0.180985
0.17656
0.172354
0.168432
0.164856
0.161682
0.158958
0.156727
0.155023
0.153873
0.153292
0.154446
0.155062
0.156284
0.158093
0.160461
0.163351
0.166718
0.170509
0.174665
0.179121
0.183806
0.188648
0.193571
0.198497
0.20335
0.208052
0.212531
0.216716
0.220541
0.223947
0.226882
0.229299
0.231161
0.232441
0.23312
0.233188
0.232647
0.231507
0.229788
0.22752
0.22474
0.221495
0.217838
0.213829
0.209533
0.205019
0.200359
0.19563
0.190904
0.186258
0.181764
0.177494
0.173513
0.169884
0.166662
0.163899
0.161635
0.159907
0.15874
0.158151
0.158402
0.159034
0.160286
0.162139
0.164566
0.167527
0.170978
0.174862
0.179121
0.183687
0.188489
0.193452
0.198497
0.203547
0.208521
0.213342
0.217935
0.222227
0.226153
0.22965
0.232665
0.235151
0.237071
0.238397
0.239108
0.239198
0.238665
0.237522
0.235789
0.233497
0.230684
0.227398
0.223694
0.219632
0.215279
0.210706
0.205986
0.201195
0.19641
0.191707
0.187159
0.182838
0.17881
0.17514
0.171883
0.169089
0.166801
0.165054
0.163875
0.16328
0.162298
0.162944
0.164226
0.166124
0.168608
0.17164
0.175172
0.179149
0.18351
0.188185
0.193101
0.198183
0.20335
0.208521
0.213616
0.218555
0.223261
0.227661
0.231686
0.235275
0.238371
0.240929
0.24291
0.244285
0.245034
0.24515
0.244633
0.243495
0.241758
0.239452
0.236618
0.233304
0.229567
0.225468
0.221076
0.216461
0.2117
0.206868
0.202044
0.197303
0.19272
0.188367
0.184313
0.180618
0.17734
0.174529
0.172228
0.170472
0.169286
0.168688
0.166071
0.166732
0.168043
0.169983
0.172523
0.175624
0.179235
0.183302
0.187761
0.192542
0.19757
0.202767
0.208052
0.213342
0.218555
0.223609
0.228427
0.232932
0.237057
0.240737
0.243916
0.246547
0.248591
0.250019
0.250812
0.250961
0.250468
0.249346
0.247616
0.24531
0.242471
0.239148
0.235397
0.231282
0.226873
0.222241
0.217463
0.212617
0.207779
0.203028
0.198437
0.194079
0.190021
0.186325
0.183047
0.180238
0.177939
0.176184
0.174999
0.174402
0.169663
0.170337
0.171675
0.173657
0.17625
0.179415
0.183103
0.187256
0.191808
0.19669
0.201825
0.207133
0.212531
0.217935
0.223261
0.228427
0.233352
0.23796
0.242182
0.245952
0.249215
0.251921
0.254032
0.255518
0.256361
0.256552
0.256094
0.254999
0.253292
0.251005
0.24818
0.244869
0.24113
0.237026
0.232629
0.228011
0.223249
0.218422
0.213606
0.208879
0.204314
0.199984
0.195954
0.192287
0.189036
0.186251
0.183973
0.182235
0.181062
0.180471
0.173016
0.173703
0.175067
0.177086
0.179729
0.182956
0.186714
0.190947
0.195588
0.200564
0.205799
0.211211
0.216716
0.222227
0.227661
0.232932
0.23796
0.242668
0.246985
0.250844
0.254189
0.256972
0.259153
0.260704
0.261604
0.261848
0.261438
0.260388
0.258722
0.256475
0.25369
0.250419
0.246722
0.242664
0.238315
0.23375
0.229045
0.224279
0.219528
0.214868
0.210374
0.206114
0.202153
0.198551
0.195362
0.192631
0.190399
0.188696
0.187548
0.18697
0.176077
0.176776
0.178163
0.180217
0.182906
0.186188
0.190012
0.194318
0.19904
0.204103
0.20943
0.214938
0.220541
0.226153
0.231686
0.237057
0.242182
0.246985
0.251392
0.255339
0.258767
0.261629
0.263884
0.265505
0.266474
0.266783
0.266437
0.26545
0.263849
0.261668
0.258953
0.255757
0.252141
0.248169
0.243914
0.23945
0.234853
0.2302
0.225568
0.221031
0.21666
0.212523
0.208682
0.205193
0.202107
0.199468
0.197312
0.19567
0.194562
0.194005
0.178797
0.179507
0.180915
0.183001
0.18573
0.189062
0.192944
0.197316
0.20211
0.207251
0.212661
0.218255
0.223947
0.22965
0.235275
0.240737
0.245952
0.250844
0.255339
0.25937
0.262882
0.265825
0.26816
0.269861
0.270909
0.271298
0.271035
0.270135
0.268626
0.266544
0.263936
0.260857
0.257366
0.253532
0.249425
0.24512
0.240693
0.236218
0.231771
0.227424
0.223243
0.219294
0.215634
0.212316
0.209387
0.206886
0.204845
0.203292
0.202246
0.20172
0.181134
0.181853
0.18328
0.185392
0.188156
0.191531
0.195463
0.199892
0.204749
0.209959
0.215441
0.221111
0.226882
0.232665
0.238371
0.243916
0.249215
0.254189
0.258767
0.262882
0.266477
0.269505
0.271927
0.273716
0.274857
0.275345
0.275188
0.274403
0.273018
0.271074
0.268617
0.265703
0.262394
0.258757
0.254865
0.25079
0.246607
0.242389
0.238207
0.23413
0.230221
0.22654
0.223138
0.220063
0.217355
0.215048
0.213171
0.211744
0.210785
0.210302
0.183051
0.183777
0.185219
0.187353
0.190147
0.193557
0.197531
0.202008
0.206917
0.212184
0.217727
0.223461
0.229299
0.235151
0.240929
0.246547
0.251921
0.256972
0.261629
0.265825
0.269505
0.272621
0.275137
0.277028
0.278278
0.278887
0.278862
0.278224
0.277004
0.275241
0.272987
0.270297
0.267235
0.263869
0.260269
0.256508
0.252659
0.248791
0.244972
0.241264
0.237726
0.234409
0.231358
0.228614
0.226207
0.224165
0.222509
0.221254
0.220411
0.219988
0.184516
0.185249
0.186702
0.188853
0.191669
0.195108
0.199114
0.203628
0.208579
0.213891
0.219482
0.225269
0.231161
0.237071
0.24291
0.248591
0.254032
0.259153
0.263884
0.26816
0.271927
0.275137
0.277757
0.279763
0.281143
0.281897
0.282036
0.281583
0.280571
0.279044
0.277053
0.274656
0.271918
0.268907
0.265693
0.262347
0.258939
0.255533
0.252192
0.248973
0.245925
0.243089
0.240504
0.238195
0.236187
0.234496
0.233132
0.232104
0.231417
0.231073
0.185508
0.186244
0.187705
0.189868
0.192701
0.196158
0.200188
0.204728
0.209709
0.215053
0.220681
0.226506
0.232441
0.238397
0.244285
0.250019
0.255518
0.260704
0.265505
0.269861
0.273716
0.277028
0.279763
0.281901
0.283433
0.284361
0.284701
0.284477
0.283727
0.282496
0.280838
0.278814
0.27649
0.273934
0.271215
0.268403
0.265561
0.262752
0.260029
0.25744
0.255024
0.252813
0.250829
0.249086
0.247595
0.246358
0.245375
0.244642
0.244157
0.243915
0.186009
0.186747
0.188213
0.190383
0.193224
0.196693
0.200735
0.205291
0.210289
0.215654
0.221305
0.227156
0.23312
0.239108
0.245034
0.250812
0.256361
0.261604
0.266474
0.270909
0.274857
0.278278
0.281143
0.283433
0.285143
0.286279
0.28686
0.286916
0.286487
0.285623
0.28438
0.282822
0.281016
0.279031
0.276936
0.274795
0.27267
0.270614
0.268674
0.266886
0.265275
0.263857
0.26264
0.26162
0.26079
0.260134
0.259638
0.259283
0.259057
0.258946
0.186012
0.186751
0.188217
0.190388
0.193231
0.196702
0.200748
0.205308
0.210312
0.215684
0.221344
0.227208
0.233188
0.239198
0.24515
0.250961
0.256552
0.261848
0.266783
0.271298
0.275345
0.278887
0.281897
0.284361
0.286279
0.287662
0.288532
0.288925
0.288885
0.288467
0.287732
0.286746
0.285579
0.2843
0.282976
0.281669
0.280435
0.27932
0.278358
0.277572
0.276971
0.276552
0.2763
0.276193
0.276197
0.276277
0.276398
0.276523
0.276625
0.27668
0.185518
0.186255
0.187718
0.189885
0.192722
0.196187
0.200226
0.204779
0.209777
0.215144
0.220801
0.226664
0.232647
0.238665
0.244633
0.250468
0.256094
0.261438
0.266437
0.271035
0.275188
0.278862
0.282036
0.284701
0.28686
0.288532
0.289744
0.290539
0.290966
0.291085
0.290963
0.29067
0.290279
0.28986
0.289479
0.289194
0.289056
0.2891
0.289346
0.289802
0.290455
0.291278
0.292232
0.293265
0.294315
0.295319
0.296214
0.296944
0.297459
0.297724
0.184533
0.185267
0.186724
0.188881
0.191706
0.195156
0.199179
0.203713
0.208693
0.214042
0.219683
0.225533
0.231507
0.237522
0.243495
0.249346
0.254999
0.260388
0.26545
0.270135
0.274403
0.278224
0.281583
0.284477
0.286916
0.288925
0.290539
0.291806
0.292786
0.293544
0.294154
0.294691
0.295232
0.295848
0.296607
0.297562
0.298756
0.300214
0.301939
0.303919
0.306116
0.308474
0.310921
0.313369
0.315721
0.317877
0.31974
0.321224
0.322257
0.322785
0.183075
0.183804
0.18525
0.187392
0.190198
0.193625
0.197622
0.202128
0.207078
0.212398
0.21801
0.223834
0.229788
0.235789
0.241758
0.247616
0.253292
0.258722
0.263849
0.268626
0.273018
0.277004
0.280571
0.283727
0.286487
0.288885
0.290966
0.292786
0.294413
0.295923
0.297396
0.298916
0.300565
0.302417
0.304539
0.306983
0.309783
0.31295
0.316471
0.320307
0.324392
0.328634
0.332918
0.337113
0.341076
0.344661
0.347728
0.350152
0.35183
0.352686
0.181166
0.181888
0.183321
0.185443
0.188223
0.19162
0.195581
0.20005
0.204959
0.210238
0.21581
0.221598
0.22752
0.233497
0.239452
0.24531
0.251005
0.256475
0.261668
0.266544
0.271074
0.275241
0.279044
0.282496
0.285623
0.288467
0.291085
0.293544
0.295923
0.298308
0.300791
0.303464
0.306415
0.309727
0.313466
0.317682
0.322401
0.32762
0.333305
0.339389
0.345768
0.352307
0.358841
0.365183
0.371132
0.376484
0.381042
0.384633
0.387112
0.388376
0.178836
0.17955
0.180966
0.183064
0.185813
0.189171
0.19309
0.197511
0.20237
0.207597
0.213119
0.218859
0.22474
0.230684
0.236618
0.242471
0.24818
0.25369
0.258953
0.263936
0.268617
0.272987
0.277053
0.280838
0.28438
0.287732
0.290963
0.294154
0.297396
0.300791
0.304442
0.308453
0.312925
0.317945
0.323586
0.329894
0.336889
0.344554
0.35283
0.361617
0.370768
0.380097
0.389374
0.398346
0.406735
0.414265
0.420667
0.425702
0.429177
0.430947
0.176123
0.176827
0.178224
0.180294
0.183006
0.18632
0.190187
0.194552
0.199352
0.204519
0.209981
0.215665
0.221495
0.227398
0.233304
0.239148
0.244869
0.250419
0.255757
0.260857
0.265703
0.270297
0.274656
0.278814
0.282822
0.286746
0.29067
0.294691
0.298916
0.303464
0.308453
0.314005
0.320233
0.327237
0.335094
0.343854
0.353529
0.364088
0.375447
0.387468
0.399955
0.412656
0.425269
0.43745
0.448832
0.459042
0.467719
0.474543
0.47925
0.48165
0.17307
0.173763
0.175138
0.177175
0.179846
0.18311
0.18692
0.191222
0.195955
0.201053
0.206447
0.212066
0.217838
0.223694
0.229567
0.235397
0.24113
0.246722
0.252141
0.257366
0.262394
0.267235
0.271918
0.27649
0.281016
0.285579
0.290279
0.295232
0.300565
0.306415
0.312925
0.320233
0.328472
0.337757
0.348177
0.359787
0.372595
0.386557
0.401564
0.417435
0.433916
0.450681
0.467334
0.483426
0.498473
0.511978
0.523463
0.5325
0.538735
0.541915
0.169725
0.170406
0.171757
0.173759
0.176384
0.179593
0.18334
0.187572
0.192232
0.197254
0.202573
0.208121
0.213829
0.219632
0.225468
0.231282
0.237026
0.242664
0.248169
0.253532
0.258757
0.263869
0.268907
0.273934
0.279031
0.2843
0.28986
0.295848
0.302417
0.309727
0.317945
0.327237
0.337757
0.349643
0.363001
0.377897
0.394341
0.412279
0.431574
0.452004
0.473249
0.494894
0.516432
0.537283
0.556813
0.57437
0.589322
0.601099
0.609231
0.61338
0.166141
0.166809
0.168135
0.1701
0.172675
0.175825
0.179504
0.183663
0.188243
0.193184
0.198422
0.203893
0.209533
0.215279
0.221076
0.226873
0.232629
0.238315
0.243914
0.249425
0.254865
0.260269
0.265693
0.271215
0.276936
0.282976
0.289479
0.296607
0.304539
0.313466
0.323586
0.335094
0.348177
0.363001
0.379698
0.398352
0.418984
0.441532
0.465841
0.491642
0.518545
0.546033
0.573467
0.600102
0.625118
0.647662
0.666899
0.682074
0.692564
0.697921
0.162376
0.163031
0.164329
0.166254
0.168778
0.171866
0.175474
0.179554
0.184051
0.188907
0.194061
0.199451
0.205019
0.210706
0.216461
0.222241
0.228011
0.23375
0.23945
0.24512
0.25079
0.256508
0.262347
0.268403
0.274795
0.281669
0.289194
0.297562
0.306983
0.317682
0.329894
0.343854
0.359787
0.377897
0.398352
0.421266
0.446679
0.474537
0.504668
0.536764
0.570359
0.604823
0.63936
0.673025
0.704759
0.733449
0.757995
0.777397
0.790827
0.797691
0.158489
0.159129
0.1604
0.162284
0.164755
0.167779
0.171314
0.175313
0.179724
0.184492
0.189558
0.194866
0.200359
0.205986
0.2117
0.217463
0.223249
0.229045
0.234853
0.240693
0.246607
0.252659
0.258939
0.265561
0.27267
0.280435
0.289056
0.298756
0.309783
0.322401
0.336889
0.353529
0.372595
0.394341
0.418984
0.446679
0.477504
0.511425
0.54827
0.587698
0.629173
0.671942
0.715026
0.757236
0.797211
0.833496
0.864641
0.889318
0.906427
0.91518
0.154541
0.155167
0.15641
0.158252
0.160669
0.163628
0.167088
0.171005
0.17533
0.180008
0.184987
0.190211
0.19563
0.201195
0.206868
0.212617
0.218422
0.224279
0.2302
0.236218
0.242389
0.248791
0.255533
0.262752
0.270614
0.27932
0.2891
0.300214
0.31295
0.32762
0.344554
0.364088
0.386557
0.412279
0.441532
0.474537
0.511425
0.552206
0.596729
0.644642
0.695348
0.747971
0.801327
0.853932
0.904041
0.94975
0.989134
1.02042
1.04215
1.05328
0.150595
0.151207
0.152421
0.154222
0.156585
0.159478
0.162865
0.1667
0.170938
0.175527
0.180418
0.185559
0.190904
0.19641
0.202044
0.207779
0.213606
0.219528
0.225568
0.231771
0.238207
0.244972
0.252192
0.260029
0.268674
0.278358
0.289346
0.301939
0.316471
0.333305
0.35283
0.375447
0.401564
0.431574
0.465841
0.504668
0.54827
0.596729
0.649949
0.707601
0.769056
0.833326
0.899011
0.964278
1.0269
1.08436
1.13408
1.1737
1.20126
1.21538
0.146712
0.14731
0.148497
0.150257
0.152567
0.155397
0.15871
0.162465
0.166618
0.17112
0.175925
0.180985
0.186258
0.191707
0.197303
0.203028
0.208879
0.214868
0.221031
0.227424
0.23413
0.241264
0.248973
0.25744
0.266886
0.277572
0.289802
0.303919
0.320307
0.339389
0.361617
0.387468
0.417435
0.452004
0.491642
0.536764
0.587698
0.644642
0.707601
0.77632
0.850191
0.928157
1.00861
1.08933
1.16747
1.23968
1.30248
1.35265
1.38758
1.40549
0.142955
0.143539
0.144699
0.146419
0.148678
0.151446
0.154689
0.158367
0.162437
0.166856
0.171577
0.17656
0.181764
0.187159
0.19272
0.198437
0.204314
0.210374
0.21666
0.223243
0.230221
0.237726
0.245925
0.255024
0.265275
0.276971
0.290455
0.306116
0.324392
0.345768
0.370768
0.399955
0.433916
0.473249
0.518545
0.570359
0.629173
0.695348
0.769056
0.850191
0.938254
1.03221
1.13031
1.22992
1.32744
1.41836
1.49782
1.56142
1.60571
1.62841
0.139382
0.139953
0.141087
0.14277
0.14498
0.14769
0.150866
0.15447
0.158462
0.162801
0.167445
0.172354
0.177494
0.182838
0.188367
0.194079
0.199984
0.206114
0.212523
0.219294
0.22654
0.234409
0.243089
0.252813
0.263857
0.276552
0.291278
0.308474
0.328634
0.352307
0.380097
0.412656
0.450681
0.494894
0.546033
0.604823
0.671942
0.747971
0.833326
0.928157
1.03221
1.14463
1.26368
1.38643
1.50837
1.62335
1.72429
1.80504
1.86117
1.88988
0.136049
0.136608
0.137718
0.139366
0.141531
0.144186
0.147299
0.150835
0.154755
0.15902
0.163591
0.168432
0.173513
0.17881
0.184313
0.190021
0.195954
0.202153
0.208682
0.215634
0.223138
0.231358
0.240504
0.250829
0.26264
0.2763
0.292232
0.310921
0.332918
0.358841
0.389374
0.425269
0.467334
0.516432
0.573467
0.63936
0.715026
0.801327
0.899011
1.00861
1.13031
1.26368
1.40735
1.55839
1.71149
1.85811
1.98708
2.08977
2.16072
2.19686
0.133008
0.133557
0.134645
0.136261
0.138385
0.14099
0.144046
0.14752
0.151374
0.155572
0.160077
0.164856
0.169884
0.17514
0.180618
0.186325
0.192287
0.198551
0.205193
0.212316
0.220063
0.228614
0.238195
0.249086
0.26162
0.276193
0.293265
0.313369
0.337113
0.365183
0.398346
0.43745
0.483426
0.537283
0.600102
0.673025
0.757236
0.853932
0.964278
1.08933
1.22992
1.38643
1.55839
1.74371
1.9371
2.1271
2.29314
2.42355
2.51261
2.55765
0.130308
0.130846
0.131916
0.133504
0.13559
0.138152
0.141158
0.144576
0.148372
0.15251
0.156956
0.161682
0.166662
0.171883
0.17734
0.183047
0.189036
0.195362
0.202107
0.209387
0.217355
0.226207
0.236187
0.247595
0.26079
0.276197
0.294315
0.315721
0.341076
0.371132
0.406735
0.448832
0.498473
0.556813
0.625118
0.704759
0.797211
0.904041
1.0269
1.16747
1.32744
1.50837
1.71149
1.9371
2.18287
2.43735
2.6526
2.8168
2.92684
2.98194
0.12799
0.12852
0.129573
0.131137
0.133192
0.135715
0.138678
0.142049
0.145795
0.149882
0.154279
0.158958
0.163899
0.169089
0.174529
0.180238
0.186251
0.192631
0.199468
0.206886
0.215048
0.224165
0.234496
0.246358
0.260134
0.276277
0.295319
0.317877
0.344661
0.376484
0.414265
0.459042
0.511978
0.57437
0.647662
0.733449
0.833496
0.94975
1.08436
1.23968
1.41836
1.62335
1.85811
2.1271
2.43735
2.80481
3.08157
3.283
3.41506
3.4805
0.12609
0.126614
0.127653
0.129197
0.131227
0.133719
0.136647
0.139979
0.143684
0.147729
0.152085
0.156727
0.161635
0.166801
0.172228
0.177939
0.183973
0.190399
0.197312
0.204845
0.213171
0.222509
0.233132
0.245375
0.259638
0.276398
0.296214
0.31974
0.347728
0.381042
0.420667
0.467719
0.523463
0.589322
0.666899
0.757995
0.864641
0.989134
1.13408
1.30248
1.49782
1.72429
1.98708
2.29314
2.6526
3.08157
3.4049
3.638
3.78956
3.86429
0.124639
0.125158
0.126187
0.127716
0.129726
0.132194
0.135095
0.138398
0.142071
0.146085
0.15041
0.155023
0.159907
0.165054
0.170472
0.176184
0.182235
0.188696
0.19567
0.203292
0.211744
0.221254
0.232104
0.244642
0.259283
0.276523
0.296944
0.321224
0.350152
0.384633
0.425702
0.474543
0.5325
0.601099
0.682074
0.777397
0.889318
1.02042
1.1737
1.35265
1.56142
1.80504
2.08977
2.42355
2.8168
3.283
3.638
3.89446
4.06106
4.1431
0.123659
0.124174
0.125197
0.126715
0.128712
0.131165
0.134047
0.13733
0.140982
0.144975
0.149279
0.153873
0.15874
0.163875
0.169286
0.174999
0.181062
0.187548
0.194562
0.202246
0.210785
0.220411
0.231417
0.244157
0.259057
0.276625
0.297459
0.322257
0.35183
0.387112
0.429177
0.47925
0.538735
0.609231
0.692564
0.790827
0.906427
1.04215
1.20126
1.38758
1.60571
1.86117
2.16072
2.51261
2.92684
3.41506
3.78956
4.06106
4.23765
4.32463
0.123165
0.123678
0.124697
0.12621
0.128201
0.130645
0.133518
0.136791
0.140433
0.144415
0.148709
0.153292
0.158151
0.16328
0.168688
0.174402
0.180471
0.18697
0.194005
0.20172
0.210302
0.219988
0.231073
0.243915
0.258946
0.27668
0.297724
0.322785
0.352686
0.388376
0.430947
0.48165
0.541915
0.61338
0.697921
0.797691
0.91518
1.05328
1.21538
1.40549
1.62841
1.88988
2.19686
2.55765
2.98194
3.4805
3.86429
4.1431
4.32463
4.41409
)
;

boundaryField
{
    walls
    {
        type            zeroGradient;
    }
    frontAndBack
    {
        type            empty;
    }
}


// ************************************************************************* //
