/*--------------------------------*- C++ -*----------------------------------*\
| =========                 |                                                 |
| \\      /  F ield         | OpenFOAM: The Open Source CFD Toolbox           |
|  \\    /   O peration     | Version:  2406                                  |
|   \\  /    A nd           | Website:  www.openfoam.com                      |
|    \\/     M anipulation  |                                                 |
\*---------------------------------------------------------------------------*/
FoamFile
{
    version     2.0;
    format      ascii;
    arch        "LSB;label=32;scalar=64";
    class       volScalarField;
    location    "1.25";
    object      nu;
}
// * * * * * * * * * * * * * * * * * * * * * * * * * * * * * * * * * * * * * //

dimensions      [0 2 -1 0 0 0 0];

internalField   nonuniform List<scalar> 
1800
(
0.0365822
0.0529345
0.0396155
0.0165699
0.0120562
0.0103351
0.00941156
0.0088552
0.00869735
0.00863449
0.029456
0.0520552
0.0379799
0.0155297
0.0111054
0.00964173
0.00892933
0.0084998
0.00856072
0.00798983
0.0266829
0.0447289
0.0155281
0.0107239
0.00921594
0.00857864
0.0082745
0.00807312
0.0082872
0.00786468
0.0353187
0.0155544
0.0102729
0.00871332
0.00812931
0.00790464
0.00786473
0.00788993
0.00820846
0.00806506
0.0221088
0.0105956
0.008465
0.00779087
0.00757881
0.00759371
0.00775043
0.0079863
0.00844742
0.00849701
0.0124979
0.00860972
0.00759415
0.00731247
0.0073394
0.00755897
0.00792216
0.00839992
0.00903821
0.00943881
0.00931074
0.00760827
0.00710865
0.00708978
0.00734113
0.00780216
0.00844948
0.00926056
0.0102499
0.0110879
0.00786115
0.00702152
0.0068484
0.00707397
0.00759915
0.00841273
0.00951143
0.0108598
0.0124233
0.0138619
0.00704871
0.00667265
0.00676358
0.00726795
0.00818594
0.00956973
0.0114029
0.0135957
0.0159336
0.018546
0.00655018
0.00648161
0.00682744
0.00768479
0.00919622
0.0115208
0.0145568
0.0188547
0.0250083
0.0342462
0.00739693
0.00895245
0.0115061
0.0140227
0.0151771
0.0156419
0.0160229
0.0162932
0.0162319
0.0159584
0.00728972
0.00870751
0.0113309
0.014737
0.016772
0.0171937
0.0171794
0.0172494
0.0172738
0.0170668
0.0072802
0.00849863
0.0109131
0.0149236
0.0194653
0.0225514
0.0235106
0.0229959
0.0218816
0.0204556
0.00737797
0.00833213
0.0102944
0.0139385
0.0201949
0.0306229
0.0475267
0.0670925
0.069595
0.0389284
0.00765639
0.00825712
0.00961284
0.0119383
0.0150809
0.0185675
0.0221244
0.0254085
0.0279557
0.0337087
0.00826383
0.00835132
0.00913019
0.0105186
0.0121432
0.0136229
0.0148343
0.015737
0.0163066
0.0177782
0.00955098
0.00873477
0.00896901
0.00975896
0.010656
0.0114201
0.0120099
0.0124203
0.0126023
0.0132232
0.0128286
0.00965395
0.00922551
0.00956975
0.0100123
0.0103585
0.010605
0.0107682
0.0108006
0.0111303
0.0276163
0.0121318
0.0102081
0.0100196
0.0100464
0.0100068
0.00992914
0.00983803
0.00968319
0.00981139
0.039386
0.0228528
0.0139496
0.0118192
0.0108806
0.0101748
0.00965162
0.00924902
0.00893091
0.00930919
0.0166628
0.0140356
0.0136951
0.0142829
0.0149937
0.0167334
0.0189523
0.0222275
0.0242295
0.0309497
0.018445
0.0151519
0.01448
0.0144003
0.0146269
0.0160151
0.0179708
0.0210814
0.023105
0.0294149
0.0226221
0.0191105
0.015565
0.01401
0.0137739
0.0148214
0.0165616
0.0194414
0.0214678
0.0270897
0.0367914
0.0323272
0.0151035
0.0128008
0.0124609
0.0131462
0.0146036
0.0171451
0.0191994
0.0240227
0.0312233
0.0258842
0.0134755
0.0118428
0.0115102
0.0118014
0.012765
0.0147194
0.0165856
0.0205952
0.0195863
0.0165902
0.0125698
0.0114127
0.0111274
0.0111624
0.0116205
0.0129084
0.0143041
0.0174477
0.0145954
0.0135969
0.0121626
0.0110852
0.0109515
0.011038
0.0111837
0.0119249
0.012791
0.0150901
0.0122087
0.0121624
0.0116501
0.0105835
0.010608
0.0110164
0.0112159
0.0116373
0.0120735
0.0136684
0.0108571
0.0116994
0.0110959
0.0101419
0.0101722
0.0108061
0.0113823
0.0118274
0.0120259
0.0131007
0.00989413
0.0103727
0.0101168
0.00989316
0.00995111
0.0105272
0.0114533
0.0122608
0.0125228
0.0132837
0.00955058
0.00977922
0.00994069
0.0101265
0.0101478
0.0104528
0.0114354
0.0127661
0.0136021
0.0144559
0.00896309
0.00908459
0.00984619
0.0109585
0.0112083
0.0112089
0.0119595
0.0136355
0.015421
0.017205
0.00892946
0.00968947
0.0119822
0.0131024
0.0125552
0.0126891
0.0135195
0.015522
0.01827
0.0230858
0.00999148
0.0119001
0.0178391
0.0144047
0.0124402
0.0126532
0.0141127
0.0172168
0.0212586
0.0329759
0.0121357
0.0155021
0.0403965
0.0154196
0.012995
0.0131118
0.0143705
0.0172762
0.0208184
0.0294829
0.0156234
0.0172347
0.0244249
0.0133727
0.0116969
0.0119956
0.0131194
0.0149988
0.0169232
0.0199175
0.0172936
0.0147792
0.0116659
0.0099125
0.00965555
0.0101175
0.0109556
0.0119892
0.0128807
0.0139737
0.0112874
0.00965332
0.00836443
0.00800645
0.00826713
0.00884535
0.00949335
0.0101023
0.0105274
0.0109706
0.00784036
0.00739138
0.00727891
0.00756321
0.00808521
0.00860885
0.00899363
0.00926725
0.00939588
0.00953275
0.00681151
0.0070621
0.00769258
0.00887955
0.010189
0.0106087
0.0101977
0.00972855
0.00934193
0.00915569
0.0369816
0.0249179
0.0179722
0.0139018
0.011524
0.00995002
0.00890631
0.00861421
0.00811732
0.00846468
0.0191825
0.0220128
0.0183663
0.0185991
0.0142749
0.013677
0.0107647
0.0100528
0.00887493
0.00843247
0.0165208
0.0179717
0.0168755
0.0174751
0.0161926
0.0152706
0.0141265
0.011882
0.0114609
0.00957629
0.0170747
0.0171765
0.0182613
0.0169206
0.0188202
0.0157838
0.018312
0.0140589
0.0151047
0.0117696
0.0180875
0.0178765
0.0197664
0.0187203
0.0209906
0.0186314
0.0210589
0.0174952
0.018983
0.0150448
0.0161655
0.016913
0.0171908
0.0185981
0.0187571
0.0208619
0.020672
0.0225632
0.021984
0.020588
0.0134531
0.0141584
0.0138633
0.0149207
0.0146384
0.0161696
0.015806
0.018463
0.01749
0.0224218
0.0105959
0.0109131
0.0105733
0.0110388
0.0106851
0.0112268
0.0109341
0.011517
0.0112883
0.0119521
0.00814296
0.00809589
0.00803697
0.00803616
0.0079845
0.00802771
0.00798247
0.00805612
0.00801884
0.00811145
0.00643834
0.00641499
0.00643852
0.0064307
0.00647891
0.00648217
0.00655274
0.00656274
0.00665781
0.00666614
0.0101177
0.0106272
0.0105217
0.010412
0.0104175
0.0107156
0.0114675
0.0100021
0.00705812
0.00581689
0.0105583
0.0106931
0.0105688
0.0104244
0.0104368
0.0108332
0.0117281
0.00982084
0.00694758
0.00578022
0.0109971
0.0110441
0.0109056
0.0107518
0.0107682
0.0112698
0.0122126
0.00955208
0.00683708
0.00575324
0.0115301
0.0116015
0.0114416
0.0112724
0.011349
0.0120965
0.0130282
0.00923496
0.00673037
0.00573905
0.0121098
0.0122819
0.0121878
0.0120879
0.0123531
0.0136756
0.0138441
0.00885443
0.00663082
0.00574218
0.0128236
0.0132438
0.0132672
0.0132278
0.0140913
0.0170327
0.013581
0.00843831
0.00654249
0.00576651
0.013849
0.0142772
0.0144017
0.0153893
0.0192266
0.0229502
0.0121965
0.00801769
0.00646768
0.00581674
0.0150939
0.0163496
0.0190676
0.0264377
0.0400502
0.0195167
0.0105595
0.00762029
0.0064114
0.00590048
0.0201858
0.0299091
0.0521692
0.115741
0.0266181
0.0136008
0.00923258
0.00728037
0.00638291
0.00603128
0.053142
0.424596
0.0426546
0.0224674
0.0150198
0.0107567
0.00832526
0.00701087
0.00639785
0.00623407
0.0119327
0.0115446
0.0112039
0.0109013
0.0106225
0.0103782
0.0101601
0.00987482
0.00930481
0.00781447
0.0117612
0.0114087
0.011096
0.0108073
0.0105411
0.0103164
0.0101323
0.00982338
0.00890438
0.00723179
0.0116517
0.0113238
0.0110234
0.0107335
0.0104632
0.0102405
0.0100783
0.00974813
0.00854447
0.00683974
0.0115441
0.0112757
0.0110135
0.0107325
0.0104645
0.0102533
0.0101232
0.00975343
0.00825337
0.00656477
0.0113764
0.0111607
0.0109464
0.0106927
0.0104473
0.0102709
0.0102041
0.00980185
0.00800861
0.00636218
0.0112774
0.0110856
0.0108896
0.01064
0.0104136
0.0102881
0.010312
0.00987335
0.00780251
0.00621139
0.0113343
0.0112135
0.0110288
0.0107374
0.0104648
0.0103267
0.0103883
0.0098642
0.00760824
0.00609026
0.011304
0.011217
0.0111009
0.0108515
0.0106182
0.0105368
0.010682
0.00995191
0.00744338
0.0059954
0.0115438
0.0114088
0.0111756
0.0108222
0.0105676
0.0105639
0.0108832
0.0100144
0.0073024
0.00592139
0.0113959
0.0112079
0.0111001
0.010874
0.0106764
0.0107504
0.0112278
0.0100482
0.00717354
0.00586274
0.0894069
0.0318561
0.0333769
0.0453961
0.0428601
0.0430957
0.0351904
0.0283669
0.0195746
0.0136703
0.0935959
0.0309275
0.0317929
0.0445824
0.0434648
0.0451723
0.039009
0.0291481
0.0199808
0.0134694
0.0948161
0.0300154
0.0304397
0.0436112
0.0435021
0.0469049
0.0444647
0.0297385
0.0205465
0.0133333
0.0925681
0.0290623
0.0292047
0.0425222
0.0433429
0.0489678
0.0519637
0.0301024
0.0211214
0.0131264
0.0870084
0.0280462
0.028104
0.0413637
0.0436507
0.0517321
0.0601287
0.0302641
0.0215076
0.0128652
0.0797859
0.0270797
0.0272357
0.040294
0.0448715
0.0543974
0.0627833
0.0304343
0.0209015
0.0127645
0.0732048
0.0263924
0.0266006
0.0395242
0.0463286
0.0555248
0.0554264
0.030142
0.0196972
0.0125064
0.0684334
0.0262022
0.0260137
0.0388498
0.046269
0.0542423
0.0430792
0.0288858
0.0174761
0.0125267
0.066592
0.0266905
0.0253056
0.0373141
0.0428683
0.0471053
0.0315369
0.0259961
0.0164308
0.0121009
0.0707746
0.0277289
0.0246043
0.0345772
0.0343166
0.0316035
0.0228249
0.0206658
0.0144594
0.0136423
0.0877381
0.0296362
0.0238063
0.0294697
0.0238521
0.0226122
0.0161299
0.0173691
0.012902
0.0134732
0.0736844
0.0300016
0.0218113
0.0237739
0.0176568
0.0199586
0.0130113
0.0171972
0.0114253
0.0127573
0.056995
0.0291226
0.0200455
0.0194751
0.016471
0.0193174
0.0126492
0.0177178
0.0114633
0.0128188
0.047064
0.0282096
0.0189367
0.0167654
0.0189013
0.0177032
0.0151347
0.0164152
0.013654
0.0128637
0.0450845
0.0284036
0.0182186
0.0156608
0.0235421
0.0172287
0.0232051
0.0158613
0.017856
0.0134874
0.0503971
0.0281857
0.018192
0.015742
0.0209832
0.0186304
0.0242118
0.0179018
0.0199934
0.0144669
0.0577297
0.028612
0.0201335
0.0171392
0.0165359
0.0206708
0.016492
0.0217617
0.0177735
0.0160875
0.0433549
0.0385621
0.0228513
0.0170366
0.01307
0.0149164
0.0120248
0.0147285
0.0128784
0.0142052
0.0245182
0.0191083
0.0128066
0.0113295
0.0104037
0.0100671
0.00990063
0.00985263
0.00966446
0.00965612
0.00794382
0.00787107
0.00845441
0.00853344
0.00846256
0.00808697
0.00823717
0.00753003
0.00758831
0.00718584
0.0111497
0.0112224
0.0112855
0.0116643
0.012131
0.0126906
0.0134999
0.0145282
0.0164105
0.0223257
0.0118352
0.0118324
0.0119651
0.0124146
0.012863
0.0134795
0.0140073
0.0150123
0.0157934
0.0175348
0.0126818
0.0126965
0.0129212
0.0134046
0.0137704
0.0143661
0.0145884
0.015464
0.0156129
0.016716
0.0133677
0.0133469
0.0135854
0.0138658
0.0142332
0.0145916
0.0149437
0.0154447
0.0159289
0.01646
0.0140304
0.0139801
0.0142795
0.0144872
0.0149689
0.0151368
0.0157062
0.0158705
0.0166951
0.0168273
0.0149168
0.0148647
0.015128
0.0152361
0.0154892
0.0153731
0.0155422
0.015474
0.015657
0.0159007
0.0156203
0.0151539
0.0148083
0.0145035
0.0142134
0.0139651
0.0136989
0.01366
0.0134162
0.0137298
0.012922
0.0124216
0.0119547
0.0116832
0.0113851
0.0112627
0.0110173
0.0109918
0.0107426
0.0108749
0.00944264
0.00924452
0.00906446
0.00890661
0.00876723
0.00863658
0.00851211
0.0084031
0.00830246
0.00822007
0.00705983
0.00695609
0.00686045
0.00676869
0.006692
0.00661891
0.00656561
0.00651097
0.00648171
0.00644241
0.00596414
0.00679057
0.0086292
0.013978
0.0519177
0.0238464
0.0148237
0.0118396
0.00994127
0.00835707
0.00604159
0.00672948
0.00822949
0.0122426
0.0293233
0.0305446
0.0169756
0.0122556
0.0099289
0.00831646
0.00616209
0.00670413
0.00788149
0.0106461
0.0174353
0.0226133
0.0175773
0.0129102
0.0102077
0.0084874
0.00633783
0.00672266
0.00760872
0.00953284
0.0133614
0.0173989
0.0168306
0.0135792
0.0107556
0.00884363
0.00658674
0.0067955
0.00741863
0.00877941
0.0113012
0.0145068
0.0157304
0.0141313
0.0115414
0.00940435
0.00693777
0.00694151
0.00731394
0.0082527
0.00999491
0.0125505
0.0146193
0.0145498
0.0126475
0.0101904
0.0074346
0.00719655
0.00731973
0.00790178
0.00905967
0.0109441
0.0131968
0.0143924
0.0137931
0.0114382
0.00813068
0.00760768
0.00748263
0.00775723
0.00845255
0.00966965
0.0114463
0.0132829
0.0141992
0.0125731
0.00908704
0.00821997
0.00785239
0.00786716
0.00821791
0.00892419
0.0100058
0.0113474
0.0128292
0.0123354
0.0103574
0.00906123
0.00847965
0.00828066
0.0083779
0.00875763
0.00940714
0.010252
0.0113543
0.0120759
0.0118467
0.010094
0.00940923
0.00906482
0.0089505
0.0090672
0.00940192
0.00991188
0.0103659
0.0113602
0.0128626
0.011038
0.0105828
0.010331
0.0100744
0.0099168
0.00994766
0.0101466
0.0101835
0.0108137
0.0124677
0.0113546
0.0115119
0.0119341
0.0119548
0.0115181
0.0111259
0.0109523
0.0106543
0.0108957
0.011424
0.0112311
0.0119777
0.013395
0.0148879
0.0147773
0.0134989
0.0127192
0.0119467
0.0116748
0.0104415
0.0109805
0.0122425
0.0145114
0.018881
0.0255856
0.0219393
0.0183357
0.0149841
0.0132007
0.00951649
0.0105865
0.0122405
0.0148723
0.0195651
0.0335013
0.118393
0.0313143
0.0181215
0.0150258
0.00877098
0.0102082
0.0122114
0.0151261
0.0197959
0.0295415
0.0423717
0.0327845
0.0205211
0.0164961
0.00825036
0.00989436
0.0121514
0.0146773
0.0168946
0.0190064
0.020986
0.0210262
0.0184099
0.0162356
0.00787364
0.0095735
0.0119513
0.014059
0.0152266
0.016104
0.017022
0.0174241
0.0167692
0.0157649
0.00759435
0.00925191
0.0117114
0.0137837
0.0147089
0.0152721
0.0158377
0.0161984
0.0160604
0.0156192
0.0112371
0.0125424
0.015868
0.0267173
0.0526707
0.0310396
0.026527
0.0267659
0.0270392
0.0335417
0.0112102
0.0125095
0.0160098
0.0234294
0.0330305
0.0284294
0.0260094
0.0268029
0.0276839
0.0363142
0.0114239
0.0125483
0.0160012
0.0208789
0.0267261
0.0264604
0.0254483
0.0265683
0.0276805
0.0365895
0.0118126
0.0128405
0.0160367
0.0196418
0.0235983
0.0246199
0.0246646
0.0261257
0.027307
0.0357381
0.0121923
0.0134403
0.015855
0.0187177
0.0214756
0.0230347
0.0238277
0.0256166
0.0267837
0.0345671
0.012758
0.0141212
0.0153647
0.017703
0.0198121
0.021703
0.0230665
0.0251776
0.0263278
0.0335626
0.0134862
0.0144957
0.0147551
0.0166563
0.0184037
0.0205118
0.0223443
0.0248019
0.0260164
0.0329142
0.0140723
0.0144098
0.0141971
0.0156954
0.0171951
0.0193916
0.0215764
0.0243878
0.0257773
0.0325579
0.014703
0.0141118
0.0137624
0.0149154
0.0161977
0.0183552
0.0207325
0.0238421
0.0254758
0.0322838
0.015535
0.0138897
0.0135328
0.014416
0.0154524
0.0174589
0.0198446
0.0231249
0.0249898
0.0318328
0.0102627
0.0136303
0.0173346
0.0230184
0.0229745
0.0185788
0.0153139
0.0133245
0.0123423
0.0116784
0.00944595
0.0111989
0.0133925
0.015222
0.0153988
0.014389
0.013556
0.0128321
0.0124345
0.0120314
0.00985952
0.0115256
0.0142863
0.0169716
0.0176978
0.0169461
0.016019
0.0153251
0.0148957
0.0143841
0.0107147
0.0121804
0.0159223
0.0243219
0.0298096
0.0241292
0.0212356
0.0203117
0.0196213
0.0194094
0.0118026
0.012786
0.0162464
0.0302665
0.0739708
0.0298483
0.0250792
0.0247448
0.02441
0.0269096
0.00599421
0.00609735
0.00625131
0.00646284
0.00671961
0.00705211
0.00742806
0.00784403
0.00843101
0.0087171
0.00623335
0.00631854
0.00646177
0.00665995
0.00689217
0.00718127
0.00747961
0.00778399
0.00822882
0.00841753
0.00654285
0.00660568
0.00674258
0.00693555
0.00716541
0.00744177
0.00770387
0.00808057
0.00843458
0.00886124
0.00695214
0.00698837
0.007131
0.00734361
0.00762844
0.00795383
0.00830516
0.00897135
0.00926235
0.0104694
0.00747792
0.00748265
0.00764371
0.00791327
0.00831372
0.00878119
0.00948326
0.010539
0.0108873
0.01312
0.0132249
0.0130563
0.012885
0.0124563
0.0119968
0.0116515
0.0114256
0.0107347
0.00860867
0.00668756
0.0135601
0.0132397
0.0127582
0.012168
0.011693
0.0113881
0.0112172
0.0107345
0.00892428
0.00690549
0.0129653
0.012698
0.0124067
0.0120342
0.0116994
0.0114472
0.0112638
0.010839
0.009297
0.0071823
0.0130164
0.0127355
0.0124117
0.0120189
0.0116413
0.0113232
0.0110705
0.0107321
0.00967208
0.00755801
0.0129413
0.012577
0.0121997
0.0118035
0.0114352
0.0111264
0.0108902
0.01069
0.0101662
0.00813996
0.0128247
0.012406
0.0120019
0.0116114
0.011249
0.0109378
0.0107038
0.0106202
0.0107013
0.00911372
0.0126529
0.0121986
0.0117786
0.0113917
0.0110289
0.0107074
0.0104626
0.0104599
0.0111772
0.0111924
0.0124581
0.0119971
0.0115826
0.011211
0.0108602
0.0105427
0.0102847
0.0102292
0.0110935
0.014599
0.0122691
0.0118261
0.0114357
0.0110935
0.0107757
0.0104891
0.010236
0.0100821
0.0104505
0.0111321
0.0120973
0.0116816
0.0113177
0.0109987
0.0107052
0.0104449
0.0102081
0.0099728
0.00981699
0.0088471
0.00863544
0.0101879
0.0117478
0.0132974
0.0156787
0.0195929
0.0141135
0.00903737
0.00687859
0.0059206
0.00916849
0.0105241
0.0116366
0.0125494
0.0134193
0.0144446
0.0136415
0.00940938
0.00698502
0.005905
0.00983647
0.0107963
0.0114188
0.0118524
0.0122461
0.0127055
0.0125326
0.00965795
0.00711059
0.00591587
0.0103587
0.0109091
0.0112327
0.0114219
0.0115504
0.0117571
0.0118265
0.00984956
0.0072487
0.00594786
0.010664
0.0109771
0.01113
0.0111804
0.0111938
0.011297
0.0114185
0.00999464
0.00739377
0.00599937
0.0109324
0.0111395
0.0111731
0.0111049
0.0110248
0.0110645
0.0112138
0.0101461
0.00755376
0.00606769
0.0113005
0.0114229
0.0113149
0.01113
0.010987
0.0109964
0.0111584
0.0103065
0.0077272
0.00615188
0.011764
0.0117154
0.011436
0.0111751
0.0110185
0.0110254
0.0111876
0.0104653
0.00791618
0.0062523
0.0120336
0.0117786
0.0114601
0.0112443
0.0111298
0.0111451
0.0112781
0.0106086
0.00812481
0.00637203
0.0116787
0.0118301
0.0117153
0.0115705
0.0114517
0.011404
0.0114159
0.0107221
0.00835582
0.00651529
0.0351095
0.0453473
0.0526554
0.0301085
0.0260379
0.0263936
0.0297821
0.0401596
0.0277429
0.0195039
0.0386083
0.0422799
0.0748442
0.0331727
0.0272025
0.0264847
0.0283861
0.0295135
0.0259257
0.0161451
0.0426239
0.0405086
0.0927714
0.0354227
0.0281716
0.0269512
0.0282467
0.0267556
0.0249483
0.0150837
0.047029
0.0388015
0.0867163
0.0371504
0.0291234
0.0275668
0.0280004
0.0252008
0.0232841
0.0150335
0.0518209
0.0374395
0.06954
0.0390601
0.0304722
0.0285691
0.0279069
0.0246868
0.0219159
0.0150647
0.0570092
0.0364295
0.0562054
0.0413624
0.0323715
0.030091
0.0281097
0.0248449
0.0209271
0.0149752
0.0627241
0.0355776
0.0475817
0.043641
0.0347095
0.0321326
0.0285913
0.0253271
0.0201782
0.0147541
0.0691083
0.0347193
0.0419488
0.0452901
0.0372312
0.0346468
0.0293955
0.0259663
0.0196624
0.0144546
0.0760838
0.0337924
0.0381119
0.0460136
0.0396183
0.0375108
0.0306469
0.0267044
0.0193939
0.0141515
0.0831699
0.0328206
0.0353911
0.0459482
0.0415629
0.0404557
0.0325091
0.0275205
0.0193656
0.0138904
0.0072429
0.00744319
0.0084783
0.00902399
0.00962782
0.00975885
0.00993608
0.00960323
0.00957453
0.00805306
0.0149798
0.0106034
0.00985401
0.0102077
0.0106145
0.0109984
0.0114885
0.0117106
0.0119507
0.0117456
0.0249504
0.0209261
0.0127422
0.012474
0.0125857
0.01324
0.0141255
0.0160042
0.0164144
0.0153293
0.0294426
0.0762514
0.0190024
0.0167479
0.0162736
0.0173252
0.0190362
0.0271246
0.031161
0.0157549
0.0322553
0.052057
0.0314309
0.0230662
0.0211672
0.0222287
0.0252115
0.0455341
0.0415543
0.0178439
0.00757064
0.00723199
0.00690409
0.00661609
0.00638001
0.00619455
0.00605881
0.00597219
0.00593283
0.00593989
0.0106441
0.00974767
0.00891755
0.00820895
0.0075904
0.00707646
0.00668867
0.00642647
0.00627449
0.0062154
0.0128345
0.0117546
0.0107612
0.00993293
0.00912234
0.00831329
0.00760053
0.00707177
0.00674135
0.00657775
0.0129799
0.0120917
0.0114053
0.0108823
0.0103095
0.00957166
0.00869767
0.00790219
0.00735325
0.00705554
0.0131992
0.012279
0.0115283
0.0110062
0.0105826
0.0101536
0.00956876
0.00880836
0.00811519
0.00767015
)
;

boundaryField
{
    left
    {
        type            calculated;
        value           nonuniform List<scalar> 
35
(
0.0250198
0.024179
0.0236807
0.0241167
0.0256963
0.0279669
0.0296392
0.0281922
0.0201623
0.0079099
0.038197
0.0364471
0.0347307
0.0330548
0.031415
0.0298234
0.0283298
0.0270001
0.0259287
0.0252826
0.0348346
0.0382798
0.0413769
0.0435902
0.04472
0.0448667
0.0442661
0.0431291
0.0416358
0.0399502
0.00720738
0.0137346
0.0222953
0.0274933
0.0314731
)
;
    }
    right
    {
        type            calculated;
        value           nonuniform List<scalar> 
35
(
0.0116816
0.0120453
0.0144564
0.0197996
0.0287249
0.0384702
0.0439318
0.0455566
0.0451923
0.0441689
0.0434006
0.0433239
0.0439035
0.0447611
0.0452864
0.0447284
0.0423303
0.0376431
0.0312039
0.0246983
0.0195989
0.016266
0.0144155
0.0136882
0.0138658
0.0152221
0.0184601
0.0263483
0.0424115
0.0324767
0.0204176
0.0141358
0.0110349
0.00955609
0.00916101
)
;
    }
    down
    {
        type            calculated;
        value           nonuniform List<scalar> 
40
(
0.00637912
0.00677596
0.00806696
0.0086465
0.00931674
0.00933364
0.00939019
0.00895023
0.00879152
0.00722056
0.00684383
0.00660387
0.00637122
0.00617361
0.00602436
0.00591822
0.00584799
0.00580981
0.00580271
0.00582912
0.00589561
0.00600653
0.00616678
0.00638603
0.00665558
0.00701094
0.00742819
0.00793815
0.00865148
0.00910867
0.0116595
0.0197774
0.0323326
0.147401
0.131959
0.0439445
0.020392
0.0150365
0.0130818
0.0120202
)
;
    }
    up
    {
        type            calculated;
        value           nonuniform List<scalar> 
40
(
0.00657761
0.00731341
0.00911377
0.0136643
0.0248801
0.0194199
0.0129832
0.0107118
0.00965654
0.00920862
0.00599762
0.00599079
0.00601912
0.00602305
0.00607943
0.00608699
0.00617307
0.00617832
0.00629988
0.00629538
0.00647209
0.00638668
0.00630648
0.00623288
0.00616947
0.00611479
0.00607388
0.00603804
0.00601738
0.00599609
0.00678293
0.00682733
0.0075828
0.0078482
0.00785915
0.00755098
0.00763098
0.00693449
0.00698684
0.00658911
)
;
    }
    cylinder
    {
        type            calculated;
        value           nonuniform List<scalar> 
80
(
0.00695553
0.00689153
0.00693724
0.00711441
0.00753143
0.00845546
0.0107309
0.01933
0.0265273
0.0218554
0.0287456
0.0229802
0.0178028
0.0208593
0.0397438
0.02355
0.0119598
0.00889726
0.00751564
0.00674323
0.00552769
0.00550468
0.00549212
0.00549366
0.00551497
0.00556203
0.00564266
0.00576975
0.00596586
0.00626891
0.00721015
0.00668621
0.00634811
0.00611644
0.00594942
0.00582745
0.00573105
0.00565716
0.00560125
0.00555889
0.00620599
0.00637931
0.00660015
0.00690503
0.00738388
0.00821632
0.0101416
0.0151452
0.0108296
0.00820611
0.00566695
0.00562937
0.00561987
0.00563276
0.0056664
0.00571613
0.0057805
0.00585903
0.00595388
0.00606828
0.00573709
0.00584835
0.00601364
0.00625008
0.00658189
0.0070458
0.00769617
0.00860442
0.00987691
0.0117001
0.0141662
0.015844
0.0142327
0.0119655
0.0103889
0.00915875
0.00828173
0.00772955
0.00736507
0.00711525
)
;
    }
    defaultFaces
    {
        type            empty;
    }
}


// ************************************************************************* //
