/*--------------------------------*- C++ -*----------------------------------*\
| =========                 |                                                 |
| \\      /  F ield         | OpenFOAM: The Open Source CFD Toolbox           |
|  \\    /   O peration     | Version:  2406                                  |
|   \\  /    A nd           | Website:  www.openfoam.com                      |
|    \\/     M anipulation  |                                                 |
\*---------------------------------------------------------------------------*/
FoamFile
{
    version     2.0;
    format      ascii;
    arch        "LSB;label=32;scalar=64";
    class       volScalarField;
    location    "1.25";
    object      p;
}
// * * * * * * * * * * * * * * * * * * * * * * * * * * * * * * * * * * * * * //

dimensions      [0 2 -2 0 0 0 0];

internalField   nonuniform List<scalar> 
1800
(
-0.877917
-0.877762
-0.866629
-0.856887
-0.846069
-0.83061
-0.814579
-0.801332
-0.793142
-0.794794
-0.873993
-0.875985
-0.867726
-0.859811
-0.851481
-0.838945
-0.825004
-0.811862
-0.800253
-0.803165
-0.905692
-0.90405
-0.897771
-0.890175
-0.880971
-0.869873
-0.858117
-0.847057
-0.835989
-0.839949
-0.939937
-0.935049
-0.927038
-0.919013
-0.909609
-0.898522
-0.886494
-0.874666
-0.862945
-0.859337
-0.977025
-0.968669
-0.960615
-0.95091
-0.939263
-0.925838
-0.911346
-0.896782
-0.88283
-0.873241
-1.02437
-1.00957
-0.999561
-0.986942
-0.971014
-0.952419
-0.932318
-0.911809
-0.891856
-0.873749
-1.07664
-1.05842
-1.04561
-1.02809
-1.00514
-0.978525
-0.950254
-0.921697
-0.893712
-0.867169
-1.13614
-1.1146
-1.09712
-1.0716
-1.03836
-1.00109
-0.962653
-0.924501
-0.887511
-0.852532
-1.19821
-1.17257
-1.14765
-1.1107
-1.06451
-1.0149
-0.965189
-0.916784
-0.87123
-0.828908
-1.25331
-1.22302
-1.18728
-1.13633
-1.07631
-1.01426
-0.953389
-0.894744
-0.844636
-0.796371
-1.12626
-1.1293
-1.12842
-1.12666
-1.12456
-1.12287
-1.12201
-1.12184
-1.12264
-1.12541
-1.15302
-1.15342
-1.15216
-1.15138
-1.15108
-1.15187
-1.15452
-1.15903
-1.16524
-1.17387
-1.17052
-1.16757
-1.16606
-1.16638
-1.16828
-1.17147
-1.17653
-1.1843
-1.19538
-1.20998
-1.17308
-1.16661
-1.16492
-1.16658
-1.17137
-1.17901
-1.18944
-1.20272
-1.21829
-1.23598
-1.15756
-1.14691
-1.14458
-1.14678
-1.15346
-1.16492
-1.18089
-1.20052
-1.22217
-1.2452
-1.12339
-1.10886
-1.10506
-1.10576
-1.11099
-1.1213
-1.13653
-1.15613
-1.17924
-1.20508
-1.07511
-1.05803
-1.05225
-1.04978
-1.0511
-1.05733
-1.06857
-1.08456
-1.10471
-1.12822
-1.02101
-1.00287
-0.994956
-0.988282
-0.983926
-0.983584
-0.98777
-0.996583
-1.00983
-1.02724
-0.961777
-0.951255
-0.941518
-0.930867
-0.920642
-0.9125
-0.907509
-0.906569
-0.910333
-0.920348
-0.91311
-0.909699
-0.898306
-0.885928
-0.872317
-0.857862
-0.844688
-0.835105
-0.830981
-0.835096
-1.1468
-1.14979
-1.00344
-0.739089
-0.492764
-0.288331
-0.15267
-0.0727525
-0.0265315
-0.00347481
-1.22532
-1.28202
-1.11854
-0.80783
-0.518086
-0.287306
-0.141456
-0.0611073
-0.0179626
-0.000390318
-1.3023
-1.43177
-1.25525
-0.890151
-0.54902
-0.286861
-0.129041
-0.048113
-0.00837668
0.00329058
-1.36855
-1.58921
-1.40783
-0.983923
-0.585116
-0.287345
-0.115752
-0.0339618
0.00212445
0.00760279
-1.41257
-1.73958
-1.56926
-1.08656
-0.626456
-0.290103
-0.102989
-0.0196263
0.0130014
0.012352
-1.41573
-1.86608
-1.73023
-1.19679
-0.673978
-0.297155
-0.0930264
-0.0068756
0.023158
0.0170043
-1.3661
-1.95898
-1.87982
-1.31199
-0.728708
-0.31041
-0.0882175
0.00219787
0.0311029
0.0207294
-1.2663
-2.00973
-2.00797
-1.42698
-0.789851
-0.330723
-0.0900306
0.00590022
0.0353345
0.0226778
-1.12518
-2.0132
-2.10245
-1.53283
-0.854603
-0.35786
-0.0987515
0.00352457
0.0348429
0.0223533
-0.965822
-1.97116
-2.15571
-1.62478
-0.919625
-0.390765
-0.114018
-0.00469393
0.0295514
0.019789
-0.819028
-1.9501
-2.20025
-1.67005
-0.950691
-0.412357
-0.13175
-0.019564
0.0177775
0.0141347
-0.784132
-1.91436
-2.14241
-1.6047
-0.929245
-0.430364
-0.164329
-0.0482455
-0.00250558
0.00502466
-0.811556
-1.80889
-2.00503
-1.50257
-0.903941
-0.46008
-0.210722
-0.0854137
-0.0248882
-0.00280246
-0.819484
-1.61632
-1.80748
-1.39158
-0.886367
-0.49902
-0.263035
-0.126937
-0.0489906
-0.0103731
-0.792217
-1.40602
-1.59759
-1.2909
-0.886472
-0.554034
-0.322108
-0.168909
-0.0722581
-0.0181467
-0.739506
-1.20901
-1.40339
-1.21013
-0.904835
-0.619054
-0.385988
-0.213451
-0.0969642
-0.0262624
-0.663703
-1.02909
-1.23779
-1.15859
-0.946236
-0.691058
-0.443782
-0.248995
-0.113942
-0.0304111
-0.575408
-0.881434
-1.10965
-1.13347
-0.987535
-0.742284
-0.481448
-0.271367
-0.124019
-0.0322438
-0.491522
-0.803257
-1.03584
-1.10099
-0.999187
-0.764584
-0.498899
-0.283173
-0.129995
-0.0337344
-0.442956
-0.779602
-1.04018
-1.10757
-0.990537
-0.752707
-0.495578
-0.284889
-0.132111
-0.0347138
-0.693019
-0.746525
-0.78565
-0.816032
-0.838601
-0.852734
-0.84881
-0.824936
-0.788955
-0.803572
-0.566933
-0.633102
-0.686152
-0.730859
-0.766828
-0.794551
-0.811314
-0.817927
-0.823201
-0.830555
-0.458592
-0.527473
-0.587234
-0.638677
-0.684657
-0.72301
-0.758201
-0.786488
-0.805926
-0.821747
-0.36243
-0.430411
-0.492883
-0.547789
-0.599387
-0.64547
-0.688038
-0.726595
-0.754561
-0.784483
-0.275933
-0.342562
-0.40496
-0.461751
-0.514372
-0.56437
-0.607944
-0.651772
-0.686843
-0.728185
-0.19968
-0.264775
-0.325361
-0.3816
-0.433082
-0.482686
-0.526342
-0.57144
-0.61104
-0.656354
-0.135296
-0.198864
-0.256773
-0.310766
-0.360117
-0.406532
-0.449509
-0.49212
-0.532517
-0.574774
-0.0835396
-0.145758
-0.200677
-0.252942
-0.298985
-0.342111
-0.381953
-0.419217
-0.455582
-0.492009
-0.0517297
-0.111756
-0.165049
-0.215363
-0.258465
-0.29841
-0.333306
-0.363498
-0.392065
-0.418786
-0.0383248
-0.0974022
-0.153148
-0.20274
-0.247829
-0.28663
-0.320413
-0.348067
-0.371401
-0.389321
0.60074
0.536229
0.463658
0.388574
0.309957
0.225715
0.136642
0.0481637
-0.031051
-0.0815993
0.425883
0.358944
0.285482
0.207226
0.122713
0.0305255
-0.067505
-0.164736
-0.251245
-0.307839
0.228987
0.161955
0.0891052
0.0100733
-0.0767646
-0.172493
-0.274813
-0.376787
-0.467552
-0.528054
0.0391475
-0.028677
-0.10271
-0.183661
-0.272835
-0.371055
-0.475826
-0.580458
-0.673935
-0.734493
-0.133355
-0.203293
-0.279605
-0.362944
-0.454441
-0.554403
-0.660056
-0.766494
-0.858579
-0.918551
-0.286718
-0.35911
-0.437624
-0.522706
-0.615431
-0.715638
-0.820413
-0.924045
-1.01395
-1.07175
-0.423313
-0.49689
-0.57548
-0.659869
-0.75114
-0.849336
-0.950444
-1.04959
-1.1342
-1.18731
-0.54425
-0.614825
-0.689533
-0.770819
-0.859438
-0.952295
-1.04667
-1.13887
-1.21417
-1.26127
-0.639727
-0.704296
-0.776217
-0.856744
-0.940161
-1.02487
-1.10966
-1.1903
-1.25301
-1.29404
-0.724213
-0.788891
-0.861247
-0.929013
-0.995617
-1.06674
-1.13908
-1.20488
-1.25384
-1.28911
1.58461
1.59138
1.59823
1.60438
1.60942
1.6131
1.61522
1.61588
1.61748
1.63172
1.54115
1.54561
1.54956
1.55238
1.55374
1.55338
1.55114
1.54764
1.54583
1.55707
1.47926
1.48061
1.48091
1.47962
1.47652
1.47125
1.46369
1.45484
1.4483
1.45548
1.40051
1.39817
1.3938
1.38721
1.37835
1.36685
1.3526
1.33703
1.32428
1.32598
1.30574
1.2991
1.28937
1.27667
1.26114
1.24232
1.22018
1.19658
1.17632
1.17173
1.1968
1.18572
1.17004
1.15034
1.12702
1.09961
1.06819
1.03524
1.00623
0.99495
1.07479
1.05865
1.0367
1.00986
0.97862
0.942388
0.901294
0.85835
0.81962
0.801647
0.947968
0.926035
0.895825
0.859523
0.818346
0.771814
0.720227
0.666995
0.618371
0.592359
0.819871
0.791921
0.753114
0.706769
0.654615
0.596216
0.53225
0.466997
0.407562
0.372859
0.703168
0.660373
0.606275
0.546379
0.481964
0.411637
0.335796
0.259183
0.189692
0.146737
1.56249
1.53557
1.53015
1.51042
1.49744
1.48031
1.47378
1.47482
1.49504
1.55521
1.561
1.53291
1.52852
1.50835
1.49449
1.47525
1.4678
1.46519
1.47972
1.53031
1.56015
1.53048
1.52712
1.50613
1.49108
1.46929
1.46079
1.45291
1.45956
1.49491
1.55987
1.52834
1.52598
1.50375
1.48722
1.4625
1.45279
1.43794
1.43502
1.4486
1.55999
1.52652
1.5251
1.50119
1.48298
1.4549
1.44365
1.42021
1.40664
1.39116
1.56037
1.52507
1.5245
1.49843
1.47839
1.44651
1.43326
1.39973
1.37491
1.3217
1.56092
1.524
1.52413
1.49545
1.47341
1.43723
1.42167
1.37669
1.34046
1.23915
1.56166
1.52338
1.52396
1.49221
1.46785
1.42679
1.40891
1.35146
1.30306
1.14536
1.56255
1.52338
1.52406
1.48868
1.46135
1.41465
1.39496
1.32443
1.26183
1.03872
1.56352
1.52432
1.5248
1.4851
1.45372
1.40099
1.37998
1.2968
1.21976
0.928254
1.5654
1.52481
1.52565
1.48158
1.44636
1.38672
1.3626
1.26691
1.16904
0.827469
1.57195
1.52752
1.53133
1.48068
1.44122
1.3736
1.34496
1.24332
1.12557
0.839805
1.57911
1.53021
1.53792
1.48172
1.43834
1.36486
1.32812
1.22292
1.08476
0.845786
1.58654
1.5329
1.54383
1.48476
1.43597
1.3607
1.3108
1.20562
1.04796
0.839705
1.59514
1.53565
1.54657
1.48582
1.43147
1.35887
1.29203
1.19098
1.0178
0.826851
1.60501
1.53788
1.5445
1.47917
1.42508
1.35625
1.27224
1.1803
0.996574
0.813161
1.61621
1.53886
1.53578
1.46395
1.41719
1.35201
1.25316
1.17692
0.984487
0.801489
1.6314
1.54203
1.52574
1.44882
1.40835
1.34798
1.23538
1.18274
0.979288
0.794747
1.64705
1.54764
1.52008
1.43929
1.40062
1.34508
1.22046
1.19045
0.976548
0.795429
1.69206
1.54894
1.51679
1.43542
1.40118
1.34271
1.22227
1.20048
0.976204
0.811798
0.593764
0.445984
0.268048
0.095931
-0.0589135
-0.197129
-0.322355
-0.435195
-0.533251
-0.615478
0.557871
0.434204
0.291671
0.150505
0.0212732
-0.0968269
-0.206694
-0.310233
-0.405123
-0.489531
0.551905
0.436918
0.315672
0.19726
0.0868128
-0.017448
-0.116561
-0.212225
-0.300958
-0.383424
0.558046
0.451255
0.343952
0.24209
0.14641
0.053888
-0.0360196
-0.12447
-0.208703
-0.288338
0.571528
0.474203
0.377113
0.286486
0.201256
0.117866
0.0351972
-0.0470231
-0.127296
-0.203698
0.588466
0.500138
0.411355
0.328445
0.250197
0.173149
0.0959949
0.0186871
-0.0571497
-0.130337
0.605278
0.526576
0.445636
0.368346
0.294199
0.220982
0.147368
0.0734666
0.00153685
-0.0689591
0.622404
0.552404
0.478743
0.405876
0.333836
0.262677
0.191249
0.12076
0.0502778
-0.0188125
0.63519
0.569603
0.500246
0.429545
0.357777
0.286303
0.214422
0.145526
0.0770028
0.0118384
0.655034
0.590431
0.522316
0.451094
0.378194
0.305557
0.23351
0.16301
0.0929016
0.0262196
-1.08133
-1.04216
-0.985322
-0.920699
-0.856596
-0.797643
-0.745614
-0.700898
-0.664116
-0.636134
-1.18436
-1.14774
-1.09455
-1.03092
-0.968313
-0.91055
-0.859324
-0.814853
-0.777758
-0.749657
-1.24994
-1.21656
-1.16876
-1.10888
-1.04811
-0.991177
-0.940185
-0.896035
-0.858552
-0.829107
-1.28147
-1.25179
-1.21073
-1.157
-1.09924
-1.04361
-0.993168
-0.94903
-0.911005
-0.879888
-1.28561
-1.25967
-1.22634
-1.1804
-1.12774
-1.07476
-1.0253
-0.981211
-0.942726
-0.910257
-1.27081
-1.24843
-1.22249
-1.18493
-1.1391
-1.09052
-1.04318
-0.999792
-0.961596
-0.929211
-1.24568
-1.2268
-1.20692
-1.17722
-1.13895
-1.09617
-1.05242
-1.01065
-0.973167
-0.941772
-1.21723
-1.20171
-1.1865
-1.16331
-1.13194
-1.09489
-1.05507
-1.01523
-0.978244
-0.946842
-1.19008
-1.17786
-1.16636
-1.14843
-1.12289
-1.0909
-1.05482
-1.01706
-0.980792
-0.950771
-1.16552
-1.15684
-1.14843
-1.13462
-1.1136
-1.08538
-1.05145
-1.01367
-0.974057
-0.939003
-1.14144
-1.13671
-1.13095
-1.12029
-1.10301
-1.07863
-1.048
-1.01306
-0.975128
-0.933217
-1.11483
-1.1138
-1.11018
-1.10156
-1.08674
-1.06546
-1.03823
-1.00653
-0.971198
-0.928868
-1.08602
-1.08826
-1.08589
-1.0785
-1.06485
-1.04529
-1.02097
-0.992859
-0.960899
-0.921852
-1.06193
-1.06598
-1.06457
-1.05855
-1.04659
-1.02833
-1.00582
-0.981767
-0.954712
-0.921309
-1.0446
-1.05021
-1.04967
-1.04561
-1.03748
-1.02305
-1.0013
-0.978927
-0.958348
-0.930973
-1.03339
-1.04023
-1.03971
-1.03592
-1.02974
-1.02005
-1.00327
-0.98611
-0.970956
-0.951087
-1.03399
-1.04105
-1.04056
-1.03728
-1.0323
-1.025
-1.01312
-0.997711
-0.982958
-0.967903
-1.04707
-1.05387
-1.05381
-1.05143
-1.0474
-1.04127
-1.03186
-1.01938
-1.0064
-0.994273
-1.06906
-1.07519
-1.07511
-1.07292
-1.06917
-1.06399
-1.0572
-1.04871
-1.03964
-1.03153
-1.09676
-1.1017
-1.10126
-1.09911
-1.09585
-1.09207
-1.08804
-1.08364
-1.07935
-1.07637
-0.82939
-0.68585
-0.635678
-0.562086
-0.465781
-0.349356
-0.241925
-0.151145
-0.0807201
-0.0225008
-0.82397
-0.687667
-0.639475
-0.559304
-0.456004
-0.340068
-0.233702
-0.145135
-0.0770129
-0.0212209
-0.826336
-0.696936
-0.648042
-0.558751
-0.44901
-0.331334
-0.225295
-0.138661
-0.0727781
-0.0196068
-0.838503
-0.714579
-0.662212
-0.561075
-0.444733
-0.323339
-0.216844
-0.131884
-0.0682158
-0.0178435
-0.85835
-0.740642
-0.682167
-0.565368
-0.442509
-0.315958
-0.208321
-0.124819
-0.0633855
-0.0160265
-0.883725
-0.77574
-0.708444
-0.575118
-0.442467
-0.309204
-0.199715
-0.117457
-0.0583093
-0.0141914
-0.915435
-0.821033
-0.742125
-0.590118
-0.444913
-0.30314
-0.190974
-0.109747
-0.0529606
-0.0123358
-0.957193
-0.877772
-0.786007
-0.611983
-0.450374
-0.297861
-0.182008
-0.101574
-0.0472474
-0.0104186
-1.01019
-0.949314
-0.842446
-0.642656
-0.459566
-0.293524
-0.172715
-0.0927907
-0.0410352
-0.0083676
-1.07396
-1.03902
-0.911724
-0.684684
-0.473403
-0.290317
-0.162988
-0.0832409
-0.0341772
-0.0060902
-0.82228
-0.698396
-0.642579
-0.562326
-0.455646
-0.341529
-0.241208
-0.152201
-0.0811686
-0.0226178
-0.814367
-0.691781
-0.637458
-0.561941
-0.458384
-0.344846
-0.243491
-0.153907
-0.0822121
-0.0230379
-0.811262
-0.686091
-0.633705
-0.56134
-0.460387
-0.346681
-0.244242
-0.154149
-0.0823582
-0.0229608
-0.809525
-0.680846
-0.629788
-0.559581
-0.46339
-0.349526
-0.245529
-0.154695
-0.0828315
-0.0230916
-0.817282
-0.677963
-0.627405
-0.557147
-0.466301
-0.352382
-0.246117
-0.154588
-0.0828552
-0.0232039
-0.608889
-0.716816
-0.793122
-0.841376
-0.866735
-0.879697
-0.882034
-0.881126
-0.874754
-0.862893
-0.606722
-0.715217
-0.789853
-0.835376
-0.85735
-0.867186
-0.867852
-0.865166
-0.86154
-0.848637
-0.60895
-0.71795
-0.792319
-0.837088
-0.858575
-0.86862
-0.871054
-0.868921
-0.868064
-0.854762
-0.613747
-0.72437
-0.799528
-0.844807
-0.867667
-0.879518
-0.885078
-0.884399
-0.88477
-0.871134
-0.621755
-0.734593
-0.811462
-0.858532
-0.884457
-0.899728
-0.909307
-0.911514
-0.911596
-0.899772
1.16401
1.15532
1.14232
1.12805
1.11328
1.0974
1.08041
1.06402
1.05176
1.05163
1.25568
1.25331
1.24737
1.23978
1.23118
1.22119
1.20987
1.19872
1.19109
1.1948
1.34198
1.34289
1.34128
1.33841
1.3347
1.32989
1.32393
1.31779
1.31428
1.32142
1.41967
1.42327
1.4254
1.42671
1.42734
1.42699
1.42543
1.42311
1.42261
1.43284
1.48674
1.49262
1.49775
1.50233
1.5063
1.50936
1.51112
1.51158
1.51312
1.52565
1.54172
1.54945
1.55702
1.56425
1.57094
1.57675
1.58118
1.58371
1.58631
1.59976
1.583
1.59202
1.60137
1.61057
1.61927
1.6272
1.63378
1.63811
1.64143
1.65351
1.60904
1.61869
1.62896
1.63917
1.64891
1.65799
1.66599
1.67192
1.67592
1.6852
1.6184
1.62785
1.63791
1.64777
1.65701
1.6654
1.67259
1.67789
1.68237
1.69627
1.61044
1.61893
1.62781
1.63626
1.64384
1.6503
1.65536
1.65868
1.66207
1.67762
-0.488828
-0.518543
-0.556266
-0.601364
-0.653306
-0.712261
-0.777568
-0.842957
-0.901124
-0.941179
-0.311373
-0.34388
-0.383143
-0.429148
-0.482068
-0.541482
-0.605247
-0.669835
-0.728258
-0.767546
-0.113138
-0.148684
-0.189686
-0.236368
-0.289058
-0.347607
-0.410189
-0.472895
-0.52899
-0.567845
0.0935717
0.0556662
0.0133484
-0.0335439
-0.0853602
-0.142135
-0.202302
-0.261757
-0.314903
-0.349174
0.295545
0.256875
0.214751
0.16919
0.119764
0.0662511
0.00993305
-0.0453061
-0.0941721
-0.122935
0.482849
0.445697
0.405971
0.363737
0.318447
0.269722
0.218607
0.168803
0.1255
0.102288
0.651225
0.617939
0.582834
0.545786
0.506108
0.463379
0.418534
0.375086
0.338103
0.320169
0.803078
0.774889
0.74548
0.714399
0.680896
0.644631
0.60653
0.569884
0.539587
0.526274
0.945483
0.921707
0.896691
0.870469
0.842415
0.812209
0.780668
0.750685
0.726696
0.717783
1.07601
1.05587
1.03326
1.0106
0.987588
0.963529
0.938749
0.915428
0.897388
0.892878
1.63526
1.5657
1.54878
1.51062
1.49386
1.47723
1.45693
1.43301
1.37865
1.28999
1.621
1.56286
1.54989
1.51337
1.49779
1.48223
1.46494
1.44408
1.40621
1.35199
1.60876
1.55979
1.5487
1.51497
1.50054
1.486
1.47172
1.45655
1.43438
1.41057
1.5984
1.5568
1.54629
1.51602
1.50249
1.48882
1.47733
1.46786
1.45871
1.46041
1.58971
1.55386
1.54361
1.51661
1.5037
1.49064
1.48146
1.47682
1.47847
1.50131
1.58247
1.5508
1.54101
1.51669
1.5042
1.49141
1.48399
1.48322
1.49371
1.53334
1.57649
1.54765
1.53854
1.51625
1.50404
1.49116
1.48493
1.48695
1.50423
1.55649
1.57162
1.54449
1.53619
1.51533
1.50325
1.4899
1.4843
1.48795
1.50977
1.57047
1.56772
1.5414
1.534
1.51398
1.50186
1.48766
1.48216
1.48623
1.51013
1.57507
1.56471
1.53842
1.53198
1.51232
1.49991
1.48446
1.47861
1.48184
1.50522
1.57006
1.75766
1.57618
1.53636
1.48954
1.47301
1.45423
1.42544
1.38472
1.30386
1.20298
1.71857
1.57977
1.5438
1.49473
1.47583
1.45609
1.42641
1.3856
1.3027
1.19164
1.69452
1.57912
1.54592
1.49796
1.47851
1.45916
1.43011
1.39088
1.31044
1.19504
1.67159
1.5752
1.54622
1.50244
1.48314
1.46442
1.43709
1.40109
1.3232
1.20667
1.65205
1.56956
1.5464
1.50648
1.48828
1.47048
1.44606
1.41289
1.34164
1.22616
0.986831
0.893821
0.777582
0.634861
0.468069
0.281605
0.0836746
-0.114581
-0.301865
-0.46895
0.977337
0.885564
0.771559
0.632581
0.47052
0.288001
0.0916714
-0.107443
-0.297067
-0.466363
0.989685
0.895887
0.779752
0.64049
0.47914
0.296927
0.0997477
-0.101523
-0.293988
-0.466087
1.0151
0.912999
0.791106
0.650307
0.4885
0.305402
0.106534
-0.0974136
-0.293136
-0.468426
1.05707
0.938737
0.805336
0.659979
0.496199
0.311663
0.110983
-0.0956685
-0.294849
-0.473646
)
;

boundaryField
{
    left
    {
        type            zeroGradient;
    }
    right
    {
        type            fixedValue;
        value           uniform 0;
    }
    down
    {
        type            zeroGradient;
    }
    up
    {
        type            zeroGradient;
    }
    cylinder
    {
        type            zeroGradient;
    }
    defaultFaces
    {
        type            empty;
    }
}


// ************************************************************************* //
