/*--------------------------------*- C++ -*----------------------------------*\
| =========                 |                                                 |
| \\      /  F ield         | OpenFOAM: The Open Source CFD Toolbox           |
|  \\    /   O peration     | Version:  2406                                  |
|   \\  /    A nd           | Website:  www.openfoam.com                      |
|    \\/     M anipulation  |                                                 |
\*---------------------------------------------------------------------------*/
FoamFile
{
    version     2.0;
    format      ascii;
    arch        "LSB;label=32;scalar=64";
    class       surfaceScalarField;
    location    "1.25";
    object      phi;
}
// * * * * * * * * * * * * * * * * * * * * * * * * * * * * * * * * * * * * * //

dimensions      [0 3 -1 0 0 0 0];

oriented        oriented;

internalField   nonuniform List<scalar> 
3485
(
-0.000717476
0.000103728
0.000613747
-0.00126914
0.000283811
0.000267856
-0.000574751
0.000380282
-0.00107467
0.00261001
6.34788e-05
-0.00324824
0.00907801
-0.00172818
-0.00473983
0.0190868
-0.00533256
-0.0046762
0.0326745
-0.0106017
-0.00298605
0.0498764
-0.0172634
6.14397e-05
0.0703762
-0.024933
0.00443323
-0.0296256
0.00899379
0.091008
-0.000873538
0.000977267
-0.00152817
0.00093844
-0.00122198
7.40968e-05
0.00179094
-0.00294944
0.0090348
-0.00897204
0.0208769
-0.0171747
0.0369998
-0.0267246
0.0567472
-0.0370108
0.0795055
-0.0476913
-0.0542966
0.104177
-9.88395e-05
0.00107611
0.000149187
0.000690414
0.00272334
-0.00250005
0.0098972
-0.0101233
0.0222382
-0.021313
0.0394759
-0.0344124
0.0608152
-0.0480639
0.0851777
-0.0613733
0.111714
-0.0742273
-0.0825055
0.139923
0.000539513
0.000536594
0.00270798
-0.00147806
0.00955286
-0.00934493
0.022231
-0.0228014
0.0403469
-0.039429
0.0627565
-0.056822
0.088014
-0.0733214
0.114729
-0.0880885
0.141719
-0.101217
-0.110119
0.169332
0.000709875
-0.00017328
0.0057634
-0.00653158
0.0174684
-0.0210499
0.0356218
-0.0409549
0.0586383
-0.0624454
0.0844449
-0.0826286
0.111165
-0.100042
0.137468
-0.114391
0.162341
-0.12609
-0.134675
0.186898
0.0015628
-0.00173608
0.0100376
-0.0150064
0.0263376
-0.0373499
0.0488102
-0.0634274
0.0745088
-0.0881441
0.100712
-0.108832
0.125641
-0.124971
0.14846
-0.137211
0.168926
-0.146556
-0.153693
0.187944
0.00300719
-0.00474327
0.0149641
-0.0269633
0.0351707
-0.0575565
0.0599241
-0.0881808
0.0852516
-0.113472
0.10863
-0.13221
0.12909
-0.14543
0.14665
-0.154771
0.161756
-0.161662
-0.167017
0.17508
0.00462515
-0.00936841
0.0198568
-0.042195
0.0423196
-0.0800193
0.0663658
-0.112227
0.0881403
-0.135246
0.106291
-0.15036
0.12103
-0.160169
0.133127
-0.166868
0.143327
-0.171862
-0.17587
0.15218
0.00634357
-0.015712
0.0239179
-0.0597693
0.0459874
-0.102089
0.0663854
-0.132625
0.0827206
-0.151581
0.0951992
-0.162839
0.104904
-0.169875
0.112796
-0.17476
0.119523
-0.17859
-0.18151
0.125164
0.00791732
-0.0236293
0.0259933
-0.0778453
0.0450548
-0.12115
0.0603185
-0.147889
0.0713328
-0.162596
0.0792858
-0.170792
0.0853422
-0.175931
0.0901808
-0.179598
0.0941824
-0.182591
0.097604
-0.184932
-0.00116975
0.017482
-0.0163123
-0.00422814
0.0373441
-0.0342857
-0.00824246
0.0469003
-0.042886
-0.0126304
0.0513474
-0.0469595
-0.0171516
0.0534336
-0.0489124
-0.0216642
0.0542044
-0.0496918
-0.0260474
0.0541083
-0.0497251
-0.0302333
0.0534116
-0.0492257
-0.0342223
0.0522719
-0.0482829
0.0508448
-0.0380841
-0.046983
-6.92585e-05
0.0175513
-0.0016179
0.0388928
-0.00427899
0.0495614
-0.00746283
0.0545313
-0.0109038
0.0568745
-0.0145113
0.0578119
-0.0182104
0.0578074
-0.021912
0.0571133
-0.0255376
0.0558975
0.0543526
-0.0290454
0.00121987
0.0163314
0.00164863
0.038464
0.000842059
0.0503679
-0.000682162
0.0560555
-0.00248528
0.0586777
-0.00441681
0.0597435
-0.00646998
0.0598605
-0.00864991
0.0592932
-0.010939
0.0581867
0.0567091
-0.0132955
0.00257118
0.0137603
0.00554344
0.0354918
0.00741662
0.0484948
0.00837069
0.0551014
0.0088733
0.0581751
0.00919464
0.0594221
0.00942122
0.0596339
0.00953936
0.059175
0.0094977
0.0582283
0.0569546
0.00925223
0.00383142
0.00992883
0.00975052
0.0295727
0.0150638
0.0431815
0.01932
0.0508452
0.0227852
0.0547099
0.0257531
0.0564542
0.0284135
0.0569735
0.0308993
0.0566893
0.03334
0.0557877
0.0543398
0.0359547
0.00424253
0.0056863
0.0123384
0.0214767
0.0208477
0.0346722
0.02855
0.0431429
0.0353658
0.0478942
0.0415447
0.0502753
0.0473408
0.0511774
0.0529495
0.0510805
0.0585523
0.0501849
0.0484545
0.0644376
0.00355362
0.00213269
0.0122218
0.0128086
0.0226924
0.0242016
0.0331886
0.0326466
0.0431551
0.0379277
0.052609
0.0408214
0.0617435
0.0420429
0.0707582
0.0420658
0.0798543
0.0410889
0.038781
0.0895278
0.00207548
5.7207e-05
0.00949834
0.00538574
0.0200048
0.0136952
0.0317098
0.0209416
0.0436977
0.0259398
0.0556845
0.0288347
0.0676843
0.030043
0.0797847
0.0299653
0.0920669
0.0288068
0.0255328
0.105315
0.000742007
-0.0006848
0.00519652
0.000931231
0.0135612
0.00533046
0.024174
0.0103288
0.0360322
0.0140816
0.048758
0.0161088
0.0622668
0.0165343
0.0765621
0.01567
0.0917008
0.013668
0.00898139
0.108252
-7.10527e-05
0.00112803
0.00538382
0.0124644
0.0218062
0.0332388
0.046787
0.0625185
0.0806197
0.0985949
-0.052463
0.365219
-0.35084
-0.0412279
0.154126
-0.165361
-0.013314
-0.0579465
0.0300326
0.0272045
-0.21462
0.174101
0.0684575
-0.281447
0.240194
0.101619
-0.279235
0.246073
0.125147
-0.241907
0.218379
0.13987
-0.188502
0.173779
0.14938
-0.144912
0.135402
-0.0753509
0.0718525
-0.0512555
0.387429
-0.0499742
0.152844
-0.0219212
-0.0859994
0.021814
-0.258355
0.0660632
-0.325697
0.101268
-0.31444
0.126216
-0.266855
0.141742
-0.204028
0.151935
-0.155105
-0.0792322
-0.0412173
0.415351
-0.0491912
0.160818
-0.0213962
-0.113794
0.0240833
-0.303835
0.0692898
-0.370903
0.104404
-0.349555
0.129163
-0.291614
0.144563
-0.219428
0.155025
-0.165566
-0.083488
-0.0193405
0.443944
-0.0345568
0.176034
-0.00829361
-0.140058
0.0372844
-0.349413
0.0816809
-0.4153
0.114226
-0.3821
0.13627
-0.313658
0.149786
-0.232944
0.159519
-0.175299
-0.087878
0.0108005
0.469098
-0.00751249
0.194348
0.0152845
-0.162855
0.0603277
-0.394456
0.104091
-0.459063
0.13327
-0.411279
0.150262
-0.33065
0.159533
-0.242214
0.16682
-0.182587
-0.0917921
0.0486788
0.484857
0.0267252
0.216301
0.04373
-0.179859
0.0864923
-0.437218
0.131695
-0.504266
0.160344
-0.439928
0.172553
-0.342859
0.175985
-0.245645
0.178784
-0.185387
-0.0942446
0.0900626
0.484322
0.0655932
0.240771
0.0733251
-0.187591
0.110809
-0.474702
0.157381
-0.550838
0.189554
-0.472101
0.200889
-0.354193
0.199663
-0.24442
0.196951
-0.182675
-0.0943189
0.128696
0.460941
0.106067
0.2634
0.105714
-0.187238
0.136307
-0.505296
0.179952
-0.594482
0.215333
-0.507482
0.229903
-0.368764
0.227921
-0.242437
0.221066
-0.175819
-0.0920337
0.161335
0.407858
0.144828
0.279906
0.141473
-0.183883
0.166849
-0.530671
0.203688
-0.631322
0.237381
-0.541176
0.255251
-0.386634
0.256045
-0.243231
0.248296
-0.16807
-0.0887435
0.178445
0.328008
0.178295
0.280056
0.176579
-0.182166
0.199081
-0.553173
0.230454
-0.662695
0.258512
-0.569234
0.276177
-0.404298
0.280147
-0.247201
0.274488
-0.162412
-0.0864701
0.302641
0.233299
-0.207932
0.411279
0.171418
0.511377
-0.282265
0.57262
-0.614415
0.580501
-0.670576
0.557424
-0.546157
0.529498
-0.376372
0.504099
-0.221802
0.477893
-0.136206
-0.0712897
0.46481
0.200302
-0.431813
0.592001
0.0442262
0.687946
-0.37821
0.715033
-0.641502
0.69086
-0.646403
0.639482
-0.494779
0.586685
-0.323575
0.547743
-0.18286
0.518306
-0.10677
-0.055819
0.664978
0.160724
-0.6254
0.763344
-0.05414
0.810133
-0.424998
0.791149
-0.622518
0.74077
-0.596024
0.68051
-0.434518
0.622058
-0.265123
0.5772
-0.138002
0.544112
-0.0736817
-0.0393209
0.811972
0.0988889
-0.750137
0.877971
-0.120139
0.89214
-0.439167
0.852408
-0.582786
0.779224
-0.52284
0.699236
-0.35453
0.631254
-0.197142
0.583845
-0.090593
0.550322
-0.0401588
-0.0230903
0.8927
0.0320758
-0.825887
0.939756
-0.167194
0.938116
-0.437527
0.884918
-0.529588
0.798369
-0.436292
0.706875
-0.263036
0.630577
-0.120844
0.579227
-0.0392433
0.545676
-0.00660771
-0.00751253
0.930395
-0.0286939
-0.869625
0.97139
-0.20819
0.955885
-0.422022
0.875417
-0.44912
0.763642
-0.324517
0.664324
-0.163718
0.593987
-0.0505073
0.551653
0.00309083
0.526114
0.0189313
0.00477095
0.94029
-0.0823648
-0.886619
0.967694
-0.235593
0.917282
-0.37161
0.804359
-0.336197
0.678792
-0.198949
0.582462
-0.0673887
0.524582
0.00737242
0.495923
0.0317499
0.482441
0.0324134
0.0115696
0.901651
-0.118869
-0.865147
0.883138
-0.21708
0.769271
-0.257742
0.616883
-0.183809
0.494557
-0.0766222
0.427703
-0.000535237
0.401522
0.0335532
0.395926
0.0373461
0.397887
0.0304526
0.0115186
0.721515
-0.102118
-0.738266
0.617499
-0.113064
0.444059
-0.0843021
0.299342
-0.0390928
0.230169
-0.00744883
0.217427
0.0122066
0.229621
0.021359
0.246522
0.0204451
0.261321
0.0156537
0.00609816
0.25548
-0.357598
0.142416
0.0581139
0.0190211
0.0115723
0.0237789
0.0451379
0.065583
0.0812367
0.523099
0.0932549
-0.51875
0.527393
0.120869
0.531231
0.148342
0.530278
0.176032
0.520679
0.197543
0.492635
0.214942
0.442647
0.21932
0.366842
0.215727
0.271945
0.199074
0.155021
0.537248
0.0832803
-0.527273
0.547149
0.110967
0.558795
0.136697
0.569692
0.165135
0.577665
0.18957
0.580483
0.212124
0.567798
0.232005
0.548657
0.234868
0.497054
0.250676
0.220262
0.554844
0.0718131
-0.543377
0.567712
0.0980999
0.582424
0.121985
0.59993
0.147629
0.615942
0.173559
0.634828
0.193237
0.645886
0.220948
0.653971
0.226782
0.649418
0.25523
0.24428
0.574392
0.0604097
-0.562989
0.588941
0.0835517
0.605509
0.105417
0.626032
0.127106
0.647726
0.151865
0.672265
0.168699
0.697012
0.1962
0.718636
0.205158
0.740236
0.23363
0.234379
0.58708
0.0488648
-0.575535
0.602773
0.0678583
0.62143
0.0867598
0.643968
0.104568
0.669993
0.125839
0.698012
0.14068
0.730449
0.163764
0.761068
0.174539
0.79646
0.198238
0.204952
0.58814
0.0367237
-0.575999
0.604488
0.0515103
0.625064
0.0661845
0.64942
0.0802114
0.678508
0.0967517
0.710093
0.109095
0.747174
0.126683
0.784654
0.137059
0.82817
0.154723
0.163496
0.576044
0.024037
-0.563357
0.592605
0.0349488
0.614489
0.0443009
0.639988
0.0547126
0.67116
0.0655793
0.705465
0.0747898
0.74582
0.086328
0.788235
0.0946441
0.837193
0.105765
0.114069
0.544786
0.0117729
-0.532521
0.561349
0.0183849
0.583211
0.0224395
0.608584
0.0293395
0.640333
0.0338303
0.674846
0.0402765
0.716349
0.0448248
0.760328
0.0506655
0.811532
0.054561
0.0604543
0.470024
0.00206103
-0.460312
0.484275
0.00413453
0.501678
0.00503589
0.52353
0.00748756
0.549164
0.00819668
0.578659
0.0107813
0.612494
0.0109895
0.649894
0.0132657
0.692018
0.0124368
0.0142066
0.271064
-0.269003
0.275198
0.280234
0.287722
0.295918
0.3067
0.317689
0.330955
0.343392
0.0688316
0.135436
-0.123723
-0.0805445
0.0583979
0.136518
-0.126084
0.0490269
0.137876
-0.128505
0.0401744
0.139834
-0.130981
0.031548
0.141822
-0.133195
0.0231528
0.143056
-0.134661
0.0151892
0.142059
-0.134095
0.00793612
0.136273
-0.12902
0.0022494
0.117717
-0.11203
0.0633024
-0.061053
0.0672892
0.146276
-0.0781297
0.0568397
0.146968
0.046986
0.14773
0.0377697
0.14905
0.0290507
0.150541
0.020822
0.151285
0.0132393
0.149642
0.00653214
0.14298
0.0016033
0.122646
0.0649057
0.0606492
0.156115
-0.0704881
0.0508509
0.156766
0.0414586
0.157122
0.0326625
0.157846
0.0244593
0.158744
0.016888
0.158856
0.0100759
0.156454
0.00426939
0.148786
0.000459617
0.126456
0.0653653
0.0493876
0.164726
-0.0579986
0.0407966
0.165357
0.0324371
0.165481
0.0245482
0.165735
0.0172835
0.166009
0.0108012
0.165339
0.00524485
0.16201
0.00079435
0.153237
-0.00103922
0.128289
0.0643261
0.0344016
0.172021
-0.0416964
0.0272355
0.172523
0.0202929
0.172424
0.013779
0.172249
0.00788325
0.171904
0.00291308
0.170309
-0.00100636
0.165929
-0.00339551
0.155626
-0.00291389
0.127808
0.0614122
0.0166995
0.177925
-0.0226042
0.0110857
0.178137
0.00572808
0.177782
0.00075083
0.177226
-0.00340304
0.176058
-0.00637115
0.173277
-0.0083033
0.167862
-0.00829528
0.155618
-0.00490899
0.124421
0.0565032
-0.00262489
0.182556
-0.00200591
-0.00687779
0.18239
-0.0107565
0.18166
-0.013861
0.180331
-0.0157622
0.17796
-0.0166458
0.17416
-0.016364
0.16758
-0.0133729
0.152627
-0.00674514
0.117794
0.0497581
-0.0242623
0.185611
0.0212076
-0.0267369
0.184864
-0.0282724
0.183196
-0.0287857
0.180844
-0.0285373
0.177711
-0.027509
0.173132
-0.0245785
0.164649
-0.0181812
0.14623
-0.00818346
0.107796
0.0415746
-0.0472401
0.1864
0.0464513
-0.0470743
0.184698
-0.0462442
0.182366
-0.0448946
0.179494
-0.0427903
0.175607
-0.0391768
0.169519
-0.0328218
0.158294
-0.0224658
0.135874
-0.00901367
0.0943437
0.032561
-0.0707351
0.0722032
-0.0686278
-0.0658603
-0.0622969
-0.057482
-0.050559
-0.0401533
-0.0254301
-0.00893166
0.0937512
0.0357136
-0.104478
-0.0249872
0.0828875
0.0366307
-0.025767
0.0718982
0.0375909
-0.0266016
0.0607865
0.038575
-0.0274632
0.0495571
0.0395152
-0.0282858
0.0382294
0.0402198
-0.0288921
0.026889
0.0401842
-0.0288438
0.0158189
0.0382826
-0.0272124
0.00590074
0.0322905
-0.0223724
0.0173624
-0.0114617
0.0945155
0.0466082
-0.10541
0.0835247
0.0476214
0.0724093
0.0487064
0.0611808
0.0498035
0.0498509
0.0508451
0.0384441
0.0516266
0.0270426
0.0515857
0.0159083
0.0494169
0.00591255
0.0422863
0.023275
0.0954964
0.0574318
-0.10632
0.0845216
0.0585963
0.0734063
0.0598216
0.0621456
0.0610642
0.0507398
0.0622508
0.0392081
0.0631583
0.0276381
0.0631557
0.0163002
0.0607548
0.00607284
0.0525136
0.0293478
0.0939051
0.068227
-0.1047
0.0830311
0.0694703
0.0720397
0.070813
0.0609269
0.0721771
0.049686
0.0734917
0.0383296
0.0745147
0.0269462
0.0745391
0.0158096
0.0718914
0.00580966
0.0625136
0.0351574
0.0919282
0.0789599
-0.102661
0.0811411
0.0802573
0.070279
0.0816751
0.0593342
0.0831219
0.0482929
0.084533
0.0371654
0.0856422
0.0260501
0.0856543
0.0152204
0.082721
0.00553285
0.0722012
0.0406903
0.0890961
0.0895676
-0.0997037
0.0784294
0.090924
0.0676656
0.0924389
0.0568511
0.0939364
0.0460194
0.0953647
0.0352051
0.0964565
0.0245068
0.0963527
0.0141782
0.0930496
0.00503391
0.0813455
0.0457242
0.0858178
0.0994915
-0.0957417
0.0758599
0.100882
0.0657471
0.102552
0.05542
0.104264
0.0449008
0.105884
0.0342897
0.107068
0.0237759
0.106866
0.0136711
0.103154
0.00482503
0.0901916
0.0505492
0.0786677
0.109211
-0.0883872
0.0691431
0.110407
0.059706
0.111989
0.0502731
0.113696
0.0407369
0.11542
0.0310743
0.11673
0.0214302
0.11651
0.0121362
0.112448
0.0041071
0.0982207
0.0546563
0.0746768
0.117492
-0.082958
0.0660992
0.118984
0.0570278
0.12106
0.0476744
0.12305
0.0382194
0.124875
0.0287898
0.12616
0.0195746
0.125726
0.0108708
0.121152
0.00353223
0.105559
0.0581886
0.0648704
-0.0711008
0.05777
0.0503254
0.0423939
0.0340737
0.0255724
0.0172029
0.00933547
0.00286447
0.202702
-0.020711
0.0159989
0.207393
0.028983
-0.0336744
0.206612
0.124034
-0.123252
0.202487
0.171639
-0.167515
0.197636
0.170823
-0.165972
0.192364
0.166223
-0.160951
0.185094
0.156917
-0.149647
0.174822
0.169563
-0.159291
0.152104
0.190834
-0.168116
0.23939
-0.191764
0.202562
-0.0252837
0.206622
0.0249238
0.204951
0.125704
0.20016
0.17643
0.19494
0.176043
0.189648
0.171516
0.183213
0.163352
0.173608
0.179168
0.152118
0.212324
0.286098
0.202341
-0.0296348
0.205672
0.0215929
0.202936
0.128441
0.197187
0.182179
0.191321
0.181908
0.185737
0.1771
0.180026
0.169063
0.170682
0.188512
0.150677
0.232329
0.330455
0.202038
-0.0336832
0.204563
0.0190677
0.200549
0.132455
0.193528
0.1892
0.186845
0.188591
0.180862
0.183083
0.175702
0.174224
0.166209
0.198004
0.147726
0.250812
0.37348
0.201668
-0.0373614
0.203332
0.0174035
0.197774
0.138013
0.189218
0.197756
0.181705
0.196104
0.175296
0.189492
0.170412
0.179108
0.160209
0.208208
0.143644
0.267377
0.414463
0.201239
-0.0406103
0.201989
0.0166537
0.194589
0.145413
0.184428
0.207916
0.176205
0.204328
0.16927
0.196427
0.16426
0.184118
0.152993
0.219475
0.138723
0.281646
0.453483
0.200711
-0.0433318
0.200467
0.0168984
0.191022
0.154858
0.179439
0.219499
0.170622
0.213145
0.162949
0.204099
0.157434
0.189633
0.144924
0.231985
0.132585
0.293985
0.490326
0.19998
-0.0453215
0.198663
0.0182152
0.18722
0.1663
0.174526
0.232194
0.165132
0.222538
0.156506
0.212726
0.150274
0.195864
0.136397
0.245862
0.126383
0.303999
0.528322
0.198891
-0.0462232
0.19653
0.020577
0.183452
0.179378
0.169922
0.245724
0.159935
0.232524
0.150276
0.222385
0.14328
0.20286
0.128734
0.260408
0.119634
0.313099
0.564998
0.197372
-0.0456054
0.193961
0.0239883
0.17999
0.193349
0.165908
0.259806
0.155616
0.242816
0.145098
0.232904
0.137382
0.210576
0.120931
0.27686
0.114406
0.319624
0.608303
0.305122
-0.0487168
0.313136
0.0159739
0.31645
0.190035
0.31235
0.263906
0.312567
0.242599
0.307922
0.237549
0.316838
0.20166
0.314568
0.27913
0.362086
0.272106
0.529266
0.441123
0.301956
-0.0486629
0.312036
0.00589436
0.326577
0.175494
0.334959
0.255524
0.345086
0.232472
0.351542
0.231093
0.364095
0.189107
0.365784
0.277441
0.392807
0.245082
0.454725
0.467348
0.298659
-0.0453117
0.311508
-0.00695443
0.338814
0.148187
0.366057
0.228281
0.382644
0.215885
0.405204
0.208533
0.41766
0.176651
0.42895
0.266152
0.455045
0.218986
0.395461
0.51431
0.295576
-0.0388778
0.310279
-0.0216571
0.348903
0.109563
0.394267
0.182918
0.414623
0.195529
0.449871
0.173285
0.465431
0.16109
0.481945
0.249638
0.51648
0.184452
0.348784
0.563156
0.294581
-0.0314486
0.308556
-0.0356323
0.35478
0.0633391
0.410723
0.126974
0.437435
0.168818
0.476606
0.134114
0.497924
0.139772
0.518769
0.228793
0.555058
0.148162
0.29935
0.604492
0.296401
-0.0258391
0.308719
-0.0479506
0.356474
0.0155835
0.41377
0.0696784
0.449378
0.13321
0.487935
0.0955568
0.514073
0.113635
0.54147
0.201396
0.574933
0.114699
0.242471
0.631812
0.301234
-0.0250626
0.312091
-0.058808
0.353508
-0.025833
0.402625
0.0205606
0.445434
0.0904009
0.481809
0.0591821
0.509867
0.0855768
0.547412
0.163851
0.580343
0.0817684
0.180931
0.641883
0.307306
-0.0303586
0.314179
-0.065681
0.340427
-0.0520807
0.370936
-0.00994869
0.415537
0.0458002
0.446037
0.0286816
0.472773
0.0588413
0.526932
0.109691
0.559387
0.0493138
0.119135
0.621183
0.307643
-0.0359913
0.29926
-0.0572985
0.295368
-0.0481882
0.300067
-0.0146476
0.332982
0.0128853
0.350285
0.0113785
0.381784
0.0273422
0.445962
0.045513
0.473024
0.0222524
0.054744
0.537414
0.266019
0.20872
0.160532
0.145885
0.15877
0.170149
0.197491
0.243004
0.265256
0.32
0.458675
-0.0980962
0.468197
-0.0876518
0.475731
-0.078022
0.482135
-0.064403
0.488421
-0.0479823
0.494601
-0.0287834
0.500442
-0.00784735
0.506679
0.0149703
0.51325
0.0398808
0.0667032
0.476413
-0.107161
0.483093
-0.0943315
0.487746
-0.0826754
0.491049
-0.0677056
0.495081
-0.0520145
0.499164
-0.0328664
0.504763
-0.0134459
0.510732
0.00900089
0.518607
0.032006
0.058037
0.514137
-0.106989
0.514758
-0.0949524
0.515456
-0.0833732
0.51575
-0.068
0.517219
-0.0534831
0.519102
-0.0347498
0.523051
-0.0173951
0.52748
0.00457245
0.534808
0.024678
0.0494674
0.556778
-0.10061
0.551899
-0.0900734
0.547776
-0.0792504
0.544858
-0.0650823
0.543197
-0.0518212
0.542971
-0.0345238
0.544747
-0.0191718
0.548216
0.0011038
0.554393
0.0185007
0.0408715
0.593228
-0.0893456
0.583529
-0.080375
0.574913
-0.0706339
0.56834
-0.0585094
0.563192
-0.0466734
0.560455
-0.0317872
0.559718
-0.0184343
0.562036
-0.00121406
0.566944
0.0135924
0.0322804
0.616956
-0.0744893
0.602586
-0.0660052
0.589677
-0.0577251
0.57919
-0.048022
0.570717
-0.0382004
0.565358
-0.0264283
0.562533
-0.0156091
0.56349
-0.00217087
0.567657
0.00942518
0.0239384
0.621477
-0.0540834
0.603056
-0.0475845
0.58658
-0.0412489
0.573041
-0.0344825
0.562226
-0.0273861
0.555164
-0.0193658
0.551246
-0.0116918
0.551304
-0.00222829
0.555254
0.00547547
0.015835
0.597191
-0.0300921
0.576427
-0.0268196
0.558347
-0.023169
0.543562
-0.0196974
0.532011
-0.015836
0.524383
-0.0117377
0.520159
-0.00746731
0.520558
-0.0026273
0.524364
0.00166904
0.00767792
0.51679
-0.00946802
0.498549
-0.00857896
0.483131
-0.00775019
0.470483
-0.00704964
0.460817
-0.00617048
0.454288
-0.00520806
0.45083
-0.00400951
0.450749
-0.00254637
0.453466
-0.00104805
0.000831647
0.310532
0.301953
0.294203
0.287153
0.280983
0.275775
0.271765
0.269219
0.268171
0.00495612
0.0450654
-0.0500215
0.00945916
0.0999496
-0.104453
0.0112746
0.127186
-0.129001
0.0115242
0.138751
-0.139
0.0115901
0.143121
-0.143187
0.0110666
0.145631
-0.145107
0.00964182
0.14622
-0.144795
0.00778439
0.144019
-0.142162
0.00602903
0.138518
-0.136763
0.127876
0.0048341
-0.126681
0.00618471
0.0388807
0.01351
0.0926243
0.0183745
0.122321
0.0211428
0.135982
0.0228261
0.141438
0.0242071
0.14425
0.0249978
0.145429
0.025006
0.144011
0.0244625
0.139061
0.128882
0.0234564
0.00684156
0.0320391
0.0166259
0.08284
0.0244413
0.114506
0.0297759
0.130648
0.0334231
0.137791
0.0364431
0.14123
0.0390692
0.142803
0.0408932
0.142187
0.0416704
0.138284
0.12947
0.0410824
0.00683462
0.0252045
0.0184585
0.0712161
0.0289474
0.104017
0.0368099
0.122785
0.0425746
0.132026
0.0472925
0.136512
0.0514668
0.138629
0.0548963
0.138758
0.0570834
0.136097
0.129155
0.0573988
0.00626527
0.0189392
0.0188773
0.0586041
0.0316402
0.0912539
0.0419497
0.112476
0.0498121
0.124163
0.0561859
0.130138
0.0617413
0.133074
0.0665278
0.133971
0.0700606
0.132564
0.127679
0.0715371
0.00531837
0.0136208
0.0179433
0.0459792
0.0324448
0.0767523
0.0451325
0.0997881
0.055127
0.114169
0.0631121
0.122153
0.069918
0.126268
0.0758753
0.128014
0.0807048
0.127735
0.124793
0.0835907
0.0042019
0.00941895
0.015802
0.0343792
0.0311475
0.0614067
0.0461137
0.084822
0.0586281
0.101654
0.0686177
0.112164
0.0768455
0.11804
0.0839573
0.120902
0.0900532
0.121639
0.120202
0.0946438
0.00309689
0.00632206
0.012768
0.0247081
0.0274287
0.046746
0.043725
0.0685257
0.0588129
0.0865666
0.0714781
0.0994983
0.0818074
0.107711
0.0903968
0.112312
0.0976633
0.114372
0.11441
0.103456
0.00218268
0.00413938
0.00952767
0.0173631
0.0219317
0.0343419
0.0376222
0.0528352
0.0540822
0.0701065
0.0693996
0.0841809
0.0827428
0.0943674
0.0941224
0.100933
0.103979
0.104516
0.105517
0.112872
0.00146625
0.00267313
0.00650166
0.0123277
0.0156678
0.0251758
0.0286187
0.0398844
0.0439083
0.0548168
0.0597648
0.0683245
0.074818
0.0793142
0.0883139
0.0874369
0.100024
0.0928055
0.0953144
0.110226
0.000800749
0.00187238
0.00364421
0.00948425
0.00931675
0.0195032
0.0183293
0.0308719
0.0303454
0.0428007
0.0443134
0.0543565
0.0590114
0.0646162
0.0734609
0.0729875
0.0869476
0.0793188
0.0837149
0.0985471
5.15043e-05
0.00182088
0.000798835
0.00873691
0.00320441
0.0170976
0.00811783
0.0259585
0.0159211
0.0349974
0.0263046
0.043973
0.0384688
0.052452
0.051547
0.0599093
0.0647742
0.0660916
0.0708814
0.0776077
-0.000702897
0.00252378
-0.00167394
0.00970796
-0.00180969
0.0172334
-0.0002461
0.0243949
0.00363187
0.0311194
0.0100566
0.0375483
0.0186839
0.0438247
0.02885
0.0497431
0.0399924
0.0549492
0.0589725
0.0519013
-0.00115903
0.00368281
-0.00310571
0.0116546
-0.00467853
0.0188062
-0.00519401
0.0249104
-0.00416761
0.030093
-0.00117769
0.0345583
0.00396561
0.0386814
0.0107306
0.0429781
0.0187435
0.0469362
0.0497036
0.0280125
-0.00154538
0.00522819
-0.00421126
0.0143205
-0.0067051
0.0213
-0.00842031
0.0266256
-0.00915367
0.0308264
-0.0088017
0.0342064
-0.00707233
0.036952
-0.00404314
0.0399489
0.00040797
0.0424851
0.0440803
0.00603126
-0.00220945
0.00743764
-0.00586994
0.017981
-0.00945633
0.0248864
-0.0123244
0.0294936
-0.0142902
0.0327922
-0.0153926
0.0353088
-0.0157524
0.0373118
-0.0149663
0.0391628
-0.0128009
0.0403197
0.0406209
-0.00934146
-0.00247293
0.00991057
-0.00660305
0.0221111
-0.0107706
0.029054
-0.0143285
0.0330515
-0.0170615
0.0355252
-0.0189868
0.0372341
-0.0202809
0.0386059
-0.0208753
0.0397572
-0.020793
0.0402374
0.0399116
-0.0200837
-0.0023762
0.0122868
-0.00656249
0.0262974
-0.011034
0.0335255
-0.0152524
0.0372699
-0.019066
0.0393388
-0.0224075
0.0405756
-0.0251819
0.0413803
-0.027261
0.0418363
-0.0287589
0.0417354
0.0410123
-0.0298596
-0.00219478
0.0144815
-0.00634065
0.0304433
-0.011057
0.0382419
-0.01584
0.0420528
-0.0204889
0.0439876
-0.0248431
0.0449298
-0.0287336
0.0452709
-0.0320501
0.0451527
-0.0348772
0.0445625
0.0435097
-0.0373747
-0.00183075
-0.00567318
-0.0103173
-0.0152239
-0.0201487
-0.0249107
-0.0293649
-0.0334379
-0.0371583
-0.0406316
0.0827268
0.344247
-0.328427
0.0612038
0.231686
-0.210163
0.0497186
0.132987
-0.121502
0.0528385
0.0386402
-0.0417601
0.0626461
-0.0236478
0.0138402
0.07626
-0.0583665
0.0447526
0.0906833
-0.0694218
0.0549985
0.103914
-0.0650613
0.0518303
0.115909
-0.054608
0.0426138
-0.0320131
0.0242395
0.0680016
0.353853
0.0515161
0.248171
0.0465716
0.137932
0.0546063
0.0306055
0.067171
-0.0362125
0.0816174
-0.0728129
0.0959909
-0.0837953
0.108725
-0.0777953
0.119908
-0.0657908
-0.0388807
0.0503505
0.355404
0.03979
0.258732
0.0423927
0.135329
0.0552948
0.0177033
0.0708542
-0.0517719
0.0864558
-0.0884145
0.10089
-0.0982292
0.11311
-0.0900155
0.123438
-0.0761189
-0.0449136
0.0313933
0.352023
0.0274901
0.262635
0.0381507
0.124669
0.0555967
0.000257365
0.0740379
-0.0702132
0.0909765
-0.105353
0.105624
-0.112877
0.117383
-0.101774
0.126891
-0.085627
-0.0501878
0.0129905
0.345064
0.0163639
0.259262
0.0344773
0.106555
0.0558875
-0.0211528
0.0769202
-0.0912458
0.0952612
-0.123694
0.110264
-0.127879
0.121666
-0.113177
0.130441
-0.0944017
-0.0547705
-0.00396311
0.339686
0.00705502
0.248243
0.0309132
0.0826972
0.055678
-0.0459176
0.0792055
-0.114773
0.0990744
-0.143563
0.114629
-0.143433
0.125869
-0.124417
0.134081
-0.102613
-0.0587524
-0.0187453
0.338347
-0.00109779
0.230596
0.0264198
0.0551796
0.0541388
-0.0736366
0.0803137
-0.140948
0.102
-0.165249
0.118413
-0.159846
0.129771
-0.135775
0.137674
-0.110517
-0.0622686
-0.0310143
0.339502
-0.00862428
0.208206
0.0199037
0.0266516
0.0504583
-0.104191
0.0796984
-0.170188
0.103671
-0.189222
0.121352
-0.177527
0.133157
-0.147581
0.141058
-0.118418
-0.065494
-0.040958
0.343085
-0.0176797
0.184928
0.0106979
-0.00172597
0.0442261
-0.137719
0.0771335
-0.203096
0.10394
-0.216029
0.123336
-0.196923
0.135918
-0.160163
0.144124
-0.126624
-0.0686238
-0.0483866
-0.0288196
-0.000513009
0.035869
0.0729675
0.103012
0.124468
0.138085
0.146863
0.0128626
0.0209875
-0.03385
0.00512111
0.00774145
0.00132634
0.00379477
-0.000332851
0.00165919
0.000610239
-0.00094309
0.00399974
-0.0033895
0.00882334
-0.00482361
0.0137084
-0.00488506
0.0173842
-0.00367581
-0.00207158
0.0708425
0.0764051
-0.12626
0.042126
0.036458
0.026263
0.0196578
0.0206025
0.00731971
0.0244882
-0.00482883
0.0333094
-0.0122106
0.0432959
-0.0148102
0.0526572
-0.0142463
0.0597519
-0.0107705
-0.00600501
0.127051
0.158354
-0.208999
0.0796476
0.0838609
0.0534432
0.0458622
0.0444791
0.0162838
0.0479876
-0.00833727
0.0580325
-0.0222556
0.0701394
-0.0269171
0.0815563
-0.0256632
0.0908418
-0.020056
-0.0113578
0.164029
0.249736
-0.255411
0.10378
0.14411
0.0690181
0.0806238
0.0571225
0.0281794
0.0599152
-0.01113
0.0706732
-0.0330136
0.0842046
-0.0404485
0.0969178
-0.0383763
0.107805
-0.0309434
-0.0176667
0.182645
-0.261337
0.116593
0.0757142
0.0621335
0.0648438
0.0765828
0.0911328
0.104587
0.116257
0.0103746
9.21015e-05
-0.0104667
0.0114499
-0.0010753
0.0134749
-0.00202497
0.0162503
-0.00277542
0.0195682
-0.0033179
0.0228559
-0.00328766
0.0263028
-0.00344691
0.0287188
-0.00241606
0.0315839
-0.0028651
-0.00226611
0.0272255
-0.000113475
-0.0270199
0.0303454
-0.00419521
0.0360842
-0.00776373
0.0441602
-0.0108515
0.0541713
-0.013329
0.0653524
-0.0144687
0.0784569
-0.0165514
0.0917312
-0.0156903
0.108565
-0.0196985
-0.0199617
0.0406127
-0.000926232
-0.0398
0.0456043
-0.00918673
0.0545227
-0.0166822
0.0671588
-0.0234876
0.0830317
-0.0292019
0.101764
-0.033201
0.123961
-0.0387483
0.148149
-0.0398783
0.178404
-0.0499539
-0.0505566
0.0508761
-0.00249636
-0.049306
0.0574083
-0.015719
0.0687666
-0.0280404
0.0847286
-0.0394496
0.104788
-0.0492617
0.128987
-0.0573995
0.156412
-0.0661737
0.188034
-0.0715004
0.222979
-0.0848981
-0.0829888
0.0585043
-0.0561666
0.0662418
0.0792838
0.097233
0.119508
0.1457
0.17417
0.206125
0.234099
0.0645999
-0.0586645
0.0650239
-0.0709592
0.057764
-0.0590855
0.0659214
0.050749
-0.0597326
0.0667475
0.0434235
-0.0603298
0.0676553
0.0356979
-0.0607692
0.0684948
0.0276064
-0.0608417
0.0689332
0.0193323
-0.0600209
0.068295
0.0112126
-0.0571261
0.0652458
0.00402037
-0.0492503
0.0564425
-0.0278754
0.0318957
0.0702499
-0.05121
-0.0777045
0.0625682
-0.0514038
0.0544862
-0.0516506
0.0460358
-0.0518794
0.0373249
-0.0520583
0.0285074
-0.0520242
0.0197787
-0.0512923
0.0114193
-0.0487667
0.00410918
-0.0419402
-0.0237662
0.0712492
-0.042801
-0.0796581
0.0627321
-0.0428867
0.0541168
-0.0430353
0.0454369
-0.0431995
0.0367261
-0.0433475
0.0280312
-0.0433293
0.0194543
-0.0427153
0.0112304
-0.0405428
0.00403485
-0.0347446
-0.0197313
0.0741353
-0.0341267
-0.0828096
0.065403
-0.0341544
0.056577
-0.0342092
0.0476453
-0.0342678
0.0386104
-0.0343125
0.0295202
-0.0342391
0.0205144
-0.0337096
0.0118857
-0.031914
0.00433581
-0.0271948
-0.0153955
0.0769382
-0.0251231
-0.0859418
0.0678223
-0.0250385
0.0585804
-0.0249673
0.0492124
-0.0248999
0.0397422
-0.0248423
0.0302471
-0.0247441
0.0209058
-0.0243682
0.0120586
-0.0230669
0.00441408
-0.0195503
-0.0109814
0.0797783
-0.0157618
-0.0891397
0.0702869
-0.0155472
0.0606508
-0.0153312
0.0508699
-0.015119
0.0409667
-0.0149391
0.031026
-0.0148033
0.0212704
-0.0146127
0.0121508
-0.0139472
0.00445264
-0.0118521
-0.00652879
0.0828224
-0.006024
-0.0925601
0.0729395
-0.00566426
0.0628893
-0.00528103
0.0526605
-0.00489019
0.0422591
-0.00453775
0.0317562
-0.00430032
0.0214043
-0.00426085
0.0118248
-0.0043677
0.00410385
-0.00413117
-0.00242494
0.0859804
0.00405874
-0.0960631
0.075747
0.00456911
0.0653418
0.00512413
0.0547471
0.00570454
0.0439533
0.0062561
0.0329971
0.00665581
0.0220774
0.00665884
0.0118274
0.00588232
0.00369183
0.00400441
0.0012669
0.0890598
0.0144131
-0.0994142
0.0785632
0.0150658
0.0679187
0.0157686
0.057122
0.0165013
0.0461751
0.017203
0.0351116
0.0177193
0.0240784
0.0176921
0.0135412
0.0164195
0.00466892
0.0128767
0.00593581
0.0917181
-0.102292
0.0810168
0.0701838
0.0592219
0.048139
0.0369662
0.0258145
0.0150216
0.00552586
0.0127701
-0.125112
-0.0143394
0.00988165
-0.133874
0.00650533
-0.138786
0.00307238
-0.141362
5.97219e-05
-0.142095
-0.002293
-0.140834
-0.0043572
-0.136936
-0.00513634
-0.128222
-0.00339243
-0.106197