/*--------------------------------*- C++ -*----------------------------------*\
| =========                 |                                                 |
| \\      /  F ield         | OpenFOAM: The Open Source CFD Toolbox           |
|  \\    /   O peration     | Version:  2406                                  |
|   \\  /    A nd           | Website:  www.openfoam.com                      |
|    \\/     M anipulation  |                                                 |
\*---------------------------------------------------------------------------*/
FoamFile
{
    version     2.0;
    format      ascii;
    arch        "LSB;label=32;scalar=64";
    class       volVectorField;
    location    "1.25";
    object      U;
}
// * * * * * * * * * * * * * * * * * * * * * * * * * * * * * * * * * * * * * //

dimensions      [0 1 -1 0 0 0 0];

internalField   nonuniform List<vector> 
1800
(
(0.000443853 -0.00503482 0)
(-0.00386994 -0.00527019 -8.93295e-21)
(-0.00881092 -0.0015014 -9.29946e-20)
(-0.0104819 0.0098635 7.20574e-20)
(0.00814172 0.0305372 1.36845e-19)
(0.0508989 0.0489369 3.24811e-20)
(0.11934 0.0636955 -4.35603e-20)
(0.211618 0.0759168 -1.23689e-19)
(0.323942 0.0886559 0)
(0.412279 0.122217 -1.1768e-20)
(-0.00809469 0.000557568 4.28848e-21)
(-0.0108797 -0.00102958 -4.08285e-20)
(-0.00868785 -0.00478594 7.22084e-20)
(0.00694204 -0.0119982 8.14163e-20)
(0.061133 -0.0178166 -1.89084e-20)
(0.149501 -0.0237584 -1.81493e-19)
(0.26535 -0.0279323 4.92034e-20)
(0.40287 -0.0289997 2.2081e-19)
(0.55876 -0.0213773 -1.18292e-20)
(0.662649 -0.0096597 -1.93399e-20)
(-0.0132123 0.00793793 1.06105e-20)
(-0.0116428 0.00693217 -5.35447e-20)
(0.00428485 0.000535768 -4.64135e-20)
(0.0704557 -0.013311 2.33245e-20)
(0.188774 -0.0289316 -1.594e-20)
(0.342869 -0.0404365 4.07544e-20)
(0.517792 -0.0449054 -3.46437e-20)
(0.701662 -0.0421629 -1.91363e-19)
(0.896646 -0.0241698 4.88584e-20)
(1.02042 -0.0171072 9.65397e-21)
(-0.00947897 0.00673515 1.30839e-20)
(-4.83662e-05 0.0068013 6.58014e-20)
(0.065295 -0.00543828 -5.6315e-20)
(0.204738 -0.0217124 -5.29071e-22)
(0.397668 -0.0353595 1.08345e-19)
(0.617714 -0.0408324 -2.9557e-20)
(0.843005 -0.0365045 -8.48894e-20)
(1.05841 -0.024087 -6.3363e-20)
(1.26629 -0.000259666 -1.39287e-20)
(1.404 0.0156893 4.42646e-20)
(-0.00191484 0.00157587 -7.99567e-21)
(0.0401813 -0.00812175 4.74685e-20)
(0.18343 -0.0211394 4.71617e-20)
(0.407791 -0.0324165 -8.37659e-20)
(0.673677 -0.0343994 -3.5615e-20)
(0.944233 -0.0245052 5.03805e-20)
(1.19468 -0.00468077 4.0403e-20)
(1.41382 0.0214812 7.27808e-20)
(1.60353 0.0530065 -1.4588e-19)
(1.73832 0.074637 -1.09102e-19)
(0.00739776 -0.000632372 4.44384e-22)
(0.123244 -0.0236018 1.6778e-19)
(0.36316 -0.033178 9.44107e-20)
(0.674391 -0.0305133 -1.28452e-19)
(0.996864 -0.0132897 1.18734e-19)
(1.28847 0.0151104 -8.54773e-21)
(1.53132 0.0489927 1.10469e-19)
(1.72532 0.0835967 1.73756e-19)
(1.87828 0.115871 -2.2708e-19)
(1.99503 0.138966 -1.6771e-19)
(0.0361469 -0.00427928 -3.75449e-20)
(0.252999 -0.0335221 -2.66801e-19)
(0.599516 -0.0285267 2.70819e-20)
(0.983741 -0.0025218 3.41568e-19)
(1.32948 0.0362702 -1.87086e-20)
(1.60464 0.0790023 -2.28106e-19)
(1.80975 0.119186 -1.48593e-19)
(1.95956 0.153547 4.15629e-19)
(2.07119 0.180901 4.64303e-19)
(2.15596 0.199668 3.957e-20)
(0.0842674 -0.0070407 4.20975e-20)
(0.427509 -0.0299502 3.32484e-20)
(0.877431 0.0030447 -1.46433e-19)
(1.29972 0.0557192 7.78956e-20)
(1.626 0.10935 -4.08633e-21)
(1.85327 0.155549 -7.58103e-19)
(2.00573 0.191691 -2.22197e-21)
(2.11019 0.218428 5.37758e-19)
(2.18635 0.237246 -3.29277e-19)
(2.24642 0.248624 -3.31216e-19)
(0.153784 -0.0045147 1.63431e-19)
(0.639955 -0.00278073 1.54288e-19)
(1.16433 0.0667008 -3.78224e-19)
(1.57669 0.138919 -8.87674e-20)
(1.8494 0.194996 4.63992e-21)
(2.01725 0.234654 2.92469e-19)
(2.1222 0.261483 -5.39016e-19)
(2.19381 0.279632 -2.75413e-19)
(2.24817 0.290934 6.10945e-19)
(2.29236 0.297559 1.36315e-19)
(0.244469 0.00814004 7.6341e-21)
(0.869161 0.0544682 3.98675e-19)
(1.41942 0.157035 -3.43972e-19)
(1.78358 0.235586 -1.59209e-19)
(1.99309 0.28468 1.7345e-19)
(2.11173 0.314545 -1.83085e-19)
(2.18563 0.332581 3.57857e-19)
(2.23854 0.344892 2.20089e-20)
(2.28245 0.34707 -2.222e-19)
(2.3136 0.353918 -7.9619e-20)
(-0.0112736 0.212759 -7.77164e-21)
(-0.0308049 0.449415 4.17266e-20)
(-0.0574965 0.56186 2.18307e-20)
(-0.0822188 0.614081 -2.92712e-20)
(-0.105417 0.638104 1.68565e-21)
(-0.127092 0.646374 8.11425e-21)
(-0.146456 0.644651 1.37266e-21)
(-0.163172 0.635991 1.73124e-21)
(-0.177745 0.621859 -4.09574e-23)
(-0.192001 0.603244 -2.22899e-20)
(-0.0250781 0.22031 8.9027e-21)
(-0.0585963 0.477243 4.72763e-23)
(-0.0873877 0.600727 9.24861e-21)
(-0.110362 0.656622 -2.862e-20)
(-0.130183 0.681705 4.81867e-21)
(-0.1483 0.689594 -1.45907e-20)
(-0.164662 0.685873 -3.10047e-20)
(-0.178902 0.674463 0)
(-0.191298 0.657929 -5.43679e-21)
(-0.203612 0.637379 1.5915e-20)
(-0.0369058 0.21187 5.57711e-23)
(-0.0844843 0.482004 -1.04178e-20)
(-0.114494 0.619982 -2.22116e-21)
(-0.135112 0.68352 7.8826e-21)
(-0.150249 0.712636 3.26357e-20)
(-0.16216 0.72434 -1.89194e-20)
(-0.171946 0.724522 3.58948e-20)
(-0.18002 0.715176 2.51372e-20)
(-0.186162 0.697707 1.11046e-19)
(-0.191789 0.67464 1.15786e-19)
(-0.0433596 0.187327 9.94491e-21)
(-0.103143 0.459977 6.67805e-20)
(-0.132289 0.614233 -2.6002e-21)
(-0.147441 0.688634 4.26382e-20)
(-0.154806 0.721665 -1.65531e-20)
(-0.157773 0.733823 -2.65139e-20)
(-0.158111 0.734277 1.80116e-22)
(-0.156841 0.727505 0)
(-0.154558 0.715806 -1.59714e-19)
(-0.151976 0.699995 -2.16042e-19)
(-0.0406492 0.146297 2.70088e-20)
(-0.106847 0.403914 -9.9337e-21)
(-0.132964 0.573729 -4.23088e-20)
(-0.141102 0.665284 -1.87019e-20)
(-0.140016 0.710738 -4.91112e-21)
(-0.13443 0.731852 -5.61654e-20)
(-0.126559 0.739061 1.32039e-20)
(-0.117015 0.73698 1.10218e-19)
(-0.105501 0.727901 -2.35878e-19)
(-0.0922854 0.712581 -2.58424e-19)
(-0.0294334 0.0946508 1.46651e-20)
(-0.0950965 0.314603 -2.62646e-20)
(-0.119645 0.492038 5.37181e-20)
(-0.123454 0.602738 2.86836e-20)
(-0.11535 0.66566 7.42817e-21)
(-0.100863 0.700252 -1.86832e-19)
(-0.0831303 0.717908 -7.53395e-20)
(-0.0634031 0.724399 2.34846e-19)
(-0.0412298 0.722585 -3.30624e-19)
(-0.0159586 0.712624 -2.75058e-19)
(-0.014033 0.0451593 -3.38228e-20)
(-0.0703841 0.207197 6.45015e-20)
(-0.0945855 0.375183 -5.30312e-21)
(-0.0979498 0.498275 -4.14779e-20)
(-0.0861864 0.578572 6.8148e-20)
(-0.0646827 0.62896 -3.00159e-20)
(-0.0374302 0.659444 -1.95151e-19)
(-0.006556 0.676072 -2.00307e-20)
(0.0282107 0.681901 3.80272e-19)
(0.0693962 0.675167 2.538e-19)
(-0.000372725 0.009537 -9.45071e-22)
(-0.0396042 0.104398 -3.69734e-20)
(-0.0617567 0.242376 -7.46911e-20)
(-0.0669296 0.361748 4.82548e-20)
(-0.0553002 0.450695 8.82783e-20)
(-0.0304039 0.513568 2.57183e-20)
(0.00372363 0.556454 -9.42476e-20)
(0.0441198 0.58419 -5.90401e-20)
(0.0904556 0.599587 5.29672e-20)
(0.148134 0.595447 3.16552e-20)
(0.00514463 -0.00354057 -8.97406e-21)
(-0.0105576 0.0279203 -1.44423e-20)
(-0.0286075 0.118178 2.90592e-20)
(-0.0356352 0.214472 3.64721e-20)
(-0.0265053 0.295733 1.0108e-20)
(-0.00152219 0.359206 -8.85603e-20)
(0.0364842 0.406812 -6.27521e-20)
(0.0842819 0.441654 -4.78526e-20)
(0.141323 0.466498 -1.01903e-21)
(0.217669 0.462355 -1.25537e-19)
(0.00636792 -0.00839057 -1.61609e-20)
(0.00314914 -0.0035844 -2.07761e-20)
(-0.00565229 0.0277274 1.29185e-19)
(-0.0138309 0.0842945 1.14502e-19)
(-0.00714681 0.141355 -7.04505e-20)
(0.018784 0.189307 -2.83955e-19)
(0.0633597 0.227503 3.83622e-20)
(0.123908 0.257662 8.24581e-20)
(0.201282 0.282217 5.72346e-20)
(0.302028 0.27835 -4.73012e-20)
(-0.263856 0.493925 -3.50828e-19)
(-0.251057 0.219049 -8.93636e-19)
(-0.133291 -0.0600121 -6.34881e-19)
(0.0239753 -0.268716 5.52571e-19)
(0.246653 -0.361527 -1.40706e-19)
(0.425881 -0.364725 1.29011e-20)
(0.565029 -0.32001 -8.96372e-20)
(0.661794 -0.252316 4.4262e-20)
(0.722763 -0.195544 -2.98995e-20)
(0.770749 -0.103313 -2.07303e-20)
(-0.268866 0.516989 -4.07984e-19)
(-0.296161 0.209487 7.90833e-21)
(-0.172215 -0.0995473 -9.64141e-20)
(0.0113335 -0.32758 -3.23033e-19)
(0.250282 -0.421493 1.42623e-20)
(0.436885 -0.413129 -3.55856e-20)
(0.579046 -0.35494 5.40537e-20)
(0.676341 -0.27488 2.75793e-21)
(0.737097 -0.210986 -5.4545e-20)
(0.785531 -0.110503 4.03434e-20)
(-0.239175 0.551001 2.21773e-19)
(-0.300192 0.212937 1.12151e-18)
(-0.163457 -0.138649 1.94845e-19)
(0.0459907 -0.388294 -5.17494e-19)
(0.292771 -0.482562 1.02636e-19)
(0.474442 -0.461496 3.19381e-21)
(0.608482 -0.389672 3.04012e-20)
(0.699115 -0.29713 -4.32608e-20)
(0.755783 -0.226461 3.24559e-21)
(0.802875 -0.117808 -2.06085e-22)
(-0.167378 0.588055 4.42333e-19)
(-0.239748 0.228489 -1.84955e-20)
(-0.0903055 -0.175695 1.78457e-19)
(0.143904 -0.448779 3.55821e-19)
(0.391837 -0.54172 -2.37905e-20)
(0.556325 -0.50642 6.85568e-21)
(0.667053 -0.421215 -3.55605e-20)
(0.738865 -0.3171 0)
(0.784473 -0.240866 0)
(0.825972 -0.124918 -9.69736e-23)
(-0.0672664 0.615665 1.76745e-19)
(-0.128597 0.248915 -7.16791e-19)
(0.0509404 -0.210145 -1.19772e-20)
(0.300035 -0.507793 -2.74081e-19)
(0.547418 -0.597469 -8.94626e-20)
(0.693596 -0.545148 -5.29134e-20)
(0.769767 -0.446027 7.39387e-21)
(0.807789 -0.331956 -1.74732e-20)
(0.832133 -0.252343 -6.17772e-20)
(0.860012 -0.131183 -2.39469e-21)
(0.0461911 0.642069 1.1496e-19)
(0.0308249 0.271911 -3.03081e-19)
(0.238984 -0.238147 -1.3376e-18)
(0.484804 -0.564398 1.52218e-20)
(0.730533 -0.651929 3.0718e-19)
(0.873063 -0.578529 -1.50842e-20)
(0.920972 -0.461863 -1.01055e-20)
(0.916805 -0.338532 -7.29492e-20)
(0.910013 -0.258188 1.06971e-21)
(0.912515 -0.135445 -2.86466e-20)
(0.173868 0.646398 -1.36793e-19)
(0.236923 0.296461 -4.70531e-20)
(0.447957 -0.255198 4.8236e-19)
(0.682859 -0.615456 -1.37155e-19)
(0.91195 -0.707989 -5.12365e-20)
(1.05954 -0.612502 9.23461e-20)
(1.10205 -0.471541 -1.77672e-20)
(1.06473 -0.335931 8.60441e-21)
(1.02554 -0.255795 1.91437e-20)
(0.99172 -0.136166 9.18398e-21)
(0.29584 0.623129 -2.48004e-19)
(0.460061 0.325481 2.76681e-19)
(0.677177 -0.257027 7.2149e-19)
(0.91299 -0.65343 5.38977e-20)
(1.1025 -0.760259 -2.49944e-19)
(1.23234 -0.649812 -1.70139e-19)
(1.28178 -0.481429 3.45759e-20)
(1.2325 -0.32782 1.43622e-21)
(1.17296 -0.244974 5.37945e-22)
(1.10124 -0.132251 -4.00137e-21)
(0.416462 0.574231 -8.18206e-19)
(0.682306 0.342248 1.49997e-20)
(0.927145 -0.245926 -6.90626e-19)
(1.18605 -0.674797 7.03779e-19)
(1.33086 -0.799145 -3.14768e-19)
(1.40504 -0.684115 -7.76245e-20)
(1.44368 -0.493778 -9.77275e-20)
(1.39473 -0.319618 7.05508e-21)
(1.33182 -0.229049 9.32136e-21)
(1.23362 -0.124179 4.89161e-21)
(0.491451 0.468485 -1.13818e-19)
(0.856381 0.368481 3.85645e-19)
(1.18389 -0.218039 -3.2024e-19)
(1.47622 -0.685006 4.2993e-19)
(1.59269 -0.82109 -3.09371e-19)
(1.5975 -0.706441 7.30636e-20)
(1.59397 -0.504476 -2.29398e-19)
(1.53755 -0.313537 -1.20694e-20)
(1.47921 -0.212318 -9.05825e-21)
(1.37111 -0.113894 -1.62731e-20)
(0.716771 0.325475 3.97928e-19)
(1.17202 0.309512 1.16928e-19)
(1.57895 -0.262803 -3.7076e-20)
(1.8771 -0.712914 -6.09316e-20)
(1.95449 -0.833253 1.07783e-19)
(1.87625 -0.712171 -2.70582e-20)
(1.78976 -0.504364 1.12212e-20)
(1.69757 -0.3027 3.78985e-20)
(1.63651 -0.190258 -9.22985e-20)
(1.52828 -0.0996987 1.1629e-20)
(1.18615 0.255943 2.41703e-19)
(1.74458 0.122422 -3.73971e-19)
(2.23421 -0.428512 -5.16868e-19)
(2.41238 -0.800437 7.57777e-20)
(2.36346 -0.831108 -1.23752e-19)
(2.19536 -0.652628 1.26322e-19)
(2.01244 -0.438705 1.91228e-19)
(1.85299 -0.254339 -2.97744e-20)
(1.76752 -0.152601 1.11531e-19)
(1.66225 -0.0797572 2.28597e-20)
(1.85946 0.230095 7.56345e-20)
(2.38359 -0.0142093 5.66084e-20)
(2.73424 -0.500277 2.16411e-20)
(2.72336 -0.783612 3.16278e-35)
(2.54798 -0.776388 -7.36598e-20)
(2.34034 -0.584512 -5.50745e-34)
(2.1424 -0.371009 3.55131e-20)
(1.96099 -0.202162 6.88429e-34)
(1.85504 -0.113436 -1.99235e-21)
(1.74486 -0.0591826 1.55601e-21)
(2.40069 0.170563 1.53633e-19)
(2.82748 -0.110648 5.33072e-19)
(3.03583 -0.54059 5.37932e-19)
(2.95803 -0.759207 0)
(2.71549 -0.707717 2.31125e-20)
(2.42903 -0.500536 -1.24305e-19)
(2.18235 -0.29359 -1.64617e-19)
(1.98611 -0.144864 2.23007e-33)
(1.87512 -0.0713031 -6.53581e-20)
(1.7663 -0.0383953 -3.73868e-21)
(2.73259 0.0815033 1.56875e-19)
(3.05411 -0.179451 -1.87101e-20)
(3.19984 -0.544787 0)
(3.08689 -0.693383 0)
(2.79935 -0.597303 0)
(2.47572 -0.383863 0)
(2.19293 -0.196414 9.29804e-21)
(1.97438 -0.0794534 2.5279e-33)
(1.85696 -0.0278263 -3.63429e-21)
(1.75304 -0.0189835 -6.62409e-34)
(2.9029 -5.12521e-05 5.46869e-20)
(3.16021 -0.233548 0)
(3.2878 -0.537417 0)
(3.10522 -0.618302 0)
(2.71558 -0.487677 0)
(2.33607 -0.27588 0)
(2.05864 -0.109353 -1.88588e-20)
(1.86925 -0.0211283 1.05903e-19)
(1.77933 0.0102436 -4.51609e-21)
(1.69914 -0.000501793 7.89395e-21)
(2.96289 -0.0687544 0)
(3.18804 -0.278204 2.85146e-19)
(3.22124 -0.512867 2.55721e-19)
(2.90275 -0.508318 0)
(2.44695 -0.332424 -7.20653e-20)
(2.05594 -0.140574 -1.07373e-19)
(1.80599 -0.0198916 -1.03722e-19)
(1.66323 0.0283445 -5.04384e-20)
(1.61609 0.0371227 4.18328e-20)
(1.57195 0.0126865 -1.49972e-20)
(2.88817 -0.131161 6.547e-20)
(3.01818 -0.297006 -2.48563e-20)
(2.82031 -0.414808 1.17305e-20)
(2.30534 -0.344028 -3.3019e-35)
(1.80413 -0.173165 1.82085e-20)
(1.49047 -0.0299918 -5.83658e-34)
(1.35218 0.0384849 -2.19133e-20)
(1.30241 0.0519784 -4.98892e-20)
(1.31424 0.0448471 -5.34624e-21)
(1.31374 0.0166935 1.03603e-20)
(2.41359 -0.158051 0)
(2.30097 -0.249965 -8.87824e-20)
(1.78534 -0.217335 -6.05708e-20)
(1.17348 -0.102815 0)
(0.825121 -0.0164282 2.61745e-21)
(0.718058 0.0285046 9.084e-21)
(0.734128 0.0451526 -1.00889e-20)
(0.782857 0.041569 1.17843e-20)
(0.844749 0.0312362 -2.01332e-20)
(0.878953 0.011955 -8.63901e-21)
(1.00847 -0.0890256 2.46505e-20)
(0.639887 -0.0397133 0)
(0.291976 -0.00444846 0)
(0.0986827 -0.000305926 0)
(0.0322955 -8.33724e-05 0)
(0.0492668 0.00552927 0)
(0.113579 0.0112505 -2.17304e-20)
(0.184446 0.0109875 7.7452e-35)
(0.247248 0.00800906 -6.04051e-21)
(0.285973 0.00297757 -1.11174e-20)
(2.36609 0.35661 4.07151e-19)
(2.36678 0.30725 1.58677e-19)
(2.34535 0.268184 2.83349e-19)
(2.3079 0.231045 -3.03482e-19)
(2.21953 0.192898 9.21098e-20)
(2.08564 0.14635 3.73036e-20)
(1.85202 0.0847462 4.43819e-20)
(1.54942 0.0579033 2.02315e-20)
(1.17357 -0.0308303 -2.75386e-20)
(0.701944 0.047233 6.32537e-21)
(2.41535 0.329391 -1.96102e-19)
(2.44232 0.294962 3.70821e-20)
(2.44831 0.258196 1.55029e-19)
(2.4433 0.236895 1.28445e-19)
(2.42298 0.195033 -2.00349e-19)
(2.35075 0.181144 9.16201e-20)
(2.28493 0.119912 -3.20228e-20)
(2.0628 0.103816 -9.85253e-21)
(1.95615 0.0679615 -6.88866e-21)
(1.50473 0.0186022 2.22184e-21)
(2.49813 0.286061 3.07487e-20)
(2.51693 0.264344 -1.36072e-19)
(2.55938 0.225062 -1.82833e-19)
(2.54163 0.211089 3.94047e-19)
(2.58311 0.174731 -4.41098e-21)
(2.51182 0.156958 -3.1387e-21)
(2.54769 0.132921 -7.97892e-20)
(2.39376 0.0861738 -5.86599e-20)
(2.39087 0.102138 7.04788e-21)
(2.13431 0.016743 -7.60444e-21)
(2.59478 0.243297 4.97497e-20)
(2.59969 0.225784 -1.64501e-19)
(2.66584 0.190753 2.51126e-20)
(2.64201 0.171196 -1.24557e-19)
(2.70599 0.14865 2.06843e-19)
(2.65368 0.115664 -5.90997e-20)
(2.70623 0.116051 4.85648e-20)
(2.62274 0.0565043 -5.89974e-20)
(2.6403 0.0851473 -1.07928e-19)
(2.51452 0.00444625 -4.73799e-20)
(2.65043 0.201507 9.56688e-20)
(2.66186 0.182775 -2.70271e-19)
(2.72713 0.156173 -2.42659e-20)
(2.72306 0.131809 -1.40273e-20)
(2.78078 0.116398 -5.18695e-21)
(2.76344 0.0801115 -1.8458e-21)
(2.80797 0.0808424 2.86972e-20)
(2.77512 0.0290761 -4.67535e-20)
(2.80011 0.0477643 -7.6651e-20)
(2.74471 -0.0149523 -1.02677e-19)
(2.64967 0.158511 1.72928e-19)
(2.67284 0.139796 3.17546e-20)
(2.7332 0.118892 -1.90986e-19)
(2.75027 0.0946857 1.16027e-19)
(2.80313 0.0809993 9.37592e-20)
(2.81404 0.0484657 -7.47958e-20)
(2.85602 0.042719 1.07935e-19)
(2.8585 0.0023364 5.01122e-20)
(2.8872 0.00688649 -1.38301e-19)
(2.88008 -0.0381062 -1.72693e-19)
(2.58905 0.110537 1.67839e-20)
(2.62335 0.0955443 5.82515e-20)
(2.6797 0.0759396 -7.41265e-20)
(2.71162 0.0557028 -4.04761e-20)
(2.76478 0.0414423 9.51135e-20)
(2.79425 0.0142285 4.2808e-20)
(2.84021 0.00413752 9.10876e-20)
(2.86874 -0.0283741 7.11103e-20)
(2.90098 -0.0343227 1.24206e-20)
(2.93242 -0.0686839 5.84612e-20)
(2.44066 0.0642817 2.13906e-20)
(2.49083 0.0563893 -6.85436e-23)
(2.53378 0.0342512 -8.18768e-20)
(2.58465 0.0210168 -7.28851e-20)
(2.62606 0.00422668 3.64344e-20)
(2.67912 -0.0167612 -3.87173e-20)
(2.71394 -0.0304702 -3.5011e-20)
(2.77233 -0.0555737 1.11791e-19)
(2.79453 -0.0696235 -9.68873e-20)
(2.86183 -0.0958288 -1.13147e-19)
(2.0949 0.0126082 6.3854e-20)
(2.16408 0.00788399 -2.96441e-20)
(2.16755 -0.00965951 -2.91632e-20)
(2.24051 -0.0124449 3.49296e-20)
(2.24027 -0.0318297 -2.06417e-20)
(2.3139 -0.0352319 -4.7049e-21)
(2.31042 -0.0553634 -3.96165e-20)
(2.38462 -0.0621074 2.5664e-20)
(2.37393 -0.0838457 2.36046e-20)
(2.45314 -0.0945704 -2.64507e-20)
(1.21952 -0.00664637 0)
(1.23742 -0.0113642 3.32246e-21)
(1.22178 -0.014797 -4.27792e-20)
(1.24465 -0.0193552 -6.69266e-20)
(1.21372 -0.0215815 3.89062e-20)
(1.24658 -0.0253906 1.62777e-19)
(1.19787 -0.0286174 -1.22002e-20)
(1.24323 -0.0331826 -1.00812e-19)
(1.17225 -0.039834 -1.40901e-20)
(1.23076 -0.0438424 5.05301e-21)
(1.42653 0.853534 -4.77936e-20)
(1.40412 0.892906 -9.88518e-20)
(1.39856 0.935419 -7.25552e-19)
(1.39618 0.982236 2.27753e-19)
(1.39045 1.02947 1.08431e-18)
(1.37531 1.07187 1.46798e-19)
(1.34011 1.09612 -8.03242e-20)
(1.26265 1.0801 -3.15532e-19)
(1.07217 0.958793 -3.23767e-19)
(0.57082 0.529502 -4.30199e-20)
(1.59185 0.827402 -4.21014e-19)
(1.57007 0.864495 1.20124e-18)
(1.55648 0.903494 5.29844e-19)
(1.54901 0.947765 -7.77697e-19)
(1.54229 0.993788 2.55301e-19)
(1.52727 1.03498 2.3936e-19)
(1.49006 1.05697 7.74243e-19)
(1.40542 1.03939 -1.12575e-18)
(1.19264 0.91762 -5.23696e-20)
(0.628942 0.499563 1.91981e-19)
(1.74368 0.800067 1.15011e-19)
(1.72692 0.835584 9.27229e-19)
(1.7108 0.871141 1.76846e-20)
(1.69954 0.910109 -4.48857e-19)
(1.6905 0.950772 1.33568e-19)
(1.67374 0.986791 -5.74024e-20)
(1.63289 1.00371 -4.85834e-20)
(1.53935 0.983175 -3.93092e-19)
(1.30141 0.859914 3.9526e-20)
(0.676208 0.458083 -2.14597e-19)
(1.87674 0.765902 -4.69417e-19)
(1.86488 0.798539 4.25161e-19)
(1.84986 0.830257 -6.4747e-19)
(1.83744 0.863962 -2.36717e-19)
(1.82659 0.898632 1.35561e-18)
(1.80688 0.92778 -8.42443e-19)
(1.76083 0.937666 -9.44114e-19)
(1.65731 0.91208 4.11376e-19)
(1.39007 0.786391 -1.26229e-19)
(0.705743 0.406665 -6.00953e-20)
(1.99095 0.723852 5.82244e-19)
(1.98343 0.752967 4.62577e-19)
(1.97129 0.780524 -2.13704e-19)
(1.95897 0.808438 8.26055e-19)
(1.94554 0.835852 1.54171e-19)
(1.92118 0.856103 -3.64753e-19)
(1.86789 0.857161 5.13391e-19)
(1.75177 0.826398 -6.23782e-19)
(1.44902 0.697874 -7.11048e-19)
(0.711667 0.345073 -8.65336e-21)
(2.08957 0.674389 7.71152e-19)
(2.08381 0.69863 9.52004e-19)
(2.0722 0.720502 -9.5248e-19)
(2.05878 0.742254 -9.54245e-19)
(2.04274 0.762769 2.2271e-19)
(2.01136 0.772584 -6.70659e-19)
(1.94834 0.765124 -4.15125e-19)
(1.8139 0.728301 3.50866e-19)
(1.4707 0.594473 7.36405e-20)
(0.689637 0.275685 -8.47007e-21)
(2.17181 0.615143 7.17043e-19)
(2.16517 0.634191 -9.39927e-19)
(2.15423 0.652582 -8.07432e-19)
(2.14077 0.669494 6.01179e-19)
(2.11655 0.679512 -5.32717e-19)
(2.07199 0.677344 1.56801e-18)
(1.99944 0.663064 -2.26754e-19)
(1.83784 0.618485 -1.26146e-18)
(1.44869 0.479992 5.51157e-19)
(0.638255 0.203994 3.40942e-20)
(2.24174 0.553475 -4.61361e-19)
(2.2352 0.568611 -6.33888e-19)
(2.2211 0.580058 -8.48012e-19)
(2.19504 0.585329 3.14632e-20)
(2.15607 0.582648 2.72853e-19)
(2.10544 0.574624 2.7882e-19)
(2.01692 0.55536 6.23774e-19)
(1.81763 0.500102 -3.16371e-19)
(1.37836 0.361007 2.1367e-20)
(0.559781 0.136317 6.25113e-20)
(2.29403 0.490389 2.19927e-19)
(2.27727 0.495699 -7.25774e-20)
(2.24659 0.49732 3.89729e-19)
(2.21214 0.494214 1.01852e-18)
(2.17248 0.489358 -3.84613e-19)
(2.11039 0.475612 -1.36754e-18)
(1.99244 0.446389 9.59863e-19)
(1.74576 0.380376 8.66244e-19)
(1.25671 0.245512 -4.42068e-19)
(0.460275 0.078571 -1.32892e-20)
(2.30855 0.422217 -3.64912e-19)
(2.28199 0.420942 -3.17859e-21)
(2.25304 0.42049 4.90578e-19)
(2.21606 0.410851 5.76523e-19)
(2.16089 0.400512 4.02928e-19)
(2.07482 0.378793 -6.4511e-19)
(1.91777 0.339044 3.77718e-20)
(1.6149 0.264256 -3.33171e-19)
(1.08347 0.140184 -4.97074e-19)
(0.350523 0.0352697 -1.04187e-20)
(0.47238 0.360867 2.35842e-20)
(0.43566 0.372917 -9.58441e-20)
(0.395408 0.385732 -1.80845e-20)
(0.352035 0.399038 5.82527e-20)
(0.305259 0.411998 -3.04664e-20)
(0.254517 0.422305 -4.78641e-20)
(0.199203 0.424058 -1.12195e-20)
(0.13821 0.404378 -3.07519e-20)
(0.0727609 0.339037 9.78605e-20)
(0.0273746 0.179047 1.07783e-20)
(0.519467 0.456835 -1.00245e-20)
(0.483002 0.473522 1.94169e-20)
(0.443488 0.491013 -3.95843e-20)
(0.40099 0.509045 1.12881e-20)
(0.355025 0.526826 4.18792e-20)
(0.304813 0.54196 3.23056e-20)
(0.249237 0.547859 1.20785e-19)
(0.186393 0.529453 -5.86063e-20)
(0.114148 0.45522 6.73674e-20)
(0.0492848 0.249592 -8.53835e-21)
(0.584818 0.54627 -6.27523e-20)
(0.54995 0.567485 3.95922e-20)
(0.51244 0.589682 5.47893e-20)
(0.47198 0.612673 2.59026e-20)
(0.42781 0.635681 1.36749e-20)
(0.378779 0.656213 1.50763e-19)
(0.323058 0.667069 -4.50228e-20)
(0.257627 0.651043 -6.41343e-20)
(0.176023 0.569326 -1.0205e-23)
(0.0831345 0.319045 1.30951e-20)
(0.656341 0.63136 8.81169e-20)
(0.622945 0.657047 1.97747e-20)
(0.587976 0.683556 -1.60186e-19)
(0.55046 0.710997 -6.50892e-20)
(0.509284 0.738766 -5.02532e-20)
(0.462991 0.764267 -7.81639e-20)
(0.409004 0.779561 -2.44902e-19)
(0.342749 0.765371 8.07802e-20)
(0.252281 0.676248 -5.80392e-20)
(0.126122 0.383684 -9.69983e-20)
(0.74179 0.705228 4.04073e-21)
(0.710162 0.735023 -1.61813e-19)
(0.678082 0.765518 1.16413e-19)
(0.643993 0.797185 -6.77156e-20)
(0.606427 0.829555 -1.28085e-19)
(0.563552 0.859888 1.88308e-19)
(0.511984 0.879469 9.75036e-20)
(0.445309 0.867132 -1.27156e-19)
(0.344933 0.771574 -2.65613e-19)
(0.178535 0.440394 4.63338e-20)
(0.840269 0.772743 7.15671e-21)
(0.810529 0.806116 2.17472e-21)
(0.781086 0.839293 1.6785e-20)
(0.749878 0.873526 6.00146e-20)
(0.715462 0.90879 2.04767e-19)
(0.675922 0.942224 -2.03006e-19)
(0.627009 0.964248 -1.39604e-19)
(0.560043 0.952212 -4.75441e-20)
(0.448813 0.85034 1.12911e-19)
(0.237217 0.485905 1.52585e-19)
(0.946017 0.822462 -1.346e-19)
(0.921948 0.859414 7.04849e-20)
(0.899225 0.895648 2.79536e-19)
(0.874206 0.93262 -1.82756e-19)
(0.844746 0.970505 -4.20705e-19)
(0.808782 1.00655 1.9013e-19)
(0.76161 1.03072 6.19281e-19)
(0.692536 1.01922 1.56046e-19)
(0.566941 0.912871 -3.91562e-20)
(0.30268 0.521487 2.16001e-19)
(1.04909 0.865309 -3.05586e-19)
(1.02549 0.903374 -1.07547e-19)
(1.00713 0.940529 2.98831e-19)
(0.989174 0.979324 -1.1167e-19)
(0.967922 1.0195 9.6423e-20)
(0.939625 1.05741 4.05949e-19)
(0.897816 1.08213 -4.3828e-19)
(0.828964 1.06953 -3.93755e-19)
(0.689823 0.957632 3.31768e-19)
(0.370521 0.544718 -2.50515e-21)
(1.16924 0.88303 -1.46515e-20)
(1.15366 0.923178 4.21535e-20)
(1.1403 0.960162 -2.36331e-19)
(1.12535 0.999145 -8.62021e-20)
(1.10707 1.04106 5.02243e-19)
(1.08227 1.08158 1.47937e-19)
(1.04307 1.1079 -1.24383e-19)
(0.972501 1.09516 0)
(0.818051 0.979562 -2.16162e-19)
(0.439742 0.553318 -1.1153e-19)
(1.26003 0.887502 0)
(1.25344 0.929395 0)
(1.25551 0.969041 6.73091e-19)
(1.25365 1.00913 1.54981e-19)
(1.24473 1.0507 -2.35405e-19)
(1.2263 1.09018 4.19615e-19)
(1.19036 1.11458 -2.95406e-19)
(1.11759 1.09965 -7.94883e-19)
(0.946462 0.980275 4.04232e-19)
(0.507246 0.548108 2.09723e-19)
(0.97894 -0.0240192 -1.02224e-20)
(1.03948 0.0448876 -1.04119e-20)
(1.02083 0.17301 6.80986e-21)
(1.00064 0.236865 3.82729e-21)
(0.96849 0.235296 1.45678e-20)
(0.931494 0.228675 2.64384e-20)
(0.903787 0.214528 -1.32802e-20)
(0.842374 0.229929 -1.76655e-20)
(0.794851 0.25073 -8.03352e-20)
(0.636171 0.300543 5.87141e-20)
(0.978555 -0.0275295 -4.71555e-22)
(1.03983 0.0417568 8.54025e-21)
(1.01996 0.177255 1.24406e-22)
(0.999871 0.245347 7.81688e-21)
(0.968643 0.244464 1.10507e-20)
(0.93169 0.238075 -3.86412e-20)
(0.908704 0.226196 -1.42446e-20)
(0.855147 0.245587 2.7108e-22)
(0.815003 0.283069 2.03756e-19)
(0.677921 0.367597 1.9105e-21)
(0.977936 -0.0309782 1.25579e-21)
(1.0407 0.0392069 1.55944e-20)
(1.01964 0.182103 -6.11892e-21)
(0.999603 0.254011 -9.85013e-22)
(0.968214 0.253423 -1.34866e-20)
(0.931001 0.246856 2.78749e-21)
(0.911863 0.235941 1.86278e-20)
(0.867724 0.259706 -1.72012e-20)
(0.834019 0.312738 1.09422e-19)
(0.729553 0.43042 -2.61443e-19)
(0.977008 -0.0344018 1.14203e-21)
(1.04219 0.037175 -1.45107e-21)
(1.01999 0.1876 -6.9948e-21)
(0.999503 0.263035 -1.84927e-20)
(0.96697 0.262282 2.89232e-20)
(0.930007 0.255065 2.44474e-20)
(0.914148 0.243683 -2.39141e-20)
(0.880066 0.272601 8.67352e-20)
(0.8528 0.338821 -9.88989e-20)
(0.788313 0.490173 -2.75761e-19)
(0.975682 -0.0378618 6.72839e-22)
(1.0445 0.0355779 -1.36189e-20)
(1.02114 0.193848 1.88219e-21)
(0.999246 0.272618 3.11827e-20)
(0.965361 0.271 1.09762e-20)
(0.929722 0.262547 5.42814e-20)
(0.91646 0.249512 2.88495e-20)
(0.892212 0.284695 7.06185e-20)
(0.870537 0.361146 -3.91062e-21)
(0.856678 0.543275 2.12964e-19)
(0.973877 -0.0414526 5.32313e-22)
(1.04784 0.0343291 2.57645e-22)
(1.0229 0.201006 1.05407e-21)
(0.998824 0.282831 8.86505e-21)
(0.964808 0.279292 -3.73429e-20)
(0.931175 0.269192 7.85104e-21)
(0.919623 0.253857 -5.11244e-21)
(0.903758 0.296502 -2.09171e-19)
(0.889271 0.378538 0)
(0.934809 0.593698 -2.61849e-20)
(0.971546 -0.0451975 -5.78865e-22)
(1.05198 0.0332913 2.80188e-21)
(1.02476 0.209202 7.94624e-22)
(0.998985 0.293384 -4.37714e-20)
(0.967001 0.286741 -1.36195e-20)
(0.934941 0.275081 -6.81184e-20)
(0.924611 0.25721 4.63867e-21)
(0.915125 0.308176 5.82716e-21)
(0.911422 0.391779 -2.46369e-21)
(1.01141 0.632515 7.91575e-19)
(0.968686 -0.0489725 -9.94561e-21)
(1.05593 0.0322891 1.03934e-21)
(1.02652 0.218293 -2.13183e-21)
(1.00108 0.303587 2.13874e-20)
(0.973026 0.293079 -5.90312e-20)
(0.94126 0.280284 1.59549e-20)
(0.933023 0.259785 -3.25381e-21)
(0.927979 0.319624 2.33575e-20)
(0.937426 0.400029 1.3331e-19)
(1.10551 0.677916 -5.12747e-20)
(0.965392 -0.052652 2.94513e-21)
(1.05821 0.0314889 -6.71147e-22)
(1.02901 0.227776 1.00431e-21)
(1.00651 0.312744 4.02743e-20)
(0.983601 0.298079 6.03019e-21)
(0.950973 0.284707 2.64624e-20)
(0.947842 0.261533 -4.87485e-20)
(0.944568 0.330009 6.27636e-20)
(0.974956 0.397962 2.60532e-19)
(1.17693 0.695696 -6.37244e-19)
(0.962154 -0.0560074 6.85175e-21)
(1.05713 0.0315282 6.08168e-21)
(1.03331 0.23825 6.49494e-22)
(1.01658 0.320819 -1.1279e-20)
(1.00049 0.301137 6.6576e-20)
(0.968522 0.288166 -3.62924e-20)
(0.974827 0.263526 -1.60952e-20)
(0.971672 0.341252 3.90472e-20)
(1.02491 0.414796 -1.20854e-19)
(1.30015 0.751882 3.63287e-19)
(0.959128 -0.0589619 -1.88819e-21)
(1.0485 0.0262839 -4.24459e-21)
(1.04319 0.243258 -6.99244e-21)
(1.03881 0.328491 -3.25125e-20)
(1.03928 0.305252 -3.89305e-20)
(1.01887 0.294616 -4.66083e-20)
(1.04148 0.258581 1.52135e-20)
(1.04027 0.347993 -1.33442e-19)
(1.07804 0.355599 -4.59462e-19)
(1.29585 0.736506 -9.63206e-20)
(0.955639 -0.0611522 -1.5316e-20)
(1.02862 0.0139498 -7.11305e-21)
(1.05872 0.232551 2.23319e-21)
(1.08637 0.329129 -3.59181e-22)
(1.144 0.299305 2.11955e-20)
(1.12656 0.296842 6.2208e-20)
(1.22637 0.243459 1.55902e-20)
(1.16648 0.349681 1.0611e-19)
(1.28674 0.319197 1.94537e-19)
(1.33487 0.617437 2.92882e-19)
(0.951404 -0.0600222 -2.21321e-21)
(1.00804 0.000468551 -2.82409e-21)
(1.07837 0.207263 3.41923e-21)
(1.14526 0.309486 7.02281e-21)
(1.29213 0.282242 3.93114e-35)
(1.22676 0.279628 -7.77547e-21)
(1.48267 0.228726 -4.35555e-34)
(1.26646 0.340949 1.71747e-20)
(1.59713 0.291463 -4.41858e-20)
(1.45902 0.526604 -2.30392e-19)
(0.948932 -0.0535944 2.29109e-20)
(0.987909 -0.0176888 -2.57836e-35)
(1.09196 0.165065 -3.39612e-21)
(1.19728 0.263243 5.4179e-21)
(1.42587 0.258223 -9.08023e-21)
(1.30685 0.240918 -2.09915e-21)
(1.69625 0.212393 -5.356e-34)
(1.37436 0.322584 -5.44247e-20)
(1.82925 0.252409 -1.14408e-19)
(1.64227 0.463222 2.52328e-19)
(0.950693 -0.0436107 0)
(0.978063 -0.0363272 -6.24715e-35)
(1.09125 0.110044 0)
(1.23676 0.196622 0)
(1.49307 0.229058 0)
(1.39569 0.192318 0)
(1.77842 0.187978 -3.57226e-34)
(1.51724 0.297791 0)
(1.91592 0.205666 -1.69124e-20)
(1.81213 0.406692 1.47964e-19)
(0.954827 -0.0346771 3.12293e-21)
(0.985024 -0.0521887 -4.23473e-21)
(1.08565 0.0490383 -4.1415e-21)
(1.25301 0.120802 0)
(1.4981 0.191797 0)
(1.4743 0.142073 7.09549e-21)
(1.7665 0.158576 3.37711e-20)
(1.65127 0.269514 -1.27995e-20)
(1.91617 0.162475 -2.58992e-20)
(1.94025 0.33835 9.86203e-20)
(0.958392 -0.0304463 -5.26753e-20)
(1.01243 -0.0688834 3.73631e-21)
(1.08 -0.0114929 -5.28214e-21)
(1.23817 0.0497317 -2.64026e-20)
(1.44347 0.140197 -1.45511e-20)
(1.50501 0.0950489 4.18872e-22)
(1.68463 0.124349 -3.20657e-20)
(1.71992 0.232197 -1.03526e-20)
(1.87521 0.123924 -4.15296e-20)
(2.01198 0.263324 1.23096e-19)
(0.958831 -0.03139 -5.48249e-21)
(1.05007 -0.0786355 -1.21293e-20)
(1.05499 -0.0545625 -6.40497e-21)
(1.17693 6.94311e-05 -5.45408e-21)
(1.29737 0.0836636 1.08037e-35)
(1.45712 0.0522235 8.0386e-21)
(1.47993 0.0885125 -8.17051e-34)
(1.69033 0.18091 -1.19007e-20)
(1.76032 0.0814631 1.80383e-20)
(1.98364 0.187815 2.26827e-20)
(0.950418 -0.0481498 1.34838e-19)
(1.05709 -0.0825207 -6.24395e-21)
(0.948978 -0.0751428 -7.65204e-21)
(0.985416 -0.0252274 1.16681e-20)
(1.01962 0.0282074 6.2519e-21)
(1.19218 0.0191862 1.29658e-20)
(1.10057 0.0542359 1.14248e-20)
(1.471 0.0927821 -2.67992e-20)
(1.43978 0.0409293 -2.52403e-20)
(1.72959 0.104791 7.4607e-20)
(0.873053 -0.0338029 6.71662e-21)
(0.851871 -0.0603748 -5.67336e-35)
(0.554382 -0.0452744 -8.0213e-21)
(0.492547 -0.0107088 0)
(0.487139 0.00539791 0)
(0.565201 0.00856607 8.32141e-21)
(0.541587 0.0172148 -7.78512e-36)
(0.799103 0.0241899 -1.14468e-20)
(0.775463 0.0154884 -2.7473e-20)
(1.01137 0.0383701 -3.67492e-20)
(1.539 0.752133 1.51449e-19)
(1.6536 0.738916 -6.1502e-20)
(1.77927 0.718451 -3.30727e-21)
(1.89716 0.690859 5.88227e-20)
(2.00179 0.655566 -2.4424e-19)
(2.09511 0.613801 -4.49194e-19)
(2.17744 0.566657 -2.07803e-19)