/*--------------------------------*- C++ -*----------------------------------*\
| =========                 |                                                 |
| \\      /  F ield         | OpenFOAM: The Open Source CFD Toolbox           |
|  \\    /   O peration     | Version:  2406                                  |
|   \\  /    A nd           | Website:  www.openfoam.com                      |
|    \\/     M anipulation  |                                                 |
\*---------------------------------------------------------------------------*/
FoamFile
{
    version     2.0;
    format      ascii;
    arch        "LSB;label=32;scalar=64";
    class       volVectorField;
    location    "0.2";
    object      flux;
}
// * * * * * * * * * * * * * * * * * * * * * * * * * * * * * * * * * * * * * //

dimensions      [0 1 -1 1 0 0 0];

internalField   nonuniform List<vector> 
2500
(
(0.00162208 0.00162208 0)
(0.00485161 0.00166423 0)
(0.00804197 0.00174828 0)
(0.0111671 0.00187321 0)
(0.0141942 0.0020377 0)
(0.0170887 0.00223993 0)
(0.0198125 0.00247756 0)
(0.0223238 0.00274772 0)
(0.024578 0.00304702 0)
(0.0265283 0.00337149 0)
(0.0281276 0.00371666 0)
(0.0293301 0.00407753 0)
(0.0300933 0.00444869 0)
(0.0303805 0.00482431 0)
(0.0301624 0.00519831 0)
(0.0294197 0.00556445 0)
(0.0281444 0.00591641 0)
(0.0263412 0.00624799 0)
(0.0240285 0.0065532 0)
(0.0212387 0.00682643 0)
(0.0180177 0.00706259 0)
(0.0144241 0.0072572 0)
(0.010528 0.00740656 0)
(0.00640871 0.00750778 0)
(0.00215255 0.0075589 0)
(-0.00214974 0.00755894 0)
(-0.006406 0.00750789 0)
(-0.0105255 0.00740674 0)
(-0.0144219 0.00725745 0)
(-0.0180158 0.00706289 0)
(-0.0212373 0.00682679 0)
(-0.0240275 0.0065536 0)
(-0.0263406 0.00624843 0)
(-0.0281443 0.00591689 0)
(-0.0294201 0.00556495 0)
(-0.0301633 0.00519882 0)
(-0.0303817 0.00482482 0)
(-0.0300949 0.0044492 0)
(-0.0293319 0.00407804 0)
(-0.0281296 0.00371715 0)
(-0.0265304 0.00337196 0)
(-0.0245802 0.00304747 0)
(-0.0223261 0.00274816 0)
(-0.0198147 0.00247799 0)
(-0.017091 0.00224037 0)
(-0.0141966 0.00203819 0)
(-0.0111698 0.00187381 0)
(-0.00804507 0.00174904 0)
(-0.00485333 0.00166513 0)
(-0.00162218 0.00162255 0)
(0.00166423 0.00485161 0)
(0.00497781 0.00497781 0)
(0.00825095 0.00522898 0)
(0.0114565 0.00560239 0)
(0.0145609 0.00609405 0)
(0.0175285 0.00669849 0)
(0.0203203 0.00740873 0)
(0.0228933 0.0082162 0)
(0.0252017 0.0091107 0)
(0.0271979 0.0100804 0)
(0.0288336 0.0111119 0)
(0.0300621 0.0121903 0)
(0.0308401 0.0132993 0)
(0.0311301 0.0144217 0)
(0.0309026 0.0155391 0)
(0.0301378 0.016633 0)
(0.0288279 0.0176845 0)
(0.026978 0.018675 0)
(0.024607 0.0195867 0)
(0.0217481 0.0204029 0)
(0.0184485 0.0211083 0)
(0.0147681 0.0216896 0)
(0.0107786 0.0221357 0)
(0.00656105 0.022438 0)
(0.00220371 0.0225907 0)
(-0.00220076 0.0225908 0)
(-0.0065582 0.0224384 0)
(-0.010776 0.0221363 0)
(-0.0147658 0.0216904 0)
(-0.0184465 0.0211093 0)
(-0.0217465 0.020404 0)
(-0.0246059 0.019588 0)
(-0.0269774 0.0186765 0)
(-0.0288278 0.0176861 0)
(-0.0301382 0.0166347 0)
(-0.0309034 0.0155409 0)
(-0.0311314 0.0144235 0)
(-0.0308417 0.0133011 0)
(-0.0300639 0.0121921 0)
(-0.0288357 0.0111137 0)
(-0.0272001 0.0100822 0)
(-0.025204 0.0091124 0)
(-0.0228955 0.00821785 0)
(-0.0203225 0.00741034 0)
(-0.0175308 0.00670009 0)
(-0.0145632 0.00609572 0)
(-0.011459 0.00560429 0)
(-0.00825374 0.00523132 0)
(-0.00497982 0.00498073 0)
(-0.00166476 0.00485423 0)
(0.00174828 0.00804197 0)
(0.00522898 0.00825095 0)
(0.00866655 0.00866655 0)
(0.0120321 0.00928447 0)
(0.0152903 0.0100981 0)
(0.0184034 0.0110982 0)
(0.0213302 0.0122734 0)
(0.0240258 0.0136093 0)
(0.0264422 0.015089 0)
(0.0285295 0.016693 0)
(0.0302375 0.018399 0)
(0.0315175 0.0201824 0)
(0.0323247 0.0220162 0)
(0.0326203 0.0238718 0)
(0.0323738 0.0257191 0)
(0.0315651 0.0275273 0)
(0.0301864 0.0292651 0)
(0.0282434 0.0309021 0)
(0.0257564 0.0324087 0)
(0.0227603 0.0337573 0)
(0.0193044 0.0349227 0)
(0.0154515 0.0358831 0)
(0.0112765 0.03662 0)
(0.00686373 0.0371195 0)
(0.00230536 0.0373717 0)
(-0.00230211 0.0373719 0)
(-0.00686058 0.03712 0)
(-0.0112735 0.0366209 0)
(-0.0154489 0.0358843 0)
(-0.0193021 0.0349243 0)
(-0.0227585 0.0337591 0)
(-0.0257551 0.0324108 0)
(-0.0282426 0.0309045 0)
(-0.0301861 0.0292677 0)
(-0.0315653 0.02753 0)
(-0.0323745 0.025722 0)
(-0.0326215 0.0238748 0)
(-0.0323262 0.0220192 0)
(-0.0315193 0.0201854 0)
(-0.0302395 0.0184021 0)
(-0.0285317 0.016696 0)
(-0.0264445 0.0150919 0)
(-0.0240281 0.0136121 0)
(-0.0213325 0.0122761 0)
(-0.0184056 0.0111009 0)
(-0.0152924 0.0101007 0)
(-0.0120342 0.00928734 0)
(-0.00866863 0.00866987 0)
(-0.00523042 0.00825494 0)
(-0.00174868 0.00804622 0)
(0.00187321 0.0111671 0)
(0.00560239 0.0114565 0)
(0.00928447 0.0120321 0)
(0.012888 0.012888 0)
(0.0163746 0.0140148 0)
(0.0197039 0.0153999 0)
(0.0228313 0.017027 0)
(0.0257089 0.0188766 0)
(0.0282855 0.0209249 0)
(0.0305079 0.0231449 0)
(0.032323 0.0255057 0)
(0.0336793 0.0279731 0)
(0.0345295 0.0305098 0)
(0.034833 0.0330762 0)
(0.034558 0.0356307 0)
(0.0336838 0.0381306 0)
(0.0322027 0.0405329 0)
(0.0301215 0.0427954 0)
(0.0274621 0.0448774 0)
(0.0242621 0.0467409 0)
(0.0205743 0.0483511 0)
(0.0164654 0.0496778 0)
(0.012015 0.0506958 0)
(0.00731271 0.0513856 0)
(0.00245613 0.051734 0)
(-0.00245247 0.0517342 0)
(-0.00730916 0.0513863 0)
(-0.0120116 0.0506969 0)
(-0.0164624 0.0496793 0)
(-0.0205717 0.048353 0)
(-0.02426 0.0467431 0)
(-0.0274605 0.0448801 0)
(-0.0301205 0.0427984 0)
(-0.0322023 0.0405361 0)
(-0.0336839 0.038134 0)
(-0.0345586 0.0356343 0)
(-0.0348341 0.0330799 0)
(-0.0345311 0.0305135 0)
(-0.0336811 0.0279768 0)
(-0.0323251 0.0255094 0)
(-0.0305102 0.0231485 0)
(-0.0282879 0.0209284 0)
(-0.0257114 0.0188799 0)
(-0.0228337 0.0170303 0)
(-0.0197061 0.015403 0)
(-0.0163767 0.0140179 0)
(-0.0128898 0.0128912 0)
(-0.00928615 0.0120356 0)
(-0.00560346 0.0114603 0)
(-0.00187348 0.0111711 0)
(0.0020377 0.0141942 0)
(0.00609405 0.0145609 0)
(0.0100981 0.0152903 0)
(0.0140148 0.0163746 0)
(0.0178021 0.0178021 0)
(0.0214156 0.0195566 0)
(0.0248069 0.0216174 0)
(0.0279237 0.0239594 0)
(0.0307105 0.0265527 0)
(0.0331102 0.0293627 0)
(0.0350656 0.0323502 0)
(0.0365216 0.0354718 0)
(0.0374279 0.0386805 0)
(0.0377412 0.041926 0)
(0.0374281 0.0451556 0)
(0.0364673 0.0483155 0)
(0.0348512 0.0513515 0)
(0.0325879 0.0542101 0)
(0.0297018 0.0568403 0)
(0.0262339 0.0591938 0)
(0.0222413 0.0612273 0)
(0.0177963 0.0629025 0)
(0.0129843 0.0641879 0)
(0.00790196 0.0650588 0)
(0.00265398 0.0654986 0)
(-0.00264983 0.0654988 0)
(-0.00789793 0.0650595 0)
(-0.0129805 0.0641891 0)
(-0.0177928 0.0629043 0)
(-0.0222383 0.0612295 0)
(-0.0262314 0.0591964 0)
(-0.0296999 0.0568432 0)
(-0.0325866 0.0542134 0)
(-0.0348505 0.051355 0)
(-0.0364672 0.0483193 0)
(-0.0374286 0.0451596 0)
(-0.0377422 0.0419301 0)
(-0.0374293 0.0386846 0)
(-0.0365235 0.0354759 0)
(-0.0350678 0.0323542 0)
(-0.0331127 0.0293666 0)
(-0.0307131 0.0265566 0)
(-0.0279262 0.0239632 0)
(-0.0248094 0.021621 0)
(-0.021418 0.0195601 0)
(-0.0178042 0.0178056 0)
(-0.0140166 0.0163781 0)
(-0.0100996 0.0152938 0)
(-0.00609495 0.0145645 0)
(-0.00203789 0.0141979 0)
(0.00223993 0.0170887 0)
(0.00669849 0.0175285 0)
(0.0110982 0.0184034 0)
(0.0153999 0.0197039 0)
(0.0195566 0.0214156 0)
(0.0235192 0.0235192 0)
(0.0272342 0.0259895 0)
(0.0306442 0.0287964 0)
(0.0336887 0.0319036 0)
(0.0363054 0.0352695 0)
(0.0384322 0.0388472 0)
(0.0400097 0.0425846 0)
(0.0409837 0.046425 0)
(0.0413081 0.0503084 0)
(0.0409476 0.0541718 0)
(0.0398797 0.0579507 0)
(0.0380973 0.0615804 0)
(0.0356103 0.0649973 0)
(0.0324458 0.0681403 0)
(0.0286492 0.0709524 0)
(0.024283 0.0733815 0)
(0.019426 0.0753823 0)
(0.0141712 0.0769173 0)
(0.00862341 0.0779573 0)
(0.00289618 0.0784824 0)
(-0.00289152 0.0784827 0)
(-0.00861888 0.0779581 0)
(-0.0141669 0.0769186 0)
(-0.0194221 0.0753841 0)
(-0.0242795 0.0733837 0)
(-0.0286463 0.070955 0)
(-0.0324435 0.0681434 0)
(-0.0356086 0.0650007 0)
(-0.0380963 0.0615841 0)
(-0.0398793 0.0579546 0)
(-0.0409479 0.0541759 0)
(-0.0413091 0.0503127 0)
(-0.0409852 0.0464294 0)
(-0.0400116 0.0425889 0)
(-0.0384344 0.0388515 0)
(-0.0363079 0.0352738 0)
(-0.0336914 0.0319077 0)
(-0.0306469 0.0288003 0)
(-0.0272368 0.0259933 0)
(-0.0235216 0.0235228 0)
(-0.0195587 0.0214192 0)
(-0.0154016 0.0197074 0)
(-0.0110997 0.0184069 0)
(-0.00669934 0.017532 0)
(-0.00224008 0.0170922 0)
(0.00247756 0.0198125 0)
(0.00740873 0.0203203 0)
(0.0122734 0.0213302 0)
(0.017027 0.0228313 0)
(0.0216174 0.0248069 0)
(0.0259895 0.0272342 0)
(0.0300841 0.0300841 0)
(0.0338377 0.0333214 0)
(0.0371837 0.0369041 0)
(0.0400539 0.0407841 0)
(0.0423807 0.0449068 0)
(0.0440994 0.0492122 0)
(0.0451517 0.0536348 0)
(0.0454879 0.0581055 0)
(0.0450704 0.0625516 0)
(0.0438759 0.0668992 0)
(0.0418979 0.0710739 0)
(0.0391479 0.0750027 0)
(0.0356569 0.0786157 0)
(0.031475 0.0818474 0)
(0.0266713 0.0846384 0)
(0.0213321 0.0869371 0)
(0.0155592 0.0887002 0)
(0.00946705 0.0898946 0)
(0.00317937 0.0904977 0)
(-0.00317418 0.0904979 0)
(-0.00946199 0.0898954 0)
(-0.0155544 0.0887015 0)
(-0.0213277 0.0869388 0)
(-0.0266674 0.0846407 0)
(-0.0314717 0.0818501 0)
(-0.0356542 0.0786188 0)
(-0.0391459 0.0750061 0)
(-0.0418966 0.0710776 0)
(-0.0438754 0.0669032 0)
(-0.0450706 0.0625558 0)
(-0.0454887 0.0581098 0)
(-0.0451531 0.0536392 0)
(-0.0441013 0.0492166 0)
(-0.042383 0.0449112 0)
(-0.0400565 0.0407884 0)
(-0.0371865 0.0369083 0)
(-0.0338406 0.0333254 0)
(-0.0300869 0.030088 0)
(-0.0259921 0.0272379 0)
(-0.0216197 0.0248105 0)
(-0.0170289 0.0228349 0)
(-0.0122749 0.0213337 0)
(-0.00740959 0.0203237 0)
(-0.0024777 0.0198159 0)
(0.00274772 0.0223238 0)
(0.0082162 0.0228933 0)
(0.0136093 0.0240258 0)
(0.0188766 0.0257089 0)
(0.0239594 0.0279237 0)
(0.0287964 0.0306442 0)
(0.0333214 0.0338377 0)
(0.0374642 0.0374642 0)
(0.0411514 0.0414765 0)
(0.0443081 0.0458203 0)
(0.0468602 0.0504342 0)
(0.0487377 0.0552507 0)
(0.049877 0.0601967 0)
(0.0502249 0.0651945 0)
(0.0497413 0.0701631 0)
(0.0484019 0.0750199 0)
(0.0462009 0.0796819 0)
(0.0431521 0.084068 0)
(0.0392905 0.0881003 0)
(0.0346719 0.0917061 0)
(0.0293727 0.0948195 0)
(0.0234878 0.0973831 0)
(0.0171288 0.0993492 0)
(0.0104209 0.100681 0)
(0.00349951 0.101353 0)
(-0.0034938 0.101354 0)
(-0.0104153 0.100682 0)
(-0.0171235 0.0993504 0)
(-0.0234829 0.0973848 0)
(-0.0293683 0.0948217 0)
(-0.0346682 0.0917086 0)
(-0.0392874 0.0881032 0)
(-0.0431498 0.0840713 0)
(-0.0461993 0.0796855 0)
(-0.0484012 0.0750237 0)
(-0.0497413 0.0701672 0)
(-0.0502256 0.0651987 0)
(-0.0498783 0.060201 0)
(-0.0487396 0.055255 0)
(-0.0468626 0.0504385 0)
(-0.0443108 0.0458245 0)
(-0.0411543 0.0414806 0)
(-0.0374672 0.0374682 0)
(-0.0333243 0.0338415 0)
(-0.0287991 0.0306479 0)
(-0.0239618 0.0279273 0)
(-0.0188785 0.0257124 0)
(-0.0136109 0.0240292 0)
(-0.00821709 0.0228966 0)
(-0.00274786 0.0223272 0)
(0.00304702 0.024578 0)
(0.0091107 0.0252017 0)
(0.015089 0.0264422 0)
(0.0209249 0.0282855 0)
(0.0265527 0.0307105 0)
(0.0319036 0.0336887 0)
(0.0369041 0.0371837 0)
(0.0414765 0.0411514 0)
(0.0455398 0.0455398 0)
(0.0490116 0.0502889 0)
(0.0518111 0.0553315 0)
(0.0538619 0.0605936 0)
(0.0550954 0.0659948 0)
(0.0554543 0.0714505 0)
(0.0548958 0.0768721 0)
(0.0533947 0.0821696 0)
(0.050946 0.0872529 0)
(0.0475663 0.0920336 0)
(0.043295 0.0964273 0)
(0.0381942 0.100355 0)
(0.0323483 0.103746 0)
(0.0258618 0.106537 0)
(0.0188571 0.108677 0)
(0.0114711 0.110127 0)
(0.00385194 0.110858 0)
(-0.00384577 0.110859 0)
(-0.0114651 0.110127 0)
(-0.0188513 0.108678 0)
(-0.0258565 0.106538 0)
(-0.0323436 0.103748 0)
(-0.0381901 0.100357 0)
(-0.0432915 0.0964299 0)
(-0.0475636 0.0920366 0)
(-0.0509442 0.0872562 0)
(-0.0533937 0.0821731 0)
(-0.0548956 0.0768758 0)
(-0.0554549 0.0714543 0)
(-0.0550968 0.0659988 0)
(-0.0538639 0.0605975 0)
(-0.0518135 0.0553355 0)
(-0.0490144 0.0502929 0)
(-0.0455428 0.0455437 0)
(-0.0414796 0.0411552 0)
(-0.0369072 0.0371874 0)
(-0.0319064 0.0336923 0)
(-0.0265552 0.030714 0)
(-0.020927 0.0282889 0)
(-0.0150907 0.0264455 0)
(-0.00911162 0.025205 0)
(-0.00304717 0.0245812 0)
(0.00337149 0.0265283 0)
(0.0100804 0.0271979 0)
(0.016693 0.0285295 0)
(0.0231449 0.0305079 0)
(0.0293627 0.0331102 0)
(0.0352695 0.0363054 0)
(0.0407841 0.0400539 0)
(0.0458203 0.0443081 0)
(0.0502889 0.0490116 0)
(0.0540999 0.0540999 0)
(0.0571649 0.0595004 0)
(0.0594009 0.0651335 0)
(0.0607339 0.0709133 0)
(0.0611022 0.0767487 0)
(0.0604605 0.0825453 0)
(0.0587827 0.0882069 0)
(0.0560648 0.0936373 0)
(0.0523265 0.0987426 0)
(0.047612 0.103433 0)
(0.0419904 0.107625 0)
(0.0355545 0.111242 0)
(0.0284193 0.114219 0)
(0.0207186 0.116502 0)
(0.0126021 0.118048 0)
(0.00423145 0.118828 0)
(-0.00422486 0.118828 0)
(-0.0125957 0.118048 0)
(-0.0207124 0.116503 0)
(-0.0284136 0.114221 0)
(-0.0355494 0.111244 0)
(-0.0419859 0.107627 0)
(-0.0476082 0.103435 0)
(-0.0523235 0.0987451 0)
(-0.0560628 0.0936401 0)
(-0.0587815 0.0882099 0)
(-0.0604601 0.0825485 0)
(-0.0611027 0.0767521 0)
(-0.0607351 0.0709168 0)
(-0.0594028 0.0651371 0)
(-0.0571673 0.059504 0)
(-0.0541027 0.0541034 0)
(-0.050292 0.0490151 0)
(-0.0458235 0.0443116 0)
(-0.0407872 0.0400573 0)
(-0.0352724 0.0363087 0)
(-0.0293652 0.0331135 0)
(-0.023147 0.0305111 0)
(-0.0166947 0.0285327 0)
(-0.0100814 0.0272011 0)
(-0.00337165 0.0265314 0)
(0.00371666 0.0281276 0)
(0.0111119 0.0288336 0)
(0.018399 0.0302375 0)
(0.0255057 0.032323 0)
(0.0323502 0.0350656 0)
(0.0388472 0.0384322 0)
(0.0449068 0.0423807 0)
(0.0504342 0.0468602 0)
(0.0553315 0.0518111 0)
(0.0595004 0.0571649 0)
(0.0628448 0.0628448 0)
(0.0652748 0.0687667 0)
(0.0667106 0.0748401 0)
(0.0670863 0.0809692 0)
(0.0663539 0.0870548 0)
(0.0644867 0.0929961 0)
(0.0614817 0.0986924 0)
(0.0573619 0.104046 0)
(0.052177 0.108962 0)
(0.0460034 0.113354 0)
(0.0389431 0.117143 0)
(0.0311216 0.120261 0)
(0.0226852 0.122651 0)
(0.0137969 0.12427 0)
(0.00463227 0.125086 0)
(-0.00462536 0.125086 0)
(-0.0137901 0.12427 0)
(-0.0226787 0.122652 0)
(-0.0311156 0.120262 0)
(-0.0389376 0.117145 0)
(-0.0459986 0.113356 0)
(-0.052173 0.108964 0)
(-0.0573587 0.104048 0)
(-0.0614794 0.0986946 0)
(-0.0644853 0.0929985 0)
(-0.0663534 0.0870574 0)
(-0.0670866 0.080972 0)
(-0.0667117 0.074843 0)
(-0.0652766 0.0687697 0)
(-0.0628472 0.0628478 0)
(-0.0595032 0.0571679 0)
(-0.0553347 0.0518142 0)
(-0.0504374 0.0468633 0)
(-0.04491 0.0423837 0)
(-0.0388502 0.0384352 0)
(-0.0323527 0.0350686 0)
(-0.0255078 0.032326 0)
(-0.0184008 0.0302404 0)
(-0.0111129 0.0288366 0)
(-0.00371682 0.0281305 0)
(0.00407753 0.0293301 0)
(0.0121903 0.0300621 0)
(0.0201824 0.0315175 0)
(0.0279731 0.0336793 0)
(0.0354718 0.0365216 0)
(0.0425846 0.0400097 0)
(0.0492122 0.0440994 0)
(0.0552507 0.0487377 0)
(0.0605936 0.0538619 0)
(0.0651335 0.0594009 0)
(0.0687667 0.0652748 0)
(0.0713962 0.0713962 0)
(0.0729363 0.0776713 0)
(0.0733169 0.084001 0)
(0.0724874 0.0902829 0)
(0.0704203 0.096413 0)
(0.0671144 0.102288 0)
(0.0625959 0.107807 0)
(0.0569204 0.112873 0)
(0.0501719 0.117398 0)
(0.0424619 0.1213 0)
(0.0339272 0.124511 0)
(0.0247266 0.126971 0)
(0.0150369 0.128636 0)
(0.00504822 0.129477 0)
(-0.00504109 0.129477 0)
(-0.0150299 0.128637 0)
(-0.0247199 0.126971 0)
(-0.033921 0.124511 0)
(-0.0424562 0.121301 0)
(-0.0501669 0.117399 0)
(-0.0569162 0.112874 0)
(-0.0625925 0.107808 0)
(-0.0671119 0.102289 0)
(-0.0704187 0.0964147 0)
(-0.0724867 0.0902847 0)
(-0.0733171 0.084003 0)
(-0.0729373 0.0776734 0)
(-0.071398 0.0713985 0)
(-0.0687691 0.0652772 0)
(-0.0651363 0.0594034 0)
(-0.0605966 0.0538644 0)
(-0.055254 0.0487402 0)
(-0.0492154 0.044102 0)
(-0.0425875 0.0400122 0)
(-0.0354744 0.0365242 0)
(-0.0279752 0.0336819 0)
(-0.0201841 0.0315202 0)
(-0.0121913 0.0300648 0)
(-0.0040777 0.0293328 0)
(0.00444869 0.0300933 0)
(0.0132993 0.0308401 0)
(0.0220162 0.0323247 0)
(0.0305098 0.0345295 0)
(0.0386805 0.0374279 0)
(0.046425 0.0409837 0)
(0.0536348 0.0451517 0)
(0.0601967 0.049877 0)
(0.0659948 0.0550954 0)
(0.0709133 0.0607339 0)
(0.0748401 0.0667106 0)
(0.0776713 0.0729363 0)
(0.0793153 0.0793153 0)
(0.0796979 0.0857469 0)
(0.078766 0.0921268 0)
(0.0764917 0.0983498 0)
(0.0728753 0.104311 0)
(0.067947 0.109909 0)
(0.0617682 0.115045 0)
(0.0544307 0.119631 0)
(0.046056 0.123586 0)
(0.0367922 0.126838 0)
(0.0268108 0.129329 0)
(0.0163028 0.131016 0)
(0.00547277 0.131867 0)
(-0.00546553 0.131867 0)
(-0.0162957 0.131016 0)
(-0.026804 0.129329 0)
(-0.0367858 0.126838 0)
(-0.0460502 0.123586 0)
(-0.0544256 0.119632 0)
(-0.0617638 0.115046 0)
(-0.0679435 0.109909 0)
(-0.0728726 0.104312 0)
(-0.07649 0.0983507 0)
(-0.0787651 0.0921279 0)
(-0.079698 0.085748 0)
(-0.0793162 0.0793167 0)
(-0.0776729 0.0729378 0)
(-0.0748423 0.0667122 0)
(-0.070916 0.0607356 0)
(-0.0659978 0.0550972 0)
(-0.0601999 0.0498789 0)
(-0.053638 0.0451537 0)
(-0.0464279 0.0409858 0)
(-0.038683 0.03743 0)
(-0.0305119 0.0345318 0)
(-0.0220179 0.032327 0)
(-0.0133003 0.0308425 0)
(-0.00444885 0.0300957 0)
(0.00482431 0.0303805 0)
(0.0144217 0.0311301 0)
(0.0238718 0.0326203 0)
(0.0330762 0.034833 0)
(0.041926 0.0377412 0)
(0.0503084 0.0413081 0)
(0.0581055 0.0454879 0)
(0.0651945 0.0502249 0)
(0.0714505 0.0554543 0)
(0.0767487 0.0611022 0)
(0.0809692 0.0670863 0)
(0.084001 0.0733169 0)
(0.0857469 0.0796979 0)
(0.0861284 0.0861284 0)
(0.0850903 0.0925044 0)
(0.0826046 0.0987206 0)
(0.0786731 0.104673 0)
(0.0733303 0.110259 0)
(0.0666433 0.115384 0)
(0.0587122 0.119958 0)
(0.0496681 0.123901 0)
(0.0396708 0.127142 0)
(0.0289046 0.129625 0)
(0.0175742 0.131305 0)
(0.00589915 0.132153 0)
(-0.00589191 0.132153 0)
(-0.0175671 0.131305 0)
(-0.0288978 0.129625 0)
(-0.0396644 0.127142 0)
(-0.0496623 0.1239 0)
(-0.0587069 0.119958 0)
(-0.0666388 0.115384 0)
(-0.0733266 0.110259 0)
(-0.0786704 0.104673 0)
(-0.0826027 0.0987207 0)
(-0.0850894 0.0925045 0)
(-0.0861283 0.0861287 0)
(-0.0857476 0.0796983 0)
(-0.0840024 0.0733175 0)
(-0.0809713 0.067087 0)
(-0.0767513 0.0611031 0)
(-0.0714533 0.0554553 0)
(-0.0651976 0.0502261 0)
(-0.0581085 0.0454892 0)
(-0.0503112 0.0413096 0)
(-0.0419284 0.0377428 0)
(-0.0330782 0.0348348 0)
(-0.0238734 0.0326222 0)
(-0.0144226 0.0311321 0)
(-0.00482447 0.0303825 0)
(0.00519831 0.0301624 0)
(0.0155391 0.0309026 0)
(0.0257191 0.0323738 0)
(0.0356307 0.034558 0)
(0.0451556 0.0374281 0)
(0.0541718 0.0409476 0)
(0.0625516 0.0450704 0)
(0.0701631 0.0497413 0)
(0.0768721 0.0548958 0)
(0.0825453 0.0604605 0)
(0.0870548 0.0663539 0)
(0.0902829 0.0724874 0)
(0.0921268 0.078766 0)
(0.0925044 0.0850903 0)
(0.0913582 0.0913582 0)
(0.0886601 0.0974663 0)
(0.0844141 0.103312 0)
(0.0786586 0.108797 0)
(0.0714668 0.113827 0)
(0.062947 0.118314 0)
(0.0532399 0.12218 0)
(0.0425166 0.125359 0)
(0.0309742 0.127793 0)
(0.0188308 0.12944 0)
(0.00632046 0.13027 0)
(-0.00631335 0.13027 0)
(-0.0188238 0.129439 0)
(-0.0309675 0.127792 0)
(-0.0425103 0.125358 0)
(-0.0532341 0.12218 0)
(-0.0629418 0.118313 0)
(-0.0714624 0.113826 0)
(-0.0786549 0.108796 0)
(-0.0844113 0.103311 0)
(-0.0886582 0.0974654 0)
(-0.0913571 0.0913574 0)
(-0.0925042 0.0850897 0)
(-0.0921274 0.0787655 0)
(-0.0902842 0.072487 0)
(-0.0870567 0.0663538 0)
(-0.0825477 0.0604605 0)
(-0.0768748 0.054896 0)
(-0.070166 0.0497417 0)
(-0.0625544 0.045071 0)
(-0.0541744 0.0409484 0)
(-0.0451579 0.0374292 0)
(-0.0356325 0.0345592 0)
(-0.0257206 0.0323751 0)
(-0.0155399 0.0309041 0)
(-0.00519846 0.030164 0)
(0.00556445 0.0294197 0)
(0.016633 0.0301378 0)
(0.0275273 0.0315651 0)
(0.0381306 0.0336838 0)
(0.0483155 0.0364673 0)
(0.0579507 0.0398797 0)
(0.0668992 0.0438759 0)
(0.0750199 0.0484019 0)
(0.0821696 0.0533947 0)
(0.0882069 0.0587827 0)
(0.0929961 0.0644867 0)
(0.096413 0.0704203 0)
(0.0983498 0.0764917 0)
(0.0987206 0.0826046 0)
(0.0974663 0.0886601 0)
(0.0945587 0.0945587 0)
(0.090004 0.100202 0)
(0.0838446 0.105494 0)
(0.0761599 0.110345 0)
(0.0670658 0.114672 0)
(0.0567129 0.118399 0)
(0.0452831 0.121462 0)
(0.0329857 0.123807 0)
(0.020052 0.125394 0)
(0.00672983 0.126194 0)
(-0.00672297 0.126194 0)
(-0.0200452 0.125393 0)
(-0.0329792 0.123806 0)
(-0.045277 0.121461 0)
(-0.0567073 0.118398 0)
(-0.0670608 0.114671 0)
(-0.0761555 0.110344 0)
(-0.0838409 0.105492 0)
(-0.0900012 0.1002 0)
(-0.0945567 0.094557 0)
(-0.0974651 0.0886584 0)
(-0.0987203 0.082603 0)
(-0.0983503 0.0764902 0)
(-0.0964141 0.070419 0)
(-0.0929978 0.0644856 0)
(-0.088209 0.0587818 0)
(-0.0821721 0.053394 0)
(-0.0750225 0.0484015 0)
(-0.0669018 0.0438758 0)
(-0.057953 0.0398798 0)
(-0.0483175 0.0364677 0)
(-0.0381322 0.0336844 0)
(-0.0275286 0.0315659 0)
(-0.0166337 0.0301388 0)
(-0.00556457 0.0294208 0)
(0.00591641 0.0281444 0)
(0.0176845 0.0288279 0)
(0.0292651 0.0301864 0)
(0.0405329 0.0322027 0)
(0.0513515 0.0348512 0)
(0.0615804 0.0380973 0)
(0.0710739 0.0418979 0)
(0.0796819 0.0462009 0)
(0.0872529 0.050946 0)
(0.0936373 0.0560648 0)
(0.0986924 0.0614817 0)
(0.102288 0.0671144 0)
(0.104311 0.0728753 0)
(0.104673 0.0786731 0)
(0.103312 0.0844141 0)
(0.100202 0.090004 0)
(0.0953496 0.0953496 0)
(0.0888021 0.100361 0)
(0.0806446 0.104953 0)
(0.0710007 0.109047 0)
(0.0600299 0.112573 0)
(0.0479247 0.11547 0)
(0.034906 0.117687 0)
(0.0212176 0.119187 0)
(0.00712053 0.119944 0)
(-0.00711404 0.119944 0)
(-0.0212113 0.119187 0)
(-0.0348998 0.117686 0)
(-0.0479189 0.115468 0)
(-0.0600245 0.112571 0)
(-0.0709958 0.109045 0)
(-0.0806404 0.104951 0)
(-0.0887986 0.100359 0)
(-0.0953469 0.095347 0)
(-0.1002 0.0900014 0)
(-0.103311 0.0844115 0)
(-0.104672 0.0786706 0)
(-0.104311 0.0728728 0)
(-0.102289 0.0671121 0)
(-0.0986939 0.0614796 0)
(-0.0936392 0.056063 0)
(-0.0872551 0.0509445 0)
(-0.0796843 0.0461996 0)
(-0.0710762 0.0418969 0)
(-0.0615825 0.0380967 0)
(-0.0513532 0.0348509 0)
(-0.0405342 0.0322027 0)
(-0.0292662 0.0301866 0)
(-0.0176851 0.0288284 0)
(-0.0059165 0.0281449 0)
(0.00624799 0.0263412 0)
(0.018675 0.026978 0)
(0.0309021 0.0282434 0)
(0.0427954 0.0301215 0)
(0.0542101 0.0325879 0)
(0.0649973 0.0356103 0)
(0.0750027 0.0391479 0)
(0.084068 0.0431521 0)
(0.0920336 0.0475663 0)
(0.0987426 0.0523265 0)
(0.104046 0.0573619 0)
(0.107807 0.0625959 0)
(0.109909 0.067947 0)
(0.110259 0.0733303 0)
(0.108797 0.0786586 0)
(0.105494 0.0838446 0)
(0.100361 0.0888021 0)
(0.093448 0.093448 0)
(0.084846 0.0977037 0)
(0.0746858 0.101497 0)
(0.0631356 0.104763 0)
(0.0503975 0.107445 0)
(0.0367033 0.109498 0)
(0.0223085 0.110887 0)
(0.00748609 0.111587 0)
(-0.00748008 0.111587 0)
(-0.0223026 0.110886 0)
(-0.0366976 0.109497 0)
(-0.0503921 0.107443 0)
(-0.0631306 0.10476 0)
(-0.0746813 0.101494 0)
(-0.0848421 0.0977007 0)
(-0.0934447 0.0934448 0)
(-0.100358 0.0887987 0)
(-0.105492 0.0838411 0)
(-0.108796 0.078655 0)
(-0.110259 0.0733268 0)
(-0.109909 0.0679437 0)
(-0.107807 0.0625927 0)
(-0.104047 0.0573589 0)
(-0.0987442 0.0523238 0)
(-0.0920355 0.0475639 0)
(-0.08407 0.04315 0)
(-0.0750047 0.0391462 0)
(-0.0649991 0.035609 0)
(-0.0542115 0.032587 0)
(-0.0427965 0.0301209 0)
(-0.0309029 0.0282431 0)
(-0.0186755 0.0269778 0)
(-0.00624804 0.0263411 0)
(0.0065532 0.0240285 0)
(0.0195867 0.024607 0)
(0.0324087 0.0257564 0)
(0.0448774 0.0274621 0)
(0.0568403 0.0297018 0)
(0.0681403 0.0324458 0)
(0.0786157 0.0356569 0)
(0.0881003 0.0392905 0)
(0.0964273 0.043295 0)
(0.103433 0.047612 0)
(0.108962 0.052177 0)
(0.112873 0.0569204 0)
(0.115045 0.0617682 0)
(0.115384 0.0666433 0)
(0.113827 0.0714668 0)
(0.110345 0.0761599 0)
(0.104953 0.0806446 0)
(0.0977037 0.084846 0)
(0.0886934 0.0886934 0)
(0.0780595 0.0921216 0)
(0.0659781 0.0950725 0)
(0.0526603 0.0974957 0)
(0.0383478 0.0993502 0)
(0.0233064 0.100604 0)
(0.00782044 0.101236 0)
(-0.00781501 0.101236 0)
(-0.0233011 0.100603 0)
(-0.0383426 0.0993487 0)
(-0.0526554 0.0974936 0)
(-0.0659735 0.0950698 0)
(-0.0780554 0.0921185 0)
(-0.0886898 0.0886899 0)
(-0.0977006 0.0848422 0)
(-0.104951 0.0806405 0)
(-0.110344 0.0761556 0)
(-0.113825 0.0714625 0)
(-0.115384 0.0666389 0)
(-0.115045 0.0617639 0)
(-0.112874 0.0569163 0)
(-0.108963 0.0521732 0)
(-0.103434 0.0476084 0)
(-0.0964289 0.0432917 0)
(-0.088102 0.0392877 0)
(-0.0786173 0.0356545 0)
(-0.0681417 0.0324438 0)
(-0.0568413 0.0297002 0)
(-0.0448781 0.0274609 0)
(-0.0324092 0.0257555 0)
(-0.019587 0.0246063 0)
(-0.0065532 0.0240279 0)
(0.00682643 0.0212387 0)
(0.0204029 0.0217481 0)
(0.0337573 0.0227603 0)
(0.0467409 0.0242621 0)
(0.0591938 0.0262339 0)
(0.0709524 0.0286492 0)
(0.0818474 0.031475 0)
(0.0917061 0.0346719 0)
(0.100355 0.0381942 0)
(0.107625 0.0419904 0)
(0.113354 0.0460034 0)
(0.117398 0.0501719 0)
(0.119631 0.0544307 0)
(0.119958 0.0587122 0)
(0.118314 0.062947 0)
(0.114672 0.0670658 0)
(0.109047 0.0710007 0)
(0.101497 0.0746858 0)
(0.0921216 0.0780595 0)
(0.0810649 0.0810649 0)
(0.0685097 0.0836512 0)
(0.0546753 0.0857747 0)
(0.0398118 0.0873995 0)
(0.0241948 0.0884981 0)
(0.00811803 0.0890519 0)
(-0.00811327 0.0890516 0)
(-0.0241901 0.088497 0)
(-0.0398073 0.0873978 0)
(-0.054671 0.0857723 0)
(-0.0685057 0.0836482 0)
(-0.0810612 0.0810613 0)
(-0.0921184 0.0780555 0)
(-0.101494 0.0746814 0)
(-0.109045 0.0709959 0)
(-0.11467 0.0670609 0)
(-0.118313 0.0629419 0)
(-0.119957 0.058707 0)
(-0.119631 0.0544257 0)
(-0.117398 0.050167 0)
(-0.113355 0.0459987 0)
(-0.107626 0.041986 0)
(-0.100356 0.0381903 0)
(-0.0917073 0.0346684 0)
(-0.0818485 0.0314719 0)
(-0.0709533 0.0286465 0)
(-0.0591945 0.0262317 0)
(-0.0467412 0.0242603 0)
(-0.0337575 0.0227588 0)
(-0.020403 0.0217469 0)
(-0.00682638 0.0212376 0)
(0.00706259 0.0180177 0)
(0.0211083 0.0184485 0)
(0.0349227 0.0193044 0)
(0.0483511 0.0205743 0)
(0.0612273 0.0222413 0)
(0.0733815 0.024283 0)
(0.0846384 0.0266713 0)
(0.0948195 0.0293727 0)
(0.103746 0.0323483 0)
(0.111242 0.0355545 0)
(0.117143 0.0389431 0)
(0.1213 0.0424619 0)
(0.123586 0.046056 0)
(0.123901 0.0496681 0)
(0.12218 0.0532399 0)
(0.118399 0.0567129 0)
(0.112573 0.0600299 0)
(0.104763 0.0631356 0)
(0.0950725 0.0659781 0)
(0.0836512 0.0685097 0)
(0.0706879 0.0706879 0)
(0.0564087 0.0724761 0)
(0.0410711 0.073844 0)
(0.0249588 0.0747689 0)
(0.00837389 0.075235 0)
(-0.00836988 0.0752346 0)
(-0.0249549 0.0747677 0)
(-0.0410673 0.0738421 0)
(-0.056405 0.0724734 0)
(-0.0706845 0.0706846 0)
(-0.0836481 0.0685058 0)
(-0.0950697 0.0659736 0)
(-0.10476 0.0631306 0)
(-0.112571 0.0600246 0)
(-0.118398 0.0567074 0)
(-0.122179 0.0532342 0)
(-0.1239 0.0496623 0)
(-0.123585 0.0460503 0)
(-0.121301 0.0424563 0)
(-0.117144 0.0389377 0)
(-0.111243 0.0355495 0)
(-0.103746 0.0323437 0)
(-0.0948203 0.0293685 0)
(-0.0846391 0.0266676 0)
(-0.073382 0.0242797 0)
(-0.0612275 0.0222385 0)
(-0.048351 0.0205719 0)
(-0.0349227 0.0193024 0)
(-0.0211082 0.0184468 0)
(-0.00706248 0.0180161 0)
(0.0072572 0.0144241 0)
(0.0216896 0.0147681 0)
(0.0358831 0.0154515 0)
(0.0496778 0.0164654 0)
(0.0629025 0.0177963 0)
(0.0753823 0.019426 0)
(0.0869371 0.0213321 0)
(0.0973831 0.0234878 0)
(0.106537 0.0258618 0)
(0.114219 0.0284193 0)
(0.120261 0.0311216 0)
(0.124511 0.0339272 0)
(0.126838 0.0367922 0)
(0.127142 0.0396708 0)
(0.125359 0.0425166 0)
(0.121462 0.0452831 0)
(0.11547 0.0479247 0)
(0.107445 0.0503975 0)
(0.0974957 0.0526603 0)
(0.0857747 0.0546753 0)
(0.0724761 0.0564087 0)
(0.0578314 0.0578314 0)
(0.0421047 0.0589197 0)
(0.0255858 0.0596554 0)
(0.00858377 0.0600261 0)
(-0.00858058 0.0600257 0)
(-0.0255826 0.0596541 0)
(-0.0421016 0.0589176 0)
(-0.0578285 0.0578285 0)
(-0.0724733 0.0564051 0)
(-0.0857722 0.054671 0)
(-0.0974935 0.0526555 0)
(-0.107443 0.0503922 0)
(-0.115468 0.047919 0)
(-0.121461 0.0452771 0)
(-0.125358 0.0425104 0)
(-0.127141 0.0396645 0)
(-0.126837 0.0367859 0)
(-0.124511 0.0339211 0)
(-0.120262 0.0311157 0)
(-0.11422 0.0284137 0)
(-0.106537 0.0258566 0)
(-0.0973835 0.023483 0)
(-0.0869373 0.0213278 0)
(-0.0753824 0.0194222 0)
(-0.0629023 0.017793 0)
(-0.0496773 0.0164626 0)
(-0.0358827 0.0154491 0)
(-0.0216893 0.014766 0)
(-0.00725703 0.0144221 0)
(0.00740656 0.010528 0)
(0.0221357 0.0107786 0)
(0.03662 0.0112765 0)
(0.0506958 0.012015 0)
(0.0641879 0.0129843 0)
(0.0769173 0.0141712 0)
(0.0887002 0.0155592 0)
(0.0993492 0.0171288 0)
(0.108677 0.0188571 0)
(0.116502 0.0207186 0)
(0.122651 0.0226852 0)
(0.126971 0.0247266 0)
(0.129329 0.0268108 0)
(0.129625 0.0289046 0)
(0.127793 0.0309742 0)
(0.123807 0.0329857 0)
(0.117687 0.034906 0)
(0.109498 0.0367033 0)
(0.0993502 0.0383478 0)
(0.0873995 0.0398118 0)
(0.073844 0.0410711 0)
(0.0589197 0.0421047 0)
(0.0428951 0.0428951 0)
(0.0260652 0.0434294 0)
(0.00874418 0.0436985 0)
(-0.00874186 0.0436981 0)
(-0.0260629 0.0434281 0)
(-0.0428929 0.0428929 0)
(-0.0589176 0.0421016 0)
(-0.073842 0.0410674 0)
(-0.0873977 0.0398073 0)
(-0.0993485 0.0383426 0)
(-0.109497 0.0366977 0)
(-0.117686 0.0348999 0)
(-0.123806 0.0329792 0)
(-0.127792 0.0309675 0)
(-0.129624 0.0288979 0)
(-0.129329 0.0268041 0)
(-0.126971 0.02472 0)
(-0.122651 0.0226788 0)
(-0.116502 0.0207125 0)
(-0.108677 0.0188514 0)
(-0.0993491 0.0171236 0)
(-0.0886999 0.0155545 0)
(-0.0769168 0.014167 0)
(-0.0641871 0.0129806 0)
(-0.0506948 0.0120118 0)
(-0.0366193 0.0112737 0)
(-0.0221352 0.0107761 0)
(-0.00740632 0.0105257 0)
(0.00750778 0.00640871 0)
(0.022438 0.00656105 0)
(0.0371195 0.00686373 0)
(0.0513856 0.00731271 0)
(0.0650588 0.00790196 0)
(0.0779573 0.00862341 0)
(0.0898946 0.00946705 0)
(0.100681 0.0104209 0)
(0.110127 0.0114711 0)
(0.118048 0.0126021 0)
(0.12427 0.0137969 0)
(0.128636 0.0150369 0)
(0.131016 0.0163028 0)
(0.131305 0.0175742 0)
(0.12944 0.0188308 0)
(0.125394 0.020052 0)
(0.119187 0.0212176 0)
(0.110887 0.0223085 0)
(0.100604 0.0233064 0)
(0.0884981 0.0241948 0)
(0.0747689 0.0249588 0)
(0.0596554 0.0255858 0)
(0.0434294 0.0260652 0)
(0.0263892 0.0263892 0)
(0.00885247 0.0265523 0)
(-0.00885105 0.0265518 0)
(-0.0263878 0.0263878 0)
(-0.043428 0.0260629 0)
(-0.0596541 0.0255826 0)
(-0.0747676 0.0249549 0)
(-0.088497 0.0241901 0)
(-0.100603 0.0233011 0)
(-0.110886 0.0223026 0)
(-0.119187 0.0212113 0)
(-0.125393 0.0200453 0)
(-0.129439 0.0188239 0)
(-0.131305 0.0175672 0)
(-0.131015 0.0162957 0)
(-0.128636 0.01503 0)
(-0.124269 0.0137902 0)
(-0.118047 0.0125958 0)
(-0.110126 0.0114651 0)
(-0.10068 0.0104154 0)
(-0.0898938 0.00946206 0)
(-0.0779563 0.00861895 0)
(-0.0650575 0.00789801 0)
(-0.0513842 0.00730925 0)
(-0.0371184 0.00686068 0)
(-0.0224373 0.0065583 0)
(-0.00750747 0.0064061 0)