/*--------------------------------*- C++ -*----------------------------------*\
| =========                 |                                                 |
| \\      /  F ield         | OpenFOAM: The Open Source CFD Toolbox           |
|  \\    /   O peration     | Version:  2406                                  |
|   \\  /    A nd           | Website:  www.openfoam.com                      |
|    \\/     M anipulation  |                                                 |
\*---------------------------------------------------------------------------*/
FoamFile
{
    version     2.0;
    format      ascii;
    arch        "LSB;label=32;scalar=64";
    class       volScalarField;
    location    "0.2";
    object      gradTx;
}
// * * * * * * * * * * * * * * * * * * * * * * * * * * * * * * * * * * * * * //

dimensions      [0 -1 0 1 0 0 0];

internalField   nonuniform List<scalar> 
2500
(
0.0162208
0.0485161
0.0804197
0.111671
0.141942
0.170887
0.198125
0.223238
0.24578
0.265283
0.281276
0.293301
0.300933
0.303805
0.301624
0.294197
0.281444
0.263412
0.240285
0.212387
0.180177
0.144241
0.10528
0.0640871
0.0215255
-0.0214974
-0.06406
-0.105255
-0.144219
-0.180158
-0.212373
-0.240275
-0.263406
-0.281443
-0.294201
-0.301633
-0.303817
-0.300949
-0.293319
-0.281296
-0.265304
-0.245802
-0.223261
-0.198147
-0.17091
-0.141966
-0.111698
-0.0804507
-0.0485333
-0.0162218
0.0166423
0.0497781
0.0825095
0.114565
0.145609
0.175285
0.203203
0.228933
0.252017
0.271979
0.288336
0.300621
0.308401
0.311301
0.309026
0.301378
0.288279
0.26978
0.24607
0.217481
0.184485
0.147681
0.107786
0.0656105
0.0220371
-0.0220076
-0.065582
-0.10776
-0.147658
-0.184465
-0.217465
-0.246059
-0.269774
-0.288278
-0.301382
-0.309034
-0.311314
-0.308417
-0.300639
-0.288357
-0.272001
-0.25204
-0.228955
-0.203225
-0.175308
-0.145632
-0.11459
-0.0825374
-0.0497982
-0.0166476
0.0174828
0.0522898
0.0866655
0.120321
0.152903
0.184034
0.213302
0.240258
0.264422
0.285295
0.302375
0.315175
0.323247
0.326203
0.323738
0.315651
0.301864
0.282434
0.257564
0.227603
0.193044
0.154515
0.112765
0.0686373
0.0230536
-0.0230211
-0.0686058
-0.112735
-0.154489
-0.193021
-0.227585
-0.257551
-0.282426
-0.301861
-0.315653
-0.323745
-0.326215
-0.323262
-0.315193
-0.302395
-0.285317
-0.264445
-0.240281
-0.213325
-0.184056
-0.152924
-0.120342
-0.0866863
-0.0523042
-0.0174868
0.0187321
0.0560239
0.0928447
0.12888
0.163746
0.197039
0.228313
0.257089
0.282855
0.305079
0.32323
0.336793
0.345295
0.34833
0.34558
0.336838
0.322027
0.301215
0.274621
0.242621
0.205743
0.164654
0.12015
0.0731271
0.0245613
-0.0245247
-0.0730916
-0.120116
-0.164624
-0.205717
-0.2426
-0.274605
-0.301205
-0.322023
-0.336839
-0.345586
-0.348341
-0.345311
-0.336811
-0.323251
-0.305102
-0.282879
-0.257114
-0.228337
-0.197061
-0.163767
-0.128898
-0.0928615
-0.0560346
-0.0187348
0.020377
0.0609405
0.100981
0.140148
0.178021
0.214156
0.248069
0.279237
0.307105
0.331102
0.350656
0.365216
0.374279
0.377412
0.374281
0.364673
0.348512
0.325879
0.297018
0.262339
0.222413
0.177963
0.129843
0.0790196
0.0265398
-0.0264983
-0.0789793
-0.129805
-0.177928
-0.222383
-0.262314
-0.296999
-0.325866
-0.348505
-0.364672
-0.374286
-0.377422
-0.374293
-0.365235
-0.350678
-0.331127
-0.307131
-0.279262
-0.248094
-0.21418
-0.178042
-0.140166
-0.100996
-0.0609495
-0.0203789
0.0223993
0.0669849
0.110982
0.153999
0.195566
0.235192
0.272342
0.306442
0.336887
0.363054
0.384322
0.400097
0.409837
0.413081
0.409476
0.398797
0.380973
0.356103
0.324458
0.286492
0.24283
0.19426
0.141712
0.0862341
0.0289618
-0.0289152
-0.0861888
-0.141669
-0.194221
-0.242795
-0.286463
-0.324435
-0.356086
-0.380963
-0.398793
-0.409479
-0.413091
-0.409852
-0.400116
-0.384344
-0.363079
-0.336914
-0.306469
-0.272368
-0.235216
-0.195587
-0.154016
-0.110997
-0.0669934
-0.0224008
0.0247756
0.0740873
0.122734
0.17027
0.216174
0.259895
0.300841
0.338377
0.371837
0.400539
0.423807
0.440994
0.451517
0.454879
0.450704
0.438759
0.418979
0.391479
0.356569
0.31475
0.266713
0.213321
0.155592
0.0946705
0.0317937
-0.0317418
-0.0946199
-0.155544
-0.213277
-0.266674
-0.314717
-0.356542
-0.391459
-0.418966
-0.438754
-0.450706
-0.454887
-0.451531
-0.441013
-0.42383
-0.400565
-0.371865
-0.338406
-0.300869
-0.259921
-0.216197
-0.170289
-0.122749
-0.0740959
-0.024777
0.0274772
0.082162
0.136093
0.188766
0.239594
0.287964
0.333214
0.374642
0.411514
0.443081
0.468602
0.487377
0.49877
0.502249
0.497413
0.484019
0.462009
0.431521
0.392905
0.346719
0.293727
0.234878
0.171288
0.104209
0.0349951
-0.034938
-0.104153
-0.171235
-0.234829
-0.293683
-0.346682
-0.392874
-0.431498
-0.461993
-0.484012
-0.497413
-0.502256
-0.498783
-0.487396
-0.468626
-0.443108
-0.411543
-0.374672
-0.333243
-0.287991
-0.239618
-0.188785
-0.136109
-0.0821709
-0.0274786
0.0304702
0.091107
0.15089
0.209249
0.265527
0.319036
0.369041
0.414765
0.455398
0.490116
0.518111
0.538619
0.550954
0.554543
0.548958
0.533947
0.50946
0.475663
0.43295
0.381942
0.323483
0.258618
0.188571
0.114711
0.0385194
-0.0384577
-0.114651
-0.188513
-0.258565
-0.323436
-0.381901
-0.432915
-0.475636
-0.509442
-0.533937
-0.548956
-0.554549
-0.550968
-0.538639
-0.518135
-0.490144
-0.455428
-0.414796
-0.369072
-0.319064
-0.265552
-0.20927
-0.150907
-0.0911162
-0.0304717
0.0337149
0.100804
0.16693
0.231449
0.293627
0.352695
0.407841
0.458203
0.502889
0.540999
0.571649
0.594009
0.607339
0.611022
0.604605
0.587827
0.560648
0.523265
0.47612
0.419904
0.355545
0.284193
0.207186
0.126021
0.0423145
-0.0422486
-0.125957
-0.207124
-0.284136
-0.355494
-0.419859
-0.476082
-0.523235
-0.560628
-0.587815
-0.604601
-0.611027
-0.607351
-0.594028
-0.571673
-0.541027
-0.50292
-0.458235
-0.407872
-0.352724
-0.293652
-0.23147
-0.166947
-0.100814
-0.0337165
0.0371666
0.111119
0.18399
0.255057
0.323502
0.388472
0.449068
0.504342
0.553315
0.595004
0.628448
0.652748
0.667106
0.670863
0.663539
0.644867
0.614817
0.573619
0.52177
0.460034
0.389431
0.311216
0.226852
0.137969
0.0463227
-0.0462536
-0.137901
-0.226787
-0.311156
-0.389376
-0.459986
-0.52173
-0.573587
-0.614794
-0.644853
-0.663534
-0.670866
-0.667117
-0.652766
-0.628472
-0.595032
-0.553347
-0.504374
-0.4491
-0.388502
-0.323527
-0.255078
-0.184008
-0.111129
-0.0371682
0.0407753
0.121903
0.201824
0.279731
0.354718
0.425846
0.492122
0.552507
0.605936
0.651335
0.687667
0.713962
0.729363
0.733169
0.724874
0.704203
0.671144
0.625959
0.569204
0.501719
0.424619
0.339272
0.247266
0.150369
0.0504822
-0.0504109
-0.150299
-0.247199
-0.33921
-0.424562
-0.501669
-0.569162
-0.625925
-0.671119
-0.704187
-0.724867
-0.733171
-0.729373
-0.71398
-0.687691
-0.651363
-0.605966
-0.55254
-0.492154
-0.425875
-0.354744
-0.279752
-0.201841
-0.121913
-0.040777
0.0444869
0.132993
0.220162
0.305098
0.386805
0.46425
0.536348
0.601967
0.659948
0.709133
0.748401
0.776713
0.793153
0.796979
0.78766
0.764917
0.728753
0.67947
0.617682
0.544307
0.46056
0.367922
0.268108
0.163028
0.0547277
-0.0546553
-0.162957
-0.26804
-0.367858
-0.460502
-0.544256
-0.617638
-0.679435
-0.728726
-0.7649
-0.787651
-0.79698
-0.793162
-0.776729
-0.748423
-0.70916
-0.659978
-0.601999
-0.53638
-0.464279
-0.38683
-0.305119
-0.220179
-0.133003
-0.0444885
0.0482431
0.144217
0.238718
0.330762
0.41926
0.503084
0.581055
0.651945
0.714505
0.767487
0.809692
0.84001
0.857469
0.861284
0.850903
0.826046
0.786731
0.733303
0.666433
0.587122
0.496681
0.396708
0.289046
0.175742
0.0589915
-0.0589191
-0.175671
-0.288978
-0.396644
-0.496623
-0.587069
-0.666388
-0.733266
-0.786704
-0.826027
-0.850894
-0.861283
-0.857476
-0.840024
-0.809713
-0.767513
-0.714533
-0.651976
-0.581085
-0.503112
-0.419284
-0.330782
-0.238734
-0.144226
-0.0482447
0.0519831
0.155391
0.257191
0.356307
0.451556
0.541718
0.625516
0.701631
0.768721
0.825453
0.870548
0.902829
0.921268
0.925044
0.913582
0.886601
0.844141
0.786586
0.714668
0.62947
0.532399
0.425166
0.309742
0.188308
0.0632046
-0.0631335
-0.188238
-0.309675
-0.425103
-0.532341
-0.629418
-0.714624
-0.786549
-0.844113
-0.886582
-0.913571
-0.925042
-0.921274
-0.902842
-0.870567
-0.825477
-0.768748
-0.70166
-0.625544
-0.541744
-0.451579
-0.356325
-0.257206
-0.155399
-0.0519846
0.0556445
0.16633
0.275273
0.381306
0.483155
0.579507
0.668992
0.750199
0.821696
0.882069
0.929961
0.96413
0.983498
0.987206
0.974663
0.945587
0.90004
0.838446
0.761599
0.670658
0.567129
0.452831
0.329857
0.20052
0.0672983
-0.0672297
-0.200452
-0.329792
-0.45277
-0.567073
-0.670608
-0.761555
-0.838409
-0.900012
-0.945567
-0.974651
-0.987203
-0.983503
-0.964141
-0.929978
-0.88209
-0.821721
-0.750225
-0.669018
-0.57953
-0.483175
-0.381322
-0.275286
-0.166337
-0.0556457
0.0591641
0.176845
0.292651
0.405329
0.513515
0.615804
0.710739
0.796819
0.872529
0.936373
0.986924
1.02288
1.04311
1.04673
1.03312
1.00202
0.953496
0.888021
0.806446
0.710007
0.600299
0.479247
0.34906
0.212176
0.0712053
-0.0711404
-0.212113
-0.348998
-0.479189
-0.600245
-0.709958
-0.806404
-0.887986
-0.953469
-1.002
-1.03311
-1.04672
-1.04311
-1.02289
-0.986939
-0.936392
-0.872551
-0.796843
-0.710762
-0.615825
-0.513532
-0.405342
-0.292662
-0.176851
-0.059165
0.0624799
0.18675
0.309021
0.427954
0.542101
0.649973
0.750027
0.84068
0.920336
0.987426
1.04046
1.07807
1.09909
1.10259
1.08797
1.05494
1.00361
0.93448
0.84846
0.746858
0.631356
0.503975
0.367033
0.223085
0.0748609
-0.0748008
-0.223026
-0.366976
-0.503921
-0.631306
-0.746813
-0.848421
-0.934447
-1.00358
-1.05492
-1.08796
-1.10259
-1.09909
-1.07807
-1.04047
-0.987442
-0.920355
-0.8407
-0.750047
-0.649991
-0.542115
-0.427965
-0.309029
-0.186755
-0.0624804
0.065532
0.195867
0.324087
0.448774
0.568403
0.681403
0.786157
0.881003
0.964273
1.03433
1.08962
1.12873
1.15045
1.15384
1.13827
1.10345
1.04953
0.977037
0.886934
0.780595
0.659781
0.526603
0.383478
0.233064
0.0782044
-0.0781501
-0.233011
-0.383426
-0.526554
-0.659735
-0.780554
-0.886898
-0.977006
-1.04951
-1.10344
-1.13825
-1.15384
-1.15045
-1.12874
-1.08963
-1.03434
-0.964289
-0.88102
-0.786173
-0.681417
-0.568413
-0.448781
-0.324092
-0.19587
-0.065532
0.0682643
0.204029
0.337573
0.467409
0.591938
0.709524
0.818474
0.917061
1.00355
1.07625
1.13354
1.17398
1.19631
1.19958
1.18314
1.14672
1.09047
1.01497
0.921216
0.810649
0.685097
0.546753
0.398118
0.241948
0.0811803
-0.0811327
-0.241901
-0.398073
-0.54671
-0.685057
-0.810612
-0.921184
-1.01494
-1.09045
-1.1467
-1.18313
-1.19957
-1.19631
-1.17398
-1.13355
-1.07626
-1.00356
-0.917073
-0.818485
-0.709533
-0.591945
-0.467412
-0.337575
-0.20403
-0.0682638
0.0706259
0.211083
0.349227
0.483511
0.612273
0.733815
0.846384
0.948195
1.03746
1.11242
1.17143
1.213
1.23586
1.23901
1.2218
1.18399
1.12573
1.04763
0.950725
0.836512
0.706879
0.564087
0.410711
0.249588
0.0837389
-0.0836988
-0.249549
-0.410673
-0.56405
-0.706845
-0.836481
-0.950697
-1.0476
-1.12571
-1.18398
-1.22179
-1.239
-1.23585
-1.21301
-1.17144
-1.11243
-1.03746
-0.948203
-0.846391
-0.73382
-0.612275
-0.48351
-0.349227
-0.211082
-0.0706248
0.072572
0.216896
0.358831
0.496778
0.629025
0.753823
0.869371
0.973831
1.06537
1.14219
1.20261
1.24511
1.26838
1.27142
1.25359
1.21462
1.1547
1.07445
0.974957
0.857747
0.724761
0.578314
0.421047
0.255858
0.0858377
-0.0858058
-0.255826
-0.421016
-0.578285
-0.724733
-0.857722
-0.974935
-1.07443
-1.15468
-1.21461
-1.25358
-1.27141
-1.26837
-1.24511
-1.20262
-1.1422
-1.06537
-0.973835
-0.869373
-0.753824
-0.629023
-0.496773
-0.358827
-0.216893
-0.0725703
0.0740656
0.221357
0.3662
0.506958
0.641879
0.769173
0.887002
0.993492
1.08677
1.16502
1.22651
1.26971
1.29329
1.29625
1.27793
1.23807
1.17687
1.09498
0.993502
0.873995
0.73844
0.589197
0.428951
0.260652
0.0874418
-0.0874186
-0.260629
-0.428929
-0.589176
-0.73842
-0.873977
-0.993485
-1.09497
-1.17686
-1.23806
-1.27792
-1.29624
-1.29329
-1.26971
-1.22651
-1.16502
-1.08677
-0.993491
-0.886999
-0.769168
-0.641871
-0.506948
-0.366193
-0.221352
-0.0740632
0.0750778
0.22438
0.371195
0.513856
0.650588
0.779573
0.898946
1.00681
1.10127
1.18048
1.2427
1.28636
1.31016
1.31305
1.2944
1.25394
1.19187
1.10887
1.00604
0.884981
0.747689
0.596554
0.434294
0.263892
0.0885247
-0.0885105
-0.263878
-0.43428
-0.596541
-0.747676
-0.88497
-1.00603
-1.10886
-1.19187
-1.25393
-1.29439
-1.31305
-1.31015
-1.28636
-1.24269
-1.18047
-1.10126
-1.0068
-0.898938
-0.779563
-0.650575
-0.513842
-0.371184
-0.224373
-0.0750747
0.075589
0.225907
0.373717
0.51734
0.654986
0.784824
0.904977
1.01353
1.10858
1.18828
1.25086
1.29477
1.31867
1.32153
1.3027
1.26194
1.19944
1.11587
1.01236
0.890519
0.75235
0.600261
0.436985
0.265523
0.0890683
-0.0890633
-0.265518
-0.43698
-0.600256
-0.752346
-0.890515
-1.01236
-1.11586
-1.19944
-1.26194
-1.3027
-1.32153
-1.31866
-1.29476
-1.25085
-1.18827
-1.10858
-1.01352
-0.904963
-0.784809
-0.654968
-0.517322
-0.373703
-0.225898
-0.0755852
0.0755894
0.225908
0.373719
0.517342
0.654988
0.784827
0.904979
1.01354
1.10859
1.18828
1.25086
1.29477
1.31867
1.32153
1.3027
1.26194
1.19944
1.11587
1.01236
0.890516
0.752346
0.600257
0.436981
0.265518
0.0890636
-0.089068
-0.265522
-0.436985
-0.600261
-0.752349
-0.890518
-1.01236
-1.11587
-1.19944
-1.26194
-1.3027
-1.32153
-1.31866
-1.29476
-1.25085
-1.18827
-1.10857
-1.01352
-0.904961
-0.784806
-0.654966
-0.51732
-0.373701
-0.225897
-0.0755849
0.0750789
0.224384
0.3712
0.513863
0.650595
0.779581
0.898954
1.00682
1.10127
1.18048
1.2427
1.28637
1.31016
1.31305
1.29439
1.25393
1.19187
1.10886
1.00603
0.88497
0.747677
0.596541
0.434281
0.263878
0.0885108
-0.0885244
-0.263891
-0.434293
-0.596553
-0.747688
-0.88498
-1.00604
-1.10887
-1.19187
-1.25394
-1.29439
-1.31305
-1.31015
-1.28636
-1.24269
-1.18047
-1.10126
-1.0068
-0.89893
-0.779555
-0.650568
-0.513836
-0.371178
-0.22437
-0.0750736
0.0740674
0.221363
0.366209
0.506969
0.641891
0.769186
0.887015
0.993504
1.08678
1.16503
1.22652
1.26971
1.29329
1.29625
1.27792
1.23806
1.17686
1.09497
0.993487
0.873978
0.738421
0.589176
0.428929
0.260629
0.0874189
-0.0874415
-0.260652
-0.428951
-0.589197
-0.73844
-0.873994
-0.993501
-1.09498
-1.17687
-1.23807
-1.27792
-1.29625
-1.29329
-1.2697
-1.22651
-1.16501
-1.08676
-0.993479
-0.886986
-0.769155
-0.641859
-0.506937
-0.366184
-0.221347
-0.0740615
0.0725745
0.216904
0.358843
0.496793
0.629043
0.753841
0.869388
0.973848
1.06538
1.14221
1.20262
1.24511
1.26838
1.27142
1.25358
1.21461
1.15468
1.07443
0.974936
0.857723
0.724734
0.578285
0.421016
0.255826
0.085806
-0.0858374
-0.255857
-0.421046
-0.578314
-0.72476
-0.857746
-0.974956
-1.07445
-1.1547
-1.21462
-1.25358
-1.27142
-1.26837
-1.2451
-1.20261
-1.14218
-1.06536
-0.973818
-0.869355
-0.753806
-0.629006
-0.496757
-0.358815
-0.216886
-0.0725679
0.0706289
0.211093
0.349243
0.48353
0.612295
0.733837
0.846407
0.948217
1.03748
1.11244
1.17145
1.21301
1.23586
1.239
1.2218
1.18398
1.12571
1.0476
0.950698
0.836482
0.706846
0.564051
0.410674
0.249549
0.0836991
-0.0837386
-0.249588
-0.410711
-0.564086
-0.706879
-0.836511
-0.950723
-1.04762
-1.12573
-1.18399
-1.2218
-1.239
-1.23585
-1.213
-1.17143
-1.11241
-1.03745
-0.948182
-0.846369
-0.733797
-0.612254
-0.483491
-0.349211
-0.211073
-0.0706218
0.0682679
0.20404
0.337591
0.467431
0.591964
0.70955
0.818501
0.917086
1.00357
1.07627
1.13356
1.17399
1.19632
1.19958
1.18313
1.14671
1.09045
1.01494
0.921185
0.810613
0.685058
0.54671
0.398073
0.241901
0.0811329
-0.08118
-0.241948
-0.398118
-0.546752
-0.685097
-0.810648
-0.921215
-1.01497
-1.09047
-1.14672
-1.18313
-1.19958
-1.19631
-1.17397
-1.13353
-1.07624
-1.00354
-0.917048
-0.818459
-0.709506
-0.591919
-0.467389
-0.337557
-0.204019
-0.0682603
0.065536
0.19588
0.324108
0.448801
0.568432
0.681434
0.786188
0.881032
0.964299
1.03435
1.08964
1.12874
1.15046
1.15384
1.13826
1.10344
1.04951
0.977007
0.886899
0.780555
0.659736
0.526555
0.383426
0.233011
0.0781504
-0.0782042
-0.233064
-0.383477
-0.526603
-0.65978
-0.780594
-0.886933
-0.977035
-1.04953
-1.10345
-1.13826
-1.15384
-1.15045
-1.12872
-1.08961
-1.03432
-0.964262
-0.88099
-0.786142
-0.681387
-0.568384
-0.448755
-0.324072
-0.195858
-0.065528
0.0624843
0.186765
0.309045
0.427984
0.542134
0.650007
0.750061
0.840713
0.920366
0.987451
1.04048
1.07808
1.09909
1.10259
1.08796
1.05492
1.00359
0.934448
0.848422
0.746814
0.631306
0.503922
0.366977
0.223026
0.074801
-0.0748607
-0.223085
-0.367033
-0.503975
-0.631355
-0.746858
-0.848459
-0.934479
-1.00361
-1.05494
-1.08797
-1.10259
-1.09908
-1.07806
-1.04045
-0.987417
-0.920326
-0.840668
-0.750013
-0.649957
-0.542083
-0.427936
-0.309006
-0.186741
-0.062476
0.0591689
0.176861
0.292677
0.405361
0.51355
0.615841
0.710776
0.796855
0.872562
0.936401
0.986946
1.02289
1.04312
1.04673
1.03311
1.002
0.95347
0.887987
0.806405
0.709959
0.600246
0.47919
0.348999
0.212113
0.0711406
-0.0712051
-0.212176
-0.34906
-0.479247
-0.600298
-0.710006
-0.806445
-0.88802
-0.953495
-1.00202
-1.03312
-1.04672
-1.04311
-1.02287
-0.986918
-0.936365
-0.872519
-0.796808
-0.710725
-0.615788
-0.513497
-0.405311
-0.292637
-0.176836
-0.0591604
0.0556495
0.166347
0.2753
0.38134
0.483193
0.579546
0.669032
0.750237
0.821731
0.882099
0.929985
0.964147
0.983507
0.987207
0.974654
0.94557
0.900014
0.838411
0.761556
0.670609
0.567074
0.452771
0.329792
0.200453
0.06723
-0.0672982
-0.20052
-0.329857
-0.452831
-0.567129
-0.670658
-0.761598
-0.838445
-0.900039
-0.945585
-0.974661
-0.987203
-0.983494
-0.964125
-0.929955
-0.882061
-0.821687
-0.750188
-0.668979
-0.579491
-0.483138
-0.381288
-0.275259
-0.166321
-0.0556408
0.0519882
0.155409
0.25722
0.356343
0.451596
0.541759
0.625558
0.701672
0.768758
0.825485
0.870574
0.902847
0.921279
0.925045
0.913574
0.886584
0.844115
0.78655
0.714625
0.629419
0.532342
0.425104
0.309675
0.188239
0.0631337
-0.0632044
-0.188308
-0.309742
-0.425166
-0.532399
-0.629469
-0.714668
-0.786585
-0.84414
-0.8866
-0.91358
-0.925041
-0.921265
-0.902824
-0.870543
-0.825446
-0.768712
-0.701621
-0.625503
-0.541703
-0.45154
-0.35629
-0.257178
-0.155383
-0.0519796
0.0482482
0.144235
0.238748
0.330799
0.419301
0.503127
0.581098
0.651987
0.714543
0.767521
0.80972
0.84003
0.85748
0.861287
0.850897
0.82603
0.786706
0.733268
0.666389
0.58707
0.496623
0.396645
0.288979
0.175672
0.0589193
-0.0589913
-0.175742
-0.289046
-0.396708
-0.496681
-0.587121
-0.666432
-0.733302
-0.78673
-0.826045
-0.850902
-0.861282
-0.857465
-0.840006
-0.809687
-0.76748
-0.714496
-0.651935
-0.581043
-0.50307
-0.419244
-0.330746
-0.238705
-0.144208
-0.0482397
0.044492
0.133011
0.220192
0.305135
0.386846
0.464294
0.536392
0.60201
0.659988
0.709168
0.74843
0.776734
0.793167
0.796983
0.787655
0.764902
0.728728
0.679437
0.617639
0.544257
0.460503
0.367859
0.268041
0.162957
0.0546555
-0.0547276
-0.163028
-0.268108
-0.367922
-0.46056
-0.544307
-0.617682
-0.67947
-0.728752
-0.764916
-0.787658
-0.796977
-0.793151
-0.776709
-0.748396
-0.709127
-0.659941
-0.601958
-0.536337
-0.464237
-0.38679
-0.305082
-0.22015
-0.132985
-0.0444836
0.0407804
0.121921
0.201854
0.279768
0.354759
0.425889
0.492166
0.55255
0.605975
0.651371
0.687697
0.713985
0.729378
0.733175
0.72487
0.70419
0.671121
0.625927
0.569163
0.50167
0.424563
0.339211
0.2472
0.1503
0.0504112
-0.0504821
-0.150369
-0.247266
-0.339272
-0.424619
-0.501719
-0.569204
-0.625959
-0.671143
-0.704203
-0.724873
-0.733167
-0.729361
-0.713959
-0.687663
-0.65133
-0.605928
-0.552498
-0.49211
-0.425831
-0.354702
-0.279714
-0.201812
-0.121895
-0.0407722
0.0371715
0.111137
0.184021
0.255094
0.323542
0.388515
0.449112
0.504385
0.553355
0.59504
0.628478
0.652772
0.667122
0.67087
0.663538
0.644856
0.614796
0.573589
0.521732
0.459987
0.389377
0.311157
0.226788
0.137902
0.0462539
-0.0463226
-0.137969
-0.226852
-0.311216
-0.389431
-0.460034
-0.521771
-0.573619
-0.614817
-0.644867
-0.663539
-0.670862
-0.667104
-0.652746
-0.628444
-0.594999
-0.553308
-0.504331
-0.449051
-0.388448
-0.323475
-0.255035
-0.183976
-0.111111
-0.0371635
0.0337196
0.100822
0.16696
0.231485
0.293666
0.352738
0.407884
0.458245
0.502929
0.541034
0.571679
0.594034
0.607356
0.611031
0.604605
0.587818
0.56063
0.523238
0.476084
0.41986
0.355495
0.284137
0.207125
0.125958
0.0422489
-0.0423144
-0.126022
-0.207186
-0.284193
-0.355546
-0.419904
-0.47612
-0.523265
-0.560649
-0.587827
-0.604605
-0.611021
-0.607338
-0.594007
-0.571645
-0.540993
-0.502877
-0.458176
-0.407785
-0.352602
-0.293532
-0.23139
-0.166902
-0.100793
-0.0337112
0.0304747
0.091124
0.150919
0.209284
0.265566
0.319077
0.369083
0.414806
0.455437
0.490151
0.518142
0.538644
0.550972
0.554553
0.54896
0.53394
0.509445
0.475639
0.432917
0.381903
0.323437
0.258566
0.188514
0.114651
0.0384579
-0.0385194
-0.114711
-0.188571
-0.258619
-0.323484
-0.381943
-0.432951
-0.475664
-0.509461
-0.533948
-0.548958
-0.554543
-0.550954
-0.538618
-0.518107
-0.490105
-0.455364
-0.414662
-0.368768
-0.318506
-0.264996
-0.208973
-0.150787
-0.0910759
-0.0304627
0.0274816
0.0821785
0.136121
0.188799
0.239632
0.288003
0.333254
0.374682
0.411552
0.443116
0.468633
0.487402
0.498789
0.502261
0.497417
0.484015
0.461996
0.4315
0.392877
0.346684
0.293685
0.23483
0.171236
0.104154
0.0349383
-0.0349951
-0.104209
-0.171288
-0.234878
-0.293728
-0.346721
-0.392906
-0.431522
-0.46201
-0.48402
-0.497414
-0.50225
-0.49877
-0.487375
-0.468594
-0.443048
-0.411385
-0.37417
-0.331747
-0.284661
-0.236291
-0.187295
-0.135623
-0.0820403
-0.0274529
0.0247799
0.0741034
0.122761
0.170303
0.21621
0.259933
0.30088
0.338415
0.371874
0.400573
0.423837
0.44102
0.451537
0.454892
0.45071
0.438758
0.418969
0.391462
0.356545
0.314719
0.266676
0.213278
0.155545
0.0946206
0.0317421
-0.0317938
-0.0946709
-0.155593
-0.213322
-0.266714
-0.314752
-0.356571
-0.391481
-0.41898
-0.438761
-0.450705
-0.45488
-0.451517
-0.44099
-0.423785
-0.400436
-0.371357
-0.336316
-0.29318
-0.238804
-0.195082
-0.162596
-0.120663
-0.0736103
-0.0246901
0.0224037
0.0670009
0.111009
0.15403
0.195601
0.235228
0.272379
0.306479
0.336923
0.363087
0.384352
0.400122
0.409858
0.413096
0.409484
0.398798
0.380967
0.35609
0.324438
0.286465
0.242797
0.194222
0.14167
0.0861895
0.0289155
-0.0289619
-0.0862347
-0.141713
-0.194261
-0.242832
-0.286494
-0.32446
-0.356105
-0.380976
-0.398799
-0.409478
-0.413083
-0.409837
-0.400088
-0.38427
-0.362766
-0.335347
-0.298582
-0.23569
-0.0985289
-0.058909
-0.11734
-0.103111
-0.0654471
-0.0221561
0.0203819
0.0609572
0.101007
0.140179
0.178056
0.214192
0.248105
0.279273
0.30714
0.331135
0.350686
0.365242
0.3743
0.377428
0.374292
0.364677
0.348509
0.32587
0.297002
0.262317
0.222385
0.17793
0.129806
0.0789801
0.0264986
-0.0265399
-0.0790202
-0.129844
-0.177964
-0.222415
-0.262341
-0.297021
-0.325882
-0.348515
-0.364676
-0.374284
-0.377414
-0.374278
-0.365201
-0.350556
-0.330494
-0.303416
-0.256614
-0.107048
0.684726
0.720856
0.000882756
-0.0783429
-0.0572685
-0.0198726
0.0187381
0.0560429
0.0928734
0.128912
0.163781
0.197074
0.228349
0.257124
0.282889
0.305111
0.32326
0.336819
0.345318
0.348348
0.345592
0.336844
0.322027
0.301209
0.274609
0.242603
0.205719
0.164626
0.120118
0.0730925
0.024525
-0.0245615
-0.0731278
-0.120151
-0.164656
-0.205745
-0.242624
-0.274624
-0.301218
-0.322031
-0.336842
-0.345584
-0.348333
-0.345295
-0.336773
-0.323099
-0.304287
-0.278106
-0.228668
-0.0583083
0.817409
0.850703
0.0411453
-0.0643993
-0.0512873
-0.0180707
0.0174904
0.0523132
0.0866987
0.120356
0.152938
0.184069
0.213337
0.240292
0.264455
0.285327
0.302404
0.315202
0.32327
0.326222
0.323751
0.315659
0.301866
0.282431
0.257555
0.227588
0.193024
0.154491
0.112737
0.0686068
0.0230214
-0.0230538
-0.0686381
-0.112766
-0.154517
-0.193046
-0.227606
-0.257567
-0.282438
-0.301868
-0.315655
-0.323742
-0.326206
-0.323247
-0.315154
-0.302232
-0.284433
-0.259321
-0.210236
-0.0370929
0.848204
0.87934
0.0559008
-0.0566371
-0.0472075
-0.0167618
0.0166513
0.0498073
0.0825494
0.114603
0.145645
0.17532
0.203237
0.228966
0.25205
0.272011
0.288366
0.300648
0.308425
0.311321
0.309041
0.301388
0.288284
0.269778
0.246063
0.217469
0.184468
0.14766
0.107761
0.065583
0.022008
-0.0220374
-0.0656114
-0.107787
-0.147683
-0.184487
-0.217484
-0.246073
-0.269784
-0.288283
-0.301383
-0.30903
-0.311305
-0.308401
-0.3006
-0.28819
-0.271098
-0.246827
-0.198543
-0.0257966
0.859729
0.889415
0.062851
-0.0521247
-0.0446141
-0.01591
0.0162255
0.0485423
0.0804622
0.111711
0.141979
0.170922
0.198159
0.223272
0.245812
0.265314
0.281305
0.293328
0.300957
0.303825
0.30164
0.294208
0.281449
0.263411
0.240279
0.212376
0.180161
0.144221
0.105257
0.064061
0.0214978
-0.0215258
-0.064088
-0.105282
-0.144243
-0.18018
-0.21239
-0.240289
-0.263416
-0.281448
-0.294202
-0.301629
-0.303809
-0.300934
-0.29328
-0.281129
-0.264397
-0.240568
-0.192771
-0.0204997
0.864546
0.8935
0.0659619
-0.0499639
-0.0433559
-0.0155036
)
;

boundaryField
{
    walls
    {
        type            calculated;
        value           nonuniform List<scalar> 
200
(
0.0162255
0.0485423
0.0804622
0.111711
0.141979
0.170922
0.198159
0.223272
0.245812
0.265314
0.281305
0.293328
0.300957
0.303825
0.30164
0.294208
0.281449
0.263411
0.240279
0.212376
0.180161
0.144221
0.105257
0.064061
0.0214978
-0.0215258
-0.064088
-0.105282
-0.144243
-0.18018
-0.21239
-0.240289
-0.263416
-0.281448
-0.294202
-0.301629
-0.303809
-0.300934
-0.29328
-0.281129
-0.264397
-0.240568
-0.192771
-0.0204997
0.864546
0.8935
0.0659619
-0.0499639
-0.0433559
-0.0155036
0
0
0
0
0
0
0
0
0
0
0
0
0
0
0
0
0
0
0
0
0
0
0
0
0
0
0
0
0
0
0
0
0
0
0
0
0
0
0
0
0
0
0
0
0
0
0
0
0
0
0
0
0
0
0
0
0
0
0
0
0
0
0
0
0
0
0
0
0
0
0
0
0
0
0
0
0
0
0
0
0
0
0
0
0
0
0
0
0
0
0
0
0
0
0
0
0
0
0
0
0.0162208
0.0485161
0.0804197
0.111671
0.141942
0.170887
0.198125
0.223238
0.24578
0.265283
0.281276
0.293301
0.300933
0.303805
0.301624
0.294197
0.281444
0.263412
0.240285
0.212387
0.180177
0.144241
0.10528
0.0640871
0.0215255
-0.0214974
-0.06406
-0.105255
-0.144219
-0.180158
-0.212373
-0.240275
-0.263406
-0.281443
-0.294201
-0.301633
-0.303817
-0.300949
-0.293319
-0.281296
-0.265304
-0.245802
-0.223261
-0.198147
-0.17091
-0.141966
-0.111698
-0.0804507
-0.0485333
-0.0162218
)
;
    }
    frontAndBack
    {
        type            empty;
    }
}


// ************************************************************************* //
