/*--------------------------------*- C++ -*----------------------------------*\
| =========                 |                                                 |
| \\      /  F ield         | OpenFOAM: The Open Source CFD Toolbox           |
|  \\    /   O peration     | Version:  2406                                  |
|   \\  /    A nd           | Website:  www.openfoam.com                      |
|    \\/     M anipulation  |                                                 |
\*---------------------------------------------------------------------------*/
FoamFile
{
    version     2.0;
    format      ascii;
    arch        "LSB;label=32;scalar=64";
    class       volScalarField;
    location    "0.2";
    object      T;
}
// * * * * * * * * * * * * * * * * * * * * * * * * * * * * * * * * * * * * * //

dimensions      [0 0 0 1 0 0 0];

internalField   nonuniform List<scalar> 
2500
(
0.023058
0.0237068
0.0249986
0.0269236
0.0294654
0.0326013
0.0363009
0.0405262
0.0452304
0.0503574
0.0558417
0.0616085
0.0675738
0.0736458
0.079726
0.0857108
0.0914939
0.0969685
0.10203
0.10658
0.110526
0.113787
0.116295
0.117998
0.118859
0.118859
0.117999
0.116297
0.113789
0.110528
0.106583
0.102033
0.0969715
0.0914969
0.0857138
0.0797288
0.0736485
0.0675762
0.0616105
0.0558434
0.0503587
0.0452312
0.0405266
0.0363008
0.0326007
0.0294644
0.026922
0.0249965
0.023704
0.0230551
0.0237068
0.0243725
0.0256979
0.0276729
0.0302805
0.0334972
0.0372919
0.0416253
0.0464492
0.051706
0.0573284
0.0632395
0.0693532
0.0755755
0.0818053
0.0879365
0.0938604
0.0994677
0.104652
0.10931
0.113351
0.11669
0.119258
0.121001
0.121883
0.121883
0.121002
0.11926
0.116692
0.113353
0.109313
0.104655
0.0994709
0.0938637
0.0879398
0.0818084
0.0755784
0.0693558
0.0632417
0.0573303
0.0517075
0.0464502
0.0416259
0.037292
0.0334968
0.0302797
0.0276716
0.0256961
0.0243701
0.0237042
0.0249986
0.0256979
0.0270902
0.0291645
0.031903
0.0352806
0.0392644
0.0438127
0.0488747
0.0543896
0.0602865
0.0664846
0.0728935
0.0794145
0.0859416
0.092364
0.0985676
0.104439
0.109865
0.114741
0.118969
0.122463
0.12515
0.126973
0.127895
0.127896
0.126974
0.125151
0.122465
0.118972
0.114744
0.109868
0.104442
0.0985713
0.0923676
0.0859452
0.0794178
0.0728966
0.0664873
0.0602889
0.0543915
0.0488762
0.0438137
0.0392649
0.0352807
0.0319027
0.0291638
0.027089
0.0256963
0.0249968
0.0269236
0.0276729
0.0291645
0.0313867
0.0343197
0.0379365
0.0422013
0.047069
0.0524849
0.0583832
0.064688
0.0713124
0.0781597
0.0851242
0.092093
0.0989475
0.105566
0.111829
0.117615
0.122813
0.12732
0.131043
0.133906
0.135849
0.136831
0.136832
0.13585
0.133908
0.131046
0.127323
0.122817
0.117619
0.111833
0.105571
0.0989518
0.0920972
0.0851283
0.0781635
0.0713159
0.0646911
0.0583858
0.052487
0.0470707
0.0422024
0.0379372
0.03432
0.0313865
0.029164
0.027672
0.0269227
0.0294654
0.0302805
0.031903
0.0343197
0.037509
0.0414406
0.0460752
0.0513634
0.0572447
0.0636476
0.0704888
0.0776738
0.0850974
0.092645
0.100194
0.107616
0.114781
0.121557
0.127816
0.133437
0.13831
0.142334
0.145428
0.147528
0.148589
0.148589
0.147529
0.14543
0.142337
0.138313
0.133441
0.12782
0.121561
0.114786
0.107621
0.100199
0.0926498
0.085102
0.0776781
0.0704926
0.0636509
0.0572476
0.0513657
0.0460771
0.0414419
0.0375099
0.0343203
0.0319032
0.0302804
0.0294653
0.0326013
0.0334972
0.0352806
0.0379365
0.0414406
0.0457592
0.0508483
0.0566528
0.0631059
0.0701283
0.0776281
0.0855012
0.0936319
0.101895
0.110155
0.118274
0.126107
0.133513
0.140351
0.146491
0.151811
0.156204
0.159581
0.161873
0.163031
0.163031
0.161874
0.159584
0.156207
0.151815
0.146495
0.140356
0.133518
0.126113
0.118279
0.110161
0.1019
0.0936374
0.0855063
0.0776328
0.0701325
0.0631096
0.056656
0.0508508
0.0457612
0.0414422
0.0379377
0.0352815
0.0334978
0.0326018
0.0363009
0.0372919
0.0392644
0.0422013
0.0460752
0.0508483
0.056471
0.0628819
0.0700061
0.0777554
0.0860277
0.0947076
0.103667
0.112768
0.121863
0.130796
0.139413
0.147556
0.155072
0.161818
0.167662
0.172487
0.176195
0.178711
0.179982
0.179982
0.178712
0.176198
0.17249
0.167666
0.161823
0.155078
0.147562
0.139419
0.130803
0.121869
0.112775
0.103674
0.0947136
0.0860332
0.0777604
0.0700106
0.0628858
0.0564744
0.0508511
0.0460776
0.0422032
0.039266
0.0372932
0.0363022
0.0405262
0.0416253
0.0438127
0.047069
0.0513634
0.0566528
0.0628819
0.0699814
0.0778676
0.0864419
0.0955908
0.105186
0.115086
0.125137
0.135176
0.145033
0.154537
0.163514
0.171797
0.17923
0.185666
0.190979
0.195061
0.19783
0.19923
0.19923
0.197832
0.195064
0.190983
0.185671
0.179235
0.171804
0.16352
0.154544
0.145041
0.135183
0.125144
0.115093
0.105193
0.0955972
0.0864479
0.0778729
0.0699861
0.062886
0.0566564
0.0513664
0.0470717
0.043815
0.0416273
0.0405282
0.0452304
0.0464492
0.0488747
0.0524849
0.0572447
0.0631059
0.0700061
0.0778676
0.0865967
0.0960835
0.106201
0.116808
0.127746
0.138846
0.149928
0.160804
0.171286
0.181183
0.190312
0.198501
0.20559
0.21144
0.215935
0.218983
0.220523
0.220524
0.218985
0.215938
0.211444
0.205595
0.198507
0.190319
0.18119
0.171294
0.160813
0.149936
0.138854
0.127754
0.116816
0.106209
0.0960902
0.0866029
0.0778731
0.070011
0.0631102
0.0572485
0.0524882
0.0488777
0.0464519
0.045233
0.0503574
0.051706
0.0543896
0.0583832
0.0636476
0.0701283
0.0777554
0.0864419
0.0960835
0.106558
0.117723
0.129423
0.141484
0.153717
0.165925
0.177901
0.189438
0.200327
0.210368
0.219372
0.227165
0.233594
0.238532
0.241881
0.243573
0.243574
0.241883
0.238535
0.233598
0.22717
0.219378
0.210376
0.200335
0.189446
0.17791
0.165934
0.153726
0.141493
0.129432
0.117731
0.106565
0.0960904
0.0864482
0.077761
0.0701333
0.063652
0.0583872
0.0543932
0.0517093
0.0503607
0.0558417
0.0573284
0.0602865
0.064688
0.0704888
0.0776281
0.0860277
0.0955908
0.106201
0.117723
0.130002
0.142861
0.156111
0.169546
0.182946
0.196087
0.208741
0.22068
0.231685
0.241551
0.250087
0.257128
0.262535
0.266202
0.268054
0.268055
0.266204
0.262539
0.257133
0.250093
0.241558
0.231693
0.220688
0.20875
0.196097
0.182956
0.169555
0.156121
0.14287
0.13001
0.117732
0.106209
0.0955977
0.086034
0.0776337
0.0704939
0.0646926
0.0602908
0.0573323
0.0558456
0.0616085
0.0632395
0.0664846
0.0713124
0.0776738
0.0855012
0.0947076
0.105186
0.116808
0.129423
0.142861
0.15693
0.17142
0.186105
0.200747
0.2151
0.228915
0.241945
0.253953
0.264714
0.274022
0.281698
0.287593
0.291589
0.293608
0.293608
0.291591
0.287596
0.281703
0.274028
0.264721
0.253961
0.241954
0.228924
0.215109
0.200757
0.186115
0.17143
0.15694
0.142871
0.129432
0.116816
0.105194
0.0947145
0.0855074
0.0776795
0.0713176
0.0664894
0.063244
0.0616129
0.0675738
0.0693532
0.0728935
0.0781597
0.0850974
0.0936319
0.103667
0.115086
0.127746
0.141484
0.156111
0.17142
0.18718
0.203146
0.219059
0.234652
0.249656
0.263802
0.276835
0.28851
0.298607
0.306932
0.313324
0.317657
0.319845
0.319846
0.317659
0.313327
0.306937
0.298613
0.288517
0.276843
0.263811
0.249665
0.234662
0.219069
0.203156
0.18719
0.17143
0.156121
0.141493
0.127755
0.115094
0.103675
0.0936386
0.0851036
0.0781654
0.0728988
0.0693582
0.0675787
0.0736458
0.0755755
0.0794145
0.0851242
0.092645
0.101895
0.112768
0.125137
0.138846
0.153717
0.169546
0.186105
0.203146
0.220403
0.237597
0.25444
0.270639
0.285909
0.299971
0.312566
0.323456
0.332433
0.339324
0.343995
0.346354
0.346355
0.343997
0.339328
0.332438
0.323462
0.312573
0.299979
0.285918
0.270649
0.25445
0.237608
0.220414
0.203156
0.186115
0.169555
0.153726
0.138855
0.125145
0.112776
0.101902
0.0926515
0.0851303
0.0794202
0.075581
0.0736512
0.079726
0.0818053
0.0859416
0.092093
0.100194
0.110155
0.121863
0.135176
0.149928
0.165925
0.182946
0.200747
0.219059
0.237597
0.256061
0.274141
0.291525
0.307906
0.322988
0.336493
0.348167
0.357789
0.365174
0.370179
0.372706
0.372707
0.370181
0.365177
0.357794
0.348173
0.3365
0.322996
0.307915
0.291535
0.274151
0.256071
0.237608
0.21907
0.200757
0.182956
0.165934
0.149937
0.135184
0.12187
0.110162
0.100201
0.0920993
0.0859477
0.0818111
0.0797317
0.0857108
0.0879365
0.092364
0.0989475
0.107616
0.118274
0.130796
0.145033
0.160804
0.177901
0.196087
0.2151
0.234652
0.25444
0.274141
0.293426
0.311964
0.329428
0.345502
0.359892
0.372328
0.382577
0.390442
0.395771
0.398462
0.398463
0.395773
0.390445
0.382581
0.372334
0.359899
0.34551
0.329436
0.311973
0.293436
0.274151
0.25445
0.234663
0.21511
0.196097
0.177911
0.160813
0.145042
0.130804
0.118281
0.107623
0.098954
0.0923703
0.0879426
0.0857168
0.0914939
0.0938604
0.0985676
0.105566
0.114781
0.126107
0.139413
0.154537
0.171286
0.189438
0.208741
0.228915
0.249656
0.270639
0.291525
0.311964
0.331606
0.350104
0.367127
0.382362
0.395527
0.406374
0.414697
0.420336
0.423184
0.423184
0.420338
0.4147
0.406378
0.395532
0.382368
0.367134
0.350112
0.331615
0.311973
0.291535
0.270649
0.249666
0.228924
0.20875
0.189447
0.171294
0.154545
0.139421
0.126114
0.114788
0.105573
0.098574
0.0938666
0.0915
0.0969685
0.0994677
0.104439
0.111829
0.121557
0.133513
0.147556
0.163514
0.181183
0.200327
0.22068
0.241945
0.263802
0.285909
0.307906
0.329428
0.350104
0.369572
0.387483
0.403511
0.417357
0.428765
0.437517
0.443446
0.44644
0.446441
0.443448
0.437519
0.428769
0.417363
0.403517
0.38749
0.36958
0.350112
0.329436
0.307915
0.285918
0.263812
0.241955
0.220689
0.200336
0.181191
0.163522
0.147563
0.13352
0.121563
0.111835
0.104445
0.0994739
0.0969747
0.10203
0.104652
0.109865
0.117615
0.127816
0.140351
0.155072
0.171797
0.190312
0.210368
0.231685
0.253953
0.276835
0.299971
0.322988
0.345502
0.367127
0.387483
0.406208
0.422961
0.437432
0.449352
0.458496
0.464691
0.467818
0.467819
0.464692
0.458499
0.449355
0.437436
0.422966
0.406214
0.38749
0.367134
0.34551
0.322997
0.29998
0.276843
0.253962
0.231694
0.210376
0.19032
0.171805
0.155079
0.140358
0.127823
0.117621
0.109871
0.104658
0.102036
0.10658
0.10931
0.114741
0.122813
0.133437
0.146491
0.161818
0.17923
0.198501
0.219372
0.241551
0.264714
0.28851
0.312566
0.336493
0.359892
0.382362
0.403511
0.422961
0.440359
0.455386
0.467763
0.477257
0.483688
0.486935
0.486935
0.483689
0.477259
0.467766
0.455391
0.440364
0.422966
0.403517
0.382368
0.359899
0.3365
0.312574
0.288517
0.264721
0.241558
0.219379
0.198508
0.179237
0.161825
0.146497
0.133444
0.122819
0.114747
0.109316
0.106586
0.110526
0.113351
0.118969
0.12732
0.13831
0.151811
0.167662
0.185666
0.20559
0.227165
0.250087
0.274022
0.298607
0.323456
0.348167
0.372328
0.395527
0.417357
0.437432
0.455386
0.470892
0.483662
0.493456
0.50009
0.503439
0.50344
0.500091
0.493458
0.483664
0.470896
0.455391
0.437436
0.417363
0.395532
0.372334
0.348173
0.323463
0.298613
0.274028
0.250093
0.227171
0.205596
0.185672
0.167668
0.151817
0.138315
0.127326
0.118975
0.113357
0.110532
0.113787
0.11669
0.122463
0.131043
0.142334
0.156204
0.172487
0.190979
0.21144
0.233594
0.257128
0.281698
0.306932
0.332433
0.357789
0.382577
0.406374
0.428765
0.449352
0.467763
0.483662
0.496753
0.506794
0.513595
0.517029
0.517029
0.513596
0.506796
0.496756
0.483664
0.467766
0.449355
0.428769
0.406378
0.382582
0.357794
0.332439
0.306937
0.281704
0.257133
0.233599
0.211445
0.190984
0.172492
0.156209
0.142339
0.131048
0.122468
0.116695
0.113792
0.116295
0.119258
0.12515
0.133906
0.145428
0.159581
0.176195
0.195061
0.215935
0.238532
0.262535
0.287593
0.313324
0.339324
0.365174
0.390442
0.414697
0.437517
0.458496
0.477257
0.493456
0.506794
0.517024
0.523952
0.52745
0.52745
0.523953
0.517025
0.506796
0.493458
0.477259
0.458499
0.43752
0.4147
0.390445
0.365178
0.339328
0.313328
0.287597
0.262539
0.238536
0.215939
0.195065
0.176199
0.159585
0.145432
0.133911
0.125154
0.119263
0.1163
0.117998
0.121001
0.126973
0.135849
0.147528
0.161873
0.178711
0.19783
0.218983
0.241881
0.266202
0.291589
0.317657
0.343995
0.370179
0.395771
0.420336
0.443446
0.464691
0.483688
0.50009
0.513595
0.523952
0.530967
0.534508
0.534508
0.530967
0.523953
0.513596
0.500091
0.483689
0.464693
0.443448
0.420338
0.395773
0.370181
0.343998
0.317659
0.291592
0.266205
0.241884
0.218986
0.197833
0.178714
0.161876
0.147531
0.135853
0.126978
0.121006
0.118003
0.118859
0.121883
0.127895
0.136831
0.148589
0.163031
0.179982
0.19923
0.220523
0.243573
0.268054
0.293608
0.319845
0.346354
0.372706
0.398462
0.423184
0.44644
0.467818
0.486935
0.503439
0.517029
0.52745
0.534508
0.538071
0.538071
0.534508
0.52745
0.517029
0.50344
0.486935
0.467819
0.446441
0.423185
0.398463
0.372707
0.346355
0.319846
0.293609
0.268056
0.243575
0.220525
0.199232
0.179984
0.163033
0.148592
0.136834
0.127899
0.121886
0.118863
0.118859
0.121883
0.127896
0.136832
0.148589
0.163031
0.179982
0.19923
0.220524
0.243574
0.268055
0.293608
0.319846
0.346355
0.372707
0.398463
0.423184
0.446441
0.467819
0.486935
0.50344
0.517029
0.52745
0.534508
0.538071
0.538071
0.534508
0.52745
0.517029
0.503439
0.486935
0.467819
0.44644
0.423184
0.398463
0.372706
0.346354
0.319845
0.293608
0.268055
0.243574
0.220524
0.199231
0.179983
0.163033
0.148591
0.136834
0.127898
0.121886
0.118863
0.117999
0.121002
0.126974
0.13585
0.147529
0.161874
0.178712
0.197832
0.218985
0.241883
0.266204
0.291591
0.317659
0.343997
0.370181
0.395773
0.420338
0.443448
0.464692
0.483689
0.500091
0.513596
0.523953
0.530967
0.534508
0.534508
0.530967
0.523952
0.513595
0.50009
0.483688
0.464691
0.443446
0.420336
0.395771
0.370179
0.343996
0.317657
0.291589
0.266203
0.241882
0.218984
0.197832
0.178712
0.161875
0.14753
0.135852
0.126977
0.121005
0.118002
0.116297
0.11926
0.125151
0.133908
0.14543
0.159584
0.176198
0.195064
0.215938
0.238535
0.262539
0.287596
0.313327
0.339328
0.365177
0.390445
0.4147
0.437519
0.458499
0.477259
0.493458
0.506796
0.517025
0.523953
0.52745
0.52745
0.523952
0.517024
0.506794
0.493456
0.477257
0.458496
0.437517
0.414697
0.390442
0.365174
0.339325
0.313324
0.287593
0.262536
0.238533
0.215936
0.195063
0.176197
0.159583
0.14543
0.133909
0.125153
0.119261
0.116299
0.113789
0.116692
0.122465
0.131046
0.142337
0.156207
0.17249
0.190983
0.211444
0.233598
0.257133
0.281703
0.306937
0.332438
0.357794
0.382581
0.406378
0.428769
0.449355
0.467766
0.483664
0.496756
0.506796
0.513596
0.517029
0.517029
0.513595
0.506794
0.496754
0.483662
0.467763
0.449352
0.428765
0.406374
0.382577
0.357789
0.332434
0.306933
0.281699
0.257129
0.233595
0.211441
0.19098
0.172488
0.156206
0.142336
0.131046
0.122466
0.116693
0.113791
0.110528
0.113353
0.118972
0.127323
0.138313
0.151815
0.167666
0.185671
0.205595
0.22717
0.250093
0.274028
0.298613
0.323462
0.348173
0.372334
0.395532
0.417363
0.437436
0.455391
0.470896
0.483664
0.493458
0.500091
0.50344
0.503439
0.50009
0.493456
0.483662
0.470892
0.455387
0.437432
0.417358
0.395527
0.372328
0.348167
0.323456
0.298607
0.274022
0.250087
0.227165
0.205591
0.185668
0.167664
0.151813
0.138312
0.127323
0.118972
0.113354
0.110529
0.106583
0.109313
0.114744
0.122817
0.133441
0.146495
0.161823
0.179235
0.198507
0.219378
0.241558
0.264721
0.288517
0.312573
0.3365
0.359899
0.382368
0.403517
0.422966
0.440364
0.455391
0.467766
0.477259
0.483689
0.486935
0.486935
0.483688
0.477257
0.467763
0.455387
0.440359
0.422961
0.403511
0.382362
0.359892
0.336493
0.312566
0.28851
0.264714
0.241551
0.219373
0.198502
0.179231
0.16182
0.146493
0.13344
0.122816
0.114744
0.109314
0.106583
0.102033
0.104655
0.109868
0.117619
0.12782
0.140356
0.155078
0.171804
0.190319
0.210376
0.231693
0.253961
0.276843
0.299979
0.322996
0.34551
0.367134
0.38749
0.406214
0.422966
0.437436
0.449355
0.458499
0.464693
0.467819
0.467819
0.464691
0.458496
0.449352
0.437432
0.422961
0.406208
0.387483
0.367127
0.345502
0.322989
0.299972
0.276835
0.253954
0.231686
0.210369
0.190313
0.171799
0.155074
0.140353
0.127818
0.117618
0.109868
0.104655
0.102034
0.0969715
0.0994709
0.104442
0.111833
0.121561
0.133518
0.147562
0.16352
0.18119
0.200335
0.220688
0.241954
0.263811
0.285918
0.307915
0.329436
0.350112
0.36958
0.38749
0.403517
0.417363
0.428769
0.43752
0.443448
0.446441
0.44644
0.443446
0.437517
0.428765
0.417358
0.403511
0.387483
0.369572
0.350104
0.329428
0.307907
0.285909
0.263803
0.241946
0.22068
0.200328
0.181184
0.163515
0.147557
0.133514
0.121559
0.111831
0.104441
0.0994708
0.0969718
0.0914969
0.0938637
0.0985713
0.105571
0.114786
0.126113
0.139419
0.154544
0.171294
0.189446
0.20875
0.228924
0.249665
0.270649
0.291535
0.311973
0.331615
0.350112
0.367134
0.382368
0.395532
0.406378
0.4147
0.420338
0.423185
0.423184
0.420336
0.414697
0.406374
0.395527
0.382362
0.367127
0.350104
0.331606
0.311964
0.291525
0.27064
0.249656
0.228915
0.208741
0.189439
0.171287
0.154538
0.139414
0.126109
0.114783
0.105569
0.0985704
0.0938634
0.091497
0.0857138
0.0879398
0.0923676
0.0989518
0.107621
0.118279
0.130803
0.145041
0.160813
0.17791
0.196097
0.215109
0.234662
0.25445
0.274151
0.293436
0.311973
0.329436
0.34551
0.359899
0.372334
0.382582
0.390445
0.395773
0.398463
0.398463
0.395771
0.390442
0.382577
0.372328
0.359892
0.345502
0.329428
0.311964
0.293426
0.274141
0.25444
0.234653
0.2151
0.196088
0.177902
0.160805
0.145034
0.130798
0.118275
0.107618
0.0989498
0.0923667
0.0879395
0.0857138
0.0797288
0.0818084
0.0859452
0.0920972
0.100199
0.110161
0.121869
0.135183
0.149936
0.165934
0.182956
0.200757
0.219069
0.237608
0.256071
0.274151
0.291535
0.307915
0.322997
0.3365
0.348173
0.357794
0.365178
0.370181
0.372707
0.372706
0.370179
0.365174
0.357789
0.348167
0.336493
0.322989
0.307907
0.291525
0.274141
0.256061
0.237598
0.21906
0.200747
0.182947
0.165925
0.149929
0.135177
0.121864
0.110157
0.100196
0.0920952
0.0859442
0.0818081
0.0797289
0.0736485
0.0755784
0.0794178
0.0851283
0.0926498
0.1019
0.112775
0.125144
0.138854
0.153726
0.169555
0.186115
0.203156
0.220414
0.237608
0.25445
0.270649
0.285918
0.29998
0.312574
0.323463
0.332439
0.339328
0.343998
0.346355
0.346354
0.343996
0.339325
0.332434
0.323456
0.312566
0.299972
0.285909
0.27064
0.25444
0.237598
0.220404
0.203146
0.186105
0.169546
0.153718
0.138847
0.125138
0.11277
0.101896
0.0926468
0.0851265
0.079417
0.0755783
0.0736487
0.0675762
0.0693558
0.0728966
0.0781635
0.085102
0.0936374
0.103674
0.115093
0.127754
0.141493
0.156121
0.17143
0.18719
0.203156
0.21907
0.234663
0.249666
0.263812
0.276843
0.288517
0.298613
0.306937
0.313328
0.317659
0.319846
0.319845
0.317657
0.313324
0.306933
0.298607
0.28851
0.276835
0.263803
0.249656
0.234653
0.21906
0.203146
0.187181
0.17142
0.156112
0.141485
0.127747
0.115087
0.103669
0.0936335
0.0850993
0.0781619
0.072896
0.0693559
0.0675766
0.0616105
0.0632417
0.0664873
0.0713159
0.0776781
0.0855063
0.0947136
0.105193
0.116816
0.129432
0.14287
0.15694
0.17143
0.186115
0.200757
0.21511
0.228924
0.241955
0.253962
0.264721
0.274028
0.281704
0.287597
0.291592
0.293609
0.293608
0.291589
0.287593
0.281699
0.274022
0.264714
0.253954
0.241946
0.228915
0.2151
0.200747
0.186105
0.17142
0.156931
0.142862
0.129424
0.116809
0.105187
0.094709
0.0855028
0.0776757
0.0713147
0.0664871
0.0632422
0.0616113
0.0558434
0.0573303
0.0602889
0.0646911
0.0704926
0.0776328
0.0860332
0.0955972
0.106209
0.117731
0.13001
0.142871
0.156121
0.169555
0.182956
0.196097
0.20875
0.220689
0.231694
0.241558
0.250093
0.257133
0.262539
0.266205
0.268056
0.268055
0.266203
0.262536
0.257129
0.250087
0.241551
0.231686
0.22068
0.208741
0.196088
0.182947
0.169546
0.156112
0.142862
0.130002
0.117724
0.106202
0.095592
0.0860291
0.07763
0.0704912
0.064691
0.0602898
0.0573319
0.0558454
0.0503587
0.0517075
0.0543915
0.0583858
0.0636509
0.0701325
0.0777604
0.0864479
0.0960902
0.106565
0.117732
0.129432
0.141493
0.153726
0.165934
0.177911
0.189447
0.200336
0.210376
0.219379
0.227171
0.233599
0.238536
0.241884
0.243575
0.243574
0.241882
0.238533
0.233595
0.227165
0.219373
0.210369
0.200328
0.189439
0.177902
0.165925
0.153718
0.141485
0.129424
0.117724
0.106558
0.0960846
0.0864434
0.0777576
0.070132
0.0636535
0.0583907
0.0543979
0.0517146
0.0503662
0.0452312
0.0464502
0.0488762
0.052487
0.0572476
0.0631096
0.0700106
0.0778729
0.0866029
0.0960904
0.106209
0.116816
0.127755
0.138855
0.149937
0.160813
0.171294
0.181191
0.19032
0.198508
0.205596
0.211445
0.215939
0.218986
0.220525
0.220524
0.218984
0.215936
0.211441
0.205591
0.198502
0.190313
0.181184
0.171287
0.160805
0.149929
0.138847
0.127747
0.116809
0.106202
0.0960846
0.0865982
0.0778701
0.0700117
0.0631193
0.0572715
0.0525195
0.0489125
0.046488
0.0452695
0.0405266
0.0416259
0.0438137
0.0470707
0.0513657
0.056656
0.0628858
0.0699861
0.0778731
0.0864482
0.0955977
0.105194
0.115094
0.125145
0.135184
0.145042
0.154545
0.163522
0.171805
0.179237
0.185672
0.190984
0.195065
0.197833
0.199232
0.199231
0.197832
0.195063
0.19098
0.185668
0.179231
0.171799
0.163515
0.154538
0.145034
0.135177
0.125138
0.115087
0.105187
0.095592
0.0864434
0.0778701
0.069988
0.0629033
0.0567181
0.0515168
0.0472665
0.044025
0.0418415
0.0407434
0.0363008
0.037292
0.0392649
0.0422024
0.0460771
0.0508508
0.0564744
0.062886
0.070011
0.077761
0.086034
0.0947145
0.103675
0.112776
0.12187
0.130804
0.139421
0.147563
0.155079
0.161825
0.167668
0.172492
0.176199
0.178714
0.179984
0.179983
0.178712
0.176197
0.172488
0.167664
0.16182
0.155074
0.147557
0.139414
0.130798
0.121864
0.11277
0.103669
0.094709
0.0860291
0.0777576
0.0700117
0.0629033
0.0565591
0.0511761
0.0470069
0.0433728
0.0405031
0.0385463
0.0375587
0.0326007
0.0334968
0.0352807
0.0379372
0.0414419
0.0457612
0.0508511
0.0566564
0.0631102
0.0701333
0.0776337
0.0855074
0.0936386
0.101902
0.110162
0.118281
0.126114
0.13352
0.140358
0.146497
0.151817
0.156209
0.159585
0.161876
0.163033
0.163033
0.161875
0.159583
0.156206
0.151813
0.146493
0.140353
0.133514
0.126109
0.118275
0.110157
0.101896
0.0936335
0.0855028
0.07763
0.070132
0.0631193
0.0567181
0.0511761
0.0472905
0.0472349
0.0449341
0.0425413
0.0408097
0.0399234
0.0294644
0.0302797
0.0319027
0.03432
0.0375099
0.0414422
0.0460776
0.0513664
0.0572485
0.063652
0.0704939
0.0776795
0.0851036
0.0926515
0.100201
0.107623
0.114788
0.121563
0.127823
0.133444
0.138315
0.142339
0.145432
0.147531
0.148592
0.148591
0.14753
0.14543
0.142336
0.138312
0.13344
0.127818
0.121559
0.114783
0.107618
0.100196
0.0926468
0.0850993
0.0776757
0.0704912
0.0636535
0.0572715
0.0515168
0.0470069
0.0472349
0.0743959
0.0760691
0.0744313
0.0729354
0.0721405
0.026922
0.0276716
0.0291638
0.0313865
0.0343203
0.0379377
0.0422032
0.0470717
0.0524882
0.0583872
0.0646926
0.0713176
0.0781654
0.0851303
0.0920993
0.098954
0.105573
0.111835
0.117621
0.122819
0.127326
0.131048
0.133911
0.135853
0.136834
0.136834
0.135852
0.133909
0.131046
0.127323
0.122816
0.117618
0.111831
0.105569
0.0989498
0.0920952
0.0851265
0.0781619
0.0713147
0.064691
0.0583907
0.0525195
0.0472665
0.0433728
0.0449341
0.0760691
0.0789623
0.0777149
0.0763863
0.0756635
0.0249965
0.0256961
0.027089
0.029164
0.0319032
0.0352815
0.039266
0.043815
0.0488777
0.0543932
0.0602908
0.0664894
0.0728988
0.0794202
0.0859477
0.0923703
0.098574
0.104445
0.109871
0.114747
0.118975
0.122468
0.125154
0.126978
0.127899
0.127898
0.126977
0.125153
0.122466
0.118972
0.114744
0.109868
0.104441
0.0985704
0.0923667
0.0859442
0.079417
0.072896
0.0664871
0.0602898
0.0543979
0.0489125
0.044025
0.0405031
0.0425413
0.0744313
0.0777149
0.0766673
0.0754495
0.074779
0.023704
0.0243701
0.0256963
0.027672
0.0302804
0.0334978
0.0372932
0.0416273
0.0464519
0.0517093
0.0573323
0.063244
0.0693582
0.075581
0.0818111
0.0879426
0.0938666
0.0994739
0.104658
0.109316
0.113357
0.116695
0.119263
0.121006
0.121886
0.121886
0.121005
0.119261
0.116693
0.113354
0.109314
0.104655
0.0994708
0.0938634
0.0879395
0.0818081
0.0755783
0.0693559
0.0632422
0.0573319
0.0517146
0.046488
0.0418415
0.0385463
0.0408097
0.0729354
0.0763863
0.0754495
0.0743013
0.0736649
0.0230551
0.0237042
0.0249968
0.0269227
0.0294653
0.0326018
0.0363022
0.0405282
0.045233
0.0503607
0.0558456
0.0616129
0.0675787
0.0736512
0.0797317
0.0857168
0.0915
0.0969747
0.102036
0.106586
0.110532
0.113792
0.1163
0.118003
0.118863
0.118863
0.118002
0.116299
0.113791
0.110529
0.106583
0.102034
0.0969718
0.091497
0.0857138
0.0797289
0.0736487
0.0675766
0.0616113
0.0558454
0.0503662
0.0452695
0.0407434
0.0375587
0.0399234
0.0721405
0.0756635
0.074779
0.0736649
0.0730448
)
;

boundaryField
{
    walls
    {
        type            zeroGradient;
    }
    frontAndBack
    {
        type            empty;
    }
}


// ************************************************************************* //
