/*--------------------------------*- C++ -*----------------------------------*\
| =========                 |                                                 |
| \\      /  F ield         | OpenFOAM: The Open Source CFD Toolbox           |
|  \\    /   O peration     | Version:  2406                                  |
|   \\  /    A nd           | Website:  www.openfoam.com                      |
|    \\/     M anipulation  |                                                 |
\*---------------------------------------------------------------------------*/
FoamFile
{
    version     2.0;
    format      ascii;
    arch        "LSB;label=32;scalar=64";
    class       volScalarField;
    location    "0.3";
    object      nu;
}
// * * * * * * * * * * * * * * * * * * * * * * * * * * * * * * * * * * * * * //

dimensions      [0 2 -1 0 0 0 0];

internalField   nonuniform List<scalar> 
1800
(
0.0109941
0.0140554
0.010619
0.010164
0.0102809
0.0103082
0.0102427
0.0101186
0.0100898
0.00973238
0.0133632
0.0117402
0.00968227
0.00969587
0.0101093
0.0104022
0.010517
0.0104074
0.0101418
0.0084371
0.0190061
0.0101963
0.00906057
0.00943411
0.0100149
0.0104051
0.0105987
0.0105371
0.0101686
0.00889903
0.0141954
0.00912045
0.00867036
0.0092174
0.00985831
0.0102489
0.0104115
0.0103082
0.00988661
0.0084672
0.0104114
0.00842267
0.00842405
0.00908588
0.00977293
0.0101684
0.0103123
0.0101599
0.00964739
0.00841057
0.00869633
0.00799282
0.00826182
0.0090238
0.00977765
0.0102084
0.0103354
0.0100788
0.00941592
0.00817633
0.00780402
0.00769612
0.00816707
0.00905633
0.00992678
0.010423
0.0104964
0.0100301
0.00916144
0.00810559
0.0072593
0.00749108
0.00814953
0.00921914
0.0102828
0.0108681
0.0107775
0.00995101
0.0089117
0.00804757
0.00689728
0.00735749
0.00821655
0.00954836
0.0108993
0.0115217
0.011029
0.00978817
0.00873138
0.00812598
0.00664797
0.00728383
0.00837094
0.0100678
0.01179
0.0122374
0.011082
0.00958085
0.00864873
0.00827587
0.00958633
0.0198449
0.0318605
0.0291278
0.0252694
0.0227054
0.0209104
0.0188688
0.016477
0.0144286
0.0092833
0.0201096
0.0327599
0.0271618
0.02336
0.0215943
0.0201436
0.0180736
0.0156678
0.0136773
0.00904584
0.0207353
0.0349109
0.0254705
0.0217145
0.0205317
0.019307
0.0172115
0.0148399
0.0130001
0.008867
0.0218111
0.0376048
0.0238717
0.0203749
0.0197013
0.0186558
0.0165259
0.0141475
0.0124343
0.00874789
0.0232417
0.0387545
0.0223457
0.0193877
0.0192219
0.0183919
0.0162319
0.0137718
0.0120559
0.00868605
0.0246702
0.0349203
0.020722
0.0186787
0.0190558
0.0185003
0.0163126
0.0136217
0.0117681
0.00871523
0.0247748
0.0267258
0.0187297
0.0181325
0.0191897
0.0190883
0.0169466
0.0137442
0.0115749
0.00887189
0.0226392
0.0190693
0.0160408
0.0166314
0.0180568
0.0189577
0.0179737
0.0142056
0.0114487
0.00924051
0.0198675
0.0146099
0.0132947
0.0137036
0.0143582
0.0153436
0.0165131
0.0144024
0.0113004
0.00988017
0.0171415
0.0122285
0.0113814
0.0114447
0.0114664
0.0115858
0.0119859
0.0118628
0.0106124
0.0142407
0.0137076
0.0169827
0.0212339
0.0266338
0.034033
0.0415074
0.0494205
0.0522868
0.0681312
0.0140106
0.0139828
0.0168442
0.021148
0.0266172
0.0348517
0.0436932
0.0531222
0.0561052
0.0730966
0.0138139
0.0145253
0.0167554
0.0210669
0.0264124
0.0351664
0.0449282
0.0553039
0.0589458
0.0757748
0.0136221
0.0153497
0.0165955
0.0206617
0.0256057
0.0339101
0.0430869
0.0522279
0.0563255
0.0690938
0.0133775
0.0158017
0.0158658
0.0191542
0.0231876
0.0294994
0.0361783
0.0421258
0.0454383
0.051812
0.0128564
0.01448
0.014083
0.0161976
0.0189482
0.022697
0.0265457
0.0297901
0.0318341
0.034328
0.0119682
0.0123778
0.012147
0.0133383
0.0149979
0.0170319
0.0191112
0.0209055
0.0221489
0.0233554
0.010737
0.0108231
0.0108838
0.0115992
0.0125676
0.0136635
0.0147706
0.0157426
0.0164822
0.0171786
0.00967564
0.0100005
0.0102578
0.0108398
0.0115772
0.0123303
0.0130529
0.0136794
0.0141155
0.0146203
0.00856046
0.00984742
0.00996725
0.0104103
0.0110568
0.0116958
0.0122794
0.0127813
0.0131291
0.0135968
0.00973797
0.011251
0.0109754
0.0111015
0.0115917
0.0121397
0.0126644
0.0131342
0.013412
0.0138916
0.0106035
0.0108434
0.0113044
0.0119558
0.0127782
0.0135294
0.0141682
0.0147184
0.0150332
0.0155356
0.00984055
0.0105913
0.0114007
0.0124932
0.0139878
0.0154412
0.0167032
0.0177606
0.0185002
0.0191735
0.0122164
0.0121848
0.0124259
0.01365
0.0160719
0.0190705
0.0221504
0.0253538
0.0278745
0.0313636
0.0126387
0.0124142
0.0129065
0.0143927
0.0175737
0.0223743
0.028713
0.0374211
0.0502182
0.10139
0.0145913
0.0139861
0.0139615
0.0154129
0.0185237
0.0224856
0.0264838
0.0295733
0.0329454
0.0338033
0.0137808
0.0121916
0.0121934
0.0130885
0.0142246
0.0150774
0.0157541
0.0161594
0.0165529
0.016457
0.00976258
0.00935215
0.00962458
0.0101129
0.0105839
0.0109192
0.0111902
0.0113738
0.0115214
0.0115566
0.00761549
0.0078878
0.00827805
0.00865365
0.00896309
0.00917061
0.00932725
0.00943509
0.00950645
0.00956032
0.00710621
0.00756777
0.00797742
0.00832586
0.00849464
0.00856036
0.00859675
0.00861677
0.00862576
0.008663
0.00888043
0.00850372
0.00819864
0.00809488
0.00799519
0.00811256
0.00803853
0.008352
0.00798011
0.00828494
0.010873
0.0102916
0.00966799
0.00931674
0.00882423
0.00874614
0.00840623
0.00855604
0.00848369
0.00844774
0.0138186
0.0133491
0.0139848
0.0135078
0.0133928
0.0122788
0.0113886
0.0105618
0.010375
0.00936679
0.0156598
0.0150054
0.0160148
0.0172862
0.0262543
0.0347032
0.0279819
0.0185447
0.0157371
0.0124365
0.0174486
0.0171005
0.0176878
0.0179829
0.0190339
0.0204908
0.0173684
0.0184889
0.0149349
0.0141874
0.0162086
0.0170245
0.0175378
0.0180916
0.0173332
0.016984
0.0157141
0.0153919
0.0144949
0.0135982
0.0124585
0.0130047
0.0130677
0.0135593
0.0131506
0.0135222
0.0131081
0.0134762
0.0131422
0.013366
0.0090609
0.00913013
0.00909347
0.00920763
0.00916795
0.00934335
0.00935281
0.00971074
0.00959067
0.0101854
0.00725987
0.00724594
0.00724695
0.00726356
0.00729664
0.00734148
0.00741755
0.00746558
0.0075858
0.00767892
0.00639863
0.0064165
0.00644872
0.00648687
0.00654312
0.00658852
0.00667186
0.00671294
0.00681717
0.0068421
0.00784536
0.00964348
0.0127725
0.0168711
0.0185442
0.0200993
0.0248017
0.0157265
0.00887155
0.00658469
0.00803603
0.00829953
0.00916904
0.0109194
0.0127863
0.0137028
0.0148513
0.0136358
0.00872647
0.00654132
0.00847957
0.00825013
0.00859871
0.00965155
0.011136
0.0120213
0.0124445
0.0116221
0.0084057
0.00646454
0.00883462
0.00839033
0.00856872
0.00939298
0.0106572
0.0115023
0.0117168
0.010721
0.00809299
0.00638043
0.00902827
0.008546
0.00867795
0.00943533
0.0106535
0.011535
0.0116238
0.0102644
0.00783989
0.00631123
0.00908468
0.00866841
0.00883051
0.00963591
0.0109806
0.0120151
0.0118847
0.00996252
0.00763839
0.00626984
0.009049
0.00872781
0.00897503
0.0099288
0.0115558
0.0128383
0.0121981
0.00965123
0.00748041
0.00626196
0.008952
0.00875017
0.00912636
0.0102863
0.0122465
0.0136319
0.012137
0.00929369
0.00736548
0.00629119
0.00875031
0.00872034
0.00927379
0.0106435
0.0127434
0.0136839
0.0115703
0.0089335
0.00729258
0.00636025
0.00851439
0.00866986
0.00941258
0.0109275
0.0127381
0.0128602
0.0107804
0.00861506
0.00726369
0.00647522
0.014416
0.0145018
0.0145658
0.0145068
0.0142982
0.0140406
0.01383
0.0134935
0.0119483
0.00867625
0.0143003
0.0143236
0.0144297
0.0143998
0.0141845
0.0139159
0.0137116
0.0132874
0.0113086
0.00814658
0.0142018
0.0141713
0.0143406
0.0143457
0.0141211
0.0138424
0.0136492
0.0131315
0.0107766
0.00775333
0.01398
0.013893
0.0141606
0.014242
0.014046
0.0137914
0.0136344
0.0130236
0.0103364
0.00745211
0.013882
0.0137976
0.0141993
0.014363
0.014164
0.0138907
0.0137284
0.0129514
0.0099514
0.00721253
0.0138196
0.0136474
0.0141721
0.0144173
0.0142513
0.0140416
0.0139588
0.0130196
0.00966245
0.00702833
0.0128911
0.0128463
0.0136304
0.0142777
0.0143896
0.0142814
0.0141653
0.0128864
0.00934999
0.00687217
0.0138852
0.0140695
0.0155327
0.0163081
0.0159676
0.0155323
0.0154126
0.0134376
0.00919326
0.0067659
0.0116595
0.0110827
0.0119451
0.0133727
0.0144742
0.0151482
0.0152734
0.0129907
0.00896678
0.00667512
0.0136785
0.0187165
0.0192125
0.021931
0.0272766
0.0272628
0.0214394
0.0137664
0.0088204
0.00661021
0.0171058
0.039367
0.0255705
0.0609715
0.064287
0.0442345
0.0296277
0.0221979
0.0151035
0.01345
0.0168509
0.0384562
0.0248869
0.0517252
0.0699175
0.0512454
0.0317242
0.0222096
0.015267
0.0133591
0.0165918
0.0373647
0.0240169
0.0444191
0.0730836
0.0602437
0.0347182
0.0223724
0.015553
0.013288
0.0162992
0.0359018
0.0229976
0.0404421
0.0840791
0.0686139
0.0385353
0.0228922
0.0160955
0.0131745
0.0159683
0.0338143
0.0222357
0.041491
0.11817
0.0698655
0.040901
0.0236654
0.0166263
0.0133965
0.0156896
0.032046
0.0227938
0.0532547
0.149535
0.0573186
0.0364818
0.0226369
0.0167811
0.0126469
0.0154215
0.0320253
0.0251289
0.0949109
0.0509976
0.0353226
0.0278648
0.0214993
0.0163034
0.0136476
0.01529
0.0302577
0.0269706
0.0350477
0.022702
0.020289
0.0184549
0.0163309
0.014161
0.0125236
0.0152324
0.0244058
0.0237352
0.0199367
0.0164543
0.0155439
0.0148131
0.0139858
0.012845
0.0116283
0.0154541
0.0191039
0.018706
0.0161939
0.0141702
0.0133581
0.0128403
0.0121421
0.0116191
0.0127048
0.0155511
0.0166697
0.0173772
0.0152775
0.0136131
0.0127804
0.0119981
0.0115097
0.0103487
0.0112691
0.0155518
0.0152488
0.0186256
0.0158916
0.01419
0.0132561
0.0121544
0.0119252
0.0100733
0.0109868
0.0157833
0.0141272
0.021822
0.0181074
0.0160577
0.01462
0.0136245
0.0121205
0.0113576
0.0113763
0.0163834
0.0133809
0.0227281
0.0218924
0.0199013
0.0175279
0.0163214
0.0132682
0.013261
0.0120216
0.017344
0.0130364
0.0208883
0.0241426
0.0247252
0.0211118
0.020289
0.0141734
0.0154333
0.0129228
0.0185753
0.0129982
0.0192725
0.0232332
0.0258201
0.0248369
0.0211702
0.016268
0.0155558
0.0130403
0.0205695
0.0134302
0.0167779
0.0172869
0.0171218
0.0176363
0.015978
0.017412
0.0135706
0.0127875
0.0229815
0.0138285
0.0125961
0.0121806
0.0117906
0.0117204
0.0114743
0.0116222
0.0108752
0.0107299
0.0189386
0.0118218
0.0100569
0.00986061
0.00958552
0.00942977
0.0093243
0.00902754
0.00896865
0.00849441
0.00836565
0.00799173
0.0090219
0.00858029
0.00844331
0.00824374
0.00807091
0.00773397
0.00760794
0.0070898
0.00952723
0.0111899
0.012488
0.0128779
0.012559
0.0118652
0.0111477
0.0105374
0.00993651
0.00939782
0.0111473
0.0115816
0.0118727
0.0119036
0.012075
0.0125131
0.0128088
0.012594
0.0121182
0.0115137
0.0116326
0.0118548
0.0121669
0.012187
0.0122411
0.012747
0.0137236
0.0144531
0.0145963
0.014121
0.0128896
0.0132036
0.0135567
0.0134433
0.0133571
0.0139368
0.0153631
0.0168645
0.0171981
0.0162537
0.0131378
0.0132598
0.0133395
0.0132385
0.0134232
0.0143676
0.0162702
0.018144
0.0185523
0.0177895
0.0132156
0.0135544
0.0140304
0.0143277
0.0148527
0.0158299
0.0166112
0.0163137
0.015761
0.0157671
0.0124493
0.0123494
0.0125323
0.0127348
0.0127752
0.0126295
0.0123302
0.0120341
0.0119199
0.012146
0.0102063
0.00994784
0.00982537
0.00977533
0.00965545
0.00944608
0.00923118
0.00909082
0.00902772
0.00904774
0.00831687
0.00815083
0.00799753
0.00789497
0.00780019
0.00766886
0.00752697
0.00741596
0.00734078
0.00729107
0.00695486
0.00684298
0.00675207
0.00668926
0.00662832
0.00655758
0.00649074
0.00644005
0.00640869
0.00639509
0.00637972
0.00711962
0.00865221
0.0136865
0.210183
0.0194127
0.0120615
0.0101118
0.00908306
0.00834312
0.00648411
0.00707727
0.00834744
0.0121216
0.0381921
0.0228241
0.0128872
0.0101112
0.00895313
0.00827621
0.00664532
0.00708975
0.00809944
0.0107014
0.0184185
0.0211867
0.0137422
0.0105499
0.00917511
0.00844118
0.00687239
0.00716305
0.00795105
0.00976274
0.0134286
0.0163855
0.0139027
0.0112606
0.00977956
0.008916
0.00717054
0.00730609
0.00792168
0.00924198
0.0113597
0.0131629
0.0129439
0.0116775
0.0105796
0.0097732
0.00753994
0.0075299
0.0080207
0.00903503
0.0103907
0.0114479
0.0117076
0.0114295
0.0110804
0.0108579
0.00796292
0.00784185
0.00825197
0.00906822
0.00998423
0.0105962
0.0108335
0.0109106
0.0110781
0.0115381
0.00841791
0.00825555
0.00862764
0.00930721
0.00993049
0.0102553
0.0103843
0.0105371
0.0109487
0.0117014
0.00888054
0.00878427
0.00916402
0.00973571
0.0101333
0.0102636
0.0103068
0.0104688
0.0109826
0.0116146
0.00937062
0.00947813
0.0099307
0.0103975
0.0105529
0.0104687
0.0103676
0.0103875
0.0107018
0.0114902
0.00987241
0.0103698
0.0110645
0.0115356
0.0115096
0.0112627
0.0111362
0.01128
0.0117022
0.0138155
0.0103784
0.0114321
0.0125455
0.013128
0.0130146
0.0127371
0.012775
0.0133265
0.0139152
0.0150171
0.0108961
0.0127361
0.014581
0.0153546
0.0151392
0.014838
0.0149877
0.0156708
0.0159
0.015763
0.0113216
0.0142922
0.0176087
0.0186891
0.0181464
0.0175586
0.0174544
0.017748
0.0173439
0.0163997
0.0115363
0.0160165
0.0226152
0.0243105
0.0226451
0.0209373
0.0199401
0.0194799
0.0185285
0.0170988
0.0115037
0.0177061
0.0331353
0.0389373
0.0307838
0.0248845
0.0221464
0.0208181
0.0194094
0.017587
0.0112403
0.0189054
0.0523384
0.125306
0.0399835
0.0270437
0.0233663
0.021556
0.0197797
0.0176331
0.0108335
0.0196016
0.0502416
0.063927
0.03774
0.0268843
0.0233964
0.0214931
0.0194456
0.0171415
0.0103799
0.0198524
0.0385616
0.0404486
0.0319771
0.0255608
0.0226603
0.0206773
0.0184476
0.0162447
0.00996099
0.0198076
0.0332232
0.032586
0.0279107
0.0240151
0.0217231
0.0197017
0.0173721
0.0152801
0.0136455
0.0168463
0.022631
0.035547
0.0365838
0.0374504
0.0395875
0.0454693
0.0499846
0.0695024
0.0136765
0.0179475
0.0225931
0.0310354
0.0335048
0.0360054
0.0388801
0.0454379
0.0528221
0.0829596
0.0136495
0.0187529
0.0230218
0.0310101
0.0319617
0.034456
0.0375275
0.0437709
0.051474
0.081528
0.0139086
0.0185829
0.022408
0.0289424
0.0295151
0.0319698
0.0351747
0.0410181
0.0483613
0.0743399
0.0141111
0.0173487
0.0211943
0.0262925
0.0275449
0.030079
0.033362
0.0386185
0.0450708
0.0660815
0.014354
0.0159031
0.0197668
0.0242287
0.026555
0.0294647
0.0329596
0.0378856
0.0432992
0.0604836
0.0145701
0.0147474
0.0187454
0.022976
0.0263351
0.029893
0.0338245
0.0387875
0.043375
0.0584977
0.0146201
0.0140242
0.0180571
0.0221443
0.0264158
0.0307698
0.0353959
0.0406804
0.0447132
0.0591347
0.014577
0.0137167
0.0175881
0.021639
0.0265316
0.0318255
0.0372561
0.0431131
0.046715
0.0611813
0.0144474
0.0136293
0.017231
0.0213775
0.0266061
0.0329678
0.0392941
0.0459949
0.049169
0.0641111
0.00910043
0.0109094
0.0113136
0.0115296
0.0111144
0.0107514
0.0104794
0.0102412
0.0101472
0.0101056
0.00997513
0.0114887
0.0121961
0.0123555
0.0121602
0.0118743
0.011649
0.0114351
0.011362
0.0112326
0.0135915
0.0145247
0.016996
0.0166464
0.0158869
0.015262
0.01484
0.0144705
0.0142729
0.0139452
0.0213493
0.0193826
0.0364796
0.0354845
0.0266798
0.0241205
0.0229408
0.0222192
0.0214204
0.0206916
0.0157703
0.0172759
0.0304767
0.0638312
0.0388983
0.0356552
0.0353491
0.0370091
0.0363664
0.0385821
0.00687123
0.00703043
0.00723312
0.00743855
0.00761871
0.00774037
0.00783581
0.0079333
0.00810318
0.00828308
0.00713923
0.00726548
0.00744062
0.00762435
0.00782729
0.00806639
0.00836444
0.00879195
0.00911685
0.00971302
0.00739378
0.0074829
0.00764386
0.00786126
0.00820048
0.00875683
0.00962182
0.0110157
0.0120399
0.0161396
0.0076486
0.007696
0.00785559
0.00814714
0.00868991
0.00968228
0.0113932
0.0141355
0.0160644
0.0328597
0.00791524
0.00792602
0.00811072
0.00851568
0.00926268
0.010466
0.0118628
0.0132738
0.0136694
0.0174315
0.0126285
0.0133057
0.0147052
0.0153794
0.0152084
0.0146563
0.0140002
0.0128695
0.0109571
0.00870279
0.0141201
0.0142603
0.0148022
0.0149272
0.0147322
0.014344
0.0138155
0.0129694
0.0115692
0.00937694
0.0139174
0.0140578
0.0145212
0.0146646
0.0146037
0.0144185
0.0140705
0.013454
0.0125071
0.0104274
0.0142034
0.0144633
0.0148349
0.0148599
0.0147239
0.0145169
0.0141991
0.0137833
0.0135206
0.0121206
0.0143958
0.0146361
0.0148699
0.0148133
0.0146286
0.0143983
0.0141305
0.0140102
0.0148293
0.0159928
0.0145748
0.0148068
0.0149271
0.0147948
0.0145421
0.0142592
0.0140307
0.014202
0.0162014
0.0241691
0.0146154
0.0148475
0.0149162
0.0147788
0.0145328
0.0142648
0.0140977
0.0144107
0.0161412
0.0176683
0.0146032
0.0148356
0.0148912
0.0147801
0.0145688
0.0143416
0.0141996
0.0143329
0.0148784
0.0126908
0.0145694
0.0147712
0.0148168
0.0147242
0.0145277
0.014306
0.0141369
0.0140577
0.0136935
0.0105943
0.0144984
0.0146469
0.0146932
0.0146162
0.0144177
0.0141797
0.0139806
0.0137504
0.0127272
0.00942993
0.00863623
0.00960218
0.0106766
0.0117766
0.0136046
0.0178997
0.012513
0.00895912
0.00721604
0.00632545
0.00924598
0.0105803
0.0117394
0.0123349
0.0126174
0.0129562
0.0124052
0.00934436
0.00734965
0.00631203
0.0104737
0.0124021
0.0131688
0.0126866
0.0122141
0.0121029
0.0115959
0.00952037
0.00751295
0.00634455
0.0127553
0.0148876
0.0142537
0.0128117
0.0118293
0.0113785
0.0110469
0.00967705
0.00771744
0.00642653
0.0156775
0.0164365
0.0145776
0.0128317
0.0117272
0.0111538
0.0108217
0.00980347
0.00795293
0.00655458
0.0178269
0.0174944
0.0147946
0.0128702
0.0117463
0.0111236
0.0107685
0.00994846
0.0082285
0.00673251
0.0207591
0.0177609
0.014164
0.0125428
0.0116988
0.0111668
0.0108334
0.0101488
0.00856031
0.00696924
0.0180175
0.014106
0.0123358
0.0117881
0.0115039
0.0112237
0.0109971
0.0104417
0.00896993
0.00727467
0.0127609
0.0114282
0.0111421
0.0112989
0.0114289
0.011408
0.011347
0.0109239
0.00950715
0.0076683
0.0102437
0.0106473
0.0112937
0.0119327
0.0122436
0.0123131
0.0123307
0.0118565
0.0102375
0.00816087
0.0225427
0.0405271
0.0241729
0.031087
0.0292731
0.0295676
0.0327409
0.0259535
0.0215371
0.0149009
0.0215682
0.0366433
0.0233393
0.0311975
0.0292536
0.0288177
0.0298885
0.0243942
0.0226024
0.0140606
0.0206714
0.0367342
0.0239275
0.0345798
0.0305456
0.0292364
0.0296356
0.0252469
0.0228255
0.0140638
0.0199872
0.0374016
0.0249133
0.0392783
0.031873
0.0292368
0.0286252
0.0250612
0.0216285
0.0142725
0.0194042
0.0381419
0.0257526
0.0437725
0.0329046
0.0290382
0.0272191
0.0242841
0.019641
0.0142959
0.0188894
0.0390742
0.0263858
0.0488372
0.0343319
0.0294124
0.026191
0.0234656
0.0176575
0.0142427
0.018431
0.0398545
0.0267532
0.0561547
0.0369761
0.0307244
0.0258807
0.0230171
0.0163673
0.0140425
0.0180261
0.0402898
0.0267679
0.0657775
0.0412575
0.0328444
0.0261581
0.022599
0.0156238
0.0138127
0.0176765
0.040349
0.0265054
0.0723262
0.0474598
0.0356059
0.0268571
0.0223268
0.0152446
0.0136621
0.0173756
0.0400287
0.0260976
0.0696351
0.0556197
0.0392265
0.0280205
0.0222401
0.0150931
0.0135503
0.00757388
0.00770528
0.00971306
0.00926164
0.0097377
0.0100131
0.0103105
0.0101804
0.0101282
0.00877973
0.0135134
0.0109706
0.0102529
0.0108566
0.0109775
0.0113783
0.0118221
0.0119299
0.0122654
0.0109428
0.0191884
0.0168705
0.0129026
0.0136688
0.0136791
0.0143619
0.0153091
0.0167867
0.0169426
0.0154531
0.0216194
0.0322194
0.0197809
0.0206578
0.0200614
0.0216268
0.0251044
0.0395833
0.0282706
0.0159114
0.023138
0.0471389
0.0261629
0.0300449
0.0278651
0.029298
0.0364596
0.040135
0.0250043
0.0143777
0.00833794
0.00791636
0.00751397
0.00718006
0.00692694
0.00675884
0.00666708
0.00663505
0.00666217
0.00674297
0.0101759
0.00944639
0.00878787
0.00825724
0.00781289
0.00746481
0.00722182
0.00707632
0.00702396
0.00704996
0.0132691
0.0118743
0.0107102
0.00989734
0.00914454
0.00845941
0.00793239
0.00758913
0.00740972
0.00735638
0.0165294
0.0152466
0.0140264
0.0128232
0.0115231
0.0101039
0.00894949
0.00823415
0.00785132
0.00768321
0.0152134
0.0232042
0.0234222
0.0180039
0.01487
0.0125857
0.0105064
0.00916006
0.00842283
0.0080573
)
;

boundaryField
{
    left
    {
        type            calculated;
        value           nonuniform List<scalar> 
35
(
0.0117726
0.0122088
0.0125988
0.0128003
0.0128669
0.0128932
0.0129291
0.012742
0.0119206
0.00814127
0.0117403
0.0116595
0.0115801
0.0114992
0.0114216
0.0113759
0.0113366
0.0113483
0.0113911
0.0115544
0.0131988
0.0129858
0.0127899
0.0126153
0.0124506
0.0122962
0.0121546
0.0120296
0.0119205
0.0118258
0.00746984
0.011216
0.012704
0.0131489
0.0133477
)
;
    }
    right
    {
        type            calculated;
        value           nonuniform List<scalar> 
35
(
0.0101067
0.0112366
0.0139707
0.0208637
0.0405418
0.0853771
0.114859
0.115863
0.103686
0.088371
0.0786803
0.0759759
0.0782332
0.0834962
0.0912157
0.102712
0.119161
0.130982
0.111078
0.0688335
0.0392648
0.0248728
0.0177292
0.0149204
0.0138225
0.0141182
0.0158552
0.0197307
0.0336012
0.158677
0.0328852
0.0164109
0.0115565
0.00956249
0.00866364
)
;
    }
    down
    {
        type            calculated;
        value           nonuniform List<scalar> 
40
(
0.0066323
0.00695104
0.00990309
0.00869951
0.00933338
0.00956453
0.00982333
0.00963381
0.00945005
0.00816407
0.00778485
0.00744047
0.00709944
0.00682144
0.00662051
0.00650112
0.00645172
0.00645236
0.00650255
0.00660039
0.00674299
0.0069171
0.00713714
0.00736913
0.00757157
0.00768157
0.0077246
0.00773896
0.00783454
0.0080005
0.00905156
0.0112121
0.0114265
0.0116471
0.0109928
0.0105284
0.0101966
0.00991955
0.00980172
0.00979397
)
;
    }
    up
    {
        type            calculated;
        value           nonuniform List<scalar> 
40
(
0.00712655
0.00766502
0.00806753
0.00841175
0.00847762
0.00844549
0.00841166
0.00838461
0.00836682
0.00839216
0.00614789
0.00618108
0.00622492
0.00627797
0.00633782
0.00640411
0.00647653
0.00654505
0.0066409
0.00666836
0.00651605
0.00641655
0.00634719
0.00630676
0.00626499
0.00621274
0.00616502
0.00613371
0.00612175
0.0061273
0.00714111
0.00713904
0.00884504
0.00814515
0.00804818
0.00783272
0.00763204
0.00730573
0.00714119
0.00665187
)
;
    }
    cylinder
    {
        type            calculated;
        value           nonuniform List<scalar> 
80
(
0.00813549
0.00788535
0.00768846
0.00753527
0.00742689
0.00736365
0.007379
0.00750454
0.00776802
0.00816586
0.00876136
0.00978285
0.011966
0.0184078
0.0156549
0.00983949
0.00810004
0.00726185
0.00676809
0.00644816
0.00610289
0.00607236
0.00602139
0.00596776
0.00592767
0.00591373
0.00593197
0.00598662
0.0060831
0.00623088
0.00773986
0.00731621
0.00700432
0.00676664
0.0065791
0.00643488
0.0063153
0.00623364
0.00616649
0.00612117
0.00797245
0.00856378
0.00950534
0.0111438
0.0154769
0.0267858
0.0161177
0.0111588
0.00931993
0.00835112
0.00606583
0.00601819
0.00601946
0.00607033
0.00616617
0.00630884
0.00650482
0.00676156
0.00709394
0.00750969
0.0061596
0.0063108
0.00653232
0.00684122
0.00724833
0.00774931
0.00829347
0.00880137
0.00920183
0.00952564
0.0097885
0.0100314
0.0102748
0.0104158
0.0103617
0.0101249
0.00975855
0.00929764
0.0088347
0.00845402
)
;
    }
    defaultFaces
    {
        type            empty;
    }
}


// ************************************************************************* //
