/*--------------------------------*- C++ -*----------------------------------*\
| =========                 |                                                 |
| \\      /  F ield         | OpenFOAM: The Open Source CFD Toolbox           |
|  \\    /   O peration     | Version:  2406                                  |
|   \\  /    A nd           | Website:  www.openfoam.com                      |
|    \\/     M anipulation  |                                                 |
\*---------------------------------------------------------------------------*/
FoamFile
{
    version     2.0;
    format      ascii;
    arch        "LSB;label=32;scalar=64";
    class       volScalarField;
    location    "0.3";
    object      p;
}
// * * * * * * * * * * * * * * * * * * * * * * * * * * * * * * * * * * * * * //

dimensions      [0 2 -2 0 0 0 0];

internalField   nonuniform List<scalar> 
1800
(
-1.96081
-1.95319
-1.95229
-1.9547
-1.9607
-1.97073
-1.98585
-2.00602
-2.03115
-2.06227
-2.05427
-2.04893
-2.04826
-2.05101
-2.05663
-2.06664
-2.08154
-2.10105
-2.12532
-2.15518
-2.14306
-2.13978
-2.14064
-2.14339
-2.14946
-2.16076
-2.17784
-2.20037
-2.22792
-2.2613
-2.2276
-2.21952
-2.21918
-2.22065
-2.22536
-2.23559
-2.25205
-2.27443
-2.30197
-2.33487
-2.29562
-2.28423
-2.28174
-2.28107
-2.28334
-2.2911
-2.30529
-2.32565
-2.35114
-2.38145
-2.34372
-2.33107
-2.32618
-2.32226
-2.32056
-2.32386
-2.33317
-2.34815
-2.36741
-2.38997
-2.37563
-2.36164
-2.35346
-2.34515
-2.33833
-2.33589
-2.33883
-2.3466
-2.35745
-2.36926
-2.39068
-2.37507
-2.36289
-2.34938
-2.33672
-2.32786
-2.32358
-2.32289
-2.32354
-2.32248
-2.3867
-2.36942
-2.35293
-2.33398
-2.31559
-2.30061
-2.28942
-2.28048
-2.27125
-2.2584
-2.36068
-2.34177
-2.32108
-2.29703
-2.2735
-2.25296
-2.23523
-2.21839
-2.19985
-2.17627
-0.790926
-0.79469
-0.792779
-0.78543
-0.774517
-0.762127
-0.74855
-0.733531
-0.716974
-0.698118
-0.887161
-0.890448
-0.88834
-0.881214
-0.870962
-0.859424
-0.84662
-0.832299
-0.816391
-0.797974
-0.995187
-0.997763
-0.99559
-0.989087
-0.980004
-0.970025
-0.95891
-0.946365
-0.932238
-0.915486
-1.11339
-1.11491
-1.11261
-1.10706
-1.0997
-1.09194
-1.08352
-1.07442
-1.06473
-1.05352
-1.23976
-1.23973
-1.23716
-1.23263
-1.22727
-1.22164
-1.21554
-1.20904
-1.20218
-1.19179
-1.37129
-1.36947
-1.36696
-1.3635
-1.36061
-1.35748
-1.35428
-1.35124
-1.34779
-1.34039
-1.50419
-1.50002
-1.49858
-1.49728
-1.49687
-1.49647
-1.49659
-1.49772
-1.49889
-1.4962
-1.633
-1.62715
-1.62726
-1.62853
-1.63077
-1.63375
-1.63812
-1.6446
-1.65254
-1.65443
-1.75286
-1.74578
-1.74684
-1.75024
-1.75484
-1.76151
-1.77065
-1.78231
-1.79572
-1.80172
-1.8612
-1.85344
-1.85409
-1.85823
-1.86295
-1.87138
-1.88382
-1.90001
-1.91824
-1.92944
-0.572056
-0.351627
-0.217781
-0.118159
-0.0631627
-0.0274006
-0.00827107
0.00198967
0.00670176
0.00194089
-0.650534
-0.385883
-0.227859
-0.116414
-0.057069
-0.0210904
-0.00291538
0.00587096
0.00915431
0.00269468
-0.74438
-0.426221
-0.240056
-0.114689
-0.0504331
-0.0141444
0.0030121
0.0102123
0.0118894
0.00350284
-0.854866
-0.472182
-0.253649
-0.11238
-0.0428157
-0.006213
0.00979037
0.0152659
0.015069
0.0044705
-0.986259
-0.524028
-0.267802
-0.108735
-0.0336451
0.00306994
0.0176552
0.0212037
0.0188605
0.00580218
-1.13461
-0.585601
-0.283377
-0.104057
-0.0230192
0.0135259
0.0263925
0.0278371
0.0232146
0.00757979
-1.29566
-0.663506
-0.304285
-0.101018
-0.01268
0.0239377
0.0351392
0.0345521
0.0277709
0.00966061
-1.46156
-0.759881
-0.335533
-0.103383
-0.00519713
0.0325947
0.0427279
0.0405066
0.0319513
0.0117407
-1.61589
-0.872136
-0.381496
-0.115263
-0.0038622
0.0370681
0.0474625
0.044541
0.034984
0.0134453
-1.74747
-0.981319
-0.435251
-0.134611
-0.00842115
0.0367913
0.04849
0.0458092
0.0361529
0.0143761
-1.88113
-1.03712
-0.456303
-0.14263
-0.0115287
0.0343296
0.0465922
0.0443106
0.0351946
0.0143596
-1.82869
-1.04349
-0.481215
-0.170799
-0.0374669
0.0137473
0.0317371
0.0341065
0.0284863
0.0118624
-1.72644
-1.00802
-0.486034
-0.194717
-0.0641953
-0.00982432
0.013998
0.0220271
0.0205909
0.00873116
-1.52923
-0.941529
-0.500773
-0.231748
-0.0980836
-0.0367029
-0.00511655
0.00971741
0.0130494
0.00610071
-1.38101
-0.896349
-0.520228
-0.274871
-0.136309
-0.0652971
-0.024977
-0.00292411
0.00660545
0.00441265
-1.244
-0.844611
-0.537602
-0.319412
-0.176465
-0.0948341
-0.0458561
-0.0171814
-0.00236882
0.000179718
-1.13073
-0.815859
-0.566796
-0.368772
-0.21978
-0.125654
-0.067316
-0.0318397
-0.0115128
-0.00314091
-1.04112
-0.801543
-0.596402
-0.410457
-0.255606
-0.149659
-0.0827335
-0.0415028
-0.0168615
-0.00463257
-0.979438
-0.798264
-0.61485
-0.433069
-0.274654
-0.162323
-0.0905243
-0.0461692
-0.0192149
-0.00525663
-0.966124
-0.823751
-0.6349
-0.446099
-0.287062
-0.169794
-0.0953825
-0.0492377
-0.0210671
-0.00614292
-2.11124
-2.20909
-2.29067
-2.35896
-2.40045
-2.41934
-2.3923
-2.34457
-2.24857
-2.18673
-1.95374
-2.05898
-2.15385
-2.24074
-2.30796
-2.35864
-2.36754
-2.3498
-2.28111
-2.20384
-1.77561
-1.87281
-1.95828
-2.03629
-2.09897
-2.15122
-2.17429
-2.17358
-2.1434
-2.09792
-1.60221
-1.68633
-1.7604
-1.82457
-1.87163
-1.90993
-1.92943
-1.93302
-1.90997
-1.87455
-1.4387
-1.51428
-1.58017
-1.63595
-1.67546
-1.70348
-1.71099
-1.70133
-1.676
-1.63997
-1.29048
-1.36146
-1.42302
-1.47413
-1.50698
-1.52454
-1.52346
-1.51019
-1.4837
-1.45071
-1.15899
-1.22838
-1.28839
-1.33565
-1.3667
-1.38008
-1.37701
-1.36421
-1.3354
-1.30191
-1.04937
-1.12007
-1.18117
-1.22775
-1.26008
-1.27061
-1.2709
-1.25394
-1.22135
-1.18748
-0.988544
-1.05715
-1.11557
-1.16032
-1.1931
-1.20192
-1.20426
-1.18293
-1.14838
-1.10889
-0.975467
-1.04469
-1.10317
-1.14977
-1.17756
-1.19141
-1.1891
-1.16768
-1.14006
-1.0888
-0.650088
-0.710268
-0.759668
-0.796141
-0.825924
-0.853853
-0.87931
-0.900755
-0.919133
-0.931513
-0.901389
-0.952586
-0.988074
-1.01299
-1.03544
-1.05852
-1.08183
-1.1018
-1.11769
-1.12688
-1.11665
-1.1617
-1.19265
-1.2141
-1.23321
-1.25318
-1.27433
-1.29401
-1.30989
-1.31775
-1.2799
-1.3251
-1.35878
-1.38403
-1.40633
-1.42865
-1.45168
-1.47382
-1.49254
-1.50159
-1.42356
-1.47127
-1.50832
-1.53793
-1.56479
-1.5913
-1.61787
-1.64331
-1.66556
-1.678
-1.56659
-1.61429
-1.65248
-1.68467
-1.71494
-1.74496
-1.77472
-1.80317
-1.82823
-1.84465
-1.70752
-1.75337
-1.79073
-1.82367
-1.85562
-1.88758
-1.9192
-1.94989
-1.97684
-1.99571
-1.84094
-1.88426
-1.91981
-1.95194
-1.98342
-2.0151
-2.04694
-2.0782
-2.10566
-2.12619
-1.96414
-2.00346
-2.03607
-2.06538
-2.09392
-2.12318
-2.15361
-2.18415
-2.21075
-2.23164
-2.07809
-2.11045
-2.13686
-2.16062
-2.18424
-2.20957
-2.23716
-2.26525
-2.28947
-2.30968
0.587967
0.575275
0.563821
0.553601
0.544578
0.5367
0.529981
0.52502
0.524026
0.532343
0.521183
0.506561
0.493314
0.481378
0.470716
0.461234
0.452965
0.446724
0.444761
0.451891
0.440314
0.423697
0.408481
0.394616
0.382099
0.370784
0.360715
0.352906
0.349631
0.355266
0.344967
0.326023
0.308585
0.292611
0.278106
0.26483
0.252808
0.24323
0.238391
0.242297
0.237756
0.216803
0.196751
0.178032
0.160889
0.145055
0.130567
0.118754
0.111878
0.113631
0.109738
0.0856704
0.063657
0.0434103
0.0247851
0.00734361
-0.00887372
-0.0223828
-0.0309919
-0.0313138
-0.015792
-0.0405344
-0.0664399
-0.0917374
-0.115199
-0.136978
-0.157029
-0.173913
-0.185552
-0.188696
-0.183241
-0.212789
-0.239439
-0.263614
-0.286048
-0.30728
-0.327166
-0.344297
-0.35718
-0.362628
-0.322323
-0.349193
-0.379893
-0.411903
-0.442819
-0.471564
-0.497438
-0.519083
-0.535166
-0.542794
-0.499477
-0.537851
-0.574142
-0.606365
-0.634785
-0.660483
-0.683778
-0.705116
-0.723542
-0.734554
1.09367
0.837191
0.998731
0.878386
0.856473
0.839587
0.808915
0.782913
0.755807
0.659546
1.09105
0.834672
0.995491
0.874218
0.854089
0.835321
0.803052
0.770933
0.73732
0.614829
1.08956
0.832064
0.992341
0.869147
0.851216
0.830984
0.796526
0.756547
0.714816
0.559645
1.08935
0.829166
0.988991
0.863127
0.848305
0.826777
0.789615
0.740309
0.689053
0.494303
1.09059
0.825712
0.985085
0.856404
0.845772
0.822536
0.782424
0.722801
0.659411
0.417994
1.09349
0.821449
0.980363
0.850554
0.84304
0.817453
0.774906
0.7045
0.628444
0.331624
1.09833
0.81576
0.974799
0.847155
0.838203
0.811537
0.767515
0.685787
0.591228
0.230536
1.10546
0.808066
0.969314
0.843373
0.831464
0.806007
0.76092
0.666937
0.556339
0.120089
1.11489
0.799329
0.964229
0.838022
0.824568
0.801138
0.753675
0.646209
0.513586
-0.0137993
1.12632
0.791545
0.959993
0.833192
0.818853
0.796633
0.745907
0.624501
0.461483
-0.154034
1.14278
0.787614
0.960288
0.83428
0.811738
0.789444
0.736036
0.599543
0.43339
-0.28085
1.16598
0.794419
0.970146
0.840756
0.803067
0.776271
0.721944
0.572091
0.413016
-0.255908
1.18468
0.808279
0.98602
0.847384
0.79259
0.757874
0.698069
0.538422
0.38629
-0.212958
1.19782
0.82389
1.00167
0.851815
0.780773
0.735779
0.670135
0.500094
0.35789
-0.163871
1.20645
0.83575
1.01051
0.851751
0.768544
0.714067
0.639767
0.465613
0.329758
-0.121576
1.21148
0.841197
1.0091
0.845861
0.757819
0.695526
0.611951
0.439033
0.298235
-0.0731095
1.21408
0.839433
0.9967
0.8338
0.748878
0.681909
0.589642
0.422457
0.267041
-0.0262926
1.22078
0.838192
0.976796
0.817939
0.742069
0.672415
0.571771
0.415143
0.239843
0.0113097
1.22804
0.839373
0.957611
0.803018
0.738131
0.665565
0.558701
0.410527
0.219665
0.0381199
1.26943
0.85813
0.953523
0.797834
0.741972
0.664848
0.556906
0.411873
0.218327
0.0570932
-0.676613
-0.889163
-1.08061
-1.22439
-1.35392
-1.49035
-1.62696
-1.75675
-1.88204
-2.00239
-0.674693
-0.815049
-0.949875
-1.07587
-1.20465
-1.34235
-1.47984
-1.60844
-1.72753
-1.8435
-0.642237
-0.76146
-0.868525
-0.980959
-1.10338
-1.23148
-1.3562
-1.4719
-1.5768
-1.6771
-0.58918
-0.70722
-0.800058
-0.896806
-1.00588
-1.11974
-1.22962
-1.3324
-1.42618
-1.5161
-0.520836
-0.632231
-0.714933
-0.798754
-0.89615
-0.998514
-1.09635
-1.18894
-1.27751
-1.36102
-0.430407
-0.541341
-0.630267
-0.713772
-0.804575
-0.897965
-0.985527
-1.06688
-1.14282
-1.21789
-0.331865
-0.443745
-0.547884
-0.636644
-0.720253
-0.803215
-0.880933
-0.951952
-1.01672
-1.08721
-0.253107
-0.36302
-0.475967
-0.569545
-0.643907
-0.710876
-0.774923
-0.836338
-0.904013
-0.975687
-0.21106
-0.321153
-0.435058
-0.52965
-0.603487
-0.66648
-0.7258
-0.785406
-0.848768
-0.917399
-0.193285
-0.295795
-0.396606
-0.49169
-0.576757
-0.646567
-0.705775
-0.764894
-0.830381
-0.902156
-0.500301
-0.481698
-0.453434
-0.421194
-0.389669
-0.35716
-0.329579
-0.310073
-0.295816
-0.28622
-0.560771
-0.542483
-0.515114
-0.480379
-0.450005
-0.421124
-0.393948
-0.372603
-0.357457
-0.348145
-0.595596
-0.578362
-0.553239
-0.519486
-0.486718
-0.457008
-0.431299
-0.411543
-0.397574
-0.389193
-0.605933
-0.590179
-0.567752
-0.536476
-0.503406
-0.473296
-0.448228
-0.429628
-0.416989
-0.40956
-0.595343
-0.581267
-0.561385
-0.532816
-0.501193
-0.471891
-0.447401
-0.428989
-0.416649
-0.40951
-0.569254
-0.556809
-0.538973
-0.512905
-0.483412
-0.45575
-0.432395
-0.414322
-0.401781
-0.394395
-0.534341
-0.523195
-0.506861
-0.483137
-0.456247
-0.430968
-0.409608
-0.392897
-0.380907
-0.373585
-0.498595
-0.488353
-0.473326
-0.452186
-0.428698
-0.406899
-0.388776
-0.374877
-0.365094
-0.359398
-0.468489
-0.458859
-0.445137
-0.426767
-0.407081
-0.389248
-0.374799
-0.364119
-0.357231
-0.354648
-0.448525
-0.439486
-0.427252
-0.411786
-0.39601
-0.382287
-0.3718
-0.364973
-0.361855
-0.363077
-0.439282
-0.431092
-0.42053
-0.407833
-0.39541
-0.384714
-0.376332
-0.370459
-0.365618
-0.357491
-0.439857
-0.432569
-0.423646
-0.413543
-0.40416
-0.396153
-0.389549
-0.384487
-0.379798
-0.370337
-0.447729
-0.441367
-0.433486
-0.424941
-0.41732
-0.410617
-0.404396
-0.398715
-0.39298
-0.383397
-0.461428
-0.456245
-0.44873
-0.440671
-0.433731
-0.427254
-0.420438
-0.413389
-0.405981
-0.395582
-0.480724
-0.477598
-0.469713
-0.46133
-0.454698
-0.448038
-0.44021
-0.431516
-0.422156
-0.410267
-0.506372
-0.505389
-0.498966
-0.488884
-0.482727
-0.475473
-0.466179
-0.455635
-0.444246
-0.430654
-0.537986
-0.53856
-0.534391
-0.526262
-0.518519
-0.510169
-0.499413
-0.487375
-0.474469
-0.459559
-0.580245
-0.582473
-0.581187
-0.574206
-0.563256
-0.552584
-0.541202
-0.528545
-0.514822
-0.499578
-0.636888
-0.640305
-0.639354
-0.632409
-0.62099
-0.608782
-0.595953
-0.58178
-0.566112
-0.548432
-0.7074
-0.71123
-0.709758
-0.702554
-0.691283
-0.678621
-0.665001
-0.65002
-0.633538
-0.614984
-0.345456
-0.273811
-0.231537
-0.171696
-0.124362
-0.0826488
-0.0516419
-0.0288752
-0.0136857
-0.00441762
-0.34836
-0.2705
-0.223828
-0.162969
-0.117167
-0.0772209
-0.0479337
-0.0267585
-0.0126076
-0.00443767
-0.348244
-0.26944
-0.218765
-0.156012
-0.110424
-0.0715636
-0.0437313
-0.023892
-0.010673
-0.00385099
-0.350747
-0.270399
-0.213716
-0.149232
-0.103833
-0.0657851
-0.039307
-0.0206872
-0.00835323
-0.00293828
-0.357986
-0.271791
-0.208784
-0.142276
-0.0973196
-0.0600184
-0.0348443
-0.0173947
-0.00595873
-0.00199016
-0.370823
-0.274019
-0.204687
-0.135888
-0.0911602
-0.0544975
-0.0305329
-0.0142108
-0.00370874
-0.00118423
-0.390261
-0.27788
-0.202389
-0.130477
-0.0853826
-0.0492069
-0.0263511
-0.011147
-0.00164572
-0.000540437
-0.416931
-0.286885
-0.202466
-0.126157
-0.0798588
-0.0440148
-0.0221516
-0.00809069
0.000332192
2.71417e-05
-0.456333
-0.302137
-0.20509
-0.122829
-0.0744227
-0.0387507
-0.0178003
-0.00492801
0.00234024
0.000606312
-0.507654
-0.323722
-0.210169
-0.120243
-0.0689042
-0.0332539
-0.0132024
-0.00158598
0.00444744
0.00124072
-0.332225
-0.278126
-0.24076
-0.176515
-0.126473
-0.0834675
-0.0515519
-0.0270573
-0.0119238
-0.00374331
-0.32377
-0.27264
-0.239479
-0.176911
-0.127124
-0.084122
-0.0521087
-0.0274812
-0.0118976
-0.00351928
-0.322946
-0.269173
-0.23641
-0.17642
-0.126961
-0.0841523
-0.0520724
-0.0274682
-0.0117972
-0.00327976
-0.324149
-0.265557
-0.230665
-0.17685
-0.128439
-0.0852764
-0.0529733
-0.0283889
-0.0124704
-0.00333296
-0.334238
-0.267818
-0.228302
-0.175088
-0.128459
-0.0856628
-0.0535438
-0.0294858
-0.0135671
-0.00387126
-0.279583
-0.337928
-0.379153
-0.402902
-0.409747
-0.403065
-0.387654
-0.369231
-0.352592
-0.338977
-0.277923
-0.337144
-0.378488
-0.402195
-0.408996
-0.401947
-0.385789
-0.366256
-0.350224
-0.332208
-0.278304
-0.338261
-0.379726
-0.402981
-0.408666
-0.400048
-0.38218
-0.363047
-0.348453
-0.337325
-0.279741
-0.340682
-0.382198
-0.404532
-0.408083
-0.396558
-0.376391
-0.357618
-0.345779
-0.347973
-0.282271
-0.344211
-0.38559
-0.406599
-0.407431
-0.392665
-0.370786
-0.354062
-0.347458
-0.361954
0.582868
0.579351
0.575077
0.571967
0.569938
0.56815
0.566515
0.565731
0.567315
0.575972
0.634838
0.632886
0.62797
0.623024
0.61923
0.616348
0.614188
0.613056
0.614417
0.623122
0.667868
0.664915
0.660342
0.656168
0.653081
0.65086
0.649366
0.648742
0.650357
0.659405
0.69557
0.692713
0.688431
0.684457
0.681412
0.679196
0.677697
0.676854
0.677951
0.686869
0.713686
0.710157
0.705782
0.701895
0.698974
0.696972
0.695774
0.695089
0.695841
0.703558
0.72208
0.717642
0.7129
0.708845
0.705837
0.703905
0.702973
0.702543
0.702647
0.706905
0.719685
0.713967
0.70837
0.70358
0.699832
0.697129
0.69529
0.693872
0.693872
0.70087
0.705736
0.698469
0.691666
0.685763
0.680878
0.676987
0.673907
0.671419
0.671227
0.680514
0.679674
0.670686
0.662461
0.655249
0.649088
0.643957
0.639751
0.636564
0.636416
0.64603
0.640682
0.629868
0.620076
0.611415
0.603877
0.597432
0.592051
0.588098
0.587721
0.596902
-0.207097
-0.218692
-0.234555
-0.254159
-0.276916
-0.303673
-0.338444
-0.371025
-0.398301
-0.415547
-0.1108
-0.124573
-0.1414
-0.160704
-0.183284
-0.210179
-0.23921
-0.268441
-0.294342
-0.308734
-0.00599402
-0.0220313
-0.0390666
-0.0565247
-0.0759609
-0.0990599
-0.125338
-0.152128
-0.17543
-0.186011
0.0985383
0.0810181
0.0647441
0.0494542
0.0328157
0.0130124
-0.00976992
-0.0329115
-0.052229
-0.0587676
0.196677
0.179188
0.164559
0.15157
0.137754
0.121547
0.102969
0.084184
0.0691832
0.0667774
0.283016
0.267256
0.25504
0.244686
0.233976
0.221591
0.207384
0.193114
0.182498
0.184048
0.358321
0.346016
0.336559
0.328541
0.320508
0.311494
0.3012
0.291013
0.284323
0.289159
0.426236
0.417168
0.40937
0.402719
0.396684
0.390333
0.383192
0.376406
0.373025
0.380359
0.491134
0.482692
0.475044
0.469092
0.464239
0.459394
0.45422
0.449853
0.448934
0.45774
0.55319
0.544172
0.535883
0.529566
0.524566
0.519986
0.515743
0.512883
0.513394
0.52238
1.17406
0.86524
1.02247
0.870748
0.864449
0.844844
0.807709
0.780235
0.732459
0.657851
1.16085
0.861216
1.02285
0.875455
0.865102
0.847653
0.812563
0.786687
0.745964
0.681091
1.1489
0.858091
1.02198
0.879363
0.865579
0.849805
0.81691
0.793708
0.761672
0.70364
1.13833
0.855386
1.02024
0.882448
0.865757
0.851245
0.820262
0.79893
0.77375
0.722138
1.12902
0.852659
1.01785
0.884356
0.865264
0.851739
0.822147
0.802132
0.781886
0.735141
1.12079
0.84993
1.01512
0.885261
0.864205
0.851491
0.822784
0.803915
0.786445
0.742024
1.11356
0.847269
1.01218
0.885515
0.862843
0.850633
0.822276
0.804261
0.787791
0.741989
1.10724
0.844689
1.00905
0.88515
0.861366
0.849106
0.820634
0.80272
0.785768
0.734491
1.10181
0.842176
1.00567
0.883911
0.859868
0.846735
0.817832
0.79877
0.780021
0.718753
1.09728
0.839688
1.00216
0.881641
0.858312
0.843495
0.813888
0.792184
0.77005
0.694008
1.28149
0.882127
0.999604
0.850872
0.85768
0.829257
0.788036
0.756902
0.695272
0.620368
1.24736
0.881829
1.00375
0.852194
0.858355
0.831371
0.789371
0.757407
0.693586
0.61327
1.22676
0.878503
1.00859
0.855485
0.85891
0.833662
0.791494
0.76054
0.696013
0.612947
1.20677
0.874968
1.0145
0.861176
0.861098
0.838038
0.797667
0.767179
0.70128
0.616096
1.18898
0.870227
1.01942
0.865901
0.863166
0.84162
0.802491
0.770226
0.711797
0.619866
0.517228
0.47798
0.429645
0.366524
0.285948
0.191046
0.0885415
-0.015017
-0.115096
-0.204934
0.507877
0.468743
0.423132
0.363978
0.287701
0.19589
0.0945047
-0.00956508
-0.110945
-0.202403
0.511413
0.470562
0.423502
0.365512
0.29117
0.201078
0.100169
-0.0047121
-0.107723
-0.201128
0.522578
0.4737
0.422112
0.364393
0.292419
0.204751
0.104709
-0.000867704
-0.105582
-0.201038
0.547119
0.486156
0.424837
0.362179
0.290565
0.205563
0.107278
0.00161193
-0.104618
-0.202104
)
;

boundaryField
{
    left
    {
        type            zeroGradient;
    }
    right
    {
        type            fixedValue;
        value           uniform 0;
    }
    down
    {
        type            zeroGradient;
    }
    up
    {
        type            zeroGradient;
    }
    cylinder
    {
        type            zeroGradient;
    }
    defaultFaces
    {
        type            empty;
    }
}


// ************************************************************************* //
