/*--------------------------------*- C++ -*----------------------------------*\
| =========                 |                                                 |
| \\      /  F ield         | OpenFOAM: The Open Source CFD Toolbox           |
|  \\    /   O peration     | Version:  2406                                  |
|   \\  /    A nd           | Website:  www.openfoam.com                      |
|    \\/     M anipulation  |                                                 |
\*---------------------------------------------------------------------------*/
FoamFile
{
    version     2.0;
    format      ascii;
    arch        "LSB;label=32;scalar=64";
    class       surfaceScalarField;
    location    "0.3";
    object      phi;
}
// * * * * * * * * * * * * * * * * * * * * * * * * * * * * * * * * * * * * * //

dimensions      [0 3 -1 0 0 0 0];

oriented        oriented;

internalField   nonuniform List<scalar> 
3485
(
0.00205023
0.00615248
-0.00820271
0.00579202
0.00594506
-0.00968686
0.0122992
-0.000552517
-0.00595468
0.0210682
-0.00843913
-0.00032985
0.0313449
-0.0145968
0.00432005
0.0427974
-0.0190252
0.00757273
0.0552954
-0.0225071
0.0100091
0.0688016
-0.0259861
0.0124799
0.0833137
-0.0304332
0.0159211
-0.0356836
0.0206431
0.0983542
0.00208094
0.00407154
0.00640636
0.00161964
0.0138725
-0.00801861
0.0232155
-0.0177822
0.0335286
-0.0249099
0.0443869
-0.0298835
0.0556669
-0.0337871
0.0674637
-0.037783
0.0801018
-0.0430713
-0.0503635
0.0947817
0.00209236
0.00197919
0.0076394
-0.00392741
0.0164022
-0.0167814
0.0266537
-0.0280338
0.0376136
-0.0358698
0.0489837
-0.0412537
0.0607058
-0.0455092
0.0728955
-0.0499727
0.0859135
-0.0560893
-0.0651123
0.100662
0.00215919
-0.000180002
0.00922889
-0.0109971
0.0189782
-0.0265307
0.0298851
-0.0389407
0.0413503
-0.047335
0.0531801
-0.0530834
0.0653691
-0.0576982
0.078029
-0.0626325
0.0914331
-0.0694935
-0.0797502
0.106071
0.00289535
-0.00307535
0.0111224
-0.0192241
0.0216152
-0.0370235
0.033019
-0.0503445
0.0448672
-0.0591831
0.0570613
-0.0652775
0.0696567
-0.0702936
0.0828095
-0.0757853
0.0968301
-0.083514
-0.0950618
0.112142
0.00395707
-0.00703242
0.0128542
-0.0281212
0.0236644
-0.0478338
0.0351195
-0.0617996
0.046834
-0.0708976
0.058783
-0.0772265
0.0710808
-0.0825915
0.0839522
-0.0886566
0.0977886
-0.0973504
-0.110313
0.113039
0.0046232
-0.0116556
0.0139004
-0.0373985
0.0246726
-0.058606
0.0357168
-0.0728437
0.046754
-0.0819349
0.0578736
-0.088346
0.0693143
-0.0940322
0.0814795
-0.100822
0.094957
-0.110828
-0.12549
0.110134
0.00500022
-0.0166558
0.0142574
-0.0466557
0.0244685
-0.0688171
0.0344908
-0.082866
0.044185
-0.091629
0.0537806
-0.0979417
0.0636714
-0.103923
0.0744527
-0.111603
0.0867729
-0.123148
-0.139379
0.100662
0.00512466
-0.0217805
0.0138826
-0.0554136
0.0229616
-0.0778961
0.0314032
-0.0913076
0.0392726
-0.0994984
0.0469704
-0.10564
0.0550509
-0.112004
0.0642408
-0.120793
0.0750075
-0.133915
-0.151175
0.0868029
0.00498455
-0.026765
0.012728
-0.063157
0.0201196
-0.0852878
0.0265262
-0.0977141
0.0322691
-0.105241
0.0378905
-0.111261
0.0440164
-0.118129
0.0513021
-0.128079
0.0597868
-0.1424
0.0684502
-0.159838
-0.00113757
0.00993868
-0.0088011
-0.00236622
0.0139177
-0.0126891
-0.00351188
0.0146414
-0.0134957
-0.00447355
0.0145132
-0.0135515
-0.00513557
0.0137521
-0.0130901
-0.00552376
0.0125342
-0.012146
-0.00568707
0.01102
-0.0108567
-0.00558969
0.00915036
-0.00924774
-0.00511376
0.00665952
-0.00713545
0.00317
-0.00406513
-0.00421862
-0.00107578
0.0110145
-0.00222873
0.0150707
-0.00328648
0.0156991
-0.00416642
0.0153931
-0.00473547
0.0143212
-0.00503308
0.0128318
-0.00511095
0.0110979
-0.00493163
0.00897104
-0.00437466
0.00610255
0.00205798
-0.00326263
-0.000977332
0.0119918
-0.00194849
0.0160418
-0.00281924
0.0165699
-0.00351265
0.0160865
-0.00388031
0.0146888
-0.00398423
0.0129357
-0.00387297
0.0109866
-0.00350002
0.00859809
-0.00273039
0.00533291
0.000714391
-0.0013868
-0.000822846
0.0128146
-0.00153004
0.016749
-0.00213801
0.0171778
-0.00255377
0.0165023
-0.00264371
0.0147788
-0.00249909
0.0127911
-0.00217394
0.0106615
-0.00163445
0.0080586
-0.000748887
0.00444735
-0.000813448
0.000778952
-0.000571412
0.0133861
-0.000939262
0.0171169
-0.00122004
0.0174586
-0.00124309
0.0165253
-0.000954728
0.0144904
-0.000473712
0.0123101
0.000141528
0.0100462
0.000901848
0.00729828
0.00190849
0.0034407
-0.0023075
0.00340254
-0.00016771
0.0135538
-0.000132656
0.0170818
1.72929e-05
0.0173087
0.000555705
0.0159869
0.00138154
0.0136646
0.00235039
0.0113413
0.00341524
0.00898136
0.00456578
0.00614774
0.00587469
0.00213179
-0.00405179
0.00761898
0.000502639
0.0130511
0.00104832
0.0165361
0.00185582
0.0165012
0.00323918
0.0146036
0.00484695
0.0120568
0.00650847
0.00967974
0.00821256
0.00727728
0.00995292
0.00440737
0.011741
0.000343702
-0.0062281
0.0139173
0.00121498
0.0118361
0.00259716
0.015154
0.00458439
0.0145139
0.00731854
0.0118694
0.0102674
0.00910794
0.0131721
0.00677508
0.015988
0.00446135
0.018774
0.00162134
0.0214908
-0.00237307
-0.00928207
0.0245448
0.00175073
0.0100854
0.00413563
0.0127691
0.00768766
0.0109619
0.012399
0.00715807
0.0176753
0.00383163
0.0230502
0.00140017
0.0281969
-0.000685347
0.0329769
-0.00315862
0.0375415
-0.00693772
-0.0138061
0.0420656
0.0018827
0.00496491
0.00997213
0.0168003
0.024952
0.0339249
0.0432487
0.0525701
0.0615535
0.0683905
0.037205
-0.173947
0.132677
0.0906186
-0.274851
0.221437
0.122081
-0.231135
0.199673
0.142109
-0.187838
0.16781
0.153052
-0.145361
0.134418
0.15878
-0.110024
0.104296
0.16103
-0.080397
0.0781471
0.161141
-0.0551684
0.0550571
0.160015
-0.0345235
0.0356491
-0.0133415
0.0150671
0.0347231
-0.211933
0.0859335
-0.326061
0.118794
-0.263996
0.139957
-0.209001
0.152015
-0.157419
0.158455
-0.116464
0.161227
-0.0831689
0.161729
-0.0556702
0.160897
-0.033692
-0.0117815
0.0314771
-0.244797
0.0789259
-0.37351
0.113424
-0.298494
0.135962
-0.231539
0.14952
-0.170977
0.156977
-0.123921
0.160557
-0.0867494
0.161701
-0.0568142
0.161414
-0.0334046
-0.0105645
0.0280424
-0.27206
0.0704293
-0.415897
0.106496
-0.33456
0.130652
-0.255695
0.145878
-0.186203
0.154606
-0.132649
0.159243
-0.0913861
0.161249
-0.0588199
0.161737
-0.0338928
-0.00985347
0.0255561
-0.294214
0.0629571
-0.453298
0.0997562
-0.371359
0.125321
-0.28126
0.142031
-0.202913
0.15206
-0.142678
0.157855
-0.0971812
0.160861
-0.0618258
0.162308
-0.035339
-0.00979024
0.0264862
-0.313081
0.0604079
-0.48722
0.0968734
-0.407825
0.122777
-0.307163
0.140087
-0.220223
0.150911
-0.153502
0.157626
-0.103896
0.161594
-0.0657932
0.164084
-0.0378292
-0.0104993
0.0322358
-0.331399
0.065886
-0.52087
0.101752
-0.443691
0.126729
-0.33214
0.143328
-0.236822
0.153952
-0.164127
0.160928
-0.110872
0.165527
-0.0703926
0.168927
-0.0412295
-0.0120933
0.0446899
-0.351544
0.0800269
-0.556207
0.115723
-0.479387
0.139513
-0.35593
0.154624
-0.251933
0.164206
-0.173709
0.170715
-0.117381
0.175405
-0.0750825
0.179294
-0.045118
-0.0146494
0.0638348
-0.373314
0.0993956
-0.591768
0.135233
-0.515224
0.159512
-0.380209
0.174315
-0.266736
0.18335
-0.182744
0.189478
-0.123509
0.194041
-0.0796456
0.198232
-0.0493093
-0.0182866
0.0868053
-0.391729
0.119679
-0.624642
0.154153
-0.549698
0.178506
-0.404562
0.19374
-0.28197
0.203431
-0.192435
0.210279
-0.130357
0.215754
-0.0851203
0.221061
-0.0546165
-0.0234326
0.438114
-0.566289
-0.263554
0.469234
-0.655762
0.468162
-0.548626
0.454837
-0.391237
0.437206
-0.264339
0.422267
-0.177496
0.410826
-0.118915
0.40363
-0.0779246
0.399754
-0.0507406
-0.022577
0.513599
-0.595368
-0.484519
0.527002
-0.669165
0.526643
-0.548267
0.512592
-0.377186
0.494442
-0.246189
0.478136
-0.16119
0.465371
-0.106149
0.457174
-0.0697276
0.452195
-0.0457622
-0.0207037
0.701988
-0.575709
-0.721647
0.648032
-0.615209
0.605821
-0.506057
0.573043
-0.344408
0.546006
-0.219153
0.524943
-0.140126
0.509571
-0.0907778
0.499122
-0.0592784
0.492536
-0.039176
-0.0184
0.779829
-0.492314
-0.863225
0.70487
-0.54025
0.650218
-0.451405
0.606359
-0.300549
0.572284
-0.185077
0.547678
-0.115521
0.530627
-0.0737269
0.519192
-0.0478437
0.512243
-0.0322269
-0.0161213
0.840509
-0.411147
-0.921675
0.758181
-0.457922
0.684248
-0.377472
0.627277
-0.243578
0.585928
-0.143728
0.557622
-0.0872145
0.538642
-0.0547468
0.525764
-0.034966
0.517443
-0.0239064
-0.0131651
0.858055
-0.33874
-0.930463
0.776104
-0.375971
0.693334
-0.294702
0.628916
-0.179159
0.583702
-0.0985143
0.553894
-0.0574062
0.534689
-0.0355424
0.522038
-0.0223148
0.514372
-0.01624
-0.0103704
0.853845
-0.271686
-0.920899
0.759231
-0.281357
0.666056
-0.201527
0.599173
-0.112275
0.55571
-0.0550518
0.528252
-0.0299479
0.510922
-0.0182124
0.499801
-0.0111941
0.492613
-0.00905215
-0.00703016
0.792872
-0.186491
-0.878067
0.674421
-0.162906
0.575831
-0.102937
0.514453
-0.0508973
0.47892
-0.0195195
0.457607
-0.00863461
0.444249
-0.00485456
0.435794
-0.00273903
0.429822
-0.00308041
-0.00360881
0.588185
-0.0769768
-0.697698
0.469206
-0.0439269
0.390129
-0.0238605
0.348606
-0.00937426
0.329153
-6.64623e-05
0.318887
0.00163177
0.312726
0.00130594
0.309052
0.000935197
0.305916
5.57472e-05
-0.000945712
0.19076
-0.267737
0.146833
0.122972
0.113598
0.113532
0.115163
0.116469
0.117405
0.11746
0.526588
0.0747588
-0.532897
0.514263
0.0991284
0.495207
0.119718
0.468184
0.137157
0.43514
0.146084
0.39635
0.150932
0.356116
0.146304
0.317292
0.139487
0.28235
0.129723
0.117151
0.628226
0.0638416
-0.617309
0.637761
0.0895941
0.643373
0.114105
0.644447
0.136084
0.637414
0.153116
0.622489
0.165857
0.596439
0.172354
0.564636
0.171291
0.520681
0.173677
0.153313
0.677065
0.0483802
-0.661604
0.696028
0.070631
0.714655
0.095479
0.733198
0.11754
0.746719
0.139595
0.757715
0.154861
0.757901
0.172168
0.754797
0.174394
0.739988
0.188487
0.171653
0.691918
0.0345225
-0.678061
0.710921
0.0516287
0.733685
0.0727151
0.758721
0.0925043
0.783141
0.115175
0.806891
0.131111
0.828695
0.150364
0.845868
0.157222
0.860172
0.174183
0.168601
0.700009
0.023974
-0.689461
0.715414
0.0362235
0.7353
0.0528294
0.759588
0.0682168
0.78684
0.0879219
0.814976
0.102975
0.844949
0.12039
0.87174
0.130432
0.900012
0.145911
0.146938
0.70241
0.0151349
-0.693571
0.715439
0.0231951
0.732558
0.0357099
0.753628
0.0471464
0.778589
0.0629608
0.805772
0.0757929
0.83734
0.0888225
0.867018
0.100753
0.901583
0.111346
0.118058
0.693823
0.00687334
-0.685561
0.705738
0.0112795
0.720991
0.0204569
0.740405
0.0277328
0.763205
0.0401603
0.789826
0.0491726
0.820536
0.0581118
0.851401
0.0698882
0.88752
0.075227
0.0846786
0.652593
-0.00114915
-0.64457
0.662623
0.00124911
0.676272
0.00680848
0.693299
0.010705
0.714569
0.0188903
0.74096
0.022782
0.769371
0.0297008
0.803079
0.0361803
0.839908
0.0383982
0.046519
0.522248
-0.00400145
-0.519396
0.526339
-0.00284235
0.53422
-0.00107218
0.544663
0.000261821
0.560607
0.00294612
0.579738
0.00365138
0.602592
0.00684709
0.631394
0.00737749
0.660742
0.00905103
0.00956216
0.231954
-0.235955
0.229112
0.228039
0.228301
0.231247
0.234899
0.241746
0.249123
0.258174
0.0367423
0.114231
-0.0908247
-0.0601487
0.022285
0.0966837
-0.0822264
0.0144866
0.0848152
-0.0770168
0.0103902
0.0777897
-0.0736933
0.00786777
0.0740036
-0.0714812
0.00588506
0.0717828
-0.0698001
0.00405913
0.0696763
-0.0678504
0.00230678
0.0663125
-0.0645602
0.000713873
0.0580831
-0.0564902
0.0334722
-0.0327584
0.0650631
0.134429
-0.0852613
0.0465964
0.11515
0.0329242
0.0984874
0.023701
0.0870128
0.0172291
0.0804756
0.0121448
0.076867
0.00777889
0.0740423
0.00408949
0.0700019
0.00132011
0.0608525
0.0347923
0.0734754
0.148612
-0.0876583
0.0584114
0.130214
0.0449366
0.111962
0.0340069
0.0979425
0.0252351
0.0892474
0.0178665
0.0842356
0.0113972
0.0805116
0.00585522
0.0755439
0.00175849
0.0649492
0.0365508
0.0669437
0.157938
-0.0762694
0.0567668
0.140391
0.0463722
0.122357
0.0365685
0.107746
0.0276852
0.0981307
0.019672
0.0922488
0.0124605
0.0877231
0.00624802
0.0817564
0.00172769
0.0694695
0.0382785
0.0539173
0.163714
-0.0596936
0.0473957
0.146913
0.0400456
0.129707
0.032304
0.115488
0.0246126
0.105822
0.0172862
0.0995752
0.0105927
0.0944166
0.00491201
0.0874371
0.00108546
0.0732961
0.039364
0.0370345
0.167196
-0.0405163
0.0330791
0.150868
0.0283788
0.134407
0.0230007
0.120866
0.0172463
0.111576
0.0115523
0.105269
0.00636002
0.0996089
0.00216526
0.0916319
-0.000134634
0.075596
0.0392293
0.0176767
0.168793
-0.0192736
0.0160261
0.152519
0.0138586
0.136575
0.01094
0.123785
0.00747524
0.115041
0.0039405
0.108804
0.000819091
0.10273
-0.00126672
0.0937177
-0.00143045
0.0757597
0.0377989
-0.00307464
0.16818
0.00368718
-0.00221246
0.151657
-0.00180021
0.136162
-0.00221607
0.1242
-0.00324812
0.116073
-0.00439722
0.109953
-0.00515246
0.103486
-0.00481455
0.0933797
-0.00272029
0.0736654
0.0350786
-0.0231764
0.165452
0.0259049
-0.0199
0.14838
-0.0170347
0.133297
-0.0150944
0.12226
-0.0137957
0.114775
-0.0125913
0.108749
-0.0109187
0.101813
-0.00807714
0.0905382
-0.00378173
0.06937
0.0312969
-0.0424449
0.048059
-0.0364641
-0.0312456
-0.027115
-0.0236013
-0.0200941
-0.0159953
-0.0107448
-0.00453182
0.0469586
0.0309601
-0.0538145
-0.0241042
0.0405256
0.0294307
-0.0229977
0.0344507
0.0281242
-0.0220493
0.0286456
0.0271854
-0.0213802
0.0230313
0.0266099
-0.0209956
0.0175615
0.0262418
-0.020772
0.0122469
0.0257321
-0.0204175
0.00718746
0.0244577
-0.0193983
0.00271046
0.0212119
-0.0167349
0.0124696
-0.00975916
0.0479025
0.0379545
-0.0548969
0.0413453
0.0359879
0.0351605
0.0343091
0.0292526
0.0330933
0.0235371
0.0323254
0.0179635
0.0318154
0.01254
0.0311555
0.00736464
0.0296331
0.00277248
0.0258041
0.0152421
0.0484871
0.0450491
-0.0555817
0.0418485
0.0426265
0.035592
0.0405656
0.0296139
0.0390714
0.0238274
0.0381119
0.0181839
0.0374589
0.0126939
0.0366456
0.00745365
0.0348733
0.00279977
0.030458
0.0180419
0.048643
0.0522227
-0.0558166
0.0419134
0.0493561
0.0355962
0.0468827
0.0295788
0.0450887
0.0237697
0.043921
0.0181185
0.0431102
0.0126338
0.0421302
0.0074064
0.0401007
0.00276949
0.0350949
0.0208113
0.0484535
0.0595187
-0.0557495
0.0417332
0.0560765
0.0354155
0.0532004
0.0293892
0.051115
0.0235696
0.0497406
0.0179225
0.0487574
0.0124693
0.0475835
0.00729687
0.0452731
0.0027211
0.0396706
0.0235324
0.0455234
0.0663144
-0.0523191
0.0391148
0.062485
0.0331804
0.0591348
0.0275282
0.0567672
0.0220577
0.0552111
0.016744
0.054071
0.0116128
0.0527147
0.00674966
0.0501362
0.00247517
0.0439451
0.0260076
0.04719
0.0741581
-0.0550337
0.0402742
0.0694009
0.0337998
0.0656092
0.0277031
0.0628639
0.0219324
0.0609818
0.0164765
0.0595269
0.0113465
0.0578448
0.00657939
0.0549033
0.00242254
0.048102
0.0284302
0.0339222
0.0795638
-0.0393279
0.0289501
0.0743729
0.0247486
0.0698107
0.0207909
0.0668216
0.0167568
0.0650159
0.0126329
0.0636507
0.00862216
0.0618556
0.00486331
0.0586621
0.00166638
0.0512989
0.0300965
0.0441537
0.0875413
-0.0521313
0.0366624
0.0818642
0.0294839
0.0769892
0.0231272
0.0731782
0.01764
0.0705031
0.0129031
0.0683877
0.00874186
0.0660168
0.00497668
0.0624273
0.00178283
0.0544928
0.0318794
0.0101381
-0.0134215
0.00977595
0.00974837
0.00923333
0.00825524
0.00684285
0.00500924
0.00287639
0.000878988
0.192875
0.186508
-0.181393
0.184485
0.241207
-0.232818
0.179285
0.17225
-0.16705
0.177327
0.136074
-0.134115
0.175211
0.132223
-0.130107
0.171456
0.138546
-0.134791
0.162081
0.161533
-0.152159
0.146424
0.194742
-0.179085
0.108306
0.259378
-0.22126
0.319362
-0.264871
0.192042
0.192455
0.182614
0.250636
0.177174
0.17769
0.174858
0.138389
0.172985
0.134096
0.169408
0.142123
0.160581
0.17036
0.144796
0.210527
0.108127
0.296047
0.372592
0.190951
0.199494
0.180117
0.261469
0.174078
0.18373
0.171295
0.141171
0.16945
0.135942
0.165793
0.145779
0.157415
0.178738
0.141275
0.226667
0.106749
0.330574
0.423759
0.189694
0.20779
0.177011
0.274152
0.169932
0.190808
0.166875
0.144228
0.164973
0.137845
0.160854
0.149897
0.152624
0.186968
0.136102
0.243189
0.104344
0.362332
0.472287
0.188409
0.217371
0.173345
0.289216
0.164913
0.199241
0.162155
0.146986
0.160022
0.139977
0.154859
0.155061
0.146216
0.195611
0.129343
0.260062
0.10178
0.389894
0.518317
0.187214
0.228147
0.169553
0.306876
0.1599
0.208895
0.157744
0.149142
0.154835
0.142886
0.14823
0.161666
0.138605
0.205237
0.120749
0.277918
0.0937289
0.416914
0.559727
0.186331
0.239806
0.167107
0.3261
0.156974
0.219027
0.154255
0.151861
0.149779
0.147362
0.142074
0.169371
0.131772
0.215538
0.113516
0.296174
0.0969765
0.433454
0.60167
0.186698
0.251098
0.167173
0.345625
0.15723
0.228971
0.153063
0.156028
0.147484
0.152941
0.138269
0.178585
0.125289
0.228519
0.105271
0.316192
0.0783483
0.460377
0.640691
0.188665
0.260422
0.171039
0.363251
0.16361
0.2364
0.159769
0.159868
0.15394
0.158771
0.143256
0.189269
0.129221
0.242554
0.106187
0.339226
0.0914231
0.47514
0.679982
0.193295
0.265117
0.179956
0.37659
0.175734
0.240622
0.171711
0.163891
0.163937
0.166544
0.150355
0.202851
0.131257
0.261652
0.105627
0.364857
0.076134
0.504633
0.742695
0.327045
0.240083
0.338974
0.364661
0.347251
0.232345
0.352199
0.158944
0.356639
0.162104
0.358632
0.200858
0.364264
0.25602
0.363842
0.365279
0.37404
0.494435
0.650583
0.466152
0.345522
0.19657
0.382185
0.327999
0.399991
0.214538
0.408783
0.150152
0.417011
0.153877
0.427153
0.190715
0.435115
0.248057
0.460887
0.339507
0.482839
0.472484
0.598807
0.534615
0.355529
0.143052
0.41391
0.269618
0.442929
0.185519
0.457113
0.135968
0.470427
0.140562
0.487267
0.173876
0.502918
0.232406
0.543158
0.299268
0.573282
0.442359
0.551771
0.620318
0.357829
0.0872326
0.429378
0.198069
0.467401
0.147496
0.486145
0.117225
0.503441
0.123265
0.525972
0.151345
0.548464
0.209915
0.596847
0.250886
0.644681
0.394524
0.507536
0.688917
0.355462
0.0337804
0.433396
0.120136
0.478597
0.102296
0.500686
0.0951352
0.521028
0.102922
0.546837
0.125536
0.575985
0.180767
0.625581
0.20129
0.686515
0.33359
0.452543
0.741507
0.351416
-0.0156255
0.429722
0.0418298
0.478642
0.0533751
0.502571
0.0712062
0.525069
0.0804248
0.552349
0.0982557
0.588814
0.144302
0.634946
0.155158
0.704246
0.264291
0.376626
0.780163
0.344915
-0.0585307
0.415073
-0.0283278
0.461814
0.00663438
0.485932
0.0470883
0.510137
0.0562198
0.538496
0.0698967
0.580008
0.10279
0.622867
0.112299
0.698617
0.188541
0.277384
0.797859
0.330112
-0.0866324
0.376702
-0.0749179
0.409924
-0.0265878
0.430797
0.0262154
0.455029
0.0319882
0.483523
0.0414024
0.527299
0.0590144
0.569639
0.0699586
0.647556
0.110623
0.167412
0.757528
0.296861
-0.0814828
0.29383
-0.0718872
0.296967
-0.0297254
0.312252
0.0109306
0.333087
0.0111533
0.358816
0.0156739
0.396746
0.0210844
0.438838
0.0278659
0.508211
0.0412499
0.0661038
0.609519
0.220527
0.14864
0.118915
0.129845
0.140999
0.156673
0.177757
0.205623
0.246873
0.312977
0.512647
-0.106644
0.530644
-0.103259
0.537399
-0.0944129
0.540205
-0.079075
0.540563
-0.0600523
0.539583
-0.039536
0.538204
-0.0178944
0.536988
0.00490267
0.535701
0.0271922
0.0508632
0.549326
-0.121355
0.557517
-0.11145
0.563248
-0.100143
0.569618
-0.0854454
0.576224
-0.0666584
0.582278
-0.0455897
0.588755
-0.0243717
0.596941
-0.00328357
0.606258
0.0178756
0.0398123
0.622705
-0.123742
0.62625
-0.114995
0.627953
-0.101846
0.629238
-0.0867302
0.631067
-0.0684876
0.633426
-0.0479488
0.636472
-0.0274178
0.641603
-0.00841478
0.64981
0.00966889
0.0280184
0.680629
-0.115454
0.674267
-0.108633
0.669164
-0.0967438
0.665439
-0.0830048
0.663298
-0.0663461
0.662292
-0.0469431
0.662183
-0.0273095
0.663834
-0.0100655
0.668679
0.00482427
0.0186365
0.729228
-0.103176
0.718135
-0.0975395
0.708918
-0.0875266
0.701113
-0.0751999
0.694395
-0.0596281
0.68866
-0.0412085
0.684285
-0.0229344
0.682166
-0.00794652
0.683675
0.00331506
0.0128512
0.764561
-0.0875735
0.748124
-0.0811026
0.733613
-0.0730155
0.720582
-0.0621691
0.708956
-0.0480025
0.699239
-0.031491
0.692277
-0.0159726
0.688796
-0.00446538
0.689053
0.00305827
0.00833273
0.773323
-0.0630376
0.750612
-0.0583911
0.730931
-0.0533349
0.714226
-0.0454642
0.700113
-0.0338887
0.689189
-0.0205674
0.682229
-0.00901227
0.679455
-0.00169221
0.680651
0.00186307
0.00342244
0.728722
-0.0342311
0.702606
-0.0322757
0.6798
-0.0305289
0.661334
-0.026998
0.647121
-0.019676
0.637615
-0.0110612
0.633533
-0.00493037
0.634351
-0.00250957
0.63855
-0.00233612
-0.00259796
0.585737
-0.0104483
0.564271
-0.0108103
0.546062
-0.0123196
0.53117
-0.0121065
0.52041
-0.00891602
0.514585
-0.00523619
0.513479
-0.00382416
0.515034
-0.00406451
0.517313
-0.00461492
-0.00468066
0.302528
0.291718
0.279398
0.267292
0.258376
0.25314
0.249316
0.245251
0.240636
0.00335933
0.0292297
-0.032589
0.0067435
0.0700969
-0.0734811
0.00804389
0.0946792
-0.0959796
0.00805587
0.106097
-0.106109
0.00836422
0.109102
-0.10941
0.00731539
0.110775
-0.109726
0.00485085
0.109212
-0.106747
0.00244527
0.103025
-0.100619
0.00108876
0.0927053
-0.0913488
0.078297
0.00105358
-0.0782619
0.00417016
0.0250595
0.00981495
0.0644521
0.0140271
0.090467
0.0164817
0.103642
0.0174596
0.108124
0.0182648
0.10997
0.0182884
0.109188
0.0173926
0.103921
0.0160468
0.0940511
0.0799544
0.0143895
0.00447521
0.0205843
0.0116898
0.0572375
0.0183561
0.0838008
0.023283
0.0987152
0.0263275
0.10508
0.0288107
0.107486
0.0307743
0.107224
0.0315778
0.103117
0.0309451
0.0946838
0.0822737
0.0286258
0.00428456
0.0162998
0.012252
0.0492701
0.0207087
0.075344
0.0279662
0.0914577
0.0335527
0.0994933
0.0381962
0.102843
0.0423132
0.103107
0.0453302
0.1001
0.0464856
0.0935284
0.0837148
0.0450444
0.00367377
0.012626
0.0115499
0.041394
0.0209995
0.0658945
0.0301825
0.0822747
0.0382627
0.0914131
0.0453958
0.0957097
0.0518609
0.0966423
0.0573435
0.0946177
0.0611004
0.0897715
0.0825811
0.0622342
0.00282732
0.00979867
0.00994041
0.0342809
0.0195461
0.0562888
0.0299325
0.0718882
0.0400345
0.0813111
0.0495519
0.0861923
0.0584438
0.0877504
0.0664433
0.0866182
0.0729851
0.0832296
0.0781911
0.0773751
0.00192759
0.00787108
0.007879
0.0283295
0.0169167
0.0472511
0.0276204
0.0611846
0.0388791
0.0700524
0.0501237
0.0749477
0.0610369
0.0768372
0.0712372
0.0764178
0.0801856
0.0742813
0.0709828
0.0873939
0.00121295
0.00665813
0.00603092
0.0235115
0.0141727
0.0391093
0.024544
0.0508133
0.0361189
0.0584775
0.0482314
0.0628352
0.0604058
0.0646628
0.0721371
0.0646865
0.0827864
0.0636319
0.0619527
0.0918165
0.000724674
0.00593346
0.00457977
0.0196564
0.0116842
0.0320049
0.0212204
0.0412771
0.0322916
0.0474062
0.0442309
0.0508959
0.0565115
0.0523822
0.068614
0.052584
0.0800038
0.0522421
0.0517109
0.0902456
0.000508553
0.0054249
0.00368077
0.0164842
0.00979264
0.025893
0.0182741
0.0327957
0.0284185
0.0372619
0.039671
0.0396434
0.0515986
0.0404546
0.0637816
0.0404011
0.0758044
0.0402193
0.0405027
0.0870126
0.000368202
0.0050567
0.00287801
0.0139744
0.0077792
0.0209918
0.0146428
0.0259321
0.0228971
0.0290076
0.032031
0.0305094
0.0415846
0.0309009
0.0510942
0.0308915
0.0600455
0.0312681
0.0329675
0.0675807
0.000333925
0.00472278
0.00234601
0.0119623
0.00617214
0.0171657
0.0114484
0.0206558
0.0176968
0.0227592
0.0244552
0.0237511
0.0312943
0.0240618
0.037885
0.0243008
0.0441264
0.0250267
0.0267194
0.0503744
0.000238733
0.00448405
0.00174357
0.0104575
0.00458863
0.0143206
0.00845069
0.0167937
0.0129285
0.0182814
0.0176661
0.0190135
0.0224002
0.0193276
0.0270481
0.0196529
0.0317577
0.0203171
0.0215647
0.0369124
5.29038e-05
0.00443114
0.000992944
0.00951741
0.00293545
0.0123781
0.00560748
0.0141217
0.00868752
0.0152014
0.0119546
0.0157464
0.0153123
0.0159699
0.0188105
0.0161548
0.0226243
0.0165033
0.0171605
0.0270285
-0.000186488
0.00461763
0.000216758
0.00911417
0.00135207
0.0112428
0.00304565
0.0124281
0.00502035
0.0132267
0.00718929
0.0135775
0.00955646
0.0136028
0.0121967
0.0135145
0.0152449
0.0134551
0.0135001
0.0189053
-0.000391177
0.00500881
-0.000461464
0.00918446
-1.34205e-05
0.0107948
0.000786036
0.0116287
0.00181083
0.0122019
0.00309373
0.0122946
0.00465515
0.0120414
0.00653501
0.0116347
0.00883449
0.0111556
0.0106037
0.0117309
-0.000645747
0.00565455
-0.00113445
0.00967316
-0.0012794
0.0109397
-0.00120757
0.0115569
-0.000898051
0.0118924
-0.000286758
0.0116833
0.000615408
0.0111392
0.00183215
0.0104179
0.00345137
0.00953638
0.00841018
0.0056449
-0.000942848
0.0065974
-0.00175182
0.0104821
-0.00231046
0.0114984
-0.00268135
0.0119277
-0.00281566
0.0120267
-0.00272062
0.0115883
-0.00235197
0.0107705
-0.00167007
0.00973605
-0.000569535
0.00843584
0.00672824
0.00111241
-0.00109091
0.00768831
-0.00211628
0.0115075
-0.00301263
0.0123947
-0.0037234
0.0126385
-0.00416367
0.0124669
-0.00436134
0.0117859
-0.00431628
0.0107255
-0.00397058
0.00939034
-0.00320508
0.00767034
0.00534018
-0.00181703
-0.00111279
-0.00229437
-0.00339536
-0.00430834
-0.0049315
-0.00529161
-0.0054228
-0.0052802
-0.0047453
-0.00362375
0.0676837
0.148366
-0.148469
0.0736064
0.1052
-0.111123
0.0861735
0.0205413
-0.0331084
0.0977025
-0.0235565
0.0120275
0.108416
-0.0405461
0.0298331
0.118194
-0.0419564
0.0321777
0.127129
-0.0368528
0.0279186
0.134725
-0.0298261
0.0222293
0.141298
-0.0202556
0.013683
-0.0101165
0.00537736
0.0618402
0.1369
0.073445
0.0935952
0.089318
0.00466824
0.10208
-0.0363187
0.113036
-0.0515016
0.122349
-0.0512696
0.130557
-0.0450611
0.137327
-0.0365964
0.142998
-0.0259267
-0.0139033
0.0563583
0.117454
0.0739498
0.0760037
0.0928412
-0.0142232
0.10668
-0.0501579
0.11776
-0.062581
0.126571
-0.0600808
0.133958
-0.0524481
0.139796
-0.0424346
0.144509
-0.0306389
-0.016783
0.0522146
0.0922682
0.0761931
0.0520252
0.0978363
-0.0358664
0.112384
-0.0647053
0.123367
-0.0735646
0.131489
-0.0682022
0.137867
-0.0588265
0.142576
-0.0471435
0.146195
-0.0342583
-0.0187522
0.0484137
0.0627598
0.0796919
0.020747
0.103718
-0.0598923
0.119008
-0.0799953
0.129741
-0.0842975
0.137084
-0.0755452
0.14234
-0.0640827
0.145816
-0.05062
0.148232
-0.0366738
-0.0197977
0.0451361
0.0293546
0.0840777
-0.0181947
0.109933
-0.0857473
0.125918
-0.0959803
0.136273
-0.0946522
0.142851
-0.0821238
0.147008
-0.0682391
0.149315
-0.0529279
0.150567
-0.0379256
-0.0199725
0.042764
-0.00776451
0.0884952
-0.0639258
0.115423
-0.112675
0.132169
-0.112726
0.14217
-0.104654
0.14812
-0.0880733
0.151349
-0.0714686
0.152687
-0.0542652
0.152965
-0.0382039
-0.01941
0.0414762
-0.0481283
0.0917547
-0.114204
0.119615
-0.140535
0.137188
-0.130299
0.146962
-0.114427
0.152491
-0.0936026
0.155026
-0.0740041
0.15565
-0.0548886
0.155193
-0.0377472
-0.0182844
0.0402179
-0.0901633
0.093325
-0.167311
0.122273
-0.169483
0.140663
-0.14869
0.150456
-0.124219
0.155783
-0.0989303
0.157901
-0.0761218
0.158073
-0.0550603
0.157135
-0.0368097
-0.016776
0.0388897
0.0930158
0.123205
0.142325
0.152524
0.15789
0.159915
0.159912
0.158751
0.031487
0.023823
-0.0553099
0.0229098
0.00857717
0.0208394
0.00207035
0.0225999
-0.00176049
0.0254314
-0.00283144
0.028268
-0.00283662
0.0304823
-0.00221429
0.0324492
-0.0019669
0.0330951
-0.000645895
0.000240826
0.0971167
0.0689964
-0.14229
0.0725531
0.0331408
0.0653732
0.00925019
0.0673116
-0.00369889
0.0721928
-0.00771264
0.0775396
-0.00818339
0.0820098
-0.00668445
0.0856861
-0.00564323
0.0873501
-0.0023099
2.00696e-05
0.132833
0.106627
-0.170464
0.103513
0.062461
0.0945594
0.0182038
0.0964143
-0.00555371
0.102443
-0.0137411
0.109359
-0.0150994
0.115413
-0.0127389
0.120154
-0.0103843
0.122885
-0.00504052
-0.00101505
0.140789
0.131354
-0.165516
0.113704
0.0895464
0.104727
0.0271812
0.107497
-0.00832377
0.115123
-0.0213678
0.123323
-0.023299
0.130596
-0.0200121
0.136271
-0.0160591
0.14023
-0.00899969
-0.00299251
0.133968
-0.151083
0.112391
0.106464
0.110168
0.118633
0.127512
0.135418
0.141588
0.146272
0.00508431
0.000129356
-0.00521366
0.00564279
-0.000558486
0.00686096
-0.00121817
0.00891416
-0.0020532
0.0122782
-0.00336409
0.0176099
-0.00533162
0.0254498
-0.00783988
0.0354246
-0.00997489
0.0465499
-0.0111253
-0.00876
0.0136188
0.000260208
-0.0137497
0.0153488
-0.00228844
0.0190737
-0.00494307
0.025429
-0.00840846
0.0354355
-0.0133707
0.0500111
-0.0199072
0.069175
-0.0270038
0.0918889
-0.0326887
0.117557
-0.0367933
-0.0334933
0.021009
0.000207127
-0.0209559
0.0239206
-0.00520001
0.0299645
-0.0109871
0.0399273
-0.0183712
0.0545131
-0.0279565
0.0737657
-0.0391598
0.0964598
-0.0496979
0.121201
-0.05743
0.146037
-0.0616295
-0.05792
0.0275181
-0.000186324
-0.0271247
0.0315749
-0.00925679
0.0396062
-0.0190184
0.0521632
-0.0309281
0.06904
-0.0448333
0.0888798
-0.0589996
0.109536
-0.0703546
0.129652
-0.0775456
0.147601
-0.0795781
-0.075835
0.0332951
-0.0324279
0.0384278
0.0480353
0.0621515
0.0795523
0.0979278
0.114967
0.129238
0.139906
0.0441432
-0.0350387
0.0435667
-0.0526712
0.037078
-0.0323859
0.0394511
0.0313446
-0.0302457
0.0359792
0.0263425
-0.0285241
0.0335261
0.0215456
-0.0272099
0.0320069
0.0166333
-0.0261083
0.0310206
0.0115587
-0.0247349
0.0298094
0.00655763
-0.0223244
0.0273255
0.0022482
-0.017764
0.0220734
-0.00893508
0.0111833
0.0451354
-0.0281035
-0.0520706
0.0388631
-0.0261136
0.0329759
-0.0243585
0.0274008
-0.022949
0.0220166
-0.0218257
0.016712
-0.0208037
0.0114832
-0.0195061
0.00650698
-0.0173482
0.0022769
-0.0135339
-0.00665818
0.0437499
-0.0214046
-0.0504488
0.037406
-0.0197698
0.0314942
-0.0184467
0.025942
-0.0173968
0.020655
-0.0165387
0.0155494
-0.0156982
0.0106145
-0.0145711
0.00598598
-0.0127197
0.00208798
-0.00963591
-0.0045702
0.0430111
-0.0147916
-0.049624
0.0368367
-0.0135954
0.0310379
-0.0126479
0.0255405
-0.0118993
0.0202705
-0.0112686
0.0151842
-0.010612
0.0103072
-0.00969411
0.00579017
-0.00820263
0.00203012
-0.00587586
-0.00254008
0.0424474
-0.00834596
-0.0488931
0.0363845
-0.00753242
0.030647
-0.00691046
0.0251628
-0.00641515
0.0198661
-0.00597199
0.0147288
-0.00547467
0.00980815
-0.00477346
0.00532366
-0.00371815
0.00175959
-0.00231178
-0.00078049
0.0421627
-0.00199597
-0.0485127
0.0361724
-0.00154212
0.0304681
-0.00120621
0.0249692
-0.000916221
0.0196055
-0.000608258
0.014353
-0.000222172
0.00930077
0.000278762
0.00475837
0.000824257
0.00137747
0.00106911
0.000596982
0.0425259
0.00437211
-0.048894
0.0365218
0.00446196
0.0308088
0.0045068
0.0253052
0.0045874
0.0199449
0.00475205
0.0147173
0.0050054
0.00972698
0.00526906
0.00526886
0.00528238
0.00179396
0.00454401
0.00239094
0.043362
0.0108219
-0.0498118
0.0372972
0.0105268
0.0315478
0.0102562
0.026033
0.0101022
0.0206902
0.0100949
0.0155089
0.0101866
0.0105688
0.0102091
0.00605567
0.00979555
0.00226641
0.00833328
0.00465735
0.0445249
0.0173886
-0.0510916
0.0383576
0.016694
0.0325223
0.0160914
0.0269388