/*--------------------------------*- C++ -*----------------------------------*\
| =========                 |                                                 |
| \\      /  F ield         | OpenFOAM: The Open Source CFD Toolbox           |
|  \\    /   O peration     | Version:  2406                                  |
|   \\  /    A nd           | Website:  www.openfoam.com                      |
|    \\/     M anipulation  |                                                 |
\*---------------------------------------------------------------------------*/
FoamFile
{
    version     2.0;
    format      ascii;
    arch        "LSB;label=32;scalar=64";
    class       volVectorField;
    location    "0.3";
    object      U;
}
// * * * * * * * * * * * * * * * * * * * * * * * * * * * * * * * * * * * * * //

dimensions      [0 1 -1 0 0 0 0];

internalField   nonuniform List<vector> 
1800
(
(-0.0607147 0.067767 0)
(-0.0600941 0.082184 6.20389e-20)
(0.00456623 0.0612918 1.13775e-19)
(0.0967057 0.0360426 4.37041e-20)
(0.179995 0.0252212 2.04712e-21)
(0.251354 0.0300989 1.13925e-20)
(0.315388 0.0447869 8.47735e-20)
(0.379206 0.0620347 2.58297e-19)
(0.45166 0.0750038 0)
(0.521397 0.0863536 1.77078e-19)
(-0.0454917 0.0462195 -1.50379e-20)
(-0.0263807 0.0458209 -4.04836e-20)
(0.0751844 0.0113339 1.57166e-20)
(0.193167 -0.0207762 -1.22044e-19)
(0.29085 -0.0343881 8.66721e-20)
(0.369629 -0.0325699 1.92239e-19)
(0.438123 -0.0237905 -1.93324e-20)
(0.50702 -0.0162297 -3.8631e-19)
(0.587256 -0.0170786 2.18361e-19)
(0.679224 -0.0317373 1.15268e-20)
(-0.0269101 0.0260867 2.94816e-20)
(0.0194711 0.012114 -1.40117e-19)
(0.164407 -0.0283247 -1.46505e-19)
(0.304135 -0.0580365 -1.25505e-20)
(0.411712 -0.0660789 -3.80881e-20)
(0.494567 -0.0584261 -1.5316e-19)
(0.564929 -0.0442496 -9.84865e-20)
(0.635942 -0.0322344 4.32305e-19)
(0.723119 -0.0297239 -3.19963e-19)
(0.836902 -0.0500011 -7.78133e-19)
(-0.00760396 0.00881517 2.18987e-20)
(0.0918365 -0.0218045 9.22456e-20)
(0.274541 -0.0617819 -1.53283e-20)
(0.432362 -0.0846389 1.66823e-21)
(0.548426 -0.0860457 -1.66303e-20)
(0.635776 -0.0730086 5.50883e-20)
(0.709958 -0.0544875 2.21683e-19)
(0.786482 -0.0389681 1.3395e-19)
(0.883265 -0.033923 -4.2058e-20)
(1.0143 -0.0555157 -1.02232e-19)
(0.0166376 -0.0017622 -1.07729e-20)
(0.184064 -0.0467639 7.17323e-20)
(0.399561 -0.0809604 -3.17322e-20)
(0.571561 -0.0939872 2.10362e-20)
(0.693686 -0.0873701 1.54587e-20)
(0.784197 -0.0682711 -2.55879e-20)
(0.86133 -0.0447994 -6.02379e-20)
(0.942291 -0.0245954 -1.62844e-19)
(1.04732 -0.0141516 2.85001e-19)
(1.19463 -0.0294279 2.76023e-19)
(0.0606795 -0.0114961 3.91422e-22)
(0.291948 -0.0612381 1.10234e-19)
(0.53452 -0.0849772 6.38479e-20)
(0.716519 -0.087434 -2.43018e-20)
(0.841856 -0.0736402 -3.33258e-20)
(0.933677 -0.050248 -3.87595e-21)
(1.0126 -0.0242167 -6.61031e-20)
(1.09768 -0.00187947 -1.3967e-19)
(1.21144 0.0113992 2.46382e-19)
(1.37486 0.00134235 1.8255e-19)
(0.114885 -0.0190278 -1.58748e-20)
(0.407889 -0.0635802 -1.74206e-19)
(0.672545 -0.0732591 1.00597e-20)
(0.859407 -0.0647636 1.25804e-19)
(0.983997 -0.0448373 -4.301e-21)
(1.07445 -0.0188876 3.81495e-21)
(1.1537 0.00787318 2.65627e-20)
(1.24301 0.0310774 -1.4512e-19)
(1.3676 0.0468517 -2.0613e-19)
(1.54982 0.0465208 -3.27196e-20)
(0.176123 -0.0203552 1.74061e-20)
(0.52727 -0.0510023 7.1125e-20)
(0.806844 -0.0447622 -3.46921e-20)
(0.992109 -0.0266202 3.41849e-20)
(1.11139 -0.00295613 -5.68978e-21)
(1.19786 0.022764 -1.2886e-19)
(1.27691 0.0475648 1.95065e-20)
(1.37267 0.0693678 -1.14901e-20)
(1.51269 0.0860303 -2.21356e-20)
(1.71516 0.0949376 -6.72809e-20)
(0.240945 -0.0132229 7.18889e-20)
(0.643122 -0.0221278 8.50906e-20)
(0.928802 -1.73156e-05 -2.1435e-19)
(1.1057 0.0251561 -7.13335e-20)
(1.21564 0.0497815 -1.578e-20)
(1.29663 0.0732189 5.87973e-20)
(1.37638 0.0952194 -7.76925e-20)
(1.48176 0.116034 -5.37091e-20)
(1.63963 0.135609 1.48572e-19)
(1.85636 0.154664 6.75654e-20)
(0.305125 0.003392 7.74856e-20)
(0.747187 0.0222941 1.94894e-19)
(1.02967 0.0581862 -2.25453e-19)
(1.19304 0.0866067 -6.74871e-20)
(1.29207 0.109277 3.72313e-20)
(1.36844 0.129098 -9.3476e-20)
(1.45142 0.148376 8.15879e-20)
(1.56937 0.169299 5.05073e-20)
(1.7434 0.193037 -7.13867e-20)
(1.96436 0.219877 -5.13839e-20)
(-0.0095701 0.116987 -2.98826e-20)
(-0.0172517 0.16593 1.16444e-19)
(-0.0240795 0.17528 7.20296e-20)
(-0.029204 0.174609 -8.07936e-20)
(-0.0329019 0.166834 -8.95071e-21)
(-0.0343021 0.153227 4.85437e-20)
(-0.0339955 0.13566 3.82448e-20)
(-0.0325047 0.113923 -8.39857e-20)
(-0.0296555 0.0852106 4.05405e-22)
(-0.023722 0.0454171 3.05877e-20)
(-0.0200727 0.129685 4.30843e-20)
(-0.0313932 0.179159 -5.76e-23)
(-0.0383062 0.186887 3.65126e-20)
(-0.0427352 0.183602 -1.23854e-19)
(-0.0449879 0.171822 -1.79788e-19)
(-0.0444084 0.154792 -6.05239e-20)
(-0.0420307 0.13457 1.15549e-19)
(-0.0381468 0.10983 0)
(-0.0322492 0.0767618 -1.55785e-20)
(-0.0222728 0.0306372 6.15228e-20)
(-0.0324456 0.140439 -4.85651e-23)
(-0.0468497 0.189638 -1.72027e-19)
(-0.0530942 0.195804 -1.09499e-19)
(-0.0559538 0.190193 1.08258e-19)
(-0.0555603 0.174525 -8.43135e-20)
(-0.0520194 0.154459 -4.30208e-20)
(-0.0467455 0.131928 -6.70568e-20)
(-0.0395416 0.104477 -3.64138e-20)
(-0.0293656 0.0673042 -1.37423e-19)
(-0.0139847 0.0151267 -2.23967e-19)
(-0.0460229 0.148611 3.81512e-20)
(-0.0627873 0.196173 7.2182e-21)
(-0.0677797 0.200991 1.06696e-20)
(-0.0683571 0.193351 6.87981e-20)
(-0.0641803 0.174177 -6.21916e-21)
(-0.0570285 0.15175 7.55968e-20)
(-0.0484399 0.127529 -2.67268e-20)
(-0.0375773 0.0979738 0)
(-0.0228763 0.0572066 1.15643e-19)
(-0.000905704 -0.000534849 -6.01855e-22)
(-0.0596256 0.153258 -8.90398e-20)
(-0.0779361 0.197943 3.91242e-20)
(-0.0812405 0.20189 1.66e-19)
(-0.0787431 0.192378 -4.05996e-21)
(-0.0696238 0.170554 2.67071e-20)
(-0.0582875 0.14678 9.90993e-20)
(-0.0459968 0.121864 -7.84762e-20)
(-0.0312695 0.0913874 8.94245e-21)
(-0.0119377 0.0484415 9.57883e-20)
(0.0175464 -0.0130767 1.47494e-19)
(-0.0717356 0.153839 -9.15034e-20)
(-0.0909495 0.194817 -5.98298e-21)
(-0.0921067 0.198333 -1.41822e-19)
(-0.0849941 0.18656 -4.76056e-20)
(-0.0697179 0.163343 1.27206e-19)
(-0.0535917 0.139499 4.33974e-20)
(-0.0370956 0.115077 6.29279e-20)
(-0.0181298 0.0851476 -1.26613e-19)
(0.0065105 0.0420455 3.05033e-20)
(0.0447362 -0.0212895 2.05873e-19)
(-0.0793916 0.148184 4.12561e-20)
(-0.0998194 0.186636 1.50286e-20)
(-0.0976451 0.189968 3.92596e-20)
(-0.0827306 0.175591 5.04238e-20)
(-0.0603859 0.152801 -1.20678e-19)
(-0.0390004 0.130697 -1.42349e-19)
(-0.0178683 0.108144 7.60583e-20)
(0.00560077 0.0801942 -1.55854e-19)
(0.0355751 0.0388219 -1.35676e-20)
(0.0835878 -0.0247358 2.60394e-20)
(-0.082001 0.134352 1.31362e-21)
(-0.102902 0.172926 -7.70224e-21)
(-0.0941377 0.175198 7.38694e-20)
(-0.0670546 0.159457 -1.72648e-20)
(-0.0361993 0.140274 -1.47647e-19)
(-0.00816239 0.123116 -4.43781e-21)
(0.0189631 0.104991 7.24624e-20)
(0.0478816 0.0809396 9.63273e-20)
(0.0833588 0.0434175 2.43234e-19)
(0.143253 -0.0173171 -4.70183e-20)
(-0.0790355 0.113434 -6.32982e-21)
(-0.09719 0.149316 3.71653e-20)
(-0.0768611 0.14816 -5.39204e-21)
(-0.033784 0.132699 -1.39292e-19)
(0.00906032 0.119812 -2.66162e-20)
(0.0470711 0.112613 1.15074e-19)
(0.0831198 0.105335 1.19416e-19)
(0.119853 0.0899095 1.5331e-19)
(0.162648 0.0592755 -1.42293e-21)
(0.236295 0.00728404 -1.84893e-19)
(-0.0722395 0.0900849 2.71263e-20)
(-0.0837849 0.11719 -9.97826e-21)
(-0.0466164 0.108377 4.06192e-22)
(0.0171808 0.0901442 5.06073e-20)
(0.0773827 0.0814264 -2.43932e-20)
(0.129566 0.0854782 2.13283e-19)
(0.176836 0.0961643 -1.20764e-19)
(0.224322 0.102399 -2.03149e-19)
(0.279004 0.0927347 -3.19734e-19)
(0.36558 0.0644894 -1.64856e-19)
(0.037657 -0.212904 -3.44632e-19)
(0.324229 -0.344974 -2.40437e-19)
(0.526872 -0.299208 -5.08044e-20)
(0.637984 -0.247441 -1.92856e-20)
(0.714691 -0.195024 3.89829e-20)
(0.758568 -0.149805 2.00541e-21)
(0.78077 -0.111191 -3.74344e-20)
(0.79648 -0.0777037 1.22889e-20)
(0.79799 -0.0499097 -7.45531e-21)
(0.799682 -0.0209178 -3.3323e-21)
(0.0678781 -0.267733 -2.59407e-19)
(0.330726 -0.417569 1.25875e-20)
(0.53335 -0.344258 -5.45021e-20)
(0.643297 -0.277058 5.32455e-22)
(0.720322 -0.212611 3.19009e-20)
(0.763967 -0.160083 -5.75502e-20)
(0.786028 -0.116691 2.30162e-20)
(0.801362 -0.080259 2.11846e-22)
(0.803347 -0.0507431 -1.45497e-20)
(0.804951 -0.0209246 9.11737e-21)
(0.110354 -0.316246 7.07641e-19)
(0.33661 -0.484833 2.662e-19)
(0.537233 -0.390157 2.88061e-20)
(0.644798 -0.307658 2.45058e-20)
(0.722353 -0.231232 -4.955e-20)
(0.766107 -0.170989 7.64926e-22)
(0.78853 -0.122583 9.61085e-21)
(0.804082 -0.0831101 -1.40827e-20)
(0.807053 -0.0518313 -4.15714e-22)
(0.809285 -0.0210504 -9.93057e-22)
(0.163739 -0.35729 5.3073e-19)
(0.345053 -0.543555 -6.30051e-21)
(0.541008 -0.437336 7.32458e-21)
(0.644915 -0.339143 -1.94883e-20)
(0.722383 -0.251066 1.45631e-20)
(0.76628 -0.182502 1.1678e-20)
(0.789381 -0.128986 -1.97259e-20)
(0.805756 -0.0863628 0)
(0.80992 -0.0533247 0)
(0.813498 -0.0213515 2.3524e-23)
(0.224357 -0.388906 -2.0568e-19)
(0.367303 -0.591416 -3.15968e-19)
(0.553592 -0.483286 -5.74893e-21)
(0.650806 -0.370985 1.76104e-20)
(0.725697 -0.271605 9.31175e-21)
(0.768513 -0.194659 5.52369e-20)
(0.791716 -0.136004 6.94627e-22)
(0.809062 -0.0901205 -8.85856e-21)
(0.814222 -0.0553297 -2.53742e-20)
(0.819713 -0.0218621 -1.59577e-21)
(0.297164 -0.413435 -2.72471e-19)
(0.423174 -0.631616 -1.47892e-19)
(0.594795 -0.52713 -1.93046e-19)
(0.678416 -0.401991 3.74989e-21)
(0.744328 -0.292193 -3.7586e-20)
(0.781915 -0.207282 3.12176e-20)
(0.80258 -0.143634 1.12795e-20)
(0.819708 -0.0944739 -4.02813e-20)
(0.825004 -0.0579793 4.00227e-22)
(0.832668 -0.0226838 -1.35469e-20)
(0.387174 -0.435032 1.14456e-19)
(0.531285 -0.671695 2.18138e-20)
(0.686321 -0.569425 1.12647e-19)
(0.748882 -0.430863 -3.50206e-20)
(0.796545 -0.311067 -3.07371e-21)
(0.821999 -0.219029 -4.16965e-20)
(0.835047 -0.151028 -6.1168e-22)
(0.848707 -0.0990574 1.04128e-20)
(0.852284 -0.0612159 1.12645e-20)
(0.861594 -0.0239452 6.73126e-21)
(0.516077 -0.453915 2.93347e-19)
(0.700503 -0.711068 1.3599e-18)
(0.83771 -0.610323 1.934e-19)
(0.876132 -0.457871 1.48762e-20)
(0.898924 -0.328261 2.53812e-20)
(0.905748 -0.229657 4.13269e-20)
(0.905371 -0.157873 -4.02084e-20)
(0.910997 -0.103629 3.1859e-20)
(0.909671 -0.0647812 -3.78652e-22)
(0.91858 -0.0256556 -2.66662e-21)
(0.703131 -0.471623 7.8846e-19)
(0.928506 -0.750331 4.76377e-19)
(1.03444 -0.64855 -4.3464e-19)
(1.05048 -0.479758 1.16574e-19)
(1.0518 -0.339372 -4.6906e-21)
(1.04116 -0.234925 2.00544e-21)
(1.02625 -0.160706 1.48328e-20)
(1.02183 -0.105541 -6.29838e-22)
(1.01316 -0.0669027 -6.77156e-21)
(1.01942 -0.0275182 -4.32815e-21)
(0.942442 -0.468452 8.13343e-20)
(1.1841 -0.778135 -9.99351e-19)
(1.25079 -0.683632 -3.73821e-19)
(1.23706 -0.504519 1.15029e-19)
(1.21534 -0.354097 -2.51736e-20)
(1.18971 -0.243346 3.77691e-21)
(1.16347 -0.165649 -1.94132e-21)
(1.15127 -0.108348 1.21197e-21)
(1.13896 -0.0691422 -1.22964e-21)
(1.14199 -0.0291049 -8.19948e-22)
(1.43234 -0.561377 -1.83586e-19)
(1.53785 -0.74577 -1.39667e-19)
(1.57442 -0.660683 -3.67415e-20)
(1.52815 -0.48879 -9.43759e-20)
(1.47104 -0.338447 5.29434e-20)
(1.41996 -0.229959 7.55486e-21)
(1.37453 -0.155767 1.52203e-20)
(1.3484 -0.102551 9.96189e-21)
(1.32585 -0.066831 -2.06866e-20)
(1.32024 -0.0296997 2.49309e-21)
(1.70466 -0.813085 -3.66075e-19)
(1.74762 -0.913984 -7.7052e-20)
(1.76186 -0.730006 7.87003e-20)
(1.71609 -0.501068 -2.35633e-20)
(1.65866 -0.33016 1.39361e-19)
(1.60554 -0.218651 1.16811e-19)
(1.55614 -0.14488 8.52668e-20)
(1.52506 -0.0945412 -1.00727e-20)
(1.50269 -0.0614853 3.91539e-20)
(1.49048 -0.0272291 1.04105e-20)
(2.45888 -0.699984 -1.34482e-19)
(2.23343 -0.753224 -5.8821e-20)
(2.0698 -0.634149 5.74749e-20)
(1.9376 -0.439436 1.21176e-35)
(1.83911 -0.284982 -1.30578e-20)
(1.76667 -0.184983 -3.91926e-34)
(1.70591 -0.121139 3.01606e-21)
(1.66785 -0.0799411 -7.21027e-35)
(1.63743 -0.0531646 3.20548e-22)
(1.62278 -0.0247545 -2.1886e-21)
(2.71874 -0.698254 -2.52488e-19)
(2.43475 -0.759117 1.47774e-19)
(2.24438 -0.623987 -4.52453e-20)
(2.06643 -0.417574 0)
(1.93445 -0.260447 -9.53344e-20)
(1.84594 -0.164026 -7.32795e-20)
(1.77794 -0.105087 -5.35957e-20)
(1.73521 -0.0679835 2.54014e-34)
(1.70271 -0.0450348 -1.8334e-20)
(1.68823 -0.0213763 1.45835e-21)
(2.92832 -0.549614 -2.24056e-19)
(2.63345 -0.601123 2.00124e-20)
(2.38521 -0.507696 0)
(2.15543 -0.336455 0)
(1.9887 -0.203564 0)
(1.88296 -0.125211 0)
(1.8071 -0.0790938 1.50108e-21)
(1.75903 -0.0508963 3.15009e-34)
(1.72247 -0.0343289 -1.75874e-22)
(1.70317 -0.0181673 1.41465e-34)
(2.97403 -0.464929 1.08369e-19)
(2.69711 -0.527454 0)
(2.43085 -0.427074 0)
(2.17382 -0.268543 0)
(1.9864 -0.153579 0)
(1.87162 -0.091676 0)
(1.79378 -0.057345 -3.60004e-21)
(1.74594 -0.0366531 3.81086e-20)
(1.71076 -0.0259309 -4.17174e-22)
(1.69374 -0.0152705 9.78309e-21)
(2.97298 -0.379935 0)
(2.66294 -0.41386 3.75092e-20)
(2.35031 -0.313154 -5.12107e-20)
(2.07694 -0.183376 0)
(1.89102 -0.0959113 -6.88864e-20)
(1.7828 -0.0541771 -4.77044e-20)
(1.71249 -0.0332588 -3.64347e-20)
(1.66936 -0.0204222 -2.11506e-20)
(1.63993 -0.0155837 2.45083e-20)
(1.6199 -0.0108731 -5.30521e-21)
(2.81793 -0.29391 -7.39576e-20)
(2.40622 -0.290952 2.06944e-20)
(2.04777 -0.194481 -1.81976e-20)
(1.78413 -0.100755 2.71848e-37)
(1.62631 -0.0441208 1.21318e-20)
(1.54053 -0.0219387 -2.89765e-34)
(1.48659 -0.0127676 -5.03026e-21)
(1.4533 -0.00740602 -9.19045e-21)
(1.43209 -0.00669152 -8.24049e-22)
(1.41163 -0.00644545 1.44286e-21)
(2.15937 -0.161635 0)
(1.70501 -0.107456 1.93604e-20)
(1.39695 -0.0572991 3.35592e-20)
(1.20382 -0.0231822 0)
(1.1098 -0.00268062 2.74158e-20)
(1.06668 0.00149993 1.75474e-20)
(1.04166 0.00138356 5.61795e-21)
(1.02686 0.00103842 6.74056e-21)
(1.01926 -0.000537717 -8.31855e-21)
(1.00378 -0.00228051 -2.8092e-22)
(0.709073 -0.0377176 -2.38391e-20)
(0.533367 -0.00948714 0)
(0.44114 -0.00583261 0)
(0.382564 -0.0014351 0)
(0.372574 0.00235903 0)
(0.377121 0.00221695 0)
(0.382385 0.00159764 -5.60615e-21)
(0.386692 0.00109438 1.73137e-35)
(0.389527 0.000641136 -1.04088e-21)
(0.385668 -0.000248539 -1.8584e-21)
(2.41047 0.273578 3.53319e-19)
(2.34787 0.201697 1.9863e-19)
(2.25157 0.125509 2.07694e-19)
(2.09524 0.056436 -2.62063e-19)
(1.92893 -0.0276912 9.65312e-20)
(1.69591 -0.0911252 -1.08278e-20)
(1.5144 -0.171119 1.1634e-19)
(1.23077 -0.175133 4.50171e-20)
(1.15191 -0.259915 -4.34243e-19)
(0.792331 -0.0704933 -2.33303e-19)
(2.82997 0.244881 -2.83004e-19)
(2.85093 0.176743 5.23851e-20)
(2.85817 0.0925648 2.89221e-19)
(2.79691 0.0187078 2.39577e-19)
(2.73838 -0.0923586 -3.91011e-19)
(2.56701 -0.153804 2.00701e-19)
(2.45029 -0.295899 1.23946e-20)
(2.14732 -0.309536 5.71943e-21)
(2.04844 -0.480141 1.00477e-19)
(1.59204 -0.413054 1.67446e-19)
(3.03804 0.172479 3.7118e-20)
(3.08756 0.104333 -2.35389e-19)
(3.14763 0.0360103 -3.34421e-19)
(3.13391 -0.041334 8.16606e-19)
(3.16223 -0.131144 -7.43689e-20)
(3.04605 -0.216119 1.37327e-19)
(3.04982 -0.323984 -2.75532e-19)
(2.79028 -0.403267 -2.77713e-19)
(2.78535 -0.508304 -1.91917e-19)
(2.38695 -0.594386 -7.72118e-20)
(3.10897 0.112109 9.19376e-20)
(3.15348 0.0366843 -3.49953e-19)
(3.21684 -0.0277866 1.53973e-19)
(3.23508 -0.0941163 -3.26287e-19)
(3.27975 -0.163953 3.55421e-19)
(3.22597 -0.237358 -2.39833e-19)
(3.25212 -0.320782 -4.69373e-21)
(3.11963 -0.406434 -3.39823e-21)
(3.10974 -0.484585 1.79775e-19)
(2.90156 -0.594749 2.97107e-19)
(3.15434 0.0617372 1.07542e-19)
(3.18277 -0.0130151 -4.19202e-19)
(3.22871 -0.070754 2.97905e-20)
(3.23881 -0.131323 -1.67862e-19)
(3.28444 -0.176916 -6.36359e-20)
(3.25723 -0.240183 -1.69338e-21)
(3.28671 -0.296558 3.15437e-19)
(3.20908 -0.374342 -3.70984e-20)
(3.20097 -0.417942 -9.8512e-20)
(3.08691 -0.526841 -1.46092e-19)
(3.16936 0.035719 2.23763e-19)
(3.18978 -0.0361004 6.46429e-20)
(3.22062 -0.088591 -2.59853e-19)
(3.22145 -0.142385 9.34699e-20)
(3.25025 -0.180058 1.93668e-19)
(3.22426 -0.225537 1.10661e-19)
(3.24175 -0.270848 -6.41014e-21)
(3.19043 -0.314102 -2.35255e-19)
(3.17878 -0.352398 1.98992e-20)
(3.11452 -0.415359 -3.67318e-20)
(3.1318 0.00672083 -1.25898e-20)
(3.15083 -0.0555344 1.18729e-19)
(3.17185 -0.0966569 -1.03466e-19)
(3.17005 -0.141231 5.91697e-21)
(3.18591 -0.167601 2.18881e-19)
(3.16158 -0.197637 -9.4447e-20)
(3.16948 -0.233806 3.33165e-20)
(3.13098 -0.249199 1.23661e-19)
(3.11763 -0.285998 1.01897e-19)
(3.07525 -0.313304 9.48896e-20)
(2.94435 -0.0128339 2.65193e-21)
(2.96456 -0.0621609 -1.58187e-21)
(2.97142 -0.0871984 -8.28553e-20)
(2.97838 -0.125634 -5.75747e-20)
(2.96956 -0.131086 -6.53664e-20)
(2.9746 -0.159488 -9.41829e-21)
(2.95519 -0.178592 4.84073e-20)
(2.95822 -0.177034 -3.54872e-20)
(2.92724 -0.21564 8.09876e-20)
(2.93428 -0.219193 1.08065e-19)
(2.36472 -0.0444471 7.87741e-20)
(2.36385 -0.0610831 -2.75787e-20)
(2.35073 -0.0693047 -2.01907e-20)
(2.34704 -0.0811076 2.84301e-20)
(2.32085 -0.0794757 1.8789e-21)
(2.34073 -0.0992115 2.89115e-20)
(2.29013 -0.0870692 -9.68615e-20)
(2.3466 -0.109331 -2.48168e-20)
(2.27222 -0.11168 2.2952e-20)
(2.34556 -0.113908 -2.17285e-20)
(1.06097 -0.0140093 0)
(1.03755 -0.0145113 2.97078e-21)
(1.01299 -0.0157092 -4.27517e-20)
(0.988908 -0.0174217 -5.23816e-20)
(0.967774 -0.0198481 2.23558e-20)
(0.94896 -0.0207902 2.44898e-20)
(0.931968 -0.0230943 -7.26073e-21)
(0.924638 -0.0237826 9.67766e-20)
(0.896264 -0.0226585 3.18075e-20)
(0.920079 -0.0425625 -5.47462e-21)
(1.06235 0.704951 -6.45328e-20)
(0.873299 0.630767 -1.33614e-19)
(0.772376 0.59714 -3.42672e-19)
(0.719283 0.580573 -5.09375e-20)
(0.688194 0.57184 3.41514e-19)
(0.666558 0.567506 -5.45681e-20)
(0.644823 0.558073 -9.37914e-20)
(0.609739 0.537901 1.08657e-20)
(0.529387 0.47918 -1.65313e-19)
(0.303176 0.28052 -8.82135e-21)
(1.43534 0.702777 -3.22615e-19)
(1.20431 0.615721 7.4674e-19)
(1.01177 0.55195 3.09186e-19)
(0.884991 0.518875 -1.12306e-19)
(0.813398 0.507495 6.76327e-20)
(0.769504 0.507936 2.36257e-20)
(0.732094 0.508511 9.65298e-20)
(0.684421 0.496653 -2.59947e-19)
(0.588268 0.44656 -5.84753e-20)
(0.33479 0.261678 -2.61872e-20)
(1.69232 0.690092 1.07586e-19)
(1.46981 0.60426 5.59072e-19)
(1.24741 0.527803 6.1341e-21)
(1.07609 0.480767 -1.0977e-19)
(0.967371 0.462276 1.18224e-19)
(0.89938 0.46275 1.23251e-19)
(0.845211 0.468836 -4.71493e-20)
(0.780758 0.463681 -1.57519e-19)
(0.66224 0.419786 2.03798e-19)
(0.3718 0.245006 -1.43913e-19)
(1.84332 0.658485 -3.55077e-19)
(1.6351 0.576466 2.39205e-19)
(1.41395 0.499167 -3.40669e-19)
(1.23131 0.448853 -8.64105e-20)
(1.10703 0.428309 2.99542e-19)
(1.02594 0.429012 -1.88511e-19)
(0.961148 0.437286 -2.37769e-19)
(0.883687 0.435266 1.59904e-19)
(0.742847 0.394143 -1.12547e-19)
(0.409772 0.227196 -8.90858e-21)
(1.9384 0.609399 4.41397e-19)
(1.74066 0.534801 3.02671e-19)
(1.52943 0.465578 -9.04532e-20)
(1.3505 0.4197 3.07009e-19)
(1.22456 0.400699 -2.35692e-20)
(1.13941 0.401263 -1.48471e-19)
(1.06881 0.408442 6.4308e-20)
(0.980991 0.405245 -1.85341e-19)
(0.818459 0.363305 -2.03661e-19)
(0.442351 0.204765 -5.15567e-20)
(2.00244 0.551998 5.91451e-19)
(1.80984 0.488016 5.80175e-19)
(1.60822 0.429587 -4.42152e-19)
(1.43775 0.390235 -3.2348e-19)
(1.31699 0.373404 2.80718e-20)
(1.23314 0.372453 -2.46072e-19)
(1.15955 0.375671 2.27941e-20)
(1.06251 0.368192 -6.48754e-20)
(0.878213 0.322252 9.44492e-20)
(0.462262 0.174829 4.16134e-20)
(2.04586 0.491982 5.21105e-19)
(1.85331 0.43776 -5.65345e-19)
(1.65739 0.388785 -4.10029e-19)
(1.4958 0.35512 1.60999e-19)
(1.38288 0.339614 -1.84939e-19)
(1.30242 0.335647 4.22908e-19)
(1.22678 0.333099 5.98906e-21)
(1.12021 0.319876 -3.6332e-19)
(0.913049 0.270311 1.5012e-19)
(0.464415 0.139277 5.11114e-20)
(2.06555 0.429103 -3.41663e-19)
(1.86901 0.383681 -3.89184e-19)
(1.67695 0.342059 -3.57233e-19)
(1.52497 0.312198 4.54426e-20)
(1.42071 0.296614 1.73657e-19)
(1.34378 0.288611 1.37264e-19)
(1.2657 0.280203 2.76546e-20)
(1.14786 0.261259 7.48458e-20)
(0.917325 0.209227 4.10208e-20)
(0.447645 0.100504 6.16339e-20)
(2.06264 0.361018 1.33119e-19)
(1.8574 0.32169 -7.88823e-20)
(1.66863 0.286535 1.8592e-19)
(1.52681 0.260731 4.99116e-19)
(1.43076 0.24462 -9.51676e-20)
(1.35613 0.232596 -3.96902e-19)
(1.27389 0.218807 3.32079e-19)
(1.14234 0.194654 3.88519e-19)
(0.889783 0.143456 -2.29068e-19)
(0.413133 0.0625016 -7.03867e-20)
(2.03054 0.291055 -2.5474e-19)
(1.816 0.257191 -2.43624e-21)
(1.63233 0.227716 2.69327e-19)
(1.50179 0.204799 1.89033e-19)
(1.41313 0.187336 1.32821e-19)
(1.33896 0.171353 -2.51956e-19)
(1.24978 0.15262 1.16578e-19)
(1.10254 0.124842 -2.68935e-19)
(0.831795 0.0790246 -2.8612e-19)
(0.364193 0.0291354 1.99754e-20)
(0.245037 0.334694 -2.77482e-20)
(0.220312 0.319207 2.36763e-19)
(0.195689 0.306103 3.02045e-20)
(0.171263 0.297018 -1.53931e-19)
(0.146599 0.291975 -4.31796e-20)
(0.121128 0.28925 -9.88847e-20)
(0.0943436 0.284856 5.00431e-20)
(0.0660527 0.271574 -3.81828e-20)
(0.0368111 0.235725 8.72686e-20)
(0.0151161 0.138367 2.05362e-20)
(0.285355 0.399935 -7.72607e-20)
(0.258401 0.381109 -2.58985e-20)
(0.231804 0.365496 -1.51707e-19)
(0.205957 0.355011 1.37718e-20)
(0.180296 0.349601 1.98623e-20)
(0.153984 0.347189 3.71077e-20)
(0.126157 0.343116 1.67915e-19)
(0.0961289 0.329052 -5.8153e-20)
(0.0626541 0.288457 6.20166e-20)
(0.0298097 0.1709 -1.63883e-20)
(0.336047 0.462438 7.34917e-20)
(0.306193 0.440403 1.87184e-19)
(0.277204 0.422346 1.03516e-19)
(0.249702 0.41051 1.5089e-19)
(0.222941 0.404782 3.80583e-20)
(0.195793 0.402743 1.69579e-19)
(0.166983 0.399077 -4.83466e-20)
(0.135152 0.384401 -4.6258e-20)
(0.09681 0.339442 -9.69658e-23)
(0.0496535 0.202356 1.03417e-20)
(0.396336 0.519607 4.81123e-19)
(0.362661 0.494341 3.42954e-19)
(0.330666 0.474077 -3.55779e-19)
(0.301238 0.461241 -1.45545e-19)
(0.273362 0.455501 -1.57126e-21)
(0.245534 0.454021 -7.61083e-20)
(0.215968 0.450846 -2.01641e-19)
(0.182421 0.435688 5.55527e-20)
(0.138757 0.386819 -3.76118e-20)
(0.0743637 0.231554 -7.72657e-20)
(0.468158 0.575432 -1.52853e-19)
(0.429927 0.547467 -3.11252e-19)
(0.394465 0.524357 2.47234e-19)
(0.362604 0.509572 -8.044e-20)
(0.333135 0.502919 -1.20511e-19)
(0.30425 0.50123 1.0388e-19)
(0.273669 0.497957 4.29124e-20)
(0.238121 0.482032 -1.11458e-19)
(0.188432 0.429473 -1.54177e-19)
(0.103708 0.257659 5.41936e-20)
(0.531225 0.614599 -2.51834e-20)
(0.489917 0.583318 -2.15093e-20)
(0.452536 0.559467 -6.0668e-21)
(0.420395 0.545329 5.35031e-20)
(0.391613 0.539778 1.81668e-19)
(0.36372 0.53906 -1.26627e-19)
(0.33379 0.536146 -8.18693e-20)
(0.297454 0.519667 7.85891e-21)
(0.242369 0.464143 -1.00194e-20)
(0.136037 0.278663 1.07002e-19)
(0.643478 0.664908 -2.28895e-19)
(0.590835 0.631332 1.01551e-19)
(0.54426 0.602133 2.92148e-19)
(0.50496 0.583816 -1.23037e-19)
(0.471019 0.57565 -2.89618e-19)
(0.439482 0.573062 1.80344e-19)
(0.406764 0.568535 3.32108e-19)
(0.367045 0.550436 1.35566e-19)
(0.304204 0.491652 6.24457e-20)
(0.172219 0.294877 1.76673e-19)
(0.658733 0.68376 -4.20448e-19)
(0.610321 0.64617 -1.11321e-19)
(0.571691 0.619396 1.91741e-19)
(0.541883 0.603528 -1.16814e-19)
(0.516607 0.596094 2.95177e-20)
(0.491797 0.59333 2.31533e-19)
(0.463814 0.588055 -1.52398e-19)
(0.426337 0.568592 -1.80893e-19)
(0.360151 0.507242 8.11715e-20)
(0.206217 0.302793 -4.84177e-20)
(0.851675 0.715265 -2.24258e-20)
(0.775076 0.67403 5.19114e-20)
(0.705418 0.635247 -1.74236e-19)
(0.651952 0.613578 -2.84934e-20)
(0.612593 0.606471 2.88438e-19)
(0.579691 0.603872 4.6136e-20)
(0.54534 0.595133 -1.55752e-20)
(0.501642 0.572616 0)
(0.425121 0.509635 -9.76079e-20)
(0.243138 0.303325 -7.27093e-20)
(0.756307 0.747808 0)
(0.720481 0.712395 0)
(0.693101 0.67875 3.93591e-19)
(0.667075 0.649487 3.1485e-20)
(0.644201 0.628551 -1.89596e-20)
(0.622618 0.612707 1.32884e-19)
(0.597901 0.596832 1.21182e-20)
(0.560124 0.572054 -1.7616e-19)
(0.480429 0.505685 1.47526e-19)
(0.275086 0.297605 1.03169e-19)
(0.830662 0.25657 -1.2967e-20)
(1.03749 0.330589 -5.09925e-21)
(0.848185 0.236999 7.23796e-21)
(0.874952 0.188881 1.98765e-21)
(0.855328 0.18367 1.13341e-20)
(0.834777 0.191059 2.58711e-20)
(0.796512 0.218987 -1.57825e-20)
(0.743189 0.260229 -3.73289e-20)
(0.643969 0.334253 -8.86039e-20)
(0.368321 0.406455 1.76735e-19)
(0.830216 0.266261 -3.41358e-21)
(1.03627 0.345253 1.05928e-20)
(0.843634 0.246409 -2.97517e-22)
(0.87226 0.193921 1.98898e-20)
(0.852332 0.188299 8.56864e-21)
(0.83711 0.198034 -3.34926e-20)
(0.804458 0.233153 -1.28077e-20)
(0.758663 0.28315 -4.42798e-22)
(0.66965 0.386812 2.61492e-19)
(0.413509 0.482146 -1.12759e-20)
(0.829453 0.276273 1.11947e-20)
(1.03436 0.360348 2.23241e-20)
(0.836739 0.255403 -2.18649e-20)
(0.866426 0.198815 -3.62944e-21)
(0.846674 0.192122 -1.15824e-20)
(0.835768 0.204253 4.43071e-21)
(0.808732 0.246062 1.9598e-20)
(0.772459 0.305539 -2.05266e-20)
(0.695339 0.435676 1.03217e-19)
(0.470704 0.554408 -4.65712e-19)
(0.828783 0.286699 6.32314e-21)
(1.03219 0.376044 -4.11242e-21)
(0.827097 0.264256 -1.9626e-20)
(0.857299 0.203221 -4.49726e-20)
(0.839821 0.195229 1.90177e-20)
(0.832069 0.20994 1.18299e-20)
(0.809607 0.25741 -2.22261e-20)
(0.784223 0.327624 9.46043e-20)
(0.72261 0.480862 -9.53791e-20)
(0.539447 0.622 -4.26647e-19)
(0.829018 0.297547 5.51785e-21)
(1.03024 0.392785 -3.27806e-20)
(0.814464 0.273293 1.43526e-20)
(0.846993 0.206307 8.00605e-20)
(0.834427 0.197384 6.21284e-21)
(0.827728 0.215408 2.99628e-20)
(0.807739 0.26743 2.95086e-20)
(0.792903 0.348166 6.06153e-20)
(0.749654 0.515375 -3.90591e-20)
(0.625729 0.681443 3.35506e-19)
(0.831019 0.308403 5.12601e-21)
(1.02898 0.41121 8.65656e-22)
(0.802339 0.282824 -1.97815e-20)
(0.84142 0.208431 1.50319e-20)
(0.831541 0.198945 -2.83486e-20)
(0.824261 0.220867 1.27004e-21)
(0.805946 0.277 -1.11778e-20)
(0.799692 0.369065 -1.80945e-19)
(0.777572 0.554118 0)
(0.683718 0.73885 -3.51279e-20)
(0.833481 0.318892 -7.90324e-21)
(1.03174 0.430514 2.76216e-20)
(0.802397 0.292558 5.51141e-22)
(0.846579 0.208822 -4.2765e-20)
(0.832265 0.20014 -1.50638e-20)
(0.825775 0.227178 -3.8574e-20)
(0.811367 0.285854 1.89947e-21)
(0.815877 0.385814 9.12952e-21)
(0.809764 0.563294 -8.052e-21)
(0.848063 0.773475 1.05473e-18)
(0.838749 0.328324 -1.02995e-19)
(1.04455 0.447497 4.86463e-20)
(0.821929 0.300535 5.36259e-20)
(0.862616 0.208136 3.26271e-20)
(0.851756 0.204052 -6.77755e-20)
(0.846121 0.236041 7.29853e-21)
(0.83296 0.299142 -4.26718e-21)
(0.83507 0.411322 9.60503e-21)
(0.863926 0.603452 1.64821e-19)
(0.825499 0.837738 -1.3705e-19)
(0.843631 0.333911 3.3994e-20)
(1.07368 0.461881 -3.55595e-20)
(0.868688 0.305183 -1.57947e-20)
(0.917679 0.209305 5.31461e-20)
(0.919548 0.206225 4.6423e-21)
(0.916272 0.241021 1.38093e-20)
(0.904881 0.304877 -2.74501e-20)
(0.918373 0.417086 5.86281e-20)
(0.934758 0.593657 2.9249e-19)
(1.06539 0.827832 -7.59265e-19)
(0.851895 0.336202 7.17956e-20)
(1.1271 0.470232 -6.96776e-20)
(0.947169 0.303111 -5.81286e-22)
(1.00815 0.207188 5.4595e-21)
(1.01587 0.209222 4.95103e-20)
(1.01134 0.25315 -1.19432e-20)
(0.999861 0.326253 -5.7611e-21)
(1.004 0.461243 6.94918e-20)
(1.06194 0.630649 8.97035e-21)
(1.08984 0.929734 4.87216e-19)
(0.854427 0.325173 -1.66553e-20)
(1.23064 0.473185 -3.93431e-21)
(1.09081 0.299249 -1.3891e-20)
(1.15541 0.20372 -9.61016e-21)
(1.18136 0.205906 -3.83526e-20)
(1.19336 0.251112 -3.32834e-20)
(1.1846 0.321617 1.53126e-21)
(1.2335 0.441369 -1.5035e-19)
(1.22957 0.625346 -3.90636e-19)
(1.18125 0.86251 -5.20385e-20)
(0.848675 0.278857 -3.63754e-20)
(1.35303 0.440825 -2.73232e-20)
(1.26181 0.282939 1.48893e-20)
(1.32982 0.19502 -3.46431e-20)
(1.37424 0.198944 5.06451e-20)
(1.40337 0.247878 8.72929e-20)
(1.43882 0.314193 1.71727e-20)
(1.4457 0.459528 1.47403e-19)
(1.6725 0.591755 6.61738e-20)
(1.45072 0.795101 5.17598e-19)
(0.831068 0.213373 -1.72065e-20)
(1.43475 0.381042 -1.36709e-20)
(1.39428 0.254609 -2.75705e-21)
(1.48001 0.179978 1.3646e-20)
(1.54035 0.183657 1.78649e-34)
(1.59168 0.226017 -6.67407e-21)
(1.64813 0.29988 -6.73142e-34)
(1.6799 0.391925 2.20291e-20)
(1.98519 0.580737 -8.80488e-20)
(1.74023 0.715634 -3.93051e-19)
(0.813331 0.143767 4.54815e-20)
(1.46749 0.295403 -1.18333e-34)
(1.46589 0.211113 1.96841e-21)
(1.56979 0.159269 5.76543e-21)
(1.64175 0.165356 -3.1756e-20)
(1.70811 0.204415 -5.27502e-20)
(1.78859 0.276878 -8.2241e-34)
(1.83227 0.347283 -1.10834e-19)
(2.18789 0.526815 -1.21687e-19)
(2.01924 0.656882 4.29032e-19)
(0.799852 0.0742279 0)
(1.46604 0.199832 -2.1823e-34)
(1.49453 0.158472 0)
(1.61484 0.133353 0)
(1.69335 0.140998 0)
(1.77208 0.171756 0)
(1.8604 0.244473 -5.34588e-34)
(1.94168 0.279825 0)
(2.26473 0.456319 -2.72886e-20)
(2.22717 0.6085 2.5352e-19)
(0.793547 0.00956125 1.73591e-20)
(1.44663 0.0999046 -4.87279e-21)
(1.48905 0.0973457 3.29007e-22)
(1.62018 0.10408 0)
(1.70187 0.115039 0)
(1.78939 0.139934 6.76631e-21)
(1.87632 0.2045 4.35703e-20)
(2.01436 0.220571 -1.45746e-20)
(2.24433 0.373754 -3.61616e-20)
(2.37855 0.526429 2.26594e-19)
(0.793421 -0.0498441 -2.42079e-21)
(1.4051 0.00207656 -2.7172e-21)
(1.43151 0.0343712 -3.97612e-22)
(1.56624 0.0727322 -2.42851e-20)
(1.64822 0.0856066 -1.36975e-20)
(1.74358 0.105698 -1.27043e-20)
(1.82599 0.155604 -3.49576e-20)
(2.01448 0.166791 -3.57764e-20)
(2.14881 0.281628 -8.2534e-20)
(2.45434 0.41674 4.05432e-20)
(0.791532 -0.0942093 -2.35947e-20)
(1.31133 -0.0731556 -2.81359e-20)
(1.26578 -0.018841 -1.39422e-21)
(1.39115 0.0429084 -1.09142e-20)
(1.46399 0.054033 8.25369e-35)
(1.56143 0.0688723 7.91894e-21)
(1.63891 0.0998958 -1.17285e-33)
(1.8622 0.115428 -1.54357e-20)
(1.92561 0.184024 1.87853e-20)
(2.37245 0.279738 3.31248e-20)
(0.774851 -0.129392 1.22877e-19)
(1.11237 -0.118491 -1.80404e-20)
(0.904584 -0.0501855 -2.56993e-21)
(1.01308 0.0203296 1.75194e-20)
(1.06621 0.0241083 8.45711e-23)
(1.14848 0.0326926 1.49433e-20)
(1.22325 0.0446373 1.29546e-20)
(1.41734 0.056387 -1.29282e-20)
(1.48165 0.0869804 -7.58121e-21)
(1.92808 0.132377 1.32578e-19)
(0.686603 -0.0619403 1.93073e-20)
(0.705409 -0.0528434 -1.19339e-34)
(0.327767 -0.0214878 -4.25963e-21)
(0.429957 0.00705692 0)
(0.445943 0.00535894 0)
(0.492001 0.00762762 8.60729e-21)
(0.542071 0.00985259 -1.11448e-35)
(0.643373 0.0152957 -1.57499e-20)
(0.706209 0.0195303 -2.50769e-20)
(0.966244 0.0371037 -5.21648e-20)
(1.6654 0.839385 2.16708e-19)
(1.87949 0.822392 -1.02346e-19)