/*--------------------------------*- C++ -*----------------------------------*\
| =========                 |                                                 |
| \\      /  F ield         | OpenFOAM: The Open Source CFD Toolbox           |
|  \\    /   O peration     | Version:  2406                                  |
|   \\  /    A nd           | Website:  www.openfoam.com                      |
|    \\/     M anipulation  |                                                 |
\*---------------------------------------------------------------------------*/
FoamFile
{
    version     2.0;
    format      ascii;
    arch        "LSB;label=32;scalar=64";
    class       surfaceScalarField;
    location    "258";
    object      phi;
}
// * * * * * * * * * * * * * * * * * * * * * * * * * * * * * * * * * * * * * //

dimensions      [0 3 -1 0 0 0 0];

oriented        oriented;

internalField   nonuniform List<scalar> 
24170
(
3.11204e-06
7.63702e-08
3.00845e-06
1.03589e-07
2.9124e-06
9.6042e-08
2.82046e-06
9.1949e-08
2.73274e-06
8.77139e-08
2.65256e-06
8.01829e-08
2.58127e-06
7.12889e-08
2.51852e-06
6.27526e-08
2.46343e-06
5.50828e-08
2.41513e-06
4.83015e-08
2.37283e-06
4.23027e-08
2.33584e-06
3.69918e-08
2.30361e-06
3.22296e-08
2.27573e-06
2.78796e-08
2.25203e-06
2.36948e-08
2.23269e-06
1.93422e-08
2.21814e-06
1.45508e-08
4.29083e-09
2.21385e-06
3.46995e-06
2.36714e-08
3.48701e-06
8.65226e-08
3.49179e-06
9.12681e-08
3.4895e-06
9.42316e-08
3.48169e-06
9.5524e-08
3.46941e-06
9.24618e-08
3.45361e-06
8.70903e-08
3.43526e-06
8.1106e-08
3.41523e-06
7.51098e-08
3.3943e-06
6.92369e-08
3.37304e-06
6.356e-08
3.35191e-06
5.81178e-08
3.33125e-06
5.28946e-08
3.31132e-06
4.78107e-08
3.2923e-06
4.27068e-08
3.27444e-06
3.72025e-08
3.25803e-06
3.09694e-08
2.10028e-08
3.24131e-06
3.66901e-06
1.71757e-08
3.68279e-06
7.2745e-08
3.69306e-06
8.10023e-08
3.7027e-06
8.45852e-08
3.71096e-06
8.7266e-08
3.71699e-06
8.64337e-08
3.72088e-06
8.3196e-08
3.72293e-06
7.90597e-08
3.72343e-06
7.46041e-08
3.72267e-06
7.00043e-08
3.72089e-06
6.53407e-08
3.71831e-06
6.06901e-08
3.71515e-06
5.60555e-08
3.71159e-06
5.13786e-08
3.70776e-06
4.65285e-08
3.70381e-06
4.1156e-08
3.6997e-06
3.50787e-08
2.705e-08
3.69365e-06
3.92539e-06
1.71691e-08
3.93667e-06
6.14692e-08
3.94493e-06
7.27431e-08
3.95247e-06
7.70483e-08
3.95943e-06
8.03001e-08
3.96536e-06
8.05079e-08
3.97031e-06
7.82429e-08
3.97448e-06
7.48943e-08
3.97797e-06
7.11047e-08
3.9809e-06
6.70805e-08
3.98333e-06
6.29075e-08
3.98536e-06
5.86642e-08
3.98705e-06
5.43584e-08
3.98849e-06
4.99425e-08
3.98971e-06
4.53041e-08
3.99067e-06
4.02051e-08
3.99118e-06
3.45692e-08
2.79531e-08
3.99027e-06
4.20787e-06
1.64249e-08
4.21641e-06
5.29352e-08
4.22302e-06
6.61275e-08
4.22907e-06
7.09982e-08
4.23501e-06
7.43648e-08
4.24045e-06
7.50626e-08
4.24531e-06
7.33837e-08
4.24967e-06
7.05347e-08
4.2536e-06
6.71717e-08
4.25717e-06
6.35116e-08
4.26043e-06
5.96519e-08
4.26342e-06
5.56678e-08
4.2662e-06
5.15779e-08
4.2688e-06
4.73469e-08
4.27121e-06
4.2895e-08
4.27333e-06
3.8083e-08
4.275e-06
3.29014e-08
2.72837e-08
4.27567e-06
4.51049e-06
1.50195e-08
4.51719e-06
4.62402e-08
4.52311e-06
6.0205e-08
4.5286e-06
6.55096e-08
4.53411e-06
6.88482e-08
4.53934e-06
6.98322e-08
4.54413e-06
6.85971e-08
4.54851e-06
6.61514e-08
4.55256e-06
6.31307e-08
4.55631e-06
5.97599e-08
4.55981e-06
5.61498e-08
4.5631e-06
5.23756e-08
4.56621e-06
4.84694e-08
4.56915e-06
4.44114e-08
4.57188e-06
4.01585e-08
4.57432e-06
3.56438e-08
4.57632e-06
3.09048e-08
2.6025e-08
4.57758e-06
4.83418e-06
1.35576e-08
4.83989e-06
4.05333e-08
4.8456e-06
5.44952e-08
4.85089e-06
6.02232e-08
4.85619e-06
6.35454e-08
4.8613e-06
6.47245e-08
4.86605e-06
6.38466e-08
4.87046e-06
6.17426e-08
4.87457e-06
5.90144e-08
4.87844e-06
5.58959e-08
4.88208e-06
5.25081e-08
4.88552e-06
4.89289e-08
4.88879e-06
4.52029e-08
4.89187e-06
4.13287e-08
4.89474e-06
3.72951e-08
4.89729e-06
3.30864e-08
4.89943e-06
2.87673e-08
2.44667e-08
4.90099e-06
5.18097e-06
1.21726e-08
5.18602e-06
3.54787e-08
5.19156e-06
4.89547e-08
5.19676e-06
5.50282e-08
5.20195e-06
5.83545e-08
5.207e-06
5.96663e-08
5.21177e-06
5.90817e-08
5.21623e-06
5.72774e-08
5.22044e-06
5.48107e-08
5.22441e-06
5.19255e-08
5.22817e-06
4.87492e-08
5.23173e-06
4.5365e-08
5.23511e-06
4.18275e-08
5.23828e-06
3.81542e-08
5.24122e-06
3.4359e-08
5.24384e-06
3.04599e-08
5.24608e-06
2.65318e-08
2.27038e-08
5.24784e-06
5.55267e-06
1.08382e-08
5.55718e-06
3.09727e-08
5.56249e-06
4.36454e-08
5.56762e-06
4.98929e-08
5.57276e-06
5.32155e-08
5.57782e-06
5.46102e-08
5.58263e-06
5.42684e-08
5.58717e-06
5.27341e-08
5.59147e-06
5.05105e-08
5.59555e-06
4.7849e-08
5.59942e-06
4.48824e-08
5.60308e-06
4.16994e-08
5.60655e-06
3.83632e-08
5.60979e-06
3.49083e-08
5.61279e-06
3.13661e-08
5.61547e-06
2.77752e-08
5.61779e-06
2.42094e-08
2.07827e-08
5.61971e-06
5.95106e-06
9.55163e-09
5.95509e-06
2.69418e-08
5.96014e-06
3.86001e-08
5.96521e-06
4.48184e-08
5.97032e-06
4.81061e-08
5.97539e-06
4.95405e-08
5.98027e-06
4.93937e-08
5.9849e-06
4.81028e-08
5.9893e-06
4.61096e-08
5.99348e-06
4.36673e-08
5.99745e-06
4.09133e-08
6.00121e-06
3.79411e-08
6.00475e-06
3.48205e-08
6.00806e-06
3.15993e-08
6.0111e-06
2.83205e-08
6.01385e-06
2.50333e-08
6.01625e-06
2.18047e-08
1.87304e-08
6.0183e-06
6.37803e-06
8.32877e-09
6.38166e-06
2.33123e-08
6.38644e-06
3.38264e-08
6.39144e-06
3.9821e-08
6.39651e-06
4.30267e-08
6.40159e-06
4.44612e-08
6.40653e-06
4.44597e-08
6.41125e-06
4.33822e-08
6.41575e-06
4.16077e-08
6.42004e-06
3.93819e-08
6.4241e-06
3.68453e-08
6.42795e-06
3.40944e-08
6.43157e-06
3.12035e-08
6.43494e-06
2.8229e-08
6.43804e-06
2.5221e-08
6.44084e-06
2.22317e-08
6.44332e-06
1.93197e-08
1.65635e-08
6.44549e-06
5.74182e-06
7.3456e-09
5.74462e-06
2.05142e-08
5.74844e-06
3.00012e-08
5.75259e-06
3.56697e-08
5.75686e-06
3.8762e-08
5.76115e-06
4.01694e-08
5.76536e-06
4.0252e-08
5.76941e-06
3.93282e-08
5.77329e-06
3.77281e-08
5.77699e-06
3.5683e-08
5.7805e-06
3.33334e-08
5.78382e-06
3.07767e-08
5.78693e-06
2.80892e-08
5.78983e-06
2.53312e-08
5.7925e-06
2.25556e-08
5.79491e-06
1.98139e-08
5.79708e-06
1.71572e-08
1.46532e-08
5.79899e-06
6.99921e-06
6.28992e-09
7.00218e-06
1.75422e-08
7.00633e-06
2.58503e-08
7.01097e-06
3.10338e-08
7.01581e-06
3.39253e-08
7.02072e-06
3.52604e-08
7.02557e-06
3.54002e-08
7.03027e-06
3.46228e-08
7.03479e-06
3.3207e-08
7.03911e-06
3.13639e-08
7.04322e-06
2.92303e-08
7.04709e-06
2.69022e-08
7.05072e-06
2.44558e-08
7.0541e-06
2.19526e-08
7.05721e-06
1.94453e-08
7.06004e-06
1.69827e-08
7.06259e-06
1.46077e-08
1.23777e-08
7.06487e-06
8.53197e-06
5.17103e-09
8.53508e-06
1.44262e-08
8.53953e-06
2.14067e-08
8.54463e-06
2.59277e-08
8.55005e-06
2.85058e-08
8.55561e-06
2.97057e-08
8.56114e-06
2.98607e-08
8.56656e-06
2.92104e-08
8.57178e-06
2.79818e-08
8.57679e-06
2.63589e-08
8.58155e-06
2.44696e-08
8.58604e-06
2.24055e-08
8.59026e-06
2.02392e-08
8.59418e-06
1.80301e-08
8.5978e-06
1.5828e-08
8.60111e-06
1.36765e-08
8.6041e-06
1.16108e-08
9.67828e-09
8.6068e-06
1.04004e-05
4.00151e-09
1.04036e-05
1.11912e-08
1.04083e-05
1.67007e-08
1.04139e-05
2.03727e-08
1.04199e-05
2.2502e-08
1.04261e-05
2.34847e-08
1.04324e-05
2.3599e-08
1.04385e-05
2.30432e-08
1.04445e-05
2.19951e-08
1.04503e-05
2.06051e-08
1.04558e-05
1.89854e-08
1.04609e-05
1.72186e-08
1.04658e-05
1.53701e-08
1.04704e-05
1.34931e-08
1.04746e-05
1.16319e-08
1.04784e-05
9.82345e-09
1.04819e-05
8.09521e-09
6.48612e-09
1.04851e-05
1.2678e-05
2.79117e-09
1.26814e-05
7.84017e-09
1.26863e-05
1.17425e-08
1.26923e-05
1.43808e-08
1.26989e-05
1.5908e-08
1.27058e-05
1.65727e-08
1.27128e-05
1.65774e-08
1.27198e-05
1.60727e-08
1.27266e-05
1.51881e-08
1.27332e-05
1.40363e-08
1.27395e-05
1.27062e-08
1.27454e-05
1.12658e-08
1.2751e-05
9.76884e-09
1.27562e-05
8.25926e-09
1.27611e-05
6.77261e-09
1.27656e-05
5.33816e-09
1.27697e-05
3.97594e-09
2.71735e-09
1.27735e-05
1.54544e-05
1.53468e-09
1.54579e-05
4.33795e-09
1.54632e-05
6.48952e-09
1.54697e-05
7.91323e-09
1.54769e-05
8.67654e-09
1.54846e-05
8.90843e-09
1.54924e-05
8.72622e-09
1.55003e-05
8.22246e-09
1.5508e-05
7.4775e-09
1.55154e-05
6.56272e-09
1.55226e-05
5.53722e-09
1.55294e-05
4.44799e-09
1.55359e-05
3.3328e-09
1.55419e-05
2.22257e-09
1.55475e-05
1.14229e-09
1.55528e-05
1.1215e-10
1.55576e-05
-8.54929e-10
-1.73515e-09
1.5562e-05
1.8839e-05
1.97123e-10
1.88427e-05
5.71037e-10
1.88484e-05
7.8247e-10
1.88556e-05
7.97589e-10
1.88636e-05
6.32501e-10
1.88722e-05
3.15813e-10
1.88811e-05
-1.28212e-10
1.889e-05
-6.75617e-10
1.88987e-05
-1.29994e-09
1.89073e-05
-1.97534e-09
1.89155e-05
-2.67886e-09
1.89233e-05
-3.39045e-09
1.89307e-05
-4.09248e-09
1.89377e-05
-4.76982e-09
1.89443e-05
-5.41e-09
1.89504e-05
-6.00271e-09
1.89561e-05
-6.54227e-09
-7.01254e-09
1.89614e-05
2.29649e-05
-1.31695e-09
2.29692e-05
-3.7414e-09
2.29757e-05
-5.79198e-09
2.2984e-05
-7.43865e-09
2.29933e-05
-8.69746e-09
2.30033e-05
-9.65764e-09
2.30136e-05
-1.04128e-08
2.30239e-05
-1.10189e-08
2.30341e-05
-1.15098e-08
2.30441e-05
-1.19139e-08
2.30536e-05
-1.2253e-08
2.30628e-05
-1.25397e-08
2.30715e-05
-1.278e-08
2.30797e-05
-1.29768e-08
2.30874e-05
-1.31314e-08
2.30946e-05
-1.3244e-08
2.31014e-05
-1.33162e-08
-1.33394e-08
2.31077e-05
1.68119e-05
-2.48616e-09
1.68152e-05
-7.05159e-09
1.68202e-05
-1.08517e-08
1.68265e-05
-1.37318e-08
1.68336e-05
-1.57311e-08
1.6841e-05
-1.70914e-08
1.68486e-05
-1.80186e-08
1.68562e-05
-1.86199e-08
1.68637e-05
-1.89717e-08
1.68709e-05
-1.91466e-08
1.68779e-05
-1.91993e-08
1.68845e-05
-1.91645e-08
1.68908e-05
-1.90636e-08
1.68967e-05
-1.8912e-08
1.69023e-05
-1.87197e-08
1.69075e-05
-1.84929e-08
1.69125e-05
-1.82368e-08
-1.79474e-08
1.69171e-05
1.46357e-05
-3.59029e-09
1.46389e-05
-1.0234e-08
1.46438e-05
-1.5758e-08
1.46498e-05
-1.97319e-08
1.46563e-05
-2.22887e-08
1.46631e-05
-2.39213e-08
1.46701e-05
-2.49307e-08
1.46769e-05
-2.54523e-08
1.46835e-05
-2.56146e-08
1.46899e-05
-2.55392e-08
1.4696e-05
-2.53076e-08
1.47018e-05
-2.49683e-08
1.47073e-05
-2.45544e-08
1.47125e-05
-2.40904e-08
1.47174e-05
-2.35927e-08
1.4722e-05
-2.30715e-08
1.47263e-05
-2.25345e-08
-2.19799e-08
1.47303e-05
1.27411e-05
-4.58863e-09
1.27443e-05
-1.34162e-08
1.27493e-05
-2.07772e-08
1.27552e-05
-2.56213e-08
1.27614e-05
-2.85042e-08
1.27678e-05
-3.03086e-08
1.27742e-05
-3.13279e-08
1.27805e-05
-3.16931e-08
1.27865e-05
-3.16101e-08
1.27922e-05
-3.12566e-08
1.27976e-05
-3.07321e-08
1.28027e-05
-3.00937e-08
1.28076e-05
-2.93835e-08
1.28121e-05
-2.86323e-08
1.28164e-05
-2.786e-08
1.28204e-05
-2.70783e-08
1.28241e-05
-2.62946e-08
-2.55075e-08
1.28277e-05
1.10917e-05
-5.34499e-09
1.10949e-05
-1.66412e-08
1.11003e-05
-2.61253e-08
1.11061e-05
-3.14987e-08
1.11121e-05
-3.44486e-08
1.11181e-05
-3.63231e-08
1.1124e-05
-3.72596e-08
1.11297e-05
-3.73965e-08
1.11352e-05
-3.70375e-08
1.11403e-05
-3.63992e-08
1.11452e-05
-3.55844e-08
1.11497e-05
-3.46569e-08
1.1154e-05
-3.36672e-08
1.1158e-05
-3.26515e-08
1.11618e-05
-3.16312e-08
1.11653e-05
-3.06188e-08
1.11687e-05
-2.96222e-08
-2.86415e-08
1.11718e-05
9.65562e-06
-5.74805e-09
9.65899e-06
-2.00131e-08
9.66459e-06
-3.17246e-08
9.67033e-06
-3.72436e-08
9.67609e-06
-4.02102e-08
9.68186e-06
-4.20927e-08
9.68741e-06
-4.28059e-08
9.69264e-06
-4.26255e-08
9.69757e-06
-4.19683e-08
9.70222e-06
-4.10511e-08
9.7066e-06
-3.9961e-08
9.71071e-06
-3.87649e-08
9.71456e-06
-3.75189e-08
9.71817e-06
-3.62626e-08
9.72156e-06
-3.50181e-08
9.72474e-06
-3.37979e-08
9.72772e-06
-3.2606e-08
-3.14341e-08
9.73051e-06
8.40493e-06
-5.32326e-09
8.40926e-06
-2.43444e-08
8.41476e-06
-3.72208e-08
8.41994e-06
-4.24285e-08
8.42548e-06
-4.575e-08
8.43115e-06
-4.77606e-08
8.43654e-06
-4.82006e-08
8.44158e-06
-4.76594e-08
8.44628e-06
-4.66763e-08
8.45069e-06
-4.5455e-08
8.4548e-06
-4.40718e-08
8.45863e-06
-4.25971e-08
8.4622e-06
-4.10905e-08
8.46553e-06
-3.95925e-08
8.46864e-06
-3.81261e-08
8.47155e-06
-3.67047e-08
8.47428e-06
-3.53381e-08
-3.40242e-08
8.47687e-06
7.31362e-06
-1.65623e-09
7.32062e-06
-3.13423e-08
7.32659e-06
-4.31997e-08
7.33172e-06
-4.75546e-08
7.33734e-06
-5.13722e-08
7.34305e-06
-5.34713e-08
7.34846e-06
-5.36111e-08
7.35353e-06
-5.27212e-08
7.35825e-06
-5.1403e-08
7.36264e-06
-4.98377e-08
7.36668e-06
-4.81136e-08
7.37039e-06
-4.63131e-08
7.37381e-06
-4.45043e-08
7.37694e-06
-4.27273e-08
7.37982e-06
-4.10088e-08
7.38248e-06
-3.93614e-08
7.38493e-06
-3.77877e-08
-3.62458e-08
7.38715e-06
6.36052e-06
7.89058e-09
6.37061e-06
-4.14359e-08
6.37892e-06
-5.15106e-08
6.38646e-06
-5.50857e-08
6.39385e-06
-5.87662e-08
6.4005e-06
-6.01236e-08
6.40633e-06
-5.94405e-08
6.41155e-06
-5.79363e-08
6.41627e-06
-5.61232e-08
6.42052e-06
-5.40931e-08
6.42434e-06
-5.19281e-08
6.42774e-06
-4.97142e-08
6.43076e-06
-4.75251e-08
6.43343e-06
-4.54002e-08
6.43579e-06
-4.33702e-08
6.43788e-06
-4.14538e-08
6.43976e-06
-3.96664e-08
-3.80152e-08
6.44153e-06
5.53963e-06
1.37217e-08
5.54925e-06
-5.10493e-08
5.55858e-06
-6.08392e-08
5.56919e-06
-6.56991e-08
5.57994e-06
-6.95179e-08
5.58932e-06
-6.9498e-08
5.59696e-06
-6.70816e-08
5.60307e-06
-6.40488e-08
5.60788e-06
-6.09296e-08
5.61156e-06
-5.77815e-08
5.61429e-06
-5.46568e-08
5.6162e-06
-5.16231e-08
5.61741e-06
-4.87286e-08
5.61801e-06
-4.60033e-08
5.6181e-06
-4.34619e-08
5.61779e-06
-4.11393e-08
5.61715e-06
-3.90282e-08
-3.71804e-08
5.61631e-06
4.87138e-06
-3.00485e-08
4.88544e-06
-6.51149e-08
4.89438e-06
-6.97735e-08
4.90075e-06
-7.20662e-08
4.90502e-06
-7.37916e-08
4.90664e-06
-7.11165e-08
4.90536e-06
-6.58006e-08
4.90132e-06
-6.00105e-08
4.89494e-06
-5.45506e-08
4.8867e-06
-4.9545e-08
4.87707e-06
-4.50244e-08
4.86642e-06
-4.09742e-08
4.85507e-06
-3.73744e-08
4.84325e-06
-3.41873e-08
4.83117e-06
-3.13785e-08
4.81898e-06
-2.89544e-08
4.8069e-06
-2.6943e-08
-2.58494e-08
4.79557e-06
4.17263e-06
4.10751e-06
4.03774e-06
3.96567e-06
3.89188e-06
3.82077e-06
3.75496e-06
3.69495e-06
3.6404e-06
3.59086e-06
3.54583e-06
3.50486e-06
3.46749e-06
3.4333e-06
3.40192e-06
3.37297e-06
3.34602e-06
3.32017e-06
-1.03596e-08
1.03595e-08
-2.788e-08
1.75203e-08
-4.75679e-08
1.96875e-08
-6.61267e-08
1.85586e-08
-7.85014e-08
1.23742e-08
-7.70287e-08
-1.47249e-09
-5.71506e-08
-1.98788e-08
-2.02068e-08
-3.69431e-08
2.89574e-08
-4.9165e-08
8.49492e-08
-5.59912e-08
1.42002e-07
-5.70534e-08
1.95386e-07
-5.33843e-08
2.41853e-07
-4.64671e-08
2.79265e-07
-3.74116e-08
3.06278e-07
-2.7014e-08
3.22069e-07
-1.5791e-08
3.26046e-07
-3.97761e-09
3.17927e-07
8.11904e-09
2.9804e-07
1.98871e-08
2.67454e-07
3.05863e-08
2.27959e-07
3.9495e-08
1.82125e-07
4.58338e-08
1.33353e-07
4.87718e-08
8.57774e-08
4.75766e-08
4.38525e-08
4.19251e-08
1.12928e-08
3.25606e-08
-1.05556e-08
2.18489e-08
-2.36416e-08
1.30871e-08
-3.10772e-08
7.43667e-09
-3.61137e-08
5.03764e-09
-4.1407e-08
5.29463e-09
-4.66256e-08
5.22009e-09
-4.74365e-08
8.11758e-10
-3.91622e-08
-8.27295e-09
-1.94311e-08
-1.97314e-08
1.05699e-08
-3.00004e-08
4.51617e-08
-3.45926e-08
7.6586e-08
-3.14239e-08
9.99352e-08
-2.33497e-08
1.13738e-07
-1.38016e-08
1.19423e-07
-5.68471e-09
1.20152e-07
-7.29172e-10
1.22373e-07
-2.22122e-09
1.38996e-07
-1.66237e-08
1.60888e-07
-2.18936e-08
1.62612e-07
-1.72465e-09
1.32799e-07
2.98117e-08
6.20921e-08
7.07094e-08
-5.39525e-08
1.16044e-07
-2.07905e-07
1.53955e-07
-3.86854e-07
1.78948e-07
-5.79866e-07
1.93014e-07
-7.77476e-07
1.9761e-07
-9.71992e-07
1.94516e-07
-1.15751e-06
1.85516e-07
-1.33002e-06
1.72506e-07
-1.4872e-06
1.57183e-07
-1.62818e-06
1.40979e-07
-1.75315e-06
1.24971e-07
-1.86306e-06
1.09905e-07
-1.95929e-06
9.62269e-08
-2.04344e-06
8.41569e-08
-2.11719e-06
7.37467e-08
-2.1821e-06
6.49146e-08
-2.23959e-06
5.74889e-08
-2.29087e-06
5.12779e-08
-2.33696e-06
4.60925e-08
-2.37872e-06
4.17592e-08
-2.41685e-06
3.81264e-08
-2.45191e-06
3.50618e-08
-2.48437e-06
3.24588e-08
-2.5146e-06
3.0226e-08
-2.54289e-06
2.82888e-08
-2.56948e-06
2.65876e-08
-2.59455e-06
2.50737e-08
-2.61826e-06
2.3708e-08
-2.64072e-06
2.24586e-08
-2.66202e-06
2.13e-08
-2.68223e-06
2.02112e-08
-2.7014e-06
1.91753e-08
-2.71958e-06
1.81779e-08
-2.73679e-06
1.72076e-08
-2.75304e-06
1.62546e-08
-2.76835e-06
1.53105e-08
-2.78272e-06
1.43681e-08
-2.79614e-06
1.3421e-08
-2.80861e-06
1.24632e-08
-2.8201e-06
1.14887e-08
-2.83059e-06
1.04918e-08
-2.84006e-06
9.4661e-09
-2.84846e-06
8.40485e-09
-2.85576e-06
7.30098e-09
-2.86191e-06
6.14685e-09
-2.86684e-06
4.93395e-09
-2.87049e-06
3.65139e-09
-2.87279e-06
2.29354e-09
-2.87368e-06
8.91147e-10
-2.87323e-06
-4.4864e-10
-2.8716e-06
-1.62695e-09
-2.8689e-06
-2.70451e-09
-2.86512e-06
-3.77287e-09
-2.86027e-06
-4.84869e-09
-2.85433e-06
-5.94079e-09
-2.84729e-06
-7.05053e-09
-2.83911e-06
-8.17816e-09
-2.82979e-06
-9.32361e-09
-2.8193e-06
-1.04861e-08
-2.80764e-06
-1.16654e-08
-2.79478e-06
-1.28605e-08
-2.78071e-06
-1.4071e-08
-2.76542e-06
-1.52959e-08
-2.74889e-06
-1.65348e-08
-2.7311e-06
-1.77862e-08
-2.71205e-06
-1.90498e-08
-2.69173e-06
-2.0324e-08
-2.67012e-06
-2.16082e-08
-2.64722e-06
-2.29007e-08
-2.62302e-06
-2.42011e-08
-2.59751e-06
-2.55072e-08
-2.5707e-06
-2.68185e-08
-2.54256e-06
-2.81326e-08
-2.51312e-06
-2.94487e-08
-2.48235e-06
-3.07642e-08
-2.45028e-06
-3.20781e-08
-2.41689e-06
-3.33876e-08
-2.38219e-06
-3.46915e-08
-2.3462e-06
-3.5987e-08
-2.30893e-06
-3.72723e-08
-2.27038e-06
-3.85452e-08
-2.23057e-06
-3.98018e-08
-2.18951e-06
-4.10455e-08
-2.14724e-06
-4.22661e-08
-2.10376e-06
-4.34693e-08
-2.0591e-06
-4.46518e-08
-2.01329e-06
-4.58011e-08
-1.96636e-06
-4.69233e-08
-1.91834e-06
-4.80147e-08
-1.86926e-06
-4.9073e-08
-1.81917e-06
-5.00968e-08
-1.7681e-06
-5.10806e-08
-1.71609e-06
-5.20238e-08
-1.66319e-06
-5.29218e-08
-1.60943e-06
-5.3775e-08
-1.55487e-06
-5.45854e-08
-1.49954e-06
-5.53464e-08
-1.44351e-06
-5.60536e-08
-1.38682e-06
-5.67093e-08
-1.32953e-06
-5.73133e-08
-1.27169e-06
-5.78657e-08
-1.21335e-06
-5.8366e-08
-1.15457e-06
-5.88134e-08
-1.09539e-06
-5.92092e-08
-1.03586e-06
-5.95527e-08
-9.76049e-07
-5.98449e-08
-9.15993e-07
-6.00872e-08
-8.55743e-07
-6.02813e-08
-7.95346e-07
-6.04297e-08
-7.34844e-07
-6.05346e-08
-6.74278e-07
-6.05981e-08
-6.13687e-07
-6.06227e-08
-5.53107e-07
-6.06117e-08
-4.92571e-07
-6.05674e-08
-4.32108e-07
-6.04917e-08
-3.71749e-07
-6.0389e-08
-3.11519e-07
-6.02572e-08
-2.5145e-07
-6.00963e-08
-1.91559e-07
-5.99154e-08
-1.31871e-07
-5.97131e-08
-7.24257e-08
-5.94658e-08
-1.33828e-08
-5.90641e-08
4.52693e-08
-5.86688e-08
1.03479e-07
-5.82256e-08
1.60949e-07
-5.74822e-08
2.17437e-07
-5.64988e-08
2.72608e-07
-5.51769e-08
3.25816e-07
-5.32135e-08
3.75893e-07
-5.00771e-08
4.20199e-07
-4.43063e-08
4.5616e-07
-3.59598e-08
8.77637e-10
4.55278e-07
-4.51196e-09
1.4871e-08
-1.3011e-08
2.60187e-08
-1.89277e-08
2.5603e-08
-1.46586e-08
1.42889e-08
7.55979e-09
-9.84539e-09
4.74687e-08
-4.13815e-08
1.01006e-07
-7.34163e-08
1.62302e-07
-9.82397e-08
2.25308e-07
-1.12171e-07
2.84831e-07
-1.15514e-07
3.38008e-07
-1.10231e-07
3.83442e-07
-9.88189e-08
4.2054e-07
-8.35645e-08
4.49279e-07
-6.61511e-08
4.69936e-07
-4.76708e-08
4.82921e-07
-2.87766e-08
4.88801e-07
-9.85811e-09
4.88016e-07
8.90444e-09
4.80436e-07
2.74666e-08
4.65414e-07
4.56089e-08
4.42164e-07
6.27449e-08
4.10067e-07
7.79306e-08
3.68955e-07
8.98833e-08
3.19399e-07
9.71335e-08
2.62948e-07
9.83763e-08
2.02468e-07
9.30407e-08
1.42536e-07
8.17816e-08
8.93856e-08
6.62391e-08
4.82516e-08
4.85716e-08
2.17411e-08
3.15514e-08
9.89914e-09
1.71381e-08
1.12681e-08
3.85538e-09
2.36618e-08
-1.15814e-08
4.61328e-08
-3.07423e-08
7.74583e-08
-5.10573e-08
1.11723e-07
-6.42646e-08
1.40766e-07
-6.36361e-08
1.58666e-07
-4.93237e-08
1.64476e-07
-2.916e-08
1.60889e-07
-1.02139e-08
1.5608e-07
-8.75163e-10
1.46462e-07
8.88832e-09
1.10302e-07
3.39383e-08
1.99857e-08
7.36911e-08
-1.35143e-07
1.33233e-07
-3.34327e-07
1.97459e-07
-5.55182e-07
2.50666e-07
-7.80426e-07
2.95954e-07
-9.97429e-07
3.33047e-07
-1.20093e-06
3.57456e-07
-1.3879e-06
3.65922e-07
-1.55509e-06
3.60205e-07
-1.70067e-06
3.43191e-07
-1.8244e-06
3.18238e-07
-1.92765e-06
2.88767e-07
-2.01281e-06
2.57668e-07
-2.08282e-06
2.27187e-07
-2.14063e-06
1.98792e-07
-2.18898e-06
1.73317e-07
-2.23015e-06
1.51078e-07
-2.26596e-06
1.32042e-07
-2.29778e-06
1.15968e-07
-2.32655e-06
1.02524e-07
-2.35297e-06
9.133e-08
-2.3775e-06
8.20163e-08
-2.40047e-06
7.42467e-08
-2.42211e-06
6.77352e-08
-2.44259e-06
6.22429e-08
-2.46204e-06
5.75713e-08
-2.48053e-06
5.35567e-08
-2.49814e-06
5.00682e-08
-2.51491e-06
4.69983e-08
-2.53089e-06
4.42619e-08
-2.54609e-06
4.17901e-08
-2.56054e-06
3.95272e-08
-2.57426e-06
3.74279e-08
-2.58726e-06
3.54554e-08
-2.59954e-06
3.35796e-08
-2.61111e-06
3.17759e-08
-2.62196e-06
3.0024e-08
-2.63208e-06
2.83069e-08
-2.64149e-06
2.66106e-08
-2.65016e-06
2.49234e-08
-2.65808e-06
2.32353e-08
-2.66525e-06
2.15381e-08
-2.67166e-06
1.98244e-08
-2.67728e-06
1.80883e-08
-2.68212e-06
1.63245e-08
-2.68615e-06
1.45285e-08
-2.68938e-06
1.26968e-08
-2.69181e-06
1.08267e-08
-2.69342e-06
8.91686e-09
-2.69424e-06
6.96749e-09
-2.69429e-06
4.98141e-09
-2.6936e-06
2.96694e-09
-2.69225e-06
9.43489e-10
-2.6903e-06
-1.06296e-09
-2.68769e-06
-3.05497e-09
-2.68425e-06
-5.07399e-09
-2.67981e-06
-7.13893e-09
-2.67435e-06
-9.23984e-09
-2.66782e-06
-1.13755e-08
-2.66021e-06
-1.35479e-08
-2.65151e-06
-1.57567e-08
-2.64169e-06
-1.80017e-08
-2.63073e-06
-2.0282e-08
-2.61862e-06
-2.25964e-08
-2.60534e-06
-2.49439e-08
-2.59088e-06
-2.73229e-08
-2.57522e-06
-2.97323e-08
-2.55835e-06
-3.21704e-08
-2.54025e-06
-3.46356e-08
-2.52091e-06
-3.71261e-08
-2.50032e-06
-3.96402e-08
-2.47847e-06
-4.21754e-08
-2.45535e-06
-4.473e-08
-2.43095e-06
-4.73014e-08
-2.40526e-06
-4.98874e-08
-2.37829e-06
-5.24853e-08
-2.35001e-06
-5.50923e-08
-2.32044e-06
-5.77052e-08
-2.28957e-06
-6.0321e-08
-2.2574e-06
-6.2936e-08
-2.22393e-06
-6.55467e-08
-2.18917e-06
-6.8149e-08
-2.15312e-06
-7.07392e-08
-2.11579e-06
-7.33127e-08
-2.0772e-06
-7.58658e-08
-2.03734e-06
-7.83936e-08
-1.99625e-06
-8.08921e-08
-1.95393e-06
-8.33576e-08
-1.91041e-06
-8.57847e-08
-1.8657e-06
-8.81697e-08
-1.81984e-06
-9.05067e-08
-1.77285e-06
-9.27876e-08
-1.72475e-06
-9.501e-08
-1.67559e-06
-9.71705e-08
-1.6254e-06
-9.92653e-08
-1.57421e-06
-1.01289e-07
-1.52207e-06
-1.03235e-07
-1.46901e-06
-1.05097e-07
-1.41507e-06
-1.06871e-07
-1.3603e-06
-1.08555e-07
-1.30475e-06
-1.1015e-07
-1.24847e-06
-1.11643e-07
-1.19151e-06
-1.13032e-07
-1.13391e-06
-1.14318e-07
-1.07574e-06
-1.15501e-07
-1.01704e-06
-1.16578e-07
-9.57875e-07
-1.17552e-07
-8.98286e-07
-1.18419e-07
-8.38331e-07
-1.19183e-07
-7.78061e-07
-1.19841e-07
-7.17527e-07
-1.20398e-07
-6.56778e-07
-1.20855e-07
-5.95864e-07
-1.21216e-07
-5.34831e-07
-1.21483e-07
-4.73722e-07
-1.21664e-07
-4.1258e-07
-1.2176e-07
-3.51444e-07
-1.21778e-07
-2.90351e-07
-1.21724e-07
-2.29334e-07
-1.21603e-07
-1.68425e-07
-1.21418e-07
-1.07651e-07
-1.2118e-07
-4.70362e-08
-1.20888e-07
1.33941e-08
-1.20541e-07
7.36222e-08
-1.20157e-07
1.33616e-07
-1.19719e-07
1.93336e-07
-1.19196e-07
2.5282e-07
-1.18556e-07
3.11944e-07
-1.17801e-07
3.70537e-07
-1.16825e-07
4.28559e-07
-1.1551e-07
4.85854e-07
-1.13797e-07
5.42126e-07
-1.11452e-07
5.96919e-07
-1.08007e-07
6.49343e-07
-1.02501e-07
6.98468e-07
-9.34291e-08
7.40662e-07
-7.81515e-08
-3.63607e-08
7.77901e-07
7.09762e-10
1.41605e-08
3.59172e-09
2.31356e-08
1.73041e-08
1.18893e-08
5.30735e-08
-2.1481e-08
1.11475e-07
-6.8247e-08
1.83578e-07
-1.13485e-07
2.56565e-07
-1.46404e-07
3.21701e-07
-1.63375e-07
3.75346e-07
-1.65817e-07
4.1716e-07
-1.57327e-07
4.48619e-07
-1.41691e-07
4.71715e-07
-1.21915e-07
4.88208e-07
-1.00057e-07
4.99428e-07
-7.73713e-08
5.06304e-07
-5.45476e-08
5.09445e-07
-3.19173e-08
5.09201e-07
-9.61407e-09
5.05849e-07
1.22558e-08
4.99672e-07
3.36443e-08
4.90766e-07
5.45143e-08
4.78807e-07
7.47037e-08
4.62942e-07
9.3796e-08
4.41826e-07
1.10999e-07
4.13901e-07
1.25058e-07
3.77952e-07
1.34325e-07
3.33976e-07
1.37018e-07
2.84001e-07
1.31757e-07
2.32191e-07
1.1805e-07
1.84015e-07
9.67484e-08
1.45394e-07
7.01726e-08
1.21522e-07
4.10117e-08
1.14592e-07
1.07864e-08
1.22773e-07
-1.97626e-08
1.42382e-07
-5.03503e-08
1.63759e-07
-7.24343e-08
1.75219e-07
-7.57247e-08
1.70415e-07
-5.88325e-08
1.49007e-07
-2.79151e-08
1.13962e-07
5.88496e-09
5.79789e-08
4.57694e-08
-4.00403e-08
9.71439e-08
-1.93605e-07
1.62452e-07
-3.93313e-07
2.33646e-07
-6.20291e-07
3.00669e-07
-8.48907e-07
3.61849e-07
-1.0636e-06
4.12151e-07
-1.25935e-06
4.4642e-07
-1.42919e-06
4.65792e-07
-1.56766e-06
4.71517e-07
-1.67473e-06
4.64525e-07
-1.75527e-06
4.46466e-07
-1.81485e-06
4.19777e-07
-1.85912e-06
3.87463e-07
-1.89322e-06
3.52342e-07
-1.92128e-06
3.16829e-07
-1.94626e-06
2.82642e-07
-1.97001e-06
2.50939e-07
-1.99355e-06
2.22326e-07
-2.01726e-06
1.97033e-07
-2.04119e-06
1.7501e-07
-2.06518e-06
1.56032e-07
-2.08901e-06
1.39795e-07
-2.11245e-06
1.25966e-07
-2.13533e-06
1.14203e-07
-2.1575e-06
1.04188e-07
-2.17889e-06
9.56332e-08
-2.19944e-06
8.8292e-08
-2.21915e-06
8.19534e-08
-2.23802e-06
7.6437e-08
-2.25605e-06
7.15908e-08
-2.27328e-06
6.72912e-08
-2.28971e-06
6.34332e-08
-2.30538e-06
5.99317e-08
-2.32031e-06
5.67159e-08
-2.33451e-06
5.37271e-08
-2.348e-06
5.09168e-08
-2.36079e-06
4.82447e-08
-2.37288e-06
4.56771e-08
-2.38429e-06
4.31862e-08
-2.39502e-06
4.07486e-08
-2.40506e-06
3.83447e-08
-2.4144e-06
3.5958e-08
-2.42306e-06
3.35749e-08
-2.43101e-06
3.11838e-08
-2.43824e-06
2.87751e-08
-2.44476e-06
2.63407e-08
-2.45054e-06
2.3874e-08
-2.45559e-06
2.13699e-08
-2.45989e-06
1.88241e-08
-2.46342e-06
1.62341e-08
-2.46619e-06
1.35984e-08
-2.46819e-06
1.09169e-08
-2.46942e-06
8.19121e-09
-2.46986e-06
5.42444e-09
-2.46952e-06
2.62214e-09
-2.46836e-06
-2.08733e-10
-2.46636e-06
-3.06739e-09
-2.46344e-06
-5.97005e-09
-2.45958e-06
-8.9398e-09
-2.45474e-06
-1.19812e-08
-2.44889e-06
-1.50856e-08
-2.44202e-06
-1.82492e-08
-2.4341e-06
-2.14703e-08
-2.42511e-06
-2.47472e-08
-2.41503e-06
-2.80785e-08
-2.40385e-06
-3.14625e-08
-2.39155e-06
-3.48976e-08
-2.37812e-06
-3.83818e-08
-2.36353e-06
-4.19132e-08
-2.34777e-06
-4.54896e-08
-2.33083e-06
-4.91088e-08
-2.3127e-06
-5.27684e-08
-2.29336e-06
-5.64657e-08
-2.27281e-06
-6.01978e-08
-2.25102e-06
-6.39619e-08
-2.228e-06
-6.77545e-08
-2.20373e-06
-7.15723e-08
-2.1782e-06
-7.54117e-08
-2.15142e-06
-7.92687e-08
-2.12337e-06
-8.31392e-08
-2.09406e-06
-8.70186e-08
-2.06348e-06
-9.09021e-08
-2.03163e-06
-9.47846e-08
-1.99852e-06
-9.86605e-08
-1.96414e-06
-1.02524e-07
-1.92851e-06
-1.06369e-07
-1.89163e-06
-1.1019e-07
-1.85351e-06
-1.1398e-07
-1.81417e-06
-1.17732e-07
-1.77362e-06
-1.21441e-07
-1.73187e-06
-1.251e-07
-1.68895e-06
-1.28702e-07
-1.64488e-06
-1.32239e-07
-1.59968e-06
-1.35704e-07
-1.55337e-06
-1.39087e-07
-1.506e-06
-1.42382e-07
-1.45758e-06
-1.45584e-07
-1.40816e-06
-1.48686e-07
-1.35777e-06
-1.51682e-07
-1.30645e-06
-1.54561e-07
-1.25424e-06
-1.57316e-07
-1.20117e-06
-1.5994e-07
-1.14731e-06
-1.62429e-07
-1.09268e-06
-1.64779e-07
-1.03735e-06
-1.6698e-07
-9.81363e-07
-1.69027e-07
-9.24768e-07
-1.7092e-07
-8.67616e-07
-1.72658e-07
-8.09962e-07
-1.74239e-07
-7.51857e-07
-1.75663e-07
-6.93354e-07
-1.76929e-07
-6.34505e-07
-1.78038e-07
-5.75361e-07
-1.78991e-07
-5.15973e-07
-1.79792e-07
-4.5639e-07
-1.80444e-07
-3.96659e-07
-1.80953e-07
-3.36825e-07
-1.81323e-07
-2.76933e-07
-1.81561e-07
-2.17023e-07
-1.81675e-07
-1.57135e-07
-1.81671e-07
-9.73026e-08
-1.81561e-07
-3.7557e-08
-1.81352e-07
2.20747e-08
-1.81054e-07
8.1564e-08
-1.80672e-07
1.40886e-07
-1.80213e-07
2.00022e-07
-1.7968e-07
2.58945e-07
-1.79081e-07
3.1763e-07
-1.78407e-07
3.7607e-07
-1.77637e-07
4.34259e-07
-1.76747e-07
4.92146e-07
-1.75689e-07
5.49664e-07
-1.74344e-07
6.06745e-07
-1.72592e-07
6.63247e-07
-1.70301e-07
7.18949e-07
-1.67155e-07
7.73517e-07
-1.62575e-07
8.26478e-07
-1.55463e-07
8.77279e-07
-1.4423e-07
9.2492e-07
-1.25793e-07
-8.53551e-08
9.73912e-07
-1.28847e-09
1.5448e-08
1.09889e-08
1.08568e-08
5.57088e-08
-3.28316e-08
1.31383e-07
-9.71553e-08
2.17947e-07
-1.54812e-07
2.96295e-07
-1.91833e-07
3.56716e-07
-2.06825e-07
3.97944e-07
-2.04604e-07
4.23415e-07
-1.91289e-07
4.37853e-07
-1.71765e-07
4.45367e-07
-1.49204e-07
4.48826e-07
-1.25374e-07
4.49946e-07
-1.01177e-07
4.49611e-07
-7.70368e-08
4.48218e-07
-5.31548e-08
4.4593e-07
-2.96286e-08
4.42818e-07
-6.50217e-09
4.38891e-07
1.61826e-08
4.34113e-07
3.84216e-08
4.28454e-07
6.01739e-08
4.21831e-07
8.13269e-08
4.1399e-07
1.01637e-07
4.04339e-07
1.2065e-07
3.9185e-07
1.37547e-07
3.75162e-07
1.51013e-07
3.53019e-07
1.59161e-07
3.25013e-07
1.59763e-07
2.92218e-07
1.50845e-07
2.57618e-07
1.31349e-07
2.25918e-07
1.01873e-07
2.02229e-07
6.47017e-08
1.89952e-07
2.30642e-08
1.88086e-07
-1.78968e-08
1.8632e-07
-4.85839e-08
1.69354e-07
-5.54683e-08
1.28431e-07
-3.48014e-08
6.17642e-08
7.83423e-09
-3.69771e-08
7.08261e-08
-1.76953e-07
1.45861e-07
-3.56382e-07
2.25198e-07
-5.63352e-07
3.04113e-07
-7.79887e-07
3.78988e-07
-9.89964e-07
4.43722e-07
-1.18207e-06
4.92777e-07
-1.34519e-06
5.24963e-07
-1.47436e-06
5.41319e-07
-1.57183e-06
5.43898e-07
-1.64097e-06
5.34925e-07
-1.68622e-06
5.16768e-07
-1.71337e-06
4.9168e-07
-1.72864e-06
4.61732e-07
-1.73758e-06
4.28724e-07
-1.74449e-06
3.94372e-07
-1.75222e-06
3.60067e-07
-1.76229e-06
3.26904e-07
-1.77529e-06
2.95643e-07
-1.79114e-06
2.66781e-07
-1.80938e-06
2.40571e-07
-1.82944e-06
2.1709e-07
-1.8507e-06
1.96274e-07
-1.87263e-06
1.77964e-07
-1.89479e-06
1.61949e-07
-1.91682e-06
1.47994e-07
-1.93846e-06
1.35849e-07
-1.95955e-06
1.25277e-07
-1.97997e-06
1.16055e-07
-1.99966e-06
1.07979e-07
-2.01858e-06
1.00873e-07
-2.03672e-06
9.45769e-08
-2.05408e-06
8.89558e-08
-2.07069e-06
8.38931e-08
-2.08654e-06
7.9289e-08
-2.10167e-06
7.50592e-08
-2.11609e-06
7.11322e-08
-2.12981e-06
6.74474e-08
-2.14284e-06
6.39538e-08
-2.15521e-06
6.0608e-08
-2.1669e-06
5.73736e-08
-2.17794e-06
5.42196e-08
-2.18831e-06
5.11198e-08
-2.19802e-06
4.80523e-08
-2.20706e-06
4.49984e-08
-2.21542e-06
4.19423e-08
-2.22311e-06
3.8871e-08
-2.23011e-06
3.57732e-08
-2.23641e-06
3.264e-08
-2.242e-06
2.94638e-08
-2.24687e-06
2.62388e-08
-2.251e-06
2.29603e-08
-2.2544e-06
1.96252e-08
-2.25703e-06
1.62316e-08
-2.25889e-06
1.27786e-08
-2.25997e-06
9.26636e-09
-2.26024e-06
5.69566e-09
-2.25968e-06
2.06777e-09
-2.25827e-06
-1.61742e-09
-2.25598e-06
-5.36511e-09
-2.25276e-06
-9.18777e-09
-2.2486e-06
-1.30975e-08
-2.24349e-06
-1.7096e-08
-2.23739e-06
-2.11781e-08
-2.2303e-06
-2.534e-08
-2.2222e-06
-2.95789e-08
-2.21305e-06
-3.38923e-08
-2.20285e-06
-3.82779e-08
-2.19158e-06
-4.27334e-08
-2.17923e-06
-4.72565e-08
-2.16576e-06
-5.18446e-08