/*--------------------------------*- C++ -*----------------------------------*\
| =========                 |                                                 |
| \\      /  F ield         | OpenFOAM: The Open Source CFD Toolbox           |
|  \\    /   O peration     | Version:  2406                                  |
|   \\  /    A nd           | Website:  www.openfoam.com                      |
|    \\/     M anipulation  |                                                 |
\*---------------------------------------------------------------------------*/
FoamFile
{
    version     2.0;
    format      ascii;
    arch        "LSB;label=32;scalar=64";
    class       volVectorField;
    location    "2.4";
    object      flux;
}
// * * * * * * * * * * * * * * * * * * * * * * * * * * * * * * * * * * * * * //

dimensions      [0 1 -1 1 0 0 0];

internalField   nonuniform List<vector> 
2500
(
(0.00150645 0.00150645 0)
(0.00451274 0.00151332 0)
(0.00750802 0.00152744 0)
(0.0104879 0.00154855 0)
(0.0134422 0.00157667 0)
(0.0163634 0.00161181 0)
(0.0192439 0.001654 0)
(0.0220761 0.00170323 0)
(0.024852 0.00175951 0)
(0.0275635 0.00182282 0)
(0.0302023 0.00189315 0)
(0.0327599 0.00197048 0)
(0.0352277 0.00205478 0)
(0.0375968 0.00214598 0)
(0.0398581 0.00224403 0)
(0.0420024 0.00234883 0)
(0.0440205 0.00246027 0)
(0.0459028 0.0025782 0)
(0.0476399 0.00270244 0)
(0.0492224 0.0028328 0)
(0.0506409 0.00296901 0)
(0.051886 0.00311079 0)
(0.0529489 0.0032578 0)
(0.0538206 0.00340966 0)
(0.054493 0.00356594 0)
(0.0549581 0.00372614 0)
(0.0552087 0.00388972 0)
(0.0552382 0.00405608 0)
(0.055041 0.00422457 0)
(0.0546123 0.00439449 0)
(0.0539483 0.00456506 0)
(0.0530464 0.00473547 0)
(0.0519053 0.00490487 0)
(0.050525 0.00507236 0)
(0.0489071 0.00523698 0)
(0.0470545 0.00539779 0)
(0.0449719 0.00555379 0)
(0.0426654 0.00570398 0)
(0.040143 0.00584738 0)
(0.0374142 0.00598298 0)
(0.0344903 0.00610985 0)
(0.0313842 0.00622704 0)
(0.0281101 0.00633368 0)
(0.024684 0.00642896 0)
(0.021123 0.00651215 0)
(0.0174457 0.00658259 0)
(0.0136714 0.00663975 0)
(0.00982048 0.00668319 0)
(0.00591405 0.00671235 0)
(0.00197483 0.00672568 0)
(0.00151332 0.00451274 0)
(0.00453374 0.00453374 0)
(0.00754324 0.004576 0)
(0.0105371 0.00463927 0)
(0.0135054 0.0047236 0)
(0.0164407 0.00482904 0)
(0.0193354 0.0049556 0)
(0.0221816 0.0051033 0)
(0.0249716 0.00527212 0)
(0.0276971 0.00546207 0)
(0.03035 0.00567309 0)
(0.0329216 0.00590513 0)
(0.0354032 0.00615807 0)
(0.0377861 0.00643176 0)
(0.040061 0.006726 0)
(0.0422187 0.00704052 0)
(0.0442498 0.00737498 0)
(0.046145 0.00772895 0)
(0.0478945 0.0081019 0)
(0.049489 0.00849322 0)
(0.0509189 0.00890216 0)
(0.0521748 0.00932784 0)
(0.0532477 0.00976928 0)
(0.0541287 0.0102253 0)
(0.0548094 0.0106946 0)
(0.0552818 0.0111758 0)
(0.0555386 0.0116671 0)
(0.0555731 0.0121669 0)
(0.0553794 0.0126731 0)
(0.0549528 0.0131836 0)
(0.0542893 0.0136961 0)
(0.0533862 0.0142082 0)
(0.0522422 0.0147173 0)
(0.0508571 0.0152207 0)
(0.0492325 0.0157155 0)
(0.0473713 0.0161989 0)
(0.045278 0.0166679 0)
(0.042959 0.0171195 0)
(0.040422 0.0175507 0)
(0.0376767 0.0179585 0)
(0.0347344 0.01834 0)
(0.031608 0.0186924 0)
(0.028312 0.0190131 0)
(0.0248624 0.0192997 0)
(0.0212767 0.0195499 0)
(0.0175733 0.0197618 0)
(0.013772 0.0199337 0)
(0.00989307 0.0200644 0)
(0.00595653 0.0201528 0)
(0.00198816 0.0201956 0)
(0.00152744 0.00750802 0)
(0.004576 0.00754324 0)
(0.00761355 0.00761355 0)
(0.0106355 0.00771897 0)
(0.013632 0.00785954 0)
(0.0165954 0.0080353 0)
(0.0195182 0.00824628 0)
(0.0223926 0.00849252 0)
(0.0252108 0.008774 0)
(0.0279645 0.00909072 0)
(0.0306454 0.00944261 0)
(0.0332449 0.00982957 0)
(0.0357544 0.0102514 0)
(0.0381647 0.0107079 0)
(0.0404669 0.0111988 0)
(0.0426514 0.0117235 0)
(0.0447089 0.0122816 0)
(0.0466297 0.0128723 0)
(0.0484042 0.0134947 0)
(0.0500227 0.0141479 0)
(0.0514755 0.0148306 0)
(0.0527531 0.0155414 0)
(0.0538463 0.0162785 0)
(0.054746 0.0170402 0)
(0.0554434 0.0178242 0)
(0.0559306 0.0186281 0)
(0.0561998 0.0194492 0)
(0.0562442 0.0202844 0)
(0.0560577 0.0211306 0)
(0.0556353 0.0219841 0)
(0.0549729 0.0228412 0)
(0.0540676 0.0236977 0)
(0.0529178 0.0245494 0)
(0.0515233 0.0253916 0)
(0.0498853 0.0262197 0)
(0.0480069 0.0270288 0)
(0.0458924 0.0278138 0)
(0.0435481 0.0285699 0)
(0.0409819 0.0292918 0)
(0.0382035 0.0299747 0)
(0.0352243 0.0306137 0)
(0.0320573 0.0312041 0)
(0.0287174 0.0317414 0)
(0.0252207 0.0322215 0)
(0.0215851 0.0326407 0)
(0.0178295 0.0329956 0)
(0.013974 0.0332834 0)
(0.0100396 0.033502 0)
(0.00604523 0.0336497 0)
(0.00201756 0.0337234 0)
(0.00154855 0.0104879 0)
(0.00463927 0.0105371 0)
(0.00771897 0.0106355 0)
(0.0107831 0.0107831 0)
(0.0138218 0.01098 0)
(0.0168275 0.0112261 0)
(0.0197926 0.0115217 0)
(0.0227094 0.0118666 0)
(0.0255698 0.0122609 0)
(0.0283657 0.0127047 0)
(0.0310888 0.0131978 0)
(0.0337304 0.01374 0)
(0.0362816 0.0143313 0)
(0.0387334 0.0149712 0)
(0.0410765 0.0156594 0)
(0.0433015 0.0163952 0)
(0.0453986 0.0171778 0)
(0.0473581 0.0180064 0)
(0.0491702 0.0188797 0)
(0.0508249 0.0197963 0)
(0.0523123 0.0207545 0)
(0.0536228 0.0217524 0)
(0.0547466 0.0227875 0)
(0.0556744 0.0238574 0)
(0.0563973 0.0249588 0)
(0.0569068 0.0260885 0)
(0.057195 0.0272426 0)
(0.0572545 0.0284169 0)
(0.0570792 0.029607 0)
(0.0566634 0.0308077 0)
(0.0560029 0.0320136 0)
(0.0550944 0.0332192 0)
(0.053936 0.0344182 0)
(0.0525274 0.0356042 0)
(0.0508697 0.0367706 0)
(0.0489654 0.0379105 0)
(0.0468191 0.0390168 0)
(0.044437 0.0400825 0)
(0.0418268 0.0411003 0)
(0.0389986 0.0420634 0)
(0.0359637 0.0429646 0)
(0.0327357 0.0437974 0)
(0.0293294 0.0445555 0)
(0.0257617 0.045233 0)
(0.0220507 0.0458245 0)
(0.018216 0.0463252 0)
(0.0142784 0.0467312 0)
(0.0102593 0.047039 0)
(0.00617796 0.0472459 0)
(0.00206191 0.0473498 0)
(0.00157667 0.0134422 0)
(0.0047236 0.0135054 0)
(0.00785954 0.013632 0)
(0.01098 0.0138218 0)
(0.014075 0.014075 0)
(0.0171371 0.0143916 0)
(0.0201587 0.0147718 0)
(0.0231319 0.0152156 0)
(0.0260489 0.015723 0)
(0.0289013 0.0162941 0)
(0.0316807 0.0169287 0)
(0.0343785 0.0176268 0)
(0.0369856 0.0183881 0)
(0.0394928 0.0192122 0)
(0.0418908 0.0200986 0)
(0.0441699 0.0210465 0)
(0.0463201 0.0220551 0)
(0.0483316 0.0231231 0)
(0.0501941 0.0242491 0)
(0.0518975 0.0254312 0)
(0.0534316 0.0266673 0)
(0.0547861 0.027955 0)
(0.0559513 0.0292912 0)
(0.0569172 0.0306725 0)
(0.0576745 0.0320952 0)
(0.0582143 0.0335548 0)
(0.0585282 0.0350466 0)
(0.0586086 0.036565 0)
(0.0584485 0.0381042 0)
(0.058042 0.0396578 0)
(0.0573844 0.0412187 0)
(0.0564721 0.0427797 0)
(0.0553028 0.0443327 0)
(0.0538757 0.0458694 0)
(0.0521916 0.0473812 0)
(0.0502531 0.0488592 0)
(0.0480644 0.0502941 0)
(0.0456317 0.0516767 0)
(0.0429628 0.0529976 0)
(0.0400678 0.0542477 0)
(0.0369583 0.055418 0)
(0.0336482 0.0564996 0)
(0.0301529 0.0574844 0)
(0.0264897 0.0583646 0)
(0.0226773 0.0591332 0)
(0.0187362 0.0597839 0)
(0.0146878 0.0603113 0)
(0.0105544 0.060711 0)
(0.00635612 0.0609796 0)
(0.00212146 0.0611144 0)
(0.00161181 0.0163634 0)
(0.00482904 0.0164407 0)
(0.0080353 0.0165954 0)
(0.0112261 0.0168275 0)
(0.0143916 0.0171371 0)
(0.0175243 0.0175243 0)
(0.0206166 0.0179893 0)
(0.0236606 0.0185321 0)
(0.0266483 0.0191529 0)
(0.0295715 0.0198516 0)
(0.0324215 0.0206283 0)
(0.0351897 0.0214828 0)
(0.037867 0.0224148 0)
(0.0404439 0.023424 0)
(0.0429109 0.0245098 0)
(0.045258 0.0256713 0)
(0.0474752 0.0269074 0)
(0.0495521 0.0282168 0)
(0.0514783 0.0295977 0)
(0.0532432 0.031048 0)
(0.0548361 0.0325651 0)
(0.0562466 0.0341459 0)
(0.0574641 0.0357871 0)
(0.0584784 0.0374844 0)
(0.0592796 0.0392331 0)
(0.0598582 0.0410281 0)
(0.0602051 0.0428633 0)
(0.0603122 0.0447321 0)
(0.060172 0.0466274 0)
(0.0597779 0.0485412 0)
(0.0591247 0.050465 0)
(0.0582083 0.0523896 0)
(0.0570258 0.0543052 0)
(0.055576 0.0562016 0)
(0.0538594 0.058068 0)
(0.0518783 0.0598934 0)
(0.0496367 0.0616664 0)
(0.0471405 0.0633754 0)
(0.0443979 0.0650087 0)
(0.0414189 0.0665551 0)
(0.0382156 0.068003 0)
(0.0348021 0.0693418 0)
(0.0311944 0.070561 0)
(0.0274105 0.071651 0)
(0.02347 0.0726029 0)
(0.0193942 0.0734089 0)
(0.0152056 0.0740623 0)
(0.0109276 0.0745574 0)
(0.00658135 0.0748899 0)
(0.00219676 0.0750569 0)
(0.001654 0.0192439 0)
(0.0049556 0.0193354 0)
(0.00824628 0.0195182 0)
(0.0115217 0.0197926 0)
(0.0147718 0.0201587 0)
(0.0179893 0.0206166 0)
(0.0211665 0.0211665 0)
(0.0242955 0.0218085 0)
(0.0273684 0.0225429 0)
(0.0303767 0.0233697 0)
(0.0333119 0.0242889 0)
(0.036165 0.0253005 0)
(0.0389268 0.0264042 0)
(0.0415878 0.0275996 0)
(0.0441381 0.028886 0)
(0.0465675 0.0302627 0)
(0.0488657 0.0317283 0)
(0.0510219 0.0332814 0)
(0.0530253 0.03492 0)
(0.0548649 0.0366415 0)
(0.0565296 0.0384432 0)
(0.0580082 0.0403215 0)
(0.0592897 0.0422723 0)
(0.0603632 0.0442908 0)
(0.0612182 0.0463715 0)
(0.0618445 0.0485083 0)
(0.0622323 0.0506941 0)
(0.0623727 0.0529211 0)
(0.0622576 0.0551809 0)
(0.0618796 0.0574639 0)
(0.0612328 0.0597601 0)
(0.0603123 0.0620585 0)
(0.0591148 0.0643474 0)
(0.0576385 0.0666145 0)
(0.0558835 0.0688469 0)
(0.0538515 0.0710313 0)
(0.0515464 0.073154 0)
(0.048974 0.075201 0)
(0.0461425 0.0771584 0)
(0.043062 0.0790122 0)
(0.0397451 0.0807488 0)
(0.0362062 0.082355 0)
(0.0324621 0.0838182 0)
(0.0285316 0.0851267 0)
(0.0244353 0.0862698 0)
(0.0201956 0.0872378 0)
(0.0158362 0.0880226 0)
(0.0113821 0.0886173 0)
(0.00685565 0.0890168 0)
(0.00228846 0.0892174 0)
(0.00170323 0.0220761 0)
(0.0051033 0.0221816 0)
(0.00849252 0.0223926 0)
(0.0118666 0.0227094 0)
(0.0152156 0.0231319 0)
(0.0185321 0.0236606 0)
(0.0218085 0.0242955 0)
(0.025037 0.025037 0)
(0.0282095 0.0258853 0)
(0.0313175 0.0268406 0)
(0.0343523 0.0279029 0)
(0.037305 0.0290723 0)
(0.0401661 0.0303485 0)
(0.0429258 0.0317313 0)
(0.045574 0.0332199 0)
(0.0481003 0.0348136 0)
(0.0504939 0.0365109 0)
(0.0527437 0.0383103 0)
(0.0548384 0.0402096 0)
(0.0567664 0.0422061 0)
(0.0585161 0.0442966 0)
(0.0600757 0.0464771 0)
(0.0614334 0.048743 0)
(0.0625777 0.0510888 0)
(0.0634971 0.0535084 0)
(0.0641807 0.0559946 0)
(0.064618 0.0585394 0)
(0.064799 0.0611339 0)
(0.0647148 0.0637681 0)
(0.0643572 0.066431 0)
(0.0637193 0.069111 0)
(0.0627955 0.0717952 0)
(0.0615817 0.0744699 0)
(0.0600755 0.0771209 0)
(0.0582763 0.0797328 0)
(0.0561854 0.0822901 0)
(0.0538064 0.0847766 0)
(0.0511449 0.0871757 0)
(0.0482091 0.0894709 0)
(0.0450093 0.0916458 0)
(0.0415584 0.093684 0)
(0.0378715 0.0955701 0)
(0.0339661 0.0972888 0)
(0.0298621 0.0988264 0)
(0.0255811 0.10017 0)
(0.021147 0.101308 0)
(0.0165851 0.102231 0)
(0.0119218 0.10293 0)
(0.0071814 0.1034 0)
(0.00239736 0.103636 0)
(0.00175951 0.024852 0)
(0.00527212 0.0249716 0)
(0.008774 0.0252108 0)
(0.0122609 0.0255698 0)
(0.015723 0.0260489 0)
(0.0191529 0.0266483 0)
(0.0225429 0.0273684 0)
(0.0258853 0.0282095 0)
(0.0291719 0.0291719 0)
(0.0323943 0.030256 0)
(0.0355436 0.031462 0)
(0.0386106 0.0327899 0)
(0.0415858 0.0342397 0)
(0.0444592 0.0358111 0)
(0.0472204 0.0375035 0)
(0.0498585 0.0393161 0)
(0.0523624 0.0412476 0)
(0.0547206 0.0432962 0)
(0.0569211 0.0454597 0)
(0.0589519 0.0477352 0)
(0.0608005 0.0501192 0)
(0.0624545 0.0526073 0)
(0.0639014 0.0551944 0)
(0.0651287 0.0578746 0)
(0.066124 0.0606409 0)
(0.0668755 0.0634853 0)
(0.0673716 0.0663988 0)
(0.0676013 0.0693711 0)
(0.0675547 0.0723912 0)
(0.0672225 0.0754464 0)
(0.0665969 0.0785233 0)
(0.0656712 0.0816073 0)
(0.0644405 0.0846826 0)
(0.0629014 0.0877327 0)
(0.0610527 0.09074 0)
(0.0588952 0.0936863 0)
(0.0564319 0.0965529 0)
(0.0536684 0.0993205 0)
(0.0506126 0.10197 0)
(0.0472752 0.104482 0)
(0.0436694 0.106837 0)
(0.039811 0.109017 0)
(0.0357185 0.111005 0)
(0.0314128 0.112785 0)
(0.026917 0.11434 0)
(0.0222565 0.115657 0)
(0.0174585 0.116726 0)
(0.0125513 0.117536 0)
(0.00756143 0.118081 0)
(0.00252442 0.118354 0)
(0.00182282 0.0275635 0)
(0.00546207 0.0276971 0)
(0.00909072 0.0279645 0)
(0.0127047 0.0283657 0)
(0.0162941 0.0289013 0)
(0.0198516 0.0295715 0)
(0.0233697 0.0303767 0)
(0.0268406 0.0313175 0)
(0.030256 0.0323943 0)
(0.0336075 0.0336075 0)
(0.0368862 0.0349576 0)
(0.0400827 0.0364448 0)
(0.0431872 0.0380691 0)
(0.0461896 0.0398304 0)
(0.049079 0.0417282 0)
(0.0518444 0.0437618 0)
(0.054474 0.04593 0)
(0.0569558 0.0482309 0)
(0.0592774 0.0506624 0)
(0.0614259 0.0532212 0)
(0.0633882 0.0559038 0)
(0.0651509 0.0587056 0)
(0.0667008 0.0616209 0)
(0.0680242 0.0646432 0)
(0.0691078 0.0677649 0)
(0.0699386 0.0709773 0)
(0.0705038 0.0742702 0)
(0.0707914 0.0776323 0)
(0.07079 0.0810511 0)
(0.0704893 0.0845126 0)
(0.0698802 0.0880014 0)
(0.0689548 0.0915011 0)
(0.0677072 0.0949938 0)
(0.0661329 0.0984605 0)
(0.0642299 0.101881 0)
(0.0619983 0.105235 0)
(0.0594406 0.108501 0)
(0.0565619 0.111656 0)
(0.0533703 0.114678 0)
(0.0498765 0.117545 0)
(0.0460941 0.120235 0)
(0.0420399 0.122727 0)
(0.0377332 0.125 0)
(0.0331963 0.127035 0)
(0.028454 0.128815 0)
(0.0235335 0.130323 0)
(0.018464 0.131547 0)
(0.0132762 0.132475 0)
(0.00799903 0.133098 0)
(0.00267072 0.133411 0)
(0.00189315 0.0302023 0)
(0.00567309 0.03035 0)
(0.00944261 0.0306454 0)
(0.0131978 0.0310888 0)
(0.0169287 0.0316807 0)
(0.0206283 0.0324215 0)
(0.0242889 0.0333119 0)
(0.0279029 0.0343523 0)
(0.031462 0.0355436 0)
(0.0349576 0.0368862 0)
(0.0383808 0.0383808 0)
(0.0417221 0.0400278 0)
(0.0449714 0.0418275 0)
(0.0481184 0.04378 0)
(0.0511518 0.0458849 0)
(0.0540603 0.0481416 0)
(0.0568315 0.050549 0)
(0.0594529 0.0531056 0)
(0.0619114 0.0558088 0)
(0.0641934 0.0586558 0)
(0.0662848 0.0616425 0)
(0.0681716 0.0647643 0)
(0.0698391 0.0680151 0)
(0.0712728 0.0713881 0)
(0.0724581 0.0748748 0)
(0.0733808 0.0784659 0)
(0.0740266 0.0821502 0)
(0.0743823 0.0859153 0)
(0.0744349 0.0897472 0)
(0.0741728 0.0936305 0)
(0.0735854 0.097548 0)
(0.0726636 0.101481 0)
(0.0713999 0.10541 0)
(0.0697889 0.109313 0)
(0.0678275 0.113168 0)
(0.0655147 0.116951 0)
(0.0628525 0.120636 0)
(0.0598457 0.1242 0)
(0.056502 0.127617 0)
(0.0528325 0.13086 0)
(0.0488513 0.133906 0)
(0.0445757 0.136728 0)
(0.0400266 0.139304 0)
(0.0352274 0.141612 0)
(0.030205 0.14363 0)
(0.0249887 0.145342 0)
(0.0196101 0.146731 0)
(0.0141026 0.147785 0)
(0.008498 0.148493 0)
(0.00283756 0.148848 0)
(0.00197048 0.0327599 0)
(0.00590513 0.0329216 0)
(0.00982957 0.0332449 0)
(0.01374 0.0337304 0)
(0.0176268 0.0343785 0)
(0.0214828 0.0351897 0)
(0.0253005 0.036165 0)
(0.0290723 0.037305 0)
(0.0327899 0.0386106 0)
(0.0364448 0.0400827 0)
(0.0400278 0.0417221 0)
(0.0435294 0.0435294 0)
(0.0469394 0.0455053 0)
(0.0502469 0.04765 0)
(0.0534407 0.0499635 0)
(0.0565085 0.0524454 0)
(0.0594379 0.0550947 0)
(0.0622156 0.0579101 0)
(0.0648276 0.0608892 0)
(0.0672596 0.0640291 0)
(0.0694967 0.0673258 0)
(0.0715235 0.0707744 0)
(0.0733246 0.0743687 0)
(0.0748839 0.0781013 0)
(0.0761856 0.0819634 0)
(0.0772139 0.0859448 0)
(0.0779532 0.0900335 0)
(0.0783884 0.0942159 0)
(0.0785052 0.0984768 0)
(0.0782901 0.102799 0)
(0.0777309 0.107164 0)
(0.0768169 0.11155 0)
(0.0755391 0.115936 0)
(0.0738907 0.120298 0)
(0.0718672 0.124609 0)
(0.0694667 0.128844 0)
(0.0666904 0.132974 0)
(0.0635424 0.136971 0)
(0.0600303 0.140806 0)
(0.0561652 0.144449 0)
(0.0519618 0.147873 0)
(0.0474383 0.151048 0)
(0.0426168 0.153947 0)
(0.0375226 0.156546 0)
(0.0321846 0.15882 0)
(0.0266344 0.16075 0)
(0.0209066 0.162316 0)
(0.0150377 0.163504 0)
(0.00906266 0.164303 0)
(0.00302638 0.164704 0)
(0.00205478 0.0352277 0)
(0.00615807 0.0354032 0)
(0.0102514 0.0357544 0)
(0.0143313 0.0362816 0)
(0.0183881 0.0369856 0)
(0.0224148 0.037867 0)
(0.0264042 0.0389268 0)
(0.0303485 0.0401661 0)
(0.0342397 0.0415858 0)
(0.0380691 0.0431872 0)
(0.0418275 0.0449714 0)
(0.0455053 0.0469394 0)
(0.049092 0.049092 0)
(0.0525766 0.0514299 0)
(0.0559472 0.0539533 0)
(0.0591915 0.0566622 0)
(0.0622962 0.059556 0)
(0.0652474 0.0626334 0)
(0.0680304 0.0658924 0)
(0.0706299 0.0693302 0)
(0.0730301 0.0729428 0)
(0.0752144 0.0767253 0)
(0.077166 0.0806713 0)
(0.0788675 0.0847732 0)
(0.0803016 0.0890217 0)
(0.0814508 0.0934058 0)
(0.0822978 0.0979129 0)
(0.0828256 0.102528 0)
(0.0830181 0.107235 0)
(0.0828598 0.112015 0)
(0.0823367 0.116847 0)
(0.0814361 0.121709 0)
(0.0801474 0.126575 0)
(0.0784619 0.131419 0)
(0.0763737 0.136212 0)
(0.0738796 0.140925 0)
(0.0709797 0.145526 0)
(0.0676775 0.149983 0)
(0.0639803 0.154263 0)
(0.0598991 0.158333 0)
(0.0554493 0.16216 0)
(0.0506501 0.165711 0)
(0.0455248 0.168957 0)
(0.0401008 0.171868 0)
(0.0344091 0.174417 0)
(0.0284845 0.176581 0)
(0.0223647 0.178338 0)
(0.0160895 0.179671 0)
(0.00969793 0.180567 0)
(0.00323883 0.181017 0)
(0.00214598 0.0375968 0)
(0.00643176 0.0377861 0)
(0.0107079 0.0381647 0)
(0.0149712 0.0387334 0)
(0.0192122 0.0394928 0)
(0.023424 0.0404439 0)
(0.0275996 0.0415878 0)
(0.0317313 0.0429258 0)
(0.0358111 0.0444592 0)
(0.0398304 0.0461896 0)
(0.04378 0.0481184 0)
(0.04765 0.0502469 0)
(0.0514299 0.0525766 0)
(0.0551083 0.0551083 0)
(0.058673 0.0578428 0)
(0.0621113 0.0607804 0)
(0.0654091 0.0639209 0)
(0.068552 0.0672634 0)
(0.0715243 0.0708062 0)
(0.0743099 0.0745467 0)
(0.0768918 0.0784812 0)
(0.0792521 0.0826048 0)
(0.0813725 0.0869111 0)
(0.0832343 0.0913922 0)
(0.0848182 0.0960385 0)
(0.0861051 0.100838 0)
(0.0870756 0.105779 0)
(0.0877107 0.110843 0)
(0.0879921 0.116015 0)
(0.0879021 0.121272 0)
(0.0874246 0.126593 0)
(0.0865446 0.131953 0)
(0.0852493 0.137325 0)
(0.0835283 0.142678 0)
(0.0813736 0.147981 0)
(0.0787807 0.1532 0)
(0.0757484 0.158302 0)
(0.0722791 0.163248 0)
(0.0683799 0.168002 0)
(0.0640617 0.172528 0)
(0.0593403 0.176786 0)
(0.0542359 0.180742 0)
(0.0487736 0.18436 0)
(0.0429827 0.187606 0)
(0.0368971 0.19045 0)
(0.0305547 0.192866 0)
(0.0239966 0.194828 0)
(0.0172671 0.196317 0)
(0.0104093 0.197319 0)
(0.00347674 0.197822 0)
(0.00224403 0.0398581 0)
(0.006726 0.040061 0)
(0.0111988 0.0404669 0)
(0.0156594 0.0410765 0)
(0.0200986 0.0418908 0)
(0.0245098 0.0429109 0)
(0.028886 0.0441381 0)
(0.0332199 0.045574 0)
(0.0375035 0.0472204 0)
(0.0417282 0.049079 0)
(0.0458849 0.0511518 0)
(0.0499635 0.0534407 0)
(0.0539533 0.0559472 0)
(0.0578428 0.058673 0)
(0.0616194 0.0616194 0)
(0.0652696 0.064787 0)
(0.0687792 0.0681762 0)
(0.0721327 0.0717865 0)
(0.0753137 0.0756168 0)
(0.078305 0.0796648 0)
(0.0810882 0.083927 0)
(0.0836443 0.0883988 0)
(0.0859534 0.0930739 0)
(0.0879949 0.0979443 0)
(0.0897479 0.103 0)
(0.091191 0.10823 0)
(0.0923026 0.113618 0)
(0.0930616 0.11915 0)
(0.0934469 0.124805 0)
(0.0934387 0.130561 0)
(0.093018 0.136395 0)
(0.0921674 0.142279 0)
(0.0908717 0.148182 0)
(0.089118 0.154072 0)
(0.0868964 0.159915 0)
(0.0842004 0.165672 0)
(0.0810272 0.171305 0)
(0.0773783 0.176773 0)
(0.0732599 0.182035 0)
(0.068683 0.187047 0)
(0.0636636 0.191769 0)
(0.0582234 0.196158 0)
(0.0523888 0.200175 0)
(0.0461917 0.203783 0)
(0.039669 0.206946 0)
(0.032862 0.209633 0)
(0.0258163 0.211817 0)
(0.0185805 0.213475 0)
(0.0112028 0.21459 0)
(0.00374216 0.215151 0)
(0.00234883 0.0420024 0)
(0.00704052 0.0422187 0)
(0.0117235 0.0426514 0)
(0.0163952 0.0433015 0)
(0.0210465 0.0441699 0)
(0.0256713 0.045258 0)
(0.0302627 0.0465675 0)
(0.0348136 0.0481003 0)
(0.0393161 0.0498585 0)
(0.0437618 0.0518444 0)
(0.0481416 0.0540603 0)
(0.0524454 0.0565085 0)
(0.0566622 0.0591915 0)
(0.0607804 0.0621113 0)
(0.064787 0.0652696 0)
(0.0686681 0.0686681 0)
(0.0724087 0.0723075 0)
(0.0759926 0.076188 0)
(0.0794025 0.0803089 0)
(0.0826201 0.0846686 0)
(0.0856258 0.0892642 0)
(0.0883989 0.0940911 0)
(0.090918 0.0991435 0)
(0.0931606 0.104413 0)
(0.0951036 0.109891 0)
(0.0967232 0.115563 0)
(0.0979957 0.121417 0)
(0.098897 0.127433 0)
(0.0994036 0.133592 0)
(0.0994924 0.139869 0)
(0.0991418 0.14624 0)
(0.0983314 0.152674 0)
(0.0970431 0.159138 0)
(0.0952613 0.165596 0)
(0.0929736 0.17201 0)
(0.0901711 0.178338 0)
(0.0868494 0.184537 0)
(0.0830085 0.190562 0)
(0.0786537 0.196365 0)
(0.0737958 0.2019 0)
(0.0684512 0.207118 0)
(0.0626426 0.211973 0)
(0.0563985 0.216421 0)
(0.0497533 0.220418 0)
(0.0427472 0.223924 0)
(0.0354256 0.226905 0)
(0.0278388 0.229328 0)
(0.0200407 0.231169 0)
(0.0120852 0.232407 0)
(0.00403735 0.23303 0)
(0.00246027 0.0440205 0)
(0.00737498 0.0442498 0)
(0.0122816 0.0447089 0)
(0.0171778 0.0453986 0)
(0.0220551 0.0463201 0)
(0.0269074 0.0474752 0)
(0.0317283 0.0488657 0)
(0.0365109 0.0504939 0)
(0.0412476 0.0523624 0)
(0.04593 0.054474 0)
(0.050549 0.0568315 0)
(0.0550947 0.0594379 0)
(0.059556 0.0622962 0)
(0.0639209 0.0654091 0)
(0.0681762 0.0687792 0)
(0.0723075 0.0724087 0)
(0.0762991 0.0762991 0)
(0.0801342 0.0804514 0)
(0.0837944 0.0848658 0)
(0.0872602 0.089541 0)
(0.0905106 0.0944748 0)
(0.0935236 0.0996634 0)
(0.0962756 0.105101 0)
(0.0987422 0.11078 0)
(0.100898 0.116691 0)
(0.102717 0.122821 0)
(0.104172 0.129155 0)
(0.105236 0.135674 0)
(0.105884 0.142357 0)
(0.106087 0.149179 0)
(0.105822 0.156112 0)
(0.105065 0.163124 0)
(0.103794 0.170178 0)
(0.10199 0.177237 0)
(0.0996388 0.184256 0)
(0.0967279 0.191191 0)
(0.0932509 0.197992 0)
(0.089206 0.204611 0)
(0.0845975 0.210993 0)
(0.0794357 0.217087 0)
(0.0737374 0.222838 0)
(0.0675264 0.228194 0)
(0.0608331 0.233105 0)
(0.0536951 0.237522 0)
(0.046156 0.241399 0)
(0.038266 0.244696 0)
(0.0300807 0.247379 0)
(0.0216598 0.249417 0)
(0.0130639 0.250789 0)
(0.00436476 0.251478 0)
(0.0025782 0.0459028 0)
(0.00772895 0.046145 0)
(0.0128723 0.0466297 0)
(0.0180064 0.0473581 0)
(0.0231231 0.0483316 0)
(0.0282168 0.0495521 0)
(0.0332814 0.0510219 0)
(0.0383103 0.0527437 0)
(0.0432962 0.0547206 0)
(0.0482309 0.0569558 0)
(0.0531056 0.0594529 0)
(0.0579101 0.0622156 0)
(0.0626334 0.0652474 0)
(0.0672634 0.068552 0)
(0.0717865 0.0721327 0)
(0.076188 0.0759926 0)
(0.0804514 0.0801342 0)
(0.0845592 0.0845592 0)
(0.0884921 0.0892688 0)
(0.0922292 0.0942625 0)
(0.0957482 0.099539 0)
(0.0990252 0.105095 0)
(0.102035 0.110926 0)
(0.104751 0.117023 0)
(0.107144 0.123379 0)
(0.109187 0.129979 0)
(0.110849 0.136809 0)
(0.112099 0.14385 0)
(0.112909 0.151079 0)
(0.113248 0.158469 0)
(0.113086 0.165991 0)
(0.112397 0.173609 0)
(0.111156 0.181285 0)
(0.109339 0.188976 0)
(0.106928 0.196636 0)
(0.103908 0.204214 0)
(0.100269 0.211657 0)
(0.0960092 0.218908 0)
(0.0911297 0.22591 0)
(0.0856406 0.232602 0)
(0.079559 0.238925 0)
(0.0729098 0.24482 0)
(0.0657255 0.250229 0)
(0.0580469 0.255097 0)
(0.0499218 0.259374 0)
(0.0414056 0.263014 0)
(0.0325597 0.265976 0)
(0.0234507 0.268228 0)
(0.0141466 0.269744 0)
(0.00472705 0.270506 0)
(0.00270244 0.0476399 0)
(0.0081019 0.0478945 0)
(0.0134947 0.0484042 0)
(0.0188797 0.0491702 0)
(0.0242491 0.0501941 0)
(0.0295977 0.0514783 0)
(0.03492 0.0530253 0)
(0.0402096 0.0548384 0)
(0.0454597 0.0569211 0)
(0.0506624 0.0592774 0)
(0.0558088 0.0619114 0)
(0.0608892 0.0648276 0)
(0.0658924 0.0680304 0)
(0.0708062 0.0715243 0)
(0.0756168 0.0753137 0)
(0.0803089 0.0794025 0)
(0.0848658 0.0837944 0)
(0.0892688 0.0884921 0)
(0.0934977 0.0934977 0)
(0.0975304 0.0988119 0)
(0.101343 0.104434 0)
(0.10491 0.110363 0)
(0.108204 0.116593 0)
(0.111195 0.123117 0)
(0.113854 0.129928 0)
(0.116147 0.137012 0)
(0.118043 0.144354 0)
(0.119506 0.151934 0)
(0.120503 0.159729 0)
(0.120999 0.167711 0)
(0.120962 0.175847 0)
(0.120359 0.184101 0)
(0.119162 0.19243 0)
(0.117342 0.200789 0)
(0.114877 0.209126 0)
(0.111749 0.217386 0)
(0.107945 0.22551 0)
(0.103459 0.233435 0)
(0.098291 0.241097 0)
(0.0924508 0.248429 0)
(0.0859551 0.255364 0)
(0.07883 0.261836 0)
(0.0711104 0.267781 0)
(0.0628404 0.273135 0)
(0.0540727 0.277843 0)
(0.0448681 0.281851 0)
(0.0352949 0.285115 0)
(0.0254274 0.287598 0)
(0.0153419 0.289269 0)
(0.00512706 0.29011 0)
(0.0028328 0.0492224 0)
(0.00849322 0.049489 0)
(0.0141479 0.0500227 0)
(0.0197963 0.0508249 0)
(0.0254312 0.0518975 0)
(0.031048 0.0532432 0)
(0.0366415 0.0548649 0)
(0.0422061 0.0567664 0)
(0.0477352 0.0589519 0)
(0.0532212 0.0614259 0)
(0.0586558 0.0641934 0)
(0.0640291 0.0672596 0)
(0.0693302 0.0706299 0)
(0.0745467 0.0743099 0)
(0.0796648 0.078305 0)
(0.0846686 0.0826201 0)
(0.089541 0.0872602 0)
(0.0942625 0.0922292 0)
(0.0988119 0.0975304 0)
(0.103166 0.103166 0)
(0.107299 0.109136 0)
(0.111183 0.11544 0)
(0.11479 0.122075 0)
(0.118086 0.129034 0)
(0.121039 0.136309 0)
(0.123613 0.143889 0)
(0.12577 0.151757 0)
(0.127474 0.159893 0)
(0.128686 0.168274 0)
(0.129366 0.17687 0)
(0.129477 0.185647 0)
(0.128981 0.194565 0)
(0.127844 0.20358 0)
(0.126035 0.212641 0)
(0.123525 0.221692 0)
(0.120291 0.230673 0)
(0.116318 0.239518 0)
(0.111596 0.24816 0)
(0.106124 0.256524 0)
(0.0999079 0.264539 0)
(0.0929664 0.272128 0)
(0.085326 0.279218 0)
(0.0770243 0.285736 0)
(0.068109 0.291613 0)
(0.058638 0.296783 0)
(0.0486784 0.301188 0)
(0.0383063 0.304778 0)
(0.0276044 0.307508 0)
(0.0166587 0.309347 0)
(0.00556776 0.310272 0)
(0.00296901 0.0506409 0)
(0.00890216 0.0509189 0)
(0.0148306 0.0514755 0)
(0.0207545 0.0523123 0)
(0.0266673 0.0534316 0)
(0.0325651 0.0548361 0)
(0.0384432 0.0565296 0)
(0.0442966 0.0585161 0)
(0.0501192 0.0608005 0)
(0.0559038 0.0633882 0)
(0.0616425 0.0662848 0)
(0.0673258 0.0694967 0)
(0.0729428 0.0730301 0)
(0.0784812 0.0768918 0)
(0.083927 0.0810882 0)
(0.0892642 0.0856258 0)
(0.0944748 0.0905106 0)
(0.099539 0.0957482 0)
(0.104434 0.101343 0)
(0.109136 0.107299 0)
(0.113618 0.113618 0)
(0.117849 0.120299 0)
(0.121798 0.127342 0)
(0.12543 0.134741 0)
(0.128709 0.142489 0)
(0.131595 0.150574 0)
(0.134047 0.15898 0)
(0.136023 0.167689 0)
(0.137479 0.176674 0)
(0.138372 0.185906 0)
(0.138657 0.195349 0)
(0.138293 0.20496 0)
(0.137237 0.214691 0)
(0.135454 0.224487 0)
(0.132909 0.234289 0)
(0.129575 0.24403 0)
(0.125431 0.253638 0)
(0.120465 0.263037 0)
(0.11467 0.272148 0)
(0.108055 0.280888 0)
(0.100635 0.289174 0)
(0.092438 0.296924 0)
(0.0835048 0.304055 0)
(0.073887 0.31049 0)
(0.0636482 0.316155 0)
(0.0528626 0.320986 0)
(0.0416146 0.324924 0)
(0.0299969 0.327921 0)
(0.0181061 0.32994 0)
(0.00605229 0.330956 0)
(0.00311079 0.051886 0)
(0.00932784 0.0521748 0)
(0.0155414 0.0527531 0)
(0.0217524 0.0536228 0)
(0.027955 0.0547861 0)
(0.0341459 0.0562466 0)
(0.0403215 0.0580082 0)
(0.0464771 0.0600757 0)
(0.0526073 0.0624545 0)
(0.0587056 0.0651509 0)
(0.0647643 0.0681716 0)
(0.0707744 0.0715235 0)
(0.0767253 0.0752144 0)
(0.0826048 0.0792521 0)
(0.0883988 0.0836443 0)
(0.0940911 0.0883989 0)
(0.0996634 0.0935236 0)
(0.105095 0.0990252 0)
(0.110363 0.10491 0)
(0.11544 0.111183 0)
(0.120299 0.117849 0)
(0.124908 0.124908 0)
(0.129232 0.13236 0)
(0.133233 0.140203 0)
(0.136871 0.148428 0)
(0.140104 0.157026 0)
(0.142886 0.165982 0)
(0.145168 0.175276 0)
(0.146903 0.184883 0)
(0.14804 0.194771 0)
(0.14853 0.204901 0)
(0.148323 0.215231 0)
(0.147372 0.225707 0)
(0.145633 0.236272 0)
(0.143067 0.24686 0)
(0.13964 0.257398 0)
(0.135325 0.267808 0)
(0.130106 0.278007 0)
(0.123975 0.287906 0)
(0.116935 0.297415 0)
(0.109002 0.306441 0)
(0.100206 0.314891 0)
(0.0905901 0.322675 0)
(0.0802095 0.329704 0)
(0.0691343 0.335898 0)
(0.0574469 0.341183 0)
(0.0452411 0.345493 0)
(0.0326204 0.348775 0)
(0.0196937 0.350987 0)
(0.00658379 0.3521 0)
(0.0032578 0.0529489 0)
(0.00976928 0.0532477 0)
(0.0162785 0.0538463 0)
(0.0227875 0.0547466 0)
(0.0292912 0.0559513 0)
(0.0357871 0.0574641 0)
(0.0422723 0.0592897 0)
(0.048743 0.0614334 0)
(0.0551944 0.0639014 0)
(0.0616209 0.0667008 0)
(0.0680151 0.0698391 0)
(0.0743687 0.0733246 0)
(0.0806713 0.077166 0)
(0.0869111 0.0813725 0)
(0.0930739 0.0859534 0)
(0.0991435 0.090918 0)
(0.105101 0.0962756 0)
(0.110926 0.102035 0)
(0.116593 0.108204 0)
(0.122075 0.11479 0)
(0.127342 0.121798 0)
(0.13236 0.129232 0)
(0.137092 0.137092 0)
(0.141498 0.145379 0)
(0.145533 0.154085 0)
(0.149149 0.163201 0)
(0.152297 0.172714 0)
(0.154924 0.182604 0)
(0.156974 0.192845 0)
(0.158391 0.203405 0)
(0.159118 0.214244 0)
(0.159099 0.225316 0)
(0.158278 0.236564 0)
(0.156606 0.247927 0)
(0.154035 0.259333 0)
(0.150523 0.270704 0)
(0.146041 0.281955 0)
(0.140563 0.292992 0)
(0.134079 0.303721 0)
(0.12659 0.31404 0)
(0.118111 0.323846 0)
(0.108671 0.333037 0)
(0.0983178 0.341511 0)
(0.0871109 0.349171 0)
(0.0751271 0.355926 0)
(0.0624575 0.361693 0)
(0.0492067 0.366399 0)
(0.0354903 0.369984 0)
(0.0214309 0.3724 0)
(0.00716544 0.373617 0)
(0.00340966 0.0538206 0)
(0.0102253 0.0541287 0)
(0.0170402 0.054746 0)
(0.0238574 0.0556744 0)
(0.0306725 0.0569172 0)
(0.0374844 0.0584784 0)
(0.0442908 0.0603632 0)
(0.0510888 0.0625777 0)
(0.0578746 0.0651287 0)
(0.0646432 0.0680242 0)
(0.0713881 0.0712728 0)
(0.0781013 0.0748839 0)
(0.0847732 0.0788675 0)
(0.0913922 0.0832343 0)
(0.0979443 0.0879949 0)
(0.104413 0.0931606 0)
(0.11078 0.0987422 0)
(0.117023 0.104751 0)
(0.123117 0.111195 0)
(0.129034 0.118086 0)
(0.134741 0.12543 0)
(0.140203 0.133233 0)
(0.145379 0.141498 0)
(0.150225 0.150225 0)
(0.154694 0.159411 0)
(0.158734 0.169048 0)
(0.162289 0.179122 0)
(0.165299 0.189614 0)
(0.167704 0.200499 0)
(0.169439 0.211744 0)
(0.17044 0.223307 0)
(0.170643 0.235139 0)
(0.169983 0.247182 0)
(0.168402 0.259369 0)
(0.165844 0.271622 0)
(0.162261 0.283858 0)
(0.157614 0.295983 0)
(0.151873 0.307896 0)
(0.145022 0.319491 0)
(0.13706 0.330658 0)
(0.127999 0.341283 0)
(0.117871 0.351251 0)
(0.106724 0.360452 0)
(0.0946246 0.368776 0)
(0.0816562 0.376123 0)
(0.0679199 0.382399 0)
(0.0535319 0.387523 0)
(0.0386216 0.391428 0)
(0.0233267 0.394061 0)
(0.00780032 0.395386 0)
(0.00356594 0.054493 0)
(0.0106946 0.0548094 0)
(0.0178242 0.0554434 0)
(0.0249588 0.0563973 0)
(0.0320952 0.0576745 0)
(0.0392331 0.0592796 0)
(0.0463715 0.0612182 0)
(0.0535084 0.0634971 0)
(0.0606409 0.066124 0)
(0.0677649 0.0691078 0)
(0.0748748 0.0724581 0)
(0.0819634 0.0761856 0)
(0.0890217 0.0803016 0)
(0.0960385 0.0848182 0)
(0.103 0.0897479 0)
(0.109891 0.0951036 0)
(0.116691 0.100898 0)
(0.123379 0.107144 0)
(0.129928 0.113854 0)
(0.136309 0.121039 0)
(0.142489 0.128709 0)
(0.148428 0.136871 0)
(0.154085 0.145533 0)
(0.159411 0.154694 0)
(0.164355 0.164355 0)
(0.16886 0.174508 0)
(0.172863 0.185142 0)
(0.176301 0.196239 0)
(0.179103 0.207772 0)
(0.181198 0.219709 0)
(0.182513 0.232007 0)
(0.182974 0.244614 0)
(0.182508 0.257469 0)
(0.181046 0.2705 0)
(0.178524 0.283624 0)
(0.174884 0.29675 0)
(0.170078 0.309778 0)
(0.164071 0.322597 0)
(0.156841 0.335091 0)
(0.148381 0.347139 0)
(0.138704 0.358616 0)
(0.127841 0.369397 0)
(0.115843 0.379356 0)
(0.102782 0.388375 0)