/*--------------------------------*- C++ -*----------------------------------*\
| =========                 |                                                 |
| \\      /  F ield         | OpenFOAM: The Open Source CFD Toolbox           |
|  \\    /   O peration     | Version:  2406                                  |
|   \\  /    A nd           | Website:  www.openfoam.com                      |
|    \\/     M anipulation  |                                                 |
\*---------------------------------------------------------------------------*/
FoamFile
{
    version     2.0;
    format      ascii;
    arch        "LSB;label=32;scalar=64";
    class       volScalarField;
    location    "2.4";
    object      gradTy;
}
// * * * * * * * * * * * * * * * * * * * * * * * * * * * * * * * * * * * * * //

dimensions      [0 -1 0 1 0 0 0];

internalField   nonuniform List<scalar> 
2500
(
0.0150645
0.0151332
0.0152744
0.0154855
0.0157667
0.0161181
0.01654
0.0170323
0.0175951
0.0182282
0.0189315
0.0197048
0.0205478
0.0214598
0.0224403
0.0234883
0.0246027
0.025782
0.0270244
0.028328
0.0296901
0.0311079
0.032578
0.0340966
0.0356594
0.0372614
0.0388972
0.0405608
0.0422457
0.0439449
0.0456506
0.0473547
0.0490487
0.0507236
0.0523698
0.0539779
0.0555379
0.0570398
0.0584738
0.0598298
0.0610985
0.0622704
0.0633368
0.0642896
0.0651215
0.0658259
0.0663975
0.0668319
0.0671235
0.0672568
0.0451274
0.0453374
0.04576
0.0463927
0.047236
0.0482904
0.049556
0.051033
0.0527212
0.0546207
0.0567309
0.0590513
0.0615807
0.0643176
0.06726
0.0704052
0.0737498
0.0772895
0.081019
0.0849322
0.0890216
0.0932784
0.0976928
0.102253
0.106946
0.111758
0.116671
0.121669
0.126731
0.131836
0.136961
0.142082
0.147173
0.152207
0.157155
0.161989
0.166679
0.171195
0.175507
0.179585
0.1834
0.186924
0.190131
0.192997
0.195499
0.197618
0.199337
0.200644
0.201528
0.201956
0.0750802
0.0754324
0.0761355
0.0771897
0.0785954
0.080353
0.0824628
0.0849252
0.08774
0.0909072
0.0944261
0.0982957
0.102514
0.107079
0.111988
0.117235
0.122816
0.128723
0.134947
0.141479
0.148306
0.155414
0.162785
0.170402
0.178242
0.186281
0.194492
0.202844
0.211306
0.219841
0.228412
0.236977
0.245494
0.253916
0.262197
0.270288
0.278138
0.285699
0.292918
0.299747
0.306137
0.312041
0.317414
0.322215
0.326407
0.329956
0.332834
0.33502
0.336497
0.337234
0.104879
0.105371
0.106355
0.107831
0.1098
0.112261
0.115217
0.118666
0.122609
0.127047
0.131978
0.1374
0.143313
0.149712
0.156594
0.163952
0.171778
0.180064
0.188797
0.197963
0.207545
0.217524
0.227875
0.238574
0.249588
0.260885
0.272426
0.284169
0.29607
0.308077
0.320136
0.332192
0.344182
0.356042
0.367706
0.379105
0.390168
0.400825
0.411003
0.420634
0.429646
0.437974
0.445555
0.45233
0.458245
0.463252
0.467312
0.47039
0.472459
0.473498
0.134422
0.135054
0.13632
0.138218
0.14075
0.143916
0.147718
0.152156
0.15723
0.162941
0.169287
0.176268
0.183881
0.192122
0.200986
0.210465
0.220551
0.231231
0.242491
0.254312
0.266673
0.27955
0.292912
0.306725
0.320952
0.335548
0.350466
0.36565
0.381042
0.396578
0.412187
0.427797
0.443327
0.458694
0.473812
0.488592
0.502941
0.516767
0.529976
0.542477
0.55418
0.564996
0.574844
0.583646
0.591332
0.597839
0.603113
0.60711
0.609796
0.611144
0.163634
0.164407
0.165954
0.168275
0.171371
0.175243
0.179893
0.185321
0.191529
0.198516
0.206283
0.214828
0.224148
0.23424
0.245098
0.256713
0.269074
0.282168
0.295977
0.31048
0.325651
0.341459
0.357871
0.374844
0.392331
0.410281
0.428633
0.447321
0.466274
0.485412
0.50465
0.523896
0.543052
0.562016
0.58068
0.598934
0.616664
0.633754
0.650087
0.665551
0.68003
0.693418
0.70561
0.71651
0.726029
0.734089
0.740623
0.745574
0.748899
0.750569
0.192439
0.193354
0.195182
0.197926
0.201587
0.206166
0.211665
0.218085
0.225429
0.233697
0.242889
0.253005
0.264042
0.275996
0.28886
0.302627
0.317283
0.332814
0.3492
0.366415
0.384432
0.403215
0.422723
0.442908
0.463715
0.485083
0.506941
0.529211
0.551809
0.574639
0.597601
0.620585
0.643474
0.666145
0.688469
0.710313
0.73154
0.75201
0.771584
0.790122
0.807488
0.82355
0.838182
0.851267
0.862698
0.872378
0.880226
0.886173
0.890168
0.892174
0.220761
0.221816
0.223926
0.227094
0.231319
0.236606
0.242955
0.25037
0.258853
0.268406
0.279029
0.290723
0.303485
0.317313
0.332199
0.348136
0.365109
0.383103
0.402096
0.422061
0.442966
0.464771
0.48743
0.510888
0.535084
0.559946
0.585394
0.611339
0.637681
0.66431
0.69111
0.717952
0.744699
0.771209
0.797328
0.822901
0.847766
0.871757
0.894709
0.916458
0.93684
0.955701
0.972888
0.988264
1.0017
1.01308
1.02231
1.0293
1.034
1.03636
0.24852
0.249716
0.252108
0.255698
0.260489
0.266483
0.273684
0.282095
0.291719
0.30256
0.31462
0.327899
0.342397
0.358111
0.375035
0.393161
0.412476
0.432962
0.454597
0.477352
0.501192
0.526073
0.551944
0.578746
0.606409
0.634853
0.663988
0.693711
0.723912
0.754464
0.785233
0.816073
0.846826
0.877327
0.9074
0.936863
0.965529
0.993205
1.0197
1.04482
1.06837
1.09017
1.11005
1.12785
1.1434
1.15657
1.16726
1.17536
1.18081
1.18354
0.275635
0.276971
0.279645
0.283657
0.289013
0.295715
0.303767
0.313175
0.323943
0.336075
0.349576
0.364448
0.380691
0.398304
0.417282
0.437618
0.4593
0.482309
0.506624
0.532212
0.559038
0.587056
0.616209
0.646432
0.677649
0.709773
0.742702
0.776323
0.810511
0.845126
0.880014
0.915011
0.949938
0.984605
1.01881
1.05235
1.08501
1.11656
1.14678
1.17545
1.20235
1.22727
1.25
1.27035
1.28815
1.30323
1.31547
1.32475
1.33098
1.33411
0.302023
0.3035
0.306454
0.310888
0.316807
0.324215
0.333119
0.343523
0.355436
0.368862
0.383808
0.400278
0.418275
0.4378
0.458849
0.481416
0.50549
0.531056
0.558088
0.586558
0.616425
0.647643
0.680151
0.713881
0.748748
0.784659
0.821502
0.859153
0.897472
0.936305
0.97548
1.01481
1.0541
1.09313
1.13168
1.16951
1.20636
1.242
1.27617
1.3086
1.33906
1.36728
1.39304
1.41612
1.4363
1.45342
1.46731
1.47785
1.48493
1.48848
0.327599
0.329216
0.332449
0.337304
0.343785
0.351897
0.36165
0.37305
0.386106
0.400827
0.417221
0.435294
0.455053
0.4765
0.499635
0.524454
0.550947
0.579101
0.608892
0.640291
0.673258
0.707744
0.743687
0.781013
0.819634
0.859448
0.900335
0.942159
0.984768
1.02799
1.07164
1.1155
1.15936
1.20298
1.24609
1.28844
1.32974
1.36971
1.40806
1.44449
1.47873
1.51048
1.53947
1.56546
1.5882
1.6075
1.62316
1.63504
1.64303
1.64704
0.352277
0.354032
0.357544
0.362816
0.369856
0.37867
0.389268
0.401661
0.415858
0.431872
0.449714
0.469394
0.49092
0.514299
0.539533
0.566622
0.59556
0.626334
0.658924
0.693302
0.729428
0.767253
0.806713
0.847732
0.890217
0.934058
0.979129
1.02528
1.07235
1.12015
1.16847
1.21709
1.26575
1.31419
1.36212
1.40925
1.45526
1.49983
1.54263
1.58333
1.6216
1.65711
1.68957
1.71868
1.74417
1.76581
1.78338
1.79671
1.80567
1.81017
0.375968
0.377861
0.381647
0.387334
0.394928
0.404439
0.415878
0.429258
0.444592
0.461896
0.481184
0.502469
0.525766
0.551083
0.578428
0.607804
0.639209
0.672634
0.708062
0.745467
0.784812
0.826048
0.869111
0.913922
0.960385
1.00838
1.05779
1.10843
1.16015
1.21272
1.26593
1.31953
1.37325
1.42678
1.47981
1.532
1.58302
1.63248
1.68002
1.72528
1.76786
1.80742
1.8436
1.87606
1.9045
1.92866
1.94828
1.96317
1.97319
1.97822
0.398581
0.40061
0.404669
0.410765
0.418908
0.429109
0.441381
0.45574
0.472204
0.49079
0.511518
0.534407
0.559472
0.58673
0.616194
0.64787
0.681762
0.717865
0.756168
0.796648
0.83927
0.883988
0.930739
0.979443
1.03
1.0823
1.13618
1.1915
1.24805
1.30561
1.36395
1.42279
1.48182
1.54072
1.59915
1.65672
1.71305
1.76773
1.82035
1.87047
1.91769
1.96158
2.00175
2.03783
2.06946
2.09633
2.11817
2.13475
2.1459
2.15151
0.420024
0.422187
0.426514
0.433015
0.441699
0.45258
0.465675
0.481003
0.498585
0.518444
0.540603
0.565085
0.591915
0.621113
0.652696
0.686681
0.723075
0.76188
0.803089
0.846686
0.892642
0.940911
0.991435
1.04413
1.09891
1.15563
1.21417
1.27433
1.33592
1.39869
1.4624
1.52674
1.59138
1.65596
1.7201
1.78338
1.84537
1.90562
1.96365
2.019
2.07118
2.11973
2.16421
2.20418
2.23924
2.26905
2.29328
2.31169
2.32407
2.3303
0.440205
0.442498
0.447089
0.453986
0.463201
0.474752
0.488657
0.504939
0.523624
0.54474
0.568315
0.594379
0.622962
0.654091
0.687792
0.724087
0.762991
0.804514
0.848658
0.89541
0.944748
0.996634
1.05101
1.1078
1.16691
1.22821
1.29155
1.35674
1.42357
1.49179
1.56112
1.63124
1.70178
1.77237
1.84256
1.91191
1.97992
2.04611
2.10993
2.17087
2.22838
2.28194
2.33105
2.37522
2.41399
2.44696
2.47379
2.49417
2.50789
2.51478
0.459028
0.46145
0.466297
0.473581
0.483316
0.495521
0.510219
0.527437
0.547206
0.569558
0.594529
0.622156
0.652474
0.68552
0.721327
0.759926
0.801342
0.845592
0.892688
0.942625
0.99539
1.05095
1.10926
1.17023
1.23379
1.29979
1.36809
1.4385
1.51079
1.58469
1.65991
1.73609
1.81285
1.88976
1.96636
2.04214
2.11657
2.18908
2.2591
2.32602
2.38925
2.4482
2.50229
2.55097
2.59374
2.63014
2.65976
2.68228
2.69744
2.70506
0.476399
0.478945
0.484042
0.491702
0.501941
0.514783
0.530253
0.548384
0.569211
0.592774
0.619114
0.648276
0.680304
0.715243
0.753137
0.794025
0.837944
0.884921
0.934977
0.988119
1.04434
1.10363
1.16593
1.23117
1.29928
1.37012
1.44354
1.51934
1.59729
1.67711
1.75847
1.84101
1.9243
2.00789
2.09126
2.17386
2.2551
2.33435
2.41097
2.48429
2.55364
2.61836
2.67781
2.73135
2.77843
2.81851
2.85115
2.87598
2.89269
2.9011
0.492224
0.49489
0.500227
0.508249
0.518975
0.532432
0.548649
0.567664
0.589519
0.614259
0.641934
0.672596
0.706299
0.743099
0.78305
0.826201
0.872602
0.922292
0.975304
1.03166
1.09136
1.1544
1.22075
1.29034
1.36309
1.43889
1.51757
1.59893
1.68274
1.7687
1.85647
1.94565
2.0358
2.12641
2.21692
2.30673
2.39518
2.4816
2.56524
2.64539
2.72128
2.79218
2.85736
2.91613
2.96783
3.01188
3.04778
3.07508
3.09347
3.10272
0.506409
0.509189
0.514755
0.523123
0.534316
0.548361
0.565296
0.585161
0.608005
0.633882
0.662848
0.694967
0.730301
0.768918
0.810882
0.856258
0.905106
0.957482
1.01343
1.07299
1.13618
1.20299
1.27342
1.34741
1.42489
1.50574
1.5898
1.67689
1.76674
1.85906
1.95349
2.0496
2.14691
2.24487
2.34289
2.4403
2.53638
2.63037
2.72148
2.80888
2.89174
2.96924
3.04055
3.1049
3.16155
3.20986
3.24924
3.27921
3.2994
3.30956
0.51886
0.521748
0.527531
0.536228
0.547861
0.562466
0.580082
0.600757
0.624545
0.651509
0.681716
0.715235
0.752144
0.792521
0.836443
0.883989
0.935236
0.990252
1.0491
1.11183
1.17849
1.24908
1.3236
1.40203
1.48428
1.57026
1.65982
1.75276
1.84883
1.94771
2.04901
2.15231
2.25707
2.36272
2.4686
2.57398
2.67808
2.78007
2.87906
2.97415
3.06441
3.14891
3.22675
3.29704
3.35898
3.41183
3.45493
3.48775
3.50987
3.521
0.529489
0.532477
0.538463
0.547466
0.559513
0.574641
0.592897
0.614334
0.639014
0.667008
0.698391
0.733246
0.77166
0.813725
0.859534
0.90918
0.962756
1.02035
1.08204
1.1479
1.21798
1.29232
1.37092
1.45379
1.54085
1.63201
1.72714
1.82604
1.92845
2.03405
2.14244
2.25316
2.36564
2.47927
2.59333
2.70704
2.81955
2.92992
3.03721
3.1404
3.23846
3.33037
3.41511
3.49171
3.55926
3.61693
3.66399
3.69984
3.724
3.73617
0.538206
0.541287
0.54746
0.556744
0.569172
0.584784
0.603632
0.625777
0.651287
0.680242
0.712728
0.748839
0.788675
0.832343
0.879949
0.931606
0.987422
1.04751
1.11195
1.18086
1.2543
1.33233
1.41498
1.50225
1.59411
1.69048
1.79122
1.89614
2.00499
2.11744
2.23307
2.35139
2.47182
2.59369
2.71622
2.83858
2.95983
3.07896
3.19491
3.30658
3.41283
3.51251
3.60452
3.68776
3.76123
3.82399
3.87523
3.91428
3.94061
3.95386
0.54493
0.548094
0.554434
0.563973
0.576745
0.592796
0.612182
0.634971
0.66124
0.691078
0.724581
0.761856
0.803016
0.848182
0.897479
0.951036
1.00898
1.07144
1.13854
1.21039
1.28709
1.36871
1.45533
1.54694
1.64355
1.74508
1.85142
1.96239
2.07772
2.19709
2.32007
2.44614
2.57469
2.705
2.83624
2.9675
3.09778
3.22597
3.35091
3.47139
3.58616
3.69397
3.79356
3.88375
3.9634
4.03149
4.08712
4.12952
4.15812
4.17253
0.549581
0.552818
0.559306
0.569068
0.582143
0.598582
0.618445
0.641807
0.668755
0.699386
0.733808
0.772139
0.814508
0.861051
0.91191
0.967232
1.02717
1.09187
1.16147
1.23613
1.31595
1.40104
1.49149
1.58734
1.6886
1.79521
1.90709
2.02406
2.14586
2.27216
2.40252
2.53641
2.67317
2.81205
2.95216
3.09252
3.23203
3.36952
3.50371
3.63327
3.75684
3.87303
3.98048
4.07786
4.16393
4.23756
4.29774
4.34363
4.3746
4.3902
0.552087
0.555386
0.561998
0.57195
0.585282
0.602051
0.622323
0.64618
0.673716
0.705038
0.740266
0.779532
0.822978
0.870756
0.923026
0.979957
1.04172
1.10849
1.18043
1.2577
1.34047
1.42886
1.52297
1.62289
1.72863
1.84019
1.95748
2.08033
2.20851
2.34167
2.47937
2.62106
2.76605
2.91353
3.06257
3.21212
3.361
3.50792
3.65152
3.79034
3.92289
4.04766
4.16316
4.26792
4.36059
4.4399
4.50476
4.55425
4.58765
4.60448
0.552382
0.555731
0.562442
0.572545
0.586086
0.603122
0.623727
0.64799
0.676013
0.707914
0.743823
0.783884
0.828256
0.877107
0.930616
0.98897
1.05236
1.12099
1.19506
1.27474
1.36023
1.45168
1.54924
1.65299
1.76301
1.87929
2.00178
2.13032
2.26469
2.40456
2.54946
2.69882
2.85193
3.00795
3.16588
3.3246
3.48284
3.63923
3.79228
3.94042
4.08204
4.21548
4.33912
4.45136
4.55071
4.6358
4.70542
4.75855
4.79442
4.8125
0.55041
0.553794
0.560577
0.570792
0.584485
0.60172
0.622576
0.647148
0.675547
0.7079
0.744349
0.785052
0.830181
0.879921
0.934469
0.994036
1.05884
1.12909
1.20503
1.28686
1.37479
1.46903
1.56974
1.67704
1.79103
1.91174
2.03914
2.17308
2.31337
2.45966
2.6115
2.76829
2.92931
3.09366
3.26029
3.42802
3.59549
3.76123
3.92363
4.08103
4.23165
4.37373
4.50548
4.62519
4.73123
4.8221
4.89648
4.95327
4.99162
5.01095
0.546123
0.549528
0.556353
0.566634
0.58042
0.597779
0.618796
0.643572
0.672225
0.704893
0.741728
0.782901
0.828598
0.879021
0.934387
0.994924
1.06087
1.13248
1.20999
1.29366
1.38372
1.4804
1.58391
1.69439
1.81198
1.93674
2.06865
2.20761
2.35341
2.50574
2.66413
2.82798
2.99653
3.16885
3.34384
3.52025
3.69664
3.87145
4.04296
4.20937
4.36879
4.51932
4.65903
4.78607
4.89867
4.99522
5.07429
5.13468
5.17547
5.19604
0.539483
0.542893
0.549729
0.560029
0.573844
0.591247
0.612328
0.637193
0.665969
0.698802
0.735854
0.777309
0.823367
0.874246
0.93018
0.991418
1.05822
1.13086
1.20962
1.29477
1.38657
1.4853
1.59118
1.7044
1.82513
1.95345
2.08938
2.23284
2.38365
2.54148
2.70589
2.87625
3.0518
3.23157
3.41441
3.59899
3.78382
3.96722
4.14738
4.32238
4.49022
4.64883
4.79617
4.93024
5.04916
5.15118
5.23476
5.29863
5.34177
5.36353
0.530464
0.533862
0.540676
0.550944
0.564721
0.582083
0.603123
0.627955
0.656712
0.689548
0.726636
0.768169
0.814361
0.865446
0.921674
0.983314
1.05065
1.12397
1.20359
1.28981
1.38293
1.48323
1.59099
1.70643
1.82974
1.96105
2.10039
2.24772
2.40287
2.56553
2.73526
2.91145
3.09328
3.27977
3.46973
3.66178
3.85434
4.04565
4.23381
4.41678
4.59242
4.75856
4.91302
5.05367
5.1785
5.28565
5.37348
5.4406
5.48596
5.50884
0.519053
0.522422
0.529178
0.53936
0.553028
0.570258
0.591148
0.615817
0.644405
0.677072
0.713999
0.755391
0.801474
0.852493
0.908717
0.970431
1.03794
1.11156
1.19162
1.27844
1.37237
1.47372
1.58278
1.69983
1.82508
1.95868
2.10072
2.25115
2.40985
2.57652
2.75072
2.93183
3.11904
3.31134
3.5075
3.70608
3.90544
4.10375
4.29901
4.48908
4.67171
4.84461
5.00548
5.15207
5.28224
5.39403
5.4857
5.55578
5.60314
5.62704
0.50525
0.508571
0.515233
0.525274
0.538757
0.55576
0.576385
0.600755
0.629014
0.661329
0.697889
0.738907
0.784619
0.835283
0.89118
0.952613
1.0199
1.09339
1.17342
1.26035
1.35454
1.45633
1.56606
1.68402
1.81046
1.94557
2.08945
2.2421
2.40339
2.57308
2.75071
2.93568
3.12717
3.32414
3.52533
3.72928
3.93428
4.13844
4.33966
4.53573
4.72429
4.90296
5.06931
5.22099
5.35576
5.47155
5.56653
5.63917
5.68827
5.71305
0.489071
0.492325
0.498853
0.508697
0.521916
0.538594
0.558835
0.582763
0.610527
0.642299
0.678275
0.718672
0.763737
0.813736
0.868964
0.929736
0.996388
1.06928
1.14877
1.23525
1.32909
1.43067
1.54035
1.65844
1.78524
1.92095
2.06571
2.21954
2.38236
2.5539
2.73376
2.92132
3.11577
3.31606
3.52092
3.72883
3.93806
4.14664
4.35245
4.55316
4.74635
4.92954
5.10023
5.25595
5.39438
5.51338
5.61102
5.68571
5.73621
5.7617
0.470545
0.473713
0.480069
0.489654
0.502531
0.518783
0.538515
0.561854
0.588952
0.619983
0.655147
0.694667
0.738796
0.787807
0.842004
0.901711
0.967279
1.03908
1.11749
1.20291
1.29575
1.3964
1.50523
1.62261
1.74884
1.88415
2.02871
2.18258
2.34567
2.51777
2.69847
2.88718
3.08308
3.28513
3.49203
3.70226
3.91406
4.12542
4.33416
4.53791
4.73419
4.92043
5.09407
5.25258
5.39356
5.51479
5.6143
5.69044
5.74193
5.76793
0.449719
0.45278
0.458924
0.468191
0.480644
0.496367
0.515464
0.538064
0.564319
0.594406
0.628525
0.666904
0.709797
0.757484
0.810272
0.868494
0.932509
1.00269
1.07945
1.16318
1.25431
1.35325
1.46041
1.57614
1.70078
1.8346
1.97778
2.1304
2.29241
2.46361
2.64361
2.83184
3.02748
3.22951
3.43664
3.64733
3.8598
4.07204
4.28182
4.48676
4.68433
4.87193
5.04693
5.20677
5.349
5.47134
5.5718
5.64869
5.70068
5.72694
0.426654
0.42959
0.435481
0.44437
0.456317
0.471405
0.48974
0.511449
0.536684
0.565619
0.598457
0.635424
0.676775
0.722791
0.773783
0.830085
0.89206
0.960092
1.03459
1.11596
1.20465
1.30106
1.40563
1.51873
1.64071
1.77186
1.91239
2.06238
2.22182
2.39053
2.56814
2.75409
2.94761
3.14767
3.35299
3.56206
3.77309
3.98408
4.19281
4.39686
4.59371
4.78074
4.95531
5.11483
5.25684
5.37903
5.4794
5.55623
5.60819
5.63444
0.40143
0.40422
0.409819
0.418268
0.429628
0.443979
0.461425
0.482091
0.506126
0.533703
0.56502
0.600303
0.639803
0.683799
0.732599
0.786537
0.845975
0.911297
0.98291
1.06124
1.1467
1.23975
1.34079
1.45022
1.56841
1.69565
1.83216
1.97806
2.13335
2.29787
2.47127
2.65303
2.84239
3.03836
3.23969
3.44487
3.65217
3.8596
4.06495
4.26585
4.45978
4.64413
4.8163
4.97369
5.11385
5.2345
5.33362
5.40951
5.46084
5.48678
0.374142
0.376767
0.382035
0.389986
0.400678
0.414189
0.43062
0.450093
0.472752
0.498765
0.528325
0.561652
0.598991
0.640617
0.68683
0.737958
0.794357
0.856406
0.924508
0.999079
1.08055
1.16935
1.2659
1.3706
1.48381
1.60585
1.73694
1.87722
2.0267
2.18524
2.35253
2.52808
2.71114
2.90077
3.09577
3.29468
3.4958
3.69719
3.8967
4.09202
4.28066
4.46008
4.62772
4.78103
4.91761
5.03521
5.13184
5.20584
5.25591
5.28121
0.344903
0.347344
0.352243
0.359637
0.369583
0.382156
0.397451
0.415584
0.436694
0.460941
0.488513
0.519618
0.554493
0.593403
0.636636
0.684512
0.737374
0.79559
0.859551
0.929664
1.00635
1.09002
1.18111
1.27999
1.38704
1.50257
1.6268
1.75989
1.90186
2.05259
2.21181
2.37903
2.55359
2.73457
2.92082
3.11095
3.30334
3.49612
3.68722
3.8744
4.05529
4.22741
4.3883
4.53549
4.66666
4.77962
4.87248
4.94359
4.99171
5.01602
0.313842
0.31608
0.320573
0.327357
0.336482
0.348021
0.362062
0.378715
0.39811
0.420399
0.445757
0.474383
0.506501
0.542359
0.582234
0.626426
0.675264
0.729098
0.7883
0.85326
0.92438
1.00206
1.08671
1.17871
1.27841
1.38611
1.50205
1.62638
1.75913
1.90021
2.04936
2.20616
2.36996
2.53993
2.71497
2.8938
3.07486
3.2564
3.43646
3.61292
3.78352
3.94593
4.09779
4.23677
4.36065
4.46737
4.5551
4.6223
4.66778
4.69076
0.281101
0.28312
0.287174
0.293294
0.301529
0.311944
0.324621
0.339661
0.357185
0.377332
0.400266
0.426168
0.455248
0.487736
0.523888
0.563985
0.608331
0.657255
0.711104
0.770243
0.835048
0.905901
0.983178
1.06724
1.15843
1.25702
1.36326
1.47728
1.59914
1.72875
1.86589
2.01016
2.161
2.31762
2.47903
2.64403
2.81118
2.97887
3.14528
3.30843
3.46622
3.6165
3.75706
3.88574
4.00047
4.09932
4.1806
4.24287
4.285
4.30631
0.24684
0.248624
0.252207
0.257617
0.264897
0.274105
0.285316
0.298621
0.314128
0.331963
0.352274
0.375226
0.401008
0.429827
0.461917
0.497533
0.536951
0.580469
0.628404
0.68109
0.73887
0.802095
0.871109
0.946246
1.02782
1.11609
1.21127
1.31352
1.42287
1.53926
1.66251
1.79225
1.92799
2.06902
2.21444
2.36317
2.51393
2.66524
2.81546
2.96279
3.10535
3.24115
3.36821
3.48455
3.58831
3.67772
3.75125
3.80758
3.84571
3.86499
0.21123
0.212767
0.215851
0.220507
0.226773
0.2347
0.244353
0.255811
0.26917
0.28454
0.30205
0.321846
0.344091
0.368971
0.39669
0.427472
0.46156
0.499218
0.540727
0.58638
0.636482
0.691343
0.751271
0.816562
0.887493
0.964306
1.04719
1.13629
1.23164
1.33319
1.44079
1.55413
1.67276
1.79609
1.92332
2.05351
2.18553
2.31809
2.44973
2.57889
2.70391
2.82303
2.93451
3.03661
3.12767
3.20617
3.27072
3.32018
3.35366
3.37059
0.174457
0.175733
0.178295
0.18216
0.187362
0.193942
0.201956
0.21147
0.222565
0.235335
0.249887
0.266344
0.284845
0.305547
0.32862
0.354256
0.38266
0.414056
0.448681
0.486784
0.528626
0.574469
0.624575
0.679199
0.738576
0.802914
0.872381
0.947091
1.02709
1.11234
1.20271
1.29795
1.39768
1.5014
1.60846
1.71804
1.8292
1.94084
2.05176
2.16061
2.26599
2.36643
2.46045
2.54657
2.62339
2.68961
2.74408
2.78582
2.81407
2.82837
0.136714
0.13772
0.13974
0.142784
0.146878
0.152056
0.158362
0.165851
0.174585
0.18464
0.196101
0.209066
0.223647
0.239966
0.258163
0.278388
0.300807
0.325597
0.352949
0.383063
0.416146
0.452411
0.492067
0.535319
0.582357
0.633349
0.688431
0.747697
0.811186
0.878871
0.950649
1.02632
1.1056
1.18807
1.27322
1.36041
1.44887
1.53775
1.62607
1.71276
1.7967
1.87672
1.95164
2.02027
2.0815
2.13428
2.1777
2.21098
2.2335
2.2449
0.0982048
0.0989307
0.100396
0.102593
0.105544
0.109276
0.113821
0.119218
0.125513
0.132762
0.141026
0.150377
0.160895
0.172671
0.185805
0.200407
0.216598
0.234507
0.254274
0.276044
0.299969
0.326204
0.354903
0.386216
0.420281
0.457222
0.49714
0.540104
0.586145
0.635244
0.687326
0.742251
0.799806
0.859697
0.921545
0.984888
1.04917
1.11377
1.17797
1.241
1.30203
1.36023
1.41471
1.46463
1.50917
1.54757
1.57916
1.60337
1.61976
1.62807
0.0591405
0.0595653
0.0604523
0.0617796
0.0635612
0.0658135
0.0685565
0.071814
0.0756143
0.0799903
0.08498
0.0906266
0.0969793
0.104093
0.112028
0.120852
0.130639
0.141466
0.153419
0.166587
0.181061
0.196937
0.214309
0.233267
0.253897
0.276274
0.30046
0.326498
0.354407
0.384177
0.415763
0.449079
0.483998
0.520341
0.557879
0.59633
0.63536
0.674585
0.713574
0.751858
0.788936
0.824291
0.857396
0.887731
0.914798
0.938138
0.957341
0.972063
0.982044
0.987143
0.0197483
0.0198816
0.0201756
0.0206191
0.0212146
0.0219676
0.0228846
0.0239736
0.0252442
0.0267072
0.0283756
0.0302638
0.0323883
0.0347674
0.0374216
0.0403735
0.0436476
0.0472705
0.0512706
0.0556776
0.0605229
0.0658379
0.0716544
0.0780032
0.0849128
0.0924088
0.100512
0.109237
0.118591
0.128569
0.139158
0.150328
0.162038
0.174227
0.186818
0.199717
0.212813
0.225975
0.23906
0.25191
0.264357
0.276226
0.287342
0.297529
0.30662
0.31446
0.320912
0.325861
0.329223
0.33096
)
;

boundaryField
{
    walls
    {
        type            calculated;
        value           nonuniform List<scalar> 
200
(
0
0
0
0
0
0
0
0
0
0
0
0
0
0
0
0
0
0
0
0
0
0
0
0
0
0
0
0
0
0
0
0
0
0
0
0
0
0
0
0
0
0
0
0
0
0
0
0
0
0
0.0150645
0.0451274
0.0750802
0.104879
0.134422
0.163634
0.192439
0.220761
0.24852
0.275635
0.302023
0.327599
0.352277
0.375968
0.398581
0.420024
0.440205
0.459028
0.476399
0.492224
0.506409
0.51886
0.529489
0.538206
0.54493
0.549581
0.552087
0.552382
0.55041
0.546123
0.539483
0.530464
0.519053
0.50525
0.489071
0.470545
0.449719
0.426654
0.40143
0.374142
0.344903
0.313842
0.281101
0.24684
0.21123
0.174457
0.136714
0.0982048
0.0591405
0.0197483
0.0672568
0.201956
0.337234
0.473498
0.611144
0.750569
0.892174
1.03636
1.18354
1.33411
1.48848
1.64704
1.81017
1.97822
2.15151
2.3303
2.51478
2.70506
2.9011
3.10272
3.30956
3.521
3.73617
3.95386
4.17253
4.3902
4.60448
4.8125
5.01095
5.19604
5.36353
5.50884
5.62704
5.71305
5.7617
5.76793
5.72694
5.63444
5.48678
5.28121
5.01602
4.69076
4.30631
3.86499
3.37059
2.82837
2.2449
1.62807
0.987143
0.33096
0
0
0
0
0
0
0
0
0
0
0
0
0
0
0
0
0
0
0
0
0
0
0
0
0
0
0
0
0
0
0
0
0
0
0
0
0
0
0
0
0
0
0
0
0
0
0
0
0
0
)
;
    }
    frontAndBack
    {
        type            empty;
    }
}


// ************************************************************************* //
