/*--------------------------------*- C++ -*----------------------------------*\
| =========                 |                                                 |
| \\      /  F ield         | OpenFOAM: The Open Source CFD Toolbox           |
|  \\    /   O peration     | Version:  2406                                  |
|   \\  /    A nd           | Website:  www.openfoam.com                      |
|    \\/     M anipulation  |                                                 |
\*---------------------------------------------------------------------------*/
FoamFile
{
    version     2.0;
    format      ascii;
    arch        "LSB;label=32;scalar=64";
    class       volScalarField;
    location    "2.4";
    object      gradTx;
}
// * * * * * * * * * * * * * * * * * * * * * * * * * * * * * * * * * * * * * //

dimensions      [0 -1 0 1 0 0 0];

internalField   nonuniform List<scalar> 
2500
(
0.0150645
0.0451274
0.0750802
0.104879
0.134422
0.163634
0.192439
0.220761
0.24852
0.275635
0.302023
0.327599
0.352277
0.375968
0.398581
0.420024
0.440205
0.459028
0.476399
0.492224
0.506409
0.51886
0.529489
0.538206
0.54493
0.549581
0.552087
0.552382
0.55041
0.546123
0.539483
0.530464
0.519053
0.50525
0.489071
0.470545
0.449719
0.426654
0.40143
0.374142
0.344903
0.313842
0.281101
0.24684
0.21123
0.174457
0.136714
0.0982048
0.0591405
0.0197483
0.0151332
0.0453374
0.0754324
0.105371
0.135054
0.164407
0.193354
0.221816
0.249716
0.276971
0.3035
0.329216
0.354032
0.377861
0.40061
0.422187
0.442498
0.46145
0.478945
0.49489
0.509189
0.521748
0.532477
0.541287
0.548094
0.552818
0.555386
0.555731
0.553794
0.549528
0.542893
0.533862
0.522422
0.508571
0.492325
0.473713
0.45278
0.42959
0.40422
0.376767
0.347344
0.31608
0.28312
0.248624
0.212767
0.175733
0.13772
0.0989307
0.0595653
0.0198816
0.0152744
0.04576
0.0761355
0.106355
0.13632
0.165954
0.195182
0.223926
0.252108
0.279645
0.306454
0.332449
0.357544
0.381647
0.404669
0.426514
0.447089
0.466297
0.484042
0.500227
0.514755
0.527531
0.538463
0.54746
0.554434
0.559306
0.561998
0.562442
0.560577
0.556353
0.549729
0.540676
0.529178
0.515233
0.498853
0.480069
0.458924
0.435481
0.409819
0.382035
0.352243
0.320573
0.287174
0.252207
0.215851
0.178295
0.13974
0.100396
0.0604523
0.0201756
0.0154855
0.0463927
0.0771897
0.107831
0.138218
0.168275
0.197926
0.227094
0.255698
0.283657
0.310888
0.337304
0.362816
0.387334
0.410765
0.433015
0.453986
0.473581
0.491702
0.508249
0.523123
0.536228
0.547466
0.556744
0.563973
0.569068
0.57195
0.572545
0.570792
0.566634
0.560029
0.550944
0.53936
0.525274
0.508697
0.489654
0.468191
0.44437
0.418268
0.389986
0.359637
0.327357
0.293294
0.257617
0.220507
0.18216
0.142784
0.102593
0.0617796
0.0206191
0.0157667
0.047236
0.0785954
0.1098
0.14075
0.171371
0.201587
0.231319
0.260489
0.289013
0.316807
0.343785
0.369856
0.394928
0.418908
0.441699
0.463201
0.483316
0.501941
0.518975
0.534316
0.547861
0.559513
0.569172
0.576745
0.582143
0.585282
0.586086
0.584485
0.58042
0.573844
0.564721
0.553028
0.538757
0.521916
0.502531
0.480644
0.456317
0.429628
0.400678
0.369583
0.336482
0.301529
0.264897
0.226773
0.187362
0.146878
0.105544
0.0635612
0.0212146
0.0161181
0.0482904
0.080353
0.112261
0.143916
0.175243
0.206166
0.236606
0.266483
0.295715
0.324215
0.351897
0.37867
0.404439
0.429109
0.45258
0.474752
0.495521
0.514783
0.532432
0.548361
0.562466
0.574641
0.584784
0.592796
0.598582
0.602051
0.603122
0.60172
0.597779
0.591247
0.582083
0.570258
0.55576
0.538594
0.518783
0.496367
0.471405
0.443979
0.414189
0.382156
0.348021
0.311944
0.274105
0.2347
0.193942
0.152056
0.109276
0.0658135
0.0219676
0.01654
0.049556
0.0824628
0.115217
0.147718
0.179893
0.211665
0.242955
0.273684
0.303767
0.333119
0.36165
0.389268
0.415878
0.441381
0.465675
0.488657
0.510219
0.530253
0.548649
0.565296
0.580082
0.592897
0.603632
0.612182
0.618445
0.622323
0.623727
0.622576
0.618796
0.612328
0.603123
0.591148
0.576385
0.558835
0.538515
0.515464
0.48974
0.461425
0.43062
0.397451
0.362062
0.324621
0.285316
0.244353
0.201956
0.158362
0.113821
0.0685565
0.0228846
0.0170323
0.051033
0.0849252
0.118666
0.152156
0.185321
0.218085
0.25037
0.282095
0.313175
0.343523
0.37305
0.401661
0.429258
0.45574
0.481003
0.504939
0.527437
0.548384
0.567664
0.585161
0.600757
0.614334
0.625777
0.634971
0.641807
0.64618
0.64799
0.647148
0.643572
0.637193
0.627955
0.615817
0.600755
0.582763
0.561854
0.538064
0.511449
0.482091
0.450093
0.415584
0.378715
0.339661
0.298621
0.255811
0.21147
0.165851
0.119218
0.071814
0.0239736
0.0175951
0.0527212
0.08774
0.122609
0.15723
0.191529
0.225429
0.258853
0.291719
0.323943
0.355436
0.386106
0.415858
0.444592
0.472204
0.498585
0.523624
0.547206
0.569211
0.589519
0.608005
0.624545
0.639014
0.651287
0.66124
0.668755
0.673716
0.676013
0.675547
0.672225
0.665969
0.656712
0.644405
0.629014
0.610527
0.588952
0.564319
0.536684
0.506126
0.472752
0.436694
0.39811
0.357185
0.314128
0.26917
0.222565
0.174585
0.125513
0.0756143
0.0252442
0.0182282
0.0546207
0.0909072
0.127047
0.162941
0.198516
0.233697
0.268406
0.30256
0.336075
0.368862
0.400827
0.431872
0.461896
0.49079
0.518444
0.54474
0.569558
0.592774
0.614259
0.633882
0.651509
0.667008
0.680242
0.691078
0.699386
0.705038
0.707914
0.7079
0.704893
0.698802
0.689548
0.677072
0.661329
0.642299
0.619983
0.594406
0.565619
0.533703
0.498765
0.460941
0.420399
0.377332
0.331963
0.28454
0.235335
0.18464
0.132762
0.0799903
0.0267072
0.0189315
0.0567309
0.0944261
0.131978
0.169287
0.206283
0.242889
0.279029
0.31462
0.349576
0.383808
0.417221
0.449714
0.481184
0.511518
0.540603
0.568315
0.594529
0.619114
0.641934
0.662848
0.681716
0.698391
0.712728
0.724581
0.733808
0.740266
0.743823
0.744349
0.741728
0.735854
0.726636
0.713999
0.697889
0.678275
0.655147
0.628525
0.598457
0.56502
0.528325
0.488513
0.445757
0.400266
0.352274
0.30205
0.249887
0.196101
0.141026
0.08498
0.0283756
0.0197048
0.0590513
0.0982957
0.1374
0.176268
0.214828
0.253005
0.290723
0.327899
0.364448
0.400278
0.435294
0.469394
0.502469
0.534407
0.565085
0.594379
0.622156
0.648276
0.672596
0.694967
0.715235
0.733246
0.748839
0.761856
0.772139
0.779532
0.783884
0.785052
0.782901
0.777309
0.768169
0.755391
0.738907
0.718672
0.694667
0.666904
0.635424
0.600303
0.561652
0.519618
0.474383
0.426168
0.375226
0.321846
0.266344
0.209066
0.150377
0.0906266
0.0302638
0.0205478
0.0615807
0.102514
0.143313
0.183881
0.224148
0.264042
0.303485
0.342397
0.380691
0.418275
0.455053
0.49092
0.525766
0.559472
0.591915
0.622962
0.652474
0.680304
0.706299
0.730301
0.752144
0.77166
0.788675
0.803016
0.814508
0.822978
0.828256
0.830181
0.828598
0.823367
0.814361
0.801474
0.784619
0.763737
0.738796
0.709797
0.676775
0.639803
0.598991
0.554493
0.506501
0.455248
0.401008
0.344091
0.284845
0.223647
0.160895
0.0969793
0.0323883
0.0214598
0.0643176
0.107079
0.149712
0.192122
0.23424
0.275996
0.317313
0.358111
0.398304
0.4378
0.4765
0.514299
0.551083
0.58673
0.621113
0.654091
0.68552
0.715243
0.743099
0.768918
0.792521
0.813725
0.832343
0.848182
0.861051
0.870756
0.877107
0.879921
0.879021
0.874246
0.865446
0.852493
0.835283
0.813736
0.787807
0.757484
0.722791
0.683799
0.640617
0.593403
0.542359
0.487736
0.429827
0.368971
0.305547
0.239966
0.172671
0.104093
0.0347674
0.0224403
0.06726
0.111988
0.156594
0.200986
0.245098
0.28886
0.332199
0.375035
0.417282
0.458849
0.499635
0.539533
0.578428
0.616194
0.652696
0.687792
0.721327
0.753137
0.78305
0.810882
0.836443
0.859534
0.879949
0.897479
0.91191
0.923026
0.930616
0.934469
0.934387
0.93018
0.921674
0.908717
0.89118
0.868964
0.842004
0.810272
0.773783
0.732599
0.68683
0.636636
0.582234
0.523888
0.461917
0.39669
0.32862
0.258163
0.185805
0.112028
0.0374216
0.0234883
0.0704052
0.117235
0.163952
0.210465
0.256713
0.302627
0.348136
0.393161
0.437618
0.481416
0.524454
0.566622
0.607804
0.64787
0.686681
0.724087
0.759926
0.794025
0.826201
0.856258
0.883989
0.90918
0.931606
0.951036
0.967232
0.979957
0.98897
0.994036
0.994924
0.991418
0.983314
0.970431
0.952613
0.929736
0.901711
0.868494
0.830085
0.786537
0.737958
0.684512
0.626426
0.563985
0.497533
0.427472
0.354256
0.278388
0.200407
0.120852
0.0403735
0.0246027
0.0737498
0.122816
0.171778
0.220551
0.269074
0.317283
0.365109
0.412476
0.4593
0.50549
0.550947
0.59556
0.639209
0.681762
0.723075
0.762991
0.801342
0.837944
0.872602
0.905106
0.935236
0.962756
0.987422
1.00898
1.02717
1.04172
1.05236
1.05884
1.06087
1.05822
1.05065
1.03794
1.0199
0.996388
0.967279
0.932509
0.89206
0.845975
0.794357
0.737374
0.675264
0.608331
0.536951
0.46156
0.38266
0.300807
0.216598
0.130639
0.0436476
0.025782
0.0772895
0.128723
0.180064
0.231231
0.282168
0.332814
0.383103
0.432962
0.482309
0.531056
0.579101
0.626334
0.672634
0.717865
0.76188
0.804514
0.845592
0.884921
0.922292
0.957482
0.990252
1.02035
1.04751
1.07144
1.09187
1.10849
1.12099
1.12909
1.13248
1.13086
1.12397
1.11156
1.09339
1.06928
1.03908
1.00269
0.960092
0.911297
0.856406
0.79559
0.729098
0.657255
0.580469
0.499218
0.414056
0.325597
0.234507
0.141466
0.0472705
0.0270244
0.081019
0.134947
0.188797
0.242491
0.295977
0.3492
0.402096
0.454597
0.506624
0.558088
0.608892
0.658924
0.708062
0.756168
0.803089
0.848658
0.892688
0.934977
0.975304
1.01343
1.0491
1.08204
1.11195
1.13854
1.16147
1.18043
1.19506
1.20503
1.20999
1.20962
1.20359
1.19162
1.17342
1.14877
1.11749
1.07945
1.03459
0.98291
0.924508
0.859551
0.7883
0.711104
0.628404
0.540727
0.448681
0.352949
0.254274
0.153419
0.0512706
0.028328
0.0849322
0.141479
0.197963
0.254312
0.31048
0.366415
0.422061
0.477352
0.532212
0.586558
0.640291
0.693302
0.745467
0.796648
0.846686
0.89541
0.942625
0.988119
1.03166
1.07299
1.11183
1.1479
1.18086
1.21039
1.23613
1.2577
1.27474
1.28686
1.29366
1.29477
1.28981
1.27844
1.26035
1.23525
1.20291
1.16318
1.11596
1.06124
0.999079
0.929664
0.85326
0.770243
0.68109
0.58638
0.486784
0.383063
0.276044
0.166587
0.0556776
0.0296901
0.0890216
0.148306
0.207545
0.266673
0.325651
0.384432
0.442966
0.501192
0.559038
0.616425
0.673258
0.729428
0.784812
0.83927
0.892642
0.944748
0.99539
1.04434
1.09136
1.13618
1.17849
1.21798
1.2543
1.28709
1.31595
1.34047
1.36023
1.37479
1.38372
1.38657
1.38293
1.37237
1.35454
1.32909
1.29575
1.25431
1.20465
1.1467
1.08055
1.00635
0.92438
0.835048
0.73887
0.636482
0.528626
0.416146
0.299969
0.181061
0.0605229
0.0311079
0.0932784
0.155414
0.217524
0.27955
0.341459
0.403215
0.464771
0.526073
0.587056
0.647643
0.707744
0.767253
0.826048
0.883988
0.940911
0.996634
1.05095
1.10363
1.1544
1.20299
1.24908
1.29232
1.33233
1.36871
1.40104
1.42886
1.45168
1.46903
1.4804
1.4853
1.48323
1.47372
1.45633
1.43067
1.3964
1.35325
1.30106
1.23975
1.16935
1.09002
1.00206
0.905901
0.802095
0.691343
0.574469
0.452411
0.326204
0.196937
0.0658379
0.032578
0.0976928
0.162785
0.227875
0.292912
0.357871
0.422723
0.48743
0.551944
0.616209
0.680151
0.743687
0.806713
0.869111
0.930739
0.991435
1.05101
1.10926
1.16593
1.22075
1.27342
1.3236
1.37092
1.41498
1.45533
1.49149
1.52297
1.54924
1.56974
1.58391
1.59118
1.59099
1.58278
1.56606
1.54035
1.50523
1.46041
1.40563
1.34079
1.2659
1.18111
1.08671
0.983178
0.871109
0.751271
0.624575
0.492067
0.354903
0.214309
0.0716544
0.0340966
0.102253
0.170402
0.238574
0.306725
0.374844
0.442908
0.510888
0.578746
0.646432
0.713881
0.781013
0.847732
0.913922
0.979443
1.04413
1.1078
1.17023
1.23117
1.29034
1.34741
1.40203
1.45379
1.50225
1.54694
1.58734
1.62289
1.65299
1.67704
1.69439
1.7044
1.70643
1.69983
1.68402
1.65844
1.62261
1.57614
1.51873
1.45022
1.3706
1.27999
1.17871
1.06724
0.946246
0.816562
0.679199
0.535319
0.386216
0.233267
0.0780032
0.0356594
0.106946
0.178242
0.249588
0.320952
0.392331
0.463715
0.535084
0.606409
0.677649
0.748748
0.819634
0.890217
0.960385
1.03
1.09891
1.16691
1.23379
1.29928
1.36309
1.42489
1.48428
1.54085
1.59411
1.64355
1.6886
1.72863
1.76301
1.79103
1.81198
1.82513
1.82974
1.82508
1.81046
1.78524
1.74884
1.70078
1.64071
1.56841
1.48381
1.38704
1.27841
1.15843
1.02782
0.887493
0.738576
0.582357
0.420281
0.253897
0.0849128
0.0372614
0.111758
0.186281
0.260885
0.335548
0.410281
0.485083
0.559946
0.634853
0.709773
0.784659
0.859448
0.934058
1.00838
1.0823
1.15563
1.22821
1.29979
1.37012
1.43889
1.50574
1.57026
1.63201
1.69048
1.74508
1.79521
1.84019
1.87929
1.91174
1.93674
1.95345
1.96105
1.95868
1.94557
1.92095
1.88415
1.8346
1.77186
1.69565
1.60585
1.50257
1.38611
1.25702
1.11609
0.964306
0.802914
0.633349
0.457222
0.276274
0.0924088
0.0388972
0.116671
0.194492
0.272426
0.350466
0.428633
0.506941
0.585394
0.663988
0.742702
0.821502
0.900335
0.979129
1.05779
1.13618
1.21417
1.29155
1.36809
1.44354
1.51757
1.5898
1.65982
1.72714
1.79122
1.85142
1.90709
1.95748
2.00178
2.03914
2.06865
2.08938
2.10039
2.10072
2.08945
2.06571
2.02871
1.97778
1.91239
1.83216
1.73694
1.6268
1.50205
1.36326
1.21127
1.04719
0.872381
0.688431
0.49714
0.30046
0.100512
0.0405608
0.121669
0.202844
0.284169
0.36565
0.447321
0.529211
0.611339
0.693711
0.776323
0.859153
0.942159
1.02528
1.10843
1.1915
1.27433
1.35674
1.4385
1.51934
1.59893
1.67689
1.75276
1.82604
1.89614
1.96239
2.02406
2.08033
2.13032
2.17308
2.20761
2.23284
2.24772
2.25115
2.2421
2.21954
2.18258
2.1304
2.06238
1.97806
1.87722
1.75989
1.62638
1.47728
1.31352
1.13629
0.947091
0.747697
0.540104
0.326498
0.109237
0.0422457
0.126731
0.211306
0.29607
0.381042
0.466274
0.551809
0.637681
0.723912
0.810511
0.897472
0.984768
1.07235
1.16015
1.24805
1.33592
1.42357
1.51079
1.59729
1.68274
1.76674
1.84883
1.92845
2.00499
2.07772
2.14586
2.20851
2.26469
2.31337
2.35341
2.38365
2.40287
2.40985
2.40339
2.38236
2.34567
2.29241
2.22182
2.13335
2.0267
1.90186
1.75913
1.59914
1.42287
1.23164
1.02709
0.811186
0.586145
0.354407
0.118591
0.0439449
0.131836
0.219841
0.308077
0.396578
0.485412
0.574639
0.66431
0.754464
0.845126
0.936305
1.02799
1.12015
1.21272
1.30561
1.39869
1.49179
1.58469
1.67711
1.7687
1.85906
1.94771
2.03405
2.11744
2.19709
2.27216
2.34167
2.40456
2.45966
2.50574
2.54148
2.56553
2.57652
2.57308
2.5539
2.51777
2.46361
2.39053
2.29787
2.18524
2.05259
1.90021
1.72875
1.53926
1.33319
1.11234
0.878871
0.635244
0.384177
0.128569
0.0456506
0.136961
0.228412
0.320136
0.412187
0.50465
0.597601
0.69111
0.785233
0.880014
0.97548
1.07164
1.16847
1.26593
1.36395
1.4624
1.56112
1.65991
1.75847
1.85647
1.95349
2.04901
2.14244
2.23307
2.32007
2.40252
2.47937
2.54946
2.6115
2.66413
2.70589
2.73526
2.75072
2.75071
2.73376
2.69847
2.64361
2.56814
2.47127
2.35253
2.21181
2.04936
1.86589
1.66251
1.44079
1.20271
0.950649
0.687326
0.415763
0.139158
0.0473547
0.142082
0.236977
0.332192
0.427797
0.523896
0.620585
0.717952
0.816073
0.915011
1.01481
1.1155
1.21709
1.31953
1.42279
1.52674
1.63124
1.73609
1.84101
1.94565
2.0496
2.15231
2.25316
2.35139
2.44614
2.53641
2.62106
2.69882
2.76829
2.82798
2.87625
2.91145
2.93183
2.93568
2.92132
2.88718
2.83184
2.75409
2.65303
2.52808
2.37903
2.20616
2.01016
1.79225
1.55413
1.29795
1.02632
0.742251
0.449079
0.150328
0.0490487
0.147173
0.245494
0.344182
0.443327
0.543052
0.643474
0.744699
0.846826
0.949938
1.0541
1.15936
1.26575
1.37325
1.48182
1.59138
1.70178
1.81285
1.9243
2.0358
2.14691
2.25707
2.36564
2.47182
2.57469
2.67317
2.76605
2.85193
2.92931
2.99653
3.0518
3.09328
3.11904
3.12717
3.11577
3.08308
3.02748
2.94761
2.84239
2.71114
2.55359
2.36996
2.161
1.92799
1.67276
1.39768
1.1056
0.799806
0.483998
0.162038
0.0507236
0.152207
0.253916
0.356042
0.458694
0.562016
0.666145
0.771209
0.877327
0.984605
1.09313
1.20298
1.31419
1.42678
1.54072
1.65596
1.77237
1.88976
2.00789
2.12641
2.24487
2.36272
2.47927
2.59369
2.705
2.81205
2.91353
3.00795
3.09366
3.16885
3.23157
3.27977
3.31134
3.32414
3.31606
3.28513
3.22951
3.14767
3.03836
2.90077
2.73457
2.53993
2.31762
2.06902
1.79609
1.5014
1.18807
0.859697
0.520341
0.174227
0.0523698
0.157155
0.262197
0.367706
0.473812
0.58068
0.688469
0.797328
0.9074
1.01881
1.13168
1.24609
1.36212
1.47981
1.59915
1.7201
1.84256
1.96636
2.09126
2.21692
2.34289
2.4686
2.59333
2.71622
2.83624
2.95216
3.06257
3.16588
3.26029
3.34384
3.41441
3.46973
3.5075
3.52533
3.52092
3.49203
3.43664
3.35299
3.23969
3.09577
2.92082
2.71497
2.47903
2.21444
1.92332
1.60846
1.27322
0.921545
0.557879
0.186818
0.0539779
0.161989
0.270288
0.379105
0.488592
0.598934
0.710313
0.822901
0.936863
1.05235
1.16951
1.28844
1.40925
1.532
1.65672
1.78338
1.91191
2.04214
2.17386
2.30673
2.4403
2.57398
2.70704
2.83858
2.9675
3.09252
3.21212
3.3246
3.42802
3.52025
3.59899
3.66178
3.70608
3.72928
3.72883
3.70226
3.64733
3.56206
3.44487
3.29468
3.11095
2.8938
2.64403
2.36317
2.05351
1.71804
1.36041
0.984888
0.59633
0.199717
0.0555379
0.166679
0.278138
0.390168
0.502941
0.616664
0.73154
0.847766
0.965529
1.08501
1.20636
1.32974
1.45526
1.58302
1.71305
1.84537
1.97992
2.11657
2.2551
2.39518
2.53638
2.67808
2.81955
2.95983
3.09778
3.23203
3.361
3.48284
3.59549
3.69664
3.78382
3.85434
3.90544
3.93428
3.93806
3.91406
3.8598
3.77309
3.65217
3.4958
3.30334
3.07486
2.81118
2.51393
2.18553
1.8292
1.44887
1.04917
0.63536
0.212813
0.0570398
0.171195
0.285699
0.400825
0.516767
0.633754
0.75201
0.871757
0.993205
1.11656
1.242
1.36971
1.49983
1.63248
1.76773
1.90562
2.04611
2.18908
2.33435
2.4816
2.63037
2.78007
2.92992
3.07896
3.22597
3.36952
3.50792
3.63923
3.76123
3.87145
3.96722
4.04565
4.10375
4.13844
4.14664
4.12542
4.07204
3.98408
3.8596
3.69719
3.49612
3.2564
2.97887
2.66524
2.31809
1.94084
1.53775
1.11377
0.674585
0.225975
0.0584738
0.175507
0.292918
0.411003
0.529976
0.650087
0.771584
0.894709
1.0197
1.14678
1.27617
1.40806
1.54263
1.68002
1.82035
1.96365
2.10993
2.2591
2.41097
2.56524
2.72148
2.87906
3.03721
3.19491
3.35091
3.50371
3.65152
3.79228
3.92363
4.04296
4.14738
4.23381
4.29901
4.33966
4.35245
4.33416
4.28182
4.19281
4.06495
3.8967
3.68722
3.43646
3.14528
2.81546
2.44973
2.05176
1.62607
1.17797
0.713574
0.23906
0.0598298
0.179585
0.299747
0.420634
0.542477
0.665551
0.790122
0.916458
1.04482
1.17545
1.3086
1.44449
1.58333
1.72528
1.87047
2.019
2.17087
2.32602
2.48429
2.64539
2.80888
2.97415
3.1404
3.30658
3.47139
3.63327
3.79034
3.94042
4.08103
4.20937
4.32238
4.41678
4.48908
4.53573
4.55316
4.53791
4.48676
4.39686
4.26585
4.09202
3.8744
3.61292
3.30843
2.96279
2.57889
2.16061
1.71276
1.241
0.751858
0.25191
0.0610985
0.1834
0.306137
0.429646
0.55418
0.68003
0.807488
0.93684
1.06837
1.20235
1.33906
1.47873
1.6216
1.76786
1.91769
2.07118
2.22838
2.38925
2.55364
2.72128
2.89174
3.06441
3.23846
3.41283
3.58616
3.75684
3.92289
4.08204
4.23165
4.36879
4.49022
4.59242
4.67171
4.72429
4.74635
4.73419
4.68433
4.59371
4.45978
4.28066
4.05529
3.78352
3.46622
3.10535
2.70391
2.26599
1.7967
1.30203
0.788936
0.264357
0.0622704
0.186924
0.312041
0.437974
0.564996
0.693418
0.82355
0.955701
1.09017
1.22727
1.36728
1.51048
1.65711
1.80742
1.96158
2.11973
2.28194
2.4482
2.61836
2.79218
2.96924
3.14891
3.33037
3.51251
3.69397
3.87303
4.04766
4.21548
4.37373
4.51932
4.64883
4.75856
4.84461
4.90296
4.92954
4.92043
4.87193
4.78074
4.64413
4.46008
4.22741
3.94593
3.6165
3.24115
2.82303
2.36643
1.87672
1.36023
0.824291
0.276226
0.0633368
0.190131
0.317414
0.445555
0.574844
0.70561
0.838182
0.972888
1.11005
1.25
1.39304
1.53947
1.68957
1.8436
2.00175
2.16421
2.33105
2.50229
2.67781
2.85736
3.04055
3.22675
3.41511
3.60452
3.79356
3.98048
4.16316
4.33912
4.50548
4.65903
4.79617
4.91302
5.00548
5.06931
5.10023
5.09407
5.04693
4.95531
4.8163
4.62772
4.3883
4.09779
3.75706
3.36821
2.93451
2.46045
1.95164
1.41471
0.857396
0.287342
0.0642896
0.192997
0.322215
0.45233
0.583646
0.71651
0.851267
0.988264
1.12785
1.27035
1.41612
1.56546
1.71868
1.87606
2.03783
2.20418
2.37522
2.55097
2.73135
2.91613
3.1049
3.29704
3.49171
3.68776
3.88375
4.07786
4.26792
4.45136
4.62519
4.78607
4.93024
5.05367
5.15207
5.22099
5.25595
5.25258
5.20677
5.11483
4.97369
4.78103
4.53549
4.23677
3.88574
3.48455
3.03661
2.54657
2.02027
1.46463
0.887731
0.297529
0.0651215
0.195499
0.326407
0.458245
0.591332
0.726029
0.862698
1.0017
1.1434
1.28815
1.4363
1.5882
1.74417
1.9045
2.06946
2.23924
2.41399
2.59374
2.77843
2.96783
3.16155
3.35898
3.55926
3.76123
3.9634
4.16393
4.36059
4.55071
4.73123
4.89867
5.04916
5.1785
5.28224
5.35576
5.39438
5.39356
5.349
5.25684
5.11385
4.91761
4.66666
4.36065
4.00047
3.58831
3.12767
2.62339
2.0815
1.50917
0.914798
0.30662
0.0658259
0.197618
0.329956
0.463252
0.597839
0.734089
0.872378
1.01308
1.15657
1.30323
1.45342
1.6075
1.76581
1.92866
2.09633
2.26905
2.44696
2.63014
2.81851
3.01188
3.20986
3.41183
3.61693
3.82399
4.03149
4.23756
4.4399
4.6358
4.8221
4.99522
5.15118
5.28565
5.39403
5.47155
5.51338
5.51479
5.47134
5.37903
5.2345
5.03521
4.77962
4.46737
4.09932
3.67772
3.20617
2.68961
2.13428
1.54757
0.938138
0.31446
0.0663975
0.199337
0.332834
0.467312
0.603113
0.740623
0.880226
1.02231
1.16726
1.31547
1.46731
1.62316
1.78338
1.94828
2.11817
2.29328
2.47379
2.65976
2.85115
3.04778
3.24924
3.45493
3.66399
3.87523
4.08712
4.29774
4.50476
4.70542
4.89648
5.07429
5.23476
5.37348
5.4857
5.56653
5.61102
5.6143
5.5718
5.4794
5.33362
5.13184
4.87248
4.5551
4.1806
3.75125
3.27072
2.74408
2.1777
1.57916
0.957341
0.320912
0.0668319
0.200644
0.33502
0.47039
0.60711
0.745574
0.886173
1.0293
1.17536
1.32475
1.47785
1.63504
1.79671
1.96317
2.13475
2.31169
2.49417
2.68228
2.87598
3.07508
3.27921
3.48775
3.69984
3.91428
4.12952
4.34363
4.55425
4.75855
4.95327
5.13468
5.29863
5.4406
5.55578
5.63917
5.68571
5.69044
5.64869
5.55623
5.40951
5.20584
4.94359
4.6223
4.24287
3.80758
3.32018
2.78582
2.21098
1.60337
0.972063
0.325861
0.0671235
0.201528
0.336497
0.472459
0.609796
0.748899
0.890168
1.034
1.18081
1.33098
1.48493
1.64303
1.80567
1.97319
2.1459
2.32407
2.50789
2.69744
2.89269
3.09347
3.2994
3.50987
3.724
3.94061
4.15812
4.3746
4.58765
4.79442
4.99162
5.17547
5.34177
5.48596
5.60314
5.68827
5.73621
5.74193
5.70068
5.60819
5.46084
5.25591
4.99171
4.66778
4.285
3.84571
3.35366
2.81407
2.2335
1.61976
0.982044
0.329223
0.0672568
0.201956
0.337234
0.473498
0.611144
0.750569
0.892174
1.03636
1.18354
1.33411
1.48848
1.64704
1.81017
1.97822
2.15151
2.3303
2.51478
2.70506
2.9011
3.10272
3.30956
3.521
3.73617
3.95386
4.17253
4.3902
4.60448
4.8125
5.01095
5.19604
5.36353
5.50884
5.62704
5.71305
5.7617
5.76793
5.72694
5.63444
5.48678
5.28121
5.01602
4.69076
4.30631
3.86499
3.37059
2.82837
2.2449
1.62807
0.987143
0.33096
)
;

boundaryField
{
    walls
    {
        type            calculated;
        value           nonuniform List<scalar> 
200
(
0.0672568
0.201956
0.337234
0.473498
0.611144
0.750569
0.892174
1.03636
1.18354
1.33411
1.48848
1.64704
1.81017
1.97822
2.15151
2.3303
2.51478
2.70506
2.9011
3.10272
3.30956
3.521
3.73617
3.95386
4.17253
4.3902
4.60448
4.8125
5.01095
5.19604
5.36353
5.50884
5.62704
5.71305
5.7617
5.76793
5.72694
5.63444
5.48678
5.28121
5.01602
4.69076
4.30631
3.86499
3.37059
2.82837
2.2449
1.62807
0.987143
0.33096
0
0
0
0
0
0
0
0
0
0
0
0
0
0
0
0
0
0
0
0
0
0
0
0
0
0
0
0
0
0
0
0
0
0
0
0
0
0
0
0
0
0
0
0
0
0
0
0
0
0
0
0
0
0
0
0
0
0
0
0
0
0
0
0
0
0
0
0
0
0
0
0
0
0
0
0
0
0
0
0
0
0
0
0
0
0
0
0
0
0
0
0
0
0
0
0
0
0
0
0
0.0150645
0.0451274
0.0750802
0.104879
0.134422
0.163634
0.192439
0.220761
0.24852
0.275635
0.302023
0.327599
0.352277
0.375968
0.398581
0.420024
0.440205
0.459028
0.476399
0.492224
0.506409
0.51886
0.529489
0.538206
0.54493
0.549581
0.552087
0.552382
0.55041
0.546123
0.539483
0.530464
0.519053
0.50525
0.489071
0.470545
0.449719
0.426654
0.40143
0.374142
0.344903
0.313842
0.281101
0.24684
0.21123
0.174457
0.136714
0.0982048
0.0591405
0.0197483
)
;
    }
    frontAndBack
    {
        type            empty;
    }
}


// ************************************************************************* //
