/*--------------------------------*- C++ -*----------------------------------*\
| =========                 |                                                 |
| \\      /  F ield         | OpenFOAM: The Open Source CFD Toolbox           |
|  \\    /   O peration     | Version:  2406                                  |
|   \\  /    A nd           | Website:  www.openfoam.com                      |
|    \\/     M anipulation  |                                                 |
\*---------------------------------------------------------------------------*/
FoamFile
{
    version     2.0;
    format      ascii;
    arch        "LSB;label=32;scalar=64";
    class       volScalarField;
    location    "2.4";
    object      T;
}
// * * * * * * * * * * * * * * * * * * * * * * * * * * * * * * * * * * * * * //

dimensions      [0 0 0 1 0 0 0];

internalField   nonuniform List<scalar> 
2500
(
0.413662
0.414264
0.415467
0.417267
0.419662
0.422644
0.426207
0.430342
0.435038
0.440283
0.446063
0.452364
0.459167
0.466455
0.474206
0.482398
0.491007
0.500006
0.509368
0.519062
0.529057
0.539318
0.549811
0.560498
0.571339
0.582295
0.593323
0.604379
0.615418
0.626395
0.637263
0.647974
0.658481
0.668736
0.678691
0.688299
0.697513
0.706288
0.714579
0.722345
0.729545
0.736141
0.742099
0.747385
0.751972
0.755835
0.758951
0.761303
0.762879
0.763669
0.414264
0.414869
0.416078
0.417887
0.420292
0.423289
0.426869
0.431023
0.435741
0.441012
0.44682
0.453152
0.459989
0.467313
0.475103
0.483337
0.491991
0.501037
0.510449
0.520195
0.530244
0.540563
0.551114
0.561862
0.572766
0.583786
0.594879
0.606001
0.617108
0.628153
0.639089
0.649868
0.660443
0.670765
0.680786
0.690458
0.699735
0.70857
0.716918
0.724738
0.731989
0.738632
0.744632
0.749957
0.754577
0.758468
0.761607
0.763976
0.765564
0.766359
0.415467
0.416078
0.417297
0.419123
0.421551
0.424576
0.428189
0.432383
0.437146
0.442467
0.448332
0.454726
0.46163
0.469027
0.476896
0.485214
0.493957
0.503098
0.512609
0.522459
0.532618
0.54305
0.553719
0.564588
0.575617
0.586765
0.59799
0.609245
0.620487
0.631668
0.642741
0.653658
0.664368
0.674825
0.684978
0.694779
0.70418
0.713136
0.7216
0.729529
0.736881
0.743618
0.749704
0.755105
0.759792
0.763739
0.766924
0.769329
0.77094
0.771747
0.417267
0.417887
0.419123
0.420974
0.423436
0.426503
0.430167
0.43442
0.439251
0.444648
0.450597
0.457084
0.464089
0.471596
0.479583
0.488027
0.496903
0.506186
0.515847
0.525854
0.536177
0.546779
0.557626
0.568678
0.579896
0.591237
0.602658
0.614115
0.62556
0.636946
0.648225
0.659348
0.670263
0.680922
0.691274
0.70127
0.71086
0.719998
0.728635
0.736728
0.744235
0.751114
0.757329
0.762846
0.767633
0.771666
0.77492
0.777377
0.779024
0.779848
0.419662
0.420292
0.421551
0.423436
0.425943
0.429066
0.432798
0.43713
0.442051
0.447549
0.453611
0.460222
0.467363
0.475016
0.48316
0.491772
0.500828
0.5103
0.52016
0.530378
0.540919
0.55175
0.562834
0.574131
0.585601
0.597201
0.608887
0.620612
0.63233
0.643991
0.655547
0.666945
0.678136
0.689066
0.699686
0.709943
0.719787
0.729169
0.73804
0.746354
0.754067
0.761137
0.767526
0.773198
0.778122
0.782269
0.785617
0.788144
0.789838
0.790687
0.422644
0.423289
0.424576
0.426503
0.429066
0.43226
0.436076
0.440506
0.44554
0.451166
0.457369
0.464134
0.471445
0.479281
0.487622
0.496445
0.505725
0.515435
0.525546
0.536027
0.546844
0.557961
0.569342
0.580947
0.592734
0.604659
0.616677
0.628741
0.640802
0.65281
0.664713
0.676459
0.687996
0.69927
0.710227
0.720814
0.730978
0.740668
0.749834
0.758427
0.766402
0.773714
0.780323
0.786191
0.791287
0.795579
0.799044
0.801662
0.803415
0.804294
0.426207
0.426869
0.428189
0.430167
0.432798
0.436076
0.439994
0.444543
0.449712
0.45549
0.461863
0.468815
0.476329
0.484385
0.492964
0.502041
0.511591
0.521587
0.532
0.542797
0.553945
0.565409
0.577149
0.589125
0.601294
0.613612
0.626032
0.638505
0.650981
0.663408
0.675733
0.687901
0.699858
0.711547
0.722913
0.7339
0.744454
0.754519
0.764043
0.772976
0.781268
0.788874
0.795751
0.801859
0.807163
0.811633
0.815241
0.817967
0.819794
0.82071
0.430342
0.431023
0.432383
0.43442
0.43713
0.440506
0.444543
0.44923
0.454557
0.460514
0.467084
0.474254
0.482006
0.490321
0.499177
0.50855
0.518417
0.528748
0.539514
0.550683
0.562221
0.57409
0.586251
0.598663
0.611282
0.624062
0.636954
0.649909
0.662874
0.675795
0.688617
0.701283
0.713735
0.725916
0.737765
0.749226
0.76024
0.770749
0.780697
0.790032
0.798701
0.806656
0.81385
0.820242
0.825795
0.830474
0.834253
0.837109
0.839022
0.839981
0.435038
0.435741
0.437146
0.439251
0.442051
0.44554
0.449712
0.454557
0.460066
0.466226
0.473024
0.480444
0.488468
0.497078
0.506252
0.515966
0.526195
0.536911
0.548083
0.559679
0.571664
0.584
0.596646
0.60956
0.622697
0.63601
0.649448
0.662959
0.676488
0.68998
0.703377
0.716619
0.729646
0.742395
0.754806
0.766816
0.778364
0.789389
0.799832
0.809634
0.818742
0.827102
0.834666
0.841389
0.847231
0.852156
0.856134
0.85914
0.861154
0.862164
0.440283
0.441012
0.442467
0.444648
0.447549
0.451166
0.45549
0.460514
0.466226
0.472616
0.479669
0.48737
0.495702
0.504645
0.514178
0.524277
0.534916
0.546067
0.557698
0.569777
0.582269
0.595133
0.608329
0.621813
0.635539
0.649456
0.663514
0.677658
0.691831
0.705974
0.720026
0.733926
0.747608
0.761009
0.774061
0.786701
0.798861
0.810477
0.821485
0.831825
0.841436
0.850263
0.858252
0.865356
0.871531
0.876737
0.880944
0.884123
0.886254
0.887323
0.446063
0.44682
0.448332
0.450597
0.453611
0.457369
0.461863
0.467084
0.473024
0.479669
0.487007
0.495022
0.503696
0.51301
0.522943
0.533471
0.544567
0.556203
0.568348
0.580968
0.594026
0.607482
0.621294
0.635418
0.649803
0.664401
0.679156
0.694011
0.708909
0.723785
0.738578
0.75322
0.767643
0.78178
0.795559
0.808911
0.821765
0.834052
0.845703
0.856652
0.866836
0.876193
0.884666
0.892203
0.898757
0.904285
0.908753
0.912129
0.914394
0.915529
0.452364
0.453152
0.454726
0.457084
0.460222
0.464134
0.468815
0.474254
0.480444
0.48737
0.495022
0.503382
0.512433
0.522157
0.532532
0.543534
0.555135
0.567309
0.580022
0.59324
0.606926
0.621038
0.635535
0.650368
0.665488
0.680843
0.696374
0.712024
0.727729
0.743426
0.759045
0.774518
0.789772
0.804734
0.819329
0.833481
0.847115
0.860157
0.872532
0.884169
0.894998
0.904954
0.913974
0.922001
0.928983
0.934874
0.939636
0.943237
0.945651
0.946862
0.459167
0.459989
0.46163
0.464089
0.467363
0.471445
0.476329
0.482006
0.488468
0.495702
0.503696
0.512433
0.521898
0.53207
0.542928
0.554449
0.566605
0.579367
0.592704
0.60658
0.620956
0.635792
0.651042
0.666658
0.682589
0.698779
0.715169
0.731698
0.748299
0.764905
0.781443
0.79784
0.814018
0.829899
0.845402
0.860448
0.874954
0.88884
0.902025
0.914432
0.925985
0.936612
0.946245
0.954822
0.962285
0.968585
0.973679
0.977531
0.980115
0.98141
0.466455
0.467313
0.469027
0.471596
0.475016
0.479281
0.484385
0.490321
0.497078
0.504645
0.51301
0.522157
0.53207
0.542729
0.554113
0.566198
0.578958
0.592362
0.606379
0.620972
0.636103
0.651729
0.667803
0.684278
0.701097
0.718205
0.735539
0.753035
0.770623
0.788232
0.805784
0.823202
0.840402
0.857301
0.873813
0.889851
0.905326
0.92015
0.934237
0.947502
0.959862
0.971238
0.981556
0.990748
0.99875
1.00551
1.01097
1.01511
1.01788
1.01927
0.474206
0.475103
0.476896
0.479583
0.48316
0.487622
0.492964
0.499177
0.506252
0.514178
0.522943
0.532532
0.542928
0.554113
0.566066
0.578761
0.592173
0.606273
0.621026
0.636398
0.652348
0.668834
0.685806
0.703215
0.721004
0.739114
0.757481
0.776035
0.794705
0.813414
0.832081
0.850621
0.868948
0.88697
0.904595
0.921728
0.938275
0.954139
0.969226
0.983443
0.996699
1.00891
1.01999
1.02986
1.03847
1.04573
1.05161
1.05606
1.05904
1.06054
0.482398
0.483337
0.485214
0.488027
0.491772
0.496445
0.502041
0.50855
0.515966
0.524277
0.533471
0.543534
0.554449
0.566198
0.578761
0.592113
0.606228
0.621077
0.636625
0.652838
0.669673
0.687088
0.705033
0.723455
0.742297
0.761497
0.780987
0.800695
0.820545
0.840456
0.860342
0.880113
0.899675
0.91893
0.937779
0.95612
0.973848
0.99086
1.00705
1.02232
1.03657
1.0497
1.06163
1.07226
1.08153
1.08936
1.0957
1.1005
1.10371
1.10533
0.491007
0.491991
0.493957
0.496903
0.500828
0.505725
0.511591
0.518417
0.526195
0.534916
0.544567
0.555135
0.566605
0.578958
0.592173
0.606228
0.621096
0.636748
0.65315
0.670266
0.688054
0.70647
0.725464
0.74498
0.76496
0.785339
0.806047
0.827008
0.848142
0.869362
0.890577
0.911691
0.932603
0.953208
0.973399
0.993064
1.01209
1.03036
1.04777
1.0642
1.07955
1.0937
1.10656
1.11803
1.12804
1.13649
1.14334
1.14853
1.15201
1.15375
0.500006
0.501037
0.503098
0.506186
0.5103
0.515435
0.521587
0.528748
0.536911
0.546067
0.556203
0.567309
0.579367
0.592362
0.606273
0.621077
0.636748
0.653257
0.670572
0.688654
0.707463
0.726953
0.747073
0.767767
0.788974
0.810625
0.832648
0.854964
0.877488
0.900128
0.922787
0.945363
0.967746
0.989825
1.01148
1.0326
1.05304
1.0727
1.09145
1.10916
1.1257
1.14098
1.15487
1.16727
1.17809
1.18724
1.19465
1.20026
1.20403
1.20592
0.509368
0.510449
0.512609
0.515847
0.52016
0.525546
0.532
0.539514
0.548083
0.557698
0.568348
0.580022
0.592704
0.606379
0.621026
0.636625
0.65315
0.670572
0.688858
0.707971
0.72787
0.748508
0.769834
0.79179
0.814312
0.837331
0.860771
0.884548
0.908573
0.932749
0.956973
0.981134
1.00512
1.0288
1.05205
1.07475
1.09675
1.11793
1.13814
1.15724
1.17512
1.19163
1.20665
1.22007
1.23178
1.2417
1.24973
1.25582
1.2599
1.26195
0.519062
0.520195
0.522459
0.525854
0.530378
0.536027
0.542797
0.550683
0.559679
0.569777
0.580968
0.59324
0.60658
0.620972
0.636398
0.652838
0.670266
0.688654
0.707971
0.728179
0.749237
0.771099
0.793711
0.817014
0.840945
0.86543
0.89039
0.915738
0.94138
0.967212
0.993126
1.019
1.04472
1.07014
1.09513
1.11955
1.14325
1.16608
1.18789
1.20853
1.22785
1.24571
1.26198
1.27652
1.28922
1.29998
1.3087
1.3153
1.31974
1.32196
0.529057
0.530244
0.532618
0.536177
0.540919
0.546844
0.553945
0.562221
0.571664
0.582269
0.594026
0.606926
0.620956
0.636103
0.652348
0.669673
0.688054
0.707463
0.72787
0.749237
0.771524
0.794684
0.818664
0.843403
0.868836
0.894887
0.921474
0.948506
0.975883
1.0035
1.03123
1.05896
1.08655
1.11386
1.14073
1.16702
1.19256
1.21719
1.24075
1.26306
1.28397
1.30331
1.32094
1.33672
1.3505
1.36217
1.37164
1.37882
1.38364
1.38606
0.539318
0.540563
0.54305
0.546779
0.55175
0.557961
0.565409
0.57409
0.584
0.595133
0.607482
0.621038
0.635792
0.651729
0.668834
0.687088
0.70647
0.726953
0.748508
0.771099
0.794684
0.819218
0.844647
0.870911
0.89794
0.925659
0.953982
0.982814
1.01205
1.04157
1.07127
1.10099
1.13059
1.15994
1.18885
1.21716
1.2447
1.27129
1.29675
1.32088
1.34352
1.36448
1.3836
1.40072
1.41569
1.42837
1.43867
1.44647
1.45171
1.45435
0.549811
0.551114
0.553719
0.557626
0.562834
0.569342
0.577149
0.586251
0.596646
0.608329
0.621294
0.635535
0.651042
0.667803
0.685806
0.705033
0.725464
0.747073
0.769834
0.793711
0.818664
0.844647
0.871608
0.899484
0.928207
0.957697
0.987867
1.01862
1.04984
1.08141
1.11319
1.14505
1.17683
1.20836
1.23947
1.26998
1.29968
1.32839
1.35591
1.38203
1.40654
1.42927
1.45001
1.4686
1.48486
1.49865
1.50984
1.51833
1.52404
1.5269
0.560498
0.561862
0.564588
0.568678
0.574131
0.580947
0.589125
0.598663
0.60956
0.621813
0.635418
0.650368
0.666658
0.684278
0.703215
0.723455
0.74498
0.767767
0.79179
0.817014
0.843403
0.870911
0.899484
0.929062
0.959574
0.99094
1.02307
1.05586
1.08919
1.12294
1.15696
1.19111
1.22522
1.25911
1.29258
1.32544
1.35749
1.38849
1.41823
1.4465
1.47306
1.4977
1.52021
1.54039
1.55806
1.57305
1.58523
1.59446
1.60067
1.60379
0.571339
0.572766
0.575617
0.579896
0.585601
0.592734
0.601294
0.611282
0.622697
0.635539
0.649803
0.665488
0.682589
0.701097
0.721004
0.742297
0.76496
0.788974
0.814312
0.840945
0.868836
0.89794
0.928207
0.959574
0.991971
1.02532
1.05952
1.09446
1.13004
1.1661
1.20251
1.23911
1.2757
1.31211
1.34812
1.38352
1.41808
1.45155
1.4837
1.51429
1.54306
1.56977
1.59419
1.61611
1.63531
1.65161
1.66485
1.6749
1.68166
1.68506
0.582295
0.583786
0.586765
0.591237
0.597201
0.604659
0.613612
0.624062
0.63601
0.649456
0.664401
0.680843
0.698779
0.718205
0.739114
0.761497
0.785339
0.810625
0.837331
0.86543
0.894887
0.925659
0.957697
0.99094
1.02532
1.06074
1.09712
1.13435
1.1723
1.21082
1.24977
1.28896
1.32821
1.36731
1.40603
1.44414
1.4814
1.51753
1.55227
1.58535
1.61651
1.64546
1.67195
1.69574
1.71659
1.73431
1.74871
1.75964
1.767
1.77069
0.593323
0.594879
0.59799
0.602658
0.608887
0.616677
0.626032
0.636954
0.649448
0.663514
0.679156
0.696374
0.715169
0.735539
0.757481
0.780987
0.806047
0.832648
0.860771
0.89039
0.921474
0.953982
0.987867
1.02307
1.05952
1.09712
1.1358
1.17542
1.21587
1.25699
1.29862
1.34056
1.38263
1.42459
1.46621
1.50722
1.54736
1.58633
1.62385
1.65962
1.69333
1.72469
1.75341
1.77922
1.80186
1.82111
1.83676
1.84865
1.85664
1.86067
0.604379
0.606001
0.609245
0.614115
0.620612
0.628741
0.638505
0.649909
0.662959
0.677658
0.694011
0.712024
0.731698
0.753035
0.776035
0.800695
0.827008
0.854964
0.884548
0.915738
0.948506
0.982814
1.01862
1.05586
1.09446
1.13435
1.17542
1.21756
1.26064
1.30449
1.34894
1.3938
1.43885
1.48385
1.52853
1.57263
1.61584
1.65785
1.69833
1.73697
1.77342
1.80736
1.83848
1.86645
1.89102
1.91191
1.9289
1.94181
1.9505
1.95487
0.615418
0.617108
0.620487
0.62556
0.63233
0.640802
0.650981
0.662874
0.676488
0.691831
0.708909
0.727729
0.748299
0.770623
0.794705
0.820545
0.848142
0.877488
0.908573
0.94138
0.975883
1.01205
1.04984
1.08919
1.13004
1.1723
1.21587
1.26064
1.30646
1.35317
1.40059
1.44852
1.49671
1.54491
1.59284
1.64021
1.68667
1.7319
1.77554
1.81724
1.85661
1.89331
1.92698
1.95728
1.98389
2.00654
2.02498
2.03899
2.04842
2.05317
0.626395
0.628153
0.631668
0.636946
0.643991
0.65281
0.663408
0.675795
0.68998
0.705974
0.723785
0.743426
0.764905
0.788232
0.813414
0.840456
0.869362
0.900128
0.932749
0.967212
1.0035
1.04157
1.08141
1.12294
1.1661
1.21082
1.25699
1.30449
1.35317
1.40287
1.4534
1.50453
1.55602
1.60759
1.65895
1.70975
1.75966
1.80829
1.85528
1.90021
1.94269
1.98231
2.0187
2.05146
2.08027
2.10479
2.12476
2.13994
2.15017
2.15531
0.637263
0.639089
0.642741
0.648225
0.655547
0.664713
0.675733
0.688617
0.703377
0.720026
0.738578
0.759045
0.781443
0.805784
0.832081
0.860342
0.890577
0.922787
0.956973
0.993126
1.03123
1.07127
1.11319
1.15696
1.20251
1.24977
1.29862
1.34894
1.40059
1.4534
1.50716
1.56164
1.61657
1.67167
1.7266
1.78102
1.83454
1.88676
1.93726
1.98561
2.03136
2.07408
2.11334
2.14872
2.17984
2.20635
2.22795
2.24438
2.25544
2.26101
0.647974
0.649868
0.653658
0.659348
0.666945
0.676459
0.687901
0.701283
0.716619
0.733926
0.75322
0.774518
0.79784
0.823202
0.850621
0.880113
0.911691
0.945363
0.981134
1.019
1.05896
1.10099
1.14505
1.19111
1.23911
1.28896
1.34056
1.3938
1.44852
1.50453
1.56164
1.61958
1.67809
1.73686
1.79552
1.85371
1.91101
1.96698
2.02117
2.0731
2.1223
2.16827
2.21054
2.24867
2.28223
2.31084
2.33415
2.35189
2.36384
2.36985
0.658481
0.660443
0.664368
0.670263
0.678136
0.687996
0.699858
0.713735
0.729646
0.747608
0.767643
0.789772
0.814018
0.840402
0.868948
0.899675
0.932603
0.967746
1.00512
1.04472
1.08655
1.13059
1.17683
1.22522
1.2757
1.32821
1.38263
1.43885
1.49671
1.55602
1.61657
1.67809
1.7403
1.80286
1.86539
1.92749
1.98871
2.04859
2.10662
2.16228
2.21506
2.26443
2.30986
2.35087
2.38698
2.41778
2.44289
2.462
2.47488
2.48136
0.668736
0.670765
0.674825
0.680922
0.689066
0.69927
0.711547
0.725916
0.742395
0.761009
0.78178
0.804734
0.829899
0.857301
0.88697
0.91893
0.953208
0.989825
1.0288
1.07014
1.11386
1.15994
1.20836
1.25911
1.31211
1.36731
1.42459
1.48385
1.54491
1.60759
1.67167
1.73686
1.80286
1.86931
1.93582
2.00195
2.06723
2.13113
2.19313
2.25267
2.30916
2.36205
2.41076
2.45475
2.49352
2.5266
2.55358
2.57412
2.58797
2.59493
0.678691
0.680786
0.684978
0.691274
0.699686
0.710227
0.722913
0.737765
0.754806
0.774061
0.795559
0.819329
0.845402
0.873813
0.904595
0.937779
0.973399
1.01148
1.05205
1.09513
1.14073
1.18885
1.23947
1.29258
1.34812
1.40603
1.46621
1.52853
1.59284
1.65895
1.7266
1.79552
1.86539
1.93582
2.0064
2.07666
2.14608
2.21412
2.2802
2.34371
2.40403
2.46054
2.51263
2.55971
2.60121
2.63664
2.66555
2.68757
2.70241
2.70988
0.688299
0.690458
0.694779
0.70127
0.709943
0.720814
0.7339
0.749226
0.766816
0.786701
0.808911
0.833481
0.860448
0.889851
0.921728
0.95612
0.993064
1.0326
1.07475
1.11955
1.16702
1.21716
1.26998
1.32544
1.38352
1.44414
1.50722
1.57263
1.64021
1.70975
1.78102
1.85371
1.92749
2.00195
2.07666
2.15111
2.22475
2.297
2.36723
2.43479
2.49902
2.55923
2.61477
2.66499
2.7093
2.74713
2.77802
2.80155
2.81741
2.8254
0.697513
0.699735
0.70418
0.71086
0.719787
0.730978
0.744454
0.76024
0.778364
0.798861
0.821765
0.847115
0.874954
0.905326
0.938275
0.973848
1.01209
1.05304
1.09675
1.14325
1.19256
1.2447
1.29968
1.35749
1.41808
1.4814
1.54736
1.61584
1.68667
1.75966
1.83454
1.91101
1.98871
2.06723
2.14608
2.22475
2.30264
2.37914
2.45357
2.52523
2.5934
2.65736
2.71639
2.76981
2.81695
2.85723
2.89012
2.91518
2.93209
2.9406
0.706288
0.70857
0.713136
0.719998
0.729169
0.740668
0.754519
0.770749
0.789389
0.810477
0.834052
0.860157
0.88884
0.92015
0.954139
0.99086
1.03036
1.0727
1.11793
1.16608
1.21719
1.27129
1.32839
1.38849
1.45155
1.51753
1.58633
1.65785
1.7319
1.80829
1.88676
1.96698
2.04859
2.13113
2.21412
2.297
2.37914
2.45988
2.5385
2.61426
2.68639
2.75411
2.81665
2.87326
2.92326
2.96599
3.00089
3.0275
3.04544
3.05448
0.714579
0.716918
0.7216
0.728635
0.73804
0.749834
0.764043
0.780697
0.799832
0.821485
0.845703
0.872532
0.902025
0.934237
0.969226
1.00705
1.04777
1.09145
1.13814
1.18789
1.24075
1.29675
1.35591
1.41823
1.4837
1.55227
1.62385
1.69833
1.77554
1.85528
1.93726
2.02117
2.10662
2.19313
2.2802
2.36723
2.45357
2.5385
2.62128
2.7011
2.77715
2.84859
2.91461
2.9744
3.02723
3.07239
3.1093
3.13743
3.15641
3.16598
0.722345
0.724738
0.729529
0.736728
0.746354
0.758427
0.772976
0.790032
0.809634
0.831825
0.856652
0.884169
0.914432
0.947502
0.983443
1.02232
1.0642
1.10916
1.15724
1.20853
1.26306
1.32088
1.38203
1.4465
1.51429
1.58535
1.65962
1.73697
1.81724
1.90021
1.98561
2.0731
2.16228
2.25267
2.34371
2.43479
2.52523
2.61426
2.7011
2.7849
2.86478
2.93987
3.0093
3.07221
3.12781
3.17537
3.21424
3.24388
3.26388
3.27395
0.729545
0.731989
0.736881
0.744235
0.754067
0.766402
0.781268
0.798701
0.818742
0.841436
0.866836
0.894998
0.925985
0.959862
0.996699
1.03657
1.07955
1.1257
1.17512
1.22785
1.28397
1.34352
1.40654
1.47306
1.54306
1.61651
1.69333
1.77342
1.85661
1.94269
2.03136
2.1223
2.21506
2.30916
2.40403
2.49902
2.5934
2.68639
2.77715
2.86478
2.94838
3.02699
3.09972
3.16564
3.22393
3.2738
3.31457
3.34567
3.36665
3.37722
0.736141
0.738632
0.743618
0.751114
0.761137
0.773714
0.788874
0.806656
0.827102
0.850263
0.876193
0.904954
0.936612
0.971238
1.00891
1.0497
1.0937
1.14098
1.19163
1.24571
1.30331
1.36448
1.42927
1.4977
1.56977
1.64546
1.72469
1.80736
1.89331
1.98231
2.07408
2.16827
2.26443
2.36205
2.46054
2.55923
2.65736
2.75411
2.84859
2.93987
3.02699
3.10897
3.18483
3.25363
3.31448
3.36655
3.40913
3.44162
3.46354
3.47459
0.742099
0.744632
0.749704
0.757329
0.767526
0.780323
0.795751
0.81385
0.834666
0.858252
0.884666
0.913974
0.946245
0.981556
1.01999
1.06163
1.10656
1.15487
1.20665
1.26198
1.32094
1.3836
1.45001
1.52021
1.59419
1.67195
1.75341
1.83848
1.92698
2.0187
2.11334
2.21054
2.30986
2.41076
2.51263
2.61477
2.71639
2.81665
2.91461
3.0093
3.09972
3.18483
3.26363
3.33511
3.39836
3.45249
3.49677
3.53056
3.55336
3.56486
0.747385
0.749957
0.755105
0.762846
0.773198
0.786191
0.801859
0.820242
0.841389
0.865356
0.892203
0.922001
0.954822
0.990748
1.02986
1.07226
1.11803
1.16727
1.22007
1.27652
1.33672
1.40072
1.4686
1.54039
1.61611
1.69574
1.77922
1.86645
1.95728
2.05146
2.14872
2.24867
2.35087
2.45475
2.55971
2.66499
2.76981
2.87326
2.9744
3.07221
3.16564
3.25363
3.33511
3.40906
3.4745
3.53053
3.57636
3.61134
3.63494
3.64685
0.751972
0.754577
0.759792
0.767633
0.778122
0.791287
0.807163
0.825795
0.847231
0.871531
0.898757
0.928983
0.962285
0.99875
1.03847
1.08153
1.12804
1.17809
1.23178
1.28922
1.3505
1.41569
1.48486
1.55806
1.63531
1.71659
1.80186
1.89102
1.98389
2.08027
2.17984
2.28223
2.38698
2.49352
2.60121
2.7093
2.81695
2.92326
3.02723
3.12781
3.22393
3.31448
3.39836
3.4745
3.54189
3.5996
3.64682
3.68286
3.70719
3.71945
0.755835
0.758468
0.763739
0.771666
0.782269
0.795579
0.811633
0.830474
0.852156
0.876737
0.904285
0.934874
0.968585
1.00551
1.04573
1.08936
1.13649
1.18724
1.2417
1.29998
1.36217
1.42837
1.49865
1.57305
1.65161
1.73431
1.82111
1.91191
2.00654
2.10479
2.20635
2.31084
2.41778
2.5266
2.63664
2.74713
2.85723
2.96599
3.07239
3.17537
3.2738
3.36655
3.45249
3.53053
3.5996
3.65877
3.70719
3.74414
3.76909
3.78167
0.758951
0.761607
0.766924
0.77492
0.785617
0.799044
0.815241
0.834253
0.856134
0.880944
0.908753
0.939636
0.973679
1.01097
1.05161
1.0957
1.14334
1.19465
1.24973
1.3087
1.37164
1.43867
1.50984
1.58523
1.66485
1.74871
1.83676
1.9289
2.02498
2.12476
2.22795
2.33415
2.44289
2.55358
2.66555
2.77802
2.89012
3.00089
3.1093
3.21424
3.31457
3.40913
3.49677
3.57636
3.64682
3.70719
3.75659
3.7943
3.81975
3.83259
0.761303
0.763976
0.769329
0.777377
0.788144
0.801662
0.817967
0.837109
0.85914
0.884123
0.912129
0.943237
0.977531
1.01511
1.05606
1.1005
1.14853
1.20026
1.25582
1.3153
1.37882
1.44647
1.51833
1.59446
1.6749
1.75964
1.84865
1.94181
2.03899
2.13994
2.24438
2.35189
2.462
2.57412
2.68757
2.80155
2.91518
3.0275
3.13743
3.24388
3.34567
3.44162
3.53056
3.61134
3.68286
3.74414
3.7943
3.83258
3.85843
3.87146
0.762879
0.765564
0.77094
0.779024
0.789838
0.803415
0.819794
0.839022
0.861154
0.886254
0.914394
0.945651
0.980115
1.01788
1.05904
1.10371
1.15201
1.20403
1.2599
1.31974
1.38364
1.45171
1.52404
1.60067
1.68166
1.767
1.85664
1.9505
2.04842
2.15017
2.25544
2.36384
2.47488
2.58797
2.70241
2.81741
2.93209
3.04544
3.15641
3.26388
3.36665
3.46354
3.55336
3.63494
3.70719
3.76909
3.81975
3.85843
3.88454
3.89771
0.763669
0.766359
0.771747
0.779848
0.790687
0.804294
0.82071
0.839981
0.862164
0.887323
0.915529
0.946862
0.98141
1.01927
1.06054
1.10533
1.15375
1.20592
1.26195
1.32196
1.38606
1.45435
1.5269
1.60379
1.68506
1.77069
1.86067
1.95487
2.05317
2.15531
2.26101
2.36985
2.48136
2.59493
2.70988
2.8254
2.9406
3.05448
3.16598
3.27395
3.37722
3.47459
3.56486
3.64685
3.71945
3.78167
3.83259
3.87146
3.89771
3.91095
)
;

boundaryField
{
    walls
    {
        type            zeroGradient;
    }
    frontAndBack
    {
        type            empty;
    }
}


// ************************************************************************* //
