/*--------------------------------*- C++ -*----------------------------------*\
| =========                 |                                                 |
| \\      /  F ield         | OpenFOAM: The Open Source CFD Toolbox           |
|  \\    /   O peration     | Version:  2406                                  |
|   \\  /    A nd           | Website:  www.openfoam.com                      |
|    \\/     M anipulation  |                                                 |
\*---------------------------------------------------------------------------*/
FoamFile
{
    version     2.0;
    format      ascii;
    arch        "LSB;label=32;scalar=64";
    class       volVectorField;
    location    "1.25";
    object      flux;
}
// * * * * * * * * * * * * * * * * * * * * * * * * * * * * * * * * * * * * * //

dimensions      [0 1 -1 1 0 0 0];

internalField   nonuniform List<vector> 
2500
(
(0.000356605 0.000356605 0)
(0.00106825 0.000359914 0)
(0.00177744 0.000366634 0)
(0.00248332 0.000376729 0)
(0.00318361 0.000390243 0)
(0.00387674 0.000407226 0)
(0.00456114 0.000427739 0)
(0.00523521 0.00045185 0)
(0.00589737 0.000479637 0)
(0.00654602 0.00051118 0)
(0.00717954 0.000546565 0)
(0.00779629 0.000585879 0)
(0.0083946 0.000629209 0)
(0.00897274 0.000676635 0)
(0.00952893 0.000728232 0)
(0.0100613 0.000784066 0)
(0.010568 0.000844186 0)
(0.011047 0.000908627 0)
(0.0114961 0.000977399 0)
(0.0119132 0.00105049 0)
(0.012296 0.00112786 0)
(0.012642 0.00120942 0)
(0.0129488 0.00129508 0)
(0.0132139 0.00138467 0)
(0.0134346 0.00147801 0)
(0.0136083 0.00157484 0)
(0.0137322 0.00167487 0)
(0.0138039 0.00177777 0)
(0.0138207 0.00188313 0)
(0.0137803 0.00199051 0)
(0.0136803 0.00209941 0)
(0.0135188 0.00220927 0)
(0.0132941 0.00231949 0)
(0.0130048 0.00242943 0)
(0.0126499 0.00253839 0)
(0.012229 0.00264567 0)
(0.0117421 0.00275051 0)
(0.0111897 0.00285215 0)
(0.0105732 0.0029498 0)
(0.00989424 0.0030427 0)
(0.00915544 0.00313007 0)
(0.00835993 0.00321117 0)
(0.00751154 0.00328529 0)
(0.0066147 0.00335178 0)
(0.00567447 0.00341001 0)
(0.00469643 0.00345946 0)
(0.00368663 0.00349967 0)
(0.00265151 0.00353027 0)
(0.00159794 0.00355081 0)
(0.000533716 0.00356025 0)
(0.000359914 0.00106825 0)
(0.00107828 0.00107828 0)
(0.00179425 0.00109844 0)
(0.00250692 0.00112874 0)
(0.00321411 0.00116932 0)
(0.00391424 0.00122032 0)
(0.00460576 0.00128192 0)
(0.00528711 0.00135434 0)
(0.0059567 0.00143779 0)
(0.00661294 0.00153253 0)
(0.00725424 0.00163882 0)
(0.00787894 0.00175691 0)
(0.00848535 0.00188708 0)
(0.00907176 0.00202956 0)
(0.00963636 0.00218458 0)
(0.0101773 0.00235235 0)
(0.0106926 0.002533 0)
(0.0111802 0.00272666 0)
(0.0116379 0.00293335 0)
(0.0120636 0.00315303 0)
(0.0124549 0.0033856 0)
(0.0128092 0.00363081 0)
(0.0131241 0.00388834 0)
(0.0133968 0.00415773 0)
(0.0136248 0.00443839 0)
(0.0138051 0.0047296 0)
(0.0139352 0.00503048 0)
(0.0140122 0.00534 0)
(0.0140335 0.00565697 0)
(0.0139965 0.00598004 0)
(0.0138991 0.00630771 0)
(0.0137389 0.00663831 0)
(0.0135143 0.00697004 0)
(0.0132237 0.00730094 0)
(0.0128662 0.00762896 0)
(0.0124411 0.00795193 0)
(0.0119486 0.00826758 0)
(0.011389 0.00857362 0)
(0.0107637 0.00886769 0)
(0.0100745 0.00914745 0)
(0.00932392 0.0094106 0)
(0.00851516 0.00965489 0)
(0.00765214 0.00987818 0)
(0.00673942 0.0100784 0)
(0.00578215 0.0102539 0)
(0.00478609 0.0104028 0)
(0.00375744 0.010524 0)
(0.00270266 0.0106162 0)
(0.00162793 0.0106786 0)
(0.000543156 0.0107088 0)
(0.000366634 0.00177744 0)
(0.00109844 0.00179425 0)
(0.0018279 0.0018279 0)
(0.0025542 0.00187852 0)
(0.00327519 0.00194632 0)
(0.00398935 0.00203153 0)
(0.00469515 0.00213448 0)
(0.00539107 0.00225549 0)
(0.00607556 0.00239497 0)
(0.00674704 0.00255333 0)
(0.00740392 0.002731 0)
(0.00804455 0.00292844 0)
(0.00866724 0.00314608 0)
(0.00927024 0.00338434 0)
(0.00985171 0.00364361 0)
(0.0104097 0.00392423 0)
(0.0109423 0.00422646 0)
(0.0114473 0.00455049 0)
(0.0119225 0.00489638 0)
(0.0123654 0.00526408 0)
(0.0127737 0.0056534 0)
(0.0131447 0.00606397 0)
(0.0134758 0.00649525 0)
(0.013764 0.00694647 0)
(0.0140065 0.00741667 0)
(0.0142004 0.00790463 0)
(0.0143426 0.00840889 0)
(0.0144304 0.00892774 0)
(0.0144608 0.00945919 0)
(0.014431 0.010001 0)
(0.0143386 0.0105506 0)
(0.0141812 0.0111052 0)
(0.0139568 0.0116618 0)
(0.0136637 0.0122172 0)
(0.0133009 0.0127678 0)
(0.0128676 0.0133101 0)
(0.0123638 0.0138401 0)
(0.0117898 0.0143542 0)
(0.011147 0.0148481 0)
(0.0104372 0.0153182 0)
(0.00966288 0.0157604 0)
(0.00882751 0.0161709 0)
(0.00793509 0.0165462 0)
(0.0069904 0.0168828 0)
(0.00599885 0.0171777 0)
(0.00496652 0.0174281 0)
(0.00389999 0.0176316 0)
(0.00280616 0.0177864 0)
(0.0016906 0.017891 0)
(0.000563952 0.0179433 0)
(0.000376729 0.00248332 0)
(0.00112874 0.00250692 0)
(0.00187852 0.0025542 0)
(0.00262534 0.00262534 0)
(0.00336712 0.00272063 0)
(0.0041024 0.00284042 0)
(0.00482972 0.00298513 0)
(0.0055476 0.00315528 0)
(0.00625453 0.0033514 0)
(0.00694898 0.0035741 0)
(0.00762935 0.003824 0)
(0.00829401 0.00410173 0)
(0.00894126 0.00440795 0)
(0.00956929 0.00474324 0)
(0.0101762 0.00510816 0)
(0.0107601 0.00550322 0)
(0.0113188 0.00592879 0)
(0.0118501 0.00638516 0)
(0.0123515 0.00687244 0)
(0.0128207 0.00739059 0)
(0.0132548 0.00793933 0)
(0.0136511 0.00851818 0)
(0.0140066 0.00912639 0)
(0.0143183 0.0097629 0)
(0.0145829 0.0104264 0)
(0.0147974 0.0111151 0)
(0.0149583 0.0118271 0)
(0.0150625 0.0125598 0)
(0.0151067 0.0133106 0)
(0.0150879 0.0140763 0)
(0.0150033 0.0148532 0)
(0.0148502 0.0156374 0)
(0.0146263 0.0164247 0)
(0.0143297 0.0172105 0)
(0.0139591 0.0179898 0)
(0.0135134 0.0187574 0)
(0.0129926 0.019508 0)
(0.012397 0.020236 0)
(0.0117278 0.0209358 0)
(0.0109867 0.0216019 0)
(0.0101766 0.0222287 0)
(0.009301 0.0228107 0)
(0.00836407 0.0233428 0)
(0.00737094 0.0238202 0)
(0.00632741 0.0242384 0)
(0.00523998 0.0245934 0)
(0.00411574 0.0248819 0)
(0.00296209 0.0251011 0)
(0.00178488 0.0252486 0)
(0.000595461 0.0253227 0)
(0.000390243 0.00318361 0)
(0.00116932 0.00321411 0)
(0.00194632 0.00327519 0)
(0.00272063 0.00336712 0)
(0.00349026 0.00349026 0)
(0.00425385 0.00364508 0)
(0.00501001 0.00383214 0)
(0.00575734 0.0040521 0)
(0.00649438 0.00430568 0)
(0.00721964 0.00459368 0)
(0.00793156 0.00491692 0)
(0.0086285 0.00527624 0)
(0.00930875 0.0056725 0)
(0.00997046 0.00610649 0)
(0.0106117 0.00657896 0)
(0.0112304 0.00709058 0)
(0.0118243 0.0076419 0)
(0.0123909 0.00823328 0)
(0.0129279 0.00886492 0)
(0.0134323 0.0095368 0)
(0.0139013 0.0102486 0)
(0.0143318 0.0109997 0)
(0.0147205 0.0117892 0)
(0.015064 0.0126158 0)
(0.0153587 0.0134777 0)
(0.0156011 0.0143727 0)
(0.0157874 0.0152983 0)
(0.015914 0.0162514 0)
(0.0159772 0.0172282 0)
(0.0159735 0.0182248 0)
(0.0158997 0.0192364 0)
(0.0157527 0.0202581 0)
(0.0155298 0.0212841 0)
(0.0152288 0.0223085 0)
(0.0148478 0.0233248 0)
(0.0143858 0.0243264 0)
(0.0138424 0.025306 0)
(0.0132177 0.0262565 0)
(0.0125129 0.0271706 0)
(0.01173 0.0280408 0)
(0.0108716 0.0288599 0)
(0.00994164 0.0296207 0)
(0.00894459 0.0303164 0)
(0.00788598 0.0309408 0)
(0.00677212 0.0314878 0)
(0.00561008 0.0319522 0)
(0.00440762 0.0323295 0)
(0.00317282 0.032616 0)
(0.00191222 0.0328087 0)
(0.000638042 0.0329056 0)
(0.000407226 0.00387674 0)
(0.00122032 0.00391424 0)
(0.00203153 0.00398935 0)
(0.00284042 0.0041024 0)
(0.00364508 0.00425385 0)
(0.00444428 0.00444428 0)
(0.00523674 0.0046744 0)
(0.00602114 0.00494504 0)
(0.00679612 0.00525712 0)
(0.00756021 0.00561162 0)
(0.00831191 0.00600961 0)
(0.00904959 0.00645213 0)
(0.0097715 0.00694028 0)
(0.0104758 0.00747508 0)
(0.0111603 0.0080575 0)
(0.0118231 0.00868839 0)
(0.0124615 0.00936847 0)
(0.0130731 0.0100983 0)
(0.0136551 0.0108781 0)
(0.0142043 0.0117078 0)
(0.0147177 0.0125873 0)
(0.0151917 0.0135158 0)
(0.0156226 0.0144922 0)
(0.0160067 0.0155148 0)
(0.0163399 0.0165817 0)
(0.016618 0.0176902 0)
(0.0168369 0.0188371 0)
(0.0169924 0.0200186 0)
(0.0170801 0.0212302 0)
(0.0170962 0.0224669 0)
(0.0170366 0.0237229 0)
(0.0168978 0.024992 0)
(0.0166767 0.0262671 0)
(0.0163704 0.0275409 0)
(0.0159769 0.0288052 0)
(0.0154946 0.0300517 0)
(0.0149228 0.0312715 0)
(0.0142616 0.0324556 0)
(0.013512 0.0335947 0)
(0.012676 0.0346797 0)
(0.0117565 0.0357012 0)
(0.0107576 0.0366504 0)
(0.00968414 0.0375187 0)
(0.00854225 0.038298 0)
(0.00733885 0.038981 0)
(0.00608176 0.039561 0)
(0.00477958 0.0400323 0)
(0.00344131 0.04039 0)
(0.00207442 0.0406307 0)
(0.000692282 0.0407516 0)
(0.000427739 0.00456114 0)
(0.00128192 0.00460576 0)
(0.00213448 0.00469515 0)
(0.00298513 0.00482972 0)
(0.00383214 0.00501001 0)
(0.0046744 0.00523674 0)
(0.00551077 0.00551077 0)
(0.00634005 0.00583312 0)
(0.00716096 0.00620491 0)
(0.00797213 0.00662736 0)
(0.00877207 0.00710176 0)
(0.00955918 0.00762942 0)
(0.0103317 0.00821167 0)
(0.0110877 0.0088498 0)
(0.011825 0.00954503 0)
(0.0125413 0.0102984 0)
(0.0132341 0.0111109 0)
(0.0139005 0.0119832 0)
(0.0145375 0.0129157 0)
(0.0151416 0.0139085 0)
(0.0157093 0.0149612 0)
(0.0162366 0.0160732 0)
(0.0167195 0.0172432 0)
(0.0171535 0.0184694 0)
(0.0175341 0.0197493 0)
(0.0178564 0.02108 0)
(0.0181157 0.0224575 0)
(0.018307 0.0238774 0)
(0.0184255 0.0253343 0)
(0.0184663 0.0268224 0)
(0.0184248 0.0283346 0)
(0.0182969 0.0298635 0)
(0.0180787 0.0314006 0)
(0.0177668 0.0329369 0)
(0.0173586 0.0344628 0)
(0.0168522 0.035968 0)
(0.0162463 0.0374417 0)
(0.015541 0.0388731 0)
(0.014737 0.0402508 0)
(0.0138364 0.0415636 0)
(0.0128424 0.0428002 0)
(0.0117591 0.0439498 0)
(0.0105922 0.0450018 0)
(0.00934831 0.0459463 0)
(0.00803509 0.0467742 0)
(0.00666132 0.0474775 0)
(0.00523666 0.048049 0)
(0.00377124 0.048483 0)
(0.00227375 0.0487748 0)
(0.000758934 0.0489215 0)
(0.00045185 0.00523521 0)
(0.00135434 0.00528711 0)
(0.00225549 0.00539107 0)
(0.00315528 0.0055476 0)
(0.0040521 0.00575734 0)
(0.00494504 0.00602114 0)
(0.00583312 0.00634005 0)
(0.00671528 0.00671528 0)
(0.00759035 0.00714818 0)
(0.00845706 0.0076402 0)
(0.00931397 0.00819292 0)
(0.0101595 0.00880792 0)
(0.0109919 0.00948682 0)
(0.0118091 0.0102312 0)
(0.012609 0.0110425 0)
(0.013389 0.0119222 0)
(0.0141463 0.0128713 0)
(0.0148779 0.0138908 0)
(0.0155803 0.0149813 0)
(0.0162499 0.0161429 0)
(0.0168825 0.0173755 0)
(0.0174737 0.0186782 0)
(0.0180188 0.0200498 0)
(0.0185128 0.0214881 0)
(0.0189504 0.0229905 0)
(0.0193261 0.0245535 0)
(0.0196343 0.0261726 0)
(0.0198692 0.0278428 0)
(0.0200252 0.0295578 0)
(0.0200964 0.0313105 0)
(0.0200777 0.0330931 0)
(0.0199638 0.0348964 0)
(0.0197501 0.0367109 0)
(0.0194326 0.0385256 0)
(0.0190079 0.0403292 0)
(0.0184736 0.0421095 0)
(0.017828 0.0438538 0)
(0.0170707 0.045549 0)
(0.0162025 0.0471817 0)
(0.0152254 0.0487382 0)
(0.0141427 0.0502052 0)
(0.0129591 0.0515696 0)
(0.0116806 0.0528187 0)
(0.0103147 0.0539407 0)
(0.00887007 0.0549246 0)
(0.00735654 0.0557605 0)
(0.00578504 0.05644 0)
(0.00416713 0.056956 0)
(0.00251293 0.0573032 0)
(0.000838916 0.0574775 0)
(0.000479637 0.00589737 0)
(0.00143779 0.0059567 0)
(0.00239497 0.00607556 0)
(0.0033514 0.00625453 0)
(0.00430568 0.00649438 0)
(0.00525712 0.00679612 0)
(0.00620491 0.00716096 0)
(0.00714818 0.00759035 0)
(0.00808589 0.00808589 0)
(0.00901687 0.0086493 0)
(0.00993979 0.00928245 0)
(0.0108531 0.00998724 0)
(0.011755 0.0107656 0)
(0.0126434 0.0116194 0)
(0.013516 0.0125506 0)
(0.0143701 0.0135607 0)
(0.0152028 0.0146512 0)
(0.0160105 0.0158232 0)
(0.0167896 0.0170777 0)
(0.0175358 0.0184149 0)
(0.0182446 0.0198347 0)
(0.0189109 0.0213363 0)
(0.0195294 0.0229185 0)
(0.0200943 0.0245789 0)
(0.0205994 0.0263146 0)
(0.0210385 0.0281216 0)
(0.021405 0.0299951 0)
(0.0216921 0.0319291 0)
(0.0218932 0.0339167 0)
(0.0220016 0.0359497 0)
(0.0220108 0.0380189 0)
(0.0219147 0.040114 0)
(0.0217078 0.0422236 0)
(0.0213852 0.0443353 0)
(0.0209426 0.0464356 0)
(0.0203768 0.0485105 0)
(0.0196858 0.0505449 0)
(0.0188688 0.0525234 0)
(0.0179262 0.0544302 0)
(0.01686 0.0562493 0)
(0.0156738 0.0579649 0)
(0.0143727 0.0595613 0)
(0.0129634 0.0610236 0)
(0.0114542 0.0623377 0)
(0.0098549 0.0634905 0)
(0.00817675 0.0644703 0)
(0.00643216 0.065267 0)
(0.00463437 0.0658721 0)
(0.00279526 0.0662793 0)
(0.000933329 0.0664838 0)
(0.00051118 0.00654602 0)
(0.00153253 0.00661294 0)
(0.00255333 0.00674704 0)
(0.0035741 0.00694898 0)
(0.00459368 0.00721964 0)
(0.00561162 0.00756021 0)
(0.00662736 0.00797213 0)
(0.0076402 0.00845706 0)
(0.0086493 0.00901687 0)
(0.00965362 0.00965362 0)
(0.0106519 0.0103695 0)
(0.0116427 0.0111667 0)
(0.0126241 0.0120476 0)
(0.0135941 0.0130144 0)
(0.0145502 0.0140694 0)
(0.0154895 0.0152145 0)
(0.0164088 0.0164516 0)
(0.0173044 0.017782 0)
(0.018172 0.019207 0)
(0.0190069 0.0207272 0)
(0.019804 0.0223424 0)
(0.0205575 0.0240522 0)
(0.0212614 0.025855 0)
(0.0219089 0.0277486 0)
(0.0224931 0.0297298 0)
(0.0230067 0.0317941 0)
(0.0234418 0.0339363 0)
(0.0237908 0.0361497 0)
(0.0240457 0.0384264 0)
(0.0241987 0.0407573 0)
(0.024242 0.0431319 0)
(0.0241685 0.0455385 0)
(0.0239714 0.0479639 0)
(0.0236447 0.0503938 0)
(0.0231831 0.0528129 0)
(0.0225828 0.0552046 0)
(0.0218409 0.0575518 0)
(0.020956 0.0598363 0)
(0.0199284 0.0620397 0)
(0.0187601 0.0641434 0)
(0.0174547 0.0661286 0)
(0.0160178 0.0679773 0)
(0.0144571 0.0696716 0)
(0.0127816 0.071195 0)
(0.0110027 0.0725321 0)
(0.00913302 0.073669 0)
(0.00718684 0.0745937 0)
(0.00517939 0.0752962 0)
(0.00312462 0.075769 0)
(0.00104348 0.0760065 0)
(0.000546565 0.00717954 0)
(0.00163882 0.00725424 0)
(0.002731 0.00740392 0)
(0.003824 0.00762935 0)
(0.00491692 0.00793156 0)
(0.00600961 0.00831191 0)
(0.00710176 0.00877207 0)
(0.00819292 0.00931397 0)
(0.00928245 0.00993979 0)
(0.0103695 0.0106519 0)
(0.0114529 0.0114529 0)
(0.0125312 0.0123453 0)
(0.0136027 0.013332 0)
(0.0146652 0.0144156 0)
(0.0157161 0.0155987 0)
(0.0167523 0.0168837 0)
(0.0177703 0.0182729 0)
(0.018766 0.0197682 0)
(0.0197347 0.0213709 0)
(0.0206712 0.023082 0)
(0.0215696 0.0249017 0)
(0.0224235 0.0268295 0)
(0.0232258 0.0288642 0)
(0.023969 0.0310032 0)
(0.0246449 0.0332432 0)
(0.0252451 0.0355796 0)
(0.0257606 0.0380065 0)
(0.0261823 0.0405165 0)
(0.0265008 0.043101 0)
(0.0267071 0.0457497 0)
(0.0267919 0.0484508 0)
(0.0267466 0.051191 0)
(0.0265632 0.0539556 0)
(0.0262342 0.0567281 0)
(0.0257534 0.0594909 0)
(0.0251157 0.0622252 0)
(0.0243175 0.0649111 0)
(0.0233567 0.0675277 0)
(0.0222332 0.0700536 0)
(0.0209489 0.0724672 0)
(0.0195077 0.0747468 0)
(0.0179156 0.076871 0)
(0.0161811 0.0788192 0)
(0.0143146 0.0805719 0)
(0.0123288 0.0821111 0)
(0.0102383 0.0834204 0)
(0.00805939 0.0844858 0)
(0.00580968 0.0852954 0)
(0.00350558 0.0858404 0)
(0.00117089 0.0861142 0)
(0.000585879 0.00779629 0)
(0.00175691 0.00787894 0)
(0.00292844 0.00804455 0)
(0.00410173 0.00829401 0)
(0.00527624 0.0086285 0)
(0.00645213 0.00904959 0)
(0.00762942 0.00955918 0)
(0.00880792 0.0101595 0)
(0.00998724 0.0108531 0)
(0.0111667 0.0116427 0)
(0.0123453 0.0125312 0)
(0.0135218 0.0135218 0)
(0.0146943 0.0146176 0)
(0.0158607 0.0158218 0)
(0.0170183 0.0171376 0)
(0.0181638 0.0185677 0)
(0.0192933 0.020115 0)
(0.0204024 0.0217817 0)
(0.0214858 0.0235698 0)
(0.0225377 0.0254804 0)
(0.0235515 0.0275142 0)
(0.02452 0.0296709 0)
(0.025435 0.0319493 0)
(0.026288 0.0343471 0)
(0.0270696 0.0368607 0)
(0.0277699 0.0394853 0)
(0.0283788 0.0422144 0)
(0.0288854 0.0450402 0)
(0.0292789 0.047953 0)
(0.0295485 0.0509416 0)
(0.0296834 0.0539928 0)
(0.0296733 0.0570916 0)
(0.0295084 0.0602215 0)
(0.02918 0.063364 0)
(0.0286803 0.0664989 0)
(0.028003 0.0696049 0)
(0.0271433 0.072659 0)
(0.0260985 0.0756374 0)
(0.024868 0.0785155 0)
(0.0234532 0.0812681 0)
(0.0218585 0.0838702 0)
(0.0200903 0.0862969 0)
(0.018158 0.0885242 0)
(0.0160735 0.0905295 0)
(0.0138512 0.0922914 0)
(0.0115077 0.093791 0)
(0.00906183 0.0950117 0)
(0.00653399 0.0959397 0)
(0.00394344 0.0965644 0)
(0.00131735 0.0968785 0)
(0.000629209 0.0083946 0)
(0.00188708 0.00848535 0)
(0.00314608 0.00866724 0)
(0.00440795 0.00894126 0)
(0.0056725 0.00930875 0)
(0.00694028 0.0097715 0)
(0.00821167 0.0103317 0)
(0.00948682 0.0109919 0)
(0.0107656 0.011755 0)
(0.0120476 0.0126241 0)
(0.013332 0.0136027 0)
(0.0146176 0.0146943 0)
(0.0159027 0.0159027 0)
(0.0171851 0.0172316 0)
(0.0184619 0.0186845 0)
(0.0197297 0.0202651 0)
(0.0209843 0.0219766 0)
(0.0222208 0.0238218 0)
(0.0234334 0.0258032 0)
(0.0246157 0.0279224 0)
(0.0257602 0.0301806 0)
(0.0268586 0.0325776 0)
(0.027902 0.0351127 0)
(0.0288804 0.0377835 0)
(0.0297831 0.0405865 0)
(0.0305988 0.0435166 0)
(0.0313155 0.0465671 0)
(0.0319209 0.0497295 0)
(0.0324022 0.0529933 0)
(0.0327468 0.0563461 0)
(0.032942 0.0597734 0)
(0.0329754 0.0632586 0)
(0.0328355 0.0667831 0)
(0.0325116 0.0703261 0)
(0.0319943 0.073865 0)
(0.0312758 0.0773753 0)
(0.03035 0.0808312 0)
(0.0292131 0.0842051 0)
(0.0278639 0.087469 0)
(0.0263036 0.0905938 0)
(0.0245365 0.0935506 0)
(0.0225697 0.0963107 0)
(0.0204137 0.0988462 0)
(0.0180818 0.101131 0)
(0.0155904 0.103139 0)
(0.0129586 0.10485 0)
(0.0102081 0.106243 0)
(0.00736247 0.107302 0)
(0.00444439 0.108015 0)
(0.00148494 0.108374 0)
(0.000676635 0.00897274 0)
(0.00202956 0.00907176 0)
(0.00338434 0.00927024 0)
(0.00474324 0.00956929 0)
(0.00610649 0.00997046 0)
(0.00747508 0.0104758 0)
(0.0088498 0.0110877 0)
(0.0102312 0.0118091 0)
(0.0116194 0.0126434 0)
(0.0130144 0.0135941 0)
(0.0144156 0.0146652 0)
(0.0158218 0.0158607 0)
(0.0172316 0.0171851 0)
(0.0186426 0.0186426 0)
(0.0200519 0.0202374 0)
(0.0214559 0.0219739 0)
(0.02285 0.0238558 0)
(0.0242289 0.0258867 0)
(0.0255864 0.0280696 0)
(0.0269151 0.0304068 0)
(0.0282067 0.0328999 0)
(0.0294521 0.0355494 0)
(0.0306409 0.0383546 0)
(0.0317618 0.0413136 0)
(0.0328027 0.0444229 0)
(0.0337506 0.0476773 0)
(0.0345916 0.0510698 0)
(0.0353115 0.0545913 0)
(0.0358955 0.0582306 0)
(0.0363285 0.0619742 0)
(0.0365959 0.0658062 0)
(0.036683 0.0697083 0)
(0.0365759 0.0736597 0)
(0.0362619 0.0776373 0)
(0.0357296 0.0816157 0)
(0.0349692 0.0855671 0)
(0.0339731 0.0894622 0)
(0.0327363 0.0932699 0)
(0.0312566 0.0969576 0)
(0.0295349 0.100492 0)
(0.0275754 0.103841 0)
(0.0253859 0.10697 0)
(0.0229779 0.109846 0)
(0.0203664 0.11244 0)
(0.0175702 0.114723 0)
(0.0146111 0.116668 0)
(0.0115143 0.118253 0)
(0.00830684 0.119459 0)
(0.00501554 0.120271 0)
(0.00167603 0.12068 0)
(0.000728232 0.00952893 0)
(0.00218458 0.00963636 0)
(0.00364361 0.00985171 0)
(0.00510816 0.0101762 0)
(0.00657896 0.0106117 0)
(0.0080575 0.0111603 0)
(0.00954503 0.011825 0)
(0.0110425 0.012609 0)
(0.0125506 0.013516 0)
(0.0140694 0.0145502 0)
(0.0155987 0.0157161 0)
(0.0171376 0.0170183 0)
(0.0186845 0.0184619 0)
(0.0202374 0.0200519 0)
(0.0217932 0.0217932 0)
(0.0233481 0.0236909 0)
(0.0248971 0.0257495 0)
(0.0264346 0.0279733 0)
(0.0279536 0.0303661 0)
(0.029446 0.0329309 0)
(0.0309027 0.0356699 0)
(0.0323133 0.0385843 0)
(0.0336662 0.0416738 0)
(0.0349487 0.0449369 0)
(0.0361468 0.0483702 0)
(0.0372457 0.0519687 0)
(0.0382295 0.0557252 0)
(0.0390817 0.05963 0)
(0.0397851 0.0636713 0)
(0.0403224 0.0678345 0)
(0.040676 0.0721024 0)
(0.0408289 0.0764548 0)
(0.0407646 0.0808688 0)
(0.0404676 0.0853187 0)
(0.0399242 0.0897759 0)
(0.0391224 0.0942094 0)
(0.0380527 0.0985859 0)
(0.0367085 0.10287 0)
(0.0350865 0.107025 0)
(0.0331867 0.111012 0)
(0.0310136 0.114794 0)
(0.0285753 0.118332 0)
(0.0258846 0.121588 0)
(0.0229584 0.124527 0)
(0.019818 0.127115 0)
(0.0164885 0.129322 0)
(0.0129989 0.131121 0)
(0.00938065 0.132491 0)
(0.00566514 0.133414 0)
(0.0018934 0.133878 0)
(0.000784066 0.0100613 0)
(0.00235235 0.0101773 0)
(0.00392423 0.0104097 0)
(0.00550322 0.0107601 0)
(0.00709058 0.0112304 0)
(0.00868839 0.0118231 0)
(0.0102984 0.0125413 0)
(0.0119222 0.013389 0)
(0.0135607 0.0143701 0)
(0.0152145 0.0154895 0)
(0.0168837 0.0167523 0)
(0.0185677 0.0181638 0)
(0.0202651 0.0197297 0)
(0.0219739 0.0214559 0)
(0.0236909 0.0233481 0)
(0.0254121 0.0254121 0)
(0.0271324 0.0276535 0)
(0.0288456 0.0300773 0)
(0.030544 0.0326884 0)
(0.0322189 0.0354904 0)
(0.0338601 0.0384865 0)
(0.0354559 0.0416784 0)
(0.0369934 0.0450667 0)
(0.0384582 0.0486503 0)
(0.0398346 0.0524264 0)
(0.0411055 0.0563898 0)
(0.0422529 0.0605334 0)
(0.0432577 0.0648473 0)
(0.0441 0.069319 0)
(0.0447596 0.0739329 0)
(0.0452161 0.0786703 0)
(0.0454494 0.0835094 0)
(0.0454398 0.088425 0)
(0.045169 0.0933886 0)
(0.0446204 0.0983683 0)
(0.0437792 0.10333 0)
(0.0426337 0.108234 0)
(0.0411752 0.113043 0)
(0.0393989 0.117713 0)
(0.0373041 0.122202 0)
(0.0348947 0.126464 0)
(0.0321796 0.130457 0)
(0.0291728 0.134136 0)
(0.0258933 0.137459 0)
(0.0223652 0.140389 0)
(0.0186175 0.14289 0)
(0.0146834 0.144929 0)
(0.0105995 0.146483 0)
(0.00640271 0.14753 0)
(0.00214025 0.148057 0)
(0.000844186 0.010568 0)
(0.002533 0.0106926 0)
(0.00422646 0.0109423 0)
(0.00592879 0.0113188 0)
(0.0076419 0.0118243 0)
(0.00936847 0.0124615 0)
(0.0111109 0.0132341 0)
(0.0128713 0.0141463 0)
(0.0146512 0.0152028 0)
(0.0164516 0.0164088 0)
(0.0182729 0.0177703 0)
(0.020115 0.0192933 0)
(0.0219766 0.0209843 0)
(0.0238558 0.02285 0)
(0.0257495 0.0248971 0)
(0.0276535 0.0271324 0)
(0.0295624 0.0295624 0)
(0.0314695 0.0321932 0)
(0.0333666 0.0350306 0)
(0.0352441 0.0380794 0)
(0.0370907 0.0413435 0)
(0.0388936 0.0448259 0)
(0.0406382 0.0485277 0)
(0.0423083 0.0524487 0)
(0.0438862 0.0565865 0)
(0.0453527 0.0609365 0)
(0.046687 0.0654915 0)
(0.0478673 0.0702417 0)
(0.0488707 0.0751738 0)
(0.0496738 0.0802716 0)
(0.0502526 0.085515 0)
(0.0505836 0.0908803 0)
(0.0506437 0.09634 0)
(0.0504109 0.101863 0)
(0.0498651 0.107413 0)
(0.0489885 0.112952 0)
(0.0477663 0.118438 0)
(0.0461875 0.123825 0)
(0.0442453 0.129065 0)
(0.0419377 0.13411 0)
(0.0392684 0.138907 0)
(0.0362465 0.143406 0)
(0.0328872 0.147557 0)
(0.029212 0.151312 0)
(0.0252481 0.154625 0)
(0.0210288 0.157455 0)
(0.0165924 0.159766 0)
(0.0119815 0.161526 0)
(0.00723927 0.162714 0)
(0.00242027 0.163311 0)
(0.000908627 0.011047 0)
(0.00272666 0.0111802 0)
(0.00455049 0.0114473 0)
(0.00638516 0.0118501 0)
(0.00823328 0.0123909 0)
(0.0100983 0.0130731 0)
(0.0119832 0.0139005 0)
(0.0138908 0.0148779 0)
(0.0158232 0.0160105 0)
(0.017782 0.0173044 0)
(0.0197682 0.018766 0)
(0.0217817 0.0204024 0)
(0.0238218 0.0222208 0)
(0.0258867 0.0242289 0)
(0.0279733 0.0264346 0)
(0.0300773 0.0288456 0)
(0.0321932 0.0314695 0)
(0.0343138 0.0343138 0)
(0.0364301 0.0373852 0)
(0.0385319 0.0406898 0)
(0.0406066 0.0442329 0)
(0.0426401 0.0480183 0)
(0.0446163 0.0520483 0)
(0.046517 0.0563237 0)
(0.0483224 0.0608427 0)
(0.0500106 0.0656015 0)
(0.0515581 0.0705933 0)
(0.05294 0.0758081 0)
(0.0541299 0.0812325 0)
(0.0551008 0.0868493 0)
(0.0558248 0.0926375 0)
(0.0562744 0.0985715 0)
(0.0564221 0.104621 0)
(0.0562421 0.110753 0)
(0.05571 0.116927 0)
(0.0548042 0.1231 0)
(0.0535065 0.129225 0)
(0.0518026 0.13525 0)
(0.0496835 0.141122 0)
(0.0471454 0.146784 0)
(0.0441911 0.152177 0)
(0.0408301 0.157242 0)
(0.0370788 0.161922 0)
(0.0329612 0.166161 0)
(0.0285083 0.169905 0)
(0.023758 0.173107 0)
(0.0187546 0.175723 0)
(0.0135476 0.177717 0)
(0.00818757 0.179063 0)
(0.00273776 0.17974 0)
(0.000977399 0.0114961 0)
(0.00293335 0.0116379 0)
(0.00489638 0.0119225 0)
(0.00687244 0.0123515 0)
(0.00886492 0.0129279 0)
(0.0108781 0.0136551 0)
(0.0129157 0.0145375 0)
(0.0149813 0.0155803 0)
(0.0170777 0.0167896 0)
(0.019207 0.018172 0)
(0.0213709 0.0197347 0)
(0.0235698 0.0214858 0)
(0.0258032 0.0234334 0)
(0.0280696 0.0255864 0)
(0.0303661 0.0279536 0)
(0.0326884 0.030544 0)
(0.0350306 0.0333666 0)
(0.0373852 0.0364301 0)
(0.0397427 0.0397427 0)
(0.0420919 0.0433119 0)
(0.0444192 0.0471441 0)
(0.046709 0.0512447 0)
(0.0489436 0.0556174 0)
(0.0511027 0.060264 0)
(0.0531641 0.0651839 0)
(0.0551032 0.0703741 0)
(0.0568935 0.0758285 0)
(0.0585064 0.0815372 0)
(0.059912 0.0874871 0)
(0.0610788 0.0936602 0)
(0.0619748 0.100034 0)
(0.0625675 0.106583 0)
(0.062825 0.113273 0)
(0.0627162 0.120067 0)
(0.0622121 0.126922 0)
(0.0612865 0.133791 0)
(0.0599167 0.140619 0)
(0.0580849 0.147351 0)
(0.0557787 0.153923 0)
(0.0529922 0.160272 0)
(0.0497269 0.16633 0)
(0.0459923 0.172029 0)
(0.0418062 0.177304 0)
(0.0371949 0.182087 0)
(0.0321937 0.186318 0)
(0.0268461 0.189939 0)
(0.021203 0.1929 0)
(0.0153219 0.19516 0)
(0.00926242 0.196685 0)
(0.00309769 0.197453 0)
(0.00105049 0.0119132 0)
(0.00315303 0.0120636 0)
(0.00526408 0.0123654 0)
(0.00739059 0.0128207 0)
(0.0095368 0.0134323 0)
(0.0117078 0.0142043 0)
(0.0139085 0.0151416 0)
(0.0161429 0.0162499 0)
(0.0184149 0.0175358 0)
(0.0207272 0.0190069 0)
(0.023082 0.0206712 0)
(0.0254804 0.0225377 0)
(0.0279224 0.0246157 0)
(0.0304068 0.0269151 0)
(0.0329309 0.029446 0)
(0.0354904 0.0322189 0)
(0.0380794 0.0352441 0)
(0.0406898 0.0385319 0)
(0.0433119 0.0420919 0)
(0.0459333 0.0459333 0)
(0.0485394 0.0500642 0)
(0.0511134 0.0544916 0)
(0.0536355 0.0592207 0)
(0.0560835 0.0642549 0)
(0.0584325 0.0695951 0)
(0.0606551 0.0752393 0)
(0.0627212 0.0811824 0)
(0.0645986 0.0874153 0)
(0.0662529 0.0939249 0)
(0.0676482 0.100693 0)
(0.0687473 0.107697 0)
(0.0695125 0.114908 0)
(0.0699061 0.122292 0)
(0.0698915 0.129807 0)
(0.069434 0.137407 0)
(0.0685016 0.145039 0)
(0.0670665 0.152643 0)
(0.0651062 0.160155 0)
(0.0626043 0.167505 0)
(0.059552 0.17462 0)
(0.0559489 0.181422 0)
(0.0518041 0.187833 0)
(0.0471364 0.193776 0)
(0.0419752 0.199174 0)
(0.03636 0.203954 0)
(0.0303406 0.208051 0)
(0.0239759 0.211405 0)
(0.0173328 0.213967 0)
(0.0104811 0.215696 0)
(0.00350588 0.216568 0)
(0.00112786 0.012296 0)
(0.0033856 0.0124549 0)
(0.0056534 0.0127737 0)
(0.00793933 0.0132548 0)
(0.0102486 0.0139013 0)
(0.0125873 0.0147177 0)
(0.0149612 0.0157093 0)
(0.0173755 0.0168825 0)
(0.0198347 0.0182446 0)
(0.0223424 0.019804 0)
(0.0249017 0.0215696 0)
(0.0275142 0.0235515 0)
(0.0301806 0.0257602 0)
(0.0328999 0.0282067 0)
(0.0356699 0.0309027 0)
(0.0384865 0.0338601 0)
(0.0413435 0.0370907 0)
(0.0442329 0.0406066 0)
(0.0471441 0.0444192 0)
(0.0500642 0.0485394 0)
(0.0529775 0.0529775 0)
(0.0558655 0.0577422 0)
(0.0587069 0.0628406 0)
(0.0614771 0.0682781 0)
(0.0641485 0.0740572 0)
(0.0666905 0.0801776 0)
(0.0690695 0.0866356 0)
(0.071249 0.0934232 0)
(0.0731899 0.100528 0)
(0.0748511 0.107932 0)
(0.0761897 0.115611 0)
(0.077162 0.123536 0)
(0.0777237 0.13167 0)
(0.0778316 0.13997 0)
(0.0774441 0.148384 0)
(0.0765226 0.156853 0)
(0.0750331 0.165312 0)
(0.072947 0.173689 0)
(0.0702431 0.181904 0)
(0.0669085 0.189873 0)
(0.0629403 0.197508 0)
(0.0583465 0.20472 0)
(0.0531469 0.211417 0)
(0.0473737 0.21751 0)
(0.0410714 0.222915 0)
(0.0342969 0.227553 0)
(0.0271182 0.231354 0)
(0.0196131 0.234259 0)
(0.0118637 0.236223 0)
(0.0039691 0.237212 0)
(0.00120942 0.012642 0)
(0.00363081 0.0128092 0)
(0.00606397 0.0131447 0)
(0.00851818 0.0136511 0)
(0.0109997 0.0143318 0)
(0.0135158 0.0151917 0)
(0.0160732 0.0162366 0)
(0.0186782 0.0174737 0)
(0.0213363 0.0189109 0)
(0.0240522 0.0205575 0)
(0.0268295 0.0224235 0)
(0.0296709 0.02452 0)
(0.0325776 0.0268586 0)
(0.0355494 0.0294521 0)
(0.0385843 0.0323133 0)
(0.0416784 0.0354559 0)
(0.0448259 0.0388936 0)
(0.0480183 0.0426401 0)
(0.0512447 0.046709 0)
(0.0544916 0.0511134 0)
(0.0577422 0.0558655 0)
(0.0609765 0.0609765 0)
(0.0641714 0.0664558 0)
(0.0673001 0.0723109 0)
(0.0703321 0.0785466 0)
(0.0732335 0.0851647 0)
(0.0759667 0.0921632 0)
(0.0784907 0.0995358 0)
(0.0807612 0.107271 0)
(0.0827314 0.115352 0)
(0.0843519 0.123754 0)
(0.0855719 0.132447 0)
(0.0863399 0.141393 0)
(0.0866049 0.150545 0)
(0.0863172 0.159847 0)
(0.0854303 0.169236 0)
(0.0839023 0.178638 0)
(0.0816975 0.187972 0)
(0.0787882 0.197149 0)
(0.0751566 0.206073 0)
(0.0707959 0.214644 0)
(0.0657126 0.222758 0)
(0.0599268 0.230307 0)
(0.0534735 0.23719 0)
(0.0464028 0.243305 0)
(0.0387795 0.24856 0)
(0.0306822 0.252872 0)
(0.0222015 0.256172 0)
(0.0134339 0.258403 0)
(0.00449533 0.259528 0)
(0.00129508 0.0129488 0)
(0.00388834 0.0131241 0)
(0.00649525 0.0134758 0)
(0.00912639 0.0140066 0)
(0.0117892 0.0147205 0)
(0.0144922 0.0156226 0)
(0.0172432 0.0167195 0)
(0.0200498 0.0180188 0)
(0.0229185 0.0195294 0)
(0.025855 0.0212614 0)
(0.0288642 0.0232258 0)
(0.0319493 0.025435 0)
(0.0351127 0.027902 0)
(0.0383546 0.0306409 0)
(0.0416738 0.0336662 0)
(0.0450667 0.0369934 0)
(0.0485277 0.0406382 0)
(0.0520483 0.0446163 0)
(0.0556174 0.0489436 0)
(0.0592207 0.0536355 0)
(0.0628406 0.0587069 0)
(0.0664558 0.0641714 0)
(0.0700413 0.0700413 0)
(0.0735679 0.0763266 0)
(0.0770023 0.083035 0)
(0.0803072 0.0901708 0)
(0.0834406 0.0977344 0)
(0.0863567 0.105722 0)
(0.0890057 0.114123 0)
(0.0913341 0.122922 0)
(0.0932855 0.132096 0)
(0.0948013 0.141614 0)
(0.0958213 0.151436 0)
(0.0962855 0.161513 0)
(0.0961347 0.171784 0)
(0.0953131 0.182181 0)
(0.0937691 0.192622 0)
(0.0914583 0.203017 0)
(0.0883448 0.213267 0)
(0.0844041 0.223261 0)
(0.0796245 0.232884 0)
(0.0740095 0.242015 0)
(0.0675792 0.250532 0)
(0.0603713 0.258312 0)
(0.0524416 0.265238 0)
(0.0438641 0.2712 0)
(0.0347295 0.276099 0)
(0.0251434 0.27985 0)
(0.0152197 0.28239 0)
(0.005094 0.283671 0)
(0.00138467 0.0132139 0)
(0.00415773 0.0133968 0)
(0.00694647 0.013764 0)
(0.0097629 0.0143183 0)
(0.0126158 0.015064 0)
(0.0155148 0.0160067 0)
(0.0184694 0.0171535 0)
(0.0214881 0.0185128 0)
(0.0245789 0.0200943 0)
(0.0277486 0.0219089 0)
(0.0310032 0.023969 0)
(0.0343471 0.026288 0)
(0.0377835 0.0288804 0)
(0.0413136 0.0317618 0)
(0.0449369 0.0349487 0)
(0.0486503 0.0384582 0)
(0.0524487 0.0423083 0)
(0.0563237 0.046517 0)
(0.060264 0.0511027 0)
(0.0642549 0.0560835 0)
(0.0682781 0.0614771 0)
(0.0723109 0.0673001 0)
(0.0763266 0.0735679 0)
(0.0802938 0.0802938 0)
(0.0841763 0.0874887 0)
(0.087933 0.0951602 0)
(0.0915177 0.103312 0)
(0.0948793 0.111942 0)
(0.0979618 0.121044 0)
(0.100705 0.130604 0)
(0.103044 0.1406 0)
(0.104912 0.151 0)
(0.106238 0.161765 0)
(0.106953 0.172843 0)
(0.106985 0.184171 0)
(0.106268 0.195673 0)
(0.104739 0.20726 0)
(0.102342 0.218832 0)
(0.0990314 0.230277 0)
(0.0947737 0.241469 0)
(0.0895504 0.252277 0)
(0.0833609 0.262561 0)
(0.0762241 0.272178 0)
(0.0681799 0.280983 0)
(0.0592904 0.288837 0)
(0.0496397 0.295611 0)
(0.0393327 0.301185 0)
(0.0284927 0.305459 0)
(0.0172542 0.308355 0)
(0.00577625 0.309816 0)
(0.00147801 0.0134346 0)
(0.00443839 0.0136248 0)
(0.00741667 0.0140065 0)
(0.0104264 0.0145829 0)
(0.0134777 0.0153587 0)
(0.0165817 0.0163399 0)