/*--------------------------------*- C++ -*----------------------------------*\
| =========                 |                                                 |
| \\      /  F ield         | OpenFOAM: The Open Source CFD Toolbox           |
|  \\    /   O peration     | Version:  2406                                  |
|   \\  /    A nd           | Website:  www.openfoam.com                      |
|    \\/     M anipulation  |                                                 |
\*---------------------------------------------------------------------------*/
FoamFile
{
    version     2.0;
    format      ascii;
    arch        "LSB;label=32;scalar=64";
    class       volScalarField;
    location    "1.25";
    object      gradTy;
}
// * * * * * * * * * * * * * * * * * * * * * * * * * * * * * * * * * * * * * //

dimensions      [0 -1 0 1 0 0 0];

internalField   nonuniform List<scalar> 
2500
(
0.00356605
0.00359914
0.00366634
0.00376729
0.00390243
0.00407226
0.00427739
0.0045185
0.00479637
0.0051118
0.00546565
0.00585879
0.00629209
0.00676635
0.00728232
0.00784066
0.00844186
0.00908627
0.00977399
0.0105049
0.0112786
0.0120942
0.0129508
0.0138467
0.0147801
0.0157484
0.0167487
0.0177777
0.0188313
0.0199051
0.0209941
0.0220927
0.0231949
0.0242943
0.0253839
0.0264567
0.0275051
0.0285215
0.029498
0.030427
0.0313007
0.0321117
0.0328529
0.0335178
0.0341001
0.0345946
0.0349967
0.0353027
0.0355081
0.0356025
0.0106825
0.0107828
0.0109844
0.0112874
0.0116932
0.0122032
0.0128192
0.0135434
0.0143779
0.0153253
0.0163882
0.0175691
0.0188708
0.0202956
0.0218458
0.0235235
0.02533
0.0272666
0.0293335
0.0315303
0.033856
0.0363081
0.0388834
0.0415773
0.0443839
0.047296
0.0503048
0.0534
0.0565697
0.0598004
0.0630771
0.0663831
0.0697004
0.0730094
0.0762896
0.0795193
0.0826758
0.0857362
0.0886769
0.0914745
0.094106
0.0965489
0.0987818
0.100784
0.102539
0.104028
0.10524
0.106162
0.106786
0.107088
0.0177744
0.0179425
0.018279
0.0187852
0.0194632
0.0203153
0.0213448
0.0225549
0.0239497
0.0255333
0.02731
0.0292844
0.0314608
0.0338434
0.0364361
0.0392423
0.0422646
0.0455049
0.0489638
0.0526408
0.056534
0.0606397
0.0649525
0.0694647
0.0741667
0.0790463
0.0840889
0.0892774
0.0945919
0.10001
0.105506
0.111052
0.116618
0.122172
0.127678
0.133101
0.138401
0.143542
0.148481
0.153182
0.157604
0.161709
0.165462
0.168828
0.171777
0.174281
0.176316
0.177864
0.17891
0.179433
0.0248332
0.0250692
0.025542
0.0262534
0.0272063
0.0284042
0.0298513
0.0315528
0.033514
0.035741
0.03824
0.0410173
0.0440795
0.0474324
0.0510816
0.0550322
0.0592879
0.0638516
0.0687244
0.0739059
0.0793933
0.0851818
0.0912639
0.097629
0.104264
0.111151
0.118271
0.125598
0.133106
0.140763
0.148532
0.156374
0.164247
0.172105
0.179898
0.187574
0.19508
0.20236
0.209358
0.216019
0.222287
0.228107
0.233428
0.238202
0.242384
0.245934
0.248819
0.251011
0.252486
0.253227
0.0318361
0.0321411
0.0327519
0.0336712
0.0349026
0.0364508
0.0383214
0.040521
0.0430568
0.0459368
0.0491692
0.0527624
0.056725
0.0610649
0.0657896
0.0709058
0.076419
0.0823328
0.0886492
0.095368
0.102486
0.109997
0.117892
0.126158
0.134777
0.143727
0.152983
0.162514
0.172282
0.182248
0.192364
0.202581
0.212841
0.223085
0.233248
0.243264
0.25306
0.262565
0.271706
0.280408
0.288599
0.296207
0.303164
0.309408
0.314878
0.319522
0.323295
0.32616
0.328087
0.329056
0.0387674
0.0391424
0.0398935
0.041024
0.0425385
0.0444428
0.046744
0.0494504
0.0525712
0.0561162
0.0600961
0.0645213
0.0694028
0.0747508
0.080575
0.0868839
0.0936847
0.100983
0.108781
0.117078
0.125873
0.135158
0.144922
0.155148
0.165817
0.176902
0.188371
0.200186
0.212302
0.224669
0.237229
0.24992
0.262671
0.275409
0.288052
0.300517
0.312715
0.324556
0.335947
0.346797
0.357012
0.366504
0.375187
0.38298
0.38981
0.39561
0.400323
0.4039
0.406307
0.407516
0.0456114
0.0460576
0.0469515
0.0482972
0.0501001
0.0523674
0.0551077
0.0583312
0.0620491
0.0662736
0.0710176
0.0762942
0.0821167
0.088498
0.0954503
0.102984
0.111109
0.119832
0.129157
0.139085
0.149612
0.160732
0.172432
0.184694
0.197493
0.2108
0.224575
0.238774
0.253343
0.268224
0.283346
0.298635
0.314006
0.329369
0.344628
0.35968
0.374417
0.388731
0.402508
0.415636
0.428002
0.439498
0.450018
0.459463
0.467742
0.474775
0.48049
0.48483
0.487748
0.489215
0.0523521
0.0528711
0.0539107
0.055476
0.0575734
0.0602114
0.0634005
0.0671528
0.0714818
0.076402
0.0819292
0.0880792
0.0948682
0.102312
0.110425
0.119222
0.128713
0.138908
0.149813
0.161429
0.173755
0.186782
0.200498
0.214881
0.229905
0.245535
0.261726
0.278428
0.295578
0.313105
0.330931
0.348964
0.367109
0.385256
0.403292
0.421095
0.438538
0.45549
0.471817
0.487382
0.502052
0.515696
0.528187
0.539407
0.549246
0.557605
0.5644
0.56956
0.573032
0.574775
0.0589737
0.059567
0.0607556
0.0625453
0.0649438
0.0679612
0.0716096
0.0759035
0.0808589
0.086493
0.0928245
0.0998724
0.107656
0.116194
0.125506
0.135607
0.146512
0.158232
0.170777
0.184149
0.198347
0.213363
0.229185
0.245789
0.263146
0.281216
0.299951
0.319291
0.339167
0.359497
0.380189
0.40114
0.422236
0.443353
0.464356
0.485105
0.505449
0.525234
0.544302
0.562493
0.579649
0.595613
0.610236
0.623377
0.634905
0.644703
0.65267
0.658721
0.662793
0.664838
0.0654602
0.0661294
0.0674704
0.0694898
0.0721964
0.0756021
0.0797213
0.0845706
0.0901687
0.0965362
0.103695
0.111667
0.120476
0.130144
0.140694
0.152145
0.164516
0.17782
0.19207
0.207272
0.223424
0.240522
0.25855
0.277486
0.297298
0.317941
0.339363
0.361497
0.384264
0.407573
0.431319
0.455385
0.479639
0.503938
0.528129
0.552046
0.575518
0.598363
0.620397
0.641434
0.661286
0.679773
0.696716
0.71195
0.725321
0.73669
0.745937
0.752962
0.75769
0.760065
0.0717954
0.0725424
0.0740392
0.0762935
0.0793156
0.0831191
0.0877207
0.0931397
0.0993979
0.106519
0.114529
0.123453
0.13332
0.144156
0.155987
0.168837
0.182729
0.197682
0.213709
0.23082
0.249017
0.268295
0.288642
0.310032
0.332432
0.355796
0.380065
0.405165
0.43101
0.457497
0.484508
0.51191
0.539556
0.567281
0.594909
0.622252
0.649111
0.675277
0.700536
0.724672
0.747468
0.76871
0.788192
0.805719
0.821111
0.834204
0.844858
0.852954
0.858404
0.861142
0.0779629
0.0787894
0.0804455
0.0829401
0.086285
0.0904959
0.0955918
0.101595
0.108531
0.116427
0.125312
0.135218
0.146176
0.158218
0.171376
0.185677
0.20115
0.217817
0.235698
0.254804
0.275142
0.296709
0.319493
0.343471
0.368607
0.394853
0.422144
0.450402
0.47953
0.509416
0.539928
0.570916
0.602215
0.63364
0.664989
0.696049
0.72659
0.756374
0.785155
0.812681
0.838702
0.862969
0.885242
0.905295
0.922914
0.93791
0.950117
0.959397
0.965644
0.968785
0.083946
0.0848535
0.0866724
0.0894126
0.0930875
0.097715
0.103317
0.109919
0.11755
0.126241
0.136027
0.146943
0.159027
0.172316
0.186845
0.202651
0.219766
0.238218
0.258032
0.279224
0.301806
0.325776
0.351127
0.377835
0.405865
0.435166
0.465671
0.497295
0.529933
0.563461
0.597734
0.632586
0.667831
0.703261
0.73865
0.773753
0.808312
0.842051
0.87469
0.905938
0.935506
0.963107
0.988462
1.01131
1.03139
1.0485
1.06243
1.07302
1.08015
1.08374
0.0897274
0.0907176
0.0927024
0.0956929
0.0997046
0.104758
0.110877
0.118091
0.126434
0.135941
0.146652
0.158607
0.171851
0.186426
0.202374
0.219739
0.238558
0.258867
0.280696
0.304068
0.328999
0.355494
0.383546
0.413136
0.444229
0.476773
0.510698
0.545913
0.582306
0.619742
0.658062
0.697083
0.736597
0.776373
0.816157
0.855671
0.894622
0.932699
0.969576
1.00492
1.03841
1.0697
1.09846
1.1244
1.14723
1.16668
1.18253
1.19459
1.20271
1.2068
0.0952893
0.0963636
0.0985171
0.101762
0.106117
0.111603
0.11825
0.12609
0.13516
0.145502
0.157161
0.170183
0.184619
0.200519
0.217932
0.236909
0.257495
0.279733
0.303661
0.329309
0.356699
0.385843
0.416738
0.449369
0.483702
0.519687
0.557252
0.5963
0.636713
0.678345
0.721024
0.764548
0.808688
0.853187
0.897759
0.942094
0.985859
1.0287
1.07025
1.11012
1.14794
1.18332
1.21588
1.24527
1.27115
1.29322
1.31121
1.32491
1.33414
1.33878
0.100613
0.101773
0.104097
0.107601
0.112304
0.118231
0.125413
0.13389
0.143701
0.154895
0.167523
0.181638
0.197297
0.214559
0.233481
0.254121
0.276535
0.300773
0.326884
0.354904
0.384865
0.416784
0.450667
0.486503
0.524264
0.563898
0.605334
0.648473
0.69319
0.739329
0.786703
0.835094
0.88425
0.933886
0.983683
1.0333
1.08234
1.13043
1.17713
1.22202
1.26464
1.30457
1.34136
1.37459
1.40389
1.4289
1.44929
1.46483
1.4753
1.48057
0.10568
0.106926
0.109423
0.113188
0.118243
0.124615
0.132341
0.141463
0.152028
0.164088
0.177703
0.192933
0.209843
0.2285
0.248971
0.271324
0.295624
0.321932
0.350306
0.380794
0.413435
0.448259
0.485277
0.524487
0.565865
0.609365
0.654915
0.702417
0.751738
0.802716
0.85515
0.908803
0.9634
1.01863
1.07413
1.12952
1.18438
1.23825
1.29065
1.3411
1.38907
1.43406
1.47557
1.51312
1.54625
1.57455
1.59766
1.61526
1.62714
1.63311
0.11047
0.111802
0.114473
0.118501
0.123909
0.130731
0.139005
0.148779
0.160105
0.173044
0.18766
0.204024
0.222208
0.242289
0.264346
0.288456
0.314695
0.343138
0.373852
0.406898
0.442329
0.480183
0.520483
0.563237
0.608427
0.656015
0.705933
0.758081
0.812325
0.868493
0.926375
0.985715
1.04621
1.10753
1.16927
1.231
1.29225
1.3525
1.41122
1.46784
1.52177
1.57242
1.61922
1.66161
1.69905
1.73107
1.75723
1.77717
1.79063
1.7974
0.114961
0.116379
0.119225
0.123515
0.129279
0.136551
0.145375
0.155803
0.167896
0.18172
0.197347
0.214858
0.234334
0.255864
0.279536
0.30544
0.333666
0.364301
0.397427
0.433119
0.471441
0.512447
0.556174
0.60264
0.651839
0.703741
0.758285
0.815372
0.874871
0.936602
1.00034
1.06583
1.13273
1.20067
1.26922
1.33791
1.40619
1.47351
1.53923
1.60272
1.6633
1.72029
1.77304
1.82087
1.86318
1.89939
1.929
1.9516
1.96685
1.97453
0.119132
0.120636
0.123654
0.128207
0.134323
0.142043
0.151416
0.162499
0.175358
0.190069
0.206712
0.225377
0.246157
0.269151
0.29446
0.322189
0.352441
0.385319
0.420919
0.459333
0.500642
0.544916
0.592207
0.642549
0.695951
0.752393
0.811824
0.874153
0.939249
1.00693
1.07697
1.14908
1.22292
1.29807
1.37407
1.45039
1.52643
1.60155
1.67505
1.7462
1.81422
1.87833
1.93776
1.99174
2.03954
2.08051
2.11405
2.13967
2.15696
2.16568
0.12296
0.124549
0.127737
0.132548
0.139013
0.147177
0.157093
0.168825
0.182446
0.19804
0.215696
0.235515
0.257602
0.282067
0.309027
0.338601
0.370907
0.406066
0.444192
0.485394
0.529775
0.577422
0.628406
0.682781
0.740572
0.801776
0.866356
0.934232
1.00528
1.07932
1.15611
1.23536
1.3167
1.3997
1.48384
1.56853
1.65312
1.73689
1.81904
1.89873
1.97508
2.0472
2.11417
2.1751
2.22915
2.27553
2.31354
2.34259
2.36223
2.37212
0.12642
0.128092
0.131447
0.136511
0.143318
0.151917
0.162366
0.174737
0.189109
0.205575
0.224235
0.2452
0.268586
0.294521
0.323133
0.354559
0.388936
0.426401
0.46709
0.511134
0.558655
0.609765
0.664558
0.723109
0.785466
0.851647
0.921632
0.995358
1.07271
1.15352
1.23754
1.32447
1.41393
1.50545
1.59847
1.69236
1.78638
1.87972
1.97149
2.06073
2.14644
2.22758
2.30307
2.3719
2.43305
2.4856
2.52872
2.56172
2.58403
2.59528
0.129488
0.131241
0.134758
0.140066
0.147205
0.156226
0.167195
0.180188
0.195294
0.212614
0.232258
0.25435
0.27902
0.306409
0.336662
0.369934
0.406382
0.446163
0.489436
0.536355
0.587069
0.641714
0.700413
0.763266
0.83035
0.901708
0.977344
1.05722
1.14123
1.22922
1.32096
1.41614
1.51436
1.61513
1.71784
1.82181
1.92622
2.03017
2.13267
2.23261
2.32884
2.42015
2.50532
2.58312
2.65238
2.712
2.76099
2.7985
2.8239
2.83671
0.132139
0.133968
0.13764
0.143183
0.15064
0.160067
0.171535
0.185128
0.200943
0.219089
0.23969
0.26288
0.288804
0.317618
0.349487
0.384582
0.423083
0.46517
0.511027
0.560835
0.614771
0.673001
0.735679
0.802938
0.874887
0.951602
1.03312
1.11942
1.21044
1.30604
1.406
1.51
1.61765
1.72843
1.84171
1.95673
2.0726
2.18832
2.30277
2.41469
2.52277
2.62561
2.72178
2.80983
2.88837
2.95611
3.01185
3.05459
3.08355
3.09816
0.134346
0.136248
0.140065
0.145829
0.153587
0.163399
0.175341
0.189504
0.205994
0.224931
0.246449
0.270696
0.297831
0.328027
0.361468
0.398346
0.438862
0.483224
0.531641
0.584325
0.641485
0.703321
0.770023
0.841763
0.918687
1.00091
1.08851
1.18151
1.27987
1.38348
1.49214
1.60557
1.72335
1.84496
1.96973
2.09685
2.22535
2.35412
2.4819
2.60728
2.72873
2.84464
2.95334
3.05313
3.14235
3.21945
3.283
3.33181
3.3649
3.38161
0.136083
0.138051
0.142004
0.147974
0.156011
0.16618
0.178564
0.193261
0.210385
0.230067
0.252451
0.277699
0.305988
0.337506
0.372457
0.411055
0.453527
0.500106
0.551032
0.606551
0.666905
0.732335
0.803072
0.87933
0.961303
1.04915
1.143
1.24293
1.34893
1.46094
1.5788
1.70224
1.83087
1.96416
2.1014
2.24175
2.38416
2.5274
2.67007
2.81056
2.94714
3.07792
3.20094
3.31421
3.41576
3.5037
3.57634
3.6322
3.67012
3.68929
0.137322
0.139352
0.143426
0.149583
0.157874
0.168369
0.181157
0.196343
0.21405
0.234418
0.257606
0.283788
0.313155
0.345916
0.382295
0.422529
0.46687
0.515581
0.568935
0.627212
0.690695
0.759667
0.834406
0.915177
1.00223
1.09577
1.196
1.30303
1.41694
1.53771
1.66523
1.79927
1.93947
2.0853
2.23607
2.39086
2.54857
2.70786
2.86714
3.02464
3.17834
3.32607
3.46553
3.59435
3.71018
3.81075
3.89399
3.95812
4.0017
4.02375
0.138039
0.140122
0.144304
0.150625
0.15914
0.169924
0.18307
0.198692
0.216921
0.237908
0.261823
0.288854
0.319209
0.353115
0.390817
0.432577
0.478673
0.5294
0.585064
0.645986
0.71249
0.784907
0.863567
0.948793
1.04089
1.14015
1.24682
1.36109
1.48312
1.61295
1.75055
1.89575
2.04823
2.2075
2.37286
2.54339
2.71791
2.89496
3.07282
3.24946
3.42259
3.5897
3.74807
3.89489
4.02733
4.14267
4.23836
4.31223
4.3625
4.38795
0.138207
0.140335
0.144608
0.151067
0.159772
0.170801
0.184255
0.200252
0.218932
0.240457
0.265008
0.292789
0.324022
0.358955
0.397851
0.441
0.488707
0.541299
0.59912
0.662529
0.731899
0.807612
0.890057
0.979618
1.07667
1.18159
1.29469
1.41627
1.54655
1.68569
1.83373
1.99059
2.15604
2.32962
2.51068
2.6983
2.89125
3.08797
3.28657
3.48478
3.67999
3.86929
4.04949
4.21724
4.36913
4.50182
4.61222
4.69762
4.75584
4.78534
0.137803
0.139965
0.14431
0.150879
0.159735
0.170962
0.184663
0.200964
0.220016
0.241987
0.267071
0.295485
0.327468
0.363285
0.403224
0.447596
0.496738
0.551008
0.610788
0.676482
0.748511
0.827314
0.913341
1.00705
1.10889
1.21932
1.33877
1.46761
1.6062
1.7548
1.91356
2.08252
2.26155
2.4503
2.64817
2.85427
3.06736
3.28581
3.50756
3.73009
3.95044
4.16524
4.37074
4.56292
4.73765
4.89087
5.01875
5.11791
5.18562
5.21997
0.136803
0.138991
0.143386
0.150033
0.158997
0.170366
0.184248
0.200777
0.220108
0.24242
0.267919
0.296834
0.32942
0.365959
0.40676
0.452161
0.502526
0.558248
0.619748
0.687473
0.761897
0.843519
0.932855
1.03044
1.13682
1.25253
1.37812
1.51409
1.66092
1.819
1.98864
2.17003
2.36318
2.56787
2.78362
3.00963
3.24466
3.48705
3.7346
3.98456
4.23357
4.47773
4.71263
4.93346
5.13521
5.31286
5.46164
5.57732
5.65648
5.69668
0.135188
0.137389
0.141812
0.148502
0.157527
0.168978
0.182969
0.199638
0.219147
0.241685
0.267466
0.296733
0.329754
0.36683
0.408289
0.454494
0.505836
0.562744
0.625675
0.695125
0.77162
0.855719
0.948013
1.04912
1.15967
1.28033
1.41174
1.55457
1.70942
1.87687
2.05741
2.25141
2.45906
2.68036
2.91499
3.16227
3.42109
3.68978
3.96604
4.24689
4.52859
4.80665
5.07587
5.33047
5.56434
5.77123
5.94519
6.08088
6.17394
6.22127
0.132941
0.135143
0.139568
0.146263
0.155298
0.166767
0.180787
0.197501
0.217078
0.239714
0.265632
0.295084
0.328355
0.365759
0.407646
0.454398
0.506437
0.564221
0.62825
0.699061
0.777237
0.863399
0.958213
1.06238
1.17664
1.30177
1.43856
1.5878
1.7503
1.92683
2.11808
2.32466
2.54703
2.78542
3.03977
3.30964
3.59407
3.89149
4.19961
4.51523
4.83424
5.1515
5.4609
5.75552
6.02779
6.26997
6.47451
6.63461
6.74468
6.80074
0.130048
0.132237
0.136637
0.143297
0.152288
0.163704
0.177668
0.194326
0.213852
0.236447
0.262342
0.2918
0.325116
0.362619
0.404676
0.45169
0.504109
0.562421
0.627162
0.698915
0.778316
0.866049
0.962855
1.06953
1.18691
1.3159
1.45744
1.6125
1.78207
1.96715
2.16869
2.38759
2.62462
2.88033
3.15503
3.44858
3.76035
4.08897
4.43225
4.78691
5.14848
5.51116
5.8678
6.21005
6.52858
6.81364
7.05562
7.24576
7.37684
7.44371
0.126499
0.128662
0.133009
0.139591
0.148478
0.159769
0.173586
0.190079
0.209426
0.231831
0.257534
0.286803
0.319943
0.357296
0.399242
0.446204
0.498651
0.5571
0.622121
0.69434
0.774441
0.863172
0.961347
1.06985
1.18964
1.32174
1.46723
1.62729
1.80313
1.99598
2.2071
2.43773
2.68902
2.96195
3.25727
3.57532
3.91592
4.27811
4.65995
5.05826
5.46831
5.88366
6.29601
6.69528
7.06991
7.40753
7.69575
7.92319
8.08045
8.16082
0.12229
0.124411
0.128676
0.135134
0.143858
0.154946
0.168522
0.184736
0.203768
0.225828
0.251157
0.28003
0.312758
0.349692
0.391224
0.437792
0.489885
0.548042
0.612865
0.685016
0.765226
0.854303
0.953131
1.06268
1.18402
1.3183
1.46678
1.63081
1.81183
2.01137
2.23102
2.47241
2.73713
3.0267
3.34245
3.68535
4.05588
4.45372
4.87746
5.32424
5.78934
6.26577
6.744
7.21193
7.65514
8.05775
8.40363
8.67783
8.868
8.96534
0.117421
0.119486
0.123638
0.129926
0.138424
0.149228
0.162463
0.17828
0.196858
0.218409
0.243175
0.271433
0.3035
0.339731
0.380527
0.426337
0.477663
0.535065
0.599167
0.670665
0.750331
0.839023
0.937691
1.04739
1.16929
1.30466
1.45494
1.62166
1.80651
2.01133
2.23805
2.48875
2.76556
3.07061
3.40595
3.7734
4.17432
4.60934
5.07797
5.57808
6.10531
6.65245
7.20878
7.75984
8.28758
8.77139
9.18991
9.52328
9.75515
9.87403
0.111897
0.11389
0.117898
0.12397
0.132177
0.142616
0.15541
0.170707
0.188688
0.20956
0.233567
0.260985
0.292131
0.327363
0.367085
0.411752
0.461875
0.518026
0.580849
0.651062
0.72947
0.816975
0.914583
1.02342
1.14475
1.27997
1.43065
1.59854
1.78557
1.99386
2.22576
2.4838
2.77071
3.08934
3.44262
3.83338
4.26419
4.73703
5.25279
5.8107
6.40741
7.03604
7.68504
8.33736
8.97031
9.55673
10.0678
10.4767
10.7618
10.9081
0.105732
0.107637
0.11147
0.117278
0.125129
0.13512
0.14737
0.162025
0.179262
0.199284
0.222332
0.24868
0.278639
0.312566
0.350865
0.393989
0.442453
0.496835
0.557787
0.626043
0.702431
0.787882
0.883448
0.990314
1.10982
1.24347
1.39297
1.56025
1.74747
1.95706
2.19175
2.45456
2.74886
3.0783
3.4468
3.85845
4.31732
4.82718
5.39099
6.01013
6.68332
7.40508
8.16388
8.94024
9.70561
10.4235
11.054
11.5602
11.9134
12.0947
0.0989424
0.100745
0.104372
0.109867
0.1173
0.12676
0.138364
0.152254
0.1686
0.187601
0.209489
0.234532
0.263036
0.295349
0.331867
0.373041
0.419377
0.471454
0.529922
0.59552
0.669085
0.751566
0.844041
0.947737
1.06405
1.19457
1.34112
1.50577
1.69089
1.89919
2.13378
2.39816
2.69633
3.03279
3.41256
3.84114
4.32444
4.86849
5.47905
6.16082
6.91605
7.74258
8.63075
9.55972
10.4941
11.3836
12.1702
12.8024
13.2429
13.4684
0.0915544
0.0932392
0.0966288
0.101766
0.108716
0.117565
0.128424
0.141427
0.156738
0.174547
0.195077
0.218585
0.245365
0.275754
0.310136
0.348947
0.392684
0.441911
0.497269
0.559489
0.629403
0.707959
0.796245
0.895504
1.00717
1.13287
1.27452
1.43431
1.61476
1.81882
2.04991
2.312
2.60967
2.94826
3.33392
3.77366
4.27544
4.84803
5.50079
6.24299
7.08255
8.02356
9.062
10.1791
11.3327
12.4518
13.4461
14.2419
14.7927
15.0732
0.0835993
0.0851516
0.0882751
0.09301
0.0994164
0.107576
0.117591
0.129591
0.143727
0.160178
0.179156
0.200903
0.225697
0.253859
0.285753
0.321796
0.362465
0.408301
0.459923
0.518041
0.583465
0.657126
0.740095
0.833609
0.939097
1.05822
1.1929
1.34541
1.51838
1.71491
1.93867
2.19397
2.48594
2.82064
3.20526
3.64834
4.15993
4.75181
5.43756
6.23237
7.15225
8.21183
9.41943
10.7668
12.2108
13.6499
14.9254
15.9316
16.6176
16.9636
0.0751154
0.0765214
0.0793509
0.0836407
0.0894459
0.0968414
0.105922
0.116806
0.129634
0.144571
0.161811
0.18158
0.204137
0.229779
0.258846
0.291728
0.328872
0.370788
0.418062
0.471364
0.531469
0.599268
0.675792
0.762241
0.860007
0.970723
1.0963
1.239
1.40149
1.58695
1.79917
2.04269
2.32299
2.64671
3.02188
3.45832
3.96804
4.56572
5.26936
6.10087
7.0865
8.25641
9.64146
11.2623
13.0983
15.0162
16.6785
17.9462
18.7872
19.2044
0.066147
0.0673942
0.069904
0.0737094
0.0788598
0.0854225
0.0934831
0.103147
0.114542
0.127816
0.143146
0.160735
0.180818
0.203664
0.229584
0.258933
0.29212
0.329612
0.371949
0.419752
0.473737
0.534735
0.603713
0.681799
0.770312
0.870809
0.985128
1.11545
1.2644
1.43509
1.63131
1.85767
2.11978
2.42456
2.78056
3.19847
3.6917
4.27727
4.97697
5.81899
6.84029
8.08971
9.63167
11.5465
13.9079
16.6421
18.8302
20.3916
21.3848
21.8666
0.0567447
0.0578215
0.0599885
0.0632741
0.0677212
0.0733885
0.0803509
0.0887007
0.098549
0.110027
0.123288
0.138512
0.155904
0.175702
0.19818
0.223652
0.252481
0.285083
0.321937
0.3636
0.410714
0.464028
0.524416
0.592904
0.670697
0.759225
0.860187
0.975619
1.10797
1.2602
1.43592
1.63959
1.87668
2.15404
2.48028
2.8663
3.3261
3.87785
4.54547
5.36114
6.36931
7.63388
9.25244
11.3878
14.348
18.8178
21.6124
23.4086
24.4975
25.0143
0.0469643
0.0478609
0.0496652
0.0523998
0.0561008
0.0608176
0.0666132
0.0735654
0.0817675
0.0913302
0.102383
0.115077
0.129586
0.146111
0.164885
0.186175
0.210288
0.23758
0.268461
0.303406
0.342969
0.387795
0.438641
0.496397
0.562116
0.637051
0.722699
0.820864
0.933729
1.06396
1.21483
1.39038
1.59568
1.8371
2.12272
2.46293
2.87121
3.36526
3.9687
4.71362
5.64478
6.82698
8.35937
10.4072
13.2818
17.6716
20.3961
22.1359
23.1854
23.6819
0.0368663
0.0375744
0.0389999
0.0411574
0.0440762
0.0477958
0.0523666
0.0578504
0.0643216
0.0718684
0.0805939
0.0906183
0.102081
0.115143
0.129989
0.146834
0.165924
0.187546
0.21203
0.239759
0.271182
0.306822
0.347295
0.393327
0.445781
0.505687
0.574281
0.653059
0.743842
0.848862
0.970877
1.11333
1.28053
1.47797
1.71265
1.99363
2.33273
2.74552
3.25272
3.88218
4.6716
5.67229
6.95333
8.60231
10.7028
13.1931
15.1671
16.5561
17.4287
17.8485
0.0265151
0.0270266
0.0280616
0.0296209
0.0317282
0.0344131
0.0377124
0.0416713
0.0463437
0.0517939
0.0580968
0.0653399
0.0736247
0.0830684
0.0938065
0.105995
0.119815
0.135476
0.153219
0.173328
0.196131
0.222015
0.251434
0.284927
0.323134
0.366823
0.416917
0.474537
0.541054
0.618153
0.707928
0.812999
0.936675
1.08317
1.2579
1.46787
1.72227
2.03312
2.41628
2.89258
3.48899
4.23915
5.18122
6.34791
7.73581
9.23299
10.5251
11.4946
12.127
12.4369
0.0159794
0.0162793
0.016906
0.0178488
0.0191222
0.0207442
0.0227375
0.0251293
0.0279526
0.0312462
0.0350558
0.0394344
0.0444439
0.0501554
0.0566514
0.0640271
0.0723927
0.0818757
0.0926242
0.104811
0.118637
0.134339
0.152197
0.172542
0.195767
0.222347
0.252852
0.287977
0.328573
0.37569
0.430637
0.495053
0.571017
0.661183
0.768969
0.898807
1.05648
1.24955
1.48787
1.78408
2.15387
2.61532
3.18577
3.87355
4.66086
5.47929
6.20683
6.7717
7.14911
7.33655
0.00533716
0.00543156
0.00563952
0.00595461
0.00638042
0.00692282
0.00758934
0.00838916
0.00933329
0.0104348
0.0117089
0.0131735
0.0148494
0.0167603
0.018934
0.0214025
0.0242027
0.0273776
0.0309769
0.0350588
0.039691
0.0449533
0.05094
0.0577625
0.0655542
0.074475
0.0847182
0.0965192
0.110167
0.126017
0.144515
0.16622
0.19184
0.222281
0.258711
0.302646
0.356058
0.421521
0.502362
0.602796
0.727924
0.88334
1.07385
1.30053
1.55566
1.81734
2.05217
2.2371
2.36206
2.42454
)
;

boundaryField
{
    walls
    {
        type            calculated;
        value           nonuniform List<scalar> 
200
(
0
0
0
0
0
0
0
0
0
0
0
0
0
0
0
0
0
0
0
0
0
0
0
0
0
0
0
0
0
0
0
0
0
0
0
0
0
0
0
0
0
0
0
0
0
0
0
0
0
0
0.00356605
0.0106825
0.0177744
0.0248332
0.0318361
0.0387674
0.0456114
0.0523521
0.0589737
0.0654602
0.0717954
0.0779629
0.083946
0.0897274
0.0952893
0.100613
0.10568
0.11047
0.114961
0.119132
0.12296
0.12642
0.129488
0.132139
0.134346
0.136083
0.137322
0.138039
0.138207
0.137803
0.136803
0.135188
0.132941
0.130048
0.126499
0.12229
0.117421
0.111897
0.105732
0.0989424
0.0915544
0.0835993
0.0751154
0.066147
0.0567447
0.0469643
0.0368663
0.0265151
0.0159794
0.00533716
0.0356025
0.107088
0.179433
0.253227
0.329056
0.407516
0.489215
0.574775
0.664838
0.760065
0.861142
0.968785
1.08374
1.2068
1.33878
1.48057
1.63311
1.7974
1.97453
2.16568
2.37212
2.59528
2.83671
3.09816
3.38161
3.68929
4.02375
4.38795
4.78534
5.21997
5.69668
6.22127
6.80074
7.44371
8.16082
8.96534
9.87403
10.9081
12.0947
13.4684
15.0732
16.9636
19.2044
21.8666
25.0143
23.6819
17.8485
12.4369
7.33655
2.42454
0
0
0
0
0
0
0
0
0
0
0
0
0
0
0
0
0
0
0
0
0
0
0
0
0
0
0
0
0
0
0
0
0
0
0
0
0
0
0
0
0
0
0
0
0
0
0
0
0
0
)
;
    }
    frontAndBack
    {
        type            empty;
    }
}


// ************************************************************************* //
