/*--------------------------------*- C++ -*----------------------------------*\
| =========                 |                                                 |
| \\      /  F ield         | OpenFOAM: The Open Source CFD Toolbox           |
|  \\    /   O peration     | Version:  2406                                  |
|   \\  /    A nd           | Website:  www.openfoam.com                      |
|    \\/     M anipulation  |                                                 |
\*---------------------------------------------------------------------------*/
FoamFile
{
    version     2.0;
    format      ascii;
    arch        "LSB;label=32;scalar=64";
    class       volScalarField;
    location    "1.25";
    object      T;
}
// * * * * * * * * * * * * * * * * * * * * * * * * * * * * * * * * * * * * * //

dimensions      [0 0 0 1 0 0 0];

internalField   nonuniform List<scalar> 
2500
(
0.200272
0.200415
0.200699
0.201126
0.201693
0.202399
0.203243
0.204223
0.205337
0.206582
0.207956
0.209454
0.211074
0.212812
0.214663
0.216624
0.218688
0.220851
0.223107
0.225449
0.227872
0.230368
0.232929
0.235547
0.238214
0.240921
0.243658
0.246414
0.249179
0.251942
0.254691
0.257414
0.260099
0.262732
0.265301
0.267792
0.270192
0.272489
0.274668
0.276718
0.278626
0.28038
0.28197
0.283385
0.284616
0.285655
0.286494
0.287129
0.287555
0.287768
0.200415
0.200558
0.200846
0.201276
0.201849
0.202562
0.203414
0.204404
0.205529
0.206787
0.208174
0.209689
0.211326
0.213083
0.214955
0.216937
0.219026
0.221214
0.223498
0.225869
0.228323
0.230851
0.233447
0.236101
0.238805
0.241551
0.244328
0.247125
0.249932
0.252738
0.255531
0.258298
0.261027
0.263704
0.266316
0.26885
0.271293
0.27363
0.275848
0.277935
0.279878
0.281665
0.283284
0.284726
0.28598
0.287038
0.287894
0.288541
0.288975
0.289193
0.200699
0.200846
0.201139
0.201577
0.20216
0.202887
0.203756
0.204765
0.205912
0.207195
0.208611
0.210157
0.211829
0.213624
0.215537
0.217565
0.219701
0.221941
0.22428
0.22671
0.229226
0.23182
0.234484
0.23721
0.23999
0.242813
0.24567
0.24855
0.251442
0.254334
0.257214
0.26007
0.262887
0.265652
0.268352
0.270973
0.273499
0.275918
0.278215
0.280377
0.28239
0.284242
0.285921
0.287416
0.288717
0.289816
0.290704
0.291376
0.291826
0.292052
0.201126
0.201276
0.201577
0.202028
0.202627
0.203374
0.204268
0.205306
0.206487
0.207808
0.209267
0.21086
0.212584
0.214436
0.216412
0.218507
0.220716
0.223034
0.225456
0.227975
0.230584
0.233277
0.236045
0.23888
0.241772
0.244713
0.247691
0.250696
0.253716
0.256739
0.259751
0.26274
0.265691
0.268591
0.271423
0.274174
0.276829
0.279371
0.281787
0.284062
0.286182
0.288133
0.289902
0.291479
0.292851
0.29401
0.294947
0.295656
0.296132
0.29637
0.201693
0.201849
0.20216
0.202627
0.203248
0.204023
0.20495
0.206027
0.207253
0.208625
0.210141
0.211798
0.213592
0.215521
0.21758
0.219766
0.222073
0.224496
0.227029
0.229667
0.232402
0.235227
0.238135
0.241115
0.24416
0.247259
0.250401
0.253574
0.256766
0.259965
0.263156
0.266325
0.269457
0.272536
0.275548
0.278476
0.281303
0.284013
0.28659
0.289018
0.291282
0.293366
0.295258
0.296944
0.298413
0.299653
0.300657
0.301416
0.301926
0.302181
0.202399
0.202562
0.202887
0.203374
0.204023
0.204832
0.205801
0.206927
0.208209
0.209646
0.211233
0.21297
0.214853
0.216879
0.219044
0.221343
0.223773
0.226328
0.229002
0.23179
0.234684
0.237677
0.240761
0.243926
0.247163
0.250462
0.25381
0.257197
0.260607
0.264029
0.267446
0.270843
0.274205
0.277514
0.280753
0.283905
0.286951
0.289874
0.292656
0.295279
0.297726
0.299981
0.302029
0.303855
0.305446
0.30679
0.307879
0.308702
0.309255
0.309532
0.203243
0.203414
0.203756
0.204268
0.20495
0.205801
0.20682
0.208005
0.209356
0.21087
0.212545
0.214378
0.216368
0.218511
0.220803
0.223241
0.22582
0.228535
0.23138
0.23435
0.237437
0.240634
0.243931
0.247321
0.250793
0.254335
0.257935
0.261581
0.265258
0.268951
0.272645
0.276321
0.279964
0.283553
0.28707
0.290496
0.293811
0.296995
0.300028
0.30289
0.305562
0.308027
0.310266
0.312263
0.314005
0.315477
0.31667
0.317572
0.318178
0.318482
0.204223
0.204404
0.204765
0.205306
0.206027
0.206927
0.208005
0.20926
0.210691
0.212297
0.214074
0.216022
0.218138
0.220419
0.222862
0.225462
0.228217
0.231121
0.234168
0.237353
0.240668
0.244106
0.247658
0.251314
0.255063
0.258894
0.262793
0.266748
0.270741
0.274758
0.27878
0.282789
0.286765
0.290689
0.294538
0.298292
0.301928
0.305423
0.308756
0.311904
0.314846
0.317561
0.32003
0.322233
0.324156
0.325781
0.327098
0.328096
0.328765
0.329101
0.205337
0.205529
0.205912
0.206487
0.207253
0.208209
0.209356
0.210691
0.212215
0.213926
0.215822
0.217902
0.220163
0.222604
0.22522
0.22801
0.230968
0.234091
0.237373
0.240807
0.244387
0.248105
0.251951
0.255917
0.259989
0.264156
0.268405
0.272718
0.277081
0.281476
0.285882
0.29028
0.294648
0.298963
0.303202
0.30734
0.311353
0.315214
0.3189
0.322385
0.325644
0.328654
0.331393
0.33384
0.335975
0.337782
0.339246
0.340355
0.341099
0.341473
0.206582
0.206787
0.207195
0.207808
0.208625
0.209646
0.21087
0.212297
0.213926
0.215756
0.217787
0.220017
0.222444
0.225067
0.227882
0.230887
0.234078
0.23745
0.240999
0.244719
0.248602
0.252641
0.256825
0.261145
0.265589
0.270142
0.274791
0.279519
0.284308
0.289137
0.293987
0.298834
0.303655
0.308423
0.313112
0.317696
0.322146
0.326432
0.330528
0.334404
0.338032
0.341386
0.344439
0.347169
0.349552
0.35157
0.353205
0.354444
0.355277
0.355694
0.207956
0.208174
0.208611
0.209267
0.210141
0.211233
0.212545
0.214074
0.215822
0.217787
0.21997
0.222368
0.224982
0.227809
0.230848
0.234096
0.237549
0.241204
0.245055
0.249098
0.253324
0.257726
0.262293
0.267016
0.271881
0.276874
0.281979
0.287178
0.292452
0.297779
0.303135
0.308495
0.313833
0.319121
0.324327
0.329422
0.334373
0.339149
0.343716
0.348042
0.352096
0.355845
0.359262
0.362318
0.364988
0.367249
0.369083
0.370473
0.371407
0.371875
0.209454
0.209689
0.210157
0.21086
0.211798
0.21297
0.214378
0.216022
0.217902
0.220017
0.222368
0.224955
0.227777
0.230833
0.234121
0.23764
0.241387
0.245358
0.249548
0.253952
0.258563
0.263372
0.268371
0.273546
0.278886
0.284374
0.289994
0.295726
0.301548
0.307437
0.313368
0.319311
0.325237
0.331114
0.336909
0.342586
0.34811
0.353444
0.358549
0.363391
0.367931
0.372134
0.375967
0.379397
0.382396
0.384938
0.386999
0.388563
0.389613
0.39014
0.211074
0.211326
0.211829
0.212584
0.213592
0.214853
0.216368
0.218138
0.220163
0.222444
0.224982
0.227777
0.230829
0.234138
0.237703
0.241523
0.245595
0.249917
0.254483
0.25929
0.26433
0.269594
0.275073
0.280755
0.286625
0.292668
0.298865
0.305194
0.311633
0.318155
0.324732
0.331332
0.337922
0.344466
0.350927
0.357264
0.363437
0.369404
0.375122
0.380549
0.385644
0.390364
0.394672
0.39853
0.401904
0.404766
0.407088
0.408849
0.410033
0.410627
0.212812
0.213083
0.213624
0.214436
0.215521
0.216879
0.218511
0.220419
0.222604
0.225067
0.227809
0.230833
0.234138
0.237726
0.241595
0.245746
0.250178
0.254886
0.259869
0.265121
0.270635
0.276404
0.282416
0.28866
0.295121
0.301781
0.308621
0.315618
0.322745
0.329976
0.337277
0.344614
0.35195
0.359245
0.366455
0.373536
0.380443
0.387126
0.393537
0.399628
0.405351
0.410658
0.415505
0.41985
0.423652
0.426878
0.429496
0.431483
0.432819
0.43349
0.214663
0.214955
0.215537
0.216412
0.21758
0.219044
0.220803
0.222862
0.22522
0.227882
0.230848
0.234121
0.237703
0.241595
0.245798
0.250312
0.255137
0.260271
0.265711
0.271453
0.27749
0.283814
0.290415
0.29728
0.304394
0.311739
0.319293
0.327031
0.334925
0.342945
0.351054
0.359215
0.367386
0.375521
0.383573
0.391491
0.399222
0.406712
0.413905
0.420746
0.42718
0.433152
0.43861
0.443506
0.447793
0.451433
0.454389
0.456632
0.458141
0.458899
0.216624
0.216937
0.217565
0.218507
0.219766
0.221343
0.223241
0.225462
0.22801
0.230887
0.234096
0.23764
0.241523
0.245746
0.250312
0.255223
0.260477
0.266076
0.272016
0.278293
0.284903
0.291837
0.299085
0.306635
0.314469
0.322568
0.330911
0.33947
0.348214
0.35711
0.366118
0.375196
0.384298
0.393372
0.402365
0.41122
0.419877
0.428274
0.436347
0.444033
0.451269
0.457991
0.46414
0.46966
0.474498
0.478606
0.481945
0.48448
0.486185
0.487041
0.218688
0.219026
0.219701
0.220716
0.222073
0.223773
0.22582
0.228217
0.230968
0.234078
0.237549
0.241387
0.245595
0.250178
0.255137
0.260477
0.266199
0.272302
0.278787
0.285649
0.292884
0.300485
0.308442
0.31674
0.325365
0.334295
0.343506
0.35297
0.362653
0.372518
0.382522
0.392619
0.402756
0.412877
0.42292
0.432823
0.442516
0.451929
0.460991
0.469627
0.477766
0.485335
0.492264
0.498489
0.503949
0.508589
0.512361
0.515226
0.517153
0.518121
0.220851
0.221214
0.221941
0.223034
0.224496
0.226328
0.228535
0.231121
0.234091
0.23745
0.241204
0.245358
0.249917
0.254886
0.260271
0.266076
0.272302
0.278953
0.286028
0.293525
0.30144
0.309768
0.318497
0.327614
0.337103
0.346943
0.357108
0.367566
0.378284
0.389218
0.400324
0.411548
0.422834
0.434117
0.44533
0.456401
0.467252
0.477804
0.487973
0.497677
0.506831
0.515353
0.523163
0.530185
0.536348
0.541588
0.545851
0.54909
0.55127
0.552365
0.223107
0.223498
0.22428
0.225456
0.227029
0.229002
0.23138
0.234168
0.237373
0.240999
0.245055
0.249548
0.254483
0.259869
0.265711
0.272016
0.278787
0.286028
0.293741
0.301925
0.310577
0.319692
0.329261
0.33927
0.349702
0.360536
0.371743
0.383293
0.395146
0.407258
0.419577
0.432048
0.444604
0.457178
0.469691
0.482063
0.494206
0.506029
0.51744
0.528341
0.538636
0.548231
0.557033
0.564954
0.571911
0.577831
0.58265
0.586313
0.588778
0.590018
0.225449
0.225869
0.22671
0.227975
0.229667
0.23179
0.23435
0.237353
0.240807
0.244719
0.249098
0.253952
0.25929
0.265121
0.271453
0.278293
0.285649
0.293525
0.301925
0.31085
0.320298
0.330265
0.340743
0.35172
0.363177
0.375093
0.387439
0.400181
0.413278
0.426682
0.440338
0.454181
0.468143
0.482144
0.496099
0.509917
0.5235
0.536744
0.549542
0.561786
0.573363
0.584165
0.594085
0.60302
0.610875
0.617564
0.623011
0.627154
0.629944
0.631347
0.227872
0.228323
0.229226
0.230584
0.232402
0.234684
0.237437
0.240668
0.244387
0.248602
0.253324
0.258563
0.26433
0.270635
0.27749
0.284903
0.292884
0.30144
0.310577
0.320298
0.330603
0.341489
0.352949
0.364972
0.37754
0.390631
0.404216
0.418259
0.432716
0.447535
0.462656
0.478011
0.493521
0.5091
0.524654
0.540078
0.555263
0.570091
0.584442
0.598189
0.611205
0.623365
0.634544
0.644623
0.653493
0.661052
0.667212
0.671899
0.675057
0.676645
0.230368
0.230851
0.23182
0.233277
0.235227
0.237677
0.240634
0.244106
0.248105
0.252641
0.257726
0.263372
0.269594
0.276404
0.283814
0.291837
0.300485
0.309768
0.319692
0.330265
0.341489
0.353362
0.36588
0.379031
0.3928
0.407164
0.422093
0.43755
0.453489
0.469855
0.486582
0.503596
0.520811
0.538132
0.555453
0.572659
0.589625
0.606219
0.622304
0.637735
0.652366
0.666053
0.678651
0.690024
0.700041
0.708585
0.715553
0.720858
0.724433
0.726231
0.232929
0.233447
0.234484
0.236045
0.238135
0.240761
0.243931
0.247658
0.251951
0.256825
0.262293
0.268371
0.275073
0.282416
0.290415
0.299085
0.308442
0.318497
0.329261
0.340743
0.352949
0.36588
0.379532
0.393896
0.408959
0.424697
0.441082
0.458073
0.475624
0.493676
0.512158
0.53099
0.550078
0.569318
0.588593
0.607772
0.626718
0.64528
0.663301
0.680618
0.697063
0.712468
0.726667
0.739499
0.750815
0.760476
0.768361
0.774368
0.778418
0.780456
0.235547
0.236101
0.23721
0.23888
0.241115
0.243926
0.247321
0.251314
0.255917
0.261145
0.267016
0.273546
0.280755
0.28866
0.29728
0.306635
0.31674
0.327614
0.33927
0.35172
0.364972
0.379031
0.393896
0.409562
0.426014
0.443232
0.461187
0.479839
0.499139
0.519024
0.539421
0.560241
0.581385
0.602737
0.624166
0.645531
0.666674
0.687426
0.70761
0.727039
0.74552
0.762859
0.778864
0.793349
0.806136
0.817065
0.825992
0.832798
0.837389
0.8397
0.238214
0.238805
0.23999
0.241772
0.24416
0.247163
0.250793
0.255063
0.259989
0.265589
0.271881
0.278886
0.286625
0.295121
0.304394
0.314469
0.325365
0.337103
0.349702
0.363177
0.37754
0.3928
0.408959
0.426014
0.443954
0.462761
0.482406
0.50285
0.524042
0.545917
0.568398
0.59139
0.614785
0.638456
0.662261
0.686041
0.709622
0.732813
0.755412
0.777206
0.797974
0.817492
0.835538
0.851892
0.86635
0.87872
0.888835
0.896552
0.90176
0.904382
0.240921
0.241551
0.242813
0.244713
0.247259
0.250462
0.254335
0.258894
0.264156
0.270142
0.276874
0.284374
0.292668
0.301781
0.311739
0.322568
0.334295
0.346943
0.360536
0.375093
0.390631
0.407164
0.424697
0.443232
0.462761
0.483269
0.504727
0.527099
0.550333
0.574363
0.599106
0.624464
0.650319
0.676535
0.702956
0.729405
0.755688
0.781591
0.806886
0.83133
0.854669
0.876645
0.896998
0.915474
0.93183
0.945843
0.957312
0.96607
0.971985
0.974964
0.243658
0.244328
0.24567
0.247691
0.250401
0.25381
0.257935
0.262793
0.268405
0.274791
0.281979
0.289994
0.298865
0.308621
0.319293
0.330911
0.343506
0.357108
0.371743
0.387439
0.404216
0.422093
0.441082
0.461187
0.482406
0.504727
0.528127
0.552567
0.577999
0.604355
0.63155
0.65948
0.68802
0.717022
0.746317
0.775711
0.804988
0.833909
0.862214
0.889628
0.915859
0.940609
0.963575
0.984461
1.00298
1.01887
1.03189
1.04184
1.04857
1.05195
0.246414
0.247125
0.24855
0.250696
0.253574
0.257197
0.261581
0.266748
0.272718
0.279519
0.287178
0.295726
0.305194
0.315618
0.327031
0.33947
0.35297
0.367566
0.383293
0.400181
0.418259
0.43755
0.458073
0.479839
0.50285
0.527099
0.552567
0.579221
0.607011
0.635871
0.665716
0.696435
0.727898
0.759947
0.792398
0.825039
0.85763
0.889906
0.921572
0.952316
0.981803
1.00969
1.03562
1.05925
1.08024
1.09827
1.11307
1.1244
1.13205
1.13591
0.249179
0.249932
0.251442
0.253716
0.256766
0.260607
0.265258
0.270741
0.277081
0.284308
0.292452
0.301548
0.311633
0.322745
0.334925
0.348214
0.362653
0.378284
0.395146
0.413278
0.432716
0.453489
0.475624
0.499139
0.524042
0.550333
0.577999
0.607011
0.637324
0.668873
0.701572
0.73531
0.769949
0.805322
0.841232
0.877447
0.913705
0.949708
0.985127
1.01961
1.05276
1.0842
1.1135
1.14026
1.16407
1.18458
1.20142
1.21433
1.22307
1.22747
0.251942
0.252738
0.254334
0.256739
0.259965
0.264029
0.268951
0.274758
0.281476
0.289137
0.297779
0.307437
0.318155
0.329976
0.342945
0.35711
0.372518
0.389218
0.407258
0.426682
0.447535
0.469855
0.493676
0.519024
0.545917
0.574363
0.604355
0.635871
0.668873
0.703299
0.739065
0.776059
0.81414
0.853132
0.892826
0.932971
0.97328
1.01342
1.05303
1.09171
1.129
1.16446
1.1976
1.22794
1.255
1.27835
1.29756
1.3123
1.32229
1.32733
0.254691
0.255531
0.257214
0.259751
0.263156
0.267446
0.272645
0.27878
0.285882
0.293987
0.303135
0.313368
0.324732
0.337277
0.351054
0.366118
0.382522
0.400324
0.419577
0.440338
0.462656
0.486582
0.512158
0.539421
0.568398
0.599106
0.63155
0.665716
0.701572
0.739065
0.778114
0.818611
0.860411
0.903334
0.947158
0.991618
1.0364
1.08114
1.12543
1.16881
1.21078
1.25081
1.28833
1.32277
1.35358
1.38021
1.40217
1.41905
1.43049
1.43627
0.257414
0.258298
0.26007
0.26274
0.266325
0.270843
0.276321
0.282789
0.29028
0.298834
0.308495
0.319311
0.331332
0.344614
0.359215
0.375196
0.392619
0.411548
0.432048
0.454181
0.478011
0.503596
0.53099
0.560241
0.59139
0.624464
0.65948
0.696435
0.73531
0.776059
0.818611
0.86286
0.908667
0.955847
1.00417
1.05336
1.10307
1.15291
1.20242
1.25109
1.29835
1.34357
1.3861
1.42528
1.46041
1.49086
1.51603
1.53539
1.54855
1.5552
0.260099
0.261027
0.262887
0.265691
0.269457
0.274205
0.279964
0.286765
0.294648
0.303655
0.313833
0.325237
0.337922
0.35195
0.367386
0.384298
0.402756
0.422834
0.444604
0.468143
0.493521
0.520811
0.550078
0.581385
0.614785
0.650319
0.68802
0.727898
0.769949
0.81414
0.860411
0.908667
0.958773
1.01055
1.06376
1.11811
1.17324
1.22873
1.28407
1.33869
1.39192
1.44307
1.49136
1.53599
1.57615
1.61106
1.63998
1.66228
1.67745
1.68512
0.262732
0.263704
0.265652
0.268591
0.272536
0.277514
0.283553
0.290689
0.298963
0.308423
0.319121
0.331114
0.344466
0.359245
0.375521
0.393372
0.412877
0.434117
0.457178
0.482144
0.5091
0.538132
0.569318
0.602737
0.638456
0.676535
0.717022
0.759947
0.805322
0.853132
0.903334
0.955847
1.01055
1.06726
1.12576
1.18574
1.24683
1.30857
1.3704
1.4317
1.49171
1.54963
1.60454
1.6555
1.70152
1.74166
1.77501
1.80078
1.81833
1.82722
0.265301
0.266316
0.268352
0.271423
0.275548
0.280753
0.28707
0.294538
0.303202
0.313112
0.324327
0.336909
0.350927
0.366455
0.383573
0.402365
0.42292
0.44533
0.469691
0.496099
0.524654
0.555453
0.588593
0.624166
0.662261
0.702956
0.746317
0.792398
0.841232
0.892826
0.947158
1.00417
1.06376
1.12576
1.18996
1.25605
1.32366
1.39229
1.46136
1.53016
1.59786
1.66352
1.72607
1.78439
1.8373
1.88361
1.92221
1.95211
1.97252
1.98287
0.267792
0.26885
0.270973
0.274174
0.278476
0.283905
0.290496
0.298292
0.30734
0.317696
0.329422
0.342586
0.357264
0.373536
0.391491
0.41122
0.432823
0.456401
0.482063
0.509917
0.540078
0.572659
0.607772
0.645531
0.686041
0.729405
0.775711
0.825039
0.877447
0.932971
0.991618
1.05336
1.11811
1.18574
1.25605
1.32875
1.40347
1.47969
1.5568
1.63403
1.71045
1.78497
1.85638
1.92331
1.98432
2.03796
2.08284
2.11771
2.14155
2.15366
0.270192
0.271293
0.273499
0.276829
0.281303
0.286951
0.293811
0.301928
0.311353
0.322146
0.334373
0.34811
0.363437
0.380443
0.399222
0.419877
0.442516
0.467252
0.494206
0.5235
0.555263
0.589625
0.626718
0.666674
0.709622
0.755688
0.804988
0.85763
0.913705
0.97328
1.0364
1.10307
1.17324
1.24683
1.32366
1.40347
1.48589
1.57044
1.65646
1.74313
1.82944
1.91415
1.99583
2.07287
2.1435
2.20592
2.25835
2.29922
2.32724
2.34148
0.272489
0.27363
0.275918
0.279371
0.284013
0.289874
0.296995
0.305423
0.315214
0.326432
0.339149
0.353444
0.369404
0.387126
0.406712
0.428274
0.451929
0.477804
0.506029
0.536744
0.570091
0.606219
0.64528
0.687426
0.732813
0.781591
0.833909
0.889906
0.949708
1.01342
1.08114
1.15291
1.22873
1.30857
1.39229
1.47969
1.57044
1.66406
1.75992
1.85715
1.95466
2.05107
2.14473
2.2337
2.31582
2.38882
2.45043
2.49864
2.53176
2.54862
0.274668
0.275848
0.278215
0.281787
0.28659
0.292656
0.300028
0.308756
0.3189
0.330528
0.343716
0.358549
0.375122
0.393537
0.413905
0.436347
0.460991
0.487973
0.51744
0.549542
0.584442
0.622304
0.663301
0.70761
0.755412
0.806886
0.862214
0.921572
0.985127
1.05303
1.12543
1.20242
1.28407
1.3704
1.46136
1.5568
1.65646
1.75992
1.86657
1.97556
2.08573
2.19559
2.30324
2.40637
2.50231
2.58818
2.66106
2.71829
2.75771
2.77781
0.276718
0.277935
0.280377
0.284062
0.289018
0.295279
0.30289
0.311904
0.322385
0.334404
0.348042
0.363391
0.380549
0.399628
0.420746
0.444033
0.469627
0.497677
0.528341
0.561786
0.598189
0.637735
0.680618
0.727039
0.777206
0.83133
0.889628
0.952316
1.01961
1.09171
1.16881
1.25109
1.33869
1.4317
1.53016
1.63403
1.74313
1.85715
1.97556
2.09756
2.22199
2.34728
2.47129
2.59131
2.70405
2.80576
2.89259
2.96104
3.00829
3.03241
0.278626
0.279878
0.28239
0.286182
0.291282
0.297726
0.305562
0.314846
0.325644
0.338032
0.352096
0.367931
0.385644
0.405351
0.42718
0.451269
0.477766
0.506831
0.538636
0.573363
0.611205
0.652366
0.697063
0.74552
0.797974
0.854669
0.915859
0.981803
1.05276
1.129
1.21078
1.29835
1.39192
1.49171
1.59786
1.71045
1.82944
1.95466
2.08573
2.22199
2.36238
2.50529
2.64847
2.78875
2.92208
3.04353
3.14787
3.23039
3.28743
3.31655
0.28038
0.281665
0.284242
0.288133
0.293366
0.299981
0.308027
0.317561
0.328654
0.341386
0.355845
0.372134
0.390364
0.410658
0.433152
0.457991
0.485335
0.515353
0.548231
0.584165
0.623365
0.666053
0.712468
0.762859
0.817492
0.876645
0.940609
1.00969
1.0842
1.16446
1.25081
1.34357
1.44307
1.54963
1.66352
1.78497
1.91415
2.05107
2.19559
2.34728
2.50529
2.66822
2.83377
2.99847
3.15736
3.30383
3.43044
3.53072
3.6
3.63533
0.28197
0.283284
0.285921
0.289902
0.295258
0.302029
0.310266
0.32003
0.331393
0.344439
0.359262
0.375967
0.394672
0.415505
0.43861
0.46414
0.492264
0.523163
0.557033
0.594085
0.634544
0.678651
0.726667
0.778864
0.835538
0.896998
0.963575
1.03562
1.1135
1.1976
1.28833
1.3861
1.49136
1.60454
1.72607
1.85638
1.99583
2.14473
2.30324
2.47129
2.64847
2.83377
3.02524
3.21943
3.41051
3.58952
3.74488
3.86766
3.95213
3.99509
0.283385
0.284726
0.287416
0.291479
0.296944
0.303855
0.312263
0.322233
0.33384
0.347169
0.362318
0.379397
0.39853
0.41985
0.443506
0.46966
0.498489
0.530185
0.564954
0.60302
0.644623
0.690024
0.739499
0.793349
0.851892
0.915474
0.984461
1.05925
1.14026
1.22794
1.32277
1.42528
1.53599
1.6555
1.78439
1.92331
2.07287
2.2337
2.40637
2.59131
2.78875
2.99847
3.21943
3.44897
3.68129
3.90448
4.09757
4.24857
4.35149
4.40351
0.284616
0.28598
0.288717
0.292851
0.298413
0.305446
0.314005
0.324156
0.335975
0.349552
0.364988
0.382396
0.401904
0.423652
0.447793
0.474498
0.503949
0.536348
0.571911
0.610875
0.653493
0.700041
0.750815
0.806136
0.86635
0.93183
1.00298
1.08024
1.16407
1.255
1.35358
1.46041
1.57615
1.70152
1.8373
1.98432
2.1435
2.31582
2.50231
2.70405
2.92208
3.15736
3.41051
3.68129
3.96682
4.25521
4.49809
4.68332
4.80753
4.86975
0.285655
0.287038
0.289816
0.29401
0.299653
0.30679
0.315477
0.325781
0.337782
0.35157
0.367249
0.384938
0.404766
0.426878
0.451433
0.478606
0.508589
0.541588
0.577831
0.617564
0.661052
0.708585
0.760476
0.817065
0.87872
0.945843
1.01887
1.09827
1.18458
1.27835
1.38021
1.49086
1.61106
1.74166
1.88361
2.03796
2.20592
2.38882
2.58818
2.80576
3.04353
3.30383
3.58952
3.90448
4.25521
4.65719
4.96207
5.18491
5.33139
5.40408
0.286494
0.287894
0.290704
0.294947
0.300657
0.307879
0.31667
0.327098
0.339246
0.353205
0.369083
0.386999
0.407088
0.429496
0.454389
0.481945
0.512361
0.545851
0.58265
0.623011
0.667212
0.715553
0.768361
0.825992
0.888835
0.957312
1.03189
1.11307
1.20142
1.29756
1.40217
1.51603
1.63998
1.77501
1.92221
2.08284
2.25835
2.45043
2.66106
2.89259
3.14787
3.43044
3.74488
4.09757
4.49809
4.96207
5.31394
5.56875
5.73494
5.81703
0.287129
0.288541
0.291376
0.295656
0.301416
0.308702
0.317572
0.328096
0.340355
0.354444
0.370473
0.388563
0.408849
0.431483
0.456632
0.48448
0.515226
0.54909
0.586313
0.627154
0.671899
0.720858
0.774368
0.832798
0.896552
0.96607
1.04184
1.1244
1.21433
1.3123
1.41905
1.53539
1.66228
1.80078
1.95211
2.11771
2.29922
2.49864
2.71829
2.96104
3.23039
3.53072
3.86766
4.24857
4.68332
5.18491
5.56875
5.84716
6.02854
6.11802
0.287555
0.288975
0.291826
0.296132
0.301926
0.309255
0.318178
0.328765
0.341099
0.355277
0.371407
0.389613
0.410033
0.432819
0.458141
0.486185
0.517153
0.55127
0.588778
0.629944
0.675057
0.724433
0.778418
0.837389
0.90176
0.971985
1.04857
1.13205
1.22307
1.32229
1.43049
1.54855
1.67745
1.81833
1.97252
2.14155
2.32724
2.53176
2.75771
3.00829
3.28743
3.6
3.95213
4.35149
4.80753
5.33139
5.73494
6.02854
6.22002
6.3145
0.287768
0.289193
0.292052
0.29637
0.302181
0.309532
0.318482
0.329101
0.341473
0.355694
0.371875
0.39014
0.410627
0.43349
0.458899
0.487041
0.518121
0.552365
0.590018
0.631347
0.676645
0.726231
0.780456
0.8397
0.904382
0.974964
1.05195
1.13591
1.22747
1.32733
1.43627
1.5552
1.68512
1.82722
1.98287
2.15366
2.34148
2.54862
2.77781
3.03241
3.31655
3.63533
3.99509
4.40351
4.86975
5.40408
5.81703
6.11802
6.3145
6.41149
)
;

boundaryField
{
    walls
    {
        type            zeroGradient;
    }
    frontAndBack
    {
        type            empty;
    }
}


// ************************************************************************* //
