/*--------------------------------*- C++ -*----------------------------------*\
| =========                 |                                                 |
| \\      /  F ield         | OpenFOAM: The Open Source CFD Toolbox           |
|  \\    /   O peration     | Version:  2406                                  |
|   \\  /    A nd           | Website:  www.openfoam.com                      |
|    \\/     M anipulation  |                                                 |
\*---------------------------------------------------------------------------*/
FoamFile
{
    version     2.0;
    format      ascii;
    arch        "LSB;label=32;scalar=64";
    class       volScalarField;
    location    "0.1";
    object      nu;
}
// * * * * * * * * * * * * * * * * * * * * * * * * * * * * * * * * * * * * * //

dimensions      [0 2 -1 0 0 0 0];

internalField   nonuniform List<scalar> 
1800
(
0.0120545
0.00955448
0.0102125
0.0109583
0.01083
0.0104617
0.0103651
0.00987185
0.00962716
0.00855435
0.0100222
0.00881887
0.00954356
0.0105096
0.0108475
0.0107812
0.0106844
0.00957188
0.00899369
0.00773486
0.00896156
0.00837957
0.00928033
0.0106158
0.0113526
0.0114927
0.0113346
0.00987009
0.00877964
0.00796626
0.00829917
0.00807763
0.00912737
0.0108264
0.0119296
0.0121916
0.0117957
0.00988426
0.00855914
0.0078696
0.00784303
0.00786955
0.00905123
0.0111288
0.0126102
0.0129002
0.0121518
0.00985007
0.00840655
0.00789928
0.00750777
0.0077226
0.00901261
0.01145
0.0133147
0.0136509
0.012496
0.00980365
0.00831086
0.00784633
0.00724929
0.00761948
0.00900686
0.0117952
0.0140402
0.0143346
0.0127149
0.00975678
0.00826379
0.00782919
0.00704565
0.00754836
0.00901882
0.0121336
0.0148502
0.015121
0.0128537
0.00966431
0.00820855
0.00778627
0.00688401
0.00750488
0.00906041
0.0125529
0.016073
0.0162705
0.0129099
0.0095404
0.00815167
0.00776856
0.00675777
0.00748457
0.00912335
0.0130671
0.018131
0.0181142
0.0128626
0.00938159
0.00809822
0.00778992
0.0206399
0.0400115
0.0239176
0.0228685
0.024012
0.0242629
0.0232487
0.020686
0.017459
0.0150211
0.0220547
0.0280112
0.0205687
0.0218745
0.0237042
0.0240103
0.0227793
0.0197777
0.0163928
0.0141213
0.023693
0.0221585
0.0181612
0.020942
0.0232654
0.0236272
0.022243
0.0189013
0.0154262
0.0133284
0.0263419
0.0187331
0.0165518
0.0201387
0.0228125
0.0232314
0.0216999
0.0180686
0.0145559
0.0126003
0.0312371
0.0165854
0.0153214
0.0194459
0.0224768
0.0229969
0.0213424
0.0174382
0.0138589
0.0120256
0.0437853
0.0150626
0.0144125
0.0190286
0.0224889
0.0232279
0.021444
0.0171378
0.0133446
0.0115302
0.218687
0.0137566
0.0139269
0.0187562
0.0228765
0.0246668
0.0230322
0.0174861
0.0129617
0.0110827
0.038021
0.0126357
0.01353
0.0179668
0.0214685
0.0251888
0.0279821
0.0196151
0.0130816
0.0110501
0.021156
0.0116285
0.0126983
0.0157424
0.0167533
0.0184767
0.0258515
0.0282711
0.0145294
0.010991
0.0154987
0.0106447
0.011609
0.0131157
0.0128319
0.0124057
0.0130911
0.0156928
0.0131957
0.0122256
0.0140576
0.0141541
0.0184338
0.0239739
0.0308478
0.040176
0.0480499
0.0559864
0.0585247
0.0778415
0.0137599
0.0144118
0.0183296
0.0242027
0.0315891
0.0424323
0.0525932
0.061916
0.063639
0.0837688
0.0134525
0.0149182
0.018336
0.0246877
0.0322433
0.0451939
0.0575704
0.0705187
0.0699913
0.093204
0.013168
0.0157733
0.0184906
0.0252378
0.0328363
0.0471421
0.0606854
0.0754516
0.0753452
0.0949677
0.0129936
0.0165224
0.0183389
0.0243563
0.0308968
0.0419388
0.0516903
0.0610656
0.062501
0.0690083
0.0125885
0.015835
0.0167775
0.0206541
0.0245809
0.0295784
0.0333561
0.0361833
0.0368718
0.0379771
0.012269
0.0136546
0.0142281
0.0163594
0.0186525
0.0210716
0.0229591
0.0243078
0.0247485
0.0253367
0.0113216
0.0119454
0.0117842
0.012787
0.013849
0.0148888
0.01577
0.0164749
0.0169784
0.0173483
0.0106641
0.0109214
0.0111121
0.011829
0.0125371
0.0131788
0.0137092
0.0141197
0.0143631
0.0147067
0.00907097
0.00966093
0.0101901
0.0109232
0.0116067
0.0121737
0.0126358
0.0130192
0.0132871
0.0136778
0.00960238
0.0102688
0.0103862
0.0109607
0.0116121
0.012184
0.0126779
0.0130959
0.0133854
0.0138319
0.0140432
0.0110823
0.0112812
0.0119695
0.0128097
0.0135255
0.0141346
0.0146497
0.0149787
0.0154583
0.0100934
0.0118093
0.0119174
0.0130159
0.0143653
0.0155673
0.0166511
0.0175848
0.0182949
0.0188672
0.0128113
0.0124871
0.0130996
0.0147734
0.0173646
0.019915
0.0224554
0.0249327
0.0266974
0.0288315
0.0127019
0.0127742
0.0137701
0.0159024
0.0197923
0.0244883
0.0305509
0.0387531
0.05055
0.0691472
0.0159203
0.0132691
0.0148218
0.0172787
0.021734
0.0263605
0.0308631
0.0338161
0.0368264
0.0344638
0.0136968
0.012228
0.0134164
0.0145134
0.0155612
0.0161728
0.0166084
0.0167908
0.0169842
0.0166352
0.00959631
0.00979411
0.010266
0.0106759
0.0110143
0.0112519
0.0114432
0.0115606
0.0116582
0.0116256
0.00779385
0.00824379
0.00856798
0.00887528
0.00910758
0.00927053
0.00939622
0.00947824
0.00953672
0.00956851
0.00711605
0.00757646
0.00785651
0.0081515
0.00831579
0.00841701
0.00848942
0.00853402
0.00856448
0.0086093
0.00818825
0.00813224
0.00813205
0.0081565
0.00816218
0.00817564
0.00811728
0.00803837
0.00804669
0.0079109
0.0100898
0.00993174
0.0096981
0.00942807
0.00925462
0.00912516
0.00913712
0.0093849
0.00971169
0.00994238
0.0224919
0.0289424
0.0214614
0.0159992
0.0135357
0.0121098
0.0112379
0.0106002
0.0101677
0.0102997
0.0155558
0.0172065
0.0174491
0.0161556
0.0143802
0.0130978
0.0120401
0.0117628
0.0114598
0.0117794
0.0152153
0.0152667
0.0150978
0.0146227
0.013702
0.0131755
0.0126354
0.0129198
0.012491
0.0136249
0.0161737
0.0158174
0.015427
0.0150196
0.0144332
0.0142649
0.014082
0.0148139
0.0141712
0.0159069
0.0132042
0.0130619
0.0130234
0.0130889
0.0132168
0.0136175
0.0138338
0.0148843
0.0139608
0.0159527
0.00918273
0.00917243
0.00921196
0.00930748
0.00945909
0.00967625
0.00985983
0.0101807
0.0100212
0.0102888
0.00724459
0.00724894
0.00726943
0.00730701
0.00736236
0.00743154
0.00751263
0.00758565
0.00763166
0.00767557
0.00645076
0.00646363
0.00648339
0.00650952
0.0065428
0.00658058
0.00662599
0.00666889
0.00673754
0.00680327
0.00764119
0.00893184
0.0104044
0.0112263
0.0111042
0.0113872
0.0124456
0.0126076
0.00980128
0.0074203
0.00773556
0.00821037
0.00885884
0.00993107
0.0105186
0.0107345
0.0110834
0.0107719
0.00903394
0.00716003
0.00791843
0.00818984
0.00872675
0.00988199
0.0107151
0.0108899
0.0109283
0.0101915
0.00854112
0.00692903
0.00807682
0.00823121
0.00874675
0.0100606
0.0112297
0.0114435
0.011233
0.00998051
0.00821382
0.00675784
0.00815325
0.00822987
0.00878626
0.0103535
0.0120571
0.0124096
0.0118386
0.00987046
0.0079773
0.00664413
0.0081757
0.00820107
0.00883978
0.0107436
0.0133583
0.014071
0.0127175
0.00977501
0.00780196
0.00657797
0.00816108
0.00816558
0.00890923
0.0112047
0.0152958
0.0168436
0.0136434
0.00964961
0.00767184
0.00655189
0.00808212
0.0081211
0.00898799
0.011683
0.0179616
0.0213917
0.0142715
0.00950043
0.00757793
0.00655848
0.00797285
0.00809091
0.00908508
0.0121008
0.019947
0.0241888
0.0142982
0.00934856
0.00751538
0.00659463
0.00787194
0.00807863
0.00920218
0.0124865
0.0197998
0.0213129
0.0137275
0.00921876
0.00748588
0.00666135
0.0151544
0.0162124
0.0174256
0.0178846
0.0175904
0.0171369
0.0168561
0.0166563
0.0153608
0.0104778
0.0145274
0.0155516
0.017051
0.017728
0.0174501
0.0170136
0.0167802
0.016363
0.0142654
0.0096842
0.0138611
0.01485
0.0166392
0.0175908
0.0173566
0.0169502
0.0167628
0.0160956
0.0133696
0.00911649
0.0131915
0.0141791
0.0162494
0.0175271
0.0173794
0.0170263
0.0168696
0.0158705
0.0126332
0.00869031
0.012588
0.0135764
0.0159203
0.0176219
0.0176152
0.0173269
0.0171611
0.0156953
0.0120354
0.00836525
0.0122409
0.013225
0.0158374
0.0179837
0.0181836
0.0179942
0.0177337
0.0155875
0.011553
0.00811638
0.0112209
0.012418
0.0153771
0.01847
0.0192972
0.0191706
0.0185714
0.0154681
0.011151
0.00792668
0.011579
0.0122068
0.0158617
0.0211771
0.0222629
0.0212386
0.0198773
0.0155019
0.0108361
0.00778422
0.00985213
0.0110365
0.0139096
0.0216378
0.0297527
0.0232682
0.0202493
0.0151353
0.0104794
0.00766151
0.0121754
0.0159756
0.0261798
0.0210434
0.0164715
0.0167595
0.0198535
0.0159032
0.0103356
0.00757608
0.0144583
0.0218546
0.0233857
0.0861437
0.0746723
0.0380726
0.0272138
0.0200395
0.0144456
0.0137638
0.0142699
0.0213647
0.0230133
0.0728459
0.0989757
0.0412929
0.0284078
0.0199934
0.0146783
0.0135611
0.0140576
0.0209645
0.0225191
0.0594578
0.115428
0.0451805
0.0302311
0.0200657
0.015125
0.0133512
0.0138026
0.0206438
0.0219531
0.0511024
0.123977
0.0494715
0.0329555
0.0205751
0.0159132
0.0131259
0.0135308
0.0204853
0.0216663
0.0550202
0.156046
0.0499947
0.034497
0.0212016
0.0166099
0.0130897
0.0133048
0.0213826
0.0231601
0.0868694
0.0800383
0.0377005
0.0283993
0.0197578
0.0165824
0.0125363
0.0130137
0.0240232
0.0249218
0.0477788
0.033017
0.02554
0.0219099
0.0179076
0.0151547
0.012773
0.0128074
0.0295379
0.0213186
0.0203717
0.0178477
0.0161928
0.0150027
0.0133316
0.0127816
0.0111387
0.0126087
0.0228716
0.0172338
0.0158285
0.0146414
0.0137403
0.0130592
0.0121231
0.011992
0.0109887
0.0126249
0.0181127
0.015545
0.0144768
0.0133712
0.0125421
0.0119144
0.0110944
0.0104719
0.0113947
0.0126464
0.0164144
0.0157021
0.0141551
0.0130743
0.0122402
0.0115084
0.0106952
0.0102064
0.00973263
0.0126675
0.0154492
0.0173123
0.0150628
0.0139617
0.013015
0.0121006
0.0113313
0.0102799
0.012521
0.0128354
0.0141164
0.0218114
0.0173814
0.0158707
0.0145557
0.0133993
0.0118788
0.0122121
0.0109396
0.0132001
0.0132886
0.0275413
0.0219048
0.0196119
0.0176655
0.0155286
0.0133984
0.0130759
0.0120858
0.0136852
0.0128643
0.0264758
0.0254944
0.0230415
0.0206809
0.0173705
0.014318
0.0143459
0.0118548
0.0143354
0.0127097
0.0229479
0.025411
0.0239223
0.0228262
0.0185757
0.0160336
0.0137943
0.012619
0.0154491
0.0128233
0.016838
0.0170284
0.0163357
0.0162212
0.0152862
0.0149731
0.0126447
0.0124916
0.0161722
0.012447
0.0119798
0.0118229
0.011471
0.0113041
0.0110844
0.010825
0.0103585
0.00994873
0.0137495
0.0109075
0.00972643
0.00969477
0.00945302
0.0092873
0.00911284
0.00880819
0.00862481
0.00814514
0.00889132
0.00804778
0.00894867
0.00870532
0.00849481
0.00831559
0.00812635
0.00780432
0.00759042
0.00715652
0.00830057
0.00906711
0.00929542
0.0092884
0.00911105
0.00893221
0.00881559
0.00868624
0.00850028
0.00832383
0.012446
0.0127346
0.012588
0.0117351
0.0108617
0.010365
0.0101753
0.0101813
0.0102351
0.0101628
0.0106557
0.0109579
0.0115034
0.0118557
0.0118182
0.0117787
0.0119728
0.0125507
0.0135743
0.0159959
0.0126711
0.0130141
0.0139755
0.0145678
0.0140173
0.0132573
0.0129243
0.0130024
0.0134384
0.0141683
0.0131154
0.014035
0.0157245
0.0165839
0.0158945
0.0150757
0.0146912
0.0147072
0.0149602
0.0151583
0.0146696
0.0163265
0.0185747
0.017525
0.0165316
0.0162684
0.016203
0.0163129
0.0164549
0.0164262
0.0131845
0.0141263
0.0142704
0.0130515
0.012776
0.0131847
0.0135906
0.0137248
0.0136408
0.0134277
0.00986405
0.00988364
0.00969119
0.00938102
0.00928973
0.00936922
0.00942667
0.00939271
0.0093121
0.00923662
0.0079526
0.00781768
0.00768462
0.00755532
0.00746001
0.00740029
0.00735361
0.00731107
0.00727617
0.00725339
0.00693002
0.0067899
0.00668858
0.00660687
0.00653833
0.00649088
0.00646322
0.0064485
0.00644268
0.00644362
0.00644602
0.00707602
0.00848181
0.0134196
0.192254
0.0172825
0.0114154
0.00963099
0.00868372
0.00813869
0.00651077
0.007076
0.00836653
0.0119947
0.0256204
0.0158955
0.011742
0.00985855
0.00884471
0.00827676
0.00661201
0.00711368
0.00831107
0.0111298
0.0155187
0.0141854
0.011904
0.0103027
0.00931411
0.00872071
0.00675436
0.00719443
0.00829196
0.0104387
0.0125366
0.0124703
0.0117207
0.0108994
0.0102193
0.00967435
0.00693926
0.00733175
0.00835957
0.0100625
0.0112208
0.0112609
0.0111082
0.011068
0.0112199
0.0113138
0.00717229
0.00753537
0.00851417
0.00989639
0.0105729
0.0105941
0.0106373
0.0109594
0.0118763
0.0133957
0.00745888
0.00781932
0.00877768
0.00993452
0.0103443
0.0103256
0.010422
0.0108613
0.0120841
0.0142947
0.00780933
0.0081992
0.00915392
0.0101311
0.0103712
0.0103451
0.0104935
0.0109919
0.012303
0.0141768
0.00823743
0.00869859
0.00966513
0.0104712
0.0105679
0.0105093
0.0106521
0.0110476
0.012049
0.0124403
0.00877734
0.00938209
0.0104247
0.0110548
0.0109214
0.0107209
0.010758
0.0109699
0.0116265
0.0118971
0.00939821
0.0102746
0.0116319
0.0123537
0.0121066
0.0118897
0.0121577
0.0131222
0.013863
0.0154012
0.0100557
0.0112673
0.0129522
0.0138743
0.0137496
0.013833
0.014868
0.0172118
0.0181005
0.0155754
0.0108103
0.0124618
0.0144591
0.0154641
0.0154153
0.0156931
0.0169291
0.0186715
0.0180519
0.0156943
0.0116785
0.0139393
0.016197
0.017134
0.0170805
0.0173634
0.0182909
0.0191575
0.018145
0.0157958
0.0126656
0.0158497
0.0182442
0.0188774
0.0186756
0.0188022
0.01935
0.0197058
0.0186436
0.0165046
0.0137792
0.0184803
0.0207589
0.0207693
0.0203253
0.0203042
0.0205836
0.0206072
0.0194541
0.017263
0.0150215
0.0223453
0.0238353
0.022709
0.0219735
0.0218536
0.0218989
0.021539
0.0200844
0.0177206
0.0163878
0.0287082
0.0273206
0.0242581
0.0232838
0.0231456
0.022925
0.022039
0.0200869
0.0175218
0.0178771
0.040792
0.0296596
0.0247106
0.0239581
0.0239345
0.0234512
0.0219829
0.0194939
0.0168416
0.019338
0.0556989
0.0279378
0.0239196
0.0241222
0.0242627
0.0235182
0.0214842
0.018549
0.0159524
0.0136275
0.0179243
0.0227996
0.0327024
0.0356594
0.040021
0.044491
0.0558804
0.0660283
0.0993329
0.0134594
0.0200959
0.0245007
0.0329868
0.0344943
0.0390918
0.0432326
0.0542092
0.0659285
0.10842
0.0132772
0.0207133
0.0251027
0.0342389
0.0339983
0.0376224
0.0416857
0.0503812
0.0611764
0.103719
0.0137747
0.0203872
0.0242586
0.0300628
0.0299171
0.0331793
0.0370529
0.0445193
0.0542408
0.0902953
0.0139798
0.0187631
0.0230061
0.0275322
0.0285852
0.0315223
0.0354281
0.0413512
0.0496367
0.075856
0.0143676
0.0166725
0.0209702
0.0250106
0.0275984
0.030768
0.0350284
0.0405115
0.0476375
0.0680244
0.0146204
0.015202
0.0201341
0.0242261
0.0279606
0.0318429
0.0364973
0.0420225
0.0482503
0.0661101
0.0145176
0.0143597
0.0195128
0.0237069
0.0286541
0.0332986
0.0387309
0.044403
0.0499399
0.0675404
0.0143877
0.0141408
0.0191058
0.0236076
0.0294442
0.0351977
0.0413437
0.0474835
0.0524757
0.0699373
0.0142662
0.0140802
0.0187253
0.0237655
0.0302049
0.0375526
0.0443546
0.051209
0.0549968
0.0735095
0.00900211
0.0105963
0.0107869
0.0108949
0.0106009
0.0103519
0.0101662
0.0100059
0.00997012
0.00995631
0.0100683
0.0117007
0.012054
0.0121658
0.0119361
0.0116874
0.0114925
0.0113202
0.0112747
0.0111496
0.013394
0.0149732
0.0167195
0.0160943
0.0153891
0.0149088
0.0145884
0.0143039
0.0141785
0.0139052
0.0199336
0.0210831
0.0501814
0.0330174
0.0261033
0.0241516
0.023189
0.0223729
0.0216546
0.0207742
0.014376
0.0170145
0.0284897
0.0460407
0.041557
0.0414534
0.0421016
0.0438904
0.04196
0.0420627
0.00714675
0.00722399
0.00728489
0.00730572
0.00732414
0.00736852
0.00747941
0.0076259
0.00785735
0.00819195
0.00737398
0.00742186
0.0075058
0.00758019
0.00771289
0.00790087
0.00819833
0.0085925
0.00894605
0.00943112
0.00757681
0.00762962
0.0077954
0.00805151
0.00850376
0.0091895
0.0101891
0.0116674
0.0127756
0.016034
0.00773767
0.00781891
0.00809671
0.00863123
0.00968401
0.0117875
0.0160443
0.0256119
0.0373091
0.0207285
0.00787551
0.00800394
0.00841386
0.00925139
0.0108831
0.0140371
0.0182486
0.0245441
0.018018
0.0127643
0.0133604
0.0143184
0.015506
0.014515
0.0134914
0.0131696
0.0132161
0.0125341
0.0107933
0.00901069
0.0142082
0.016208
0.018215
0.0172945
0.0155521
0.0146435
0.0142939
0.0133918
0.0116377
0.0097811
0.0144901
0.0158588
0.0174162
0.0172848
0.016292
0.015558
0.0151543
0.014274
0.0126766
0.0108432
0.0146376
0.0161566
0.0174417
0.0174505
0.0168434
0.016251
0.0158055
0.0150409
0.0138737
0.0124133
0.0152424
0.0166074
0.0175744
0.0175711
0.0171293
0.0166394
0.0162205
0.0156851
0.0153147
0.0152781
0.0158168
0.0170594
0.0178082
0.0177819
0.0173855
0.0168938
0.0164522
0.0161589
0.0170487
0.0223488
0.0160861
0.017252
0.017903
0.0178974
0.0175187
0.0170085
0.0165603
0.0165774
0.0190396
0.0271426
0.0161348
0.0172738
0.0179339
0.0179871
0.0176454
0.017148
0.0167351
0.0170521
0.0194958
0.0176611
0.0159948
0.0171114
0.0178778
0.0180282
0.0177158
0.0172456
0.0168962
0.0171421
0.0182009
0.0136368
0.0156428
0.0167379
0.0176958
0.0179851
0.0176932
0.0172386
0.0169253
0.016946
0.0166727
0.0116577
0.00825177
0.00881992
0.00974259
0.0113155
0.0146924
0.0290213
0.0130847
0.00861499
0.00711568
0.00641442
0.0086905
0.00934476
0.0101965
0.0114399
0.0131327
0.0153356
0.0123679
0.00874684
0.00719026
0.0064118
0.00963003
0.0104341
0.0109742
0.0114527
0.0119573
0.0124907
0.0115301
0.00887788
0.00730467
0.00644691
0.0115796
0.0123277
0.0118544
0.011346
0.0111789
0.0112755
0.0109001
0.00902014
0.00746029
0.00652179
0.0156322
0.0144406
0.0123259
0.0111971
0.0107535
0.0106884
0.0105331
0.00918937
0.00766639
0.00664489
0.0200486
0.015273
0.012424
0.011158
0.0106277
0.0104867
0.0104019
0.00939948
0.00792689
0.00681938
0.0199655
0.0150527
0.0124771
0.0112854
0.0107142
0.0105136
0.0104442
0.00966402
0.00825525
0.00705799
0.0153229
0.0133874
0.0122337
0.0114369
0.0109282
0.0107042
0.0106362
0.0100059
0.00866218
0.00737144
0.0117268
0.0117098
0.0115284
0.011313
0.0110335
0.0108981
0.0109169
0.0104554
0.00918322
0.00778847
0.0101392
0.0112362
0.0116546
0.0115952
0.011388
0.0113857
0.0115902
0.0112636
0.00990741
0.00834296
0.0184305
0.0243727
0.0212713
0.0300271
0.0309739
0.0283369
0.0291682
0.0227607
0.0194521
0.0137379
0.017415
0.0245843
0.0213349
0.0312322
0.031326
0.0280506
0.0287427
0.0237298
0.020808
0.0134565
0.0167278
0.0254314
0.0219225
0.0354974
0.0334582
0.0290112
0.0296124
0.0246709
0.0211818
0.0133337
0.0162667
0.025775
0.0225697
0.037897
0.0331826
0.0277663
0.0272321
0.0235799
0.0207061
0.0137757
0.0158858
0.0255534
0.0229869
0.0398377
0.033154
0.0275616
0.0262125
0.0227039
0.0190391
0.0139459
0.0155686
0.0250227
0.0233764
0.042398
0.0334862
0.0277381
0.0248681
0.021547
0.0166812
0.0141831
0.0152882
0.0243124
0.0237035
0.0477459
0.0362638
0.0291533
0.0247009
0.0212641
0.0154258
0.0141401
0.0150394
0.0236185
0.0238561
0.0566343
0.0406043
0.0311092
0.0248102
0.0206948
0.0147681
0.0140182
0.0148269
0.0229872
0.0238381
0.0702759
0.0470703
0.0331631
0.0252507
0.02035
0.0144959
0.013992
0.0146402
0.0223976
0.0236701
0.0855742
0.0572276
0.0354362
0.0261417
0.0201898
0.0143909
0.013909
0.00811291
0.00776498
0.00976626
0.00963959
0.00975574
0.0101171
0.0104243
0.0103544
0.0102636
0.00888371
0.0119887
0.0112872
0.0101183
0.0109595
0.0110312
0.0114133
0.0118153
0.0118976
0.0119999
0.0104947
0.0151947
0.0164541
0.0128501
0.0137844
0.0138869
0.0144719
0.0153442
0.0164477
0.0158582
0.0140576
0.0175617
0.0278701
0.0193757
0.021457
0.0216364
0.0228432
0.027563
0.048319
0.0243756
0.0174685
0.019178
0.0272177
0.023026
0.0315742
0.0328579
0.0315354
0.0382742
0.0301166
0.0193016
0.0133663
0.00829058
0.00785259
0.00751918
0.00727583
0.00709094
0.00696904
0.00692434
0.00693911
0.00699002
0.00706252
0.00967009
0.00902793
0.0085493
0.00815457
0.0078118
0.00757322
0.00742307
0.00734412
0.0073238
0.00734416
0.0131758
0.0120686
0.0111189
0.0100949
0.00913722
0.00848674
0.00804967
0.00777179
0.00763094
0.00758361
0.0239003
0.021346
0.0182539
0.0154334
0.0124344
0.0102208
0.00896404
0.00827846
0.00792851
0.00777611
0.0124775
0.0175972
0.0502761
0.0319188
0.0190987
0.0131721
0.0103115
0.00894723
0.00826541
0.00795014
)
;

boundaryField
{
    left
    {
        type            calculated;
        value           nonuniform List<scalar> 
35
(
0.00941727
0.00994627
0.0106526
0.0113768
0.0119015
0.0121007
0.0118884
0.0109709
0.0097295
0.00813487
0.00935133
0.00928719
0.00922282
0.00915912
0.00910262
0.00906418
0.0090163
0.00900955
0.00902673
0.00915415
0.0105135
0.0103115
0.0101442
0.00999848
0.00986802
0.00975309
0.00965143
0.00956364
0.00948583
0.00941676
0.00774279
0.00945885
0.0101766
0.0105317
0.0106729
)
;
    }
    right
    {
        type            calculated;
        value           nonuniform List<scalar> 
35
(
0.00995753
0.011151
0.0139269
0.0208877
0.0440987
0.142222
0.161394
0.163688
0.135508
0.102561
0.0877917
0.0851387
0.0887004
0.0939875
0.102422
0.113478
0.129461
0.160721
0.169695
0.0959693
0.0426545
0.0267477
0.0177786
0.0149368
0.0138609
0.0140085
0.0157218
0.0193133
0.0303965
0.0833121
0.0332228
0.0165534
0.011618
0.00956824
0.00860956
)
;
    }
    down
    {
        type            calculated;
        value           nonuniform List<scalar> 
40
(
0.00713171
0.00696126
0.0102551
0.00920705
0.00933577
0.00971183
0.0100074
0.00989048
0.00977126
0.00841264
0.00787887
0.00749935
0.00720783
0.00700782
0.00685419
0.00675418
0.00673085
0.00676432
0.00683363
0.00692474
0.00703735
0.00713811
0.0072084
0.00723958
0.00723886
0.00724756
0.00730695
0.00739194
0.0075906
0.00792925
0.0087886
0.0105172
0.0105384
0.0106113
0.0102292
0.00995176
0.00975647
0.00959223
0.0095626
0.00960397
)
;
    }
    up
    {
        type            calculated;
        value           nonuniform List<scalar> 
40
(
0.00694695
0.00739696
0.0076608
0.00795908
0.00808933
0.00816007
0.00820951
0.00823808
0.00825993
0.0083032
0.00623396
0.00625024
0.0062714
0.00629668
0.00632702
0.00635945
0.00639857
0.0064366
0.00649395
0.00658831
0.00659137
0.00646988
0.00638585
0.00631634
0.0062601
0.00622682
0.00621306
0.00621012
0.00621399
0.0062222
0.00783997
0.00726076
0.00887153
0.00839426
0.00817428
0.0079874
0.00779235
0.00746727
0.00723832
0.00681726
)
;
    }
    cylinder
    {
        type            calculated;
        value           nonuniform List<scalar> 
80
(
0.0144423
0.0146463
0.0147961
0.0149092
0.0153343
0.0160179
0.0157943
0.0155761
0.0173129
0.0215426
0.0298263
0.0145921
0.0108894
0.00928537
0.00836024
0.00774839
0.00731137
0.00698669
0.00674053
0.00655399
0.00681218
0.00662424
0.00645204
0.00632626
0.00624885
0.00621322
0.00621423
0.00624749
0.00631271
0.00641344
0.00903565
0.00844773
0.00802685
0.00771053
0.00746894
0.0072844
0.00714598
0.00704614
0.00696708
0.00691689
0.0084095
0.00912304
0.0101451
0.0117698
0.0151842
0.0266047
0.0233716
0.0144728
0.0114024
0.00991476
0.00620543
0.00617648
0.00618515
0.00623311
0.00632779
0.006471
0.00667339
0.00694502
0.00731275
0.00780799
0.00626374
0.00635835
0.00649564
0.00667824
0.00690247
0.00716778
0.00747197
0.00781838
0.00821457
0.00869265
0.00920937
0.00972669
0.0103054
0.0109336
0.0115736
0.0121902
0.0127608
0.0132729
0.013758
0.0141727
)
;
    }
    defaultFaces
    {
        type            empty;
    }
}


// ************************************************************************* //
