/*--------------------------------*- C++ -*----------------------------------*\
| =========                 |                                                 |
| \\      /  F ield         | OpenFOAM: The Open Source CFD Toolbox           |
|  \\    /   O peration     | Version:  2406                                  |
|   \\  /    A nd           | Website:  www.openfoam.com                      |
|    \\/     M anipulation  |                                                 |
\*---------------------------------------------------------------------------*/
FoamFile
{
    version     2.0;
    format      ascii;
    arch        "LSB;label=32;scalar=64";
    class       volScalarField;
    location    "0.1";
    object      p;
}
// * * * * * * * * * * * * * * * * * * * * * * * * * * * * * * * * * * * * * //

dimensions      [0 2 -2 0 0 0 0];

internalField   nonuniform List<scalar> 
1800
(
-1.88024
-1.86709
-1.85573
-1.8445
-1.83656
-1.83278
-1.83354
-1.83846
-1.84392
-1.84901
-2.01113
-1.99686
-1.98424
-1.9707
-1.95874
-1.94922
-1.94242
-1.93764
-1.93304
-1.92839
-2.14842
-2.13595
-2.12425
-2.11117
-2.09943
-2.09043
-2.08465
-2.08102
-2.07675
-2.06942
-2.28889
-2.27839
-2.26781
-2.25567
-2.24522
-2.23849
-2.23604
-2.2363
-2.23554
-2.23093
-2.42403
-2.41548
-2.40617
-2.39526
-2.38688
-2.38367
-2.38625
-2.39258
-2.39795
-2.3984
-2.54451
-2.53748
-2.52902
-2.51893
-2.51219
-2.51195
-2.51877
-2.53003
-2.54015
-2.54363
-2.64144
-2.63543
-2.62721
-2.61732
-2.61152
-2.61337
-2.62321
-2.63777
-2.6507
-2.6547
-2.70779
-2.70212
-2.69337
-2.68278
-2.67665
-2.67886
-2.6895
-2.70464
-2.71759
-2.72019
-2.73837
-2.73253
-2.72255
-2.71035
-2.7027
-2.70361
-2.71264
-2.72531
-2.73519
-2.7343
-2.73093
-2.72436
-2.71255
-2.69808
-2.68798
-2.68585
-2.69058
-2.69751
-2.70111
-2.69412
-0.700038
-0.694015
-0.687435
-0.679438
-0.668572
-0.655953
-0.642078
-0.627093
-0.610563
-0.591175
-0.779356
-0.775066
-0.767616
-0.758972
-0.748152
-0.73583
-0.722423
-0.707951
-0.691783
-0.672224
-0.8708
-0.867739
-0.860587
-0.851869
-0.841305
-0.829622
-0.81709
-0.803614
-0.788342
-0.769133
-0.973152
-0.971767
-0.965483
-0.957186
-0.947298
-0.936656
-0.925477
-0.913572
-0.899889
-0.881797
-1.08413
-1.08618
-1.08134
-1.07383
-1.0649
-1.0556
-1.04618
-1.0364
-1.02496
-1.00873
-1.19938
-1.21192
-1.20784
-1.20055
-1.1924
-1.18457
-1.17736
-1.17052
-1.16245
-1.14931
-1.33622
-1.33625
-1.34017
-1.33328
-1.32613
-1.31997
-1.3152
-1.31193
-1.3083
-1.29908
-1.4919
-1.46468
-1.46737
-1.4647
-1.46089
-1.45769
-1.45537
-1.45576
-1.45803
-1.45394
-1.61714
-1.60549
-1.60201
-1.59761
-1.59533
-1.59583
-1.59768
-1.6011
-1.6065
-1.60367
-1.74719
-1.73629
-1.72862
-1.72027
-1.71521
-1.71465
-1.71736
-1.72266
-1.72505
-1.71468
-0.466699
-0.285177
-0.182432
-0.0932204
-0.0432201
-0.00736889
0.00879885
0.0183616
0.017789
0.00224863
-0.525877
-0.307846
-0.186385
-0.0899534
-0.0374734
-0.00172161
0.0132464
0.0213354
0.0195636
0.00295151
-0.59779
-0.334513
-0.191208
-0.0864814
-0.0314886
0.00432686
0.0179469
0.0244475
0.0213403
0.00369745
-0.684977
-0.363996
-0.196981
-0.0830746
-0.0251754
0.0107494
0.0230712
0.0278364
0.023193
0.00454438
-0.788314
-0.396649
-0.203049
-0.0793588
-0.0183967
0.017781
0.0289065
0.031821
0.0252901
0.00563063
-0.910724
-0.434541
-0.208879
-0.0745571
-0.0108019
0.025483
0.03533
0.03641
0.0278654
0.00715471
-1.05324
-0.489327
-0.218708
-0.0704329
-0.00280879
0.0333116
0.0419571
0.0412248
0.0308469
0.00900944
-1.20637
-0.559869
-0.23547
-0.0705648
0.00196086
0.0382823
0.0464664
0.0446525
0.0334012
0.0108356
-1.36596
-0.653993
-0.265223
-0.0770335
0.00322243
0.0406409
0.04927
0.0470049
0.0353522
0.0123067
-1.51031
-0.770405
-0.312172
-0.0968756
-0.0061028
0.0345715
0.0461263
0.0453842
0.0350735
0.0129804
-1.58543
-0.769773
-0.309679
-0.09523
-0.00487345
0.0324328
0.0438106
0.0430252
0.0336533
0.012721
-1.42236
-0.77659
-0.336438
-0.115869
-0.0214766
0.0175221
0.031942
0.033913
0.0277871
0.0108604
-1.41603
-0.77685
-0.368769
-0.148961
-0.0475261
-0.00375484
0.0160983
0.0227713
0.0207534
0.00837318
-1.25002
-0.747078
-0.398848
-0.18488
-0.0772133
-0.0271681
-0.000888576
0.0111124
0.0132909
0.00558662
-1.17667
-0.732591
-0.432193
-0.226998
-0.110786
-0.0522992
-0.0186337
-0.00062379
0.00638553
0.00311127
-1.0749
-0.712056
-0.462385
-0.268068
-0.144726
-0.0778153
-0.0371583
-0.0135237
-0.00173258
2.8916e-05
-0.991279
-0.706115
-0.49584
-0.310148
-0.180042
-0.104025
-0.0562126
-0.0268203
-0.00984662
-0.00263287
-0.923214
-0.709395
-0.5259
-0.344959
-0.20913
-0.124438
-0.0702881
-0.0360126
-0.0152375
-0.00437487
-0.863588
-0.709385
-0.542354
-0.364392
-0.226398
-0.136099
-0.0780377
-0.0410636
-0.0179078
-0.00506426
-0.892094
-0.737735
-0.562352
-0.379372
-0.239499
-0.144921
-0.0837734
-0.0447165
-0.0204307
-0.00620131
-2.64444
-2.69207
-2.68663
-2.63546
-2.54257
-2.41483
-2.25511
-2.11439
-1.95298
-1.90124
-2.44637
-2.4989
-2.5107
-2.49079
-2.43727
-2.34513
-2.20599
-2.04053
-1.87056
-1.76808
-2.18606
-2.24229
-2.27222
-2.27085
-2.23115
-2.15819
-2.03481
-1.90385
-1.77699
-1.70768
-1.9587
-2.0118
-2.03965
-2.04053
-2.00804
-1.94323
-1.83739
-1.73951
-1.64211
-1.58192
-1.77513
-1.82089
-1.84605
-1.84505
-1.81215
-1.75159
-1.66738
-1.59603
-1.52336
-1.46569
-1.63086
-1.66936
-1.68911
-1.68438
-1.65097
-1.59808
-1.53465
-1.47872
-1.41253
-1.34765
-1.51681
-1.54959
-1.56413
-1.55603
-1.52406
-1.47745
-1.42294
-1.3666
-1.30111
-1.22952
-1.43242
-1.46112
-1.47157
-1.46094
-1.43012
-1.38395
-1.32854
-1.26252
-1.19489
-1.12025
-1.38306
-1.40801
-1.41503
-1.40259
-1.37173
-1.32408
-1.26256
-1.18573
-1.11108
-1.02865
-1.36676
-1.39187
-1.39825
-1.38619
-1.35624
-1.30962
-1.24762
-1.17312
-1.09184
-1.0182
-1.30691
-1.33238
-1.33976
-1.34056
-1.34384
-1.3503
-1.35927
-1.36595
-1.36764
-1.36335
-1.45993
-1.48292
-1.48962
-1.49024
-1.49376
-1.50051
-1.5101
-1.519
-1.52321
-1.51879
-1.60434
-1.6219
-1.63047
-1.63632
-1.64462
-1.65454
-1.66605
-1.67729
-1.68458
-1.68227
-1.73916
-1.76003
-1.77391
-1.78602
-1.79964
-1.81361
-1.8281
-1.84205
-1.85246
-1.85315
-1.88045
-1.90705
-1.92563
-1.9423
-1.95968
-1.97678
-1.99379
-2.01016
-2.02335
-2.02699
-2.03109
-2.06198
-2.08274
-2.10125
-2.12018
-2.13889
-2.15734
-2.17531
-2.19071
-2.19664
-2.18756
-2.21952
-2.23908
-2.25643
-2.27446
-2.29294
-2.31153
-2.33008
-2.34704
-2.35446
-2.34457
-2.37249
-2.38763
-2.40122
-2.41587
-2.43208
-2.44961
-2.46827
-2.48434
-2.49243
-2.48593
-2.50885
-2.52021
-2.52802
-2.53654
-2.54812
-2.56352
-2.58146
-2.59657
-2.60449
-2.60767
-2.62277
-2.62694
-2.62729
-2.62868
-2.63499
-2.6477
-2.66422
-2.6779
-2.68531
0.020697
0.00721939
-0.00557258
-0.0168034
-0.026196
-0.0340202
-0.0405356
-0.0453961
-0.0465747
-0.0401836
-0.0518323
-0.0665058
-0.0806942
-0.0933431
-0.103983
-0.112938
-0.12044
-0.125896
-0.12737
-0.121771
-0.137169
-0.152937
-0.168586
-0.18274
-0.194672
-0.204766
-0.21326
-0.219371
-0.221321
-0.216673
-0.235071
-0.252148
-0.269506
-0.285329
-0.298644
-0.309903
-0.319366
-0.32614
-0.328667
-0.325062
-0.34594
-0.364613
-0.383869
-0.401417
-0.416092
-0.428421
-0.438717
-0.446083
-0.449251
-0.44679
-0.473857
-0.493795
-0.514194
-0.532725
-0.54814
-0.560958
-0.57155
-0.579127
-0.582756
-0.581387
-0.612294
-0.634376
-0.656962
-0.677019
-0.693296
-0.706226
-0.716606
-0.724057
-0.728
-0.72762
-0.795455
-0.814489
-0.831153
-0.84595
-0.857823
-0.867063
-0.874729
-0.880471
-0.883713
-0.883596
-0.953985
-0.974038
-0.99449
-1.00974
-1.02067
-1.02938
-1.03585
-1.04089
-1.04425
-1.04435
-1.30313
-1.27763
-1.25138
-1.22947
-1.21802
-1.21477
-1.21444
-1.21361
-1.2125
-1.20995
0.84166
-0.0493327
0.58981
0.433001
0.353593
0.351124
0.326067
0.305543
0.239421
0.0939636
0.835756
-0.0568313
0.584491
0.427126
0.352868
0.349973
0.322476
0.295867
0.215686
0.0394303
0.831282
-0.0663428
0.579774
0.420318
0.35199
0.348857
0.317744
0.283635
0.186557
-0.026692
0.828449
-0.0783069
0.575787
0.413237
0.351771
0.348289
0.312621
0.269275
0.15311
-0.103004
0.827452
-0.0931953
0.57212
0.407499
0.353259
0.348113
0.307368
0.253583
0.113871
-0.188077
0.828507
-0.1114
0.568531
0.405086
0.355928
0.347222
0.302536
0.238871
0.0731096
-0.282194
0.832133
-0.132751
0.565958
0.405793
0.357906
0.346151
0.297367
0.221032
0.0173949
-0.38925
0.839401
-0.15675
0.563555
0.408708
0.362022
0.348079
0.295248
0.20568
-0.0272362
-0.503776
0.852611
-0.182449
0.560553
0.414369
0.36671
0.349757
0.291303
0.184915
-0.0906297
-0.645876
0.872851
-0.20591
0.56017
0.424265
0.373385
0.354238
0.290915
0.165039
-0.141362
-0.803544
0.910507
-0.221357
0.554873
0.4429
0.37817
0.352684
0.283916
0.144287
-0.173364
-1.01052
0.968575
-0.219944
0.547412
0.463817
0.380989
0.344574
0.269623
0.104428
-0.171523
-1.00744
1.01821
-0.205292
0.548431
0.475867
0.377773
0.328657
0.243263
0.073749
-0.162109
-0.941331
1.04993
-0.183938
0.552722
0.479637
0.3697
0.30764
0.21358
0.0399738
-0.151208
-0.861023
1.06324
-0.162317
0.555329
0.476114
0.358649
0.285541
0.181949
0.0138073
-0.151328
-0.777738
1.05925
-0.143847
0.554015
0.466565
0.347355
0.265637
0.153264
-0.00706021
-0.160845
-0.676979
1.04188
-0.128391
0.547442
0.450459
0.33663
0.249516
0.129109
-0.0223455
-0.179762
-0.582208
1.02251
-0.111333
0.538091
0.428676
0.326886
0.236947
0.110447
-0.0320602
-0.202616
-0.500059
0.998528
-0.0920807
0.531241
0.404252
0.318667
0.227179
0.0973502
-0.0402099
-0.220711
-0.459437
1.04011
-0.0417379
0.54638
0.387136
0.317437
0.226247
0.098881
-0.034439
-0.215563
-0.432061
-1.29952
-1.45948
-1.60929
-1.73277
-1.85598
-1.9854
-2.11931
-2.26526
-2.41568
-2.54828
-1.31518
-1.42114
-1.52809
-1.64178
-1.75825
-1.87024
-1.97979
-2.09518
-2.22639
-2.35014
-1.23407
-1.31152
-1.40121
-1.50484
-1.61303
-1.71555
-1.81035
-1.90392
-2.00344
-2.10521
-1.20738
-1.28586
-1.34999
-1.42516
-1.50388
-1.58148
-1.6571
-1.7324
-1.80914
-1.88755
-1.11624
-1.19374
-1.25883
-1.32454
-1.385
-1.44658
-1.51332
-1.58252
-1.65074
-1.71642
-1.00838
-1.09485
-1.1645
-1.22708
-1.28078
-1.33417
-1.39464
-1.45949
-1.52241
-1.58011
-0.895262
-0.995862
-1.06394
-1.11253
-1.16347
-1.22209
-1.2863
-1.35253
-1.41539
-1.4708
-0.806381
-0.914257
-0.968412
-0.992257
-1.03894
-1.11203
-1.1909
-1.26543
-1.3323
-1.38865
-0.772476
-0.875454
-0.912745
-0.923701
-0.96735
-1.04636
-1.13347
-1.21383
-1.28392
-1.34112
-0.707131
-0.791731
-0.843556
-0.885547
-0.943
-1.02181
-1.10932
-1.19304
-1.26589
-1.32432
-0.68921
-0.677064
-0.650852
-0.614674
-0.577547
-0.546564
-0.520888
-0.502328
-0.489869
-0.482397
-0.718542
-0.705387
-0.678601
-0.64218
-0.608897
-0.578049
-0.552479
-0.533731
-0.520971
-0.513098
-0.721417
-0.707288
-0.680657
-0.644502
-0.60954
-0.579822
-0.556631
-0.540115
-0.529522
-0.523842
-0.701327
-0.686181
-0.66038
-0.626131
-0.592735
-0.564696
-0.543034
-0.527892
-0.518623
-0.513961
-0.664477
-0.648612
-0.623921
-0.591886
-0.560922
-0.535162
-0.51515
-0.500629
-0.491224
-0.486489
-0.619042
-0.602722
-0.579486
-0.550266
-0.522444
-0.499695
-0.482249
-0.469264
-0.460043
-0.454696
-0.572836
-0.556577
-0.535357
-0.509721
-0.485893
-0.466977
-0.453073
-0.443042
-0.435683
-0.430664
-0.532164
-0.516412
-0.49771
-0.476242
-0.456965
-0.442324
-0.432295
-0.425755
-0.421723
-0.418775
-0.500357
-0.48544
-0.469206
-0.451537
-0.436163
-0.424714
-0.417007
-0.411941
-0.409242
-0.40863
-0.479215
-0.465786
-0.452164
-0.438195
-0.426679
-0.418552
-0.413655
-0.410985
-0.410003
-0.41139
-0.466434
-0.455107
-0.444098
-0.433323
-0.424884
-0.419239
-0.415984
-0.415034
-0.413852
-0.40608
-0.460827
-0.451302
-0.442792
-0.435098
-0.42955
-0.426093
-0.423993
-0.423309
-0.42349
-0.418448
-0.459571
-0.450935
-0.443626
-0.437182
-0.43219
-0.428175
-0.424431
-0.421233
-0.418904
-0.413287
-0.462213
-0.45389
-0.447019
-0.440804
-0.435321
-0.429976
-0.424318
-0.418859
-0.414036
-0.406518
-0.469831
-0.461482
-0.45473
-0.448375
-0.442068
-0.435244
-0.427715
-0.420003
-0.412362
-0.402265
-0.483941
-0.475324
-0.468634
-0.462087
-0.454904
-0.446643
-0.437367
-0.427576
-0.41746
-0.40521
-0.506131
-0.497048
-0.490588
-0.483984
-0.475974
-0.466355
-0.455483
-0.443843
-0.43157
-0.417366
-0.537776
-0.528179
-0.522296
-0.515757
-0.506906
-0.49598
-0.483671
-0.470434
-0.456299
-0.440248
-0.579702
-0.570303
-0.56545
-0.558848
-0.549071
-0.537019
-0.523625
-0.509261
-0.493711
-0.476106
-0.633106
-0.625149
-0.620481
-0.613528
-0.602958
-0.590154
-0.576131
-0.561073
-0.544775
-0.526076
-0.373245
-0.263912
-0.225932
-0.156906
-0.10668
-0.0631177
-0.0332851
-0.0127675
-0.00468582
-0.00420187
-0.352908
-0.250816
-0.21524
-0.147127
-0.0983384
-0.0562508
-0.0283826
-0.00982482
-0.00325893
-0.00472019
-0.334655
-0.248395
-0.212807
-0.13826
-0.090407
-0.0494244
-0.023321
-0.00616945
-0.000672759
-0.00428753
-0.324521
-0.246503
-0.204671
-0.128118
-0.0822383
-0.0425206
-0.0182067
-0.00230634
0.00239638
-0.00308814
-0.32307
-0.245628
-0.196465
-0.118226
-0.0748725
-0.0361349
-0.0136378
0.0012884
0.00538845
-0.0017291
-0.328463
-0.243753
-0.187786
-0.109833
-0.0684473
-0.0305197
-0.00964218
0.00446453
0.00796873
-0.000709042
-0.338459
-0.240898
-0.182009
-0.104148
-0.0631061
-0.0257549
-0.00608036
0.0073127
0.0101643
4.26488e-06
-0.354939
-0.243859
-0.178817
-0.100621
-0.0583097
-0.0214507
-0.00262985
0.0100372
0.0121949
0.000565281
-0.38146
-0.253049
-0.178598
-0.098372
-0.053549
-0.0171683
0.000947748
0.0127743
0.0141568
0.0011024
-0.418741
-0.266912
-0.17979
-0.0960382
-0.0485795
-0.0125433
0.00472711
0.015505
0.0160201
0.0016704
-0.378674
-0.278052
-0.236071
-0.162638
-0.11043
-0.0670741
-0.0361127
-0.0138301
-0.00454025
-0.00245715
-0.364871
-0.269987
-0.233937
-0.162441
-0.110505
-0.0671406
-0.0362002
-0.0138649
-0.00429144
-0.00232118
-0.367716
-0.266404
-0.231164
-0.161827
-0.110411
-0.0669152
-0.0358473
-0.0132873
-0.00370215
-0.00220607
-0.366173
-0.260292
-0.225319
-0.162761
-0.112021
-0.0678866
-0.0365182
-0.0137485
-0.00393371
-0.00190566
-0.374605
-0.261085
-0.2236
-0.161089
-0.111423
-0.0673145
-0.0362041
-0.0140621
-0.00469292
-0.00307926
-0.475859
-0.502742
-0.519044
-0.515912
-0.498007
-0.474024
-0.451008
-0.43213
-0.417831
-0.405353
-0.475349
-0.503508
-0.519714
-0.516065
-0.497318
-0.471316
-0.445043
-0.424913
-0.410542
-0.391418
-0.476215
-0.504981
-0.520759
-0.516185
-0.4962
-0.469278
-0.443488
-0.425384
-0.411281
-0.397438
-0.477632
-0.507029
-0.521711
-0.515498
-0.493151
-0.464143
-0.437892
-0.422054
-0.409069
-0.405746
-0.479543
-0.509602
-0.522473
-0.513817
-0.48769
-0.455454
-0.428618
-0.413779
-0.403604
-0.414688
0.141704
0.143365
0.144472
0.1459
0.146699
0.145761
0.143831
0.142821
0.144668
0.153116
0.188877
0.186832
0.1812
0.177335
0.174969
0.172496
0.170009
0.168746
0.170278
0.178013
0.207428
0.203755
0.197421
0.192712
0.189807
0.187405
0.18532
0.184359
0.185938
0.193521
0.218874
0.214508
0.207612
0.202043
0.198236
0.195352
0.193154
0.192029
0.193225
0.200679
0.219673
0.214571
0.207601
0.20177
0.197559
0.19448
0.192309
0.191089
0.191856
0.199258
0.211055
0.205008
0.197872
0.19187
0.187428
0.184307
0.182365
0.181452
0.182018
0.18735
0.192983
0.185827
0.17824
0.171831
0.166942
0.163469
0.161258
0.159799
0.159315
0.163298
0.165521
0.156888
0.148352
0.141074
0.135282
0.130864
0.127499
0.124624
0.123522
0.129354
0.128476
0.118114
0.108228
0.099738
0.0928006
0.0872539
0.0827518
0.0790046
0.0778293
0.0846813
0.0806295
0.0685939
0.0572273
0.0473805
0.0392205
0.0325287
0.0270009
0.0226825
0.0215929
0.0285126
-0.428594
-0.438349
-0.452533
-0.47245
-0.498339
-0.525783
-0.560023
-0.59567
-0.622783
-0.634611
-0.362462
-0.374478
-0.389398
-0.40815
-0.431504
-0.459028
-0.490397
-0.522195
-0.547962
-0.557645
-0.283719
-0.298001
-0.312972
-0.329602
-0.349872
-0.374866
-0.403058
-0.431395
-0.45431
-0.461668
-0.202034
-0.216512
-0.229178
-0.242228
-0.25886
-0.280487
-0.30556
-0.330498
-0.350043
-0.354927
-0.123718
-0.136697
-0.145912
-0.15524
-0.168393
-0.186473
-0.207914
-0.229156
-0.245196
-0.247289
-0.054425
-0.0641689
-0.069933
-0.0761282
-0.0859707
-0.100286
-0.117661
-0.13477
-0.14699
-0.146138
0.00476959
-0.002466
-0.0063764
-0.00991786
-0.0162657
-0.0264614
-0.0394206
-0.0522003
-0.0605895
-0.0570291
0.0497139
0.0447509
0.0422654
0.0417604
0.0392621
0.0332644
0.0246531
0.016108
0.0114249
0.017457
0.0879845
0.0820491
0.0816892
0.0840001
0.0842996
0.0813174
0.0759008
0.0706032
0.0688928
0.0767421
0.133671
0.126659
0.123817
0.124119
0.123386
0.120417
0.116021
0.112569
0.112824
0.121463
0.950792
-0.0122238
0.684499
0.42697
0.355097
0.342818
0.314404
0.301081
0.244156
0.1923
0.937795
-0.0168886
0.672762
0.434042
0.355622
0.343306
0.315892
0.30593
0.2495
0.198685
0.924539
-0.0205169
0.66031
0.439765
0.356788
0.344513
0.318007
0.312139
0.264682
0.207114
0.911613
-0.0237378
0.647835
0.443605
0.357448
0.345418
0.319539
0.314438
0.272018
0.212608
0.899157
-0.0267867
0.635797
0.445688
0.357548
0.346682
0.321005
0.316215
0.280409
0.217135
0.887315
-0.0297031
0.624743
0.44637
0.357432
0.348369
0.323048
0.317623
0.280328
0.216304
0.876245
-0.0325933
0.615228
0.445786
0.357148
0.350019
0.325511
0.319161
0.279519
0.207764
0.866052
-0.0356307
0.607342
0.444084
0.356591
0.351411
0.327688
0.319611
0.276304
0.192288
0.85685
-0.0391362
0.600911
0.441421
0.355613
0.352117
0.328693
0.31762
0.269881
0.169337
0.848716
-0.0435401
0.595296
0.43777
0.354475
0.351946
0.328136
0.312809
0.25749
0.136967
1.05095
0.0396025
0.678815
0.393553
0.350986
0.330599
0.297794
0.279011
0.220145
0.178632
1.01553
0.0275075
0.678767
0.400949
0.351813
0.332224
0.298583
0.278936
0.215902
0.165756
0.998094
0.0161527
0.68039
0.407457
0.352295
0.334366
0.300795
0.281755
0.217008
0.164855
0.981085
0.00533705
0.68425
0.41594
0.354233
0.338722
0.307216
0.286089
0.22
0.160648
0.964545
-0.00501249
0.68819
0.421068
0.354976
0.341267
0.310848
0.290351
0.229203
0.162632
0.12237
0.103554
0.0700519
0.0176939
-0.0507806
-0.128954
-0.208755
-0.286769
-0.361901
-0.423604
0.104614
0.0918726
0.0665526
0.0183454
-0.0473882
-0.123881
-0.203465
-0.282334
-0.358912
-0.422345
0.106619
0.0912828
0.0666785
0.0217778
-0.0431194
-0.11879
-0.198556
-0.278692
-0.356834
-0.421977
0.11236
0.0863633
0.0588996
0.0171745
-0.043416
-0.115542
-0.194939
-0.276389
-0.355922
-0.422534
0.134197
0.0903355
0.0493898
0.00741702
-0.0479562
-0.115505
-0.193525
-0.275695
-0.356237
-0.423998
)
;

boundaryField
{
    left
    {
        type            zeroGradient;
    }
    right
    {
        type            fixedValue;
        value           uniform 0;
    }
    down
    {
        type            zeroGradient;
    }
    up
    {
        type            zeroGradient;
    }
    cylinder
    {
        type            zeroGradient;
    }
    defaultFaces
    {
        type            empty;
    }
}


// ************************************************************************* //
