/*--------------------------------*- C++ -*----------------------------------*\
| =========                 |                                                 |
| \\      /  F ield         | OpenFOAM: The Open Source CFD Toolbox           |
|  \\    /   O peration     | Version:  2406                                  |
|   \\  /    A nd           | Website:  www.openfoam.com                      |
|    \\/     M anipulation  |                                                 |
\*---------------------------------------------------------------------------*/
FoamFile
{
    version     2.0;
    format      ascii;
    arch        "LSB;label=32;scalar=64";
    class       surfaceScalarField;
    location    "0.1";
    object      phi;
}
// * * * * * * * * * * * * * * * * * * * * * * * * * * * * * * * * * * * * * //

dimensions      [0 3 -1 0 0 0 0];

oriented        oriented;

internalField   nonuniform List<scalar> 
3485
(
0.00136022
-0.000827184
-0.000533036
0.00632732
-0.0139162
0.00894913
0.0135528
-0.0250549
0.0178295
0.022346
-0.0313945
0.0226014
0.0323019
-0.0343671
0.0244112
0.0434579
-0.035578
0.024422
0.0561003
-0.0368971
0.0242547
0.0701751
-0.0395264
0.0254516
0.087234
-0.047669
0.0306101
-0.0563126
0.0381057
0.105441
0.00174321
-0.00257039
0.00715151
-0.0193245
0.0148137
-0.0327171
0.0237228
-0.0403037
0.0333376
-0.0439819
0.0436021
-0.0458425
0.054695
-0.0479899
0.0672497
-0.0520811
0.0815558
-0.0619751
-0.0747776
0.100021
0.00203634
-0.00460674
0.00754807
-0.0248362
0.0150064
-0.0401754
0.0233235
-0.0486208
0.032017
-0.0526754
0.0410477
-0.0548732
0.0505726
-0.0575149
0.0612165
-0.062725
0.0733931
-0.0741517
-0.0906521
0.0892676
0.00229707
-0.00690381
0.00771113
-0.0302503
0.0146943
-0.0471586
0.0222193
-0.0561458
0.0299129
-0.0603691
0.0377755
-0.0627357
0.0459508
-0.0656902
0.0549843
-0.0717585
0.0654636
-0.084631
-0.103546
0.078357
0.00253197
-0.00943577
0.00773972
-0.0354581
0.0141575
-0.0535764
0.020895
-0.0628832
0.0277249
-0.067199
0.0347348
-0.0697456
0.0420589
-0.0730142
0.0501333
-0.0798329
0.0594857
-0.0939834
-0.114639
0.0705793
0.00276255
-0.0121983
0.00777241
-0.0404679
0.0136725
-0.0594765
0.019724
-0.0689347
0.0258084
-0.0732834
0.0320299
-0.0759671
0.0384705
-0.0794548
0.0454738
-0.0868362
0.053391
-0.101901
-0.123684
0.0624361
0.00291343
-0.0151118
0.0076545
-0.045209
0.0130072
-0.0648292
0.0184176
-0.0743451
0.0238791
-0.0787449
0.0295276
-0.0816156
0.0354047
-0.0853319
0.0417721
-0.0932036
0.0488577
-0.108986
-0.131504
0.056677
0.00301568
-0.0181274
0.00747389
-0.0496672
0.0122882
-0.0696436
0.017077
-0.0791338
0.0218996
-0.0835676
0.0269058
-0.0866218
0.0320982
-0.0905243
0.0377352
-0.0988406
0.0440341
-0.115285
-0.13846
0.0509906
0.0029516
-0.021079
0.0069528
-0.0536684
0.0110837
-0.0737745
0.0151117
-0.0831617
0.0191181
-0.087574
0.0232997
-0.0908033
0.0277255
-0.0949502
0.0327389
-0.103854
0.0384699
-0.121016
-0.144609
0.0446191
0.00280242
-0.0238814
0.00627214
-0.0571381
0.00962364
-0.077126
0.0127365
-0.0862746
0.0156744
-0.090512
0.0186809
-0.0938098
0.0219346
-0.098204
0.0258806
-0.1078
0.0305166
-0.125652
0.0351772
-0.14927
5.77616e-05
0.00207463
-0.00213239
0.00043242
0.00205047
-0.00242513
0.00149771
0.000723418
-0.00178871
0.00297575
-0.000628579
-0.000849457
0.00463092
-0.0014814
-0.000173768
0.00638928
-0.00212802
0.000369665
0.00827089
-0.00289123
0.00100962
0.0103665
-0.0040696
0.00197395
0.0128445
-0.00599468
0.00351677
-0.00895451
0.0159099
0.00588904
3.38221e-05
0.00204081
0.000378764
0.00170553
0.00152032
-0.000418136
0.0030294
-0.00213766
0.00469846
-0.00315046
0.00647496
-0.00390453
0.00837794
-0.00479421
0.0105013
-0.00619293
0.013031
-0.0085244
-0.012114
0.0161905
1.79143e-05
0.00202289
0.000409348
0.0013141
0.0016288
-0.00163759
0.00318425
-0.00369311
0.00489418
-0.00486039
0.00671172
-0.00572206
0.00865162
-0.0067341
0.0108056
-0.00834693
0.0133771
-0.0110959
-0.0153562
0.0166193
6.76517e-05
0.00195524
0.000515959
0.000865788
0.00179281
-0.00291444
0.00339036
-0.00529067
0.00514482
-0.00661485
0.00700961
-0.00758685
0.00899248
-0.00871697
0.011178
-0.0105325
0.0137854
-0.0137032
-0.0186851
0.0171142
0.000125299
0.00182994
0.000644259
0.000346829
0.00200334
-0.00427352
0.00365276
-0.00694009
0.00544443
-0.00840651
0.00734132
-0.00948375
0.00934275
-0.0107184
0.0115028
-0.0126925
0.0140336
-0.016234
-0.021926
0.0172745
0.000157039
0.0016729
0.000842383
-0.000338516
0.00232256
-0.00575369
0.00403828
-0.00865581
0.00585166
-0.0102199
0.00774462
-0.0113767
0.00972633
-0.0127001
0.0118004
-0.0147666
0.0141808
-0.0186144
-0.0250967
0.0173516
-1.21728e-05
0.00168508
0.00122276
-0.00157345
0.00296156
-0.00749249
0.00487359
-0.0105678
0.00676161
-0.0121079
0.00858746
-0.0132026
0.0104475
-0.0145602
0.0123535
-0.0166727
0.0144686
-0.0207295
-0.0281098
0.0174816
8.54335e-05
0.00159964
0.0018851
-0.00337312
0.00413419
-0.00974158
0.00662431
-0.013058
0.00897592
-0.0144595
0.0109037
-0.0151303
0.0125895
-0.016246
0.0142702
-0.0183534
0.015897
-0.0223563
-0.0302913
0.0180786
0.000391976
0.00120767
0.00271219
-0.00569333
0.00600808
-0.0130375
0.00982431
-0.0168742
0.0136689
-0.0183042
0.0169047
-0.018366
0.0192185
-0.0185597
0.0212148
-0.0203498
0.0234969
-0.0246384
-0.0341134
0.0273189
0.000674633
0.00393042
0.00872242
0.0144496
0.0205566
0.0266126
0.0323075
0.0374094
0.0433811
0.0473735
0.064697
-0.246138
0.19735
0.114212
-0.272963
0.223449
0.138822
-0.207397
0.182787
0.15339
-0.15966
0.145092
0.160046
-0.118084
0.111428
0.162888
-0.0870898
0.084248
0.163002
-0.0616235
0.0615099
0.161668
-0.0404134
0.0417475
0.159713
-0.0235092
0.0254638
-0.00717517
0.00934609
0.0638603
-0.293807
0.111532
-0.320635
0.136676
-0.232541
0.151791
-0.174775
0.159264
-0.125557
0.162659
-0.0904847
0.163232
-0.0621961
0.162229
-0.0394102
0.160507
-0.0217877
-0.00518489
0.0612779
-0.338466
0.106304
-0.365661
0.132536
-0.258773
0.148319
-0.190559
0.157002
-0.13424
0.161242
-0.0947252
0.162613
-0.0635669
0.162224
-0.0390214
0.160935
-0.0204987
-0.00353375
0.0580476
-0.379399
0.0987751
-0.406389
0.126627
-0.286625
0.143301
-0.207232
0.153347
-0.144286
0.158694
-0.100073
0.161131
-0.0660039
0.1616
-0.0394897
0.161027
-0.0199261
-0.00237394
0.0537231
-0.415848
0.0902714
-0.442937
0.119081
-0.315434
0.13704
-0.225191
0.148599
-0.155845
0.155334
-0.106808
0.159061
-0.0697314
0.160673
-0.0411018
0.161063
-0.0203162
-0.00182148
0.0504714
-0.448968
0.0832709
-0.475736
0.112241
-0.344404
0.131405
-0.244355
0.144301
-0.168742
0.152403
-0.11491
0.15747
-0.0747983
0.160436
-0.0440676
0.162023
-0.0219036
-0.00209348
0.0489804
-0.480467
0.0813247
-0.508081
0.110429
-0.373509
0.130455
-0.264381
0.144227
-0.182513
0.153348
-0.124031
0.159534
-0.0809835
0.163793
-0.0483274
0.166564
-0.0246738
-0.00333942
0.0466358
-0.509024
0.0831164
-0.544561
0.113457
-0.403849
0.133944
-0.284868
0.148296
-0.196866
0.158369
-0.134104
0.165652
-0.0882657
0.171123
-0.053799
0.174999
-0.0285499
-0.00577579
0.0630258
-0.544731
0.0988851
-0.58042
0.132043
-0.437007
0.152862
-0.305687
0.167174
-0.211177
0.17737
-0.1443
0.184924
-0.0958201
0.1906
-0.0594753
0.195179
-0.0331287
-0.00953969
0.047351
-0.544708
0.100506
-0.633576
0.137552
-0.474053
0.162457
-0.330592
0.179706
-0.228426
0.192333
-0.156927
0.202026
-0.105513
0.20979
-0.0672398
0.216237
-0.0395756
-0.0149699
0.475073
-0.638257
-0.381524
0.448022
-0.606525
0.434055
-0.460086
0.421559
-0.318096
0.410887
-0.217754
0.403265
-0.149305
0.397749
-0.0999976
0.394961
-0.0644519
0.393918
-0.0385323
-0.0154017
0.502095
-0.617306
-0.523045
0.52053
-0.624959
0.50459
-0.444147
0.486322
-0.299829
0.471174
-0.202606
0.460066
-0.138197
0.452382
-0.0923135
0.448297
-0.0603673
0.445804
-0.0360391
-0.0144403
0.64449
-0.575527
-0.686269
0.601538
-0.582008
0.573014
-0.415622
0.546842
-0.273657
0.525789
-0.181553
0.510195
-0.122602
0.49934
-0.0814592
0.492245
-0.0532722
0.488329
-0.0321226
-0.0134784
0.713775
-0.510256
-0.779046
0.658511
-0.526743
0.614487
-0.371599
0.579254
-0.238424
0.552922
-0.155221
0.534089
-0.103769
0.521206
-0.0685762
0.512814
-0.0448795
0.508279
-0.0275876
-0.0122342
0.778793
-0.452882
-0.836168
0.700741
-0.448691
0.641442
-0.3123
0.598496
-0.195478
0.567835
-0.12456
0.546442
-0.0823757
0.531902
-0.0540365
0.522269
-0.0352466
0.517191
-0.0225095
-0.0109852
0.812491
-0.399625
-0.865748
0.722868
-0.359068
0.652124
-0.241556
0.60292
-0.146274
0.568949
-0.090589
0.545826
-0.0592534
0.530424
-0.0386348
0.52033
-0.0251521
0.515127
-0.017307
-0.00961129
0.813654
-0.332664
-0.880615
0.710604
-0.256017
0.632925
-0.163877
0.581508
-0.0948573
0.547204
-0.056285
0.524287
-0.0363361
0.509181
-0.023529
0.499308
-0.0152782
0.493432
-0.0114319
-0.00725614
0.74971
-0.220312
-0.862063
0.635248
-0.141555
0.558465
-0.087095
0.510877
-0.0472693
0.480465
-0.0258729
0.460443
-0.0163137
0.447296
-0.0103824
0.438679
-0.006661
0.432924
-0.00567615
-0.00436056
0.55977
-0.0745706
-0.705511
0.457903
-0.0396885
0.396466
-0.0256576
0.361603
-0.0124069
0.341221
-0.00549082
0.328246
-0.00333844
0.319957
-0.00209312
0.314651
-0.00135525
0.310376
-0.00140173
-0.00145074
0.213556
-0.288127
0.173868
0.14821
0.135803
0.130312
0.126974
0.124881
0.123526
0.122124
0.528122
0.0386409
-0.531586
0.519661
0.0530809
0.505358
0.0652931
0.486288
0.075747
0.463763
0.084961
0.442114
0.0922281
0.421841
0.09863
0.407376
0.103733
0.389356
0.118041
0.113272
0.672826
0.0343557
-0.668541
0.67238
0.0535267
0.666074
0.0715995
0.654913
0.0869079
0.640682
0.0991921
0.623363
0.109547
0.599759
0.122234
0.571478
0.132014
0.545374
0.144145
0.135601
0.727021
0.0277641
-0.720429
0.732206
0.0483412
0.736003
0.0678027
0.737553
0.0853584
0.736117
0.100628
0.731381
0.114283
0.722005
0.13161
0.714066
0.139953
0.700719
0.157492
0.150051
0.733672
0.0185087
-0.724416
0.742522
0.0394912
0.750839
0.0594851
0.759352
0.0768461
0.766163
0.0938162
0.770655
0.109791
0.775742
0.126523
0.77835
0.137345
0.78193
0.153912
0.152935
0.720905
0.0109501
-0.713347
0.730116
0.0302801
0.740893
0.0487087
0.752542
0.065197
0.764505
0.0818535
0.776634
0.0976615
0.79067
0.112488
0.804812
0.123202
0.821299
0.137425
0.138067
0.707539
0.00555159
-0.702141
0.715865
0.0219541
0.726989
0.0375848
0.740105
0.0520808
0.755167
0.0667922
0.772925
0.079903
0.79304
0.0923726
0.815484
0.100758
0.84007
0.112839
0.112388
0.690258
0.00179829
-0.686505
0.697943
0.0142689
0.709264
0.026264
0.72373
0.0376151
0.74174
0.0487817
0.763214
0.0584296
0.787995
0.0675917
0.815744
0.0730083
0.845806
0.0827774
0.0775799
0.644793
-0.000636143
-0.642359
0.652013
0.00704946
0.663902
0.0143747
0.680102
0.0214156
0.700778
0.0281051
0.725344
0.0338641
0.753909
0.0390262
0.785051
0.0418672
0.821923
0.0459052
0.0374399
0.508425
-0.0011442
-0.507917
0.513995
0.00147964
0.524509
0.00386047
0.539707
0.00621794
0.559463
0.00834948
0.582956
0.0103707
0.609983
0.0119996
0.639136
0.0127141
0.673669
0.0113722
0.00559798
0.216165
-0.217309
0.217644
0.221505
0.227723
0.236072
0.246443
0.258442
0.271157
0.282529
0.0729883
0.0913698
-0.0655376
-0.0988205
0.0546877
0.0701948
-0.0518942
0.0421938
0.0567203
-0.0442265
0.0328387
0.0503844
-0.0410293
0.0250642
0.0485633
-0.0407888
0.0181395
0.0486986
-0.0417739
0.0117543
0.0481867
-0.0418015
0.00618748
0.0450868
-0.03952
0.00198952
0.0372566
-0.0330586
0.0202861
-0.0182966
0.0908798
0.107341
-0.106851
0.0738386
0.087236
0.0586393
0.0719196
0.0457817
0.0632421
0.0347703
0.0595747
0.0250707
0.0583982
0.0162921
0.0569653
0.00863093
0.052748
0.00281941
0.0430681
0.0231055
0.084894
0.119872
-0.0974256
0.0710666
0.101063
0.0579749
0.0850114
0.0461705
0.0750465
0.0354855
0.0702597
0.0257064
0.0681772
0.0167242
0.0659476
0.00879859
0.0606736
0.00278798
0.0490787
0.0258935
0.0712109
0.13079
-0.0821283
0.0601231
0.112151
0.0497664
0.0953681
0.0401521
0.0846608
0.0310732
0.0793386
0.0225055
0.0767448
0.014533
0.0739201
0.00747703
0.0677296
0.00223195
0.0543238
0.0281255
0.054654
0.139772
-0.0636361
0.0462672
0.120538
0.0386462
0.102989
0.0313924
0.0919147
0.0242675
0.0864635
0.017399
0.0836133
0.0109755
0.0803436
0.00532536
0.0733797
0.00135749
0.0582916
0.029483
0.037001
0.146264
-0.043493
0.0314196
0.126119
0.0264099
0.107999
0.0214514
0.0968731
0.0163869
0.091528
0.0114675
0.0885328
0.006887
0.0849241
0.00292878
0.077338
0.000441823
0.0607786
0.0299248
0.0203362
0.150446
-0.024518
0.0172707
0.129185
0.014553
0.110716
0.0116712
0.099755
0.00856366
0.0946355
0.00556623
0.0915302
0.0027898
0.0877005
0.000499423
0.0796283
-0.000475859
0.0617539
0.0294489
0.00513335
0.152334
-0.00702214
0.00430544
0.130013
0.00351732
0.111505
0.00245082
0.100821
0.00117604
0.0959103
2.63428e-05
0.0926799
-0.00102487
0.0887517
-0.00164335
0.0802468
-0.00124588
0.0613564
0.0282031
-0.00852417
0.15188
0.00897858
-0.00728846
0.128777
-0.00626742
0.110484
-0.00568388
0.100238
-0.00531434
0.0955408
-0.00487278
0.0922383
-0.00433209
0.088211
-0.00346805
0.0793828
-0.00189529
0.0597836
0.0263078
-0.020565
0.0231749
-0.01744
-0.0147563
-0.0127224
-0.0109914
-0.00926505
-0.00732858
-0.00507184
-0.00242632
0.030698
0.0212826
-0.0356912
-0.0162893
0.0262654
0.0187142
-0.0142816
0.0222293
0.0169173
-0.0128812
0.018424
0.0158942
-0.0120889
0.0147373
0.0154294
-0.0117428
0.0111231
0.0152405
-0.0116262
0.00762508
0.0149454
-0.0114474
0.00437692
0.0140891
-0.0108409
0.00162283
0.0121265
-0.00937243
0.00743535
-0.00581251
0.0311354
0.0264202
-0.036273
0.0266022
0.0232474
0.0224962
0.0210233
0.0186307
0.0197597
0.0148901
0.01917
0.0112303
0.0189003
0.00769342
0.0184822
0.00440512
0.0173774
0.00161914
0.0149125
0.00905449
0.0313063
0.0316575
-0.0365435
0.0267037
0.02785
0.0225532
0.0251738
0.018648
0.0236649
0.0148723
0.0229457
0.0111897
0.0225829
0.00764453
0.0220274
0.00435714
0.0206648
0.00158765
0.017682
0.0106421
0.0309883
0.0369497
-0.0362805
0.0263714
0.0324668
0.0222288
0.0293164
0.018334
0.0275598
0.0145777
0.0267019
0.0109353
0.0262253
0.00744883
0.0255138
0.00422807
0.0238855
0.0015328
0.0203772
0.0121749
0.0299831
0.0421707
-0.0352041
0.0254735
0.0369765
0.0214329
0.0333569
0.0176259
0.0313668
0.013961
0.0303669
0.0104324
0.0297539
0.00707804
0.0288682
0.00399105
0.0269725
0.00143248
0.0229358
0.0136074
0.0276906
0.046997
-0.0325169
0.0235741
0.0410929
0.0198529
0.0370782
0.0162953
0.0349244
0.0128693
0.0337929
0.00959797
0.0330252
0.00649706
0.0319691
0.00363871
0.0298309
0.0012905
0.025284
0.0148979
0.025994
0.0526673
-0.0316644
0.0216663
0.0454207
0.0180516
0.0406929
0.0147096
0.0382663
0.0115739
0.0369286
0.00862731
0.0359718
0.00581878
0.0347776
0.00320603
0.0324436
0.001094
0.027396
0.0159919
0.0196331
0.0558615
-0.0228273
0.016828
0.0482258
0.0144431
0.0430778
0.0121221
0.0405873
0.00981829
0.0392324
0.00747669
0.0383134
0.00506622
0.0371881
0.00273413
0.0347757
0.00086881
0.0292614
0.0168607
0.0205481
0.062758
-0.0274446
0.0164805
0.0522933
0.0137326
0.0458257
0.0119509
0.0423691
0.0101484
0.0410349
0.00781335
0.0406485
0.00524256
0.0397589
0.00277649
0.0372418
0.000821593
0.0312163
0.0176823
0.00431874
-0.00709831
0.00471784
0.00631704
0.00765682
0.00790292
0.00677752
0.00473487
0.00245662
0.000614287
0.184504
0.335026
-0.32154
0.177405
0.22059
-0.21349
0.174353
0.140728
-0.137675
0.17269
0.125717
-0.124054
0.170311
0.13315
-0.130771
0.165236
0.143966
-0.138891
0.1533
0.174387
-0.162451
0.133353
0.211181
-0.191234
0.0880773
0.283253
-0.237977
0.302137
-0.24975
0.18314
0.349876
0.175299
0.22843
0.172157
0.14387
0.170146
0.127728
0.168075
0.135221
0.162651
0.14939
0.150925
0.186112
0.130768
0.231339
0.0871602
0.32686
0.353024
0.181408
0.366457
0.172488
0.237351
0.169033
0.147325
0.166461
0.130299
0.164393
0.137289
0.158405
0.155379
0.146766
0.197751
0.125899
0.252206
0.0854344
0.367325
0.401915
0.179476
0.384971
0.168993
0.247834
0.164899
0.151419
0.16173
0.133469
0.159463
0.139556
0.152747
0.162094
0.141002
0.209496
0.119486
0.273722
0.0832298
0.403581
0.448864
0.17756
0.4054
0.164928
0.260466
0.15982
0.156526
0.156397
0.136893
0.153637
0.142315
0.145806
0.169925
0.133522
0.22178
0.11157
0.295674
0.079696
0.435455
0.493356
0.175907
0.427484
0.160937
0.275436
0.15525
0.162213
0.151714
0.140428
0.147511
0.146518
0.13827
0.179166
0.124797
0.235253
0.102182
0.31829
0.0730723
0.464565
0.533911
0.175549
0.449925
0.159896
0.291088
0.154044
0.168066
0.14931
0.145161
0.143848
0.151981
0.134037
0.188976
0.120014
0.249277
0.0978966
0.340407
0.0756439
0.486818
0.577891
0.178162
0.469752
0.162144
0.307106
0.156568
0.173643
0.150789
0.15094
0.143363
0.159407
0.131344
0.200995
0.114255
0.266366
0.0899666
0.364695
0.0528906
0.523894
0.607954
0.185478
0.482264
0.173336
0.319247
0.170774
0.176205
0.165041
0.156673
0.156965
0.167483
0.144519
0.213441
0.128182
0.282703
0.10236
0.390518
0.0856047
0.540648
0.666114
0.197441
0.482813
0.188353
0.328336
0.185917
0.178641
0.178219
0.164371
0.16763
0.178072
0.151916
0.229155
0.129637
0.304981
0.0992617
0.420893
0.0424806
0.59743
0.701496
0.350269
0.434554
0.358654
0.319951
0.364862
0.172434
0.371431
0.157802
0.376768
0.172735
0.383659
0.222264
0.392322
0.296318
0.394838
0.418377
0.424827
0.567441
0.647724
0.478599
0.378734
0.35783
0.404975
0.29371
0.41563
0.161779
0.426999
0.146433
0.437369
0.162365
0.451134
0.208499
0.466323
0.281129
0.498185
0.386515
0.509845
0.555781
0.618297
0.539272
0.39382
0.266021
0.439338
0.248191
0.459392
0.141725
0.475816
0.130009
0.491626
0.146555
0.511532
0.188593
0.536832
0.255829
0.571945
0.351402
0.607584
0.520142
0.575347
0.650534
0.39708
0.170951
0.454277
0.190994
0.48166
0.114342
0.501626
0.110043
0.521535
0.126646
0.546701
0.163427
0.578822
0.223708
0.625553
0.304672
0.673789
0.471906
0.530437
0.718698
0.394224
0.0787369
0.459073
0.126146
0.492597
0.0808184
0.51481
0.0878297
0.537642
0.103814
0.566385
0.134684
0.604139
0.185954
0.655548
0.253263
0.725829
0.401624
0.470883
0.785383
0.38831
-0.00756316
0.455703
0.0587525
0.492678
0.0438436
0.515815
0.0646924
0.54058
0.0790487
0.572045
0.103219
0.614628
0.143371
0.66944
0.198452
0.757572
0.313492
0.394271
0.834184
0.376796
-0.0823488
0.43872
-0.00317136
0.474407
0.00815614
0.496876
0.0422233
0.522302
0.0536231
0.555169
0.0703522
0.600558
0.0979823
0.658719
0.14029
0.756893
0.215318
0.296236
0.854928
0.34876
-0.129098
0.391825
-0.0462365
0.41769
-0.0177086
0.436833
0.0230802
0.46103
0.0294261
0.492864
0.0385182
0.5375
0.0533464
0.596552
0.0812385
0.693865
0.118005
0.181287
0.808814
0.288843
-0.115931
0.292771
-0.0501644
0.297386
-0.0223239
0.311247
0.00921892
0.330737
0.00993645
0.356517
0.0127384
0.392697
0.0171658
0.445255
0.0286804
0.524296
0.0389642
0.0652448
0.640338
0.186079
0.135915
0.113591
0.12281
0.132746
0.145485
0.162651
0.191331
0.230295
0.29554
0.492625
-0.112847
0.492254
-0.106479
0.492851
-0.0980232
0.496812
-0.0860887
0.504368
-0.0711928
0.5139
-0.053025
0.522142
-0.03276
0.52811
-0.0129895
0.531171
0.00591756
0.0227597
0.553582
-0.127157
0.563107
-0.116003
0.571871
-0.106787
0.583964
-0.0981815
0.599748
-0.0869767
0.617549
-0.0708258
0.635137
-0.0503482
0.649891
-0.0277434
0.661045
-0.00523705
0.0152644
0.652763
-0.129386
0.656437
-0.119677
0.660502
-0.110853
0.664785
-0.102465
0.67037
-0.0925614
0.678333
-0.0787894
0.688697
-0.0607122
0.70019
-0.0392363
0.711342
-0.016389
0.00617736
0.71413
-0.124818
0.709922
-0.115468
0.704687
-0.105618
0.699823
-0.0976008
0.696783
-0.089522
0.696876
-0.0788823
0.70034
-0.0641764
0.70676
-0.0456562
0.71516
-0.0247884
-0.00307952
0.772696
-0.112131
0.758046
-0.100819
0.741696
-0.0892682
0.72689
-0.0827945
0.715817
-0.0784491
0.708455
-0.0715202
0.704819
-0.06054
0.704781
-0.0456179
0.707837
-0.0278451
-0.00858879
0.81219
-0.0901363
0.788549
-0.0771782
0.764746
-0.0654649
0.743334
-0.0613828
0.726396
-0.0615107
0.713996
-0.05912
0.705555
-0.0520994
0.700872
-0.040935
0.699813
-0.0267861
-0.0109162
0.824535
-0.0597437
0.796008
-0.0486515
0.769542
-0.0389985
0.745927
-0.037768
0.726134
-0.0417178
0.710565
-0.0435507
0.698798
-0.0403325
0.690784
-0.0329209
0.686648
-0.0226503
-0.010773
0.777682
-0.0286118
0.752039
-0.0230079
0.731085
-0.0180444
0.711894
-0.0185772
0.693497
-0.023321
0.676804
-0.0268575
0.662618
-0.026147
0.651713
-0.0220158
0.644789
-0.0157262
-0.00834291
0.62021
-0.00848343
0.604631
-0.0074293
0.592967
-0.00637976
0.581159
-0.00677014
0.566711
-0.00887292
0.550477
-0.0106235
0.534881
-0.0105511
0.521763
-0.00889705
0.512525
-0.00648883
-0.00373504
0.287056
0.279627
0.273247
0.266477
0.257604
0.246981
0.23643
0.227533
0.221044
0.00182047
0.027376
-0.0291965
0.00377558
0.0683885
-0.0703436
0.00514447
0.093985
-0.0953539
0.00581487
0.105769
-0.106439
0.00610152
0.109216
-0.109503
0.0060049
0.110601
-0.110505
0.00560138
0.107689
-0.107285
0.0050464
0.100641
-0.100086
0.00447336
0.0889327
-0.0883596
0.0731202
0.00393275
-0.0725796
0.00256824
0.0248078
0.00623418
0.0647225
0.009873
0.0903462
0.0128885
0.102753
0.0148406
0.107264
0.0172447
0.108197
0.0192739
0.10566
0.0204284
0.0994867
0.0203559
0.0890052
0.0750002
0.0184759
0.00287701
0.0219308
0.0077048
0.0598947
0.0130958
0.0849552
0.0182332
0.0976159
0.022779
0.102718
0.0272613
0.103715
0.0313155
0.101605
0.0342804
0.0965218
0.0353694
0.0879162
0.0767147
0.0336549
0.00295867
0.0189721
0.00874934
0.0541041
0.0158199
0.0778847
0.023123
0.0903127
0.0302608
0.0955806
0.037255
0.0967207
0.0437715
0.0950889
0.0491362
0.0911572
0.0522892
0.0847632
0.0769231
0.0520807
0.00275461
0.0162175
0.00903549
0.0478232
0.0172856
0.0696345
0.0262872
0.0813111
0.0355018
0.086366
0.0447156
0.0875069
0.0535177
0.0862869
0.0612506
0.0834243
0.0668462
0.0791676
0.0744014
0.0693679
0.00246972
0.0137478
0.00891906
0.0413739
0.0178814
0.0606722
0.0280465
0.071146
0.0387418
0.0756707
0.0495964
0.0766524
0.0601407
0.0757425
0.0697494
0.0738156
0.0774225
0.0714944
0.0692052
0.0826187
0.00212329
0.0116245
0.00838062
0.0351165
0.0174628
0.05159
0.028034
0.0605748
0.0393293
0.0643754
0.0509163
0.0650654
0.0623488
0.0643099
0.0730562
0.0631082
0.0821145
0.0624362
0.0622312
0.0890885
0.00183873
0.00978577
0.00773473
0.0292205
0.0165386
0.0427861
0.0269482
0.0501653
0.0381514
0.0531722
0.0496622
0.0535546
0.0610844
0.0528878
0.0719976
0.052195
0.0817021
0.0527316
0.0542263
0.0897071
0.0015752
0.00821057
0.00691138
0.0238843
0.0150405
0.034657
0.0247614
0.0404443
0.0352803
0.0426533
0.0461484
0.0426865
0.0570723
0.0419639
0.0677843
0.041483
0.0778874
0.0426285
0.0450362
0.0870774
0.00139773
0.00681284
0.00608636
0.0191957
0.0132872
0.0274561
0.0220038
0.0317278
0.0315547
0.0331024
0.0415905
0.0326507
0.0519832
0.0315712
0.0625294
0.0309368
0.0732866
0.0318714
0.0343229
0.0839998
0.00104397
0.00576887
0.00469036
0.0155493
0.0102891
0.0218574
0.0169722
0.0250447
0.0240777
0.0259969
0.0311729
0.0255556
0.0380271
0.024717
0.0444528
0.0245111
0.0507117
0.0256124
0.0285372
0.0564975
0.000876345
0.00489253
0.00380812
0.0126175
0.00822985
0.0174356
0.0134368
0.0198377
0.0188845
0.0205492
0.024156
0.0202841
0.0289713
0.0199016
0.0333334
0.0201491
0.0376358
0.0213101
0.0234947
0.0426783
0.000732324
0.0041602
0.0031147
0.0102352
0.00664454
0.0139058
0.0107467
0.0157356
0.0149915
0.0163043
0.0190747
0.0162009
0.0228904
0.0160859
0.0266189
0.0164206
0.0305827
0.0173462
0.018956
0.0351214
0.000582113
0.00357809
0.00252477
0.00829251
0.00538552
0.0110451
0.00870197
0.0124191
0.0121554
0.0128509
0.0155606
0.0127957
0.0189207
0.0127258
0.0224088
0.0129325
0.0262604
0.0134946
0.0144564
0.03076
0.000447213
0.00313088
0.00203799
0.00670174
0.00438618
0.00869687
0.00712546
0.00967986
0.01002
0.00995638
0.0129519
0.00986375
0.0159475
0.0097302
0.0191389
0.0097411
0.0227029
0.00993067
0.010285
0.0268743
0.000334595
0.00279628
0.001634
0.00540234
0.00356455
0.00676631
0.00584312
0.00740129
0.00828693
0.00751257
0.0108028
0.00734791
0.0134115
0.00712147
0.0162206
0.00693196
0.0193847
0.00676666
0.00656674
0.0231029
0.000247095
0.00254919
0.00130186
0.00434757
0.00288526
0.00518291
0.00479871
0.00548784
0.00688934
0.00542194
0.00906661
0.00517064
0.0113421
0.00484598
0.0138104
0.00446366
0.0166174
0.00395968
0.00323413
0.01995
0.000190711
0.00235848
0.00102868
0.00350961
0.00232305
0.00388854
0.00397279
0.0038381
0.00582145
0.00357329
0.00776501
0.00322708
0.00980885
0.00280214
0.0120422
0.00223035
0.0146119
0.00138992
0.000134686
0.0177114
0.00014243
0.00221605
0.000772127
0.00287991
0.00185648
0.00280419
0.00336757
0.002327
0.00509269
0.00184817
0.00691568
0.00140408
0.00884108
0.000876746
0.0109593
0.000112119
0.0134227
-0.00107345
-0.00287921
0.0164366
8.36561e-05
0.000538436
0.00155392
0.00303146
0.00470587
0.00647962
0.00836598
0.010452
0.0128954
0.0159052
0.0651248
0.14484
-0.153467
0.0764446
0.0831063
-0.0944261
0.0910338
0.00555272
-0.0201419
0.102668
-0.0280526
0.0164181
0.113217
-0.0380691
0.0275205
0.122542
-0.0364115
0.0270862
0.131044
-0.0307628
0.022261
0.138061
-0.0242454
0.0172289
0.144025
-0.0148974
0.00893302
-0.0072407
0.00272379
0.0685924
0.118926
0.0806152
0.0710835
0.0959668
-0.00979892
0.107248
-0.0393343
0.117374
-0.048195
0.125902
-0.0449388
0.133576
-0.0384366
0.139765
-0.0304352
0.14492
-0.0200518
-0.0108502
0.0634214
0.0906258
0.0808701
0.0536349
0.0988184
-0.0277473
0.111088
-0.0516037
0.121184
-0.0582908
0.129188
-0.0529428
0.136081
-0.0453303
0.141462
-0.0358157
0.145803
-0.0243929
-0.0135625
0.0629665
0.0584193
0.0856166
0.0309847
0.105448
-0.0475787
0.117842
-0.063998
0.127385
-0.0678333
0.13431
-0.0598681
0.13995
-0.0509706
0.14399
-0.0398557
0.147186
-0.027588
-0.0152646
0.0613956
0.0238981
0.0908158
0.00156442
0.112215
-0.0689775
0.124977
-0.0767601
0.133946
-0.0768021
0.139932
-0.0658548
0.144315
-0.0553536
0.147068
-0.0426081
0.149039
-0.0295589
-0.0159729
0.0607211
-0.0137201
0.0974524
-0.0351669
0.119834
-0.0913591
0.132767
-0.0896934
0.1409
-0.0849347
0.145916
-0.0708706
0.148952
-0.0583899
0.150455
-0.0441109
0.151198
-0.0303017
-0.0157958
0.0613158
-0.055086
0.104016
-0.077867
0.126418
-0.113761
0.139794
-0.10307
0.147174
-0.0923141
0.151333
-0.0750299
0.153224
-0.0602814
0.153646
-0.0445325
0.153401
-0.0300565
-0.0148618
0.0632856
-0.10066
0.109816
-0.124397
0.131986
-0.135931
0.145743
-0.116828
0.152437
-0.0990074
0.155928
-0.078521
0.156879
-0.0612321
0.156465
-0.0441192
0.155397
-0.0289883
-0.0133723
0.0642868
-0.14851
0.113315
-0.173426
0.136214
-0.158829
0.150305
-0.130919
0.156503
-0.105205
0.159503
-0.0815218
0.159782
-0.0615104
0.158767
-0.0431046
0.157146
-0.0273669
-0.0114594
0.0647453
0.114768
0.138726
0.152899
0.159122
0.161848
0.161848
0.16049
0.158587
0.0352526
0.0216252
-0.0568778
0.0278138
0.00743878
0.026062
0.00175184
0.0279793
-0.0019173
0.0303027
-0.00232339
0.0324528
-0.00215013
0.0340108
-0.00155796
0.0353815
-0.0013707
0.0352883
9.32128e-05
0.000669805
0.0993278
0.0681065
-0.145809
0.0779222
0.0288443
0.0723855
0.00728858
0.0747668
-0.00429858
0.0790842
-0.00664085
0.0834875
-0.0065534
0.0870263
-0.00509677
0.0898959
-0.00424033
0.0907852
-0.000796071
0.000900428
0.133847
0.111794
-0.177534
0.107898
0.054793
0.102123
0.0130637
0.104861
-0.00703672
0.11064
-0.0124193
0.116621
-0.0125347
0.12153
-0.0100058
0.125188
-0.00789833
0.12691
-0.00251815
0.000409017
0.141597
0.138586
-0.16839
0.118895
0.0774951
0.113415
0.0185441
0.117511
-0.0111334
0.124542
-0.0194503
0.131436
-0.0194278
0.137209
-0.0157794
0.141589
-0.0122784
0.144294
-0.00522331
-0.000874829
0.132643
-0.147524
0.115712
0.114114
0.119399
0.127469
0.135127
0.141609
0.146559
0.150269
0.00426441
6.56905e-06
-0.00427098
0.00517141
-0.000906997
0.00689254
-0.00172113
0.00995691
-0.00306437
0.0149028
-0.00494593
0.021949
-0.00704615
0.0309624
-0.00901339
0.0411278
-0.0101655
0.0501572
-0.0090294
-0.00672054
0.011852
-0.000337253
-0.0115082
0.0144775
-0.00353251
0.0195623
-0.00680589
0.028328
-0.0118301
0.0415543
-0.0181722
0.0592882
-0.0247801
0.0801591
-0.0298842
0.102606
-0.0326124
0.125484
-0.0319075
-0.0270456
0.018633
-0.00112663
-0.0178436
0.0226611
-0.00756062
0.0302535
-0.0143983
0.0425496
-0.0241262
0.0597229
-0.0353456
0.0812209
-0.0462781
0.105347
-0.0540105
0.129392
-0.056657
0.153707
-0.056223
-0.0508721
0.0248041
-0.00234455
-0.0235862
0.0298944
-0.0126509
0.0391039
-0.0236077
0.0529863
-0.0380087
0.0706556
-0.0530149
0.0904623
-0.0660847
0.110456
-0.074004
0.129929
-0.0761301
0.1486
-0.0748944
-0.0706616
0.0305098
-0.0289216
0.0363349
0.046382
0.0604541
0.0768071
0.0933411
0.108426
0.122003
0.134186
0.0444078
-0.0301035
0.0377055
-0.0520098
0.0383366
-0.0265138
0.0325851
0.0332565
-0.0242412
0.0293212
0.0283849
-0.0231906
0.0280622
0.0232334
-0.0231861
0.0283376
0.0176877
-0.0235345
0.0290801
0.011949
-0.023199
0.0289378
0.00649489
-0.0211545
0.0266086
0.00210742
-0.0163189
0.0207064
-0.00735763
0.00946505
0.0382929
-0.0240627
-0.0443337
0.0334027
-0.0216236
0.0290414
-0.0198799
0.0247466
-0.0188957
0.0201803
-0.0186197
0.0153041
-0.0186584
0.0103308
-0.0182256
0.00564569
-0.0164694
0.00186169
-0.0125349
-0.00549594
0.0349583
-0.0186286
-0.0403924
0.030171
-0.0168363
0.0258527
-0.0155615
0.0217499
-0.014793
0.0176079
-0.0144777
0.0133147
-0.0143651
0.00898697
-0.0138979
0.00492195
-0.0124044
0.00162801
-0.00924099
-0.00386793
0.0332489
-0.0131628
-0.0387146
0.0284684
-0.0120558
0.0241611
-0.0112543
0.0201123
-0.0107442
0.0161378
-0.0105032
0.0121378
-0.0103651
0.00817971
-0.00993983
0.00449356
-0.00871824
0.00149683
-0.00624426
-0.0023711
0.0317679
-0.00800144
-0.0369292
0.0271765
-0.00746449
0.0229888
-0.0070665
0.0190385
-0.00679396
0.015187
-0.00665161
0.0113629
-0.00654106
0.00762479
-0.00620173
0.00417292
-0.00526637
0.00137523
-0.00344658
-0.000995871
0.03057
-0.003093
-0.0354784
0.026155
-0.00304947
0.0220991
-0.00301061
0.0182566
-0.00295143
0.014506
-0.00290104
0.0107876
-0.00282269
0.00715549
-0.0025696
0.0038074
-0.00191828
0.00115695
-0.00079613
0.00016108
0.029978
0.00175252
-0.0348235
0.025635
0.00129356
0.0216413
0.000983088
0.0178514
0.000838454
0.0141452
0.000805186
0.0104644
0.000858029
0.00686391
0.00103093
0.00357696
0.00136868
0.00109893
0.0016819
0.00126001
0.0297659
0.0065701
-0.0345835
0.0254568
0.00560265
0.0215008
0.00493908
0.0177517
0.00458758
0.0140946
0.0044623
0.0104788
0.00447377
0.00697295
0.00453682
0.00382377
0.00451787
0.00138303
0.00412263
0.00264304
0.0299127
0.0113981
-0.0347407