/*--------------------------------*- C++ -*----------------------------------*\
| =========                 |                                                 |
| \\      /  F ield         | OpenFOAM: The Open Source CFD Toolbox           |
|  \\    /   O peration     | Version:  2406                                  |
|   \\  /    A nd           | Website:  www.openfoam.com                      |
|    \\/     M anipulation  |                                                 |
\*---------------------------------------------------------------------------*/
FoamFile
{
    version     2.0;
    format      ascii;
    arch        "LSB;label=32;scalar=64";
    class       volVectorField;
    location    "0.1";
    object      U;
}
// * * * * * * * * * * * * * * * * * * * * * * * * * * * * * * * * * * * * * //

dimensions      [0 1 -1 0 0 0 0];

internalField   nonuniform List<vector> 
1800
(
(0.00051272 0.00188055 0)
(0.113541 -0.0807948 8.4186e-20)
(0.230827 -0.136575 5.1315e-20)
(0.310936 -0.151699 1.79721e-19)
(0.364202 -0.137319 1.798e-19)
(0.40303 -0.10469 5.17811e-20)
(0.444137 -0.0676865 4.99991e-20)
(0.488756 -0.0421249 5.96606e-20)
(0.60407 -0.0365489 0)
(0.691263 -0.0558703 1.34873e-19)
(0.018409 -0.00943846 -4.05041e-20)
(0.175719 -0.112121 -1.86678e-19)
(0.322923 -0.174999 1.56069e-19)
(0.420481 -0.194643 4.82278e-20)
(0.482932 -0.185402 5.70919e-20)
(0.528592 -0.161799 -8.85429e-20)
(0.577543 -0.138693 6.12427e-20)
(0.639184 -0.132765 8.5318e-20)
(0.775414 -0.148252 4.55556e-20)
(0.896772 -0.203896 -1.37556e-19)
(0.0400711 -0.020693 4.8139e-20)
(0.243526 -0.134767 -2.60911e-19)
(0.416977 -0.200694 -2.3814e-19)
(0.524914 -0.221405 3.45903e-20)
(0.5889 -0.213874 -6.96998e-20)
(0.633244 -0.194187 -7.901e-20)
(0.681579 -0.176909 -1.66889e-19)
(0.75138 -0.178831 -6.86629e-20)
(0.893095 -0.205402 1.12192e-19)
(1.06791 -0.272938 1.02748e-19)
(0.0659241 -0.030154 2.99457e-20)
(0.314653 -0.147124 1.94726e-19)
(0.51104 -0.211634 -1.06288e-19)
(0.62591 -0.231216 1.2131e-21)
(0.689476 -0.224431 1.73475e-19)
(0.731907 -0.207492 1.74215e-20)
(0.77968 -0.194547 1.07918e-19)
(0.857771 -0.201529 -1.38213e-21)
(1.01392 -0.236426 -1.00859e-19)
(1.2262 -0.314629 2.26384e-19)
(0.0959539 -0.0369976 2.11004e-20)
(0.386574 -0.148216 1.66659e-19)
(0.601903 -0.206742 -2.16804e-20)
(0.720846 -0.222982 -4.76091e-20)
(0.782974 -0.215819 -1.38703e-20)
(0.823795 -0.200553 2.97973e-20)
(0.872085 -0.189139 -3.90566e-20)
(0.958039 -0.196534 -1.35936e-19)
(1.12835 -0.233064 -1.0868e-19)
(1.37134 -0.30667 -5.33795e-20)
(0.129867 -0.0402274 2.14748e-22)
(0.457443 -0.137813 2.50694e-20)
(0.688007 -0.186178 1.83815e-19)
(0.809219 -0.197394 -7.33775e-20)
(0.869936 -0.189166 -7.48162e-20)
(0.909953 -0.175009 -2.38897e-20)
(0.958917 -0.164949 -4.90853e-20)
(1.05169 -0.171916 -4.59862e-20)
(1.23474 -0.206806 2.05517e-20)
(1.49969 -0.272731 -1.90856e-19)
(0.166966 -0.0391957 -5.61821e-20)
(0.525805 -0.117094 -1.76383e-19)
(0.767548 -0.152504 4.5903e-20)
(0.889352 -0.157856 1.09083e-19)
(0.948697 -0.148199 -3.86151e-20)
(0.988535 -0.134389 8.51124e-20)
(1.03849 -0.123752 1.48758e-19)
(1.13708 -0.127039 -1.41474e-19)
(1.3303 -0.154544 -1.04377e-19)
(1.60978 -0.203337 5.00794e-20)
(0.205967 -0.0329145 2.18118e-20)
(0.589757 -0.0861637 -2.43731e-20)
(0.838918 -0.106517 -1.06565e-19)
(0.96039 -0.105621 2.13072e-20)
(1.01883 -0.0946157 9.33118e-21)
(1.0592 -0.0812592 1.29729e-19)
(1.11013 -0.0703153 -3.58783e-20)
(1.21385 -0.0696273 -1.89672e-19)
(1.41638 -0.0872203 9.20984e-20)
(1.70646 -0.117192 -3.83551e-20)
(0.245079 -0.0211899 3.43511e-20)
(0.647166 -0.0469827 4.54535e-20)
(0.899638 -0.0517899 -1.32397e-19)
(1.01939 -0.0451673 -2.03676e-20)
(1.07661 -0.0336397 2.27317e-21)
(1.11773 -0.0214247 -2.79858e-20)
(1.16966 -0.0103535 1.20998e-19)
(1.27834 -0.00467146 6.78403e-20)
(1.48908 -0.00939284 -6.71387e-20)
(1.78541 -0.0179226 2.8948e-20)
(0.281923 -0.00347724 4.07013e-20)
(0.695277 0.000249161 8.35283e-20)
(0.947319 0.0110261 -1.33955e-19)
(1.06416 0.0225677 -3.40867e-20)
(1.11916 0.033407 1.00569e-21)
(1.16066 0.0434926 -2.03178e-20)
(1.21406 0.0533521 -5.32344e-20)
(1.32902 0.062642 3.33778e-20)
(1.54821 0.0703164 2.12126e-20)
(1.84586 0.0804842 -2.73772e-20)
(-0.000496043 0.0262095 -3.07741e-20)
(-0.000513254 0.0278655 4.04703e-20)
(0.00379716 0.0161622 5.97996e-20)
(0.012314 0.00197529 -5.61402e-20)
(0.0208528 -0.00733516 -1.32804e-20)
(0.0293516 -0.0144224 4.64173e-20)
(0.037834 -0.022839 3.83227e-20)
(0.0466573 -0.035854 -8.3327e-20)
(0.0566032 -0.0570779 4.09712e-22)
(0.0701278 -0.08975 3.67254e-20)
(-0.00256521 0.0255788 1.54081e-20)
(-0.00269801 0.0233264 6.68485e-22)
(0.00443149 0.00263264 1.11158e-19)
(0.0145759 -0.0156121 -1.00484e-19)
(0.0240705 -0.0262533 -1.91232e-19)
(0.033379 -0.0339696 -5.00833e-20)
(0.0427546 -0.0432772 1.17774e-19)
(0.052932 -0.0583106 0)
(0.0652017 -0.0836153 -1.27712e-20)
(0.0828538 -0.12252 5.23304e-20)
(-0.00459961 0.0249671 5.94803e-23)
(-0.00396398 0.0187307 -1.5013e-19)
(0.00781085 -0.0114285 -3.3999e-20)
(0.0202952 -0.0331336 9.64393e-20)
(0.0310923 -0.0448795 -1.05886e-19)
(0.0414377 -0.0531138 -2.91013e-20)
(0.0519625 -0.0631575 -7.30268e-20)
(0.0638767 -0.0800154 -3.90155e-20)
(0.0791223 -0.109346 -1.53001e-19)
(0.102152 -0.154505 -2.30776e-19)
(-0.00627736 0.0242844 3.6772e-20)
(-0.00370233 0.0130508 6.318e-20)
(0.0139101 -0.0257321 -1.12209e-20)
(0.0292429 -0.0502044 9.2838e-21)
(0.0416072 -0.0628953 4.32443e-21)
(0.0531311 -0.0715551 7.75655e-20)
(0.0649814 -0.0821653 -2.38306e-20)
(0.0789867 -0.100582 0)
(0.0979082 -0.133772 1.7571e-19)
(0.127405 -0.185155 8.69207e-20)
(-0.00756919 0.0226202 -7.5964e-20)
(-0.00248806 0.0073648 3.74522e-20)
(0.0226752 -0.0395581 1.6668e-19)
(0.0414407 -0.0663632 1.63207e-20)
(0.0555807 -0.079795 2.42442e-20)
(0.0683196 -0.0887719 1.02045e-19)
(0.0815144 -0.0997263 -7.18993e-20)
(0.0976744 -0.119227 -1.76376e-20)
(0.120467 -0.155801 1.53433e-19)
(0.157023 -0.213004 2.0746e-19)
(-0.00848605 0.0202569 -6.72949e-20)
(-4.6246e-05 0.000599315 1.14879e-20)
(0.0346769 -0.0528948 -1.47681e-19)
(0.0571973 -0.0810903 -7.23469e-20)
(0.0731741 -0.0948125 8.04604e-20)
(0.0870715 -0.103957 1.04525e-19)
(0.101464 -0.115072 7.18324e-20)
(0.119565 -0.134955 -1.60139e-19)
(0.146201 -0.173939 1.07277e-19)
(0.190413 -0.236404 2.51493e-19)
(-0.00932893 0.0167669 3.97903e-20)
(0.00444729 -0.00816067 -9.60254e-21)
(0.0511115 -0.0656434 4.09753e-20)
(0.0779874 -0.0936613 -7.06936e-20)
(0.0959135 -0.106412 -1.34519e-19)
(0.110688 -0.115022 -7.81067e-20)
(0.125691 -0.126197 1.22939e-19)
(0.144841 -0.145653 -1.2562e-19)
(0.174919 -0.186093 -1.11915e-19)
(0.228483 -0.254578 -6.0844e-20)
(-0.0118457 0.0188387 1.02089e-21)
(0.0191364 -0.024344 -3.3617e-20)
(0.073437 -0.0785542 7.45899e-20)
(0.106315 -0.104174 2.46155e-20)
(0.126669 -0.113043 -8.04757e-20)
(0.142106 -0.11771 -4.14157e-20)
(0.15713 -0.127322 1.05505e-19)
(0.175988 -0.146231 9.59567e-20)
(0.208416 -0.187034 1.77646e-19)
(0.271612 -0.260656 -4.7321e-20)
(-0.0109141 0.0146705 -1.02045e-20)
(0.0384674 -0.0391349 4.54089e-20)
(0.105823 -0.0935921 1.24687e-20)
(0.148253 -0.115921 -1.77405e-19)
(0.173778 -0.117797 -3.18761e-20)
(0.190919 -0.111159 4.22052e-20)
(0.207467 -0.113842 1.0241e-19)
(0.229566 -0.130981 1.10619e-19)
(0.262808 -0.167975 -1.92806e-22)
(0.338874 -0.238004 -1.62456e-20)
(-0.00788324 0.00909525 3.17584e-20)
(0.0661458 -0.0571885 -2.69439e-20)
(0.152643 -0.111724 1.32008e-19)
(0.208688 -0.130222 2.00926e-19)
(0.242371 -0.123341 -9.94297e-20)
(0.261022 -0.100547 2.21641e-20)
(0.275392 -0.0779018 -1.62502e-19)
(0.302631 -0.0770122 -4.48539e-20)
(0.351026 -0.106827 -5.49076e-20)
(0.466679 -0.167023 1.09709e-19)
(0.164086 -0.307218 -2.60493e-19)
(0.446746 -0.344035 -1.60189e-19)
(0.619344 -0.270504 -1.71221e-20)
(0.702181 -0.21193 -2.92595e-20)
(0.756525 -0.160094 3.6512e-20)
(0.783386 -0.120045 1.89824e-21)
(0.79426 -0.086729 -3.09892e-20)
(0.803224 -0.0584283 9.34083e-21)
(0.795778 -0.0353439 -4.72408e-21)
(0.796932 -0.0126904 -1.7835e-21)
(0.206042 -0.373708 -1.72335e-19)
(0.464914 -0.410409 9.9156e-21)
(0.633064 -0.305402 -4.40001e-20)
(0.711368 -0.233435 7.81668e-21)
(0.763665 -0.172006 2.93979e-20)
(0.789217 -0.126302 -5.08103e-20)
(0.799338 -0.0895504 1.86106e-20)
(0.80802 -0.0590515 9.52407e-23)
(0.800603 -0.0350765 -9.31353e-21)
(0.801757 -0.0121477 8.41903e-21)
(0.259327 -0.436483 5.87369e-19)
(0.483528 -0.472509 1.65245e-19)
(0.643993 -0.339495 1.70453e-20)
(0.716028 -0.255701 3.16373e-20)
(0.76707 -0.184239 -4.31247e-20)
(0.791519 -0.133491 6.73506e-22)
(0.80174 -0.0925466 7.45551e-21)
(0.810526 -0.0600002 -9.61559e-21)
(0.804281 -0.0349154 -1.27424e-21)
(0.805432 -0.0115936 -1.41012e-21)
(0.325354 -0.495781 3.90425e-19)
(0.502239 -0.528388 -4.06772e-21)
(0.652597 -0.376243 -3.77526e-22)
(0.717195 -0.278263 -2.02827e-20)
(0.766616 -0.198338 1.17226e-20)
(0.790374 -0.140961 9.2033e-21)
(0.80122 -0.0963678 -1.46423e-20)
(0.810801 -0.0613359 0)
(0.806223 -0.0350725 0)
(0.80831 -0.0113764 4.69555e-23)
(0.393552 -0.5477 -2.05381e-19)
(0.521985 -0.575404 -2.00023e-19)
(0.65824 -0.412268 -4.26317e-21)
(0.715832 -0.301079 1.65742e-20)
(0.763784 -0.212479 6.15526e-21)
(0.787416 -0.149056 4.05733e-20)
(0.799478 -0.100759 5.26081e-22)
(0.810566 -0.0632661 -6.0602e-21)
(0.807921 -0.0357993 -1.55506e-20)
(0.811671 -0.0112921 -1.8108e-21)
(0.473115 -0.590129 -2.49614e-19)
(0.556049 -0.615244 -9.23508e-20)
(0.673896 -0.4488 -9.63567e-20)
(0.722778 -0.32519 2.84279e-21)
(0.767356 -0.228758 -2.68559e-20)
(0.789925 -0.159097 2.33722e-20)
(0.802501 -0.106918 8.37024e-21)
(0.815032 -0.0666382 -2.79746e-20)
(0.814176 -0.0374524 1.85953e-22)
(0.820861 -0.0115875 -1.21712e-20)
(0.557385 -0.63127 1.25594e-19)
(0.624772 -0.651828 2.15638e-20)
(0.721129 -0.480141 6.38593e-20)
(0.758674 -0.344342 -2.58916e-20)
(0.796056 -0.24105 -2.76616e-21)
(0.814876 -0.166804 -2.75385e-20)
(0.825848 -0.111919 -4.69993e-22)
(0.838529 -0.0700334 6.84372e-21)
(0.83914 -0.0396856 6.08665e-21)
(0.848715 -0.0124319 5.95635e-21)
(0.621703 -0.655581 2.94574e-19)
(0.730826 -0.708963 1.07942e-18)
(0.81052 -0.525294 1.04765e-19)
(0.830496 -0.375282 1.06707e-20)
(0.854555 -0.262539 1.79573e-20)
(0.865965 -0.181324 2.26381e-20)
(0.872759 -0.121669 -2.38404e-20)
(0.88398 -0.0765967 1.85588e-20)
(0.885236 -0.0435949 -5.99448e-22)
(0.896999 -0.0138731 -2.60426e-21)
(0.828909 -0.665432 8.3156e-19)
(0.900188 -0.71334 4.60689e-19)
(0.984791 -0.538635 -3.34945e-19)
(0.987791 -0.381528 9.73554e-20)
(0.995848 -0.266012 -1.87407e-20)
(0.995055 -0.183608 -4.99011e-21)
(0.992365 -0.123752 -1.90843e-21)
(0.997154 -0.0788825 -6.94495e-22)
(0.993017 -0.0459515 -2.81618e-21)
(1.00545 -0.0163255 -3.51624e-21)
(0.785742 -0.717116 1.22048e-20)
(1.07007 -0.81456 -7.67763e-19)
(1.12081 -0.608066 -2.76494e-19)
(1.11503 -0.424335 8.75861e-20)
(1.11518 -0.294333 -3.09869e-20)
(1.11046 -0.202475 8.6471e-21)
(1.10536 -0.135767 -3.34863e-20)
(1.10984 -0.0858923 9.56546e-22)
(1.10882 -0.049983 -2.65977e-21)
(1.11981 -0.0181833 -1.51185e-21)
(1.73895 -0.576509 2.00355e-19)
(1.48551 -0.683086 -7.06259e-20)
(1.47727 -0.542052 -5.50582e-20)
(1.41036 -0.387041 -4.57421e-20)
(1.37378 -0.269037 2.73628e-20)
(1.34547 -0.186214 5.30032e-21)
(1.32288 -0.126883 1.29097e-20)
(1.31388 -0.0826 1.00944e-20)
(1.30122 -0.0499568 -2.03114e-20)
(1.30612 -0.0203243 2.24252e-21)
(1.6078 -0.944976 -3.06287e-19)
(1.76136 -0.831485 1.87349e-20)
(1.72017 -0.598425 1.56416e-19)
(1.63411 -0.404459 -2.43063e-20)
(1.57911 -0.274356 1.1286e-19)
(1.5382 -0.187509 9.57347e-20)
(1.50609 -0.12487 7.25389e-20)
(1.49054 -0.0802822 -9.15548e-21)
(1.47758 -0.0475101 3.46688e-20)
(1.47319 -0.0184423 8.55202e-21)
(2.24529 -0.660889 -1.11267e-19)
(2.03289 -0.725234 -4.96524e-20)
(1.96636 -0.520569 4.43672e-20)
(1.84571 -0.347759 9.22665e-36)
(1.7679 -0.233085 -1.02537e-20)
(1.71072 -0.158302 -3.46995e-34)
(1.66623 -0.105764 2.51178e-21)
(1.64101 -0.0698055 -7.5848e-35)
(1.61824 -0.0422151 3.47153e-22)
(1.61402 -0.0177222 -2.14641e-21)
(2.42451 -0.721556 -2.34257e-19)
(2.24964 -0.711671 5.85624e-20)
(2.12534 -0.506648 -8.39083e-20)
(1.96513 -0.329377 0)
(1.86411 -0.216659 -8.36031e-20)
(1.7942 -0.145736 -6.41117e-20)
(1.74146 -0.0966603 -4.76112e-20)
(1.7103 -0.0630977 2.12572e-34)
(1.68529 -0.0381768 -1.87948e-20)
(1.67913 -0.0160726 1.40076e-21)
(2.69671 -0.579271 -2.34992e-19)
(2.40645 -0.603938 1.7308e-20)
(2.23296 -0.425667 0)
(2.03959 -0.269443 0)
(1.91876 -0.173097 0)
(1.8384 -0.114709 0)
(1.7793 -0.0753286 1.243e-21)
(1.74318 -0.0491192 2.48775e-34)
(1.71506 -0.03069 -8.95401e-23)
(1.70856 -0.0143314 1.16492e-34)
(2.82896 -0.534909 7.99556e-20)
(2.49488 -0.508697 0)
(2.2825 -0.349734 0)
(2.06331 -0.216206 0)
(1.92641 -0.136237 0)
(1.83834 -0.089873 0)
(1.77543 -0.0589435 -2.97836e-21)
(1.73708 -0.0386335 3.45009e-20)
(1.70845 -0.0254798 -3.25476e-22)
(1.70134 -0.0132119 7.43968e-21)
(2.86938 -0.459818 0)
(2.46765 -0.386449 2.3172e-21)
(2.22487 -0.2543 -5.53034e-20)
(1.99533 -0.150999 0)
(1.85468 -0.0918313 -5.60367e-20)
(1.76642 -0.059691 -4.05516e-20)
(1.70477 -0.0388476 -3.23913e-20)
(1.66684 -0.0251907 -1.95506e-20)
(1.63976 -0.0182686 2.28932e-20)
(1.62621 -0.0108303 -4.78834e-21)
(2.69978 -0.363971 -8.72314e-20)
(2.22324 -0.250992 1.84869e-20)
(1.97177 -0.15463 -1.69547e-20)
(1.75545 -0.086442 -2.01247e-36)
(1.62869 -0.0491781 1.02567e-20)
(1.55097 -0.0311177 -2.53242e-34)
(1.4974 -0.019753 -4.11222e-21)
(1.46422 -0.0126038 -7.68016e-21)
(1.44111 -0.00998441 -7.07072e-22)
(1.42402 -0.00719147 1.33035e-21)
(2.06197 -0.165862 0)
(1.61527 -0.0929409 2.47049e-20)
(1.40936 -0.0573403 3.1773e-20)
(1.24229 -0.0283859 0)
(1.15456 -0.013448 2.64676e-20)
(1.10354 -0.00827315 1.78504e-20)
(1.06936 -0.0052891 7.32947e-21)
(1.04877 -0.00349756 7.58485e-21)
(1.03537 -0.00362487 -9.92098e-21)
(1.01815 -0.00331597 9.29115e-23)
(0.792745 -0.0341712 -2.49344e-20)
(0.611304 -0.0134697 0)
(0.532862 -0.010819 0)
(0.463447 -0.00468159 0)
(0.437376 -0.00154506 0)
(0.424254 -0.000882334 0)
(0.415593 -0.000453321 -4.65997e-21)
(0.410721 -0.000214133 1.53184e-35)
(0.407024 -0.000191767 -9.30295e-22)
(0.39986 -0.00055308 -1.83666e-21)
(2.409 0.102541 3.61396e-19)
(2.36662 -0.0251034 1.30117e-19)
(2.28556 -0.157868 3.27193e-19)
(2.16851 -0.280471 -1.63347e-19)
(2.03915 -0.386988 -2.11768e-19)
(1.88259 -0.454837 -1.55347e-19)
(1.75098 -0.50066 4.97221e-19)
(1.56598 -0.482434 9.69932e-20)
(1.52395 -0.454838 -2.70778e-19)
(1.20703 -0.332352 -1.16173e-19)
(3.05185 0.0742986 -3.90189e-19)
(3.04378 -0.0490638 1.30186e-19)
(2.99114 -0.17337 1.14419e-21)
(2.90164 -0.295753 1.14644e-19)
(2.78477 -0.404534 -3.06628e-19)
(2.6316 -0.499722 3.00097e-19)
(2.47061 -0.568814 4.19178e-19)
(2.24532 -0.614599 8.57947e-20)
(2.05091 -0.659821 1.87865e-19)
(1.77988 -0.655477 1.85893e-19)
(3.29186 0.0560345 1.03303e-20)
(3.29816 -0.0516759 -2.60433e-19)
(3.28259 -0.161147 -2.93983e-19)
(3.23717 -0.269927 6.84837e-19)
(3.1596 -0.370304 -2.08553e-19)
(3.04677 -0.465526 3.89081e-19)
(2.91921 -0.534047 -2.21234e-19)
(2.72039 -0.605192 -2.10152e-19)
(2.59068 -0.607491 -2.4736e-19)
(2.31013 -0.680003 -4.99254e-20)
(3.31725 0.0195551 1.11973e-19)
(3.34101 -0.0584562 -4.43568e-19)
(3.33814 -0.140138 2.95818e-19)
(3.31085 -0.2204 -3.99087e-19)
(3.26093 -0.297694 1.71359e-19)
(3.1792 -0.372661 -3.08146e-19)
(3.07757 -0.439487 -1.55154e-19)
(2.93514 -0.497922 1.45006e-19)
(2.82916 -0.525092 3.61778e-19)
(2.64875 -0.578902 2.89736e-19)
(3.26143 -0.00847495 7.50631e-20)
(3.28092 -0.0603848 -3.64088e-19)
(3.28349 -0.114655 9.91124e-20)
(3.26748 -0.169503 -3.04839e-19)
(3.23229 -0.223078 -1.15814e-19)
(3.1727 -0.282043 1.02617e-21)
(3.10122 -0.329901 4.06468e-19)
(3.00596 -0.379098 2.14514e-20)
(2.94097 -0.393801 -1.00538e-20)
(2.81291 -0.46337 -3.4502e-20)
(3.20365 -0.0233859 1.64514e-19)
(3.21448 -0.0572581 6.2206e-20)
(3.21451 -0.0927359 -1.58098e-19)
(3.20263 -0.129594 -3.56273e-20)
(3.17542 -0.16629 1.86242e-19)
(3.13367 -0.207637 2.91497e-19)
(3.08622 -0.240626 -1.31089e-19)
(3.02554 -0.279874 -3.08785e-19)
(2.98384 -0.295242 1.34634e-19)
(2.89378 -0.362117 8.45727e-20)
(3.1271 -0.0299705 -2.41309e-20)
(3.13182 -0.0510693 1.02612e-19)
(3.13055 -0.0731576 -5.98694e-20)
(3.1223 -0.0968338 8.29913e-20)
(3.10385 -0.121205 2.35031e-19)
(3.0788 -0.149078 -2.04351e-19)
(3.04865 -0.172734 -4.73092e-20)
(3.01465 -0.210323 1.05981e-19)
(2.97962 -0.222927 1.18581e-19)
(2.93287 -0.302743 8.1525e-20)
(2.92151 -0.0289535 -1.24966e-20)
(2.92274 -0.040448 -2.33103e-21)
(2.92344 -0.0523097 -7.84526e-22)
(2.92311 -0.0662914 3.28021e-20)
(2.91804 -0.0804388 -1.90814e-19)
(2.9134 -0.0984589 3.98286e-20)
(2.90073 -0.114204 1.25796e-19)
(2.89615 -0.147885 -1.40775e-19)
(2.86119 -0.155445 1.78564e-19)
(2.88386 -0.258498 2.10078e-19)
(2.30481 -0.0221234 4.62905e-20)
(2.30182 -0.0239261 6.49883e-21)
(2.30353 -0.027509 2.34011e-20)
(2.30966 -0.0316812 -1.77878e-20)
(2.31752 -0.0374201 4.56769e-20)
(2.32924 -0.0446443 7.16894e-20)
(2.33628 -0.0536679 -1.45915e-19)
(2.35092 -0.0685202 -6.66631e-20)
(2.3337 -0.0884437 2.91727e-20)
(2.38101 -0.161109 -2.01854e-20)
(0.982364 -0.00443794 0)
(0.975498 -0.00535359 3.40861e-21)
(0.972216 -0.0070241 -7.91011e-22)
(0.972749 -0.00801377 3.32587e-20)
(0.97567 -0.00922305 -2.8005e-20)
(0.982585 -0.0099807 -2.47632e-19)
(0.988138 -0.0120849 1.14197e-21)
(0.996201 -0.0178264 3.0763e-19)
(0.995196 -0.033371 6.23761e-20)
(0.978853 -0.0444903 -8.58577e-21)
(0.97871 0.404209 -2.42177e-20)
(0.749343 0.281067 -6.56913e-20)
(0.598867 0.231449 3.2814e-20)
(0.525651 0.230614 -1.38618e-19)
(0.496678 0.254095 3.41927e-20)
(0.482453 0.288833 -7.79809e-20)
(0.460327 0.314347 -7.45667e-20)
(0.41658 0.315935 6.62902e-20)
(0.332982 0.278623 -9.21179e-20)
(0.179206 0.157885 5.64696e-21)
(1.25119 0.426606 -1.41087e-19)
(1.02801 0.303038 2.56869e-19)
(0.837415 0.245315 1.19593e-19)
(0.720307 0.234713 8.59831e-20)
(0.658721 0.25337 1.70723e-20)
(0.622668 0.28705 -1.01805e-20)
(0.584409 0.316178 8.61455e-21)
(0.521575 0.322182 -1.20003e-19)
(0.411201 0.286013 -4.98365e-20)
(0.217419 0.160984 -7.86849e-20)
(1.41178 0.452392 7.99732e-20)
(1.19778 0.345539 2.40097e-19)
(0.999599 0.286594 1.69665e-21)
(0.869754 0.266431 -3.84429e-20)
(0.796346 0.276656 9.69344e-20)
(0.751289 0.304319 1.21153e-19)
(0.705177 0.330506 -4.10317e-20)
(0.630108 0.335067 -1.20183e-19)
(0.496011 0.295631 2.03066e-19)
(0.259382 0.164011 -1.1926e-19)
(1.53705 0.468288 -2.08721e-19)
(1.32532 0.377498 1.05818e-19)
(1.12256 0.319467 -2.32066e-19)
(0.987534 0.293359 -5.85452e-20)
(0.911123 0.297415 1.74678e-19)
(0.864516 0.318734 -1.18629e-19)
(0.815915 0.339642 -1.64883e-19)
(0.732944 0.340041 1.30683e-19)
(0.577916 0.296021 -1.06964e-19)
(0.298687 0.160659 -7.056e-22)
(1.6488 0.47069 2.56588e-19)
(1.43015 0.38979 2.08366e-19)
(1.21987 0.332792 -4.78348e-20)
(1.08226 0.303904 2.10801e-19)
(1.00708 0.30419 -5.29593e-20)
(0.962029 0.319668 -1.23863e-19)
(0.912886 0.334498 9.54441e-21)
(0.823748 0.330136 -1.33833e-19)
(0.648904 0.28234 -1.27704e-19)
(0.329913 0.148916 -5.92811e-20)
(1.74277 0.453905 4.4775e-19)
(1.51094 0.379848 3.86122e-19)
(1.2928 0.324986 -2.72292e-19)
(1.15475 0.296383 -1.80223e-19)
(1.08321 0.294317 -1.09527e-20)
(1.04073 0.303723 -1.81643e-19)
(0.991666 0.311867 9.57837e-20)
(0.897528 0.3029 -1.31483e-19)
(0.704057 0.253475 1.00186e-19)
(0.350268 0.12907 5.37659e-20)
(1.81471 0.410434 4.26229e-19)
(1.56692 0.345589 -3.96319e-19)
(1.34252 0.296316 -2.71725e-19)
(1.20605 0.270256 2.94436e-20)
(1.13914 0.266562 -1.04324e-19)
(1.09868 0.270137 1.81383e-19)
(1.04942 0.272148 5.2922e-20)
(0.950791 0.259968 -2.05186e-19)
(0.739826 0.211955 5.75465e-20)
(0.358171 0.103615 5.37431e-20)
(1.86426 0.345304 -2.8479e-19)
(1.59911 0.292888 -2.51805e-19)
(1.37084 0.251902 -1.22144e-19)
(1.23719 0.229771 5.19246e-20)
(1.17479 0.224375 1.43109e-19)
(1.13499 0.222428 9.99776e-20)
(1.08585 0.218962 -1.02645e-19)
(0.982656 0.205123 1.56987e-19)
(0.756089 0.161853 4.35996e-20)
(0.354193 0.0748914 5.26838e-20)
(1.88753 0.26641 7.58161e-20)
(1.60726 0.226506 -7.57545e-20)
(1.37869 0.195113 5.72251e-20)
(1.24882 0.177237 2.00821e-19)
(1.18937 0.169697 1.45223e-20)
(1.14891 0.163779 -1.0887e-19)
(1.10015 0.156764 1.66986e-19)
(0.992518 0.142377 2.48355e-19)
(0.753252 0.107219 -1.2814e-19)
(0.339069 0.0460464 -7.29324e-20)
(1.88186 0.177326 -1.30369e-19)
(1.59037 0.150675 -7.96697e-22)
(1.36429 0.130436 5.22076e-20)
(1.24023 0.116804 -2.4457e-20)
(1.18397 0.107961 8.63208e-21)
(1.14291 0.0999204 -9.71047e-20)
(1.09167 0.0908281 1.05148e-19)
(0.979546 0.0766189 -1.98612e-19)
(0.731824 0.0523059 -1.46229e-19)
(0.314184 0.0193068 2.07934e-20)
(0.161964 0.228522 -2.86477e-20)
(0.142672 0.200711 2.56111e-19)
(0.125605 0.181441 3.3142e-20)
(0.10952 0.170724 -1.63303e-19)
(0.0933533 0.166284 -4.59529e-20)
(0.0764738 0.165037 -1.02653e-19)
(0.0586481 0.162772 4.81394e-20)
(0.0399854 0.15434 -3.96853e-20)
(0.0218688 0.133601 8.36619e-20)
(0.00919122 0.0825924 2.30146e-20)
(0.189582 0.277618 -7.89708e-20)
(0.166338 0.24427 -2.64405e-20)
(0.146781 0.221377 -1.59019e-19)
(0.129381 0.209089 1.42229e-20)
(0.112525 0.204485 2.22204e-20)
(0.0951856 0.203698 3.77944e-20)
(0.0768354 0.201425 1.61515e-19)
(0.0571929 0.191428 -6.02245e-20)
(0.036527 0.166018 5.99888e-20)
(0.0177116 0.10185 -1.90501e-20)
(0.22511 0.325503 6.2313e-20)
(0.196682 0.286538 1.86435e-19)
(0.174016 0.259872 1.05118e-19)
(0.155038 0.245976 1.47622e-19)
(0.137421 0.241148 3.47856e-20)
(0.11963 0.240696 1.63548e-19)
(0.100743 0.2383 -3.90925e-20)
(0.0798915 0.226752 -3.39037e-20)
(0.0560476 0.196796 -1.13974e-22)
(0.0291882 0.119906 8.46967e-21)
(0.26728 0.37099 4.32053e-19)
(0.232574 0.326462 3.19171e-19)
(0.206319 0.296055 -3.52742e-19)
(0.185586 0.280668 -1.3661e-19)
(0.167245 0.275613 -2.44755e-20)
(0.14917 0.275321 -7.47371e-20)
(0.129896 0.272587 -1.75405e-19)
(0.107744 0.259428 4.63301e-20)
(0.0801765 0.225032 -3.28843e-20)
(0.0434457 0.13623 -7.33084e-20)
(0.314668 0.413556 -1.21106e-19)
(0.273063 0.363304 -2.93708e-19)
(0.24288 0.329043 2.29095e-19)
(0.220313 0.312196 -7.36013e-20)
(0.201335 0.306753 -9.34822e-20)
(0.18309 0.306257 4.31878e-20)
(0.163518 0.302854 1.87899e-20)
(0.139955 0.288016 -1.05385e-19)
(0.108127 0.24941 -1.26405e-19)
(0.0599392 0.150081 5.28852e-20)
(0.361687 0.448732 -1.14978e-20)
(0.314019 0.393724 -1.17383e-20)
(0.280606 0.356596 1.46479e-20)
(0.256783 0.3389 4.63382e-20)
(0.237669 0.333081 1.70872e-19)
(0.219718 0.331951 -9.57878e-20)
(0.200211 0.327543 -6.25435e-20)
(0.175366 0.311098 2.23387e-20)
(0.138945 0.268674 -3.47954e-20)
(0.0780846 0.160676 9.56566e-20)
(0.422105 0.481298 -1.89231e-19)
(0.362279 0.419774 8.03274e-20)
(0.322889 0.37927 2.41818e-19)
(0.29669 0.360642 -5.09679e-20)
(0.277 0.353653 -1.94517e-19)
(0.259077 0.351058 1.72758e-19)
(0.239541 0.345455 2.1396e-19)
(0.213214 0.327731 1.25854e-19)
(0.171458 0.282067 8.6381e-20)
(0.0969674 0.167388 1.60189e-19)
(0.460512 0.50919 -3.06826e-19)
(0.395252 0.438118 -4.97504e-20)
(0.353854 0.392807 7.04586e-20)
(0.329988 0.373073 -1.20175e-19)
(0.313131 0.364556 -3.37159e-21)
(0.297351 0.360668 1.55341e-19)
(0.279196 0.35477 -5.4519e-20)
(0.252106 0.336909 -1.14643e-19)
(0.204735 0.289164 1.4016e-20)
(0.115799 0.169728 -5.74393e-20)
(0.54888 0.528304 -4.37863e-20)
(0.466597 0.453235 7.46862e-20)
(0.408357 0.400669 -9.93843e-20)
(0.37846 0.374836 3.1596e-20)
(0.360628 0.363129 1.2091e-19)
(0.345809 0.359009 -1.13868e-20)
(0.327181 0.355902 3.04676e-20)
(0.29724 0.339754 0)
(0.241269 0.291098 -6.02192e-20)
(0.134945 0.168414 -5.72683e-20)
(0.524365 0.525471 0)
(0.428929 0.439451 0)
(0.393028 0.382849 -2.80274e-19)
(0.373686 0.351446 -1.16993e-19)
(0.372765 0.342318 1.34003e-19)
(0.375996 0.347349 -1.25385e-20)
(0.366406 0.348501 1.21674e-19)
(0.337867 0.334471 5.68117e-20)
(0.275867 0.28768 3.94663e-20)
(0.152509 0.163102 4.98904e-20)
(0.674338 0.456786 -1.88169e-20)
(1.03916 0.303184 -1.37052e-20)
(0.837324 0.195062 -1.60035e-20)
(0.825826 0.174744 7.88796e-22)
(0.838615 0.184764 4.61864e-21)
(0.810465 0.19725 7.74834e-21)
(0.763416 0.234347 -9.03378e-21)
(0.697702 0.279044 -3.7987e-20)
(0.555358 0.36147 -1.0969e-19)
(0.270084 0.383873 2.1555e-19)
(0.672916 0.477969 -1.1661e-20)
(1.03548 0.316284 3.32667e-20)
(0.831172 0.201769 -3.07865e-21)
(0.822625 0.179442 2.8746e-20)
(0.836659 0.189689 7.73009e-23)
(0.813348 0.206041 -1.08174e-20)
(0.770559 0.251405 -8.45569e-21)
(0.712449 0.307149 -8.75461e-22)
(0.578379 0.422439 3.43439e-19)
(0.315603 0.456966 -1.25043e-20)
(0.670852 0.499561 3.91128e-20)
(1.0305 0.329393 7.96291e-20)
(0.822166 0.207942 -5.65218e-20)
(0.81629 0.183849 -5.68799e-21)
(0.831265 0.193672 -9.42265e-21)
(0.811998 0.214696 2.64923e-21)
(0.773457 0.267806 1.49192e-20)
(0.725345 0.334202 -1.87035e-20)
(0.60111 0.478726 1.30397e-19)
(0.374553 0.527529 -5.3952e-19)
(0.669424 0.521815 3.304e-20)
(1.02443 0.342595 -1.06627e-20)
(0.810065 0.213583 4.04156e-22)
(0.806695 0.188352 -3.92097e-20)
(0.823464 0.197075 -4.1651e-21)
(0.806822 0.223683 -1.08782e-21)
(0.773077 0.283434 -1.69649e-20)
(0.736222 0.362664 8.85064e-20)
(0.62644 0.529206 -1.2353e-19)
(0.446313 0.594152 -4.7676e-19)
(0.670098 0.54467 1.94358e-20)
(1.0179 0.356613 -1.35894e-19)
(0.795044 0.218879 2.09079e-20)
(0.795443 0.192866 7.2396e-20)
(0.815227 0.199979 -6.21275e-21)
(0.799204 0.232513 2.07454e-21)
(0.768957 0.297379 2.29778e-20)
(0.742966 0.388461 4.56312e-20)
(0.650369 0.568641 -5.64948e-20)
(0.525858 0.655772 3.5596e-19)
(0.673823 0.567494 -1.43312e-20)
(1.01237 0.371833 2.46405e-21)
(0.781908 0.224758 -6.13466e-20)
(0.790299 0.196179 5.56477e-21)
(0.809774 0.203213 1.53756e-20)
(0.793174 0.242526 -3.52464e-21)
(0.765525 0.31302 -1.06389e-20)
(0.748126 0.417668 -1.62017e-19)
(0.676903 0.610669 0)
(0.594946 0.708711 -3.69929e-20)
(0.679499 0.589439 2.06446e-20)
(1.01897 0.387643 9.88155e-20)
(0.790242 0.229466 -1.3108e-20)
(0.796522 0.198023 4.69546e-20)
(0.817375 0.206252 8.81774e-21)
(0.805099 0.250721 5.17239e-21)
(0.783188 0.323976 4.65287e-22)
(0.777149 0.434879 1.31296e-20)
(0.725451 0.62099 -1.07069e-20)
(0.74407 0.751677 1.08218e-18)
(0.696625 0.607837 -1.32521e-19)
(1.04374 0.401059 1.50578e-19)
(0.818311 0.233471 7.09015e-20)
(0.824095 0.2038 -1.04222e-20)
(0.848207 0.215087 4.50828e-20)
(0.835953 0.268057 -2.87538e-21)
(0.815361 0.350593 -3.97613e-21)
(0.810278 0.476491 -3.44956e-22)
(0.792761 0.692193 2.24913e-19)
(0.676387 0.812164 -1.32152e-19)
(0.718976 0.616581 5.44158e-20)
(1.10865 0.411507 -9.68769e-20)
(0.905828 0.23334 2.41397e-21)
(0.918932 0.205387 -1.22609e-19)
(0.950927 0.216683 -1.5879e-21)
(0.947006 0.270966 1.35757e-21)
(0.936757 0.352959 -9.88782e-21)
(0.957171 0.475075 6.68117e-20)
(0.913928 0.661657 3.5097e-19)
(1.08397 0.79813 -8.47131e-19)
(0.758511 0.615832 1.40382e-19)
(1.20297 0.413371 -2.16469e-19)
(1.00859 0.22797 -1.07879e-20)
(1.01926 0.208719 1.08041e-19)
(1.05391 0.226842 -2.82725e-20)
(1.05071 0.292186 1.13655e-20)
(1.04357 0.389056 1.01212e-21)
(1.05705 0.543617 1.07666e-19)
(1.06225 0.755304 4.61339e-20)
(0.809311 0.932451 6.39139e-19)
(0.798415 0.585329 -5.31018e-20)
(1.35581 0.415044 1.69515e-20)
(1.17195 0.221019 -2.64058e-21)
(1.1867 0.20401 9.20433e-20)
(1.24416 0.218656 6.9353e-21)
(1.26261 0.278133 -1.89483e-20)
(1.27457 0.36639 -2.07422e-21)
(1.34704 0.498717 -1.87671e-19)
(1.29067 0.708651 -4.13161e-19)
(1.49917 0.697481 -2.59248e-19)
(0.828855 0.501678 -8.26156e-20)
(1.50243 0.388937 -2.1241e-20)
(1.34324 0.21076 4.53361e-20)
(1.36064 0.192495 -8.71758e-20)
(1.43457 0.212748 1.05149e-21)
(1.47376 0.274529 6.87481e-20)
(1.51706 0.367518 1.83889e-20)
(1.59572 0.52327 1.662e-19)
(1.7638 0.692645 -1.08385e-19)
(1.53296 0.88795 4.82863e-19)
(0.830623 0.390998 -5.59708e-20)
(1.59541 0.34562 -3.23283e-20)
(1.4841 0.192459 -4.80158e-20)
(1.51548 0.172168 1.20412e-20)
(1.60287 0.190987 8.75268e-35)
(1.66351 0.244293 -9.49789e-21)
(1.72514 0.330934 -7.81117e-34)
(1.85405 0.449798 2.86434e-20)
(1.98956 0.682013 -1.18938e-19)
(1.92623 0.697062 -3.5119e-19)
(0.819558 0.273515 1.15776e-19)
(1.62737 0.276292 -3.05387e-34)
(1.55236 0.162368 4.67329e-20)
(1.59771 0.151223 3.25996e-22)
(1.6934 0.172638 -2.52587e-20)
(1.76954 0.222739 -4.97258e-20)
(1.85146 0.302994 -9.22303e-34)
(2.00127 0.417338 -9.62547e-20)
(2.19928 0.621391 -4.93844e-20)
(2.1513 0.712965 4.18967e-19)
(0.802173 0.154922 0)
(1.62769 0.199702 -5.0555e-34)
(1.58326 0.123717 0)
(1.64016 0.123346 0)
(1.74071 0.143231 0)
(1.82774 0.18524 0)
(1.92185 0.255468 -5.68136e-34)
(2.09904 0.34684 0)
(2.29043 0.552235 -3.67949e-20)
(2.40968 0.622107 2.53013e-19)
(0.78719 0.0418645 5.64578e-20)
(1.60692 0.114867 -4.48825e-20)
(1.57987 0.0782555 4.30241e-20)
(1.64366 0.095673 0)
(1.7462 0.114892 0)
(1.84076 0.149452 9.0067e-21)
(1.945 0.206872 4.59562e-20)
(2.14665 0.283173 -1.45956e-20)
(2.32208 0.448599 -4.73178e-20)
(2.60148 0.546322 2.8088e-19)
(0.771069 -0.0616279 1.33965e-19)
(1.5522 0.0306432 2.94094e-20)
(1.51758 0.0307379 4.08518e-20)
(1.58328 0.0660986 -3.29525e-20)
(1.68355 0.0826812 -1.78055e-20)
(1.78159 0.108431 -1.53189e-20)
(1.89135 0.150771 -3.72621e-20)
(2.10964 0.211562 -3.61179e-20)
(2.27171 0.329399 -7.59326e-20)
(2.66919 0.435267 -6.6987e-20)
(0.729951 -0.140524 -7.00252e-20)
(1.4173 -0.0387773 -5.58802e-20)
(1.33101 -0.0113132 3.71785e-20)
(1.39082 0.0385094 -9.82122e-21)
(1.4823 0.0504148 8.94112e-35)
(1.57613 0.0663788 1.0066e-20)
(1.68372 0.0924882 -1.22351e-33)
(1.90179 0.137054 -1.45621e-20)
(2.05198 0.201877 2.17732e-20)
(2.5031 0.301398 3.97023e-20)
(0.63374 -0.19441 8.90903e-20)
(1.13524 -0.0809193 -6.29861e-20)
(0.933322 -0.0351843 3.50887e-20)
(0.987834 0.0173244 3.61972e-20)
(1.05984 0.0213136 8.2339e-21)
(1.13437 0.0276123 1.96238e-20)
(1.22301 0.0375151 1.00798e-20)
(1.40217 0.0608805 -1.27296e-20)
(1.54141 0.0853769 -1.83624e-20)
(1.92119 0.135187 1.81427e-19)
(0.456905 -0.0770778 5.07886e-20)
(0.663439 -0.0342534 -2.08364e-34)
(0.321788 -0.0161063 3.02981e-20)
(0.387794 0.00461498 0)
(0.422478 0.00459985 0)
(0.458597 0.00571106 1.01646e-20)
(0.501929 0.00786381 -1.3311e-35)
(0.589791 0.0145449 -1.46268e-20)
(0.66854 0.0171029 -2.8105e-20)
(0.863223 0.0354883 -5.98399e-20)